Converted from moscito
17280
    1SOL     ow    1   6.417   4.431   3.741 -0.0264  0.1335 -0.2144
    1SOL     hw    2   6.413   4.336   3.753 -1.3376 -0.1040 -2.1407
    1SOL     hw    3   6.484   4.444   3.674  0.2590  0.5879  0.1557
    1SOL     vw    4   6.425   4.420   3.734 -0.1616  0.1619 -0.4197
    2SOL     ow    5   5.452   4.189   3.829 -0.1734  0.3346 -0.4618
    2SOL     hw    6   5.427   4.218   3.741  1.4448  0.9788 -0.7461
    2SOL     hw    7   5.531   4.137   3.815 -0.5596 -0.5384  0.5091
    2SOL     vw    8   5.459   4.186   3.815 -0.0107  0.3045 -0.3711
    3SOL     ow    9   4.948   3.539   3.600  0.3421 -0.2759 -0.2263
    3SOL     hw   10   4.984   3.482   3.532  1.9835 -2.0235  1.9581
    3SOL     hw   11   4.971   3.496   3.682 -1.2706  1.8961  1.4928
    3SOL     vw   12   4.956   3.526   3.601  0.3457 -0.2199  0.2887
    4SOL     ow   13   6.004   0.554   0.614 -0.0394 -0.3718 -0.0530
    4SOL     hw   14   5.994   0.510   0.530 -1.1303  1.7981 -1.1498
    4SOL     hw   15   5.939   0.514   0.670 -0.0397 -1.1109 -0.5614
    4SOL     vw   16   5.994   0.543   0.610 -0.1833 -0.1829 -0.2648
    5SOL     ow   17   1.115   2.680   0.983  0.0506 -0.0958  0.0509
    5SOL     hw   18   1.031   2.644   0.956 -0.2000 -0.5526  1.3577
    5SOL     hw   19   1.094   2.735   1.059  0.8767  0.1288  0.1235
    5SOL     vw   20   1.101   2.683   0.989  0.1266 -0.1262  0.2329
    6SOL     ow   21   2.826   2.417   5.624  0.2350 -0.1568 -0.4418
    6SOL     hw   22   2.872   2.476   5.564  0.8846 -1.9279 -1.7737
    6SOL     hw   23   2.896   2.366   5.664 -0.1985  0.9356  1.8479
    6SOL     vw   24   2.841   2.418   5.621  0.2636 -0.2463 -0.3154
    7SOL     ow   25   4.125   5.002   1.139 -0.1092  0.0286  0.2459
    7SOL     hw   26   4.118   5.057   1.217  0.2662  0.8020 -0.2430
    7SOL     hw   27   4.123   5.065   1.066  1.5249 -0.4865 -0.2939
    7SOL     vw   28   4.124   5.018   1.139  0.1557  0.0627  0.1101
    8SOL     ow   29   0.802   6.377   1.536 -0.7948  0.6044  0.6206
    8SOL     hw   30   0.767   6.330   1.612  0.2109 -2.1573 -0.4753
    8SOL     hw   31   0.866   6.438   1.573 -0.1543 -0.8345  2.0147
    8SOL     vw   32   0.806   6.379   1.551 -0.5776  0.0503  0.6599
    9SOL     ow   33   3.070   1.550   6.640  0.8166  0.8986 -0.5755
    9SOL     hw   34   3.151   1.553   6.589  0.1160  2.3994 -1.6943
    9SOL     hw   35   3.097   1.571   6.729  1.8743 -0.3320 -0.5782
    9SOL     vw   36   3.084   1.553   6.645  0.8638  0.9342 -0.7236
   10SOL     ow   37   0.721   4.193   2.278 -0.0158  0.0138 -0.1202
   10SOL     hw   38   0.658   4.122   2.283  1.1490 -1.0701 -0.3368
   10SOL     hw   39   0.707   4.232   2.192 -0.3278 -0.2726 -0.2005
   10SOL     vw   40   0.711   4.189   2.267  0.0967 -0.1669 -0.1595
   11SOL     ow   41   1.803   0.699   4.808  0.0024 -0.0698 -0.7846
   11SOL     hw   42   1.754   0.739   4.737 -0.8771 -2.1077 -1.3928
   11SOL     hw   43   1.871   0.648   4.765  1.1260  0.7282 -0.0289
   11SOL     vw   44   1.806   0.698   4.793  0.0346 -0.2334 -0.7656
   12SOL     ow   45   6.894   0.269   0.460 -0.2769 -0.1268 -0.3648
   12SOL     hw   46   6.889   0.223   0.543  0.8990  0.7008  0.1751
   12SOL     hw   47   6.852   0.209   0.397  0.8263 -1.7501  0.3834
   12SOL     vw   48   6.888   0.255   0.462  0.0238 -0.2317 -0.1948
   13SOL     ow   49   0.587   1.100   0.908  0.5850 -0.7970 -0.7401
   13SOL     hw   50   0.543   1.174   0.949  1.0440 -0.6418 -0.5167
   13SOL     hw   51   0.669   1.090   0.957  1.4147 -0.2424 -1.9740
   13SOL     vw   52   0.592   1.108   0.920  0.7550 -0.7033 -0.8734
   14SOL     ow   53   1.028   0.742   2.344 -0.1615 -0.0823  0.8699
   14SOL     hw   54   1.006   0.806   2.276 -0.3262  0.7618  1.7123
   14SOL     hw   55   0.982   0.772   2.422  1.6083  0.0923  1.8896
   14SOL     vw   56   1.019   0.755   2.345  0.0502  0.0521  1.1156
   15SOL     ow   57   5.387   2.288   0.406  0.0749  0.1864 -0.6115
   15SOL     hw   58   5.418   2.349   0.473  0.5244  2.6830 -2.9225
   15SOL     hw   59   5.464   2.270   0.352 -0.8758  0.6737 -2.1921
   15SOL     vw   60   5.401   2.294   0.408  0.0086  0.5801 -1.1250
   16SOL     ow   61   1.642   6.886   1.173  0.2917 -0.2156  0.0027
   16SOL     hw   62   1.607   6.910   1.087 -0.4328  3.2392  1.1194
   16SOL     hw   63   1.723   6.839   1.153 -0.1669 -0.0871 -2.5584
   16SOL     vw   64   1.648   6.883   1.159  0.1357  0.2573 -0.1879
   17SOL     ow   65   3.774   2.916   4.804  0.2328  0.8117  0.2208
   17SOL     hw   66   3.799   2.992   4.752 -2.4035  1.1961 -0.6620
   17SOL     hw   67   3.709   2.951   4.866  0.9889 -0.2437  1.6659
   17SOL     vw   68   3.769   2.931   4.806 -0.0151  0.7231  0.2952
   18SOL     ow   69   4.776   4.158   5.874  0.1626  0.7822 -0.7101
   18SOL     hw   70   4.732   4.224   5.927  0.7385  2.7713 -2.5538
   18SOL     hw   71   4.731   4.161   5.789  0.8469 -0.5059 -1.1529
   18SOL     vw   72   4.764   4.167   5.869  0.3290  0.8745 -1.0118
   19SOL     ow   73   0.153   2.674   6.528  0.0357 -0.6037 -0.1159
   19SOL     hw   74   0.071   2.643   6.488  0.3298  1.5670 -2.6829
   19SOL     hw   75   0.126   2.710   6.612 -1.5132 -0.8182 -0.4885
   19SOL     vw   76   0.138   2.674   6.534 -0.1299 -0.3457 -0.5038
   20SOL     ow   77   0.488   3.881   2.435  0.6852  0.1987 -0.1778
   20SOL     hw   78   0.403   3.911   2.467 -0.4415 -0.0796 -2.7357
   20SOL     hw   79   0.551   3.918   2.497 -1.0321  3.2442 -0.0984
   20SOL     vw   80   0.485   3.890   2.448  0.3100  0.5639 -0.5049
   21SOL     ow   81   3.117   4.727   3.868  0.4086 -0.2487 -0.3924
   21SOL     hw   82   3.099   4.716   3.961  1.8039 -2.0313 -0.2763
   21SOL     hw   83   3.106   4.639   3.831 -3.0185  0.9005 -2.5309
   21SOL     vw   84   3.113   4.714   3.875  0.1404 -0.3324 -0.6592
   22SOL     ow   85   4.930   2.782   5.603 -0.0767 -0.4748 -0.7883
   22SOL     hw   86   4.892   2.853   5.655  1.0764 -1.4606  1.5823
   22SOL     hw   87   4.863   2.713   5.605 -0.2743 -0.2914 -1.1143
   22SOL     vw   88   4.916   2.782   5.610  0.0494 -0.5808 -0.5188
   23SOL     ow   89   0.461   5.980   2.509  0.1056 -0.2493  0.2455
   23SOL     hw   90   0.454   6.067   2.548 -3.1359 -0.5770  0.6703
   23SOL     hw   91   0.503   5.994   2.424 -1.1257  1.9100 -0.0688
   23SOL     vw   92   0.466   5.993   2.503 -0.4846 -0.0076  0.2601
   24SOL     ow   93   2.714   4.362   4.656 -0.8323  0.1138 -0.0445
   24SOL     hw   94   2.622   4.357   4.680 -0.1637  2.0286  3.7069
   24SOL     hw   95   2.760   4.319   4.728  1.2688  0.6057 -1.0151
   24SOL     vw   96   2.708   4.356   4.669 -0.4668  0.4315  0.3221
   25SOL     ow   97   4.087   2.657   0.841 -1.1854 -0.1608 -0.3921
   25SOL     hw   98   4.062   2.645   0.932  1.3671  0.0219  0.4105
   25SOL     hw   99   4.036   2.592   0.793  0.1149 -2.9020  1.6893
   25SOL     vw  100   4.077   2.647   0.847 -0.6773 -0.4983 -0.0116
   26SOL     ow  101   1.398   3.538   6.880 -0.4033 -0.5853 -0.7429
   26SOL     hw  102   1.323   3.488   6.845 -0.7488 -2.3431  2.1863
   26SOL     hw  103   1.474   3.483   6.862 -0.4670 -1.0611  0.3794
   26SOL     vw  104   1.398   3.524   6.873 -0.4573 -0.8800 -0.2083
   27SOL     ow  105   3.410   1.390   1.473  0.1730 -0.2647 -0.0495
   27SOL     hw  106   3.341   1.449   1.445  0.9519  0.0683 -1.3594
   27SOL     hw  107   3.489   1.425   1.432  1.1580 -0.5331  1.5491
   27SOL     vw  108   3.411   1.402   1.464  0.4057 -0.2561 -0.0114
   28SOL     ow  109   1.922   5.004   1.983  0.3746 -0.1056  0.2807
   28SOL     hw  110   1.967   4.984   2.065 -0.6115  2.5367  1.5677
   28SOL     hw  111   1.969   5.079   1.947  0.0678 -0.5003 -1.0096
   28SOL     vw  112   1.934   5.011   1.989  0.2040  0.1907  0.2803
   29SOL     ow  113   5.792   5.361   1.647  0.0055 -0.7611  0.5254
   29SOL     hw  114   5.871   5.414   1.634  1.9030 -2.5919  3.3350
   29SOL     hw  115   5.820   5.272   1.628 -1.8430 -1.2915  0.1525
   29SOL     vw  116   5.806   5.356   1.643  0.0119 -1.0724  0.8469
   30SOL     ow  117   1.042   2.819   4.208 -0.8600  0.5886 -0.2205
   30SOL     hw  118   0.969   2.772   4.248 -0.6754  0.4218 -0.0780
   30SOL     hw  119   1.022   2.912   4.223  0.4677  0.5103  2.5545
   30SOL     vw  120   1.030   2.825   4.215 -0.6605  0.5563  0.1645
   31SOL     ow  121   2.109   2.797   0.970  0.7029 -0.4293  0.3834
   31SOL     hw  122   2.111   2.883   0.928  1.4421 -0.0720  1.1345
   31SOL     hw  123   2.032   2.800   1.026 -0.7114 -1.1627 -1.4159
   31SOL     vw  124   2.099   2.809   0.972  0.6139 -0.4790  0.2451
   32SOL     ow  125   5.975   2.588   3.746  0.4925  0.5330  0.4532
   32SOL     hw  126   5.921   2.666   3.761 -1.1762 -0.9019  2.7128
   32SOL     hw  127   5.913   2.521   3.719  1.6375 -0.4206  0.1128
   32SOL     vw  128   5.959   2.589   3.745  0.4234  0.2179  0.7063
   33SOL     ow  129   5.684   4.786   0.941  0.1554 -0.3903 -0.3948
   33SOL     hw  130   5.739   4.863   0.928 -0.6071  0.4669  1.1885
   33SOL     hw  131   5.595   4.821   0.943 -0.3349 -1.5228 -1.1186
   33SOL     vw  132   5.679   4.801   0.939 -0.0098 -0.4265 -0.2814
   34SOL     ow  133   1.564   1.416   2.759 -0.9247 -0.1376  0.3405
   34SOL     hw  134   1.557   1.506   2.725 -0.3932  0.0197  0.6394
   34SOL     hw  135   1.626   1.373   2.701 -0.4916 -0.0472  0.7259
   34SOL     vw  136   1.571   1.422   2.747 -0.7974 -0.1049  0.4308
   35SOL     ow  137   4.203   5.121   4.994  0.4130 -0.8031 -0.2544
   35SOL     hw  138   4.210   5.042   4.941 -0.4354 -1.1732  0.1718
   35SOL     hw  139   4.173   5.091   5.079  0.9933 -0.1190  0.2030
   35SOL     vw  140   4.200   5.107   4.998  0.3777 -0.7613 -0.1378
   36SOL     ow  141   4.781   1.006   2.603 -0.2099 -0.4584  0.4332
   36SOL     hw  142   4.776   1.077   2.539  1.8634 -0.4382  0.2015
   36SOL     hw  143   4.764   0.926   2.553  1.4263 -0.4457 -0.2171
   36SOL     vw  144   4.778   1.005   2.588  0.2794 -0.4541  0.3169
   37SOL     ow  145   3.739   5.995   5.610 -0.1598 -0.2819 -0.1895
   37SOL     hw  146   3.649   6.026   5.609  0.4705  1.6699 -0.6368
   37SOL     hw  147   3.771   6.015   5.698  0.1152 -0.0858 -0.3305
   37SOL     vw  148   3.732   6.001   5.622 -0.0404  0.0014 -0.2670
   38SOL     ow  149   4.523   5.790   6.843 -0.1386 -0.3633  0.1252
   38SOL     hw  150   4.497   5.762   6.931  0.0989 -2.0384 -0.3051
   38SOL     hw  151   4.441   5.806   6.798 -0.2759  2.4482  1.1743
   38SOL     vw  152   4.509   5.788   6.849 -0.1254 -0.2134  0.2069
   39SOL     ow  153   1.542   3.162   6.257  0.2356 -0.0647 -0.0189
   39SOL     hw  154   1.608   3.133   6.320  0.8107 -1.0837 -1.0517
   39SOL     hw  155   1.473   3.096   6.262  0.8158 -0.7870 -1.2585
   39SOL     vw  156   1.541   3.150   6.266  0.3880 -0.2942 -0.3185
   40SOL     ow  157   4.091   5.130   6.576 -0.3987  0.0103  0.0405
   40SOL     hw  158   4.021   5.154   6.515 -1.8195 -1.8443  0.8174
   40SOL     hw  159   4.148   5.072   6.526  0.2372  1.0085 -0.4099
   40SOL     vw  160   4.089   5.126   6.562 -0.5021 -0.1028  0.0837
   41SOL     ow  161   0.230   2.370   4.587  0.5751  0.6463  0.1478
   41SOL     hw  162   0.233   2.286   4.633  0.9635  0.3800 -0.3540
   41SOL     hw  163   0.166   2.357   4.517  3.2114 -0.4511 -2.2216
   41SOL     vw  164   0.222   2.357   4.584  0.9742  0.4663 -0.2308
   42SOL     ow  165   4.326   2.010   2.527 -0.3933  0.4887  0.2848
   42SOL     hw  166   4.257   2.007   2.593 -0.5938 -1.3393  0.0300
   42SOL     hw  167   4.278   2.008   2.444 -0.0599  0.2529  0.0990
   42SOL     vw  168   4.311   2.009   2.524 -0.3757  0.2164  0.2266
   43SOL     ow  169   2.866   3.463   4.770 -0.2571  0.0709  0.3311
   43SOL     hw  170   2.811   3.484   4.844 -1.2601 -2.5526  0.4507
   43SOL     hw  171   2.949   3.434   4.808  0.3472  1.6204  0.2531
   43SOL     vw  172   2.870   3.462   4.785 -0.3097 -0.0708  0.3364
   44SOL     ow  173   6.356   1.361   3.218  0.7851  0.7450 -0.1485
   44SOL     hw  174   6.268   1.333   3.193  0.6657  0.7452  0.2627
   44SOL     hw  175   6.357   1.355   3.313  0.9115  1.6842 -0.0791
   44SOL     vw  176   6.345   1.356   3.227  0.7858  0.8690 -0.0851
   45SOL     ow  177   4.095   5.759   2.880 -0.3536 -0.9586  0.0294
   45SOL     hw  178   4.094   5.838   2.934  0.9024  0.3126 -1.7242
   45SOL     hw  179   4.176   5.714   2.905 -1.1370 -1.8042  1.1274
   45SOL     vw  180   4.105   5.763   2.891 -0.2909 -0.9024 -0.0571
   46SOL     ow  181   4.618   1.379   0.279  0.3043 -0.6560  0.4208
   46SOL     hw  182   4.581   1.340   0.200  0.0742 -0.3889  0.3960
   46SOL     hw  183   4.690   1.433   0.249  0.2081 -0.5438  0.3930
   46SOL     vw  184   4.623   1.381   0.265  0.2613 -0.6059  0.4138
   47SOL     ow  185   1.075   6.451   3.952  0.1647 -0.1974 -0.3252
   47SOL     hw  186   1.163   6.458   3.989  0.5901 -0.2225 -1.2920
   47SOL     hw  187   1.084   6.389   3.880 -0.3497  0.7647 -1.2544
   47SOL     vw  188   1.088   6.444   3.948  0.1530 -0.0741 -0.5753
   48SOL     ow  189   4.855   1.783   3.693 -0.2710  0.0233  0.2652
   48SOL     hw  190   4.903   1.835   3.628  0.1829  1.1017  1.4331
   48SOL     hw  191   4.763   1.802   3.675 -0.3330 -1.7708 -1.7500
   48SOL     vw  192   4.849   1.793   3.682 -0.2193 -0.0711  0.1534
   49SOL     ow  193   6.493   4.185   5.307  0.0997 -0.4089  0.3892
   49SOL     hw  194   6.407   4.146   5.288  0.5564 -0.8142 -1.0012
   49SOL     hw  195   6.535   4.121   5.364  0.1471 -1.1137 -0.4042
   49SOL     vw  196   6.487   4.171   5.312  0.1662 -0.5555  0.1006
   50SOL     ow  197   0.963   5.920   5.997 -0.2206 -0.2829  0.5790
   50SOL     hw  198   0.968   6.015   5.990 -4.3077  0.1798  1.1198
   50SOL     hw  199   0.987   5.889   5.909 -1.7003  1.5551 -0.5718
   50SOL     vw  200   0.967   5.928   5.984 -0.9551  0.0205  0.4983
   51SOL     ow  201   6.645   4.521   2.201 -0.3249  0.7361 -0.0805
   51SOL     hw  202   6.712   4.566   2.252  2.1297 -0.6916 -1.8316
   51SOL     hw  203   6.575   4.585   2.190  0.0514  1.8404  3.0095
   51SOL     vw  204   6.644   4.535   2.207  0.0489  0.6936  0.0962
   52SOL     ow  205   1.766   5.236   5.483 -0.2854  0.1379 -0.0863
   52SOL     hw  206   1.734   5.316   5.524  0.2365  0.2409  0.1339
   52SOL     hw  207   1.772   5.257   5.390  0.1504  0.4635  0.0118
   52SOL     vw  208   1.763   5.249   5.476 -0.1590  0.1943 -0.0439
   53SOL     ow  209   6.884   5.257   0.579  0.5930  0.3822 -0.0206
   53SOL     hw  210   6.899   5.223   0.667 -0.2053 -1.2518 -0.4817
   53SOL     hw  211   6.853   5.347   0.593  2.2912  0.8130  1.2622
   53SOL     vw  212   6.882   5.265   0.592  0.7117  0.2232  0.0878
   54SOL     ow  213   4.777   1.497   1.527 -0.5754  0.0239 -0.8925
   54SOL     hw  214   4.732   1.528   1.449  1.0115 -2.6386 -3.0162
   54SOL     hw  215   4.870   1.498   1.504 -0.0197 -0.4816  1.0931
   54SOL     vw  216   4.784   1.501   1.514 -0.2925 -0.3941 -0.9107
   55SOL     ow  217   2.196   1.184   5.350 -0.4358  0.5931 -0.1104
   55SOL     hw  218   2.161   1.188   5.261  1.2391  1.1600 -0.7735
   55SOL     hw  219   2.197   1.276   5.379 -0.2483  0.4907  0.2114
   55SOL     vw  220   2.192   1.197   5.342 -0.1899  0.6544 -0.1554
   56SOL     ow  221   1.519   5.008   1.058  0.3016 -0.3805 -0.0499
   56SOL     hw  222   1.608   5.013   1.022 -0.0831  1.4218 -0.8469
   56SOL     hw  223   1.462   5.003   0.981 -0.4049  1.0925  0.3453
   56SOL     vw  224   1.523   5.008   1.043  0.1575  0.0517 -0.1029
   57SOL     ow  225   1.301   6.642   0.496 -0.4576  0.2772 -0.0955
   57SOL     hw  226   1.391   6.667   0.475 -1.0512  0.4258 -2.8117
   57SOL     hw  227   1.280   6.691   0.576  2.1368 -0.5070  1.1585
   57SOL     vw  228   1.310   6.652   0.504 -0.1937  0.1934 -0.2884
   58SOL     ow  229   0.294   0.332   6.056 -0.4150  0.5223 -0.2537
   58SOL     hw  230   0.274   0.241   6.036 -2.4472  0.4621  1.7233
   58SOL     hw  231   0.314   0.333   6.149  0.7589  1.9576 -0.4835
   58SOL     vw  232   0.294   0.320   6.065 -0.5282  0.7038 -0.0231
   59SOL     ow  233   1.356   5.523   1.232  0.3898  0.3785 -0.3893
   59SOL     hw  234   1.261   5.533   1.222  0.2781  0.6983  0.8708
   59SOL     hw  235   1.371   5.528   1.326  1.5031 -1.1891 -0.4423
   59SOL     vw  236   1.346   5.525   1.243  0.5219  0.2141 -0.2301
   60SOL     ow  237   1.001   0.070   4.972  0.1407 -0.1043  0.2717
   60SOL     hw  238   1.061   0.136   4.936 -0.4258 -0.4205 -1.3075
   60SOL     hw  239   1.040  -0.014   4.948  0.1364 -0.3379  1.0642
   60SOL     vw  240   1.014   0.068   4.964  0.0654 -0.1768  0.1681
   61SOL     ow  241   4.349   1.714   0.415 -0.1967  0.2228  0.1520
   61SOL     hw  242   4.320   1.703   0.505 -0.4078 -0.7591 -0.0223
   61SOL     hw  243   4.334   1.629   0.374 -0.6108  0.7955 -0.9553
   61SOL     vw  244   4.343   1.701   0.421 -0.2792  0.1688 -0.0171
   62SOL     ow  245   5.495   0.317   4.561 -0.4863 -0.4210  0.5468
   62SOL     hw  246   5.461   0.232   4.531 -2.1099  0.1021  0.8321
   62SOL     hw  247   5.488   0.313   4.656 -1.6003  0.4198  0.5220
   62SOL     vw  248   5.489   0.305   4.570 -0.8476 -0.2411  0.5813
   63SOL     ow  249   2.378   1.097   5.603 -0.3250  0.7108 -0.1731
   63SOL     hw  250   2.456   1.120   5.553 -0.2131 -0.2048 -0.4515
   63SOL     hw  251   2.393   1.133   5.690 -0.2555  1.8166 -0.6245
   63SOL     vw  252   2.390   1.104   5.608 -0.3010  0.7359 -0.2692
   64SOL     ow  253   4.319   5.315   3.831  0.4044  0.1429 -0.3708
   64SOL     hw  254   4.296   5.283   3.918  1.8078 -0.8611 -0.3297
   64SOL     hw  255   4.356   5.239   3.787  1.5872  1.1245 -1.1371
   64SOL     vw  256   4.321   5.301   3.837  0.7453  0.1402 -0.4665
   65SOL     ow  257   3.422   2.375   2.759 -0.0634 -0.2699  0.0508
   65SOL     hw  258   3.478   2.321   2.815 -0.9639 -1.7983 -0.4898
   65SOL     hw  259   3.336   2.373   2.801 -0.5153 -0.6480 -0.8755
   65SOL     vw  260   3.418   2.368   2.772 -0.2419 -0.5214 -0.1427
   66SOL     ow  261   2.005   3.684   6.791  0.4483 -0.3678 -0.0623
   66SOL     hw  262   2.094   3.653   6.806 -0.2098 -1.5022  1.7660
   66SOL     hw  263   1.957   3.606   6.764 -0.1722  0.0924 -0.3143
   66SOL     vw  264   2.011   3.670   6.789  0.2797 -0.4568  0.1459
   67SOL     ow  265   0.398   1.219   0.716  0.2458 -0.5370  0.2480
   67SOL     hw  266   0.365   1.130   0.719 -2.1045  0.2961  1.2747
   67SOL     hw  267   0.320   1.274   0.708  1.7193  1.3870 -3.1967
   67SOL     vw  268   0.384   1.215   0.715  0.1301 -0.1733 -0.0710
   68SOL     ow  269   5.966   0.364   4.753  0.5533  0.1532 -0.4831
   68SOL     hw  270   5.985   0.457   4.765 -0.4366  0.1814  1.3551
   68SOL     hw  271   5.923   0.338   4.835  3.0169 -2.5183  0.1148
   68SOL     vw  272   5.963   0.373   4.766  0.7479 -0.1956 -0.1616
   69SOL     ow  273   3.745   2.900   3.547  0.2867  0.2234 -0.2201
   69SOL     hw  274   3.768   2.832   3.485 -0.9210 -0.0719 -0.3647
   69SOL     hw  275   3.708   2.854   3.622  0.0865  0.6770 -0.0313
   69SOL     vw  276   3.743   2.885   3.549  0.1011  0.2443 -0.2142
   70SOL     ow  277   0.702   5.878   0.483  0.0685 -0.0746 -0.3078
   70SOL     hw  278   0.691   5.904   0.575 -0.8822 -2.1946  0.2275
   70SOL     hw  279   0.661   5.949   0.433  0.9631  1.3120  0.8564
   70SOL     vw  280   0.695   5.891   0.489  0.0611 -0.1714 -0.0836
   71SOL     ow  281   3.060   2.000   0.905 -0.5438 -0.1134 -0.0701
   71SOL     hw  282   3.055   1.976   0.812  4.6182 -1.2404 -0.3324
   71SOL     hw  283   3.056   1.916   0.951 -1.0406  0.2698  0.5994
   71SOL     vw  284   3.058   1.986   0.899  0.0718 -0.2115 -0.0164
   72SOL     ow  285   5.441   4.128   0.130 -0.1667  0.2361  0.3101
   72SOL     hw  286   5.450   4.202   0.071 -0.4984  0.0369  0.0038
   72SOL     hw  287   5.528   4.088   0.133  0.1593  0.9763  0.9388
   72SOL     vw  288   5.454   4.132   0.123 -0.1674  0.3076  0.3527
   73SOL     ow  289   2.584   5.376   4.722 -0.7527 -0.0906  0.3391
   73SOL     hw  290   2.524   5.376   4.796 -0.4010  0.5611  0.6329
   73SOL     hw  291   2.568   5.459   4.677 -0.8300 -0.3957 -0.2093
   73SOL     vw  292   2.574   5.387   4.726 -0.7166 -0.0448  0.3057
   74SOL     ow  293   5.872   2.914   6.077 -0.3082 -0.5219  0.3895
   74SOL     hw  294   5.925   2.991   6.096 -1.9263  0.7173  0.1393
   74SOL     hw  295   5.862   2.913   5.982 -1.1791 -0.4007  0.4676
   74SOL     vw  296   5.878   2.924   6.067 -0.6366 -0.3425  0.3669
   75SOL     ow  297   4.156   0.091   0.543 -0.1025 -0.2215  0.3265
   75SOL     hw  298   4.121   0.179   0.556  0.1119 -0.3251  1.7099
   75SOL     hw  299   4.219   0.102   0.471 -1.4691  0.3480 -0.8385
   75SOL     vw  300   4.160   0.104   0.535 -0.2544 -0.1600  0.3553
   76SOL     ow  301   4.771   3.413   3.913 -0.0231 -0.2053 -0.0644
   76SOL     hw  302   4.779   3.414   4.008 -1.4458 -1.9083  0.1315
   76SOL     hw  303   4.861   3.417   3.881  0.4352  1.2033  1.3090
   76SOL     vw  304   4.784   3.414   3.921 -0.1500 -0.2441  0.1427
   77SOL     ow  305   5.841   1.487   6.803  0.0578  0.2463 -0.0786
   77SOL     hw  306   5.762   1.524   6.844 -0.6248 -0.3933 -0.7674
   77SOL     hw  307   5.808   1.413   6.751  1.3935 -1.4865  1.4310
   77SOL     vw  308   5.826   1.482   6.801  0.1442 -0.0668  0.0293
   78SOL     ow  309   1.698   2.885   3.635 -0.2504 -0.1959  0.3295
   78SOL     hw  310   1.739   2.969   3.657 -1.1937 -0.0369  1.5451
   78SOL     hw  311   1.707   2.832   3.715  0.4363 -1.3058 -0.4576
   78SOL     vw  312   1.705   2.889   3.649 -0.2843 -0.3214  0.3859
   79SOL     ow  313   2.247   2.578   4.928  0.0630  0.3358 -0.5049
   79SOL     hw  314   2.308   2.505   4.917  0.2160 -0.5414  4.1719
   79SOL     hw  315   2.290   2.652   4.885  2.1815 -1.2796 -1.3260
   79SOL     vw  316   2.261   2.578   4.921  0.3626  0.0069  0.0036
   80SOL     ow  317   2.739   6.867   5.695  0.3296  0.1185 -0.3656
   80SOL     hw  318   2.804   6.888   5.762 -0.1868 -2.0569  0.9651
   80SOL     hw  319   2.655   6.890   5.736  0.1584  1.5685 -1.4908
   80SOL     vw  320   2.736   6.873   5.709  0.2389  0.0224 -0.3386
   81SOL     ow  321   1.988   2.698   3.471  0.3261 -0.0556  0.1718
   81SOL     hw  322   1.995   2.607   3.500  2.0163  0.1175  0.4204
   81SOL     hw  323   2.066   2.712   3.417 -0.3912  0.9876 -0.6515
   81SOL     vw  324   1.999   2.688   3.468  0.4544  0.1049  0.0961
   82SOL     ow  325   6.830   2.947   5.881  0.8463  1.1300  0.8058
   82SOL     hw  326   6.801   2.883   5.946 -0.6140  1.4952  0.5526
   82SOL     hw  327   6.906   2.989   5.921  1.2763 -0.1146  1.3529
   82SOL     vw  328   6.836   2.944   5.895  0.7102  1.0139  0.8445
   83SOL     ow  329   3.853   4.726   4.676  0.1050 -0.6443  0.0448
   83SOL     hw  330   3.875   4.648   4.625  0.8036 -0.6275  0.3148
   83SOL     hw  331   3.874   4.703   4.766 -0.9459 -0.6067  0.3103
   83SOL     vw  332   3.859   4.713   4.681  0.0587 -0.6375  0.1152
   84SOL     ow  333   3.424   3.206   1.552 -0.4314 -0.3319 -0.3857
   84SOL     hw  334   3.500   3.181   1.605  0.0180 -0.4641 -1.0758
   84SOL     hw  335   3.436   3.300   1.536 -0.6943 -0.2420 -0.0453
   84SOL     vw  336   3.436   3.215   1.557 -0.4069 -0.3374 -0.4318
   85SOL     ow  337   2.191   6.165   0.345  0.4376  0.3477  0.4761
   85SOL     hw  338   2.117   6.207   0.302  0.5372  0.7914  0.7301
   85SOL     hw  339   2.169   6.165   0.438  0.8153  0.6073  0.5675
   85SOL     vw  340   2.179   6.171   0.351  0.5006  0.4406  0.5217
   86SOL     ow  341   4.626   5.374   2.064  0.0270  0.5830  0.3881
   86SOL     hw  342   4.619   5.308   1.996 -0.5815  0.7187  0.3171
   86SOL     hw  343   4.546   5.364   2.116 -0.3939  1.6963 -0.0188
   86SOL     vw  344   4.615   5.364   2.062 -0.1087  0.7477  0.3251
   87SOL     ow  345   2.513   4.291   3.659 -0.5351  0.2199  1.1845
   87SOL     hw  346   2.506   4.196   3.649 -1.5161  0.0161  3.2844
   87SOL     hw  347   2.434   4.325   3.618  0.2166  0.2248 -0.3084
   87SOL     vw  348   2.502   4.283   3.653 -0.5653  0.1936  1.2647
   88SOL     ow  349   2.639   2.087   3.387  0.6603  0.0467  0.9597
   88SOL     hw  350   2.598   2.041   3.460 -1.2926  1.2167  0.6717
   88SOL     hw  351   2.663   2.019   3.325  0.2713 -0.7789  1.7022
   88SOL     vw  352   2.637   2.072   3.389  0.3513  0.0921  1.0197
   89SOL     ow  353   4.634   6.582   5.976 -0.0170  0.1530  0.0688
   89SOL     hw  354   4.605   6.491   5.979 -0.6986  0.3871  0.9028
   89SOL     hw  355   4.572   6.625   5.916  0.2888  0.0882 -0.3047
   89SOL     vw  356   4.622   6.576   5.968 -0.0668  0.1752  0.1295
   90SOL     ow  357   0.359   3.953   3.346  0.2677 -0.0633  0.0440
   90SOL     hw  358   0.371   4.006   3.425  2.4264 -0.4349  0.0178
   90SOL     hw  359   0.369   3.863   3.375 -0.3454 -0.2950 -0.4347
   90SOL     vw  360   0.362   3.948   3.360  0.4717 -0.1431 -0.0226
   91SOL     ow  361   4.021   4.078   2.953  0.6051  0.5677  0.0650
   91SOL     hw  362   3.936   4.122   2.946 -0.2477 -1.1562 -1.1095
   91SOL     hw  363   4.034   4.066   3.047 -0.7811  0.3017  0.2483
   91SOL     vw  364   4.011   4.082   2.965  0.3097  0.3052 -0.0658
   92SOL     ow  365   6.398   2.940   4.446 -0.1395 -0.0524  0.2985
   92SOL     hw  366   6.459   2.904   4.382 -1.4773 -0.0792 -1.0272
   92SOL     hw  367   6.338   2.867   4.465 -0.1953  0.1784  1.0540
   92SOL     vw  368   6.398   2.925   4.440 -0.3231 -0.0254  0.2234
   93SOL     ow  369   6.577   6.153   4.276 -0.9400  0.5507 -0.3444
   93SOL     hw  370   6.582   6.243   4.244 -0.9639 -0.2388 -2.7617
   93SOL     hw  371   6.493   6.121   4.243  0.5357 -1.3740 -2.5735
   93SOL     vw  372   6.566   6.161   4.268 -0.7484  0.1924 -0.9575
   94SOL     ow  373   3.126   0.480   3.447 -0.4120 -0.2641  0.2049
   94SOL     hw  374   3.048   0.532   3.430 -0.2102  0.0150  0.1165
   94SOL     hw  375   3.129   0.417   3.375 -2.8331 -3.0904  2.3208
   94SOL     vw  376   3.116   0.479   3.436 -0.7048 -0.6002  0.4724
   95SOL     ow  377   0.266   0.388   5.068 -0.1207 -0.2979 -0.4660
   95SOL     hw  378   0.239   0.323   5.132  1.5857 -1.6402 -1.0233
   95SOL     hw  379   0.279   0.339   4.987 -1.7282  1.2756 -1.7445
   95SOL     vw  380   0.264   0.373   5.066 -0.1076 -0.2674 -0.7081
   96SOL     ow  381   0.138   4.412   6.615 -0.0159  0.4574 -0.1126
   96SOL     hw  382   0.108   4.323   6.598 -1.1803  0.6923  0.5681
   96SOL     hw  383   0.121   4.426   6.708 -0.2612  1.5315 -0.2963
   96SOL     vw  384   0.132   4.402   6.625 -0.2019  0.6301 -0.0467
   97SOL     ow  385   2.036   6.761   0.737 -0.0033 -0.1175  0.3003
   97SOL     hw  386   2.038   6.811   0.819 -0.3959 -0.0463  0.2689
   97SOL     hw  387   2.105   6.696   0.747 -0.9781 -1.0347  1.2725
   97SOL     vw  388   2.045   6.759   0.749 -0.1836 -0.2291  0.4244
   98SOL     ow  389   1.059   6.202   2.665  0.2787 -0.1668 -0.0743
   98SOL     hw  390   0.995   6.194   2.594 -0.1109  0.4472  0.1990
   98SOL     hw  391   1.066   6.114   2.701 -2.9070  0.2810  2.0280
   98SOL     vw  392   1.051   6.190   2.660 -0.1931 -0.0267  0.2390
   99SOL     ow  393   3.534   4.757   5.584 -0.2847 -0.6181 -0.1213
   99SOL     hw  394   3.492   4.802   5.657  0.5586 -0.2692  0.1639
   99SOL     hw  395   3.560   4.672   5.620  2.9107  0.6475  1.0180
   99SOL     vw  396   3.532   4.751   5.599  0.2481 -0.4051  0.0668
  100SOL     ow  397   3.296   0.454   4.210 -0.1034  0.0158 -0.0238
  100SOL     hw  398   3.224   0.473   4.150  0.2888 -1.1044 -0.8831
  100SOL     hw  399   3.367   0.511   4.180 -0.4530  0.7491  0.5068
  100SOL     vw  400   3.296   0.464   4.198 -0.0976 -0.0353 -0.0672
  101SOL     ow  401   2.712   1.221   2.427 -0.4422 -0.1967  0.4110
  101SOL     hw  402   2.688   1.307   2.394 -0.6464  0.0726  1.2238
  101SOL     hw  403   2.654   1.160   2.381  1.2260 -0.1818 -1.8646
  101SOL     vw  404   2.701   1.224   2.417 -0.2489 -0.1592  0.2180
  102SOL     ow  405   5.417   3.137   2.698 -0.1668  0.1597  0.0454
  102SOL     hw  406   5.400   3.216   2.646  1.6789 -0.1355 -1.1032
  102SOL     hw  407   5.364   3.149   2.777 -3.4890  0.4226 -2.0121
  102SOL     vw  408   5.407   3.149   2.702 -0.3614  0.1554 -0.3777
  103SOL     ow  409   3.095   1.753   6.135 -0.0325  0.2282 -0.2028
  103SOL     hw  410   3.157   1.810   6.182 -1.7502  2.1821 -0.1490
  103SOL     hw  411   3.020   1.746   6.194 -0.1116 -1.7166 -0.4597
  103SOL     vw  412   3.093   1.760   6.149 -0.2697  0.2294 -0.2296
  104SOL     ow  413   1.203   3.890   4.865 -0.1808  0.2490  0.0415
  104SOL     hw  414   1.280   3.843   4.832 -1.6074 -1.4204 -1.1487
  104SOL     hw  415   1.136   3.822   4.874 -1.7640  1.7653  0.2066
  104SOL     vw  416   1.204   3.875   4.862 -0.5779  0.2286 -0.0939
  105SOL     ow  417   1.661   0.352   6.200  0.7893 -0.3948  0.0429
  105SOL     hw  418   1.739   0.401   6.175  0.3354  0.3743  0.1027
  105SOL     hw  419   1.695   0.273   6.241  1.5376 -0.2825 -0.3304
  105SOL     vw  420   1.676   0.348   6.202  0.8281 -0.2785  0.0014
  106SOL     ow  421   4.729   4.397   2.284 -0.4622  0.7007 -0.5184
  106SOL     hw  422   4.766   4.336   2.348 -1.6927  0.9785  0.4997
  106SOL     hw  423   4.745   4.484   2.321 -0.1309  0.9301 -1.1822
  106SOL     vw  424   4.736   4.400   2.298 -0.5808  0.7679 -0.4716
  107SOL     ow  425   5.144   1.009   6.435  1.0001 -0.1872  0.6816
  107SOL     hw  426   5.229   0.974   6.461  0.9347 -0.4363  0.5688
  107SOL     hw  427   5.102   0.937   6.389  0.3902 -0.3372  1.4591
  107SOL     vw  428   5.149   0.995   6.432  0.9110 -0.2398  0.7696
  108SOL     ow  429   6.262   4.281   3.034  0.0307  0.0770 -0.3369
  108SOL     hw  430   6.298   4.274   2.945  0.2739  0.4351 -0.2698
  108SOL     hw  431   6.328   4.331   3.082  1.2262 -2.3902  0.7686
  108SOL     vw  432   6.276   4.287   3.028  0.2205 -0.2012 -0.1822
  109SOL     ow  433   2.088   2.396   2.039  0.0341  0.5225 -0.7536
  109SOL     hw  434   1.996   2.386   2.064  0.1326 -2.9415 -1.2915
  109SOL     hw  435   2.132   2.424   2.120 -1.2866  1.1053 -0.2047
  109SOL     vw  436   2.081   2.398   2.053 -0.1272  0.1423 -0.7521
  110SOL     ow  437   1.594   4.880   4.703 -0.2709  0.1648  0.4870
  110SOL     hw  438   1.560   4.969   4.709  0.9023  0.5879  1.1497
  110SOL     hw  439   1.624   4.872   4.613  0.3010  0.6963  0.6308
  110SOL     vw  440   1.593   4.890   4.692 -0.0406  0.2906  0.5937
  111SOL     ow  441   2.765   4.246   4.373  0.1270  0.2019 -0.1681
  111SOL     hw  442   2.676   4.213   4.358  1.2671 -3.2412 -0.0881
  111SOL     hw  443   2.811   4.227   4.291  1.3892 -0.2867  0.6379
  111SOL     vw  444   2.759   4.239   4.360  0.4439 -0.3169 -0.0513
  112SOL     ow  445   2.559   0.115   3.619  0.4857 -0.2058  0.3141
  112SOL     hw  446   2.503   0.091   3.545 -1.0163 -0.2981  1.4396
  112SOL     hw  447   2.605   0.034   3.641 -0.4909 -0.6918  0.6478
  112SOL     vw  448   2.558   0.101   3.612  0.1584 -0.2821  0.5066
  113SOL     ow  449   2.392   6.113   3.768  0.0332  0.0913  0.4257
  113SOL     hw  450   2.444   6.082   3.843 -0.1579  0.0963  0.5610
  113SOL     hw  451   2.417   6.205   3.758  1.0638 -0.2491 -0.3643
  113SOL     vw  452   2.403   6.121   3.777  0.1439  0.0467  0.3393
  114SOL     ow  453   2.665   5.083   4.626 -0.1589  0.1335 -0.0531
  114SOL     hw  454   2.706   5.001   4.653  0.9535  0.6217 -0.2093
  114SOL     hw  455   2.614   5.060   4.549  2.1251  0.0205 -1.6152
  114SOL     vw  456   2.664   5.069   4.620  0.2892  0.1831 -0.2797
  115SOL     ow  457   3.700   4.002   3.801 -0.1985  0.2738  0.0123
  115SOL     hw  458   3.621   4.055   3.790 -0.6086 -0.5669 -1.3898
  115SOL     hw  459   3.686   3.928   3.743  1.3263 -0.2492  0.2921
  115SOL     vw  460   3.688   4.000   3.792 -0.0514  0.0936 -0.1359
  116SOL     ow  461   1.108   4.260   0.952  0.4537 -0.1914 -0.0883
  116SOL     hw  462   1.152   4.281   1.034  0.8414 -1.4526  0.0424
  116SOL     hw  463   1.049   4.187   0.974  0.6654 -0.6390 -0.9537
  116SOL     vw  464   1.106   4.253   0.966  0.5327 -0.4168 -0.1852
  117SOL     ow  465   2.961   6.240   6.654  0.4316  0.4111 -0.4719
  117SOL     hw  466   2.993   6.169   6.599  1.5825  0.9077 -0.4656
  117SOL     hw  467   2.902   6.290   6.596  0.0309 -0.2307 -0.6283
  117SOL     vw  468   2.957   6.238   6.639  0.5305  0.3920 -0.4919
  118SOL     ow  469   3.828   1.207   3.014  0.3557  0.1732  0.1382
  118SOL     hw  470   3.921   1.195   2.995 -0.1206  1.3541 -3.8726
  118SOL     hw  471   3.806   1.291   2.974 -2.5545 -0.4061  0.3071
  118SOL     vw  472   3.837   1.217   3.006 -0.0911  0.2525 -0.3687
  119SOL     ow  473   1.572   1.847   5.565  0.7058 -0.3905 -0.0175
  119SOL     hw  474   1.592   1.810   5.651 -0.6941 -0.2806  0.3846
  119SOL     hw  475   1.584   1.942   5.576  0.1578 -0.3382  0.1844
  119SOL     vw  476   1.576   1.855   5.578  0.4488 -0.3692  0.0622
  120SOL     ow  477   3.114   2.232   0.762 -0.3016  0.2327  0.2403
  120SOL     hw  478   3.032   2.261   0.720  0.2094  1.1663 -0.1444
  120SOL     hw  479   3.165   2.194   0.691 -0.5833 -0.7880  0.5718
  120SOL     vw  480   3.110   2.231   0.747 -0.2712  0.2213  0.2333
  121SOL     ow  481   0.578   2.018   2.569  0.3683 -0.0861  0.0941
  121SOL     hw  482   0.655   2.053   2.614  1.9462  0.9266 -3.1393
  121SOL     hw  483   0.504   2.047   2.623  2.0305  2.2595  1.2898
  121SOL     vw  484   0.578   2.026   2.582  0.7958  0.3569 -0.1748
  122SOL     ow  485   0.466   4.952   0.972  0.6452 -0.4489 -0.5404
  122SOL     hw  486   0.417   5.023   0.932  1.1424  0.7132  0.8344
  122SOL     hw  487   0.400   4.889   1.000  0.0256  0.4088 -0.0258
  122SOL     vw  488   0.451   4.953   0.971  0.6290 -0.1824 -0.2911
  123SOL     ow  489   0.350   2.397   5.528 -0.4929 -0.1897 -0.1259
  123SOL     hw  490   0.345   2.396   5.623 -0.1537  0.8702 -0.0849
  123SOL     hw  491   0.380   2.308   5.505 -1.7224 -0.8349  0.6587
  123SOL     vw  492   0.353   2.385   5.537 -0.6104 -0.1352 -0.0172
  124SOL     ow  493   6.816   6.817   5.679  0.2454 -0.3521  0.2369
  124SOL     hw  494   6.894   6.860   5.643  0.6666 -0.4893  0.9696
  124SOL     hw  495   6.846   6.778   5.761 -0.4090 -1.0881  0.1316
  124SOL     vw  496   6.830   6.818   5.685  0.2146 -0.4673  0.3200
  125SOL     ow  497   0.991   4.067   0.606  0.2125  0.2335  0.0730
  125SOL     hw  498   0.909   4.025   0.629 -0.0507 -1.1469 -3.0088
  125SOL     hw  499   1.058   4.009   0.643 -0.1094  0.7723  1.6112
  125SOL     vw  500   0.989   4.054   0.614  0.1353  0.1223 -0.1307
  126SOL     ow  501   1.611   0.064   4.159 -0.0592 -0.0825  0.9749
  126SOL     hw  502   1.643  -0.026   4.156  1.4434  0.4124  1.4817
  126SOL     hw  503   1.557   0.073   4.080  2.3349 -0.4946 -0.8053
  126SOL     vw  504   1.608   0.053   4.148  0.4550 -0.0716  0.8070
  127SOL     ow  505   6.662   3.302   0.125  0.4069 -0.2143  0.0150
  127SOL     hw  506   6.586   3.359   0.120  2.2793  2.3669 -2.0828
  127SOL     hw  507   6.699   3.320   0.211 -0.8174 -0.8096  0.6879
  127SOL     vw  508   6.657   3.312   0.136  0.4923  0.0477 -0.1730
  128SOL     ow  509   6.149   2.728   0.103  0.7618 -0.4503 -0.1125
  128SOL     hw  510   6.179   2.818   0.118 -0.0451 -0.2590  0.4644
  128SOL     hw  511   6.088   2.711   0.176 -1.4460 -0.3940 -1.8242
  128SOL     vw  512   6.145   2.738   0.115  0.3641 -0.4176 -0.2622
  129SOL     ow  513   0.875   3.047   0.605  0.4977 -0.5754 -0.4132
  129SOL     hw  514   0.802   3.044   0.543  0.4214 -1.2174 -0.2932
  129SOL     hw  515   0.848   2.989   0.677 -0.6553  2.2001  1.6109
  129SOL     vw  516   0.861   3.039   0.606  0.3355 -0.2940 -0.1303
  130SOL     ow  517   6.226   5.553   3.466 -0.2104 -0.3237  0.1385
  130SOL     hw  518   6.169   5.589   3.398  1.7522  0.1675 -1.3437
  130SOL     hw  519   6.312   5.591   3.448  0.7389 -1.4557  1.9456
  130SOL     vw  520   6.230   5.563   3.455  0.1738 -0.4082  0.1814
  131SOL     ow  521   3.687   1.838   6.785 -0.1581 -0.0173 -0.2958
  131SOL     hw  522   3.718   1.926   6.806 -0.3562  0.0439 -0.2560
  131SOL     hw  523   3.741   1.810   6.711  0.6329 -0.2869  0.3760
  131SOL     vw  524   3.698   1.845   6.778 -0.0801 -0.0448 -0.2019
  132SOL     ow  525   1.610   0.551   6.512 -0.4322  0.4113 -0.1173
  132SOL     hw  526   1.526   0.509   6.493 -0.0727 -0.7755  0.8334
  132SOL     hw  527   1.646   0.573   6.427 -0.2812 -1.9412 -0.7212
  132SOL     vw  528   1.603   0.549   6.499 -0.3648 -0.0557 -0.0715
  133SOL     ow  529   1.213   2.012   6.070 -0.2828  0.3149  0.3752
  133SOL     hw  530   1.158   2.044   5.999 -0.7211 -0.4059  0.3836
  133SOL     hw  531   1.174   1.929   6.095 -0.0870  0.5256  1.4110
  133SOL     vw  532   1.201   2.005   6.064 -0.3147  0.2476  0.5128
  134SOL     ow  533   0.498   1.016   2.083  0.0789 -0.1305 -0.1640
  134SOL     hw  534   0.407   1.020   2.112  0.1245 -1.1057  0.1546
  134SOL     hw  535   0.524   0.925   2.098  2.0342  0.7206  2.6252
  134SOL     vw  536   0.490   1.005   2.089  0.3429 -0.1468  0.2460
  135SOL     ow  537   4.063   5.271   3.637 -0.2763  0.0876  0.3956
  135SOL     hw  538   4.097   5.187   3.605  1.0310  0.3775  0.9898
  135SOL     hw  539   3.974   5.250   3.667  0.4382 -1.3609  1.6273
  135SOL     vw  540   4.056   5.257   3.636 -0.0093 -0.0651  0.6366
  136SOL     ow  541   1.770   3.855   1.423 -0.6636 -0.4168  0.6238
  136SOL     hw  542   1.716   3.882   1.498 -0.3134  0.9624  0.4036
  136SOL     hw  543   1.860   3.861   1.455 -0.4701  0.9843 -0.1394
  136SOL     vw  544   1.775   3.859   1.437 -0.5919 -0.0499  0.4941
  137SOL     ow  545   4.741   0.087   3.973 -0.7358  0.2986  0.4521
  137SOL     hw  546   4.775   0.171   4.004 -2.6585  0.7519  1.5136
  137SOL     hw  547   4.735   0.097   3.878 -1.0938  1.4305  0.5804
  137SOL     vw  548   4.745   0.099   3.964 -1.0366  0.5078  0.6090
  138SOL     ow  549   1.011   0.763   4.048  0.0002 -0.4100 -0.2365
  138SOL     hw  550   1.044   0.740   4.135 -1.0101  1.6017  0.7388
  138SOL     hw  551   0.924   0.724   4.045 -0.5911  0.8138  0.3126
  138SOL     vw  552   1.004   0.755   4.059 -0.2111  0.0169 -0.0355
  139SOL     ow  553   4.533   0.463   6.089  0.2825  0.2485  0.2536
  139SOL     hw  554   4.534   0.538   6.030 -1.4321  0.6750  0.7120
  139SOL     hw  555   4.485   0.493   6.166  0.1580 -1.1063  0.7381
  139SOL     vw  556   4.527   0.477   6.092  0.0396  0.1260  0.3781
  140SOL     ow  557   4.022   3.225   2.091  0.4153 -0.0448  0.1808
  140SOL     hw  558   4.074   3.272   2.026  0.6928  0.8220  1.0194
  140SOL     hw  559   3.934   3.261   2.081  0.2699 -0.5228 -0.2917
  140SOL     vw  560   4.017   3.236   2.081  0.4327  0.0066  0.2291
  141SOL     ow  561   4.154   1.413   6.452 -0.3157  0.8237  0.7233
  141SOL     hw  562   4.215   1.485   6.472  1.9913 -0.3045 -1.6515
  141SOL     hw  563   4.203   1.334   6.472 -0.9556 -0.1349 -1.2581
  141SOL     vw  564   4.168   1.412   6.457 -0.0958  0.5484  0.1485
  142SOL     ow  565   6.000   6.391   6.869  0.2296 -0.4027  0.3793
  142SOL     hw  566   5.952   6.378   6.951 -1.9375  0.4236 -0.6782
  142SOL     hw  567   6.020   6.484   6.868  0.3752 -0.4366  0.0375
  142SOL     vw  568   5.996   6.401   6.880 -0.0372 -0.2980  0.1948
  143SOL     ow  569   3.877   2.232   5.268 -0.7337  0.6225  0.8119
  143SOL     hw  570   3.896   2.149   5.312 -2.4269 -1.2166 -1.6550
  143SOL     hw  571   3.948   2.243   5.206 -1.1837  0.2626  0.2152
  143SOL     vw  572   3.889   2.222   5.266 -1.0165  0.3324  0.4077
  144SOL     ow  573   5.096   0.671   3.168  0.3834  0.2549 -0.2463
  144SOL     hw  574   5.073   0.748   3.221  3.5097 -1.0814  3.6199
  144SOL     hw  575   5.159   0.705   3.104  1.3483  1.1133  1.0792
  144SOL     vw  576   5.101   0.686   3.167  0.9232  0.1918  0.4387
  145SOL     ow  577   1.638   1.429   0.734 -0.3810  0.4569 -0.0611
  145SOL     hw  578   1.668   1.362   0.672  0.5803  0.7860  0.0355
  145SOL     hw  579   1.718   1.466   0.770 -0.8706  2.0720 -0.5375
  145SOL     vw  580   1.652   1.425   0.730 -0.3187  0.7134 -0.1113
  146SOL     ow  581   4.442   4.736   3.204  0.0006 -0.6285  0.2440
  146SOL     hw  582   4.391   4.656   3.215 -1.7274  0.4966  0.8535
  146SOL     hw  583   4.390   4.804   3.247 -0.0542  1.4066 -2.7460
  146SOL     vw  584   4.429   4.734   3.211 -0.2344 -0.2115 -0.0701
  147SOL     ow  585   0.787   4.307   1.693  0.3222 -0.2742 -0.3635
  147SOL     hw  586   0.731   4.376   1.657  1.1916  0.2341 -0.7645
  147SOL     hw  587   0.817   4.258   1.616 -0.0761 -0.9391 -0.1019
  147SOL     vw  588   0.784   4.310   1.678  0.3843 -0.2947 -0.3819
  148SOL     ow  589   4.772   4.667   3.033  0.0695 -0.0762  0.9563
  148SOL     hw  590   4.779   4.582   2.990  1.8881 -0.2954  1.5689
  148SOL     hw  591   4.764   4.730   2.962  1.0296 -0.5856  0.3796
  148SOL     vw  592   4.772   4.664   3.018  0.4363 -0.1726  0.9611
  149SOL     ow  593   6.345   2.245   0.305 -0.0253 -0.0741 -0.0474
  149SOL     hw  594   6.299   2.314   0.258 -0.0264 -0.2562 -0.3190
  149SOL     hw  595   6.429   2.237   0.261  0.9535  1.3602  1.4386
  149SOL     vw  596   6.350   2.253   0.293  0.1035  0.0911  0.1128
  150SOL     ow  597   6.784   6.334   1.364  0.0320 -0.1674 -1.2753
  150SOL     hw  598   6.692   6.317   1.345  0.0887  0.4823 -2.1703
  150SOL     hw  599   6.831   6.310   1.284  0.7080 -0.9230 -0.6789
  150SOL     vw  600   6.778   6.329   1.351  0.1290 -0.1814 -1.3146
  151SOL     ow  601   5.214   2.467   4.207 -0.3560 -0.5700 -0.1716
  151SOL     hw  602   5.234   2.418   4.287  0.9808 -1.7410 -1.1546
  151SOL     hw  603   5.211   2.400   4.138  0.6965  0.6046 -1.4352
  151SOL     vw  604   5.217   2.452   4.208 -0.0410 -0.5695 -0.4680
  152SOL     ow  605   2.315   6.674   3.134  0.5458  0.1265 -0.4099
  152SOL     hw  606   2.241   6.732   3.119 -1.5249 -1.5844  2.2250
  152SOL     hw  607   2.327   6.675   3.229  1.6425 -2.2784 -0.4454
  152SOL     vw  608   2.307   6.682   3.145  0.4171 -0.4163 -0.0670
  153SOL     ow  609   4.833   1.253   0.477  0.0931 -0.2704 -0.1415
  153SOL     hw  610   4.832   1.172   0.528  0.1849 -1.9473 -2.5946
  153SOL     hw  611   4.921   1.256   0.440 -0.1704  0.5123 -0.7268
  153SOL     vw  612   4.845   1.243   0.479  0.0706 -0.3884 -0.5424
  154SOL     ow  613   3.227   4.350   1.659 -0.1517  0.0111  0.0354
  154SOL     hw  614   3.173   4.277   1.628 -1.9595  0.0071  2.7554
  154SOL     hw  615   3.309   4.309   1.685 -0.1672 -0.6085 -0.8292
  154SOL     vw  616   3.231   4.335   1.659 -0.3923 -0.0713  0.2803
  155SOL     ow  617   3.692   0.040   0.388 -0.3319 -0.3988  0.4044
  155SOL     hw  618   3.746  -0.038   0.399 -0.0582 -0.0574  1.7220
  155SOL     hw  619   3.667   0.065   0.478 -3.8002 -1.3106 -0.1388
  155SOL     vw  620   3.696   0.033   0.402 -0.7535 -0.4741  0.5066
  156SOL     ow  621   1.584   4.713   2.816  0.3618 -0.2925  0.0251
  156SOL     hw  622   1.574   4.742   2.906  2.2036 -1.9395  0.8226
  156SOL     hw  623   1.588   4.794   2.765 -2.6291  0.6634  1.0949
  156SOL     vw  624   1.583   4.728   2.821  0.2102 -0.3836  0.2713
  157SOL     ow  625   1.511   1.686   0.704  0.4498  0.5546 -0.7432
  157SOL     hw  626   1.452   1.741   0.652  0.4432  0.7672 -0.5127
  157SOL     hw  627   1.599   1.714   0.678  0.4481  1.3187  0.0437
  157SOL     vw  628   1.515   1.697   0.693  0.4486  0.6834 -0.6090
  158SOL     ow  629   2.468   2.108   3.071 -0.0750 -0.0198  0.1564
  158SOL     hw  630   2.502   2.189   3.034 -1.7434 -0.2535 -2.1391
  158SOL     hw  631   2.514   2.039   3.024 -1.4296 -0.3198 -0.8313
  158SOL     vw  632   2.478   2.110   3.060 -0.4737 -0.0902 -0.2768
  159SOL     ow  633   1.279   5.431   2.069 -0.4592 -0.4190 -0.4483
  159SOL     hw  634   1.210   5.389   2.120 -1.1789  0.5024 -0.6357
  159SOL     hw  635   1.274   5.388   1.983 -0.8874 -0.2849 -0.4954
  159SOL     vw  636   1.269   5.420   2.064 -0.6106 -0.2797 -0.4793
  160SOL     ow  637   1.779   6.555   0.801 -0.3828  0.5002  0.2065
  160SOL     hw  638   1.687   6.531   0.794 -0.9309  2.8246 -3.8548
  160SOL     hw  639   1.788   6.590   0.890 -2.4549 -2.7339  1.8802
  160SOL     vw  640   1.768   6.556   0.812 -0.7285  0.3800 -0.1085
  161SOL     ow  641   0.879   1.490   3.057 -0.2305 -0.4546 -0.4388
  161SOL     hw  642   0.866   1.446   3.141 -1.7932  2.9649  1.2747
  161SOL     hw  643   0.934   1.565   3.077 -0.8024  0.5708 -2.4373
  161SOL     vw  644   0.885   1.494   3.071 -0.5122  0.1318 -0.4764
  162SOL     ow  645   3.313   6.738   6.200 -0.5209 -0.5562 -0.0486
  162SOL     hw  646   3.259   6.800   6.151  0.4237 -0.6219 -1.2174
  162SOL     hw  647   3.315   6.773   6.289 -2.0201 -0.2664 -0.1014
  162SOL     vw  648   3.306   6.751   6.206 -0.5941 -0.5269 -0.2098
  163SOL     ow  649   6.842   1.946   6.897 -0.3565  0.1786  0.8377
  163SOL     hw  650   6.763   1.894   6.910 -0.7192  0.7993  1.1462
  163SOL     hw  651   6.847   2.004   6.973 -0.1213  0.7986  0.3639
  163SOL     vw  652   6.832   1.947   6.909 -0.3731  0.3422  0.8159
  164SOL     ow  653   6.168   0.558   2.430  0.2682  0.8428  0.5985
  164SOL     hw  654   6.243   0.596   2.385  0.7170  1.4954  1.8401
  164SOL     hw  655   6.202   0.480   2.474 -0.2523 -0.0150 -0.4769
  164SOL     vw  656   6.182   0.553   2.430  0.2589  0.8157  0.6205
  165SOL     ow  657   1.350   6.391   3.470  0.4155  0.7520 -0.1094
  165SOL     hw  658   1.309   6.315   3.513  3.3065 -0.0237  1.5422
  165SOL     hw  659   1.383   6.445   3.542  0.2264  2.5484 -1.3087
  165SOL     vw  660   1.349   6.388   3.485  0.7719  0.8867 -0.0497
  166SOL     ow  661   6.015   1.570   0.156  0.0031  0.0494 -0.3850
  166SOL     hw  662   6.089   1.586   0.214  0.0831 -1.8217  0.0942
  166SOL     hw  663   5.939   1.604   0.204  0.2701 -0.0064  0.0863
  166SOL     vw  664   6.014   1.577   0.170  0.0489 -0.2048 -0.2596
  167SOL     ow  665   6.337   1.478   6.433 -0.8525 -0.7717 -0.0366
  167SOL     hw  666   6.370   1.388   6.437  0.3449 -0.3382  0.2304
  167SOL     hw  667   6.353   1.514   6.520  1.7410  0.7103 -1.0249
  167SOL     vw  668   6.343   1.471   6.445 -0.3524 -0.5190 -0.1321
  168SOL     ow  669   6.887   2.417   2.223 -0.4559  0.5705 -0.0516
  168SOL     hw  670   6.861   2.446   2.311  0.1515  2.7627 -0.5336
  168SOL     hw  671   6.836   2.473   2.164  1.4863  1.4110 -1.0380
  168SOL     vw  672   6.877   2.428   2.227 -0.1194  0.9706 -0.2453
  169SOL     ow  673   4.374   5.985   2.264 -0.6644 -0.1914  0.4109
  169SOL     hw  674   4.279   5.982   2.279 -0.7563 -1.9834 -0.2348
  169SOL     hw  675   4.390   5.915   2.200  0.8961  1.1133 -0.7161
  169SOL     vw  676   4.363   5.975   2.257 -0.4704 -0.2558  0.1770
  170SOL     ow  677   2.053   2.628   5.756 -0.1446 -0.6204  0.3188
  170SOL     hw  678   2.037   2.540   5.723  0.6451 -1.2427  1.5447
  170SOL     hw  679   2.146   2.645   5.739 -0.4471  0.2882 -0.5746
  170SOL     vw  680   2.063   2.619   5.749 -0.0803 -0.5825  0.3631
  171SOL     ow  681   6.041   4.004   3.035 -0.6776  0.6038 -0.6475
  171SOL     hw  682   6.008   3.915   3.053 -1.7542  1.2985  1.1275
  171SOL     hw  683   5.995   4.031   2.956 -0.4288 -0.3651 -1.1379
  171SOL     vw  684   6.031   3.996   3.027 -0.7868  0.5676 -0.4780
  172SOL     ow  685   2.712   4.124   5.642 -0.0745 -0.4158  0.3218
  172SOL     hw  686   2.653   4.054   5.615 -2.1596  1.1148  0.5500
  172SOL     hw  687   2.662   4.172   5.708  2.1693 -0.0323  1.8416
  172SOL     vw  688   2.697   4.121   5.647 -0.0535 -0.1631  0.5524
  173SOL     ow  689   5.610   4.423   5.683 -0.0659 -0.2048 -0.0464
  173SOL     hw  690   5.549   4.455   5.750 -0.1236 -0.8012  0.1906
  173SOL     hw  691   5.666   4.360   5.729  1.1757  0.8160 -0.1019
  173SOL     vw  692   5.609   4.419   5.698  0.0906 -0.1488 -0.0224
  174SOL     ow  693   5.194   0.308   0.720  0.4443  0.2524  0.3489
  174SOL     hw  694   5.251   0.368   0.767  1.8295  0.1062 -1.0389
  174SOL     hw  695   5.137   0.270   0.787  1.0112  1.4816  1.5648
  174SOL     vw  696   5.194   0.311   0.735  0.7014  0.3953  0.3263
  175SOL     ow  697   4.813   4.529   5.574  0.5587 -0.5894 -0.8281
  175SOL     hw  698   4.840   4.535   5.666  0.7765 -2.8824 -0.6682
  175SOL     hw  699   4.818   4.435   5.554 -1.3936 -0.3891 -2.6125
  175SOL     vw  700   4.818   4.517   5.584  0.3300 -0.8657 -1.0426
  176SOL     ow  701   5.510   5.183   0.161  0.2826  0.1111  0.7121
  176SOL     hw  702   5.542   5.199   0.072  2.4346  0.7691  1.5424
  176SOL     hw  703   5.588   5.158   0.210 -0.8459 -0.1358  2.4524
  176SOL     vw  704   5.524   5.182   0.155  0.4175  0.1652  1.0513
  177SOL     ow  705   3.800   5.663   0.449  0.2186 -0.6199  0.5273
  177SOL     hw  706   3.779   5.615   0.369  1.2860  2.0581 -1.5181
  177SOL     hw  707   3.728   5.643   0.509 -0.1934 -3.3816 -0.7541
  177SOL     vw  708   3.788   5.654   0.446  0.3051 -0.6309  0.0884
  178SOL     ow  709   5.941   5.561   2.619 -0.2609  0.3736  1.0203
  178SOL     hw  710   6.028   5.592   2.595  0.1458 -1.9258 -0.7980
  178SOL     hw  711   5.946   5.547   2.714  2.1603 -1.8401  0.6732
  178SOL     vw  712   5.953   5.563   2.628  0.1123 -0.2220  0.7347
  179SOL     ow  713   5.660   2.692   1.884 -0.8687 -0.7051 -0.7893
  179SOL     hw  714   5.725   2.762   1.896 -1.3757  0.2201 -2.9300
  179SOL     hw  715   5.669   2.638   1.962  1.7817 -0.0601 -0.5343
  179SOL     vw  716   5.670   2.694   1.896 -0.5860 -0.4979 -1.0380
  180SOL     ow  717   6.014   5.642   3.664  0.6168  0.0115 -0.2495
  180SOL     hw  718   5.938   5.596   3.630 -1.1624  2.7496 -0.3385
  180SOL     hw  719   5.986   5.674   3.750  1.5275  1.3282 -0.4098
  180SOL     vw  720   6.001   5.641   3.671  0.5023  0.5465 -0.2825
  181SOL     ow  721   4.946   0.040   4.219 -0.3536  0.5554 -0.0883
  181SOL     hw  722   4.975   0.099   4.288  2.3630  1.1100 -1.5638
  181SOL     hw  723   5.001   0.063   4.144 -2.7558 -0.3948 -2.2885
  181SOL     vw  724   4.957   0.051   4.218 -0.3123  0.5032 -0.5734
  182SOL     ow  725   6.350   2.018   2.499  0.6032 -0.3613  0.0600
  182SOL     hw  726   6.401   1.940   2.481  2.2793 -0.1420  3.1654
  182SOL     hw  727   6.404   2.069   2.560 -2.9862  0.1710  3.2151
  182SOL     vw  728   6.364   2.015   2.505  0.3507 -0.2623  0.8858
  183SOL     ow  729   2.567   6.094   5.399  0.2182  0.2077  0.1151
  183SOL     hw  730   2.541   6.180   5.431 -0.5597  0.8391 -2.0040
  183SOL     hw  731   2.611   6.112   5.316  1.0253 -1.3738  0.1667
  183SOL     vw  732   2.569   6.107   5.392  0.2220  0.0823 -0.1578
  184SOL     ow  733   6.823   0.242   3.395 -0.3333 -0.1146 -0.1226
  184SOL     hw  734   6.827   0.257   3.301 -0.5450  1.3866  0.0874
  184SOL     hw  735   6.900   0.189   3.415  0.8338  1.2634 -0.8469
  184SOL     vw  736   6.833   0.237   3.386 -0.2074  0.2653 -0.1905
  185SOL     ow  737   0.746   0.930   4.996 -0.0146 -0.0246 -0.0568
  185SOL     hw  738   0.791   1.009   4.966 -0.1303  0.3829  0.7914
  185SOL     hw  739   0.767   0.925   5.090  1.7329 -2.1615 -0.4674
  185SOL     vw  740   0.755   0.940   5.005  0.2007 -0.2528  0.0010
  186SOL     ow  741   5.861   3.595   5.408  0.2450  0.1222 -0.6904
  186SOL     hw  742   5.775   3.594   5.451  0.1577 -0.6300 -0.8730
  186SOL     hw  743   5.841   3.609   5.316  0.3311  0.1181 -0.7097
  186SOL     vw  744   5.847   3.597   5.402  0.2449  0.0225 -0.7169
  187SOL     ow  745   5.421   0.971   2.374  0.0234 -0.8880  0.1297
  187SOL     hw  746   5.357   0.929   2.430 -2.2841  1.5330 -0.5048
  187SOL     hw  747   5.414   0.926   2.290 -0.9535 -0.6008  0.0475
  187SOL     vw  748   5.412   0.960   2.370 -0.4101 -0.5306  0.0350
  188SOL     ow  749   0.468   1.378   3.952  0.1684 -0.8195 -1.2860
  188SOL     hw  750   0.502   1.460   3.916  0.0074 -0.3694 -0.4240
  188SOL     hw  751   0.379   1.399   3.981  0.4322 -1.0694 -0.2699
  188SOL     vw  752   0.460   1.392   3.951  0.1820 -0.7931 -1.0381
  189SOL     ow  753   3.846   0.680   5.195  0.2639 -0.5554  0.0496
  189SOL     hw  754   3.871   0.717   5.280  0.0517  0.2946 -0.2510
  189SOL     hw  755   3.793   0.748   5.154  1.2179 -0.5373 -1.2037
  189SOL     vw  756   3.842   0.694   5.201  0.3618 -0.4409 -0.1554
  190SOL     ow  757   5.514   1.104   4.587 -0.3983 -0.0431  0.1687
  190SOL     hw  758   5.419   1.100   4.597 -0.6004  0.5060 -1.2656
  190SOL     hw  759   5.546   1.123   4.675 -1.6136 -0.2646  0.6862
  190SOL     vw  760   5.505   1.106   4.600 -0.5856  0.0001  0.0479
  191SOL     ow  761   2.243   1.543   1.901  0.1157  0.3409  0.5479
  191SOL     hw  762   2.208   1.601   1.968 -3.1752  0.4487 -1.0477
  191SOL     hw  763   2.175   1.478   1.887  0.8352  0.0317 -2.2870
  191SOL     vw  764   2.229   1.542   1.908 -0.2235  0.3143 -0.0367
  192SOL     ow  765   5.351   3.089   0.117  0.1495  0.6267 -0.6623
  192SOL     hw  766   5.403   3.155   0.073 -0.0551  0.9033 -0.4985
  192SOL     hw  767   5.370   3.102   0.210  0.5269  0.0936 -0.6622
  192SOL     vw  768   5.360   3.099   0.124  0.1721  0.5929 -0.6407
  193SOL     ow  769   3.589   6.406   2.888 -0.5784 -0.4295 -0.1282
  193SOL     hw  770   3.611   6.320   2.924 -1.0118  0.1897  1.7635
  193SOL     hw  771   3.643   6.415   2.810 -0.6056 -2.4507 -0.4150
  193SOL     vw  772   3.599   6.396   2.882 -0.6391 -0.6149  0.0833
  194SOL     ow  773   1.488   6.862   2.780 -0.5967  0.2937 -1.1615
  194SOL     hw  774   1.448   6.794   2.833  2.0683 -1.3026 -1.0087
  194SOL     hw  775   1.568   6.822   2.745  0.5650  3.0081 -1.9335
  194SOL     vw  776   1.493   6.848   2.782 -0.0918  0.4413 -1.2431
  195SOL     ow  777   5.914   2.676   6.297 -0.1585 -0.0775  0.1799
  195SOL     hw  778   5.904   2.581   6.304 -0.4334  0.0647  2.0863
  195SOL     hw  779   6.008   2.690   6.290  0.0795 -0.4058  2.2263
  195SOL     vw  780   5.925   2.665   6.297 -0.1633 -0.1020  0.7014
  196SOL     ow  781   1.935   4.814   1.719  0.3812 -0.6940  0.1394
  196SOL     hw  782   1.886   4.747   1.673 -2.4708 -0.3129  2.3367
  196SOL     hw  783   1.978   4.865   1.650 -0.4417 -2.4572 -1.7619
  196SOL     vw  784   1.934   4.812   1.704 -0.1037 -0.8762  0.1784
  197SOL     ow  785   1.542   6.064   5.030 -0.3400 -0.2995 -0.1193
  197SOL     hw  786   1.495   6.146   5.018 -1.2115 -0.9674 -1.4903
  197SOL     hw  787   1.536   6.047   5.124  0.7041  1.6527  0.3703
  197SOL     vw  788   1.535   6.073   5.041 -0.3173 -0.1299 -0.2358
  198SOL     ow  789   6.403   6.437   0.696  0.3122  0.3475 -0.5841
  198SOL     hw  790   6.312   6.412   0.710  0.5412  0.4031  1.2055
  198SOL     hw  791   6.414   6.517   0.748  1.4679  0.1429 -0.4816
  198SOL     vw  792   6.393   6.444   0.705  0.4950  0.3278 -0.3345
  199SOL     ow  793   2.046   4.565   0.670 -0.6208 -1.1149 -0.5895
  199SOL     hw  794   2.130   4.524   0.690  0.2427 -0.2538 -2.1664
  199SOL     hw  795   2.054   4.654   0.706 -1.6357 -1.6053  0.9283
  199SOL     vw  796   2.058   4.572   0.677 -0.6409 -1.0662 -0.5973
  200SOL     ow  797   4.396   6.440   6.771  0.2807  0.4439  0.3855
  200SOL     hw  798   4.456   6.376   6.808  1.2206  0.0727 -1.6695
  200SOL     hw  799   4.360   6.398   6.693 -0.9911  1.4851  0.3672
  200SOL     vw  800   4.399   6.426   6.766  0.2370  0.5324  0.1118
  201SOL     ow  801   4.945   1.937   4.983  0.0434  0.0526  0.0725
  201SOL     hw  802   4.985   1.895   4.907 -0.3946 -1.3633  0.5872
  201SOL     hw  803   5.014   1.937   5.049 -0.5822 -1.8778  0.7766
  201SOL     vw  804   4.959   1.932   4.982 -0.0968 -0.3889  0.2332
  202SOL     ow  805   5.199   4.971   6.567  0.0037  0.3462  0.3689
  202SOL     hw  806   5.253   4.992   6.644 -0.4266 -1.0519  1.0853
  202SOL     hw  807   5.110   4.966   6.602 -0.0061 -1.9454  0.1513
  202SOL     vw  808   5.194   4.973   6.582 -0.0546 -0.1404  0.4346
  203SOL     ow  809   6.169   0.268   4.569  0.2748 -0.3062 -0.4143
  203SOL     hw  810   6.258   0.303   4.577 -0.0655  0.8520 -1.4191
  203SOL     hw  811   6.140   0.295   4.482 -1.0167 -0.7755 -0.1559
  203SOL     vw  812   6.177   0.276   4.558  0.0594 -0.2153 -0.5128
  204SOL     ow  813   2.832   6.236   3.039 -0.3367  0.2695 -0.2918
  204SOL     hw  814   2.822   6.241   3.134 -1.0228  1.1793 -0.4037
  204SOL     hw  815   2.776   6.163   3.013 -0.6136  0.4006 -0.0630
  204SOL     vw  816   2.823   6.227   3.048 -0.4636  0.4067 -0.2764
  205SOL     ow  817   2.327   6.129   5.231  0.0186 -0.0081  0.0026
  205SOL     hw  818   2.240   6.117   5.193  0.7911  0.9239 -2.2758
  205SOL     hw  819   2.315   6.194   5.299 -0.9286  0.9159 -1.0044
  205SOL     vw  820   2.314   6.136   5.235 -0.0045  0.2367 -0.4311
  206SOL     ow  821   1.325   2.607   3.024 -0.7806  0.3700  0.8308
  206SOL     hw  822   1.247   2.598   3.079 -1.2039 -0.5568  0.0949
  206SOL     hw  823   1.370   2.523   3.033 -0.5912  0.3966  0.1447
  206SOL     vw  824   1.320   2.595   3.033 -0.8115  0.2512  0.6433
  207SOL     ow  825   2.221   4.404   1.211 -0.2548  0.3390 -0.4500
  207SOL     hw  826   2.261   4.352   1.141 -1.3959 -0.4415 -0.5452
  207SOL     hw  827   2.127   4.388   1.202 -0.5616  1.6613  0.1394
  207SOL     vw  828   2.214   4.395   1.200 -0.4457  0.4106 -0.3848
  208SOL     ow  829   6.019   6.042   0.956  0.1911  0.4277 -0.2379
  208SOL     hw  830   6.093   6.048   0.896 -1.1869 -1.4026 -2.2913
  208SOL     hw  831   6.055   5.999   1.034  1.1069 -1.6942 -1.7149
  208SOL     vw  832   6.033   6.037   0.958  0.1299 -0.0939 -0.7037
  209SOL     ow  833   5.907   5.815   5.056 -0.1341 -0.2427 -0.0676
  209SOL     hw  834   5.886   5.860   5.138  1.1453 -3.8321  2.4730
  209SOL     hw  835   5.886   5.723   5.073  1.2145 -1.3091 -3.4190
  209SOL     vw  836   5.901   5.809   5.069  0.2127 -0.8569 -0.1748
  210SOL     ow  837   1.709   6.213   6.637  0.8075  0.4469  0.4276
  210SOL     hw  838   1.672   6.290   6.593  0.6165 -0.9404 -1.9762
  210SOL     hw  839   1.795   6.202   6.598 -0.0477 -1.8335 -1.0100
  210SOL     vw  840   1.715   6.222   6.626  0.6695 -0.0370 -0.0789
  211SOL     ow  841   4.623   0.968   5.189  0.5810 -0.1052 -0.2426
  211SOL     hw  842   4.586   1.000   5.107 -1.3710 -2.4012 -0.3743
  211SOL     hw  843   4.558   0.905   5.222  1.1037  0.9596  3.2705
  211SOL     vw  844   4.610   0.964   5.183  0.3920 -0.2677  0.2036
  212SOL     ow  845   3.834   3.039   5.604 -0.1473 -0.4364  0.7937
  212SOL     hw  846   3.835   2.986   5.684  1.9144 -0.2307  0.9428
  212SOL     hw  847   3.741   3.058   5.590 -0.6786 -1.6463  2.3472
  212SOL     vw  848   3.822   3.035   5.613  0.0546 -0.5690  1.0185
  213SOL     ow  849   4.026   0.107   4.820  0.0162 -0.6550 -0.3651
  213SOL     hw  850   4.029   0.011   4.811  2.2441 -0.7805  0.9174
  213SOL     hw  851   3.990   0.121   4.907 -2.5503 -0.1831 -1.4322
  213SOL     vw  852   4.022   0.096   4.830 -0.0284 -0.6093 -0.3364
  214SOL     ow  853   5.878   1.716   4.204  0.6742  0.2005 -0.4665
  214SOL     hw  854   5.939   1.778   4.165  1.1488 -0.1058 -0.2161
  214SOL     hw  855   5.801   1.718   4.147  0.1945  1.9098  0.1806
  214SOL     vw  856   5.876   1.725   4.192  0.6735  0.3856 -0.3481
  215SOL     ow  857   6.622   6.687   6.574  0.1999  0.5344 -0.3143
  215SOL     hw  858   6.590   6.613   6.627  1.4662 -0.0605 -0.3436
  215SOL     hw  859   6.678   6.736   6.634  0.8892  0.3916 -0.8425
  215SOL     vw  860   6.625   6.684   6.589  0.4578  0.4370 -0.3877
  216SOL     ow  861   4.942   6.499   2.357  0.2452  0.1070 -0.1717
  216SOL     hw  862   4.991   6.417   2.354  0.7313  0.3821 -3.7463
  216SOL     hw  863   4.989   6.553   2.420  1.3999 -1.4766  0.3814
  216SOL     vw  864   4.955   6.495   2.365  0.4616 -0.0653 -0.5703
  217SOL     ow  865   6.869   4.343   6.408 -0.3449 -0.1803 -0.5533
  217SOL     hw  866   6.849   4.250   6.421 -0.5418  0.0937  1.3509
  217SOL     hw  867   6.855   4.357   6.314 -3.1236 -1.4140 -0.4187
  217SOL     vw  868   6.865   4.332   6.397 -0.7374 -0.3071 -0.2842
  218SOL     ow  869   6.098   4.409   5.998  0.4711 -0.0228  0.1322
  218SOL     hw  870   6.194   4.416   5.994  0.6466 -0.2450  2.4826
  218SOL     hw  871   6.078   4.326   5.956  1.0239  1.0736 -2.5182
  218SOL     vw  872   6.108   4.399   5.992  0.5670  0.0923  0.0923
  219SOL     ow  873   6.435   6.160   4.547 -0.3615  0.7892 -0.3703
  219SOL     hw  874   6.358   6.108   4.523  0.6818 -0.5704 -0.8963
  219SOL     hw  875   6.400   6.230   4.602 -1.8602 -0.3132  0.1564
  219SOL     vw  876   6.420   6.162   4.551 -0.4215  0.4647 -0.3703
  220SOL     ow  877   0.547   0.532   3.260 -0.2742 -0.4429  0.6912
  220SOL     hw  878   0.551   0.511   3.167  1.1828 -1.4071  0.9481
  220SOL     hw  879   0.572   0.624   3.264 -1.2841 -0.1139  0.0721
  220SOL     vw  880   0.551   0.541   3.248 -0.2152 -0.5268  0.6434
  221SOL     ow  881   0.575   0.089   0.249 -0.1384 -0.3398  0.1642
  221SOL     hw  882   0.577   0.172   0.297 -0.1872 -0.1210 -0.2079
  221SOL     hw  883   0.618   0.108   0.166  0.7331 -0.9423  0.4670
  221SOL     vw  884   0.581   0.102   0.245 -0.0299 -0.3904  0.1551
  222SOL     ow  885   2.920   1.823   1.811  0.0900 -0.2501 -0.7349
  222SOL     hw  886   2.856   1.758   1.837  1.8192 -2.0487 -0.7320
  222SOL     hw  887   2.868   1.896   1.778 -1.9607 -0.8850  0.8836
  222SOL     vw  888   2.905   1.824   1.810  0.0477 -0.5712 -0.5210
  223SOL     ow  889   2.655   3.244   2.179  0.1034 -0.2601 -0.1238
  223SOL     hw  890   2.603   3.319   2.152 -1.3215 -1.9406 -2.4218
  223SOL     hw  891   2.744   3.277   2.187 -0.4850  1.6468 -1.0030
  223SOL     vw  892   2.660   3.258   2.177 -0.1621 -0.2302 -0.5431
  224SOL     ow  893   3.263   0.068   4.731  0.0993  0.5702 -0.0830
  224SOL     hw  894   3.210   0.089   4.654  1.1995  1.0010 -0.7347
  224SOL     hw  895   3.208   0.093   4.805 -0.7907  0.5884 -0.7308
  224SOL     vw  896   3.249   0.074   4.731  0.1271  0.6294 -0.2544
  225SOL     ow  897   1.635   4.721   1.123  0.2650 -0.7656 -0.2172
  225SOL     hw  898   1.708   4.716   1.061 -0.4569  0.6593 -1.2679
  225SOL     hw  899   1.578   4.648   1.099  0.7215 -1.1143 -0.2493
  225SOL     vw  900   1.637   4.711   1.111  0.2301 -0.6235 -0.3601
  226SOL     ow  901   4.569   5.519   3.861 -0.1499  0.7523 -0.1082
  226SOL     hw  902   4.506   5.449   3.842 -1.1731  2.1925 -2.3079
  226SOL     hw  903   4.538   5.556   3.944  0.6714 -1.5822  1.3669
  226SOL     vw  904   4.557   5.515   3.869 -0.1764  0.6342 -0.2037
  227SOL     ow  905   5.264   0.560   5.249  0.2435  0.3024 -0.1978
  227SOL     hw  906   5.254   0.623   5.320  0.9969  2.7105 -2.0978
  227SOL     hw  907   5.357   0.536   5.251  0.5685  1.3805 -1.0897
  227SOL     vw  908   5.275   0.565   5.258  0.3858  0.7623 -0.5662
  228SOL     ow  909   5.260   1.606   5.633 -0.5431  0.0858 -0.1423
  228SOL     hw  910   5.315   1.588   5.556 -0.6928  0.0216 -0.2342
  228SOL     hw  911   5.189   1.542   5.627 -0.2991 -0.2323  0.3067
  228SOL     vw  912   5.258   1.595   5.622 -0.5302  0.0353 -0.0954
  229SOL     ow  913   0.606   5.996   3.602 -0.1756  0.1550 -0.1186
  229SOL     hw  914   0.695   5.962   3.603 -0.4264 -0.5204 -0.1971
  229SOL     hw  915   0.584   6.004   3.509 -1.3987 -2.9940 -0.2429
  229SOL     vw  916   0.615   5.993   3.590 -0.3701 -0.3498 -0.1453
  230SOL     ow  917   1.775   1.673   3.755 -0.0198 -0.6557 -0.3801
  230SOL     hw  918   1.685   1.643   3.740  0.1718 -1.8564  0.6470
  230SOL     hw  919   1.805   1.620   3.829  2.2063 -1.7303 -1.9301
  230SOL     vw  920   1.767   1.662   3.763  0.2992 -0.9558 -0.4491
  231SOL     ow  921   3.331   3.014   0.644  0.1715  0.3639  0.9549
  231SOL     hw  922   3.307   2.930   0.684  1.3358 -1.3565 -1.6951
  231SOL     hw  923   3.254   3.039   0.592  1.5698 -2.0741 -2.7021
  231SOL     vw  924   3.318   3.006   0.642  0.5096 -0.1847  0.1228
  232SOL     ow  925   2.950   3.051   6.383 -0.0671 -0.3034  0.1816
  232SOL     hw  926   2.856   3.036   6.397 -0.1433 -0.8305 -0.7250
  232SOL     hw  927   2.955   3.138   6.344 -0.1692 -0.2185  0.3590
  232SOL     vw  928   2.938   3.060   6.379 -0.0906 -0.3619  0.0854
  233SOL     ow  929   1.137   4.481   3.839  0.4918  0.2558  0.3827
  233SOL     hw  930   1.083   4.403   3.835 -1.2166  1.3568  0.8219
  233SOL     hw  931   1.109   4.525   3.920 -1.5824  3.3383 -1.8023
  233SOL     vw  932   1.126   4.477   3.849 -0.0072  0.8078  0.1523
  234SOL     ow  933   2.058   5.586   4.381 -0.4118 -0.2354  0.2467
  234SOL     hw  934   1.966   5.588   4.409 -0.8363 -0.8225 -1.0370
  234SOL     hw  935   2.103   5.642   4.444 -2.0325  2.0377 -0.4820
  234SOL     vw  936   2.052   5.594   4.393 -0.6818 -0.0131 -0.0186
  235SOL     ow  937   5.189   4.726   6.300  0.2205  0.5597 -0.1908
  235SOL     hw  938   5.254   4.662   6.271 -1.8020 -2.4633  1.4164
  235SOL     hw  939   5.132   4.738   6.225  0.7294  0.6351 -0.5676
  235SOL     vw  940   5.190   4.719   6.287  0.0207  0.1712 -0.0288
  236SOL     ow  941   2.089   5.480   0.760 -0.4541  0.2948 -0.7355
  236SOL     hw  942   2.072   5.567   0.795  2.3948 -0.1043  2.1033
  236SOL     hw  943   2.020   5.425   0.798 -0.4677  0.8180  0.0187
  236SOL     vw  944   2.077   5.484   0.770 -0.0801  0.3111 -0.2615
  237SOL     ow  945   0.842   3.484   5.584 -0.5119  0.1022 -0.5264
  237SOL     hw  946   0.902   3.532   5.527 -0.2365  2.7670  1.8348
  237SOL     hw  947   0.877   3.496   5.672 -3.4350  0.0813  0.7503
  237SOL     vw  948   0.854   3.492   5.588 -0.8613  0.4510 -0.0465
  238SOL     ow  949   4.847   1.026   5.358  0.4904 -0.0832 -1.3931
  238SOL     hw  950   4.849   0.934   5.382  0.2196  0.1724 -0.3142
  238SOL     hw  951   4.920   1.065   5.405 -0.7695  0.6526  0.0330
  238SOL     vw  952   4.857   1.019   5.367  0.2885  0.0477 -1.0626
  239SOL     ow  953   2.287   6.386   3.242  0.5985 -0.4928 -0.3923
  239SOL     hw  954   2.306   6.412   3.332 -1.6774 -1.5031  0.4751
  239SOL     hw  955   2.324   6.298   3.234  2.4944  0.3364 -1.1268
  239SOL     vw  956   2.294   6.378   3.253  0.5485 -0.5167 -0.3748
  240SOL     ow  957   1.131   3.228   1.984 -0.3549 -0.8785 -0.1731
  240SOL     hw  958   1.079   3.152   2.009 -0.1775 -0.7490  0.6196
  240SOL     hw  959   1.097   3.299   2.038  2.2929 -1.3306  2.3335
  240SOL     vw  960   1.119   3.228   1.995  0.0178 -0.9210  0.2622
  241SOL     ow  961   1.777   0.108   4.377 -0.1318 -0.3939  0.3793
  241SOL     hw  962   1.830   0.063   4.312  1.2618 -0.1546  1.3019
  241SOL     hw  963   1.767   0.045   4.448 -1.8511 -0.7463 -0.1357
  241SOL     vw  964   1.783   0.094   4.378 -0.1748 -0.4088  0.4330
  242SOL     ow  965   0.756   6.280   5.557 -0.4648  0.6600 -0.2273
  242SOL     hw  966   0.754   6.236   5.642 -0.3270  1.1784  0.0458
  242SOL     hw  967   0.703   6.225   5.500 -2.2837  1.3758  0.7064
  242SOL     vw  968   0.749   6.267   5.561 -0.6866  0.8230 -0.0682
  243SOL     ow  969   6.013   4.470   2.469  0.0853 -0.4775 -0.2129
  243SOL     hw  970   5.922   4.465   2.497  0.4174  0.1020  1.0173
  243SOL     hw  971   6.050   4.544   2.518  1.2090 -0.6664 -0.7293
  243SOL     vw  972   6.006   4.479   2.479  0.2773 -0.4261 -0.1189
  244SOL     ow  973   0.179   4.586   2.988  0.6491 -0.4519  0.1728
  244SOL     hw  974   0.224   4.580   2.904  0.8868  3.0562 -0.0927
  244SOL     hw  975   0.248   4.601   3.052  0.2182  1.1492  0.3153
  244SOL     vw  976   0.194   4.587   2.986  0.6236  0.2222  0.1566
  245SOL     ow  977   1.977   2.259   0.522 -0.6242 -0.2734 -0.2174
  245SOL     hw  978   1.896   2.251   0.471 -0.2220 -4.9958 -0.5005
  245SOL     hw  979   2.005   2.169   0.536  1.5393  0.9054  4.9488
  245SOL     vw  980   1.970   2.246   0.517 -0.2856 -0.7409  0.4269
  246SOL     ow  981   6.090   3.283   3.629 -0.3519 -0.1641 -0.4413
  246SOL     hw  982   6.138   3.270   3.711  0.8127  0.1688 -1.0508
  246SOL     hw  983   6.145   3.243   3.562 -0.8808  0.3204 -1.1777
  246SOL     vw  984   6.103   3.276   3.631 -0.2680 -0.0563 -0.6188
  247SOL     ow  985   2.791   3.936   0.687 -0.1223 -1.1165 -0.0900
  247SOL     hw  986   2.798   4.031   0.697  1.3642 -1.2313  0.1924
  247SOL     hw  987   2.719   3.923   0.625 -0.7455  0.1556  0.3305
  247SOL     vw  988   2.782   3.947   0.680 -0.0083 -0.9638  0.0027
  248SOL     ow  989   4.901   4.828   5.502  0.3289 -0.5367  0.3280
  248SOL     hw  990   4.943   4.832   5.416 -0.5368 -0.7930 -0.1216
  248SOL     hw  991   4.943   4.897   5.553  0.0703  0.3963 -0.6682
  248SOL     vw  992   4.912   4.838   5.498  0.1805 -0.4473  0.1371
  249SOL     ow  993   0.536   0.411   6.892 -0.1386 -0.1531 -0.2419
  249SOL     hw  994   0.570   0.424   6.803  0.3422  0.0447 -0.0284
  249SOL     hw  995   0.453   0.365   6.879  0.1037 -0.4487 -0.7759
  249SOL     vw  996   0.529   0.407   6.878 -0.0432 -0.1660 -0.2842
  250SOL     ow  997   2.716   4.740   0.010  0.2156  0.0778  0.1025
  250SOL     hw  998   2.809   4.719   0.005 -0.2718 -2.1071 -0.6805
  250SOL     hw  999   2.688   4.752  -0.081 -0.3555  0.4057  0.3079
  250SOL     vw 1000   2.724   4.739  -0.003  0.0758 -0.1674  0.0262
  251SOL     ow 1001   6.820   1.082   4.211  0.0625  0.7191 -0.3035
  251SOL     hw 1002   6.851   1.149   4.150 -0.9630  2.1207  0.6526
  251SOL     hw 1003   6.896   1.062   4.266 -0.0530  2.4067  0.5262
  251SOL     vw 1004   6.834   1.088   4.210 -0.0880  1.1266 -0.0677
  252SOL     ow 1005   2.486   1.398   0.710 -0.3249 -0.2475  0.3448
  252SOL     hw 1006   2.457   1.316   0.671  0.3694 -0.4914  0.3230
  252SOL     hw 1007   2.461   1.465   0.647  1.0759 -0.6682 -0.7085
  252SOL     vw 1008   2.479   1.396   0.697 -0.0485 -0.3352  0.2029
  253SOL     ow 1009   5.250   6.820   0.029 -0.0774  0.1785  0.0132
  253SOL     hw 1010   5.274   6.835  -0.063  1.2188 -0.6556  0.1896
  253SOL     hw 1011   5.196   6.896   0.052 -0.5043  0.3566 -1.4551
  253SOL     vw 1012   5.246   6.832   0.020  0.0374  0.0918 -0.1573
  254SOL     ow 1013   6.738   3.611   3.157  0.0219 -0.1933 -0.1351
  254SOL     hw 1014   6.757   3.517   3.165  1.0197  0.0270  0.2586
  254SOL     hw 1015   6.825   3.652   3.153 -0.3593  0.8996  1.7510
  254SOL     vw 1016   6.752   3.604   3.157  0.1032 -0.0199  0.1657
  255SOL     ow 1017   3.440   0.456   3.600  0.7371  0.5974  0.0635
  255SOL     hw 1018   3.485   0.506   3.668  2.0119  2.2972 -1.9112
  255SOL     hw 1019   3.445   0.366   3.629 -0.0289  1.3775  2.8914
  255SOL     vw 1020   3.447   0.451   3.613  0.8042  0.9246  0.1761
  256SOL     ow 1021   0.069   5.034   4.084  0.9047 -0.1610  0.2794
  256SOL     hw 1022   0.161   5.058   4.097  1.2716 -1.0292 -0.6021
  256SOL     hw 1023   0.070   4.972   4.012 -0.4540  0.3206 -0.1989
  256SOL     vw 1024   0.081   5.029   4.076  0.7739 -0.2117  0.1004
  257SOL     ow 1025   6.921   6.775   3.109 -0.0789 -0.4104 -0.0555
  257SOL     hw 1026   6.828   6.799   3.114 -0.2123 -1.2349  3.5521
  257SOL     hw 1027   6.968   6.858   3.113 -0.5763 -0.0305 -1.3487
  257SOL     vw 1028   6.915   6.789   3.110 -0.1621 -0.4692  0.2500
  258SOL     ow 1029   1.804   3.153   2.172 -0.0410  1.1527  0.1926
  258SOL     hw 1030   1.780   3.199   2.253  1.0123  2.3966 -0.1582
  258SOL     hw 1031   1.816   3.062   2.198 -0.6305  1.3637  1.2426
  258SOL     vw 1032   1.802   3.147   2.186  0.0201  1.3447  0.2848
  259SOL     ow 1033   3.754   3.334   3.016 -0.6118  0.0516  0.3972
  259SOL     hw 1034   3.804   3.257   2.987 -1.3430  0.4071 -2.0773
  259SOL     hw 1035   3.792   3.406   2.967 -3.5200  0.3201 -1.7056
  259SOL     vw 1036   3.766   3.333   3.006 -1.0920  0.1339 -0.2066
  260SOL     ow 1037   5.760   5.898   5.704 -0.5546 -0.8650  0.0324
  260SOL     hw 1038   5.724   5.957   5.770 -0.5230 -2.5057  1.5857
  260SOL     hw 1039   5.848   5.931   5.687 -0.7810 -0.0779  0.3668
  260SOL     vw 1040   5.767   5.910   5.711 -0.5803 -0.9775  0.2813
  261SOL     ow 1041   4.835   5.709   6.161  0.3822 -0.4780  0.0358
  261SOL     hw 1042   4.751   5.735   6.123  0.8397  1.6100  0.3324
  261SOL     hw 1043   4.811   5.669   6.245 -0.4723 -2.9335 -1.2856
  261SOL     vw 1044   4.821   5.708   6.167  0.3297 -0.5267 -0.0994
  262SOL     ow 1045   4.687   5.387   6.044  0.4974  0.2669 -0.1676
  262SOL     hw 1046   4.652   5.476   6.040  0.9978  0.4734 -0.0063
  262SOL     hw 1047   4.656   5.353   6.128  0.2615  0.2668 -0.2531
  262SOL     vw 1048   4.678   5.394   6.054  0.5322  0.2942 -0.1574
  263SOL     ow 1049   4.938   1.517   4.183  0.1664  0.5686 -0.4225
  263SOL     hw 1050   4.876   1.495   4.253  0.7204 -0.0431 -0.1244
  263SOL     hw 1051   4.981   1.597   4.214 -0.1153  0.7218 -0.4136
  263SOL     vw 1052   4.935   1.525   4.196  0.2027  0.5081 -0.3819
  264SOL     ow 1053   4.634   6.193   3.273 -0.3062 -0.1164  0.2430
  264SOL     hw 1054   4.585   6.111   3.272  2.2850 -1.8503  2.4151
  264SOL     hw 1055   4.630   6.222   3.364  0.5808  1.0465 -0.0584
  264SOL     vw 1056   4.627   6.186   3.285  0.1526 -0.1915  0.4900
  265SOL     ow 1057   1.777   3.634   4.382  0.0505 -0.2136 -0.5285
  265SOL     hw 1058   1.774   3.540   4.364 -0.7209 -0.2443 -0.2601
  265SOL     hw 1059   1.749   3.642   4.473 -2.0076  0.4487 -1.1813
  265SOL     vw 1060   1.773   3.623   4.392 -0.3229 -0.1302 -0.5791
  266SOL     ow 1061   0.043   6.503   1.504  0.1457  0.3985  0.1602
  266SOL     hw 1062   0.004   6.572   1.450  1.2513 -0.4412 -1.8273
  266SOL     hw 1063   0.136   6.505   1.481  0.9206  0.6943  2.8950
  266SOL     vw 1064   0.050   6.513   1.494  0.3938  0.3271  0.2588
  267SOL     ow 1065   0.588   6.240   0.734  0.1156  0.0538  0.4903
  267SOL     hw 1066   0.649   6.181   0.690  1.1782  2.0683 -0.9462
  267SOL     hw 1067   0.591   6.320   0.681 -4.8410 -0.1127 -0.4630
  267SOL     vw 1068   0.597   6.243   0.721 -0.3981  0.2973  0.1750
  268SOL     ow 1069   6.753   1.329   4.434  0.5466 -0.1873  0.5476
  268SOL     hw 1070   6.690   1.262   4.463 -0.0594  0.3162  0.4134
  268SOL     hw 1071   6.781   1.300   4.347  2.7441 -1.9721  1.7353
  268SOL     vw 1072   6.748   1.316   4.427  0.7565 -0.3564  0.6866
  269SOL     ow 1073   0.074   3.590   6.125 -0.3023 -0.7232  0.3635
  269SOL     hw 1074   0.149   3.552   6.077 -0.7126 -4.7940  2.4564
  269SOL     hw 1075   0.113   3.652   6.185  0.8994  0.0066 -1.0996
  269SOL     vw 1076   0.089   3.593   6.126 -0.1979 -1.1641  0.4466
  270SOL     ow 1077   0.799   5.581   0.042  1.1485 -0.3836  0.1669
  270SOL     hw 1078   0.768   5.667   0.011 -1.4322 -1.7342 -1.3391
  270SOL     hw 1079   0.732   5.553   0.103  2.9025 -0.6271  2.0800
  270SOL     vw 1080   0.786   5.589   0.046  1.0395 -0.5939  0.2206
  271SOL     ow 1081   5.419   4.668   4.322 -0.2543 -0.5934  0.1156
  271SOL     hw 1082   5.468   4.750   4.317 -0.4336 -0.3760  1.5440
  271SOL     hw 1083   5.481   4.601   4.295  0.1185 -0.0672 -0.3463
  271SOL     vw 1084   5.433   4.670   4.318 -0.2286 -0.4952  0.2429
  272SOL     ow 1085   5.762   6.809   5.507  0.8164  0.5413 -0.0211
  272SOL     hw 1086   5.858   6.813   5.508  0.8859  1.3154 -2.4888
  272SOL     hw 1087   5.736   6.883   5.452 -1.1074 -0.6302 -0.7816
  272SOL     vw 1088   5.771   6.819   5.500  0.5717  0.4888 -0.4470
  273SOL     ow 1089   3.688   1.210   4.055  0.8449 -0.2915 -0.8295
  273SOL     hw 1090   3.597   1.212   4.083  0.6001 -0.6473 -1.5841
  273SOL     hw 1091   3.715   1.302   4.053 -0.2895  0.0494 -3.1090
  273SOL     vw 1092   3.680   1.222   4.058  0.6629 -0.2934 -1.2300
  274SOL     ow 1093   0.006   5.689   6.636 -0.6329 -0.4268  0.1682
  274SOL     hw 1094  -0.042   5.750   6.693 -1.9426 -0.7752 -0.5117
  274SOL     hw 1095   0.008   5.607   6.686 -0.0268 -0.1968  0.5313
  274SOL     vw 1096  -0.000   5.686   6.650 -0.7257 -0.4420  0.1266
  275SOL     ow 1097   2.312   4.056   0.295 -0.2133  0.3151 -0.1794
  275SOL     hw 1098   2.283   3.968   0.320 -2.2832  1.0739  0.2924
  275SOL     hw 1099   2.336   4.047   0.202 -2.2652 -0.3727 -0.7082
  275SOL     vw 1100   2.312   4.043   0.286 -0.7571  0.3245 -0.1869
  276SOL     ow 1101   5.613   1.962   6.331 -0.3122  0.7169  0.5608
  276SOL     hw 1102   5.574   1.993   6.249 -1.6339 -0.0674  0.8615
  276SOL     hw 1103   5.567   1.880   6.350  2.6441 -1.1907  0.0880
  276SOL     vw 1104   5.602   1.955   6.323 -0.0963  0.3616  0.5381
  277SOL     ow 1105   0.695   5.972   6.147 -0.2777 -0.4145  0.2540
  277SOL     hw 1106   0.639   6.039   6.107 -2.0822 -1.2016  1.3530
  277SOL     hw 1107   0.754   6.022   6.203  0.0024  0.4234 -0.7510
  277SOL     vw 1108   0.695   5.988   6.149 -0.4789 -0.4077  0.2663
  278SOL     ow 1109   1.427   1.333   1.340  0.7537  0.5757 -0.3647
  278SOL     hw 1110   1.377   1.415   1.345  2.0691  1.4114 -0.5194
  278SOL     hw 1111   1.370   1.273   1.290 -1.7848  0.1869  2.6580
  278SOL     vw 1112   1.413   1.336   1.334  0.5924  0.6347  0.0136
  279SOL     ow 1113   4.942   4.018   4.907 -0.5565 -0.4363 -0.4659
  279SOL     hw 1114   4.899   4.053   4.829 -0.6863 -0.9349 -0.6190
  279SOL     hw 1115   4.995   3.945   4.875 -1.5607 -1.4401  0.0613
  279SOL     vw 1116   4.943   4.013   4.892 -0.7062 -0.6347 -0.4165
  280SOL     ow 1117   1.767   3.234   5.012 -0.0722 -0.3243 -0.1079
  280SOL     hw 1118   1.692   3.180   5.037 -1.8333  1.8555 -0.3419
  280SOL     hw 1119   1.771   3.225   4.916  0.2237 -0.7495 -0.0569
  280SOL     vw 1120   1.757   3.226   5.002 -0.2655 -0.0929 -0.1321
  281SOL     ow 1121   1.259   4.081   2.608  0.2503 -0.5238 -0.0233
  281SOL     hw 1122   1.224   4.131   2.534  0.9976  1.4431  0.8864
  281SOL     hw 1123   1.184   4.067   2.666 -0.2900 -1.8806 -1.0155
  281SOL     vw 1124   1.244   4.086   2.606  0.2776 -0.4432 -0.0341
  282SOL     ow 1125   1.702   4.989   6.857 -0.4961  0.3215 -0.5224
  282SOL     hw 1126   1.653   4.923   6.809 -1.1431 -0.8053  1.5844
  282SOL     hw 1127   1.794   4.968   6.841 -0.7010 -0.7724 -0.3197
  282SOL     vw 1128   1.708   4.978   6.849 -0.6086  0.0284 -0.2177
  283SOL     ow 1129   3.496   1.606   6.764 -0.4298 -0.8079  0.1271
  283SOL     hw 1130   3.514   1.561   6.682 -0.2101  1.5654 -1.1904
  283SOL     hw 1131   3.526   1.545   6.832  0.9995 -2.1011 -1.5833
  283SOL     vw 1132   3.502   1.592   6.762 -0.2122 -0.6654 -0.2723
  284SOL     ow 1133   6.657   4.931   1.221 -0.1866  0.1285  0.2931
  284SOL     hw 1134   6.680   4.966   1.135 -3.5267 -1.9909 -1.7350
  284SOL     hw 1135   6.669   5.004   1.282  2.1314  1.7760 -1.9481
  284SOL     vw 1136   6.661   4.945   1.218 -0.3216  0.0663 -0.2702
  285SOL     ow 1137   5.581   1.725   0.850 -0.1422 -1.0848  0.1379
  285SOL     hw 1138   5.653   1.691   0.903 -1.5831 -3.4944  0.7067
  285SOL     hw 1139   5.505   1.723   0.908 -1.2231 -1.2577 -1.2204
  285SOL     vw 1140   5.580   1.720   0.865 -0.4749 -1.4255  0.0337
  286SOL     ow 1141   0.614   2.017   2.275 -0.0815  0.7881  0.0528
  286SOL     hw 1142   0.619   1.969   2.192  1.0067 -0.0598  0.5810
  286SOL     hw 1143   0.695   2.069   2.276 -0.5551  1.5357  0.1544
  286SOL     vw 1144   0.625   2.018   2.264 -0.0004  0.7749  0.1360
  287SOL     ow 1145   1.814   4.565   2.724  0.9833 -0.1920 -0.7525
  287SOL     hw 1146   1.869   4.497   2.684  0.0166 -1.7174  0.3901
  287SOL     hw 1147   1.860   4.647   2.704  2.8412 -1.2542 -1.1701
  287SOL     vw 1148   1.828   4.567   2.716  1.1009 -0.5333 -0.6567
  288SOL     ow 1149   0.934   3.296   0.693  0.9659 -1.1158  0.4982
  288SOL     hw 1150   0.982   3.356   0.751 -2.4524  2.6423 -0.0787
  288SOL     hw 1151   0.879   3.244   0.751  0.6059 -0.3308  0.8794
  288SOL     vw 1152   0.933   3.297   0.708  0.4674 -0.5164  0.4723
  289SOL     ow 1153   6.634   1.498   4.694  0.3789 -0.0085 -0.0219
  289SOL     hw 1154   6.552   1.530   4.732  1.0920  1.3995  0.4266
  289SOL     hw 1155   6.668   1.436   4.758  0.1992  0.2457  0.3262
  289SOL     vw 1156   6.628   1.494   4.707  0.4497  0.2108  0.0832
  290SOL     ow 1157   1.612   5.285   0.063 -0.3978  0.2666  0.0846
  290SOL     hw 1158   1.697   5.328   0.078  1.6586 -2.6510 -2.2720
  290SOL     hw 1159   1.576   5.330  -0.014  1.3957 -1.5199 -1.9141
  290SOL     vw 1160   1.619   5.297   0.055  0.1101 -0.3543 -0.4901
  291SOL     ow 1161   0.374   0.444   5.744  0.3291 -0.2950  0.2991
  291SOL     hw 1162   0.401   0.365   5.697 -0.3282 -1.2511  1.4737
  291SOL     hw 1163   0.454   0.493   5.757  0.7787 -0.8624 -0.3047
  291SOL     vw 1164   0.388   0.440   5.740  0.3017 -0.4960  0.3741
  292SOL     ow 1165   4.975   4.083   2.987 -0.0842 -0.1061  0.1655
  292SOL     hw 1166   4.904   4.135   3.026  0.4373 -1.3587  3.0313
  292SOL     hw 1167   5.054   4.134   3.003 -0.1646  0.7822 -2.0629
  292SOL     vw 1168   4.976   4.096   2.995 -0.0257 -0.1540  0.2495
  293SOL     ow 1169   3.083   5.455   2.343  0.0388 -0.7461 -0.2707
  293SOL     hw 1170   3.166   5.462   2.295 -0.8263 -0.0601 -1.7291
  293SOL     hw 1171   3.029   5.396   2.290 -0.6573 -0.6200  0.2857
  293SOL     vw 1172   3.087   5.448   2.330 -0.1673 -0.6390 -0.3897
  294SOL     ow 1173   4.124   4.664   1.026  0.5893 -0.2992 -0.6840
  294SOL     hw 1174   4.123   4.573   1.055 -2.3099 -0.9587 -2.4266
  294SOL     hw 1175   4.070   4.665   0.947  0.1978  3.0002 -0.5413
  294SOL     vw 1176   4.116   4.652   1.020  0.1550  0.0491 -0.8950
  295SOL     ow 1177   2.291   0.322   2.140  0.2039 -0.4102  0.0283
  295SOL     hw 1178   2.346   0.400   2.146 -0.5679  0.4009 -2.4740
  295SOL     hw 1179   2.353   0.249   2.146  1.2041  0.4112  0.0738
  295SOL     vw 1180   2.307   0.323   2.142  0.2340 -0.1949 -0.2960
  296SOL     ow 1181   1.839   3.107   3.723  0.5604 -0.0871  0.2410
  296SOL     hw 1182   1.793   3.184   3.755 -0.8009 -1.4990  1.9131
  296SOL     hw 1183   1.930   3.121   3.748  0.1814  0.6139  1.2893
  296SOL     vw 1184   1.845   3.119   3.731  0.3308 -0.1808  0.5997
  297SOL     ow 1185   5.456   3.361   4.754 -1.4994  0.1960  0.6898
  297SOL     hw 1186   5.463   3.400   4.667 -0.4122 -0.3631  0.5056
  297SOL     hw 1187   5.410   3.426   4.807 -2.2384  0.5053 -0.3219
  297SOL     vw 1188   5.451   3.375   4.750 -1.4532  0.1631  0.5322
  298SOL     ow 1189   2.645   2.374   0.012 -0.3610 -0.1365  0.7223
  298SOL     hw 1190   2.735   2.405   0.022 -0.1378 -0.4961 -0.1002
  298SOL     hw 1191   2.592   2.439   0.059  0.2977  0.2175  0.9922
  298SOL     vw 1192   2.650   2.387   0.019 -0.2447 -0.1372  0.6495
  299SOL     ow 1193   6.785   4.274   0.292 -0.7104  0.2189  0.3394
  299SOL     hw 1194   6.809   4.216   0.219 -2.1764  0.7720 -0.6246
  299SOL     hw 1195   6.801   4.362   0.258  0.0001  0.4458  1.2348
  299SOL     vw 1196   6.790   4.278   0.278 -0.8101  0.3219  0.3303
  300SOL     ow 1197   4.823   6.420   4.525  0.1132 -0.4060  0.4154
  300SOL     hw 1198   4.732   6.418   4.553  0.0078 -0.1263  0.0917
  300SOL     hw 1199   4.833   6.341   4.471 -0.1401 -0.0367 -0.1754
  300SOL     vw 1200   4.813   6.409   4.521  0.0660 -0.3204  0.2944
  301SOL     ow 1201   6.568   3.561   4.544 -0.2780 -0.3238 -0.4550
  301SOL     hw 1202   6.501   3.545   4.610 -0.1283  4.4237  1.2673
  301SOL     hw 1203   6.648   3.525   4.582 -0.7482 -0.3134  0.5898
  301SOL     vw 1204   6.570   3.554   4.558 -0.3204  0.3039 -0.0899
  302SOL     ow 1205   4.922   5.631   3.123 -0.0577  0.0574 -0.0845
  302SOL     hw 1206   4.826   5.632   3.123 -0.0899 -1.1658 -0.4667
  302SOL     hw 1207   4.945   5.594   3.209  0.0669  0.1211 -0.0910
  302SOL     vw 1208   4.912   5.626   3.135 -0.0458 -0.0956 -0.1358
  303SOL     ow 1209   0.547   0.404   0.274 -0.3964 -0.0537  0.3910
  303SOL     hw 1210   0.621   0.401   0.334 -0.5279 -3.0535  0.5534
  303SOL     hw 1211   0.477   0.444   0.325  0.5641  1.0448  0.8816
  303SOL     vw 1212   0.547   0.409   0.289 -0.2870 -0.3045  0.4772
  304SOL     ow 1213   4.534   1.959   1.466  0.5872 -0.4429 -0.5817
  304SOL     hw 1214   4.442   1.936   1.454  0.1957 -0.0359  1.3457
  304SOL     hw 1215   4.546   2.038   1.413 -0.4504  0.0795 -0.0624
  304SOL     vw 1216   4.523   1.967   1.457  0.3989 -0.3203 -0.2590
  305SOL     ow 1217   4.835   5.484   3.665 -0.3554  0.0741  0.1334
  305SOL     hw 1218   4.903   5.422   3.641  0.1012  0.9623 -0.9514
  305SOL     hw 1219   4.872   5.570   3.647 -1.3065  0.6364  0.7278
  305SOL     vw 1220   4.849   5.487   3.660 -0.4210  0.2654  0.0687
  306SOL     ow 1221   1.151   4.349   0.704 -0.4387 -0.1224 -0.0460
  306SOL     hw 1222   1.131   4.348   0.797 -3.1695  0.8359 -0.5386
  306SOL     hw 1223   1.201   4.430   0.691  0.9901 -0.8383  0.6995
  306SOL     vw 1224   1.155   4.360   0.714 -0.6105 -0.0904 -0.0127
  307SOL     ow 1225   3.763   3.966   4.760 -0.2225 -0.0661 -0.4670
  307SOL     hw 1226   3.796   3.887   4.718  0.0735 -1.9770  3.0420
  307SOL     hw 1227   3.680   3.939   4.800 -0.2381  1.4799  0.6019
  307SOL     vw 1228   3.756   3.952   4.760 -0.1856 -0.1143  0.1369
  308SOL     ow 1229   3.787   3.142   2.621  0.2321  0.3851  0.5218
  308SOL     hw 1230   3.829   3.160   2.705  1.1955 -0.6170  0.2738
  308SOL     hw 1231   3.831   3.201   2.560  0.7491 -0.1119  0.4077
  308SOL     vw 1232   3.798   3.153   2.624  0.4274  0.1872  0.4740
  309SOL     ow 1233   5.529   1.471   3.464 -0.1489 -0.3721  0.6784
  309SOL     hw 1234   5.572   1.478   3.549 -0.3122 -1.5293  0.8708
  309SOL     hw 1235   5.581   1.526   3.406  1.2501 -1.2479  1.0418
  309SOL     vw 1236   5.541   1.479   3.467  0.0141 -0.6404  0.7517
  310SOL     ow 1237   1.646   0.141   2.988 -0.2009  0.1509  0.2309
  310SOL     hw 1238   1.705   0.215   3.001  0.0986  0.2004 -1.1721
  310SOL     hw 1239   1.686   0.069   3.037 -0.5124  0.9048  1.6342
  310SOL     vw 1240   1.659   0.142   2.996 -0.2025  0.2569  0.2310
  311SOL     ow 1241   0.403   4.907   5.769 -0.0082 -0.3482  0.4612
  311SOL     hw 1242   0.313   4.887   5.742  0.1407  1.5686 -1.8282
  311SOL     hw 1243   0.454   4.832   5.741 -0.7018 -0.8901  0.6111
  311SOL     vw 1244   0.398   4.895   5.762 -0.0800 -0.1669  0.1791
  312SOL     ow 1245   2.421   6.007   0.347 -0.1403  0.2769  1.1920
  312SOL     hw 1246   2.485   5.937   0.357 -1.7034 -1.3751  0.1893
  312SOL     hw 1247   2.456   6.079   0.400  2.7504 -0.3543  0.3332
  312SOL     vw 1248   2.434   6.007   0.355  0.0349 -0.0243  0.9464
  313SOL     ow 1249   5.071   3.485   0.499 -0.2956 -0.4753 -0.0721
  313SOL     hw 1250   5.051   3.510   0.408 -0.6021  0.0688  0.1439
  313SOL     hw 1251   5.166   3.480   0.502 -0.3147 -1.5392 -0.6989
  313SOL     vw 1252   5.080   3.487   0.487 -0.3386 -0.5440 -0.1263
  314SOL     ow 1253   4.299   5.883   4.444  0.9280  0.2685 -0.1147
  314SOL     hw 1254   4.351   5.886   4.524 -0.6136  2.3741  0.9218
  314SOL     hw 1255   4.311   5.795   4.409  2.0993 -0.5117  2.1243
  314SOL     vw 1256   4.307   5.872   4.450  0.8790  0.4435  0.3176
  315SOL     ow 1257   6.884   3.563   1.801  0.1548 -0.5005 -0.1819
  315SOL     hw 1258   6.916   3.482   1.841  0.6453 -1.0894 -1.6981
  315SOL     hw 1259   6.963   3.613   1.781 -0.0925 -0.1484 -0.3005
  315SOL     vw 1260   6.899   3.559   1.804  0.1872 -0.5316 -0.3976
  316SOL     ow 1261   6.311   3.868   0.489 -0.3291 -0.7572 -0.3619
  316SOL     hw 1262   6.358   3.787   0.469  1.0533  0.2795 -1.5406
  316SOL     hw 1263   6.352   3.934   0.433 -0.9024  0.9322  1.1223
  316SOL     vw 1264   6.323   3.866   0.479 -0.2224 -0.3976 -0.3216
  317SOL     ow 1265   6.601   3.717   4.287 -0.1368  0.0904 -0.6828
  317SOL     hw 1266   6.622   3.732   4.195 -0.4222 -0.4475 -0.8398
  317SOL     hw 1267   6.677   3.672   4.322  0.7540  1.8701 -0.1919
  317SOL     vw 1268   6.613   3.713   4.280 -0.0570  0.2540 -0.6387
  318SOL     ow 1269   2.767   1.932   4.280  1.0986  0.2937  0.0962
  318SOL     hw 1270   2.727   1.911   4.195 -1.2897  0.0817  1.1891
  318SOL     hw 1271   2.855   1.895   4.275  0.4448 -1.1959 -1.6838
  318SOL     vw 1272   2.773   1.925   4.268  0.6973  0.0693  0.0057
  319SOL     ow 1273   0.122   2.145   2.307 -0.2284 -0.2319 -0.0894
  319SOL     hw 1274   0.181   2.076   2.275  0.6919 -0.0547  1.1897
  319SOL     hw 1275   0.156   2.169   2.393 -2.0726 -0.0099  0.6312
  319SOL     vw 1276   0.134   2.139   2.314 -0.3503 -0.1791  0.1744
  320SOL     ow 1277   6.205   1.383   6.136  0.2746 -0.1888 -0.2002
  320SOL     hw 1278   6.225   1.422   6.051 -0.5271  0.1624 -0.2342
  320SOL     hw 1279   6.164   1.299   6.115 -0.0477 -0.0415 -0.1661
  320SOL     vw 1280   6.202   1.377   6.122  0.1264 -0.1231 -0.2003
  321SOL     ow 1281   1.364   1.672   5.389  0.8048  0.4641 -0.0685
  321SOL     hw 1282   1.383   1.582   5.419  3.2217  0.6380 -0.8328
  321SOL     hw 1283   1.289   1.699   5.441  2.3817 -0.6381  3.0538
  321SOL     vw 1284   1.357   1.663   5.400  1.3317  0.3416  0.2425
  322SOL     ow 1285   3.432   3.307   5.957 -0.2584  0.7585  0.4866
  322SOL     hw 1286   3.402   3.241   5.895 -1.0397  1.3649  0.1989
  322SOL     hw 1287   3.359   3.368   5.964  0.5423  1.7377  0.5385
  322SOL     vw 1288   3.419   3.306   5.950 -0.2558  0.9677  0.4551
  323SOL     ow 1289   1.286   2.635   4.161  0.0464  0.3732 -0.7649
  323SOL     hw 1290   1.297   2.662   4.070  0.6789 -0.4234 -0.9271
  323SOL     hw 1291   1.269   2.541   4.157  0.8409  0.1831 -0.0157
  323SOL     vw 1292   1.285   2.626   4.149  0.2347  0.2429 -0.6874
  324SOL     ow 1293   2.334   5.617   6.251 -0.0993 -0.1919  0.0163
  324SOL     hw 1294   2.428   5.636   6.252  0.0664 -0.9462 -0.5071
  324SOL     hw 1295   2.310   5.618   6.159 -0.9430  1.5048  0.2187
  324SOL     vw 1296   2.343   5.619   6.239 -0.1887 -0.0675 -0.0260
  325SOL     ow 1297   6.236   5.714   6.506 -0.1306  0.5852 -0.2635
  325SOL     hw 1298   6.281   5.666   6.576  1.8792 -2.6674 -3.4539
  325SOL     hw 1299   6.144   5.691   6.517  0.4390 -1.8320  0.0219
  325SOL     vw 1300   6.230   5.704   6.517  0.2098 -0.1628 -0.6468
  326SOL     ow 1301   3.910   1.252   2.499  0.1244 -0.5869  0.2049
  326SOL     hw 1302   3.830   1.206   2.522 -0.7485  1.4303  1.4655
  326SOL     hw 1303   3.953   1.269   2.583 -0.1950  1.8785 -0.0666
  326SOL     vw 1304   3.905   1.248   2.513 -0.0328  0.0045  0.3355
  327SOL     ow 1305   4.111   4.181   0.510 -0.1380 -0.4569  0.0096
  327SOL     hw 1306   4.174   4.125   0.466  2.2083  1.0566  1.2515
  327SOL     hw 1307   4.075   4.236   0.440  1.1972 -0.2109 -0.5105
  327SOL     vw 1308   4.115   4.181   0.495  0.3476 -0.2248  0.1048
  328SOL     ow 1309   3.328   2.284   0.213 -0.3398 -1.1559 -0.0275
  328SOL     hw 1310   3.296   2.210   0.265 -3.9030  0.4572  0.4078
  328SOL     hw 1311   3.255   2.305   0.154  0.5611  1.9144 -0.2244
  328SOL     vw 1312   3.314   2.277   0.212 -0.6911 -0.5380  0.0040
  329SOL     ow 1313   4.982   3.904   6.719 -0.1650 -0.4084 -0.0331
  329SOL     hw 1314   5.038   3.830   6.742  0.3993 -0.3590 -1.2055
  329SOL     hw 1315   4.903   3.863   6.682 -2.1609 -0.6130  3.9073
  329SOL     vw 1316   4.979   3.889   6.717 -0.3538 -0.4287  0.3324
  330SOL     ow 1317   0.470   0.372   3.550  0.0385 -0.9766  0.0381
  330SOL     hw 1318   0.470   0.416   3.636  1.6817 -0.5589 -0.1390
  330SOL     hw 1319   0.437   0.284   3.568  2.1245 -1.5547  1.5075
  330SOL     vw 1320   0.466   0.367   3.564  0.5305 -0.9978  0.2085
  331SOL     ow 1321   5.397   2.897   2.498  0.3670 -0.9128 -0.4749
  331SOL     hw 1322   5.348   2.815   2.500  1.3749 -1.6649 -2.8889
  331SOL     hw 1323   5.349   2.952   2.437 -1.5476  1.2792  2.7285
  331SOL     vw 1324   5.384   2.893   2.491  0.2472 -0.7230 -0.3707
  332SOL     ow 1325   1.101   5.045   2.691  0.4940 -0.0952  0.2948
  332SOL     hw 1326   1.114   4.964   2.643 -1.5129 -1.7314  2.2815
  332SOL     hw 1327   1.169   5.104   2.659  2.1343 -2.6052 -1.1042
  332SOL     vw 1328   1.111   5.042   2.681  0.4456 -0.6423  0.3724
  333SOL     ow 1329   1.762   5.998   6.164 -0.2718  0.1890 -0.7802
  333SOL     hw 1330   1.750   5.921   6.107  2.1683  0.0178 -1.1786
  333SOL     hw 1331   1.779   5.961   6.250 -0.9724  0.3645 -0.5597
  333SOL     vw 1332   1.763   5.983   6.167 -0.0423  0.1895 -0.8037
  334SOL     ow 1333   5.128   2.427   0.491  0.5456 -0.4083 -0.2322
  334SOL     hw 1334   5.179   2.482   0.550 -0.1708 -1.3737  1.3519
  334SOL     hw 1335   5.037   2.447   0.512  0.2752 -0.7860 -0.9978
  334SOL     vw 1336   5.123   2.437   0.502  0.4153 -0.5854 -0.1242
  335SOL     ow 1337   4.777   2.357   1.024 -0.2430  0.2244  0.3943
  335SOL     hw 1338   4.744   2.414   1.094 -1.3560 -0.6042  0.5742
  335SOL     hw 1339   4.724   2.278   1.031  0.1293 -0.1640 -0.9286
  335SOL     vw 1340   4.765   2.354   1.035 -0.3407  0.0639  0.2434
  336SOL     ow 1341   2.488   0.458   5.581 -0.5717 -0.6718  0.1125
  336SOL     hw 1342   2.523   0.456   5.492  0.3160 -1.4192  0.4742
  336SOL     hw 1343   2.394   0.442   5.570 -1.1949  2.8345 -1.0022
  336SOL     vw 1344   2.480   0.456   5.568 -0.5369 -0.3078  0.0131
  337SOL     ow 1345   4.023   0.646   3.369  0.6317  0.1155 -0.3548
  337SOL     hw 1346   3.980   0.588   3.432  0.5259  0.9434  0.3543
  337SOL     hw 1347   3.967   0.643   3.291 -0.2190  0.4586  0.2262
  337SOL     vw 1348   4.010   0.638   3.367  0.5054  0.2700 -0.1844
  338SOL     ow 1349   5.303   2.781   3.325 -0.2303  0.5236  0.4032
  338SOL     hw 1350   5.399   2.781   3.322 -0.2432  0.4792 -0.3500
  338SOL     hw 1351   5.278   2.862   3.279 -0.5661 -0.1704 -0.6698
  338SOL     vw 1352   5.313   2.792   3.318 -0.2763  0.4262  0.1622
  339SOL     ow 1353   5.876   4.277   1.733 -0.3892  0.3267  0.0401
  339SOL     hw 1354   5.836   4.237   1.656 -0.6235  2.6232 -1.1023
  339SOL     hw 1355   5.956   4.226   1.747 -0.6095 -0.4706 -1.3845
  339SOL     vw 1356   5.881   4.265   1.725 -0.4492  0.5245 -0.2986
  340SOL     ow 1357   5.444   5.371   4.194 -0.0801 -0.1204  0.2803
  340SOL     hw 1358   5.363   5.371   4.144 -0.3458 -0.8308  0.6819
  340SOL     hw 1359   5.415   5.370   4.286  0.3738 -0.5032  0.4247
  340SOL     vw 1360   5.430   5.371   4.200 -0.0553 -0.2646  0.3524
  341SOL     ow 1361   0.844   4.265   2.005  0.1725  0.8236 -0.0138
  341SOL     hw 1362   0.826   4.171   2.004 -0.6728  0.9541  0.8793
  341SOL     hw 1363   0.928   4.272   2.051  0.1478  0.5110  0.0854
  341SOL     vw 1364   0.852   4.253   2.011  0.0577  0.7997  0.1171
  342SOL     ow 1365   2.220   6.679   4.232 -0.3380 -0.2229  0.3305
  342SOL     hw 1366   2.190   6.592   4.205 -1.1902 -0.3594  1.6275
  342SOL     hw 1367   2.213   6.678   4.328 -1.9097  1.7949  0.3049
  342SOL     vw 1368   2.215   6.667   4.241 -0.6577  0.0253  0.4983
  343SOL     ow 1369   6.580   1.686   0.918 -0.4757  0.2034 -0.1237
  343SOL     hw 1370   6.648   1.631   0.877 -0.7153 -0.9202  0.9246
  343SOL     hw 1371   6.555   1.748   0.849  3.8858  2.8989  0.3556
  343SOL     vw 1372   6.586   1.687   0.903  0.0682  0.4108  0.0779
  344SOL     ow 1373   0.497   1.040   3.887  0.4621  0.5781 -0.7125
  344SOL     hw 1374   0.533   0.952   3.892  0.2966  0.4718 -1.4155
  344SOL     hw 1375   0.403   1.029   3.893  0.5010  0.8377  0.8236
  344SOL     vw 1376   0.490   1.027   3.889  0.4454  0.5983 -0.6026
  345SOL     ow 1377   3.895   4.198   3.916 -0.2234 -0.4126  0.1207
  345SOL     hw 1378   3.900   4.284   3.958 -3.0021  1.0271 -2.1225
  345SOL     hw 1379   3.977   4.191   3.866 -0.2572  1.3042 -0.2414
  345SOL     vw 1380   3.907   4.209   3.915 -0.5944  0.0038 -0.2230
  346SOL     ow 1381   3.953   6.903   5.864  0.4900 -0.0134  0.6390
  346SOL     hw 1382   3.930   6.937   5.778  0.7351 -1.1934  0.0796
  346SOL     hw 1383   4.040   6.864   5.851  1.8508  2.3136  2.1245
  346SOL     vw 1384   3.962   6.902   5.851  0.7019  0.1383  0.7613
  347SOL     ow 1385   0.010   3.694   1.236  0.6962 -0.4613 -0.9253
  347SOL     hw 1386   0.073   3.717   1.304  0.5041 -1.3511 -0.4343
  347SOL     hw 1387   0.033   3.605   1.210 -1.2734 -1.4217  0.3605
  347SOL     vw 1388   0.021   3.686   1.241  0.4110 -0.7054 -0.6909
  348SOL     ow 1389   1.641   2.022   2.475  0.4495  0.1934 -0.0004
  348SOL     hw 1390   1.649   2.010   2.570  2.4135  1.7340  0.1038
  348SOL     hw 1391   1.554   1.990   2.454 -0.6306  1.1751  2.5735
  348SOL     vw 1392   1.631   2.017   2.485  0.5661  0.5262  0.3530
  349SOL     ow 1393   3.601   6.331   1.668  0.4158 -0.5423 -0.6208
  349SOL     hw 1394   3.664   6.395   1.634  0.7502 -1.6115 -2.1276
  349SOL     hw 1395   3.516   6.364   1.643  0.6110 -0.8592 -1.7419
  349SOL     vw 1396   3.598   6.343   1.660  0.4859 -0.7250 -0.9674
  350SOL     ow 1397   3.857   1.465   2.267 -0.0203 -0.3345 -0.4919
  350SOL     hw 1398   3.773   1.442   2.227 -0.6202 -1.2738  1.2123
  350SOL     hw 1399   3.895   1.530   2.207 -1.3845 -0.7916 -1.9282
  350SOL     vw 1400   3.851   1.471   2.253 -0.2794 -0.5187 -0.4566
  351SOL     ow 1401   1.839   4.495   6.473 -0.1475 -0.0147  0.2207
  351SOL     hw 1402   1.828   4.407   6.436  1.4466  0.2560 -1.0209
  351SOL     hw 1403   1.760   4.510   6.524 -0.6541 -1.9988  0.0959
  351SOL     vw 1404   1.827   4.485   6.475 -0.0041 -0.2408  0.0401
  352SOL     ow 1405   4.747   2.101   2.846 -0.3804  0.1352  0.1227
  352SOL     hw 1406   4.802   2.178   2.860 -1.2120  0.8702 -0.4929
  352SOL     hw 1407   4.782   2.035   2.905  1.4147  0.4312 -0.5592
  352SOL     vw 1408   4.759   2.102   2.856 -0.2530  0.2713 -0.0486
  353SOL     ow 1409   1.933   1.203   6.423 -0.2948 -0.2089 -0.0164
  353SOL     hw 1410   1.866   1.182   6.357 -1.5211  0.6906  0.8886
  353SOL     hw 1411   1.886   1.255   6.488  1.1546 -0.1391  1.0059
  353SOL     vw 1412   1.918   1.207   6.423 -0.2653 -0.0811  0.2379
  354SOL     ow 1413   0.918   5.792   0.216 -0.1736 -0.6550 -0.3590
  354SOL     hw 1414   0.976   5.847   0.165 -0.5794  1.5608  1.4111
  354SOL     hw 1415   0.902   5.716   0.161  1.5747  0.3082 -2.3183
  354SOL     vw 1416   0.923   5.789   0.202  0.0035 -0.2353 -0.3839
  355SOL     ow 1417   5.754   0.943   4.482 -0.2434  0.1647 -0.4899
  355SOL     hw 1418   5.814   0.952   4.409  1.1558 -1.4849  0.3846
  355SOL     hw 1419   5.806   0.966   4.559 -0.5859 -1.6202  0.3245
  355SOL     vw 1420   5.769   0.947   4.483 -0.1042 -0.2884 -0.2668
  356SOL     ow 1421   2.174   3.201   3.985  0.6383  0.2417 -0.2996
  356SOL     hw 1422   2.151   3.163   3.900 -1.0002 -1.3261  0.7551
  356SOL     hw 1423   2.094   3.246   4.014  1.2297  0.9092  0.3330
  356SOL     vw 1424   2.160   3.202   3.978  0.5002  0.1229 -0.0771
  357SOL     ow 1425   6.252   1.338   1.429  0.2513 -0.0577  0.0954
  357SOL     hw 1426   6.170   1.292   1.412  0.6075 -0.1964 -1.3744
  357SOL     hw 1427   6.320   1.277   1.400  0.7683  0.9188 -0.7986
  357SOL     vw 1428   6.250   1.324   1.423  0.3667  0.0528 -0.2165
  358SOL     ow 1429   3.964   1.655   6.538 -0.0109 -0.2879 -0.5358
  358SOL     hw 1430   4.007   1.693   6.615 -0.1269 -0.7156 -0.2591
  358SOL     hw 1431   3.954   1.729   6.478 -2.6184  0.7665  1.0285
  358SOL     vw 1432   3.968   1.670   6.540 -0.3703 -0.2052 -0.2928
  359SOL     ow 1433   5.490   1.506   0.707 -0.4709 -1.1879  0.6078
  359SOL     hw 1434   5.562   1.536   0.763 -0.0324 -0.5276 -0.2897
  359SOL     hw 1435   5.533   1.483   0.624 -1.1147 -2.1218  0.5205
  359SOL     vw 1436   5.505   1.507   0.703 -0.4978 -1.2240  0.4778
  360SOL     ow 1437   1.388   5.712   2.034 -0.7006 -0.1232  0.5406
  360SOL     hw 1438   1.362   5.690   1.945  2.2731 -1.7633 -0.0472
  360SOL     hw 1439   1.421   5.802   2.028 -0.2262 -0.3357 -0.1254
  360SOL     vw 1440   1.389   5.721   2.022 -0.2457 -0.3674  0.3754
  361SOL     ow 1441   3.024   5.796   0.991 -0.2049  0.7695  0.1386
  361SOL     hw 1442   2.994   5.761   1.075 -0.7298 -0.3612 -0.4875
  361SOL     hw 1443   3.109   5.835   1.010 -0.2084  0.3233  1.1567
  361SOL     vw 1444   3.031   5.796   1.004 -0.2745  0.5615  0.1904
  362SOL     ow 1445   4.315   5.229   6.768  0.2257 -0.3999 -0.3038
  362SOL     hw 1446   4.320   5.295   6.837 -0.8689 -0.0476 -0.5285
  362SOL     hw 1447   4.350   5.273   6.690  1.2627 -0.7267 -0.0259
  362SOL     vw 1448   4.320   5.244   6.767  0.2182 -0.3967 -0.2971
  363SOL     ow 1449   6.430   4.709   4.813 -0.3680 -0.2355 -0.0516
  363SOL     hw 1450   6.512   4.705   4.863  0.3838 -0.4563 -1.2510
  363SOL     hw 1451   6.363   4.679   4.874  0.5075 -0.4029  0.8491
  363SOL     vw 1452   6.432   4.704   4.827 -0.1535 -0.2868 -0.0911
  364SOL     ow 1453   1.774   0.642   3.729  0.6499 -0.0368 -0.4148
  364SOL     hw 1454   1.686   0.678   3.737  0.7025  0.1422 -0.6172
  364SOL     hw 1455   1.761   0.549   3.712  0.4535  0.2075 -1.7517
  364SOL     vw 1456   1.761   0.634   3.728  0.6309  0.0190 -0.6177
  365SOL     ow 1457   0.944   6.075   4.607  0.2440 -0.0062  0.3774
  365SOL     hw 1458   0.948   6.159   4.654 -2.3101 -0.0387  0.8207
  365SOL     hw 1459   0.928   6.099   4.516 -1.3505  0.0423  0.6381
  365SOL     vw 1460   0.942   6.089   4.601 -0.3034 -0.0041  0.4704
  366SOL     ow 1461   3.649   2.176   6.419  0.6521 -0.2531 -0.2860
  366SOL     hw 1462   3.566   2.145   6.457  0.1316  1.5667  0.1805
  366SOL     hw 1463   3.642   2.156   6.326 -0.4355  0.0527 -0.2887
  366SOL     vw 1464   3.637   2.170   6.412  0.4399  0.0274 -0.2248
  367SOL     ow 1465   3.237   3.555   2.415  0.4058  0.3894 -0.3782
  367SOL     hw 1466   3.151   3.525   2.443  0.7685  0.1601  0.5239
  367SOL     hw 1467   3.270   3.607   2.489  1.1853  0.1715 -0.5629
  367SOL     vw 1468   3.230   3.558   2.428  0.5565  0.3303 -0.2837
  368SOL     ow 1469   3.979   5.889   0.264  0.1976 -0.7988  0.3725
  368SOL     hw 1470   3.947   5.817   0.210  0.3503 -1.3540  1.0044
  368SOL     hw 1471   4.056   5.922   0.218 -0.3063 -0.5386 -0.3056
  368SOL     vw 1472   3.985   5.884   0.251  0.1513 -0.8378  0.3664
  369SOL     ow 1473   0.401   6.168   5.137  0.1457  0.2090  0.1690
  369SOL     hw 1474   0.350   6.246   5.159  0.1728  0.2607  0.0501
  369SOL     hw 1475   0.488   6.185   5.174 -0.5555 -0.9197  2.5357
  369SOL     vw 1476   0.406   6.181   5.145  0.0568  0.0670  0.4656
  370SOL     ow 1477   1.162   1.468   6.817 -0.3336  0.4398  0.6379
  370SOL     hw 1478   1.171   1.546   6.872  0.7295  0.4271  0.5100
  370SOL     hw 1479   1.210   1.489   6.737 -0.8374  0.0041  0.2152
  370SOL     vw 1480   1.170   1.481   6.814 -0.2598  0.3807  0.5651
  371SOL     ow 1481   2.284   3.948   2.626 -0.0136 -0.3511  0.5919
  371SOL     hw 1482   2.364   3.981   2.666  0.4624  0.3973 -0.8678
  371SOL     hw 1483   2.219   4.018   2.640  0.0557 -0.2462  0.4089
  371SOL     vw 1484   2.286   3.962   2.633  0.0584 -0.2384  0.3752
  372SOL     ow 1485   2.915   2.927   6.111  0.3469 -0.3066 -0.1218
  372SOL     hw 1486   2.821   2.909   6.106  0.5316 -2.1495  1.6410
  372SOL     hw 1487   2.930   2.997   6.047 -2.1834 -0.0535 -0.5305
  372SOL     vw 1488   2.904   2.934   6.102  0.0374 -0.5164  0.0565
  373SOL     ow 1489   2.314   6.586   3.960 -0.1085 -0.3089 -0.0690
  373SOL     hw 1490   2.263   6.597   3.880 -0.6019 -1.3541  0.0837
  373SOL     hw 1491   2.392   6.537   3.932  1.4231  2.1565 -0.5028
  373SOL     vw 1492   2.318   6.581   3.946  0.0286 -0.1211 -0.1061
  374SOL     ow 1493   5.203   2.762   5.722  0.8220  0.2010  0.5957
  374SOL     hw 1494   5.154   2.747   5.803 -0.9751  2.3144  0.0137
  374SOL     hw 1495   5.270   2.694   5.721 -0.9721 -1.7424  2.3688
  374SOL     vw 1496   5.205   2.751   5.732  0.3483  0.2234  0.7529
  375SOL     ow 1497   0.793   0.230   2.851  0.0071  0.1934 -1.1671
  375SOL     hw 1498   0.745   0.295   2.902  1.1394  1.1802 -1.3219
  375SOL     hw 1499   0.726   0.186   2.799 -1.2198 -0.9589  1.2117
  375SOL     vw 1500   0.778   0.233   2.851 -0.0054  0.1715 -0.8738
  376SOL     ow 1501   4.410   3.125   6.307  0.4265 -0.3983  0.0128
  376SOL     hw 1502   4.499   3.143   6.338  0.3116 -0.6908  0.5409
  376SOL     hw 1503   4.376   3.210   6.279 -0.0848  0.2435  2.3584
  376SOL     vw 1504   4.417   3.138   6.308  0.3436 -0.3524  0.3917
  377SOL     ow 1505   4.659   0.360   2.219  0.3356 -0.0429  0.4333
  377SOL     hw 1506   4.694   0.346   2.307 -0.2067 -0.3373  0.6035
  377SOL     hw 1507   4.678   0.452   2.200 -2.5741  1.0658  2.2474
  377SOL     vw 1508   4.666   0.370   2.228 -0.1197  0.0645  0.6952
  378SOL     ow 1509   4.834   2.132   4.765 -0.0861 -0.3339 -0.2396
  378SOL     hw 1510   4.791   2.174   4.691 -0.9663  1.3619  1.1445
  378SOL     hw 1511   4.920   2.106   4.732 -0.4585  0.3872 -1.8499
  378SOL     vw 1512   4.840   2.134   4.751 -0.2515 -0.0150 -0.2692
  379SOL     ow 1513   0.344   5.978   3.846 -0.7109 -0.0920  0.4243
  379SOL     hw 1514   0.393   5.915   3.899 -0.1044  0.6083  0.7072
  379SOL     hw 1515   0.257   5.979   3.885 -1.5110 -2.5229 -1.0380
  379SOL     vw 1516   0.339   5.970   3.858 -0.7364 -0.3202  0.2687
  380SOL     ow 1517   5.971   0.577   6.150  0.1504 -0.4878  0.4446
  380SOL     hw 1518   5.875   0.575   6.141  0.2047 -2.4397 -0.2214
  380SOL     hw 1519   5.999   0.653   6.099 -1.0313  0.1514  0.7001
  380SOL     vw 1520   5.962   0.587   6.142  0.0017 -0.6610  0.3905
  381SOL     ow 1521   6.262   0.771   0.563 -0.1478  0.2743  0.5351
  381SOL     hw 1522   6.353   0.777   0.593 -0.4046  1.8257  1.1013
  381SOL     hw 1523   6.268   0.749   0.471  0.7644 -0.8758  0.8488
  381SOL     vw 1524   6.275   0.769   0.555 -0.0613  0.3272  0.6512
  382SOL     ow 1525   3.342   4.487   6.343 -0.2133  0.1905  0.1538
  382SOL     hw 1526   3.436   4.505   6.353  0.3147 -1.3006 -1.4883
  382SOL     hw 1527   3.311   4.472   6.432  0.9342  1.4117  0.7967
  382SOL     vw 1528   3.351   4.487   6.356  0.0079  0.1550  0.0222
  383SOL     ow 1529   3.835   0.960   3.253 -0.3648  0.3304  0.6695
  383SOL     hw 1530   3.885   0.884   3.285  0.6528  1.3366  1.5901
  383SOL     hw 1531   3.794   0.995   3.332  1.5252  2.3931  0.8287
  383SOL     vw 1532   3.836   0.954   3.268  0.0188  0.7353  0.8119
  384SOL     ow 1533   0.852   2.037   1.574 -0.5224  0.7615  0.1235
  384SOL     hw 1534   0.947   2.028   1.579 -0.6067  0.1680  1.0185
  384SOL     hw 1535   0.836   2.131   1.579  0.0073  0.8435  0.3159
  384SOL     vw 1536   0.863   2.048   1.575 -0.4637  0.6940  0.2670
  385SOL     ow 1537   5.417   4.705   1.202 -0.4217 -0.4926 -0.1655
  385SOL     hw 1538   5.453   4.794   1.197 -3.9875  1.1395 -0.4129
  385SOL     hw 1539   5.430   4.669   1.114 -0.0789  0.2806 -0.4445
  385SOL     vw 1540   5.423   4.712   1.190 -0.8469 -0.1755 -0.2350
  386SOL     ow 1541   1.402   4.262   6.706 -1.1657  0.3027 -0.2117
  386SOL     hw 1542   1.360   4.210   6.637 -1.5088 -2.1361  1.6637
  386SOL     hw 1543   1.413   4.349   6.668 -0.5207 -1.1184 -3.6037
  386SOL     vw 1544   1.398   4.266   6.692 -1.1259 -0.2062 -0.4117
  387SOL     ow 1545   1.900   2.197   6.695  0.5736  0.0700  0.2588
  387SOL     hw 1546   1.808   2.218   6.710  0.7271  1.1552 -0.2112
  387SOL     hw 1547   1.924   2.141   6.769  0.1597  1.7353  1.7217
  387SOL     vw 1548   1.891   2.192   6.707  0.5393  0.4330  0.3898
  388SOL     ow 1549   4.107   2.603   0.468  0.0569  0.7258 -0.0917
  388SOL     hw 1550   4.016   2.636   0.468 -0.5115 -0.7651 -0.8896
  388SOL     hw 1551   4.128   2.593   0.375  0.0455 -1.5179  0.1121
  388SOL     vw 1552   4.098   2.606   0.456 -0.0196  0.2331 -0.1701
  389SOL     ow 1553   1.940   4.237   5.629 -0.5927  0.1045  0.7455
  389SOL     hw 1554   1.926   4.325   5.664  1.2129  0.7723 -0.0864
  389SOL     hw 1555   1.969   4.251   5.539  2.3158 -1.1504  1.3778
  389SOL     vw 1556   1.942   4.251   5.622  0.0293  0.0269  0.7191
  390SOL     ow 1557   0.028   2.395   3.515 -0.2458  1.0252  0.4169
  390SOL     hw 1558   0.069   2.436   3.592 -1.8293  4.2686 -0.3262
  390SOL     hw 1559  -0.064   2.388   3.538 -0.6300  1.4379 -0.9186
  390SOL     vw 1560   0.021   2.400   3.529 -0.5055  1.5076  0.1426
  391SOL     ow 1561   0.783   0.429   1.688  0.4995  0.0899 -0.1040
  391SOL     hw 1562   0.827   0.447   1.771  1.3946  3.4880 -1.1446
  391SOL     hw 1563   0.692   0.456   1.702 -0.4143 -3.1319  0.8483
  391SOL     vw 1564   0.777   0.435   1.700  0.4971  0.1131 -0.1156
  392SOL     ow 1565   3.480   1.681   3.091 -0.1664  0.4112 -0.2578
  392SOL     hw 1566   3.547   1.699   3.157 -0.6584  0.2688  0.2908
  392SOL     hw 1567   3.490   1.751   3.027 -2.9686  3.6725  2.5075
  392SOL     vw 1568   3.490   1.693   3.091 -0.6011  0.8227  0.1795
  393SOL     ow 1569   6.696   3.109   6.797 -0.2618  0.0171 -0.0415
  393SOL     hw 1570   6.602   3.127   6.809 -0.2586  1.0690 -1.3875
  393SOL     hw 1571   6.705   3.016   6.818 -1.3467  0.2087  1.4747
  393SOL     vw 1572   6.684   3.099   6.802 -0.4041  0.1812 -0.0193
  394SOL     ow 1573   2.044   5.520   2.973 -0.0720 -0.3091  0.0868
  394SOL     hw 1574   2.066   5.563   2.890 -1.8836  0.3431 -0.1021
  394SOL     hw 1575   1.959   5.556   2.996  0.6207 -0.0548  2.5414
  394SOL     vw 1576   2.036   5.531   2.965 -0.2196 -0.1893  0.3856
  395SOL     ow 1577   2.575   0.248   4.617 -0.6132  0.4197  0.4272
  395SOL     hw 1578   2.668   0.254   4.595 -0.8600 -0.8087 -1.1644
  395SOL     hw 1579   2.570   0.277   4.708  1.5126 -0.6153  0.9398
  395SOL     vw 1580   2.587   0.252   4.626 -0.3653  0.1211  0.2847
  396SOL     ow 1581   1.140   2.200   6.709 -0.7819 -0.7227  0.1344
  396SOL     hw 1582   1.216   2.243   6.747  0.5251 -2.3851 -0.5070
  396SOL     hw 1583   1.149   2.213   6.615 -1.7754 -0.2032  0.0917
  396SOL     vw 1584   1.151   2.208   6.702 -0.7405 -0.8734  0.0441
  397SOL     ow 1585   4.118   1.880   0.228  0.0518  0.0215 -0.1482
  397SOL     hw 1586   4.044   1.881   0.288  1.5303  0.1435  1.7553
  397SOL     hw 1587   4.103   1.954   0.169 -0.7440  0.7596  0.9547
  397SOL     vw 1588   4.107   1.890   0.228  0.1419  0.1350  0.2485
  398SOL     ow 1589   2.088   0.669   2.823 -0.5278  0.0427  0.4613
  398SOL     hw 1590   2.178   0.693   2.844 -0.8237  0.7318  0.9643
  398SOL     hw 1591   2.078   0.581   2.860 -0.3901  0.3900  1.3374
  398SOL     vw 1592   2.099   0.660   2.831 -0.5487  0.1794  0.6434
  399SOL     ow 1593   3.904   3.143   5.273  0.0138 -0.2271 -0.1275
  399SOL     hw 1594   3.968   3.151   5.202  1.6145  0.6370  1.3214
  399SOL     hw 1595   3.822   3.172   5.235  1.2992  2.5498 -1.0608
  399SOL     vw 1596   3.902   3.148   5.259  0.3947  0.2531 -0.0594
  400SOL     ow 1597   6.285   1.237   1.692 -1.0898 -0.0394 -0.5413
  400SOL     hw 1598   6.213   1.217   1.751 -0.3453 -0.1411  0.3574
  400SOL     hw 1599   6.338   1.157   1.690 -0.0849  0.5796  0.1694
  400SOL     vw 1600   6.283   1.224   1.699 -0.8590  0.0288 -0.3290
  401SOL     ow 1601   2.016   3.411   4.995 -0.6998  0.1198  0.0803
  401SOL     hw 1602   1.976   3.477   4.938  0.1559  1.7520  1.2779
  401SOL     hw 1603   2.107   3.439   5.004  0.1205 -2.1332 -0.6075
  401SOL     vw 1604   2.023   3.424   4.989 -0.4786  0.0378  0.1473
  402SOL     ow 1605   4.356   4.767   1.166  0.5386  0.0972  0.1953
  402SOL     hw 1606   4.415   4.744   1.095  0.5356  0.1811  0.1659
  402SOL     hw 1607   4.379   4.706   1.237 -1.6622 -2.2773 -0.9513
  402SOL     vw 1608   4.367   4.756   1.166  0.2477 -0.2053  0.0402
  403SOL     ow 1609   3.267   1.833   1.741  0.4612  0.3489 -0.4884
  403SOL     hw 1610   3.309   1.786   1.812 -0.0228 -1.8058 -1.5502
  403SOL     hw 1611   3.333   1.837   1.672  0.2275  0.5439 -0.7040
  403SOL     vw 1612   3.281   1.828   1.741  0.3664  0.0904 -0.6570
  404SOL     ow 1613   5.215   2.427   0.177  0.1725  0.5641 -0.1635
  404SOL     hw 1614   5.123   2.436   0.153 -1.2342 -2.7631  3.1512
  404SOL     hw 1615   5.260   2.410   0.094 -2.3956  0.8155 -1.7041
  404SOL     vw 1616   5.209   2.426   0.163 -0.3519  0.1581  0.0706
  405SOL     ow 1617   5.667   5.622   2.443  0.8807 -0.2687 -0.6196
  405SOL     hw 1618   5.583   5.576   2.442  0.5076  0.3772  0.0953
  405SOL     hw 1619   5.678   5.653   2.353  0.9992 -1.4804 -1.0416
  405SOL     vw 1620   5.658   5.620   2.431  0.8473 -0.3436 -0.5809
  406SOL     ow 1621   5.707   2.377   4.219 -0.0802 -0.1481 -0.0262
  406SOL     hw 1622   5.714   2.283   4.234 -0.6764 -0.3554 -0.9484
  406SOL     hw 1623   5.633   2.386   4.159  0.4963  0.8415 -0.6169
  406SOL     vw 1624   5.698   2.366   4.213 -0.0827 -0.0448 -0.2260
  407SOL     ow 1625   4.781   3.342   4.955 -0.4310  0.4565  0.1934
  407SOL     hw 1626   4.848   3.290   4.910 -1.1021 -0.6739  0.4716
  407SOL     hw 1627   4.731   3.383   4.884  0.9394  1.8822 -0.0190
  407SOL     vw 1628   4.784   3.341   4.940 -0.3390  0.4954  0.2019
  408SOL     ow 1629   5.764   1.032   2.299  0.2923 -0.1978 -0.0903
  408SOL     hw 1630   5.788   0.954   2.249  1.0165 -0.0840  0.0755
  408SOL     hw 1631   5.827   1.099   2.273  0.6927 -0.1365  0.9584
  408SOL     vw 1632   5.775   1.030   2.289  0.4408 -0.1747  0.0700
  409SOL     ow 1633   6.503   6.793   5.715 -0.4011  0.6001  0.1943
  409SOL     hw 1634   6.489   6.881   5.750 -2.2756  1.3285 -2.1124
  409SOL     hw 1635   6.418   6.768   5.679  1.3136  0.2230 -4.2551
  409SOL     vw 1636   6.490   6.802   5.715 -0.4225  0.6466 -0.6971
  410SOL     ow 1637   4.834   0.921   4.698 -0.0606 -0.0230  0.4341
  410SOL     hw 1638   4.924   0.887   4.702  0.2861  0.9754  2.2015
  410SOL     hw 1639   4.779   0.843   4.706  0.4855 -0.9989 -3.2347
  410SOL     vw 1640   4.839   0.906   4.699  0.0572 -0.0201  0.1831
  411SOL     ow 1641   5.800   6.524   6.171  0.0281  0.2152  0.0000
  411SOL     hw 1642   5.705   6.535   6.182 -0.3352  1.4238 -3.2783
  411SOL     hw 1643   5.838   6.598   6.218 -0.4915 -0.8357  2.2155
  411SOL     vw 1644   5.792   6.535   6.179 -0.0882  0.2360 -0.1400
  412SOL     ow 1645   6.805   1.131   0.572 -0.2096  0.8532 -0.2382
  412SOL     hw 1646   6.826   1.069   0.641 -1.5662 -0.4246 -0.9293
  412SOL     hw 1647   6.872   1.200   0.580  0.5961 -0.0689  1.3037
  412SOL     vw 1648   6.817   1.132   0.582 -0.2823  0.5630 -0.1260
  413SOL     ow 1649   4.505   3.156   2.764  0.1358  0.4237  0.1596
  413SOL     hw 1650   4.420   3.121   2.738 -0.2749  2.2650 -1.1123
  413SOL     hw 1651   4.491   3.189   2.853 -0.2383 -0.0180  0.2702
  413SOL     vw 1652   4.492   3.155   2.773  0.0322  0.6084  0.0064
  414SOL     ow 1653   1.381   2.675   2.712 -0.0445  0.4272 -0.0841
  414SOL     hw 1654   1.357   2.691   2.621 -2.0313  0.0089  0.3204
  414SOL     hw 1655   1.446   2.743   2.732  0.6641  0.3226 -1.8829
  414SOL     vw 1656   1.387   2.686   2.703 -0.2130  0.3582 -0.2680
  415SOL     ow 1657   4.969   3.813   1.784 -0.1370  0.0669 -0.3257
  415SOL     hw 1658   5.007   3.728   1.762 -0.4560  0.7646 -4.3146
  415SOL     hw 1659   4.892   3.820   1.727 -0.6062  2.6863  0.5166
  415SOL     vw 1660   4.964   3.803   1.774 -0.2410  0.5046 -0.7408
  416SOL     ow 1661   4.686   0.669   0.516 -0.0350 -0.5145  0.3440
  416SOL     hw 1662   4.698   0.734   0.446  0.8148 -2.0612 -1.0003
  416SOL     hw 1663   4.625   0.712   0.577  0.9482  1.7734 -0.1636
  416SOL     vw 1664   4.679   0.683   0.514  0.2067 -0.4167  0.0997
  417SOL     ow 1665   2.399   3.511   1.612  0.4465 -0.2158 -0.2472
  417SOL     hw 1666   2.407   3.417   1.595  0.9036 -0.0548 -0.9394
  417SOL     hw 1667   2.482   3.548   1.583  0.0688  0.4777 -0.4653
  417SOL     vw 1668   2.411   3.504   1.606  0.4569 -0.1031 -0.3673
  418SOL     ow 1669   5.182   1.433   2.386  0.4753  0.2160  0.2666
  418SOL     hw 1670   5.161   1.348   2.424  0.2753 -0.6500 -1.6500
  418SOL     hw 1671   5.127   1.439   2.308  1.9035  1.2170 -0.7189
  418SOL     vw 1672   5.172   1.423   2.381  0.6371  0.2338 -0.1162
  419SOL     ow 1673   5.156   5.791   1.331 -0.3501 -0.0519  0.2387
  419SOL     hw 1674   5.165   5.811   1.237  1.0618 -0.8256  0.1723
  419SOL     hw 1675   5.194   5.866   1.375 -0.8407  0.2286  0.1879
  419SOL     vw 1676   5.162   5.803   1.324 -0.2284 -0.1168  0.2233
  420SOL     ow 1677   6.915   3.994   1.055  0.0347 -0.0663  0.5932
  420SOL     hw 1678   6.876   4.039   0.980 -0.2035 -1.7981 -0.3950
  420SOL     hw 1679   6.936   4.063   1.117 -1.8541  1.2214 -0.1071
  420SOL     vw 1680   6.913   4.009   1.053 -0.2459 -0.1249  0.3703
  421SOL     ow 1681   0.585   3.281   5.600 -0.5400 -0.3160 -0.0377
  421SOL     hw 1682   0.506   3.302   5.649 -0.9280 -0.2407 -0.6816
  421SOL     hw 1683   0.556   3.274   5.509 -0.2124 -2.4957 -0.0200
  421SOL     vw 1684   0.571   3.283   5.595 -0.5480 -0.5937 -0.1202
  422SOL     ow 1685   4.171   3.008   0.127 -0.3484 -0.9808 -0.8444
  422SOL     hw 1686   4.159   3.102   0.122  1.8666 -0.6488 -0.9689
  422SOL     hw 1687   4.200   2.991   0.217 -1.1732 -1.6243 -0.6822
  422SOL     vw 1688   4.174   3.018   0.138 -0.1647 -1.0217 -0.8394
  423SOL     ow 1689   6.196   2.418   0.010  0.2464  0.3135  0.6774
  423SOL     hw 1690   6.154   2.385  -0.070 -2.2936  1.8516  1.2653
  423SOL     hw 1691   6.139   2.388   0.081  1.4659  0.5141  1.7691
  423SOL     vw 1692   6.183   2.409   0.009  0.0722  0.5428  0.8991
  424SOL     ow 1693   1.682   1.482   1.236 -0.3870  0.0941 -0.3238
  424SOL     hw 1694   1.660   1.536   1.161 -2.2216  2.5577  1.7818
  424SOL     hw 1695   1.719   1.544   1.300  0.1689 -1.6766  1.1558
  424SOL     vw 1696   1.684   1.498   1.235 -0.5558  0.1855  0.1492
  425SOL     ow 1697   2.051   0.959   2.701 -0.0291 -0.1597 -0.8464
  425SOL     hw 1698   2.138   0.999   2.709 -0.4696  1.1647 -2.2377
  425SOL     hw 1699   2.037   0.951   2.606 -1.8131  0.5875 -0.6853
  425SOL     vw 1700   2.061   0.963   2.689 -0.3226  0.1136 -1.0087
  426SOL     ow 1701   0.890   1.356   4.355 -0.3832  0.2564 -0.0048
  426SOL     hw 1702   0.927   1.340   4.441  1.1917  0.0741 -0.6768
  426SOL     hw 1703   0.798   1.376   4.371  0.5088  3.4255  2.0316
  426SOL     vw 1704   0.883   1.356   4.368 -0.0578  0.6505  0.1755
  427SOL     ow 1705   2.884   4.373   0.103  0.2404  0.0191 -0.4605
  427SOL     hw 1706   2.928   4.366   0.188  0.8331  0.1718 -0.7525
  427SOL     hw 1707   2.943   4.426   0.049  0.7242 -1.5213 -1.5269
  427SOL     vw 1708   2.897   4.379   0.107  0.3824 -0.1640 -0.6397
  428SOL     ow 1709   6.789   1.194   1.729  0.2180 -0.6541 -0.2206
  428SOL     hw 1710   6.755   1.240   1.806  0.7767  0.3232 -0.5481
  428SOL     hw 1711   6.817   1.263   1.669  1.4896 -1.4069 -0.5436
  428SOL     vw 1712   6.788   1.209   1.731  0.4594 -0.6245 -0.3064
  429SOL     ow 1713   0.834   1.991   4.013  0.1632 -1.2571  0.4895
  429SOL     hw 1714   0.928   2.002   4.026  0.1488  2.0095 -1.1441
  429SOL     hw 1715   0.826   1.946   3.929  0.2786 -1.1848  0.4398
  429SOL     vw 1716   0.845   1.987   4.003  0.1765 -0.8166  0.2675
  430SOL     ow 1717   4.924   1.573   3.859 -1.0390 -0.6387 -0.5862
  430SOL     hw 1718   4.911   1.646   3.799 -2.2669  0.1604  0.5811
  430SOL     hw 1719   5.016   1.551   3.851 -1.0687 -0.2473 -2.3788
  430SOL     vw 1720   4.934   1.579   3.850 -1.2052 -0.4816 -0.6686
  431SOL     ow 1721   5.291   2.982   6.780 -0.2068  0.1527  0.1579
  431SOL     hw 1722   5.258   2.921   6.714  1.6610 -0.0680 -0.6212
  431SOL     hw 1723   5.371   3.018   6.742 -0.7325  2.3767  1.0240
  431SOL     vw 1724   5.297   2.979   6.766 -0.0298  0.4170  0.1693
  432SOL     ow 1725   1.375   2.079   6.324  0.1702 -0.2100 -0.4039
  432SOL     hw 1726   1.303   2.051   6.380  0.4414  0.7308  0.4540
  432SOL     hw 1727   1.391   2.170   6.350 -0.6305  0.7669 -2.9749
  432SOL     vw 1728   1.368   2.087   6.335  0.1004  0.0430 -0.6299
  433SOL     ow 1729   3.806   0.195   1.474  0.2598  0.1003  0.0341
  433SOL     hw 1730   3.726   0.144   1.463 -0.3481  1.3946 -2.4221
  433SOL     hw 1731   3.873   0.131   1.499 -1.4321 -1.0559  1.7882
  433SOL     vw 1732   3.805   0.180   1.476 -0.0435  0.1185 -0.0585
  434SOL     ow 1733   3.605   2.469   0.254  0.1535  0.8546 -0.4370
  434SOL     hw 1734   3.592   2.492   0.162 -2.5720 -0.2378 -0.3974
  434SOL     hw 1735   3.606   2.554   0.299 -2.3216  1.3074 -1.0977
  434SOL     vw 1736   3.604   2.483   0.248 -0.5327  0.7701 -0.5190
  435SOL     ow 1737   3.281   3.615   3.900 -0.2174 -0.2840 -1.0684
  435SOL     hw 1738   3.328   3.610   3.817  1.0555 -0.3117 -0.3768
  435SOL     hw 1739   3.275   3.524   3.929  1.3635 -0.1286 -0.0873
  435SOL     vw 1740   3.287   3.602   3.893  0.1591 -0.2671 -0.8478
  436SOL     ow 1741   5.855   2.761   3.090 -0.0966 -0.5585 -0.2151
  436SOL     hw 1742   5.833   2.765   3.183 -1.4595  0.5945 -0.5553
  436SOL     hw 1743   5.793   2.698   3.053 -3.6450  3.1135 -1.2783
  436SOL     vw 1744   5.844   2.753   3.098 -0.7446  0.0781 -0.4002
  437SOL     ow 1745   0.139   6.045   4.960 -0.1245 -0.3615  0.2606
  437SOL     hw 1746   0.118   5.969   4.906  0.5269 -1.3649  1.3651
  437SOL     hw 1747   0.075   6.043   5.031 -0.8588  0.8362 -0.3324
  437SOL     vw 1748   0.128   6.035   4.962 -0.1354 -0.3362  0.3281
  438SOL     ow 1749   3.768   4.033   6.617  0.1685  0.1140  0.2284
  438SOL     hw 1750   3.805   4.121   6.606  1.1350 -0.5048 -1.9131
  438SOL     hw 1751   3.836   3.985   6.664 -0.6609  0.6576  2.0582
  438SOL     vw 1752   3.782   4.038   6.622  0.1867  0.1040  0.1874
  439SOL     ow 1753   3.888   3.985   5.243  0.5167  0.1943 -0.3194
  439SOL     hw 1754   3.941   3.955   5.169 -0.2812 -2.9633  0.2624
  439SOL     hw 1755   3.942   3.967   5.320 -0.2637 -0.4268  0.0973
  439SOL     vw 1756   3.902   3.979   5.243  0.3084 -0.3042 -0.1876
  440SOL     ow 1757   6.864   0.997   6.544  0.0213  0.4101 -0.1844
  440SOL     hw 1758   6.858   1.031   6.454  0.2577  1.6192  0.2433
  440SOL     hw 1759   6.810   1.057   6.596  0.3951  0.0861  0.5909
  440SOL     vw 1760   6.856   1.009   6.539  0.1018  0.5268 -0.0255
  441SOL     ow 1761   0.739   3.937   4.228  0.3172 -0.5774 -0.0080
  441SOL     hw 1762   0.664   3.951   4.286  0.2822  0.4378 -0.2758
  441SOL     hw 1763   0.814   3.969   4.278  0.4750 -0.9229 -0.0203
  441SOL     vw 1764   0.739   3.943   4.242  0.3334 -0.4890 -0.0451
  442SOL     ow 1765   2.457   5.388   1.804  0.2335  0.0214  0.5285
  442SOL     hw 1766   2.399   5.398   1.729  1.3373 -1.6459 -0.6154
  442SOL     hw 1767   2.493   5.476   1.818  0.3081  0.3031 -1.1677
  442SOL     vw 1768   2.454   5.401   1.796  0.3889 -0.1614  0.1537
  443SOL     ow 1769   1.542   2.280   2.287  0.1486  0.0183 -0.5410
  443SOL     hw 1770   1.452   2.290   2.318  0.1907  1.1302 -0.7082
  443SOL     hw 1771   1.552   2.350   2.222  0.1049 -2.0995 -2.9901
  443SOL     vw 1772   1.531   2.291   2.283  0.1483 -0.1143 -0.8861
  444SOL     ow 1773   4.139   3.951   0.718 -0.1442  0.3330  0.1193
  444SOL     hw 1774   4.118   3.904   0.799  1.3068 -1.8266 -0.6646
  444SOL     hw 1775   4.207   3.898   0.676 -0.1590  1.8931 -2.0648
  444SOL     vw 1776   4.145   3.938   0.723  0.0453  0.2538 -0.2723
  445SOL     ow 1777   4.901   5.533   2.018  0.4167 -0.3025 -0.7105
  445SOL     hw 1778   4.995   5.546   2.016  0.3965  0.2235  0.5647
  445SOL     hw 1779   4.868   5.578   1.940  1.1376  0.3657 -0.6412
  445SOL     vw 1780   4.909   5.541   2.007  0.5093 -0.1450 -0.5330
  446SOL     ow 1781   4.286   1.407   3.623 -0.2780  0.0768 -0.3434
  446SOL     hw 1782   4.260   1.336   3.682  2.9505 -0.2336  0.9274
  446SOL     hw 1783   4.271   1.487   3.674  1.6561 -0.1366  0.6309
  446SOL     vw 1784   4.280   1.408   3.637  0.4029  0.0077 -0.0471
  447SOL     ow 1785   1.754   6.806   3.095  0.4855  0.1562  0.3201
  447SOL     hw 1786   1.849   6.820   3.100  0.7024 -1.3027  0.9060
  447SOL     hw 1787   1.744   6.740   3.026 -0.1565  0.6601 -0.0768
  447SOL     vw 1788   1.766   6.799   3.086  0.4294  0.0298  0.3451
  448SOL     ow 1789   1.923   1.367   5.386  0.2127 -0.0478  0.3196
  448SOL     hw 1790   1.957   1.330   5.304  0.8469 -1.4279  1.1777
  448SOL     hw 1791   1.851   1.309   5.410 -0.4956  0.8177  0.3565
  448SOL     vw 1792   1.918   1.355   5.378  0.2029 -0.1156  0.4375
  449SOL     ow 1793   6.691   3.873   3.040 -0.1880 -0.0383 -0.1480
  449SOL     hw 1794   6.707   3.933   3.113  0.0506 -0.7687  0.4059
  449SOL     hw 1795   6.645   3.927   2.975  0.7414  0.9658 -0.0041
  449SOL     vw 1796   6.687   3.888   3.041 -0.0336 -0.0021 -0.0559
  450SOL     ow 1797   2.829   3.580   5.524  0.3089  0.8472  0.3390
  450SOL     hw 1798   2.800   3.628   5.602  1.3730 -0.4946  1.6290
  450SOL     hw 1799   2.917   3.613   5.507  1.7765 -1.7034  2.3022
  450SOL     vw 1800   2.837   3.591   5.532  0.6429  0.3337  0.7682
  451SOL     ow 1801   6.115   4.499   3.649  0.1368  0.0747 -0.1213
  451SOL     hw 1802   6.132   4.432   3.582 -0.4073  1.2338 -1.4601
  451SOL     hw 1803   6.033   4.540   3.621 -3.0032 -2.6097  3.8880
  451SOL     vw 1804   6.107   4.495   3.637 -0.3495 -0.1266  0.2311
  452SOL     ow 1805   4.051   3.347   1.488  0.1406  0.2716 -0.3399
  452SOL     hw 1806   4.004   3.333   1.570  0.4654  3.3584  0.5139
  452SOL     hw 1807   4.070   3.441   1.488  3.2958 -0.2523 -2.2853
  452SOL     vw 1808   4.047   3.358   1.499  0.5999  0.6096 -0.4840
  453SOL     ow 1809   2.229   2.192   1.826  0.0223  0.2968 -0.4395
  453SOL     hw 1810   2.184   2.202   1.742  1.1320  2.0160 -0.8832
  453SOL     hw 1811   2.315   2.156   1.804  0.8524  2.0443 -0.2600
  453SOL     vw 1812   2.234   2.189   1.812  0.2782  0.7542 -0.4744
  454SOL     ow 1813   6.898   6.088   6.104 -0.6177 -0.3280 -0.2149
  454SOL     hw 1814   6.916   6.176   6.139  0.4756 -0.5753 -0.1205
  454SOL     hw 1815   6.806   6.073   6.124  0.3889 -1.4527  4.9527
  454SOL     vw 1816   6.889   6.098   6.111 -0.3407 -0.5088  0.4792
  455SOL     ow 1817   0.044   1.671   5.500 -0.1223  0.3309  0.5800
  455SOL     hw 1818   0.019   1.660   5.591 -3.4760  1.3238 -0.0688
  455SOL     hw 1819  -0.006   1.747   5.470  1.5513  0.5984 -1.8695
  455SOL     vw 1820   0.034   1.679   5.508 -0.3439  0.4972  0.1712
  456SOL     ow 1821   3.228   5.551   4.286  1.3411  0.3572 -0.0625
  456SOL     hw 1822   3.153   5.608   4.301  0.5684 -0.4750 -0.6876
  456SOL     hw 1823   3.298   5.611   4.260  0.4679  1.0140 -0.9915
  456SOL     vw 1824   3.228   5.567   4.284  1.1240  0.3340 -0.2677
  457SOL     ow 1825   3.945   6.213   0.298 -0.0799 -0.4176 -0.0447
  457SOL     hw 1826   3.985   6.202   0.212  0.1340  1.3224 -0.2022
  457SOL     hw 1827   3.879   6.281   0.285  0.0002 -0.0832  1.1774
  457SOL     vw 1828   3.942   6.220   0.285 -0.0410 -0.1438  0.0958
  458SOL     ow 1829   4.354   1.610   3.385 -0.2598  0.6276 -0.2020
  458SOL     hw 1830   4.269   1.637   3.421  0.3234  0.8031  1.0880
  458SOL     hw 1831   4.418   1.663   3.432  0.6636 -0.4606 -0.1832
  458SOL     vw 1832   4.351   1.621   3.396 -0.0615  0.5072 -0.0293
  459SOL     ow 1833   0.596   0.147   4.176  0.4483  0.4613  0.0206
  459SOL     hw 1834   0.510   0.168   4.140 -0.6124  0.2643  2.2563
  459SOL     hw 1835   0.657   0.195   4.121 -1.0858  0.6982 -1.5725
  459SOL     vw 1836   0.592   0.156   4.164  0.1059  0.4665  0.1051
  460SOL     ow 1837   3.325   2.161   0.947 -0.4249 -0.4913 -0.2430
  460SOL     hw 1838   3.348   2.220   1.019 -2.5541  1.3755 -0.9797
  460SOL     hw 1839   3.407   2.117   0.926  0.5737 -0.0923  2.3818
  460SOL     vw 1840   3.339   2.163   0.954 -0.5741 -0.1923  0.0061
  461SOL     ow 1841   2.444   0.464   1.665  0.3931 -0.7037 -0.2987
  461SOL     hw 1842   2.472   0.372   1.664 -0.9565 -1.1939 -3.0792
  461SOL     hw 1843   2.350   0.461   1.650  0.5970  1.1341 -2.5087
  461SOL     vw 1844   2.435   0.451   1.663  0.2420 -0.5259 -0.9571
  462SOL     ow 1845   0.888   4.085   5.399  0.4376 -0.9713 -0.0895
  462SOL     hw 1846   0.948   4.152   5.367  1.0027 -0.4712  1.8935
  462SOL     hw 1847   0.911   4.006   5.350  1.7358 -0.4322 -0.3764
  462SOL     vw 1848   0.899   4.083   5.388  0.6835 -0.8340  0.1342
  463SOL     ow 1849   2.754   5.026   2.764  0.1577 -0.2753 -0.2648
  463SOL     hw 1850   2.734   5.030   2.670 -0.2980  1.5694 -0.1261
  463SOL     hw 1851   2.848   5.046   2.769  0.3958 -1.3229 -0.3788
  463SOL     vw 1852   2.764   5.029   2.752  0.1290 -0.1700 -0.2615
  464SOL     ow 1853   0.909   3.292   4.732  0.3248  0.0559  1.2948
  464SOL     hw 1854   0.948   3.283   4.645 -1.9327 -1.7717  0.3683
  464SOL     hw 1855   0.833   3.348   4.717  0.6839  0.8775  2.4182
  464SOL     vw 1856   0.904   3.298   4.718  0.0743 -0.0769  1.3208
  465SOL     ow 1857   6.647   6.432   2.666 -0.4333  0.4869 -0.5179
  465SOL     hw 1858   6.636   6.410   2.758  0.8152 -1.0724 -0.6992
  465SOL     hw 1859   6.726   6.487   2.664 -0.7457  0.9384 -0.6131
  465SOL     vw 1860   6.656   6.437   2.678 -0.3097  0.3409 -0.5544
  466SOL     ow 1861   0.514   0.899   6.361 -0.0414 -0.2739 -0.3646
  466SOL     hw 1862   0.578   0.913   6.292 -0.9614 -0.7206 -1.3471
  466SOL     hw 1863   0.565   0.869   6.436  0.8163 -1.4292 -1.3738
  466SOL     vw 1864   0.529   0.897   6.361 -0.0497 -0.4853 -0.6275
  467SOL     ow 1865   6.902   5.564   1.331  0.2460 -0.0729  0.7129
  467SOL     hw 1866   6.842   5.630   1.294  2.0133  0.2950 -1.8012
  467SOL     hw 1867   6.848   5.488   1.347 -1.0350  0.4700 -0.8258
  467SOL     vw 1868   6.887   5.563   1.328  0.3099  0.0472  0.1782
  468SOL     ow 1869   1.747   6.655   2.324 -0.2239  0.9422 -0.0409
  468SOL     hw 1870   1.815   6.602   2.283  2.2291  2.6751  1.5360
  468SOL     hw 1871   1.754   6.636   2.417 -4.0317 -1.0706  0.0606
  468SOL     vw 1872   1.757   6.646   2.331 -0.4026  0.9055  0.1807
  469SOL     ow 1873   5.027   1.933   3.547  0.6879 -0.2868 -0.4617
  469SOL     hw 1874   5.096   1.998   3.564 -1.5565  2.3034 -0.6826
  469SOL     hw 1875   5.007   1.944   3.454 -1.2956  0.4059  0.0099
  469SOL     vw 1876   5.034   1.943   3.537  0.1304  0.1464 -0.4284
  470SOL     ow 1877   2.166   4.446   1.522  0.6692  0.3036  0.3200
  470SOL     hw 1878   2.099   4.509   1.496  0.7674  0.4575  0.4379
  470SOL     hw 1879   2.193   4.474   1.610  1.1823  0.4885  0.1050
  470SOL     vw 1880   2.161   4.458   1.530  0.7499  0.3481  0.3072
  471SOL     ow 1881   0.704   2.066   1.842 -0.9754  0.4994 -0.5723
  471SOL     hw 1882   0.730   2.051   1.932  0.1655 -0.6504 -1.0631
  471SOL     hw 1883   0.685   2.160   1.838 -2.4600  0.3352  1.1779
  471SOL     vw 1884   0.705   2.077   1.853 -1.0208  0.3259 -0.4061
  472SOL     ow 1885   5.437   4.654   1.520  0.0017 -0.6134 -0.6100
  472SOL     hw 1886   5.419   4.714   1.592  3.9429  0.2473 -0.1469
  472SOL     hw 1887   5.532   4.655   1.511  0.0224 -4.4968 -2.6290
  472SOL     vw 1888   5.447   4.662   1.528  0.5243 -1.0121 -0.8153
  473SOL     ow 1889   4.983   2.535   4.415 -0.4191 -0.3402 -0.5363
  473SOL     hw 1890   4.901   2.488   4.404 -0.6495 -0.1725  0.3377
  473SOL     hw 1891   4.957   2.621   4.446  0.1146 -0.6464  0.8433
  473SOL     vw 1892   4.969   2.540   4.418 -0.3793 -0.3586 -0.2389
  474SOL     ow 1893   0.139   0.978   2.740 -0.4066  0.2383 -0.5352
  474SOL     hw 1894   0.136   0.971   2.835 -0.4177 -0.7426 -0.5995
  474SOL     hw 1895   0.216   1.032   2.722 -0.8365  1.0633  0.0502
  474SOL     vw 1896   0.149   0.984   2.750 -0.4648  0.2177 -0.4665
  475SOL     ow 1897   1.588   5.302   1.059 -0.3252 -0.8783 -0.4610
  475SOL     hw 1898   1.651   5.305   1.131  1.3606  0.4832 -1.8872
  475SOL     hw 1899   1.598   5.215   1.022  2.6005  0.0061 -2.1191
  475SOL     vw 1900   1.598   5.291   1.063  0.2832 -0.5822 -0.8679
  476SOL     ow 1901   5.235   4.871   4.495  0.3419  0.3655  0.4193
  476SOL     hw 1902   5.289   4.854   4.572  0.9333  1.2906  0.2202
  476SOL     hw 1903   5.213   4.964   4.501 -1.0210  0.0654  0.3492
  476SOL     vw 1904   5.239   4.881   4.506  0.2406  0.4480  0.3839
  477SOL     ow 1905   3.914   1.162   3.824 -0.1006  0.6120  0.6094
  477SOL     hw 1906   4.007   1.153   3.803  0.3706  0.0544  2.7118
  477SOL     hw 1907   3.902   1.256   3.838  0.3992  0.5624  1.3818
  477SOL     vw 1908   3.924   1.174   3.823  0.0275  0.5319  0.9887
  478SOL     ow 1909   5.893   1.959   3.159  0.4894  0.8141  0.4130
  478SOL     hw 1910   5.923   2.048   3.137  3.0367 -0.4650 -1.8270
  478SOL     hw 1911   5.973   1.912   3.182 -0.4416 -1.4729 -0.7285
  478SOL     vw 1912   5.907   1.965   3.159  0.7026  0.3436 -0.0331
  479SOL     ow 1913   1.670   6.226   3.445 -0.0672 -0.4501  0.3651
  479SOL     hw 1914   1.761   6.256   3.448  0.2238 -0.7080 -2.8963
  479SOL     hw 1915   1.675   6.135   3.419 -1.2597 -0.4097 -0.0940
  479SOL     vw 1916   1.682   6.218   3.442 -0.1861 -0.4790 -0.1258
  480SOL     ow 1917   2.270   3.841   0.947 -0.0983 -0.1526 -0.3268
  480SOL     hw 1918   2.227   3.886   1.020 -1.6801 -0.5028 -0.9952
  480SOL     hw 1919   2.210   3.851   0.873  0.1164 -2.1986 -0.8493
  480SOL     vw 1920   2.257   3.849   0.947 -0.2787 -0.4687 -0.4839
  481SOL     ow 1921   1.223   3.108   1.709 -0.6472  0.0500 -0.2488
  481SOL     hw 1922   1.291   3.136   1.648 -1.2534 -1.7638 -1.8641
  481SOL     hw 1923   1.231   3.013   1.713 -1.2102  0.0242  1.8744
  481SOL     vw 1924   1.233   3.099   1.702 -0.8014 -0.1929 -0.1819
  482SOL     ow 1925   4.099   4.741   1.288 -0.0102  1.0618  0.0482
  482SOL     hw 1926   4.063   4.758   1.374  1.7304 -0.0062  1.0556
  482SOL     hw 1927   4.130   4.651   1.292  1.1739  1.3600 -1.2922
  482SOL     vw 1928   4.098   4.731   1.300  0.3755  0.9601  0.0042
  483SOL     ow 1929   4.693   2.096   1.724 -0.8408 -0.0633  0.4342
  483SOL     hw 1930   4.724   2.177   1.684 -0.1947 -0.9124 -0.8503
  483SOL     hw 1931   4.727   2.099   1.813 -0.4714  0.8911  0.2752
  483SOL     vw 1932   4.702   2.107   1.730 -0.7069 -0.0494  0.2437
  484SOL     ow 1933   3.079   4.146   0.056 -0.1975 -0.5245 -0.8526
  484SOL     hw 1934   3.111   4.179  -0.028 -0.7965 -2.6210 -1.9675
  484SOL     hw 1935   3.159   4.131   0.107  0.2710 -0.4903 -1.5522
  484SOL     vw 1936   3.094   4.149   0.052 -0.2147 -0.7968 -1.0920
  485SOL     ow 1937   0.372   5.775   2.675 -0.2068  0.1171  0.3508
  485SOL     hw 1938   0.381   5.841   2.607  0.0045 -2.3866 -2.2218
  485SOL     hw 1939   0.278   5.760   2.683 -0.1955 -2.1194 -2.2097
  485SOL     vw 1940   0.361   5.782   2.667 -0.1774 -0.5085 -0.3266
  486SOL     ow 1941   4.944   6.753   2.138 -0.4669  0.4278 -0.4548
  486SOL     hw 1942   5.012   6.818   2.156  0.5322 -0.1250 -2.0352
  486SOL     hw 1943   4.891   6.793   2.068 -0.7799  0.1709 -0.3644
  486SOL     vw 1944   4.946   6.767   2.131 -0.3765  0.3209 -0.6514
  487SOL     ow 1945   6.637   3.675   2.834 -0.6723 -0.0196  0.3038
  487SOL     hw 1946   6.654   3.737   2.763 -1.3650 -0.4337 -0.2281
  487SOL     hw 1947   6.704   3.607   2.822 -2.2798 -1.3811 -1.4796
  487SOL     vw 1948   6.648   3.674   2.823 -0.9758 -0.2539 -0.0017
  488SOL     ow 1949   1.075   3.152   4.538  0.3191  0.7351  0.5919
  488SOL     hw 1950   1.067   3.146   4.443  3.1473 -0.6907  0.3476
  488SOL     hw 1951   1.010   3.090   4.571  1.3357 -1.0517 -0.5915
  488SOL     vw 1952   1.065   3.143   4.530  0.8263  0.3113  0.4036
  489SOL     ow 1953   2.833   5.072   1.171 -0.2088  0.3747  0.2039
  489SOL     hw 1954   2.775   5.036   1.238 -0.0983  0.8096  0.5355
  489SOL     hw 1955   2.833   5.166   1.187  1.6845  0.2764  1.1010
  489SOL     vw 1956   2.825   5.080   1.182  0.0557  0.4189  0.3661
  490SOL     ow 1957   6.522   3.290   2.264 -0.4228  0.3380  0.2685
  490SOL     hw 1958   6.577   3.216   2.239 -0.0453  0.2215  1.3774
  490SOL     hw 1959   6.568   3.367   2.230  0.2478  0.2144  0.8837
  490SOL     vw 1960   6.535   3.290   2.256 -0.2844  0.3064  0.4959
  491SOL     ow 1961   0.128   5.330   1.531  0.0274  0.1398  0.2537
  491SOL     hw 1962   0.127   5.263   1.462 -3.2543  0.0951  0.1699
  491SOL     hw 1963   0.060   5.301   1.593  1.4151  1.2847  2.4579
  491SOL     vw 1964   0.119   5.317   1.530 -0.2225  0.2849  0.5335
  492SOL     ow 1965   3.873   2.352   6.284 -0.0836 -0.3995 -0.5939
  492SOL     hw 1966   3.943   2.416   6.275  0.7535 -1.0968  0.7376
  492SOL     hw 1967   3.798   2.393   6.241  1.5771 -0.4256 -3.8125
  492SOL     vw 1968   3.872   2.365   6.277  0.2459 -0.4950 -0.8428
  493SOL     ow 1969   1.315   6.622   6.111  0.0506  0.0568 -0.1583
  493SOL     hw 1970   1.300   6.641   6.204 -1.3236  2.5923 -0.7972
  493SOL     hw 1971   1.232   6.644   6.069  1.3031  1.0937 -2.2260
  493SOL     vw 1972   1.302   6.628   6.118  0.0346  0.5281 -0.5155
  494SOL     ow 1973   3.577   2.983   0.834 -1.0247 -0.7199  0.0337
  494SOL     hw 1974   3.582   2.939   0.919  2.2409 -0.7760 -0.0774
  494SOL     hw 1975   3.662   2.968   0.794 -1.4424  1.7512 -2.0442
  494SOL     vw 1976   3.589   2.975   0.840 -0.6490 -0.4013 -0.2551
  495SOL     ow 1977   0.981   6.504   5.611  0.2284 -0.2704 -0.2741
  495SOL     hw 1978   0.931   6.543   5.683  0.5689 -1.4050  0.6144
  495SOL     hw 1979   1.073   6.515   5.637  0.4601  1.1706 -1.5599
  495SOL     vw 1980   0.987   6.510   5.624  0.3039 -0.2301 -0.3264
  496SOL     ow 1981   6.919   4.766   3.159 -0.5466  0.5631 -0.6902
  496SOL     hw 1982   6.935   4.860   3.166  1.3570  0.1603  3.3097
  496SOL     hw 1983   6.875   4.743   3.241 -2.0459 -1.9110 -2.0692
  496SOL     vw 1984   6.916   4.775   3.171 -0.4933  0.1833 -0.3444
  497SOL     ow 1985   0.550   2.085   6.226 -0.3129  0.3450 -0.8464
  497SOL     hw 1986   0.597   2.074   6.309 -1.0812  1.9159 -0.1642
  497SOL     hw 1987   0.599   2.154   6.181 -0.4064  0.0957 -1.3329
  497SOL     vw 1988   0.563   2.093   6.231 -0.4266  0.5195 -0.8206
  498SOL     ow 1989   2.738   4.946   5.173  0.5613  0.5979 -0.6400
  498SOL     hw 1990   2.767   5.033   5.201 -0.6410  0.8401 -0.0688
  498SOL     hw 1991   2.643   4.949   5.182  0.5259 -0.8868 -0.3061
  498SOL     vw 1992   2.729   4.958   5.178  0.3980  0.4337 -0.5205
  499SOL     ow 1993   6.316   4.769   4.541 -0.1074 -0.7578  0.4673
  499SOL     hw 1994   6.254   4.699   4.562 -1.2303 -0.0865 -0.4766
  499SOL     hw 1995   6.265   4.831   4.490  0.9099  0.6778  1.1280
  499SOL     vw 1996   6.301   4.768   4.537 -0.1211 -0.4797  0.4299
  500SOL     ow 1997   4.012   0.437   1.523  0.4608 -0.2075 -0.2021
  500SOL     hw 1998   4.062   0.406   1.599 -0.3366 -0.7158  0.1308
  500SOL     hw 1999   4.077   0.447   1.454  1.8453  3.5940  1.4059
  500SOL     vw 2000   4.027   0.434   1.524  0.5381  0.2270  0.0539
  501SOL     ow 2001   5.442   4.421   5.350 -0.4445  0.4034 -0.1078
  501SOL     hw 2002   5.415   4.329   5.358  0.8774 -0.1673 -1.6028
  501SOL     hw 2003   5.429   4.441   5.258  1.3143  1.0149 -0.2595
  501SOL     vw 2004   5.436   4.411   5.339 -0.0379  0.4089 -0.3252
  502SOL     ow 2005   5.540   1.770   5.192 -0.8762 -0.0980 -0.0664
  502SOL     hw 2006   5.551   1.675   5.184  0.6814 -0.1914  2.1231
  502SOL     hw 2007   5.470   1.781   5.257 -0.0021  0.1686  0.8668
  502SOL     vw 2008   5.533   1.759   5.200 -0.5553 -0.0751  0.3457
  503SOL     ow 2009   5.462   3.103   4.891 -0.8697  0.3650  0.7464
  503SOL     hw 2010   5.546   3.115   4.847 -1.2287 -1.4134 -0.5365
  503SOL     hw 2011   5.463   3.011   4.920 -2.1203  0.4840  1.2384
  503SOL     vw 2012   5.473   3.092   4.889 -1.0819  0.1462  0.6421
  504SOL     ow 2013   5.872   4.761   3.099 -0.4956 -0.8615 -0.2949
  504SOL     hw 2014   5.906   4.749   3.010 -0.1037 -0.3670 -0.2157
  504SOL     hw 2015   5.888   4.853   3.119 -0.2591 -1.0478  0.4199
  504SOL     vw 2016   5.878   4.772   3.090 -0.4127 -0.8209 -0.1901
  505SOL     ow 2017   0.261   2.546   4.344  0.2489  0.6296 -0.1808
  505SOL     hw 2018   0.167   2.565   4.343  0.0085 -0.3634  1.0312
  505SOL     hw 2019   0.298   2.608   4.282 -1.1458  1.3808 -0.3150
  505SOL     vw 2020   0.253   2.557   4.336  0.0332  0.5976 -0.0389
  506SOL     ow 2021   0.676   3.612   0.257  0.0966  0.4264 -0.1594
  506SOL     hw 2022   0.768   3.597   0.281  0.5071  2.5505 -0.1703
  506SOL     hw 2023   0.681   3.678   0.187 -1.2116 -3.0139 -3.8596
  506SOL     vw 2024   0.689   3.619   0.251 -0.0218  0.2528 -0.6490
  507SOL     ow 2025   2.839   5.510   6.718  0.0037  0.2259  0.2226
  507SOL     hw 2026   2.781   5.545   6.786 -0.7122 -1.1315  0.3574
  507SOL     hw 2027   2.785   5.508   6.639  0.1901 -0.0571  0.0997
  507SOL     vw 2028   2.824   5.514   6.717 -0.0662  0.0093  0.2241
  508SOL     ow 2029   6.421   5.311   2.229  0.6144 -0.0180 -0.1171
  508SOL     hw 2030   6.429   5.330   2.323 -0.4229  1.2071 -0.2519
  508SOL     hw 2031   6.472   5.231   2.217  1.2554  0.1190  1.3816
  508SOL     vw 2032   6.429   5.303   2.240  0.5622  0.1614  0.0628
  509SOL     ow 2033   3.306   4.798   6.169 -0.3870 -0.5796  0.4063
  509SOL     hw 2034   3.375   4.856   6.199 -0.8591 -1.3321  3.1912
  509SOL     hw 2035   3.228   4.853   6.165 -0.3773 -0.5368  0.8276
  509SOL     vw 2036   3.305   4.813   6.172 -0.4481 -0.6733  0.8295
  510SOL     ow 2037   0.025   0.396   2.289  0.0989 -0.1451 -0.0786
  510SOL     hw 2038  -0.040   0.369   2.353  1.8927 -0.2560  1.7901
  510SOL     hw 2039  -0.008   0.363   2.205 -2.5127  0.3505  0.6810
  510SOL     vw 2040   0.012   0.388   2.286 -0.0090 -0.0944  0.2682
  511SOL     ow 2041   2.859   1.692   5.491  0.7706  0.1950  0.6295
  511SOL     hw 2042   2.921   1.654   5.428 -1.5329 -1.0064 -1.0733
  511SOL     hw 2043   2.812   1.617   5.526 -0.8166  1.1505  0.6210
  511SOL     vw 2044   2.861   1.677   5.487  0.2573  0.1626  0.4036
  512SOL     ow 2045   1.159   0.478   2.442 -0.0625  0.2364 -0.0602
  512SOL     hw 2046   1.238   0.436   2.475 -1.0150 -2.0637 -0.5702
  512SOL     hw 2047   1.111   0.409   2.395 -2.2250  1.6192 -0.0588
  512SOL     vw 2048   1.163   0.464   2.440 -0.4735  0.1154 -0.1273
  513SOL     ow 2049   5.490   4.885   2.508  0.0470 -0.5144 -0.9638
  513SOL     hw 2050   5.527   4.841   2.584 -2.7689  1.8554  2.0305
  513SOL     hw 2051   5.512   4.977   2.520 -2.6743  0.2948 -1.5046
  513SOL     vw 2052   5.498   4.892   2.519 -0.6835 -0.0951 -0.6402
  514SOL     ow 2053   4.985   6.517   5.978 -0.1376  0.0753  0.3850
  514SOL     hw 2054   5.056   6.581   5.988 -0.3413  0.5804 -1.0424
  514SOL     hw 2055   5.002   6.452   6.045  2.5213 -0.5706 -0.7580
  514SOL     vw 2056   4.997   6.517   5.988  0.1862  0.0565  0.0458
  515SOL     ow 2057   1.924   6.260   2.494  0.0839 -0.4363  0.4683
  515SOL     hw 2058   1.855   6.315   2.456  1.1712 -0.0993 -1.1006
  515SOL     hw 2059   2.000   6.317   2.500  1.1491 -1.6484 -0.9277
  515SOL     vw 2060   1.925   6.275   2.490  0.3679 -0.5519  0.0771
  516SOL     ow 2061   3.304   6.701   4.758  0.0159 -0.2273  1.0423
  516SOL     hw 2062   3.209   6.700   4.772 -0.1879  0.4536 -0.1743
  516SOL     hw 2063   3.324   6.611   4.729 -0.4161 -0.1245  0.3993
  516SOL     vw 2064   3.294   6.689   4.756 -0.0678 -0.1237  0.7968
  517SOL     ow 2065   1.089   5.060   5.335 -0.3534 -0.0922 -0.1217
  517SOL     hw 2066   1.115   5.121   5.404  0.4008  2.4737 -2.5045
  517SOL     hw 2067   1.172   5.028   5.300 -0.7317 -1.4029  0.1268
  517SOL     vw 2068   1.104   5.064   5.340 -0.3038  0.0734 -0.4034
  518SOL     ow 2069   3.724   4.190   4.521 -0.0065  0.2551 -0.1983
  518SOL     hw 2070   3.761   4.243   4.451 -0.3545  1.2598  0.3582
  518SOL     hw 2071   3.635   4.224   4.531  0.0423  0.1145  0.7247
  518SOL     vw 2072   3.717   4.202   4.513 -0.0460  0.3691 -0.0031
  519SOL     ow 2073   2.138   6.676   6.465 -0.2354 -0.2484 -0.2965
  519SOL     hw 2074   2.154   6.764   6.430 -1.7732  0.4776  0.7402
  519SOL     hw 2075   2.168   6.617   6.395  0.9853  1.0689 -0.9393
  519SOL     vw 2076   2.144   6.680   6.451 -0.2772  0.0212 -0.2444
  520SOL     ow 2077   2.235   1.629   0.790  0.0768  0.0815 -0.0911
  520SOL     hw 2078   2.216   1.698   0.853 -2.0450 -0.7303  0.2515
  520SOL     hw 2079   2.195   1.659   0.708 -1.1936 -0.8326  0.1509
  520SOL     vw 2080   2.227   1.642   0.787 -0.3707 -0.1463 -0.0139
  521SOL     ow 2081   5.278   2.484   3.186  0.6725  0.6309  0.3298
  521SOL     hw 2082   5.209   2.424   3.160 -1.1197  1.2238  3.2625
  521SOL     hw 2083   5.340   2.482   3.113 -0.8577 -2.2951 -1.0653
  521SOL     vw 2084   5.277   2.476   3.173  0.2341  0.3231  0.5327
  522SOL     ow 2085   4.468   3.539   3.824 -0.1583  0.3165  0.1256
  522SOL     hw 2086   4.390   3.517   3.875 -0.5518 -0.0956 -0.6354
  522SOL     hw 2087   4.446   3.620   3.779 -0.7107 -0.5264 -1.1982
  522SOL     vw 2088   4.455   3.547   3.825 -0.2830  0.1509 -0.1495
  523SOL     ow 2089   1.641   6.658   6.087 -0.3809  0.3714 -0.3516
  523SOL     hw 2090   1.654   6.687   6.177 -0.3371 -2.2088  0.5490
  523SOL     hw 2091   1.729   6.649   6.051 -0.3345 -0.0949 -0.1253
  523SOL     vw 2092   1.654   6.661   6.094 -0.3690 -0.0303 -0.2029
  524SOL     ow 2093   1.720   3.390   1.941  0.4418  0.5531  0.6039
  524SOL     hw 2094   1.698   3.481   1.960 -2.4215 -0.0042  0.4619
  524SOL     hw 2095   1.732   3.387   1.846  1.4825  0.9110  0.7091
  524SOL     vw 2096   1.719   3.402   1.931  0.2013  0.5268  0.5990
  525SOL     ow 2097   2.308   2.290   3.279 -0.5816 -0.4447  0.0655
  525SOL     hw 2098   2.269   2.303   3.365 -3.0588  0.4906 -1.1037
  525SOL     hw 2099   2.342   2.376   3.255 -0.1186 -0.6457 -0.0118
  525SOL     vw 2100   2.308   2.303   3.287 -0.8473 -0.3479 -0.0991
  526SOL     ow 2101   3.100   1.625   1.596  0.1303 -0.0747  0.2545
  526SOL     hw 2102   3.049   1.585   1.525 -1.0077  0.5925  0.6582
  526SOL     hw 2103   3.175   1.664   1.553  0.4371 -1.2678 -0.3424
  526SOL     vw 2104   3.103   1.625   1.581  0.0205 -0.1441  0.2291
  527SOL     ow 2105   3.964   2.241   6.514 -0.6015  0.6205  0.1030
  527SOL     hw 2106   4.044   2.266   6.468 -0.4918  2.3227  1.1581
  527SOL     hw 2107   3.988   2.160   6.560  0.5911  1.2259  0.5803
  527SOL     vw 2108   3.978   2.233   6.514 -0.4296  0.9249  0.3052
  528SOL     ow 2109   6.699   4.204   4.163 -0.2791  0.0448 -0.5059
  528SOL     hw 2110   6.618   4.154   4.157 -1.2540  1.5052 -0.0590
  528SOL     hw 2111   6.751   4.175   4.089 -0.8484 -1.5190 -0.3282
  528SOL     vw 2112   6.695   4.194   4.153 -0.4828  0.0312 -0.4237
  529SOL     ow 2113   2.655   0.413   3.514 -0.3576  0.1862  0.0459
  529SOL     hw 2114   2.580   0.429   3.571 -0.7664  1.2402 -0.7632
  529SOL     hw 2115   2.682   0.500   3.484 -0.3692 -0.3316 -1.6112
  529SOL     vw 2116   2.648   0.426   3.517 -0.4129  0.2570 -0.2794
  530SOL     ow 2117   4.648   2.030   2.616  0.4859  0.4030  0.0712
  530SOL     hw 2118   4.692   2.053   2.698  0.4867  1.4503 -0.2066
  530SOL     hw 2119   4.707   2.061   2.548  0.0666  0.3414 -0.3215
  530SOL     vw 2120   4.662   2.037   2.618  0.4306  0.5331 -0.0173
  531SOL     ow 2121   3.535   6.845   0.168  0.9379  0.5317 -0.2610
  531SOL     hw 2122   3.525   6.858   0.074  2.2314 -0.5007 -0.5680
  531SOL     hw 2123   3.579   6.760   0.177  0.0466  0.1749  1.3144
  531SOL     vw 2124   3.539   6.835   0.157  0.9910  0.3483 -0.0937
  532SOL     ow 2125   4.464   2.556   3.857  0.2979  0.3359 -0.8572
  532SOL     hw 2126   4.388   2.607   3.882 -0.2471 -0.6663 -0.4047
  532SOL     hw 2127   4.441   2.516   3.773  0.9852  1.3455 -1.5508
  532SOL     vw 2128   4.451   2.557   3.849  0.3166  0.3369 -0.8891
  533SOL     ow 2129   2.176   5.617   6.509  0.3643  0.5591  0.4630
  533SOL     hw 2130   2.095   5.602   6.558 -0.3647  0.0866 -0.8635
  533SOL     hw 2131   2.173   5.710   6.485  0.1157  0.4908  0.2329
  533SOL     vw 2132   2.165   5.627   6.513  0.2353  0.4878  0.2577
  534SOL     ow 2133   3.073   1.935   1.595 -0.6640  0.1882  0.0661
  534SOL     hw 2134   3.024   2.016   1.587 -0.6598  0.2597  0.7021
  534SOL     hw 2135   3.151   1.948   1.541 -1.1610  0.2127 -0.6481
  534SOL     vw 2136   3.077   1.947   1.587 -0.7290  0.2010  0.0558
  535SOL     ow 2137   4.143   3.335   1.202 -0.1745 -0.2738  0.2550
  535SOL     hw 2138   4.108   3.373   1.122  1.0631 -0.3567 -0.3464
  535SOL     hw 2139   4.225   3.294   1.175 -1.2808 -3.1791  0.8890
  535SOL     vw 2140   4.149   3.334   1.188 -0.1574 -0.6680  0.2593
  536SOL     ow 2141   4.276   2.726   0.632  0.3962  0.0378 -1.4011
  536SOL     hw 2142   4.221   2.804   0.637  0.6602  0.1565  1.0988
  536SOL     hw 2143   4.236   2.672   0.564 -0.8540  1.5450 -1.9114
  536SOL     vw 2144   4.264   2.729   0.624  0.2661  0.2524 -1.1386
  537SOL     ow 2145   1.414   3.995   2.361  0.7334  0.5188 -0.5157
  537SOL     hw 2146   1.478   4.024   2.296 -1.1369  1.5403 -1.9976
  537SOL     hw 2147   1.345   3.952   2.310  0.3890 -0.9235  1.0616
  537SOL     vw 2148   1.413   3.993   2.345  0.4411  0.4635 -0.5032
  538SOL     ow 2149   3.715   0.918   2.963 -0.7457 -0.2944 -0.0418
  538SOL     hw 2150   3.638   0.934   2.908 -2.7607 -2.2471  1.9825
  538SOL     hw 2151   3.755   0.840   2.924  0.9285  1.2747 -1.6832
  538SOL     vw 2152   3.710   0.910   2.951 -0.7907 -0.3450  0.0088
  539SOL     ow 2153   0.467   2.865   3.794 -0.0436  0.0943  0.5779
  539SOL     hw 2154   0.489   2.872   3.701  0.2981 -0.6969  0.5909
  539SOL     hw 2155   0.400   2.797   3.798  1.7472 -1.7364  1.1541
  539SOL     vw 2156   0.462   2.857   3.782  0.2378 -0.2515  0.6555
  540SOL     ow 2157   1.914   1.599   4.579  0.2135 -0.2040 -0.3042
  540SOL     hw 2158   1.821   1.580   4.592  0.3845 -0.7416  0.1806
  540SOL     hw 2159   1.920   1.632   4.489 -0.3669 -0.6733 -0.5176
  540SOL     vw 2160   1.902   1.601   4.569  0.1594 -0.3369 -0.2682
  541poe    c31 2161   1.300   5.710   2.358  0.0520 -0.7838  0.1887
  541poe     o2 2162   1.390   5.614   2.305 -0.1202 -0.7448 -0.1822
  541poe    c23 2163   1.451   5.533   2.403 -0.2180 -1.3041 -0.5848
  541poe    c23 2164   1.570   5.463   2.334  0.7279  0.0284 -0.3427
  541poe     o2 2165   1.534   5.442   2.199  0.1565 -0.3006 -0.1411
  541poe    c23 2166   1.653   5.408   2.132  0.4376 -0.2817  0.3471
  541poe    c23 2167   1.619   5.384   1.984  0.7817  0.3336  0.1651
  541poe     o2 2168   1.573   5.509   1.937  0.2569  0.2012  0.3173
  541poe    c23 2169   1.558   5.480   1.800  0.6659  0.0864  0.2959
  541poe    c23 2170   1.511   5.597   1.712 -0.0443 -0.0011  0.5570
  541poe     o2 2171   1.372   5.620   1.727  0.0838  0.9539  0.3217
  541poe    c31 2172   1.335   5.706   1.621  0.2016  0.1467 -0.3860
  542poe    c31 2173   2.346   6.886   3.901  0.2669 -0.1187  0.0830
  542poe     o2 2174   2.393   6.868   4.032 -0.3705  0.3287  0.3810
  542poe    c23 2175   2.529   6.901   4.048 -0.2847  0.0728  0.1810
  542poe    c23 2176   2.575   6.820   4.171  0.3862  0.1436 -0.0169
  542poe     o2 2177   2.514   6.693   4.179 -0.1571  0.3629 -0.6025
  542poe    c23 2178   2.599   6.609   4.253 -0.7367  0.0130 -0.3252
  542poe    c23 2179   2.535   6.469   4.266 -0.2845 -0.0651  1.1841
  542poe     o2 2180   2.397   6.470   4.292 -0.3960 -0.0305  0.6054
  542poe    c23 2181   2.351   6.348   4.239 -0.1146 -0.3301  1.0395
  542poe    c23 2182   2.205   6.324   4.281 -0.4111  0.6003  0.5708
  542poe     o2 2183   2.128   6.428   4.225 -0.4919  0.1635 -0.1374
  542poe    c31 2184   1.991   6.409   4.250 -0.3370 -0.2066  0.4568
  543poe    c31 2185   2.196   5.625   3.314  0.4127 -0.2759  0.2488
  543poe     o2 2186   2.236   5.554   3.200 -0.0118  0.3947 -0.3236
  543poe    c23 2187   2.376   5.539   3.193 -0.0849 -0.5870  0.0778
  543poe    c23 2188   2.412   5.505   3.047  0.2578  0.1655 -0.0191
  543poe     o2 2189   2.319   5.405   3.012  0.8033 -0.5509  0.5447
  543poe    c23 2190   2.361   5.337   2.896  0.6689  0.1268  0.0923
  543poe    c23 2191   2.256   5.230   2.863  0.5561  0.1943  0.2338
  543poe     o2 2192   2.243   5.141   2.972  0.4356  0.5879  0.5459
  543poe    c23 2193   2.112   5.124   3.021  0.3038 -0.1788 -0.0460
  543poe    c23 2194   2.090   5.188   3.159  0.1467  0.5481 -0.4023
  543poe     o2 2195   2.058   5.325   3.171 -0.1426  0.4276  0.2333
  543poe    c31 2196   1.918   5.338   3.169 -0.0892  0.9473 -0.2095
  544poe    c31 2197   1.739   4.008   4.249  0.1429  0.1706  0.3176
  544poe     o2 2198   1.839   3.946   4.327  0.4859  0.1256 -0.1529
  544poe    c23 2199   1.820   3.970   4.465  0.0314 -0.6705 -0.0724
  544poe    c23 2200   1.956   3.950   4.534  0.1135  0.3004  0.0596
  544poe     o2 2201   2.013   3.827   4.495 -0.1692 -0.0278  0.6741
  544poe    c23 2202   2.147   3.800   4.532 -0.0388 -0.0009  0.2290
  544poe    c23 2203   2.176   3.655   4.491  0.2639 -0.0146  0.4880
  544poe     o2 2204   2.091   3.613   4.386  0.7202 -0.2658  0.2155
  544poe    c23 2205   2.159   3.602   4.263  0.6470  0.0239  0.1477
  544poe    c23 2206   2.054   3.601   4.151  0.2475  0.5597  0.5126
  544poe     o2 2207   1.976   3.717   4.166 -0.0860  0.3931  0.1095
  544poe    c31 2208   1.902   3.746   4.050 -0.3230  0.0033  0.1644
  545poe    c31 2209   6.925   5.101   3.300 -0.1921 -0.0223  0.0147
  545poe     o2 2210   6.957   5.006   3.201  0.1410  0.0324  0.0672
  545poe    c23 2211   7.036   5.088   3.118  0.1221 -0.1387 -0.1232
  545poe    c23 2212   7.073   4.997   3.000  0.3416 -0.3720  0.1263
  545poe     o2 2213   6.969   4.931   2.932  0.1520  0.1555 -0.1017
  545poe    c23 2214   7.005   4.898   2.799 -0.0299 -0.4621 -0.0015
  545poe    c23 2215   6.898   4.807   2.736 -0.2610 -0.2050  0.0131
  545poe     o2 2216   6.896   4.692   2.819 -0.1119  0.0668  0.3976
  545poe    c23 2217   6.795   4.605   2.771  0.2467 -0.1859  0.0967
  545poe    c23 2218   6.790   4.482   2.863  0.1080 -0.3410 -0.1174
  545poe     o2 2219   6.806   4.528   2.996 -0.0031 -0.3884 -0.0880
  545poe    c31 2220   6.761   4.441   3.097  0.0876 -0.3534 -0.0179
  546poe    c31 2221   6.435   5.982   3.999 -0.1589 -0.0402 -0.4539
  546poe     o2 2222   6.549   5.980   3.915  0.4332 -0.0273  0.3407
  546poe    c23 2223   6.656   6.041   3.985  0.2529  0.6499  0.0380
  546poe    c23 2224   6.778   6.039   3.891  0.4184  0.3068  0.2572
  546poe     o2 2225   6.723   6.093   3.773 -0.0513 -0.3028  0.1898
  546poe    c23 2226   6.826   6.103   3.676 -0.1612  0.0767  0.1085
  546poe    c23 2227   6.759   6.170   3.555  0.2253  0.7658  0.2741
  546poe     o2 2228   6.633   6.107   3.561  0.3002  0.6077  0.1592
  546poe    c23 2229   6.534   6.178   3.489 -0.1538 -0.4944 -0.3389
  546poe    c23 2230   6.400   6.117   3.534 -0.2333  0.4486  0.7811
  546poe     o2 2231   6.392   6.073   3.667 -0.4998  0.0275  0.6287
  546poe    c31 2232   6.267   6.008   3.676 -0.4079 -0.1238  0.8216
  547poe    c31 2233   5.765   2.615   6.626  0.8301 -0.5172  0.3878
  547poe     o2 2234   5.848   2.647   6.736  0.4830 -0.2033  0.5592
  547poe    c23 2235   5.972   2.585   6.711  0.2043 -0.4012 -0.3858
  547poe    c23 2236   6.085   2.684   6.677  0.1001 -0.1625 -0.0467
  547poe     o2 2237   6.191   2.627   6.750 -0.1332 -0.0426  0.3877
  547poe    c23 2238   6.311   2.642   6.678 -0.2638  0.1578  0.2105
  547poe    c23 2239   6.429   2.598   6.768  0.2685  0.7470 -0.1901
  547poe     o2 2240   6.400   2.638   6.900 -0.0081  0.3563 -0.1311
  547poe    c23 2241   6.508   2.592   6.977 -0.2148 -0.6565 -0.4244
  547poe    c23 2242   6.466   2.602   7.125 -0.3410 -0.3115 -0.4819
  547poe     o2 2243   6.347   2.533   7.158 -0.3725  0.1628  0.4301
  547poe    c31 2244   6.302   2.589   7.279  0.2280  0.5608  0.4737
  548poe    c31 2245   4.314   0.578   6.320 -0.4190 -0.9009  0.1121
  548poe     o2 2246   4.453   0.594   6.305 -0.4951 -0.2909  0.0135
  548poe    c23 2247   4.526   0.658   6.408 -0.0979  0.1418 -0.5320
  548poe    c23 2248   4.638   0.756   6.371 -0.1169  0.4430  0.1904
  548poe     o2 2249   4.593   0.840   6.267 -0.0622 -0.0054 -0.1983
  548poe    c23 2250   4.686   0.872   6.166 -0.2304  0.4104 -0.2226
  548poe    c23 2251   4.678   1.024   6.144 -0.5454  0.5685  0.9174
  548poe     o2 2252   4.545   1.067   6.124 -0.7305 -0.4879 -0.2344
  548poe    c23 2253   4.541   1.203   6.088  0.2555 -0.3407  0.1941
  548poe    c23 2254   4.412   1.264   6.146  0.2194 -0.3683  0.1424
  548poe     o2 2255   4.325   1.153   6.134 -0.1140 -0.0337 -0.5586
  548poe    c31 2256   4.188   1.183   6.150  0.0262  0.0436  0.5658
  549poe    c31 2257   3.223   0.980   1.117  0.2598  0.2913  0.2881
  549poe     o2 2258   3.102   1.042   1.082  0.4104  0.1173 -0.5661
  549poe    c23 2259   2.999   0.947   1.100  0.3674  0.2476 -0.0983
  549poe    c23 2260   2.860   0.992   1.049  0.1235 -0.0733  0.2810
  549poe     o2 2261   2.858   1.133   1.050  0.5922 -0.0596 -0.1023
  549poe    c23 2262   2.773   1.193   0.956 -0.1019 -0.1519  0.4546
  549poe    c23 2263   2.850   1.289   0.863 -0.1104 -0.6226 -0.0415
  549poe     o2 2264   2.924   1.375   0.947 -0.0239 -0.3316 -0.4111
  549poe    c23 2265   3.013   1.453   0.871  0.2698  0.1483  0.4110
  549poe    c23 2266   3.130   1.464   0.971  0.5224  0.1231  0.1189
  549poe     o2 2267   3.161   1.336   1.020  0.2538 -0.0148 -0.0664
  549poe    c31 2268   3.273   1.352   1.105  0.2940 -0.2669 -0.0693
  550poe    c31 2269   4.824   5.714   0.041 -0.8100 -0.3822 -0.3810
  550poe     o2 2270   4.812   5.809  -0.062  0.4765  0.2290  0.0196
  550poe    c23 2271   4.939   5.852  -0.106  0.2701  0.1882 -0.6309
  550poe    c23 2272   4.917   5.976  -0.194 -0.6586  0.3918 -0.1165
  550poe     o2 2273   4.819   5.927  -0.283  0.2862 -0.5881 -0.6291
  550poe    c23 2274   4.745   6.033  -0.339  0.0620 -0.3807  0.0529
  550poe    c23 2275   4.623   5.991  -0.422 -0.2707  0.6794 -0.0126
  550poe     o2 2276   4.541   5.916  -0.334  0.0143  0.7015  0.2728
  550poe    c23 2277   4.408   5.912  -0.381  0.1390 -0.0906 -0.0260
  550poe    c23 2278   4.315   5.796  -0.342 -0.3286  0.2923  0.0061
  550poe     o2 2279   4.282   5.808  -0.206 -0.1166 -0.7575  0.1618
  550poe    c31 2280   4.211   5.691  -0.172 -0.4302 -0.3095  1.1012
  551poe    c31 2281   4.654   6.721   4.287  0.5547  0.0518  0.1131
  551poe     o2 2282   4.720   6.754   4.167  0.4003 -0.0067  0.0124
  551poe    c23 2283   4.691   6.658   4.068  0.3374  0.2567 -0.2260
  551poe    c23 2284   4.829   6.636   4.003  0.3748 -0.1876 -0.0032
  551poe     o2 2285   4.889   6.762   3.985  0.3791 -0.2488 -0.4499
  551poe    c23 2286   5.019   6.751   3.931  0.6118 -0.0581  0.0624
  551poe    c23 2287   5.062   6.885   3.870 -0.8520  0.3851 -0.0241
  551poe     o2 2288   5.052   6.991   3.962 -0.2498  0.2304  0.2219
  551poe    c23 2289   5.063   7.116   3.898 -0.0942 -0.0360 -0.2736
  551poe    c23 2290   5.038   7.226   4.003  0.4314 -0.3715  0.2049
  551poe     o2 2291   4.900   7.239   4.029  0.4128 -0.1357 -0.0143
  551poe    c31 2292   4.878   7.328   4.136 -0.0994 -0.3593  0.0693
  552poe    c31 2293   0.969   1.428   5.863 -0.5179 -0.2751 -0.0017
  552poe     o2 2294   1.037   1.304   5.862  0.3835  0.2142 -0.1052
  552poe    c23 2295   1.017   1.252   5.733 -0.6381  0.1770  0.0578
  552poe    c23 2296   1.022   1.099   5.742 -0.0882  0.1919  0.0595
  552poe     o2 2297   1.142   1.045   5.792  0.0035  0.1567 -0.1977
  552poe    c23 2298   1.147   0.906   5.765 -0.4776 -0.0149  0.5793
  552poe    c23 2299   1.280   0.859   5.827  0.1042  0.4706 -0.2864
  552poe     o2 2300   1.309   0.949   5.932 -0.4052  0.3187 -0.0128
  552poe    c23 2301   1.445   0.986   5.944 -0.3578  0.0458  0.3163
  552poe    c23 2302   1.455   1.124   6.011  0.1480 -0.1203  0.5866
  552poe     o2 2303   1.353   1.205   5.956  0.1201  0.0017  0.8172
  552poe    c31 2304   1.378   1.344   5.956  0.5514 -0.0724  0.3776
  553poe    c31 2305   2.922   0.914   2.556 -0.3238  0.1988 -0.3567
  553poe     o2 2306   2.862   1.019   2.628  0.1665 -0.2586  0.7470
  553poe    c23 2307   2.755   0.971   2.707 -0.6224  0.4753  0.1591
  553poe    c23 2308   2.724   1.064   2.826 -0.0970  0.3247  0.4186
  553poe     o2 2309   2.671   1.184   2.774 -0.4253  0.2285  0.5286
  553poe    c23 2310   2.726   1.310   2.806  0.5902 -0.2887  0.8723
  553poe    c23 2311   2.878   1.327   2.789  0.5618 -0.4798  0.4187
  553poe     o2 2312   2.934   1.290   2.665  0.4422  0.0268  0.2117
  553poe    c23 2313   3.051   1.362   2.634  0.2156  0.4305  0.2899
  553poe    c23 2314   3.093   1.344   2.487 -0.1477  0.3031  0.2011
  553poe     o2 2315   3.014   1.248   2.422 -0.1736  0.3785  0.1210
  553poe    c31 2316   3.045   1.235   2.285  0.8008  0.2119  0.3527
  554poe    c31 2317   2.923   2.653   6.323 -0.2088  0.3938 -0.0914
  554poe     o2 2318   3.020   2.751   6.292  0.3830 -0.0508  0.3208
  554poe    c23 2319   3.142   2.718   6.354  0.5037 -0.1628  0.0206
  554poe    c23 2320   3.251   2.784   6.267  0.5479  0.1962  0.3457
  554poe     o2 2321   3.196   2.911   6.239  0.1621 -0.0335  0.0370
  554poe    c23 2322   3.288   2.994   6.171  0.2625  0.1173  0.3547
  554poe    c23 2323   3.200   3.030   6.050  0.1971 -0.0066  0.3648
  554poe     o2 2324   3.085   3.109   6.070 -0.2949 -0.5400 -0.2937
  554poe    c23 2325   3.101   3.247   6.093 -0.0165 -0.6716  0.3113
  554poe    c23 2326   2.975   3.325   6.134  0.6288  0.3748  0.3367
  554poe     o2 2327   2.900   3.270   6.240  0.3313 -0.0335 -0.0823
  554poe    c31 2328   2.773   3.331   6.250  0.7441  0.7969  0.2333
  555poe    c31 2329   4.663   0.747   2.381  0.0411 -0.3586  0.1229
  555poe     o2 2330   4.719   0.764   2.509  0.1283 -0.2977  0.0768
  555poe    c23 2331   4.625   0.704   2.596  0.0038 -0.0520  0.1104
  555poe    c23 2332   4.659   0.694   2.746 -1.2293 -0.3550  0.3826
  555poe     o2 2333   4.663   0.822   2.805 -0.6700 -0.0737 -0.2490
  555poe    c23 2334   4.693   0.810   2.942  0.3070 -0.3207 -0.4781
  555poe    c23 2335   4.792   0.921   2.983  0.3241 -0.3240 -0.5096
  555poe     o2 2336   4.725   1.033   2.931 -0.0944 -0.2674  0.1460
  555poe    c23 2337   4.748   1.144   3.016  0.1785  0.0269 -0.3062
  555poe    c23 2338   4.686   1.256   2.931 -0.0125  0.2082  0.0709
  555poe     o2 2339   4.680   1.224   2.794 -0.2740  0.1621  0.0918
  555poe    c31 2340   4.627   1.330   2.717  0.5338  0.0751 -0.5949
  556poe    c31 2341   6.422   5.501   1.965  0.2288 -0.5078  0.2537
  556poe     o2 2342   6.320   5.411   1.999  0.2327 -0.5056  0.2723
  556poe    c23 2343   6.300   5.310   1.902  0.5502 -0.2463 -0.0661
  556poe    c23 2344   6.160   5.255   1.937  0.3961  0.3065  0.2048
  556poe     o2 2345   6.161   5.211   2.071  0.1813  0.2028  0.1724
  556poe    c23 2346   6.033   5.198   2.128  0.1713 -0.5127 -0.0018
  556poe    c23 2347   6.055   5.166   2.278 -0.0444 -0.3861  0.0567
  556poe     o2 2348   6.147   5.258   2.331 -0.1126 -0.5132  0.3966
  556poe    c23 2349   6.158   5.239   2.470  0.4773 -0.0045  0.4278
  556poe    c23 2350   6.249   5.349   2.528  0.4169  0.0575  0.4045
  556poe     o2 2351   6.382   5.343   2.482  0.2051  0.3383 -0.2557
  556poe    c31 2352   6.442   5.463   2.525  0.3811  0.3367 -0.4992
  557poe    c31 2353   2.019   0.609   0.289 -0.6607 -0.1055 -0.7531
  557poe     o2 2354   1.980   0.474   0.291 -0.0971 -0.2629 -0.1671
  557poe    c23 2355   1.855   0.472   0.226 -0.0188 -0.2320 -0.3181
  557poe    c23 2356   1.782   0.344   0.271 -0.2229 -0.2353 -0.6500
  557poe     o2 2357   1.889   0.254   0.288 -0.1182 -0.0863 -0.5127
  557poe    c23 2358   1.852   0.127   0.337  0.4351 -0.0484  0.0223
  557poe    c23 2359   1.940   0.106   0.461  0.3537 -0.3970  0.0216
  557poe     o2 2360   2.056   0.183   0.436  0.3870 -0.6237 -0.5477
  557poe    c23 2361   2.167   0.144   0.514  0.2262 -0.0640 -0.0280
  557poe    c23 2362   2.235   0.268   0.574 -0.4288  0.2124  0.1614
  557poe     o2 2363   2.238   0.352   0.461  0.4296 -0.0351 -0.0064
  557poe    c31 2364   2.282   0.479   0.501 -0.0706 -0.0207  0.5012
  558poe    c31 2365   6.567   4.142   3.752  0.1358 -0.0030  0.6823
  558poe     o2 2366   6.435   4.188   3.762 -0.2586 -0.8231 -0.5105
  558poe    c23 2367   6.361   4.111   3.855  0.0722  0.0977  0.5360
  558poe    c23 2368   6.222   4.168   3.889 -0.0698  0.0690  0.0078
  558poe     o2 2369   6.240   4.289   3.959  0.6224  0.2512 -0.4679
  558poe    c23 2370   6.122   4.355   4.000  0.6297 -0.1725  0.2445
  558poe    c23 2371   6.155   4.498   4.048 -0.1402  0.1672 -0.2268
  558poe     o2 2372   6.219   4.578   3.951 -0.4760  0.1781 -0.4410
  558poe    c23 2373   6.220   4.713   3.994  0.4141  0.0713 -0.1122
  558poe    c23 2374   6.328   4.777   3.905  0.3078  0.5146  0.0749
  558poe     o2 2375   6.303   4.723   3.778 -0.1129  0.7287  0.0650
  558poe    c31 2376   6.389   4.784   3.685  0.1168  0.4032  0.0595
  559poe    c31 2377   4.626   1.681   1.271  0.4022 -0.1474 -0.7231
  559poe     o2 2378   4.672   1.553   1.308 -0.1296  0.0452  0.6656
  559poe    c23 2379   4.732   1.479   1.204 -1.0567 -0.3001  0.3629
  559poe    c23 2380   4.711   1.329   1.229  1.0584 -0.7377 -0.2882
  559poe     o2 2381   4.755   1.288   1.357  0.2283  0.0999  0.2802
  559poe    c23 2382   4.829   1.168   1.347  0.1942  0.0482  0.6487
  559poe    c23 2383   4.879   1.136   1.489  0.1470 -0.1578  0.6192
  559poe     o2 2384   4.777   1.159   1.584 -0.4009  0.3478 -0.0817
  559poe    c23 2385   4.815   1.180   1.718  0.0055 -0.9238  0.0109
  559poe    c23 2386   4.693   1.205   1.809  0.1460  0.3007 -0.1273
  559poe     o2 2387   4.641   1.315   1.737  0.0927  0.5317  0.2615
  559poe    c31 2388   4.552   1.390   1.816 -0.3323  0.0987  0.1975
  560poe    c31 2389   4.289   0.173   0.244  0.1188 -0.2133 -0.5807
  560poe     o2 2390   4.319   0.072   0.338  0.3861  0.5561  0.1624
  560poe    c23 2391   4.455   0.035   0.325  0.1767 -0.1476 -0.0172
  560poe    c23 2392   4.492  -0.056   0.445 -0.0709 -0.3759 -0.1122
  560poe     o2 2393   4.476   0.013   0.567  0.3364  0.1571 -0.3571
  560poe    c23 2394   4.522  -0.063   0.676 -0.2793  0.2044 -0.0632
  560poe    c23 2395   4.454  -0.036   0.812 -0.0367  0.3309  0.0342
  560poe     o2 2396   4.313  -0.032   0.800 -0.0468 -0.7120 -0.2463
  560poe    c23 2397   4.267  -0.045   0.932  0.3300  0.3191 -0.0107
  560poe    c23 2398   4.139   0.041   0.941  0.2040  0.0841  0.4826
  560poe     o2 2399   4.069   0.005   0.823  0.2771  0.7005  0.2512
  560poe    c31 2400   3.943   0.069   0.827 -0.0692  0.0278  0.0952
  561poe    c31 2401   3.109   3.485   3.101  0.4611  0.1652  0.0874
  561poe     o2 2402   3.221   3.550   3.046  0.5574 -0.1184 -0.0537
  561poe    c23 2403   3.335   3.473   3.077  0.5816 -0.1061 -0.1119
  561poe    c23 2404   3.473   3.538   3.056  0.2221  0.6498 -0.1719
  561poe     o2 2405   3.455   3.661   3.122 -0.5563  0.4229  0.0489
  561poe    c23 2406   3.568   3.744   3.118 -0.3498  0.1557  0.3372
  561poe    c23 2407   3.508   3.878   3.164 -0.1660  0.2313  0.3593
  561poe     o2 2408   3.388   3.890   3.091  0.0703  0.1030 -0.0578
  561poe    c23 2409   3.308   3.994   3.144 -0.1787  0.2830 -0.7739
  561poe    c23 2410   3.166   3.978   3.086 -0.6528  0.4173  0.3204
  561poe     o2 2411   3.122   3.845   3.098  0.1451  0.1009 -0.1807
  561poe    c31 2412   3.007   3.819   3.021 -0.0924  0.4708  0.0443
  562poe    c31 2413   1.133   1.462   4.012  0.5699 -0.4351 -0.0913
  562poe     o2 2414   1.035   1.499   4.107  0.0060 -0.0652 -0.8021
  562poe    c23 2415   0.951   1.597   4.052 -0.1745  0.1880 -0.0869
  562poe    c23 2416   0.865   1.654   4.167  0.1460 -0.3573  0.4312
  562poe     o2 2417   0.953   1.646   4.276  0.2776 -0.5805  0.3099
  562poe    c23 2418   0.888   1.671   4.399  0.3640  0.2986  0.1803
  562poe    c23 2419   0.995   1.654   4.508 -0.2790 -0.2669  0.7309
  562poe     o2 2420   1.048   1.526   4.479  0.2169  0.0901  0.0386
  562poe    c23 2421   1.186   1.519   4.505  0.1706 -0.4923  0.1421
  562poe    c23 2422   1.237   1.388   4.443  0.6379 -0.2332 -0.0321
  562poe     o2 2423   1.184   1.365   4.314 -0.1653  0.3358  0.1906
  562poe    c31 2424   1.242   1.254   4.250  0.2422  0.6495  0.0085
  563poe    c31 2425   1.787   0.882   3.973  0.0780 -0.3573  0.6888
  563poe     o2 2426   1.891   0.851   3.882 -0.7657 -0.2335 -0.3458
  563poe    c23 2427   1.951   0.975   3.850 -0.5269 -0.1893  0.2445
  563poe    c23 2428   1.981   0.961   3.699  0.2293 -0.1807  0.3906
  563poe     o2 2429   2.021   0.827   3.684 -0.1440 -0.3077  0.5169
  563poe    c23 2430   2.047   0.796   3.549 -0.0825  0.2704  0.3931
  563poe    c23 2431   2.113   0.657   3.563 -0.5278  0.0604  0.3968
  563poe     o2 2432   2.023   0.568   3.626 -0.6862  0.0566  0.1704
  563poe    c23 2433   2.056   0.434   3.598 -0.2319  0.2994 -0.4643
  563poe    c23 2434   1.930   0.347   3.585 -0.2427  0.2963 -0.3350
  563poe     o2 2435   1.866   0.367   3.709  0.1409 -0.3258 -0.0310
  563poe    c31 2436   1.759   0.275   3.712 -0.1887  0.0506 -0.0818
  564poe    c31 2437   4.080   2.658   0.054 -0.6020 -0.3582 -0.5881
  564poe     o2 2438   4.194   2.736   0.025 -0.2854 -0.6697 -0.1956
  564poe    c23 2439   4.306   2.653   0.005  0.3163  0.1544 -0.3130
  564poe    c23 2440   4.434   2.737   0.019 -0.0590  0.6259  0.3648
  564poe     o2 2441   4.392   2.841  -0.066 -0.3346 -0.3808 -0.7661
  564poe    c23 2442   4.491   2.941  -0.054 -0.4109 -0.4227  0.2734
  564poe    c23 2443   4.437   3.063  -0.131 -0.2872 -0.6925 -0.2445
  564poe     o2 2444   4.297   3.062  -0.110 -0.2984 -0.3412 -0.2914
  564poe    c23 2445   4.225   3.142  -0.201  0.2005 -0.1996 -0.5653
  564poe    c23 2446   4.085   3.094  -0.161  0.6067 -0.4598  0.5928
  564poe     o2 2447   4.088   2.955  -0.134  0.1468 -0.4049  0.9397
  564poe    c31 2448   3.975   2.883  -0.176  0.2040 -0.0756  0.2171
  565poe    c31 2449   1.313   1.217   2.703  0.3297  0.3681 -0.0648
  565poe     o2 2450   1.351   1.237   2.837 -0.0419 -0.0401  0.1059
  565poe    c23 2451   1.349   1.107   2.892  0.6070  0.0074  0.2530
  565poe    c23 2452   1.421   1.117   3.028  0.1944  0.0156  0.4743
  565poe     o2 2453   1.528   1.209   3.021  0.2765 -0.1515 -0.8041
  565poe    c23 2454   1.562   1.268   3.145  0.1284 -0.4164 -0.6355
  565poe    c23 2455   1.593   1.417   3.121 -0.1142 -0.2994 -0.2277
  565poe     o2 2456   1.503   1.488   3.038  0.0652  0.2439  0.0353
  565poe    c23 2457   1.401   1.548   3.116  0.2792  0.2165  0.3390
  565poe    c23 2458   1.312   1.610   3.007 -0.4323  0.1415  0.8710
  565poe     o2 2459   1.278   1.522   2.903  0.6039  0.4956  0.2031
  565poe    c31 2460   1.173   1.577   2.827 -0.0070 -1.2432 -0.2634
  566poe    c31 2461   0.627   0.023   6.854 -0.0088  0.0880  0.2071
  566poe     o2 2462   0.681   0.099   6.960 -0.3263  0.1482  0.3262
  566poe    c23 2463   0.821   0.106   6.951 -0.3289 -0.0159  0.1562
  566poe    c23 2464   0.877   0.195   7.064 -0.3696 -0.5035  0.5646
  566poe     o2 2465   0.823   0.324   7.055  0.1104 -0.3363 -0.0210
  566poe    c23 2466   0.921   0.416   7.012  0.0560 -0.4501 -0.3896
  566poe    c23 2467   0.883   0.550   7.078 -0.0602 -0.5268 -0.2999
  566poe     o2 2468   0.750   0.588   7.046 -0.0493 -0.3003 -0.0809
  566poe    c23 2469   0.717   0.725   7.049  0.2812 -0.2167 -0.2159
  566poe    c23 2470   0.585   0.727   7.127  0.0420  0.5381 -0.6377
  566poe     o2 2471   0.511   0.643   7.041  0.5853 -0.6682  0.0488
  566poe    c31 2472   0.374   0.666   7.061  0.7202 -0.2525  0.5195
  567poe    c31 2473   5.908   1.970   3.499 -0.5021  0.2614  0.0037
  567poe     o2 2474   5.829   1.869   3.558  0.8179 -0.3808  0.7099
  567poe    c23 2475   5.872   1.742   3.514  0.7633 -0.1690  0.0280
  567poe    c23 2476   5.868   1.635   3.626  0.7208 -0.0448  0.1458
  567poe     o2 2477   5.732   1.606   3.649  0.6804  0.0886  0.0763
  567poe    c23 2478   5.702   1.538   3.769  0.7148 -0.1611 -0.0572
  567poe    c23 2479   5.691   1.384   3.770  0.4173 -0.1494 -0.7063
  567poe     o2 2480   5.556   1.360   3.737  0.1057 -0.1610  0.5105
  567poe    c23 2481   5.528   1.222   3.740 -0.1473 -0.1369 -0.3935
  567poe    c23 2482   5.377   1.190   3.738 -0.2680  0.3780  0.2209
  567poe     o2 2483   5.327   1.241   3.616  0.2245 -0.2096 -0.2282
  567poe    c31 2484   5.188   1.227   3.602  0.1383  0.0807  0.2886
  568poe    c31 2485   3.476   5.685   0.661  0.0092  0.6186  0.2819
  568poe     o2 2486   3.617   5.687   0.665  0.0581 -0.7663 -0.3236
  568poe    c23 2487   3.663   5.658   0.795  0.7014  0.0476 -0.3577
  568poe    c23 2488   3.804   5.595   0.799  0.6755 -0.0277 -0.6012
  568poe     o2 2489   3.810   5.458   0.767  0.0436 -0.2103  0.0289
  568poe    c23 2490   3.893   5.434   0.655 -0.3203 -0.2488 -0.2330
  568poe    c23 2491   3.873   5.287   0.613 -0.1853 -0.3499  0.0530
  568poe     o2 2492   3.865   5.198   0.722  0.4834 -0.3238  0.1262
  568poe    c23 2493   3.905   5.063   0.708 -0.0880 -0.4147 -0.7651
  568poe    c23 2494   3.872   4.994   0.842 -0.2221  0.2801 -0.4376
  568poe     o2 2495   3.752   5.053   0.888 -0.1791  0.1385 -0.1411
  568poe    c31 2496   3.684   4.967   0.976  0.2485 -0.3883 -0.3208
  569poe    c31 2497   2.989   2.158   3.124  0.7818  0.1349  0.2090
  569poe     o2 2498   2.910   2.229   3.216  0.2946 -0.0657 -0.0517
  569poe    c23 2499   2.980   2.319   3.298  0.7900 -0.5274  0.0345
  569poe    c23 2500   2.891   2.430   3.356 -0.1498 -0.8066 -0.8490
  569poe     o2 2501   2.812   2.374   3.459  0.5852 -0.0775  0.1324
  569poe    c23 2502   2.689   2.439   3.485  0.4543 -0.3515  0.1986
  569poe    c23 2503   2.622   2.374   3.607 -0.2518  0.4245  0.2375
  569poe     o2 2504   2.653   2.236   3.616  0.0659  0.4654 -0.1877
  569poe    c23 2505   2.588   2.172   3.723  0.1813  0.2463 -0.2490
  569poe    c23 2506   2.627   2.023   3.710  0.2976  0.2800 -0.2809
  569poe     o2 2507   2.580   1.964   3.591  0.1213  0.7056 -0.4251
  569poe    c31 2508   2.615   1.829   3.574 -0.2946  0.4439  0.7521
  570poe    c31 2509   4.586   3.238   1.392 -0.1333  0.4559  0.3859
  570poe     o2 2510   4.644   3.114   1.425 -0.4269  0.1378 -0.2820
  570poe    c23 2511   4.684   3.043   1.310  0.4292  0.7154 -0.3456
  570poe    c23 2512   4.751   2.910   1.351 -0.1033  0.3080 -0.7861
  570poe     o2 2513   4.821   2.946   1.467 -0.3740 -0.0680 -0.5054
  570poe    c23 2514   4.879   2.836   1.536 -0.1239  0.4178  0.0728
  570poe    c23 2515   4.964   2.893   1.651  0.2969  0.1253 -0.0941
  570poe     o2 2516   4.885   2.989   1.716 -0.1493 -0.3980  0.1467
  570poe    c23 2517   4.971   3.099   1.732 -0.4366 -0.1487  0.0060
  570poe    c23 2518   4.898   3.225   1.783 -0.2005 -0.1638  0.3941
  570poe     o2 2519   4.788   3.242   1.696  0.0944  0.0130  0.0513
  570poe    c31 2520   4.706   3.351   1.732 -0.3258 -0.1854 -0.2959
  571poe    c31 2521   1.402   6.004   3.471  0.3773 -0.0249 -0.3558
  571poe     o2 2522   1.389   6.133   3.416  0.3742 -0.1019 -0.5377
  571poe    c23 2523   1.342   6.112   3.285 -0.3513  0.7003 -0.4157
  571poe    c23 2524   1.442   6.176   3.187 -0.2132  0.0988 -0.6725
  571poe     o2 2525   1.481   6.305   3.230  0.2199 -0.2779  0.0672
  571poe    c23 2526   1.599   6.359   3.177  0.0624  0.1652  0.1644
  571poe    c23 2527   1.599   6.505   3.225  0.0869  0.2644 -0.1354
  571poe     o2 2528   1.593   6.489   3.365 -0.4688  0.4587 -0.1337
  571poe    c23 2529   1.578   6.608   3.438  0.4480  0.5874 -0.1409
  571poe    c23 2530   1.580   6.595   3.591 -0.0816  0.2462 -0.1588
  571poe     o2 2531   1.484   6.499   3.629  0.5012 -0.4769 -0.4914
  571poe    c31 2532   1.500   6.482   3.768  0.5731 -0.2133 -0.4666
  572poe    c31 2533   5.437   0.276   1.345  0.3314 -0.4911  0.6750
  572poe     o2 2534   5.381   0.405   1.343  0.4425 -0.4479 -0.2408
  572poe    c23 2535   5.377   0.469   1.218  0.5421 -0.1543 -0.0949
  572poe    c23 2536   5.298   0.601   1.215  0.4914 -0.1666  0.5137
  572poe     o2 2537   5.311   0.659   1.343  0.0585  0.1094  0.4335
  572poe    c23 2538   5.281   0.796   1.326  0.4637  0.1350 -0.1284
  572poe    c23 2539   5.283   0.874   1.459  0.6266 -0.5197  0.2550
  572poe     o2 2540   5.177   0.831   1.542  0.1107 -0.3367 -0.3049
  572poe    c23 2541   5.154   0.921   1.648 -0.5308 -0.4300 -0.3649
  572poe    c23 2542   5.101   0.862   1.780  0.0949 -0.3590 -0.0810
  572poe     o2 2543   4.963   0.833   1.770  0.1473 -0.5875 -0.1538
  572poe    c31 2544   4.936   0.728   1.860 -0.3832  0.2999  0.7345
  573poe    c31 2545   2.696   0.276   5.748 -0.3656 -0.3791 -0.2173
  573poe     o2 2546   2.682   0.413   5.782  0.4101 -0.3320 -0.0738
  573poe    c23 2547   2.805   0.467   5.825  0.1633  0.3103 -0.1659
  573poe    c23 2548   2.780   0.614   5.864 -0.3140  0.3818 -0.7291
  573poe     o2 2549   2.677   0.647   5.774 -0.5910 -0.2982 -0.6695
  573poe    c23 2550   2.633   0.781   5.783  0.4676  0.0104  0.0744
  573poe    c23 2551   2.502   0.783   5.702  0.0058 -0.1837  0.8017
  573poe     o2 2552   2.420   0.671   5.720  0.1935 -0.3891  0.3916
  573poe    c23 2553   2.317   0.695   5.813  0.2838 -0.4326  0.5023
  573poe    c23 2554   2.275   0.551   5.850 -0.6686 -0.3051 -0.0377
  573poe     o2 2555   2.386   0.465   5.865 -0.1641  0.3691  0.1464
  573poe    c31 2556   2.348   0.337   5.907  0.7506 -0.1833 -0.6597
  574poe    c31 2557   2.602   6.004   4.045 -0.0381  0.2578  0.2693
  574poe     o2 2558   2.477   6.037   3.987 -0.1177 -0.1057  0.2355
  574poe    c23 2559   2.369   5.986   4.062 -0.2046  0.2426  0.3456
  574poe    c23 2560   2.234   6.057   4.041 -0.3561  0.0377  0.6287
  574poe     o2 2561   2.175   6.033   3.916 -0.2751  0.2573  0.5484
  574poe    c23 2562   2.042   6.079   3.905 -0.1828  0.4633  0.2782
  574poe    c23 2563   1.991   6.043   3.764  0.1399 -0.3757  0.3754
  574poe     o2 2564   2.093   6.047   3.667  0.0014  0.5001  0.2589
  574poe    c23 2565   2.061   5.982   3.546 -0.1372  0.3083  0.3993
  574poe    c23 2566   2.168   5.994   3.436 -0.0863 -0.0561  0.4057
  574poe     o2 2567   2.286   5.986   3.513  0.0893  0.2800  0.1740
  574poe    c31 2568   2.392   5.976   3.421  0.2262  0.3473  0.3246
  575poe    c31 2569   6.312   0.562   1.740 -0.4410 -0.3196 -0.0793
  575poe     o2 2570   6.449   0.594   1.735 -0.5802  0.4225  0.6975
  575poe    c23 2571   6.497   0.596   1.603 -0.8444 -0.8938  0.5698
  575poe    c23 2572   6.573   0.466   1.568  0.4357 -0.0274  0.0510
  575poe     o2 2573   6.478   0.365   1.543  0.4473  0.0189 -0.1796
  575poe    c23 2574   6.486   0.257   1.633 -0.1594  0.1468  0.0333
  575poe    c23 2575   6.385   0.150   1.586 -0.5992  0.5393  0.0735
  575poe     o2 2576   6.404   0.114   1.450  0.3109 -0.1591  0.3676
  575poe    c23 2577   6.330  -0.005   1.437  0.2843 -0.1164  0.1216
  575poe    c23 2578   6.374  -0.068   1.303 -0.7035  0.3098 -0.4099
  575poe     o2 2579   6.364   0.019   1.193 -0.3114  0.2241 -0.5144
  575poe    c31 2580   6.419  -0.042   1.078  0.3736 -0.5025  0.1900
  576poe    c31 2581   0.520   4.342   3.908 -0.0864 -0.2553 -0.5561
  576poe     o2 2582   0.563   4.207   3.914 -0.0782 -0.2419 -0.2800
  576poe    c23 2583   0.508   4.141   4.025  0.2573 -0.2203 -0.0990
  576poe    c23 2584   0.500   3.991   3.990  0.5438 -0.3176  0.2468
  576poe     o2 2585   0.628   3.954   3.944  0.5220 -0.3157  0.1838
  576poe    c23 2586   0.615   3.870   3.831  0.3095  0.3151 -0.2626
  576poe    c23 2587   0.735   3.777   3.810 -0.0573 -0.1416 -0.3490
  576poe     o2 2588   0.784   3.760   3.941  0.2378 -0.0315 -0.4436
  576poe    c23 2589   0.836   3.629   3.956  0.0016 -0.0645  0.0947
  576poe    c23 2590   0.870   3.644   4.105 -0.1709 -0.8210  0.2124
  576poe     o2 2591   0.926   3.768   4.142  0.1499 -0.7463 -0.5143
  576poe    c31 2592   1.015   3.754   4.251 -0.4756  0.3971  0.1664
  577poe    c31 2593   5.208   6.354   1.122 -0.3030  0.6037 -0.5312
  577poe     o2 2594   5.112   6.290   1.202  0.0393  0.2804 -0.3783
  577poe    c23 2595   5.023   6.221   1.117  0.1980 -0.2277 -0.1358
  577poe    c23 2596   4.899   6.175   1.196 -0.0408  0.0536 -0.3454
  577poe     o2 2597   4.791   6.262   1.223 -0.2341 -0.1137 -0.5737
  577poe    c23 2598   4.682   6.214   1.298  0.0044 -0.2092 -0.2814
  577poe    c23 2599   4.667   6.301   1.424 -0.4068  0.1352 -0.5629
  577poe     o2 2600   4.667   6.438   1.389  0.1368  0.2361 -0.1880
  577poe    c23 2601   4.623   6.504   1.506 -0.7520 -0.0588 -0.3420
  577poe    c23 2602   4.565   6.646   1.488  0.1693  0.4419  0.5575
  577poe     o2 2603   4.632   6.699   1.376 -0.0754 -0.0611  0.1712
  577poe    c31 2604   4.593   6.834   1.367  0.0417 -0.0593 -0.3693
  578poe    c31 2605   5.760   0.133   3.121 -0.2498  0.1003 -0.3607
  578poe     o2 2606   5.645   0.130   3.202 -0.1259 -0.0973 -0.1895
  578poe    c23 2607   5.679   0.121   3.339  0.0542  0.0329 -0.2255
  578poe    c23 2608   5.549   0.148   3.417  0.1948  0.0024  0.0173
  578poe     o2 2609   5.464   0.236   3.347 -0.0914 -0.0504  0.2953
  578poe    c23 2610   5.399   0.314   3.445 -0.4471 -0.0413  0.0516
  578poe    c23 2611   5.298   0.422   3.402 -0.1342  0.3312  0.2442
  578poe     o2 2612   5.175   0.389   3.341 -0.0450  0.3547  0.0520
  578poe    c23 2613   5.092   0.369   3.453  0.0550 -0.5878 -0.0347
  578poe    c23 2614   4.961   0.325   3.385  0.3774 -0.6823 -0.5980
  578poe     o2 2615   4.910   0.422   3.295  0.0618 -0.4890 -0.2130
  578poe    c31 2616   4.779   0.389   3.253 -0.2869  0.5562  0.0439
  579poe    c31 2617   0.280   3.168   2.880  0.6485 -0.1864  0.2682
  579poe     o2 2618   0.279   3.038   2.827 -0.3854 -0.0807 -0.0092
  579poe    c23 2619   0.365   2.948   2.894  0.0024  0.1440 -0.1990
  579poe    c23 2620   0.304   2.811   2.859 -0.4097  0.3528 -0.3052
  579poe     o2 2621   0.289   2.804   2.719 -0.0430 -0.3561 -0.3129
  579poe    c23 2622   0.279   2.667   2.685 -1.0229 -0.4607  0.3322
  579poe    c23 2623   0.218   2.638   2.546 -0.0388  0.5642 -0.3332
  579poe     o2 2624   0.299   2.683   2.440  0.2304  0.1837 -0.2929
  579poe    c23 2625   0.234   2.631   2.326 -0.2374  0.3735 -0.1160
  579poe    c23 2626   0.288   2.659   2.184  0.3329 -0.2122 -0.0165
  579poe     o2 2627   0.282   2.796   2.155 -0.3646 -0.2061  0.1434
  579poe    c31 2628   0.348   2.828   2.034 -0.5334 -0.7586 -0.0943
  580poe    c31 2629   2.675   4.577   3.536 -0.7210 -0.7814 -0.1093
  580poe     o2 2630   2.651   4.548   3.671 -0.0464 -0.4999  0.0757
  580poe    c23 2631   2.569   4.649   3.726 -0.1115 -0.4067 -0.1931
  580poe    c23 2632   2.569   4.648   3.880  0.6075  0.1705 -0.1835
  580poe     o2 2633   2.562   4.508   3.891 -0.1261  0.2139 -0.1095
  580poe    c23 2634   2.590   4.447   4.015 -0.6419 -0.2746 -0.2265
  580poe    c23 2635   2.527   4.308   4.033 -0.9240 -0.1318 -0.0923
  580poe     o2 2636   2.572   4.242   3.917 -0.3177  0.6071 -0.2871
  580poe    c23 2637   2.529   4.108   3.930 -0.1428  0.5036 -0.7338
  580poe    c23 2638   2.561   4.015   3.812 -0.3029 -0.1709 -0.2519
  580poe     o2 2639   2.479   4.034   3.699 -0.2792 -0.0758 -0.2527
  580poe    c31 2640   2.537   3.950   3.601  0.3171 -0.1383  0.1452
  581poe    c31 2641   2.925   2.221   1.100 -0.0376  0.4526 -0.5330
  581poe     o2 2642   3.060   2.259   1.085 -0.0733  0.6332 -0.4032
  581poe    c23 2643   3.113   2.350   1.179 -0.0499 -0.2171  0.4260
  581poe    c23 2644   3.250   2.324   1.245  0.0713 -0.6813 -0.0013
  581poe     o2 2645   3.359   2.316   1.156  0.3626  1.2316  0.1462
  581poe    c23 2646   3.483   2.310   1.223  0.0516  0.1641  0.6401
  581poe    c23 2647   3.592   2.280   1.119 -0.5377 -0.0809  0.0803
  581poe     o2 2648   3.581   2.151   1.065  0.4276 -0.2119  0.1706
  581poe    c23 2649   3.704   2.122   1.001  0.5126  0.1084  0.1914
  581poe    c23 2650   3.676   2.023   0.887  0.3334  0.2882  0.0760
  581poe     o2 2651   3.555   2.052   0.820  0.0715 -0.1983  0.3283
  581poe    c31 2652   3.499   1.936   0.764 -0.1378 -0.5670  1.2737
  582poe    c31 2653   6.784   0.360   3.738 -0.4705 -0.0715 -0.2749
  582poe     o2 2654   6.681   0.309   3.656  0.0640 -0.3496 -0.7781
  582poe    c23 2655   6.592   0.223   3.722 -0.5252  0.3831 -0.6075
  582poe    c23 2656   6.550   0.118   3.618  0.5560 -0.1453 -0.5259
  582poe     o2 2657   6.546   0.178   3.490  0.0709  0.1737 -0.3644
  582poe    c23 2658   6.485   0.104   3.387 -0.1302 -0.1495 -0.0145
  582poe    c23 2659   6.453   0.187   3.261 -0.3782 -0.1717  0.0322
  582poe     o2 2660   6.567   0.268   3.241 -0.5746  0.1933  0.3770
  582poe    c23 2661   6.560   0.328   3.113  0.5846 -0.2945  0.0738
  582poe    c23 2662   6.678   0.425   3.091  0.0286  0.1768 -0.8790
  582poe     o2 2663   6.805   0.370   3.114 -0.2416 -0.3119 -0.5365
  582poe    c31 2664   6.882   0.404   3.001 -0.0383 -0.3201 -0.4014
  583poe    c31 2665   3.730   5.278   3.572 -0.2893  0.3571  0.6334
  583poe     o2 2666   3.823   5.232   3.667  0.1178 -0.2771 -0.0621
  583poe    c23 2667   3.747   5.181   3.774 -0.1622  0.2139 -0.0271
  583poe    c23 2668   3.847   5.155   3.888  0.2666 -0.1532 -0.4858
  583poe     o2 2669   3.936   5.262   3.911  0.3396 -0.3789  0.3122
  583poe    c23 2670   3.878   5.386   3.945  0.2203 -0.5440  0.7191
  583poe    c23 2671   3.986   5.496   3.939  0.0654 -0.3874  0.7947
  583poe     o2 2672   4.044   5.496   3.810 -0.3764  0.4252  0.5889
  583poe    c23 2673   4.055   5.628   3.763  0.8699  0.2887  0.4517
  583poe    c23 2674   4.080   5.610   3.612  0.1304  0.3090  0.3230
  583poe     o2 2675   4.190   5.523   3.606 -0.2233 -0.1011 -0.4821
  583poe    c31 2676   4.256   5.517   3.482  0.7604  0.8298 -0.0231
  584poe    c31 2677   5.845   6.190   3.607  0.2239  0.3044 -0.1796
  584poe     o2 2678   5.705   6.177   3.617  0.2377  0.1038 -0.2233
  584poe    c23 2679   5.645   6.305   3.608 -0.0257 -0.0153 -0.1701
  584poe    c23 2680   5.495   6.273   3.596 -0.0740  0.2307 -0.2211
  584poe     o2 2681   5.471   6.192   3.709 -0.9974  0.5989 -0.1410
  584poe    c23 2682   5.336   6.153   3.723 -0.9405  0.4346 -0.0516
  584poe    c23 2683   5.329   6.019   3.799  0.2928  0.1510 -0.4138
  584poe     o2 2684   5.446   5.957   3.751  0.5497  0.0871  0.2907
  584poe    c23 2685   5.439   5.833   3.684  0.7665 -0.0011  0.4260
  584poe    c23 2686   5.509   5.836   3.547 -0.4041  1.1837 -0.1712
  584poe     o2 2687   5.635   5.897   3.563  0.0796  0.1920 -0.1685
  584poe    c31 2688   5.695   5.858   3.441 -0.2106 -0.5620 -0.0764
  585poe    c31 2689   5.426   1.701   1.114 -0.4230 -0.7526  0.5013
  585poe     o2 2690   5.375   1.728   0.985 -0.3313 -0.3821  0.5385
  585poe    c23 2691   5.272   1.824   0.970  0.2206  0.1391  0.0693
  585poe    c23 2692   5.236   1.840   0.821  0.1788  0.0404  0.0688
  585poe     o2 2693   5.356   1.863   0.751  0.2663  0.3336  0.3119
  585poe    c23 2694   5.315   1.857   0.616  0.8671 -0.9237  0.1742
  585poe    c23 2695   5.424   1.919   0.526  0.3256  0.2890  0.3378
  585poe     o2 2696   5.548   1.871   0.572  0.0776 -0.0013  0.7017
  585poe    c23 2697   5.649   1.908   0.482  0.4796 -1.2573  0.6113
  585poe    c23 2698   5.745   1.984   0.575 -0.0010  0.0148  0.1030
  585poe     o2 2699   5.797   1.902   0.678  0.1968 -0.0726 -0.0646
  585poe    c31 2700   5.918   1.943   0.737  0.3518 -0.4956 -0.0863
  586poe    c31 2701   4.274   6.502   3.251 -0.3734  0.2860  0.4389
  586poe     o2 2702   4.164   6.425   3.293  0.0944 -0.3925  0.4464
  586poe    c23 2703   4.209   6.292   3.300 -0.0889 -0.4989 -0.3751
  586poe    c23 2704   4.089   6.213   3.355 -0.2436  0.2399  0.3628
  586poe     o2 2705   4.054   6.226   3.491 -0.2408  0.2562  0.3622
  586poe    c23 2706   3.935   6.160   3.525 -0.0398 -0.4351 -0.2645
  586poe    c23 2707   3.933   6.101   3.667  0.4115 -0.4448 -0.2612
  586poe     o2 2708   3.907   6.207   3.756  0.3943 -0.3166 -0.4182
  586poe    c23 2709   3.909   6.165   3.891  0.2160 -0.3533 -0.4270
  586poe    c23 2710   3.816   6.267   3.958  0.3319 -0.4881 -0.0602
  586poe     o2 2711   3.879   6.386   3.918 -0.2157 -0.0569  0.3462
  586poe    c31 2712   3.811   6.491   3.983  0.5883  0.6739  0.0286
  587poe    c31 2713   3.589   0.921   3.842  0.1365 -0.2446 -0.5835
  587poe     o2 2714   3.716   0.927   3.903 -0.3545 -0.2380  0.4528
  587poe    c23 2715   3.719   0.851   4.022 -0.6207 -0.5580  0.2544
  587poe    c23 2716   3.858   0.872   4.084 -0.8190  0.3055  0.4186
  587poe     o2 2717   3.885   1.010   4.088  0.9679 -0.0065 -0.1089
  587poe    c23 2718   3.997   1.027   4.173  0.5766  0.0287  0.4027
  587poe    c23 2719   3.998   1.179   4.200  1.2329  0.0150  0.4716
  587poe     o2 2720   4.017   1.254   4.083 -0.0997 -0.4089 -0.0417
  587poe    c23 2721   4.000   1.391   4.112 -0.2051 -0.4012 -0.1370
  587poe    c23 2722   3.966   1.469   3.984  0.4127  0.0319 -0.0395
  587poe     o2 2723   3.864   1.411   3.907 -0.4614  0.0730  1.0628
  587poe    c31 2724   3.797   1.506   3.826 -0.1750 -0.1264  0.5882
  588poe    c31 2725   3.431   0.223   3.295 -0.5333  0.3814  0.6187
  588poe     o2 2726   3.465   0.357   3.269 -0.0114  0.1546  0.1183
  588poe    c23 2727   3.370   0.430   3.195  0.0252  0.4144  0.3228
  588poe    c23 2728   3.363   0.582   3.216 -0.5692  0.5287 -0.6338
  588poe     o2 2729   3.336   0.613   3.351  0.0178  0.4195 -0.4917
  588poe    c23 2730   3.367   0.749   3.374  0.4444  0.2693 -0.1603
  588poe    c23 2731   3.294   0.807   3.496  0.6845 -0.2094  0.2166
  588poe     o2 2732   3.297   0.719   3.606  0.6574  0.0677  0.4408
  588poe    c23 2733   3.207   0.757   3.708  0.4192  0.3670  0.1248
  588poe    c23 2734   3.207   0.630   3.796 -0.0829  0.0360 -0.3504
  588poe     o2 2735   3.196   0.507   3.727  0.2704 -0.1471 -0.0814
  588poe    c31 2736   3.215   0.395   3.810 -0.2367  0.3159  0.6747
  589poe    c31 2737   6.309   1.742   6.176 -0.4328  0.0857  0.2665
  589poe     o2 2738   6.202   1.660   6.217 -0.3442 -0.0665  0.1981
  589poe    c23 2739   6.097   1.732   6.279 -0.1029 -0.0057  0.5438
  589poe    c23 2740   5.985   1.627   6.298 -0.1135 -0.1778 -0.3865
  589poe     o2 2741   6.042   1.522   6.372 -0.1449  0.4900  0.6097
  589poe    c23 2742   5.942   1.430   6.411  0.0696 -0.1077 -0.2180
  589poe    c23 2743   6.030   1.323   6.478  0.3402  0.4561  0.3372
  589poe     o2 2744   6.132   1.289   6.387 -0.1985  0.2046 -0.1799
  589poe    c23 2745   6.179   1.159   6.415  0.1208  0.2571 -0.4649
  589poe    c23 2746   6.319   1.139   6.353  0.2850 -0.4457  0.1177
  589poe     o2 2747   6.417   1.231   6.394  0.2030 -0.3653  0.1335
  589poe    c31 2748   6.545   1.210   6.339  0.1719  0.4831 -0.2842
  590poe    c31 2749   2.898   0.337   0.930  0.3843  0.1529  0.5377
  590poe     o2 2750   2.803   0.294   1.024 -0.7313  0.7493 -0.2858
  590poe    c23 2751   2.815   0.381   1.135  0.1625 -0.5577  0.6784
  590poe    c23 2752   2.684   0.379   1.215 -0.2179  0.3857  0.0967
  590poe     o2 2753   2.657   0.249   1.263 -0.2329  0.5284  0.4741
  590poe    c23 2754   2.520   0.228   1.290 -0.2360 -0.2068 -0.0918
  590poe    c23 2755   2.500   0.100   1.372 -0.2913 -0.3978 -0.4026
  590poe     o2 2756   2.578   0.007   1.300  0.4242  0.1897 -0.3993
  590poe    c23 2757   2.556  -0.121   1.356  0.0330  0.5928  0.3873
  590poe    c23 2758   2.638  -0.234   1.291  0.0602  0.5059  0.5704
  590poe     o2 2759   2.774  -0.257   1.319  0.3336  0.5501 -0.6374
  590poe    c31 2760   2.796  -0.365   1.407 -1.2816  0.5754 -0.1726
  591poe    c31 2761   2.618   3.940   2.837 -0.1031  0.0686 -0.0372
  591poe     o2 2762   2.575   3.988   2.712  0.1879  0.5439  0.0424
  591poe    c23 2763   2.621   3.916   2.600 -0.6465  0.2592 -0.1222
  591poe    c23 2764   2.595   3.998   2.473 -0.1399  0.5174 -0.0602
  591poe     o2 2765   2.464   4.033   2.432 -0.0479  0.5693 -0.3141
  591poe    c23 2766   2.469   4.063   2.294  0.3188 -0.2932 -0.4914
  591poe    c23 2767   2.324   4.099   2.259  0.2755 -0.2129 -0.2288
  591poe     o2 2768   2.232   3.999   2.295  0.1831 -0.0913 -0.1219
  591poe    c23 2769   2.100   4.026   2.254 -0.0209  0.3112  0.7634
  591poe    c23 2770   2.011   3.918   2.319 -0.3682  0.3954  0.4315
  591poe     o2 2771   2.078   3.887   2.438  0.3186 -0.3288 -0.1305
  591poe    c31 2772   1.993   3.829   2.535 -0.2565  0.2897 -0.2602
  592poe    c31 2773   0.602   5.253   4.712 -0.2424 -0.0674 -0.5783
  592poe     o2 2774   0.678   5.338   4.795 -0.5323 -0.4748  0.1089
  592poe    c23 2775   0.596   5.448   4.824  0.1913  0.1055 -0.0244
  592poe    c23 2776   0.624   5.505   4.965  0.2504  0.3104 -0.1180
  592poe     o2 2777   0.759   5.470   4.989  0.1103 -0.5084 -0.4752
  592poe    c23 2778   0.802   5.527   5.111  0.0750 -0.3902 -0.5177
  592poe    c23 2779   0.920   5.449   5.170  0.0840 -0.0668 -0.1088
  592poe     o2 2780   1.038   5.445   5.092  0.4419 -0.0768  0.4241
  592poe    c23 2781   1.162   5.410   5.148  0.7272  0.0619 -0.1173
  592poe    c23 2782   1.209   5.500   5.264  0.4280 -0.1566  0.1763
  592poe     o2 2783   1.242   5.628   5.215  0.7033 -0.2208  0.1942
  592poe    c31 2784   1.231   5.723   5.318 -0.0613 -0.1546  0.0590
  593poe    c31 2785   5.162   4.295   3.170 -0.0642  0.4080  0.2002
  593poe     o2 2786   5.158   4.229   3.045 -0.9176 -0.1619  0.5202
  593poe    c23 2787   5.286   4.230   2.985 -0.9753  0.3583  0.4025
  593poe    c23 2788   5.273   4.179   2.840 -0.2133  0.6964  0.2086
  593poe     o2 2789   5.214   4.051   2.847  0.2811  0.4853  0.5805
  593poe    c23 2790   5.277   3.961   2.760 -0.6300  0.0780  0.3307
  593poe    c23 2791   5.207   3.824   2.772  0.2174 -0.3868  0.0969
  593poe     o2 2792   5.076   3.833   2.721  0.2607 -0.3807 -0.0132
  593poe    c23 2793   4.996   3.726   2.767 -0.2019 -0.0721 -0.0956
  593poe    c23 2794   4.849   3.771   2.755 -0.1534  0.0947 -0.0644
  593poe     o2 2795   4.836   3.891   2.829 -0.1010 -0.0862  0.2394
  593poe    c31 2796   4.701   3.896   2.868 -0.0352 -0.1520  0.4769
  594poe    c31 2797   4.498   1.947   2.228  0.1649  0.2812 -0.1457
  594poe     o2 2798   4.521   1.896   2.358 -0.2983  0.3702 -0.0253
  594poe    c23 2799   4.497   1.757   2.352  0.0703  0.2997  0.0940
  594poe    c23 2800   4.534   1.694   2.487 -0.7428 -0.2218  0.0809
  594poe     o2 2801   4.499   1.791   2.583  0.1934  0.1036  0.1112
  594poe    c23 2802   4.492   1.716   2.703 -0.3509 -0.0155  0.0091
  594poe    c23 2803   4.426   1.807   2.808  0.4645  0.0468  0.4764
  594poe     o2 2804   4.289   1.828   2.782  0.4966 -0.4223 -0.0984
  594poe    c23 2805   4.242   1.911   2.886 -0.3970 -0.9131 -0.0947
  594poe    c23 2806   4.135   2.013   2.843  0.1747 -0.3630 -0.2429
  594poe     o2 2807   4.195   2.094   2.744  0.2899  0.5968  0.5971
  594poe    c31 2808   4.116   2.202   2.699 -0.1330  0.0872  0.0902
  595poe    c31 2809   0.669   4.047   2.746 -0.1325  0.2767 -0.2219
  595poe     o2 2810   0.710   3.972   2.634  0.4903  0.0681  0.1414
  595poe    c23 2811   0.793   3.859   2.646 -0.0183 -0.2761  0.4683
  595poe    c23 2812   0.723   3.727   2.680 -0.3535 -0.1777  0.1545
  595poe     o2 2813   0.637   3.677   2.579 -0.1260 -0.4239  0.0797
  595poe    c23 2814   0.531   3.613   2.648 -0.4263  0.0229  0.0355
  595poe    c23 2815   0.467   3.515   2.548 -0.1800 -0.4071  0.2956
  595poe     o2 2816   0.434   3.589   2.432 -0.0901 -0.1751  0.4170
  595poe    c23 2817   0.322   3.535   2.366 -0.0724  0.0598  0.1945
  595poe    c23 2818   0.290   3.652   2.271 -0.0027 -0.3479 -0.3392
  595poe     o2 2819   0.404   3.716   2.219  0.1403 -0.0376  0.3424
  595poe    c31 2820   0.388   3.758   2.085 -0.0869 -1.0513  0.0473
  596poe    c31 2821   3.238   5.799   3.947  0.0162  0.1785  0.5766
  596poe     o2 2822   3.273   5.903   4.035  0.0658  0.4422  0.2491
  596poe    c23 2823   3.412   5.925   4.037  0.2310 -0.5226  0.2185
  596poe    c23 2824   3.448   6.037   4.137  0.1779  0.2757 -0.6369
  596poe     o2 2825   3.412   6.171   4.114 -0.2589  0.3643  0.5100
  596poe    c23 2826   3.470   6.244   4.219  0.1069  0.5983  0.1486
  596poe    c23 2827   3.463   6.395   4.190  0.3185  0.6734  0.4797
  596poe     o2 2828   3.336   6.420   4.133 -0.0432 -0.8395  0.5781
  596poe    c23 2829   3.291   6.547   4.175 -0.2159 -0.6340 -0.2287
  596poe    c23 2830   3.138   6.557   4.166 -0.1638  0.0620 -0.4063
  596poe     o2 2831   3.081   6.481   4.271  0.3076 -0.3708 -0.4611
  596poe    c31 2832   2.941   6.489   4.266  0.3010 -0.4028 -0.3121
  597poe    c31 2833   4.527   0.339   0.662 -0.3619 -0.4106 -0.1662
  597poe     o2 2834   4.650   0.408   0.661 -0.3759 -0.3870 -0.2474
  597poe    c23 2835   4.723   0.360   0.772  0.5304 -0.3687 -0.8275
  597poe    c23 2836   4.840   0.459   0.791  0.1901 -0.0602 -0.3322
  597poe     o2 2837   4.889   0.480   0.661  0.0663 -0.1987 -0.4030
  597poe    c23 2838   4.993   0.576   0.661 -0.5584  0.4834 -0.2410
  597poe    c23 2839   5.044   0.587   0.517 -0.8252 -0.0375 -0.3788
  597poe     o2 2840   5.127   0.477   0.487  0.1726  0.4598  0.4941
  597poe    c23 2841   5.195   0.503   0.365  0.1090 -0.6855  0.2086
  597poe    c23 2842   5.329   0.428   0.362  0.2720 -0.3925  0.1871
  597poe     o2 2843   5.285   0.299   0.398 -0.0657 -0.2855  0.1539
  597poe    c31 2844   5.384   0.211   0.351 -0.4523 -0.6196 -0.0485
  598poe    c31 2845   4.778   6.103   2.932 -0.2968 -0.1256  0.0233
  598poe     o2 2846   4.746   6.214   3.013  0.2408  0.5880 -0.7318
  598poe    c23 2847   4.645   6.289   2.949  0.3166  0.8164 -0.5860
  598poe    c23 2848   4.685   6.436   2.970  0.1139  0.7865  0.0126
  598poe     o2 2849   4.695   6.453   3.110  0.5156 -0.1645  0.1033
  598poe    c23 2850   4.767   6.569   3.145  0.5399 -0.2116  0.2121
  598poe    c23 2851   4.748   6.578   3.297 -0.4231  0.5226  0.0599
  598poe     o2 2852   4.802   6.463   3.359 -0.3110  0.3049 -0.4356
  598poe    c23 2853   4.787   6.461   3.499  0.1906 -0.7074 -0.3895
  598poe    c23 2854   4.649   6.395   3.521 -0.0054 -0.4349 -0.7964
  598poe     o2 2855   4.644   6.254   3.521 -0.4686 -0.4201 -0.3240
  598poe    c31 2856   4.633   6.207   3.653 -0.1332  0.0701 -0.1199
  599poe    c31 2857   2.899   6.569   6.643  0.0561 -0.1810 -0.4587
  599poe     o2 2858   3.018   6.492   6.644 -0.4162 -0.9157 -0.0247
  599poe    c23 2859   3.107   6.544   6.739 -0.3506 -0.2809 -0.4245
  599poe    c23 2860   3.236   6.461   6.753 -0.3423 -0.1881  0.0768
  599poe     o2 2861   3.190   6.339   6.808  0.4921 -0.5411  0.0002
  599poe    c23 2862   3.273   6.225   6.797  0.3908 -0.6103 -0.0468
  599poe    c23 2863   3.231   6.129   6.909  0.7341 -0.1816  0.4549
  599poe     o2 2864   3.099   6.083   6.891  0.2467  0.9457  1.0774
  599poe    c23 2865   3.050   5.993   6.988  0.4590 -0.1501  0.1813
  599poe    c23 2866   2.917   5.936   6.934  0.2257  0.2671  0.3153
  599poe     o2 2867   2.820   6.038   6.934  0.0786  0.1254  0.0972
  599poe    c31 2868   2.690   5.983   6.924 -0.1696  0.6713  0.2656
  600poe    c31 2869   0.241   5.501   3.907  0.0668 -0.2410 -0.2258
  600poe     o2 2870   0.380   5.496   3.881  0.1200 -0.0647  0.0226
  600poe    c23 2871   0.438   5.392   3.958 -0.1379  0.1364  0.4945
  600poe    c23 2872   0.566   5.340   3.890 -0.4610  0.3228 -0.2666
  600poe     o2 2873   0.562   5.259   3.774 -0.0209 -0.3423  0.1791
  600poe    c23 2874   0.684   5.189   3.764  0.0460 -0.2235  0.1580
  600poe    c23 2875   0.688   5.114   3.630  0.2372  0.1237 -0.0329
  600poe     o2 2876   0.655   5.218   3.541  0.0253  0.1863  0.1173
  600poe    c23 2877   0.674   5.170   3.410  0.7678  0.0656  0.2667
  600poe    c23 2878   0.628   5.273   3.305 -0.2465 -0.0957  0.5433
  600poe     o2 2879   0.498   5.304   3.348  0.1367  0.8245  1.0529
  600poe    c31 2880   0.405   5.338   3.247 -0.1913  0.4411  1.2219
  601poe    c31 2881   2.382   2.172   2.088 -0.4465 -0.0838  0.0499
  601poe     o2 2882   2.358   2.304   2.044 -0.1253 -0.0803 -0.1212
  601poe    c23 2883   2.471   2.380   2.010  0.0309 -0.1987  0.1314
  601poe    c23 2884   2.419   2.522   1.978 -0.3413 -0.3437  0.0897
  601poe     o2 2885   2.303   2.504   1.900 -0.1394 -0.5911 -0.1578
  601poe    c23 2886   2.286   2.619   1.821  0.0360 -0.6017 -0.2104
  601poe    c23 2887   2.142   2.619   1.769  0.1172 -0.1779 -0.4409
  601poe     o2 2888   2.131   2.484   1.728  0.1183 -0.2773 -0.1141
  601poe    c23 2889   2.003   2.456   1.677 -0.1864  0.2479  0.3488
  601poe    c23 2890   2.031   2.343   1.576 -0.4340  0.4072  0.1011
  601poe     o2 2891   2.096   2.228   1.626 -0.6984  0.2183  0.0125
  601poe    c31 2892   2.060   2.112   1.554 -0.3634  0.1474 -0.0402
  602poe    c31 2893   5.699   5.401   4.412  0.7860  0.2167  0.0130
  602poe     o2 2894   5.635   5.508   4.347  0.4621  0.1634  0.2430
  602poe    c23 2895   5.631   5.626   4.425 -0.0039  0.3923 -0.1198
  602poe    c23 2896   5.501   5.699   4.389  0.0096  0.6070  0.2643
  602poe     o2 2897   5.472   5.661   4.257  0.3015  0.9069  0.1129
  602poe    c23 2898   5.488   5.757   4.155  0.4328  0.2245 -0.5163
  602poe    c23 2899   5.459   5.704   4.013  0.4625 -0.2167 -0.3593
  602poe     o2 2900   5.554   5.600   4.016  0.4701 -0.1958  0.3292
  602poe    c23 2901   5.571   5.526   3.897 -0.0389  0.3623 -0.1009
  602poe    c23 2902   5.701   5.444   3.914 -0.1533  0.2656  0.3295
  602poe     o2 2903   5.704   5.410   4.050  0.2806  0.2681  0.3235
  602poe    c31 2904   5.824   5.340   4.073  0.0536 -0.2340 -0.0124
  603poe    c31 2905   4.282   6.439   1.315  0.3734 -0.1723 -0.1519
  603poe     o2 2906   4.385   6.517   1.258  0.1139  0.2893  0.0090
  603poe    c23 2907   4.429   6.463   1.136 -0.2547  0.4014 -0.1740
  603poe    c23 2908   4.501   6.574   1.058 -0.4021  0.3539 -0.3791
  603poe     o2 2909   4.624   6.588   1.125 -0.5267  0.1978 -0.1172
  603poe    c23 2910   4.711   6.686   1.071  0.2547  0.1496  1.0006
  603poe    c23 2911   4.860   6.673   1.105  0.5914 -0.2163 -0.5067
  603poe     o2 2912   4.868   6.662   1.246  0.1284 -0.0668 -0.4674
  603poe    c23 2913   4.999   6.663   1.298 -0.1166 -0.0985  0.1595
  603poe    c23 2914   5.030   6.590   1.430  0.1849 -0.0135  0.1347
  603poe     o2 2915   4.964   6.657   1.535 -0.1214 -0.1631  0.0367
  603poe    c31 2916   5.009   6.614   1.662  0.3679 -0.1603 -0.1319
  604poe    c31 2917   1.934   1.715   1.415  0.4802 -0.6665 -0.0888
  604poe     o2 2918   1.830   1.622   1.435  0.1150 -0.1676  0.3459
  604poe    c23 2919   1.816   1.554   1.558 -0.1759 -0.2549  0.2657
  604poe    c23 2920   1.674   1.495   1.554 -0.3167  0.1092 -0.3194
  604poe     o2 2921   1.647   1.368   1.499  0.0900 -0.0787 -0.0861
  604poe    c23 2922   1.683   1.259   1.582 -0.1079 -0.2660 -0.2469
  604poe    c23 2923   1.644   1.128   1.511 -0.2521 -0.1028 -0.4712
  604poe     o2 2924   1.679   1.141   1.375  0.0099  0.0620 -0.3893
  604poe    c23 2925   1.675   1.016   1.309  0.0874 -0.2115  0.1254
  604poe    c23 2926   1.693   1.044   1.159 -0.2703  0.1033  0.1395
  604poe     o2 2927   1.615   1.149   1.106  0.1800  0.0557 -0.6393
  604poe    c31 2928   1.668   1.192   0.983  0.1481  0.6548 -0.4443
  605poe    c31 2929   5.873   0.375   1.982 -0.1518  0.0587 -0.1019
  605poe     o2 2930   5.869   0.279   2.084 -0.3601  0.7870  0.5851
  605poe    c23 2931   5.736   0.260   2.127 -0.2898 -0.3049  0.3528
  605poe    c23 2932   5.744   0.180   2.258 -0.0519 -0.0370  0.5017
  605poe     o2 2933   5.828   0.071   2.224 -0.5632 -0.1645 -0.3779
  605poe    c23 2934   5.881   0.005   2.337 -0.3516 -0.0424 -0.4052
  605poe    c23 2935   6.002  -0.082   2.298 -0.4370  0.0648 -0.9194
  605poe     o2 2936   6.084   0.003   2.221  0.1093  0.0882 -0.3208
  605poe    c23 2937   6.171  -0.073   2.139  0.4428 -0.1678  0.2670
  605poe    c23 2938   6.260   0.038   2.080  0.0604  0.0781  0.1529
  605poe     o2 2939   6.166   0.136   2.040 -0.4495 -0.4847 -0.0481
  605poe    c31 2940   6.227   0.246   1.976  0.4930 -0.9736 -0.0079
  606poe    c31 2941   3.784   6.677   0.533 -0.5238  0.3139  0.2143
  606poe     o2 2942   3.832   6.786   0.458 -0.3007  0.1125  0.0620
  606poe    c23 2943   3.935   6.740   0.373 -0.2623  0.0490  0.1428
  606poe    c23 2944   3.977   6.845   0.268 -0.1858 -0.2574 -0.1350
  606poe     o2 2945   3.874   6.870   0.175 -0.1636  0.1667 -0.0458
  606poe    c23 2946   3.909   6.967   0.079  0.2732  0.1792  0.1227
  606poe    c23 2947   3.784   7.027   0.010  0.4794  0.3978 -0.0623
  606poe     o2 2948   3.694   7.090   0.098 -0.5612 -0.5583 -0.4288
  606poe    c23 2949   3.622   7.201   0.048  0.4279  0.1859 -0.2251
  606poe    c23 2950   3.548   7.265   0.167  0.0760 -0.2304 -0.2173
  606poe     o2 2951   3.503   7.156   0.244  0.3750  0.0319  0.3311
  606poe    c31 2952   3.420   7.186   0.354 -0.2920  0.0790 -0.1777
  607poe    c31 2953   6.603   2.600   3.390 -0.2902 -0.0790 -0.1783
  607poe     o2 2954   6.725   2.634   3.453 -0.1735 -0.3845 -0.2375
  607poe    c23 2955   6.784   2.747   3.392 -0.5854  0.0394  0.1399
  607poe    c23 2956   6.936   2.769   3.405 -0.5221  0.0434 -0.5616
  607poe     o2 2957   7.001   2.653   3.359 -0.3774 -0.1675  0.1532
  607poe    c23 2958   7.140   2.665   3.382 -0.3847  0.7952 -0.2337
  607poe    c23 2959   7.215   2.589   3.271  0.1240  0.1811  0.5224
  607poe     o2 2960   7.163   2.458   3.283  0.2260  0.1401  0.5189
  607poe    c23 2961   7.226   2.358   3.207 -0.1503  0.3772 -0.1087
  607poe    c23 2962   7.147   2.229   3.239 -0.0639  0.5062  0.6465
  607poe     o2 2963   7.008   2.250   3.238 -0.2391 -0.6062 -0.1721
  607poe    c31 2964   6.947   2.124   3.255 -0.2526 -0.5380  0.2915
  608poe    c31 2965   2.492   0.369   4.271  0.4519 -0.1066 -0.0466
  608poe     o2 2966   2.402   0.302   4.358  0.5624 -0.5704 -0.2852
  608poe    c23 2967   2.337   0.193   4.297  0.1016 -0.1600 -0.5370
  608poe    c23 2968   2.225   0.161   4.398  0.6351 -0.2018  0.0441
  608poe     o2 2969   2.275   0.155   4.530 -0.0398  0.0861  0.3152
  608poe    c23 2970   2.167   0.144   4.621 -0.5311 -0.2756 -0.3034
  608poe    c23 2971   2.210   0.130   4.768  0.4753 -0.0220 -0.5625
  608poe     o2 2972   2.298   0.236   4.799  0.3274 -0.0630  0.0041
  608poe    c23 2973   2.335   0.226   4.935  0.4672 -0.3283 -0.0519
  608poe    c23 2974   2.457   0.315   4.967 -0.0765  0.5432 -0.3677
  608poe     o2 2975   2.566   0.292   4.880 -0.1438 -0.1672 -0.2650
  608poe    c31 2976   2.690   0.315   4.944  0.2036 -0.7798 -0.7039
  609poe    c31 2977   4.467   2.919   4.840 -0.4315 -0.1137  0.3976
  609poe     o2 2978   4.534   2.844   4.940  0.1618 -0.1033  0.0167
  609poe    c23 2979   4.551   2.911   5.062 -0.4837 -0.2676  0.2022
  609poe    c23 2980   4.644   2.831   5.155 -0.4408  0.0448  0.4303
  609poe     o2 2981   4.593   2.701   5.136 -0.1756  0.0017 -0.0024
  609poe    c23 2982   4.649   2.598   5.214 -0.5754 -0.1299  0.1146
  609poe    c23 2983   4.785   2.564   5.151 -0.4475  0.5256  0.0270
  609poe     o2 2984   4.745   2.557   5.016 -0.1385  0.9877 -0.0920
  609poe    c23 2985   4.858   2.592   4.940  0.2447  0.2173  0.1076
  609poe    c23 2986   4.811   2.578   4.794 -0.2834 -0.3476  0.3301
  609poe     o2 2987   4.674   2.606   4.809 -0.2439  0.2167 -0.3205
  609poe    c31 2988   4.634   2.601   4.674 -0.0200 -0.2082 -0.3746
  610poe    c31 2989   0.490   5.245   5.707  0.4318 -0.7376 -0.4178
  610poe     o2 2990   0.520   5.169   5.821  0.1212 -0.1272  0.0762
  610poe    c23 2991   0.477   5.242   5.934 -0.1781 -0.2549  0.0479
  610poe    c23 2992   0.533   5.175   6.061  0.0357 -0.4289 -0.1386
  610poe     o2 2993   0.533   5.041   6.016  0.0458 -0.0942 -1.1695
  610poe    c23 2994   0.637   4.978   6.089 -0.2083 -0.2673 -0.9556
  610poe    c23 2995   0.629   4.831   6.043  0.0654 -0.4904 -0.2928
  610poe     o2 2996   0.622   4.834   5.903 -0.4853  0.0635 -0.2563
  610poe    c23 2997   0.686   4.717   5.857 -0.1636  0.0070  0.3274
  610poe    c23 2998   0.674   4.699   5.704 -0.3134  0.1919  0.3165
  610poe     o2 2999   0.541   4.706   5.658 -0.1802 -0.1603 -0.1233
  610poe    c31 3000   0.516   4.673   5.523 -0.6539  0.0717 -0.0919
  611poe    c31 3001   5.108   4.206   1.188  0.2527  0.4090 -0.2108
  611poe     o2 3002   5.169   4.309   1.263  0.0051  0.3674  0.0522
  611poe    c23 3003   5.074   4.389   1.328 -0.2035  0.0852  0.0997
  611poe    c23 3004   5.128   4.490   1.432 -0.4410  0.1789  0.1335
  611poe     o2 3005   5.181   4.608   1.378  0.6207 -0.5260 -0.4007
  611poe    c23 3006   5.074   4.699   1.390  0.7953 -0.4343  0.4817
  611poe    c23 3007   5.139   4.830   1.440 -0.1238  0.0110  0.5449
  611poe     o2 3008   5.265   4.834   1.375 -0.4957 -0.0098 -0.1889
  611poe    c23 3009   5.298   4.971   1.361  0.2258 -0.2052 -0.4336
  611poe    c23 3010   5.445   5.006   1.389  0.1916 -0.6170  0.3038
  611poe     o2 3011   5.519   4.957   1.279  0.2146 -0.1276  0.0952
  611poe    c31 3012   5.653   5.000   1.282  0.2041 -0.1095  0.4061
  612poe    c31 3013   3.270   6.848   2.017 -0.2582  0.1035  1.0427
  612poe     o2 3014   3.219   6.728   2.070 -0.4480 -0.2251  0.1333
  612poe    c23 3015   3.221   6.729   2.211  0.1643 -0.0765  0.1267
  612poe    c23 3016   3.224   6.584   2.262 -0.0756 -0.1666 -0.1154
  612poe     o2 3017   3.124   6.501   2.205 -0.3940 -0.0593  0.2836
  612poe    c23 3018   3.144   6.369   2.250  0.4482 -0.3048 -0.7787
  612poe    c23 3019   3.018   6.281   2.249  0.1073  0.1389  0.5688
  612poe     o2 3020   2.931   6.306   2.357  0.0245  0.1114  0.5090
  612poe    c23 3021   2.796   6.280   2.325 -0.0320  0.0681  0.7788
  612poe    c23 3022   2.692   6.274   2.439 -0.1233 -0.1346  0.6841
  612poe     o2 3023   2.674   6.144   2.490 -0.3224 -0.4097 -0.0759
  612poe    c31 3024   2.591   6.145   2.604  0.0932 -0.0390  0.2266
  613poe    c31 3025   4.546   2.406   2.460  0.1105 -0.1185  0.0999
  613poe     o2 3026   4.502   2.441   2.330  0.1651 -0.0788  0.0919
  613poe    c23 3027   4.383   2.372   2.298 -0.0277  0.5108 -0.4862
  613poe    c23 3028   4.351   2.413   2.153  0.1700  0.4204 -0.5562
  613poe     o2 3029   4.474   2.375   2.095  0.4363  0.4146  0.0070
  613poe    c23 3030   4.466   2.342   1.958 -0.1952  0.6290 -0.0113
  613poe    c23 3031   4.554   2.452   1.897 -0.2279  0.2829 -0.6853
  613poe     o2 3032   4.671   2.452   1.974 -0.3131 -0.1591 -0.5547
  613poe    c23 3033   4.774   2.535   1.925  0.2554 -0.3113  0.3482
  613poe    c23 3034   4.807   2.616   2.052  0.5410 -0.0483  0.1074
  613poe     o2 3035   4.777   2.538   2.165  0.1914 -0.0012  0.0494
  613poe    c31 3036   4.810   2.601   2.287  0.3246 -0.0202  0.0233
  614poe    c31 3037   4.686   6.554   2.143  0.1426 -0.0523  0.5623
  614poe     o2 3038   4.815   6.502   2.119  0.1198  0.3442 -0.5140
  614poe    c23 3039   4.824   6.454   1.987 -0.1720  0.2223 -0.4905
  614poe    c23 3040   4.967   6.403   1.968 -0.2099 -0.2186  0.3526
  614poe     o2 3041   5.056   6.492   2.032  0.1109 -0.0943 -0.2570
  614poe    c23 3042   5.186   6.440   2.042  0.1356  0.0339  0.0870
  614poe    c23 3043   5.250   6.565   2.106 -0.5920  0.5490 -0.1872
  614poe     o2 3044   5.177   6.588   2.225 -0.1536 -0.7520  0.3593
  614poe    c23 3045   5.259   6.670   2.305 -0.0438 -0.1375 -0.3659
  614poe    c23 3046   5.179   6.762   2.400  0.7809 -0.0297  0.2391
  614poe     o2 3047   5.083   6.681   2.466  0.0201  0.5093 -0.1877
  614poe    c31 3048   5.050   6.724   2.596  0.7573 -0.0573  0.2004
  615poe    c31 3049   5.731   2.418   3.580 -0.2393 -0.5580  0.0195
  615poe     o2 3050   5.794   2.408   3.706  0.4558 -0.3950 -0.3077
  615poe    c23 3051   5.828   2.277   3.747 -0.4411 -0.6517 -0.3500
  615poe    c23 3052   5.886   2.280   3.890 -0.3539  0.1742 -0.3984
  615poe     o2 3053   6.010   2.345   3.874 -0.3246  0.0978 -0.4821
  615poe    c23 3054   6.107   2.245   3.851  0.1746  0.4367  0.1063
  615poe    c23 3055   6.247   2.295   3.894  0.0424 -0.0206  1.0943
  615poe     o2 3056   6.258   2.431   3.862  0.5070 -0.3089 -0.0222
  615poe    c23 3057   6.371   2.494   3.919  0.0155  0.1500  0.4538
  615poe    c23 3058   6.358   2.632   3.851 -0.2023  0.1770  0.5485
  615poe     o2 3059   6.227   2.683   3.853 -0.2513  0.0722  0.1917
  615poe    c31 3060   6.220   2.815   3.804 -0.0668 -0.1538 -0.4457
  616poe    c31 3061   5.250   0.752   6.858  0.4311 -0.5813  0.2379
  616poe     o2 3062   5.205   0.619   6.852  0.1414 -0.4580 -0.3372
  616poe    c23 3063   5.321   0.539   6.858  0.2615 -0.2534  0.1027
  616poe    c23 3064   5.272   0.393   6.867  0.3471 -0.2702  0.3051
  616poe     o2 3065   5.171   0.371   6.771  0.4195 -0.0930  0.1881
  616poe    c23 3066   5.076   0.273   6.806  0.1413  0.0599 -0.1262
  616poe    c23 3067   4.956   0.297   6.712 -0.1998 -0.0974  0.2658
  616poe     o2 3068   4.939   0.437   6.716  0.9616  0.0771 -0.2875
  616poe    c23 3069   4.855   0.485   6.613  0.5556  0.1234  0.0618
  616poe    c23 3070   4.848   0.636   6.644 -0.9050  0.2086 -0.6043
  616poe     o2 3071   4.979   0.682   6.671 -0.9447  0.0210 -0.0862
  616poe    c31 3072   4.977   0.821   6.648  0.1621 -0.0796 -0.8453
  617poe    c31 3073   4.185   1.963   1.328  0.5026  0.2139 -0.0895
  617poe     o2 3074   4.246   1.949   1.454 -0.4712 -0.2030  0.3453
  617poe    c23 3075   4.179   1.841   1.516  0.0103 -0.3084  0.6837
  617poe    c23 3076   4.228   1.808   1.658  0.0221 -0.1637  0.7134
  617poe     o2 3077   4.367   1.791   1.672  0.0990 -0.1280 -0.0160
  617poe    c23 3078   4.392   1.836   1.803 -0.4996  0.2344 -0.0236
  617poe    c23 3079   4.530   1.784   1.848 -0.4366  0.0944 -0.3732
  617poe     o2 3080   4.637   1.826   1.767 -0.1716  0.2625  0.0570
  617poe    c23 3081   4.725   1.723   1.728  0.3375  0.4665  0.6518
  617poe    c23 3082   4.846   1.777   1.649  0.0346 -0.6864 -0.6562
  617poe     o2 3083   4.791   1.849   1.541  0.4728 -0.4480 -0.7202
  617poe    c31 3084   4.888   1.865   1.439  0.4734  0.4697 -0.5821
  618poe    c31 3085   6.628   1.213   3.976 -0.7328 -0.0341 -0.7504
  618poe     o2 3086   6.599   1.078   4.005 -0.2213  0.0014 -0.0336
  618poe    c23 3087   6.492   1.063   4.095 -0.7570  0.5619 -0.5612
  618poe    c23 3088   6.484   0.919   4.150 -0.0159  0.5156 -0.5683
  618poe     o2 3089   6.607   0.865   4.194  0.0799  0.8273 -0.4459
  618poe    c23 3090   6.597   0.738   4.254  0.2161  0.5151 -1.0777
  618poe    c23 3091   6.711   0.766   4.354 -0.2780 -0.0049 -0.3570
  618poe     o2 3092   6.826   0.791   4.276  0.0694  0.4485  0.2917
  618poe    c23 3093   6.953   0.789   4.339  0.2351 -0.0159 -0.0465
  618poe    c23 3094   7.070   0.879   4.296  0.0741  0.1438 -0.1523
  618poe     o2 3095   7.053   1.018   4.315  0.4306  0.1222  0.3466
  618poe    c31 3096   7.175   1.084   4.292  0.0834  0.9734  0.9272
  619poe    c31 3097   4.237   2.298   5.835  0.1516  0.1627 -0.9131
  619poe     o2 3098   4.279   2.171   5.793 -0.1875 -0.2586 -0.0174
  619poe    c23 3099   4.287   2.078   5.898 -0.5849 -0.1362  0.1227
  619poe    c23 3100   4.386   1.969   5.852 -0.3063  0.2088 -0.0956
  619poe     o2 3101   4.337   1.917   5.730 -0.3184  0.4119 -0.1787
  619poe    c23 3102   4.432   1.824   5.683 -0.0001  0.5569  0.1655
  619poe    c23 3103   4.411   1.829   5.530 -0.0282 -0.5307  0.1262
  619poe     o2 3104   4.363   1.958   5.501  0.1730 -0.3756  0.4680
  619poe    c23 3105   4.356   1.992   5.364  0.3510 -0.1454  0.5154
  619poe    c23 3106   4.315   2.140   5.362  0.2964 -0.1683 -0.3243
  619poe     o2 3107   4.225   2.172   5.466 -0.1642  0.1215 -0.8051
  619poe    c31 3108   4.189   2.305   5.435 -0.1512  0.3461  0.1105
  620poe    c31 3109   3.757   5.334   2.403  0.2142  0.0908  0.4473
  620poe     o2 3110   3.833   5.279   2.508 -0.2451 -0.0207  0.7235
  620poe    c23 3111   3.906   5.166   2.465 -0.5841  0.0593 -0.0859
  620poe    c23 3112   3.844   5.031   2.425  0.3163 -0.3164 -0.2459
  620poe     o2 3113   3.785   4.951   2.526  0.4958  0.0909  0.1864
  620poe    c23 3114   3.729   4.840   2.459  0.7683 -0.3006  0.6050
  620poe    c23 3115   3.655   4.747   2.558  0.2477 -0.3423  0.1813
  620poe     o2 3116   3.607   4.822   2.667  0.0511 -0.3240  0.0813
  620poe    c23 3117   3.521   4.743   2.746  0.0762 -0.3125  0.1194
  620poe    c23 3118   3.415   4.824   2.822 -0.3822 -0.1686 -0.6645
  620poe     o2 3119   3.459   4.895   2.936 -0.8346  0.0656 -0.6338
  620poe    c31 3120   3.360   4.978   2.993  0.1810  1.0111 -0.2186
  621poe    c31 3121   3.269   4.879   5.781 -0.1358 -0.3631 -0.0327
  621poe     o2 3122   3.409   4.871   5.789 -0.0001  1.0089 -0.7945
  621poe    c23 3123   3.464   4.980   5.861  0.3157  0.2524  0.1224
  621poe    c23 3124   3.617   4.966   5.868  0.2988  0.0026  0.0283
  621poe     o2 3125   3.686   4.984   5.746  0.4196  0.1460  0.1182
  621poe    c23 3126   3.825   4.978   5.773  0.3687 -0.9168  0.1783
  621poe    c23 3127   3.893   4.989   5.635 -0.5162  0.2013 -0.1848
  621poe     o2 3128   3.814   4.921   5.540 -0.4523  0.1590 -0.2069
  621poe    c23 3129   3.875   4.944   5.415 -0.2774  0.1599 -0.1227
  621poe    c23 3130   3.810   4.860   5.303  0.3275  0.0621 -0.3992
  621poe     o2 3131   3.672   4.862   5.329  0.2794 -0.8667 -0.5533
  621poe    c31 3132   3.608   4.761   5.254 -0.0348 -0.6575 -0.5682
  622poe    c31 3133   3.045   4.720   3.508  0.8941  0.3740  0.2793
  622poe     o2 3134   2.994   4.812   3.601  0.1984  0.6067 -0.3203
  622poe    c23 3135   2.903   4.894   3.531 -0.5212 -0.1304 -0.2717
  622poe    c23 3136   2.787   4.921   3.628 -0.1883 -0.1192  0.1264
  622poe     o2 3137   2.859   4.957   3.744  0.0700 -0.8467  0.1957
  622poe    c23 3138   2.766   4.962   3.849  0.1693  0.0372  0.2432
  622poe    c23 3139   2.825   5.003   3.986 -0.5428  0.4080  0.4437
  622poe     o2 3140   2.946   4.934   4.005 -0.3209  0.4970 -0.6016
  622poe    c23 3141   2.966   4.936   4.144  0.3672 -0.2713 -0.6802
  622poe    c23 3142   3.109   4.886   4.174  0.2924  0.0739  0.2841
  622poe     o2 3143   3.130   4.753   4.134  0.4809  0.1806  0.0216
  622poe    c31 3144   3.262   4.715   4.163  0.5702  0.3304 -0.1925
  623poe    c31 3145   6.815   1.808   1.147 -0.3217 -0.3959 -0.1085
  623poe     o2 3146   6.714   1.712   1.172 -0.5668 -0.3174 -0.7689
  623poe    c23 3147   6.780   1.598   1.223 -0.1442  0.3135  0.1170
  623poe    c23 3148   6.664   1.502   1.256 -0.2494  0.4034  0.0096
  623poe     o2 3149   6.564   1.532   1.162 -0.6006 -0.0356  0.2405
  623poe    c23 3150   6.454   1.443   1.165 -0.2419 -0.4700  0.4944
  623poe    c23 3151   6.363   1.518   1.067  0.5744 -0.5065 -0.3118
  623poe     o2 3152   6.337   1.641   1.132  0.0241 -0.4382 -0.6524
  623poe    c23 3153   6.253   1.720   1.052  0.1170 -0.0836 -0.4012
  623poe    c23 3154   6.291   1.869   1.058 -0.5970  0.1064 -0.4670
  623poe     o2 3155   6.431   1.860   1.073 -0.6401  0.1975  0.0102
  623poe    c31 3156   6.505   1.979   1.059  0.2412 -0.3426 -0.0653
  624poe    c31 3157   0.729   4.372   6.465 -0.6381  0.3328 -0.2591
  624poe     o2 3158   0.787   4.393   6.592  0.0473  0.1329 -0.5360
  624poe    c23 3159   0.919   4.345   6.597  0.0051  0.0707 -0.0159
  624poe    c23 3160   1.012   4.421   6.693  0.3849 -0.2599 -0.1174
  624poe     o2 3161   0.931   4.443   6.806  0.4141 -0.2554 -0.0969
  624poe    c23 3162   0.997   4.514   6.909  0.0824  0.1413 -0.1540
  624poe    c23 3163   0.887   4.587   6.988  0.1615  0.2665 -0.1591
  624poe     o2 3164   0.801   4.621   6.882  0.3379  0.5877 -0.1989
  624poe    c23 3165   0.679   4.661   6.941  0.0096 -0.4649 -0.1474
  624poe    c23 3166   0.573   4.646   6.829  0.5524 -0.3637 -0.6795
  624poe     o2 3167   0.597   4.529   6.755  0.4068 -0.6802 -0.2306
  624poe    c31 3168   0.478   4.504   6.682  0.1766  0.5505 -0.2921
  625poe    c31 3169   0.655   6.909   2.555 -0.3629 -0.7513  0.4351
  625poe     o2 3170   0.682   6.926   2.693  0.3758 -0.5227  0.2694
  625poe    c23 3171   0.763   6.820   2.737  0.2117 -0.8426 -0.1902
  625poe    c23 3172   0.747   6.795   2.888  0.2854 -0.3448 -0.0997
  625poe     o2 3173   0.778   6.900   2.977 -0.1981 -0.5938  0.3675
  625poe    c23 3174   0.802   6.842   3.103  0.4720 -0.2655  0.3980
  625poe    c23 3175   0.758   6.954   3.199  0.0685 -0.0700 -0.0122
  625poe     o2 3176   0.822   7.071   3.154 -0.4409  0.1675 -0.1345
  625poe    c23 3177   0.769   7.187   3.213 -0.1676  0.3199 -0.1834
  625poe    c23 3178   0.871   7.299   3.185 -0.0852  0.3291  0.1557
  625poe     o2 3179   0.905   7.294   3.048 -1.0656  0.6992 -0.1110
  625poe    c31 3180   0.985   7.406   3.018 -0.0089  0.1684  0.6379
  626poe    c31 3181   4.671   0.206   6.277 -0.1244 -0.3271 -0.0623
  626poe     o2 3182   4.595   0.162   6.167 -0.1077  0.2172 -0.2943
  626poe    c23 3183   4.521   0.051   6.214  0.1730 -0.0217 -0.4053
  626poe    c23 3184   4.380   0.043   6.151 -0.2849  0.6075  0.5135
  626poe     o2 3185   4.407   0.109   6.030  0.5083  0.2276  0.4742
  626poe    c23 3186   4.302   0.190   5.983  0.3300 -0.1365  0.2369
  626poe    c23 3187   4.340   0.249   5.846  0.1112  0.2452  0.3356
  626poe     o2 3188   4.458   0.318   5.883  0.3510 -0.1553  0.3331
  626poe    c23 3189   4.541   0.341   5.771 -0.5977  0.1662 -0.3197
  626poe    c23 3190   4.681   0.388   5.811 -0.5752 -0.0104 -0.1891
  626poe     o2 3191   4.709   0.305   5.922  0.0716 -0.6738 -0.8369
  626poe    c31 3192   4.830   0.355   5.975 -0.2998  0.2563 -0.8433
  627poe    c31 3193   3.039   1.878   4.082  0.1682  0.0848  0.0828
  627poe     o2 3194   2.994   1.825   4.205  0.4915 -0.1487  0.1029
  627poe    c23 3195   3.094   1.798   4.300  0.0716  0.3191  0.6821
  627poe    c23 3196   3.022   1.744   4.426 -0.1008 -1.0644  0.0117
  627poe     o2 3197   2.931   1.838   4.477  0.8725 -0.1014  0.0220
  627poe    c23 3198   2.904   1.823   4.614  0.0848 -0.1167 -0.1267
  627poe    c23 3199   2.815   1.937   4.665 -0.1544 -0.2417 -0.2660
  627poe     o2 3200   2.693   1.936   4.593  0.0689 -0.2829 -0.6440
  627poe    c23 3201   2.590   2.014   4.650  0.3409 -0.4383  0.0685
  627poe    c23 3202   2.464   1.975   4.572  0.0935  0.6376 -0.0813
  627poe     o2 3203   2.509   1.963   4.438 -0.6282 -0.0037 -0.2732
  627poe    c31 3204   2.412   1.973   4.336 -0.9093  0.2286  0.0140
  628poe    c31 3205   0.096   0.735   1.104 -0.8262  0.1936  0.3634
  628poe     o2 3206   0.078   0.601   1.062 -0.5016  0.1725  0.2842
  628poe    c23 3207  -0.055   0.566   1.030 -0.2572  0.0064 -0.5843
  628poe    c23 3208  -0.053   0.429   0.960  0.2859 -0.4076  0.2239
  628poe     o2 3209   0.036   0.344   1.029  0.7555  0.0559  0.1937
  628poe    c23 3210   0.108   0.253   0.949  0.2062 -0.3167  0.1216
  628poe    c23 3211   0.256   0.245   0.990  0.1249 -0.2477  0.4310
  628poe     o2 3212   0.311   0.373   1.009 -0.1080 -0.0291 -0.3269
  628poe    c23 3213   0.452   0.367   1.009 -0.1159 -0.2493 -0.1378
  628poe    c23 3214   0.499   0.513   0.990 -0.1020 -0.2180  0.1273
  628poe     o2 3215   0.447   0.602   1.086  0.2426  0.1477 -0.0213
  628poe    c31 3216   0.506   0.730   1.088  0.4400  0.0522  0.2706
  629poe    c31 3217   1.299   6.216   6.648  0.6127 -0.0143 -0.6489
  629poe     o2 3218   1.416   6.144   6.614  0.6737 -0.3489  0.2489
  629poe    c23 3219   1.386   6.030   6.538  0.2019 -0.2055  0.2162
  629poe    c23 3220   1.503   5.930   6.544  0.2792 -0.0962  0.5506
  629poe     o2 3221   1.542   5.929   6.679  0.2048 -0.3415  0.5697
  629poe    c23 3222   1.651   5.842   6.697  0.4676 -0.1146  0.0804
  629poe    c23 3223   1.712   5.857   6.837  0.1297 -0.1296  0.2299
  629poe     o2 3224   1.715   5.998   6.842  0.2108 -0.1314  0.2342
  629poe    c23 3225   1.717   6.055   6.971 -0.2783 -0.2476  0.2918
  629poe    c23 3226   1.599   6.152   6.995  0.0574  0.1777  0.2228
  629poe     o2 3227   1.501   6.124   6.898  0.2395 -0.0490  0.1029
  629poe    c31 3228   1.394   6.048   6.952  0.0473 -0.2940 -0.6146
  630poe    c31 3229   4.510   6.745   6.587 -0.0435 -0.9486  0.0246
  630poe     o2 3230   4.381   6.707   6.631 -0.2231 -0.3419  0.0312
  630poe    c23 3231   4.290   6.697   6.523 -0.1159 -0.7742 -0.0223
  630poe    c23 3232   4.147   6.691   6.580  0.0005  0.0642  0.3789
  630poe     o2 3233   4.162   6.613   6.697  0.0330 -0.2044  0.1972
  630poe    c23 3234   4.038   6.611   6.765  0.2124 -0.5458  0.5144
  630poe    c23 3235   4.080   6.579   6.910  0.3354  0.1319  0.6330
  630poe     o2 3236   4.188   6.668   6.923  0.3337  0.2949 -0.4268
  630poe    c23 3237   4.255   6.665   7.047 -0.0737  0.1402 -0.2096
  630poe    c23 3238   4.401   6.620   7.026 -0.0510 -0.0529  0.3384
  630poe     o2 3239   4.465   6.680   6.915 -0.0873 -0.7170 -0.0492
  630poe    c31 3240   4.604   6.693   6.936 -0.0256 -0.2151 -0.7303
  631poe    c31 3241   5.491   6.621   5.182  0.2327 -0.1937 -1.0460
  631poe     o2 3242   5.586   6.628   5.286 -0.2522 -0.0542 -0.6089
  631poe    c23 3243   5.713   6.616   5.226 -0.1519 -0.1878 -0.3724
  631poe    c23 3244   5.776   6.492   5.293 -0.2865  0.3765  0.8083
  631poe     o2 3245   5.758   6.509   5.432 -0.7883  0.1793  0.7674
  631poe    c23 3246   5.759   6.388   5.506  0.0555 -0.2367  0.0985
  631poe    c23 3247   5.608   6.378   5.534  0.0172 -0.3335 -0.1440
  631poe     o2 3248   5.568   6.500   5.591  0.4572 -0.2181 -0.0814
  631poe    c23 3249   5.427   6.507   5.597  0.4671  0.5594 -0.5450
  631poe    c23 3250   5.373   6.651   5.604  0.1154  0.4026 -0.0200
  631poe     o2 3251   5.446   6.709   5.499 -0.0338 -0.4103 -0.5769
  631poe    c31 3252   5.407   6.843   5.480  0.2833 -0.1890  0.3062
  632poe    c31 3253   6.844   0.703   2.764 -0.7587  0.0921 -0.2890
  632poe     o2 3254   6.811   0.838   2.738 -0.2818  0.2649 -0.0097
  632poe    c23 3255   6.673   0.821   2.720 -0.2531 -0.4229  0.3899
  632poe    c23 3256   6.621   0.965   2.704  0.3908 -0.2107  0.2164
  632poe     o2 3257   6.699   1.031   2.606  0.6809  0.3014  0.7795
  632poe    c23 3258   6.667   1.168   2.612 -0.4281  0.0813  0.1666
  632poe    c23 3259   6.799   1.242   2.584 -0.1165 -0.0986  1.1248
  632poe     o2 3260   6.915   1.212   2.658  0.8662 -0.6127 -0.5518
  632poe    c23 3261   7.020   1.304   2.641  0.4973 -0.0579  0.1224
  632poe    c23 3262   7.148   1.289   2.725  0.3945  0.0160  0.2940
  632poe     o2 3263   7.227   1.177   2.693  0.5858  0.2817 -0.1741
  632poe    c31 3264   7.271   1.168   2.559  0.8928  0.5899 -0.0957
  633poe    c31 3265   4.179   0.890   3.203  0.7553  0.0908 -0.7855
  633poe     o2 3266   4.249   0.805   3.290  0.2777  0.5380  0.0452
  633poe    c23 3267   4.373   0.776   3.230 -0.0968  0.5888 -0.7694
  633poe    c23 3268   4.453   0.689   3.330 -0.8692  0.1763 -0.4976
  633poe     o2 3269   4.369   0.582   3.366  0.0998 -0.3546  0.2190
  633poe    c23 3270   4.437   0.476   3.430  0.1240 -0.5751 -0.1706
  633poe    c23 3271   4.333   0.362   3.432 -0.0729 -0.4098 -0.7325
  633poe     o2 3272   4.231   0.385   3.525  0.7133 -0.7386  0.2271
  633poe    c23 3273   4.120   0.305   3.490 -0.0967  0.4674 -0.0036
  633poe    c23 3274   3.985   0.321   3.563 -0.6328 -0.1298 -0.8427
  633poe     o2 3275   3.923   0.444   3.538 -0.9004 -0.2819 -0.9296
  633poe    c31 3276   3.808   0.467   3.616 -0.0906 -0.2327  0.2633
  634poe    c31 3277   2.968   6.608   5.576 -0.0353  0.0286  0.0944
  634poe     o2 3278   2.918   6.733   5.533  0.0144  0.0176  0.0026
  634poe    c23 3279   2.985   6.775   5.417 -0.6720  0.0945 -0.3677
  634poe    c23 3280   2.910   6.902   5.371  0.5974  1.0447  0.1447
  634poe     o2 3281   2.772   6.880   5.383  0.8191 -0.0465  0.8267
  634poe    c23 3282   2.709   7.005   5.369  0.0686 -0.5019  0.0594
  634poe    c23 3283   2.560   6.978   5.400 -0.0811  0.2888  0.0452
  634poe     o2 3284   2.534   6.915   5.523  1.3248 -0.1383  0.1386
  634poe    c23 3285   2.409   6.944   5.580  0.9780 -0.3829 -0.4787
  634poe    c23 3286   2.407   6.891   5.725  0.0445  0.2583 -0.2435
  634poe     o2 3287   2.505   6.937   5.815  0.2308 -0.3988 -0.1021
  634poe    c31 3288   2.502   6.860   5.933  0.9198 -0.0411  0.1544
  635poe    c31 3289   0.186   6.425   5.296  0.0454 -0.2576 -0.3207
  635poe     o2 3290   0.261   6.411   5.177  0.1202 -0.5586 -0.2387
  635poe    c23 3291   0.239   6.517   5.088  0.2647 -0.3558 -0.0363
  635poe    c23 3292   0.371   6.529   5.009 -0.1282  0.2489 -0.6171
  635poe     o2 3293   0.416   6.417   4.935 -0.2886  0.0908 -0.4788
  635poe    c23 3294   0.334   6.394   4.823 -0.2920  0.0636 -0.4705
  635poe    c23 3295   0.387   6.275   4.740 -0.8436 -0.5840  0.0861
  635poe     o2 3296   0.399   6.158   4.817  0.1274 -0.3605  0.2987
  635poe    c23 3297   0.423   6.058   4.721 -0.5449 -0.2936  0.0579
  635poe    c23 3298   0.466   5.931   4.796 -0.2506 -0.0176  0.3560
  635poe     o2 3299   0.396   5.923   4.919 -0.3445 -0.2894  0.2854
  635poe    c31 3300   0.436   5.806   4.987 -0.1184 -0.3031  0.1306
  636poe    c31 3301   6.070   2.661   3.370  0.2000  0.6769 -0.2218
  636poe     o2 3302   6.100   2.674   3.233  0.3528  0.7539 -0.1805
  636poe    c23 3303   6.233   2.630   3.214  0.2500  0.1175  0.4945
  636poe    c23 3304   6.247   2.607   3.062  0.3397  0.9049  0.3777
  636poe     o2 3305   6.192   2.722   3.002  0.1469  0.6997  0.1617
  636poe    c23 3306   6.152   2.707   2.867 -0.0657 -0.7649  0.3740
  636poe    c23 3307   6.118   2.846   2.810  0.2016 -0.6375  0.5203
  636poe     o2 3308   6.037   2.903   2.911 -0.5439 -0.0719 -0.3797
  636poe    c23 3309   6.066   3.039   2.935  1.0872 -0.5354  0.4142
  636poe    c23 3310   6.008   3.067   3.075 -0.3187 -0.6241 -0.1337
  636poe     o2 3311   6.045   2.964   3.164  0.2253  0.0036  0.3685
  636poe    c31 3312   6.064   3.011   3.296  0.4036  0.1103  0.3060
  637poe    c31 3313   6.860   0.846   0.742  0.2949  0.1711  0.3821
  637poe     o2 3314   6.806   0.962   0.802  0.1592  0.1995  0.2061
  637poe    c23 3315   6.675   0.934   0.843  0.0922  0.3496  0.0950
  637poe    c23 3316   6.592   1.064   0.839 -0.2283  0.1381 -0.2218
  637poe     o2 3317   6.557   1.116   0.713 -0.4518  0.2977 -0.0955
  637poe    c23 3318   6.463   1.219   0.733 -0.7284  0.0919 -0.3233
  637poe    c23 3319   6.388   1.241   0.601 -0.7991 -0.1293 -0.3193
  637poe     o2 3320   6.502   1.246   0.518 -0.0364 -0.3500  0.6906
  637poe    c23 3321   6.460   1.279   0.387  0.0259 -0.8833  0.5356
  637poe    c23 3322   6.590   1.308   0.309 -0.6985 -0.2133 -0.4456
  637poe     o2 3323   6.679   1.202   0.336  0.0583  0.4170 -0.4359
  637poe    c31 3324   6.782   1.203   0.240  0.2777  0.7300 -0.1991
  638poe    c31 3325   2.592   6.791   4.741 -0.3686  0.0058 -0.1304
  638poe     o2 3326   2.504   6.761   4.848 -0.3334  0.1697 -0.0546
  638poe    c23 3327   2.536   6.840   4.961  0.4738 -0.0141 -0.1495
  638poe    c23 3328   2.475   6.776   5.087 -0.3784  0.8551 -0.1136
  638poe     o2 3329   2.346   6.736   5.047 -0.2090  0.0279  0.1609
  638poe    c23 3330   2.271   6.667   5.144  0.2536  0.1195  0.5882
  638poe    c23 3331   2.276   6.516   5.113  0.2562  0.1364  0.5077
  638poe     o2 3332   2.346   6.496   4.991 -0.3504 -0.2001  0.2130
  638poe    c23 3333   2.340   6.367   4.934 -0.0212 -0.0316 -0.1998
  638poe    c23 3334   2.455   6.356   4.832 -0.1694  0.4382 -0.4202
  638poe     o2 3335   2.465   6.482   4.770 -0.3584  0.4834 -0.3575
  638poe    c31 3336   2.492   6.478   4.632  0.0753 -0.2518 -0.2542
  639poe    c31 3337   5.373   6.555   4.126 -0.1853 -0.8351  0.1769
  639poe     o2 3338   5.484   6.543   4.039 -0.2181 -0.3010  0.0562
  639poe    c23 3339   5.555   6.421   4.039  0.2826 -0.0094 -0.1529
  639poe    c23 3340   5.693   6.438   3.971  0.5987 -0.3515  0.3941
  639poe     o2 3341   5.742   6.569   3.985 -0.6079  0.1903 -0.2805
  639poe    c23 3342   5.867   6.578   3.919 -0.0256 -0.1239  0.7526
  639poe    c23 3343   5.929   6.717   3.941  0.0916 -0.1059  0.3141
  639poe     o2 3344   6.069   6.726   3.922  0.0167  0.3843 -0.0365
  639poe    c23 3345   6.101   6.853   3.974  0.0123  0.3867 -0.0388
  639poe    c23 3346   6.234   6.900   3.911 -0.1035  0.0374 -0.5528
  639poe     o2 3347   6.326   6.802   3.869  0.0597  0.0663 -0.2676
  639poe    c31 3348   6.453   6.845   3.912 -0.0650 -0.0559  0.2283
  640poe    c31 3349   5.124   1.077   2.439  0.6814 -0.4357 -0.2574
  640poe     o2 3350   5.157   1.186   2.523  0.1538 -0.1765 -0.3816
  640poe    c23 3351   5.040   1.229   2.588  0.4162  0.1417 -0.1171
  640poe    c23 3352   5.071   1.336   2.694 -0.0310 -0.0911  0.2523
  640poe     o2 3353   5.065   1.457   2.622  0.2151 -0.1768  0.0907
  640poe    c23 3354   5.073   1.568   2.708  0.5041  0.0029 -0.1661
  640poe    c23 3355   5.005   1.686   2.637  0.1777 -0.1326 -0.0805
  640poe     o2 3356   5.051   1.702   2.505  0.9899  0.2878  0.2468
  640poe    c23 3357   5.038   1.819   2.428  0.2608  0.0558  0.0098
  640poe    c23 3358   5.055   1.777   2.280 -0.0898  0.3509 -0.1161
  640poe     o2 3359   5.171   1.697   2.278 -0.5082 -0.2521 -0.3023
  640poe    c31 3360   5.211   1.657   2.149 -0.2902 -0.6150 -0.1251
  641poe    c31 3361   3.481   2.656   4.811  0.1182  0.3878 -0.2761
  641poe     o2 3362   3.599   2.654   4.734  0.4243  0.6197  0.1822
  641poe    c23 3363   3.654   2.526   4.757 -0.2447  0.2387 -0.2905
  641poe    c23 3364   3.777   2.496   4.669 -0.0120 -0.0707  0.1405
  641poe     o2 3365   3.853   2.615   4.670  0.8506 -0.6063 -0.5839
  641poe    c23 3366   3.976   2.590   4.605  1.0021 -1.0053 -0.1427
  641poe    c23 3367   4.079   2.702   4.626  0.2213 -0.2868 -0.0987
  641poe     o2 3368   4.007   2.818   4.591  0.2886 -0.1772  0.1280
  641poe    c23 3369   4.080   2.938   4.606  0.6733 -0.4394  0.3717
  641poe    c23 3370   3.991   3.056   4.564  0.2520 -0.8784  0.0197
  641poe     o2 3371   3.887   3.091   4.653  0.2839  0.1893 -0.3423
  641poe    c31 3372   3.815   3.197   4.596 -0.1538 -0.0338 -0.2085
  642poe    c31 3373   1.854   0.701   6.789 -0.1535 -0.0689  0.1979
  642poe     o2 3374   1.743   0.741   6.710 -0.0445 -0.0483  0.0541
  642poe    c23 3375   1.721   0.880   6.723 -0.0324 -0.0597  0.1991
  642poe    c23 3376   1.635   0.927   6.604 -0.2230 -0.1393  0.3039
  642poe     o2 3377   1.527   0.839   6.583 -0.2835  0.0963 -0.3818
  642poe    c23 3378   1.435   0.875   6.483 -0.5017 -0.0020 -0.2173
  642poe    c23 3379   1.315   0.779   6.477 -0.2468 -0.3218 -0.2032
  642poe     o2 3380   1.350   0.642   6.486  0.1176 -0.2300 -0.2082
  642poe    c23 3381   1.240   0.560   6.454  0.0357 -0.2742  0.1924
  642poe    c23 3382   1.246   0.414   6.505 -0.9122 -0.6858 -0.8223
  642poe     o2 3383   1.367   0.352   6.466 -0.1502  0.3512 -0.1791
  642poe    c31 3384   1.397   0.241   6.548  0.0666  1.0293  0.6801
  643poe    c31 3385   1.044   2.532   4.434  0.0127 -0.1953  0.0443
  643poe     o2 3386   1.094   2.663   4.423 -0.4119 -0.0500 -0.1657
  643poe    c23 3387   1.176   2.694   4.533  0.1226  0.3275 -0.6647
  643poe    c23 3388   1.244   2.831   4.543  0.1205  0.2475  0.6459
  643poe     o2 3389   1.292   2.856   4.413 -0.2014  0.4744  0.5693
  643poe    c23 3390   1.311   2.993   4.388 -0.5134  0.3139 -0.6332
  643poe    c23 3391   1.381   3.026   4.255 -0.0175  0.6289 -0.2969
  643poe     o2 3392   1.313   2.954   4.155 -0.1421  0.1352  0.1414
  643poe    c23 3393   1.369   2.969   4.027  0.0013 -0.3657  0.1401
  643poe    c23 3394   1.310   2.878   3.918 -0.2554 -0.1214  0.0731
  643poe     o2 3395   1.284   2.741   3.939  0.7494 -0.3474 -0.0848
  643poe    c31 3396   1.219   2.683   3.828  0.0011  0.1131  0.1049
  644poe    c31 3397   5.423   5.802   5.766 -0.2494 -0.6601 -0.1912
  644poe     o2 3398   5.536   5.747   5.702 -0.0052 -0.1518 -0.2054
  644poe    c23 3399   5.508   5.644   5.609  0.2259 -1.0627  0.7109
  644poe    c23 3400   5.632   5.613   5.523  0.1387  0.1886  0.1047
  644poe     o2 3401   5.735   5.591   5.616  0.1569  1.0964  0.3053
  644poe    c23 3402   5.854   5.581   5.541 -0.2891 -0.4886 -0.2228
  644poe    c23 3403   5.973   5.554   5.634 -0.3717  0.4488  0.1600
  644poe     o2 3404   5.978   5.649   5.738 -0.3495  0.4644  0.1449
  644poe    c23 3405   5.963   5.592   5.866  0.2771 -0.3774 -0.1488
  644poe    c23 3406   5.869   5.663   5.966  0.5037  0.0979 -0.2722
  644poe     o2 3407   5.739   5.676   5.912  0.4610  0.4984 -0.0701
  644poe    c31 3408   5.665   5.746   6.010  0.1208 -0.1152  0.1127
  645poe    c31 3409   4.736   3.644   0.442  0.6605 -0.2872 -0.5726
  645poe     o2 3410   4.635   3.603   0.353 -0.1895 -0.2358  0.3535
  645poe    c23 3411   4.513   3.657   0.398  0.0629  0.8192 -0.2109
  645poe    c23 3412   4.401   3.581   0.325 -0.0600  1.0378 -0.2494
  645poe     o2 3413   4.417   3.610   0.187 -0.2903  0.3600 -0.4222
  645poe    c23 3414   4.371   3.517   0.092  0.5427 -0.2605 -0.2326
  645poe    c23 3415   4.403   3.585  -0.042  0.2034  0.1265 -0.1186
  645poe     o2 3416   4.539   3.613  -0.022  0.2798  0.2219 -0.7433
  645poe    c23 3417   4.580   3.735  -0.078  0.4400  0.6256  0.2363
  645poe    c23 3418   4.723   3.760  -0.024  0.5678  0.0584  0.1610
  645poe     o2 3419   4.728   3.761   0.117 -0.3512 -0.0039  0.2048
  645poe    c31 3420   4.822   3.862   0.148 -0.6634  0.2742  0.2428
  646poe    c31 3421   4.425   4.550   0.085 -0.7521  0.2551 -0.4840
  646poe     o2 3422   4.492   4.562   0.208  0.4003 -0.5167 -1.0192
  646poe    c23 3423   4.575   4.449   0.224 -0.0830 -0.6780  0.5067
  646poe    c23 3424   4.626   4.441   0.369  0.0106  0.4778  0.5424
  646poe     o2 3425   4.526   4.397   0.458  0.1010 -0.1815  0.3195
  646poe    c23 3426   4.436   4.499   0.497  0.7597  0.3352  0.5001
  646poe    c23 3427   4.344   4.447   0.609 -0.1396  0.0429 -0.3546
  646poe     o2 3428   4.424   4.425   0.723 -0.3403  0.3672 -0.1512
  646poe    c23 3429   4.338   4.396   0.832  0.3125 -0.1592  0.2337
  646poe    c23 3430   4.419   4.384   0.962 -0.1253 -0.5454  0.4687
  646poe     o2 3431   4.536   4.316   0.925  0.2901  0.3029  0.2024
  646poe    c31 3432   4.529   4.184   0.974  0.6666  0.3399  0.3633
  647poe    c31 3433   2.801   0.279   2.545 -0.1560  0.7218 -0.9522
  647poe     o2 3434   2.935   0.320   2.556 -0.3027  1.2601 -1.1309
  647poe    c23 3435   2.944   0.423   2.651  0.1096  0.5771 -0.4140
  647poe    c23 3436   3.064   0.507   2.604  0.2878  0.4208 -0.2342
  647poe     o2 3437   3.046   0.516   2.465  0.2553 -0.8888 -0.3268
  647poe    c23 3438   3.139   0.594   2.394 -0.4014  0.2531  0.0420
  647poe    c23 3439   3.108   0.559   2.247 -0.8119  0.0057  0.1869
  647poe     o2 3440   3.131   0.420   2.239 -0.0305  0.1760 -0.6085
  647poe    c23 3441   3.093   0.352   2.122  0.3886 -0.0222 -0.6321
  647poe    c23 3442   3.082   0.206   2.169  0.2755  0.1602 -0.0876
  647poe     o2 3443   2.996   0.205   2.280  0.0206 -0.4579 -0.2889
  647poe    c31 3444   2.935   0.078   2.285 -0.2293 -0.3279  0.0268
  648poe    c31 3445   0.429   3.209   4.063 -0.1457  0.0832 -0.4490
  648poe     o2 3446   0.468   3.178   3.931  0.4313  0.1741 -0.3032
  648poe    c23 3447   0.500   3.303   3.873  0.2273  0.0407 -0.7073
  648poe    c23 3448   0.471   3.290   3.723  0.7224  0.3397 -0.8300
  648poe     o2 3449   0.529   3.167   3.686  0.0294 -0.4127  0.5154
  648poe    c23 3450   0.489   3.131   3.556  0.6089 -0.1570  0.2623
  648poe    c23 3451   0.605   3.040   3.510  0.0494 -0.6635 -0.1626
  648poe     o2 3452   0.571   2.912   3.559 -1.0913 -0.5421 -0.6163
  648poe    c23 3453   0.675   2.826   3.519 -0.1472  0.1741  0.2368
  648poe    c23 3454   0.754   2.737   3.617  0.5628  0.1129 -0.3827
  648poe     o2 3455   0.784   2.820   3.727  0.4455 -0.1633 -0.1412
  648poe    c31 3456   0.834   2.743   3.834  0.5326  0.5161  0.3163
  649poe    c31 3457   2.985   3.781   0.979 -0.4416 -0.0661 -0.0966
  649poe     o2 3458   2.999   3.798   0.840 -0.1009  0.3132 -0.0189
  649poe    c23 3459   3.097   3.711   0.786 -0.2342  0.2357 -0.1356
  649poe    c23 3460   3.080   3.715   0.633  0.0426 -0.3105 -0.1803
  649poe     o2 3461   2.947   3.688   0.594  0.0601 -0.2974 -0.2497
  649poe    c23 3462   2.939   3.674   0.454  0.0647 -0.4954 -0.2302
  649poe    c23 3463   2.793   3.680   0.405 -0.0984  0.6740  0.3487
  649poe     o2 3464   2.731   3.803   0.435  0.1308  0.7414  0.5433
  649poe    c23 3465   2.591   3.801   0.424  0.1761 -0.1777  0.0249
  649poe    c23 3466   2.524   3.923   0.491  0.5136  0.3064 -0.5100
  649poe     o2 3467   2.525   3.879   0.625 -0.4595  0.2458 -0.5143
  649poe    c31 3468   2.471   3.983   0.704  0.0673  0.5297 -0.5191
  650poe    c31 3469   2.075   4.823   2.767  0.3847 -0.2302 -0.2279
  650poe     o2 3470   1.978   4.766   2.681  0.7676 -0.1861 -0.6940
  650poe    c23 3471   1.927   4.858   2.587  0.0334  0.0647 -0.0670
  650poe    c23 3472   1.818   4.814   2.488 -0.1646 -0.0881  0.2181
  650poe     o2 3473   1.695   4.796   2.554 -0.0332 -0.6162  0.3252
  650poe    c23 3474   1.599   4.753   2.460  0.1653  0.3049 -0.3080
  650poe    c23 3475   1.612   4.602   2.437 -0.2144  0.2246  0.0062
  650poe     o2 3476   1.558   4.514   2.534  0.4322 -0.1967 -0.0120
  650poe    c23 3477   1.566   4.376   2.504  0.7416 -0.2224  0.1885
  650poe    c23 3478   1.530   4.308   2.638 -0.0391  0.0922  0.1461
  650poe     o2 3479   1.594   4.370   2.747  0.0556 -0.3024  0.3188
  650poe    c31 3480   1.554   4.318   2.872 -0.2696 -0.4812  0.1428
  651poe    c31 3481   2.722   3.479   1.526  0.1696  0.1399  0.0612
  651poe     o2 3482   2.636   3.590   1.524 -0.0759 -0.0362  0.6579
  651poe    c23 3483   2.685   3.708   1.584 -0.0135 -0.0735  0.6798
  651poe    c23 3484   2.580   3.820   1.589  0.2045  0.1688 -0.0916
  651poe     o2 3485   2.466   3.783   1.663  0.0918 -0.0756 -0.3841
  651poe    c23 3486   2.398   3.900   1.705  0.0927 -0.2188  0.0152
  651poe    c23 3487   2.246   3.879   1.707 -0.0253  0.6340  0.5479
  651poe     o2 3488   2.212   3.743   1.725  0.1212  0.5267  0.0421
  651poe    c23 3489   2.075   3.725   1.756  0.3111  0.2510  0.7565
  651poe    c23 3490   2.051   3.575   1.733 -0.2588  0.4515  0.0031
  651poe     o2 3491   2.162   3.503   1.782 -0.3065  0.3552 -0.0313
  651poe    c31 3492   2.137   3.364   1.777 -0.4194  0.3764 -0.0547
  652poe    c31 3493   6.759   4.526   0.525 -0.0492  0.0348  0.0365
  652poe     o2 3494   6.868   4.438   0.511 -0.5973 -0.6244 -0.1335
  652poe    c23 3495   6.982   4.495   0.571 -0.4738 -0.1009 -0.8508
  652poe    c23 3496   7.093   4.389   0.571 -0.1127  0.2617  0.2234
  652poe     o2 3497   7.024   4.269   0.543  0.0998  0.1921 -0.0085
  652poe    c23 3498   7.117   4.165   0.522  0.1490  0.3464 -0.5613
  652poe    c23 3499   7.034   4.036   0.513 -0.2062  0.5030  0.3626
  652poe     o2 3500   6.907   4.043   0.451  0.0415  0.2436 -0.1796
  652poe    c23 3501   6.852   3.921   0.407  0.6168 -0.1015  0.0370
  652poe    c23 3502   6.891   3.902   0.259  0.2248 -0.4401 -0.0278
  652poe     o2 3503   6.859   4.015   0.181  0.2020 -0.5327 -0.1516
  652poe    c31 3504   6.936   4.013   0.063  0.0519 -0.7279 -0.2476
  653poe    c31 3505   3.363   0.871   6.467 -0.6687 -1.1827  0.0787
  653poe     o2 3506   3.484   0.811   6.426  0.1357  0.3174  0.1656
  653poe    c23 3507   3.602   0.843   6.495  0.1480  0.0767  0.2594
  653poe    c23 3508   3.710   0.846   6.386 -0.4135  0.5419 -0.2903
  653poe     o2 3509   3.723   0.711   6.346 -0.3421  0.3805  0.2770
  653poe    c23 3510   3.829   0.692   6.255 -0.7153 -0.1448 -0.0517
  653poe    c23 3511   3.843   0.540   6.240 -0.0836 -0.1211  0.2632
  653poe     o2 3512   3.710   0.491   6.242 -0.2920  0.4289 -0.0145
  653poe    c23 3513   3.721   0.355   6.205 -0.2095  0.5496 -0.4467
  653poe    c23 3514   3.647   0.303   6.081 -0.1027 -0.5652 -0.0511
  653poe     o2 3515   3.710   0.354   5.966 -0.4537 -0.0881 -0.0326
  653poe    c31 3516   3.641   0.328   5.845 -0.0769 -0.4139 -0.1779
  654poe    c31 3517   5.397   2.226   4.387  0.1942 -0.3949  0.9255
  654poe     o2 3518   5.315   2.340   4.400  0.3494 -0.1660 -0.0271
  654poe    c23 3519   5.323   2.384   4.534 -0.0899 -0.0308 -0.0458
  654poe    c23 3520   5.251   2.517   4.566 -0.4830 -0.2209 -0.1281
  654poe     o2 3521   5.285   2.614   4.470 -0.4066 -0.0485  0.0733
  654poe    c23 3522   5.251   2.743   4.515 -0.0844 -0.0299  0.2664
  654poe    c23 3523   5.263   2.843   4.398 -0.4807 -0.1206  0.1464
  654poe     o2 3524   5.233   2.758   4.291 -0.0490  0.5892 -0.5484
  654poe    c23 3525   5.255   2.833   4.173  0.0529  0.1578 -0.8072
  654poe    c23 3526   5.153   2.774   4.074  0.3547 -0.1385 -0.9444
  654poe     o2 3527   5.038   2.750   4.151  0.7663  0.4662 -0.1231
  654poe    c31 3528   4.940   2.700   4.063  0.4820  0.0056  0.4439
  655poe    c31 3529   5.844   2.970   1.989  0.2341  0.2002  0.0435
  655poe     o2 3530   5.818   2.894   1.874  0.0253 -0.5662  0.5840
  655poe    c23 3531   5.801   2.970   1.756 -0.4481 -0.1445  0.9154
  655poe    c23 3532   5.738   2.895   1.636  0.4356  0.4078  0.0857
  655poe     o2 3533   5.607   2.844   1.649  0.3753  0.6521  0.4741
  655poe    c23 3534   5.581   2.770   1.532  0.2838  0.0935  0.8456
  655poe    c23 3535   5.436   2.719   1.535  0.2045  0.2522 -0.0919
  655poe     o2 3536   5.424   2.660   1.662 -0.3081 -0.1689 -0.3330
  655poe    c23 3537   5.289   2.647   1.701 -0.1999  0.1217  0.1422
  655poe    c23 3538   5.279   2.605   1.849 -0.2657  0.1810  0.1548
  655poe     o2 3539   5.369   2.684   1.924 -0.1158  0.1982 -0.0435
  655poe    c31 3540   5.377   2.650   2.060 -0.1259 -0.4669 -0.2063
  656poe    c31 3541   1.684   2.779   2.701 -0.4797  0.2780  0.9756
  656poe     o2 3542   1.587   2.795   2.801 -0.5390 -0.2889  1.0101
  656poe    c23 3543   1.585   2.925   2.856  0.4402  0.0865  0.1851
  656poe    c23 3544   1.464   2.945   2.949  0.4618 -0.4514  0.3355
  656poe     o2 3545   1.347   2.892   2.892  0.0739 -0.1935  0.8742
  656poe    c23 3546   1.234   2.975   2.911 -0.0853 -0.0734 -0.4854
  656poe    c23 3547   1.121   2.920   2.822 -0.1276  0.1575 -0.5748
  656poe     o2 3548   1.115   2.780   2.843 -0.2982  0.2667  0.1319
  656poe    c23 3549   0.998   2.727   2.785 -0.2689  0.3576 -0.0115
  656poe    c23 3550   1.045   2.591   2.730  0.1216  0.3607  0.3139
  656poe     o2 3551   1.143   2.540   2.819 -0.1451 -0.3148  0.2279
  656poe    c31 3552   1.126   2.401   2.836  0.3926 -0.3560  0.4420
  657poe    c31 3553   4.334   5.738   1.985 -0.3325  0.5133  0.1876
  657poe     o2 3554   4.431   5.810   2.057  0.0741 -0.0466  0.2085
  657poe    c23 3555   4.548   5.808   1.979  0.0586  0.0624  0.1814
  657poe    c23 3556   4.667   5.867   2.058  0.0330  0.2396  0.0863
  657poe     o2 3557   4.651   6.001   2.100  0.1656  0.3361 -0.1661
  657poe    c23 3558   4.774   6.032   2.161  0.1335 -0.1465  0.1469
  657poe    c23 3559   4.748   6.175   2.211 -0.4297 -0.1732 -0.0608
  657poe     o2 3560   4.643   6.177   2.305 -0.0916 -0.2265  0.3216
  657poe    c23 3561   4.650   6.289   2.391  0.5613 -0.5759  0.7375
  657poe    c23 3562   4.511   6.286   2.458  0.1672  0.7152  0.0137
  657poe     o2 3563   4.415   6.273   2.355 -0.0373  0.2144  0.2632
  657poe    c31 3564   4.292   6.329   2.395 -0.1667  0.0616  0.0787
  658poe    c31 3565   2.191   3.609   2.809 -0.5738  0.1775 -0.0291
  658poe     o2 3566   2.100   3.636   2.913 -0.5757  0.6336 -0.1468
  658poe    c23 3567   2.067   3.773   2.909  0.3128  0.8506 -0.4126
  658poe    c23 3568   1.973   3.811   3.026  0.5826  0.1166  0.0535
  658poe     o2 3569   2.018   3.761   3.149 -0.5399 -0.4893  0.2350
  658poe    c23 3570   1.914   3.732   3.239 -0.8089  0.3953  0.2226
  658poe    c23 3571   1.976   3.633   3.340  0.1333  0.6806 -0.0746
  658poe     o2 3572   2.038   3.540   3.253  0.4255  0.4664  0.3583
  658poe    c23 3573   2.104   3.440   3.326  0.4486  0.0961 -0.1624
  658poe    c23 3574   2.187   3.349   3.234 -0.3433 -0.1955 -0.5990
  658poe     o2 3575   2.212   3.410   3.109 -0.1361  0.1273 -0.4023
  658poe    c31 3576   2.285   3.330   3.019  0.6724  0.3613  0.0418
  659poe    c31 3577   3.224   5.647   6.755 -0.4304 -0.0987  0.6432
  659poe     o2 3578   3.128   5.569   6.824 -0.6760 -0.3431  0.0309
  659poe    c23 3579   3.118   5.600   6.961  0.3811 -0.2951  0.1047
  659poe    c23 3580   3.071   5.468   7.025  0.0764 -0.2375  0.0008
  659poe     o2 3581   2.974   5.413   6.939 -0.0192  0.2187 -0.1857
  659poe    c23 3582   2.941   5.277   6.957  0.2108  0.1117 -0.5730
  659poe    c23 3583   3.039   5.187   6.880  0.6312  0.1155 -0.0437
  659poe     o2 3584   3.047   5.257   6.758 -0.5588  0.2610 -0.0434
  659poe    c23 3585   3.154   5.227   6.671 -0.2368  0.8758  0.1310
  659poe    c23 3586   3.128   5.307   6.542  0.0477  0.1645 -0.3776
  659poe     o2 3587   3.099   5.439   6.584  0.3359  0.0067  0.3430
  659poe    c31 3588   3.062   5.515   6.471  0.4789 -0.2528  0.1217
  660poe    c31 3589   2.215   1.554   5.433  0.2218  0.0760  0.0474
  660poe     o2 3590   2.128   1.487   5.521  0.6648 -0.1345  0.3313
  660poe    c23 3591   2.203   1.418   5.618  0.0823 -0.0742  0.8344
  660poe    c23 3592   2.125   1.313   5.699 -0.9288 -0.2175 -0.2981
  660poe     o2 3593   2.110   1.195   5.622  0.3661 -0.4984 -0.1452
  660poe    c23 3594   2.006   1.116   5.672 -0.1420 -0.1138 -0.5848
  660poe    c23 3595   1.985   0.998   5.574 -0.0763 -0.3382 -0.3298
  660poe     o2 3596   2.110   0.936   5.554  0.0297 -0.2723  0.1118
  660poe    c23 3597   2.103   0.823   5.470 -0.0072 -0.1394 -0.0643
  660poe    c23 3598   2.247   0.795   5.424 -0.2777 -0.3992 -0.7653
  660poe     o2 3599   2.303   0.922   5.401 -0.3548 -0.3436 -0.6473
  660poe    c31 3600   2.403   0.911   5.302  0.4048  0.5434 -0.0000
  661poe    c31 3601   2.806   3.013   4.986  0.6276 -0.0341  0.4526
  661poe     o2 3602   2.748   2.895   4.935 -0.5664  0.6320  0.2367
  661poe    c23 3603   2.673   2.842   5.042  0.0634  0.6376  0.6860
  661poe    c23 3604   2.707   2.694   5.068  0.0293  0.4055 -0.5277
  661poe     o2 3605   2.753   2.652   4.941  0.5051 -0.2949 -0.1294
  661poe    c23 3606   2.769   2.512   4.942 -0.3324 -0.3962  0.3293
  661poe    c23 3607   2.899   2.488   4.864 -0.1833  0.4271  0.3225
  661poe     o2 3608   2.910   2.564   4.745 -0.0816  0.2395  0.2101
  661poe    c23 3609   3.042   2.585   4.701  0.0892  0.3306  0.7578
  661poe    c23 3610   3.042   2.735   4.668 -0.0075  0.1861  0.0912
  661poe     o2 3611   2.987   2.815   4.770  0.6585 -0.0506  0.6455
  661poe    c31 3612   3.036   2.944   4.741 -0.2873  0.2206  0.2237
  662poe    c31 3613   0.229   2.075   1.411 -0.2264 -0.1987 -0.5328
  662poe     o2 3614   0.308   2.068   1.295  0.2361 -0.1732 -0.2218
  662poe    c23 3615   0.314   1.936   1.246  0.7961 -0.2369  0.0135
  662poe    c23 3616   0.387   1.935   1.110 -0.1765 -0.1028 -0.5122
  662poe     o2 3617   0.520   1.979   1.096 -0.0820  0.1066  0.9118
  662poe    c23 3618   0.618   1.923   1.181  0.6479  0.2130  0.1475
  662poe    c23 3619   0.751   1.914   1.104  0.6583  0.2400  0.1627
  662poe     o2 3620   0.763   2.042   1.046  0.2444  0.3736  0.3693
  662poe    c23 3621   0.867   2.040   0.950 -0.1428  0.0628 -0.0493
  662poe    c23 3622   0.874   2.186   0.902  0.0843  0.1936  0.3762
  662poe     o2 3623   0.745   2.233   0.870  0.0225  0.1790  0.6051
  662poe    c31 3624   0.764   2.367   0.831 -0.0439  0.0130 -0.0083
  663poe    c31 3625   1.105   4.353   3.469 -0.0217 -0.1733  0.8992
  663poe     o2 3626   1.157   4.467   3.532 -0.3445  0.3122  0.3042
  663poe    c23 3627   1.276   4.510   3.469 -0.5501  0.4412  0.0045
  663poe    c23 3628   1.289   4.662   3.493 -0.0536  0.3713  0.1810
  663poe     o2 3629   1.262   4.677   3.631  0.2387 -0.2542  0.3103
  663poe    c23 3630   1.280   4.810   3.675  0.3078 -0.0159 -0.4232
  663poe    c23 3631   1.242   4.811   3.824  0.3709  0.5920 -0.4108
  663poe     o2 3632   1.105   4.779   3.841  0.4578  0.4535  0.0224
  663poe    c23 3633   1.066   4.810   3.973 -0.0247 -0.0743  0.0067
  663poe    c23 3634   0.936   4.736   4.008  0.1145 -0.2382  0.1725
  663poe     o2 3635   0.954   4.597   4.026 -0.4332 -0.2876  0.3546
  663poe    c31 3636   0.831   4.534   4.055 -0.1256 -0.6904  0.8012
  664poe    c31 3637   4.205   6.829   2.368  0.2891 -0.0898  0.2668
  664poe     o2 3638   4.072   6.808   2.410  0.0703 -0.2031 -0.4583
  664poe    c23 3639   3.986   6.810   2.298 -0.1205  0.1943 -0.3051
  664poe    c23 3640   3.842   6.783   2.345  0.0475  0.2217  0.2427
  664poe     o2 3641   3.827   6.830   2.477 -0.2825  0.2403  0.1990
  664poe    c23 3642   3.741   6.751   2.556 -0.2973 -0.2994 -0.3472
  664poe    c23 3643   3.715   6.818   2.692  0.2796 -0.5739 -0.0931
  664poe     o2 3644   3.849   6.853   2.718 -0.0632  0.7829 -0.0801
  664poe    c23 3645   3.856   6.982   2.776 -0.1186  0.7613 -0.0242
  664poe    c23 3646   4.008   7.005   2.793  0.1351 -0.8116  0.0069
  664poe     o2 3647   4.074   6.958   2.678  0.3232 -0.4733 -0.0214
  664poe    c31 3648   4.212   6.987   2.676  0.1085  0.6314  0.3263
  665poe    c31 3649   4.613   4.829   0.251 -0.0810 -0.1944  0.3446
  665poe     o2 3650   4.547   4.878   0.366  0.0434  0.2074  0.2482
  665poe    c23 3651   4.407   4.865   0.349  0.0860  0.7821 -0.6045
  665poe    c23 3652   4.344   4.941   0.467 -0.6640 -0.0656 -0.4552
  665poe     o2 3653   4.378   4.899   0.597 -0.5104  0.2901 -0.3788
  665poe    c23 3654   4.301   4.937   0.709 -0.1157 -0.3071  0.0979
  665poe    c23 3655   4.395   4.902   0.827 -0.0457  0.4911  0.2815
  665poe     o2 3656   4.515   4.964   0.785  0.0215 -0.0184 -0.2886
  665poe    c23 3657   4.538   5.099   0.819 -0.1648 -0.0780  0.0754
  665poe    c23 3658   4.674   5.124   0.753 -0.0255 -0.2052  0.3145
  665poe     o2 3659   4.674   5.072   0.622  0.0497  0.0721  0.2046
  665poe    c31 3660   4.786   5.119   0.550 -0.2565  0.5718  0.0511
  666poe    c31 3661   5.310   2.577   2.423 -0.2667  0.1669  0.3353
  666poe     o2 3662   5.243   2.682   2.488 -1.0864  0.0777 -0.3458
  666poe    c23 3663   5.166   2.642   2.599 -0.2041 -0.3669  0.1094
  666poe    c23 3664   5.173   2.754   2.704 -0.0341 -0.4577  0.1956
  666poe     o2 3665   5.299   2.804   2.742  0.3475 -0.7407 -0.6819
  666poe    c23 3666   5.388   2.722   2.815  0.2002 -0.3453 -0.0485
  666poe    c23 3667   5.510   2.802   2.862  0.0389 -0.1408  0.0251
  666poe     o2 3668   5.580   2.857   2.753  0.3386 -0.0973  0.2360
  666poe    c23 3669   5.710   2.909   2.770  0.2596  0.0770  0.3006
  666poe    c23 3670   5.766   2.964   2.637 -0.2556 -0.1896 -0.0283
  666poe     o2 3671   5.667   3.023   2.555  0.0002  0.3540  0.0502
  666poe    c31 3672   5.712   3.067   2.429 -0.5534 -0.2378 -0.3620
  667poe    c31 3673   3.669   2.706   1.023 -0.3332 -0.2287  0.5434
  667poe     o2 3674   3.629   2.836   1.058 -0.2990 -0.0169 -0.1996
  667poe    c23 3675   3.518   2.822   1.144  0.0075 -0.2803  0.1548
  667poe    c23 3676   3.473   2.960   1.194 -0.2157 -0.1588 -0.3676
  667poe     o2 3677   3.414   3.029   1.086  0.3665  0.6318 -0.1926
  667poe    c23 3678   3.399   3.168   1.107  0.1783  0.5330  0.3500
  667poe    c23 3679   3.338   3.236   0.983  0.6949  0.4970  0.0724
  667poe     o2 3680   3.418   3.236   0.867  0.0005  0.1572 -0.4144
  667poe    c23 3681   3.377   3.338   0.778 -0.4026  0.1707 -0.2151
  667poe    c23 3682   3.479   3.347   0.664 -0.1112  0.1265  0.0405
  667poe     o2 3683   3.527   3.219   0.627 -0.1838 -0.0801  0.6586
  667poe    c31 3684   3.615   3.226   0.517  0.3614 -0.4359  1.0665
  668poe    c31 3685   5.492   0.649   2.059  0.3870 -0.7826 -0.3106
  668poe     o2 3686   5.425   0.771   2.036  0.4689 -0.5871  0.4663
  668poe    c23 3687   5.519   0.859   1.979 -0.1026 -0.4894 -0.3372
  668poe    c23 3688   5.471   1.005   1.959 -0.2712 -0.4800  0.1232
  668poe     o2 3689   5.511   1.090   2.064 -0.4300 -0.4953  0.1956
  668poe    c23 3690   5.421   1.198   2.066 -0.4409 -0.5099  0.6330
  668poe    c23 3691   5.470   1.305   2.165  0.0927 -0.1283 -0.0389
  668poe     o2 3692   5.490   1.240   2.289  0.3956  0.4902  0.2428
  668poe    c23 3693   5.553   1.332   2.375 -0.0536  0.9534  0.0826
  668poe    c23 3694   5.534   1.294   2.523  1.0112 -0.4811 -0.1301
  668poe     o2 3695   5.594   1.166   2.527 -0.1524 -1.0409 -0.2424
  668poe    c31 3696   5.614   1.152   2.666 -0.0493  0.6499 -0.0684
  669poe    c31 3697   1.985   3.143   4.710  0.3656  0.2681 -0.1327
  669poe     o2 3698   1.965   3.141   4.850  0.3957  0.1523 -0.1305
  669poe    c23 3699   2.069   3.057   4.896  0.2380 -0.2242 -0.4575
  669poe    c23 3700   2.067   3.034   5.048  1.1399  0.5439 -0.3212
  669poe     o2 3701   2.064   3.155   5.120 -0.6163  0.1384  0.3378
  669poe    c23 3702   2.065   3.131   5.259  0.3155 -0.1096  0.2944
  669poe    c23 3703   2.045   3.272   5.316 -0.1226  0.1575 -0.5093
  669poe     o2 3704   1.935   3.337   5.255  0.0003  0.2579 -0.6230
  669poe    c23 3705   1.896   3.466   5.297 -0.4347 -0.0714 -0.0009
  669poe    c23 3706   1.867   3.485   5.447 -0.4997  0.4529 -0.0789
  669poe     o2 3707   1.743   3.421   5.465  0.1524 -0.8073  0.0755
  669poe    c31 3708   1.694   3.432   5.597  0.0368 -0.4687  0.0061
  670poe    c31 3709   0.725   0.139   1.473  0.0177  0.7211  0.3505
  670poe     o2 3710   0.839   0.213   1.511  0.1399  0.4201  0.5718
  670poe    c23 3711   0.957   0.147   1.472  0.0187  0.7061 -0.2864
  670poe    c23 3712   1.079   0.218   1.535  0.0529  0.2378  0.1739
  670poe     o2 3713   1.057   0.356   1.518 -0.4595  0.1229 -0.1285
  670poe    c23 3714   1.168   0.435   1.555 -0.1828 -0.4055  0.1806
  670poe    c23 3715   1.120   0.572   1.505 -0.5806 -0.8389 -0.6464
  670poe     o2 3716   0.984   0.591   1.540 -0.4098 -0.3072 -0.2547
  670poe    c23 3717   0.912   0.698   1.482 -0.6567  0.1490  0.8768
  670poe    c23 3718   0.848   0.633   1.359 -0.2174  0.0651  0.6914
  670poe     o2 3719   0.787   0.513   1.402  0.4775 -0.5066  0.1316
  670poe    c31 3720   0.683   0.473   1.315  0.5050  0.6436 -0.4606
  671poe    c31 3721   4.303   4.148   0.265  0.1536 -0.2267  0.5314
  671poe     o2 3722   4.233   4.033   0.307  0.4520 -0.7296 -0.3280
  671poe    c23 3723   4.165   3.968   0.203 -0.0094  0.0891 -0.5427
  671poe    c23 3724   4.015   3.966   0.236  0.0676 -0.1886 -0.2001
  671poe     o2 3725   3.983   3.902   0.357 -0.0210 -0.1611 -0.2084
  671poe    c23 3726   3.848   3.931   0.385 -0.0938 -0.8715  0.2052
  671poe    c23 3727   3.810   3.894   0.530  0.2359 -0.1930  0.4693
  671poe     o2 3728   3.874   3.972   0.628  0.9488 -0.6347  0.3660
  671poe    c23 3729   3.830   3.944   0.759 -0.3814  0.2759  0.1357
  671poe    c23 3730   3.817   4.091   0.800 -0.3248  0.2137  0.3814
  671poe     o2 3731   3.947   4.145   0.786 -0.3039  0.1081  0.1710
  671poe    c31 3732   3.949   4.282   0.818  0.3859  0.1248  0.0714
  672poe    c31 3733   5.485   0.037   0.712  0.0339 -0.0777 -0.4695
  672poe     o2 3734   5.563   0.002   0.825 -0.3009 -0.2882 -0.3008
  672poe    c23 3735   5.509   0.068   0.937  0.6656 -0.2501  0.1511
  672poe    c23 3736   5.571   0.025   1.071  0.1678 -0.1762  0.4062
  672poe     o2 3737   5.709   0.040   1.046  0.0650  0.1732  0.0311
  672poe    c23 3738   5.799   0.009   1.150  0.4488  0.1081 -0.3187
  672poe    c23 3739   5.937   0.032   1.086  0.5548  0.0312 -0.1181
  672poe     o2 3740   5.934  -0.017   0.954  0.3534 -0.2737 -0.0013
  672poe    c23 3741   6.051   0.002   0.878  0.2940 -0.4986 -0.1507
  672poe    c23 3742   6.007  -0.025   0.733 -0.1442 -0.0385 -0.1062
  672poe     o2 3743   5.872   0.015   0.733 -0.2570 -0.4193 -0.3488
  672poe    c31 3744   5.821   0.059   0.610 -0.1631 -0.5646 -0.4402
  673poe    c31 3745   6.863   6.464   6.708  1.0238 -0.0731  0.0599
  673poe     o2 3746   6.882   6.572   6.619 -0.3273 -0.1055 -0.2945
  673poe    c23 3747   6.949   6.675   6.689 -0.0118 -0.2279 -0.4186
  673poe    c23 3748   6.996   6.789   6.597 -0.3683 -0.1998 -0.5629
  673poe     o2 3749   6.890   6.870   6.548 -0.5251 -0.1527 -0.1523
  673poe    c23 3750   6.925   6.937   6.429  0.4893 -0.3248  0.0333
  673poe    c23 3751   6.795   6.961   6.350  0.7118 -0.0612 -0.2590
  673poe     o2 3752   6.737   6.841   6.303  0.2178  0.3052 -0.5877
  673poe    c23 3753   6.613   6.876   6.244  0.1040  0.0420 -0.5082
  673poe    c23 3754   6.540   6.752   6.190 -0.2254  0.0119  0.0034
  673poe     o2 3755   6.532   6.666   6.301 -1.1701 -0.2601 -0.2645
  673poe    c31 3756   6.470   6.542   6.273 -0.2110 -0.6922 -0.5276
  674poe    c31 3757   3.845   2.847   3.855 -0.5344  0.9346  0.5681
  674poe     o2 3758   3.839   2.980   3.811 -0.0640  0.8679  0.2985
  674poe    c23 3759   3.760   3.046   3.907 -0.7871  0.3089  0.0985
  674poe    c23 3760   3.772   3.199   3.898 -0.0270  0.2298 -0.3034
  674poe     o2 3761   3.743   3.214   3.761  0.2746  0.4084 -0.3491
  674poe    c23 3762   3.809   3.320   3.696  0.1136  0.6936 -0.0539
  674poe    c23 3763   3.785   3.306   3.545  0.6353  0.2468 -0.1013
  674poe     o2 3764   3.846   3.192   3.490 -0.0579 -0.1561 -0.0495
  674poe    c23 3765   3.897   3.208   3.359  0.9402 -0.6401  0.2625
  674poe    c23 3766   4.036   3.273   3.355  0.6065  0.0536 -0.2066
  674poe     o2 3767   4.044   3.414   3.362  0.4468  0.0394  0.2934
  674poe    c31 3768   4.158   3.469   3.423  0.6068 -0.3429  0.3390
  675poe    c31 3769   6.334   3.891   0.864  0.4934 -0.2406  0.2648
  675poe     o2 3770   6.251   3.887   0.750  0.5487 -0.3082  0.2268
  675poe    c23 3771   6.122   3.852   0.795  0.2205  0.2438 -0.2716
  675poe    c23 3772   6.032   3.845   0.671 -0.1504 -0.1448  0.0177
  675poe     o2 3773   6.051   3.974   0.618  0.4557 -0.2113  0.0746
  675poe    c23 3774   5.983   3.975   0.494 -0.2379  0.3711  0.4582
  675poe    c23 3775   6.021   4.100   0.412  0.3005  0.0040  0.1420
  675poe     o2 3776   6.159   4.114   0.438  0.4032 -0.1743 -0.3096
  675poe    c23 3777   6.217   4.188   0.333  0.2907  0.5813  0.1551
  675poe    c23 3778   6.370   4.171   0.328  0.2680  0.3883  0.1152
  675poe     o2 3779   6.414   4.038   0.308 -0.3427  0.1800  0.1201
  675poe    c31 3780   6.538   4.051   0.242 -0.2918  0.2502  0.2290
  676poe    c31 3781   5.155   6.585   0.235 -0.5327  0.2077 -0.3654
  676poe     o2 3782   5.267   6.667   0.260  0.1150 -0.7388 -0.1044
  676poe    c23 3783   5.294   6.701   0.394 -0.1965  0.0432 -0.2350
  676poe    c23 3784   5.443   6.739   0.389 -0.0557 -0.5093 -0.2866
  676poe     o2 3785   5.469   6.819   0.276 -0.1973  0.4260  0.3360
  676poe    c23 3786   5.606   6.844   0.254 -0.1377  0.1288  0.3660
  676poe    c23 3787   5.610   6.937   0.132 -0.1164 -0.3266  0.0173
  676poe     o2 3788   5.518   6.884   0.039 -0.5828  0.0667  0.2477
  676poe    c23 3789   5.534   6.970  -0.072 -0.3954  0.2686  0.4312
  676poe    c23 3790   5.495   6.905  -0.206  0.2526 -0.0966  0.4150
  676poe     o2 3791   5.363   6.857  -0.199  0.1862  0.0778  0.3580
  676poe    c31 3792   5.348   6.754  -0.294  0.7814  0.1549  0.1769
  677poe    c31 3793   1.654   5.008   1.717 -0.2889  0.7982  0.3394
  677poe     o2 3794   1.679   4.934   1.834  0.3553 -0.4529 -0.5736
  677poe    c23 3795   1.575   4.842   1.858 -0.2273  0.3745  0.0907
  677poe    c23 3796   1.619   4.775   1.990 -0.2207  0.3767  0.0895
  677poe     o2 3797   1.751   4.730   1.972 -0.3372  0.0896 -0.0600
  677poe    c23 3798   1.786   4.648   2.081  0.3322  0.1391 -0.2359
  677poe    c23 3799   1.939   4.629   2.095  0.2898 -0.3727 -0.4461
  677poe     o2 3800   2.007   4.750   2.114  0.1134 -0.3190 -0.1433
  677poe    c23 3801   2.113   4.750   2.206 -0.2067  0.1988  0.2310
  677poe    c23 3802   2.142   4.900   2.223 -0.1900  0.2942 -0.6073
  677poe     o2 3803   2.028   4.960   2.281 -0.0109 -0.1687  0.2401
  677poe    c31 3804   2.050   5.097   2.309 -0.4719  0.0061 -0.2255
  678poe    c31 3805   3.754   4.442   6.877  0.8078 -0.3826  0.5461
  678poe     o2 3806   3.740   4.570   6.934  0.8186 -0.0496 -0.1917
  678poe    c23 3807   3.835   4.652   6.869  0.1903  0.0695 -0.9825
  678poe    c23 3808   3.800   4.800   6.842  0.3810  0.1941 -0.5663
  678poe     o2 3809   3.811   4.861   6.969  0.1173 -0.0666 -0.4156
  678poe    c23 3810   3.714   4.963   6.979 -0.0538 -0.2612 -0.0788
  678poe    c23 3811   3.633   4.924   7.104  0.3694 -0.4151  0.1518
  678poe     o2 3812   3.602   4.787   7.115  0.0769 -0.3564  0.0846
  678poe    c23 3813   3.540   4.778   7.241 -0.1638  0.4136  0.0279
  678poe    c23 3814   3.466   4.643   7.245  0.4486  0.0741  0.0022
  678poe     o2 3815   3.557   4.549   7.191  0.7881  0.2143  0.3285
  678poe    c31 3816   3.550   4.419   7.245  0.1251  0.2774  0.4031
  679poe    c31 3817   5.364   1.969   5.013 -0.2194  0.1549  0.0516
  679poe     o2 3818   5.501   1.992   4.992 -0.0557 -1.0316 -0.2526
  679poe    c23 3819   5.555   2.103   5.060 -0.2752 -0.8789 -0.3274
  679poe    c23 3820   5.702   2.118   5.015 -0.2567 -0.0526 -0.0146
  679poe     o2 3821   5.755   1.992   5.050 -0.0396  0.0345 -0.0296
  679poe    c23 3822   5.878   1.952   4.993  0.1066  0.1361  0.2140
  679poe    c23 3823   5.923   1.832   5.079  0.2879 -0.1492 -0.2746
  679poe     o2 3824   5.820   1.736   5.073  0.2022 -0.0625 -0.1987
  679poe    c23 3825   5.850   1.619   5.147 -0.1720  0.4152  0.7218
  679poe    c23 3826   5.748   1.504   5.137 -0.2566  0.5356  0.1973
  679poe     o2 3827   5.623   1.512   5.202 -0.2548 -0.3059  0.3143
  679poe    c31 3828   5.549   1.396   5.172 -0.8754  0.1751 -0.0542
  680poe    c31 3829   4.200   1.647   4.485  0.1798 -0.3259 -0.2443
  680poe     o2 3830   4.097   1.573   4.547 -0.2917  0.6687  0.1774
  680poe    c23 3831   4.105   1.437   4.510 -0.1207  0.7308 -0.0180
  680poe    c23 3832   4.023   1.356   4.612 -0.1856  0.4667 -0.2796
  680poe     o2 3833   3.898   1.421   4.612 -0.1488  0.5377 -0.2102
  680poe    c23 3834   3.807   1.332   4.672  0.6774 -0.2424 -0.0942
  680poe    c23 3835   3.776   1.382   4.815 -0.0994 -0.3788 -0.2156
  680poe     o2 3836   3.791   1.521   4.828 -0.2394 -0.4072  0.2678
  680poe    c23 3837   3.835   1.567   4.954  0.2621  0.0185 -0.0547
  680poe    c23 3838   3.904   1.697   4.910  0.1506  0.0812 -0.0444
  680poe     o2 3839   3.995   1.678   4.804 -0.3296  0.2478 -0.4907
  680poe    c31 3840   4.038   1.810   4.779  0.5131  0.1078  0.1647
  681poe    c31 3841   0.026   3.667   0.853  0.0774 -0.5240  0.2214
  681poe     o2 3842  -0.062   3.747   0.929  0.2059  0.4130 -0.5871
  681poe    c23 3843  -0.188   3.742   0.866 -0.2130 -0.4232  0.2882
  681poe    c23 3844  -0.288   3.722   0.981 -0.2406 -0.3289  0.2807
  681poe     o2 3845  -0.256   3.815   1.082  0.1754 -0.1739  0.0081
  681poe    c23 3846  -0.352   3.828   1.185 -0.2794 -0.0223 -0.4317
  681poe    c23 3847  -0.345   3.971   1.240 -0.0469 -0.0025 -0.5118
  681poe     o2 3848  -0.218   4.002   1.294 -0.2871 -0.2125  0.1709
  681poe    c23 3849  -0.214   4.138   1.331  0.1319 -0.2665  0.3220
  681poe    c23 3850  -0.078   4.210   1.345  0.1739 -0.3199  0.1935
  681poe     o2 3851  -0.009   4.231   1.224 -0.2740  0.0228 -0.0048
  681poe    c31 3852   0.127   4.262   1.244  0.0686 -1.1538 -0.4642
  682poe    c31 3853   0.695   0.798   2.281  0.3802 -0.4704 -0.6836
  682poe     o2 3854   0.661   0.801   2.144  0.0229 -0.7137 -0.5997
  682poe    c23 3855   0.765   0.771   2.054  0.2428 -0.3099 -0.4794
  682poe    c23 3856   0.722   0.773   1.907 -0.2907 -0.1701 -0.3217
  682poe     o2 3857   0.704   0.905   1.859 -0.1035  0.0344  0.1712
  682poe    c23 3858   0.654   0.902   1.728 -0.1869 -0.1202  0.2058
  682poe    c23 3859   0.636   1.047   1.679  0.7330  0.0701  0.4167
  682poe     o2 3860   0.557   1.112   1.776 -0.1651 -0.3260 -0.0425
  682poe    c23 3861   0.534   1.247   1.742 -0.0044 -0.2584  0.1181
  682poe    c23 3862   0.467   1.317   1.862 -0.1166 -0.3491  0.1092
  682poe     o2 3863   0.552   1.285   1.970 -0.0455  0.2765  0.2465
  682poe    c31 3864   0.535   1.381   2.072  0.2388  0.1143  0.4475
  683poe    c31 3865   1.955   3.034   1.874 -0.1157  0.3763 -0.3864
  683poe     o2 3866   1.842   3.097   1.819 -0.7430 -0.4765 -0.1038
  683poe    c23 3867   1.731   3.011   1.806 -0.4016 -0.9692  0.2302
  683poe    c23 3868   1.597   3.085   1.792 -0.2750 -0.7842 -0.0088
  683poe     o2 3869   1.567   3.121   1.925  0.0063  0.0059 -0.1532
  683poe    c23 3870   1.434   3.162   1.943 -0.0317  0.1209 -0.6744
  683poe    c23 3871   1.422   3.172   2.096  0.6504  0.1645 -0.6203
  683poe     o2 3872   1.536   3.229   2.155  0.3823  0.1574 -0.0889
  683poe    c23 3873   1.521   3.224   2.295 -0.1990  0.4934 -0.1384
  683poe    c23 3874   1.599   3.331   2.374 -0.3260  0.4017  0.1134
  683poe     o2 3875   1.730   3.328   2.322 -0.2367 -0.0215  0.3602
  683poe    c31 3876   1.808   3.422   2.392  0.2027  0.1832 -0.3864
  684poe    c31 3877   0.960   2.100   0.102  0.1001  0.4772 -0.0304
  684poe     o2 3878   1.055   2.058   0.007  0.1732 -0.3603  0.3974
  684poe    c23 3879   1.111   1.932   0.035  0.1827 -0.4805 -0.1600
  684poe    c23 3880   1.186   1.891  -0.093  0.7117 -0.4880  0.1488
  684poe     o2 3881   1.110   1.930  -0.205 -0.2627 -1.0533  0.5989
  684poe    c23 3882   1.159   1.861  -0.318 -0.5568 -0.4615  0.0969
  684poe    c23 3883   1.074   1.900  -0.440 -0.1654 -0.1515 -0.0796
  684poe     o2 3884   1.124   2.014  -0.507 -0.3807 -0.0781 -0.1186
  684poe    c23 3885   1.022   2.070  -0.586  0.0092  0.1401 -0.4719
  684poe    c23 3886   1.011   2.222  -0.563  0.1468  0.0426  0.2644
  684poe     o2 3887   0.991   2.258  -0.428 -0.0063 -0.1732  0.2993
  684poe    c31 3888   0.920   2.379  -0.427 -0.0101 -0.1759  0.4982
  685poe    c31 3889   4.455   3.368   3.073  0.2033  0.0532  0.0645
  685poe     o2 3890   4.550   3.306   2.990  0.1482  0.5724 -0.3883
  685poe    c23 3891   4.650   3.402   2.962  0.6568  0.1101 -0.1665
  685poe    c23 3892   4.787   3.340   2.930  0.7145  0.5704 -0.8350
  685poe     o2 3893   4.800   3.286   2.801  0.2365  0.2493 -0.7520
  685poe    c23 3894   4.917   3.209   2.789  0.3636  0.2101  0.6535
  685poe    c23 3895   4.930   3.162   2.643 -0.0212  0.2660  0.6016
  685poe     o2 3896   4.803   3.106   2.618  0.3742 -0.4873  0.2677
  685poe    c23 3897   4.815   2.966   2.600  0.1479 -0.5224  0.3873
  685poe    c23 3898   4.692   2.879   2.628 -0.1074 -0.0378  0.7851
  685poe     o2 3899   4.590   2.906   2.535  0.4950  0.2265  0.2010
  685poe    c31 3900   4.490   2.807   2.534  0.8357 -0.1170  0.0405
  686poe    c31 3901   3.030   4.061   1.569  0.8049 -0.2020  0.4339
  686poe     o2 3902   3.026   4.198   1.604  0.5723 -0.2456  0.5850
  686poe    c23 3903   2.904   4.224   1.670  0.3154 -0.6330  0.2686
  686poe    c23 3904   2.922   4.296   1.805 -0.4007 -0.1768  0.1260
  686poe     o2 3905   2.986   4.419   1.778 -0.4006 -0.1653  0.1794
  686poe    c23 3906   2.973   4.495   1.896 -0.4278 -0.2731  0.2461
  686poe    c23 3907   2.987   4.648   1.886 -0.6636 -0.2794 -0.2071
  686poe     o2 3908   3.116   4.638   1.829 -0.5071  0.2743  0.0451
  686poe    c23 3909   3.204   4.746   1.851  0.4559 -0.4227 -0.3394
  686poe    c23 3910   3.331   4.684   1.789  0.8513  0.0417 -0.0042
  686poe     o2 3911   3.303   4.606   1.675  0.4080 -0.4013  0.4010
  686poe    c31 3912   3.415   4.596   1.590  0.2276 -0.1843  0.1349
  687poe    c31 3913   3.044   4.639   6.342 -0.4440  0.8254  0.2764
  687poe     o2 3914   3.115   4.602   6.226 -1.0285  0.1350  0.1340
  687poe    c23 3915   3.037   4.620   6.110 -1.0107 -0.5141  0.0176
  687poe    c23 3916   3.113   4.559   5.990  0.1519  0.5241  0.2045
  687poe     o2 3917   3.247   4.596   6.011  0.1929 -0.2359  1.3773
  687poe    c23 3918   3.339   4.532   5.925 -0.3101  0.2349  0.4816
  687poe    c23 3919   3.472   4.603   5.955  0.1995 -0.4289 -0.1702
  687poe     o2 3920   3.506   4.587   6.091  0.0894 -0.2512 -0.1221
  687poe    c23 3921   3.609   4.492   6.104 -0.0861 -0.3494  0.6175
  687poe    c23 3922   3.678   4.512   6.240  0.2999 -0.0337  0.3763
  687poe     o2 3923   3.602   4.479   6.354  0.3263 -0.7803  0.1786
  687poe    c31 3924   3.667   4.551   6.456 -0.0605 -0.2574  0.0582
  688poe    c31 3925   1.645   5.743   4.985 -0.0939 -0.1971 -0.2822
  688poe     o2 3926   1.725   5.848   4.935 -0.4251  0.1680 -0.0474
  688poe    c23 3927   1.810   5.802   4.832 -0.2830  0.1900  0.0600
  688poe    c23 3928   1.882   5.927   4.779 -0.1156  0.4449  0.8675
  688poe     o2 3929   1.774   6.019   4.775 -0.5618 -0.1135 -0.4677
  688poe    c23 3930   1.792   6.141   4.707  0.0196 -0.0311 -0.1742
  688poe    c23 3931   1.657   6.214   4.691  0.1509  0.3024  0.2214
  688poe     o2 3932   1.617   6.252   4.821 -0.5316 -0.7323  0.3345
  688poe    c23 3933   1.503   6.333   4.805  0.3043  0.5441  0.6454
  688poe    c23 3934   1.476   6.412   4.935 -0.1720 -0.0082  0.8869
  688poe     o2 3935   1.457   6.323   5.043  0.4013 -0.8527  0.3074
  688poe    c31 3936   1.436   6.408   5.153 -0.0932 -0.0436 -0.4003
  689poe    c31 3937   0.649   5.616   2.203  0.0672 -0.6999  0.1367
  689poe     o2 3938   0.652   5.613   2.062  0.2415 -0.1469  0.1263
  689poe    c23 3939   0.548   5.699   2.019  0.6690  0.1973 -0.2288
  689poe    c23 3940   0.540   5.674   1.867 -0.2706 -0.1310 -0.1317
  689poe     o2 3941   0.654   5.615   1.810 -0.6406 -0.6618 -0.3301
  689poe    c23 3942   0.661   5.617   1.669  0.0989  0.5912 -0.2916
  689poe    c23 3943   0.576   5.513   1.595  0.0558  0.2387  0.2468
  689poe     o2 3944   0.629   5.383   1.614  0.4816  0.3094 -0.4316
  689poe    c23 3945   0.578   5.296   1.515  0.2449  0.2718 -0.2778
  689poe    c23 3946   0.444   5.233   1.559  0.1271  0.5669 -0.2105
  689poe     o2 3947   0.446   5.159   1.679  0.7748 -0.2197 -0.6974
  689poe    c31 3948   0.465   5.022   1.654 -0.6769 -0.5226 -0.2266
  690poe    c31 3949   5.829   1.695   2.067 -0.6423 -0.1468 -0.6043
  690poe     o2 3950   5.820   1.702   1.927  0.2918  0.5474 -0.6404
  690poe    c23 3951   5.686   1.731   1.894  0.2322  0.5208 -0.4244
  690poe    c23 3952   5.659   1.732   1.742 -0.3240 -0.2328 -0.3344
  690poe     o2 3953   5.719   1.852   1.699  0.0799 -0.1746  0.3720
  690poe    c23 3954   5.757   1.837   1.564  0.5410  0.1859  0.4614
  690poe    c23 3955   5.841   1.956   1.510  0.6021  0.1630  0.5061
  690poe     o2 3956   5.781   2.078   1.548 -0.1925  0.0556 -0.3487
  690poe    c23 3957   5.858   2.194   1.527  0.3935  0.0018  1.3018
  690poe    c23 3958   5.772   2.317   1.561  0.5913  0.4814  0.1443
  690poe     o2 3959   5.702   2.279   1.678  0.4607  0.1829 -0.0293
  690poe    c31 3960   5.679   2.392   1.759  0.2984  0.4282 -0.4130
  691poe    c31 3961   6.235   2.626   6.214  0.0272  0.1844 -0.1790
  691poe     o2 3962   6.149   2.726   6.265  0.1563  0.0084  0.3884
  691poe    c23 3963   6.219   2.848   6.268  0.1658  0.0124  0.0437
  691poe    c23 3964   6.151   2.962   6.347 -0.1905 -0.1122 -0.0813
  691poe     o2 3965   6.022   2.981   6.295 -0.1363 -0.2207 -0.2572
  691poe    c23 3966   5.950   3.016   6.411  0.1792  0.5395 -0.2898
  691poe    c23 3967   5.798   3.029   6.388  0.1356 -0.2956 -0.5142
  691poe     o2 3968   5.737   2.906   6.358 -0.2354 -0.0600 -0.7487
  691poe    c23 3969   5.599   2.918   6.337 -0.1922  0.6898 -0.6137
  691poe    c23 3970   5.551   2.777   6.296  0.0210  0.2482  0.6277
  691poe     o2 3971   5.642   2.728   6.201 -0.8403  0.5075 -0.3423
  691poe    c31 3972   5.593   2.614   6.135 -0.1286 -0.2691  0.4484
  692poe    c31 3973   3.809   2.610   1.916  0.4208 -0.3270  0.2710
  692poe     o2 3974   3.900   2.523   1.853  0.2670 -0.1771 -0.1602
  692poe    c23 3975   4.026   2.535   1.916  0.2762 -0.5832 -0.0959
  692poe    c23 3976   4.132   2.499   1.811 -0.1180 -0.0912 -0.6739
  692poe     o2 3977   4.077   2.378   1.764 -0.5597 -0.1186 -0.0928
  692poe    c23 3978   4.162   2.304   1.679 -0.0018  0.0008  0.3512
  692poe    c23 3979   4.074   2.185   1.637  0.0459  0.2426 -0.4572
  692poe     o2 3980   3.946   2.240   1.615  0.1225  0.6744  0.1554
  692poe    c23 3981   3.849   2.139   1.630  0.3632  0.4158 -0.0204
  692poe    c23 3982   3.737   2.222   1.694  0.0335  0.1218 -0.2116
  692poe     o2 3983   3.776   2.269   1.821  0.1691 -0.6341  0.0288
  692poe    c31 3984   3.659   2.311   1.887  0.1137 -0.3175 -0.2708
  693poe    c31 3985   1.717   4.694   0.584 -0.7696 -0.1437 -0.5009
  693poe     o2 3986   1.777   4.587   0.514  0.2285  0.0040  0.1186
  693poe    c23 3987   1.699   4.472   0.534  0.4377 -0.1141  0.2630
  693poe    c23 3988   1.749   4.354   0.448  0.0901 -0.2915  0.3035
  693poe     o2 3989   1.889   4.366   0.454  0.0910 -0.2700  0.2348
  693poe    c23 3990   1.962   4.250   0.419  0.0574 -0.2071 -0.0465
  693poe    c23 3991   2.112   4.250   0.455  0.0480  0.0584 -0.0078
  693poe     o2 3992   2.132   4.285   0.590  0.1437  0.5205 -0.1395
  693poe    c23 3993   2.271   4.284   0.612  0.0545  0.4778  0.4586
  693poe    c23 3994   2.302   4.336   0.754  0.5902  0.5251  0.3287
  693poe     o2 3995   2.270   4.472   0.742 -0.1807  0.3653  0.5277
  693poe    c31 3996   2.311   4.542   0.858  0.4689  0.9113 -0.0247
  694poe    c31 3997   2.628   0.881   4.114  0.4787 -0.6084 -0.5452
  694poe     o2 3998   2.647   0.992   4.029  0.0056 -0.1559 -0.0704
  694poe    c23 3999   2.781   1.035   4.013 -0.0884  0.1018 -0.1695
  694poe    c23 4000   2.802   1.187   4.008  0.4436  0.0187 -0.6650
  694poe     o2 4001   2.752   1.234   3.885 -0.3476 -0.3204 -0.4800
  694poe    c23 4002   2.812   1.360   3.863 -0.4040 -0.1624  0.2245
  694poe    c23 4003   2.760   1.426   3.733 -1.0704 -0.2970  0.4165
  694poe     o2 4004   2.751   1.328   3.632  0.2958 -0.1501  0.1304
  694poe    c23 4005   2.706   1.382   3.510  0.3867 -0.0561  0.1384
  694poe    c23 4006   2.692   1.271   3.403 -0.1354  0.1553 -0.0152
  694poe     o2 4007   2.812   1.236   3.338 -0.0730 -0.5160  0.4489
  694poe    c31 4008   2.788   1.164   3.220 -0.0061  0.1491  0.0242
  695poe    c31 4009   3.563   5.508   6.557  0.2378 -0.1598  0.0196
  695poe     o2 4010   3.644   5.555   6.452 -0.2098  0.2902 -0.1256
  695poe    c23 4011   3.723   5.654   6.514  0.8093 -0.6160  0.0631
  695poe    c23 4012   3.780   5.739   6.399 -0.4845  0.4079  0.1455
  695poe     o2 4013   3.845   5.639   6.324  0.0799  0.5449  0.4443
  695poe    c23 4014   3.919   5.683   6.213 -0.2516 -0.0356 -0.0090
  695poe    c23 4015   3.931   5.555   6.127  0.4395 -0.2291  0.3699
  695poe     o2 4016   3.800   5.505   6.123  0.1942  0.4325  0.0404
  695poe    c23 4017   3.724   5.546   6.011 -0.4060  0.2121  0.3624
  695poe    c23 4018   3.577   5.512   6.042 -0.3326 -0.6203 -0.2041
  695poe     o2 4019   3.547   5.548   6.175  0.0693 -0.6664 -0.0998
  695poe    c31 4020   3.408   5.532   6.188 -0.0646  0.1686 -0.4212
  696poe    c31 4021   1.340   5.235   5.884 -0.7590 -0.0626  0.3634
  696poe     o2 4022   1.432   5.145   5.827 -0.0769  0.9343 -0.1272
  696poe    c23 4023   1.417   5.140   5.687 -0.3844  0.2626 -0.0734
  696poe    c23 4024   1.522   5.051   5.618 -0.7574 -0.0733 -0.2160
  696poe     o2 4025   1.572   4.962   5.714  0.1193  0.2589 -0.3580
  696poe    c23 4026   1.539   4.831   5.673 -0.0822 -0.0000  0.5942
  696poe    c23 4027   1.547   4.739   5.796 -0.6709 -0.5264  0.2485
  696poe     o2 4028   1.487   4.823   5.892  0.2346  0.6769 -0.2012
  696poe    c23 4029   1.507   4.764   6.019 -0.2066 -0.2931 -0.5736
  696poe    c23 4030   1.460   4.869   6.121  0.0648 -0.1572 -0.5884
  696poe     o2 4031   1.512   4.991   6.074  0.3512 -0.1673 -0.3038
  696poe    c31 4032   1.502   5.082   6.181  0.1079 -0.2205 -0.2821
  697poe    c31 4033   0.689   4.626   1.771 -0.1565  0.2242 -0.0794
  697poe     o2 4034   0.796   4.568   1.842 -0.2534  0.4065  0.2191
  697poe    c23 4035   0.917   4.628   1.803 -0.2541  0.5118  0.3774
  697poe    c23 4036   1.038   4.566   1.876 -0.2225 -0.0441 -0.1387
  697poe     o2 4037   1.039   4.425   1.861 -0.3482 -0.0606  0.0077
  697poe    c23 4038   1.153   4.377   1.794 -0.5417 -0.0521 -0.3339
  697poe    c23 4039   1.155   4.223   1.798  0.0450 -0.0395 -0.0908
  697poe     o2 4040   1.025   4.174   1.821 -0.0476  0.1637 -0.1835
  697poe    c23 4041   1.015   4.036   1.795 -0.4986  0.0275  0.6862
  697poe    c23 4042   0.879   3.971   1.825 -0.5425 -0.1350  0.1505
  697poe     o2 4043   0.854   3.998   1.961  0.0525 -0.2487  0.2837
  697poe    c31 4044   0.829   3.871   2.018 -0.0628  0.0088  0.8181
  698poe    c31 4045   5.013   0.162   4.515  0.3306  0.9354  0.0489
  698poe     o2 4046   5.094   0.159   4.400  0.7310 -0.1753  0.3426
  698poe    c23 4047   5.202   0.248   4.382  0.7513 -0.3035 -0.2028
  698poe    c23 4048   5.302   0.208   4.272  0.4410 -0.6427 -0.3612
  698poe     o2 4049   5.430   0.254   4.307  0.0429 -0.4262  0.8491
  698poe    c23 4050   5.528   0.195   4.224 -0.2511  0.1062  0.1188
  698poe    c23 4051   5.670   0.197   4.285 -0.2710 -0.3361  0.1788
  698poe     o2 4052   5.674   0.333   4.318  0.0607 -0.1129 -0.7514
  698poe    c23 4053   5.791   0.358   4.392 -0.1497  0.2694 -0.5443
  698poe    c23 4054   5.802   0.509   4.423  0.5178  0.1295 -0.0677
  698poe     o2 4055   5.690   0.548   4.499  0.6976  0.3807  0.0707
  698poe    c31 4056   5.700   0.665   4.577 -0.4776  0.1455  0.6104
  699poe    c31 4057   2.457   2.267   4.910 -0.3689  0.3842 -0.1420
  699poe     o2 4058   2.354   2.323   4.988 -0.5400  0.0619 -0.1350
  699poe    c23 4059   2.264   2.228   5.040 -0.3224 -0.0245  0.0829
  699poe    c23 4060   2.171   2.289   5.146 -0.4752 -0.4978  0.2231
  699poe     o2 4061   2.090   2.394   5.098  0.3587  0.1074  0.1258
  699poe    c23 4062   2.004   2.456   5.191  0.3286  0.1620  0.0621
  699poe    c23 4063   1.893   2.534   5.118  0.3058 -0.3764 -0.4789
  699poe     o2 4064   1.942   2.609   5.009  0.9143  0.5393  0.4105
  699poe    c23 4065   1.851   2.691   4.941  0.1303 -0.6397  0.0114
  699poe    c23 4066   1.884   2.701   4.791 -0.4501 -0.0673 -0.0841
  699poe     o2 4067   2.012   2.757   4.772 -0.3943 -0.1346  0.0938
  699poe    c31 4068   2.056   2.712   4.645 -0.0172  0.2909  0.0731
  700poe    c31 4069   3.526   3.028   5.474 -0.2565  0.2029  0.7214
  700poe     o2 4070   3.618   3.134   5.475  0.5939 -0.5144  0.1453
  700poe    c23 4071   3.576   3.254   5.537 -0.5230 -0.3885 -0.8425
  700poe    c23 4072   3.683   3.355   5.493 -0.4397  0.1278  0.5099
  700poe     o2 4073   3.812   3.322   5.538 -0.2820 -0.9104 -0.6551
  700poe    c23 4074   3.913   3.413   5.499 -0.2443 -0.7390 -0.1622
  700poe    c23 4075   4.056   3.383   5.548  0.1071  0.3607 -0.4765
  700poe     o2 4076   4.064   3.251   5.498 -0.1220  0.1920 -0.0741
  700poe    c23 4077   4.197   3.205   5.502 -0.0478  0.4266  0.2075
  700poe    c23 4078   4.198   3.054   5.533  0.2135  0.2023 -0.8374
  700poe     o2 4079   4.080   3.002   5.477  0.2079  0.2229 -0.8445
  700poe    c31 4080   4.094   2.865   5.445 -0.2130 -0.0051 -0.0813
  701poe    c31 4081   2.404   4.854   5.259 -0.1999 -0.6815 -0.1589
  701poe     o2 4082   2.486   4.900   5.155  0.1642  0.2351  0.5160
  701poe    c23 4083   2.435   4.865   5.028  0.6622 -0.2527  0.4452
  701poe    c23 4084   2.531   4.891   4.910  0.3068 -0.5461  0.0896
  701poe     o2 4085   2.656   4.826   4.914  0.5045 -0.1561  0.2712
  701poe    c23 4086   2.678   4.751   4.797  0.1230  0.5904 -0.2831
  701poe    c23 4087   2.775   4.640   4.839 -0.1208  0.4369 -0.1245
  701poe     o2 4088   2.870   4.704   4.922 -0.2310  0.3336  0.0819
  701poe    c23 4089   2.975   4.629   4.978 -0.3970 -0.1789 -0.2895
  701poe    c23 4090   3.067   4.727   5.053 -0.7102 -0.2342  0.1647
  701poe     o2 4091   2.984   4.824   5.115 -0.2984  0.0036  0.3455
  701poe    c31 4092   3.053   4.886   5.221  0.5046  0.1179 -0.2336
  702poe    c31 4093   1.966   1.409   2.838  0.3861 -0.4299  0.2171
  702poe     o2 4094   2.048   1.420   2.724 -0.6045  0.6680 -0.4016
  702poe    c23 4095   2.019   1.326   2.623  0.6301 -1.0532  0.7928
  702poe    c23 4096   2.125   1.326   2.512  0.2037 -0.1294  0.3793
  702poe     o2 4097   2.168   1.461   2.515  0.2384 -0.1352  0.1864
  702poe    c23 4098   2.251   1.490   2.405 -0.7471  0.2456 -0.4715
  702poe    c23 4099   2.241   1.632   2.346  0.1205  0.3700 -0.3312
  702poe     o2 4100   2.269   1.725   2.448  0.4617 -0.0750 -0.0139
  702poe    c23 4101   2.328   1.833   2.378 -0.2448 -0.1145 -0.6771
  702poe    c23 4102   2.383   1.926   2.487 -0.4851  0.0739 -0.7160
  702poe     o2 4103   2.294   1.991   2.576  0.0642  0.3964 -0.3975
  702poe    c31 4104   2.253   2.121   2.539  0.8286  0.8802  0.3991
  703poe    c31 4105   4.186   0.845   1.651 -0.3354  0.2658  0.2025
  703poe     o2 4106   4.258   0.815   1.533 -0.2036 -0.3870  0.4445
  703poe    c23 4107   4.175   0.783   1.424  0.4307 -0.0386 -0.1480
  703poe    c23 4108   4.272   0.759   1.307  0.2881  0.1879 -0.3126
  703poe     o2 4109   4.355   0.873   1.295  0.7878 -0.0834  0.5189
  703poe    c23 4110   4.459   0.871   1.199 -0.0836  0.1474 -0.4405
  703poe    c23 4111   4.566   0.790   1.274 -0.1021  0.5063 -0.0198
  703poe     o2 4112   4.592   0.854   1.397 -1.1265  0.0674  0.4372
  703poe    c23 4113   4.685   0.779   1.472 -0.7027 -0.0706 -0.2206
  703poe    c23 4114   4.664   0.808   1.621  0.7322  0.9733 -0.1913
  703poe     o2 4115   4.525   0.824   1.638  0.6272  0.0107 -0.0670
  703poe    c31 4116   4.509   0.867   1.771 -0.1685 -0.3716 -0.0322
  704poe    c31 4117   1.045   5.501   3.407  0.3050  0.6625  0.6705
  704poe     o2 4118   0.970   5.391   3.453  0.0410  0.5229 -0.0736
  704poe    c23 4119   0.944   5.396   3.592 -0.4487 -0.3462 -0.1280
  704poe    c23 4120   0.840   5.503   3.629 -0.2068 -0.0931 -0.1802
  704poe     o2 4121   0.700   5.493   3.611 -0.2278  0.0684 -0.1142
  704poe    c23 4122   0.628   5.614   3.610  0.9373  0.7778 -0.1489
  704poe    c23 4123   0.483   5.608   3.559  0.9678 -0.2674 -0.1339
  704poe     o2 4124   0.436   5.479   3.593 -0.0998  0.0777 -0.2710
  704poe    c23 4125   0.304   5.462   3.547  0.0691 -0.1201 -0.6823
  704poe    c23 4126   0.253   5.334   3.616  0.2681  0.1457 -0.0374
  704poe     o2 4127   0.349   5.232   3.599  0.2358  0.1092 -0.0022
  704poe    c31 4128   0.286   5.106   3.599 -0.4073  0.4280 -0.2370
  705poe    c31 4129   4.042   3.911   3.770  0.0498  0.2419 -0.4232
  705poe     o2 4130   3.986   3.931   3.898  0.3404  0.5034 -0.3362
  705poe    c23 4131   4.043   3.827   3.975 -0.6036  0.4361  0.2845
  705poe    c23 4132   3.967   3.829   4.109 -0.6624 -0.7844  0.2750
  705poe     o2 4133   3.856   3.916   4.114  0.1935  0.3769 -0.3761
  705poe    c23 4134   3.741   3.880   4.189  0.4218  0.5358  0.0522
  705poe    c23 4135   3.650   4.004   4.199 -0.0361  0.2270 -0.2976
  705poe     o2 4136   3.662   4.070   4.075  0.2458  0.1252 -0.3255
  705poe    c23 4137   3.587   4.190   4.073 -0.7500 -0.4934 -0.3933
  705poe    c23 4138   3.587   4.267   3.940 -0.0138 -0.3408 -0.3042
  705poe     o2 4139   3.514   4.197   3.842  0.3474 -0.6204 -0.3744
  705poe    c31 4140   3.501   4.268   3.721  0.5911 -0.1898 -0.1511
  706poe    c31 4141   4.232   6.418   3.726 -0.3824 -0.2283  0.0219
  706poe     o2 4142   4.098   6.444   3.692 -0.1995 -0.3617 -0.8335
  706poe    c23 4143   4.086   6.539   3.588  0.0522  0.2526 -0.3076
  706poe    c23 4144   3.941   6.537   3.537 -0.1383 -0.5085  0.2415
  706poe     o2 4145   3.858   6.461   3.621 -0.6242 -0.5377 -0.2627
  706poe    c23 4146   3.719   6.473   3.600 -0.6953 -0.2175  0.3625
  706poe    c23 4147   3.655   6.610   3.573 -0.3225  0.0277  0.7211
  706poe     o2 4148   3.679   6.698   3.681 -0.1870  0.4266  0.3693
  706poe    c23 4149   3.657   6.833   3.646 -0.3295  0.2370 -0.2935
  706poe    c23 4150   3.791   6.900   3.608 -0.2142  0.1210 -0.0953
  706poe     o2 4151   3.847   6.841   3.493  0.3197  0.3470  0.0490
  706poe    c31 4152   3.980   6.877   3.464  0.5831 -0.2672  0.4653
  707poe    c31 4153   2.286   6.480   6.706  1.0507 -0.0276  0.3780
  707poe     o2 4154   2.240   6.606   6.749  0.5169 -0.1285  0.1080
  707poe    c23 4155   2.332   6.659   6.842  0.5354  0.1026 -0.0409
  707poe    c23 4156   2.284   6.684   6.986  0.6998  0.0396  0.0252
  707poe     o2 4157   2.204   6.797   7.007  0.1996 -0.3999  0.5051
  707poe    c23 4158   2.144   6.803   7.135  0.2025 -0.0324  0.4897
  707poe    c23 4159   2.232   6.817   7.261  0.4599 -0.0668  0.3138
  707poe     o2 4160   2.228   6.724   7.366  0.0632  0.0422  0.3946
  707poe    c23 4161   2.348   6.723   7.440  0.2396 -0.0175  0.1089
  707poe    c23 4162   2.329   6.602   7.534 -0.2160  0.1552  0.2445
  707poe     o2 4163   2.252   6.619   7.650  0.1922 -0.1888  0.5706
  707poe    c31 4164   2.288   6.522   7.746 -0.6193 -0.8334  0.2345
  708poe    c31 4165   5.700   4.460   6.049  0.0146 -0.0970  0.3349
  708poe     o2 4166   5.829   4.508   6.020 -0.0324 -0.5162 -0.6230
  708poe    c23 4167   5.831   4.629   5.947 -0.3746  0.3666  0.7945
  708poe    c23 4168   5.905   4.735   6.032 -0.0634  0.3584  0.5356
  708poe     o2 4169   6.029   4.675   6.061  0.0660  0.0581 -0.5921
  708poe    c23 4170   6.100   4.744   6.161  0.0606  0.0958 -0.6143
  708poe    c23 4171   6.059   4.687   6.298  0.0169  0.3419 -0.5235
  708poe     o2 4172   6.026   4.552   6.276 -0.2648  0.4360 -0.6882
  708poe    c23 4173   5.944   4.514   6.385  0.2958  0.3543 -0.2885
  708poe    c23 4174   5.922   4.362   6.384 -0.5068  0.4665 -0.5307
  708poe     o2 4175   5.890   4.303   6.260 -0.3616 -0.1732 -0.2713
  708poe    c31 4176   5.915   4.168   6.291  0.0574 -0.1340 -0.4329
  709poe    c31 4177   4.558   4.937   1.673 -0.1110  0.3969 -0.2183
  709poe     o2 4178   4.672   5.008   1.716  0.1147 -0.0208 -0.1172
  709poe    c23 4179   4.647   5.144   1.688  0.1461 -0.1219 -0.6455
  709poe    c23 4180   4.761   5.232   1.741 -0.1022 -0.2995  0.1908
  709poe     o2 4181   4.784   5.227   1.880 -0.0327 -0.1979  0.1839
  709poe    c23 4182   4.874   5.128   1.926 -0.2866 -0.7020 -0.3883
  709poe    c23 4183   4.899   5.119   2.077  0.4977  0.2574 -0.4507
  709poe     o2 4184   4.908   5.246   2.138  0.0241  0.0844 -0.0184
  709poe    c23 4185   4.897   5.235   2.278  0.1162 -0.4177 -0.0485
  709poe    c23 4186   4.923   5.376   2.334  0.8939 -0.4262 -0.3887
  709poe     o2 4187   4.847   5.478   2.273  0.6190 -0.4909 -0.1500
  709poe    c31 4188   4.847   5.602   2.339 -0.2861 -0.5697  0.0129
  710poe    c31 4189   5.146   3.000   5.414  0.2556  0.0574  0.2542
  710poe     o2 4190   5.173   2.863   5.434  0.8418  0.1644  0.2275
  710poe    c23 4191   5.194   2.784   5.319  0.1752 -0.2937  0.4138
  710poe    c23 4192   5.249   2.645   5.356  0.0132 -0.5004 -0.1001
  710poe     o2 4193   5.179   2.603   5.471 -0.0373 -0.2309 -0.0294
  710poe    c23 4194   5.183   2.463   5.490  0.1348 -0.2515 -0.2134
  710poe    c23 4195   5.101   2.412   5.610 -0.3297  0.4229 -0.2378
  710poe     o2 4196   5.149   2.469   5.730 -0.7963  0.7059 -0.1859
  710poe    c23 4197   5.067   2.435   5.841 -0.6293  0.2571 -0.1969
  710poe    c23 4198   5.093   2.532   5.958  0.1703 -0.2037  0.0163
  710poe     o2 4199   5.071   2.665   5.919  0.1572 -0.1214  0.3002
  710poe    c31 4200   4.955   2.718   5.979 -0.1331 -0.2044 -0.1817
  711poe    c31 4201   3.066   2.410   4.255 -0.3441 -0.1321 -0.6201
  711poe     o2 4202   2.947   2.400   4.329 -0.0649 -0.5566 -0.2162
  711poe    c23 4203   2.969   2.313   4.438  0.5488 -0.6667 -0.4249
  711poe    c23 4204   2.837   2.289   4.515  0.4688  0.3448 -0.2233
  711poe     o2 4205   2.732   2.320   4.426 -0.2127 -0.1888  0.3849
  711poe    c23 4206   2.681   2.225   4.335 -0.2374  0.4337 -0.2612
  711poe    c23 4207   2.615   2.305   4.222  0.3078 -0.1886 -1.0273
  711poe     o2 4208   2.709   2.406   4.193  0.2507  0.2951  0.3885
  711poe    c23 4209   2.677   2.485   4.080 -0.2934  0.1976  0.4737
  711poe    c23 4210   2.796   2.581   4.063  0.2274 -0.5047  0.1336
  711poe     o2 4211   2.818   2.632   4.192  0.0516 -0.0393 -0.0214
  711poe    c31 4212   2.899   2.748   4.193  0.7681 -0.5372  0.8511
  712poe    c31 4213   1.534   5.478   5.484  0.0010  0.4714  0.1377
  712poe     o2 4214   1.653   5.454   5.556 -0.2154 -0.3253  0.2402
  712poe    c23 4215   1.680   5.566   5.637 -0.4280  0.4386 -0.7152
  712poe    c23 4216   1.798   5.532   5.730 -0.5248  0.8962 -0.4191
  712poe     o2 4217   1.900   5.489   5.642 -0.5586  0.3667 -0.2019
  712poe    c23 4218   2.029   5.468   5.697 -0.4404  0.1848 -0.5468
  712poe    c23 4219   2.127   5.401   5.599  0.4136  0.2278  0.2659
  712poe     o2 4220   2.065   5.285   5.547  0.1296  0.7130 -0.4897
  712poe    c23 4221   2.163   5.210   5.479  0.1212 -0.0656  0.3434
  712poe    c23 4222   2.089   5.091   5.414  0.7380 -0.3326  0.1240
  712poe     o2 4223   1.999   5.044   5.512  0.5565 -0.3261 -0.0395
  712poe    c31 4224   1.936   4.926   5.467 -0.4304  0.0153  0.4283
  713poe    c31 4225   4.560   3.388   4.674 -0.1160  1.0906 -0.6435
  713poe     o2 4226   4.650   3.446   4.766  0.1393 -0.2293 -0.0263
  713poe    c23 4227   4.608   3.580   4.781  0.4416 -0.1406  0.0282
  713poe    c23 4228   4.694   3.657   4.883 -0.4137  0.9727 -0.0711
  713poe     o2 4229   4.691   3.626   5.021 -0.3522 -0.2334 -0.3312
  713poe    c23 4230   4.731   3.725   5.112  0.5974 -0.8836 -0.0243
  713poe    c23 4231   4.698   3.695   5.260 -0.6208 -0.3110 -0.1659
  713poe     o2 4232   4.746   3.563   5.263 -0.5979 -0.3136 -0.5149
  713poe    c23 4233   4.765   3.504   5.390  0.1258  0.0342 -0.4543
  713poe    c23 4234   4.832   3.369   5.356 -0.2837 -0.3054  0.0766
  713poe     o2 4235   4.767   3.301   5.251 -0.3919  0.1509 -0.1564
  713poe    c31 4236   4.750   3.166   5.288  0.5379 -0.0533 -0.4502
  714poe    c31 4237   3.722   3.583   0.327 -0.5689 -0.0481 -0.3894
  714poe     o2 4238   3.744   3.554   0.191 -0.2344  0.2271 -0.3960
  714poe    c23 4239   3.851   3.630   0.141  0.0463 -0.3647 -0.7059
  714poe    c23 4240   3.949   3.551   0.051  0.5255 -0.3883 -0.1680
  714poe     o2 4241   4.026   3.460   0.126 -0.0554 -0.4553  0.3582
  714poe    c23 4242   3.963   3.335   0.144  0.0914 -0.5803  0.0071
  714poe    c23 4243   4.027   3.291   0.277  0.1628  0.3371  0.2846
  714poe     o2 4244   4.168   3.280   0.269  0.1381  0.0270  0.2677
  714poe    c23 4245   4.221   3.243   0.394 -0.4504 -0.0916  0.4853
  714poe    c23 4246   4.370   3.208   0.381 -0.4571  0.0164  0.1130
  714poe     o2 4247   4.374   3.072   0.345 -0.2599  0.1257 -0.2817
  714poe    c31 4248   4.500   3.011   0.362 -0.5087 -0.4086 -0.3111
  715poe    c31 4249   5.419   6.519   6.229  0.1162 -0.2397  0.7582
  715poe     o2 4250   5.532   6.561   6.155  0.2285 -0.3857  0.8462
  715poe    c23 4251   5.482   6.615   6.035 -0.2357 -0.1686  1.1359
  715poe    c23 4252   5.560   6.738   5.984 -0.0800 -0.6004  0.3324
  715poe     o2 4253   5.686   6.688   5.946  0.5301  0.6312  0.7015
  715poe    c23 4254   5.740   6.780   5.853  0.5205 -0.4593 -0.4122
  715poe    c23 4255   5.894   6.769   5.856  0.5644  0.1479 -0.3064
  715poe     o2 4256   5.934   6.642   5.902 -0.4614 -0.1164 -0.1128
  715poe    c23 4257   6.074   6.652   5.913 -0.4516  0.0221 -0.3589
  715poe    c23 4258   6.134   6.511   5.901 -0.1646  0.1037  0.0898
  715poe     o2 4259   6.104   6.432   6.015 -0.1091 -0.0679 -0.0145
  715poe    c31 4260   6.145   6.298   6.006 -0.1604 -0.0637 -0.3427
  716poe    c31 4261   2.677   4.944   6.666 -0.9012  0.3315 -0.6514
  716poe     o2 4262   2.619   4.825   6.715  0.2759  0.0656  0.1175
  716poe    c23 4263   2.599   4.724   6.619  0.0089 -0.2855  0.5417
  716poe    c23 4264   2.486   4.634   6.672 -0.1135 -0.2947  0.2657
  716poe     o2 4265   2.531   4.555   6.780 -0.4952  0.6462  1.1350
  716poe    c23 4266   2.430   4.473   6.834 -0.3573 -0.2315  0.0943
  716poe    c23 4267   2.459   4.418   6.975 -0.1879  0.4461  0.3255
  716poe     o2 4268   2.520   4.507   7.066  0.3117  0.0192  0.4112
  716poe    c23 4269   2.571   4.433   7.174 -0.2079 -0.4543  0.3327
  716poe    c23 4270   2.628   4.530   7.279 -0.0238 -0.3969  0.1786
  716poe     o2 4271   2.693   4.641   7.220 -0.0792 -0.1698  0.5416
  716poe    c31 4272   2.775   4.712   7.310  0.2961  0.0759  0.0082
  717poe    c31 4273   4.265   2.908   0.956 -0.2942  0.2155 -0.8516
  717poe     o2 4274   4.354   2.808   0.911  0.0320 -0.3861  1.0088
  717poe    c23 4275   4.417   2.741   1.017 -0.2668 -0.7602  0.9533
  717poe    c23 4276   4.498   2.625   0.956 -0.0684  0.1067 -0.4813
  717poe     o2 4277   4.396   2.560   0.884 -0.0198 -0.0724 -0.3912
  717poe    c23 4278   4.412   2.423   0.856 -0.0604  0.0405 -0.9768
  717poe    c23 4279   4.286   2.334   0.863  0.0166  0.0140  0.1418
  717poe     o2 4280   4.199   2.372   0.759 -0.9910  0.0486  0.9834
  717poe    c23 4281   4.095   2.278   0.738 -0.6487 -0.2234  0.4787
  717poe    c23 4282   3.978   2.350   0.668 -0.3247 -0.1571  0.0022
  717poe     o2 4283   3.935   2.451   0.757  0.0185  0.2180 -0.2533
  717poe    c31 4284   3.803   2.494   0.735  0.0458  0.4769  0.0985
  718poe    c31 4285   1.992   4.008   0.753 -0.0263 -0.1703 -0.0324
  718poe     o2 4286   2.065   3.892   0.784 -0.5513 -0.4803  0.0442
  718poe    c23 4287   2.006   3.776   0.729 -0.5149 -0.3957 -0.1741
  718poe    c23 4288   2.087   3.649   0.762 -0.5130 -0.3181  0.1246
  718poe     o2 4289   2.104   3.618   0.898 -0.6768  0.3795  0.3049
  718poe    c23 4290   2.129   3.481   0.916  0.2349  0.4547 -0.3398
  718poe    c23 4291   2.185   3.443   1.054 -0.1016 -0.0979 -0.3521
  718poe     o2 4292   2.288   3.535   1.081 -0.7211  0.4464  0.1730
  718poe    c23 4293   2.325   3.508   1.214  0.1465  0.2337 -0.1090
  718poe    c23 4294   2.446   3.600   1.238  0.4360 -0.1031 -0.2737
  718poe     o2 4295   2.427   3.720   1.166  0.3214 -0.0022 -0.0770
  718poe    c31 4296   2.540   3.803   1.175  0.6691 -0.4442 -0.3403
  719poe    c31 4297   0.763   4.363   0.694  0.0543  0.1223 -0.1463
  719poe     o2 4298   0.854   4.315   0.598 -0.2972 -1.0647  0.1039
  719poe    c23 4299   0.780   4.343   0.481  0.0329 -0.2898  0.0737
  719poe    c23 4300   0.872   4.288   0.371 -0.1892  0.3411 -0.4300
  719poe     o2 4301   1.003   4.314   0.416 -0.0372  0.1982 -0.7875
  719poe    c23 4302   1.092   4.258   0.321  0.3977 -0.2342 -0.1302
  719poe    c23 4303   1.235   4.253   0.376  0.4187 -0.4591 -0.2022
  719poe     o2 4304   1.241   4.165   0.486  0.1191 -0.1508  0.0621
  719poe    c23 4305   1.375   4.130   0.511  0.0976 -0.4021 -0.1667
  719poe    c23 4306   1.412   4.040   0.630 -0.2015  0.7580  0.8243
  719poe     o2 4307   1.541   4.061   0.683  0.4451  0.0770 -0.4260
  719poe    c31 4308   1.567   3.975   0.792 -0.3938  0.6788  0.2696
  720poe    c31 4309   5.962   3.442   0.767  0.3694 -0.1818 -0.1652
  720poe     o2 4310   5.967   3.310   0.719  0.0843 -0.2335 -0.0502
  720poe    c23 4311   6.078   3.277   0.639 -0.0426 -0.2200 -0.2339
  720poe    c23 4312   6.163   3.163   0.697 -0.4762 -0.0550  0.7588
  720poe     o2 4313   6.097   3.040   0.716 -0.2438 -0.3356 -0.1772
  720poe    c23 4314   6.194   2.938   0.707  0.1522 -0.0142  0.4117
  720poe    c23 4315   6.118   2.805   0.694 -0.1145  0.1396  0.3814
  720poe     o2 4316   6.035   2.782   0.806 -0.2108  0.7526  0.4376
  720poe    c23 4317   5.965   2.660   0.808  0.5327  0.3192  0.6738
  720poe    c23 4318   5.930   2.625   0.954 -0.4827  0.3096  0.4404
  720poe     o2 4319   5.838   2.715   1.012 -1.0109  0.3119 -0.3785
  720poe    c31 4320   5.782   2.661   1.130 -0.3573  0.1880 -0.1163
  721poe    c31 4321   3.729   1.262   1.508  0.6654 -0.6080 -0.6708
  721poe     o2 4322   3.602   1.209   1.540  0.7390 -0.3591  0.0542
  721poe    c23 4323   3.611   1.071   1.512  0.5764 -0.5050  0.7060
  721poe    c23 4324   3.478   1.036   1.443  0.4988  0.6168  0.2594
  721poe     o2 4325   3.380   1.108   1.514 -0.3945 -0.6095  0.3013
  721poe    c23 4326   3.248   1.089   1.467 -0.4173 -0.5007  0.3206
  721poe    c23 4327   3.151   1.141   1.575  0.6165  0.1912  0.9289
  721poe     o2 4328   3.205   1.268   1.605  0.7745  0.4413 -0.3740
  721poe    c23 4329   3.169   1.307   1.735  0.2793  0.4863 -0.5218
  721poe    c23 4330   3.289   1.363   1.813 -0.0269 -0.9304  1.0480
  721poe     o2 4331   3.409   1.299   1.776  0.0118 -0.1542 -0.2502
  721poe    c31 4332   3.516   1.371   1.832 -0.0563 -0.1687 -0.1017
  722poe    c31 4333   0.285   1.167   1.119 -0.0455 -0.1696  0.1798
  722poe     o2 4334   0.384   1.233   1.044  0.3759 -0.3867  0.5379
  722poe    c23 4335   0.408   1.367   1.083  0.3887 -0.4973  0.9095
  722poe    c23 4336   0.539   1.419   1.022 -0.2905  0.4050  0.1887
  722poe     o2 4337   0.547   1.411   0.882 -0.0046  0.5996  0.1929
  722poe    c23 4338   0.573   1.541   0.832  0.5296  0.3024 -0.3170
  722poe    c23 4339   0.566   1.516   0.681  0.8796  0.2159 -0.3197
  722poe     o2 4340   0.626   1.388   0.674 -0.0113 -0.2237 -0.1632
  722poe    c23 4341   0.681   1.353   0.549 -1.0552 -0.3910 -0.5826
  722poe    c23 4342   0.776   1.234   0.567 -0.2447  0.3860  0.4137
  722poe     o2 4343   0.700   1.140   0.640  0.3961 -0.2116  0.3207
  722poe    c31 4344   0.787   1.032   0.666  1.3383  0.3165 -0.5566
  723poe    c31 4345   4.067   6.186   6.876  0.7814  0.0462 -0.1705
  723poe     o2 4346   4.087   6.107   6.991  0.6211 -0.2090 -0.3175
  723poe    c23 4347   4.209   6.038   6.982  0.1529 -1.1511  0.3075
  723poe    c23 4348   4.286   6.045   7.115  0.3126 -0.1969  0.1710
  723poe     o2 4349   4.235   5.946   7.201  0.4362 -0.1545  0.2928
  723poe    c23 4350   4.291   5.962   7.329  0.2746 -0.8747  0.4593
  723poe    c23 4351   4.231   6.069   7.422  0.2803 -0.2746 -0.2155
  723poe     o2 4352   4.094   6.040   7.443  0.4106 -0.6952  0.0711
  723poe    c23 4353   4.046   6.049   7.575  0.0395 -0.0909 -0.1025
  723poe    c23 4354   3.901   5.996   7.577  0.1466 -0.4057 -0.5210
  723poe     o2 4355   3.841   6.036   7.456 -0.1368 -0.0404 -0.2615
  723poe    c31 4356   3.704   6.002   7.459 -0.0224 -0.4885  0.0735
  724poe    c31 4357   3.005   0.610   1.318 -0.0975  0.1928  0.1424
  724poe     o2 4358   3.041   0.558   1.192  0.0840  0.9499 -0.1173
  724poe    c23 4359   3.179   0.575   1.169  0.3040 -0.2714  0.2415
  724poe    c23 4360   3.226   0.550   1.024  0.9906  0.3964  0.3415
  724poe     o2 4361   3.217   0.653   0.929  0.1500  0.4816  0.5005
  724poe    c23 4362   3.098   0.674   0.856  0.5249 -0.0651 -0.2785
  724poe    c23 4363   3.097   0.610   0.715  0.4802 -0.5951 -0.0381
  724poe     o2 4364   3.211   0.653   0.644  0.0005  0.0194 -0.4369
  724poe    c23 4365   3.225   0.579   0.524  0.4807  0.2954 -0.5550
  724poe    c23 4366   3.333   0.649   0.441  0.4394  0.5310 -0.4105
  724poe     o2 4367   3.435   0.694   0.527  0.5518 -0.6027  0.0577
  724poe    c31 4368   3.558   0.689   0.458  0.4466  0.2101 -0.1935
  725poe    c31 4369   4.255   4.764   1.919 -0.2219  0.0303  0.3851
  725poe     o2 4370   4.149   4.682   1.875 -0.1689  0.4021 -0.4497
  725poe    c23 4371   4.189   4.566   1.805 -0.0227  0.5526 -0.6194
  725poe    c23 4372   4.071   4.504   1.728  0.3666 -0.3060 -0.5277
  725poe     o2 4373   3.957   4.521   1.809  0.3391  0.4220 -0.7133
  725poe    c23 4374   3.836   4.479   1.750  0.2227 -0.7901  0.3270
  725poe    c23 4375   3.731   4.520   1.855 -0.0027 -0.6725  0.0600
  725poe     o2 4376   3.784   4.638   1.911  0.2544 -0.8083  0.1072
  725poe    c23 4377   3.690   4.695   2.000  0.6965  0.3183 -0.1301
  725poe    c23 4378   3.752   4.834   2.021  0.2214  0.4209  0.6190
  725poe     o2 4379   3.891   4.816   2.010  0.1391  0.2040 -0.0941
  725poe    c31 4380   3.955   4.925   2.072  0.2325 -0.0294  0.2237
  726poe    c31 4381   0.825   5.399   0.705 -0.3582  0.3296  0.2388
  726poe     o2 4382   0.858   5.497   0.609  0.4969 -0.4631 -0.2914
  726poe    c23 4383   0.969   5.578   0.643 -0.5067  0.5929  0.5384
  726poe    c23 4384   1.027   5.670   0.534  0.2302 -0.2453  0.2174
  726poe     o2 4385   0.970   5.797   0.514  0.2482 -0.2180  0.3380
  726poe    c23 4386   1.078   5.889   0.513  0.0251  0.0412  0.1069
  726poe    c23 4387   1.014   6.028   0.499 -0.3752 -0.1329  0.1896
  726poe     o2 4388   0.922   6.030   0.391  0.0051 -0.0960 -0.1353
  726poe    c23 4389   0.884   6.164   0.373  0.1756  0.0021  0.2111
  726poe    c23 4390   0.757   6.169   0.286  0.2876  0.0701  0.0495
  726poe     o2 4391   0.655   6.090   0.344 -0.0840  0.4684 -0.0599
  726poe    c31 4392   0.528   6.151   0.331 -0.3100  0.0645  0.2407
  727poe    c31 4393   1.732   2.812   3.945 -0.2661  0.1547  0.1390
  727poe     o2 4394   1.710   2.744   3.824 -0.1682  0.1085  0.1472
  727poe    c23 4395   1.776   2.619   3.829 -0.0983  0.1389  0.0076
  727poe    c23 4396   1.724   2.531   3.714 -0.4419  0.0214  0.2490
  727poe     o2 4397   1.723   2.601   3.592  0.2560 -0.3983 -0.0043
  727poe    c23 4398   1.650   2.529   3.495  0.1230  0.0930 -0.2727
  727poe    c23 4399   1.590   2.616   3.383 -0.1029  0.3001  0.0083
  727poe     o2 4400   1.693   2.712   3.373 -0.0627  0.2859  0.2642
  727poe    c23 4401   1.667   2.822   3.289 -0.1667 -0.0758 -0.1872
  727poe    c23 4402   1.796   2.904   3.269  0.5109 -0.9917  0.3663
  727poe     o2 4403   1.842   2.954   3.392 -0.8008  0.1142  0.4233
  727poe    c31 4404   1.952   3.037   3.360 -0.2389 -0.7628  0.0669
  728poe    c31 4405   0.298   0.469   2.085 -0.0518 -0.6590 -0.2136
  728poe     o2 4406   0.298   0.442   2.223 -0.0469  0.0449 -0.0704
  728poe    c23 4407   0.412   0.487   2.292 -0.1396 -0.0349  0.1362
  728poe    c23 4408   0.451   0.372   2.386 -0.0861 -0.4389 -0.3777
  728poe     o2 4409   0.326   0.329   2.435 -0.0628 -0.5846 -0.4442
  728poe    c23 4410   0.338   0.216   2.517 -0.1448 -0.6971 -0.5853
  728poe    c23 4411   0.212   0.202   2.604  0.5445  0.3059  0.6068
  728poe     o2 4412   0.100   0.196   2.518  0.2500  0.1960  0.9940
  728poe    c23 4413  -0.021   0.213   2.588 -0.2664  0.7206 -0.0194
  728poe    c23 4414  -0.154   0.192   2.512 -0.3842 -0.5929  0.5204
  728poe     o2 4415  -0.170   0.291   2.413 -0.3346 -0.7194  0.3852
  728poe    c31 4416  -0.304   0.287   2.369 -0.2455 -1.3357  0.1663
  729poe    c31 4417   3.744   2.368   2.530 -0.3177 -0.0212  0.1319
  729poe     o2 4418   3.614   2.315   2.516 -0.3279  0.1124 -0.2915
  729poe    c23 4419   3.624   2.215   2.417 -0.4000  0.2497 -0.4382
  729poe    c23 4420   3.565   2.082   2.468  0.9449 -0.2160 -0.0429
  729poe     o2 4421   3.446   2.126   2.530  0.4505 -0.3275 -0.8954
  729poe    c23 4422   3.349   2.023   2.540 -0.2823  0.4733  0.6878
  729poe    c23 4423   3.207   2.073   2.573 -0.6055 -0.0353  0.0782
  729poe     o2 4424   3.217   2.182   2.661 -0.2529  0.0632 -0.0790
  729poe    c23 4425   3.098   2.211   2.732 -0.1942  0.2174 -0.0423
  729poe    c23 4426   3.093   2.350   2.797  0.7137  0.3261 -0.1963
  729poe     o2 4427   3.182   2.354   2.907  0.0491 -0.2089  0.3673
  729poe    c31 4428   3.145   2.471   2.977  0.2133  0.2053 -0.2274
  730poe    c31 4429   6.398   3.589   2.388  0.0923  0.3954 -0.3435
  730poe     o2 4430   6.419   3.465   2.451 -0.2159  0.0537 -0.9122
  730poe    c23 4431   6.518   3.490   2.548 -0.0804 -0.4281 -0.9233
  730poe    c23 4432   6.537   3.379   2.654 -0.8474  0.0301 -0.2899
  730poe     o2 4433   6.587   3.252   2.618 -0.3543  0.0744  0.2166
  730poe    c23 4434   6.523   3.139   2.673  0.2685 -0.4932 -0.2120
  730poe    c23 4435   6.451   3.077   2.552  0.0940  0.1678 -0.4529
  730poe     o2 4436   6.347   3.155   2.497 -0.3046 -0.0659 -0.0380
  730poe    c23 4437   6.257   3.075   2.424 -0.4810 -0.2229  0.3451
  730poe    c23 4438   6.159   3.183   2.373 -0.1694 -0.1421 -0.0912
  730poe     o2 4439   6.233   3.281   2.303 -0.2791 -0.0280 -0.0471
  730poe    c31 4440   6.144   3.375   2.248 -0.0961 -0.1080 -0.4802
  731poe    c31 4441   5.592   6.494   3.289 -0.0613 -0.1997  0.2274
  731poe     o2 4442   5.681   6.447   3.190 -0.4965  0.6425 -0.5702
  731poe    c23 4443   5.679   6.309   3.158  0.5636  0.5280 -0.1596
  731poe    c23 4444   5.773   6.259   3.047 -0.0896 -0.2427 -0.3670
  731poe     o2 4445   5.726   6.267   2.914 -0.4501  0.1795 -0.2160
  731poe    c23 4446   5.841   6.251   2.835 -0.2706 -0.7011  0.2019
  731poe    c23 4447   5.790   6.267   2.690  0.6870 -0.4924 -0.1242
  731poe     o2 4448   5.701   6.376   2.676  0.6980 -0.4743 -0.0591
  731poe    c23 4449   5.605   6.337   2.580 -0.0902  0.3736  0.3770
  731poe    c23 4450   5.561   6.466   2.508  0.1352  0.1598 -0.1477
  731poe     o2 4451   5.638   6.529   2.408  0.0713  0.1763 -0.1865
  731poe    c31 4452   5.723   6.626   2.466  0.7343 -0.4690 -0.0737
  732poe    c31 4453   2.773   0.547   1.627 -0.1535  0.4302  0.3317
  732poe     o2 4454   2.675   0.647   1.621  0.1699  0.7377  0.1126
  732poe    c23 4455   2.713   0.767   1.685 -0.1372  0.9007 -0.0026
  732poe    c23 4456   2.637   0.779   1.818  0.5941  0.6211  0.4520
  732poe     o2 4457   2.505   0.772   1.767  0.6363  0.6395  0.3385
  732poe    c23 4458   2.403   0.770   1.865 -0.1403  0.3470 -0.4652
  732poe    c23 4459   2.268   0.789   1.793 -0.1259 -0.3435 -0.6854
  732poe     o2 4460   2.262   0.704   1.681  0.2111 -0.0335 -0.9420
  732poe    c23 4461   2.129   0.657   1.678  0.1918 -0.1079  0.4122
  732poe    c23 4462   2.105   0.540   1.580  0.4260 -0.0144  0.2408
  732poe     o2 4463   2.184   0.431   1.621 -0.2007 -0.4270  0.3657
  732poe    c31 4464   2.153   0.322   1.537  0.3016 -0.5106  0.2859
  733poe    c31 4465   1.384   1.247   2.037 -0.7346  0.1644  0.2613
  733poe     o2 4466   1.342   1.134   1.963  0.5966  0.1361 -0.4909
  733poe    c23 4467   1.395   1.014   2.014  0.0516  0.4208  0.7868
  733poe    c23 4468   1.283   0.912   1.988  0.3902  0.3037 -0.2691
  733poe     o2 4469   1.254   0.925   1.851 -0.3056  0.1112 -0.1451
  733poe    c23 4470   1.141   0.850   1.813 -0.1002 -0.2544 -0.0451
  733poe    c23 4471   1.128   0.892   1.665 -0.3090 -0.2383 -0.0232
  733poe     o2 4472   1.099   1.029   1.676 -0.1916 -0.2097 -0.0673
  733poe    c23 4473   1.118   1.098   1.554  0.4613 -0.4780 -0.1181
  733poe    c23 4474   1.135   1.245   1.598 -0.6366 -0.4589  0.2677
  733poe     o2 4475   1.225   1.242   1.707 -0.8754  0.0238  0.4812
  733poe    c31 4476   1.250   1.377   1.739  0.1286  0.1964 -0.9432
  734poe    c31 4477   3.562   2.153   0.386 -0.3211  0.4558 -0.3288
  734poe     o2 4478   3.492   2.269   0.425 -0.9184  0.0576 -0.1951
  734poe    c23 4479   3.516   2.295   0.562 -0.4041 -0.1409 -0.2438
  734poe    c23 4480   3.399   2.389   0.596  0.3238  0.4989  0.5402
  734poe     o2 4481   3.389   2.462   0.476  0.4752  0.6624  0.6265
  734poe    c23 4482   3.281   2.552   0.489 -0.1482  0.1413 -0.7028
  734poe    c23 4483   3.299   2.673   0.395 -0.2793  0.1260 -0.7472
  734poe     o2 4484   3.350   2.619   0.275  0.6536 -0.7308  0.0221
  734poe    c23 4485   3.397   2.700   0.170  0.5060  0.0027  0.5187
  734poe    c23 4486   3.402   2.630   0.033  0.7694  0.7438  0.1443
  734poe     o2 4487   3.494   2.523   0.034 -0.1699 -0.0790  0.6002
  734poe    c31 4488   3.509   2.472  -0.096  0.4566  0.2391  0.5427
  735poe    c31 4489   4.366   0.993   0.110  0.3475  0.0564  0.4957
  735poe     o2 4490   4.232   0.952   0.123  0.3410  0.0730  0.4755
  735poe    c23 4491   4.161   1.059   0.181 -0.1598 -0.2153  0.4021
  735poe    c23 4492   4.014   1.024   0.207 -0.1776 -0.4889 -0.0567
  735poe     o2 4493   4.005   0.885   0.181 -0.0904 -0.4047 -0.5462
  735poe    c23 4494   3.870   0.844   0.188 -0.2226  0.0891 -0.0526
  735poe    c23 4495   3.867   0.692   0.162  0.5895  0.0007  0.3438
  735poe     o2 4496   3.961   0.671   0.059 -0.1858 -0.3928 -0.2899
  735poe    c23 4497   4.011   0.541   0.043  0.1563 -0.2841 -0.1230
  735poe    c23 4498   4.147   0.556  -0.028 -0.0156  0.6441 -0.2681
  735poe     o2 4499   4.243   0.644   0.026  0.5467 -0.3949  0.4707
  735poe    c31 4500   4.357   0.632  -0.055  0.0899 -0.0759 -0.2283
  736poe    c31 4501   2.831   0.260   3.836 -0.0476  0.0138 -0.0926
  736poe     o2 4502   2.855   0.281   3.699  0.6653  0.0172  0.0324
  736poe    c23 4503   2.966   0.210   3.648  0.4870 -0.1724 -0.0922
  736poe    c23 4504   2.958   0.209   3.494  0.2256 -0.2705 -0.0789
  736poe     o2 4505   2.827   0.174   3.456  0.1768 -0.1816  0.0053
  736poe    c23 4506   2.824   0.171   3.315 -0.8122  0.2290  0.0130
  736poe    c23 4507   2.687   0.112   3.278 -0.8765  0.1679  0.3427
  736poe     o2 4508   2.570   0.159   3.341 -0.8879 -0.0096  0.4540
  736poe    c23 4509   2.457   0.139   3.259 -0.3543  0.0025 -0.2961
  736poe    c23 4510   2.325   0.146   3.339  0.0532  0.5871  0.3423
  736poe     o2 4511   2.346   0.042   3.431  0.3848  0.5575  0.2363
  736poe    c31 4512   2.226   0.042   3.506 -0.3206 -0.6631 -0.8539
  737poe    c31 4513   5.875   5.010   5.302 -0.2481  0.3776  0.0941
  737poe     o2 4514   5.787   4.999   5.192 -0.0500  0.2083 -0.0471
  737poe    c23 4515   5.843   4.904   5.105 -0.2249  0.1686 -0.1162
  737poe    c23 4516   5.752   4.892   4.981  0.4366  0.3004 -0.6222
  737poe     o2 4517   5.741   5.021   4.927  0.2655  0.7234  0.4039
  737poe    c23 4518   5.643   5.021   4.826  0.4654  0.7981  0.2089
  737poe    c23 4519   5.564   5.150   4.857 -1.0104 -0.1307  0.4103
  737poe     o2 4520   5.549   5.134   4.997  0.6510  0.0892  0.6374
  737poe    c23 4521   5.481   5.238   5.064 -0.3615 -0.1358 -0.0130
  737poe    c23 4522   5.480   5.228   5.218  0.1610  0.1977  0.0107
  737poe     o2 4523   5.608   5.190   5.263  0.0698  0.0041  0.1065
  737poe    c31 4524   5.611   5.213   5.402 -1.0482  0.0005  0.1346
  738poe    c31 4525   1.184   4.132   5.082  0.4816 -0.4291  0.2777
  738poe     o2 4526   1.212   4.155   4.946 -0.3343  0.5637  0.2663
  738poe    c23 4527   1.288   4.274   4.939  0.8163 -0.1459  0.3897
  738poe    c23 4528   1.322   4.303   4.791  0.5822 -0.1166  0.3409
  738poe     o2 4529   1.311   4.183   4.718 -0.0958 -0.1337  0.4626
  738poe    c23 4530   1.333   4.193   4.579  0.2338  0.2733  0.5415
  738poe    c23 4531   1.413   4.078   4.515 -0.2458  0.3260 -0.1673
  738poe     o2 4532   1.342   3.957   4.502  0.2264  0.1382 -1.0305
  738poe    c23 4533   1.324   3.895   4.377 -0.6076 -0.5950 -0.5594
  738poe    c23 4534   1.373   3.749   4.379  0.8906 -0.1076 -0.3756
  738poe     o2 4535   1.300   3.660   4.461  0.9669  0.0050 -0.1856
  738poe    c31 4536   1.374   3.543   4.488  0.2868 -0.5344 -0.6329
  739poe    c31 4537   0.497   1.178   5.107  0.4412  0.0956 -0.2334
  739poe     o2 4538   0.557   1.294   5.055 -0.0231  0.2198 -0.4964
  739poe    c23 4539   0.457   1.350   4.973 -0.2873 -0.5858 -0.7343
  739poe    c23 4540   0.530   1.470   4.909 -0.9194  0.5953  0.6797
  739poe     o2 4541   0.606   1.540   5.005 -0.4087  0.4650  0.3758
  739poe    c23 4542   0.642   1.674   4.981 -0.6383  0.4915  0.1705
  739poe    c23 4543   0.715   1.731   5.104 -0.5834  0.0899  0.3250
  739poe     o2 4544   0.785   1.620   5.155 -0.5528  0.0366  0.1673
  739poe    c23 4545   0.777   1.626   5.296 -0.3646 -0.0532  0.1826
  739poe    c23 4546   0.826   1.485   5.335 -0.3528  0.0473  0.5354
  739poe     o2 4547   0.731   1.402   5.272 -0.1848 -0.1131  0.4908
  739poe    c31 4548   0.737   1.278   5.339  0.3593 -0.2002  0.2853
  740poe    c31 4549   0.759   2.805   0.206  0.4013  0.4467 -0.9333
  740poe     o2 4550   0.860   2.721   0.152  0.6124 -0.4190  0.7589
  740poe    c23 4551   0.894   2.754   0.020 -0.0027  0.6265  0.8469
  740poe    c23 4552   1.044   2.727  -0.004 -0.2474  0.0424 -0.0917
  740poe     o2 4553   1.051   2.593   0.040  0.4488  0.1114  0.0164
  740poe    c23 4554   1.165   2.519   0.005 -0.0151 -0.4437 -0.3486
  740poe    c23 4555   1.167   2.401   0.103  0.5681 -0.1150  0.0442
  740poe     o2 4556   1.101   2.435   0.223 -0.2806 -0.1190 -0.4144
  740poe    c23 4557   1.103   2.358   0.341 -0.1913  0.0231 -0.3225
  740poe    c23 4558   0.979   2.391   0.427 -0.1193 -0.6005  0.0271
  740poe     o2 4559   0.944   2.527   0.417  0.3268 -0.4784  0.1082
  740poe    c31 4560   0.844   2.565   0.508 -0.0388 -0.5312 -0.2662
  741poe    c31 4561   4.367   5.778   0.796  0.2806 -0.2157 -0.4056
  741poe     o2 4562   4.474   5.869   0.783 -0.1249  0.2994 -0.1954
  741poe    c23 4563   4.425   5.995   0.823 -0.0754  0.2996 -0.1348
  741poe    c23 4564   4.554   6.070   0.864 -0.1883  0.3640  0.1032
  741poe     o2 4565   4.646   6.027   0.767 -0.4530  0.9118 -0.3939
  741poe    c23 4566   4.767   6.100   0.761  0.0501  0.1258  0.0036
  741poe    c23 4567   4.852   6.077   0.635  0.2145  0.4715  0.0526
  741poe     o2 4568   4.851   5.937   0.622 -0.0324  0.4466  0.3319
  741poe    c23 4569   4.841   5.913   0.483 -0.4648  0.1481  0.4127
  741poe    c23 4570   4.766   5.781   0.459 -0.1100  0.0852 -0.4044
  741poe     o2 4571   4.653   5.778   0.544  0.1846  0.0607 -0.0120
  741poe    c31 4572   4.546   5.712   0.481  0.8419 -0.1519 -0.9165
  742poe    c31 4573   3.883   4.295   4.913  0.1293  0.5950  0.3683
  742poe     o2 4574   3.910   4.230   4.791  0.2232  0.4999  0.4395
  742poe    c23 4575   4.031   4.281   4.741 -0.4580  1.0529 -0.6927
  742poe    c23 4576   4.036   4.246   4.591  0.0885  0.4561 -0.5430
  742poe     o2 4577   4.003   4.109   4.586  0.3474  0.3769 -0.1565
  742poe    c23 4578   4.052   4.032   4.478  0.1723 -0.0789  0.0915
  742poe    c23 4579   4.027   3.882   4.506 -0.3751 -0.1024 -0.4945
  742poe     o2 4580   3.898   3.845   4.549 -0.5741  0.3596 -0.6828
  742poe    c23 4581   3.874   3.706   4.539  0.2181  0.2024 -0.4975
  742poe    c23 4582   3.752   3.646   4.610  0.7150  0.2312  0.3881
  742poe     o2 4583   3.744   3.658   4.751 -0.5304 -0.0692  0.3594
  742poe    c31 4584   3.773   3.533   4.810 -0.2910  0.0514  0.4960
  743poe    c31 4585   4.734   4.537   3.944  0.8571 -0.9523  0.4032
  743poe     o2 4586   4.629   4.494   4.028  0.4583 -0.4781  0.1502
  743poe    c23 4587   4.684   4.479   4.157  0.8452  0.4016  0.0965
  743poe    c23 4588   4.596   4.372   4.224  0.1276  1.0350  0.1754
  743poe     o2 4589   4.459   4.376   4.192  0.2903  0.0855 -0.6986
  743poe    c23 4590   4.376   4.333   4.298  0.5461  0.1136 -0.4850
  743poe    c23 4591   4.367   4.181   4.319  0.3337  0.1637 -0.2178
  743poe     o2 4592   4.335   4.109   4.203  0.1614  0.1617 -0.1700
  743poe    c23 4593   4.335   3.969   4.216  0.6458  0.1295 -0.4867
  743poe    c23 4594   4.473   3.901   4.234  0.1831 -0.7689 -0.2779
  743poe     o2 4595   4.535   3.919   4.108  0.5195  0.1284  0.0121
  743poe    c31 4596   4.620   3.817   4.061  0.4608  0.2624 -0.3794
  744poe    c31 4597   0.280   6.546   3.054  0.6821  0.9625  0.2007
  744poe     o2 4598   0.197   6.578   3.163 -0.2756 -0.7071  0.0104
  744poe    c23 4599   0.271   6.600   3.281  0.0143 -0.3796 -0.2273
  744poe    c23 4600   0.168   6.556   3.387  0.2429 -0.4734 -0.0435
  744poe     o2 4601   0.040   6.608   3.361  0.4228 -0.0454 -0.0815
  744poe    c23 4602  -0.062   6.586   3.456  0.2691  0.5910 -0.0933
  744poe    c23 4603  -0.190   6.530   3.392  0.1596  0.2642  0.4037
  744poe     o2 4604  -0.213   6.631   3.297 -0.4453 -0.0224  0.2371
  744poe    c23 4605  -0.340   6.620   3.238 -0.3410 -0.0046  0.0085
  744poe    c23 4606  -0.309   6.653   3.091  0.8315  0.1699  0.2854
  744poe     o2 4607  -0.260   6.785   3.085  0.0536  0.4484 -0.0608
  744poe    c31 4608  -0.269   6.843   2.956 -0.7490  0.5060  0.0182
  745poe    c31 4609   3.559   0.322   4.393 -0.3851  1.1120 -0.4206
  745poe     o2 4610   3.436   0.325   4.461 -0.1331  0.0022  0.1078
  745poe    c23 4611   3.455   0.411   4.572  0.8713 -0.3794  0.2394
  745poe    c23 4612   3.318   0.418   4.642  0.8319  0.1941  0.1116
  745poe     o2 4613   3.229   0.468   4.546  0.4822 -0.2945  0.1755
  745poe    c23 4614   3.098   0.504   4.586  0.5328  0.1039 -0.0044
  745poe    c23 4615   3.035   0.561   4.458  0.0859 -0.3217  0.0224
  745poe     o2 4616   3.055   0.463   4.358 -0.5108 -0.0321 -0.3818
  745poe    c23 4617   2.935   0.441   4.288 -0.7456 -0.3165  0.1058
  745poe    c23 4618   2.898   0.548   4.184 -0.5186 -0.2236  0.1215
  745poe     o2 4619   2.989   0.540   4.077 -0.2875  0.9076  0.2211
  745poe    c31 4620   2.924   0.616   3.978 -0.8384 -0.0913 -0.1900
  746poe    c31 4621   6.542   4.859   5.882  0.1567 -0.2933  0.5634
  746poe     o2 4622   6.522   4.996   5.859 -0.3193 -0.3213  0.8015
  746poe    c23 4623   6.480   5.021   5.727  0.7784  0.0790  0.5108
  746poe    c23 4624   6.504   5.168   5.689 -0.5167  0.1280 -0.1706
  746poe     o2 4625   6.462   5.241   5.802  0.1618 -0.2098  0.3061
  746poe    c23 4626   6.504   5.375   5.812  0.8321 -0.3968  0.0363
  746poe    c23 4627   6.643   5.367   5.877  0.7721  0.5174  0.2855
  746poe     o2 4628   6.627   5.289   5.994 -0.2688  0.2832 -0.0003
  746poe    c23 4629   6.742   5.259   6.070  0.1810 -0.2740 -0.8740
  746poe    c23 4630   6.691   5.188   6.197  0.5768  0.2821 -0.4002
  746poe     o2 4631   6.581   5.112   6.154  0.2406  0.2986  0.4058
  746poe    c31 4632   6.541   5.008   6.240 -0.2854 -0.2341 -0.4649
  747poe    c31 4633   6.813   1.415   1.978  0.9168  0.1178 -0.0199
  747poe     o2 4634   6.723   1.316   1.934  0.4582  0.4928  0.0634
  747poe    c23 4635   6.635   1.290   2.041  0.0061  0.2722 -0.3573
  747poe    c23 4636   6.558   1.164   1.996  0.6840 -0.0303 -0.6885
  747poe     o2 4637   6.637   1.049   2.012  0.1705 -0.2445  0.4078
  747poe    c23 4638   6.559   0.946   1.955  0.2113 -0.0657  0.0296
  747poe    c23 4639   6.652   0.824   1.946  0.0871 -0.1875  0.3995
  747poe     o2 4640   6.756   0.875   1.866 -0.3450  0.0073 -0.0417
  747poe    c23 4641   6.852   0.774   1.843 -0.2394  0.0888  0.0423
  747poe    c23 4642   6.930   0.845   1.730  0.0239 -0.1301  0.0858
  747poe     o2 4643   6.970   0.978   1.752 -0.1680  0.0470 -0.6183
  747poe    c31 4644   7.074   1.007   1.662 -0.1911 -0.0441 -0.6743
  748poe    c31 4645   1.384   5.151   2.295 -0.0657  0.3458  0.8059
  748poe     o2 4646   1.365   5.015   2.327  0.2350  0.0549 -0.2329
  748poe    c23 4647   1.226   4.991   2.322  0.1934  0.1460  0.4697
  748poe    c23 4648   1.188   4.850   2.370  0.1280  0.0756  0.2095
  748poe     o2 4649   1.204   4.845   2.510 -0.0966 -0.0231  0.2333
  748poe    c23 4650   1.194   4.714   2.561 -0.0759 -0.3617 -0.6159
  748poe    c23 4651   1.238   4.710   2.708 -0.3375  0.2851 -0.5136
  748poe     o2 4652   1.168   4.780   2.808  0.3058  0.2060 -0.0051
  748poe    c23 4653   1.259   4.809   2.912  0.2581 -0.2691  0.1702
  748poe    c23 4654   1.202   4.852   3.048 -0.0413  0.2152 -0.1078
  748poe     o2 4655   1.097   4.946   3.038  0.0088  0.2224 -0.5697
  748poe    c31 4656   1.073   4.995   3.168  0.3527 -0.4105 -0.2604
  749poe    c31 4657   2.354   6.032   5.646 -0.0185  0.5122 -0.2704
  749poe     o2 4658   2.322   5.988   5.516  0.1976 -0.4947  0.0025
  749poe    c23 4659   2.228   5.883   5.522 -0.5599  0.1470 -0.3934
  749poe    c23 4660   2.203   5.829   5.380  0.2494 -0.3686 -0.3464
  749poe     o2 4661   2.333   5.830   5.326  0.6089 -0.6182  0.4969
  749poe    c23 4662   2.334   5.761   5.203 -0.0030  0.5414 -0.1815
  749poe    c23 4663   2.477   5.785   5.151  0.0838  0.0026 -0.1930
  749poe     o2 4664   2.507   5.922   5.158  0.2756 -0.0522  0.0726
  749poe    c23 4665   2.608   5.952   5.064  0.6083 -0.0944  0.4164
  749poe    c23 4666   2.653   6.099   5.062 -0.2741  0.1747  0.1531
  749poe     o2 4667   2.695   6.154   5.184  0.0694 -0.0386  0.1332
  749poe    c31 4668   2.709   6.294   5.194 -0.4982  0.1021 -0.9366
  750poe    c31 4669   1.575   0.375   4.447 -0.3520 -0.5474  0.6125
  750poe     o2 4670   1.618   0.350   4.315  0.1888  0.4173  0.5884
  750poe    c23 4671   1.661   0.466   4.247  0.0663  0.2071  0.1437
  750poe    c23 4672   1.810   0.443   4.217  0.0420  0.1805  0.0444
  750poe     o2 4673   1.820   0.313   4.164 -1.0182  0.2765 -0.4056
  750poe    c23 4674   1.941   0.289   4.095 -0.4293 -0.1964  0.7602
  750poe    c23 4675   1.946   0.150   4.028 -0.2406 -0.0272  0.4234
  750poe     o2 4676   1.938   0.058   4.134  0.5505 -0.2168  0.3283
  750poe    c23 4677   1.971  -0.072   4.090  0.5054 -0.2038  0.2550
  750poe    c23 4678   1.898  -0.172   4.182 -0.0010  0.7181  0.8751
  750poe     o2 4679   1.758  -0.165   4.195 -0.1147  0.1237  0.0620
  750poe    c31 4680   1.712  -0.297   4.211  0.4459 -0.1192 -0.2863
  751poe    c31 4681   5.639   3.717   6.769  0.3761 -0.6197 -0.5920
  751poe     o2 4682   5.610   3.747   6.635  0.2573  0.9422 -0.2427
  751poe    c23 4683   5.694   3.674   6.548 -0.7562 -0.0173 -0.4570
  751poe    c23 4684   5.680   3.738   6.408 -0.1653 -0.1163 -0.5654
  751poe     o2 4685   5.668   3.876   6.433 -0.0875 -0.2827  0.4550
  751poe    c23 4686   5.640   3.939   6.310 -0.4066  0.2976  0.8205
  751poe    c23 4687   5.488   3.961   6.304 -0.5601 -0.7664  0.4834
  751poe     o2 4688   5.457   3.999   6.437  0.4812  0.7204  0.3268
  751poe    c23 4689   5.319   3.983   6.457  0.5333 -0.1189  0.0920
  751poe    c23 4690   5.277   4.009   6.603 -0.5368 -0.2690 -0.1768
  751poe     o2 4691   5.381   3.936   6.665  0.1827  0.6772 -0.2486
  751poe    c31 4692   5.360   3.920   6.803  0.4237 -0.0849 -0.2962
  752poe    c31 4693   0.565   4.342   3.061 -0.1637 -0.0605  0.5109
  752poe     o2 4694   0.580   4.218   3.125 -0.3474 -0.2756  0.1422
  752poe    c23 4695   0.713   4.217   3.174 -0.3445 -0.1282  0.1376
  752poe    c23 4696   0.754   4.094   3.258  0.2091  0.6286  0.9857
  752poe     o2 4697   0.654   4.060   3.351 -0.2396 -0.2439  0.1968
  752poe    c23 4698   0.667   4.102   3.485  0.5520 -0.0375  0.0600
  752poe    c23 4699   0.546   4.189   3.524  0.7974 -0.0993  0.9766
  752poe     o2 4700   0.424   4.122   3.543  0.2204  0.6894  0.1787
  752poe    c23 4701   0.343   4.209   3.618 -0.1702  0.1328  0.4135
  752poe    c23 4702   0.216   4.127   3.644  0.0439 -0.2813  0.1578
  752poe     o2 4703   0.118   4.161   3.548 -0.3316 -0.1698  0.5749
  752poe    c31 4704   0.014   4.067   3.560  0.2594 -0.8225  0.6084
  753poe    c31 4705   2.354   1.538   0.413 -0.3182 -1.3334 -0.0487
  753poe     o2 4706   2.403   1.575   0.540 -0.1517  0.1855 -0.5328
  753poe    c23 4707   2.465   1.701   0.530 -0.0139  0.1336 -0.3348
  753poe    c23 4708   2.489   1.770   0.666  0.3928  0.1448 -0.4121
  753poe     o2 4709   2.549   1.684   0.761  0.2169  0.0698 -0.3696
  753poe    c23 4710   2.597   1.764   0.866 -0.2321 -0.3610  0.1708
  753poe    c23 4711   2.609   1.665   0.983 -0.0933 -0.6647 -0.1012
  753poe     o2 4712   2.482   1.604   0.991 -0.4593  0.1199  0.1221
  753poe    c23 4713   2.474   1.515   1.100  0.0662 -0.1236 -0.0341
  753poe    c23 4714   2.349   1.425   1.097 -0.4596  0.6012 -0.2568
  753poe     o2 4715   2.309   1.419   0.962 -0.2036 -0.1591 -0.3015
  753poe    c31 4716   2.257   1.290   0.937  0.2493 -0.2937 -0.5690
  754poe    c31 4717   1.108   1.147   6.705 -0.2411 -0.1414 -0.1136
  754poe     o2 4718   1.189   1.180   6.815  0.1147 -0.7534 -0.1905
  754poe    c23 4719   1.282   1.079   6.849 -0.5107 -1.2338  0.1071
  754poe    c23 4720   1.406   1.138   6.917 -0.3665 -0.1939 -1.0269
  754poe     o2 4721   1.373   1.244   7.004  0.8579 -0.6006 -0.0397
  754poe    c23 4722   1.479   1.324   7.053  0.3547  0.0608 -0.0232
  754poe    c23 4723   1.395   1.423   7.136  0.1013 -0.3093  0.1689
  754poe     o2 4724   1.276   1.463   7.072  0.7258  0.5617 -0.4735
  754poe    c23 4725   1.209   1.550   7.161  0.0297 -0.0428 -0.3998
  754poe    c23 4726   1.061   1.581   7.134 -0.0377 -0.3444 -0.3858
  754poe     o2 4727   1.038   1.638   7.008  0.2528  0.2749 -0.1635
  754poe    c31 4728   0.901   1.621   6.976  0.3875 -0.2625 -0.4650
  755poe    c31 4729   4.871   5.362   3.372 -0.2668 -0.1404  0.0604
  755poe     o2 4730   4.961   5.446   3.304 -0.4101 -0.4198 -0.4804
  755poe    c23 4731   5.079   5.379   3.265  0.0880 -0.0621  0.3867
  755poe    c23 4732   5.193   5.473   3.224 -0.2908  0.1093 -0.2852
  755poe     o2 4733   5.181   5.547   3.104 -0.0610  0.7721  0.0922
  755poe    c23 4734   5.306   5.586   3.053 -0.1819  1.1467  0.0787
  755poe    c23 4735   5.289   5.692   2.943  0.1891  0.2587 -0.8516
  755poe     o2 4736   5.164   5.655   2.890 -0.3877  0.3525  0.4032
  755poe    c23 4737   5.125   5.751   2.794 -0.3238  0.0854  0.1058
  755poe    c23 4738   5.008   5.685   2.718 -0.1599 -0.6816  0.5108
  755poe     o2 4739   4.929   5.625   2.818 -0.1046 -0.1292  0.8906
  755poe    c31 4740   4.828   5.560   2.744  0.5475 -0.3317  0.1744
  756poe    c31 4741   6.311   4.329   6.913 -0.4148 -0.1483  0.1057
  756poe     o2 4742   6.225   4.439   6.929 -0.3690 -0.1625  0.4732
  756poe    c23 4743   6.086   4.415   6.936 -0.3582 -0.3033  0.2189
  756poe    c23 4744   6.023   4.555   6.928 -0.0303 -0.1479  0.3401
  756poe     o2 4745   6.084   4.667   6.988 -0.7777  0.3736  0.1421
  756poe    c23 4746   6.059   4.694   7.124 -0.1011 -0.0407  0.3535
  756poe    c23 4747   6.191   4.737   7.192  0.1209 -0.0176 -0.0861
  756poe     o2 4748   6.297   4.657   7.145  0.5255  0.5931 -0.2199
  756poe    c23 4749   6.412   4.655   7.226  0.1026  0.3604  0.3846
  756poe    c23 4750   6.527   4.634   7.125 -0.2800  0.4780 -0.0768
  756poe     o2 4751   6.495   4.557   7.011 -0.0200  0.0730  0.1210
  756poe    c31 4752   6.603   4.572   6.921  0.4679  0.3118  0.7384
  757poe    c31 4753   5.491   4.393   6.336 -0.0500  0.1741  0.0021
  757poe     o2 4754   5.457   4.499   6.422 -0.2897  0.1231 -0.0298
  757poe    c23 4755   5.552   4.603   6.431  0.5494 -0.6983  0.8414
  757poe    c23 4756   5.492   4.736   6.479  0.1001 -0.4529 -0.3653
  757poe     o2 4757   5.423   4.820   6.389  0.1465 -0.7660 -0.6956
  757poe    c23 4758   5.510   4.913   6.327 -0.1865  0.0101 -0.0287
  757poe    c23 4759   5.439   5.016   6.237 -0.5781 -0.2740 -0.0449
  757poe     o2 4760   5.322   5.052   6.307 -0.2432 -0.1457  0.4559
  757poe    c23 4761   5.245   5.134   6.222  0.0477 -0.1466  0.1896
  757poe    c23 4762   5.104   5.158   6.280 -0.2115  0.3030 -0.6089
  757poe     o2 4763   5.040   5.033   6.293 -0.2606  0.3699 -0.1961
  757poe    c31 4764   4.932   5.037   6.383 -0.2165 -0.7335 -0.0818
  758poe    c31 4765   0.316   5.415   2.892 -0.0932  0.0904 -0.0783
  758poe     o2 4766   0.457   5.408   2.896 -0.1017  0.0411  0.1307
  758poe    c23 4767   0.510   5.357   2.775 -0.0241 -0.6226  0.4350
  758poe    c23 4768   0.652   5.400   2.735 -0.3230  0.0951  0.1140
  758poe     o2 4769   0.639   5.526   2.674  0.4640 -0.1984 -0.6959
  758poe    c23 4770   0.762   5.591   2.696 -0.1820  0.5350  0.9168
  758poe    c23 4771   0.751   5.741   2.661  0.4157  0.3495 -0.0900
  758poe     o2 4772   0.693   5.819   2.762 -0.1879  0.0128 -0.1754
  758poe    c23 4773   0.737   5.953   2.761  0.0148 -0.0454  0.3604
  758poe    c23 4774   0.643   6.018   2.865 -0.0595 -0.0541  0.2995
  758poe     o2 4775   0.508   5.980   2.860 -0.1219  0.1372  0.5021
  758poe    c31 4776   0.423   6.088   2.892 -0.1958  0.1714  0.1948
  759poe    c31 4777   0.166   0.980   6.250  0.0908  0.1410  0.0376
  759poe     o2 4778   0.254   1.085   6.281  0.6367 -0.4164  0.3846
  759poe    c23 4779   0.301   1.141   6.160 -0.1441 -0.1691  0.1903
  759poe    c23 4780   0.415   1.241   6.186 -0.0692 -0.3152  0.4266
  759poe     o2 4781   0.505   1.186   6.280  0.6410 -0.2831 -0.2252
  759poe    c23 4782   0.599   1.283   6.318 -0.2077  0.2152  0.6354
  759poe    c23 4783   0.693   1.200   6.407 -0.1336  0.0280  0.3817
  759poe     o2 4784   0.624   1.114   6.496 -0.5061  0.3589  0.4150
  759poe    c23 4785   0.714   1.091   6.601  0.1912 -0.0926 -0.2675
  759poe    c23 4786   0.650   0.977   6.681  0.7138 -0.0679  0.1971
  759poe     o2 4787   0.637   0.863   6.598 -0.0968  0.0438  0.1567
  759poe    c31 4788   0.596   0.764   6.689 -0.1292 -0.3218 -0.2560
  760poe    c31 4789   6.910   5.584   1.717 -1.0570 -0.4483 -0.2966
  760poe     o2 4790   6.977   5.632   1.602 -0.1546  0.3951  0.5682
  760poe    c23 4791   7.090   5.712   1.628 -0.4352  0.8593  0.3703
  760poe    c23 4792   7.162   5.734   1.494 -0.6135  0.1719  0.1569
  760poe     o2 4793   7.193   5.604   1.449 -0.0907  0.4390 -0.2624
  760poe    c23 4794   7.256   5.602   1.322 -0.2445 -0.3464 -0.3339
  760poe    c23 4795   7.289   5.460   1.274 -0.4469 -0.5664  0.1754
  760poe     o2 4796   7.172   5.381   1.272 -0.8347  0.0093 -0.1084
  760poe    c23 4797   7.188   5.268   1.189 -0.3725  0.0922 -0.1350
  760poe    c23 4798   7.063   5.179   1.207 -0.7595  0.6565 -0.0207
  760poe     o2 4799   7.054   5.138   1.342 -0.2713  0.2531 -0.1065
  760poe    c31 4800   6.996   5.010   1.353 -0.4368  0.3248 -0.1303
  761poe    c31 4801   5.741   4.030   3.660 -0.2149  0.5113  0.0463
  761poe     o2 4802   5.698   4.118   3.762 -0.2503  0.1875  0.3141
  761poe    c23 4803   5.795   4.208   3.809  0.1658 -0.2151  0.2373
  761poe    c23 4804   5.745   4.353   3.793 -0.0029 -0.3166 -0.1619
  761poe     o2 4805   5.646   4.388   3.886 -0.1202 -0.4287 -0.2441
  761poe    c23 4806   5.628   4.528   3.880  0.9139 -0.2786 -0.0700
  761poe    c23 4807   5.527   4.565   3.991 -0.0914 -0.3938 -0.9257
  761poe     o2 4808   5.442   4.453   3.995  0.4554 -0.7787  0.4397
  761poe    c23 4809   5.326   4.459   4.074  0.0862  0.0327 -0.1496
  761poe    c23 4810   5.238   4.333   4.062 -0.0815  0.1202  0.1549
  761poe     o2 4811   5.333   4.232   4.082 -0.3133  0.0245  0.7924
  761poe    c31 4812   5.270   4.106   4.092 -0.2521 -0.0893 -0.2090
  762poe    c31 4813   3.885   0.393   1.211 -0.2009 -0.0102 -0.3548
  762poe     o2 4814   3.817   0.430   1.329  0.2821 -0.3134  0.0270
  762poe    c23 4815   3.687   0.402   1.281  0.0672 -0.0342  0.4337
  762poe    c23 4816   3.600   0.464   1.391 -0.5451 -0.6302  0.2875
  762poe     o2 4817   3.658   0.420   1.512  0.2975  0.3962  0.2611
  762poe    c23 4818   3.595   0.491   1.616 -0.0228  0.0451  0.3074
  762poe    c23 4819   3.658   0.431   1.743  0.1429  0.1105  0.2555
  762poe     o2 4820   3.799   0.418   1.735  0.0950 -0.1849 -0.0963
  762poe    c23 4821   3.859   0.355   1.845  0.0340  0.4081  0.2806
  762poe    c23 4822   4.013   0.364   1.842  0.0597  0.1991  0.7305
  762poe     o2 4823   4.073   0.290   1.738  0.0627  0.7759  0.3132
  762poe    c31 4824   4.109   0.161   1.782  0.5360  0.7419 -0.1597
  763poe    c31 4825   3.661   3.709   6.661 -0.2337 -0.0110 -0.4047
  763poe     o2 4826   3.711   3.724   6.530  0.0833  0.3011 -0.2508
  763poe    c23 4827   3.848   3.691   6.521 -0.0955 -0.4298 -0.3440
  763poe    c23 4828   3.886   3.742   6.381 -0.0499 -0.2677 -0.2722
  763poe     o2 4829   3.851   3.878   6.365 -0.6036 -0.3445  0.2305
  763poe    c23 4830   3.879   3.930   6.237 -0.2554  0.1136  0.4867
  763poe    c23 4831   3.838   4.078   6.234 -0.0851  0.1531 -0.2566
  763poe     o2 4832   3.726   4.084   6.319  0.1315 -0.0997  0.0502
  763poe    c23 4833   3.605   4.088   6.246  0.0018 -0.0771  0.2631
  763poe    c23 4834   3.493   4.073   6.350 -0.4375 -0.0684 -0.2045
  763poe     o2 4835   3.523   3.964   6.433  0.0472  0.0917 -0.1680
  763poe    c31 4836   3.419   3.933   6.523 -0.3171  0.3577 -0.4978
  764poe    c31 4837   6.453   0.883   4.926  0.4740  0.1010 -0.5796
  764poe     o2 4838   6.438   1.005   4.996  0.4754  0.0236 -0.4452
  764poe    c23 4839   6.424   1.116   4.911  0.5490  0.4097  0.0427
  764poe    c23 4840   6.401   1.244   4.994  0.1544  0.0792  0.4447
  764poe     o2 4841   6.295   1.205   5.079  0.0953 -0.2578  0.2192
  764poe    c23 4842   6.229   1.303   5.154  0.1522 -0.2465  0.2554
  764poe    c23 4843   6.102   1.224   5.193 -0.0802  0.0836  0.1733
  764poe     o2 4844   6.145   1.096   5.231  0.2301  0.1745  0.1328
  764poe    c23 4845   6.038   1.006   5.218  1.0292 -0.6755 -0.6989
  764poe    c23 4846   6.095   0.881   5.288  0.6252 -0.2225  0.4635
  764poe     o2 4847   6.202   0.844   5.204  0.3207  0.0019 -0.0277
  764poe    c31 4848   6.227   0.707   5.229  0.0442  0.0025  0.2550
  765poe    c31 4849   5.196   5.060   2.308 -0.1190  0.9031  0.1511
  765poe     o2 4850   5.308   4.984   2.269 -0.3673  0.5038  0.2106
  765poe    c23 4851   5.415   5.063   2.221  0.2399 -0.1408  0.4842
  765poe    c23 4852   5.524   4.968   2.168 -0.4874 -0.4455 -0.4939
  765poe     o2 4853   5.564   4.872   2.263 -0.2695  0.2823  0.1596
  765poe    c23 4854   5.674   4.798   2.214 -0.2742  0.0205  0.5413
  765poe    c23 4855   5.689   4.684   2.317 -0.4405 -0.0123  0.5299
  765poe     o2 4856   5.556   4.642   2.340 -0.6329  0.0364 -0.4634
  765poe    c23 4857   5.538   4.549   2.445 -0.1810  0.7401  0.2474
  765poe    c23 4858   5.540   4.406   2.387 -0.0390  0.4653  0.9281
  765poe     o2 4859   5.676   4.369   2.387 -0.1104  0.2013  1.0539
  765poe    c31 4860   5.686   4.228   2.392  0.3945  0.2323  0.9613
  766poe    c31 4861   3.359   6.221   5.099 -0.3481  0.4180  0.0390
  766poe     o2 4862   3.276   6.108   5.082 -0.1785  0.3473 -0.3282
  766poe    c23 4863   3.145   6.142   5.120 -0.3804 -0.7050 -0.0593
  766poe    c23 4864   3.046   6.026   5.099 -0.3830 -0.6834 -0.1629
  766poe     o2 4865   3.116   5.908   5.131 -0.5718 -0.5460  0.7913
  766poe    c23 4866   3.042   5.792   5.099 -0.3979 -0.7609  1.1604
  766poe    c23 4867   3.158   5.691   5.093  0.5937  0.3942  0.6123
  766poe     o2 4868   3.258   5.744   5.009  0.9178 -0.1302  0.6632
  766poe    c23 4869   3.373   5.664   5.026  0.7118 -0.6001 -0.1258
  766poe    c23 4870   3.489   5.744   4.964 -0.3494  0.5476 -0.6916
  766poe     o2 4871   3.469   5.877   5.005  0.0491  0.3255  0.2584
  766poe    c31 4872   3.550   5.958   4.923 -0.1870  0.2950 -0.0064
  767poe    c31 4873   0.129   6.794   1.732 -0.2475 -0.0045 -0.0271
  767poe     o2 4874   0.201   6.899   1.794  0.9650 -0.5249 -0.5155
  767poe    c23 4875   0.231   7.000   1.701 -0.4004  0.4348  0.0457
  767poe    c23 4876   0.352   7.078   1.756 -0.1310 -0.0834  0.1937
  767poe     o2 4877   0.438   6.980   1.810  0.1311 -0.1070 -0.2622
  767poe    c23 4878   0.554   7.034   1.868 -0.0864  0.0547  0.0247
  767poe    c23 4879   0.603   6.915   1.952 -0.0701 -0.4235 -0.6507
  767poe     o2 4880   0.498   6.828   1.988 -0.0437 -0.0604  0.3577
  767poe    c23 4881   0.560   6.702   2.000  0.1736  0.0183  0.0762
  767poe    c23 4882   0.450   6.600   2.035  0.3842 -0.2018  0.1028
  767poe     o2 4883   0.358   6.623   1.930  0.2395 -0.9156  0.0678
  767poe    c31 4884   0.270   6.514   1.915 -0.1799 -0.5875  0.1335
  768poe    c31 4885   3.813   4.519   3.625  0.3581 -0.1797 -0.0913
  768poe     o2 4886   3.814   4.597   3.508 -1.0449 -0.2020 -0.1344
  768poe    c23 4887   3.871   4.725   3.521 -0.1714 -0.5890 -0.0591
  768poe    c23 4888   3.893   4.792   3.385  0.3753 -0.3992  0.1213
  768poe     o2 4889   3.772   4.778   3.314  0.1804 -0.0262  0.3796
  768poe    c23 4890   3.787   4.828   3.183 -0.0189 -0.2007  0.2903
  768poe    c23 4891   3.656   4.782   3.118  0.3375 -0.2418 -0.4022
  768poe     o2 4892   3.619   4.653   3.162 -0.2853  0.0877  0.0635
  768poe    c23 4893   3.480   4.633   3.171 -0.3001  0.4108  0.5600
  768poe    c23 4894   3.433   4.668   3.313  0.0577  0.1488  0.7437
  768poe     o2 4895   3.521   4.628   3.415  0.7151  0.0664  0.1489
  768poe    c31 4896   3.448   4.650   3.534 -0.4203 -0.4394 -0.4500
  769poe    c31 4897   1.941   4.772   3.878 -0.5514 -0.9682 -0.2466
  769poe     o2 4898   1.836   4.720   3.956 -0.5057 -0.5854  0.0790
  769poe    c23 4899   1.721   4.743   3.877 -0.4686  0.4393  0.3099
  769poe    c23 4900   1.597   4.672   3.935 -0.6809 -0.6653 -1.4205
  769poe     o2 4901   1.626   4.548   3.996 -0.8788  0.2755  0.6824
  769poe    c23 4902   1.586   4.429   3.931 -0.9747  0.5349  0.2641
  769poe    c23 4903   1.669   4.333   4.018  0.0194  0.9851 -0.1652
  769poe     o2 4904   1.793   4.393   4.044  0.1139  0.6934  0.0716
  769poe    c23 4905   1.877   4.323   4.133 -0.2487 -0.3428 -0.3948
  769poe    c23 4906   2.006   4.407   4.128 -0.3059 -0.1763  0.7420
  769poe     o2 4907   1.979   4.544   4.144 -0.3536 -0.0888 -0.0564
  769poe    c31 4908   2.102   4.594   4.192 -0.3339  0.0117 -0.2082
  770poe    c31 4909   2.678   2.318   2.932 -0.1466 -0.2789  0.0355
  770poe     o2 4910   2.542   2.324   2.968 -0.2140 -0.5327 -0.1725
  770poe    c23 4911   2.476   2.440   2.920 -0.3839 -0.3514  0.4821
  770poe    c23 4912   2.348   2.386   2.854 -0.1894 -0.2182 -0.0123
  770poe     o2 4913   2.271   2.304   2.940 -0.5017 -0.1115 -0.1893
  770poe    c23 4914   2.178   2.229   2.865 -0.0314 -0.5519 -0.3396
  770poe    c23 4915   2.079   2.161   2.962 -0.2122 -0.2910 -0.3391
  770poe     o2 4916   2.150   2.088   3.059 -0.3297 -0.3236 -0.2778
  770poe    c23 4917   2.063   2.023   3.149 -0.5742 -0.3963 -0.5642
  770poe    c23 4918   2.150   1.934   3.239 -0.0913  0.4950 -0.1296
  770poe     o2 4919   2.258   2.009   3.290  0.0523  0.2131 -0.0177
  770poe    c31 4920   2.327   1.945   3.395  0.0141 -0.2729 -0.2860
  771poe    c31 4921   3.101   5.713   5.996  0.2936 -0.2149 -0.2251
  771poe     o2 4922   3.040   5.793   5.897  0.2067  0.0057  0.0059
  771poe    c23 4923   3.116   5.911   5.886  0.1951 -0.0161 -0.3307
  771poe    c23 4924   3.014   6.026   5.888  0.3945  0.1610  0.9539
  771poe     o2 4925   2.926   6.008   5.779  0.4227  0.6780  0.8421
  771poe    c23 4926   2.816   6.096   5.782 -0.4478 -0.3267 -0.2254
  771poe    c23 4927   2.726   6.039   5.671 -0.7443  0.3588 -0.3450
  771poe     o2 4928   2.707   5.903   5.703  0.5755  0.1295 -0.4655
  771poe    c23 4929   2.699   5.820   5.589 -0.0331  0.3437 -0.5833
  771poe    c23 4930   2.835   5.751   5.566 -0.3765 -0.7047  0.4668
  771poe     o2 4931   2.889   5.700   5.686  0.8305  0.0182  0.2536
  771poe    c31 4932   2.951   5.576   5.663 -0.3543 -0.5830  0.2113
  772poe    c31 4933   3.826   2.511   6.633 -0.0700  0.0868 -0.0948
  772poe     o2 4934   3.752   2.454   6.527 -0.5858  0.0031  0.3070
  772poe    c23 4935   3.680   2.556   6.461 -0.3262 -0.0226 -0.0195
  772poe    c23 4936   3.567   2.499   6.374 -0.2473  0.0186 -0.1490
  772poe     o2 4937   3.628   2.423   6.272 -0.0028  0.2727 -0.1946
  772poe    c23 4938   3.522   2.381   6.190  0.2310 -0.0436 -0.3355
  772poe    c23 4939   3.550   2.271   6.085 -0.2314  0.0625 -0.5764
  772poe     o2 4940   3.587   2.154   6.156  0.3099  0.2718 -0.5109
  772poe    c23 4941   3.658   2.058   6.082 -0.0303 -0.4072  0.0401
  772poe    c23 4942   3.626   1.908   6.101 -0.3389 -0.3062  0.3032
  772poe     o2 4943   3.661   1.864   6.230  0.0489  0.0419  0.3163
  772poe    c31 4944   3.636   1.727   6.250 -0.0346  0.0028 -0.0467
  773poe    c31 4945   0.383   2.816   1.244 -0.1247  0.7458  0.3224
  773poe     o2 4946   0.376   2.916   1.344 -0.1867  0.4031  0.6612
  773poe    c23 4947   0.479   3.009   1.326 -0.1345  0.0620 -1.0083
  773poe    c23 4948   0.416   3.134   1.390 -0.0486 -0.3462 -0.1084
  773poe     o2 4949   0.357   3.080   1.506 -0.0459  0.0282  0.0714
  773poe    c23 4950   0.305   3.173   1.598  0.5085  0.4066  0.0034
  773poe    c23 4951   0.227   3.083   1.695 -0.2283  0.6051 -0.3952
  773poe     o2 4952   0.157   2.991   1.614 -0.2616  0.3332 -0.0630
  773poe    c23 4953   0.076   2.903   1.687  0.3283 -0.3867 -0.2601
  773poe    c23 4954   0.017   2.805   1.584 -0.1592 -0.0999 -0.2575
  773poe     o2 4955   0.124   2.783   1.495  0.3159 -0.2458  0.3415
  773poe    c31 4956   0.093   2.674   1.411 -0.2727 -0.1593  0.4433
  774poe    c31 4957   1.680   3.366   5.997 -0.1471  0.3247 -0.1937
  774poe     o2 4958   1.622   3.400   6.120 -0.0744  0.4272 -0.1875
  774poe    c23 4959   1.679   3.522   6.164  0.5428  0.2268 -0.4148
  774poe    c23 4960   1.567   3.586   6.248  0.7228  0.0900 -0.0707
  774poe     o2 4961   1.507   3.488   6.330  0.2229 -0.4250 -1.0391
  774poe    c23 4962   1.399   3.538   6.406  0.7577  0.1909 -0.6790
  774poe    c23 4963   1.331   3.416   6.471 -0.1882  0.5614 -0.9613
  774poe     o2 4964   1.323   3.313   6.374  0.5843 -0.0340 -0.3973
  774poe    c23 4965   1.260   3.207   6.443  0.2616  0.4387  0.0451
  774poe    c23 4966   1.240   3.088   6.347 -0.0243  0.5427 -0.0242
  774poe     o2 4967   1.354   3.011   6.318 -0.2719  0.2704 -0.2732
  774poe    c31 4968   1.340   2.922   6.209  0.3615  0.1085 -0.2250
  775poe    c31 4969   2.606   6.916   6.313  0.2788 -0.1864  0.1983
  775poe     o2 4970   2.527   6.809   6.360  0.5905 -0.3301  0.3994
  775poe    c23 4971   2.517   6.801   6.501  0.3823  0.2827  0.4222
  775poe    c23 4972   2.433   6.908   6.574 -0.2773 -0.4139  0.6903
  775poe     o2 4973   2.297   6.870   6.574 -0.3694 -0.1382 -0.7123
  775poe    c23 4974   2.222   6.976   6.630 -0.2170 -0.7280  0.6280
  775poe    c23 4975   2.070   6.964   6.615 -0.1900  0.0894 -0.3938
  775poe     o2 4976   2.039   6.851   6.693  0.1455 -0.1827 -0.6515
  775poe    c23 4977   1.899   6.834   6.709  0.2294 -0.1530  0.1957
  775poe    c23 4978   1.883   6.706   6.794  0.3841  0.1484  0.6818
  775poe     o2 4979   1.969   6.607   6.742 -0.4906 -0.0932 -0.3654
  775poe    c31 4980   1.973   6.512   6.846 -0.1778  0.5148  0.1899
  776poe    c31 4981   2.831   6.607   2.145 -0.2961  0.6913  0.1628
  776poe     o2 4982   2.921   6.617   2.037 -0.4161  0.1157  0.0063
  776poe    c23 4983   2.899   6.738   1.967 -0.1520  0.4136  0.4350
  776poe    c23 4984   2.968   6.728   1.829 -0.4807  0.4518  0.2685
  776poe     o2 4985   3.088   6.666   1.866 -0.6171  0.2563  0.3849
  776poe    c23 4986   3.150   6.596   1.760  0.4093  1.1046  0.4073
  776poe    c23 4987   3.272   6.514   1.806  0.0901  0.1752 -0.3642
  776poe     o2 4988   3.241   6.435   1.919  0.7184  0.3775 -0.0433
  776poe    c23 4989   3.304   6.309   1.925  0.4445  0.2618  0.5372
  776poe    c23 4990   3.254   6.202   1.826  0.2789  0.4704  0.3947
  776poe     o2 4991   3.316   6.230   1.702  0.6350  0.3326  0.5419
  776poe    c31 4992   3.277   6.138   1.602  0.0224  0.3083  0.7997
  777poe    c31 4993   0.686   2.232   4.861  0.4878  0.4570  0.0671
  777poe     o2 4994   0.719   2.275   4.991 -0.1774  0.6937  0.1617
  777poe    c23 4995   0.614   2.239   5.078  0.1198 -0.4048  0.0719
  777poe    c23 4996   0.660   2.249   5.224  0.3644  0.7450 -0.0795
  777poe     o2 4997   0.790   2.196   5.238 -0.0331 -0.1751  0.1379
  777poe    c23 4998   0.844   2.242   5.360  0.2828  0.0779 -0.0992
  777poe    c23 4999   0.964   2.332   5.325  0.3080  0.1382  0.1423
  777poe     o2 5000   0.928   2.404   5.209  0.2207 -0.2428 -0.0652
  777poe    c23 5001   0.985   2.530   5.182 -0.1518  0.0010  0.2867
  777poe    c23 5002   0.935   2.567   5.041  0.0329 -0.0826  0.1991
  777poe     o2 5003   0.930   2.456   4.955 -0.8129  0.5020 -0.5134
  777poe    c31 5004   0.956   2.496   4.822  0.0880  0.4198 -0.3659
  778poe    c31 5005   6.763   1.711   3.554  0.3236  0.1585 -0.4696
  778poe     o2 5006   6.731   1.823   3.634 -0.0243 -0.2298 -0.0572
  778poe    c23 5007   6.600   1.862   3.599 -0.1153  0.0688  0.6103
  778poe    c23 5008   6.541   1.931   3.724 -0.4142  0.4100  0.2818
  778poe     o2 5009   6.648   2.011   3.767  0.4347 -0.6694  0.2075
  778poe    c23 5010   6.622   2.094   3.878 -0.4940  0.0275 -0.5174
  778poe    c23 5011   6.752   2.173   3.898 -0.4831 -0.0418 -0.3062
  778poe     o2 5012   6.850   2.075   3.925 -0.2632  0.4936  0.8798
  778poe    c23 5013   6.981   2.122   3.901 -0.1789 -0.1554  0.0129
  778poe    c23 5014   7.050   2.012   3.819  0.0144 -0.1066  0.1101
  778poe     o2 5015   6.967   1.976   3.711  0.1177 -0.0891  0.0242
  778poe    c31 5016   7.039   1.967   3.590 -0.1014  0.0146 -0.1157
  779poe    c31 5017   1.644   1.989   3.949 -0.3181  0.4572 -0.0889
  779poe     o2 5018   1.770   2.000   3.888 -0.0232 -0.0749  0.4113
  779poe    c23 5019   1.872   1.940   3.965 -0.5011 -1.1550  0.2209
  779poe    c23 5020   1.995   1.948   3.873 -0.3086 -0.4242  0.5363
  779poe     o2 5021   1.988   1.866   3.759  0.3377  0.1182  0.0956
  779poe    c23 5022   2.116   1.837   3.708  0.2232  0.2606 -0.2715
  779poe    c23 5023   2.093   1.718   3.613 -0.0882  0.1968 -0.1168
  779poe     o2 5024   1.967   1.733   3.553 -0.0169 -0.1511 -0.3570
  779poe    c23 5025   1.940   1.633   3.456 -0.1083 -0.6219  0.1465
  779poe    c23 5026   1.820   1.678   3.370  0.1509 -0.1799  0.0113
  779poe     o2 5027   1.848   1.795   3.297 -0.2697 -0.3321 -0.3968
  779poe    c31 5028   1.753   1.797   3.192 -0.1427 -0.1583 -0.5090
  780poe    c31 5029   5.532   3.676   5.495  0.3446  0.7346 -0.6711
  780poe     o2 5030   5.651   3.618   5.544 -0.2849 -0.3201 -0.3494
  780poe    c23 5031   5.651   3.575   5.678 -0.3237 -0.0939 -0.2761
  780poe    c23 5032   5.782   3.506   5.721 -0.4666 -0.3226 -0.2059
  780poe     o2 5033   5.892   3.593   5.733 -0.2153 -0.6275 -0.2810
  780poe    c23 5034   6.001   3.514   5.775  0.2717  0.3680  0.3906
  780poe    c23 5035   6.138   3.563   5.726 -0.0629  0.9174  0.0028
  780poe     o2 5036   6.131   3.575   5.586 -0.4537 -0.6779 -0.1364
  780poe    c23 5037   6.262   3.606   5.542 -0.7200  0.4062 -0.1892
  780poe    c23 5038   6.255   3.611   5.388  0.2484  0.2438 -0.2412
  780poe     o2 5039   6.147   3.692   5.348  0.3989  0.4357 -0.2589
  780poe    c31 5040   6.153   3.741   5.216 -0.4098  0.7252 -0.1939
  781poe    c31 5041   2.512   3.643   6.216 -0.1612  0.6177 -0.2082
  781poe     o2 5042   2.404   3.732   6.227 -0.5454  0.1435 -0.1251
  781poe    c23 5043   2.427   3.864   6.184  0.3330  0.2897  0.7497
  781poe    c23 5044   2.294   3.942   6.172  0.0124 -0.4092 -0.4003
  781poe     o2 5045   2.227   3.894   6.286  0.4357 -0.0449  0.0058
  781poe    c23 5046   2.091   3.933   6.294  0.3638 -0.1591 -0.6401
  781poe    c23 5047   2.018   3.809   6.348  0.2159  0.3770  0.4172
  781poe     o2 5048   2.103   3.704   6.306 -0.1017  0.2339  0.1280
  781poe    c23 5049   2.024   3.588   6.320  0.0128  0.0702 -0.5307
  781poe    c23 5050   2.120   3.469   6.334  0.2634  0.3426  0.1160
  781poe     o2 5051   2.214   3.480   6.439 -0.0163  0.5239  0.3479
  781poe    c31 5052   2.278   3.355   6.449 -0.7277  0.1173 -0.0959
  782poe    c31 5053   6.708   4.365   4.495 -0.0705 -0.0840  0.0079
  782poe     o2 5054   6.662   4.407   4.369  0.5905  1.2310  0.1891
  782poe    c23 5055   6.583   4.523   4.387 -0.2356  0.5711  0.9199
  782poe    c23 5056   6.499   4.578   4.271  0.1581  0.3236  0.5119
  782poe     o2 5057   6.567   4.622   4.156  0.3944 -0.8938  0.1730
  782poe    c23 5058   6.555   4.530   4.049 -0.0209 -0.0738 -0.4958
  782poe    c23 5059   6.686   4.524   3.969 -0.0069 -0.1531 -0.4669
  782poe     o2 5060   6.776   4.454   4.051  0.0104  0.2658 -0.1235
  782poe    c23 5061   6.910   4.492   4.027  0.1702  0.0592  0.4003
  782poe    c23 5062   6.995   4.403   4.118  0.3621 -0.9365 -0.7253
  782poe     o2 5063   6.928   4.390   4.242  0.2458 -0.0840 -0.6957
  782poe    c31 5064   7.004   4.301   4.321  0.2375  0.3427 -0.2019
  783poe    c31 5065   4.050   6.687   4.925 -0.0854 -0.0916 -0.2313
  783poe     o2 5066   4.089   6.760   4.811  0.0444 -0.7194 -0.5930
  783poe    c23 5067   4.043   6.713   4.687  0.1110 -0.2347 -0.8037
  783poe    c23 5068   4.083   6.804   4.569  0.4052  0.4959 -0.1526
  783poe     o2 5069   3.996   6.914   4.563  0.1760  0.3348  0.2144
  783poe    c23 5070   4.005   6.972   4.435 -0.0056  0.1830  0.1318
  783poe    c23 5071   3.921   7.101   4.437  0.3136  0.3848  0.6592
  783poe     o2 5072   3.979   7.182   4.537  0.6217  0.6417  0.2753
  783poe    c23 5073   4.012   7.309   4.485 -0.9329  0.9712  0.0385
  783poe    c23 5074   4.049   7.374   4.619  0.7832 -0.0449  0.0839
  783poe     o2 5075   4.147   7.309   4.697  0.1232 -0.2777  0.7289
  783poe    c31 5076   4.186   7.377   4.814 -0.0423 -0.0164  0.6320
  784poe    c31 5077   4.965   3.850   3.823 -0.2133 -0.0419 -0.4277
  784poe     o2 5078   5.009   3.798   3.700 -0.1975 -0.5360 -0.2153
  784poe    c23 5079   5.134   3.856   3.668 -0.4653  0.0901 -0.1455
  784poe    c23 5080   5.192   3.797   3.538 -0.3218  0.2250 -0.1428
  784poe     o2 5081   5.093   3.811   3.438 -0.2140  0.4398 -0.2195
  784poe    c23 5082   5.135   3.761   3.313  0.0534  0.3384 -0.0915
  784poe    c23 5083   5.018   3.681   3.251  0.0778  0.6859 -0.5892
  784poe     o2 5084   4.968   3.577   3.331  0.1928  0.4927 -0.7678
  784poe    c23 5085   4.935   3.470   3.245  0.0879 -0.1593  0.0638
  784poe    c23 5086   4.999   3.343   3.304 -0.3375 -0.6626 -0.5486
  784poe     o2 5087   4.936   3.321   3.428  0.3076  0.0368 -0.0894
  784poe    c31 5088   4.965   3.190   3.473 -0.1442  0.0334  0.1976
  785poe    c31 5089   1.938   1.341   1.877 -0.2788  0.1955 -0.3728
  785poe     o2 5090   2.071   1.339   1.829 -0.0382  0.3752  0.2796
  785poe    c23 5091   2.128   1.211   1.844 -0.3845  0.1026 -0.6875
  785poe    c23 5092   2.248   1.175   1.754  0.1542  0.2256 -0.0216
  785poe     o2 5093   2.363   1.253   1.777  0.9017 -0.8172 -0.1269
  785poe    c23 5094   2.442   1.270   1.662  0.2648 -0.2249 -0.4802
  785poe    c23 5095   2.398   1.383   1.566 -0.6156 -0.0290  0.1384
  785poe     o2 5096   2.439   1.504   1.625  0.0061 -0.1784  0.0213
  785poe    c23 5097   2.382   1.624   1.577 -0.2946 -0.3372 -0.0161
  785poe    c23 5098   2.455   1.733   1.657 -0.3666 -0.4183  0.1627
  785poe     o2 5099   2.442   1.695   1.792  0.3071 -0.5720  0.1914
  785poe    c31 5100   2.453   1.813   1.868 -0.1471 -0.3670 -0.0531
  786poe    c31 5101   4.050   1.096   0.629 -0.1484 -0.4728 -0.2421
  786poe     o2 5102   4.046   1.146   0.761 -0.5950  0.4791 -0.6040
  786poe    c23 5103   4.168   1.107   0.820 -0.4686  0.6369 -0.7580
  786poe    c23 5104   4.178   1.213   0.931 -0.3396  0.0228 -0.1772
  786poe     o2 5105   4.054   1.248   0.987 -0.0985  0.7234 -0.0669
  786poe    c23 5106   4.060   1.322   1.107 -0.0103  0.0611  0.3455
  786poe    c23 5107   3.918   1.375   1.134 -0.0000  0.1432  0.2392
  786poe     o2 5108   3.890   1.430   1.007 -0.1389 -0.6095 -0.0598
  786poe    c23 5109   3.753   1.444   0.979 -0.1316  0.0605  0.2381
  786poe    c23 5110   3.735   1.434   0.826  0.4474  0.3564  0.1445
  786poe     o2 5111   3.789   1.315   0.772 -0.1179  0.2452 -0.1950
  786poe    c31 5112   3.762   1.304   0.634 -0.0708  0.2255 -0.2029
  787poe    c31 5113   0.693   6.528   5.372  0.1594 -0.2057 -0.4726
  787poe     o2 5114   0.830   6.495   5.369  0.3409  0.4894 -0.0252
  787poe    c23 5115   0.863   6.434   5.246  0.4838  0.6187 -0.0501
  787poe    c23 5116   1.006   6.377   5.242  0.7257  1.1940  0.2465
  787poe     o2 5117   1.033   6.329   5.372 -0.2778  0.2645  0.1232
  787poe    c23 5118   1.164   6.277   5.382 -0.0980  0.7199  0.1790
  787poe    c23 5119   1.175   6.224   5.526 -0.4439 -0.0334 -0.0660
  787poe     o2 5120   1.092   6.113   5.552 -0.3756 -0.0117  0.2563
  787poe    c23 5121   1.124   6.032   5.662  0.1654 -0.0197  0.0949
  787poe    c23 5122   1.080   5.885   5.648 -0.3735  0.1680 -0.1709
  787poe     o2 5123   1.080   5.820   5.773 -0.2472 -0.1211 -0.3212
  787poe    c31 5124   1.173   5.714   5.763  0.4429  0.3868  0.5093
  788poe    c31 5125   0.227   4.069   6.652 -0.2377 -0.1466 -0.6763
  788poe     o2 5126   0.174   4.130   6.536 -0.6313  0.4881 -0.1690
  788poe    c23 5127   0.281   4.160   6.449 -0.2380 -0.6566 -0.0988
  788poe    c23 5128   0.225   4.218   6.318 -0.0143 -0.1264  0.0395
  788poe     o2 5129   0.208   4.356   6.339  0.6864 -0.0087 -0.1264
  788poe    c23 5130   0.231   4.410   6.211  0.6736 -0.3570 -0.2758
  788poe    c23 5131   0.233   4.561   6.242  0.4510 -0.5100  0.5058
  788poe     o2 5132   0.129   4.591   6.332  0.5182 -0.3011  0.5138
  788poe    c23 5133   0.094   4.726   6.350 -0.5268 -0.5144  0.1813
  788poe    c23 5134  -0.052   4.714   6.397 -0.5169  0.2093  0.4232
  788poe     o2 5135  -0.054   4.625   6.507  0.2135 -0.0917  0.1965
  788poe    c31 5136  -0.181   4.627   6.566  0.0196  0.2050 -0.2235
  789poe    c31 5137   4.575   4.803   4.407 -0.2732  0.4378  0.0475
  789poe     o2 5138   4.520   4.745   4.291 -0.0077 -0.0818  0.1806
  789poe    c23 5139   4.382   4.717   4.299 -0.0280 -0.0872 -0.1528
  789poe    c23 5140   4.338   4.740   4.153  0.4371 -0.3877 -0.3406
  789poe     o2 5141   4.384   4.638   4.068  0.3547 -0.7829  0.0851
  789poe    c23 5142   4.345   4.692   3.943  0.2347 -0.5786  0.2114
  789poe    c23 5143   4.388   4.603   3.825  0.2573 -0.6486  0.2719
  789poe     o2 5144   4.384   4.476   3.885 -0.1784 -0.3220  0.9485
  789poe    c23 5145   4.370   4.377   3.786  0.1470  0.3635  0.2116
  789poe    c23 5146   4.396   4.249   3.868  0.0194  0.2668  0.1017
  789poe     o2 5147   4.524   4.263   3.924  0.3680  0.2063 -0.6641
  789poe    c31 5148   4.595   4.140   3.925 -0.3863 -0.2310  0.1335
  790poe    c31 5149   3.544   1.315   0.032 -0.0835 -0.3257 -0.3657
  790poe     o2 5150   3.579   1.451   0.014  0.2533 -0.3668 -0.0398
  790poe    c23 5151   3.641   1.492   0.134  0.7325 -0.1324 -0.3687
  790poe    c23 5152   3.566   1.604   0.208  0.0771 -0.3086 -0.7633
  790poe     o2 5153   3.551   1.716   0.123  0.1227  0.1299 -0.2021
  790poe    c23 5154   3.455   1.792   0.191  0.2891  0.0623  0.1081
  790poe    c23 5155   3.431   1.930   0.128  0.4011  0.2232  0.4178
  790poe     o2 5156   3.412   1.910  -0.010 -0.2331 -0.6503  0.6240
  790poe    c23 5157   3.340   2.018  -0.063  0.2375 -0.2950  0.6974
  790poe    c23 5158   3.300   1.968  -0.203  0.4830  0.3067  0.4093
  790poe     o2 5159   3.420   1.908  -0.247  0.1780  0.2000 -0.2916
  790poe    c31 5160   3.425   1.932  -0.386 -0.1296  0.1379 -0.3152
  791poe    c31 5161   4.811   5.414   5.765 -0.0094  0.1910  0.0195
  791poe     o2 5162   4.681   5.365   5.744  0.2993 -0.3846 -0.5854
  791poe    c23 5163   4.608   5.438   5.648 -0.1809  0.7155  0.5982
  791poe    c23 5164   4.468   5.375   5.657  0.3078 -0.4252  0.3260
  791poe     o2 5165   4.446   5.371   5.797 -0.1233  0.0444  0.2751
  791poe    c23 5166   4.313   5.332   5.822 -0.2351 -0.0343 -0.4179
  791poe    c23 5167   4.294   5.308   5.973  0.3172  0.0769 -0.3304
  791poe     o2 5168   4.409   5.249   6.029 -0.4546  0.1465  1.3969
  791poe    c23 5169   4.400   5.108   6.030 -0.2083  0.0979 -0.1536
  791poe    c23 5170   4.547   5.065   6.049 -0.2441  0.0166 -0.0612
  791poe     o2 5171   4.630   5.126   5.953  0.1480 -0.1203  0.1885
  791poe    c31 5172   4.753   5.059   5.937 -0.0069 -0.4132  0.2159
  792poe    c31 5173   4.221   0.321   3.975 -0.1259 -0.2328 -1.2329
  792poe     o2 5174   4.355   0.355   3.951  0.2088 -0.5443  0.1059
  792poe    c23 5175   4.391   0.296   3.828  0.2381 -0.2861 -0.0119
  792poe    c23 5176   4.532   0.346   3.793  0.1526 -0.1973 -0.2292
  792poe     o2 5177   4.537   0.486   3.811  0.5218 -0.0716 -1.2599
  792poe    c23 5178   4.670   0.531   3.825  0.4515 -0.3757  0.5505
  792poe    c23 5179   4.648   0.674   3.880 -0.1749 -0.4306  0.4501
  792poe     o2 5180   4.573   0.644   3.996 -0.8629  0.0681  0.1402
  792poe    c23 5181   4.525   0.760   4.059  0.2493  0.6422 -0.0392
  792poe    c23 5182   4.435   0.707   4.173  0.3186  0.1468 -0.2126
  792poe     o2 5183   4.348   0.611   4.117  0.2682 -0.0306  0.1689
  792poe    c31 5184   4.244   0.606   4.211 -0.2477  0.5670 -0.3641
  793poe    c31 5185   2.341   0.299   0.932  0.2614 -0.0432 -0.0633
  793poe     o2 5186   2.433   0.192   0.924 -0.3296 -0.5825  0.2435
  793poe    c23 5187   2.358   0.084   0.974 -0.2233 -0.5627  0.4465
  793poe    c23 5188   2.436  -0.049   0.982 -0.3495 -0.6168  0.7798
  793poe     o2 5189   2.570  -0.040   1.025  0.0053 -0.4450 -0.3404
  793poe    c23 5190   2.655   0.009   0.923 -0.0327  0.4477  0.0438
  793poe    c23 5191   2.801  -0.019   0.963  0.2078  0.9289 -0.4831
  793poe     o2 5192   2.822   0.037   1.091  0.2528  0.0044 -0.0725
  793poe    c23 5193   2.939  -0.014   1.149  0.5442  0.8031  0.0625
  793poe    c23 5194   2.973   0.060   1.280  0.4013  0.3639  0.3499
  793poe     o2 5195   2.855   0.058   1.357  0.3770  0.0492  0.3092
  793poe    c31 5196   2.881   0.042   1.495 -0.3829  0.6810  0.5380
  794poe    c31 5197   0.533   4.092   1.923  0.0273  0.2184 -0.1405
  794poe     o2 5198   0.551   4.083   2.063 -0.5029 -0.4120 -0.1066
  794poe    c23 5199   0.447   4.154   2.127 -0.7678 -0.6011 -0.3214
  794poe    c23 5200   0.424   4.305   2.104  0.0813 -0.4527 -0.2323
  794poe     o2 5201   0.549   4.364   2.134 -0.2376  0.2659 -0.3002
  794poe    c23 5202   0.554   4.504   2.146 -0.2252  0.2005  0.5738
  794poe    c23 5203   0.681   4.548   2.221  0.3473 -0.5682  0.0657
  794poe     o2 5204   0.711   4.507   2.353 -0.1535 -0.2588  0.2804
  794poe    c23 5205   0.836   4.566   2.383  0.2060 -0.4781 -0.7320
  794poe    c23 5206   0.882   4.527   2.525  0.2005 -0.4464 -0.7215
  794poe     o2 5207   0.866   4.388   2.508  0.3670 -0.5181 -0.3038
  794poe    c31 5208   0.914   4.321   2.622  0.5139 -0.5069 -0.3594
  795poe    c31 5209   5.115   1.938   4.664  0.1312  0.4666  0.0074
  795poe     o2 5210   5.021   1.878   4.750  0.0752  0.5620  0.0130
  795poe    c23 5211   4.932   1.794   4.679  0.3745 -0.0386  0.3414
  795poe    c23 5212   4.811   1.736   4.754  0.6240  0.0171  0.7936
  795poe     o2 5213   4.740   1.839   4.818 -0.5255  0.0901 -0.5425
  795poe    c23 5214   4.627   1.784   4.882  0.1476  0.3183  0.8994
  795poe    c23 5215   4.542   1.901   4.936 -0.2667  0.2076  0.5034
  795poe     o2 5216   4.636   1.982   5.004 -0.0697  0.8484 -0.5234
  795poe    c23 5217   4.572   2.088   5.071 -0.5744 -0.2115  0.7226
  795poe    c23 5218   4.687   2.154   5.149  0.0463  0.5652 -0.7935
  795poe     o2 5219   4.791   2.160   5.054  0.5398  0.4646 -0.2665
  795poe    c31 5220   4.911   2.214   5.105  0.4539  0.5945 -0.2006
  796poe    c31 5221   4.523   1.086   0.505 -0.4688 -0.1391  0.2022
  796poe     o2 5222   4.535   1.227   0.507 -0.2101 -0.1626  0.2772
  796poe    c23 5223   4.472   1.272   0.625  0.0861  0.2166  0.2937
  796poe    c23 5224   4.487   1.425   0.631  0.0930  0.2236  0.1032
  796poe     o2 5225   4.618   1.457   0.590  0.2723 -0.7084 -0.0920
  796poe    c23 5226   4.662   1.590   0.607 -0.3291 -0.4880 -0.2233
  796poe    c23 5227   4.808   1.599   0.557 -0.3602 -0.1223 -0.2482
  796poe     o2 5228   4.818   1.562   0.421 -0.5042  0.5337 -0.4430
  796poe    c23 5229   4.913   1.627   0.340  0.4615  0.2204  0.4083
  796poe    c23 5230   4.936   1.559   0.203 -0.5874  0.0589  0.3098
  796poe     o2 5231   4.818   1.544   0.126 -0.2937 -0.1023 -0.1097
  796poe    c31 5232   4.842   1.548  -0.013 -0.2198 -0.2529 -0.1014
  797poe    c31 5233   6.166   2.133   5.936  0.2559 -0.7240  0.1228
  797poe     o2 5234   6.273   2.069   5.870  0.4312  0.1361 -0.4458
  797poe    c23 5235   6.391   2.085   5.946  0.1247 -0.0412  0.0700
  797poe    c23 5236   6.459   1.951   5.914  0.1008  0.0118 -0.2055
  797poe     o2 5237   6.468   1.927   5.775  0.2752  0.4860 -0.2777
  797poe    c23 5238   6.534   1.806   5.744  0.0872  0.0994  0.7710
  797poe    c23 5239   6.553   1.829   5.593 -0.0918 -0.8041  0.6032
  797poe     o2 5240   6.418   1.850   5.556  0.1263  0.1880  0.3440
  797poe    c23 5241   6.399   1.941   5.450 -0.1180 -0.4761 -0.1872
  797poe    c23 5242   6.255   1.993   5.436 -0.0092 -0.0399  0.2725
  797poe     o2 5243   6.224   2.038   5.566 -0.2862 -0.5928  0.4006
  797poe    c31 5244   6.126   2.139   5.563  0.5007  0.1708 -0.0414
  798poe    c31 5245   0.515   5.703   0.189  0.1436 -0.2007 -0.0895
  798poe     o2 5246   0.574   5.575   0.202 -0.2429 -0.3840 -0.1271
  798poe    c23 5247   0.608   5.538   0.334  0.6227 -0.4428 -0.3604
  798poe    c23 5248   0.691   5.409   0.341  0.6968 -0.3834 -0.1420
  798poe     o2 5249   0.803   5.434   0.259 -0.0784  1.3517 -0.7315
  798poe    c23 5250   0.911   5.346   0.284 -0.3228  1.0591 -0.7016
  798poe    c23 5251   1.045   5.413   0.248  0.0705  0.8626  0.3418
  798poe     o2 5252   1.043   5.472   0.119 -0.3937  0.1250  0.0052
  798poe    c23 5253   1.159   5.543   0.085 -0.0539 -0.2388  0.3946
  798poe    c23 5254   1.161   5.542  -0.069  0.1774  0.7212  0.3851
  798poe     o2 5255   1.035   5.581  -0.119  0.2657  0.8421  0.2565
  798poe    c31 5256   1.026   5.605  -0.258 -0.5353 -0.2517  0.1034
  799poe    c31 5257   5.767   3.128   5.548  0.0654  0.3600 -1.0798
  799poe     o2 5258   5.834   3.024   5.481  0.5035  0.0449 -0.1724
  799poe    c23 5259   5.742   2.923   5.447  0.6662 -0.1003 -0.1822
  799poe    c23 5260   5.827   2.806   5.393  0.3118 -0.2909 -0.3296
  799poe     o2 5261   5.906   2.870   5.295 -0.3736  0.8899 -0.1276
  799poe    c23 5262   5.984   2.773   5.228 -0.3178  0.5964  0.3608
  799poe    c23 5263   6.081   2.849   5.135 -0.2822  0.1613  0.0432
  799poe     o2 5264   6.133   2.954   5.213 -0.0626 -0.1977  0.3897
  799poe    c23 5265   6.262   2.939   5.267  0.3351  0.7831 -0.2403
  799poe    c23 5266   6.395   2.950   5.191  0.4139 -0.3755 -0.2911
  799poe     o2 5267   6.488   3.046   5.236 -0.7311  0.4509  0.3679
  799poe    c31 5268   6.459   3.184   5.238  0.3862  0.7286 -0.9345
  800poe    c31 5269   3.606   3.680   6.123 -0.2628 -0.4626 -0.5219
  800poe     o2 5270   3.587   3.541   6.135  0.5303 -0.5416 -0.1406
  800poe    c23 5271   3.510   3.516   6.250 -0.0490  0.0566 -0.3930
  800poe    c23 5272   3.551   3.386   6.322 -0.6596 -0.0298 -0.1888
  800poe     o2 5273   3.569   3.284   6.227 -0.1897 -0.1321  0.0071
  800poe    c23 5274   3.656   3.180   6.268  0.4005  0.1122 -0.5895
  800poe    c23 5275   3.708   3.100   6.148 -0.5266 -0.4393 -0.6331
  800poe     o2 5276   3.763   3.202   6.067 -0.7984  0.0296 -0.2339
  800poe    c23 5277   3.793   3.166   5.934 -0.4686 -0.1251 -0.1169
  800poe    c23 5278   3.806   3.298   5.857 -0.0592 -0.2874 -0.3290
  800poe     o2 5279   3.690   3.360   5.908 -0.1540 -0.6865 -0.0605
  800poe    c31 5280   3.652   3.477   5.840 -0.9981 -0.8156  0.1781
  801poe    c31 5281   3.020   4.191   5.822 -0.4416 -0.1733 -0.0371
  801poe     o2 5282   3.015   4.153   5.686 -0.1216  0.2498 -0.1707
  801poe    c23 5283   3.103   4.048   5.655 -0.1684  0.3974 -0.8113
  801poe    c23 5284   3.091   4.021   5.504  0.3427 -0.8936 -0.6386
  801poe     o2 5285   2.954   4.036   5.476  0.3407  0.5524  0.0499
  801poe    c23 5286   2.900   3.913   5.433  0.2249  0.2515  1.0370
  801poe    c23 5287   2.749   3.918   5.403  0.4478  0.6432 -0.0431
  801poe     o2 5288   2.651   3.927   5.504 -0.0485 -0.1539 -0.4516
  801poe    c23 5289   2.527   3.912   5.437  0.0496  0.1924 -0.7117
  801poe    c23 5290   2.417   3.927   5.544  0.2449 -0.0228 -0.4811
  801poe     o2 5291   2.385   4.063   5.562  0.1017 -0.1231  0.0397
  801poe    c31 5292   2.294   4.085   5.668 -0.0437 -0.0699 -0.0955
  802poe    c31 5293   0.507   3.427   6.740  0.0174 -0.4847  0.0882
  802poe     o2 5294   0.605   3.487   6.658 -0.2312  0.2788  0.3427
  802poe    c23 5295   0.596   3.628   6.649  0.6412  0.3535  0.5776
  802poe    c23 5296   0.730   3.660   6.580  0.4016  0.2082  0.0353
  802poe     o2 5297   0.736   3.568   6.474 -0.2499 -0.6126  0.6895
  802poe    c23 5298   0.852   3.591   6.397 -0.6038  0.0974  0.3585
  802poe    c23 5299   0.834   3.480   6.292  0.5512  0.0953  0.1437
  802poe     o2 5300   0.819   3.367   6.374  0.0781  0.1297  0.1064
  802poe    c23 5301   0.771   3.252   6.307  0.0164  0.1171  0.1719
  802poe    c23 5302   0.621   3.276   6.279 -0.0697 -0.0889  0.4441
  802poe     o2 5303   0.570   3.314   6.405 -0.3491 -0.4373  0.4363
  802poe    c31 5304   0.434   3.349   6.396 -0.2827 -0.1990  0.3541
  803poe    c31 5305   3.398   5.439   2.250 -0.1627 -0.2036  0.1828
  803poe     o2 5306   3.303   5.536   2.211  0.3398  0.1684 -0.1355
  803poe    c23 5307   3.348   5.657   2.269  0.6032  0.1908 -0.3825
  803poe    c23 5308   3.245   5.764   2.229 -0.1977 -0.4604 -0.1095
  803poe     o2 5309   3.119   5.733   2.283 -0.1325 -0.3773  0.0910
  803poe    c23 5310   3.038   5.849   2.284  0.3033 -0.0688  0.4335
  803poe    c23 5311   2.951   5.865   2.410  0.1669  0.3058  0.2929
  803poe     o2 5312   2.892   5.738   2.425  0.1278  0.3084  0.1584
  803poe    c23 5313   2.786   5.745   2.517  0.3329 -0.2103  0.4409
  803poe    c23 5314   2.752   5.601   2.559  0.1979 -0.2221  0.2935
  803poe     o2 5315   2.880   5.544   2.576  0.1687 -0.3703  0.0249
  803poe    c31 5316   2.876   5.436   2.667 -0.2741 -0.6972 -0.3778
  804poe    c31 5317   1.310   2.427   0.760 -0.0227 -0.1079  0.0487
  804poe     o2 5318   1.364   2.532   0.839 -0.7339  0.3878 -0.1196
  804poe    c23 5319   1.433   2.626   0.760 -0.7688  0.5334  0.0248
  804poe    c23 5320   1.503   2.732   0.847  0.0675 -0.1001  0.1353
  804poe     o2 5321   1.406   2.777   0.939  0.1287  0.2226  0.0455
  804poe    c23 5322   1.477   2.855   1.032 -0.0724 -0.0974  0.4777
  804poe    c23 5323   1.380   2.909   1.139 -0.7016  0.0085 -0.1375
  804poe     o2 5324   1.304   2.804   1.194  0.2671 -0.4255  0.4134
  804poe    c23 5325   1.228   2.846   1.306  0.7098 -0.1580  0.6195
  804poe    c23 5326   1.134   2.730   1.347 -0.0396  0.1084 -0.3036
  804poe     o2 5327   1.045   2.735   1.238 -0.4505 -0.0735  0.0247
  804poe    c31 5328   0.907   2.719   1.266 -0.5175 -0.3592 -0.4605
  805poe    c31 5329   0.439   2.811   6.664 -0.6445 -0.1102 -0.0981
  805poe     o2 5330   0.444   2.707   6.570 -0.1107  0.0963 -0.3041
  805poe    c23 5331   0.507   2.602   6.640 -0.5239 -0.3277 -0.5602
  805poe    c23 5332   0.416   2.481   6.668 -0.2597 -0.1580  1.1548
  805poe     o2 5333   0.349   2.438   6.551  0.8445 -0.1033  0.4896
  805poe    c23 5334   0.422   2.360   6.459  0.1286  0.2032 -0.3477
  805poe    c23 5335   0.344   2.367   6.326  0.3314  0.5619 -0.4493
  805poe     o2 5336   0.320   2.506   6.324  0.3868  0.5674 -0.8226
  805poe    c23 5337   0.271   2.535   6.195 -1.0894 -0.0133 -0.4197
  805poe    c23 5338   0.293   2.688   6.184 -0.1468 -0.1212 -0.1583
  805poe     o2 5339   0.281   2.752   6.309  0.4959  0.1522 -0.2365
  805poe    c31 5340   0.287   2.893   6.303 -0.1907  0.1514 -1.1125
  806poe    c31 5341   3.995   2.519   3.615 -0.3951  0.8751  0.7495
  806poe     o2 5342   3.898   2.495   3.715 -0.3418  0.5968  0.7355
  806poe    c23 5343   3.764   2.511   3.675 -0.2056 -0.7699 -0.3392
  806poe    c23 5344   3.678   2.520   3.802  0.4048 -0.1053  0.0361
  806poe     o2 5345   3.664   2.401   3.876 -0.0216 -0.1312 -0.0813
  806poe    c23 5346   3.573   2.440   3.977  0.7492  0.6867  0.3114
  806poe    c23 5347   3.547   2.307   4.050  0.3887  0.5261 -0.1082
  806poe     o2 5348   3.495   2.216   3.955  0.3999 -0.1568  0.5314
  806poe    c23 5349   3.447   2.113   4.038 -0.1344  0.0074  0.4267
  806poe    c23 5350   3.402   1.990   3.955 -0.4146  0.3194  0.1097
  806poe     o2 5351   3.483   1.910   3.872 -0.0969 -0.0530  0.7693
  806poe    c31 5352   3.497   1.776   3.915 -0.3098 -0.3452 -0.0585
  807poe    c31 5353   5.783   0.368   6.547 -0.9455  0.4309 -0.1000
  807poe     o2 5354   5.881   0.464   6.577  0.0211 -0.4025 -0.5185
  807poe    c23 5355   5.917   0.539   6.463  0.1070 -0.2876 -0.4166
  807poe    c23 5356   5.982   0.673   6.503  0.4035 -0.5870  0.1156
  807poe     o2 5357   6.047   0.635   6.622  0.0503 -0.3438  0.3910
  807poe    c23 5358   6.155   0.725   6.632 -0.8327  0.7018  0.6778
  807poe    c23 5359   6.223   0.702   6.769 -0.1851 -0.2381  0.2117
  807poe     o2 5360   6.233   0.574   6.826  0.2256 -0.2660  0.0785
  807poe    c23 5361   6.323   0.491   6.755  0.4456 -0.1559  0.2304
  807poe    c23 5362   6.262   0.350   6.766  0.2088 -0.0529  0.2502
  807poe     o2 5363   6.127   0.343   6.728  0.4182 -0.0702 -0.5108
  807poe    c31 5364   6.088   0.233   6.650  0.1669 -0.5617  0.2913
  808poe    c31 5365   2.938   6.594   6.166 -0.4969 -0.3051  0.0544
  808poe     o2 5366   3.071   6.565   6.205 -0.3537 -0.0560 -0.2385
  808poe    c23 5367   3.076   6.444   6.278  0.2440  0.1318  0.0347
  808poe    c23 5368   3.210   6.437   6.353  0.1440 -0.8351  0.1369
  808poe     o2 5369   3.298   6.436   6.242  0.1090  0.7890  0.0740
  808poe    c23 5370   3.434   6.445   6.275  0.2074  0.2916 -0.1953
  808poe    c23 5371   3.526   6.406   6.158  0.9810  0.3239  0.3899
  808poe     o2 5372   3.490   6.479   6.043  0.5126 -0.4377  0.0417
  808poe    c23 5373   3.419   6.394   5.955  0.2132  0.3286 -0.4706
  808poe    c23 5374   3.313   6.465   5.868  0.5249  0.9073 -0.3852
  808poe     o2 5375   3.228   6.532   5.958  0.0393 -0.6951  0.3846
  808poe    c31 5376   3.140   6.614   5.885  0.7335  0.1199  0.4520
  809poe    c31 5377   2.700   6.211   3.423  0.2547 -0.3076 -0.2039
  809poe     o2 5378   2.809   6.204   3.335  0.0819 -0.0484 -0.4402
  809poe    c23 5379   2.850   6.071   3.317 -0.0225 -0.1512  0.0795
  809poe    c23 5380   3.002   6.064   3.295  0.0183 -0.4502  0.4333
  809poe     o2 5381   3.041   6.121   3.171  0.1421 -0.0014  0.6766
  809poe    c23 5382   3.162   6.060   3.132  0.0135 -0.0574  0.3709
  809poe    c23 5383   3.147   6.005   2.988  0.2993  0.4746  0.1344
  809poe     o2 5384   3.141   6.114   2.899  0.1143  0.2814 -0.0914
  809poe    c23 5385   3.076   6.088   2.777 -0.0503  0.7543 -0.1081
  809poe    c23 5386   3.055   6.225   2.711  0.9885  1.1505  0.3622
  809poe     o2 5387   2.986   6.313   2.797 -0.7584  0.0008  0.1952
  809poe    c31 5388   3.009   6.448   2.762 -0.0383 -0.0784  0.3469
  810poe    c31 5389   5.339   3.703   4.407  0.1786  0.2228  0.5697
  810poe     o2 5390   5.377   3.839   4.407 -0.1084  0.3038 -0.1459
  810poe    c23 5391   5.266   3.917   4.443 -0.1027  0.3174 -0.1578
  810poe    c23 5392   5.299   3.996   4.571 -0.5223  0.2368  0.0018
  810poe     o2 5393   5.421   4.062   4.549 -0.5499  0.3384  0.1573
  810poe    c23 5394   5.489   4.082   4.671  0.0005 -0.0402 -0.0846
  810poe    c23 5395   5.573   3.958   4.708  0.7204  0.4219 -0.1513
  810poe     o2 5396   5.635   3.897   4.596  0.7003  0.5036 -0.2067
  810poe    c23 5397   5.729   3.794   4.614  0.2166  0.0002 -0.5351
  810poe    c23 5398   5.751   3.768   4.464  0.0276 -0.5904 -0.4633
  810poe     o2 5399   5.629   3.751   4.396 -0.4315  0.1467  0.1583
  810poe    c31 5400   5.664   3.669   4.286 -0.5416  0.7049 -0.3027
  811poe    c31 5401   1.761   4.302   6.830 -0.1787  0.0866  0.1021
  811poe     o2 5402   1.680   4.202   6.889 -0.3623 -0.1735 -0.5814
  811poe    c23 5403   1.634   4.242   7.016 -0.1824  0.6237 -0.7584
  811poe    c23 5404   1.542   4.133   7.075  0.3479  0.3802 -0.3738
  811poe     o2 5405   1.460   4.102   6.965  0.2746 -0.1856 -0.1654
  811poe    c23 5406   1.371   3.997   6.994 -0.1188  0.1813 -0.0231
  811poe    c23 5407   1.276   3.947   6.882  0.4699 -0.2415 -0.3400
  811poe     o2 5408   1.345   3.957   6.760  0.4628  0.3666 -0.2971
  811poe    c23 5409   1.247   3.957   6.658  0.2648 -0.6888 -0.1161
  811poe    c23 5410   1.282   4.026   6.525 -0.4376  0.4315  0.2657
  811poe     o2 5411   1.262   4.165   6.532 -0.0661  0.4863  0.2577
  811poe    c31 5412   1.302   4.211   6.405 -0.5432  0.5976  0.1444
  812poe    c31 5413   3.603   3.039   2.889  0.0829 -0.0635  0.0022
  812poe     o2 5414   3.570   3.010   2.755 -0.0055  0.1698 -0.0279
  812poe    c23 5415   3.519   2.879   2.739  0.6419 -0.1847  0.7278
  812poe    c23 5416   3.612   2.784   2.663  0.3064 -0.2054  0.3399
  812poe     o2 5417   3.629   2.838   2.534  0.1223 -1.0979 -0.0674
  812poe    c23 5418   3.527   2.837   2.437  0.2000  0.2290 -0.1767
  812poe    c23 5419   3.546   2.964   2.352 -0.3467  0.4114 -0.0331
  812poe     o2 5420   3.544   3.070   2.446 -0.2083  0.0958  0.3266
  812poe    c23 5421   3.478   3.183   2.395 -0.3384 -0.1950 -0.1513
  812poe    c23 5422   3.400   3.244   2.513 -0.1952 -0.1385 -0.0864
  812poe     o2 5423   3.488   3.263   2.621 -0.8095  0.0404  0.3886
  812poe    c31 5424   3.420   3.320   2.730 -0.9228  0.0775  0.2983
  813poe    c31 5425   5.798   6.580   2.035 -0.2227 -0.0065 -0.5491
  813poe     o2 5426   5.841   6.514   1.918 -0.4228 -0.2511 -0.4835
  813poe    c23 5427   5.981   6.500   1.932 -0.4113  0.2449 -0.0600
  813poe    c23 5428   6.036   6.442   1.800 -0.2928 -0.5140  0.3170
  813poe     o2 5429   5.962   6.495   1.693  0.4159 -0.0140  0.0640
  813poe    c23 5430   6.011   6.463   1.565 -0.7210  0.4241 -0.4963
  813poe    c23 5431   5.915   6.541   1.472 -0.3861  0.8085 -0.5230
  813poe     o2 5432   5.790   6.503   1.526 -0.2996  1.0152 -0.1711
  813poe    c23 5433   5.695   6.594   1.475 -0.5307  0.4826 -0.7099
  813poe    c23 5434   5.571   6.577   1.565  0.1660  0.3365  0.2398
  813poe     o2 5435   5.616   6.571   1.698  0.1377  0.0729  0.2366
  813poe    c31 5436   5.515   6.588   1.795 -0.1194  0.3440 -0.0782
  814poe    c31 5437   3.480   5.165   2.595  0.0727  0.5969  0.4136
  814poe     o2 5438   3.574   5.111   2.686 -0.1528  0.3338  0.4945
  814poe    c23 5439   3.629   5.212   2.768  0.3078 -0.1043  0.7279
  814poe    c23 5440   3.743   5.157   2.855  0.1823 -0.7429  0.5012
  814poe     o2 5441   3.807   5.066   2.769  0.2947 -0.5677  0.3969
  814poe    c23 5442   3.902   5.027   2.865  0.1168 -0.3795  0.6499
  814poe    c23 5443   3.994   4.921   2.802  0.2071 -0.1301  0.3618
  814poe     o2 5444   3.917   4.824   2.736 -0.0547  0.1492  0.2563
  814poe    c23 5445   4.004   4.723   2.690 -0.6296 -0.1133 -0.2714
  814poe    c23 5446   4.027   4.602   2.783 -0.4842 -0.1307 -0.3301
  814poe     o2 5447   4.113   4.617   2.893 -0.4821  0.4592 -0.4075
  814poe    c31 5448   4.124   4.496   2.965  0.4416  0.4049 -0.6236
  815poe    c31 5449   1.142   3.026   0.832  0.4381 -0.1411 -0.1892
  815poe     o2 5450   1.154   3.091   0.707 -0.7835  0.5450  0.0384
  815poe    c23 5451   1.280   3.149   0.684 -0.3586 -0.2635  0.2863
  815poe    c23 5452   1.270   3.250   0.569 -0.3188  0.3106  0.7777
  815poe     o2 5453   1.144   3.227   0.511  0.4009 -0.4097 -0.5644
  815poe    c23 5454   1.119   3.342   0.433 -0.2021  0.1218  0.3948
  815poe    c23 5455   1.031   3.301   0.314 -0.1659  0.5420  0.2208
  815poe     o2 5456   0.924   3.235   0.378  0.0575 -0.0627 -0.0211
  815poe    c23 5457   0.829   3.193   0.283 -0.0128 -0.5469  0.2622
  815poe    c23 5458   0.687   3.183   0.343 -0.0303  0.3843  0.3910
  815poe     o2 5459   0.659   3.085   0.441 -0.0539  0.1094  0.1133
  815poe    c31 5460   0.544   3.121   0.513  0.1408  0.2067  0.3798
  816poe    c31 5461   5.786   3.849   2.311 -0.3833  0.2473 -0.2799
  816poe     o2 5462   5.710   3.778   2.407 -0.4102  0.4451 -0.1556
  816poe    c23 5463   5.760   3.817   2.533  0.0289 -0.1831 -0.1314
  816poe    c23 5464   5.693   3.725   2.636 -0.1377 -0.1686 -0.2268
  816poe     o2 5465   5.558   3.709   2.598 -0.1136 -0.1352 -0.3243
  816poe    c23 5466   5.496   3.598   2.658  0.2249 -0.3296 -0.3328
  816poe    c23 5467   5.394   3.541   2.559 -0.5157  0.4369 -0.0263
  816poe     o2 5468   5.449   3.551   2.430 -0.2184  1.0109  0.1432
  816poe    c23 5469   5.365   3.520   2.321  0.2315 -0.0688  0.0847
  816poe    c23 5470   5.451   3.530   2.194  0.0647 -0.2952 -0.0472
  816poe     o2 5471   5.544   3.635   2.212  0.3218 -0.5699  0.2391
  816poe    c31 5472   5.574   3.685   2.083 -0.6126 -0.6431 -0.0175
  817poe    c31 5473   0.912   6.863   5.301 -0.3135  0.5825  0.2688
  817poe     o2 5474   0.819   6.921   5.214 -0.4333  0.6451  0.4372
  817poe    c23 5475   0.731   6.827   5.156 -0.2363  0.5453  0.2988
  817poe    c23 5476   0.632   6.927   5.092 -0.0208  0.2610 -0.4878
  817poe     o2 5477   0.701   7.018   5.009  0.4524  0.0783 -0.3008
  817poe    c23 5478   0.617   7.118   4.955 -0.3838 -0.0168  0.7947
  817poe    c23 5479   0.640   7.252   5.028  0.1764  0.2864  0.0729
  817poe     o2 5480   0.777   7.248   5.061  0.2015 -0.0245 -0.0603
  817poe    c23 5481   0.800   7.330   5.174  0.0149 -0.0227 -0.0234
  817poe    c23 5482   0.947   7.301   5.208 -0.0234 -0.1068  0.0710
  817poe     o2 5483   0.970   7.162   5.208  0.0244 -0.0991 -0.0618
  817poe    c31 5484   1.089   7.147   5.282 -0.1318  0.9438  0.4185
  818poe    c31 5485   3.798   3.984   2.675  0.2207 -0.1562 -0.2591
  818poe     o2 5486   3.938   3.970   2.677  0.2331  0.0445  0.6957
  818poe    c23 5487   3.995   4.048   2.575 -0.4683 -0.5225 -0.1444
  818poe    c23 5488   4.142   4.007   2.553 -0.2253  0.4717 -0.4466
  818poe     o2 5489   4.183   4.003   2.688 -0.2198  0.1076 -0.4583
  818poe    c23 5490   4.310   3.943   2.703  0.0340  0.7405 -0.0333
  818poe    c23 5491   4.364   3.963   2.846 -0.7047  0.3007  0.3123
  818poe     o2 5492   4.276   3.907   2.941  0.1489 -0.4068  0.6962
  818poe    c23 5493   4.319   3.902   3.075  0.3218  0.3998  0.6740
  818poe    c23 5494   4.198   3.859   3.161  0.1983 -0.3005  0.1577
  818poe     o2 5495   4.106   3.965   3.178  0.1276 -0.3811  0.2680
  818poe    c31 5496   3.988   3.923   3.242 -0.1615 -0.3459 -0.2425
  819poe    c31 5497   6.520   6.332   1.070 -0.3663 -0.5508 -0.0861
  819poe     o2 5498   6.602   6.303   0.960  0.1822  0.1012  0.1411
  819poe    c23 5499   6.669   6.415   0.907  0.0685  0.4557  0.7447
  819poe    c23 5500   6.753   6.385   0.781 -0.1057 -0.3447  0.8159
  819poe     o2 5501   6.674   6.398   0.665 -0.2266  0.0219  0.9386
  819poe    c23 5502   6.755   6.440   0.558 -0.6972 -0.3725  0.4237
  819poe    c23 5503   6.741   6.341   0.441  0.3226 -0.1765  0.1269
  819poe     o2 5504   6.600   6.341   0.443  0.3206  0.6326  0.1620
  819poe    c23 5505   6.545   6.262   0.340  0.3960  0.2737  0.3975
  819poe    c23 5506   6.399   6.303   0.317  0.3911  0.2266  0.3418
  819poe     o2 5507   6.347   6.305   0.449 -0.6708 -0.3539 -0.0529
  819poe    c31 5508   6.207   6.319   0.447 -0.6602 -0.1995  0.3033
  820poe    c31 5509   2.539   2.317   6.660 -0.7627 -0.1814  0.6579
  820poe     o2 5510   2.549   2.209   6.750 -0.2044 -0.2421  0.5297
  820poe    c23 5511   2.580   2.089   6.682  0.0930  0.0511  0.1448
  820poe    c23 5512   2.671   2.012   6.778 -0.2749 -0.0999  0.3734
  820poe     o2 5513   2.634   2.052   6.908  0.1625 -0.4349  0.6064
  820poe    c23 5514   2.697   1.982   7.013  0.2425  0.2029  0.9924
  820poe    c23 5515   2.608   2.011   7.135 -0.5386 -0.4573  0.5930
  820poe     o2 5516   2.591   2.151   7.135 -0.4565 -0.4456  0.0010
  820poe    c23 5517   2.472   2.204   7.190 -0.2684 -0.7498  0.7164
  820poe    c23 5518   2.352   2.158   7.105 -0.1273  0.0055  0.0913
  820poe     o2 5519   2.385   2.174   6.969 -0.0343  0.0758  0.1218
  820poe    c31 5520   2.277   2.149   6.882 -0.8342  0.4806  0.9791
  821poe    c31 5521   5.832   4.025   1.976  1.1190  0.4723 -0.4772
  821poe     o2 5522   5.886   4.083   2.093  0.1047  0.3151  0.0827
  821poe    c23 5523   6.023   4.107   2.073  0.0971 -0.1191 -0.5096
  821poe    c23 5524   6.095   4.138   2.205 -0.2019 -0.1854 -0.3328
  821poe     o2 5525   6.131   4.269   2.244  0.1347 -0.5047  0.4627
  821poe    c23 5526   6.237   4.314   2.164 -0.4157 -0.2545 -0.1402
  821poe    c23 5527   6.349   4.353   2.263 -0.3728 -0.0498 -0.2685
  821poe     o2 5528   6.284   4.388   2.383  0.3145  0.3278 -0.0045
  821poe    c23 5529   6.368   4.491   2.431  0.3424  0.2088  0.2049
  821poe    c23 5530   6.327   4.530   2.574  0.0748 -0.3431  0.2840
  821poe     o2 5531   6.192   4.568   2.591  0.1716  0.2224 -0.1687
  821poe    c31 5532   6.187   4.606   2.727  0.6960 -0.1127 -0.0511
  822poe    c31 5533   3.622   4.189   5.377  0.4155 -0.5401  0.3461
  822poe     o2 5534   3.609   4.065   5.312  0.3660 -0.2938 -0.1122
  822poe    c23 5535   3.476   4.025   5.337  0.0581  0.1591 -0.9521
  822poe    c23 5536   3.446   3.895   5.261 -0.7506 -0.5828  0.5723
  822poe     o2 5537   3.572   3.832   5.252 -0.4738  0.0412 -0.0754
  822poe    c23 5538   3.570   3.709   5.184 -0.4585  0.0174 -0.0329
  822poe    c23 5539   3.699   3.628   5.206 -0.4070  0.2009  0.3423
  822poe     o2 5540   3.800   3.716   5.164 -0.1887 -0.0592  0.3180
  822poe    c23 5541   3.930   3.661   5.167  0.0136  0.4373  1.0634
  822poe    c23 5542   4.010   3.711   5.045 -0.6431  0.1600  0.5119
  822poe     o2 5543   4.014   3.852   5.048  0.4184  0.1553 -0.3412
  822poe    c31 5544   4.055   3.898   4.921  0.4606 -0.3554 -0.5178
  823poe    c31 5545   5.652   1.994   5.989  0.1293 -0.4062 -0.0508
  823poe     o2 5546   5.576   2.053   6.092 -0.2487 -0.6974 -0.1639
  823poe    c23 5547   5.520   2.176   6.052 -0.4531 -0.6660  0.2145
  823poe    c23 5548   5.419   2.227   6.157 -0.5454 -0.3645 -0.0181
  823poe     o2 5549   5.484   2.255   6.279  0.3239 -0.0424 -0.5464
  823poe    c23 5550   5.392   2.316   6.365 -0.1090 -1.0903 -0.2492
  823poe    c23 5551   5.349   2.207   6.466 -0.1109 -0.6746  0.2047
  823poe     o2 5552   5.466   2.168   6.534  0.2260  0.0486  0.0579
  823poe    c23 5553   5.433   2.076   6.637  0.3871 -0.1198 -0.0403
  823poe    c23 5554   5.566   2.038   6.705  0.0707 -0.3397  0.4526
  823poe     o2 5555   5.645   1.982   6.604  0.2554 -0.2607  0.5524
  823poe    c31 5556   5.755   1.910   6.657  0.1582 -0.3101  0.6864
  824poe    c31 5557   5.470   4.471   6.877  0.0483  0.2122 -0.7988
  824poe     o2 5558   5.381   4.371   6.922  0.3864  0.3768  0.2594
  824poe    c23 5559   5.261   4.427   6.972  0.0762  0.0129 -0.0799
  824poe    c23 5560   5.161   4.335   7.045 -0.2261  0.3276 -0.0995
  824poe     o2 5561   5.205   4.291   7.171  0.5083  0.2825 -0.3721
  824poe    c23 5562   5.098   4.237   7.245  0.6812  0.2874 -0.1191
  824poe    c23 5563   5.147   4.163   7.371 -0.0930  0.1483  0.1040
  824poe     o2 5564   5.253   4.080   7.329 -0.5077 -0.1358 -0.3972
  824poe    c23 5565   5.271   3.970   7.416 -0.9659 -0.2495 -0.4423
  824poe    c23 5566   5.397   3.906   7.355 -0.6912 -0.5521  0.4324
  824poe     o2 5567   5.488   4.010   7.323 -0.5320 -0.8712 -0.1636
  824poe    c31 5568   5.623   3.994   7.359 -0.5111  0.3550  0.3376
  825poe    c31 5569   6.198   0.385   1.319  0.4738 -0.7982  1.1559
  825poe     o2 5570   6.310   0.324   1.258  0.0052 -0.1205 -0.4453
  825poe    c23 5571   6.371   0.412   1.166  0.5500  0.3463  0.3430
  825poe    c23 5572   6.498   0.344   1.112 -0.2560 -0.7359 -0.2378
  825poe     o2 5573   6.558   0.281   1.224  0.5638  0.6141  0.1071
  825poe    c23 5574   6.690   0.237   1.203  0.3968  0.1431  0.0170
  825poe    c23 5575   6.757   0.160   1.319  0.2750  0.3281  0.2108
  825poe     o2 5576   6.708   0.030   1.340  0.3725  0.3396  0.5121
  825poe    c23 5577   6.725  -0.019   1.471 -1.3428  0.3010  0.7512
  825poe    c23 5578   6.702  -0.171   1.475 -0.3928  0.1236 -0.1499
  825poe     o2 5579   6.787  -0.268   1.418 -0.0605  0.1738  0.2544
  825poe    c31 5580   6.801  -0.259   1.278  0.0918 -0.4026  0.2303
  826poe    c31 5581   3.319   6.706   3.825 -0.0242 -0.1640  0.5117
  826poe     o2 5582   3.344   6.577   3.875  0.3936 -0.1598  0.3212
  826poe    c23 5583   3.312   6.490   3.769 -0.3173  0.2696  0.1797
  826poe    c23 5584   3.318   6.344   3.818 -0.1778  0.3533  0.4099
  826poe     o2 5585   3.230   6.287   3.912 -0.3647  0.2710  0.1870
  826poe    c23 5586   3.110   6.232   3.862  0.1029 -0.6127  0.0118
  826poe    c23 5587   3.059   6.136   3.971 -1.0689 -0.5953 -0.5077
  826poe     o2 5588   3.125   6.154   4.094 -0.3514 -0.4839 -0.9034
  826poe    c23 5589   3.070   6.054   4.177 -0.3401  0.0165 -0.2921
  826poe    c23 5590   3.092   6.083   4.327 -0.2099 -0.4048 -0.2269
  826poe     o2 5591   3.227   6.076   4.366 -0.2668 -0.1326  0.0259
  826poe    c31 5592   3.244   6.097   4.505 -0.5621  0.1301  0.0238
  827poe    c31 5593   5.733   6.035   5.267  0.3566 -0.1843  0.2209
  827poe     o2 5594   5.848   5.956   5.251  0.4251 -0.0205 -0.1164
  827poe    c23 5595   5.929   5.971   5.366 -0.3629  0.5872  0.3633
  827poe    c23 5596   6.068   5.907   5.355 -0.6351  0.0897 -0.1577
  827poe     o2 5597   6.150   5.927   5.242 -0.0743 -0.0949  0.2133
  827poe    c23 5598   6.280   5.874   5.255  0.1702  0.4633  0.0737
  827poe    c23 5599   6.355   5.932   5.134  0.0033 -0.7081 -0.6017
  827poe     o2 5600   6.292   5.862   5.029 -0.3636 -0.3690 -0.6140
  827poe    c23 5601   6.357   5.886   4.906 -0.2292  0.5766 -0.3613
  827poe    c23 5602   6.279   5.810   4.797  0.2603  0.6108 -0.7365
  827poe     o2 5603   6.142   5.838   4.806  0.1107 -0.4650  0.6254
  827poe    c31 5604   6.079   5.748   4.718  0.0045  0.2139  0.0007
  828poe    c31 5605   2.887   0.103   0.533  0.5094  0.1140 -0.1904
  828poe     o2 5606   2.929   0.077   0.401 -0.6230 -0.1672 -0.5083
  828poe    c23 5607   2.960   0.196   0.333 -0.6487 -0.4124 -0.9539
  828poe    c23 5608   2.980   0.155   0.186 -0.9347 -0.7144 -0.9103
  828poe     o2 5609   3.075   0.051   0.193 -0.4263 -0.2141 -0.2965
  828poe    c23 5610   3.118  -0.023   0.081 -0.2394  0.0099 -0.3736
  828poe    c23 5611   3.183  -0.149   0.139 -0.6156  0.1646  0.3949
  828poe     o2 5612   3.110  -0.188   0.253 -0.1580  0.3488  0.7531
  828poe    c23 5613   3.179  -0.284   0.331  0.1927 -0.1125 -0.1117
  828poe    c23 5614   3.073  -0.328   0.433  0.0331  0.2854 -0.1010
  828poe     o2 5615   3.007  -0.209   0.470 -0.1022  0.2652 -0.2768
  828poe    c31 5616   2.893  -0.249   0.543  0.0944  0.0459 -0.0848
  829poe    c31 5617   5.078   5.065   5.214 -0.3388 -0.4607 -0.1571
  829poe     o2 5618   5.211   5.018   5.210 -0.3528 -0.5094 -0.0484
  829poe    c23 5619   5.230   4.913   5.302  0.5332  0.0675  0.4300
  829poe    c23 5620   5.177   4.772   5.270  0.6659  0.0450  0.3064
  829poe     o2 5621   5.036   4.762   5.268  0.6759 -0.0025 -0.3208
  829poe    c23 5622   4.988   4.646   5.204  0.2130  0.0789 -0.1210
  829poe    c23 5623   4.836   4.658   5.184  0.1483  0.0223  0.3257
  829poe     o2 5624   4.759   4.656   5.302 -0.3046 -0.0087  0.0356
  829poe    c23 5625   4.621   4.657   5.277 -0.3739 -0.0844  0.4106
  829poe    c23 5626   4.521   4.633   5.392 -0.6288  0.2869  0.2690
  829poe     o2 5627   4.581   4.713   5.490 -0.2167  0.6571 -0.2785
  829poe    c31 5628   4.479   4.757   5.578 -0.0112  0.1405  0.2292
  830poe    c31 5629   0.567   1.397   0.036 -0.0029  0.0748  0.0174
  830poe     o2 5630   0.449   1.475   0.035 -0.1849 -0.1992  0.1426
  830poe    c23 5631   0.488   1.607   0.007  0.3054 -0.1652  0.9639
  830poe    c23 5632   0.362   1.688  -0.026  0.1967 -0.7497 -0.0812
  830poe     o2 5633   0.264   1.645   0.066  0.0829 -0.1245  0.0925
  830poe    c23 5634   0.133   1.688   0.037  0.1580  0.0795  0.0484
  830poe    c23 5635   0.062   1.631   0.161  0.1684 -0.5125 -0.2095
  830poe     o2 5636   0.141   1.523   0.205  0.5428 -0.3362 -0.4505
  830poe    c23 5637   0.104   1.466   0.328  0.0591  0.2775 -0.3067
  830poe    c23 5638   0.206   1.370   0.391 -0.0532  0.5112  0.2328
  830poe     o2 5639   0.292   1.345   0.282 -0.0434  0.3815  0.2705
  830poe    c31 5640   0.402   1.263   0.315 -0.5023 -0.5462 -0.4792
  831poe    c31 5641   2.058   6.303   3.040 -0.0806  0.4990  0.4138
  831poe     o2 5642   2.167   6.374   2.987  0.0507 -0.0517 -0.0723
  831poe    c23 5643   2.155   6.420   2.854 -0.1061 -0.5828 -0.2447
  831poe    c23 5644   2.302   6.425   2.809  0.1440 -0.2498  0.5752
  831poe     o2 5645   2.376   6.491   2.909 -0.5555  0.2213  0.7865
  831poe    c23 5646   2.511   6.466   2.879 -0.6071 -0.5430  1.1488
  831poe    c23 5647   2.588   6.530   2.996  0.3077  0.8016 -0.1438
  831poe     o2 5648   2.520   6.486   3.111 -0.2862  0.9050 -0.4538
  831poe    c23 5649   2.584   6.534   3.228 -0.1322 -0.1853 -0.0748
  831poe    c23 5650   2.532   6.523   3.372  0.2148  0.3722  0.0963
  831poe     o2 5651   2.416   6.599   3.397  0.0455  0.2039 -0.1732
  831poe    c31 5652   2.409   6.664   3.522  0.4001  0.2553 -0.1789
  832poe    c31 5653   5.168   0.846   5.382 -0.1715  0.0938 -0.4266
  832poe     o2 5654   5.194   0.724   5.447 -0.0077  0.2779 -0.1452
  832poe    c23 5655   5.077   0.683   5.514  0.0801  0.0756 -0.1161
  832poe    c23 5656   5.061   0.535   5.553  0.4783  0.0622  0.0040
  832poe     o2 5657   5.069   0.446   5.444  0.5222  0.3594 -0.2372
  832poe    c23 5658   5.094   0.315   5.490 -0.1105  0.2138 -0.3038
  832poe    c23 5659   5.088   0.197   5.390  0.2054  0.2641 -0.3814
  832poe     o2 5660   5.155   0.243   5.275 -0.0666  0.3904 -0.4890
  832poe    c23 5661   5.110   0.168   5.164 -0.2660 -0.1822 -0.0288
  832poe    c23 5662   5.169   0.244   5.043 -0.4124 -0.0279 -0.0046
  832poe     o2 5663   5.153   0.381   5.068 -0.4664 -0.0523  0.0963
  832poe    c31 5664   5.212   0.454   4.962 -0.1339 -0.0831  0.2553
  833poe    c31 5665   4.203   2.095   0.452  0.4452 -0.1142  0.2190
  833poe     o2 5666   4.284   2.021   0.363 -0.0077  0.2001 -0.4654
  833poe    c23 5667   4.337   2.103   0.261  0.5136  0.1394 -0.2443
  833poe    c23 5668   4.460   2.027   0.209  0.1761 -0.4229 -0.2303
  833poe     o2 5669   4.422   1.892   0.189 -0.1100 -0.3344 -0.2784
  833poe    c23 5670   4.510   1.821   0.106  0.1517 -0.5840  0.2127
  833poe    c23 5671   4.445   1.694   0.048 -0.4371 -0.0659 -0.2603
  833poe     o2 5672   4.368   1.634   0.150 -0.0821  0.0458  0.0740
  833poe    c23 5673   4.351   1.497   0.121 -0.2914  0.2199 -0.6425
  833poe    c23 5674   4.228   1.451   0.200  0.2411 -0.5729 -0.2695
  833poe     o2 5675   4.238   1.490   0.336  0.1622 -0.3905 -0.3160
  833poe    c31 5676   4.114   1.447   0.387  0.3024 -0.0310  0.3251
  834poe    c31 5677   2.629   0.359   6.479  0.4377  0.0145  0.1892
  834poe     o2 5678   2.652   0.485   6.538  0.4983  0.2811 -0.3919
  834poe    c23 5679   2.756   0.475   6.633  0.0224  0.1299  0.1219
  834poe    c23 5680   2.789   0.614   6.690  0.1318  0.2261 -0.1724
  834poe     o2 5681   2.670   0.688   6.692  0.0008  0.0255 -0.4291
  834poe    c23 5682   2.681   0.829   6.696 -0.0339  0.0151  0.1493
  834poe    c23 5683   2.539   0.882   6.723 -0.0225  0.0483  0.1460
  834poe     o2 5684   2.455   0.819   6.630  0.3988  0.1131 -0.2809
  834poe    c23 5685   2.336   0.767   6.685 -0.1642  1.2238 -0.4293
  834poe    c23 5686   2.274   0.681   6.574  0.5697  0.0381  0.0608
  834poe     o2 5687   2.369   0.585   6.532 -0.1177 -0.3128 -0.7304
  834poe    c31 5688   2.282   0.489   6.477 -0.5273 -0.4804  0.1948
  835poe    c31 5689   0.502   2.088   3.911 -0.0249 -0.1475 -0.0551
  835poe     o2 5690   0.544   2.041   4.038  0.1223 -0.2920 -0.1561
  835poe    c23 5691   0.509   1.905   4.046 -0.3886 -0.1492  0.0889
  835poe    c23 5692   0.505   1.855   4.191  0.1460  0.6621  0.3888
  835poe     o2 5693   0.630   1.884   4.250  0.2025 -0.2673  0.7511
  835poe    c23 5694   0.643   1.953   4.372  0.4041  0.1906  0.4740
  835poe    c23 5695   0.572   2.089   4.385  0.1746  0.1176  0.0152
  835poe     o2 5696   0.624   2.166   4.279  0.2413 -0.3324 -0.2826
  835poe    c23 5697   0.606   2.305   4.296  0.0503 -0.4215  0.2680
  835poe    c23 5698   0.722   2.356   4.208 -0.0771  0.2501  0.4792
  835poe     o2 5699   0.733   2.272   4.095 -0.2017  0.4794  0.2966
  835poe    c31 5700   0.831   2.315   4.003 -0.3378  0.0015 -0.0755
  836poe    c31 5701   1.977   4.531   5.816  0.2244  0.4085 -0.1410
  836poe     o2 5702   1.872   4.444   5.782  0.2466  0.4578 -0.3387
  836poe    c23 5703   1.821   4.370   5.890  0.2370  0.3700 -0.4038
  836poe    c23 5704   1.678   4.321   5.859  0.0160  0.4373  0.4683
  836poe     o2 5705   1.668   4.229   5.752 -0.5968  0.4768  0.4885
  836poe    c23 5706   1.568   4.134   5.782 -0.3873  0.1599  0.1915
  836poe    c23 5707   1.517   4.073   5.651  0.4071 -0.0504 -0.0236
  836poe     o2 5708   1.624   4.011   5.583  0.5889  0.2671 -0.0307
  836poe    c23 5709   1.592   3.945   5.462 -0.2625  0.0814  0.2859
  836poe    c23 5710   1.731   3.921   5.399 -0.1391  0.1729  0.5228
  836poe     o2 5711   1.828   3.996   5.469  0.2554 -0.0755  0.2456
  836poe    c31 5712   1.954   3.987   5.408 -0.0127 -0.1575 -0.3034
  837poe    c31 5713   2.896   4.279   6.655  0.1948 -0.1672 -0.2489
  837poe     o2 5714   2.839   4.203   6.760 -0.2075  0.2932 -0.1306
  837poe    c23 5715   2.755   4.097   6.721  0.4234 -0.3524  0.2247
  837poe    c23 5716   2.697   4.028   6.845 -0.0913 -0.2551  0.0409
  837poe     o2 5717   2.797   4.041   6.943 -0.1054 -0.4092  0.0762
  837poe    c23 5718   2.775   3.948   7.047 -0.3918 -0.0012  0.3834
  837poe    c23 5719   2.873   3.974   7.162 -0.1927  0.1528  0.1799
  837poe     o2 5720   2.856   4.113   7.181  0.0766  0.2978 -0.6095
  837poe    c23 5721   2.858   4.155   7.316 -0.1162  0.0847 -0.5402
  837poe    c23 5722   2.982   4.239   7.350 -0.2072  0.0257 -0.0570
  837poe     o2 5723   2.983   4.348   7.260 -0.6925 -0.1321 -0.2562
  837poe    c31 5724   3.111   4.407   7.265 -1.0108  0.5158  0.3922
  838poe    c31 5725   6.515   3.924   5.030  0.1986 -0.4009  0.2283
  838poe     o2 5726   6.541   4.061   5.051 -0.2936 -0.2740  0.0141
  838poe    c23 5727   6.474   4.147   4.962  0.2762 -0.1340 -0.2820
  838poe    c23 5728   6.554   4.279   4.960 -0.0799  0.0865 -0.3166
  838poe     o2 5729   6.592   4.341   5.081  0.6623 -0.0159 -0.4869
  838poe    c23 5730   6.688   4.441   5.059  0.1359  0.6238  0.0783
  838poe    c23 5731   6.778   4.452   5.183  0.3296 -0.3763  0.0360
  838poe     o2 5732   6.676   4.466   5.280 -0.2021  0.5677 -0.6411
  838poe    c23 5733   6.724   4.505   5.407 -0.3661  0.0268 -0.4096
  838poe    c23 5734   6.609   4.519   5.508  0.2710 -0.2177  0.3584
  838poe     o2 5735   6.508   4.429   5.469  0.6879 -0.4762 -0.1326
  838poe    c31 5736   6.410   4.441   5.569  0.8743 -0.2856  0.0269
  839poe    c31 5737   3.398   3.159   0.204  0.3991  0.6086 -0.2588
  839poe     o2 5738   3.371   3.269   0.120 -0.2723  0.3590 -0.3825
  839poe    c23 5739   3.371   3.390   0.193 -0.6405  0.1744 -0.0751
  839poe    c23 5740   3.359   3.508   0.096  0.5027  0.1958 -0.2046
  839poe     o2 5741   3.266   3.468  -0.002 -0.3603  0.3699  0.5334
  839poe    c23 5742   3.240   3.558  -0.108 -0.1202  0.0782  0.2246
  839poe    c23 5743   3.121   3.498  -0.186 -0.4747 -0.2294  0.9930
  839poe     o2 5744   3.149   3.362  -0.205  0.0746  0.0606 -0.3681
  839poe    c23 5745   3.044   3.277  -0.246 -0.1249  0.1300 -0.0057
  839poe    c23 5746   3.124   3.147  -0.226 -0.0222  0.2456  0.3349
  839poe     o2 5747   3.139   3.126  -0.087  0.0966  0.0331  0.2900
  839poe    c31 5748   3.193   2.998  -0.061 -0.1724 -0.1685 -0.1379
  840poe    c31 5749   1.382   0.049   6.174 -0.1210 -0.5067 -0.0507
  840poe     o2 5750   1.438   0.135   6.077 -0.6284 -0.0591  0.0482
  840poe    c23 5751   1.462   0.061   5.960 -0.4925  0.2392 -0.1121
  840poe    c23 5752   1.599   0.114   5.912 -0.3337  0.5410  0.6687
  840poe     o2 5753   1.603   0.255   5.922  0.0796  0.5312  0.6481
  840poe    c23 5754   1.722   0.312   5.872  0.1453 -0.1606  0.0017
  840poe    c23 5755   1.666   0.453   5.850  0.3503 -0.0754  0.0225
  840poe     o2 5756   1.625   0.482   5.982 -0.1314  0.4864 -0.2415
  840poe    c23 5757   1.534   0.590   5.979 -0.4545  0.2249  0.0705
  840poe    c23 5758   1.390   0.540   5.962 -0.3197 -0.0947 -0.1507
  840poe     o2 5759   1.363   0.433   6.050 -0.1810  0.4723  0.5894
  840poe    c31 5760   1.245   0.367   6.010  0.3581 -0.3273  0.3030
  841poe    c31 5761   1.172   6.226   1.482 -0.7957 -0.1381  0.6068
  841poe     o2 5762   1.311   6.253   1.478 -0.8346  0.0297  0.3326
  841poe    c23 5763   1.331   6.341   1.586 -0.4090 -0.4088  0.6148
  841poe    c23 5764   1.451   6.429   1.547 -0.7481 -0.1681  0.1006
  841poe     o2 5765   1.559   6.340   1.531 -0.2011  0.4203  0.4351
  841poe    c23 5766   1.667   6.400   1.464  0.1714  0.1933  0.8260
  841poe    c23 5767   1.739   6.292   1.381 -0.4631  0.4192 -0.0387
  841poe     o2 5768   1.628   6.220   1.332 -0.0446 -0.4613  0.2697
  841poe    c23 5769   1.675   6.098   1.281  0.3264 -0.2443  0.0920
  841poe    c23 5770   1.576   5.993   1.334  0.2016  0.4027  1.1738
  841poe     o2 5771   1.446   6.047   1.325  0.5683  1.1857  0.3755
  841poe    c31 5772   1.350   5.967   1.260  0.3335  0.9095  1.0488
  842poe    c31 5773   4.976   4.119   1.719  0.2195 -0.5842 -0.2847
  842poe     o2 5774   4.992   4.113   1.859 -0.0940 -0.3766 -0.2390
  842poe    c23 5775   4.895   4.186   1.930  0.0951 -0.2425 -0.1194
  842poe    c23 5776   4.892   4.136   2.076 -0.5169  0.3286  0.0682
  842poe     o2 5777   4.879   3.997   2.060 -0.1566  0.2981  0.0288
  842poe    c23 5778   4.896   3.923   2.179 -0.0147  0.5256  0.1497
  842poe    c23 5779   4.885   3.774   2.143 -0.0734  0.6055 -0.1609
  842poe     o2 5780   4.981   3.746   2.043  0.2478 -0.7249  0.5011
  842poe    c23 5781   4.989   3.607   2.020 -0.1833 -0.6096 -0.3867
  842poe    c23 5782   5.109   3.546   1.945  0.4741  0.2489 -0.0505
  842poe     o2 5783   5.104   3.578   1.808 -0.2211 -0.3546 -0.1684
  842poe    c31 5784   5.199   3.507   1.731  0.2831 -0.0322  0.1528
  843poe    c31 5785   2.811   5.652   4.835 -0.2166 -0.4876  0.4132
  843poe     o2 5786   2.950   5.663   4.813 -0.2728 -0.4411  0.0821
  843poe    c23 5787   2.993   5.626   4.684  0.5264  0.1027  0.1815
  843poe    c23 5788   3.142   5.651   4.656  0.5371 -0.1601 -0.0080
  843poe     o2 5789   3.215   5.539   4.614 -0.0147 -0.2090 -0.8492
  843poe    c23 5790   3.347   5.520   4.662 -0.2149  0.0656 -0.1844
  843poe    c23 5791   3.376   5.369   4.652  0.5112  0.1728  0.2388
  843poe     o2 5792   3.343   5.338   4.518  0.1199  0.2057  0.3242
  843poe    c23 5793   3.349   5.198   4.499  0.5455  0.2299  0.2551
  843poe    c23 5794   3.338   5.175   4.347 -0.3020 -0.4617  0.4127
  843poe     o2 5795   3.249   5.269   4.292  0.3227 -0.2093 -0.1760
  843poe    c31 5796   3.224   5.247   4.155 -0.7367 -0.5982  0.0654
  844poe    c31 5797   2.971   2.647   5.365  0.0676  0.5639 -0.1483
  844poe     o2 5798   2.935   2.627   5.500 -0.1401  0.7188 -0.1804
  844poe    c23 5799   2.952   2.739   5.585  0.3776  0.1920  0.4143
  844poe    c23 5800   2.991   2.686   5.724  0.0895  0.6678  0.6782
  844poe     o2 5801   2.873   2.655   5.794 -0.3276 -0.8853 -0.6666
  844poe    c23 5802   2.878   2.639   5.934 -0.5406  0.0682 -0.5472
  844poe    c23 5803   2.756   2.566   5.993 -0.5710  0.2781 -0.3497
  844poe     o2 5804   2.750   2.445   5.920  0.9703 -0.0898  0.0844
  844poe    c23 5805   2.666   2.355   5.988  0.5913  0.0048 -0.2519
  844poe    c23 5806   2.636   2.250   5.881 -0.1467 -0.4681  0.4043
  844poe     o2 5807   2.582   2.311   5.766 -0.1382 -0.5128  0.3760
  844poe    c31 5808   2.444   2.298   5.741 -0.1006  0.1223 -0.1902
  845poe    c31 5809   3.240   0.924   5.915 -0.4149 -0.4322  0.0329
  845poe     o2 5810   3.351   0.838   5.906 -0.0436  0.0048  0.3820
  845poe    c23 5811   3.461   0.885   5.981  0.3053  0.0187 -0.1267
  845poe    c23 5812   3.567   0.779   6.013  0.1294 -0.2334 -0.3789
  845poe     o2 5813   3.529   0.694   6.119 -0.1521  0.6002  0.1974
  845poe    c23 5814   3.444   0.591   6.075  0.1977  0.2958  0.2304
  845poe    c23 5815   3.361   0.547   6.197 -0.1542 -0.0389 -0.1227
  845poe     o2 5816   3.450   0.519   6.303 -0.0376  0.7953  0.0130
  845poe    c23 5817   3.373   0.495   6.418  0.4353 -0.1286  0.1520
  845poe    c23 5818   3.464   0.431   6.525  0.3059 -0.5653  0.0024
  845poe     o2 5819   3.583   0.499   6.494 -0.1378 -0.1144 -0.7412
  845poe    c31 5820   3.682   0.478   6.592 -0.2812  0.1015 -0.5495
  846poe    c31 5821   6.154   5.439   1.599 -0.1004  0.4303  0.3897
  846poe     o2 5822   6.026   5.468   1.650 -0.2652  0.2781  0.0715
  846poe    c23 5823   6.028   5.607   1.674  0.3850  0.2476  0.2026
  846poe    c23 5824   5.887   5.658   1.708  0.0691 -0.1123 -0.5388
  846poe     o2 5825   5.785   5.631   1.615 -0.1368  0.1667 -0.3946
  846poe    c23 5826   5.685   5.731   1.617 -0.0238  0.2714  0.0545
  846poe    c23 5827   5.560   5.688   1.539  0.4818 -0.1996 -0.5119
  846poe     o2 5828   5.524   5.571   1.609  0.3183  0.0834 -0.1151
  846poe    c23 5829   5.427   5.508   1.528  0.5628 -0.4127 -0.0259
  846poe    c23 5830   5.384   5.381   1.605 -0.1643 -0.2255 -0.1096
  846poe     o2 5831   5.505   5.324   1.649 -0.0295  0.0037 -0.1792
  846poe    c31 5832   5.479   5.196   1.703  0.6609  0.0022  0.1602
  847poe    c31 5833   4.774   4.842   4.746 -0.1657 -0.0084  0.3798
  847poe     o2 5834   4.783   4.704   4.717 -0.4176  0.1084 -0.2850
  847poe    c23 5835   4.761   4.633   4.837 -0.6693  0.2555 -0.2451
  847poe    c23 5836   4.784   4.481   4.829 -0.3832  0.2211  1.1123
  847poe     o2 5837   4.881   4.422   4.913  0.1792  0.2030  0.4571
  847poe    c23 5838   4.997   4.378   4.845 -0.7585 -0.8312 -0.5274
  847poe    c23 5839   5.118   4.349   4.935 -0.8022 -0.6831 -0.4194
  847poe     o2 5840   5.089   4.258   5.038 -0.4665 -0.4592 -0.1219
  847poe    c23 5841   5.195   4.249   5.130 -0.5508 -0.3399 -0.0130
  847poe    c23 5842   5.226   4.104   5.168  0.5249 -0.1746 -0.2041
  847poe     o2 5843   5.106   4.030   5.168  0.4236 -0.0148  0.1970
  847poe    c31 5844   5.132   3.892   5.151 -0.3726 -0.2981  1.1719
  848poe    c31 5845   5.390   1.256   0.467 -0.3255  0.4873 -0.1849
  848poe     o2 5846   5.417   1.231   0.603 -0.0192  0.1128 -0.3107
  848poe    c23 5847   5.530   1.149   0.621 -0.0236  0.2981  0.6293
  848poe    c23 5848   5.530   1.114   0.771 -0.4900  0.2090  0.6098
  848poe     o2 5849   5.531   1.239   0.837  0.1778  0.4645  0.1270
  848poe    c23 5850   5.507   1.220   0.974  0.0504 -0.4236 -0.0124
  848poe    c23 5851   5.439   1.349   1.024 -0.2131 -0.6208  0.1433
  848poe     o2 5852   5.352   1.390   0.921  0.2592 -0.1224 -0.0605
  848poe    c23 5853   5.219   1.372   0.961  0.3455  0.7817  0.6554
  848poe    c23 5854   5.137   1.448   0.855  0.4940 -0.5116 -0.4049
  848poe     o2 5855   5.196   1.412   0.732  0.1357 -0.1335 -0.6909
  848poe    c31 5856   5.147   1.485   0.622 -0.5452  0.0831 -0.2568
  849poe    c31 5857   5.928   3.386   3.896  0.4713 -0.0116  0.0615
  849poe     o2 5858   5.863   3.423   3.777 -0.0705 -0.4330  0.2233
  849poe    c23 5859   5.758   3.330   3.760  0.3440 -0.7618 -0.6076
  849poe    c23 5860   5.705   3.355   3.617  0.0629 -0.3341 -0.4312
  849poe     o2 5861   5.822   3.376   3.541  0.1166  0.3183 -0.1775
  849poe    c23 5862   5.805   3.384   3.401  0.2763  0.2806 -0.1987
  849poe    c23 5863   5.942   3.406   3.334 -0.0534  0.1914 -0.9094
  849poe     o2 5864   6.018   3.457   3.442 -0.9383  1.1647 -0.7288
  849poe    c23 5865   6.117   3.552   3.409  0.5963 -0.1627 -0.0589
  849poe    c23 5866   6.196   3.561   3.541 -0.2777  0.8203  0.4073
  849poe     o2 5867   6.109   3.568   3.652 -0.4628  0.1612  0.3080
  849poe    c31 5868   6.157   3.658   3.750 -0.1934 -0.0854  0.4042
  850poe    c31 5869   5.804   2.969   0.523 -0.8052 -0.0242 -0.8321
  850poe     o2 5870   5.825   2.945   0.661 -0.0696 -0.0416 -0.9441
  850poe    c23 5871   5.703   2.940   0.731  0.2891  0.2502 -0.2938
  850poe    c23 5872   5.718   3.038   0.849 -0.6787  0.1053 -0.0330
  850poe     o2 5873   5.826   2.992   0.927 -0.8079 -0.1411 -0.0005
  850poe    c23 5874   5.853   3.081   1.033  0.0281  0.3896 -0.6466
  850poe    c23 5875   5.961   3.011   1.116 -0.1371  0.5717 -0.2745
  850poe     o2 5876   6.062   2.994   1.019  0.2285  0.6604  0.0880
  850poe    c23 5877   6.173   2.919   1.065  0.2899  0.2017 -0.7987
  850poe    c23 5878   6.305   2.998   1.067  0.3531  0.0802 -0.0474
  850poe     o2 5879   6.387   3.000   0.953  0.4157 -0.3147 -0.0103
  850poe    c31 5880   6.486   3.101   0.954  0.0223  0.0662  0.6840
  851poe    c31 5881   6.591   5.422   5.159 -0.1044 -0.2032 -0.0795
  851poe     o2 5882   6.697   5.329   5.173 -0.6538 -0.7991  0.1610
  851poe    c23 5883   6.655   5.198   5.147 -0.7071 -0.6654 -0.4440
  851poe    c23 5884   6.786   5.118   5.158 -0.2593  0.1071 -0.1461
  851poe     o2 5885   6.892   5.190   5.099  0.4617 -0.7616  0.0682
  851poe    c23 5886   7.012   5.159   5.167  0.6289 -0.6412 -0.1694
  851poe    c23 5887   7.102   5.284   5.169 -0.0192 -0.1636 -0.5109
  851poe     o2 5888   7.023   5.396   5.206 -0.0348 -0.2099 -0.4051
  851poe    c23 5889   7.105   5.497   5.260  0.0127 -0.3281 -0.2515
  851poe    c23 5890   7.012   5.620   5.267 -0.3031 -0.5765 -0.0748
  851poe     o2 5891   6.920   5.610   5.161 -0.0990  0.1997 -0.3330
  851poe    c31 5892   6.832   5.720   5.154  0.4051  0.5882 -0.6145
  852poe    c31 5893   0.325   0.257   3.961 -0.0014  0.4616 -0.4007
  852poe     o2 5894   0.372   0.172   4.064  0.2097  0.8218 -0.1985
  852poe    c23 5895   0.262   0.142   4.146  0.4016  0.2639 -0.1426
  852poe    c23 5896   0.275   0.002   4.209  0.1849  0.0987 -0.4626
  852poe     o2 5897   0.390  -0.010   4.290 -0.2771 -0.3742  0.1233
  852poe    c23 5898   0.385  -0.130   4.364 -0.3364 -0.2509  0.3204
  852poe    c23 5899   0.479  -0.148   4.485 -0.2857  0.5958  0.4122
  852poe     o2 5900   0.599  -0.088   4.441 -0.0290 -0.3273 -0.1761
  852poe    c23 5901   0.683  -0.065   4.551 -0.1820  0.3475 -0.1967
  852poe    c23 5902   0.805  -0.000   4.483  0.1171  0.0716  0.0742
  852poe     o2 5903   0.760   0.113   4.413  0.2116  0.6642  0.9557
  852poe    c31 5904   0.867   0.168   4.339 -0.0026  0.2652  0.3335
  853poe    c31 5905   5.147   3.300   6.373  0.9945 -0.1772 -0.5572
  853poe     o2 5906   5.164   3.206   6.269  0.2558  0.0471 -0.8877
  853poe    c23 5907   5.158   3.082   6.337  0.0046  0.3585 -0.3388
  853poe    c23 5908   5.157   2.962   6.241 -0.7836  0.1388 -0.0670
  853poe     o2 5909   5.268   2.993   6.160 -0.1060 -0.4300  0.6233
  853poe    c23 5910   5.265   2.921   6.039  0.3031  0.1269  0.2753
  853poe    c23 5911   5.338   2.990   5.923  0.1137 -0.0581  0.0470
  853poe     o2 5912   5.298   3.125   5.915  0.0447 -0.0734  0.1382
  853poe    c23 5913   5.347   3.183   5.796 -0.1590  0.1531  0.1629
  853poe    c23 5914   5.246   3.270   5.719  0.1907  0.1944 -0.2530
  853poe     o2 5915   5.290   3.331   5.600  0.0767 -0.3768 -0.5936
  853poe    c31 5916   5.180   3.360   5.516 -0.0600  0.3492 -0.1686
  854poe    c31 5917   0.276   6.115   6.186 -0.1328  0.2508 -0.4689
  854poe     o2 5918   0.253   6.127   6.047 -0.6335  0.2910 -0.3818
  854poe    c23 5919   0.313   6.247   6.002  0.3494 -0.0914 -0.1201
  854poe    c23 5920   0.280   6.239   5.852 -0.3844 -0.1502  0.0370
  854poe     o2 5921   0.148   6.190   5.846 -0.4067 -0.0524 -0.3146
  854poe    c23 5922   0.128   6.135   5.718 -0.9099  1.0678 -0.7332
  854poe    c23 5923  -0.022   6.103   5.723 -0.7111  0.1853 -0.1058
  854poe     o2 5924  -0.056   6.011   5.824 -0.2357 -0.3559 -0.4300
  854poe    c23 5925  -0.188   5.961   5.832 -0.4252  0.3340  1.2573
  854poe    c23 5926  -0.301   6.059   5.866 -0.2671  1.0023 -0.0734
  854poe     o2 5927  -0.326   6.095   6.000 -0.0814  0.5701  0.0767
  854poe    c31 5928  -0.405   6.212   6.001 -0.4373  0.3319  0.5568
  855poe    c31 5929   0.526   1.501   4.443 -0.4819 -0.0878  0.5890
  855poe     o2 5930   0.613   1.400   4.398 -0.1049  0.4081  0.1944
  855poe    c23 5931   0.546   1.293   4.336  0.1985  0.3352 -0.0152
  855poe    c23 5932   0.634   1.179   4.283 -0.2249  0.2951 -0.6459
  855poe     o2 5933   0.668   1.198   4.147  0.0310 -0.0516 -0.6311
  855poe    c23 5934   0.783   1.133   4.096  0.5684  0.3931 -0.0117
  855poe    c23 5935   0.853   1.195   3.974  0.6931  0.1396 -0.0689
  855poe     o2 5936   0.772   1.251   3.873  0.2635 -0.4691 -0.0672
  855poe    c23 5937   0.813   1.202   3.747  0.1587 -0.0851 -0.2540
  855poe    c23 5938   0.698   1.243   3.653  0.2029  0.0924 -0.2309
  855poe     o2 5939   0.575   1.241   3.722  0.1720 -0.4313 -0.2989
  855poe    c31 5940   0.467   1.239   3.632  0.1205 -0.6565 -0.2334
  856poe    c31 5941   0.710   2.943   2.945  0.0752 -0.1094  0.2184
  856poe     o2 5942   0.804   3.035   2.893 -0.3920  0.1482 -0.1839
  856poe    c23 5943   0.749   3.135   2.811  0.5631  0.5256 -0.3636
  856poe    c23 5944   0.737   3.106   2.661  0.0692  0.0930 -0.2444
  856poe     o2 5945   0.618   3.041   2.624  0.0526  0.1847 -0.3530
  856poe    c23 5946   0.578   3.057   2.489 -0.5070  0.1486 -0.1919
  856poe    c23 5947   0.455   2.970   2.454 -0.4718  0.0331 -0.0306
  856poe     o2 5948   0.344   3.019   2.525 -0.4250  0.1403 -0.0310
  856poe    c23 5949   0.236   3.011   2.434 -0.1509 -0.0197 -0.3449
  856poe    c23 5950   0.107   3.070   2.495 -0.1476 -0.3804  0.0194
  856poe     o2 5951   0.090   2.993   2.612 -0.7955 -0.1472  0.0827
  856poe    c31 5952  -0.026   3.045   2.671 -0.2892  0.6949  0.3606
  857poe    c31 5953   3.192   1.429   3.748 -0.4214  0.2680  0.5183
  857poe     o2 5954   3.098   1.346   3.685  0.1348  0.0623 -0.0541
  857poe    c23 5955   3.147   1.214   3.688  0.3028  0.1423  0.7719
  857poe    c23 5956   3.086   1.123   3.581  0.0427  0.8024  0.3528
  857poe     o2 5957   2.957   1.093   3.630 -0.0187  0.3352 -0.0783
  857poe    c23 5958   2.891   0.999   3.549 -0.4830  0.7102 -0.1384
  857poe    c23 5959   2.773   0.927   3.616 -0.0472 -0.1085 -0.2372
  857poe     o2 5960   2.696   1.026   3.680  0.1943 -0.0527 -0.0343
  857poe    c23 5961   2.558   1.000   3.670  0.1560  0.1314  0.0127
  857poe    c23 5962   2.489   1.075   3.786 -0.2449  0.2023 -0.2683
  857poe     o2 5963   2.532   1.208   3.768  0.0613  0.1992  0.4224
  857poe    c31 5964   2.439   1.286   3.839 -0.4926  0.5274 -0.6392
  858poe    c31 5965   2.315   6.249   1.511  1.2558  0.1785  0.4211
  858poe     o2 5966   2.330   6.177   1.632 -0.5780  0.0745  0.6193
  858poe    c23 5967   2.269   6.050   1.630  0.1525 -0.2808  0.1739
  858poe    c23 5968   2.295   5.968   1.758  0.2360 -0.4463  0.0494
  858poe     o2 5969   2.289   6.063   1.862  0.5016  0.2746 -0.5841
  858poe    c23 5970   2.311   5.995   1.983 -0.1368  0.6403 -0.2600
  858poe    c23 5971   2.355   6.104   2.083 -0.0208 -0.0223  0.4226
  858poe     o2 5972   2.435   6.196   2.012 -0.0379 -0.4565 -0.1695
  858poe    c23 5973   2.428   6.328   2.060 -0.0536 -0.3170 -0.5559
  858poe    c23 5974   2.468   6.428   1.950  0.2101 -0.2890 -0.4368
  858poe     o2 5975   2.407   6.381   1.832  0.6539 -0.3073 -0.6607
  858poe    c31 5976   2.376   6.497   1.759 -0.0675 -0.1042 -0.0496
  859poe    c31 5977   4.805   4.722   2.451 -0.8150  0.9275  0.0075
  859poe     o2 5978   4.735   4.664   2.343 -0.5325 -0.4941  0.5581
  859poe    c23 5979   4.686   4.757   2.248  0.0798 -0.4890  0.2467
  859poe    c23 5980   4.717   4.701   2.107 -0.6112 -0.3202  0.0263
  859poe     o2 5981   4.659   4.580   2.067 -0.5760 -0.4794  0.4488
  859poe    c23 5982   4.721   4.533   1.949 -0.3703  0.0253  0.3552
  859poe    c23 5983   4.631   4.438   1.869  0.0158 -0.2910  0.2937
  859poe     o2 5984   4.605   4.334   1.961 -0.5221  0.0348  0.5146
  859poe    c23 5985   4.488   4.267   1.920  0.0325 -0.5006 -0.2247
  859poe    c23 5986   4.484   4.153   2.023 -0.6673  0.3415  0.6971
  859poe     o2 5987   4.490   4.190   2.159  0.1055  0.1152  0.7288
  859poe    c31 5988   4.423   4.097   2.241  0.8006 -0.7429  0.3359
  860poe    c31 5989   3.497   6.852   4.452 -0.7067 -0.2517  0.0796
  860poe     o2 5990   3.501   6.885   4.589  0.3051 -0.5305  0.1219
  860poe    c23 5991   3.630   6.847   4.630  0.3195 -0.4651  0.1374
  860poe    c23 5992   3.669   6.942   4.745  0.2485 -0.7833  0.4292
  860poe     o2 5993   3.559   6.949   4.832  0.1685  0.1607  0.2686
  860poe    c23 5994   3.584   6.894   4.959  0.0077 -0.7312 -0.0753
  860poe    c23 5995   3.499   6.956   5.072  0.2061  0.6326 -0.6589
  860poe     o2 5996   3.367   6.944   5.024 -0.0005 -0.4266  0.1295
  860poe    c23 5997   3.279   6.995   5.122  0.0528 -0.6604  0.2989
  860poe    c23 5998   3.133   6.975   5.078  0.0613  0.1082 -0.0963
  860poe     o2 5999   3.097   7.018   4.949  0.4193 -0.0745 -0.2578
  860poe    c31 6000   2.970   6.972   4.906  0.4358 -0.2842 -0.0860
  861poe    c31 6001   0.396   3.790   0.089 -0.0418 -0.1993  0.3097
  861poe     o2 6002   0.411   3.710   0.204  0.7672  0.4045  0.6370
  861poe    c23 6003   0.289   3.705   0.274  0.3996 -0.0125 -0.0161
  861poe    c23 6004   0.271   3.576   0.356 -0.1330 -0.0634 -0.2107
  861poe     o2 6005   0.384   3.583   0.440 -0.1534 -0.1937 -0.1718
  861poe    c23 6006   0.409   3.467   0.516 -0.3578 -0.3369 -0.3231
  861poe    c23 6007   0.526   3.507   0.608 -0.6440  0.0448 -0.1237
  861poe     o2 6008   0.621   3.573   0.528 -0.2674  0.3903  0.5962
  861poe    c23 6009   0.747   3.531   0.575 -0.3482 -0.3263  0.1884
  861poe    c23 6010   0.863   3.627   0.543 -0.1686 -0.5130  0.2768
  861poe     o2 6011   0.883   3.660   0.408 -0.2406 -0.0357  0.3794
  861poe    c31 6012   1.001   3.735   0.394 -0.3728  0.0173 -0.5139
  862poe    c31 6013   3.067   1.497   5.285  0.0684  0.2120 -0.4202
  862poe     o2 6014   3.055   1.631   5.330  0.6039  0.0453  0.2312
  862poe    c23 6015   3.137   1.723   5.263 -0.3166  0.4298 -0.3950
  862poe    c23 6016   3.142   1.867   5.318 -0.4851  0.6475 -0.9467
  862poe     o2 6017   3.016   1.921   5.350 -0.5559 -0.3593  0.5552
  862poe    c23 6018   3.031   2.057   5.385  0.1531  0.0024 -1.0535
  862poe    c23 6019   2.890   2.120   5.394 -0.1205 -0.7808  0.4519
  862poe     o2 6020   2.803   2.022   5.447  0.0999 -1.2887 -0.1077
  862poe    c23 6021   2.679   2.073   5.492  0.3459 -0.6129 -0.1786
  862poe    c23 6022   2.593   1.959   5.550 -0.4376 -0.0337 -0.1851
  862poe     o2 6023   2.608   1.834   5.487  0.3796 -0.1372  0.1948
  862poe    c31 6024   2.495   1.755   5.515  0.2588 -0.0448 -0.0275
  863poe    c31 6025   2.264   1.396   6.620 -0.3955 -0.6799 -0.2988
  863poe     o2 6026   2.157   1.393   6.529 -0.2157  0.0561 -0.5452
  863poe    c23 6027   2.123   1.526   6.498 -0.5557  0.0598 -0.1721
  863poe    c23 6028   2.031   1.528   6.375  0.2873  0.3274 -0.8100
  863poe     o2 6029   2.087   1.442   6.279  0.7754 -0.5145  0.2089
  863poe    c23 6030   2.029   1.451   6.150 -0.3387 -0.2930  0.7133
  863poe    c23 6031   2.124   1.353   6.079 -0.1309  0.5036 -0.1298
  863poe     o2 6032   2.128   1.233   6.154 -0.1913  0.1252 -0.7302
  863poe    c23 6033   2.249   1.161   6.143 -0.2121 -0.0022 -0.1244
  863poe    c23 6034   2.239   1.063   6.261 -0.3480  0.2929  0.1101
  863poe     o2 6035   2.196   1.124   6.381  0.3739 -0.1715  0.6159
  863poe    c31 6036   2.228   1.036   6.486  0.4599 -0.3342  0.4540
  864poe    c31 6037   5.061   0.476   1.509 -0.1695  0.2554 -0.6277
  864poe     o2 6038   5.186   0.496   1.571 -0.2943 -0.8217  0.0073
  864poe    c23 6039   5.216   0.425   1.689  0.0858 -0.2206  0.2762
  864poe    c23 6040   5.352   0.494   1.717  0.0605  0.1121 -0.4059
  864poe     o2 6041   5.428   0.505   1.599  0.2798 -0.3245 -0.3086
  864poe    c23 6042   5.546   0.573   1.635 -0.1879  0.3128  0.0346
  864poe    c23 6043   5.641   0.595   1.516 -0.1465 -0.1664 -0.0229
  864poe     o2 6044   5.587   0.703   1.444 -0.2692 -0.1351  0.1154
  864poe    c23 6045   5.695   0.779   1.393 -0.0309 -0.1291  0.6242
  864poe    c23 6046   5.665   0.929   1.410  0.3914  0.0505 -0.1809
  864poe     o2 6047   5.566   0.984   1.326  0.2811  0.3989  0.1730
  864poe    c31 6048   5.533   1.117   1.360 -0.2156  0.2409  0.3150
  865poe    c31 6049   4.987   4.353   6.385 -0.3700 -0.3092 -0.0500
  865poe     o2 6050   4.883   4.443   6.411  0.3280  0.3967  0.3499
  865poe    c23 6051   4.896   4.554   6.325  0.4769  0.0904 -0.0220
  865poe    c23 6052   4.761   4.604   6.272  0.4023  0.2349  0.3030
  865poe     o2 6053   4.686   4.643   6.385  0.2956 -0.0087  0.3168
  865poe    c23 6054   4.549   4.620   6.362  0.4825 -0.2572 -0.5939
  865poe    c23 6055   4.522   4.469   6.363  0.2104 -0.2052  0.2715
  865poe     o2 6056   4.576   4.417   6.483  0.5554 -0.2063  0.1179
  865poe    c23 6057   4.536   4.287   6.519  0.5329 -0.2915 -0.2119
  865poe    c23 6058   4.587   4.280   6.664  0.0673  0.0421 -0.0279
  865poe     o2 6059   4.726   4.306   6.657  0.1827 -0.5512  0.0069
  865poe    c31 6060   4.785   4.240   6.766  0.1126 -0.8096 -0.1113
  866poe    c31 6061   6.120   0.625   4.624 -0.0052 -0.0458 -0.5745
  866poe     o2 6062   6.036   0.623   4.738  0.0621  0.2128 -0.5178
  866poe    c23 6063   6.103   0.682   4.847 -0.2068 -0.0113 -0.2297
  866poe    c23 6064   6.054   0.623   4.981  0.3613 -0.1705 -0.0896
  866poe     o2 6065   6.087   0.488   5.004 -0.2211 -0.2544  0.2611
  866poe    c23 6066   5.995   0.439   5.100 -1.0510  0.3723 -0.2053
  866poe    c23 6067   6.008   0.288   5.123 -0.3423  0.4308 -0.1954
  866poe     o2 6068   5.990   0.228   4.997 -0.1415 -0.2829  0.1105
  866poe    c23 6069   6.041   0.097   4.981  0.6757  0.1313 -0.7272
  866poe    c23 6070   5.979   0.018   4.865  0.0340 -0.6713  0.1464
  866poe     o2 6071   6.015   0.082   4.744 -0.7221  0.1733  0.3653
  866poe    c31 6072   5.959   0.010   4.638  0.0391  0.2127 -0.0710
  867poe    c31 6073   2.540   2.916   6.690  0.4381 -0.4458  0.0646
  867poe     o2 6074   2.520   3.051   6.723  0.2358 -0.4410 -0.0757
  867poe    c23 6075   2.642   3.119   6.745  0.1555 -0.3428  0.0694
  867poe    c23 6076   2.604   3.265   6.774  0.0183 -0.3027 -0.2959
  867poe     o2 6077   2.512   3.242   6.879  0.0144  0.1943 -0.1871
  867poe    c23 6078   2.474   3.355   6.953 -0.4262 -0.1876  0.1741
  867poe    c23 6079   2.329   3.317   6.988 -0.4813  0.1119  0.2830
  867poe     o2 6080   2.260   3.257   6.880 -0.0648 -0.8086  0.5199
  867poe    c23 6081   2.147   3.190   6.931 -1.1649  0.4315 -0.2357
  867poe    c23 6082   2.101   3.099   6.815 -0.1347 -1.1313  0.5416
  867poe     o2 6083   2.212   3.033   6.758 -0.1516 -1.1131  0.4875
  867poe    c31 6084   2.179   2.916   6.686 -0.0368 -0.6229 -0.3767
  868poe    c31 6085   0.059   2.141   4.316 -1.0805  0.3136 -0.1473
  868poe     o2 6086   0.030   2.260   4.386  0.4676  0.3862  0.4093
  868poe    c23 6087  -0.056   2.350   4.322  0.2633  0.1564  0.3597
  868poe    c23 6088  -0.098   2.459   4.422 -0.6620  0.3371 -0.2087
  868poe     o2 6089   0.004   2.557   4.423 -0.7160  0.3915  0.2208
  868poe    c23 6090  -0.035   2.668   4.501 -0.1135  0.1881  0.8231
  868poe    c23 6091   0.092   2.753   4.523 -0.0430  0.4411 -0.4707
  868poe     o2 6092   0.194   2.676   4.582 -0.1612  0.4033 -0.3133
  868poe    c23 6093   0.274   2.758   4.664 -0.5701  0.1055  0.3860
  868poe    c23 6094   0.349   2.674   4.769 -0.0325 -0.1092 -0.1666
  868poe     o2 6095   0.409   2.571   4.694 -0.3900 -0.8405  0.5357
  868poe    c31 6096   0.518   2.517   4.766 -0.2987 -0.3009  0.8120
  869poe    c31 6097   2.735   5.976   1.199  0.4405 -0.5121 -0.2356
  869poe     o2 6098   2.761   5.955   1.062 -0.0440  0.9354 -0.5665
  869poe    c23 6099   2.653   5.902   0.988 -0.3022  0.0160  0.4576
  869poe    c23 6100   2.672   5.962   0.848 -0.0055  0.0981  0.5307
  869poe     o2 6101   2.803   5.934   0.803 -0.2213  0.0587 -0.0821
  869poe    c23 6102   2.836   6.002   0.684 -0.1397  0.0806 -0.0462
  869poe    c23 6103   2.975   5.946   0.646 -0.2288 -0.0509 -0.1738
  869poe     o2 6104   3.057   5.983   0.754 -0.3651  0.5293 -0.2664
  869poe    c23 6105   3.191   5.944   0.737 -0.1930  0.9495  0.1033
  869poe    c23 6106   3.283   5.974   0.857  0.3397 -0.1391 -0.0200
  869poe     o2 6107   3.234   5.928   0.981  0.1659  0.1159  0.0049
  869poe    c31 6108   3.338   5.941   1.076  0.6139 -0.6129 -0.3872
  870poe    c31 6109   3.709   0.407   4.896 -0.6461 -0.2181 -0.4349
  870poe     o2 6110   3.629   0.501   4.962 -0.0599  0.2234 -0.3401
  870poe    c23 6111   3.511   0.439   5.011  0.6518 -0.4122  0.6088
  870poe    c23 6112   3.466   0.514   5.137 -0.2303  0.7137 -0.3548
  870poe     o2 6113   3.564   0.510   5.238 -0.1206 -0.2498 -0.4970
  870poe    c23 6114   3.508   0.526   5.366  0.3370  0.2509 -0.3582
  870poe    c23 6115   3.613   0.491   5.473  0.5297  0.0488 -0.6115
  870poe     o2 6116   3.740   0.524   5.420  0.2657  0.3991 -1.0388
  870poe    c23 6117   3.798   0.576   5.538  0.3278 -0.4767 -0.6735
  870poe    c23 6118   3.947   0.612   5.518  0.3643 -0.1980  0.0654
  870poe     o2 6119   3.945   0.725   5.434 -0.1395 -0.1421  0.1498
  870poe    c31 6120   4.079   0.764   5.414 -0.1424 -0.4638 -0.5545
  871poe    c31 6121   4.857   2.679   0.810 -0.3553  0.0714 -0.3683
  871poe     o2 6122   4.909   2.592   0.907 -0.1406 -0.1661 -0.6921
  871poe    c23 6123   5.014   2.644   0.986 -0.8591  0.0844  0.1131
  871poe    c23 6124   5.043   2.539   1.094 -0.9912 -0.0843 -0.0156
  871poe     o2 6125   5.053   2.415   1.027 -0.1943  0.0792 -0.2084
  871poe    c23 6126   5.134   2.321   1.095 -0.3756  0.0258 -0.0654
  871poe    c23 6127   5.158   2.217   0.984  0.2933  0.4672 -0.3380
  871poe     o2 6128   5.042   2.205   0.904  0.2004  0.6042 -0.2245
  871poe    c23 6129   5.059   2.173   0.768  0.0162 -0.7317  0.0602
  871poe    c23 6130   4.918   2.179   0.705  0.1625  0.3329 -0.1815
  871poe     o2 6131   4.851   2.283   0.773  0.3559  0.5307 -0.2938
  871poe    c31 6132   4.720   2.287   0.720  0.2786 -0.5634 -0.1976
  872poe    c31 6133   2.012   3.979   4.931  0.3287  0.0962  0.4416
  872poe     o2 6134   2.090   4.075   4.998  0.3405  0.6935 -0.4053
  872poe    c23 6135   2.177   4.006   5.086 -0.1724  0.2346 -0.2512
  872poe    c23 6136   2.263   4.109   5.162  0.3415 -0.2646 -0.1487
  872poe     o2 6137   2.295   4.212   5.071 -0.2829 -0.1406 -0.2328
  872poe    c23 6138   2.356   4.327   5.125 -0.1406 -0.2212 -0.2214
  872poe    c23 6139   2.363   4.431   5.012  0.0630  0.0804  0.0676
  872poe     o2 6140   2.239   4.407   4.949 -0.3293  0.9892  0.4685
  872poe    c23 6141   2.215   4.487   4.836 -0.2109  0.3754  0.0025
  872poe    c23 6142   2.070   4.453   4.798 -0.3008  0.1639  0.5283
  872poe     o2 6143   2.048   4.318   4.833  0.0234 -0.1929 -0.6075
  872poe    c31 6144   1.909   4.302   4.817 -0.0282 -0.5447  0.1351
  873poe    c31 6145   0.555   0.801   2.632 -0.5078  0.0528 -0.5141
  873poe     o2 6146   0.673   0.739   2.585 -0.0635  0.4166  0.1047
  873poe    c23 6147   0.738   0.681   2.695  0.2171  0.7551  0.1196
  873poe    c23 6148   0.870   0.617   2.647 -0.2503 -0.3503  0.2881
  873poe     o2 6149   0.964   0.705   2.593 -0.5815 -0.2441 -0.1186
  873poe    c23 6150   1.053   0.745   2.695 -0.3441  0.2637 -0.5181
  873poe    c23 6151   1.155   0.845   2.636  0.3816  0.2012  0.5993
  873poe     o2 6152   1.220   0.770   2.536  0.1804  0.2300  0.4453
  873poe    c23 6153   1.336   0.833   2.488  0.0064  0.4390  0.2963
  873poe    c23 6154   1.423   0.731   2.412 -0.7381 -0.4510  0.6344
  873poe     o2 6155   1.339   0.668   2.318 -0.6187  0.1475  0.1262
  873poe    c31 6156   1.416   0.634   2.205 -0.1967  0.1957  0.3956
  874poe    c31 6157   4.530   6.178   4.304  0.4665  0.7906 -0.6049
  874poe     o2 6158   4.415   6.171   4.385  0.9981 -0.1296  0.0869
  874poe    c23 6159   4.412   6.269   4.486 -0.3632 -0.1413  0.0875
  874poe    c23 6160   4.317   6.217   4.595  0.0117 -0.1573  0.4092
  874poe     o2 6161   4.220   6.143   4.524 -0.1156  0.1780  0.2260
  874poe    c23 6162   4.095   6.138   4.589 -0.1316 -0.4652  0.1572
  874poe    c23 6163   4.010   6.032   4.517 -0.6428 -0.2264  0.4031
  874poe     o2 6164   4.040   6.054   4.381 -0.2175  0.2173  0.5676
  874poe    c23 6165   4.015   5.945   4.295 -0.3339  0.5262  0.2064
  874poe    c23 6166   4.092   5.957   4.162  0.0009 -0.2968  0.3229
  874poe     o2 6167   4.229   5.973   4.190 -0.0019  0.2298  0.0417
  874poe    c31 6168   4.304   6.015   4.079 -0.5859  0.1822 -0.3764
  875poe    c31 6169   0.443   3.325   5.281 -0.7296 -0.2148 -0.4136
  875poe     o2 6170   0.542   3.250   5.348 -0.6001 -0.0014 -0.3648
  875poe    c23 6171   0.621   3.189   5.248  0.2046  0.6821 -0.1506
  875poe    c23 6172   0.700   3.067   5.299 -0.1488  0.5144 -0.0015
  875poe     o2 6173   0.806   3.131   5.367  0.0372  0.0782  0.1223
  875poe    c23 6174   0.877   3.040   5.447 -0.3613 -0.0482  0.3375
  875poe    c23 6175   0.953   3.106   5.564  0.2873 -0.6845  0.2851
  875poe     o2 6176   0.862   3.165   5.654  0.1527 -0.1936 -0.1712
  875poe    c23 6177   0.890   3.158   5.792 -0.1279 -0.7271 -0.1418
  875poe    c23 6178   0.788   3.240   5.873  0.6024 -0.0817  0.1340
  875poe     o2 6179   0.776   3.360   5.801 -0.3463 -0.3594 -0.1836
  875poe    c31 6180   0.715   3.464   5.875  0.3179 -0.6580  0.8002
  876poe    c31 6181   6.779   3.224   6.156 -0.6714 -0.1806 -0.1016
  876poe     o2 6182   6.776   3.365   6.154 -0.3508 -0.1578  0.6704
  876poe    c23 6183   6.649   3.425   6.147 -0.3393 -0.1801  0.1931
  876poe    c23 6184   6.670   3.578   6.154 -0.0400 -0.2134 -0.0000
  876poe     o2 6185   6.763   3.589   6.259 -0.0169  0.6152 -0.1047
  876poe    c23 6186   6.750   3.716   6.318 -0.0812  0.5902 -0.0658
  876poe    c23 6187   6.872   3.745   6.407 -0.1319  0.3984  0.0659
  876poe     o2 6188   6.996   3.750   6.340 -0.4310  0.0847 -0.5180
  876poe    c23 6189   7.108   3.773   6.422 -0.2878  0.0310 -0.6979
  876poe    c23 6190   7.239   3.762   6.342 -0.1026 -0.3185 -0.3554
  876poe     o2 6191   7.247   3.650   6.257  0.4392 -0.1796 -0.4944
  876poe    c31 6192   7.356   3.675   6.171  0.7183 -0.0936 -0.1158
  877poe    c31 6193   2.584   4.562   4.412 -0.4716 -0.1783  0.5705
  877poe     o2 6194   2.720   4.532   4.391 -0.4716  0.0085  0.2981
  877poe    c23 6195   2.790   4.654   4.408 -0.0917 -0.1644 -0.0193
  877poe    c23 6196   2.939   4.617   4.395  0.0756  0.3435  0.4319
  877poe     o2 6197   2.968   4.514   4.487  0.2775  0.0744  0.0723
  877poe    c23 6198   3.089   4.450   4.456  0.0359 -0.4733  0.2539
  877poe    c23 6199   3.101   4.346   4.569  0.1433 -0.5859  0.1394
  877poe     o2 6200   2.979   4.278   4.584 -0.2041 -0.0343 -0.1465
  877poe    c23 6201   2.999   4.154   4.650 -0.3300 -0.1236 -0.2750
  877poe    c23 6202   2.971   4.155   4.801 -1.0134 -0.5100 -0.3963
  877poe     o2 6203   2.841   4.187   4.845 -0.4374  0.8615  0.3704
  877poe    c31 6204   2.812   4.113   4.962  0.3160 -0.1377 -0.0625
  878poe    c31 6205   6.588   5.086   4.556 -0.3133 -0.3116 -0.3621
  878poe     o2 6206   6.529   5.012   4.660 -0.2520 -0.1085 -0.1810
  878poe    c23 6207   6.475   5.109   4.746 -0.2863 -0.1548 -0.1499
  878poe    c23 6208   6.369   5.053   4.844  0.1266 -0.2146  0.2672
  878poe     o2 6209   6.288   4.951   4.789 -0.1688 -0.1366  0.5554
  878poe    c23 6210   6.162   4.945   4.852 -0.4530 -0.3659 -0.0252
  878poe    c23 6211   6.067   4.847   4.781 -0.8213  0.0592 -0.1252
  878poe     o2 6212   6.132   4.722   4.783 -0.0334  0.4631 -0.0492
  878poe    c23 6213   6.052   4.611   4.749  0.1551  0.1825  0.4084
  878poe    c23 6214   6.138   4.499   4.687  0.4419  0.4877  0.2474
  878poe     o2 6215   6.186   4.550   4.565  0.1996 -0.3189 -0.1961
  878poe    c31 6216   6.228   4.448   4.478 -0.2196 -0.8150  0.1750
  879poe    c31 6217   4.543   5.104   4.787 -1.0351 -0.3832  0.2179
  879poe     o2 6218   4.445   5.205   4.794 -0.0382  0.6111 -0.0781
  879poe    c23 6219   4.483   5.325   4.728  0.0667  0.6063 -0.0267
  879poe    c23 6220   4.353   5.407   4.715 -0.5031 -0.2871 -0.0814
  879poe     o2 6221   4.289   5.427   4.839 -0.1965  0.1971  0.0008
  879poe    c23 6222   4.160   5.483   4.830 -0.6105 -0.6408  0.6181
  879poe    c23 6223   4.118   5.539   4.968 -0.2507  0.2552  0.3713
  879poe     o2 6224   4.147   5.429   5.051 -0.3581  0.2077  0.3451
  879poe    c23 6225   4.073   5.434   5.171 -0.1656 -0.4259  0.4979
  879poe    c23 6226   4.141   5.343   5.274 -0.3699 -0.3095  0.7369
  879poe     o2 6227   4.133   5.207   5.239  0.0003 -0.1574  0.0400
  879poe    c31 6228   4.208   5.126   5.328  0.1205 -0.5589 -0.4232
  880poe    c31 6229   4.968   1.248   4.681 -0.2887 -0.1495  0.3987
  880poe     o2 6230   4.924   1.171   4.571  0.2299 -0.2294  0.2445
  880poe    c23 6231   5.017   1.177   4.466 -0.0428  0.2679  0.0283
  880poe    c23 6232   4.957   1.105   4.343 -0.0716 -0.3491  0.3970
  880poe     o2 6233   4.891   0.988   4.385 -0.5240 -0.1038  0.3768
  880poe    c23 6234   4.863   0.907   4.273 -0.5431  0.5028 -0.0642
  880poe    c23 6235   4.847   0.767   4.335 -0.4389  0.3934 -0.2824
  880poe     o2 6236   4.751   0.760   4.439  0.5550  0.1947  0.6359
  880poe    c23 6237   4.726   0.639   4.506  0.3155  0.2267  0.6041
  880poe    c23 6238   4.597   0.633   4.590  0.0119 -0.1775  0.1206
  880poe     o2 6239   4.604   0.745   4.675  0.0608  0.0794 -0.2188
  880poe    c31 6240   4.498   0.737   4.768  0.5246 -0.1510  0.2985
  881poe    c31 6241   6.772   5.021   0.297  0.0177  0.8374 -0.5897
  881poe     o2 6242   6.898   5.075   0.328  0.0546  0.4058  0.0344
  881poe    c23 6243   7.006   4.984   0.321  0.2970  0.6865  0.1392
  881poe    c23 6244   7.138   5.063   0.311  0.9105 -0.2135  0.9277
  881poe     o2 6245   7.110   5.185   0.376  0.3335  0.0772  0.1539
  881poe    c23 6246   7.229   5.259   0.393  0.0150  0.5957  0.1340
  881poe    c23 6247   7.230   5.387   0.479  0.3517  0.5497  0.2012
  881poe     o2 6248   7.140   5.477   0.418  0.0566 -0.1098 -0.3484
  881poe    c23 6249   7.143   5.614   0.451  0.1729 -0.2122  0.0701
  881poe    c23 6250   7.109   5.664   0.592  0.1523  0.4746 -0.1765
  881poe     o2 6251   7.199   5.597   0.677 -0.1191  0.1222 -0.1620
  881poe    c31 6252   7.163   5.580   0.813  0.2396 -0.5760 -0.1503
  882poe    c31 6253   0.596   4.332   5.636 -0.4030  0.3238  0.1680
  882poe     o2 6254   0.647   4.232   5.550 -0.2704 -0.3024  0.9619
  882poe    c23 6255   0.573   4.229   5.430  0.5130 -0.5530  0.4819
  882poe    c23 6256   0.494   4.098   5.418 -0.4714  0.0335  0.4398
  882poe     o2 6257   0.599   4.004   5.428  0.1658  0.7107  0.2119
  882poe    c23 6258   0.575   3.869   5.461  0.2373  0.6591  0.0547
  882poe    c23 6259   0.703   3.822   5.533 -0.3003 -0.4053  0.3472
  882poe     o2 6260   0.736   3.927   5.622  0.7968  0.2205 -0.7701
  882poe    c23 6261   0.853   3.902   5.696  0.2988 -0.1972 -0.1154
  882poe    c23 6262   0.890   4.036   5.761  0.5191  0.0454 -0.7334
  882poe     o2 6263   0.889   4.144   5.671 -0.3689  1.0641  0.4553
  882poe    c31 6264   1.017   4.204   5.680  0.1464  0.1481 -0.5181
  883poe    c31 6265   1.515   5.215   4.736 -0.5576 -0.1864  0.5349
  883poe     o2 6266   1.455   5.091   4.709 -0.1680 -0.1055 -0.7429
  883poe    c23 6267   1.331   5.080   4.775  0.7152 -0.0726  0.9561
  883poe    c23 6268   1.276   4.936   4.773  0.1262  0.1578  0.4889
  883poe     o2 6269   1.342   4.842   4.854  0.4255 -0.2255 -0.1902
  883poe    c23 6270   1.257   4.737   4.892  0.2436 -0.0127 -0.0098
  883poe    c23 6271   1.339   4.652   4.991  0.6843  1.0254  0.5340
  883poe     o2 6272   1.470   4.637   4.941  0.3205 -0.4343 -0.0521
  883poe    c23 6273   1.560   4.564   5.022  0.0219 -0.0477  0.6443
  883poe    c23 6274   1.697   4.572   4.951 -0.0996  0.3120  0.4479
  883poe     o2 6275   1.710   4.704   4.903  0.0065 -0.1061 -0.7096
  883poe    c31 6276   1.843   4.745   4.883  0.1538 -0.5962 -0.7484
  884poe    c31 6277   3.489   5.725   5.709 -0.6916  0.5290  0.2947
  884poe     o2 6278   3.572   5.782   5.807  0.4303  0.2881 -0.4915
  884poe    c23 6279   3.497   5.857   5.901 -0.1224 -0.3409 -0.4280
  884poe    c23 6280   3.580   5.955   5.986 -0.3076 -0.1901 -0.4204
  884poe     o2 6281   3.644   6.059   5.916 -0.2141  0.2868  0.3652
  884poe    c23 6282   3.757   6.108   5.984 -0.3113  0.5201  0.3610
  884poe    c23 6283   3.886   6.036   5.943 -0.5748  0.1961  0.0942
  884poe     o2 6284   3.893   6.023   5.802  0.1412 -0.0563  0.1479
  884poe    c23 6285   4.028   5.988   5.784  0.0738 -0.4590  0.3952
  884poe    c23 6286   4.094   6.033   5.652  0.9151 -0.7352  0.7114
  884poe     o2 6287   4.034   5.976   5.538  0.2717  0.3367  0.4957
  884poe    c31 6288   4.127   5.993   5.434 -0.3678  0.0296 -0.1375
  885poe    c31 6289   3.435   2.276   3.570  0.7368 -0.1111 -0.1934
  885poe     o2 6290   3.533   2.223   3.657  0.0749 -0.3630  0.4133
  885poe    c23 6291   3.598   2.111   3.603 -0.5060 -0.5894  0.1732
  885poe    c23 6292   3.739   2.118   3.664 -0.4279  0.9986 -0.1464
  885poe     o2 6293   3.735   2.110   3.805  0.3928  0.1467 -0.1567
  885poe    c23 6294   3.866   2.096   3.854  0.5181  0.2810 -0.4514
  885poe    c23 6295   3.893   2.054   3.999 -0.1405 -0.0590 -0.4226
  885poe     o2 6296   3.830   2.150   4.081  0.5114 -0.0917  0.1371
  885poe    c23 6297   3.853   2.137   4.219 -0.1540 -0.3334  0.2306
  885poe    c23 6298   3.823   2.280   4.269 -0.5054 -0.0705 -0.7027
  885poe     o2 6299   3.912   2.379   4.225 -0.0711 -0.2046 -0.1447
  885poe    c31 6300   3.855   2.508   4.228 -0.2297 -0.2884  0.5170
  886poe    c31 6301   0.169   2.541   0.431 -0.0546 -0.1786 -0.2173
  886poe     o2 6302   0.122   2.597   0.551  0.1471 -0.2806 -0.0912
  886poe    c23 6303   0.120   2.737   0.533 -0.3682 -0.2361  0.2726
  886poe    c23 6304   0.101   2.817   0.663  0.2411 -0.1443  0.3086
  886poe     o2 6305  -0.018   2.774   0.725 -0.1062 -0.0198 -0.2672
  886poe    c23 6306  -0.057   2.865   0.825 -0.0697  0.2647 -0.5112
  886poe    c23 6307  -0.202   2.825   0.860 -0.2298  0.3130 -1.0969
  886poe     o2 6308  -0.197   2.685   0.875  0.1389  0.4011 -0.3238
  886poe    c23 6309  -0.327   2.663   0.926  0.3738  0.2726  0.2321
  886poe    c23 6310  -0.359   2.514   0.952 -0.0030  0.3991  0.4979
  886poe     o2 6311  -0.296   2.479   1.073 -0.7628 -0.2443  0.7119
  886poe    c31 6312  -0.329   2.354   1.131 -0.2547 -0.3566  0.7624
  887poe    c31 6313   0.085   2.217   6.832  0.0914 -0.5866  0.1403
  887poe     o2 6314   0.003   2.180   6.723  0.1881 -0.1184 -0.0908
  887poe    c23 6315  -0.077   2.275   6.657  0.1832  0.1133  0.2434
  887poe    c23 6316  -0.181   2.205   6.567  0.0119 -0.0079  0.5379
  887poe     o2 6317  -0.210   2.077   6.620  0.0290 -0.2083  0.0612
  887poe    c23 6318  -0.296   2.007   6.533 -0.2128 -0.3005  0.3732
  887poe    c23 6319  -0.283   1.862   6.582 -0.1448 -0.2681  0.4502
  887poe     o2 6320  -0.157   1.805   6.611  0.3100  0.2941 -0.3998
  887poe    c23 6321  -0.072   1.769   6.504  0.1223 -0.2817 -0.3548
  887poe    c23 6322   0.065   1.785   6.572 -0.1421  0.3301  0.0468
  887poe     o2 6323   0.082   1.908   6.638 -0.4410  0.5511 -0.2893
  887poe    c31 6324   0.220   1.925   6.658 -0.4255 -0.0310  0.1173
  888poe    c31 6325   0.623   3.388   1.223 -0.0231 -0.1427  0.2666
  888poe     o2 6326   0.727   3.476   1.260 -0.5832  0.4210  0.5294
  888poe    c23 6327   0.849   3.406   1.277 -0.2960  0.7144 -0.2892
  888poe    c23 6328   0.948   3.524   1.273  0.3227  0.1867 -0.8223
  888poe     o2 6329   0.883   3.623   1.350  0.4583 -0.2314 -0.1648
  888poe    c23 6330   0.977   3.725   1.375  0.3115 -0.1344 -0.0073
  888poe    c23 6331   0.884   3.848   1.368  0.8393  0.2495 -0.4802
  888poe     o2 6332   0.773   3.826   1.284  0.4161  0.1775  0.0888
  888poe    c23 6333   0.660   3.910   1.277  0.2643 -0.0481 -0.1897
  888poe    c23 6334   0.582   3.857   1.156  0.8635 -0.0865 -0.5602
  888poe     o2 6335   0.555   3.722   1.188  0.0645  0.1397 -0.2558
  888poe    c31 6336   0.532   3.656   1.065 -0.0967 -0.2447 -0.0200
  889poe    c31 6337   6.176   1.371   3.484  0.4912 -0.4671 -0.2279
  889poe     o2 6338   6.310   1.329   3.475  0.7946  0.4757 -0.1488
  889poe    c23 6339   6.388   1.400   3.569  0.4315 -0.0061  0.5260
  889poe    c23 6340   6.534   1.397   3.522  0.1068  0.6354 -0.5539
  889poe     o2 6341   6.557   1.407   3.383  0.3828  0.5800 -0.5137
  889poe    c23 6342   6.691   1.438   3.354  0.7228  0.3904  0.7803
  889poe    c23 6343   6.697   1.548   3.246 -0.6595  0.1317  0.4189
  889poe     o2 6344   6.642   1.502   3.125 -0.4549 -0.1421  0.4286
  889poe    c23 6345   6.665   1.592   3.018  0.4272 -0.4464  0.3520
  889poe    c23 6346   6.602   1.542   2.887 -0.2306 -0.2691  0.5925
  889poe     o2 6347   6.503   1.452   2.930 -0.5995 -0.2679 -0.2369
  889poe    c31 6348   6.393   1.453   2.842 -0.1713  0.2139 -0.7694
  890poe    c31 6349   1.158   0.773   4.390  0.6121  0.0350  0.5072
  890poe     o2 6350   1.104   0.698   4.283  0.4455  0.4728  0.2789
  890poe    c23 6351   1.144   0.565   4.309  0.1086  0.2429 -0.3517
  890poe    c23 6352   1.065   0.469   4.219 -0.2474  0.1604  0.0434
  890poe     o2 6353   1.093   0.480   4.081 -0.3350 -0.4946 -0.0292
  890poe    c23 6354   1.041   0.367   4.016 -0.1938 -0.6807  0.1789
  890poe    c23 6355   1.103   0.362   3.875  0.0485  0.1187  0.2523
  890poe     o2 6356   1.047   0.483   3.829  0.5137  0.1730 -0.1804
  890poe    c23 6357   0.982   0.487   3.704  0.6928 -0.7102 -0.3038
  890poe    c23 6358   0.993   0.635   3.663  0.3603 -0.5168  0.3016
  890poe     o2 6359   0.971   0.720   3.773 -0.3813 -0.4778  0.1289
  890poe    c31 6360   0.946   0.852   3.730  0.3099 -0.3633  0.0624
  891poe    c31 6361   2.093   3.317   3.685 -0.3737 -0.4493 -0.4200
  891poe     o2 6362   2.086   3.181   3.723 -0.0563 -0.2550  0.3434
  891poe    c23 6363   2.197   3.107   3.677 -0.2168 -0.3503  0.1148
  891poe    c23 6364   2.217   2.963   3.728 -0.3668 -0.5112 -0.2692
  891poe     o2 6365   2.247   2.973   3.866  0.5403 -0.2797 -0.4805
  891poe    c23 6366   2.313   2.857   3.913  0.2102 -0.2991 -0.0583
  891poe    c23 6367   2.271   2.842   4.060 -0.0211  0.2738 -0.0637
  891poe     o2 6368   2.297   2.959   4.135  0.5374 -0.1002  0.3336
  891poe    c23 6369   2.264   2.949   4.272  0.1701  0.1814  0.2676
  891poe    c23 6370   2.343   3.070   4.325  0.4134  0.1595 -0.0427
  891poe     o2 6371   2.335   3.185   4.244 -0.4554  0.1527  0.0279
  891poe    c31 6372   2.367   3.299   4.321 -0.0281  0.0067  0.0713
  892poe    c31 6373   1.339   6.575   2.173 -0.2210 -0.5562  0.0101
  892poe     o2 6374   1.479   6.587   2.170 -0.1903 -0.7712  0.5634
  892poe    c23 6375   1.529   6.474   2.103 -0.1536 -0.5132  0.1534
  892poe    c23 6376   1.619   6.515   1.985  0.0292  0.0556  0.4863
  892poe     o2 6377   1.708   6.609   2.040  0.3779 -0.1481  0.2745
  892poe    c23 6378   1.729   6.717   1.952 -0.0212 -0.1637  0.1580
  892poe    c23 6379   1.621   6.827   1.960  0.1215 -0.0132  0.0298
  892poe     o2 6380   1.603   6.873   2.092  0.4529  0.1167  0.0305
  892poe    c23 6381   1.515   6.980   2.118 -0.4190 -0.4934 -0.3321
  892poe    c23 6382   1.507   6.961   2.271  0.1047  0.3022 -0.1953
  892poe     o2 6383   1.485   6.826   2.305  0.9074  0.1886 -0.0897
  892poe    c31 6384   1.457   6.820   2.443  0.3418  0.0890 -0.2047
  893poe    c31 6385   3.092   5.126   2.689 -0.2895 -0.1507  0.5224
  893poe     o2 6386   2.980   5.128   2.775 -0.9525 -0.4625 -0.3086
  893poe    c23 6387   3.036   5.170   2.897 -1.2453  0.1370 -0.3762
  893poe    c23 6388   2.932   5.225   2.996 -0.3659  0.3504  0.4568
  893poe     o2 6389   2.849   5.124   3.049  0.0412 -0.3402 -0.2111
  893poe    c23 6390   2.717   5.153   3.088  0.1342 -0.5527  0.2669
  893poe    c23 6391   2.640   5.022   3.114 -0.0662 -0.4805  0.0345
  893poe     o2 6392   2.617   4.946   2.998 -0.1793  0.0580 -0.3037
  893poe    c23 6393   2.524   4.842   3.022  0.0307 -0.0660 -0.0273
  893poe    c23 6394   2.472   4.795   2.885 -0.3949 -0.3653  0.2354
  893poe     o2 6395   2.578   4.763   2.798 -0.3652 -0.7275  0.4014
  893poe    c31 6396   2.539   4.710   2.673  0.2199 -0.1688 -0.0239
  894poe    c31 6397   6.149   6.045   6.923 -0.6236 -0.2825 -0.2192
  894poe     o2 6398   6.127   6.101   6.796 -0.0185  0.0104 -0.1966
  894poe    c23 6399   6.106   6.003   6.697  0.0254 -0.1741 -0.0231
  894poe    c23 6400   6.071   6.056   6.556 -0.3931 -0.3398  0.0186
  894poe     o2 6401   5.998   6.175   6.575 -0.1282 -0.1454 -0.1770
  894poe    c23 6402   5.975   6.264   6.468 -0.1247  0.1699  0.0826
  894poe    c23 6403   5.910   6.395   6.515 -0.0749  0.0548  0.4779
  894poe     o2 6404   5.985   6.494   6.581  0.2775 -0.4210  0.7981
  894poe    c23 6405   5.901   6.600   6.621 -0.1941 -0.3574 -0.3367
  894poe    c23 6406   5.960   6.702   6.719 -1.0922 -0.2746  0.1322
  894poe     o2 6407   5.999   6.657   6.847  0.6571  0.3633 -0.1465
  894poe    c31 6408   6.061   6.754   6.930 -0.4720  0.2249  0.8809
  895poe    c31 6409   0.452   6.707   0.127 -0.2568 -0.4507 -0.4787
  895poe     o2 6410   0.399   6.804   0.215 -0.5336 -0.5603 -0.5225
  895poe    c23 6411   0.270   6.778   0.266 -0.4414  0.0610  0.0404
  895poe    c23 6412   0.229   6.904   0.344  0.0373  0.1646  0.1281
  895poe     o2 6413   0.340   6.933   0.426  0.3951 -0.1013 -0.2576
  895poe    c23 6414   0.331   7.067   0.470  0.1957 -0.2305  0.0915
  895poe    c23 6415   0.438   7.107   0.573 -0.1329 -0.5075  0.5468
  895poe     o2 6416   0.560   7.130   0.505 -0.5514  0.6378  0.1639
  895poe    c23 6417   0.657   7.186   0.590  0.0686 -0.0230 -0.0982
  895poe    c23 6418   0.773   7.238   0.503 -0.0737 -0.1386 -0.3576
  895poe     o2 6419   0.755   7.353   0.424 -0.4629 -0.0598 -0.1542
  895poe    c31 6420   0.745   7.468   0.503 -0.9816  0.1104 -0.4583
  896poe    c31 6421   4.881   1.714   6.573 -0.1597 -0.2062  0.4684
  896poe     o2 6422   4.870   1.819   6.481  0.4184 -0.6195 -0.0844
  896poe    c23 6423   4.993   1.835   6.414  0.1773 -0.0688 -0.4105
  896poe    c23 6424   4.986   1.927   6.291 -0.2069  0.0729 -0.2834
  896poe     o2 6425   4.903   2.033   6.334  0.4520  0.5523 -0.1772
  896poe    c23 6426   4.857   2.103   6.220  0.2088  0.0099 -0.4135
  896poe    c23 6427   4.753   2.195   6.288  0.0645 -0.7402  0.3927
  896poe     o2 6428   4.679   2.128   6.388  0.1159 -0.7578  0.4192
  896poe    c23 6429   4.624   2.224   6.475  0.3470 -0.1391 -0.1125
  896poe    c23 6430   4.587   2.128   6.589  0.1366 -0.4061 -0.4033
  896poe     o2 6431   4.701   2.050   6.615  0.4373  0.2234  0.2228
  896poe    c31 6432   4.666   1.978   6.731  0.2927 -0.1956 -0.0764
  897poe    c31 6433   3.874   6.686   1.182  0.1307 -1.0189 -0.9557
  897poe     o2 6434   3.779   6.616   1.258 -0.3901  0.4041 -0.2587
  897poe    c23 6435   3.778   6.638   1.397 -0.4380 -0.4766 -0.1100
  897poe    c23 6436   3.882   6.562   1.482 -0.4693 -0.2318  0.1507
  897poe     o2 6437   3.849   6.427   1.509 -0.0585 -0.1934  0.8487
  897poe    c23 6438   3.962   6.347   1.536  0.2655 -0.0058  0.0490
  897poe    c23 6439   3.929   6.211   1.599 -0.1004  0.2239  0.3608
  897poe     o2 6440   3.878   6.206   1.730 -0.0598 -0.2602  0.3615
  897poe    c23 6441   3.966   6.245   1.833 -0.0198  0.0779  0.2022
  897poe    c23 6442   3.879   6.269   1.957 -0.0183  0.0115  0.2162
  897poe     o2 6443   3.756   6.330   1.923  0.0661  0.0912  0.0522
  897poe    c31 6444   3.686   6.360   2.042  0.2738 -0.2142  0.2552
  898poe    c31 6445   1.228   5.735   2.727  0.3683  0.6151  0.2374
  898poe     o2 6446   1.151   5.847   2.764 -0.2247  0.2526  0.1021
  898poe    c23 6447   1.220   5.881   2.882  0.4274  0.2338 -0.2705
  898poe    c23 6448   1.139   5.960   2.988  0.0776 -0.1134 -0.2763
  898poe     o2 6449   1.090   6.083   2.939 -0.3969 -0.0740  0.3015
  898poe    c23 6450   1.082   6.185   3.036 -0.2878  0.1847  0.0354
  898poe    c23 6451   0.959   6.275   3.013 -0.3613  0.0615 -0.0582
  898poe     o2 6452   0.973   6.352   2.896  0.0041 -0.2198 -0.2014
  898poe    c23 6453   0.864   6.438   2.872  0.3596  0.1541 -0.4996
  898poe    c23 6454   0.844   6.457   2.721 -0.1338  0.0544 -0.4510
  898poe     o2 6455   0.964   6.468   2.647  0.0373 -0.2912 -0.2287
  898poe    c31 6456   0.921   6.527   2.526 -0.4283  0.3320  0.2347
  899poe    c31 6457   4.091   2.969   1.349 -0.4401  0.2370  0.0962
  899poe     o2 6458   4.020   3.069   1.279 -0.0587  0.5050  0.0912
  899poe    c23 6459   3.890   3.031   1.241  0.0292  0.4200 -0.1212
  899poe    c23 6460   3.818   3.140   1.160  0.2818  0.5063 -0.2315
  899poe     o2 6461   3.833   3.263   1.228  0.4732  0.6521 -0.5355
  899poe    c23 6462   3.743   3.362   1.183 -0.3359  0.2882  0.2392
  899poe    c23 6463   3.756   3.476   1.285 -0.2689  0.5762 -0.0892
  899poe     o2 6464   3.895   3.491   1.307 -0.3506  0.1201  0.7734
  899poe    c23 6465   3.927   3.627   1.295  0.0358 -0.0798 -0.5828
  899poe    c23 6466   4.080   3.638   1.308  0.0148 -0.4338 -0.0386
  899poe     o2 6467   4.136   3.596   1.431 -0.1530  0.4882  0.3612
  899poe    c31 6468   4.271   3.636   1.443  0.0383 -0.2430  0.6798
  900poe    c31 6469   2.747   0.840   4.751 -0.2943 -0.5742  0.7838
  900poe     o2 6470   2.785   0.936   4.846 -0.1063 -0.2126  0.3470
  900poe    c23 6471   2.754   0.886   4.974 -0.4678  0.2587  0.4448
  900poe    c23 6472   2.744   0.998   5.080  0.2489  0.1814  0.5990
  900poe     o2 6473   2.661   1.103   5.037 -0.0504 -0.1084  0.4658
  900poe    c23 6474   2.689   1.236   5.076 -0.1693  0.0596 -0.0200
  900poe    c23 6475   2.665   1.332   4.958  0.5831  0.6955  0.3427
  900poe     o2 6476   2.751   1.284   4.857 -0.3663  0.4437 -0.3523
  900poe    c23 6477   2.716   1.365   4.746 -0.7316  0.1733 -0.4372
  900poe    c23 6478   2.800   1.315   4.626 -0.3147  0.4046 -0.2442
  900poe     o2 6479   2.795   1.175   4.635  0.7172  0.3919  0.3077
  900poe    c31 6480   2.843   1.110   4.520  1.2184 -0.0610  0.7680
  901poe    c31 6481   0.586   5.848   5.842  0.3382 -0.4491 -0.2773
  901poe     o2 6482   0.699   5.793   5.906  0.2188  0.1060  0.4255
  901poe    c23 6483   0.690   5.653   5.888  0.3313  0.1487  0.0273
  901poe    c23 6484   0.804   5.588   5.968  0.0706 -0.5758 -0.1873
  901poe     o2 6485   0.805   5.657   6.091 -0.0878 -0.6045 -0.1698
  901poe    c23 6486   0.922   5.625   6.163  0.2522  0.3843 -0.2756
  901poe    c23 6487   0.919   5.677   6.308 -0.4702  0.3727 -0.2856
  901poe     o2 6488   0.909   5.817   6.300 -0.0635  0.4153 -0.0457
  901poe    c23 6489   0.913   5.872   6.430 -0.0501  0.1202  0.0792
  901poe    c23 6490   0.943   6.022   6.411 -0.2104  0.2546  0.8512
  901poe     o2 6491   0.842   6.093   6.343  0.0314 -0.0921  0.1151
  901poe    c31 6492   0.863   6.232   6.355  0.7282 -0.2749  1.1034
  902poe    c31 6493   0.040   1.550   4.609 -0.5580  0.2931 -0.1495
  902poe     o2 6494  -0.088   1.590   4.566 -0.5411 -0.0386 -0.5156
  902poe    c23 6495  -0.091   1.725   4.525 -0.4152  0.2248  0.3254
  902poe    c23 6496  -0.231   1.780   4.495 -0.6147 -0.3566  0.1860
  902poe     o2 6497  -0.292   1.667   4.436  0.7287 -0.7487 -0.4953
  902poe    c23 6498  -0.431   1.675   4.411  0.5007 -0.7892  0.7135
  902poe    c23 6499  -0.490   1.545   4.354 -0.3175 -0.0387 -0.1819
  902poe     o2 6500  -0.445   1.425   4.412 -0.2373  0.1746  0.2047
  902poe    c23 6501  -0.525   1.313   4.380  0.4391 -0.2505 -0.0339
  902poe    c23 6502  -0.498   1.223   4.502 -0.0186  0.2152  0.4160
  902poe     o2 6503  -0.362   1.185   4.499 -0.1247 -0.1315  0.0197
  902poe    c31 6504  -0.335   1.063   4.565 -0.7066 -0.3358 -0.1063
  903poe    c31 6505   6.747   3.879   1.714 -0.2171 -0.0259  0.3245
  903poe     o2 6506   6.692   3.752   1.687 -0.1058  0.0421 -0.2363
  903poe    c23 6507   6.569   3.776   1.621 -0.0902  0.3884 -0.1431
  903poe    c23 6508   6.499   3.642   1.590  0.4703  0.1052 -0.1915
  903poe     o2 6509   6.530   3.557   1.698 -0.0283 -0.0045 -0.1355
  903poe    c23 6510   6.467   3.433   1.675 -0.2625  0.1849 -0.5228
  903poe    c23 6511   6.499   3.340   1.793 -0.0580  0.0824 -0.6575
  903poe     o2 6512   6.639   3.348   1.804 -0.0414 -0.3542 -0.5410
  903poe    c23 6513   6.700   3.258   1.894  0.0472 -0.0182 -0.2625
  903poe    c23 6514   6.854   3.253   1.905  0.0640  0.5544 -0.1756
  903poe     o2 6515   6.925   3.369   1.941  0.0806  0.3926  0.3107
  903poe    c31 6516   7.003   3.339   2.055  0.4494  0.1357 -0.0070
  904poe    c31 6517   4.096   2.974   6.384 -0.0227  0.4894  0.6319
  904poe     o2 6518   4.189   2.953   6.280 -0.2260 -0.0894  0.5625
  904poe    c23 6519   4.129   2.880   6.176  0.0260  0.2680  0.1625
  904poe    c23 6520   4.235   2.877   6.064 -0.0020 -0.0523  0.1448
  904poe     o2 6521   4.359   2.847   6.123 -0.1611 -0.2435  0.3838
  904poe    c23 6522   4.456   2.799   6.033 -0.3383 -0.7240  0.4472
  904poe    c23 6523   4.581   2.753   6.111  0.2360 -0.0267 -0.0462
  904poe     o2 6524   4.599   2.864   6.196  0.3646  0.2254 -0.4025
  904poe    c23 6525   4.726   2.919   6.225  0.1603  0.3057  0.3562
  904poe    c23 6526   4.714   2.971   6.370  0.6806  0.5481  0.3127
  904poe     o2 6527   4.649   3.095   6.374  0.4128  0.4232 -0.0577
  904poe    c31 6528   4.702   3.165   6.485 -0.1773 -0.0853  0.5569
  905poe    c31 6529   0.917   5.976   4.922  0.1582  0.7972  0.5290
  905poe     o2 6530   1.044   5.971   4.860 -0.0780  0.4583  0.0658
  905poe    c23 6531   1.137   5.902   4.941 -0.4313  0.0878  0.1591
  905poe    c23 6532   1.254   5.876   4.845 -0.1242  1.0226  0.2776
  905poe     o2 6533   1.257   5.963   4.734  0.3350  0.5629 -0.0700
  905poe    c23 6534   1.343   5.916   4.632  0.2096  0.3527 -0.0799
  905poe    c23 6535   1.322   5.999   4.504  0.0662  0.2956 -0.0937
  905poe     o2 6536   1.188   5.995   4.460  0.1000 -0.2631 -0.1563
  905poe    c23 6537   1.168   6.085   4.353 -0.3760 -0.3258 -0.1230
  905poe    c23 6538   1.035   6.086   4.276 -0.1395  0.1915 -0.5289
  905poe     o2 6539   0.942   6.142   4.366  0.3656 -0.1918  0.2508
  905poe    c31 6540   0.833   6.187   4.288  0.4874  0.7322  0.6002
  906poe    c31 6541   5.490   6.029   2.889  0.4407  0.0716  0.2366
  906poe     o2 6542   5.481   6.169   2.879  0.0849 -0.0263 -0.9515
  906poe    c23 6543   5.349   6.194   2.836 -0.1906 -0.0131 -0.1091
  906poe    c23 6544   5.333   6.341   2.880  0.4367 -0.2196  0.8503
  906poe     o2 6545   5.448   6.419   2.859 -0.0935  0.4179  0.2489
  906poe    c23 6546   5.424   6.558   2.846 -0.4701  0.3074 -0.2647
  906poe    c23 6547   5.546   6.636   2.897 -0.1998  0.2683 -0.8487
  906poe     o2 6548   5.665   6.563   2.873 -0.0179  0.2725  0.0101
  906poe    c23 6549   5.776   6.633   2.922  0.4225 -0.4387  0.0457
  906poe    c23 6550   5.881   6.693   2.826  0.4531 -0.0732  0.3020
  906poe     o2 6551   5.946   6.586   2.760  0.1155 -0.2977  0.3308
  906poe    c31 6552   6.053   6.635   2.682 -0.3410 -0.1279 -0.1996
  907poe    c31 6553   1.626   5.378   1.452 -0.4574 -0.5818 -0.4864
  907poe     o2 6554   1.623   5.430   1.321 -0.6298  0.0951 -0.2150
  907poe    c23 6555   1.742   5.495   1.284 -0.3793  0.5394  1.2919
  907poe    c23 6556   1.708   5.618   1.197  0.1229 -0.0204  0.2764
  907poe     o2 6557   1.639   5.587   1.079 -0.7999  0.6700  0.6266
  907poe    c23 6558   1.601   5.698   1.000 -0.0928  0.2103 -0.3791
  907poe    c23 6559   1.512   5.654   0.882 -0.3850  0.2038 -0.1579
  907poe     o2 6560   1.424   5.565   0.947 -0.1527  0.5314  0.6060
  907poe    c23 6561   1.347   5.500   0.849 -0.3898  0.5715  0.7659
  907poe    c23 6562   1.248   5.402   0.916 -0.4738  0.3534  0.3272
  907poe     o2 6563   1.321   5.328   1.011 -0.2451 -0.1807 -0.2609
  907poe    c31 6564   1.245   5.236   1.085 -0.2247  0.3058  0.3751
  908poe    c31 6565   4.212   2.802   3.971 -0.6463  0.0133 -0.4817
  908poe     o2 6566   4.284   2.682   3.984 -0.2126  0.2520 -0.6535
  908poe    c23 6567   4.244   2.609   4.098  0.2286  0.3387 -0.4406
  908poe    c23 6568   4.206   2.464   4.063 -0.0627  0.1653  0.5534
  908poe     o2 6569   4.310   2.371   4.045 -0.2043  0.1191 -0.0340
  908poe    c23 6570   4.268   2.248   3.990 -0.4752  0.2877 -0.2060
  908poe    c23 6571   4.394   2.160   3.991 -0.5223  0.2228  0.1118
  908poe     o2 6572   4.494   2.250   3.949 -0.2564  0.0274  0.3202
  908poe    c23 6573   4.615   2.179   3.960 -0.1265  0.1513 -0.3007
  908poe    c23 6574   4.702   2.254   3.857 -0.4154  0.2152 -0.5014
  908poe     o2 6575   4.709   2.391   3.890 -0.0961  0.0537  0.1184
  908poe    c31 6576   4.773   2.464   3.788  0.1565  0.0563  0.2794
  909poe    c31 6577   3.355   1.770   5.871 -0.0914  0.4374  0.3342
  909poe     o2 6578   3.225   1.716   5.871  0.1192 -0.0841 -0.1680
  909poe    c23 6579   3.208   1.665   5.741 -0.5416  0.1352 -0.1725
  909poe    c23 6580   3.069   1.598   5.744 -0.2889 -0.3736  0.4906
  909poe     o2 6581   2.984   1.690   5.809  0.0696  0.1127  0.2764
  909poe    c23 6582   2.861   1.624   5.828  0.0884  0.1170  0.4123
  909poe    c23 6583   2.771   1.728   5.898 -0.0290 -0.1143  0.6081
  909poe     o2 6584   2.827   1.739   6.026  0.3260  0.7185  0.3881
  909poe    c23 6585   2.741   1.828   6.094 -0.6230 -0.0526  0.2108
  909poe    c23 6586   2.752   1.781   6.241 -0.0587 -0.5887 -0.0010
  909poe     o2 6587   2.884   1.792   6.290  0.1590 -0.5551 -0.5772
  909poe    c31 6588   2.871   1.821   6.427 -1.4812 -0.4133 -0.7484
  910poe    c31 6589   3.502   5.247   0.716 -0.4599  0.4977  0.0250
  910poe     o2 6590   3.596   5.260   0.821 -0.0535 -0.3936 -0.2213
  910poe    c23 6591   3.554   5.353   0.918  0.6746  0.0067 -0.2807
  910poe    c23 6592   3.632   5.318   1.046  0.1584  0.0403  0.0470
  910poe     o2 6593   3.769   5.298   1.019  0.2516  0.4886  0.1754
  910poe    c23 6594   3.835   5.270   1.141  0.1432 -0.7269 -0.0262
  910poe    c23 6595   3.977   5.327   1.157 -0.1874  0.2635 -0.4860
  910poe     o2 6596   4.053   5.274   1.051  0.2580  0.1812 -0.1301
  910poe    c23 6597   4.185   5.323   1.056  0.2737  0.1197  0.0723
  910poe    c23 6598   4.235   5.355   0.914 -0.0745  0.0915 -0.0589
  910poe     o2 6599   4.226   5.258   0.813 -0.1845  0.2675 -0.2182
  910poe    c31 6600   4.277   5.298   0.687  1.1373  0.3990  0.3435
  911poe    c31 6601   2.068   0.695   5.032 -0.3066  0.6982  0.4430
  911poe     o2 6602   1.931   0.677   5.060 -0.2541  0.2115  0.3968
  911poe    c23 6603   1.892   0.610   5.178  0.1201 -0.5754  0.0833
  911poe    c23 6604   1.739   0.594   5.195  0.0707 -0.0837  0.1158
  911poe     o2 6605   1.683   0.701   5.123  0.1114  0.3452  0.7167
  911poe    c23 6606   1.551   0.736   5.156 -0.2245  0.0486 -0.2788
  911poe    c23 6607   1.526   0.865   5.077  0.5508  0.4428  0.1082
  911poe     o2 6608   1.571   0.843   4.945  0.0741 -0.0457  0.0245
  911poe    c23 6609   1.472   0.808   4.851 -0.1287 -0.0852  0.2514
  911poe    c23 6610   1.485   0.895   4.724  0.1056  0.0703  0.3802
  911poe     o2 6611   1.608   0.859   4.666 -0.1508 -0.3782  0.0980
  911poe    c31 6612   1.624   0.938   4.550  0.7764 -0.3461  0.2393
  912poe    c31 6613   2.072   4.497   6.730  0.1374 -0.0126  0.4526
  912poe     o2 6614   2.062   4.573   6.612  0.0942  0.3348  0.6783
  912poe    c23 6615   2.029   4.699   6.665 -0.5376  0.2750  0.4400
  912poe    c23 6616   1.998   4.807   6.560 -0.2613  0.1291  0.2058
  912poe     o2 6617   1.940   4.751   6.444  0.8920 -0.1746 -0.2370
  912poe    c23 6618   1.910   4.835   6.335 -0.5366  0.5411  0.6680
  912poe    c23 6619   1.854   4.754   6.216  0.0607  0.1510  0.6508
  912poe     o2 6620   1.899   4.620   6.222 -0.3243 -0.0012  0.1795
  912poe    c23 6621   2.024   4.604   6.159 -0.3665 -0.3157  0.1729
  912poe    c23 6622   2.119   4.493   6.208  0.1042  0.0351  0.0658
  912poe     o2 6623   2.121   4.502   6.348 -0.3261 -0.1748  0.0847
  912poe    c31 6624   2.226   4.412   6.377 -0.3030 -0.1464  0.0875
  913poe    c31 6625   3.326   2.361   1.615 -0.4772 -0.5961  0.1480
  913poe     o2 6626   3.350   2.339   1.753  0.1673  0.3711  0.2004
  913poe    c23 6627   3.298   2.213   1.789  1.4531 -0.0826  0.4843
  913poe    c23 6628   3.236   2.182   1.926 -0.1362  0.1657 -0.1662
  913poe     o2 6629   3.110   2.235   1.960  0.3211  0.8952  0.4184
  913poe    c23 6630   3.051   2.149   2.054 -0.6934  0.6205 -0.4347
  913poe    c23 6631   2.910   2.207   2.075 -0.7558  0.1597  0.5161
  913poe     o2 6632   2.934   2.345   2.092  0.6955  0.0063 -0.0937
  913poe    c23 6633   2.830   2.425   2.142  0.5627 -0.1626 -0.0955
  913poe    c23 6634   2.856   2.570   2.096 -0.1169 -0.1057 -0.3039
  913poe     o2 6635   2.941   2.571   1.983  0.0493  0.0280 -0.1771
  913poe    c31 6636   2.931   2.695   1.917 -0.0414  0.2736  0.2957
  914poe    c31 6637   1.888   2.095   0.102 -0.4099  0.7280 -0.3867
  914poe     o2 6638   1.963   2.032   0.000 -0.1948 -0.5383  0.5365
  914poe    c23 6639   1.918   1.898  -0.003 -0.8107 -0.3310  0.4231
  914poe    c23 6640   1.932   1.828  -0.140  0.1339  0.3180  0.1783
  914poe     o2 6641   1.847   1.888  -0.234 -0.3644 -0.4506  0.1317
  914poe    c23 6642   1.814   1.803  -0.341 -0.6121 -0.1313 -0.0482
  914poe    c23 6643   1.732   1.887  -0.441 -0.1921  0.3298 -0.0123
  914poe     o2 6644   1.807   1.994  -0.494 -0.0018  0.0635 -0.2878
  914poe    c23 6645   1.754   2.058  -0.608  0.0529  0.2489 -0.2098
  914poe    c23 6646   1.861   2.162  -0.648  0.5945 -0.0680  0.4048
  914poe     o2 6647   1.887   2.222  -0.523 -0.3933  0.2977  0.4415
  914poe    c31 6648   1.954   2.344  -0.547  0.0150 -0.1372 -0.6877
  915poe    c31 6649   1.637   6.751   1.535 -0.1033 -0.3087 -0.5967
  915poe     o2 6650   1.614   6.881   1.484  0.0493  0.1871  0.5663
  915poe    c23 6651   1.660   6.975   1.578 -0.8850  0.5859  0.6377
  915poe    c23 6652   1.627   7.118   1.533 -0.4423  0.5458  0.1715
  915poe     o2 6653   1.625   7.126   1.392 -0.1918  0.1732  0.1466
  915poe    c23 6654   1.549   7.241   1.366  0.1375  0.3226 -0.1641
  915poe    c23 6655   1.473   7.200   1.238 -0.1838  0.0827  0.1023
  915poe     o2 6656   1.416   7.078   1.279 -0.4522  0.0652 -0.3233
  915poe    c23 6657   1.317   7.033   1.189 -0.0385 -0.3930 -0.5573
  915poe    c23 6658   1.283   6.894   1.246  0.6335 -0.2427  0.2185
  915poe     o2 6659   1.403   6.836   1.293  0.9952 -0.0755 -0.4732
  915poe    c31 6660   1.379   6.701   1.324  0.7774  0.0256 -0.1942
  916poe    c31 6661   6.691   0.591   3.442 -0.3877  1.0073 -0.2773
  916poe     o2 6662   6.596   0.487   3.436  0.3785  0.3014 -0.4087
  916poe    c23 6663   6.474   0.541   3.485  0.3233 -0.1144 -0.0813
  916poe    c23 6664   6.363   0.564   3.381  0.2863  0.0024 -0.0150
  916poe     o2 6665   6.240   0.502   3.410  0.2195  0.0795 -0.1286
  916poe    c23 6666   6.137   0.516   3.315  0.2439  0.3774 -0.1120
  916poe    c23 6667   5.994   0.502   3.370  0.1095  0.4432 -0.4409
  916poe     o2 6668   5.969   0.587   3.480  0.3263  0.0314 -0.0685
  916poe    c23 6669   5.967   0.517   3.602 -0.2696  0.1024 -0.0333
  916poe    c23 6670   6.057   0.587   3.706 -0.1012 -0.5612  0.2720
  916poe     o2 6671   6.022   0.723   3.706  0.0073 -0.5342  0.1046
  916poe    c31 6672   6.121   0.785   3.785 -0.0564  0.3894 -0.5149
  917poe    c31 6673   4.611   0.442   1.882 -0.0892  0.1393 -0.0170
  917poe     o2 6674   4.575   0.319   1.940  0.1545  0.0036 -0.1568
  917poe    c23 6675   4.454   0.274   1.884  0.1655  0.4623 -0.5538
  917poe    c23 6676   4.443   0.128   1.931  0.1840  0.5853 -0.1656
  917poe     o2 6677   4.512   0.113   2.053  0.1031 -0.5565 -0.2469
  917poe    c23 6678   4.511  -0.020   2.100  0.2934 -0.5433 -0.2017
  917poe    c23 6679   4.537  -0.016   2.252  0.2657  0.1383 -0.2107
  917poe     o2 6680   4.655   0.057   2.280  0.3517 -0.1245  0.1158
  917poe    c23 6681   4.689   0.073   2.416 -0.2427  0.2003  0.2334
  917poe    c23 6682   4.804   0.171   2.444  0.2457 -0.1709 -0.4208
  917poe     o2 6683   4.761   0.305   2.441  0.5566 -0.0554  0.0946
  917poe    c31 6684   4.858   0.381   2.511  0.1595  0.6503 -0.1085
  918poe    c31 6685   4.666   3.526   1.160 -0.4913 -0.5931  0.3051
  918poe     o2 6686   4.744   3.581   1.056 -0.4493 -0.3045  0.4879
  918poe    c23 6687   4.864   3.619   1.120 -0.1548 -0.2650 -0.0734
  918poe    c23 6688   4.982   3.631   1.022  0.0500  0.1224  0.2198
  918poe     o2 6689   5.003   3.523   0.934  0.0223 -0.0444  0.4175
  918poe    c23 6690   5.133   3.533   0.881 -0.1700 -0.2781 -0.1027
  918poe    c23 6691   5.179   3.389   0.851  0.0335 -0.1269 -0.5146
  918poe     o2 6692   5.132   3.312   0.742  0.1912 -0.2029 -0.5291
  918poe    c23 6693   5.130   3.175   0.773 -0.3877 -0.1384 -0.2753
  918poe    c23 6694   5.160   3.108   0.638 -0.7767 -1.0657  0.0836
  918poe     o2 6695   5.079   3.169   0.540 -0.1906 -0.5086 -0.0667
  918poe    c31 6696   5.082   3.087   0.425  0.5473 -0.5173 -0.0416
  919poe    c31 6697   2.162   5.367   6.196 -0.5836 -0.1932  0.7796
  919poe     o2 6698   2.242   5.362   6.311  0.4006 -0.2960  0.1005
  919poe    c23 6699   2.335   5.256   6.297  0.6381 -0.0239 -0.4047
  919poe    c23 6700   2.408   5.263   6.433 -0.4407  0.3646  0.1717
  919poe     o2 6701   2.411   5.397   6.478 -0.8832  0.1108  0.9657
  919poe    c23 6702   2.464   5.403   6.608  0.2002  0.2616  0.5266
  919poe    c23 6703   2.459   5.548   6.658 -0.4735  0.4521 -0.0750
  919poe     o2 6704   2.523   5.638   6.570 -0.5777  0.2805 -0.3262
  919poe    c23 6705   2.499   5.769   6.617 -0.3887 -0.0502  0.7077
  919poe    c23 6706   2.557   5.889   6.540  0.1220 -0.7083  0.0644
  919poe     o2 6707   2.531   6.020   6.584  0.3483 -0.3821 -0.7541
  919poe    c31 6708   2.529   6.117   6.482 -0.1547 -0.3820 -0.7448
  920poe    c31 6709   1.669   0.515   0.570  0.3256  0.5755  0.0370
  920poe     o2 6710   1.530   0.538   0.582  0.2078  0.3457 -0.8268
  920poe    c23 6711   1.472   0.426   0.521  0.2226 -0.3478  0.3986
  920poe    c23 6712   1.340   0.469   0.454  0.4509 -0.3086 -0.0308
  920poe     o2 6713   1.286   0.562   0.545  0.2658  0.0661 -0.5217
  920poe    c23 6714   1.169   0.630   0.505 -0.3480 -0.6085  0.0980
  920poe    c23 6715   1.136   0.691   0.642 -0.3749  0.6278 -0.4488
  920poe     o2 6716   1.255   0.753   0.688 -0.0028 -0.4092  0.0184
  920poe    c23 6717   1.234   0.803   0.818 -0.0085 -1.0436  0.2655
  920poe    c23 6718   1.318   0.696   0.890  0.2185 -0.3055  1.1149
  920poe     o2 6719   1.444   0.674   0.832 -0.3563  0.2792 -0.3875
  920poe    c31 6720   1.524   0.597   0.918 -0.8354 -0.4585 -0.5959
  921poe    c31 6721   0.512   6.620   6.249 -0.7052  0.0398 -0.1375
  921poe     o2 6722   0.612   6.714   6.281 -0.3329 -0.2888 -0.3260
  921poe    c23 6723   0.717   6.658   6.356 -0.5895  0.0708  0.3104
  921poe    c23 6724   0.820   6.767   6.391 -0.0147  0.0173 -1.1228
  921poe     o2 6725   0.823   6.872   6.297  0.6341  0.3912 -0.6955
  921poe    c23 6726   0.934   6.959   6.301  0.4692  0.5630  0.6485
  921poe    c23 6727   0.902   7.067   6.196 -0.8051 -0.4930 -0.0831
  921poe     o2 6728   0.832   7.006   6.090  0.2788 -0.4043 -0.8734
  921poe    c23 6729   0.777   7.095   5.996  0.2929  0.1352 -0.3772
  921poe    c23 6730   0.676   7.013   5.914  0.4311 -0.2712 -0.1398
  921poe     o2 6731   0.614   6.924   6.004  0.6395 -0.2928 -0.0156
  921poe    c31 6732   0.517   6.846   5.937  0.2652  0.1104  0.0559
  922poe    c31 6733   5.189   1.408   3.998 -0.1368  0.3331  0.2879
  922poe     o2 6734   5.165   1.466   3.872  0.3275 -0.2633 -0.0759
  922poe    c23 6735   5.278   1.547   3.848  0.0900  0.2730  0.5854
  922poe    c23 6736   5.274   1.617   3.710 -0.0399 -0.0166  0.4419
  922poe     o2 6737   5.248   1.532   3.600  0.7328 -0.1210  0.3308
  922poe    c23 6738   5.190   1.612   3.499 -0.0096 -0.4814  0.4667
  922poe    c23 6739   5.149   1.503   3.398 -0.1311  0.1026 -0.1149
  922poe     o2 6740   5.248   1.404   3.383 -0.1873 -0.0169  0.2981
  922poe    c23 6741   5.226   1.321   3.271  0.4743  0.6252 -0.3262
  922poe    c23 6742   5.358   1.245   3.254  0.0060 -0.1662 -0.4779
  922poe     o2 6743   5.411   1.220   3.382 -0.0566  0.4346 -0.3333
  922poe    c31 6744   5.513   1.123   3.381 -0.1596  0.3299 -0.6934
  923poe    c31 6745   3.941   2.873   2.128  0.1023 -0.0323 -0.1851
  923poe     o2 6746   4.027   2.943   2.215 -0.0747  0.0545 -0.0788
  923poe    c23 6747   3.961   2.961   2.339  0.2902  0.0982  0.1102
  923poe    c23 6748   4.073   3.022   2.425  0.2867  0.1402  0.0846
  923poe     o2 6749   4.134   3.126   2.353 -0.6938  0.5092 -0.2180
  923poe    c23 6750   4.236   3.198   2.417  0.0152 -0.6188 -0.0613
  923poe    c23 6751   4.280   3.312   2.323 -0.4462 -0.2401  0.1806
  923poe     o2 6752   4.292   3.248   2.198  0.5158  0.1466  0.0679
  923poe    c23 6753   4.352   3.333   2.103  0.3225 -0.0738 -0.2521
  923poe    c23 6754   4.333   3.295   1.955 -0.0967  0.6268 -0.3800
  923poe     o2 6755   4.201   3.300   1.905 -0.3223  0.1141  0.1546
  923poe    c31 6756   4.216   3.280   1.766  0.4279  0.8398  0.1245
  924poe    c31 6757   3.152   5.093   1.043 -0.0318  0.5176  0.4145
  924poe     o2 6758   3.053   4.999   1.005  0.1442  0.4704  0.0774
  924poe    c23 6759   3.111   4.872   1.025 -0.3112  0.2241 -0.1665
  924poe    c23 6760   2.991   4.776   1.042 -0.0634 -0.0063  0.2873
  924poe     o2 6761   2.894   4.817   0.949  0.1627  0.5144  0.2737
  924poe    c23 6762   2.781   4.732   0.951  0.5922 -0.0915 -0.6776
  924poe    c23 6763   2.696   4.817   0.855  0.3309  0.2235 -0.1707
  924poe     o2 6764   2.742   4.873   0.734  0.1216 -0.6422 -0.6637
  924poe    c23 6765   2.662   4.983   0.695  0.1147 -0.2532  0.4060
  924poe    c23 6766   2.749   5.110   0.693  0.0299 -0.2036 -0.5784
  924poe     o2 6767   2.834   5.120   0.805 -0.3452  0.5526 -0.3615
  924poe    c31 6768   2.872   5.252   0.839  0.4657  0.2241  0.0366
  925poe    c31 6769   2.523   6.307   0.538 -0.2937  0.1960 -0.0467
  925poe     o2 6770   2.453   6.186   0.557  0.1117 -0.0339  0.0007
  925poe    c23 6771   2.344   6.212   0.643  0.6594  0.3136  0.5971
  925poe    c23 6772   2.266   6.083   0.674  0.9776 -0.2638 -0.9130
  925poe     o2 6773   2.170   6.074   0.571 -0.0867 -0.0441  0.0233
  925poe    c23 6774   2.103   5.951   0.585  0.1667 -0.1945 -0.0786
  925poe    c23 6775   2.018   5.910   0.463  0.4864  0.1021 -0.4036
  925poe     o2 6776   2.109   5.886   0.358  0.8343 -0.5900  0.0493
  925poe    c23 6777   2.039   5.844   0.243  0.4363  0.3632 -0.0599
  925poe    c23 6778   2.137   5.855   0.125  0.4915 -0.6955 -0.1180
  925poe     o2 6779   2.238   5.950   0.148  0.1342 -0.3539  0.0504
  925poe    c31 6780   2.328   5.947   0.040 -0.0506 -0.3804 -0.1041
  926poe    c31 6781   6.091   1.750   2.505  0.0584 -0.5758  0.2917
  926poe     o2 6782   6.101   1.850   2.605  0.2858 -0.6198  0.3123
  926poe    c23 6783   6.129   1.798   2.733  0.3437 -0.2549  0.4494
  926poe    c23 6784   6.010   1.759   2.823  0.4492  0.1815  0.7782
  926poe     o2 6785   5.922   1.862   2.861 -0.2109 -0.2127  0.3377
  926poe    c23 6786   5.823   1.908   2.772  0.5473  0.6315 -0.0939
  926poe    c23 6787   5.733   2.022   2.823  0.8299  0.5769  0.5278
  926poe     o2 6788   5.677   1.959   2.937  0.0728  0.3774  0.0513
  926poe    c23 6789   5.582   2.048   2.990  0.2463  0.1587  0.7324
  926poe    c23 6790   5.501   1.972   3.097 -0.2059  0.3834  0.5528
  926poe     o2 6791   5.593   1.895   3.171 -0.6731 -0.6091  0.1280
  926poe    c31 6792   5.538   1.838   3.288 -0.4645  0.0831  0.5709
  927poe    c31 6793   5.518   0.925   6.450  0.0598  0.0144  0.3653
  927poe     o2 6794   5.428   1.016   6.509 -0.4646 -0.1882 -0.1137
  927poe    c23 6795   5.454   1.029   6.647  0.7108 -0.2347 -0.3241
  927poe    c23 6796   5.388   1.158   6.696 -0.0072 -0.7963  0.2057
  927poe     o2 6797   5.254   1.173   6.654 -0.0553 -0.3714  0.4963
  927poe    c23 6798   5.202   1.286   6.720  0.6914  0.1942  0.1261
  927poe    c23 6799   5.058   1.327   6.684  0.5263 -0.5615 -0.0809
  927poe     o2 6800   5.040   1.324   6.544  0.1616  0.4042 -0.0621
  927poe    c23 6801   4.908   1.292   6.507  0.3258  0.0739 -0.3664
  927poe    c23 6802   4.910   1.292   6.353  0.0513 -0.4899 -0.3730
  927poe     o2 6803   5.035   1.237   6.317  0.2157 -0.2610 -0.1549
  927poe    c31 6804   5.042   1.255   6.177  0.0843 -0.0839 -0.1391
  928poe    c31 6805   6.559   4.496   1.876 -0.5807  0.4478  0.0936
  928poe     o2 6806   6.622   4.395   1.952 -0.6438  0.1116 -0.2976
  928poe    c23 6807   6.641   4.270   1.889  0.2247  0.1065 -0.0357
  928poe    c23 6808   6.779   4.206   1.917  0.1620 -0.1377 -0.2850
  928poe     o2 6809   6.795   4.246   2.051 -0.1789  0.0945 -0.3100
  928poe    c23 6810   6.888   4.161   2.116 -0.1315  0.5800  0.2712
  928poe    c23 6811   6.898   4.216   2.259 -0.3185  0.4944  0.3174
  928poe     o2 6812   6.889   4.357   2.256 -0.5465  0.4745  0.0221
  928poe    c23 6813   6.907   4.403   2.388 -0.4922 -0.0925  0.2129
  928poe    c23 6814   6.929   4.555   2.393 -0.2012 -0.1418  0.4596
  928poe     o2 6815   6.809   4.618   2.353  0.2718  0.1869 -0.4673
  928poe    c31 6816   6.820   4.757   2.333 -0.8256  0.3045 -0.3395
  929poe    c31 6817   6.090   3.817   6.572 -0.0895 -0.0877 -0.7839
  929poe     o2 6818   6.153   3.694   6.549 -0.4117 -0.4073  0.0130
  929poe    c23 6819   6.130   3.644   6.419  0.3080  0.7131 -0.5579
  929poe    c23 6820   6.223   3.522   6.415  0.2051  0.6388 -0.6711
  929poe     o2 6821   6.339   3.581   6.469  0.1018  0.0488  0.2183
  929poe    c23 6822   6.431   3.477   6.496 -0.4419 -0.4121  0.3277
  929poe    c23 6823   6.534   3.533   6.595 -0.3103  0.1482 -0.1184
  929poe     o2 6824   6.453   3.622   6.669 -0.0262  0.1389  0.2076
  929poe    c23 6825   6.525   3.666   6.782 -0.1980  0.2953  0.2572
  929poe    c23 6826   6.418   3.721   6.878 -0.2971  0.1132  0.2515
  929poe     o2 6827   6.351   3.818   6.802  0.1165  0.0407 -0.2083
  929poe    c31 6828   6.256   3.888   6.879 -0.0996 -0.0685 -0.3743
  930poe    c31 6829   1.907   0.168   2.372 -0.5110  0.4216 -0.0442
  930poe     o2 6830   2.012   0.208   2.287 -0.2372 -0.4696 -0.1357
  930poe    c23 6831   1.979   0.192   2.151 -0.4029 -0.0453 -0.1471
  930poe    c23 6832   1.944   0.331   2.094  0.0466 -0.2325 -0.8982
  930poe     o2 6833   2.040   0.411   2.159 -0.3242  0.0266 -0.6691
  930poe    c23 6834   1.993   0.539   2.199  0.3825  0.1349 -0.1676
  930poe    c23 6835   2.095   0.592   2.302  0.4510  0.2013 -0.2684
  930poe     o2 6836   2.128   0.471   2.367  0.1094  0.3326  0.1607
  930poe    c23 6837   2.205   0.497   2.482 -0.6199  0.9333  0.5186
  930poe    c23 6838   2.222   0.358   2.547 -0.0102  0.8783  0.2484
  930poe     o2 6839   2.252   0.272   2.439 -0.5037  0.2540  0.6026
  930poe    c31 6840   2.288   0.142   2.481  0.7929  0.4971  0.2745
  931poe    c31 6841   0.219   0.493   5.389  0.4071  0.4181 -0.7022
  931poe     o2 6842   0.137   0.555   5.293 -0.0838  0.2130 -0.4206
  931poe    c23 6843   0.039   0.648   5.332 -0.8536 -0.4793 -0.6725
  931poe    c23 6844   0.055   0.738   5.208  0.1909 -0.0878 -0.2635
  931poe     o2 6845   0.037   0.655   5.095  0.8071 -0.4034 -0.1325
  931poe    c23 6846   0.092   0.719   4.982  0.9075 -0.0719  0.1040
  931poe    c23 6847   0.046   0.634   4.862  0.1121 -0.0527  0.3841
  931poe     o2 6848   0.077   0.501   4.896 -0.2978 -0.0586  0.7383
  931poe    c23 6849  -0.024   0.403   4.882  0.0084 -0.2728  0.0172
  931poe    c23 6850  -0.108   0.390   5.010 -0.3433  0.8055 -0.0848
  931poe     o2 6851  -0.033   0.390   5.130  0.4941  0.1811 -0.5892
  931poe    c31 6852  -0.122   0.334   5.224  0.1957  0.5030 -0.6778
  932poe    c31 6853   6.574   1.447   1.634 -0.0293  0.4267  0.2549
  932poe     o2 6854   6.440   1.490   1.626  0.0952  0.6901 -0.5672
  932poe    c23 6855   6.426   1.627   1.599  0.2714  0.7589 -0.3051
  932poe    c23 6856   6.287   1.671   1.648  0.2491 -0.0476  0.3743
  932poe     o2 6857   6.203   1.564   1.613  0.0297  0.1896  0.1697
  932poe    c23 6858   6.080   1.601   1.671 -0.2623 -0.6700  0.1153
  932poe    c23 6859   5.972   1.492   1.681 -1.2144  0.2472  0.0125
  932poe     o2 6860   5.961   1.428   1.556 -0.2587 -0.3017  0.1951
  932poe    c23 6861   5.866   1.324   1.546 -0.5231 -0.0990  0.5310
  932poe    c23 6862   5.936   1.186   1.542  0.3076  0.3258 -0.0149
  932poe     o2 6863   6.011   1.150   1.428  0.4874 -0.0041  0.2080
  932poe    c31 6864   5.947   1.139   1.303 -0.2306 -0.5996  0.6172
  933poe    c31 6865   6.556   0.144   4.300 -0.2797  0.2932  0.2108
  933poe     o2 6866   6.626   0.048   4.374 -0.6567 -0.2600 -0.1410
  933poe    c23 6867   6.763   0.078   4.357 -0.6700 -0.0872  0.0524
  933poe    c23 6868   6.845   0.012   4.469 -0.3713  0.3167  0.0747
  933poe     o2 6869   6.807  -0.123   4.481 -0.1714  0.2684  0.1575
  933poe    c23 6870   6.822  -0.169   4.614  0.2082 -0.6817 -0.2025
  933poe    c23 6871   6.693  -0.133   4.690  0.2002 -0.3422 -0.3747
  933poe     o2 6872   6.573  -0.161   4.621 -0.1432 -0.0405  0.0916
  933poe    c23 6873   6.460  -0.132   4.700 -0.1715  0.0386  0.0217
  933poe    c23 6874   6.339  -0.147   4.607 -0.1757  0.0238  0.0299
  933poe     o2 6875   6.377  -0.099   4.480  0.3012 -0.2512  0.0656
  933poe    c31 6876   6.255  -0.091   4.410  0.1444  0.5366  0.4136
  934poe    c31 6877   4.040   6.074   2.295 -0.2903  0.2454  0.1143
  934poe     o2 6878   4.112   5.955   2.319 -0.7261 -0.1016 -0.2850
  934poe    c23 6879   4.020   5.848   2.308 -0.1335 -0.6048 -0.4042
  934poe    c23 6880   3.938   5.816   2.434  0.2036 -0.4780 -0.1491
  934poe     o2 6881   4.003   5.737   2.531 -0.1581 -0.3894  0.1681
  934poe    c23 6882   4.016   5.603   2.489  0.6542  0.0109 -0.9039
  934poe    c23 6883   4.102   5.531   2.594 -0.1289  0.3020 -0.0502
  934poe     o2 6884   4.047   5.545   2.723  0.4488  0.4833  0.1778
  934poe    c23 6885   4.083   5.443   2.814  0.0745  0.3402  0.1662
  934poe    c23 6886   4.007   5.436   2.947 -0.1809 -0.6049 -0.0260
  934poe     o2 6887   3.867   5.424   2.937 -0.2414 -0.2522  0.3685
  934poe    c31 6888   3.793   5.448   3.055 -0.1783 -0.4398  0.4466
  935poe    c31 6889   1.683   2.343   0.316  0.0277  0.2633  0.1008
  935poe     o2 6890   1.744   2.253   0.406 -0.4225 -0.2650 -0.1158
  935poe    c23 6891   1.645   2.172   0.466 -0.0946 -0.7957 -0.2809
  935poe    c23 6892   1.661   2.113   0.607  0.6201 -0.5378 -0.2495
  935poe     o2 6893   1.688   2.222   0.691 -0.8514 -0.2959 -0.0552
  935poe    c23 6894   1.731   2.189   0.822 -0.2642  0.4297 -0.0555
  935poe    c23 6895   1.766   2.317   0.901  0.1610 -0.0440  0.5245
  935poe     o2 6896   1.854   2.400   0.829  0.4987 -0.0324  0.9494
  935poe    c23 6897   1.808   2.533   0.819 -0.1801 -0.3072  0.3639
  935poe    c23 6898   1.928   2.607   0.757  0.0573 -0.3475  0.7719
  935poe     o2 6899   1.961   2.538   0.639  0.2486  0.4567  0.3454
  935poe    c31 6900   2.040   2.607   0.545  0.2035 -0.8254 -0.6692
  936poe    c31 6901   1.014   3.161   5.087 -0.1047 -0.1402  0.9615
  936poe     o2 6902   1.041   3.263   4.995 -0.6546 -0.8392  0.0022
  936poe    c23 6903   1.171   3.239   4.945 -0.2596  0.3861  0.3882
  936poe    c23 6904   1.239   3.372   4.907 -0.2373  0.1557 -0.3935
  936poe     o2 6905   1.141   3.456   4.849 -0.5122  0.5761  0.6672
  936poe    c23 6906   1.171   3.587   4.808 -0.5643  0.3838  0.0130
  936poe    c23 6907   1.089   3.635   4.687  0.1151  0.0576 -0.5888
  936poe     o2 6908   0.955   3.625   4.730  0.2952 -0.1492 -0.0655
  936poe    c23 6909   0.871   3.620   4.616  0.5361 -0.4641 -0.2331
  936poe    c23 6910   0.727   3.577   4.649  0.3569  0.4406  0.2111
  936poe     o2 6911   0.719   3.436   4.654  0.8349  0.3969 -0.2586
  936poe    c31 6912   0.649   3.390   4.540  0.3621  0.5684 -0.0368
  937poe    c31 6913   6.326   5.516   6.782  0.5229  0.1985  0.2804
  937poe     o2 6914   6.357   5.623   6.695  0.6926 -0.3116 -0.2908
  937poe    c23 6915   6.484   5.675   6.726  0.4531 -0.0397  0.2432
  937poe    c23 6916   6.572   5.651   6.602  0.3909  0.2556  0.1411
  937poe     o2 6917   6.526   5.718   6.487 -0.1107 -0.2290  0.0547
  937poe    c23 6918   6.605   5.711   6.371  0.2648 -0.1171  0.3023
  937poe    c23 6919   6.579   5.810   6.256 -0.4074  0.1723  0.7002
  937poe     o2 6920   6.439   5.804   6.237 -0.3390  0.0674  0.2168
  937poe    c23 6921   6.395   5.850   6.111  0.3427 -0.2799 -0.1552
  937poe    c23 6922   6.264   5.927   6.135  0.3355 -0.2799 -0.1960
  937poe     o2 6923   6.217   5.873   6.257  0.4997 -0.1972 -0.0955
  937poe    c31 6924   6.078   5.896   6.271  0.4421  0.2803 -1.3180
  938poe    c31 6925   6.326   0.651   2.133  0.4552  0.1846  0.1685
  938poe     o2 6926   6.367   0.607   2.260 -0.2162 -0.5502  0.1392
  938poe    c23 6927   6.456   0.698   2.321 -0.6209 -0.4768  0.6233
  938poe    c23 6928   6.411   0.840   2.359  0.0099 -0.0643 -0.1367
  938poe     o2 6929   6.305   0.837   2.453  0.1989 -0.3568  0.0670
  938poe    c23 6930   6.245   0.960   2.485  0.4087 -0.1633 -0.2758
  938poe    c23 6931   6.120   0.949   2.575  0.5290 -0.1508 -0.1081
  938poe     o2 6932   6.034   0.848   2.528  0.2136  0.0838 -0.0376
  938poe    c23 6933   5.910   0.861   2.594 -0.2166 -0.0897 -0.8064
  938poe    c23 6934   5.812   0.748   2.555 -0.1067 -0.4795  0.0185
  938poe     o2 6935   5.895   0.635   2.572  0.6507  0.0269 -0.2423
  938poe    c31 6936   5.822   0.515   2.583  0.5139  0.1655  0.4135
  939poe    c31 6937   0.545   6.462   0.975 -0.0625  0.4117  0.3390
  939poe     o2 6938   0.460   6.424   0.870  0.2442  0.2705  0.1408
  939poe    c23 6939   0.329   6.476   0.879  0.1666 -0.0475  0.9292
  939poe    c23 6940   0.252   6.440   0.750  0.6758  0.3027  0.5206
  939poe     o2 6941   0.271   6.301   0.736  0.3048  0.2812  0.2199
  939poe    c23 6942   0.243   6.257   0.605  0.2599  0.1744  0.2657
  939poe    c23 6943   0.254   6.104   0.603  0.1127  0.1702 -0.3375
  939poe     o2 6944   0.371   6.078   0.677  0.1464 -0.0659 -0.4702
  939poe    c23 6945   0.414   5.944   0.681  0.0860 -0.0634  0.5551
  939poe    c23 6946   0.537   5.936   0.773  0.3048 -0.1745  0.2547
  939poe     o2 6947   0.655   5.980   0.709 -0.0820  0.6181  0.0729
  939poe    c31 6948   0.768   5.949   0.787 -0.2340 -0.0620  0.0300
  940poe    c31 6949   1.352   2.030   5.359  0.5134  0.1522  0.5640
  940poe     o2 6950   1.469   1.955   5.333  0.1144 -0.2868  0.0147
  940poe    c23 6951   1.509   1.975   5.199  0.8185  0.6976  0.3618
  940poe    c23 6952   1.633   1.889   5.171  0.1618 -0.1014 -0.1411
  940poe     o2 6953   1.615   1.771   5.246 -0.8413  0.1427  0.0146
  940poe    c23 6954   1.681   1.651   5.211 -0.6540  0.2060  0.1500
  940poe    c23 6955   1.835   1.657   5.214 -0.6315 -0.3648  0.1709
  940poe     o2 6956   1.877   1.676   5.347 -0.2932  0.1219 -0.0026
  940poe    c23 6957   1.928   1.806   5.365 -0.0151  0.0238 -0.0755
  940poe    c23 6958   1.933   1.823   5.518  0.3207  0.0609 -0.0896
  940poe     o2 6959   2.000   1.711   5.572 -0.0152 -0.0802  0.0364
  940poe    c31 6960   2.028   1.744   5.706 -0.0261 -0.4434  0.1296
  941poe    c31 6961   5.496   3.270   6.665 -0.5526  0.2728  0.0008
  941poe     o2 6962   5.510   3.130   6.678  0.3100  0.3058 -0.5312
  941poe    c23 6963   5.620   3.092   6.758  0.1399  0.4280 -0.2397
  941poe    c23 6964   5.635   2.947   6.806 -0.2851  0.5495  0.2679
  941poe     o2 6965   5.545   2.909   6.908  0.2984 -0.3681  0.4547
  941poe    c23 6966   5.551   2.771   6.935 -0.6026 -0.5583 -0.2731
  941poe    c23 6967   5.471   2.745   7.064 -0.2846 -0.1181  0.0168
  941poe     o2 6968   5.339   2.782   7.031 -0.2797 -0.1176 -0.0019
  941poe    c23 6969   5.250   2.752   7.137 -0.0062  0.1267  0.2959
  941poe    c23 6970   5.109   2.792   7.090  0.0836  0.1356  0.0278
  941poe     o2 6971   5.120   2.914   7.020 -0.0981  0.2873  0.2644
  941poe    c31 6972   5.005   2.992   7.046 -0.3049  0.2131 -0.4207
  942poe    c31 6973   6.055   4.577   1.857 -0.3500  0.5098  0.5085
  942poe     o2 6974   5.957   4.481   1.886 -0.0148  0.0778  0.2240
  942poe    c23 6975   5.878   4.528   1.994 -0.4062  0.5479 -0.2623
  942poe    c23 6976   5.754   4.438   2.007  0.2019 -0.2341  0.1926
  942poe     o2 6977   5.691   4.461   1.883 -0.2174  0.3488  0.5113
  942poe    c23 6978   5.576   4.381   1.867 -0.0090  0.1254  0.1108
  942poe    c23 6979   5.542   4.408   1.719  0.2729 -0.0773  0.0085
  942poe     o2 6980   5.656   4.383   1.640 -0.0007 -0.4926 -0.2571
  942poe    c23 6981   5.618   4.309   1.527  0.1517 -0.1943 -0.5032
  942poe    c23 6982   5.731   4.269   1.430  0.0073 -0.2399 -0.6530
  942poe     o2 6983   5.810   4.168   1.490  0.5361  0.6798  0.2212
  942poe    c31 6984   5.898   4.125   1.388  0.1234 -0.6535  0.4085
  943poe    c31 6985   6.912   1.132   5.492  0.0984 -0.1146  0.2333
  943poe     o2 6986   6.829   1.127   5.605  0.6610  0.1603  0.6600
  943poe    c23 6987   6.866   1.018   5.686 -0.0349 -0.8678 -0.3831
  943poe    c23 6988   6.831   1.052   5.832  0.3251 -1.1552 -0.2261
  943poe     o2 6989   6.697   1.086   5.806  0.6168  0.1543 -0.1169
  943poe    c23 6990   6.629   1.089   5.930  0.4714 -0.0725 -0.1902
  943poe    c23 6991   6.502   1.164   5.886  0.4884 -0.1212 -0.3241
  943poe     o2 6992   6.544   1.271   5.805  0.3450  0.0131 -0.2220
  943poe    c23 6993   6.444   1.323   5.721 -0.1235  0.2537  0.4757
  943poe    c23 6994   6.519   1.405   5.614  0.0111 -0.4120  0.0565
  943poe     o2 6995   6.603   1.317   5.542  0.4537 -0.1851  0.2946
  943poe    c31 6996   6.644   1.360   5.415  0.3024 -0.4446  0.1571
  944poe    c31 6997   3.268   1.244   5.570  0.2640  0.3912  0.2308
  944poe     o2 6998   3.392   1.176   5.564  0.0930  0.1068 -0.0874
  944poe    c23 6999   3.435   1.137   5.693  0.1157  0.1145 -0.0927
  944poe    c23 7000   3.558   1.045   5.688  0.3542  0.4332 -0.1322
  944poe     o2 7001   3.639   1.087   5.580 -0.1924 -0.5933 -0.9510
  944poe    c23 7002   3.743   0.996   5.552  0.2391 -0.3893 -0.0530
  944poe    c23 7003   3.816   1.034   5.421 -0.0238 -0.0582 -0.1057
  944poe     o2 7004   3.727   1.022   5.312  0.0973  1.0029 -0.3306
  944poe    c23 7005   3.799   1.040   5.192  0.1165  0.0009 -0.4788
  944poe    c23 7006   3.712   0.995   5.073 -0.6594  0.6228 -0.1530
  944poe     o2 7007   3.675   0.859   5.082 -0.0300  0.4752  0.2221
  944poe    c31 7008   3.615   0.814   4.963  0.4473 -0.2768  0.2550
  945poe    c31 7009   3.758   2.186   4.900  0.3012  0.1678 -0.0352
  945poe     o2 7010   3.714   2.172   5.033 -0.3568  0.7018 -0.1921
  945poe    c23 7011   3.610   2.077   5.021  0.2370  0.0609 -0.3830
  945poe    c23 7012   3.591   2.005   5.156  1.0371  0.2523 -0.1623
  945poe     o2 7013   3.557   2.106   5.248 -0.7144 -0.1607 -0.3190
  945poe    c23 7014   3.505   2.053   5.368 -0.4127  0.1252 -0.0616
  945poe    c23 7015   3.520   2.171   5.467 -0.1682  0.1278 -0.1030
  945poe     o2 7016   3.621   2.257   5.419 -0.0883 -0.0033 -0.1698
  945poe    c23 7017   3.609   2.388   5.468 -0.3513 -0.1914  0.2796
  945poe    c23 7018   3.692   2.483   5.378 -0.3236 -0.1627  0.3353
  945poe     o2 7019   3.661   2.441   5.247  0.2129 -0.1872  0.2162
  945poe    c31 7020   3.721   2.530   5.156 -0.0432  0.2296  0.4530
  946poe    c31 7021   1.127   2.109   1.353  0.4743  0.4356  0.0055
  946poe     o2 7022   1.125   2.197   1.464  0.0599 -0.2012  0.5097
  946poe    c23 7023   1.179   2.327   1.459  0.5730 -0.4207  0.2374
  946poe    c23 7024   1.192   2.382   1.602  0.2290  0.4369 -0.0544
  946poe     o2 7025   1.276   2.297   1.678 -0.3967  0.0267  0.1900
  946poe    c23 7026   1.285   2.328   1.815 -0.3249 -0.2414  0.2449
  946poe    c23 7027   1.354   2.215   1.894 -0.3237 -0.3911  0.0299
  946poe     o2 7028   1.462   2.174   1.813 -0.1540  0.0220  0.0477
  946poe    c23 7029   1.551   2.085   1.877 -0.3784 -0.3783 -0.1948
  946poe    c23 7030   1.666   2.080   1.774 -0.0078  0.3192  0.1788
  946poe     o2 7031   1.608   2.051   1.649  0.2631  0.0111  0.1204
  946poe    c31 7032   1.648   1.927   1.597 -0.5753 -0.2466  0.0775
  947poe    c31 7033   0.173   0.487   3.268  0.8583 -0.1107 -0.0753
  947poe     o2 7034   0.264   0.513   3.373  0.8088 -0.6478  0.1032
  947poe    c23 7035   0.189   0.549   3.487  0.4873 -0.4030 -0.1842
  947poe    c23 7036   0.256   0.674   3.547  0.0840 -0.0356 -0.4933
  947poe     o2 7037   0.396   0.654   3.541  0.0982 -0.2308  0.3996
  947poe    c23 7038   0.461   0.778   3.559  0.6330 -0.5116  0.4150
  947poe    c23 7039   0.608   0.764   3.517  0.4940 -0.5240 -0.0761
  947poe     o2 7040   0.605   0.770   3.376 -0.2503  0.2472 -0.0320
  947poe    c23 7041   0.731   0.793   3.317 -0.3194 -0.3016 -0.3941
  947poe    c23 7042   0.730   0.822   3.165  0.4756  0.1327 -0.3165
  947poe     o2 7043   0.681   0.722   3.080 -0.4479  0.6058 -0.3506
  947poe    c31 7044   0.589   0.768   2.984 -0.4624  0.1188 -0.5762
  948poe    c31 7045   1.074   5.130   6.286 -0.0501  0.6164 -0.2645
  948poe     o2 7046   1.128   5.004   6.322 -0.0225  0.6457 -0.2044
  948poe    c23 7047   1.085   4.903   6.235 -0.0482  0.0087  0.5341
  948poe    c23 7048   1.119   4.762   6.285 -0.0540 -0.2158 -0.0841
  948poe     o2 7049   1.243   4.708   6.245  0.0707  0.1030 -0.1301
  948poe    c23 7050   1.233   4.568   6.231 -0.4434  0.1384 -0.1300
  948poe    c23 7051   1.167   4.484   6.119 -0.6703  0.0439  0.0734
  948poe     o2 7052   1.224   4.355   6.122 -0.3177  0.1956 -0.0106
  948poe    c23 7053   1.154   4.262   6.044  0.3075 -0.2404 -0.0573
  948poe    c23 7054   1.186   4.113   6.065  0.0569 -0.2598  0.1935
  948poe     o2 7055   1.320   4.087   6.029 -0.0135 -0.2619 -0.0669
  948poe    c31 7056   1.367   3.959   6.066  0.0229 -0.1826  0.1618
  949poe    c31 7057   5.583   0.596   6.129  0.0322  0.6774  0.3082
  949poe     o2 7058   5.698   0.525   6.168 -0.2976  0.0264  0.1078
  949poe    c23 7059   5.688   0.385   6.156 -0.7464  0.0708 -0.0427
  949poe    c23 7060   5.718   0.340   6.012  0.2265  0.0265  0.1683
  949poe     o2 7061   5.849   0.371   5.969  0.0485 -0.0217 -0.4264
  949poe    c23 7062   5.864   0.327   5.836  0.7698 -0.3899 -0.2270
  949poe    c23 7063   5.970   0.408   5.760 -0.0631  0.6687 -0.2806
  949poe     o2 7064   6.069   0.424   5.860 -0.0893  0.0764 -0.1551
  949poe    c23 7065   6.181   0.499   5.817 -0.1556  0.5904  0.5653
  949poe    c23 7066   6.295   0.497   5.920  0.6442  0.1552 -0.3180
  949poe     o2 7067   6.220   0.504   6.039  0.1891  0.1814 -0.6065
  949poe    c31 7068   6.308   0.532   6.146 -0.5707  0.5695 -0.0710
  950poe    c31 7069   1.382   3.034   6.848 -0.4581 -0.0729  0.3815
  950poe     o2 7070   1.517   2.994   6.852 -0.5360 -0.3817 -0.0429
  950poe    c23 7071   1.553   2.937   6.728 -0.0928 -0.1786 -0.0077
  950poe    c23 7072   1.704   2.910   6.712  0.0771  0.4126  0.5454
  950poe     o2 7073   1.729   2.837   6.830  0.0782  0.3402  0.5009
  950poe    c23 7074   1.857   2.781   6.847 -0.0437 -0.0011  0.2908
  950poe    c23 7075   1.904   2.793   6.993 -0.1149  0.1719  0.2996
  950poe     o2 7076   1.829   2.905   7.035 -0.1600  0.3415 -0.2263
  950poe    c23 7077   1.852   2.956   7.164  0.1219 -0.3122 -0.0172
  950poe    c23 7078   1.797   3.099   7.148 -0.2137 -0.4183  0.1794
  950poe     o2 7079   1.671   3.082   7.087 -0.2419 -0.1797  0.1711
  950poe    c31 7080   1.581   3.182   7.129  0.3053  0.3465  0.1042
  951poe    c31 7081   3.248   0.816   5.521 -0.2758  0.9359  0.4235
  951poe     o2 7082   3.347   0.892   5.455  0.1348  0.1477  0.1211
  951poe    c23 7083   3.312   0.909   5.320 -0.0673 -0.6937  0.0620
  951poe    c23 7084   3.428   0.978   5.247 -0.4549 -0.3915 -0.2745
  951poe     o2 7085   3.448   1.110   5.294  0.5664 -0.4526 -0.5061
  951poe    c23 7086   3.461   1.205   5.190  0.4274  0.0670 -0.0535
  951poe    c23 7087   3.498   1.334   5.265  0.2276  0.2771 -0.3184
  951poe     o2 7088   3.589   1.315   5.370 -0.2650  0.0105  0.0657
  951poe    c23 7089   3.662   1.432   5.400  0.3590 -0.2674 -0.3356
  951poe    c23 7090   3.707   1.450   5.547  0.1992  0.2424 -0.3482
  951poe     o2 7091   3.591   1.483   5.621  0.2215  0.7702 -0.5393
  951poe    c31 7092   3.610   1.500   5.760  0.2329  0.4055 -0.4947
  952poe    c31 7093   1.300   6.406   0.250  0.1869 -0.5227  0.1353
  952poe     o2 7094   1.235   6.530   0.229  0.6266 -0.2641  0.2812
  952poe    c23 7095   1.278   6.590   0.109 -0.3846  0.1515  0.1112
  952poe    c23 7096   1.213   6.729   0.108  0.3492  0.5005 -0.3133
  952poe     o2 7097   1.223   6.791   0.234 -0.2494  0.4764 -0.2475
  952poe    c23 7098   1.182   6.926   0.241 -0.5580  0.3867 -0.3300
  952poe    c23 7099   1.224   6.984   0.377  0.3676 -0.7156 -0.1267
  952poe     o2 7100   1.162   6.906   0.477 -0.1355 -0.2544 -0.0707
  952poe    c23 7101   1.152   6.962   0.606  0.5962 -0.5742  0.1297
  952poe    c23 7102   1.138   6.855   0.715 -0.7176 -0.3948  0.1535
  952poe     o2 7103   1.236   6.754   0.725 -0.4566 -0.2203 -0.5813
  952poe    c31 7104   1.175   6.641   0.784 -0.0198  0.0889  0.4929
  953poe    c31 7105   4.571   6.593   4.644 -0.2916 -0.3507  0.0174
  953poe     o2 7106   4.608   6.459   4.671 -0.0642 -0.2864  0.0311
  953poe    c23 7107   4.612   6.448   4.811 -0.3299  0.5473  0.1069
  953poe    c23 7108   4.703   6.333   4.855 -0.5922  0.3325  0.0904
  953poe     o2 7109   4.827   6.366   4.797 -0.1535  0.1726  0.9206
  953poe    c23 7110   4.932   6.281   4.838  0.2052 -0.0671 -0.4210
  953poe    c23 7111   5.078   6.317   4.803  0.4223 -0.5282  0.0060
  953poe     o2 7112   5.074   6.369   4.672  0.2927  0.3593  0.3596
  953poe    c23 7113   5.186   6.432   4.615  0.0300  0.2405 -0.2999
  953poe    c23 7114   5.159   6.515   4.489  0.8934  0.6548 -0.2208
  953poe     o2 7115   5.045   6.594   4.517  0.8685  0.4634  0.2153
  953poe    c31 7116   5.041   6.713   4.442  0.0163  0.1574 -0.2358
  954poe    c31 7117   6.308   6.227   2.720  0.3637  0.2833  0.3553
  954poe     o2 7118   6.431   6.207   2.655  0.6769 -0.3714  1.1247
  954poe    c23 7119   6.427   6.071   2.618 -0.8592 -0.2020  0.5782
  954poe    c23 7120   6.574   6.029   2.600 -0.8912 -0.0571 -0.0446
  954poe     o2 7121   6.636   6.128   2.520 -0.3872 -0.4279 -0.1189
  954poe    c23 7122   6.773   6.108   2.497 -0.2275  0.0361  0.3911
  954poe    c23 7123   6.846   6.217   2.416 -0.0738 -0.3546 -0.0037
  954poe     o2 7124   6.850   6.333   2.496 -0.1210 -0.3827  0.0394
  954poe    c23 7125   6.920   6.438   2.434  0.3419 -0.7378 -0.0456
  954poe    c23 7126   6.968   6.535   2.544  0.2644 -0.3051 -0.3914
  954poe     o2 7127   6.888   6.569   2.655  0.8664  0.1131 -0.0788
  954poe    c31 7128   6.962   6.565   2.775 -0.4491  0.1595  0.7536
  955poe    c31 7129   4.866   5.847   4.917 -0.0900  0.3497 -0.3459
  955poe     o2 7130   4.901   5.772   5.031 -0.3770  0.0997 -0.4208
  955poe    c23 7131   4.880   5.640   4.987 -0.0825 -0.1281  0.1175
  955poe    c23 7132   4.974   5.550   5.070 -0.2646 -0.1137  0.3419
  955poe     o2 7133   4.944   5.583   5.203 -0.2620 -0.1609  0.3541
  955poe    c23 7134   4.995   5.496   5.302 -0.2480 -0.3212  0.2053
  955poe    c23 7135   4.957   5.555   5.439  0.0405  0.1384  0.0892
  955poe     o2 7136   4.978   5.694   5.433 -0.4012  0.1916 -0.3710
  955poe    c23 7137   4.890   5.775   5.507  0.0049  0.0845  0.2364
  955poe    c23 7138   4.757   5.789   5.431 -0.0346 -0.0721  0.2768
  955poe     o2 7139   4.764   5.848   5.303  0.3197 -0.1848  0.2428
  955poe    c31 7140   4.636   5.862   5.246  0.5409 -0.1184 -0.2344
  956poe    c31 7141   4.668   5.885   2.478  0.0886  0.1895 -0.0450
  956poe     o2 7142   4.588   5.976   2.550 -0.4086 -0.1537 -0.1668
  956poe    c23 7143   4.465   5.911   2.578 -0.5718  0.0372 -0.4398
  956poe    c23 7144   4.390   5.978   2.695  0.0987  0.5757 -0.3061
  956poe     o2 7145   4.253   5.945   2.688  0.2815 -0.3553  0.3353
  956poe    c23 7146   4.192   6.056   2.750  0.4127  0.1105 -0.3570
  956poe    c23 7147   4.044   6.076   2.714  0.4317  0.6724 -0.1361
  956poe     o2 7148   3.972   5.960   2.748  0.0441  0.9603  0.0385
  956poe    c23 7149   3.837   5.985   2.715 -0.1996 -0.1385  0.1456
  956poe    c23 7150   3.747   5.877   2.776 -0.9066 -0.0373 -0.7100
  956poe     o2 7151   3.812   5.754   2.751 -0.3691 -0.1295  1.0139
  956poe    c31 7152   3.707   5.662   2.731  0.1103 -0.5196  0.2287
  957poe    c31 7153   3.846   1.577   2.913 -0.2434  0.0619 -0.1012
  957poe     o2 7154   3.765   1.462   2.925 -0.0818 -0.0758 -0.3216
  957poe    c23 7155   3.700   1.456   2.800 -0.9032  0.5711  0.0709
  957poe    c23 7156   3.564   1.383   2.806 -0.5439 -0.0926  0.1520
  957poe     o2 7157   3.469   1.474   2.855 -0.1410  0.4373 -0.0462
  957poe    c23 7158   3.419   1.574   2.768  0.0204  0.7694  0.2403
  957poe    c23 7159   3.268   1.585   2.795 -0.0490  0.5498 -0.0556
  957poe     o2 7160   3.264   1.593   2.936  0.1697  0.8851 -0.0675
  957poe    c23 7161   3.135   1.628   2.981 -0.2656 -0.0964 -0.5020
  957poe    c23 7162   3.132   1.619   3.135 -0.0954 -0.1768 -0.5030
  957poe     o2 7163   3.202   1.506   3.183  0.2616  0.2543 -0.0005
  957poe    c31 7164   3.164   1.462   3.312 -0.2187  0.0081 -0.2244
  958poe    c31 7165   3.374   3.287   3.956 -0.5429 -0.4096  0.5149
  958poe     o2 7166   3.258   3.363   3.933 -0.1102  0.2796  0.5575
  958poe    c23 7167   3.169   3.307   4.028 -0.2611  0.1708  0.3540
  958poe    c23 7168   3.035   3.377   4.001 -0.2089  0.2697  0.3496
  958poe     o2 7169   3.031   3.507   4.057 -0.1912  0.4199  0.0057
  958poe    c23 7170   2.911   3.561   4.008 -0.1142  0.3084 -0.3083
  958poe    c23 7171   2.906   3.703   4.067 -0.4518  0.1130  0.1326
  958poe     o2 7172   3.016   3.773   4.015 -0.3025 -0.0905  0.1741
  958poe    c23 7173   3.020   3.912   4.041  0.2624 -0.0325 -0.1863
  958poe    c23 7174   3.128   3.970   3.948  0.6547 -0.3601  0.0587
  958poe     o2 7175   3.241   3.889   3.971  0.5478 -0.5453 -0.0682
  958poe    c31 7176   3.350   3.956   3.913  0.7774 -0.4964  0.4148
  959poe    c31 7177   6.862   4.757   4.303  0.4017  0.3773 -0.5346
  959poe     o2 7178   6.838   4.890   4.344 -0.3778  0.0971 -0.0439
  959poe    c23 7179   6.948   4.939   4.416 -0.1853 -0.0380 -0.2409
  959poe    c23 7180   6.928   5.089   4.447  0.0183 -0.0275 -0.1583
  959poe     o2 7181   6.930   5.151   4.320  0.2489 -0.0947 -0.1876
  959poe    c23 7182   6.908   5.288   4.342 -0.7925 -0.2448 -0.2605
  959poe    c23 7183   6.848   5.338   4.209 -0.0143  0.8420 -0.2133
  959poe     o2 7184   6.755   5.241   4.168  0.5980  0.3963 -0.5445
  959poe    c23 7185   6.726   5.258   4.031 -0.6407  0.7103 -0.2558
  959poe    c23 7186   6.638   5.134   4.011  0.3032 -0.0137 -0.0211
  959poe     o2 7187   6.720   5.033   4.065  0.0777 -0.2599 -0.1338
  959poe    c31 7188   6.677   4.902   4.037 -1.0845  0.1591 -0.3429
  960poe    c31 7189   1.860   3.790   1.112  0.1331 -0.0334  0.1681
  960poe     o2 7190   1.750   3.726   1.172 -0.0545 -0.0250 -0.1635
  960poe    c23 7191   1.649   3.682   1.084 -0.1860 -0.0676  0.0075
  960poe    c23 7192   1.517   3.753   1.120  0.0400  0.2064  0.3032
  960poe     o2 7193   1.504   3.751   1.260 -0.0886 -0.0715  0.2875
  960poe    c23 7194   1.385   3.811   1.307 -0.0882  0.6147 -0.5737
  960poe    c23 7195   1.403   3.799   1.459 -0.3795  0.6629 -0.5358
  960poe     o2 7196   1.528   3.855   1.491 -0.2846  0.2712 -0.2190
  960poe    c23 7197   1.517   3.890   1.628 -0.1726  0.3003 -0.2169
  960poe    c23 7198   1.608   4.008   1.666  0.0337  0.2113 -0.4300
  960poe     o2 7199   1.744   3.997   1.632 -0.0850  0.1538 -0.8908
  960poe    c31 7200   1.832   4.097   1.679 -0.2721 -0.2310  0.3130
  961poe    c31 7201   2.535   2.931   2.022  0.3586 -0.0008  0.2437
  961poe     o2 7202   2.463   3.009   2.114 -0.1525  0.4370 -0.5239
  961poe    c23 7203   2.322   3.017   2.110 -0.2378 -0.4420  0.4123
  961poe    c23 7204   2.293   3.143   2.193  0.1115  0.0754 -0.2389
  961poe     o2 7205   2.380   3.130   2.303 -0.3085 -0.2201  0.0637
  961poe    c23 7206   2.340   3.207   2.414 -0.5071 -0.2428  0.0082
  961poe    c23 7207   2.445   3.183   2.525 -0.2127 -0.7649 -0.3751
  961poe     o2 7208   2.558   3.140   2.453  0.2561 -0.2895  0.0676
  961poe    c23 7209   2.676   3.119   2.528  0.3002  0.1649  0.1283
  961poe    c23 7210   2.772   3.017   2.464  0.0123 -0.0915  0.1001
  961poe     o2 7211   2.749   3.041   2.327 -0.6303  0.0045  0.2213
  961poe    c31 7212   2.844   2.980   2.242 -0.0792  0.9259  0.1646
  962poe    c31 7213   4.168   4.001   5.856 -0.4834  0.6658  0.1229
  962poe     o2 7214   4.215   4.066   5.740  0.0474 -0.4731 -0.3146
  962poe    c23 7215   4.187   4.203   5.754  0.4023 -0.4034 -0.2864
  962poe    c23 7216   4.241   4.268   5.625 -0.1237 -0.0511 -0.3327
  962poe     o2 7217   4.220   4.174   5.521  0.6669 -0.3412 -0.2365
  962poe    c23 7218   4.269   4.230   5.401  0.5563  0.2946  0.0086
  962poe    c23 7219   4.193   4.156   5.289 -0.4110  0.5775  0.4642
  962poe     o2 7220   4.175   4.023   5.334  0.0878  0.4444  0.2834
  962poe    c23 7221   4.269   3.928   5.290  0.8928  0.9997  0.7792
  962poe    c23 7222   4.245   3.820   5.397  0.1488  0.0727 -0.2994
  962poe     o2 7223   4.235   3.863   5.531  0.0551  0.2268 -0.3551
  962poe    c31 7224   4.236   3.749   5.615 -0.3429  0.0491 -0.5864
  963poe    c31 7225   2.393   3.075   1.052  0.0865 -0.1917  0.2536
  963poe     o2 7226   2.381   2.937   1.025  0.0288 -0.1726  0.1796
  963poe    c23 7227   2.491   2.872   1.085  0.2474 -0.4181 -0.4760
  963poe    c23 7228   2.495   2.720   1.061  0.2641 -0.5672  0.4527
  963poe     o2 7229   2.383   2.658   1.119 -0.2672  0.0430  0.0880
  963poe    c23 7230   2.380   2.518   1.103 -0.6386  0.1992 -1.3117
  963poe    c23 7231   2.256   2.494   1.191 -0.0500  0.4254 -0.4037
  963poe     o2 7232   2.149   2.574   1.144 -0.7191  0.0373  0.4299
  963poe    c23 7233   2.025   2.508   1.152 -0.3506 -0.6637  0.4230
  963poe    c23 7234   1.933   2.616   1.213 -0.0168 -0.1725  0.0586
  963poe     o2 7235   1.918   2.726   1.126 -0.0632 -0.2571 -0.0408
  963poe    c31 7236   1.829   2.823   1.177  0.0013 -0.4823  0.5083
  964poe    c31 7237   2.944   1.380   6.346  0.2915  0.0245  0.3505
  964poe     o2 7238   2.964   1.289   6.452  0.2348 -0.2861  0.0985
  964poe    c23 7239   2.993   1.158   6.410  0.5362 -0.1886  0.0004
  964poe    c23 7240   2.995   1.087   6.547 -0.1411  0.2438  0.2354
  964poe     o2 7241   3.089   1.155   6.627 -0.2987  0.4002  0.2883
  964poe    c23 7242   3.079   1.101   6.757  0.3155  0.1997  0.2558
  964poe    c23 7243   3.150   1.204   6.847  0.2067  0.4783  0.0261
  964poe     o2 7244   3.083   1.327   6.834  0.7248  0.7163 -0.4263
  964poe    c23 7245   3.101   1.404   6.951 -0.0197 -0.0739  0.2227
  964poe    c23 7246   3.027   1.539   6.957 -0.1376 -0.1137 -0.2537
  964poe     o2 7247   3.083   1.635   6.871 -0.1585  0.0121 -0.1279
  964poe    c31 7248   3.003   1.749   6.894 -0.5088 -0.1046 -0.7325
  965poe    c31 7249   0.562   4.613   0.961 -0.4572 -0.5761  0.3364
  965poe     o2 7250   0.656   4.716   0.939 -0.3717 -0.6972  0.1342
  965poe    c23 7251   0.789   4.672   0.938 -0.1650 -0.0796 -0.1551
  965poe    c23 7252   0.882   4.783   0.885 -0.5552  0.1465 -0.3642
  965poe     o2 7253   0.837   4.893   0.962  0.2667 -0.0304  0.3912
  965poe    c23 7254   0.895   5.015   0.922 -0.2825  0.0953 -0.0486
  965poe    c23 7255   0.808   5.125   0.986  0.4051  0.9700 -0.5871
  965poe     o2 7256   0.670   5.122   0.959  0.3797  0.1147 -0.3894
  965poe    c23 7257   0.614   5.250   0.970 -0.6045 -0.3771  0.4951
  965poe    c23 7258   0.502   5.268   0.866 -0.2802 -0.3992  0.1434
  965poe     o2 7259   0.384   5.193   0.882 -0.0693 -0.6181  0.6916
  965poe    c31 7260   0.303   5.174   0.768 -0.0154 -0.3448  0.6087
  966poe    c31 7261   4.993   5.966   5.970  0.1649  0.5114  0.4309
  966poe     o2 7262   5.030   5.921   6.099 -0.2528 -0.4025  0.2408
  966poe    c23 7263   5.019   6.027   6.191 -0.4897  0.2513 -0.5280
  966poe    c23 7264   5.092   5.983   6.319  0.1178 -0.1216 -1.0014
  966poe     o2 7265   5.031   5.860   6.352 -0.0297  0.1407 -0.2830
  966poe    c23 7266   5.101   5.784   6.447  0.7103  0.4218 -0.5986
  966poe    c23 7267   5.204   5.686   6.388  0.5219 -0.5189  0.5828
  966poe     o2 7268   5.127   5.612   6.296  0.1918  0.3737  0.1300
  966poe    c23 7269   5.216   5.537   6.216 -0.6061 -0.6250  0.1575
  966poe    c23 7270   5.142   5.491   6.089 -0.2434  0.2144 -0.3715
  966poe     o2 7271   5.085   5.607   6.033 -0.3488  0.5579  0.4339
  966poe    c31 7272   5.063   5.606   5.894 -0.1041 -0.3188  0.3963
  967poe    c31 7273   2.212   1.713   4.727  0.6719 -0.5865  0.2697
  967poe     o2 7274   2.166   1.591   4.673  0.1087 -0.2158 -0.1001
  967poe    c23 7275   2.274   1.516   4.621  0.4722  0.1455  0.1252
  967poe    c23 7276   2.200   1.423   4.523  0.5095 -0.1914  0.4134
  967poe     o2 7277   2.101   1.351   4.592  0.0643 -0.1519 -0.1776
  967poe    c23 7278   2.023   1.267   4.510 -0.1248 -0.0374 -0.1148
  967poe    c23 7279   1.906   1.218   4.598 -0.1237 -0.0233 -0.1059
  967poe     o2 7280   1.840   1.333   4.646 -0.0073  0.1240 -0.2980
  967poe    c23 7281   1.737   1.296   4.735  0.4234  0.6617  0.4404
  967poe    c23 7282   1.627   1.404   4.741 -0.0664  0.2048 -0.1200
  967poe     o2 7283   1.670   1.507   4.827 -0.4088 -0.2950  0.6571
  967poe    c31 7284   1.572   1.600   4.868 -0.2904  0.3180 -0.4309
  968poe    c31 7285   1.628   5.542   3.479 -0.4132 -0.3417  0.0684
  968poe     o2 7286   1.632   5.507   3.615 -0.3008 -1.2676 -0.1631
  968poe    c23 7287   1.501   5.529   3.662 -0.0466 -0.5187  0.2122
  968poe    c23 7288   1.525   5.618   3.786  0.2226 -0.2432 -0.0367
  968poe     o2 7289   1.647   5.581   3.844  0.4859  0.3283 -0.2126
  968poe    c23 7290   1.692   5.685   3.928  0.0246  0.5219 -0.2053
  968poe    c23 7291   1.845   5.673   3.934 -0.0918 -0.9273  0.5330
  968poe     o2 7292   1.892   5.615   3.814 -0.2313 -0.0887  0.0583
  968poe    c23 7293   2.008   5.537   3.834 -0.2528 -0.0661  0.2817
  968poe    c23 7294   2.024   5.476   3.693  0.2556 -0.8870  0.6871
  968poe     o2 7295   1.911   5.397   3.664  0.0803 -0.3692 -0.0819
  968poe    c31 7296   1.946   5.292   3.577 -0.8445 -0.5070 -0.2968
  969poe    c31 7297   5.505   2.423   1.340  0.2206  0.2347 -0.1033
  969poe     o2 7298   5.483   2.306   1.415  0.3544 -0.0276 -0.4714
  969poe    c23 7299   5.481   2.182   1.347  0.4788 -0.2136 -0.1412
  969poe    c23 7300   5.442   2.066   1.440 -0.4336  0.2171  0.0212
  969poe     o2 7301   5.481   2.079   1.575 -0.0276  0.1635 -0.0900
  969poe    c23 7302   5.394   2.010   1.662  0.1938 -0.3343 -0.2612
  969poe    c23 7303   5.430   2.051   1.806  0.2968 -0.1115 -0.3495
  969poe     o2 7304   5.570   2.049   1.817  0.2602 -0.4564  0.1376
  969poe    c23 7305   5.621   2.078   1.945  0.0801 -0.6518  0.2518
  969poe    c23 7306   5.774   2.074   1.954  0.1588  0.4063 -0.4807
  969poe     o2 7307   5.843   2.114   1.838  0.1402  0.3792 -0.5010
  969poe    c31 7308   5.971   2.056   1.833  0.4422  1.0322 -0.4400
  970poe    c31 7309   2.906   3.297   5.200  0.0506 -0.1221 -0.1551
  970poe     o2 7310   2.819   3.321   5.308  0.0226 -0.6730 -0.0563
  970poe    c23 7311   2.708   3.234   5.302 -0.0841 -0.5548  0.2095
  970poe    c23 7312   2.584   3.296   5.370  0.1870  0.4286 -0.1706
  970poe     o2 7313   2.628   3.341   5.496 -0.4920  0.0715  0.1957
  970poe    c23 7314   2.536   3.381   5.595 -0.7197 -0.3755  0.1694
  970poe    c23 7315   2.599   3.350   5.732  0.2186 -0.1982 -0.2190
  970poe     o2 7316   2.713   3.425   5.769 -0.4055  0.2788  0.7796
  970poe    c23 7317   2.667   3.547   5.822 -0.1862  0.7570 -0.1181
  970poe    c23 7318   2.783   3.637   5.869 -0.2042  0.3772  0.6612
  970poe     o2 7319   2.826   3.697   5.749 -0.4316 -0.0594  0.3596
  970poe    c31 7320   2.929   3.789   5.779 -0.2404 -0.4246  0.8274
  971poe    c31 7321   3.113   3.508   4.966  0.5829 -0.0597  0.1314
  971poe     o2 7322   3.079   3.407   4.875  0.0806  0.1858  0.0457
  971poe    c23 7323   3.187   3.379   4.788  0.1727  0.0548  0.2034
  971poe    c23 7324   3.160   3.280   4.674 -0.0585 -0.1941  0.4717
  971poe     o2 7325   3.057   3.326   4.590 -0.1545 -0.0059  0.6913
  971poe    c23 7326   3.041   3.244   4.476 -0.1433  0.3720  0.4166
  971poe    c23 7327   2.892   3.259   4.441 -0.0141 -0.1371 -0.3641
  971poe     o2 7328   2.863   3.396   4.435  0.2243 -0.0743 -0.0953
  971poe    c23 7329   2.724   3.421   4.436  0.3686  0.7549  0.4869
  971poe    c23 7330   2.690   3.571   4.446  0.2042  0.7900 -0.5109
  971poe     o2 7331   2.769   3.626   4.549 -0.6248  0.0911  0.5217
  971poe    c31 7332   2.712   3.752   4.575 -0.6402  0.1353  0.2759
  972poe    c31 7333   0.748   0.532   5.916  0.1120 -0.2750 -0.5279
  972poe     o2 7334   0.611   0.496   5.915  0.1085 -0.2753 -0.1271
  972poe    c23 7335   0.546   0.508   6.040  0.0913  0.5615 -0.2059
  972poe    c23 7336   0.452   0.628   6.060 -0.4397  0.0936  0.1500
  972poe     o2 7337   0.338   0.610   5.978  0.2503 -0.6383 -0.6763
  972poe    c23 7338   0.278   0.729   5.932  0.2542 -0.1766  0.4664
  972poe    c23 7339   0.130   0.684   5.932  0.2283 -0.1167 -0.4417
  972poe     o2 7340   0.127   0.559   5.867  0.5576 -0.1444 -0.4076
  972poe    c23 7341   0.001   0.500   5.845  0.4533 -0.0738 -0.0139
  972poe    c23 7342   0.037   0.376   5.761  0.0725 -0.0679 -0.1906
  972poe     o2 7343   0.137   0.316   5.840 -0.4612  0.0379  0.5790
  972poe    c31 7344   0.180   0.194   5.785 -0.3006  0.2078  0.3255
  973poe    c31 7345   1.501   5.428   6.670 -0.2498  0.2870 -0.1215
  973poe     o2 7346   1.451   5.338   6.766  0.3172  0.0411 -0.0541
  973poe    c23 7347   1.447   5.202   6.728  0.6429 -0.0303  0.1644
  973poe    c23 7348   1.372   5.105   6.820 -0.0233 -0.0487 -0.3920
  973poe     o2 7349   1.434   5.066   6.940  0.0440 -0.0162 -0.4158
  973poe    c23 7350   1.340   5.094   7.041  0.2800  0.7761 -0.4149
  973poe    c23 7351   1.398   5.025   7.165 -0.4216  0.4762 -0.2508
  973poe     o2 7352   1.528   5.078   7.166 -0.0622 -0.3859  0.3746
  973poe    c23 7353   1.604   5.004   7.260 -0.2579 -0.4168  0.5087
  973poe    c23 7354   1.745   5.065   7.263 -0.5279  0.2759 -0.4448
  973poe     o2 7355   1.784   5.081   7.128  0.5811 -0.4146 -0.2148
  973poe    c31 7356   1.919   5.120   7.120  0.3763  0.2791 -0.3072
  974poe    c31 7357   4.889   3.492   4.338 -0.5150  0.6498  0.1390
  974poe     o2 7358   4.802   3.501   4.227 -0.0551 -0.9555 -0.3824
  974poe    c23 7359   4.664   3.492   4.255  0.0352 -0.8243  0.1152
  974poe    c23 7360   4.619   3.346   4.245 -0.6883 -0.6081  0.1884
  974poe     o2 7361   4.622   3.315   4.107 -0.2620 -0.3697  0.1425
  974poe    c23 7362   4.549   3.198   4.075 -0.4019 -0.2387 -0.0194
  974poe    c23 7363   4.604   3.134   3.946  0.2595  0.2483  0.0114
  974poe     o2 7364   4.574   3.213   3.834  0.8362  0.7534  0.2121
  974poe    c23 7365   4.648   3.170   3.721 -0.2551  0.1013 -0.2635
  974poe    c23 7366   4.626   3.259   3.597 -0.7068 -0.1780 -0.3889
  974poe     o2 7367   4.641   3.390   3.648 -0.0456 -0.2538 -0.3810
  974poe    c31 7368   4.648   3.483   3.542  0.0547 -0.4982 -0.5909
  975poe    c31 7369   4.103   1.624   2.488  0.1526  0.1766  0.1687
  975poe     o2 7370   4.109   1.500   2.423  0.0178  0.4973 -0.4664
  975poe    c23 7371   4.228   1.500   2.346 -0.0474 -0.4227 -0.5851
  975poe    c23 7372   4.243   1.355   2.297  0.2073 -0.6717  0.2312
  975poe     o2 7373   4.115   1.306   2.263 -0.0978  0.2672 -0.0010
  975poe    c23 7374   4.129   1.181   2.199 -0.1602  0.3120 -0.1021
  975poe    c23 7375   4.017   1.148   2.099  0.2893 -0.7065 -0.2862
  975poe     o2 7376   3.923   1.061   2.159 -0.1199 -0.0429  0.0531
  975poe    c23 7377   3.846   0.986   2.067  0.1621  0.2815 -0.4563
  975poe    c23 7378   3.743   0.887   2.125  0.1987  0.3349 -0.2978
  975poe     o2 7379   3.797   0.782   2.201 -0.2110  0.5397  0.2847
  975poe    c31 7380   3.807   0.675   2.109  0.6136  0.2418  0.7014
  976poe    c31 7381   5.501   4.760   5.600 -0.1253  0.9165  0.2480
  976poe     o2 7382   5.572   4.668   5.520 -0.5806  0.6770  0.1180
  976poe    c23 7383   5.695   4.716   5.471 -0.3797  0.1659  0.1075
  976poe    c23 7384   5.790   4.595   5.480 -0.1764  0.2752 -0.5177
  976poe     o2 7385   5.742   4.478   5.417 -0.1071 -0.1092  0.1346
  976poe    c23 7386   5.827   4.366   5.420  0.0057 -0.0244  0.1072
  976poe    c23 7387   5.755   4.236   5.380  0.0248  0.1356 -0.4515
  976poe     o2 7388   5.634   4.227   5.452  0.2761  0.1425 -0.0286
  976poe    c23 7389   5.571   4.101   5.453 -0.0937  0.3264 -0.1057
  976poe    c23 7390   5.434   4.106   5.523  0.0032 -0.0625  0.1121
  976poe     o2 7391   5.341   4.194   5.465  0.1960  0.3928  0.4820
  976poe    c31 7392   5.225   4.202   5.545 -0.2525 -0.5010 -0.0633
  977poe    c31 7393   0.277   5.451   2.004 -0.1004 -0.5830 -0.0157
  977poe     o2 7394   0.400   5.399   2.049  0.1443  0.1546  0.1884
  977poe    c23 7395   0.440   5.316   1.941 -0.4939  0.2511 -0.1299
  977poe    c23 7396   0.578   5.256   1.973 -0.5751 -0.2214 -0.6646
  977poe     o2 7397   0.678   5.353   1.952 -0.1834 -0.4748 -0.0047
  977poe    c23 7398   0.801   5.296   1.991 -0.1007 -0.0110  0.4173
  977poe    c23 7399   0.911   5.385   1.929 -0.1547  0.0120  0.3532
  977poe     o2 7400   0.888   5.524   1.935  0.5242  0.1420  0.0345
  977poe    c23 7401   1.004   5.602   1.913  0.6619  0.0075  0.2748
  977poe    c23 7402   0.990   5.746   1.965 -0.5257 -0.0201  0.0586
  977poe     o2 7403   0.885   5.818   1.903  0.2407  0.1729 -1.0429
  977poe    c31 7404   0.898   5.949   1.952  0.2442  0.0557 -0.7272
  978poe    c31 7405   3.582   4.287   1.275  0.1981 -0.6036 -0.1772
  978poe     o2 7406   3.512   4.320   1.157 -0.2831 -0.0037  0.2750
  978poe    c23 7407   3.608   4.384   1.076 -0.3519 -0.1130  0.1072
  978poe    c23 7408   3.564   4.391   0.929 -0.5040 -0.3378  0.1404
  978poe     o2 7409   3.514   4.261   0.907 -0.3299 -0.3333 -0.2971
  978poe    c23 7410   3.441   4.237   0.789 -0.0979 -0.1481 -0.4794
  978poe    c23 7411   3.296   4.283   0.815  0.1525  0.0102  0.7023
  978poe     o2 7412   3.267   4.220   0.937 -0.3951  0.0439  0.5933
  978poe    c23 7413   3.150   4.275   0.993 -0.6520 -0.3124  0.4089
  978poe    c23 7414   3.147   4.218   1.136 -0.7630 -0.3321  0.3988
  978poe     o2 7415   3.276   4.220   1.194 -0.6690 -0.3943  0.1924
  978poe    c31 7416   3.268   4.177   1.328 -0.6693 -0.5258  0.1497
  979poe    c31 7417   0.542   3.998   5.026  0.0457 -0.6636  0.5124
  979poe     o2 7418   0.412   3.988   5.080 -0.3439  0.2813 -0.2217
  979poe    c23 7419   0.380   3.873   5.156 -0.2657  0.2318 -0.2628
  979poe    c23 7420   0.355   3.748   5.070  0.3140 -0.1053  0.0513
  979poe     o2 7421   0.234   3.744   4.998  0.2806 -0.8182  0.1413
  979poe    c23 7422   0.112   3.765   5.067  0.1807 -0.1516 -0.2292
  979poe    c23 7423  -0.013   3.703   5.002 -0.0490  0.2336 -0.1540
  979poe     o2 7424   0.019   3.697   4.865  0.1245  0.0951 -0.1074
  979poe    c23 7425  -0.097   3.674   4.788  0.1059 -0.1270 -0.0148
  979poe    c23 7426  -0.158   3.793   4.712 -0.2712 -0.3221 -0.0204
  979poe     o2 7427  -0.065   3.828   4.612 -0.4123  0.4431  0.1068
  979poe    c31 7428  -0.105   3.943   4.540 -0.4292  0.6645  0.4703
  980poe    c31 7429   6.471   6.043   2.191  0.5408  0.4805  0.1422
  980poe     o2 7430   6.465   6.067   2.052 -0.8496  0.4249  0.1796
  980poe    c23 7431   6.376   5.969   2.003 -0.8325  0.0540  0.8762
  980poe    c23 7432   6.357   5.996   1.853  0.2241 -0.0589  0.7116
  980poe     o2 7433   6.489   6.004   1.805 -0.1576 -0.0656 -0.3807
  980poe    c23 7434   6.486   6.004   1.664 -0.1717 -0.0377 -0.3807
  980poe    c23 7435   6.620   5.955   1.605 -0.0835  0.0592 -0.2623
  980poe     o2 7436   6.709   6.063   1.593 -0.1446  0.0997 -0.3493
  980poe    c23 7437   6.841   6.028   1.558 -0.0196 -0.2970  0.4943
  980poe    c23 7438   6.948   6.097   1.644 -0.3770  0.5375  0.2771
  980poe     o2 7439   6.950   6.238   1.643  0.1504  0.5316 -0.2032
  980poe    c31 7440   6.971   6.259   1.781  0.3633  0.3600 -0.2080
  981poe    c31 7441   3.744   5.156   1.817  0.7315 -0.5930 -0.3972
  981poe     o2 7442   3.749   5.286   1.764 -0.2870 -0.3595  0.0640
  981poe    c23 7443   3.644   5.288   1.670  0.1600  0.3858 -0.4320
  981poe    c23 7444   3.634   5.428   1.608 -0.5267  0.3271 -0.4642
  981poe     o2 7445   3.765   5.452   1.562 -0.3332  0.3535  0.0952
  981poe    c23 7446   3.794   5.567   1.485 -0.6568  0.1804 -0.2869
  981poe    c23 7447   3.946   5.584   1.492 -0.6719  0.1049  0.2808
  981poe     o2 7448   3.990   5.542   1.620 -0.0969 -0.1799 -0.0034
  981poe    c23 7449   4.124   5.498   1.621  0.0481  0.2503 -0.2320
  981poe    c23 7450   4.150   5.466   1.769 -0.1615 -0.5742 -0.3713
  981poe     o2 7451   4.031   5.406   1.814 -0.1392 -0.2332  0.1542
  981poe    c31 7452   4.051   5.339   1.937  0.3741 -0.1018  0.1437
  982poe    c31 7453   1.121   3.820   2.433  0.0386 -0.0542 -0.1858
  982poe     o2 7454   1.249   3.810   2.493  0.3805  0.5673 -0.7865
  982poe    c23 7455   1.300   3.679   2.498 -0.0193  0.4016 -0.9759
  982poe    c23 7456   1.449   3.703   2.526 -0.0586 -0.5250  0.1313
  982poe     o2 7457   1.476   3.823   2.597  0.3200 -0.3028 -0.3802
  982poe    c23 7458   1.605   3.808   2.652  0.4903  0.1086 -0.6598
  982poe    c23 7459   1.653   3.926   2.738  0.3157 -0.1283 -0.2309
  982poe     o2 7460   1.627   3.960   2.872  0.4845 -0.1050 -0.2042
  982poe    c23 7461   1.599   3.859   2.967  0.0274  0.1222 -0.0939
  982poe    c23 7462   1.637   3.915   3.105  0.8215  0.5000 -0.4602
  982poe     o2 7463   1.564   3.876   3.219  0.1137  0.6228 -0.8667
  982poe    c31 7464   1.610   3.956   3.326 -0.0472  0.8024 -0.9293
  983poe    c31 7465   4.060   1.950   6.320 -0.5781 -0.5236  0.0069
  983poe     o2 7466   4.060   1.812   6.350  0.1601 -0.5196  0.0588
  983poe    c23 7467   4.126   1.739   6.250  0.1937 -0.1628 -0.1812
  983poe    c23 7468   4.024   1.637   6.196 -0.0522  0.3235 -0.6482
  983poe     o2 7469   3.983   1.522   6.266  0.4410  0.3973 -0.2352
  983poe    c23 7470   3.878   1.449   6.206  0.5476 -0.2494  0.3431
  983poe    c23 7471   3.858   1.326   6.296  0.5878 -0.2747  0.3178
  983poe     o2 7472   3.857   1.375   6.429 -0.6780  0.2837  0.1151
  983poe    c23 7473   3.860   1.265   6.517 -0.1319  0.5577  0.4382
  983poe    c23 7474   3.849   1.314   6.663  0.1078 -0.5828  0.8500
  983poe     o2 7475   3.970   1.387   6.671 -0.2522  0.1132  0.0978
  983poe    c31 7476   3.988   1.448   6.796  0.2800  0.3357 -0.0880
  984poe    c31 7477   5.097   4.698   3.137 -0.2299 -0.2981  0.5151
  984poe     o2 7478   5.206   4.777   3.180 -0.0946 -0.0390 -0.2846
  984poe    c23 7479   5.193   4.832   3.309  0.4754  0.1445 -0.3024
  984poe    c23 7480   5.289   4.943   3.352  0.4794 -0.0536  0.2125
  984poe     o2 7481   5.326   4.995   3.225  0.0228  0.2259  0.1926
  984poe    c23 7482   5.454   5.054   3.226  0.2557 -0.2776  0.5763
  984poe    c23 7483   5.505   5.060   3.081 -0.0239 -0.3670  0.4727
  984poe     o2 7484   5.474   4.934   3.026 -0.0133 -0.0402 -0.2908
  984poe    c23 7485   5.585   4.866   2.974  0.1015 -0.1879  0.1409
  984poe    c23 7486   5.524   4.747   2.898 -0.2891  0.2782 -0.2816
  984poe     o2 7487   5.404   4.722   2.967 -0.2324 -0.0219 -0.2875
  984poe    c31 7488   5.359   4.597   2.922  0.2956 -0.3402  0.0547
  985poe    c31 7489   6.825   5.399   2.203 -0.1248 -0.1658 -0.4297
  985poe     o2 7490   6.934   5.310   2.214 -0.3427 -0.3559  0.2309
  985poe    c23 7491   6.890   5.193   2.148 -0.0832  0.0900 -0.7591
  985poe    c23 7492   7.021   5.114   2.132 -0.1218 -0.1983  0.2573
  985poe     o2 7493   7.082   5.127   2.258 -0.3455 -0.0966  0.3554
  985poe    c23 7494   7.194   5.044   2.282 -0.1319  0.1492  0.2202
  985poe    c23 7495   7.254   5.047   2.424 -0.0621 -0.1683  0.1983
  985poe     o2 7496   7.252   5.182   2.464  0.1788 -0.1366  0.1049
  985poe    c23 7497   7.349   5.271   2.415 -0.2939  0.4709  0.2616
  985poe    c23 7498   7.295   5.414   2.429  0.1571  0.6570  0.1385
  985poe     o2 7499   7.171   5.432   2.365  0.2826  0.1941 -0.2346
  985poe    c31 7500   7.132   5.565   2.393  0.2890  0.1972 -0.2398
  986poe    c31 7501   0.321   4.880   5.008  0.6667  0.2631 -0.0307
  986poe     o2 7502   0.374   4.839   4.884  0.1234 -0.1425 -0.1370
  986poe    c23 7503   0.407   4.953   4.808  0.3521 -0.1086  0.0087
  986poe    c23 7504   0.465   4.895   4.677  0.3635  0.3081 -0.1724
  986poe     o2 7505   0.538   4.788   4.732 -0.1548 -0.0731 -0.2209
  986poe    c23 7506   0.585   4.693   4.639  0.4155  0.0187 -0.0273
  986poe    c23 7507   0.661   4.591   4.726 -0.0612 -0.5561 -0.2733
  986poe     o2 7508   0.570   4.561   4.829  0.0708  0.0871  0.0414
  986poe    c23 7509   0.622   4.481   4.933  0.3634  0.4567  0.1822
  986poe    c23 7510   0.502   4.446   5.023 -0.1252  0.3127 -0.5176
  986poe     o2 7511   0.416   4.555   5.046  0.0603  0.2862  0.3323
  986poe    c31 7512   0.322   4.514   5.143  0.0604 -0.7752 -0.1045
  987poe    c31 7513   2.443   5.449   4.290  0.1345 -0.0968  0.2634
  987poe     o2 7514   2.321   5.391   4.248  0.2284 -0.4780  0.5095
  987poe    c23 7515   2.326   5.381   4.108 -0.3502  0.2013  0.4290
  987poe    c23 7516   2.206   5.290   4.074 -0.0946  0.1115 -0.2636
  987poe     o2 7517   2.111   5.329   4.171  0.0283 -0.2910  0.0205
  987poe    c23 7518   2.002   5.242   4.146 -0.0906 -0.1441  0.0302
  987poe    c23 7519   1.869   5.286   4.210 -0.1579  0.2273 -0.3578
  987poe     o2 7520   1.874   5.318   4.348 -0.0346  0.3429 -0.3889
  987poe    c23 7521   1.917   5.214   4.433  0.5431  0.5658 -0.4086
  987poe    c23 7522   2.020   5.263   4.536  0.2020  0.0157  0.1991
  987poe     o2 7523   2.139   5.312   4.477 -0.0936  0.2039 -0.2441
  987poe    c31 7524   2.228   5.346   4.582  0.4051  0.2474 -0.6783
  988poe    c31 7525   5.583   3.571   1.713 -0.1323  0.0682 -0.1247
  988poe     o2 7526   5.606   3.551   1.575  0.0180  0.3199 -0.1358
  988poe    c23 7527   5.484   3.513   1.518  0.0385 -0.2229  0.1759
  988poe    c23 7528   5.514   3.499   1.367 -0.4909  0.0027  0.0459
  988poe     o2 7529   5.648   3.457   1.351 -0.4984  0.1841 -0.4963
  988poe    c23 7530   5.688   3.485   1.219 -0.4404 -0.3239 -0.5873
  988poe    c23 7531   5.838   3.449   1.210 -0.3820 -0.2936  0.2122
  988poe     o2 7532   5.912   3.522   1.305 -0.1473  0.0163 -0.2063
  988poe    c23 7533   5.950   3.652   1.266  0.2161 -0.2511 -0.7607
  988poe    c23 7534   5.975   3.737   1.393 -0.7173 -0.2469 -0.5780
  988poe     o2 7535   5.858   3.738   1.473 -0.1025 -0.1976  0.3341
  988poe    c31 7536   5.861   3.816   1.590 -0.5088 -0.1792  0.3338
  989poe    c31 7537   1.010   1.027   5.365  0.0435  0.3413  0.0244
  989poe     o2 7538   0.905   0.951   5.310  0.1232  0.3873 -0.1892
  989poe    c23 7539   0.892   0.837   5.392  0.7528 -0.1285 -0.7857
  989poe    c23 7540   0.748   0.787   5.370  0.5222  0.1892 -0.0313
  989poe     o2 7541   0.705   0.750   5.241 -0.5408  0.0884  0.3465
  989poe    c23 7542   0.568   0.781   5.225 -0.4924  0.1213  0.0047
  989poe    c23 7543   0.498   0.696   5.117 -0.3305 -0.1084  0.0823
  989poe     o2 7544   0.542   0.711   4.984 -0.4822 -0.2018  0.0214
  989poe    c23 7545   0.474   0.635   4.887 -0.3220  0.0784 -0.3134
  989poe    c23 7546   0.520   0.677   4.746 -0.1043 -0.1515 -0.3111
  989poe     o2 7547   0.650   0.729   4.746 -0.4490  0.7358  0.2935
  989poe    c31 7548   0.684   0.814   4.637 -0.1512  0.4861  0.1884
  990poe    c31 7549   5.742   5.259   0.367  1.1812 -0.2848 -0.1902
  990poe     o2 7550   5.686   5.135   0.332  0.1173  0.0308  0.3627
  990poe    c23 7551   5.639   5.064   0.444 -0.6762  0.0394  0.0461
  990poe    c23 7552   5.540   4.952   0.407 -0.2624 -0.3059 -0.0194
  990poe     o2 7553   5.416   5.008   0.371  0.0078  0.0879 -0.3483
  990poe    c23 7554   5.320   4.909   0.341  0.2848 -0.3881  0.3123
  990poe    c23 7555   5.183   4.977   0.324  0.5666  0.0575 -0.2108
  990poe     o2 7556   5.196   5.082   0.231 -0.0026 -0.1147 -0.4923
  990poe    c23 7557   5.079   5.157   0.207  0.3254  0.7959  0.6719
  990poe    c23 7558   5.117   5.247   0.087  0.2019 -0.3032 -0.2071
  990poe     o2 7559   5.253   5.277   0.106  0.3314 -0.9451 -0.0763
  990poe    c31 7560   5.288   5.361  -0.002 -0.8688 -0.4390 -0.0838
  991poe    c31 7561   1.704   3.771   3.673  0.1467 -0.4039  0.4173
  991poe     o2 7562   1.675   3.657   3.594 -0.1518 -0.2530  0.3087
  991poe    c23 7563   1.616   3.566   3.684 -0.5021 -0.2061  0.1304
  991poe    c23 7564   1.532   3.468   3.601 -0.0712  0.0064 -0.5626
  991poe     o2 7565   1.392   3.489   3.596 -0.0826  0.0313 -0.1773
  991poe    c23 7566   1.335   3.465   3.722  0.3050  0.3723  0.0661
  991poe    c23 7567   1.188   3.511   3.722  0.2510  0.2023 -0.0734
  991poe     o2 7568   1.155   3.455   3.597 -0.1567  0.1546  0.0521
  991poe    c23 7569   1.019   3.454   3.561 -0.1209  0.3872 -0.0908
  991poe    c23 7570   0.997   3.368   3.435  0.1780  0.0934  0.0580
  991poe     o2 7571   1.112   3.388   3.356  0.2781 -0.8708 -0.0552
  991poe    c31 7572   1.084   3.324   3.233  0.2870 -0.9239 -0.0297
  992poe    c31 7573   5.654   2.657   4.087 -0.3510  0.4259  0.5419
  992poe     o2 7574   5.724   2.657   4.209  0.4348  0.0177  0.1039
  992poe    c23 7575   5.635   2.704   4.308  0.1775 -0.1141 -0.0642
  992poe    c23 7576   5.689   2.673   4.449  0.1367 -0.3588 -0.1017
  992poe     o2 7577   5.727   2.538   4.463  0.8682 -0.1509 -0.0352
  992poe    c23 7578   5.731   2.508   4.600  0.5497  0.4446  0.1057
  992poe    c23 7579   5.854   2.425   4.642 -0.0307 -0.2531  0.4536
  992poe     o2 7580   5.866   2.295   4.589  0.5186 -0.1578  0.3358
  992poe    c23 7581   5.980   2.279   4.507  0.0788  0.6375 -0.4549
  992poe    c23 7582   5.963   2.163   4.408  0.3548  0.4569 -0.2885
  992poe     o2 7583   5.857   2.180   4.317 -0.2666  0.2842  0.3930
  992poe    c31 7584   5.826   2.050   4.273  0.4052  0.0568  0.5807
  993poe    c31 7585   2.453   1.551   2.686  0.1811 -0.2214 -0.1962
  993poe     o2 7586   2.323   1.581   2.730  0.1476 -0.3920 -0.1794
  993poe    c23 7587   2.326   1.703   2.801 -0.0924 -0.2153 -0.4663
  993poe    c23 7588   2.184   1.760   2.816  0.1966  0.5428 -0.6016
  993poe     o2 7589   2.108   1.721   2.704 -0.3968 -0.3613  0.1048
  993poe    c23 7590   1.993   1.801   2.693 -0.3188 -0.2409  0.1650
  993poe    c23 7591   1.899   1.767   2.576  0.0520 -0.0508 -0.1920
  993poe     o2 7592   1.820   1.652   2.597 -0.0410  0.0885  0.2353
  993poe    c23 7593   1.743   1.624   2.482  0.3755  0.5361 -0.1542
  993poe    c23 7594   1.600   1.680   2.495 -0.2170 -0.6916 -1.2095
  993poe     o2 7595   1.515   1.637   2.598 -0.1743  0.3208 -0.7414
  993poe    c31 7596   1.387   1.696   2.597 -0.3263  0.0225 -0.0440
  994poe    c31 7597   6.681   2.870   6.204  0.1873  0.3588 -0.1480
  994poe     o2 7598   6.698   2.822   6.073  0.1665 -0.0500 -0.0046
  994poe    c23 7599   6.569   2.781   6.031  0.0951 -0.3556  0.5099
  994poe    c23 7600   6.571   2.705   5.897 -0.1091  0.4300  0.0544
  994poe     o2 7601   6.601   2.793   5.791  0.1462 -0.1591 -0.3667
  994poe    c23 7602   6.544   2.737   5.675 -0.1716  0.3390 -0.4538
  994poe    c23 7603   6.572   2.851   5.575 -0.3768  0.1347 -0.7444
  994poe     o2 7604   6.710   2.870   5.558 -0.3125  0.0522 -0.3315
  994poe    c23 7605   6.732   2.960   5.451 -0.3037  0.6585  0.1782
  994poe    c23 7606   6.874   3.015   5.474 -0.1478  0.2268  0.2588
  994poe     o2 7607   6.901   3.050   5.608 -0.0567 -0.0924  0.3255
  994poe    c31 7608   7.031   3.105   5.605 -0.2058  0.2450 -0.4560
  995poe    c31 7609   6.698   1.252   6.730  0.1059 -0.1327 -0.3193
  995poe     o2 7610   6.675   1.115   6.709 -0.2416 -0.1191 -0.0331
  995poe    c23 7611   6.610   1.053   6.818 -0.9595 -0.3279 -0.5719
  995poe    c23 7612   6.612   0.905   6.776 -0.0304 -0.2974 -0.6552
  995poe     o2 7613   6.734   0.840   6.751  0.1972 -0.0224 -0.2627
  995poe    c23 7614   6.819   0.830   6.863 -0.0518 -0.0984 -0.0802
  995poe    c23 7615   6.930   0.726   6.840  0.4694  0.3777  0.2428
  995poe     o2 7616   6.969   0.718   6.705  0.5003  0.0852  0.2685
  995poe    c23 7617   7.092   0.650   6.691  0.4913  0.1284 -0.0189
  995poe    c23 7618   7.126   0.593   6.552  0.0819 -0.3026  0.0577
  995poe     o2 7619   7.115   0.695   6.455 -0.0490 -0.2093  0.1693
  995poe    c31 7620   7.211   0.667   6.355 -0.1115 -0.5215  0.1958
  996poe    c31 7621   6.092   1.980   2.237 -1.3382 -0.3535 -0.2051
  996poe     o2 7622   6.059   2.020   2.368 -0.6733 -0.3052 -0.0484
  996poe    c23 7623   5.987   2.141   2.366  0.5093  0.4185  0.0409
  996poe    c23 7624   5.959   2.178   2.512  0.0839  0.4552 -0.0488
  996poe     o2 7625   6.065   2.136   2.594 -0.2688  0.1168  0.2403
  996poe    c23 7626   6.108   2.244   2.673  0.5028  0.1175 -0.1710
  996poe    c23 7627   6.214   2.226   2.784 -0.1197  0.0981  0.4279
  996poe     o2 7628   6.330   2.164   2.733 -0.3299 -0.0167  0.0841
  996poe    c23 7629   6.435   2.171   2.827 -0.1716 -0.5379 -0.0511
  996poe    c23 7630   6.510   2.037   2.834  0.2037 -0.3192  0.1342
  996poe     o2 7631   6.554   2.001   2.705  0.1894  0.1237  0.0031
  996poe    c31 7632   6.657   1.904   2.712  0.4377  0.3743 -0.1791
  997poe    c31 7633   4.297   4.364   3.275  0.0341  0.1491  0.1010
  997poe     o2 7634   4.369   4.458   3.199 -0.2132  0.1609 -0.1180
  997poe    c23 7635   4.497   4.409   3.165 -0.3512 -0.5165  0.3313
  997poe    c23 7636   4.611   4.405   3.269  0.2768  0.0692 -0.3277
  997poe     o2 7637   4.640   4.542   3.290 -0.0603  0.0940  0.0135
  997poe    c23 7638   4.735   4.567   3.391 -0.1577  0.0113  0.1258
  997poe    c23 7639   4.733   4.718   3.420 -0.2879  0.0094  0.1302
  997poe     o2 7640   4.747   4.790   3.299  0.0156 -0.2301  0.0204
  997poe    c23 7641   4.740   4.930   3.315  0.0323 -0.2392  0.1077
  997poe    c23 7642   4.715   4.987   3.174  0.0069  0.5009  0.4082
  997poe     o2 7643   4.638   4.906   3.089  0.7501  0.0538  0.1519
  997poe    c31 7644   4.599   4.983   2.977  0.7126 -0.0916  0.0642
  998poe    c31 7645   0.840   1.274   2.803 -0.2513  0.7563 -0.7497
  998poe     o2 7646   0.745   1.376   2.818 -0.5726  0.3242  0.1644
  998poe    c23 7647   0.677   1.393   2.696  0.5427  0.5488 -0.4364
  998poe    c23 7648   0.571   1.504   2.715  0.1614  0.1860 -0.4259
  998poe     o2 7649   0.650   1.603   2.778  0.1619  0.1165 -0.3157
  998poe    c23 7650   0.596   1.732   2.787  0.0163  0.0425 -0.1274
  998poe    c23 7651   0.636   1.798   2.920  0.1498 -0.4157  0.0598
  998poe     o2 7652   0.647   1.697   3.018 -0.4772 -0.3815  0.1670
  998poe    c23 7653   0.526   1.658   3.079 -0.6259 -0.1953 -0.0085
  998poe    c23 7654   0.544   1.518   3.140 -0.3932 -0.0395  0.2822
  998poe     o2 7655   0.578   1.431   3.034  0.5028  0.1530  0.3988
  998poe    c31 7656   0.523   1.303   3.061  0.6335 -0.0617 -0.3409
  999poe    c31 7657   0.073   5.985   6.491 -0.3825  0.1743  1.1582
  999poe     o2 7658   0.156   5.907   6.574  0.2310  0.2582  0.6305
  999poe    c23 7659   0.280   5.973   6.587  0.2832  0.5310 -1.0105
  999poe    c23 7660   0.400   5.882   6.555 -0.0866 -0.3005 -0.1017
  999poe     o2 7661   0.370   5.771   6.636 -1.0604  0.2265  0.2774
  999poe    c23 7662   0.473   5.675   6.632 -0.6269  0.6915  0.2089
  999poe    c23 7663   0.396   5.556   6.694 -0.5978  0.5087 -0.1048
  999poe     o2 7664   0.266   5.538   6.644 -0.5959  0.1025  0.0393
  999poe    c23 7665   0.220   5.404   6.649  0.4596 -0.2744 -0.2215
  999poe    c23 7666   0.072   5.381   6.614  0.4416 -0.2789 -0.1405
  999poe     o2 7667  -0.013   5.450   6.702  0.1401 -0.5465 -0.2214
  999poe    c31 7668  -0.141   5.391   6.689 -0.2907  0.3710 -0.2078
 1000poe    c31 7669   4.091   0.920   2.416  0.0023 -0.4600 -0.2457
 1000poe     o2 7670   4.003   0.810   2.406 -0.3143 -0.3034  0.7495
 1000poe    c23 7671   4.037   0.724   2.512  0.4371  0.0621  0.8113
 1000poe    c23 7672   3.948   0.599   2.502  0.4229  0.0983  0.4722
 1000poe     o2 7673   3.815   0.627   2.464  0.3860 -0.0886  0.4609
 1000poe    c23 7674   3.732   0.514   2.469  0.2916 -0.0477 -0.0837
 1000poe    c23 7675   3.600   0.535   2.393  0.5542 -0.5224 -0.6821
 1000poe     o2 7676   3.593   0.517   2.253 -0.2187 -0.4485 -0.6609
 1000poe    c23 7677   3.461   0.520   2.204 -0.4425  0.0835 -0.0355
 1000poe    c23 7678   3.443   0.429   2.081  0.1387 -0.1638  0.0594
 1000poe     o2 7679   3.442   0.289   2.094 -0.4902 -0.2084 -0.4296
 1000poe    c31 7680   3.569   0.227   2.087 -0.4194 -0.1756  0.4374
 1001poe    c31 7681   0.594   3.858   3.048  0.1353  0.0213 -0.1982
 1001poe     o2 7682   0.498   3.955   3.084  0.0995 -0.0270 -0.1630
 1001poe    c23 7683   0.377   3.939   3.012 -0.0236  0.1201  0.0096
 1001poe    c23 7684   0.282   4.060   3.025  0.2900  0.3777 -0.0567
 1001poe     o2 7685   0.302   4.128   3.147 -0.2900  0.4016  0.0281
 1001poe    c23 7686   0.201   4.225   3.163 -0.2720  0.4818 -0.3323
 1001poe    c23 7687   0.208   4.306   3.294  0.2992 -0.1193  0.0137
 1001poe     o2 7688   0.328   4.379   3.299 -0.1491  0.6395 -0.2477
 1001poe    c23 7689   0.306   4.503   3.364  0.0389  0.4591  0.1607
 1001poe    c23 7690   0.409   4.599   3.302  0.5276  0.0771  0.3761
 1001poe     o2 7691   0.371   4.624   3.169 -0.3366 -0.2710  0.5505
 1001poe    c31 7692   0.477   4.681   3.095 -0.4535 -0.3658  0.3104
 1002poe    c31 7693   2.666   3.145   3.476  0.5595 -0.3940 -0.0288
 1002poe     o2 7694   2.654   3.244   3.376  1.0057 -0.5509 -0.2397
 1002poe    c23 7695   2.693   3.370   3.423  0.0093 -0.0493 -0.7175
 1002poe    c23 7696   2.831   3.401   3.362  0.0649  0.9217 -0.1209
 1002poe     o2 7697   2.936   3.321   3.411 -0.4572  0.3438  0.0621
 1002poe    c23 7698   2.995   3.367   3.530 -0.0529  0.3597 -0.1454
 1002poe    c23 7699   3.091   3.259   3.584 -0.1862 -0.2453 -1.0995
 1002poe     o2 7700   3.210   3.217   3.522  0.3267 -0.2809 -0.1079
 1002poe    c23 7701   3.307   3.318   3.505  0.3096 -0.2237  0.1459
 1002poe    c23 7702   3.429   3.243   3.448  0.0794 -0.2846 -0.2644
 1002poe     o2 7703   3.389   3.157   3.343 -0.5764  0.2870 -0.4947
 1002poe    c31 7704   3.500   3.158   3.257  0.0906 -0.1549  0.3478
 1003poe    c31 7705   2.136   5.307   0.413 -0.1549  0.0299 -0.2859
 1003poe     o2 7706   2.216   5.304   0.529  0.3311 -0.5753 -0.6297
 1003poe    c23 7707   2.201   5.175   0.583 -0.3189 -0.1296  0.2940
 1003poe    c23 7708   2.317   5.167   0.684 -0.0251 -0.4122 -0.0618
 1003poe     o2 7709   2.336   5.287   0.755  0.4255 -0.4196 -0.1705
 1003poe    c23 7710   2.438   5.289   0.853  0.5423  0.2026 -0.3008
 1003poe    c23 7711   2.433   5.440   0.884  0.5299  0.2651 -0.6082
 1003poe     o2 7712   2.446   5.495   0.755 -0.8369  0.2924 -0.7488
 1003poe    c23 7713   2.405   5.630   0.753 -0.7693  0.3199 -0.3848
 1003poe    c23 7714   2.387   5.668   0.605 -0.3754  0.3375 -0.4280
 1003poe     o2 7715   2.280   5.590   0.556 -0.0145 -0.2914 -0.2180
 1003poe    c31 7716   2.268   5.614   0.418  0.0673  0.5803 -0.0789
 1004poe    c31 7717   0.178   2.415   4.967  0.0035  0.4855 -0.1182
 1004poe     o2 7718   0.128   2.413   5.098 -0.3822 -0.4558 -0.2761
 1004poe    c23 7719   0.195   2.342   5.200 -0.4800 -0.7447 -0.4115
 1004poe    c23 7720   0.113   2.325   5.329  0.3744 -0.3001  0.2010
 1004poe     o2 7721   0.104   2.447   5.399 -0.4404 -0.0372 -0.3486
 1004poe    c23 7722  -0.007   2.437   5.485 -0.0865 -0.0660  0.1079
 1004poe    c23 7723   0.014   2.567   5.565 -0.3750  0.2468 -0.3194
 1004poe     o2 7724   0.137   2.575   5.633 -0.0907  0.1871 -0.8240
 1004poe    c23 7725   0.152   2.706   5.684  0.1586  0.1156 -0.7136
 1004poe    c23 7726   0.305   2.717   5.699  0.1340 -0.2686 -0.1340
 1004poe     o2 7727   0.375   2.646   5.599  0.4426  0.0754 -0.1624
 1004poe    c31 7728   0.514   2.646   5.623  0.3002  0.9214  0.7033
 1005poe    c31 7729   5.124   1.700   5.959 -0.4388  0.4274  0.2354
 1005poe     o2 7730   5.209   1.746   5.856  0.0657 -0.2062  0.3613
 1005poe    c23 7731   5.214   1.887   5.867  0.1051 -0.0557 -1.3319
 1005poe    c23 7732   5.283   1.966   5.755 -0.1069  0.9625 -0.7572
 1005poe     o2 7733   5.409   1.904   5.740 -0.5878 -0.0905 -0.5207
 1005poe    c23 7734   5.463   1.928   5.612  0.6316  0.5371  0.0907
 1005poe    c23 7735   5.566   1.822   5.570  0.1746  0.0385  0.2154
 1005poe     o2 7736   5.505   1.702   5.611  0.0002  0.1903  0.4008
 1005poe    c23 7737   5.600   1.605   5.651 -0.0734 -0.1323 -0.2040
 1005poe    c23 7738   5.606   1.621   5.804 -0.1184 -0.1192 -0.2035
 1005poe     o2 7739   5.474   1.623   5.851 -0.0514  0.4307 -0.0430
 1005poe    c31 7740   5.467   1.613   5.992 -0.4973 -0.3768 -0.1197
 1006poe    c31 7741   0.093   2.144   1.065 -0.9617  0.2368  0.1021
 1006poe     o2 7742   0.136   2.268   1.012 -0.0035  0.2688  0.9152
 1006poe    c23 7743   0.066   2.377   1.067 -1.0910  0.2519 -0.3824
 1006poe    c23 7744   0.064   2.498   0.971  0.2892  0.6752  0.1030
 1006poe     o2 7745  -0.017   2.498   0.855 -0.3724 -0.4848  0.5522
 1006poe    c23 7746   0.010   2.395   0.763 -0.1051  0.1509 -0.0855
 1006poe    c23 7747  -0.116   2.378   0.676 -0.0612 -0.3388 -0.0557
 1006poe     o2 7748  -0.153   2.504   0.626 -0.2915 -0.2859  0.2413
 1006poe    c23 7749  -0.238   2.488   0.515  0.6993 -0.2128 -0.5426
 1006poe    c23 7750  -0.250   2.634   0.464  0.1007 -0.3461 -0.7949
 1006poe     o2 7751  -0.300   2.715   0.568  0.2843 -0.3166 -0.7292
 1006poe    c31 7752  -0.302   2.851   0.533 -0.0408 -0.2531 -0.4648
 1007poe    c31 7753   6.822   2.609   2.519 -0.8875 -0.0946  0.3807
 1007poe     o2 7754   6.822   2.475   2.474 -0.1702  0.0527 -0.0841
 1007poe    c23 7755   6.721   2.407   2.545  0.8958 -0.8202  0.6263
 1007poe    c23 7756   6.695   2.260   2.510  0.0076 -0.5287  0.0293
 1007poe     o2 7757   6.672   2.234   2.373 -0.0272  0.4556 -0.1550
 1007poe    c23 7758   6.713   2.102   2.349 -0.5502  0.1898  0.3892
 1007poe    c23 7759   6.711   2.065   2.199 -0.3836  0.7695  0.2407
 1007poe     o2 7760   6.827   2.121   2.143 -0.0674 -0.2390 -0.1253
 1007poe    c23 7761   6.820   2.109   2.002  0.0180  0.7058 -0.2145
 1007poe    c23 7762   6.958   2.139   1.939  0.2834 -0.3904 -0.1777
 1007poe     o2 7763   7.013   2.239   2.021 -0.7127  0.1690 -0.1766
 1007poe    c31 7764   7.112   2.304   1.943 -0.2660 -0.0090  0.2402
 1008poe    c31 7765   1.433   1.981   2.214 -0.1482 -0.2373  0.2149
 1008poe     o2 7766   1.419   1.986   2.354  0.2273 -0.4046  0.2618
 1008poe    c23 7767   1.301   2.056   2.390  0.3142  0.0609 -0.3371
 1008poe    c23 7768   1.326   2.122   2.527 -0.6716  0.2931 -0.2653
 1008poe     o2 7769   1.417   2.228   2.511  0.3596 -0.5034  0.1864
 1008poe    c23 7770   1.441   2.302   2.629  0.1315 -0.0024 -0.0741
 1008poe    c23 7771   1.575   2.376   2.611  0.1170  0.0163 -0.1047
 1008poe     o2 7772   1.691   2.298   2.592 -0.1387 -0.3429 -0.2068
 1008poe    c23 7773   1.799   2.380   2.553  0.0581 -0.3821  0.2404
 1008poe    c23 7774   1.903   2.286   2.489  0.1334 -0.1960  0.0892
 1008poe     o2 7775   1.842   2.213   2.385 -0.4399  0.3544  0.0344
 1008poe    c31 7776   1.920   2.219   2.267 -0.6061 -0.1869 -0.1010
 1009poe    c31 7777   4.117   4.181   1.922 -0.0345  0.4257  0.6797
 1009poe     o2 7778   4.123   4.067   1.839 -0.3304  0.3892  0.7056
 1009poe    c23 7779   4.157   4.110   1.709  0.4250 -0.0049  0.7698
 1009poe    c23 7780   4.109   3.996   1.617  0.1117  0.1681  0.7196
 1009poe     o2 7781   4.020   3.918   1.694 -0.6139  0.3146  0.0443
 1009poe    c23 7782   3.943   3.837   1.608 -0.3728  0.1810 -0.0469
 1009poe    c23 7783   3.905   3.718   1.698  0.0969  0.2070  0.1900
 1009poe     o2 7784   3.882   3.751   1.833 -0.5704  0.2635  0.0649
 1009poe    c23 7785   3.925   3.651   1.924 -0.1718  0.3034 -0.0768
 1009poe    c23 7786   4.076   3.666   1.949 -0.1835 -0.1621  0.2872
 1009poe     o2 7787   4.102   3.803   1.973  0.0062 -0.1254 -0.1099
 1009poe    c31 7788   4.222   3.813   2.045  0.3093 -0.0872 -0.6216
 1010poe    c31 7789   5.403   5.847   6.886 -0.3107  0.5162 -0.2397
 1010poe     o2 7790   5.496   5.895   6.980 -0.1163  0.1646 -0.2499
 1010poe    c23 7791   5.628   5.844   6.974 -0.0343  0.3265  0.1466
 1010poe    c23 7792   5.644   5.768   7.107 -0.0655 -0.5914 -0.3726
 1010poe     o2 7793   5.592   5.855   7.204  0.5180  0.0302 -0.6125
 1010poe    c23 7794   5.535   5.776   7.306  0.5878 -0.4484 -0.9441
 1010poe    c23 7795   5.479   5.886   7.398  0.2437 -0.8629 -0.6580
 1010poe     o2 7796   5.395   5.952   7.305 -0.4217 -0.6804  0.0634
 1010poe    c23 7797   5.328   6.066   7.354 -0.0938 -0.4119 -0.1011
 1010poe    c23 7798   5.246   6.105   7.230 -0.6178  0.9627  0.6538
 1010poe     o2 7799   5.323   6.105   7.112 -0.5199  1.0378  0.7177
 1010poe    c31 7800   5.245   6.149   7.003  0.3500  0.4774 -0.1442
 1011poe    c31 7801   2.392   1.037   2.654  0.0243  0.4161  0.4367
 1011poe     o2 7802   2.294   1.005   2.751 -0.0669 -0.1934  0.1528
 1011poe    c23 7803   2.368   0.939   2.851  0.4049  0.6346  0.3664
 1011poe    c23 7804   2.297   0.936   2.988  0.3845 -0.5305  0.3449
 1011poe     o2 7805   2.173   0.869   2.974  0.1019  0.0149  0.1942
 1011poe    c23 7806   2.121   0.888   3.104  0.2693 -0.2128  0.2956
 1011poe    c23 7807   1.990   0.806   3.112 -0.0384  0.2237 -0.2080
 1011poe     o2 7808   1.926   0.850   2.994 -0.4439 -0.4030 -0.2220
 1011poe    c23 7809   1.787   0.826   2.997 -0.5029 -0.0087  0.2357
 1011poe    c23 7810   1.732   0.841   2.854 -0.1654 -0.2301  0.0823
 1011poe     o2 7811   1.828   0.796   2.762 -0.3358  0.9080 -0.6799
 1011poe    c31 7812   1.788   0.680   2.692 -0.0389 -0.1533  0.8481
 1012poe    c31 7813   1.830   2.482   4.338  0.2079 -0.3082  0.2135
 1012poe     o2 7814   1.711   2.407   4.340 -0.1169  0.2085  0.5430
 1012poe    c23 7815   1.690   2.324   4.227  0.1548  0.2059  0.4930
 1012poe    c23 7816   1.669   2.180   4.276  0.3445 -0.0120 -0.0652
 1012poe     o2 7817   1.580   2.192   4.385 -0.1065 -0.3162 -0.3936
 1012poe    c23 7818   1.560   2.076   4.462  0.6003 -0.1135  0.1130
 1012poe    c23 7819   1.496   2.142   4.586  0.5332 -0.8169  0.4555
 1012poe     o2 7820   1.558   2.266   4.609  0.2132 -0.5920  0.1191
 1012poe    c23 7821   1.483   2.339   4.703  0.3700  0.1747 -0.3448
 1012poe    c23 7822   1.537   2.484   4.702  0.0405  0.3053  0.3800
 1012poe     o2 7823   1.608   2.514   4.584 -0.6241  0.2308 -0.0472
 1012poe    c31 7824   1.610   2.654   4.569 -0.0874  0.1980 -0.3103
 1013poe    c31 7825   2.134   4.065   3.277  0.2197 -0.5431  0.1978
 1013poe     o2 7826   2.189   4.184   3.226  0.1930 -0.3725  0.5617
 1013poe    c23 7827   2.323   4.204   3.267  0.3948 -0.2508 -0.1321
 1013poe    c23 7828   2.380   4.341   3.227 -0.0158 -0.0716 -0.1182
 1013poe     o2 7829   2.264   4.420   3.219 -0.0231 -0.0463  0.2208
 1013poe    c23 7830   2.282   4.557   3.187 -0.0497  0.0655  0.6812
 1013poe    c23 7831   2.135   4.604   3.191 -0.2851 -0.6074  0.1394
 1013poe     o2 7832   2.047   4.513   3.128  0.0992 -0.4975 -0.5677
 1013poe    c23 7833   1.911   4.547   3.140  0.1442 -0.3035 -0.6159
 1013poe    c23 7834   1.842   4.419   3.089 -0.2020 -0.1811 -0.4580
 1013poe     o2 7835   1.926   4.309   3.118 -0.0374  0.1398  0.3282
 1013poe    c31 7836   1.852   4.193   3.148 -0.0484 -0.0105 -0.2517
 1014poe    c31 7837   6.679   5.596   3.983 -0.0087 -0.7701  0.0480
 1014poe     o2 7838   6.584   5.606   3.879  0.0443  0.3496  0.0950
 1014poe    c23 7839   6.450   5.600   3.923 -0.1746 -0.0287 -0.6146
 1014poe    c23 7840   6.350   5.607   3.806 -0.1232 -0.0839 -0.6615
 1014poe     o2 7841   6.252   5.507   3.787 -0.0684 -0.2911  0.1383
 1014poe    c23 7842   6.301   5.375   3.787  0.5901 -0.0513 -0.1285
 1014poe    c23 7843   6.170   5.293   3.792  0.0347  0.8073 -0.3851
 1014poe     o2 7844   6.094   5.345   3.686  0.5526  0.3568 -0.9850
 1014poe    c23 7845   5.989   5.259   3.647  0.6572 -0.1205 -0.2156
 1014poe    c23 7846   5.899   5.330   3.545  0.2383 -0.3562 -0.0149
 1014poe     o2 7847   5.854   5.458   3.584 -0.3244 -0.3115 -0.7886
 1014poe    c31 7848   5.777   5.526   3.488 -0.2206  0.6430 -0.2050
 1015poe    c31 7849   0.979   2.099   3.191  0.0095 -0.1608  0.0524
 1015poe     o2 7850   0.873   2.059   3.275  0.1298  0.0141  0.2896
 1015poe    c23 7851   0.753   2.082   3.204  0.3983 -0.0609 -0.1951
 1015poe    c23 7852   0.648   2.176   3.267 -0.2116 -0.7413 -0.1846
 1015poe     o2 7853   0.622   2.141   3.401 -0.4268 -0.0961 -0.0591
 1015poe    c23 7854   0.580   2.237   3.496 -0.0481 -0.4715  0.4966
 1015poe    c23 7855   0.702   2.325   3.529 -0.6727  0.3550  0.6499
 1015poe     o2 7856   0.816   2.248   3.561 -0.4908  0.2372 -0.2350
 1015poe    c23 7857   0.927   2.334   3.574 -0.4386  0.1435 -0.0499
 1015poe    c23 7858   1.034   2.231   3.614 -0.8569 -0.1454  0.3388
 1015poe     o2 7859   1.034   2.138   3.508  0.1056  0.1211  0.0957
 1015poe    c31 7860   1.135   2.043   3.532  0.5423  0.6169  0.2512
 1016poe    c31 7861   3.293   2.869   1.731  0.9910 -0.3573  0.1326
 1016poe     o2 7862   3.260   2.940   1.613  0.4878 -1.0409 -0.1443
 1016poe    c23 7863   3.192   2.859   1.520 -0.3277 -0.2893 -0.2121
 1016poe    c23 7864   3.108   2.937   1.417 -0.4229 -0.0056  0.0798
 1016poe     o2 7865   3.144   3.072   1.437  0.6716 -0.1875 -0.5897
 1016poe    c23 7866   3.097   3.152   1.331 -0.3133 -0.3441 -0.2867
 1016poe    c23 7867   3.073   3.298   1.374  0.2226 -0.2432 -0.3266
 1016poe     o2 7868   3.186   3.372   1.417  0.7041 -0.5557 -1.0295
 1016poe    c23 7869   3.227   3.484   1.343  0.0993 -0.0764 -0.6460
 1016poe    c23 7870   3.335   3.555   1.427 -0.1820 -0.2429 -0.1418
 1016poe     o2 7871   3.438   3.472   1.476  0.1026  0.0820 -0.1847
 1016poe    c31 7872   3.521   3.542   1.565  0.0321 -0.1420  0.0599
 1017poe    c31 7873   4.999   5.780   3.556 -0.3931  0.0502  0.0880
 1017poe     o2 7874   4.901   5.729   3.644 -0.0749  0.0315  0.4379
 1017poe    c23 7875   4.888   5.826   3.746  0.2361 -0.1708  0.6713
 1017poe    c23 7876   4.782   5.793   3.852 -0.5828 -0.3638 -0.1958
 1017poe     o2 7877   4.789   5.661   3.901  0.4723 -0.3154 -0.2124
 1017poe    c23 7878   4.890   5.642   3.998  0.5614  0.4377 -0.1480
 1017poe    c23 7879   4.895   5.495   4.046  0.4921  0.4622 -0.0660
 1017poe     o2 7880   4.870   5.409   3.937  0.5547  0.4257 -0.0517
 1017poe    c23 7881   4.892   5.275   3.977  0.5832  0.4900  0.1482
 1017poe    c23 7882   4.856   5.187   3.856  0.4284  0.1518  0.4395
 1017poe     o2 7883   4.719   5.201   3.825  0.4206 -0.5208  0.1689
 1017poe    c31 7884   4.666   5.091   3.754  0.4007 -0.6502  0.3831
 1018poe    c31 7885   6.883   1.988   5.601  0.3544  0.3190  0.4605
 1018poe     o2 7886   6.890   1.921   5.477 -0.3260  0.1408  0.5129
 1018poe    c23 7887   6.937   2.000   5.371  0.3757 -0.7687  0.1314
 1018poe    c23 7888   6.961   1.915   5.245  0.1748 -0.0190 -0.4243
 1018poe     o2 7889   7.063   1.818   5.258 -0.1075 -0.2659 -0.0195
 1018poe    c23 7890   7.036   1.737   5.147  0.0593  0.3571 -0.5202
 1018poe    c23 7891   7.143   1.626   5.153 -0.3403  0.0001  0.0663
 1018poe     o2 7892   7.161   1.604   5.291 -0.6421 -0.3250  0.0552
 1018poe    c23 7893   7.244   1.495   5.325 -0.6172 -0.2204  0.3339
 1018poe    c23 7894   7.241   1.473   5.477 -0.3630  0.0818  0.3831
 1018poe     o2 7895   7.313   1.583   5.527 -0.3493  0.2126  0.0718
 1018poe    c31 7896   7.348   1.566   5.662 -0.3360 -0.3072  0.0025
 1019poe    c31 7897   6.345   5.467   2.928 -0.6572  0.2735  0.2115
 1019poe     o2 7898   6.424   5.362   2.979 -0.6196  0.1905 -0.0174
 1019poe    c23 7899   6.480   5.403   3.102 -0.2200  0.0532 -0.1525
 1019poe    c23 7900   6.607   5.320   3.130 -0.4302 -0.3291 -0.3273
 1019poe     o2 7901   6.554   5.193   3.160 -0.8173 -0.0394  0.2382
 1019poe    c23 7902   6.636   5.088   3.112 -0.0733  0.5516  0.1993
 1019poe    c23 7903   6.658   5.077   2.960  0.3832  0.0650  0.2990
 1019poe     o2 7904   6.525   5.083   2.915  0.5478 -0.3444 -0.2477
 1019poe    c23 7905   6.500   5.069   2.777 -0.0676 -0.3327 -0.1420
 1019poe    c23 7906   6.348   5.047   2.766 -0.1280  0.0993 -0.1925
 1019poe     o2 7907   6.290   5.160   2.827 -0.0116 -0.0693  0.2334
 1019poe    c31 7908   6.150   5.164   2.812  0.1051 -0.3779 -1.0754
 1020poe    c31 7909   1.814   2.563   6.043  0.3390  0.1735  0.4626
 1020poe     o2 7910   1.884   2.679   6.001 -0.3057  0.4427  0.1093
 1020poe    c23 7911   1.929   2.758   6.109 -0.0917  0.3371  0.0986
 1020poe    c23 7912   2.060   2.822   6.060 -0.0982 -0.2963 -0.7768
 1020poe     o2 7913   2.042   2.872   5.930 -0.0680  0.1591 -0.6082
 1020poe    c23 7914   2.127   2.985   5.921  0.1464  0.0421 -0.0642
 1020poe    c23 7915   2.110   3.056   5.786  0.0945  0.7582  0.3149
 1020poe     o2 7916   1.974   3.073   5.754  0.0228  0.1268  0.2756
 1020poe    c23 7917   1.946   3.011   5.630 -0.1355 -0.1210  0.4354
 1020poe    c23 7918   1.811   2.937   5.639 -0.2342  0.0535  0.3842
 1020poe     o2 7919   1.804   2.841   5.742 -0.3783 -0.0937  0.2359
 1020poe    c31 7920   1.708   2.898   5.827 -0.1121  0.3017  0.2714
 1021poe    c31 7921   4.095   3.045   3.679  0.3644  0.5188 -0.1320
 1021poe     o2 7922   4.017   2.988   3.576  0.3663 -0.8300  0.5814
 1021poe    c23 7923   4.100   2.902   3.501  0.1027 -0.2947 -0.3395
 1021poe    c23 7924   4.065   2.880   3.352  0.2380 -0.1157 -0.3979
 1021poe     o2 7925   3.928   2.846   3.345 -0.0401  0.9741 -0.4535
 1021poe    c23 7926   3.877   2.854   3.214 -0.3068  0.6403 -0.3715
 1021poe    c23 7927   3.763   2.751   3.214  0.3762 -0.1280  0.0617
 1021poe     o2 7928   3.643   2.790   3.278 -0.0163 -0.1437 -0.6457
 1021poe    c23 7929   3.529   2.710   3.294  0.2089 -0.2100  0.8209
 1021poe    c23 7930   3.545   2.583   3.381 -0.1036 -0.6684  0.2207
 1021poe     o2 7931   3.652   2.492   3.366  0.3097 -0.2673  0.7105
 1021poe    c31 7932   3.632   2.396   3.265  0.0356  0.3247  0.1987
 1022poe    c31 7933   1.458   6.783   5.029 -0.1067 -0.2462  0.3388
 1022poe     o2 7934   1.536   6.828   5.137 -0.4443  0.2351  0.3831
 1022poe    c23 7935   1.537   6.969   5.131  1.0398  0.1988 -0.9449
 1022poe    c23 7936   1.662   7.023   5.203  0.3501  0.5673 -0.0060
 1022poe     o2 7937   1.668   6.957   5.328 -0.2061  0.2774 -0.1273
 1022poe    c23 7938   1.778   7.002   5.405 -0.4572  0.4485  0.1358
 1022poe    c23 7939   1.761   6.927   5.538 -0.1971 -0.1544 -0.1644
 1022poe     o2 7940   1.733   6.789   5.524 -0.2660 -0.1535 -0.0394
 1022poe    c23 7941   1.849   6.714   5.496 -0.1861  0.0090 -0.1484
 1022poe    c23 7942   1.817   6.604   5.394  0.6977 -0.0718 -0.3451
 1022poe     o2 7943   1.746   6.654   5.283 -0.5985 -0.1440  0.4333
 1022poe    c31 7944   1.782   6.582   5.167 -0.1570  0.4055  0.2249
 1023poe    c31 7945   0.136   5.827   3.620 -0.1557  0.6093  0.1710
 1023poe     o2 7946   0.195   5.955   3.626 -0.0398  0.5630  0.0356
 1023poe    c23 7947   0.236   6.003   3.500  0.0534  0.0214 -0.1444
 1023poe    c23 7948   0.275   6.151   3.518  0.0230  0.0666 -0.4399
 1023poe     o2 7949   0.391   6.166   3.597 -0.4317  0.4462  0.1680
 1023poe    c23 7950   0.419   6.299   3.636  0.2765  0.3787 -0.0875
 1023poe    c23 7951   0.554   6.293   3.709  0.1670 -0.2253  0.0733
 1023poe     o2 7952   0.537   6.200   3.814 -0.2578 -0.0875  0.1279
 1023poe    c23 7953   0.652   6.190   3.895 -0.0801  0.0148 -0.1119
 1023poe    c23 7954   0.635   6.078   3.999 -0.5591 -0.0669 -0.2760
 1023poe     o2 7955   0.589   5.972   3.918  0.0016 -0.0099 -0.6720
 1023poe    c31 7956   0.618   5.849   3.980 -0.1088  0.1477 -0.3107
 1024poe    c31 7957   1.286   3.491   1.741  0.0012 -0.6180  0.0743
 1024poe     o2 7958   1.176   3.403   1.725 -0.2349 -0.3162  0.0276
 1024poe    c23 7959   1.063   3.464   1.667  0.0098 -0.3629 -0.5021
 1024poe    c23 7960   0.951   3.361   1.645 -0.8369  0.4880 -0.2208
 1024poe     o2 7961   0.957   3.251   1.734 -0.4935  0.5828 -0.1244
 1024poe    c23 7962   0.859   3.154   1.703  0.2560 -0.2417  0.0414
 1024poe    c23 7963   0.867   3.037   1.803  0.2164 -0.0087  0.3189
 1024poe     o2 7964   0.978   2.965   1.756  0.2954  0.0668  0.3889
 1024poe    c23 7965   1.004   2.843   1.821 -0.1273 -0.3075 -0.1398
 1024poe    c23 7966   1.138   2.783   1.776 -0.0402 -0.2756  0.0793
 1024poe     o2 7967   1.250   2.860   1.813 -0.0915 -0.1948  0.0665
 1024poe    c31 7968   1.277   2.828   1.948  0.5593 -0.5587 -0.1412
 1025poe    c31 7969   5.420   5.065   0.861  1.5662  0.2251 -0.3709
 1025poe     o2 7970   5.458   4.931   0.883  0.3495  0.0471  0.8480
 1025poe    c23 7971   5.335   4.864   0.895  0.0496  0.3412 -0.3906
 1025poe    c23 7972   5.339   4.715   0.860 -0.2339  0.0918  0.5902
 1025poe     o2 7973   5.409   4.626   0.944  0.7159  0.1274 -0.1390
 1025poe    c23 7974   5.422   4.500   0.882  0.2597 -0.0462  0.1159
 1025poe    c23 7975   5.524   4.406   0.948  0.2993 -0.7791 -0.9725
 1025poe     o2 7976   5.651   4.467   0.956 -0.1858  0.1271  0.0392
 1025poe    c23 7977   5.740   4.380   1.024 -0.3645  0.3345  0.5391
 1025poe    c23 7978   5.866   4.461   1.058  0.6847 -0.7418 -0.7297
 1025poe     o2 7979   5.894   4.549   0.950  0.1331  0.2201 -0.0981
 1025poe    c31 7980   5.992   4.637   0.999  0.2067  0.0224  0.1119
 1026poe    c31 7981   0.197   4.455   5.630  0.3187 -0.3651 -0.8609
 1026poe     o2 7982   0.219   4.328   5.687  0.0147  0.0894  0.2903
 1026poe    c23 7983   0.234   4.329   5.827 -0.7557  0.2081  0.3778
 1026poe    c23 7984   0.257   4.194   5.898 -0.0393 -0.0688 -0.3737
 1026poe     o2 7985   0.132   4.144   5.938  0.0396 -0.0169 -0.0596
 1026poe    c23 7986   0.138   4.013   5.989 -0.3473  0.0658  0.2059
 1026poe    c23 7987  -0.003   3.973   6.036 -0.4818  0.0446 -0.2117
 1026poe     o2 7988  -0.099   4.007   5.938 -0.5158 -0.3776 -0.3257
 1026poe    c23 7989  -0.226   3.979   5.993 -0.2261 -0.5856  0.2414
 1026poe    c23 7990  -0.331   4.010   5.885 -0.1028  0.1535  0.3291
 1026poe     o2 7991  -0.291   4.136   5.836  0.2517 -0.1579 -0.2013
 1026poe    c31 7992  -0.387   4.178   5.741 -0.1033 -0.2991  0.0914
 1027poe    c31 7993   2.539   4.347   1.453  0.5168 -0.1305 -0.4245
 1027poe     o2 7994   2.448   4.446   1.412  0.7437  0.1667 -0.2116
 1027poe    c23 7995   2.490   4.566   1.475 -0.0921  0.3118  0.0859
 1027poe    c23 7996   2.413   4.687   1.419 -0.0348  0.3227  0.0302
 1027poe     o2 7997   2.289   4.645   1.369  0.0356 -0.5800  0.6007
 1027poe    c23 7998   2.203   4.751   1.336  0.3095 -0.5245  0.0666
 1027poe    c23 7999   2.055   4.712   1.317  0.2600 -0.2412 -0.1434
 1027poe     o2 8000   1.994   4.648   1.427 -0.4679  0.6444 -0.0174
 1027poe    c23 8001   1.871   4.597   1.382  0.2965 -0.8116 -0.5338
 1027poe    c23 8002   1.813   4.500   1.486  0.0566  0.1269  0.2241
 1027poe     o2 8003   1.771   4.565   1.604  0.0878 -0.3418  0.4934
 1027poe    c31 8004   1.737   4.458   1.691 -0.9600 -0.8515 -0.5096
 1028poe    c31 8005   5.200   4.442   4.464  0.5331  0.5088 -0.5113
 1028poe     o2 8006   5.145   4.568   4.433  0.0380  0.4132 -0.0350
 1028poe    c23 8007   5.016   4.566   4.378  0.0241  0.1793  0.0048
 1028poe    c23 8008   4.994   4.706   4.317 -0.2408  0.0635 -0.1676
 1028poe     o2 8009   5.098   4.741   4.229 -0.1226  0.1274 -0.0028
 1028poe    c23 8010   5.074   4.861   4.158 -0.0073  0.8698  1.1939
 1028poe    c23 8011   5.212   4.904   4.104 -0.0810 -0.4249 -0.0821
 1028poe     o2 8012   5.305   4.907   4.210 -0.3011  0.3071  0.0949
 1028poe    c23 8013   5.422   4.965   4.156  0.3460 -0.5974  0.5124
 1028poe    c23 8014   5.528   4.992   4.264  0.0059  0.2111  0.6461
 1028poe     o2 8015   5.596   4.872   4.295  0.2341  0.2425  0.2707
 1028poe    c31 8016   5.652   4.861   4.423  0.5348 -0.5217  0.0768
 1029poe    c31 8017   2.866   2.781   0.322  0.3472 -0.0359  0.8379
 1029poe     o2 8018   2.772   2.696   0.386 -0.5947  0.1495 -0.2670
 1029poe    c23 8019   2.783   2.569   0.326 -0.7615  0.0394 -0.0628
 1029poe    c23 8020   2.730   2.475   0.435 -0.5309  0.0929  0.0948
 1029poe     o2 8021   2.621   2.538   0.499 -0.8509 -0.2148 -0.1469
 1029poe    c23 8022   2.543   2.464   0.591 -0.1077 -0.2147  0.4879
 1029poe    c23 8023   2.439   2.567   0.638  0.0182  0.1130  0.0595
 1029poe     o2 8024   2.507   2.689   0.653 -0.1405  0.2347 -0.2055
 1029poe    c23 8025   2.419   2.799   0.646 -0.2304  0.1500 -0.3980
 1029poe    c23 8026   2.506   2.926   0.657  0.4984 -0.4340  0.7206
 1029poe     o2 8027   2.575   2.909   0.535 -0.1314  0.1125  0.2822
 1029poe    c31 8028   2.630   3.029   0.486 -0.2282  0.1240  0.2014
 1030poe    c31 8029   0.811   6.564   3.750  0.3825 -0.4809  0.3111
 1030poe     o2 8030   0.827   6.599   3.886 -0.1479  0.1891  0.2092
 1030poe    c23 8031   0.708   6.565   3.954  0.0329 -0.0319  0.4178
 1030poe    c23 8032   0.730   6.628   4.093 -0.1400 -0.0939  0.4727
 1030poe     o2 8033   0.857   6.598   4.147  0.0385 -0.1636  0.0217
 1030poe    c23 8034   0.876   6.652   4.276 -0.3020  0.1544 -0.0598
 1030poe    c23 8035   1.024   6.631   4.311 -0.3095  0.1850 -0.0097
 1030poe     o2 8036   1.086   6.636   4.185 -0.2194 -0.3575  0.0106
 1030poe    c23 8037   1.227   6.647   4.187 -0.2630  0.1517  0.3910
 1030poe    c23 8038   1.304   6.514   4.196 -0.8216 -0.2018 -0.0083
 1030poe     o2 8039   1.294   6.442   4.075 -0.4377  0.3466 -0.3727
 1030poe    c31 8040   1.363   6.319   4.078 -0.7355  0.1895  0.2301
 1031poe    c31 8041   0.610   1.922   0.727 -0.2984  0.0569 -0.4219
 1031poe     o2 8042   0.565   2.044   0.782  0.3243  0.2426 -0.3213
 1031poe    c23 8043   0.431   2.076   0.753  0.1542 -0.4496 -0.3194
 1031poe    c23 8044   0.393   2.215   0.807  0.9636 -0.2772 -0.1817
 1031poe     o2 8045   0.471   2.234   0.923  0.0772 -0.4164  0.4444
 1031poe    c23 8046   0.419   2.351   0.983 -0.5809 -0.3863 -0.1691
 1031poe    c23 8047   0.453   2.328   1.131 -0.1011 -0.0917 -0.2304
 1031poe     o2 8048   0.590   2.297   1.141 -0.1383 -0.0084  0.6975
 1031poe    c23 8049   0.653   2.333   1.262 -0.1359  0.2718  0.6158
 1031poe    c23 8050   0.805   2.325   1.243 -0.1485  0.8443  0.2447
 1031poe     o2 8051   0.855   2.431   1.166 -0.1323  0.4512 -0.2926
 1031poe    c31 8052   0.989   2.416   1.126  0.0917  1.1679  0.1558
 1032poe    c31 8053   3.487   6.118   3.036  0.1905 -0.2193 -0.5721
 1032poe     o2 8054   3.565   6.228   3.081  0.1457 -0.1759 -0.6009
 1032poe    c23 8055   3.654   6.199   3.185 -0.4213  0.5306  0.0884
 1032poe    c23 8056   3.759   6.312   3.188  0.1256  0.0583 -0.8930
 1032poe     o2 8057   3.711   6.445   3.186 -0.0148  0.0185 -0.1583
 1032poe    c23 8058   3.803   6.551   3.185  0.1868 -0.1580 -0.5334
 1032poe    c23 8059   3.722   6.682   3.194 -0.3324 -0.5252  0.3477
 1032poe     o2 8060   3.625   6.667   3.093 -0.0642  0.0234 -0.0007
 1032poe    c23 8061   3.554   6.789   3.083 -0.3316 -0.0811  0.6087
 1032poe    c23 8062   3.435   6.770   2.986 -0.1585  0.1836  0.3464
 1032poe     o2 8063   3.483   6.667   2.903 -0.1033  0.4039  0.1040
 1032poe    c31 8064   3.395   6.631   2.798  0.8204 -0.5014 -0.3752
 1033poe    c31 8065   2.381   1.212   0.220  0.1193 -0.0463 -0.5160
 1033poe     o2 8066   2.516   1.170   0.218 -0.1514 -0.9733 -0.1093
 1033poe    c23 8067   2.600   1.277   0.257 -0.4275 -0.6979 -0.2681
 1033poe    c23 8068   2.739   1.240   0.203 -0.2812  0.1223 -0.4676
 1033poe     o2 8069   2.769   1.114   0.258 -0.2627  0.3714  0.1004
 1033poe    c23 8070   2.898   1.075   0.217 -0.2534 -0.0752  0.5409
 1033poe    c23 8071   2.901   0.923   0.243  0.3519 -0.2112 -0.2757
 1033poe     o2 8072   2.766   0.899   0.209  0.2827 -0.1417 -0.0491
 1033poe    c23 8073   2.740   0.776   0.146  0.0304  0.0472 -0.3171
 1033poe    c23 8074   2.592   0.758   0.184  0.1746  0.2224  0.3324
 1033poe     o2 8075   2.506   0.870   0.174 -0.2414 -0.1409 -0.1915
 1033poe    c31 8076   2.379   0.851   0.117  0.0099  0.4212 -0.9513
 1034poe    c31 8077   1.689   6.114   2.315  0.0328 -0.2393 -0.3737
 1034poe     o2 8078   1.743   6.039   2.421 -0.1273  0.1675  0.0007
 1034poe    c23 8079   1.634   6.013   2.507 -0.4905 -0.1004 -0.5344
 1034poe    c23 8080   1.699   5.927   2.617 -0.0724  0.0739 -0.6414
 1034poe     o2 8081   1.818   5.998   2.639  0.0197 -0.2093 -0.2035
 1034poe    c23 8082   1.874   5.951   2.760 -0.2659  0.1841  0.0867
 1034poe    c23 8083   2.000   6.039   2.773  0.0400 -0.2661  0.1975
 1034poe     o2 8084   2.057   6.082   2.652  0.2888  0.3485  0.5330
 1034poe    c23 8085   2.173   6.014   2.608  0.1116  0.6728 -0.4585
 1034poe    c23 8086   2.172   6.014   2.454 -0.2317  0.0650 -0.4595
 1034poe     o2 8087   2.039   5.981   2.422 -0.3649  0.0026  0.1414
 1034poe    c31 8088   2.020   5.965   2.283  0.2134 -0.0273  0.0623
 1035poe    c31 8089   1.280   1.370   0.596 -0.4078  0.2433 -0.2062
 1035poe     o2 8090   1.335   1.421   0.715  0.1701 -0.0690 -0.3369
 1035poe    c23 8091   1.301   1.331   0.818 -0.4911  0.3817 -0.1527
 1035poe    c23 8092   1.302   1.416   0.947  0.1924  0.2628 -0.0715
 1035poe     o2 8093   1.403   1.514   0.939  0.1164  0.3046 -0.5473
 1035poe    c23 8094   1.388   1.611   1.040 -0.4983 -0.1887 -0.1549
 1035poe    c23 8095   1.502   1.714   1.034 -0.5153 -0.1654 -0.0660
 1035poe     o2 8096   1.634   1.664   1.042 -0.5782 -0.3410 -0.1487
 1035poe    c23 8097   1.734   1.734   0.973 -0.4571 -0.2865  0.0808
 1035poe    c23 8098   1.856   1.650   0.932 -0.0762  0.1938  0.2253
 1035poe     o2 8099   1.819   1.539   0.854  0.0956  0.2091  0.1203
 1035poe    c31 8100   1.936   1.471   0.817  0.0826  0.4976 -0.4655
 1036poe    c31 8101   6.665   6.466   5.613 -1.0000 -0.5563  0.4596
 1036poe     o2 8102   6.688   6.600   5.575 -0.2217 -0.7408  0.2673
 1036poe    c23 8103   6.776   6.600   5.465  0.0063 -0.1405  0.4476
 1036poe    c23 8104   6.694   6.668   5.354  0.2953 -0.3569  0.1020
 1036poe     o2 8105   6.622   6.772   5.416 -0.2810 -0.7340  0.0700
 1036poe    c23 8106   6.604   6.874   5.321  0.0948 -0.3625  0.3936
 1036poe    c23 8107   6.548   6.993   5.402  0.1565 -0.2725  0.3050
 1036poe     o2 8108   6.618   7.023   5.520 -0.6465 -0.2887  0.7963
 1036poe    c23 8109   6.598   7.140   5.596 -0.1357  0.4303 -0.1561
 1036poe    c23 8110   6.478   7.138   5.693  0.0920  0.0531  0.1200
 1036poe     o2 8111   6.485   7.032   5.785 -0.0876 -0.0687 -0.0069
 1036poe    c31 8112   6.400   7.069   5.891  0.0056  0.4886 -0.1260
 1037poe    c31 8113   2.652   5.069   1.780 -0.5403 -0.4638  0.2830
 1037poe     o2 8114   2.527   5.101   1.837 -0.4530  0.0748  0.1752
 1037poe    c23 8115   2.462   4.985   1.882 -0.1460  0.2534  1.1018
 1037poe    c23 8116   2.327   5.048   1.921 -0.4870  0.9107 -1.0426
 1037poe     o2 8117   2.358   5.160   2.000  0.1340 -0.3020  0.4797
 1037poe    c23 8118   2.261   5.219   2.084  0.0295  0.6408 -0.2834
 1037poe    c23 8119   2.328   5.335   2.161  0.2358  0.3581 -0.0345
 1037poe     o2 8120   2.431   5.388   2.081  0.8707 -0.5706  0.1533
 1037poe    c23 8121   2.497   5.494   2.147  0.6418 -0.5355  0.3248
 1037poe    c23 8122   2.574   5.569   2.037  0.0175 -0.4261 -0.0420
 1037poe     o2 8123   2.527   5.619   1.914  0.3661  0.1923  0.0740
 1037poe    c31 8124   2.619   5.703   1.847  0.4241  0.0180 -0.0669
 1038poe    c31 8125   5.340   6.137   4.520  0.7097  0.1688  0.0200
 1038poe     o2 8126   5.309   6.053   4.629  0.2907  0.1845 -0.0846
 1038poe    c23 8127   5.204   5.964   4.598  0.1330  0.2666  0.2166
 1038poe    c23 8128   5.193   5.863   4.714 -0.6390 -0.1895 -0.2439
 1038poe     o2 8129   5.328   5.837   4.746 -0.5678  0.1744 -0.2459
 1038poe    c23 8130   5.350   5.745   4.851  0.6331  0.2702 -0.4031
 1038poe    c23 8131   5.494   5.759   4.904  0.4861 -0.3450  0.1732
 1038poe     o2 8132   5.533   5.895   4.894 -0.3262 -0.1561 -0.5640
 1038poe    c23 8133   5.665   5.886   4.845 -0.0577 -0.0857  0.1397
 1038poe    c23 8134   5.692   6.029   4.796 -0.1507 -0.2248 -0.3212
 1038poe     o2 8135   5.572   6.087   4.748 -0.0336 -0.0709 -0.4288
 1038poe    c31 8136   5.568   6.227   4.764  0.3237 -0.1504  0.4583
 1039poe    c31 8137   5.662   1.823   3.968 -0.1586 -0.4227 -0.0553
 1039poe     o2 8138   5.681   1.705   4.044  0.3544 -0.2591  0.0713
 1039poe    c23 8139   5.565   1.696   4.124  0.2859 -0.4314 -0.0485
 1039poe    c23 8140   5.567   1.566   4.207 -0.1738 -0.7492 -0.5286
 1039poe     o2 8141   5.656   1.556   4.316 -0.4156 -0.4192 -0.2997
 1039poe    c23 8142   5.667   1.420   4.352  0.6106 -0.2030  0.2570
 1039poe    c23 8143   5.781   1.393   4.451  0.6595 -0.2135  0.1980
 1039poe     o2 8144   5.868   1.496   4.411  0.2292  0.1738  0.2506
 1039poe    c23 8145   5.977   1.495   4.501  0.9364 -0.5734 -0.5882
 1039poe    c23 8146   6.040   1.635   4.494 -0.6219  0.2104  0.3377
 1039poe     o2 8147   5.942   1.735   4.478 -0.7669  0.0808  0.4222
 1039poe    c31 8148   5.942   1.828   4.584 -0.8252  1.4358 -0.7387
 1040poe    c31 8149   6.613   4.530   1.098  0.3405  0.1288 -0.2906
 1040poe     o2 8150   6.537   4.631   1.159  0.5729  0.2872 -0.2632
 1040poe    c23 8151   6.436   4.670   1.069 -0.1204 -0.2520  0.2707
 1040poe    c23 8152   6.312   4.717   1.147  0.0340  0.4436  0.1022
 1040poe     o2 8153   6.366   4.799   1.249  1.0486  0.0082 -0.0743
 1040poe    c23 8154   6.283   4.835   1.357  0.5593 -0.5357 -0.2636
 1040poe    c23 8155   6.374   4.923   1.444 -0.2226  0.3975 -0.3692
 1040poe     o2 8156   6.502   4.868   1.467 -0.3694  0.1594 -0.1221
 1040poe    c23 8157   6.526   4.769   1.564 -0.0882  0.3696  0.0213
 1040poe    c23 8158   6.670   4.719   1.543 -0.2946 -0.2369  0.0171
 1040poe     o2 8159   6.683   4.694   1.405 -0.3000  0.3322 -0.0882
 1040poe    c31 8160   6.812   4.637   1.394 -0.5568 -0.2649 -0.0034
 1041poe    c31 8161   0.627   2.432   6.129 -0.3323  0.3656 -0.3816
 1041poe     o2 8162   0.657   2.295   6.114 -0.9873  0.1490  0.1948
 1041poe    c23 8163   0.738   2.294   5.998 -0.5870 -0.3918  0.4751
 1041poe    c23 8164   0.778   2.147   5.975  0.3764 -0.0575 -0.0600
 1041poe     o2 8165   0.678   2.049   5.957  0.1761  0.2402 -0.5713
 1041poe    c23 8166   0.739   1.933   5.906 -0.0503 -0.0325 -0.2254
 1041poe    c23 8167   0.638   1.817   5.903  0.3557 -0.3969  0.0856
 1041poe     o2 8168   0.573   1.825   6.028 -0.1367 -0.1385 -0.1815
 1041poe    c23 8169   0.521   1.705   6.080 -0.4314  0.0767  0.0233
 1041poe    c23 8170   0.422   1.739   6.193 -0.4095 -0.3416  0.1733
 1041poe     o2 8171   0.363   1.862   6.157  0.0782 -0.2126 -0.1979
 1041poe    c31 8172   0.227   1.851   6.193  0.2293 -0.9270  0.1651
 1042poe    c31 8173   3.932   6.515   5.969 -0.1008 -0.5502  0.5112
 1042poe     o2 8174   3.941   6.650   6.011 -0.0791 -0.4402  0.1511
 1042poe    c23 8175   4.009   6.635   6.133 -0.0049 -0.0309  0.1602
 1042poe    c23 8176   4.065   6.762   6.200 -0.4684  0.3143 -0.0960
 1042poe     o2 8177   3.976   6.870   6.217 -0.4572  0.2568  0.3452
 1042poe    c23 8178   3.875   6.861   6.314  0.1196  0.0861  0.9369
 1042poe    c23 8179   3.746   6.891   6.237  0.6372  0.1814  0.0988
 1042poe     o2 8180   3.726   6.819   6.117  0.2620  0.5882 -0.0895
 1042poe    c23 8181   3.602   6.862   6.066  0.4429  0.3441 -0.7502
 1042poe    c23 8182   3.559   6.779   5.944 -0.2940 -0.6830  0.1797
 1042poe     o2 8183   3.678   6.751   5.874 -0.0125  0.8308  0.0034
 1042poe    c31 8184   3.640   6.641   5.794  0.3476  0.8069 -0.1350
 1043poe    c31 8185   6.697   6.367   4.583  0.1554 -0.3760  0.0024
 1043poe     o2 8186   6.713   6.240   4.525 -0.1453 -0.5027  0.1947
 1043poe    c23 8187   6.800   6.164   4.605  0.3165 -0.7517 -0.5285
 1043poe    c23 8188   6.823   6.020   4.557  0.5280 -0.6302 -0.7955
 1043poe     o2 8189   6.690   5.978   4.541 -0.0743  0.5835  0.7735
 1043poe    c23 8190   6.687   5.841   4.508  0.0317  0.5258  0.9968
 1043poe    c23 8191   6.546   5.779   4.494  0.5994 -0.5138 -0.4608
 1043poe     o2 8192   6.469   5.868   4.417 -0.7678 -0.3184  1.0786
 1043poe    c23 8193   6.355   5.801   4.368 -0.4605 -0.2463  0.2404
 1043poe    c23 8194   6.273   5.915   4.305 -0.6472 -0.5485 -0.0623
 1043poe     o2 8195   6.232   6.018   4.392  0.2122 -0.1776 -0.0969
 1043poe    c31 8196   6.178   6.123   4.315  0.0404 -0.1734  0.0314
 1044poe    c31 8197   4.595   0.080   5.497 -0.8157 -0.0389 -0.0814
 1044poe     o2 8198   4.565   0.050   5.363 -0.6362 -0.3435 -0.0537
 1044poe    c23 8199   4.543   0.162   5.281  0.5273 -0.0166  0.0672
 1044poe    c23 8200   4.538   0.117   5.134  0.2422 -0.1703  0.1234
 1044poe     o2 8201   4.469  -0.006   5.127  0.4236 -0.2933  0.4613
 1044poe    c23 8202   4.455  -0.057   4.996 -0.0616  0.2548  0.2935
 1044poe    c23 8203   4.396  -0.197   5.019 -0.2094  0.2095 -0.3300
 1044poe     o2 8204   4.468  -0.259   5.124 -0.4308 -0.2829 -0.4651
 1044poe    c23 8205   4.410  -0.368   5.191 -0.2448 -0.4543 -0.5803
 1044poe    c23 8206   4.498  -0.385   5.316 -0.4182 -0.2880 -0.4346
 1044poe     o2 8207   4.513  -0.260   5.381  0.0656 -0.3940 -0.3388
 1044poe    c31 8208   4.571  -0.292   5.505  0.1254  0.3641 -0.1691
 1045poe    c31 8209   5.830   6.027   0.649 -0.2644 -0.1201 -0.4197
 1045poe     o2 8210   5.781   6.091   0.764  0.3231 -0.6348  0.1229
 1045poe    c23 8211   5.641   6.076   0.765  0.1405  0.9031 -0.3736
 1045poe    c23 8212   5.586   6.160   0.882  0.2904  0.4545  0.0177
 1045poe     o2 8213   5.668   6.120   0.991  0.0781  0.9146  0.3478
 1045poe    c23 8214   5.631   6.172   1.116 -0.1720  1.0794  0.2065
 1045poe    c23 8215   5.737   6.119   1.214 -0.2657  0.3752 -0.0689
 1045poe     o2 8216   5.861   6.164   1.163 -0.1558  0.3083  0.1401
 1045poe    c23 8217   5.962   6.215   1.248 -0.2733  0.1794  0.3587
 1045poe    c23 8218   6.020   6.103   1.336  0.2105  0.3383  0.2442
 1045poe     o2 8219   6.064   5.997   1.254  0.1974  0.4959  0.0331
 1045poe    c31 8220   6.122   5.915   1.354 -0.2260  0.3166  0.1320
 1046poe    c31 8221   1.884   2.070   3.518 -0.0410 -0.5214 -0.5433
 1046poe     o2 8222   1.786   1.988   3.578 -0.0678 -0.0885  0.0128
 1046poe    c23 8223   1.658   2.044   3.559 -0.0909  0.0430  0.5538
 1046poe    c23 8224   1.560   1.931   3.521 -0.1487  0.1738  0.3170
 1046poe     o2 8225   1.561   1.828   3.616  0.3015  0.1803  0.3237
 1046poe    c23 8226   1.429   1.780   3.631  0.1542  0.3850 -0.3190
 1046poe    c23 8227   1.438   1.646   3.706 -0.3706  0.3366 -0.3376
 1046poe     o2 8228   1.543   1.561   3.664 -0.2107  0.4148 -0.1016
 1046poe    c23 8229   1.521   1.428   3.706  0.1421  0.2557 -0.4154
 1046poe    c23 8230   1.619   1.330   3.639 -0.0383 -0.4332  0.3005
 1046poe     o2 8231   1.758   1.346   3.653 -0.0127 -0.2597 -0.1294
 1046poe    c31 8232   1.811   1.338   3.783 -0.3798  0.7502  0.0904
 1047poe    c31 8233   5.220   1.509   4.407 -0.0067 -0.1267 -0.1900
 1047poe     o2 8234   5.198   1.571   4.282 -0.7211  0.0873  0.0399
 1047poe    c23 8235   5.227   1.708   4.299  0.1902 -0.0303 -0.5038
 1047poe    c23 8236   5.190   1.775   4.166 -0.2742  0.1799 -0.2691
 1047poe     o2 8237   5.049   1.770   4.159 -0.2470 -0.5990 -0.3077
 1047poe    c23 8238   4.981   1.871   4.088  0.4929  0.4332  0.4261
 1047poe    c23 8239   4.827   1.859   4.092  0.5500 -0.4601  0.0954
 1047poe     o2 8240   4.779   1.736   4.044 -0.1898 -0.0558 -0.2112
 1047poe    c23 8241   4.638   1.731   4.043 -0.1991  0.2146 -0.2957
 1047poe    c23 8242   4.607   1.594   3.978  0.2332 -0.2514  0.4725
 1047poe     o2 8243   4.696   1.493   4.020  0.4507 -0.5369 -0.6501
 1047poe    c31 8244   4.627   1.371   4.004 -0.3940 -0.2231  0.5016
 1048poe    c31 8245   4.002   4.849   4.377  0.3084 -0.1436  0.0300
 1048poe     o2 8246   3.900   4.896   4.462  0.1238  0.4140 -0.4901
 1048poe    c23 8247   3.798   4.959   4.388 -0.3677  0.7791  0.4797
 1048poe    c23 8248   3.672   4.956   4.477 -0.6449 -0.6121  0.0647
 1048poe     o2 8249   3.720   4.971   4.609  0.0851  0.3070 -0.2991
 1048poe    c23 8250   3.617   4.977   4.706 -0.0271  1.0096 -0.4526
 1048poe    c23 8251   3.678   5.035   4.835 -0.4110 -0.5868  0.4751
 1048poe     o2 8252   3.806   4.976   4.839 -0.4267 -0.6160  0.5372
 1048poe    c23 8253   3.906   5.070   4.873 -0.6591 -0.0195 -0.3959
 1048poe    c23 8254   3.952   5.155   4.753  0.3397 -0.5813 -0.4201
 1048poe     o2 8255   3.993   5.068   4.650  0.1390 -0.4893 -0.5758
 1048poe    c31 8256   4.084   5.146   4.575 -0.0931 -0.1814 -0.5427
 1049poe    c31 8257   6.302   3.004   1.960  0.2343  0.3163  0.2143
 1049poe     o2 8258   6.224   2.887   1.956  0.2682  0.3026 -0.0860
 1049poe    c23 8259   6.225   2.810   1.838 -0.1934 -0.0690  0.1512
 1049poe    c23 8260   6.153   2.681   1.884 -0.0953 -0.1366  0.1158
 1049poe     o2 8261   6.209   2.578   1.963  0.2546  0.0099  0.0618
 1049poe    c23 8262   6.150   2.454   1.932  0.0683  0.1649 -0.2182
 1049poe    c23 8263   6.231   2.349   2.010 -0.0865  0.1206 -0.1163
 1049poe     o2 8264   6.253   2.389   2.144  0.1314  0.0469 -0.1279
 1049poe    c23 8265   6.347   2.311   2.213  0.4476 -0.0775 -0.6907
 1049poe    c23 8266   6.407   2.406   2.319 -0.3444  0.3928 -0.6539
 1049poe     o2 8267   6.392   2.542   2.285 -0.5154  0.4947 -0.1742
 1049poe    c31 8268   6.456   2.623   2.381  0.0787  0.6547 -0.7044
 1050poe    c31 8269   0.835   6.689   1.335 -0.1757  0.3589 -0.1700
 1050poe     o2 8270   0.815   6.552   1.309 -0.6455  0.5447 -0.8348
 1050poe    c23 8271   0.845   6.530   1.173  0.7720 -0.5344 -0.3735
 1050poe    c23 8272   0.885   6.384   1.143  1.2596 -0.4425 -0.1832
 1050poe     o2 8273   0.790   6.307   1.214  1.1141 -0.1798 -0.0903
 1050poe    c23 8274   0.808   6.167   1.211 -0.0446 -0.3338 -0.3155
 1050poe    c23 8275   0.703   6.092   1.294 -0.2681 -0.1924 -0.4693
 1050poe     o2 8276   0.664   6.152   1.415 -0.7345 -0.3714 -0.5271
 1050poe    c23 8277   0.698   6.070   1.525  0.1490  0.3959 -0.2166
 1050poe    c23 8278   0.627   6.103   1.657 -0.2788 -0.1639 -0.3042
 1050poe     o2 8279   0.677   6.214   1.728  0.0049 -0.3072 -0.2778
 1050poe    c31 8280   0.593   6.233   1.840  0.0990  0.2172 -0.2925
 1051poe    c31 8281   5.425   0.888   5.941 -0.5925 -0.4294 -0.2648
 1051poe     o2 8282   5.463   0.902   5.806  0.4312  0.0712  0.0684
 1051poe    c23 8283   5.387   0.820   5.720  0.2131  0.3516 -0.0079
 1051poe    c23 8284   5.465   0.790   5.591  0.0245 -0.1876 -0.0004
 1051poe     o2 8285   5.523   0.913   5.553 -0.6626  0.1066 -0.1070
 1051poe    c23 8286   5.612   0.901   5.445 -0.2110  0.2964  0.2398
 1051poe    c23 8287   5.650   1.050   5.439 -0.0859  0.2396 -0.4536
 1051poe     o2 8288   5.681   1.089   5.571  0.1729 -0.2472 -0.3660
 1051poe    c23 8289   5.718   1.225   5.577  0.0494 -0.2331  0.0908
 1051poe    c23 8290   5.741   1.239   5.729 -0.4486  1.1607  0.0462
 1051poe     o2 8291   5.632   1.181   5.796 -0.0124  0.4890  0.1746
 1051poe    c31 8292   5.562   1.266   5.884 -0.6174  0.0050  0.1764
 1052poe    c31 8293   0.809   2.295   2.368  0.2523  0.2229 -0.0575
 1052poe     o2 8294   0.763   2.209   2.266  0.1688  0.1526  0.0385
 1052poe    c23 8295   0.798   2.248   2.135  0.1900  0.1349  0.0387
 1052poe    c23 8296   0.913   2.160   2.084 -0.0354 -0.3868  0.4183
 1052poe     o2 8297   0.861   2.033   2.051 -0.4289 -0.0066 -0.4583
 1052poe    c23 8298   0.968   1.948   2.014 -0.0974  0.2412 -0.0844
 1052poe    c23 8299   0.920   1.807   1.976 -0.1737  0.2747 -0.1133
 1052poe     o2 8300   0.845   1.823   1.858  0.1721 -0.3737 -0.4254
 1052poe    c23 8301   0.831   1.700   1.791  0.7152 -0.6022 -0.1222
 1052poe    c23 8302   0.686   1.703   1.740  0.7918 -0.6783 -0.3465
 1052poe     o2 8303   0.667   1.825   1.672 -0.2868 -0.7335 -0.1637
 1052poe    c31 8304   0.532   1.856   1.649 -0.1496  0.1040  0.1355
 1053poe    c31 8305   6.605   5.752   1.244  0.0799 -0.2886  0.1450
 1053poe     o2 8306   6.712   5.669   1.204  0.0985 -0.1481 -0.1013
 1053poe    c23 8307   6.744   5.689   1.068  0.3393 -0.1891 -0.0515
 1053poe    c23 8308   6.780   5.556   1.000 -0.0300 -0.1592 -0.3031
 1053poe     o2 8309   6.818   5.560   0.864 -0.4712 -0.1439 -0.4282
 1053poe    c23 8310   6.708   5.557   0.776 -0.6026 -0.4175 -0.2573
 1053poe    c23 8311   6.749   5.602   0.634  0.2367 -0.1610  0.0627
 1053poe     o2 8312   6.753   5.495   0.543 -1.1453 -0.4359  0.3006
 1053poe    c23 8313   6.754   5.540   0.410 -0.5441 -0.4229  0.3066
 1053poe    c23 8314   6.740   5.420   0.314 -0.1920 -0.2638  0.0495
 1053poe     o2 8315   6.857   5.346   0.293 -0.2938 -0.3592 -0.1823
 1053poe    c31 8316   6.933   5.367   0.176  0.0026 -0.8387 -0.0801
 1054poe    c31 8317   4.857   1.225   5.034 -0.0391  0.1725  0.0523
 1054poe     o2 8318   4.740   1.211   5.110 -0.1818  0.0859 -0.1812
 1054poe    c23 8319   4.703   1.339   5.158 -0.7890  0.0722 -0.5969
 1054poe    c23 8320   4.571   1.331   5.237 -0.5245 -0.4864 -0.1948
 1054poe     o2 8321   4.584   1.218   5.320 -0.2295 -0.0558  0.3504
 1054poe    c23 8322   4.482   1.211   5.416 -0.4120 -0.6135  0.1202
 1054poe    c23 8323   4.497   1.118   5.538 -0.2549 -0.2382  0.3907
 1054poe     o2 8324   4.536   0.993   5.485  0.2219  0.1828 -0.2563
 1054poe    c23 8325   4.542   0.902   5.592  0.1905  0.5837  0.0909
 1054poe    c23 8326   4.674   0.825   5.574 -0.0314  0.1769  0.1627
 1054poe     o2 8327   4.686   0.719   5.666 -0.1150  0.0332  0.0062
 1054poe    c31 8328   4.778   0.755   5.766 -0.0578  0.2017 -0.1077
 1055poe    c31 8329   6.723   3.617   3.502 -0.1908 -0.5166 -0.1609
 1055poe     o2 8330   6.685   3.583   3.633  0.5117  0.2073  0.2408
 1055poe    c23 8331   6.600   3.683   3.684  0.3242  0.1840 -0.0288
 1055poe    c23 8332   6.540   3.640   3.819 -0.0906  0.5746 -0.0849
 1055poe     o2 8333   6.638   3.564   3.886 -0.6281 -0.1182 -0.0770
 1055poe    c23 8334   6.598   3.535   4.018 -0.0032 -0.1359  0.1101
 1055poe    c23 8335   6.721   3.468   4.083 -0.2091 -0.1555  0.4850
 1055poe     o2 8336   6.767   3.370   3.993 -0.3162 -0.3000  0.5890
 1055poe    c23 8337   6.904   3.342   4.006 -0.0125  0.8540 -0.0505
 1055poe    c23 8338   6.948   3.266   3.879  0.1360  0.4147  0.2603
 1055poe     o2 8339   6.899   3.343   3.771  0.6009  0.2946 -0.0385
 1055poe    c31 8340   6.984   3.338   3.659  0.4403 -0.1858 -0.1404
 1056poe    c31 8341   0.170   3.717   3.202 -0.7147  0.2731  0.2012
 1056poe     o2 8342   0.069   3.623   3.172 -0.5420 -0.0943  0.7388
 1056poe    c23 8343   0.127   3.497   3.150 -0.7641  0.0783 -0.9719
 1056poe    c23 8344   0.039   3.393   3.220 -0.6078  0.6439  0.0814
 1056poe     o2 8345  -0.091   3.379   3.167 -0.5765 -0.3412  0.2433
 1056poe    c23 8346  -0.099   3.319   3.039 -0.2911  0.4829 -0.1666
 1056poe    c23 8347  -0.246   3.281   3.017 -0.3720  0.2685  0.6783
 1056poe     o2 8348  -0.313   3.404   2.997 -0.2046  0.3347  0.5206
 1056poe    c23 8349  -0.451   3.394   3.025 -0.4093 -0.0168 -0.5601
 1056poe    c23 8350  -0.483   3.508   3.123  0.4145  0.0570 -0.3686
 1056poe     o2 8351  -0.478   3.636   3.066  0.1591  0.1136 -0.2638
 1056poe    c31 8352  -0.607   3.694   3.065 -0.1497 -0.5627 -0.0776
 1057poe    c31 8353   5.080   3.962   5.854  0.0395 -0.7528 -0.5305
 1057poe     o2 8354   4.940   3.942   5.849 -0.1622  0.4756 -0.1678
 1057poe    c23 8355   4.914   3.825   5.775  1.1808 -0.1265  0.2829
 1057poe    c23 8356   4.805   3.743   5.847  0.2602  0.2386 -0.6740
 1057poe     o2 8357   4.718   3.838   5.904 -0.3708 -0.6261 -0.1900
 1057poe    c23 8358   4.610   3.777   5.971 -0.2789 -0.5508  0.0274
 1057poe    c23 8359   4.537   3.894   6.040  0.4585  0.2260 -0.4946
 1057poe     o2 8360   4.623   3.997   6.084 -0.3753  0.7765 -0.1323
 1057poe    c23 8361   4.542   4.086   6.157 -0.3037  0.1885  0.6742
 1057poe    c23 8362   4.485   4.200   6.071  0.2529 -0.0627 -0.0329
 1057poe     o2 8363   4.577   4.284   6.005  0.3153 -0.1306 -0.0323
 1057poe    c31 8364   4.515   4.403   5.960 -0.2795 -0.5011 -0.2023
 1058poe    c31 8365   6.321   2.620   4.807  0.1047 -0.4063 -0.0945
 1058poe     o2 8366   6.393   2.500   4.787 -0.0192 -0.3807 -0.7142
 1058poe    c23 8367   6.308   2.399   4.738 -0.0174 -0.5877 -0.3017
 1058poe    c23 8368   6.386   2.266   4.737 -0.0478 -0.6062 -0.2298
 1058poe     o2 8369   6.423   2.241   4.870 -0.8913 -0.5844  0.0131
 1058poe    c23 8370   6.514   2.136   4.894 -0.1854  0.0277  0.0249
 1058poe    c23 8371   6.612   2.180   5.005 -0.4870  0.5242  0.0981
 1058poe     o2 8372   6.645   2.316   4.986 -0.1134  0.3044 -0.8541
 1058poe    c23 8373   6.714   2.376   5.094  0.2347 -0.4012 -0.6750
 1058poe    c23 8374   6.725   2.522   5.048 -0.1549 -0.1797 -0.0834
 1058poe     o2 8375   6.607   2.563   4.984 -0.1613  0.2710  0.2109
 1058poe    c31 8376   6.635   2.688   4.925  0.5311 -0.4472 -1.0432
 1059poe    c31 8377   0.993   5.269   4.202  0.1246 -0.4768 -0.1690
 1059poe     o2 8378   1.126   5.228   4.226  0.2110 -0.2146 -0.2013
 1059poe    c23 8379   1.121   5.109   4.302 -0.2130 -0.2236 -0.2368
 1059poe    c23 8380   1.268   5.065   4.320 -0.1927 -0.0481  0.0415
 1059poe     o2 8381   1.346   5.181   4.336 -0.4481  0.1606 -0.2157
 1059poe    c23 8382   1.483   5.150   4.344 -0.4038  0.3325 -0.3155
 1059poe    c23 8383   1.540   5.292   4.364 -0.3236  0.2898 -0.2434
 1059poe     o2 8384   1.463   5.368   4.274 -0.3109  0.1417 -0.3790
 1059poe    c23 8385   1.496   5.505   4.276 -0.2595  0.1247  0.0158
 1059poe    c23 8386   1.380   5.579   4.207 -0.0023  0.1538 -0.3893
 1059poe     o2 8387   1.267   5.524   4.271  0.3489 -0.1665 -0.0373
 1059poe    c31 8388   1.171   5.626   4.258 -0.2100 -0.8079 -1.0919
 1060poe    c31 8389   1.028   1.690   6.173  0.3269  0.2984 -0.6321
 1060poe     o2 8390   1.143   1.770   6.193  0.2931  0.3818 -0.7738
 1060poe    c23 8391   1.262   1.695   6.185 -0.2869 -0.6221 -0.2450
 1060poe    c23 8392   1.401   1.757   6.214 -0.6955  0.4052 -0.4349
 1060poe     o2 8393   1.435   1.851   6.116 -0.0973  0.5405 -0.0988
 1060poe    c23 8394   1.576   1.846   6.103 -0.1266 -0.2587 -0.1232
 1060poe    c23 8395   1.604   1.959   6.002 -0.1008 -0.3504 -0.2187
 1060poe     o2 8396   1.548   2.075   6.059  0.1278 -0.0774 -0.5445
 1060poe    c23 8397   1.567   2.188   5.977 -0.2046 -0.0079 -0.5299
 1060poe    c23 8398   1.492   2.307   6.040  0.0503 -0.0977 -0.0492
 1060poe     o2 8399   1.362   2.265   6.076 -0.0838  0.2972 -0.0722
 1060poe    c31 8400   1.267   2.369   6.082  0.0685  0.4205  0.1905
 1061poe    c31 8401   0.904   3.766   3.269 -0.2685 -0.5269  0.1889
 1061poe     o2 8402   0.993   3.708   3.362 -0.1742  0.1324  0.5191
 1061poe    c23 8403   1.099   3.799   3.376 -0.0882  0.0565  0.3594
 1061poe    c23 8404   1.227   3.740   3.439  0.0064 -0.2207 -0.0841
 1061poe     o2 8405   1.271   3.635   3.356 -0.4107  0.1328 -0.7665
 1061poe    c23 8406   1.399   3.645   3.298 -0.0682 -0.3701 -0.1155
 1061poe    c23 8407   1.441   3.511   3.235 -0.1546 -0.3759 -0.1612
 1061poe     o2 8408   1.402   3.402   3.315 -0.3847 -0.3207 -0.1982
 1061poe    c23 8409   1.468   3.290   3.262  0.4471  0.1525 -0.1784
 1061poe    c23 8410   1.425   3.153   3.318  0.2603 -0.0609 -0.8430
 1061poe     o2 8411   1.296   3.103   3.287 -0.0902  0.0421  0.4272
 1061poe    c31 8412   1.288   2.967   3.325  0.0387  0.0762  0.5818
 1062poe    c31 8413   3.037   3.410   2.738 -0.5093 -0.4685  0.4018
 1062poe     o2 8414   2.997   3.447   2.608 -0.2160  0.3193  0.5308
 1062poe    c23 8415   2.910   3.559   2.608 -0.3399  0.2229  0.0138
 1062poe    c23 8416   2.842   3.557   2.469  0.2648 -0.1352 -0.2825
 1062poe     o2 8417   2.936   3.597   2.372  0.0566  0.5132 -0.2225
 1062poe    c23 8418   2.904   3.582   2.236 -0.2828  0.4124 -0.1302
 1062poe    c23 8419   2.984   3.697   2.174 -0.2586  0.5337  0.1238
 1062poe     o2 8420   3.115   3.653   2.142 -0.1043  0.5494  0.7355
 1062poe    c23 8421   3.174   3.723   2.035 -0.5565 -0.1015  0.0482
 1062poe    c23 8422   3.306   3.653   2.000 -0.2677  0.4634 -0.0037
 1062poe     o2 8423   3.354   3.616   2.127  0.0971  0.0889 -0.2449
 1062poe    c31 8424   3.492   3.594   2.111  0.0928 -0.4766  0.4447
 1063poe    c31 8425   6.847   4.090   5.028 -0.2342 -0.7299  0.2002
 1063poe     o2 8426   6.926   4.049   4.919  0.4148  0.0668  0.3619
 1063poe    c23 8427   7.061   4.090   4.931  0.3532  0.2980  0.2633
 1063poe    c23 8428   7.143   4.063   4.804  0.2073  0.0141  0.2277
 1063poe     o2 8429   7.145   3.927   4.769  0.2149  0.1586 -0.3390
 1063poe    c23 8430   7.203   3.915   4.641 -0.0363 -0.0908 -0.4311
 1063poe    c23 8431   7.175   3.772   4.591 -0.0138 -0.2429 -0.0126
 1063poe     o2 8432   7.222   3.687   4.693  0.4050 -0.0049 -0.0032
 1063poe    c23 8433   7.229   3.550   4.660 -0.3628  0.0013 -0.2103
 1063poe    c23 8434   7.239   3.467   4.790 -0.0935 -0.2410 -0.3844
 1063poe     o2 8435   7.140   3.514   4.879  0.6511  0.3060  0.1704
 1063poe    c31 8436   7.135   3.410   4.974 -0.7017 -0.1708 -0.4061
 1064poe    c31 8437   6.438   1.005   3.559 -0.5640  0.3773  0.2083
 1064poe     o2 8438   6.342   0.918   3.503 -0.1196  0.1175 -0.1560
 1064poe    c23 8439   6.266   0.992   3.410  0.1208  0.3523 -0.1687
 1064poe    c23 8440   6.145   0.905   3.372 -0.1654  0.4422  0.5151
 1064poe     o2 8441   6.033   0.887   3.456 -0.1917 -0.5158  0.2864
 1064poe    c23 8442   5.974   1.007   3.500  0.2232 -0.1336 -0.1914
 1064poe    c23 8443   5.826   0.988   3.539  0.1335 -0.1427 -0.5358
 1064poe     o2 8444   5.804   0.871   3.614 -0.5757  0.5196  0.3003
 1064poe    c23 8445   5.666   0.852   3.634 -0.5253 -0.5379 -0.3266
 1064poe    c23 8446   5.635   0.728   3.720 -0.3638 -0.2267  0.1817
 1064poe     o2 8447   5.683   0.615   3.652 -0.4557 -0.2893  0.2196
 1064poe    c31 8448   5.642   0.510   3.737 -0.7305  0.0384  0.4915
 1065poe    c31 8449   6.223   0.526   0.844 -0.2817  0.1832 -0.1770
 1065poe     o2 8450   6.209   0.666   0.831  0.5098  0.3385  0.5279
 1065poe    c23 8451   6.145   0.718   0.946  0.5243  0.5269  0.4510
 1065poe    c23 8452   6.110   0.867   0.928 -0.4101  0.2491 -0.1448
 1065poe     o2 8453   6.074   0.868   0.792 -0.6200  0.1815 -0.0890
 1065poe    c23 8454   6.030   0.992   0.741 -0.3805  0.5339  0.5567
 1065poe    c23 8455   5.939   0.966   0.620 -0.1930  0.6544  0.3887
 1065poe     o2 8456   6.008   0.877   0.535 -0.2501  0.5213  0.4800
 1065poe    c23 8457   6.011   0.921   0.401  0.7731 -0.7084  0.0744
 1065poe    c23 8458   6.023   0.816   0.289 -0.2261 -0.0453 -0.6770
 1065poe     o2 8459   6.135   0.734   0.310 -0.5123 -0.2838 -0.0268
 1065poe    c31 8460   6.153   0.639   0.207  0.2176 -0.0114 -0.1556
 1066poe    c31 8461   5.526   3.308   5.328 -0.0772 -1.0380  0.4730
 1066poe     o2 8462   5.656   3.277   5.283  0.0572  0.3524 -0.1448
 1066poe    c23 8463   5.659   3.170   5.192  0.0422  0.2177  0.0128
 1066poe    c23 8464   5.805   3.176   5.143  0.2181 -0.3482  0.4497
 1066poe     o2 8465   5.906   3.154   5.239  0.7359 -0.3370 -0.0859
 1066poe    c23 8466   6.001   3.256   5.218  0.2516  0.0863 -0.2436
 1066poe    c23 8467   6.078   3.286   5.348  0.2052  0.0409 -0.2051
 1066poe     o2 8468   6.056   3.166   5.420  0.3837 -0.0576 -0.3119
 1066poe    c23 8469   6.131   3.177   5.538 -0.0754 -0.3025  0.0043
 1066poe    c23 8470   6.101   3.046   5.613 -0.1206 -0.2470  0.0842
 1066poe     o2 8471   6.127   2.920   5.555  0.0435 -0.4214  0.5322
 1066poe    c31 8472   6.104   2.808   5.637  0.2326 -0.9753 -0.1570
 1067poe    c31 8473   4.143   5.665   5.650 -0.7619  0.5860 -0.0023
 1067poe     o2 8474   4.068   5.696   5.535 -0.2718 -0.5458 -0.6527
 1067poe    c23 8475   3.929   5.678   5.548 -0.2699  0.2181  0.5864
 1067poe    c23 8476   3.835   5.706   5.429 -0.5898  0.0080  0.7861
 1067poe     o2 8477   3.837   5.840   5.387  0.4440 -0.2651 -0.1010
 1067poe    c23 8478   3.753   5.858   5.276  0.6394 -0.5533 -0.2953
 1067poe    c23 8479   3.776   6.000   5.220  0.2686 -0.3569  0.0448
 1067poe     o2 8480   3.791   6.084   5.332 -0.4368 -0.1592 -0.0029
 1067poe    c23 8481   3.803   6.219   5.291  0.4378 -0.2685 -0.1333
 1067poe    c23 8482   3.780   6.314   5.410  0.2139 -0.1439 -0.2742
 1067poe     o2 8483   3.879   6.275   5.503  0.6481  0.6028 -0.4205
 1067poe    c31 8484   3.971   6.373   5.547  1.0349  0.1295 -0.1750
 1068poe    c31 8485   4.691   1.487   3.623  0.4473 -0.2367 -0.1611
 1068poe     o2 8486   4.598   1.442   3.529 -0.0157  0.5479 -0.0885
 1068poe    c23 8487   4.627   1.305   3.510  0.7141  0.7261 -0.2538
 1068poe    c23 8488   4.570   1.261   3.374  0.4982 -0.0588  0.0872
 1068poe     o2 8489   4.435   1.301   3.367  0.4680 -0.2285 -0.3338
 1068poe    c23 8490   4.373   1.244   3.254 -0.0014  0.0689 -0.2287
 1068poe    c23 8491   4.221   1.262   3.268 -0.0101 -0.1007 -0.1019
 1068poe     o2 8492   4.191   1.398   3.294  0.1255 -0.1066  0.0853
 1068poe    c23 8493   4.055   1.404   3.327 -0.0420 -0.1339 -0.5742
 1068poe    c23 8494   4.016   1.554   3.330 -0.9106 -0.3601  0.5986
 1068poe     o2 8495   4.108   1.640   3.393 -0.2053 -0.2959 -0.4906
 1068poe    c31 8496   4.057   1.769   3.419 -0.3306 -0.2877 -0.7661
 1069poe    c31 8497   6.926   2.101   0.266 -0.0445  0.6243  0.1512
 1069poe     o2 8498   6.837   2.125   0.159  0.5545  0.4572 -0.3977
 1069poe    c23 8499   6.762   2.245   0.158  0.3407  0.3437  0.4669
 1069poe    c23 8500   6.641   2.252   0.063  0.3684  0.0486  0.4096
 1069poe     o2 8501   6.527   2.186   0.115  0.0581  0.0254 -0.2844
 1069poe    c23 8502   6.436   2.147   0.015 -0.0465  0.3781 -0.3290
 1069poe    c23 8503   6.350   2.026   0.055  0.8371 -0.1139  0.1217
 1069poe     o2 8504   6.268   2.045   0.168  0.7374 -0.1668  0.0594
 1069poe    c23 8505   6.140   2.000   0.131  0.3192 -0.2574  1.5698
 1069poe    c23 8506   6.037   2.031   0.242 -0.5862  0.4095  0.5586
 1069poe     o2 8507   6.107   2.011   0.363  0.1584  0.0823  0.0829
 1069poe    c31 8508   6.084   1.894   0.438  0.4631 -0.2274 -0.2999
 1070poe    c31 8509   2.596   4.762   5.994 -0.1258 -0.2175 -0.2659
 1070poe     o2 8510   2.665   4.774   5.871 -0.3327 -0.0467 -0.3658
 1070poe    c23 8511   2.754   4.665   5.863 -0.6107 -0.2787 -0.3444
 1070poe    c23 8512   2.782   4.659   5.712  0.3129 -0.5454 -0.1690
 1070poe     o2 8513   2.823   4.790   5.682 -0.5521 -0.2927 -0.2662
 1070poe    c23 8514   2.836   4.803   5.542  0.2477  1.2468 -0.0773
 1070poe    c23 8515   2.822   4.956   5.532  0.1201  1.2005 -0.6182
 1070poe     o2 8516   2.714   4.993   5.614 -0.0521  0.6894 -0.6080
 1070poe    c23 8517   2.714   5.131   5.642 -0.1824  0.6763 -0.5416
 1070poe    c23 8518   2.596   5.153   5.739  0.5545  0.6799  0.3728
 1070poe     o2 8519   2.633   5.077   5.851  0.4384  0.0229 -0.0277
 1070poe    c31 8520   2.552   5.117   5.959  0.3398 -0.1333 -0.0429
 1071poe    c31 8521   3.491   4.234   2.481 -0.2072 -0.2620  0.1670
 1071poe     o2 8522   3.385   4.294   2.410  0.4185  0.1127 -0.4648
 1071poe    c23 8523   3.418   4.311   2.274  0.4936 -0.1091 -0.4748
 1071poe    c23 8524   3.294   4.378   2.211  0.4733  0.4461  0.1491
 1071poe     o2 8525   3.175   4.339   2.277  0.6881 -0.3920  0.0564
 1071poe    c23 8526   3.055   4.393   2.228  0.5891  0.0650  0.7927
 1071poe    c23 8527   2.945   4.311   2.299  0.2125 -0.0186  0.1211
 1071poe     o2 8528   2.974   4.308   2.437  0.7890 -0.0107  0.0017
 1071poe    c23 8529   2.939   4.423   2.511  0.3414 -0.0742 -0.1098
 1071poe    c23 8530   3.029   4.437   2.635 -0.1328 -0.0360  0.2339
 1071poe     o2 8531   3.167   4.415   2.614 -0.0607  0.5088  0.1115
 1071poe    c31 8532   3.240   4.494   2.705  0.2489  0.0377  0.2769
 1072poe    c31 8533   3.070   5.842   1.582  0.2032 -0.4681  0.4150
 1072poe     o2 8534   3.091   5.719   1.647 -0.3719 -0.3145  0.8956
 1072poe    c23 8535   3.194   5.731   1.744 -0.5700  0.4994  1.0130
 1072poe    c23 8536   3.189   5.597   1.819  0.4920  0.1099  0.4112
 1072poe     o2 8537   3.191   5.493   1.724  0.5078  0.3356  0.1618
 1072poe    c23 8538   3.188   5.365   1.784 -0.8474  0.2162 -0.1223
 1072poe    c23 8539   3.087   5.290   1.696 -0.1062 -0.1806 -0.6471
 1072poe     o2 8540   2.979   5.380   1.684 -0.0507  0.0567  0.4972
 1072poe    c23 8541   2.889   5.324   1.591  0.2268  0.0779  0.2133
 1072poe    c23 8542   2.804   5.436   1.526 -0.1547 -0.5462 -0.3722
 1072poe     o2 8543   2.876   5.556   1.510  0.0153 -0.5609  0.2480
 1072poe    c31 8544   2.795   5.663   1.467 -0.0121 -0.8070 -0.3323
 1073poe    c31 8545   1.521   5.141   2.602 -0.0412 -0.2944 -0.8234
 1073poe     o2 8546   1.434   5.146   2.712  0.2713  0.3133 -0.6023
 1073poe    c23 8547   1.458   5.263   2.787 -0.3239  0.2991 -0.3826
 1073poe    c23 8548   1.350   5.276   2.897 -0.0969  0.5657 -0.1861
 1073poe     o2 8549   1.214   5.255   2.865 -0.1084 -0.1721  0.3244
 1073poe    c23 8550   1.121   5.328   2.941  0.2611  0.6379  0.0102
 1073poe    c23 8551   0.981   5.286   2.894  0.2055  0.2551  0.5047
 1073poe     o2 8552   0.950   5.152   2.922 -0.2476  0.2522  0.0116
 1073poe    c23 8553   0.821   5.124   2.872  0.4096 -0.5612 -1.2977
 1073poe    c23 8554   0.788   4.979   2.911 -0.0767 -0.1732 -0.2163
 1073poe     o2 8555   0.900   4.905   2.870 -0.1935 -0.1496 -0.5815
 1073poe    c31 8556   0.859   4.770   2.880 -0.1007 -0.1065  0.5311
 1074poe    c31 8557   4.124   4.956   6.273  0.1138  0.0644  0.5802
 1074poe     o2 8558   4.198   4.995   6.386  0.9447  0.5416 -0.1132
 1074poe    c23 8559   4.262   4.883   6.442  0.7235  0.4236 -0.0954
 1074poe    c23 8560   4.338   4.900   6.575  0.2637  0.2728  0.1894
 1074poe     o2 8561   4.259   4.916   6.691  0.1576 -0.0708  0.1650
 1074poe    c23 8562   4.354   4.902   6.794 -0.1063  0.6635  0.5168
 1074poe    c23 8563   4.264   4.897   6.919 -0.4040 -0.5681  0.2647
 1074poe     o2 8564   4.193   5.018   6.919  0.0942 -0.2676 -0.2529
 1074poe    c23 8565   4.064   5.021   6.976  0.0472  0.1676 -0.3823
 1074poe    c23 8566   4.009   5.165   6.968 -0.1913  0.1084  0.1677
 1074poe     o2 8567   4.037   5.201   6.835 -0.0030  0.3904  0.2822
 1074poe    c31 8568   3.987   5.332   6.816 -1.3124 -0.2070 -0.5215
 1075poe    c31 8569   2.741   5.423   3.379 -0.3580  0.7763 -0.3335
 1075poe     o2 8570   2.866   5.467   3.428 -0.0495 -0.0274 -0.3839
 1075poe    c23 8571   2.906   5.548   3.319 -0.3850  0.7043  0.0316
 1075poe    c23 8572   3.049   5.598   3.348 -0.1800  0.0593  0.1539
 1075poe     o2 8573   3.059   5.643   3.481  0.1018  0.4978 -0.0120
 1075poe    c23 8574   3.187   5.644   3.539  0.3962 -0.2851 -0.6255
 1075poe    c23 8575   3.196   5.514   3.620 -0.5053 -0.3595 -0.6442
 1075poe     o2 8576   3.073   5.514   3.691  0.0033 -0.0763  0.2549
 1075poe    c23 8577   3.061   5.400   3.773  0.0399 -0.7705 -0.6744
 1075poe    c23 8578   2.914   5.402   3.817  0.0869  0.4532 -0.5277
 1075poe     o2 8579   2.838   5.403   3.698 -0.5411  0.1186 -0.1378
 1075poe    c31 8580   2.714   5.344   3.732  0.1400 -0.7993  0.8308
 1076poe    c31 8581   6.313   5.389   0.972 -0.3553  0.4336 -0.1355
 1076poe     o2 8582   6.236   5.473   0.890 -0.3130  0.3006 -0.3111
 1076poe    c23 8583   6.137   5.530   0.973 -0.1715 -0.2472  0.2363
 1076poe    c23 8584   6.071   5.650   0.903 -0.3506 -0.3404  0.2441
 1076poe     o2 8585   6.048   5.625   0.767  0.2441  0.3063  0.0191
 1076poe    c23 8586   5.928   5.686   0.724 -0.1737  0.0212  0.7718
 1076poe    c23 8587   5.883   5.605   0.601  0.3315  0.6176  0.1851
 1076poe     o2 8588   6.001   5.599   0.525 -0.1005  0.5665 -0.4867
 1076poe    c23 8589   5.987   5.521   0.407 -0.1465 -1.1533  0.6179
 1076poe    c23 8590   6.130   5.518   0.351 -0.1390  0.4925  0.4818
 1076poe     o2 8591   6.215   5.467   0.452 -0.3835 -0.5667  0.1717
 1076poe    c31 8592   6.336   5.405   0.413 -0.0816  0.1613 -0.0701
 1077poe    c31 8593   3.284   6.598   1.265 -0.0946  0.2199 -0.1929
 1077poe     o2 8594   3.340   6.487   1.199 -0.0880 -0.0953  0.3423
 1077poe    c23 8595   3.452   6.437   1.269  0.5455  0.2010 -0.4462
 1077poe    c23 8596   3.489   6.296   1.221 -0.3174 -0.1837  0.0083
 1077poe     o2 8597   3.489   6.299   1.080  0.1606  0.2069  0.0172
 1077poe    c23 8598   3.617   6.322   1.026  0.2413  0.3332  0.2574
 1077poe    c23 8599   3.584   6.363   0.881  0.7771 -0.2133 -0.0231
 1077poe     o2 8600   3.473   6.449   0.866  0.9366  0.0531  0.3133
 1077poe    c23 8601   3.497   6.588   0.872  0.2418  0.1775  0.2703
 1077poe    c23 8602   3.357   6.651   0.862  0.1038 -0.1826 -0.1369
 1077poe     o2 8603   3.265   6.585   0.946 -0.3404  0.1021 -0.3911
 1077poe    c31 8604   3.135   6.638   0.954 -0.5135 -0.4040  0.3155
 1078poe    c31 8605   1.648   5.018   1.374 -0.6423 -0.3201 -0.0461
 1078poe     o2 8606   1.559   4.916   1.337 -0.6931 -0.2186 -0.2026
 1078poe    c23 8607   1.441   4.934   1.412 -0.3150 -0.0449  0.3537
 1078poe    c23 8608   1.333   4.838   1.359  0.1606 -0.2692 -0.2182
 1078poe     o2 8609   1.350   4.820   1.220 -0.0347  0.3320 -0.3200
 1078poe    c23 8610   1.245   4.753   1.154 -0.0434 -0.4280  0.4437
 1078poe    c23 8611   1.309   4.692   1.028 -0.2998 -0.0745  0.1411
 1078poe     o2 8612   1.417   4.602   1.029  0.1764  0.4755 -0.5534
 1078poe    c23 8613   1.436   4.540   0.903  0.0908 -0.1918 -0.2404
 1078poe    c23 8614   1.558   4.446   0.895  0.1818 -0.1868  0.8408
 1078poe     o2 8615   1.678   4.519   0.898  0.0689  0.0823 -0.4096
 1078poe    c31 8616   1.788   4.432   0.916 -0.3425 -0.2455  0.5869
 1079poe    c31 8617   5.319   2.501   3.500  0.0601  0.1966 -0.4467
 1079poe     o2 8618   5.204   2.567   3.451 -0.2209  0.2148  0.2371
 1079poe    c23 8619   5.106   2.556   3.552 -0.4748  0.2114 -0.0084
 1079poe    c23 8620   4.963   2.575   3.500 -0.6105 -0.0788  0.2512
 1079poe     o2 8621   4.934   2.470   3.411 -0.2189  0.1723 -0.1792
 1079poe    c23 8622   4.898   2.346   3.469 -0.4349  0.1758 -0.3036
 1079poe    c23 8623   4.844   2.245   3.366 -0.7938 -0.5472  0.5790
 1079poe     o2 8624   4.733   2.274   3.283 -0.2240 -0.1758 -0.0624
 1079poe    c23 8625   4.685   2.167   3.206  0.0730 -0.2036 -0.2098
 1079poe    c23 8626   4.549   2.197   3.142  0.0768  0.1158 -0.0679
 1079poe     o2 8627   4.565   2.322   3.078  0.1512  0.2761  0.2632
 1079poe    c31 8628   4.465   2.334   2.979  0.1530  0.2705  0.2606
 1080poe    c31 8629   1.400   6.323   6.208 -0.7586  0.3865 -0.0020
 1080poe     o2 8630   1.506   6.383   6.138 -0.0646 -0.0487  0.6637
 1080poe    c23 8631   1.612   6.290   6.133  0.6400  0.7439  0.5298
 1080poe    c23 8632   1.734   6.341   6.055  0.3211  0.6321 -0.0526
 1080poe     o2 8633   1.806   6.235   5.995 -0.0632  0.6858 -0.6127
 1080poe    c23 8634   1.890   6.280   5.891  0.9908  0.0181 -0.0686
 1080poe    c23 8635   1.940   6.151   5.825  0.1453 -0.4811  0.2406
 1080poe     o2 8636   1.990   6.055   5.915  0.7850  0.0120  0.4217
 1080poe    c23 8637   1.979   5.927   5.857  0.1862  0.2836 -0.0757
 1080poe    c23 8638   2.055   5.843   5.962 -0.0324  0.2972  0.0944
 1080poe     o2 8639   2.021   5.895   6.089  0.0355  0.2801  0.1194
 1080poe    c31 8640   2.097   5.835   6.191 -0.6454 -0.3983  0.2435
 1081lim     li 8641   0.516   3.724   2.355 -0.2404 -0.1316 -0.5197
 1082lim     li 8642   6.110   5.848   5.003  1.3437  0.4613  0.7765
 1083lim     li 8643   2.707   6.800   5.527  0.0240 -0.0531  0.1001
 1084lim     li 8644   6.752   0.939   4.116  0.1127 -0.7358  0.7443
 1085lim     li 8645   0.580   1.901   2.424  0.6402  0.1595 -1.1271
 1086lim     li 8646   2.377   3.095   6.810  0.0733 -0.0630 -0.0093
 1087lim     li 8647   1.506   1.796   5.397 -1.4221  0.0370 -0.3298
 1088lim     li 8648   0.572   1.224   3.904  0.6591  0.8202  0.6539
 1089lim     li 8649   0.313   2.537   4.541  1.6127 -0.6504 -0.5526
 1090lim     li 8650   3.211   5.391   4.409 -0.7160 -0.4575 -0.5313
 1091lim     li 8651   5.550   3.715   2.385 -1.1245  0.2378  0.3410
 1092lim     li 8652   2.420   6.187   1.814 -0.1790  0.1120 -0.8988
 1093lim     li 8653   5.391   4.155   0.317  0.3132  1.7407  0.4716
 1094lim     li 8654   2.661   2.704   0.544  0.6898 -0.8720 -0.0672
 1095lim     li 8655   4.162   4.028   5.562 -0.7647  0.7364 -0.8717
 1096lim     li 8656   2.836   4.383   4.490  0.1969 -0.3271  0.1951
 1097lim     li 8657   2.732   0.089   1.222 -0.7517 -0.0264  0.4097
 1098lim     li 8658   5.344   1.705   5.764  0.0795 -0.8333  1.4566
 1099lim     li 8659   2.616   1.006   0.249 -0.4932 -0.5037  1.1048
 1100lim     li 8660   1.053   4.987   2.874  0.6774  0.7690 -1.3415
 1101lim     li 8661   6.335   5.815   6.376  0.3342 -0.3528 -0.3300
 1102lim     li 8662   5.026   5.562   2.982  0.0266  0.9664  1.2415
 1103lim     li 8663   6.644   6.776   5.588  1.1496  0.6681  0.2022
 1104lim     li 8664   5.562   1.006   4.448 -1.5057 -0.2402  0.2264
 1105lim     li 8665   4.678   5.828   6.728  0.5761  0.0862 -0.9464
 1106lim     li 8666   1.636   4.563   2.704 -1.3536  0.0533  0.0961
 1107lim     li 8667   4.670   2.427   3.192 -1.0987 -0.4494  1.0818
 1108lim     li 8668   3.608   3.104   2.610  0.8792 -0.3699 -0.3987
 1109lim     li 8669   4.381   2.942   6.275  0.5638  0.9607  0.7728
 1110lim     li 8670   3.835   0.793   2.359  0.7950 -0.2873 -0.3092
 1111lim     li 8671   3.012   5.440   6.762 -0.1665 -0.0653  0.2130
 1112lim     li 8672   5.137   0.419   5.238 -0.4361 -0.8578 -0.3531
 1113lim     li 8673   1.985   3.846   6.864 -0.0548 -0.6748  0.0533
 1114lim     li 8674   2.231   2.350   1.920  0.6565 -0.9185 -1.0300
 1115lim     li 8675   3.694   4.600   3.357  0.6473  0.1597  0.1421
 1116lim     li 8676   0.131   5.292   2.338 -0.1262  0.6396 -0.2149
 1117lim     li 8677   0.321   6.108   4.984 -0.2443  0.1017  0.2352
 1118lim     li 8678   0.856   2.097   3.464  0.2120 -1.6564 -1.2822
 1119lim     li 8679   2.790   1.123   4.807  0.3370  0.8265 -0.2895
 1120lim     li 8680   6.553   4.784   1.295 -0.3534 -0.6212 -0.3358
 1121lim     li 8681   3.688   4.978   2.671 -0.6539  0.3259 -1.0639
 1122lim     li 8682   4.751   6.292   3.180 -0.1631 -0.9676  0.4050
 1123lim     li 8683   2.114   6.691   6.649 -1.0503  0.7529 -0.8727
 1124lim     li 8684   0.185   3.714   4.831  0.9733  0.6405 -0.8530
 1125lim     li 8685   5.805   2.525   4.288  1.6335 -0.0043  0.1710
 1126lim     li 8686   4.603   2.661   4.960  0.0673  0.0419  1.2085
 1127lim     li 8687   6.828   5.080   4.198  0.3142  0.7636  0.4544
 1128lim     li 8688   6.106   0.246   4.746  0.6949  0.5484 -0.4932
 1129lim     li 8689   0.057   4.493   6.466 -1.0688 -0.3296  0.1638
 1130lim     li 8690   0.287   1.455   0.131 -0.3310 -0.6252  0.9802
 1131lim     li 8691   6.868   1.988   6.708  0.5887  0.5791 -0.2776
 1132lim     li 8692   0.502   6.871   0.342 -0.9688 -0.1681  0.1101
 1133lim     li 8693   5.566   1.095   2.354  0.3147  1.0525 -0.4707
 1134lim     li 8694   1.616   6.778   5.302 -0.3880 -0.0007 -0.0397
 1135lim     li 8695   3.995   3.913   1.871 -0.6492  0.2020  1.2982
 1136lim     li 8696   0.616   2.144   0.993 -0.0344  0.8796 -0.0769
 1137lim     li 8697   6.283   1.406   1.593  0.6928  0.6503  0.6156
 1138lim     li 8698   4.794   3.983   5.986  0.2213  0.3586 -0.7105
 1139lim     li 8699   4.642   4.743   3.154 -1.0624 -1.2460  0.8332
 1140lim     li 8700   6.396   3.118   4.468  0.0838 -0.9840 -0.4624
 1141lim     li 8701   4.584   4.367   0.754  0.7468  0.3138  0.1411
 1142lim     li 8702   1.836   1.830   3.649 -0.3731  0.2401  1.1390
 1143lim     li 8703   2.412   0.287   4.532 -0.8189 -0.7260  0.0473
 1144lim     li 8704   3.106   6.550   1.999 -0.5685  0.2757 -0.2766
 1145lim     li 8705   3.866   6.007   5.479 -0.3873  1.1430 -0.2860
 1146lim     li 8706   6.037   0.444   6.027 -0.2305  0.1094 -0.7794
 1147lim     li 8707   6.227   4.013   0.603 -1.0299 -0.4492  0.8747
 1148lim     li 8708   1.612   6.714   2.209 -1.3697 -0.4842  0.3067
 1149lim     li 8709   1.304   2.641   0.980  0.9059  0.4522 -0.3491
 1150lim     li 8710   4.723   3.435   5.129  0.2147 -0.0437  0.0594
 1151lim     li 8711   3.918   1.239   0.870 -0.6763 -0.8384  0.7373
 1152lim     li 8712   2.352   6.687   4.113  0.1805 -0.3657  0.2584
 1153lim     li 8713   1.203   6.661   0.350 -0.2589  0.1419 -0.0314
 1154lim     li 8714   5.113   2.743   5.552  0.3802 -0.5828 -0.5086
 1155lim     li 8715   4.767   1.998   6.453  0.3025  0.1741  0.4594
 1156lim     li 8716   3.454   1.235   4.443  0.4818  0.2556  0.3252
 1157lim     li 8717   1.197   4.066   4.791  0.1665  0.3581 -0.2090
 1158lim     li 8718   6.234   2.607   6.917 -0.1991  0.8497  0.0711
 1159lim     li 8719   1.929   2.107   6.532 -0.2812  0.3565 -0.1312
 1160lim     li 8720   3.708   3.936   5.254 -0.4339 -0.0418 -1.0368
 1161lim     li 8721   6.765   3.454   3.807 -0.4822 -0.1578 -0.1033
 1162lim     li 8722   5.802   2.804   6.216 -0.5436 -0.7825 -0.3934
 1163lim     li 8723   6.545   1.699   1.102  0.2169 -0.7169 -0.7159
 1164lim     li 8724   4.585   4.916   0.626  0.1143 -0.8297 -0.1975
 1165lim     li 8725   6.592   6.108   1.941  1.1036 -0.1281  0.0415
 1166lim     li 8726   2.908   3.510   4.591  0.0437  0.4896 -0.2452
 1167lim     li 8727   6.074   6.267   6.750  0.5442 -0.9144 -0.3990
 1168lim     li 8728   5.454   5.981   0.221 -0.9337  0.4801 -0.8308
 1169lim     li 8729   4.669   1.339   0.461  0.0820  0.0314  0.3897
 1170lim     li 8730   1.222   1.100   1.819 -0.8606 -0.8703 -0.8993
 1171lim     li 8731   6.862   4.239   0.473  0.1430 -0.2924  0.7434
 1172lim     li 8732   1.529   4.783   4.863  0.5834  0.7503 -0.5614
 1173lim     li 8733   5.865   6.141   0.964  0.5515 -0.0742 -1.0376
 1174lim     li 8734   5.083   0.547   6.734  0.9284 -0.1007  0.1103
 1175lim     li 8735   6.889   0.979   2.688 -0.6368 -1.2146 -0.6801
 1176lim     li 8736   2.998   1.377   6.636 -0.5079 -0.0506 -0.1675
 1177lim     li 8737   3.981   1.498   6.446 -0.8200 -1.1420  0.6072
 1178lim     li 8738   1.018   2.074   6.773 -0.8335 -0.0762 -0.7521
 1179lim     li 8739   2.325   3.121   4.070  0.6822 -0.7857 -0.0918
 1180lim     li 8740   3.210   3.733   4.034 -0.8587 -0.0394 -1.1872
 1181lim     li 8741   0.863   0.133   5.103  0.1255 -0.4784 -0.7004
 1182lim     li 8742   0.684   2.106   4.117 -1.3378  0.3620  0.4080
 1183lim     li 8743   3.604   0.581   6.341  0.8830  0.3196 -1.0781
 1184lim     li 8744   4.167   4.824   1.137 -1.4850 -1.0763 -0.2175
 1185lim     li 8745   5.324   4.874   3.069 -0.4048 -0.0086 -0.7701
 1186lim     li 8746   6.281   1.022   5.140 -0.4609 -1.3737 -1.1407
 1187lim     li 8747   6.160   1.999   2.527 -0.1655 -0.3728  0.1471
 1188lim     li 8748   3.194   4.302   2.473  0.6550  0.9494  0.3750
 1189lim     li 8749   3.831   0.384   1.505 -0.0578  0.5840 -0.0688
 1190lim     li 8750   4.700   6.570   1.283 -0.5674 -0.5613 -0.1109
 1191lim     li 8751   1.441   2.159   1.628  0.8302 -0.0932  1.3914
 1192lim     li 8752   1.267   3.462   3.447 -0.0624 -0.1048 -0.0743
 1193lim     li 8753   5.992   3.020   5.356  1.6537 -0.5096 -0.6200
 1194lim     li 8754   4.111   0.202   4.666  0.4132 -0.1769  0.1749
 1195lim     li 8755   5.709   5.693   5.753  0.4142  0.0675 -0.0142
 1196lim     li 8756   1.412   5.554   2.140 -1.5007  0.6430 -0.7986
 1197lim     li 8757   4.857   1.581   4.039  0.7072  0.7238  0.4822
 1198lim     li 8758   1.953   2.337   0.689 -0.5391  0.4998 -0.7174
 1199lim     li 8759   4.116   3.098   2.185 -0.4949 -0.1167 -0.3470
 1200lim     li 8760   3.611   3.343   6.054 -0.8423 -0.3245  0.0296
 1201lim     li 8761   1.111   4.605   3.694 -0.1410  1.4372  0.0866
 1202lim     li 8762   2.163   4.232   4.941 -0.4256 -1.7177 -0.9340
 1203lim     li 8763   5.426   4.822   2.349  0.7113  0.0828 -0.8567
 1204lim     li 8764   1.952   4.534   0.512 -0.4039  0.4553 -0.1952
 1205lim     li 8765   6.146   5.525   3.641  0.6268  0.1560  0.8305
 1206lim     li 8766   5.669   5.087   5.110 -0.9412 -0.1223  1.4329
 1207lim     li 8767   1.871   6.673   0.695 -1.4543  1.2081 -0.0026
 1208lim     li 8768   3.306   5.921   5.085 -0.0072  0.5227  0.4567
 1209lim     li 8769   4.589   5.302   5.903  0.0060  0.5575 -0.3256
 1210lim     li 8770   5.636   2.088   6.466  1.2264  0.6815 -0.0119
 1211lim     li 8771   2.055   0.307   0.318 -1.1457 -0.1915  0.1786
 1212lim     li 8772   2.403   1.509   0.850 -0.3957 -0.2599  0.9784
 1213lim     li 8773   1.828   4.600   4.088  0.1394  0.2591 -0.3386
 1214lim     li 8774   2.226   2.730   1.101  0.1017 -0.1773  0.9354
 1215lim     li 8775   0.709   6.393   1.374  0.1092  0.0707  0.5263
 1216lim     li 8776   6.621   3.700   3.021 -1.0355  0.5665 -0.0755
 1217lim     li 8777   5.920   0.759   3.526 -0.0927 -0.3993 -0.0130
 1218lim     li 8778   1.677   3.232   2.054  0.6186  0.3608 -0.5894
 1219lim     li 8779   2.539   0.534   5.757  0.4931  0.1669  0.0411
 1220lim     li 8780   2.157   5.411   4.326 -0.0341 -0.3177  1.2875
 1221lim     li 8781   0.922   4.980   5.390 -0.2546  0.2511  0.7856
 1222lim     li 8782   2.635   4.383   3.782  0.4369  0.2664 -0.4546
 1223lim     li 8783   3.610   0.099   0.234  0.5719  1.2468 -0.0751
 1224lim     li 8784   2.101   1.270   6.349 -0.0700  0.0236 -0.0870
 1225lim     li 8785   2.345   3.681   1.006 -0.4495 -0.5262  0.0514
 1226lim     li 8786   4.471   6.135   2.239 -0.2573 -1.0443  0.6216
 1227lim     li 8787   3.563   6.516   3.047  0.5011  1.0738 -0.3429
 1228lim     li 8788   6.868   5.379   5.121  0.7642 -0.1196 -0.5217
 1229lim     li 8789   4.275   5.316   4.988  0.9403 -0.9780 -0.2701
 1230lim     li 8790   5.978   3.525   4.745 -1.2040 -0.3386  2.1997
 1231lim     li 8791   6.518   4.370   5.254  0.4888  0.4220  0.2585
 1232lim     li 8792   1.445   1.372   2.901  0.0191  0.0023 -0.9164
 1233lim     li 8793   1.203   1.116   5.924 -0.0585 -1.0326 -1.1934
 1234lim     li 8794   6.758   2.972   5.702 -1.0836 -0.1792  0.2231
 1235lim     li 8795   2.872   1.193   2.525 -0.3243 -0.5669  0.0863
 1236lim     li 8796   2.548   2.212   6.927  0.6663  0.0915 -0.2533
 1237lim     li 8797   6.593   6.121   4.461  0.4527  0.3729 -0.3702
 1238lim     li 8798   5.569   1.880   0.738 -0.3915 -1.0556  0.0997
 1239lim     li 8799   5.132   2.612   4.312  0.1052 -0.4847 -0.2780
 1240lim     li 8800   3.851   3.051   3.630  0.5835 -0.6506 -0.2391
 1241lim     li 8801   2.286   5.505   6.406 -0.1278 -0.4064 -0.8653
 1242lim     li 8802   1.837   4.862   1.899  0.4551  0.3615  0.4537
 1243lim     li 8803   1.207   2.775   4.261 -0.1668  1.2406 -0.4569
 1244lim     li 8804   4.751   0.491   0.537 -0.3160 -0.3664 -1.6231
 1245lim     li 8805   4.214   0.652   3.403 -0.1648  0.3067  1.4123
 1246lim     li 8806   6.746   4.373   4.221  0.9637 -0.3461 -0.0120
 1247lim     li 8807   0.722   5.520   1.939 -0.4275  1.8573  0.5268
 1248lim     li 8808   6.017   0.487   6.704 -0.2760 -0.2426 -0.8856
 1249lim     li 8809   1.524   4.164   6.820 -0.1882 -0.9329 -0.1347
 1250lim     li 8810   0.553   3.032   3.844  0.4069  0.6639  1.0752
 1251lim     li 8811   4.680   1.028   2.763  0.8133 -0.0581  1.9268
 1252lim     li 8812   3.688   4.629   0.173 -0.4911  0.7004 -0.3715
 1253lim     li 8813   4.275   2.045   5.624  0.0125  0.5581 -0.3636
 1254lim     li 8814   2.694   0.237   3.556 -1.0271  0.2632  0.1336
 1255lim     li 8815   2.936   5.949   0.930  0.3452 -0.2118  0.7463
 1256lim     li 8816   5.654   1.841   5.058 -0.7809  0.4557 -0.0730
 1257lim     li 8817   4.228   2.911   6.891  0.6851 -0.1508 -0.8766
 1258lim     li 8818   5.349   3.229   4.822  0.7904 -1.2012  1.2051
 1259lim     li 8819   2.005   1.470   4.682  0.4889 -0.4867  0.0003
 1260lim     li 8820   2.159   0.321   2.286  0.1592 -0.1733 -0.1035
 1261lim     li 8821   3.414   2.286   2.594  0.5709 -0.0610 -0.5649
 1262lim     li 8822   0.887   2.311   5.069 -0.0386  1.0101 -0.4325
 1263lim     li 8823   4.051   3.954   2.804 -0.2615  0.7692 -0.1531
 1264lim     li 8824   2.652   3.194   3.213 -0.1571 -0.1937  0.0885
 1265lim     li 8825   2.835   1.872   5.387  0.6174 -0.3656  0.3227
 1266lim     li 8826   2.106   3.589   3.104 -0.1597 -0.6424  1.4233
 1267lim     li 8827   5.629   5.450   1.684 -0.7878 -0.4604  0.3949
 1268lim     li 8828   6.771   3.215   0.004  0.1153  0.2732  0.7655
 1269lim     li 8829   0.247   2.951   1.465 -0.4188  1.0341 -1.0767
 1270lim     li 8830   4.560   0.279   6.028  1.0072  1.4300  1.6123
 1271lim     li 8831   0.510   5.327   3.584 -0.0389 -0.6479 -0.1517
 1272lim     li 8832   4.388   0.996   6.194  0.5654 -0.4345 -0.8571
 1273lim     li 8833   4.667   3.207   2.679  0.5908  0.2515 -0.1882
 1274lim     li 8834   3.273   3.732   3.077 -0.7532 -0.8134  0.4932
 1275lim     li 8835   0.403   6.229   0.797 -0.4344 -0.0254 -0.2032
 1276lim     li 8836   1.641   2.932   0.038 -0.5601  1.1336 -0.2864
 1277lim     li 8837   4.778   4.688   5.488  0.1964  0.2989 -0.6130
 1278lim     li 8838   1.539   5.011   5.890 -0.1956  0.5488  0.0428
 1279lim     li 8839   5.620   6.638   5.456 -0.1465  0.0074 -0.0932
 1280lim     li 8840   3.008   6.241   6.831  0.9618  0.0467  0.4245
 1281lim     li 8841   4.514   6.814   5.268  0.2985 -1.0592 -0.9249
 1282lim     li 8842   2.318   3.595   1.748 -0.1416 -1.7324 -0.4430
 1283lim     li 8843   2.171   1.538   2.672  0.0610  0.1073  0.4904
 1284lim     li 8844   0.581   1.233   0.754 -0.0791  0.0909 -0.2782
 1285lim     li 8845   2.931   5.538   3.586  0.3371  0.1856  0.3601
 1286lim     li 8846   2.985   6.850   0.326 -0.6552 -0.2817 -0.1389
 1287lim     li 8847   0.604   1.124   1.967  0.1326  0.6265 -0.6335
 1288lim     li 8848   0.422   4.668   4.891  0.6984  0.3208  0.8841
 1289lim     li 8849   5.322   0.537   1.464 -0.0878 -0.5719  0.5151
 1290lim     li 8850   2.545   0.635   6.573 -1.0568 -0.3764 -0.2239
 1291lim     li 8851   5.419   6.003   4.779  1.1568 -0.2172 -0.2402
 1292lim     li 8852   0.749   4.452   6.756 -0.0947  0.5157 -0.2350
 1293lim     li 8853   5.585   1.019   5.712  0.6917  0.8897 -0.3227
 1294lim     li 8854   4.170   5.387   3.730  0.1461 -0.1480 -0.1390
 1295lim     li 8855   3.801   2.300   6.462  0.0999  0.6216  0.6027
 1296lim     li 8856   3.048   0.322   2.402  0.0314  0.3496  0.1422
 1297lim     li 8857   6.272   2.590   2.135 -1.0610 -0.0323 -0.9279
 1298lim     li 8858   2.491   5.271   1.943  0.9463 -0.4816  0.4268
 1299lim     li 8859   1.949   3.736   4.350  0.0667 -0.5329 -0.0226
 1300lim     li 8860   2.847   3.765   0.721  0.1295  1.0760  0.0695
 1301lim     li 8861   0.103   5.506   1.466  0.2271  0.3878  0.1330
 1302lim     li 8862   4.909   2.393   0.897 -0.2527  0.5227  0.7686
 1303lim     li 8863   5.000   3.990   2.822  0.2016 -0.0385 -1.4590
 1304lim     li 8864   0.572   0.091   4.354 -0.8554 -0.4485  0.2799
 1305lim     li 8865   2.707   4.875   2.854 -0.2279 -0.1540 -0.0672
 1306lim     li 8866   2.802   2.739   4.800 -0.1299  0.9171  0.5521
 1307lim     li 8867   0.211   0.488   1.088 -0.4349  0.9285  0.1806
 1308lim     li 8868   0.881   0.136   2.995  0.7525  0.3670  0.3535
 1309lim     li 8869   0.020   5.241   0.397  0.9480 -0.0517  0.0533
 1310lim     li 8870   6.386   3.307   2.390 -0.4069 -0.2459 -1.1116
 1311lim     li 8871   3.133   2.168   0.957  0.4812  0.1216 -0.3479
 1312lim     li 8872   5.601   6.678   4.058  0.1190  0.4347  0.8160
 1313lim     li 8873   3.950   1.602   4.654 -0.6336  0.0916 -0.4386
 1314lim     li 8874   6.838   0.796   6.594  0.2947 -1.0571 -0.6404
 1315lim     li 8875   5.542   3.905   6.558 -0.6228  0.4450 -0.1343
 1316lim     li 8876   2.278   4.472   1.374 -0.2077  1.4479  0.0688
 1317lim     li 8877   1.270   2.702   2.859 -0.3032 -0.2290 -0.7532
 1318lim     li 8878   3.673   2.267   5.245 -0.4329 -0.0137  0.0450
 1319lim     li 8879   4.145   0.799   0.091 -0.1915 -0.7724  0.4708
 1320lim     li 8880   2.260   5.419   0.661 -1.1814 -0.8642  0.4037
 1321lim     li 8881   1.285   5.311   4.250 -0.2412  0.1831 -0.1129
 1322lim     li 8882   0.190   0.327   2.331 -1.2763 -0.1587 -0.2413
 1323lim     li 8883   1.021   3.162   0.612  0.4979 -0.1109 -1.0469
 1324lim     li 8884   1.933   6.060   6.090 -0.9058  0.4315  0.6967
 1325lim     li 8885   2.707   2.492   5.747 -0.2019 -0.0046  0.0647
 1326lim     li 8886   5.771   6.925   0.881  0.1404  1.1269 -0.6515
 1327lim     li 8887   6.914   3.470   6.219  0.5563  0.3405 -0.4360
 1328lim     li 8888   6.821   4.149   5.838  1.0497  0.5456 -0.7792
 1329lim     li 8889   0.116   0.508   5.118 -0.4760  0.9254  0.2447
 1330lim     li 8890   3.397   4.218   1.062 -0.8795 -0.0114  0.8277
 1331lim     li 8891   3.749   2.765   4.686  0.0374 -1.0498 -0.4061
 1332lim     li 8892   6.489   6.323   0.591 -0.2841 -1.0401  0.0285
 1333lim     li 8893   1.514   6.313   3.399 -0.0057  0.7915 -0.3027
 1334lim     li 8894   3.021   4.877   3.759 -0.2430  0.7349  0.1310
 1335lim     li 8895   0.985   3.385   4.860 -0.7913  0.4330  0.2103
 1336lim     li 8896   6.388   4.846   4.691 -1.3201  0.8145 -0.0940
 1337lim     li 8897   0.781   1.932   1.730 -0.1592  0.8334 -0.6177
 1338lim     li 8898   2.808   4.859   5.022 -0.3501  1.6561  0.3247
 1339lim     li 8899   6.691   6.676   6.385 -0.3229 -0.4654 -1.2021
 1340lim     li 8900   0.803   5.841   6.053 -0.3802 -0.5266  0.9025
 1341lim     li 8901   4.634   3.596   0.146 -1.3725  0.0207 -0.3016
 1342lim     li 8902   3.810   4.125   4.696 -0.9193 -0.3810  0.4955
 1343lim     li 8903   0.323   2.640   6.451  0.7183  0.5790  0.3803
 1344lim     li 8904   2.787   2.478   4.330 -0.4399  0.4963  0.3577
 1345lim     li 8905   0.844   5.353   4.866  0.9852 -0.6453 -0.1434
 1346lim     li 8906   1.024   1.482   4.287  0.1741 -1.2151  0.3883
 1347lim     li 8907   6.343   3.717   6.590  0.1681  0.1590 -0.2559
 1348lim     li 8908   6.556   6.284   2.564 -0.0791 -0.0730 -0.5937
 1349lim     li 8909   2.002   4.579   6.447  0.4382 -0.3751 -0.1570
 1350lim     li 8910   2.424   1.523   1.814 -0.4628 -0.2340  0.6490
 1351lim     li 8911   0.787   3.890   4.050  0.2792 -0.6978  0.6800
 1352lim     li 8912   3.076   1.792   1.704  1.0376 -0.3692  0.3983
 1353lim     li 8913   0.267   2.545   5.466 -1.3961  0.0041  0.0177
 1354lim     li 8914   3.493   1.781   6.819  1.1975 -0.1447  0.4266
 1355lim     li 8915   3.842   6.806   5.985 -0.3705 -0.9268 -0.1966
 1356lim     li 8916   6.891   3.809   1.095 -0.6626  0.5141  0.2145
 1357lim     li 8917   4.280   2.678   0.818 -1.1735  0.3968  0.0850
 1358lim     li 8918   0.482   6.056   3.740 -0.0521  0.1737 -0.4232
 1359lim     li 8919   0.253   2.966   2.674  0.3132 -0.5376 -0.8527
 1360lim     li 8920   4.258   6.052   4.359  0.7994 -0.5826 -0.3958
 1361lim     li 8921   3.926   3.140   5.461  1.1958  0.6105 -0.5536
 1362lim     li 8922   6.201   1.463   6.312 -0.7887  0.5783  1.4487
 1363lim     li 8923   5.496   0.227   3.170 -0.5141  0.5105  0.0198
 1364lim     li 8924   0.009   4.661   3.010  0.6044  0.6847 -0.7148
 1365lim     li 8925   1.955   1.549   5.480  0.1064  1.4319 -0.0188
 1366lim     li 8926   0.320   6.848   1.903 -0.0056  0.0129  0.2276
 1367lim     li 8927   0.904   6.381   5.500  0.2561  0.7001 -0.5201
 1368lim     li 8928   1.506   4.868   1.175  0.5012 -0.4247 -0.2598
 1369lim     li 8929   3.616   2.241   3.826 -0.4240 -0.0383  0.2017
 1370lim     li 8930   5.974   0.110   2.124 -0.6694  0.3657  1.0419
 1371lim     li 8931   4.795   1.024   4.536 -0.2796 -0.2240 -1.1270
 1372lim     li 8932   2.751   1.178   3.724 -0.3502 -0.9294 -0.1093
 1373lim     li 8933   0.431   1.059   6.387 -0.4601  1.4279  0.2409
 1374lim     li 8934   3.627   4.914   5.510  0.4535 -0.5651  0.0186
 1375lim     li 8935   6.629   1.128   0.503 -0.8406  0.9888 -0.2004
 1376lim     li 8936   4.645   1.947   1.616  0.4310  0.6571 -0.0336
 1377lim     li 8937   4.651   5.839   0.708  1.1691  0.5037 -1.3380
 1378lim     li 8938   3.354   6.437   1.023 -0.6390 -0.2645 -0.8335
 1379lim     li 8939   5.018   5.767   6.168  1.0216  0.4228  0.0268
 1380lim     li 8940   4.343   1.430   3.431  0.9882  1.0245 -0.7316
 1381lim     li 8941   2.258   6.012   3.686  1.1274  1.3742 -0.1850
 1382lim     li 8942   3.223   3.092   3.376  0.4302  0.2842 -1.2010
 1383lim     li 8943   3.260   3.132   1.572  0.8630  0.4071  0.5449
 1384lim     li 8944   3.825   4.014   3.973  0.6192  0.2654  0.3126
 1385lim     li 8945   3.944   6.378   3.758 -0.6556 -0.5187 -0.8861
 1386lim     li 8946   6.700   1.504   4.510  0.7274  0.0126 -0.2035
 1387lim     li 8947   5.205   2.321   0.334 -0.4426  0.2770  0.3722
 1388lim     li 8948   1.998   0.837   2.837  0.9672 -0.1499  0.8162
 1389lim     li 8949   4.416   0.880   1.475  0.0275 -0.5755 -0.5711
 1390lim     li 8950   6.145   5.557   0.623 -0.3313 -0.7867 -0.4714
 1391lim     li 8951   4.596   3.391   3.851 -0.3626  0.4485  0.1034
 1392lim     li 8952   5.367   0.506   2.770  0.5449  1.1206 -0.2352
 1393lim     li 8953   4.483   2.427   4.003  0.2888 -1.4068 -0.2678
 1394lim     li 8954   6.259   4.607   0.032  0.5896  0.7894  1.0639
 1395lim     li 8955   0.760   3.318   5.626 -0.0546  0.3938 -0.8297
 1396lim     li 8956   5.008   3.899   1.942  0.5430 -0.3025 -0.8324
 1397lim     li 8957   6.087   0.739   0.644 -0.8037 -0.0071 -0.0818
 1398lim     li 8958   4.753   5.491   3.827  0.0293 -1.3627  0.0454
 1399lim     li 8959   0.773   4.096   5.547  1.3651  0.2183  0.2161
 1400lim     li 8960   4.928   6.491   4.647 -0.2606 -0.3327 -1.1312
 1401lim     li 8961   5.497   2.984   2.642 -0.3943 -0.8424 -0.4112
 1402lim     li 8962   4.017   4.081   0.637 -0.8615  0.7539 -0.6658
 1403lim     li 8963   6.682   1.215   5.660 -0.2031 -0.0706 -0.6327
 1404lim     li 8964   1.676   2.193   2.433 -0.2050 -1.1751 -0.1600
 1405lim     li 8965   0.708   1.442   5.108  0.8362 -0.2451  0.9061
 1406lim     li 8966   0.650   4.901   0.929 -0.2596  0.2136  0.7383
 1407lim     li 8967   0.484   1.993   6.081 -0.5587  1.2186  0.2295
 1408lim     li 8968   5.805   6.553   5.983 -0.3661  0.8472 -0.5089
 1409lim     li 8969   5.338   5.182   0.230  0.5368  0.3056  0.2276
 1410lim     li 8970   4.653   2.416   2.143 -0.8130 -0.7773 -1.3987
 1411lim     li 8971   0.550   5.000   5.847  0.4768 -0.5445  0.0232
 1412lim     li 8972   2.394   6.615   4.866 -0.9992 -0.1675 -0.7931
 1413lim     li 8973   1.937   0.698   3.778 -0.1990  0.5077 -0.9373
 1414lim     li 8974   3.429   1.248   1.602  0.6370  0.1990 -0.6883
 1415lim     li 8975   5.626   6.384   2.841 -0.0637  0.9247  0.2375
 1416lim     li 8976   6.848   6.371   1.541  0.5629  0.8739 -1.1544
 1417lim     li 8977   1.770   4.111   5.603  0.0176 -0.5772  0.6367
 1418lim     li 8978   6.310   1.957   5.685 -0.2010 -0.1784 -1.2710
 1419lim     li 8979   2.581   4.672   0.135  0.0616  0.0807  0.0640
 1420lim     li 8980   5.769   1.848   3.061 -0.4420 -0.6093 -0.2556
 1421lim     li 8981   6.833   2.613   0.759 -2.0645  0.1085 -1.1582
 1422lim     li 8982   0.605   0.496   0.110  0.2437  0.4699 -0.7510
 1423lim     li 8983   3.014   2.926   6.271  0.7802 -0.7336  0.2621
 1424lim     li 8984   3.055   1.759   5.957 -0.2365 -0.0515  0.5544
 1425lim     li 8985   1.711   6.032   4.944 -1.5367  1.5028 -0.4031
 1426lim     li 8986   3.764   5.265   0.847  0.8113  0.6610  1.2689
 1427lim     li 8987   0.723   1.525   2.955 -0.3410  0.2488 -0.1487
 1428lim     li 8988   3.245   6.572   6.136 -0.6694  0.0960 -0.1260
 1429lim     li 8989   4.691   3.599   0.893 -0.3645 -0.3474  0.3273
 1430lim     li 8990   5.968   2.942   0.827 -0.8044 -0.3493  1.0752
 1431lim     li 8991   5.540   3.895   4.438 -0.2489  1.0031  0.9791
 1432lim     li 8992   3.878   4.920   4.635  0.1348  0.1198 -0.0368
 1433lim     li 8993   1.912   6.077   2.517 -0.0848 -0.8253  0.3885
 1434lim     li 8994   1.678   0.206   4.249  1.0239  0.6138  0.2123
 1435lim     li 8995   3.353   1.525   3.082 -0.2731  0.4210 -0.0786
 1436lim     li 8996   4.452   4.487   4.049  1.1936  0.3282  0.4439
 1437lim     li 8997   5.510   2.770   1.802  0.2548 -0.2948 -0.6116
 1438lim     li 8998   2.769   2.200   3.470 -0.4794  0.2566  0.3270
 1439lim     li 8999   5.902   4.645   3.257 -0.4203  1.4678  0.6199
 1440lim     li 9000   2.432   5.983   5.310  0.7242  0.8025  0.7406
 1441lim     li 9001   6.434   0.203   1.297 -0.9178 -0.2519  0.6275
 1442lim     li 9002   5.401   1.345   0.741 -0.5139 -0.2406  1.3792
 1443lim     li 9003   1.491   0.099   2.888 -0.0360 -0.4233  0.0602
 1444lim     li 9004   4.634   0.221   2.083 -0.3931  0.0854 -0.9669
 1445lim     li 9005   0.980   2.557   0.226 -0.1397 -1.3749  0.8843
 1446lim     li 9006   3.973   6.830   2.573  0.0511 -0.2576 -0.2017
 1447lim     li 9007   6.561   6.015   3.738  1.3615  0.1230  0.4039
 1448lim     li 9008   1.079   0.627   3.943 -0.3652 -0.3648 -0.1520
 1449lim     li 9009   4.929   5.784   5.223  0.9280 -0.5765  0.0999
 1450lim     li 9010   1.801   2.765   3.503  0.2963 -0.5259  0.4644
 1451lim     li 9011   1.610   5.112   0.082  0.0697 -0.5279  0.7743
 1452lim     li 9012   3.053   5.557   1.591 -0.1343 -0.4595  0.1371
 1453lim     li 9013   6.380   5.191   2.981 -0.0505  1.1554  1.2941
 1454lim     li 9014   6.070   0.663   2.546  0.0531  0.9598  0.2406
 1455lim     li 9015   1.477   1.512   0.768 -0.1897 -1.0062  0.3193
 1456lim     li 9016   3.982   5.752   2.726  0.7976 -0.6801  0.6969
 1457lim     li 9017   5.545   0.438   4.434 -0.0712 -0.0802 -0.5547
 1458lim     li 9018   3.523   1.152   5.454  0.3930 -0.1109  0.1552
 1459lim     li 9019   4.986   4.113   5.074  0.9698 -0.4143  1.5436
 1460lim     li 9020   3.252   6.270   4.084 -0.8413  0.2587 -0.3217
 1461lim     li 9021   2.266   3.718   6.337  0.0237  0.4628  0.3817
 1462lim     li 9022   0.901   4.325   1.832 -1.3082  0.6139 -1.2944
 1463lim     li 9023   0.912   5.454   6.913 -0.4360  0.5634  0.2048
 1464lim     li 9024   6.686   3.593   1.780 -0.3507  0.3061 -0.3372
 1465lim     li 9025   1.071   6.356   2.753 -0.3788 -0.2076  0.6223
 1466lim     li 9026   4.993   6.574   2.181 -0.0975  1.3107  0.5198
 1467lim     li 9027   5.494   4.295   3.994  0.1115 -0.4590  0.9648
 1468lim     li 9028   4.416   0.523   3.947  0.0013 -1.0781  0.1758
 1469lim     li 9029   1.613   1.320   1.329 -0.7306  0.7754 -0.4462
 1470lim     li 9030   6.259   4.548   3.774 -1.2355  1.2873  0.3608
 1471lim     li 9031   5.146   5.572   0.832 -0.8126 -0.6234  0.4762
 1472lim     li 9032   5.028   3.320   0.588 -0.7187 -0.0037  0.1209
 1473lim     li 9033   6.572   6.829   4.456  0.3142  0.1498  1.1379
 1474lim     li 9034   6.478   3.711   4.444 -0.5835  0.5206 -0.8052
 1475lim     li 9035   0.864   5.860   0.385  0.5364 -0.4241 -0.8657
 1476lim     li 9036   5.177   1.610   2.425  0.0485  0.3161  0.1560
 1477lim     li 9037   3.006   5.595   2.451 -0.6119  0.4068  0.3698
 1478lim     li 9038   3.956   6.027   0.391 -0.4051 -0.4958  0.7186
 1479lim     li 9039   0.520   5.795   2.807  0.7282  0.7844 -0.1664
 1480lim     li 9040   6.653   0.321   3.467  0.2211 -0.2978  0.0644
 1481lim     li 9041   0.735   4.332   2.410 -0.7063 -0.5625 -0.2598
 1482lim     li 9042   4.707   1.111   5.269  0.2904  0.7748  1.2104
 1483lim     li 9043   5.783   3.541   1.486 -0.7456  0.6287 -0.1291
 1484lim     li 9044   1.538   0.022   1.332 -0.4629  1.0799 -0.2997
 1485lim     li 9045   1.022   4.251   0.587 -0.8166 -0.2687 -0.4796
 1486lim     li 9046   2.546   3.091   2.271  0.7527  0.2112 -0.0657
 1487lim     li 9047   4.741   3.095   1.593 -0.0565  0.6419 -1.2248
 1488lim     li 9048   6.004   1.506   6.904  0.7107 -0.5291 -0.2803
 1489lim     li 9049   0.015   6.610   3.187  0.0482 -0.4533 -0.2653
 1490lim     li 9050   5.166   0.291   0.531 -0.1106  0.1680  0.0158
 1491lim     li 9051   3.013   1.236   1.060  0.5793  0.0162  0.7211
 1492lim     li 9052   3.281   4.603   6.192 -0.3196 -0.2730 -1.2887
 1493lim     li 9053   3.699   6.217   1.792 -0.7837 -1.2756  0.6251
 1494lim     li 9054   3.717   3.960   6.454 -2.2275  0.0966  0.2458
 1495lim     li 9055   6.262   2.093   0.384 -0.3933  0.1508 -0.2552
 1496lim     li 9056   2.275   3.918   2.442 -0.2237 -0.9588  0.5434
 1497lim     li 9057   2.496   0.640   1.630  0.5868 -1.5557  0.1472
 1498lim     li 9058   0.438   0.485   3.397  0.5911  0.8191  0.0140
 1499lim     li 9059   6.129   4.318   2.424 -0.5981 -0.4052 -0.4647
 1500lim     li 9060   5.788   6.506   1.726 -0.8812 -1.6927 -0.5534
 1501lim     li 9061   2.794   3.397   5.482  0.3383  0.2596 -0.7832
 1502lim     li 9062   2.072   2.512   4.959 -0.9605  0.7860  0.8931
 1503lim     li 9063   2.324   6.473   3.081 -0.1600 -0.7680  1.3464
 1504lim     li 9064   3.285   0.552   3.508 -1.2184 -0.4610  0.6543
 1505lim     li 9065   6.514   2.440   4.931  0.3810 -0.0122 -0.1713
 1506lim     li 9066   4.513   1.957   2.526  0.2262  0.2647  0.8693
 1507lim     li 9067   3.440   2.402   0.311  0.2397  0.5703 -0.1699
 1508lim     li 9068   0.980   6.616   4.017 -0.0114 -0.4831  0.0494
 1509lim     li 9069   1.403   0.660   0.642 -0.1319 -0.8136 -0.3021
 1510lim     li 9070   2.726   4.916   5.780 -0.0153  0.4614 -0.7489
 1511lim     li 9071   5.803   1.658   4.386  0.5085 -0.1579 -0.5134
 1512lim     li 9072   5.743   4.621   0.882  1.4534  0.2686  0.3222
 1513lim     li 9073   3.233   3.569   2.235  0.3585 -0.2939  0.2746
 1514lim     li 9074   2.876   4.160   5.586 -0.6704  0.0928 -0.1251
 1515lim     li 9075   4.598   4.374   2.160 -0.8984  0.7239  0.0060
 1516lim     li 9076   1.786   0.764   4.994 -0.7018  1.5776  0.5294
 1517lim     li 9077   6.760   4.409   2.100  0.4656 -0.1158  0.0150
 1518lim     li 9078   3.695   5.516   6.284 -1.4093  0.4888 -0.8339
 1519lim     li 9079   4.830   6.629   6.011  0.8868  0.1916 -0.1360
 1520lim     li 9080   4.286   1.845   0.290 -1.1841  0.8117 -0.9955
 1521lim     li 9081   1.082   5.962   4.668  0.7430 -0.7638 -1.0075
 1522lim     li 9082   2.679   1.861   4.427  0.0765 -0.3693 -0.7849
 1523lim     li 9083   3.957   4.649   1.941 -0.3160 -1.0732 -0.0663
 1524lim     li 9084   2.248   5.988   0.320 -1.1855 -0.6108  0.3704
 1525lim     li 9085   3.984   1.366   2.367  0.8764 -0.3785  0.9676
 1526lim     li 9086   0.005   2.242   2.198 -1.4120 -0.3170  0.0609
 1527lim     li 9087   3.022   6.278   2.996 -0.5858 -0.2576  0.9211
 1528lim     li 9088   0.727   0.762   4.925  0.3670 -0.4353  0.2125
 1529lim     li 9089   5.332   4.685   1.365 -0.3055  0.4550 -0.8644
 1530lim     li 9090   3.250   3.295   6.908  0.3649 -0.7913 -0.0284
 1531lim     li 9091   6.085   2.523   3.883  0.7076 -0.5857 -0.2793
 1532lim     li 9092   2.296   2.143   3.145 -1.4700 -0.1018  0.2147
 1533lim     li 9093   1.359   3.945   2.530 -0.2360 -0.0571  0.1724
 1534lim     li 9094   0.701   3.390   6.508 -0.5699 -1.3390  0.4738
 1535lim     li 9095   5.980   5.230   6.633  0.0405 -1.0431 -0.0494
 1536lim     li 9096   5.821   4.449   1.754  0.7733 -1.1383  0.8216
 1537lim     li 9097   1.383   2.070   6.141 -0.5941  0.7261  1.3653
 1538lim     li 9098   1.126   3.243   1.791 -1.1359 -0.4531 -0.6525
 1539lim     li 9099   6.118   4.179   3.083  1.2967  0.3332 -0.2821
 1540lim     li 9100   5.236   3.190   6.106  0.1477  0.5697  0.2487
 1541lim     li 9101   1.760   5.479   3.732 -0.2402 -0.7743 -0.6868
 1542lim     li 9102   5.580   5.495   4.175  0.3033  0.0009  0.3090
 1543lim     li 9103   4.821   6.881   4.109  0.8572 -1.0147  1.2728
 1544lim     li 9104   0.268   0.464   5.896  0.4450  0.0668 -1.2528
 1545lim     li 9105   4.935   3.717   3.548  0.9224  0.1116  0.6286
 1546lim     li 9106   4.316   6.637   6.786 -0.7559  0.4807  0.0474
 1547lim     li 9107   4.181   6.897   0.682 -1.5113 -0.5005 -0.1816
 1548lim     li 9108   0.213   1.723   5.414  0.1854 -1.1023  0.2818
 1549lim     li 9109   6.896   0.462   0.418  0.2095  0.2333 -0.2779
 1550lim     li 9110   2.716   5.251   4.699 -0.0269 -0.6514 -0.0010
 1551lim     li 9111   0.461   4.064   3.215  0.3620 -0.3214  0.4289
 1552lim     li 9112   2.224   1.063   5.503 -0.3704 -0.1090  0.1837
 1553lim     li 9113   3.741   0.520   5.202  0.5110  0.7271  0.9338
 1554lim     li 9114   5.371   1.360   3.495  0.4159  0.8186  0.7894
 1555lim     li 9115   6.507   1.374   3.089 -0.7404 -0.6686 -0.1480
 1556lim     li 9116   3.366   0.735   0.695 -0.5332  0.3387  0.2582
 1557lim     li 9117   6.015   3.676   5.478 -0.0672 -0.7825  0.8091
 1558lim     li 9118   2.918   4.975   0.885 -1.4641  0.3318  0.1903
 1559lim     li 9119   0.050   2.416   3.321 -0.7256 -0.0548 -0.8090
 1560lim     li 9120   1.583   6.096   6.730  0.0294  0.3837  0.0584
 1561lim     li 9121   2.104   4.346   3.159  0.1147  0.3676  1.0499
 1562lim     li 9122   5.063   0.483   3.218  0.2774 -0.7469 -0.6529
 1563lim     li 9123   5.247   4.772   4.320 -0.1125 -0.0177 -0.2407
 1564lim     li 9124   6.258   5.370   2.160 -0.7602 -0.7138  0.1732
 1565lim     li 9125   4.808   5.400   2.112  0.2446 -0.8916 -0.6481
 1566lim     li 9126   5.205   2.616   3.291 -0.8764  0.0588 -0.5492
 1567lim     li 9127   5.342   5.910   2.045  0.2331  0.4411  0.5449
 1568lim     li 9128   5.169   1.199   6.471 -0.0410 -0.5646  1.1120
 1569lim     li 9129   3.254   0.386   4.385 -0.4353  0.1021 -0.0575
 1570lim     li 9130   1.653   2.356   4.501  0.3488 -0.6053 -0.0992
 1571lim     li 9131   0.714   3.642   1.289 -0.9928  0.3502  1.1560
 1572lim     li 9132   6.828   1.040   1.838 -0.0511  0.7380 -0.8759
 1573lim     li 9133   1.656   3.739   1.343 -0.2763  0.0647  0.3631
 1574lim     li 9134   5.600   6.053   3.694  0.3190 -0.5940 -0.7704
 1575lim     li 9135   1.578   0.670   6.667  0.9910  0.4377 -0.8434
 1576lim     li 9136   5.985   4.506   6.100  0.0685 -0.0403 -0.1693
 1577lim     li 9137   2.886   4.197   0.042 -0.1465  0.7482 -0.7124
 1578lim     li 9138   5.661   2.101   1.668  0.3663  0.3912  0.3943
 1579lim     li 9139   1.488   5.461   1.074  0.5620 -0.2177 -1.0470
 1580lim     li 9140   6.510   5.147   5.988  0.0538  0.1926 -0.6573
 1581lim     li 9141   5.277   2.924   0.017 -0.0764 -0.2495 -0.7482
 1582lim     li 9142   6.231   6.653   3.877 -0.5452 -1.0635  0.0042
 1583lim     li 9143   1.542   0.347   6.058  0.0695 -0.1722 -0.6074
 1584lim     li 9144   5.386   6.744   0.118 -0.0283 -0.3654  0.1798
 1585lim     li 9145   1.442   6.214   1.380 -0.5878 -0.5465 -0.1143
 1586lim     li 9146   5.028   5.662   1.370  0.4210  0.4127  0.7642
 1587lim     li 9147   1.925   3.283   5.088 -0.2185  1.0933  0.8863
 1588lim     li 9148   4.757   4.462   6.541  0.6529 -0.0027 -1.2788
 1589lim     li 9149   2.874   5.828   5.809  0.5058 -0.7258  0.7667
 1590lim     li 9150   1.489   6.551   6.071  0.3515 -0.7577 -0.3834
 1591lim     li 9151   3.910   2.390   1.716  1.0088  0.2864  0.0993
 1592lim     li 9152   3.463   3.105   0.737  0.1773  0.7358 -1.3459
 1593lim     li 9153   3.987   3.315   1.314 -0.9001 -0.3696  1.0189
 1594lim     li 9154   5.830   5.510   2.488  0.2376 -0.3264 -0.4493
 1595lim     li 9155   6.796   1.916   3.759 -0.3275  0.0092 -1.2251
 1596lim     li 9156   3.801   1.091   3.952 -1.7145 -0.8531 -0.0232
 1597lim     li 9157   1.226   1.321   6.919 -0.1179  1.2725 -0.2141
 1598lim     li 9158   0.189   5.722   6.602  0.1316  1.3413 -0.6795
 1599lim     li 9159   2.161   5.438   3.091 -0.6414  0.2848 -0.7751
 1600lim     li 9160   1.931   2.742   5.832 -0.4307  0.8557  0.6057
 1601lim     li 9161   4.160   5.115   6.748 -0.1632 -0.4010  0.4469
 1602lim     li 9162   0.882   0.400   1.532 -0.0235  0.4302  0.2437
 1603lim     li 9163   6.319   6.338   5.207  0.5688  1.0449  0.0410
 1604lim     li 9164   1.918   5.185   5.574 -0.4641 -0.2252  0.4176
 1605lim     li 9165   0.552   3.659   0.385 -1.1717 -0.8762  0.4444
 1606lim     li 9166   3.043   2.396   1.968  0.4174  0.1431 -0.3347
 1607lim     li 9167   0.682   6.857   6.160  0.2779 -0.2366  1.3306
 1608lim     li 9168   5.247   4.895   6.402  0.3834 -1.5910  0.5797
 1609lim     li 9169   4.676   1.333   1.540  1.0338  0.4716  0.0013
 1610lim     li 9170   3.875   5.431   1.704 -0.5047  0.1771 -0.5619
 1611lim     li 9171   4.787   1.996   4.909 -0.6530 -0.4578  0.4823
 1612lim     li 9172   1.490   3.340   6.210  0.3101 -0.2676  1.0995
 1613lim     li 9173   0.098   6.051   5.971  0.1952 -0.4868  0.0360
 1614lim     li 9174   1.181   0.656   2.396 -0.1191 -1.1414  0.3966
 1615lim     li 9175   3.755   1.046   3.110 -0.2295  0.3589  0.2562
 1616lim     li 9176   3.403   6.877   4.751  1.0060 -0.3013 -0.0734
 1617lim     li 9177   6.048   2.806   3.098  0.5306  0.4024 -0.6512
 1618lim     li 9178   5.976   3.446   3.610  0.3945 -0.1701 -0.3030
 1619lim     li 9179   3.148   4.521   1.695 -0.2749 -0.6408 -0.0249
 1620lim     li 9180   5.560   4.464   5.485 -0.8433  0.9713 -0.3006
 1621ntf    cn1 9181   6.717   1.672   4.077  0.3513 -0.0935  0.0521
 1621ntf    sn2 9182   6.839   1.642   3.946  0.0910 -0.1240 -0.1850
 1621ntf    nn3 9183   6.963   1.622   4.040 -0.0500 -0.5432 -0.0884
 1621ntf    sn2 9184   7.010   1.486   4.103  0.0814 -0.4218  0.0755
 1621ntf    cn1 9185   7.098   1.553   4.248 -0.3770  0.5002 -0.0670
 1621ntf    fn4 9186   6.694   1.576   4.165 -0.5082  0.4233  0.4051
 1621ntf    fn4 9187   6.743   1.779   4.149 -0.2294  0.0666  0.0263
 1621ntf    fn4 9188   6.600   1.707   4.025  0.6473  0.2227 -0.4139
 1621ntf    on5 9189   6.789   1.534   3.865  0.0756 -0.1842 -0.0938
 1621ntf    on5 9190   6.846   1.770   3.878 -0.0998 -0.2446 -0.4351
 1621ntf    on5 9191   7.116   1.428   4.024  0.2336 -0.2648  0.1645
 1621ntf    on5 9192   6.911   1.394   4.154  0.2508 -0.5444  0.1845
 1621ntf    fn4 9193   7.015   1.617   4.329  0.1236  0.0516  0.8036
 1621ntf    fn4 9194   7.148   1.453   4.319  0.1325  0.5206 -0.3936
 1621ntf    fn4 9195   7.194   1.641   4.226  0.5932 -0.4068  0.4380
 1622ntf    cn1 9196   6.377   4.352   1.377 -0.3991  0.0274  0.0561
 1622ntf    sn2 9197   6.208   4.363   1.443 -0.2733  0.2323  0.3483
 1622ntf    nn3 9198   6.191   4.215   1.492  0.5702 -0.0210 -0.1187
 1622ntf    sn2 9199   6.229   4.155   1.633 -0.0347 -0.4132 -0.1216
 1622ntf    cn1 9200   6.242   3.981   1.584 -0.1936 -0.3507 -0.3917
 1622ntf    fn4 9201   6.380   4.267   1.275  0.3357 -0.4457  0.4631
 1622ntf    fn4 9202   6.434   4.464   1.337  0.2253 -0.3257 -0.0446
 1622ntf    fn4 9203   6.464   4.312   1.468 -0.1349 -0.6202 -0.4770
 1622ntf    on5 9204   6.205   4.474   1.535 -0.1220  0.5032  0.0300
 1622ntf    on5 9205   6.137   4.381   1.319  0.2299  0.4927  0.0969
 1622ntf    on5 9206   6.126   4.167   1.733 -0.1125  0.1608 -0.2647
 1622ntf    on5 9207   6.360   4.190   1.680 -0.2548  0.1088  0.1091
 1622ntf    fn4 9208   6.120   3.931   1.570 -0.4168  0.0655  0.0616
 1622ntf    fn4 9209   6.303   3.968   1.467  0.0047  0.3483 -0.3643
 1622ntf    fn4 9210   6.313   3.915   1.674 -0.2847 -0.4036 -0.3580
 1623ntf    cn1 9211   2.032   5.488   1.727 -0.1176  0.2184  0.2664
 1623ntf    sn2 9212   2.010   5.308   1.714  0.2609  0.2022 -0.1712
 1623ntf    nn3 9213   2.103   5.279   1.591  0.5320  0.4136 -0.0167
 1623ntf    sn2 9214   2.118   5.141   1.517 -0.5037  0.0908  0.3695
 1623ntf    cn1 9215   2.006   5.154   1.375  0.2815  0.1015 -0.2534
 1623ntf    fn4 9216   1.979   5.539   1.837 -0.6674  0.1996  0.0120
 1623ntf    fn4 9217   2.161   5.519   1.730  0.0671 -0.5337  0.1060
 1623ntf    fn4 9218   1.978   5.552   1.625  0.0309  0.2640  0.2159
 1623ntf    on5 9219   2.059   5.257   1.839 -0.0285 -0.0300 -0.1517
 1623ntf    on5 9220   1.869   5.285   1.693  0.2588 -0.0319  0.1027
 1623ntf    on5 9221   2.072   5.019   1.579  0.4278 -0.2800  0.3427
 1623ntf    on5 9222   2.248   5.136   1.456 -0.6047  0.2992  0.1356
 1623ntf    fn4 9223   1.890   5.209   1.407 -0.1011 -0.7399 -0.1770
 1623ntf    fn4 9224   2.055   5.240   1.286 -0.0682  0.2651 -0.2914
 1623ntf    fn4 9225   1.983   5.037   1.317  0.1892  0.0441 -0.1004
 1624ntf    cn1 9226   1.745   6.477   2.826 -0.2481  0.1992  0.1510
 1624ntf    sn2 9227   1.638   6.505   2.682  0.0242 -0.1147 -0.1145
 1624ntf    nn3 9228   1.508   6.453   2.754  0.1835  0.1984  0.4044
 1624ntf    sn2 9229   1.404   6.354   2.690  0.2854  0.2250  0.1960
 1624ntf    cn1 9230   1.445   6.197   2.771 -0.1097 -0.0753 -0.1863
 1624ntf    fn4 9231   1.737   6.349   2.858 -0.0749  0.1235 -0.1092
 1624ntf    fn4 9232   1.873   6.499   2.800 -0.1814 -0.4408 -0.0771
 1624ntf    fn4 9233   1.716   6.537   2.940  0.0916  0.1315  0.2733
 1624ntf    on5 9234   1.645   6.649   2.672 -0.0593 -0.0690  0.4394
 1624ntf    on5 9235   1.698   6.421   2.582 -0.1891 -0.3743 -0.0260
 1624ntf    on5 9236   1.420   6.323   2.550  0.1483  0.6467  0.0850
 1624ntf    on5 9237   1.270   6.375   2.738  0.3480 -0.7218  0.8087
 1624ntf    fn4 9238   1.404   6.196   2.897  0.5390  0.7031  0.0394
 1624ntf    fn4 9239   1.397   6.089   2.711 -0.0872  0.0544 -0.4398
 1624ntf    fn4 9240   1.577   6.184   2.769  0.0093  1.0630 -0.0546
 1625ntf    cn1 9241   3.760   0.464   4.056 -0.1145 -0.3004  0.4738
 1625ntf    sn2 9242   3.588   0.471   3.997  0.0858  0.0163 -0.0757
 1625ntf    nn3 9243   3.542   0.322   4.012 -0.2096  0.0678 -0.4472
 1625ntf    sn2 9244   3.564   0.203   3.912 -0.2501 -0.1050 -0.2507
 1625ntf    cn1 9245   3.618   0.081   4.036 -0.1539 -0.0916 -0.2796
 1625ntf    fn4 9246   3.821   0.581   4.058  0.2492 -0.4708 -0.4303
 1625ntf    fn4 9247   3.772   0.415   4.179 -0.3517  0.3638  0.7654
 1625ntf    fn4 9248   3.831   0.379   3.984 -0.1386 -0.3686  0.5298
 1625ntf    on5 9249   3.531   0.552   4.103  0.1633 -0.3475  0.2480
 1625ntf    on5 9250   3.574   0.531   3.867 -0.2753 -0.0834 -0.0847
 1625ntf    on5 9251   3.678   0.212   3.824 -0.1330 -0.1756 -0.1072
 1625ntf    on5 9252   3.439   0.147   3.865 -0.2353 -0.3128 -0.0495
 1625ntf    fn4 9253   3.745   0.100   4.070 -0.1582  0.0191 -0.3227
 1625ntf    fn4 9254   3.550   0.088   4.149  0.4483  0.2681  0.0691
 1625ntf    fn4 9255   3.615  -0.040   3.982 -0.1481 -0.3489  0.2932
 1626ntf    cn1 9256   6.447   0.694   5.622  0.1751 -0.1951  0.3511
 1626ntf    sn2 9257   6.559   0.685   5.479 -0.1577 -0.0796  0.0774
 1626ntf    nn3 9258   6.501   0.797   5.386  0.2988 -0.0151 -0.1357
 1626ntf    sn2 9259   6.540   0.949   5.374 -0.0805  0.0836 -0.1328
 1626ntf    cn1 9260   6.693   0.936   5.277 -0.2561  0.1242 -0.4157
 1626ntf    fn4 9261   6.322   0.664   5.588  0.2329 -0.4334  0.3485
 1626ntf    fn4 9262   6.476   0.610   5.719  0.1272  0.2760  0.7795
 1626ntf    fn4 9263   6.435   0.819   5.663  0.9298 -0.0442  0.1203
 1626ntf    on5 9264   6.689   0.705   5.539 -0.3355  0.0384  0.4272
 1626ntf    on5 9265   6.545   0.555   5.420  0.2362  0.0946 -0.4083
 1626ntf    on5 9266   6.573   1.024   5.493  0.2019  0.6840 -0.5847
 1626ntf    on5 9267   6.449   1.011   5.281 -0.3980  0.1463  0.2174
 1626ntf    fn4 9268   6.800   0.906   5.348 -0.6773 -0.3628  0.0169
 1626ntf    fn4 9269   6.688   0.843   5.184  0.8338 -0.0526 -0.3081
 1626ntf    fn4 9270   6.731   1.044   5.209 -0.1198  0.1147 -0.3552
 1627ntf    cn1 9271   6.284   6.509   3.462  0.0185 -0.2941 -0.0993
 1627ntf    sn2 9272   6.247   6.658   3.560  0.1408 -0.2606 -0.1031
 1627ntf    nn3 9273   6.123   6.713   3.482  0.0219 -0.0725  0.2175
 1627ntf    sn2 9274   5.971   6.674   3.495  0.0259 -0.1141  0.1473
 1627ntf    cn1 9275   5.918   6.709   3.325 -0.0586 -0.0531  0.1861
 1627ntf    fn4 9276   6.387   6.446   3.517  0.2511  0.0753 -0.1038
 1627ntf    fn4 9277   6.183   6.425   3.451 -0.3084  0.1102 -0.1860
 1627ntf    fn4 9278   6.322   6.546   3.341  0.5152  0.2240  0.2108
 1627ntf    on5 9279   6.219   6.604   3.691 -0.9743  0.2573 -0.1143
 1627ntf    on5 9280   6.370   6.732   3.550 -0.0266  0.0303 -0.0075
 1627ntf    on5 9281   5.888   6.765   3.569  0.2048 -0.1114  0.3472
 1627ntf    on5 9282   5.949   6.533   3.514  0.1075 -0.0541  0.7090
 1627ntf    fn4 9283   5.945   6.832   3.284 -0.2824  0.0215  0.2628
 1627ntf    fn4 9284   5.990   6.634   3.244  0.1618  0.4051 -0.0426
 1627ntf    fn4 9285   5.792   6.682   3.295  0.0544 -0.3067 -0.0602
 1628ntf    cn1 9286   2.657   3.763   5.045  0.4780 -0.2005  0.6977
 1628ntf    sn2 9287   2.576   3.601   5.035  0.4429 -0.1386 -0.0715
 1628ntf    nn3 9288   2.458   3.649   4.944  0.4629 -0.3570 -0.2145
 1628ntf    sn2 9289   2.341   3.561   4.887 -0.0126 -0.0673  0.3029
 1628ntf    cn1 9290   2.427   3.481   4.748  0.0682  0.4109  0.0756
 1628ntf    fn4 9291   2.585   3.856   5.107 -0.5661 -0.5358  0.0204
 1628ntf    fn4 9292   2.775   3.759   5.105  0.4463 -0.4259  0.7475
 1628ntf    fn4 9293   2.680   3.813   4.925  0.0695 -0.4902  0.4948
 1628ntf    on5 9294   2.665   3.517   4.958  0.0041  0.1567 -0.9067
 1628ntf    on5 9295   2.538   3.571   5.171  0.1641  0.1916 -0.0767
 1628ntf    on5 9296   2.245   3.646   4.820  0.0641 -0.0823  0.1741
 1628ntf    on5 9297   2.296   3.453   4.971  0.2196 -0.3427  0.0741
 1628ntf    fn4 9298   2.339   3.445   4.656  0.1415  0.0683  0.1390
 1628ntf    fn4 9299   2.507   3.562   4.680 -0.0468  0.3734 -0.1050
 1628ntf    fn4 9300   2.491   3.372   4.786 -0.0499  0.3037 -0.0353
 1629ntf    cn1 9301   0.792   6.392   4.827 -0.4045  0.5221  0.1149
 1629ntf    sn2 9302   0.969   6.421   4.797 -0.3393 -0.0416 -0.0624
 1629ntf    nn3 9303   0.961   6.575   4.768 -0.3917  0.0235  0.3017
 1629ntf    sn2 9304   1.069   6.688   4.786 -0.2740 -0.0924  0.3244
 1629ntf    cn1 9305   1.215   6.619   4.704 -0.0486  0.4364  0.2752
 1629ntf    fn4 9306   0.751   6.471   4.925 -0.0538  0.4814  0.2977
 1629ntf    fn4 9307   0.722   6.415   4.717 -0.3919  0.0671  0.0058
 1629ntf    fn4 9308   0.762   6.265   4.849 -0.4912  0.4061 -0.6460
 1629ntf    on5 9309   1.031   6.385   4.921  0.0641 -0.8425 -0.4879
 1629ntf    on5 9310   1.000   6.340   4.681 -0.1798 -0.2487  0.1233
 1629ntf    on5 9311   1.118   6.713   4.920  0.6336  0.1117 -0.0417
 1629ntf    on5 9312   1.051   6.810   4.711 -0.2217  0.0736  0.5779
 1629ntf    fn4 9313   1.326   6.689   4.719  0.3997 -0.0862 -0.5107
 1629ntf    fn4 9314   1.246   6.499   4.751  0.2215 -0.0031 -0.9815
 1629ntf    fn4 9315   1.205   6.608   4.573  0.2202  0.2960  0.2653
 1630ntf    cn1 9316   4.844   3.323   6.138 -0.1234 -0.4131 -0.0252
 1630ntf    sn2 9317   4.925   3.287   5.979 -0.3413  0.2263 -0.2852
 1630ntf    nn3 9318   4.846   3.161   5.926 -0.4778  0.1157  0.1762
 1630ntf    sn2 9319   4.804   3.127   5.779  0.1446  0.1844 -0.0184
 1630ntf    cn1 9320   4.623   3.134   5.796  0.1270  0.3658 -0.2731
 1630ntf    fn4 9321   4.913   3.423   6.191 -0.7238  0.2072 -0.4007
 1630ntf    fn4 9322   4.716   3.355   6.140  0.0193  0.2163 -0.6146
 1630ntf    fn4 9323   4.874   3.222   6.218 -0.4739 -0.4198  0.0983
 1630ntf    on5 9324   4.916   3.410   5.904 -0.3010  0.5044  0.1648
 1630ntf    on5 9325   5.055   3.253   6.031 -0.2428  0.3709 -0.4375
 1630ntf    on5 9326   4.840   2.990   5.752  0.2228  0.2916 -0.4655
 1630ntf    on5 9327   4.835   3.225   5.678  0.2418  0.5286  0.3418
 1630ntf    fn4 9328   4.581   3.236   5.869 -0.4481 -0.0792  0.0229
 1630ntf    fn4 9329   4.568   3.142   5.676  0.1370  0.5619 -0.2646
 1630ntf    fn4 9330   4.571   3.027   5.854  0.1899  0.3480 -0.2481
 1631ntf    cn1 9331   3.683   4.920   1.407 -0.4969  0.0053  0.1859
 1631ntf    sn2 9332   3.795   4.867   1.540 -0.0213  0.3810 -0.0597
 1631ntf    nn3 9333   3.847   5.007   1.588  0.2957  0.1523  0.2663
 1631ntf    sn2 9334   3.969   5.086   1.528  0.2484 -0.0359 -0.0759
 1631ntf    cn1 9335   4.092   5.026   1.647  0.1059  0.3326  0.2571
 1631ntf    fn4 9336   3.763   4.960   1.309  0.0663  0.0319  0.6497
 1631ntf    fn4 9337   3.609   4.819   1.366  0.2596 -0.5961  0.2948
 1631ntf    fn4 9338   3.616   5.028   1.446  0.1544  0.2631  0.6112
 1631ntf    on5 9339   3.709   4.802   1.636  0.3248 -0.0677 -0.0526
 1631ntf    on5 9340   3.900   4.790   1.479 -0.2746 -0.1083  0.1183
 1631ntf    on5 9341   3.969   5.227   1.561  0.5612  0.0293 -0.3480
 1631ntf    on5 9342   4.015   5.049   1.396  0.3317 -0.2465  0.0119
 1631ntf    fn4 9343   4.067   5.072   1.769 -0.0291  0.0612  0.3328
 1631ntf    fn4 9344   4.098   4.895   1.662 -0.3040  0.2576 -0.2250
 1631ntf    fn4 9345   4.212   5.070   1.613  0.3149 -0.5382 -0.1443
 1632ntf    cn1 9346   3.241   0.216   2.861 -0.3016 -0.0682 -0.1280
 1632ntf    sn2 9347   3.388   0.216   2.753 -0.0332  0.5007  0.2308
 1632ntf    nn3 9348   3.347   0.094   2.663  0.4261  0.5342 -0.0282
 1632ntf    sn2 9349   3.258   0.101   2.534 -0.1454 -0.0737  0.3215
 1632ntf    cn1 9350   3.387   0.058   2.413 -0.4026  0.5363 -0.1769
 1632ntf    fn4 9351   3.248   0.338   2.910 -0.0150 -0.3949  0.6631
 1632ntf    fn4 9352   3.129   0.196   2.794 -0.3357  0.1197 -0.1264
 1632ntf    fn4 9353   3.252   0.131   2.962  0.2715  0.4331  0.2380
 1632ntf    on5 9354   3.401   0.344   2.688  0.1408  0.3155 -0.1015
 1632ntf    on5 9355   3.489   0.182   2.849 -0.1369 -0.5240 -0.0065
 1632ntf    on5 9356   3.212   0.229   2.486 -0.2550 -0.1150  0.3154
 1632ntf    on5 9357   3.169  -0.011   2.518 -0.3334  0.0642  0.3940
 1632ntf    fn4 9358   3.484   0.149   2.402 -0.2331  0.2668 -0.9207
 1632ntf    fn4 9359   3.456  -0.051   2.444 -0.0409  0.6264 -0.6539
 1632ntf    fn4 9360   3.338   0.022   2.296 -0.0448 -0.0165 -0.1618
 1633ntf    cn1 9361   3.962   2.290   0.003  0.1261 -0.4334  0.3737
 1633ntf    sn2 9362   3.905   2.117   0.008 -0.2964 -0.2941  0.4103
 1633ntf    nn3 9363   4.031   2.040  -0.047 -0.3551 -0.4996  0.5629
 1633ntf    sn2 9364   4.078   1.962  -0.174  0.0982  0.0112  0.4157
 1633ntf    cn1 9365   4.244   2.034  -0.196 -0.0212  0.1232 -0.1405
 1633ntf    fn4 9366   3.981   2.348  -0.114  0.0211 -0.3029  0.4213
 1633ntf    fn4 9367   3.890   2.377   0.071 -0.4827 -0.4440 -0.2432
 1633ntf    fn4 9368   4.080   2.307   0.061  0.3047  0.2413 -0.1707
 1633ntf    on5 9369   3.887   2.085   0.147  0.1730  0.3207  0.6184
 1633ntf    on5 9370   3.793   2.111  -0.083  0.2811  0.7401 -0.4011
 1633ntf    on5 9371   4.010   2.002  -0.295  0.6300 -0.3080  0.0022
 1633ntf    on5 9372   4.092   1.821  -0.151 -0.0324 -0.0257  0.2691
 1633ntf    fn4 9373   4.249   2.144  -0.268 -0.3483  0.5115  0.4263
 1633ntf    fn4 9374   4.294   2.058  -0.076  0.4360 -0.0044 -0.3016
 1633ntf    fn4 9375   4.314   1.950  -0.270 -0.2739 -0.3232  0.1211
 1634ntf    cn1 9376   0.290   6.869   4.828 -0.0735  0.0237  0.2120
 1634ntf    sn2 9377   0.229   7.031   4.772 -0.0092 -0.0872 -0.1811
 1634ntf    nn3 9378   0.297   7.055   4.633 -0.3461  0.0709 -0.3211
 1634ntf    sn2 9379   0.373   7.180   4.575 -0.6059  0.3779 -0.0035
 1634ntf    cn1 9380   0.247   7.272   4.482 -0.5394  0.0336 -0.4362
 1634ntf    fn4 9381   0.422   6.871   4.834 -0.0541 -0.0082 -0.2085
 1634ntf    fn4 9382   0.240   6.828   4.943 -0.0010 -0.0854  0.2042
 1634ntf    fn4 9383   0.260   6.772   4.743 -0.2584  0.0883  0.2031
 1634ntf    on5 9384   0.086   7.018   4.757  0.0393 -1.0640  0.1602
 1634ntf    on5 9385   0.279   7.127   4.867  0.1055 -0.2476 -0.0801
 1634ntf    on5 9386   0.461   7.129   4.472 -0.3060 -0.0082  0.4395
 1634ntf    on5 9387   0.433   7.268   4.673  0.3990  0.3067 -0.5429
 1634ntf    fn4 9388   0.283   7.388   4.432 -0.4309  0.0821 -0.2470
 1634ntf    fn4 9389   0.201   7.196   4.383 -0.0425 -0.4495 -0.3037
 1634ntf    fn4 9390   0.136   7.291   4.551  0.0159 -0.5395  0.6463
 1635ntf    cn1 9391   1.692   4.058   6.266  0.3789 -0.0251 -0.2524
 1635ntf    sn2 9392   1.740   4.148   6.417 -0.0250 -0.0461 -0.1103
 1635ntf    nn3 9393   1.805   4.037   6.507  0.3004  0.2248 -0.0120
 1635ntf    sn2 9394   1.749   3.978   6.641  0.1522  0.3593 -0.0142
 1635ntf    cn1 9395   1.726   3.803   6.596  0.4549  0.3442 -0.1153
 1635ntf    fn4 9396   1.649   4.129   6.163  0.5179  0.2269 -0.1363
 1635ntf    fn4 9397   1.794   3.996   6.209  0.0095 -0.3732 -0.5428
 1635ntf    fn4 9398   1.589   3.981   6.299  0.0662  0.5463  0.1410
 1635ntf    on5 9399   1.850   4.232   6.378  0.1478 -0.5546 -0.7452
 1635ntf    on5 9400   1.627   4.226   6.462 -0.2003 -0.3711  0.0180
 1635ntf    on5 9401   1.617   4.015   6.686  0.4660  0.5864  0.7355
 1635ntf    on5 9402   1.848   3.971   6.745  0.0223  0.3575  0.1098
 1635ntf    fn4 9403   1.651   3.775   6.490  0.2767 -0.1357  0.1334
 1635ntf    fn4 9404   1.841   3.741   6.582  0.5363  0.4656  0.0129
 1635ntf    fn4 9405   1.673   3.731   6.694 -0.0042  0.9114  0.0601
 1636ntf    cn1 9406   6.656   3.740   5.519  0.2043 -0.2283 -0.0496
 1636ntf    sn2 9407   6.716   3.889   5.434  0.2407 -0.1494  0.1136
 1636ntf    nn3 9408   6.832   3.934   5.529  1.3220 -0.5955 -0.9673
 1636ntf    sn2 9409   6.890   4.080   5.534  0.3826 -0.2452  0.3171
 1636ntf    cn1 9410   7.053   4.029   5.471  0.3114  0.0703 -0.1244
 1636ntf    fn4 9411   6.756   3.654   5.525  0.3728 -0.0456 -0.2350
 1636ntf    fn4 9412   6.624   3.766   5.645  0.2673  0.0240 -0.0844
 1636ntf    fn4 9413   6.551   3.685   5.461  0.0853 -0.2631  0.2000
 1636ntf    on5 9414   6.759   3.842   5.305 -1.1277  0.3044 -0.5284
 1636ntf    on5 9415   6.594   3.966   5.430  0.2360 -0.1341  0.5544
 1636ntf    on5 9416   6.915   4.119   5.671  0.3887  0.6716  0.0605
 1636ntf    on5 9417   6.838   4.183   5.448 -0.9667 -0.9122  0.3067
 1636ntf    fn4 9418   7.134   4.134   5.478  0.0423  0.2505  0.3191
 1636ntf    fn4 9419   7.112   3.933   5.541  0.1293  0.1689  0.1645
 1636ntf    fn4 9420   7.051   3.989   5.345  0.0212  0.1900 -0.1585
 1637ntf    cn1 9421   2.645   2.141   1.496  0.0426 -0.4389 -0.1500
 1637ntf    sn2 9422   2.674   2.137   1.675 -0.2121  0.2255 -0.0884
 1637ntf    nn3 9423   2.738   2.276   1.710 -0.2021  0.4855 -1.1039
 1637ntf    sn2 9424   2.879   2.326   1.663  0.1779  0.2713 -0.2121
 1637ntf    cn1 9425   2.823   2.470   1.568  0.1315  0.4590  0.0960
 1637ntf    fn4 9426   2.559   2.052   1.450 -0.3242  0.0293 -0.3852
 1637ntf    fn4 9427   2.607   2.263   1.460 -0.1594 -0.4749 -0.0619
 1637ntf    fn4 9428   2.752   2.125   1.420  0.8608 -0.7823  1.0549
 1637ntf    on5 9429   2.541   2.126   1.730 -0.2042 -0.0855 -0.1261
 1637ntf    on5 9430   2.745   2.012   1.689 -0.5262  0.0704  0.1438
 1637ntf    on5 9431   2.956   2.246   1.571 -0.3724 -0.5450  0.0219
 1637ntf    on5 9432   2.953   2.392   1.768 -0.2093 -0.7938  0.7528
 1637ntf    fn4 9433   2.925   2.544   1.526  0.1515  0.1585 -0.4030
 1637ntf    fn4 9434   2.746   2.445   1.463  0.5146 -0.1690 -0.0392
 1637ntf    fn4 9435   2.752   2.547   1.648 -0.2271  0.5952 -0.3463
 1638ntf    cn1 9436   0.417   6.318   2.277 -0.1582  0.4875 -0.2555
 1638ntf    sn2 9437   0.559   6.296   2.389 -0.3475 -0.1297 -0.1351
 1638ntf    nn3 9438   0.622   6.162   2.335 -0.1798 -0.0010 -0.2598
 1638ntf    sn2 9439   0.768   6.105   2.347 -0.3233 -0.3181  0.0095
 1638ntf    cn1 9440   0.847   6.201   2.214 -0.3910  0.1398  0.2962
 1638ntf    fn4 9441   0.316   6.241   2.311  0.4058 -0.1316  0.0393
 1638ntf    fn4 9442   0.370   6.441   2.290 -0.7768  0.2102  0.1662
 1638ntf    fn4 9443   0.440   6.292   2.149 -0.6983 -0.6374 -0.1369
 1638ntf    on5 9444   0.631   6.420   2.383 -0.2524 -0.1498  0.5732
 1638ntf    on5 9445   0.493   6.268   2.514 -0.2896 -0.2012 -0.1201
 1638ntf    on5 9446   0.784   5.969   2.302  0.4741 -0.4004  0.5279
 1638ntf    on5 9447   0.840   6.136   2.468  0.0893  0.0676 -0.3311
 1638ntf    fn4 9448   0.863   6.327   2.251  1.3133  0.0335  0.0025
 1638ntf    fn4 9449   0.965   6.158   2.171 -0.6980 -0.3574 -0.0644
 1638ntf    fn4 9450   0.767   6.200   2.109  0.1354  0.2259 -0.1127
 1639ntf    cn1 9451   4.531   5.644   4.208  0.2385 -0.2681 -0.0339
 1639ntf    sn2 9452   4.367   5.568   4.229 -0.0095  0.3867  0.4264
 1639ntf    nn3 9453   4.414   5.426   4.276 -0.3898 -0.1016 -0.6412
 1639ntf    sn2 9454   4.419   5.293   4.193 -0.2583 -0.3880 -0.1832
 1639ntf    cn1 9455   4.427   5.178   4.333 -0.3218  0.0085  0.1452
 1639ntf    fn4 9456   4.596   5.577   4.114 -0.2338 -0.6527 -0.0898
 1639ntf    fn4 9457   4.512   5.770   4.173  0.8711  0.0120  0.6178
 1639ntf    fn4 9458   4.606   5.644   4.317  0.4516  0.3118 -0.1796
 1639ntf    on5 9459   4.306   5.659   4.323  0.1100  0.8983  0.0140
 1639ntf    on5 9460   4.307   5.571   4.098 -0.1898  0.4746  0.5100
 1639ntf    on5 9461   4.545   5.284   4.122  0.2135 -0.0886  0.6064
 1639ntf    on5 9462   4.299   5.247   4.126 -0.0290 -0.9133 -0.2432
 1639ntf    fn4 9463   4.332   5.214   4.419 -0.1440  0.1882  0.2684
 1639ntf    fn4 9464   4.405   5.053   4.296  0.0564 -0.1972  0.6017
 1639ntf    fn4 9465   4.536   5.188   4.407 -0.4292  0.7302  0.2173
 1640ntf    cn1 9466   0.133   4.321   1.767  0.2317 -0.4202  0.4073
 1640ntf    sn2 9467   0.070   4.480   1.706 -0.0471 -0.4982  0.4927
 1640ntf    nn3 9468   0.144   4.570   1.812 -0.0224 -0.1233  0.1598
 1640ntf    sn2 9469   0.086   4.608   1.953 -0.0397  0.2234  0.0602
 1640ntf    cn1 9470  -0.014   4.755   1.914  0.0146  0.2083 -0.1403
 1640ntf    fn4 9471   0.262   4.305   1.742  0.4506  0.3945  0.9446
 1640ntf    fn4 9472   0.127   4.302   1.898 -0.8206 -0.2074  0.3940
 1640ntf    fn4 9473   0.069   4.223   1.706  0.1448 -0.2228  0.1791
 1640ntf    on5 9474   0.124   4.479   1.573 -0.2884 -0.5745  0.3954
 1640ntf    on5 9475  -0.074   4.469   1.706 -0.0778 -0.2534 -0.9847
 1640ntf    on5 9476   0.186   4.659   2.043  0.1029  0.1278 -0.0435
 1640ntf    on5 9477   0.002   4.507   2.012  0.4663 -0.2672 -0.0474
 1640ntf    fn4 9478   0.056   4.861   1.878  0.2158 -0.1625 -0.8642
 1640ntf    fn4 9479  -0.101   4.727   1.819  0.4778  0.2086 -0.5666
 1640ntf    fn4 9480  -0.085   4.786   2.021  0.3489  0.1548  0.0975
 1641ntf    cn1 9481   0.124   1.776   2.817  0.6354 -0.2375 -0.4715
 1641ntf    sn2 9482   0.127   1.937   2.902 -0.2102 -0.2526 -0.4088
 1641ntf    nn3 9483   0.134   2.038   2.781  0.3141 -0.3921 -0.4973
 1641ntf    sn2 9484   0.256   2.121   2.728  0.3924 -0.0326  0.2364
 1641ntf    cn1 9485   0.214   2.286   2.793 -0.0781 -0.1209  0.1610
 1641ntf    fn4 9486   0.113   1.677   2.904 -0.1063 -0.3238 -0.6586
 1641ntf    fn4 9487   0.031   1.754   2.726  0.0061  0.4867 -0.0159
 1641ntf    fn4 9488   0.241   1.752   2.760  0.4305 -0.5555 -0.7626
 1641ntf    on5 9489  -0.007   1.940   2.957  0.0946  0.0643  0.3233
 1641ntf    on5 9490   0.241   1.938   2.990 -0.6744  0.3426  0.1928
 1641ntf    on5 9491   0.254   2.143   2.586  0.7795 -0.2276  0.2017
 1641ntf    on5 9492   0.384   2.095   2.789  0.6492  0.4082 -0.1129
 1641ntf    fn4 9493   0.212   2.296   2.925 -0.2101 -0.0235  0.1518
 1641ntf    fn4 9494   0.295   2.384   2.759 -0.4076 -0.0262 -0.3623
 1641ntf    fn4 9495   0.097   2.320   2.741 -0.0878 -0.4969 -0.0674
 1642ntf    cn1 9496   6.793   5.762   2.009 -0.1580 -0.3598 -0.0767
 1642ntf    sn2 9497   6.861   5.926   2.045 -0.1358 -0.3498 -0.1631
 1642ntf    nn3 9498   6.988   5.933   1.952 -0.1373 -0.4773 -0.1744
 1642ntf    sn2 9499   7.135   5.893   1.990 -0.0261 -0.0725 -0.1731
 1642ntf    cn1 9500   7.194   6.038   2.081  0.1799  0.0147 -0.4433
 1642ntf    fn4 9501   6.747   5.754   1.885 -0.1115 -0.2568 -0.1006
 1642ntf    fn4 9502   6.889   5.671   2.019  0.1981  0.0512  0.2604
 1642ntf    fn4 9503   6.696   5.725   2.091 -0.1397 -0.4085 -0.0771
 1642ntf    on5 9504   6.760   6.011   1.986  0.3003  0.1291 -0.2249
 1642ntf    on5 9505   6.877   5.930   2.188  0.4907  0.5630 -0.2450
 1642ntf    on5 9506   7.218   5.898   1.872  0.1196  0.1098 -0.0643
 1642ntf    on5 9507   7.164   5.783   2.080  0.2726  0.0159 -0.1596
 1642ntf    fn4 9508   7.161   6.143   2.008  0.5531  0.2045 -0.3439
 1642ntf    fn4 9509   7.135   6.041   2.200 -0.0438  0.1704 -0.5577
 1642ntf    fn4 9510   7.326   6.040   2.092  0.1410 -0.2658  0.1144
 1643ntf    cn1 9511   4.276   1.254   1.348 -0.0147 -0.1675 -0.3677
 1643ntf    sn2 9512   4.367   1.210   1.499  0.3150 -0.1155 -0.5506
 1643ntf    nn3 9513   4.283   1.289   1.606  0.1933 -0.6212 -0.2686
 1643ntf    sn2 9514   4.181   1.230   1.709  0.2968  0.1463  0.2771
 1643ntf    cn1 9515   4.125   1.384   1.789 -0.1749  0.0020  0.2244
 1643ntf    fn4 9516   4.328   1.192   1.243  0.0786 -0.3265 -0.2294
 1643ntf    fn4 9517   4.151   1.210   1.358  0.0482 -0.2172  0.2533
 1643ntf    fn4 9518   4.269   1.380   1.311 -0.0289 -0.1233 -0.2153
 1643ntf    on5 9519   4.378   1.067   1.513 -0.0912 -0.0057  1.1533
 1643ntf    on5 9520   4.490   1.283   1.482  0.0686  0.5158  0.2884
 1643ntf    on5 9521   4.240   1.158   1.819 -0.2648 -0.6372  0.0692
 1643ntf    on5 9522   4.065   1.171   1.647  0.1663  0.4600  0.2192
 1643ntf    fn4 9523   4.224   1.431   1.862  0.1201 -0.2313 -0.0266
 1643ntf    fn4 9524   4.095   1.479   1.701  0.2999 -0.2430 -0.2065
 1643ntf    fn4 9525   4.023   1.361   1.870 -0.1729 -0.0434  0.2140
 1644ntf    cn1 9526   3.243   1.497   4.711 -0.4083  0.0610 -0.1341
 1644ntf    sn2 9527   3.287   1.321   4.711 -0.3303  0.0808 -0.3652
 1644ntf    nn3 9528   3.147   1.259   4.746 -0.1441 -0.0443  0.1691
 1644ntf    sn2 9529   3.112   1.149   4.852  0.0353 -0.1059  0.1653
 1644ntf    cn1 9530   3.156   1.002   4.755  0.2381 -0.0283  0.1395
 1644ntf    fn4 9531   3.187   1.538   4.824  0.3965 -0.2617  0.3889
 1644ntf    fn4 9532   3.350   1.574   4.699 -0.1754 -0.1095  0.7596
 1644ntf    fn4 9533   3.154   1.532   4.620  0.0781  0.3374 -0.5111
 1644ntf    on5 9534   3.326   1.299   4.574  0.3356  0.3913 -0.2288
 1644ntf    on5 9535   3.393   1.299   4.806 -0.5294 -0.2440 -0.2145
 1644ntf    on5 9536   2.970   1.135   4.873  0.0542 -0.5623 -0.0028
 1644ntf    on5 9537   3.193   1.142   4.971  0.7406 -0.6800 -0.3445
 1644ntf    fn4 9538   3.132   0.883   4.809 -0.0105 -0.3598 -0.6945
 1644ntf    fn4 9539   3.092   0.996   4.640  0.0144  0.4124  0.2372
 1644ntf    fn4 9540   3.286   1.005   4.730  0.1389  0.0432 -0.3678
 1645ntf    cn1 9541   3.470   2.744   5.693  0.6272 -0.2294  0.1018
 1645ntf    sn2 9542   3.482   2.793   5.868  0.4544 -0.0696  0.0710
 1645ntf    nn3 9543   3.607   2.705   5.905  0.1706 -0.6059 -0.2327
 1645ntf    sn2 9544   3.761   2.735   5.909  0.0496 -0.0138  0.0113
 1645ntf    cn1 9545   3.834   2.574   5.870 -0.2243 -0.1611  0.1033
 1645ntf    fn4 9546   3.347   2.745   5.644  0.5697 -0.2095  0.2442
 1645ntf    fn4 9547   3.541   2.818   5.609  0.1009 -0.4297 -0.5239
 1645ntf    fn4 9548   3.508   2.620   5.669 -0.0658 -0.5374  0.5525
 1645ntf    on5 9549   3.499   2.936   5.870  0.0853 -0.0291  0.7240
 1645ntf    on5 9550   3.359   2.745   5.926  0.4932 -0.4419 -0.1537
 1645ntf    on5 9551   3.816   2.772   6.038 -0.1940  0.6048 -0.0586
 1645ntf    on5 9552   3.810   2.816   5.801 -0.6872 -0.0818 -0.3817
 1645ntf    fn4 9553   3.966   2.579   5.885 -0.2392  0.6285  0.0026
 1645ntf    fn4 9554   3.799   2.489   5.965 -0.3581 -0.1609  0.0554
 1645ntf    fn4 9555   3.806   2.530   5.748  0.1850  0.0376 -0.0623
 1646ntf    cn1 9556   4.454   6.705   3.780  0.4022 -0.2492  0.3805
 1646ntf    sn2 9557   4.450   6.773   3.612 -0.0071 -0.2518  0.3887
 1646ntf    nn3 9558   4.598   6.826   3.611 -0.0068 -0.2549 -0.0164
 1646ntf    sn2 9559   4.663   6.966   3.581 -0.0617 -0.2280 -0.0124
 1646ntf    cn1 9560   4.801   6.905   3.480  0.2664 -0.1670  0.3978
 1646ntf    fn4 9561   4.552   6.615   3.780  0.2476 -0.4191  0.4121
 1646ntf    fn4 9562   4.480   6.795   3.873 -0.0385 -0.1297  0.3898
 1646ntf    fn4 9563   4.341   6.640   3.805  0.2814 -0.3641 -0.4457
 1646ntf    on5 9564   4.436   6.653   3.534 -0.5178 -0.1592  0.3327
 1646ntf    on5 9565   4.345   6.871   3.600  0.3615  0.0639 -0.3080
 1646ntf    on5 9566   4.724   7.022   3.699 -0.2635  0.0271 -0.0291
 1646ntf    on5 9567   4.602   7.060   3.490 -0.0012 -0.2217 -0.0460
 1646ntf    fn4 9568   4.764   6.849   3.366  0.0123  0.0121  0.3912
 1646ntf    fn4 9569   4.871   7.014   3.451  0.1165 -0.2119 -0.1515
 1646ntf    fn4 9570   4.887   6.837   3.554  0.1357 -0.1679  0.5496
 1647ntf    cn1 9571   1.347   4.697   6.596 -0.0992 -0.0403  0.0824
 1647ntf    sn2 9572   1.499   4.687   6.694  0.0806 -0.1302 -0.2065
 1647ntf    nn3 9573   1.473   4.570   6.795  0.2879  0.1450  0.1685
 1647ntf    sn2 9574   1.394   4.584   6.930 -0.0338  0.2781 -0.0326
 1647ntf    cn1 9575   1.531   4.611   7.046  0.1162 -0.1352 -0.1113
 1647ntf    fn4 9576   1.254   4.731   6.685  0.0569  0.1842  0.1615
 1647ntf    fn4 9577   1.350   4.785   6.497 -0.0352  0.2653  0.3528
 1647ntf    fn4 9578   1.333   4.577   6.543 -0.4783  0.3281 -0.6767
 1647ntf    on5 9579   1.590   4.636   6.594  1.0951 -0.7004  0.9685
 1647ntf    on5 9580   1.522   4.818   6.750 -0.1460 -0.1203 -0.1394
 1647ntf    on5 9581   1.334   4.462   6.978 -0.0416  0.0490 -0.6197
 1647ntf    on5 9582   1.318   4.706   6.943 -0.5486 -0.0403 -0.0263
 1647ntf    fn4 9583   1.502   4.576   7.171  0.3756  0.1552  0.0333
 1647ntf    fn4 9584   1.641   4.544   7.017  0.1711 -0.0055 -0.2018
 1647ntf    fn4 9585   1.575   4.736   7.047 -0.3640  0.0352  0.6726
 1648ntf    cn1 9586   5.107   2.167   6.885  0.2076  0.6159  0.0520
 1648ntf    sn2 9587   5.153   2.012   6.969  0.5015  0.5770 -0.1815
 1648ntf    nn3 9588   5.023   2.011   7.056  0.1833  0.8608 -0.6472
 1648ntf    sn2 9589   5.006   2.071   7.200  0.2490 -0.0890 -0.2330
 1648ntf    cn1 9590   4.826   2.089   7.197  0.2311 -0.1936  0.2302
 1648ntf    fn4 9591   5.088   2.268   6.968  0.1813  0.1907  0.5752
 1648ntf    fn4 9592   5.203   2.203   6.802  0.4621  0.1585  0.1404
 1648ntf    fn4 9593   4.993   2.165   6.818  0.2335  0.2289  0.0185
 1648ntf    on5 9594   5.143   1.922   6.856  0.0030  0.5008 -0.0784
 1648ntf    on5 9595   5.281   2.044   7.028  0.3020  0.5996  0.2374
 1648ntf    on5 9596   5.049   2.207   7.226 -0.6095  0.0654  0.3923
 1648ntf    on5 9597   5.041   1.970   7.297 -0.1341 -0.1284 -0.1350
 1648ntf    fn4 9598   4.776   2.142   7.308  0.1173 -0.0415  0.1086
 1648ntf    fn4 9599   4.791   2.166   7.095 -0.3113 -0.0768  0.4973
 1648ntf    fn4 9600   4.758   1.976   7.187 -0.5242  0.2903 -0.2854
 1649ntf    cn1 9601   3.137   2.573   2.423  0.1206  0.5382  0.1986
 1649ntf    sn2 9602   3.260   2.460   2.351 -0.3459 -0.0836  0.3728
 1649ntf    nn3 9603   3.329   2.564   2.256 -0.7734 -0.1901 -0.0619
 1649ntf    sn2 9604   3.318   2.576   2.100  0.3835 -0.2571 -0.1618
 1649ntf    cn1 9605   3.257   2.747   2.087  0.2342 -0.3122 -0.2033
 1649ntf    fn4 9606   3.071   2.519   2.523 -0.5885  0.2786 -0.3978
 1649ntf    fn4 9607   3.193   2.688   2.456  0.2455  0.5584 -0.0747
 1649ntf    fn4 9608   3.043   2.594   2.332  0.1702  0.0861  0.0434
 1649ntf    on5 9609   3.330   2.412   2.467  0.0216  0.1601  0.2514
 1649ntf    on5 9610   3.178   2.362   2.283 -0.2324 -0.2401  0.4632
 1649ntf    on5 9611   3.213   2.507   2.028  0.7344 -0.5996 -0.3454
 1649ntf    on5 9612   3.443   2.587   2.028 -0.0449  0.4019 -0.8291
 1649ntf    fn4 9613   3.355   2.831   2.119 -0.2927  0.3228 -0.2294
 1649ntf    fn4 9614   3.209   2.783   1.969  0.6051 -0.0042 -0.2639
 1649ntf    fn4 9615   3.159   2.756   2.175  0.2636 -0.3444 -0.1674
 1650ntf    cn1 9616   4.360   2.902   1.647  0.1207 -0.0686 -0.2052
 1650ntf    sn2 9617   4.498   2.900   1.765  0.2169 -0.1019 -0.3190
 1650ntf    nn3 9618   4.416   2.970   1.878 -0.0132 -0.1608 -0.4494
 1650ntf    sn2 9619   4.328   2.899   1.987  0.2391 -0.0734 -0.1871
 1650ntf    cn1 9620   4.451   2.815   2.092  0.1562 -0.1971 -0.1876
 1650ntf    fn4 9621   4.304   2.783   1.647 -0.1805  0.0702 -0.5052
 1650ntf    fn4 9622   4.267   2.989   1.684 -0.3889 -0.6155 -0.1984
 1650ntf    fn4 9623   4.406   2.935   1.527 -0.2690  0.0041 -0.3371
 1650ntf    on5 9624   4.525   2.759   1.769  0.8128  0.0030 -0.5249
 1650ntf    on5 9625   4.589   2.992   1.701 -0.1758  0.6422  0.1793
 1650ntf    on5 9626   4.235   2.800   1.937 -0.1597  0.2355 -0.0608
 1650ntf    on5 9627   4.265   2.999   2.069  0.6626  0.0869 -0.0526
 1650ntf    fn4 9628   4.572   2.867   2.107  0.0842 -0.2194  0.5185
 1650ntf    fn4 9629   4.409   2.787   2.214 -0.3847  0.4445 -0.2181
 1650ntf    fn4 9630   4.481   2.698   2.039  0.1843 -0.0844 -0.4199
 1651ntf    cn1 9631   3.971   4.690   4.036  0.2132  0.1147 -0.4599
 1651ntf    sn2 9632   3.982   4.528   4.117  0.1123  0.1173 -0.4407
 1651ntf    nn3 9633   3.936   4.560   4.263 -0.0556 -0.1163 -0.4414
 1651ntf    sn2 9634   3.835   4.482   4.354  0.1558  0.2812  0.1469
 1651ntf    cn1 9635   3.686   4.576   4.309 -0.3252 -0.3652  0.3686
 1651ntf    fn4 9636   3.850   4.741   4.053  0.1315 -0.2340  0.0145
 1651ntf    fn4 9637   4.055   4.771   4.098  0.3210  0.2530 -0.7819
 1651ntf    fn4 9638   4.007   4.681   3.909 -0.2267  0.2452 -0.5963
 1651ntf    on5 9639   3.883   4.451   4.046 -0.3516  0.9298 -0.6877
 1651ntf    on5 9640   4.119   4.484   4.103 -0.0400 -0.4904 -0.0637
 1651ntf    on5 9641   3.864   4.506   4.493 -0.4341  0.5181  0.2330
 1651ntf    on5 9642   3.804   4.345   4.322  0.4654  0.2244  0.0915
 1651ntf    fn4 9643   3.711   4.706   4.308 -0.3356 -0.3642 -0.4335
 1651ntf    fn4 9644   3.642   4.561   4.185  0.1197  0.7006  0.0683
 1651ntf    fn4 9645   3.585   4.570   4.394 -0.4791 -0.4351  0.1827
 1652ntf    cn1 9646   0.887   0.114   1.104  0.3604 -0.2018  0.0668
 1652ntf    sn2 9647   0.864   0.192   0.941 -0.1069 -0.4004  0.0379
 1652ntf    nn3 9648   0.891   0.342   0.977  0.5482 -0.6177  0.4627
 1652ntf    sn2 9649   0.992   0.446   0.915 -0.1215 -0.2065  0.0505
 1652ntf    cn1 9650   1.038   0.534   1.067 -0.4404  0.2834 -0.1342
 1652ntf    fn4 9651   1.004   0.134   1.162  0.0717  0.6828  0.3558
 1652ntf    fn4 9652   0.795   0.144   1.193 -0.0470 -0.4680 -0.2559
 1652ntf    fn4 9653   0.878  -0.016   1.077  0.2437 -0.0760 -0.5111
 1652ntf    on5 9654   0.971   0.133   0.865  0.2369 -0.1782  0.3464
 1652ntf    on5 9655   0.727   0.177   0.897 -0.2911 -0.0544  0.4864
 1652ntf    on5 9656   0.932   0.539   0.823 -0.0303  0.7235  0.9211
 1652ntf    on5 9657   1.117   0.390   0.869 -0.1710 -0.0675 -0.2550
 1652ntf    fn4 9658   0.963   0.640   1.093 -0.0090  0.6171 -0.2607
 1652ntf    fn4 9659   1.016   0.448   1.166 -0.3072  0.3948 -0.0085
 1652ntf    fn4 9660   1.165   0.566   1.081 -0.5902  0.6892  0.3638
 1653ntf    cn1 9661   4.757   5.444   0.886  0.0500 -0.3058 -0.2433
 1653ntf    sn2 9662   4.813   5.616   0.903 -0.3826 -0.2008  0.1208
 1653ntf    nn3 9663   4.762   5.648   1.048  0.5308 -0.0043  0.4005
 1653ntf    sn2 9664   4.776   5.778   1.135 -0.0935  0.3393 -0.0122
 1653ntf    cn1 9665   4.601   5.815   1.171 -0.1513 -0.2494  0.3193
 1653ntf    fn4 9666   4.627   5.431   0.904  0.0850 -0.0273  0.2194
 1653ntf    fn4 9667   4.789   5.389   0.769  0.8435  0.6289 -0.4806
 1653ntf    fn4 9668   4.806   5.356   0.972 -0.4512  0.0720  0.4411
 1653ntf    on5 9669   4.954   5.600   0.883 -0.3910 -0.5071  0.3140
 1653ntf    on5 9670   4.733   5.686   0.805 -0.1890  0.3222  0.3337
 1653ntf    on5 9671   4.825   5.897   1.069  0.3661 -0.0862 -0.4463
 1653ntf    on5 9672   4.837   5.741   1.259 -0.0448 -0.1615 -0.1845
 1653ntf    fn4 9673   4.538   5.718   1.235 -0.4716 -0.1665  0.1316
 1653ntf    fn4 9674   4.595   5.924   1.246  0.2185  0.1279 -0.1915
 1653ntf    fn4 9675   4.532   5.838   1.061 -0.2371 -0.3835  0.3451
 1654ntf    cn1 9676   0.590   3.375   1.944 -0.0026 -0.3404  0.2350
 1654ntf    sn2 9677   0.677   3.305   2.087  0.1788 -0.3582  0.1159
 1654ntf    nn3 9678   0.651   3.411   2.200  0.2060 -0.0987 -0.1211
 1654ntf    sn2 9679   0.752   3.525   2.239  0.1858 -0.1232  0.0041
 1654ntf    cn1 9680   0.834   3.454   2.385 -0.0792  0.0399  0.2330
 1654ntf    fn4 9681   0.631   3.499   1.921  0.1857 -0.3023  0.7709
 1654ntf    fn4 9682   0.608   3.309   1.831 -0.4390 -0.4477  0.2271
 1654ntf    fn4 9683   0.458   3.376   1.957 -0.0383  0.7042 -0.1088
 1654ntf    on5 9684   0.600   3.187   2.117 -0.1411 -0.2961 -0.4598
 1654ntf    on5 9685   0.813   3.284   2.044  0.1628 -0.6892  0.2257
 1654ntf    on5 9686   0.692   3.649   2.280  0.4784 -0.1818  0.6109
 1654ntf    on5 9687   0.857   3.551   2.144  0.0025 -0.6213 -0.3396
 1654ntf    fn4 9688   0.924   3.536   2.437  0.0835 -0.2543  0.4189
 1654ntf    fn4 9689   0.743   3.430   2.478 -0.0870 -0.3160  0.1371
 1654ntf    fn4 9690   0.892   3.337   2.362 -0.9035 -0.2749 -0.3205
 1655ntf    cn1 9691   2.776   0.717   5.368  0.0584  0.3213 -0.4160
 1655ntf    sn2 9692   2.771   0.537   5.349  0.1838  0.2621  0.1157
 1655ntf    nn3 9693   2.872   0.534   5.229  0.0620  0.1477  0.0148
 1655ntf    sn2 9694   3.026   0.504   5.232  0.0065 -0.1320  0.0694
 1655ntf    cn1 9695   3.054   0.572   5.066  0.3675 -0.2476  0.0826
 1655ntf    fn4 9696   2.884   0.765   5.428  0.1115 -0.1313 -0.1477
 1655ntf    fn4 9697   2.767   0.781   5.252  0.2458 -0.0144 -0.6179
 1655ntf    fn4 9698   2.685   0.774   5.445 -0.0639 -0.0875 -0.2605
 1655ntf    on5 9699   2.824   0.474   5.468  0.3679  0.6510  0.2404
 1655ntf    on5 9700   2.633   0.509   5.316  0.2898  0.3943 -0.4458
 1655ntf    on5 9701   3.068   0.367   5.211 -0.2158 -0.2322  0.2648
 1655ntf    on5 9702   3.104   0.594   5.313 -0.1403  0.0255  0.0355
 1655ntf    fn4 9703   2.967   0.527   4.978  0.4401 -0.1230 -0.0536
 1655ntf    fn4 9704   3.049   0.704   5.072 -0.1540 -0.2687  0.1294
 1655ntf    fn4 9705   3.175   0.542   5.023  0.4214 -0.4390  0.3665
 1656ntf    cn1 9706   6.643   5.539   4.842  0.4836  0.0425 -0.4519
 1656ntf    sn2 9707   6.813   5.490   4.800  0.5130 -0.2256 -0.0239
 1656ntf    nn3 9708   6.877   5.626   4.758 -0.2350  0.4016  0.8246
 1656ntf    sn2 9709   7.026   5.677   4.769  0.0285 -0.1215 -0.1688
 1656ntf    cn1 9710   7.080   5.672   4.596 -0.1485  0.3121 -0.2369
 1656ntf    fn4 9711   6.555   5.442   4.858  0.4702  0.0797 -0.3016
 1656ntf    fn4 9712   6.642   5.631   4.937  0.1360 -0.7861  0.3599
 1656ntf    fn4 9713   6.602   5.603   4.734  0.0006  0.2903 -0.1274
 1656ntf    on5 9714   6.858   5.441   4.928 -0.0460 -0.2965  0.1492
 1656ntf    on5 9715   6.791   5.401   4.689 -0.3975  0.0963 -0.1076
 1656ntf    on5 9716   7.123   5.591   4.833 -0.6921 -0.2707  0.7535
 1656ntf    on5 9717   7.031   5.819   4.793 -0.4315 -0.1545  0.1382
 1656ntf    fn4 9718   7.208   5.705   4.584 -0.1104  0.2874  0.0914
 1656ntf    fn4 9719   7.079   5.551   4.544 -0.1753  0.1878  0.0551
 1656ntf    fn4 9720   7.006   5.752   4.521  0.0808  0.2874 -0.4916
 1657ntf    cn1 9721   6.323   5.842   0.377  0.0065 -0.1474  0.2931
 1657ntf    sn2 9722   6.287   5.837   0.555 -0.2254  0.0181  0.2509
 1657ntf    nn3 9723   6.401   5.928   0.614 -0.2303  0.3706 -0.2770
 1657ntf    sn2 9724   6.395   6.024   0.738  0.0547  0.2861 -0.1952
 1657ntf    cn1 9725   6.502   5.940   0.857 -0.0999  0.2034 -0.1149
 1657ntf    fn4 9726   6.236   5.789   0.293  0.0492  0.5119 -0.1775
 1657ntf    fn4 9727   6.342   5.965   0.332 -0.4941 -0.0592  0.3161
 1657ntf    fn4 9728   6.438   5.779   0.357  0.4550  0.6345  0.3810
 1657ntf    on5 9729   6.156   5.896   0.552 -0.2045  0.0823  0.5428
 1657ntf    on5 9730   6.291   5.700   0.599  1.1196 -0.0778 -0.1316
 1657ntf    on5 9731   6.263   6.040   0.795  0.1641 -0.3680  0.2418
 1657ntf    on5 9732   6.472   6.143   0.711 -0.0438  0.2369 -0.7142
 1657ntf    fn4 9733   6.613   5.889   0.807  0.0534  0.4208 -0.0004
 1657ntf    fn4 9734   6.543   6.021   0.954  0.0612  0.1322 -0.1232
 1657ntf    fn4 9735   6.446   5.837   0.918  0.1637  0.0004 -0.2175
 1658ntf    cn1 9736   1.265   6.918   1.828 -0.4384  0.3126 -0.5295
 1658ntf    sn2 9737   1.261   6.775   1.716  0.4074 -0.3161  0.2164
 1658ntf    nn3 9738   1.151   6.688   1.786 -0.0951  0.0125 -0.1542
 1658ntf    sn2 9739   0.998   6.684   1.752 -0.1113  0.0522 -0.0858
 1658ntf    cn1 9740   0.916   6.625   1.903 -0.3753  0.5862 -0.0147
 1658ntf    fn4 9741   1.371   6.996   1.814  0.4262 -0.6793  0.2847
 1658ntf    fn4 9742   1.155   6.991   1.835 -0.3204  0.4370  0.1391
 1658ntf    fn4 9743   1.288   6.865   1.948  0.2620  0.6259 -0.5217
 1658ntf    on5 9744   1.219   6.826   1.587  0.7511  0.4463  0.4046
 1658ntf    on5 9745   1.396   6.727   1.724  0.6415  0.2920 -0.0143
 1658ntf    on5 9746   0.959   6.579   1.661 -0.4531  0.1634 -0.0731
 1658ntf    on5 9747   0.932   6.812   1.733 -0.6550 -0.2818 -0.4758
 1658ntf    fn4 9748   0.797   6.569   1.887 -0.0177 -0.2400  0.1467
 1658ntf    fn4 9749   0.987   6.533   1.966  0.2735  0.5584 -0.7668
 1658ntf    fn4 9750   0.887   6.718   1.992 -0.1511  0.1351  0.5395
 1659ntf    cn1 9751   0.540   4.078   0.439  0.0387 -0.4208 -0.0878
 1659ntf    sn2 9752   0.564   3.963   0.578 -0.0416 -0.1868  0.1210
 1659ntf    nn3 9753   0.440   4.006   0.663  0.1909  0.0272  0.3515
 1659ntf    sn2 9754   0.368   3.939   0.786 -0.1239  0.5163  0.4413
 1659ntf    cn1 9755   0.411   4.045   0.927 -0.1308  0.5438  0.4226
 1659ntf    fn4 9756   0.525   4.203   0.480 -0.3087 -0.3256 -0.5079
 1659ntf    fn4 9757   0.632   4.070   0.344 -0.0858  0.4456 -0.2868
 1659ntf    fn4 9758   0.426   4.046   0.381 -0.1515  0.2030 -0.0576
 1659ntf    on5 9759   0.534   3.838   0.512  0.9245 -0.4014  0.0747
 1659ntf    on5 9760   0.691   3.988   0.641 -0.3889 -0.0091  0.7571
 1659ntf    on5 9761   0.419   3.811   0.828 -0.2627  0.3108 -0.0002
 1659ntf    on5 9762   0.224   3.947   0.779 -0.1170  0.1022 -0.3434
 1659ntf    fn4 9763   0.370   3.991   1.040  0.1795 -0.1656  0.1996
 1659ntf    fn4 9764   0.541   4.062   0.946 -0.0694  0.1883  0.3232
 1659ntf    fn4 9765   0.347   4.161   0.918  0.4031  0.8485  0.5028
 1660ntf    cn1 9766   4.358   5.437   6.350 -0.0411 -0.2549 -0.0277
 1660ntf    sn2 9767   4.495   5.351   6.432 -0.0700 -0.0909  0.1955
 1660ntf    nn3 9768   4.550   5.470   6.518 -0.3299  0.2510 -0.1079
 1660ntf    sn2 9769   4.683   5.552   6.506 -0.0583 -0.1449  0.1538
 1660ntf    cn1 9770   4.809   5.440   6.574 -0.0683 -0.1586  0.1501
 1660ntf    fn4 9771   4.269   5.491   6.432 -0.0733 -0.1066 -0.1607
 1660ntf    fn4 9772   4.406   5.530   6.269 -0.1588  0.0830  0.2850
 1660ntf    fn4 9773   4.294   5.352   6.271  0.1299 -0.0224 -0.4182
 1660ntf    on5 9774   4.430   5.248   6.510 -0.4174  0.0241  0.0564
 1660ntf    on5 9775   4.572   5.311   6.317 -0.2608  0.4260 -0.1143
 1660ntf    on5 9776   4.689   5.659   6.602  0.5647 -0.1245  0.1015
 1660ntf    on5 9777   4.721   5.580   6.369 -0.3430  0.0766  0.1195
 1660ntf    fn4 9778   4.931   5.490   6.585 -0.0877 -0.0714 -0.0284
 1660ntf    fn4 9779   4.767   5.388   6.688 -0.4338 -0.3864 -0.0868
 1660ntf    fn4 9780   4.822   5.335   6.494  0.7711  0.1450 -0.1226
 1661ntf    cn1 9781   4.802   5.859   1.620 -0.1875 -0.5521 -0.1106
 1661ntf    sn2 9782   4.929   5.752   1.692  0.0215 -0.0940  0.2049
 1661ntf    nn3 9783   5.000   5.850   1.792  0.4755  0.2336 -0.4307
 1661ntf    sn2 9784   5.134   5.931   1.782  0.4992  0.2438 -0.0629
 1661ntf    cn1 9785   5.049   6.091   1.787  0.5847  0.2919 -0.1426
 1661ntf    fn4 9786   4.726   5.796   1.532 -0.4831 -0.2099 -0.1051
 1661ntf    fn4 9787   4.722   5.914   1.709  0.0927 -0.1089 -0.1322
 1661ntf    fn4 9788   4.846   5.966   1.556 -0.3967 -0.2216  0.2957
 1661ntf    on5 9789   4.846   5.650   1.752  0.4218  0.1272  1.1584
 1661ntf    on5 9790   5.011   5.704   1.583  0.1921 -0.3376  0.4359
 1661ntf    on5 9791   5.208   5.933   1.658  0.1639  0.4164 -0.2608
 1661ntf    on5 9792   5.206   5.929   1.907  0.7624 -0.1497 -0.2178
 1661ntf    fn4 9793   4.978   6.104   1.898  0.1388 -0.3445 -0.3505
 1661ntf    fn4 9794   5.132   6.194   1.795  0.8196  0.0736  0.2577
 1661ntf    fn4 9795   4.962   6.114   1.690  0.3454 -0.8879 -0.2140
 1662ntf    cn1 9796   0.975   3.093   3.770  0.2948  0.3628 -0.2097
 1662ntf    sn2 9797   0.864   3.162   3.896  0.1778  0.2664 -0.2591
 1662ntf    nn3 9798   0.944   3.131   4.028  0.0007  0.6801 -0.0524
 1662ntf    sn2 9799   0.940   3.212   4.163 -0.1027  0.1701  0.2513
 1662ntf    cn1 9800   1.091   3.311   4.143  0.0974 -0.2221 -0.2067
 1662ntf    fn4 9801   1.012   2.968   3.794 -0.0681  0.3201  0.1451
 1662ntf    fn4 9802   0.931   3.097   3.645  0.0887  0.3088 -0.1385
 1662ntf    fn4 9803   1.090   3.159   3.774  0.2246  0.4559  0.2601
 1662ntf    on5 9804   0.858   3.301   3.859  0.5829  0.5022  0.5224
 1662ntf    on5 9805   0.748   3.082   3.870  0.1711  0.2297 -0.1202
 1662ntf    on5 9806   0.976   3.124   4.272  0.2159 -0.4611 -0.3524
 1662ntf    on5 9807   0.827   3.300   4.177 -0.0139  0.3349 -0.0749
 1662ntf    fn4 9808   1.114   3.400   4.238 -0.8150 -0.4191  0.2097
 1662ntf    fn4 9809   1.197   3.232   4.154  0.0363 -0.3374 -0.4410
 1662ntf    fn4 9810   1.095   3.371   4.025  0.3992  0.5491  0.1872
 1663ntf    cn1 9811   1.399   4.096   3.824  0.5109 -0.0664 -0.0950
 1663ntf    sn2 9812   1.255   3.985   3.821  0.2588  0.2600 -0.1595
 1663ntf    nn3 9813   1.176   4.036   3.947  0.5569  0.2726  0.0269
 1663ntf    sn2 9814   1.035   4.106   3.956  0.1906 -0.4882  0.2890
 1663ntf    cn1 9815   1.061   4.163   4.127 -0.1868  0.4958  0.0228
 1663ntf    fn4 9816   1.365   4.220   3.794  0.2879 -0.1071 -0.0108
 1663ntf    fn4 9817   1.452   4.085   3.945 -0.2969 -0.6419  0.2136
 1663ntf    fn4 9818   1.490   4.063   3.734  0.1809  0.5626 -0.6652
 1663ntf    on5 9819   1.206   4.007   3.688 -0.2556  0.0473 -0.0069
 1663ntf    on5 9820   1.314   3.856   3.849 -0.0100  0.1258 -0.2144
 1663ntf    on5 9821   0.927   4.012   3.974 -0.3120  0.0171 -0.0856
 1663ntf    on5 9822   1.011   4.225   3.879 -0.1272 -0.4948  0.3785
 1663ntf    fn4 9823   1.160   4.249   4.145  0.2653 -0.0050 -0.0452
 1663ntf    fn4 9824   0.955   4.219   4.182 -0.2192 -0.0004  0.4765
 1663ntf    fn4 9825   1.084   4.065   4.213  0.2396  0.4187 -0.1746
 1664ntf    cn1 9826   0.296   1.832   4.547 -0.1939 -0.1316  0.0331
 1664ntf    sn2 9827   0.300   1.809   4.728  0.2386  0.1752  0.0624
 1664ntf    nn3 9828   0.158   1.870   4.755  0.2472 -0.2397  1.0701
 1664ntf    sn2 9829   0.117   2.021   4.770 -0.2247 -0.2183 -0.2741
 1664ntf    cn1 9830  -0.049   2.026   4.697 -0.1595 -0.3795 -0.4343
 1664ntf    fn4 9831   0.216   1.738   4.501  0.4403 -0.6234 -0.0697
 1664ntf    fn4 9832   0.254   1.950   4.503  0.5178  0.1298  0.0535
 1664ntf    fn4 9833   0.415   1.813   4.494 -0.2089 -0.1381  0.0024
 1664ntf    on5 9834   0.317   1.666   4.734  0.4643  0.2296  0.8705
 1664ntf    on5 9835   0.414   1.891   4.761  0.2206  0.2187  0.0177
 1664ntf    on5 9836   0.188   2.117   4.689 -0.4413  0.5839  0.4716
 1664ntf    on5 9837   0.092   2.059   4.907  0.2134  0.0475 -0.2651
 1664ntf    fn4 9838  -0.072   2.012   4.567 -0.7825  0.4397 -0.4184
 1664ntf    fn4 9839  -0.129   1.937   4.752 -0.7511 -0.0415 -0.7352
 1664ntf    fn4 9840  -0.100   2.145   4.725  0.3662 -0.2761  0.1120
 1665ntf    cn1 9841   2.622   1.327   6.544 -0.5620 -0.4538  0.0143
 1665ntf    sn2 9842   2.695   1.353   6.709  0.1256 -0.2372 -0.3231
 1665ntf    nn3 9843   2.580   1.435   6.776  0.0104 -0.5598 -0.1244
 1665ntf    sn2 9844   2.591   1.589   6.807 -0.2631 -0.5699  0.0273
 1665ntf    cn1 9845   2.501   1.598   6.965 -0.0356  0.0205  0.1269
 1665ntf    fn4 9846   2.502   1.271   6.550 -0.9022  0.2840  0.3250
 1665ntf    fn4 9847   2.594   1.441   6.484 -0.3836 -0.1125  0.5683
 1665ntf    fn4 9848   2.698   1.262   6.458 -0.0776  0.2415 -0.0943
 1665ntf    on5 9849   2.710   1.223   6.769  0.0493  0.0605  0.3474
 1665ntf    on5 9850   2.816   1.425   6.676  0.2432 -0.1717  0.2485
 1665ntf    on5 9851   2.505   1.664   6.721 -0.2409 -0.6301 -0.0474
 1665ntf    on5 9852   2.712   1.657   6.847 -0.0218 -0.7681 -0.3543
 1665ntf    fn4 9853   2.570   1.547   7.066 -0.1251  0.2918  0.3257
 1665ntf    fn4 9854   2.485   1.723   7.004  0.1033  0.2543 -0.5430
 1665ntf    fn4 9855   2.381   1.543   6.951  0.2977 -0.6407 -0.2238
 1666ntf    cn1 9856   0.469   5.167   4.350  0.4061  0.1468  0.0209
 1666ntf    sn2 9857   0.455   5.061   4.203  0.2693  0.1404  0.0393
 1666ntf    nn3 9858   0.452   4.923   4.279  0.6780 -0.1493 -0.4633
 1666ntf    sn2 9859   0.379   4.793   4.231 -0.0209  0.1415 -0.2046
 1666ntf    cn1 9860   0.523   4.682   4.221 -0.3345 -0.3748  0.8668
 1666ntf    fn4 9861   0.584   5.144   4.412  0.4550 -0.2261 -0.2005
 1666ntf    fn4 9862   0.465   5.296   4.323 -0.5350  0.0768 -0.1989
 1666ntf    fn4 9863   0.378   5.140   4.441  0.1325 -0.0637 -0.3099
 1666ntf    on5 9864   0.330   5.116   4.155  0.6977  0.9958 -0.1078
 1666ntf    on5 9865   0.570   5.088   4.121  0.2209  0.3301  0.0346
 1666ntf    on5 9866   0.329   4.811   4.097  0.1601 -0.1125 -0.3069
 1666ntf    on5 9867   0.303   4.733   4.337  0.4872  0.0763  0.1275
 1666ntf    fn4 9868   0.502   4.586   4.131 -0.0958  0.2374  0.1445
 1666ntf    fn4 9869   0.621   4.756   4.173 -0.2952 -1.0051 -0.0572
 1666ntf    fn4 9870   0.563   4.624   4.332  0.0522 -0.4011  0.7157
 1667ntf    cn1 9871   5.654   0.391   5.492  0.4411 -0.5665  0.0919
 1667ntf    sn2 9872   5.658   0.453   5.321 -0.1909  0.0272  0.2905
 1667ntf    nn3 9873   5.698   0.321   5.247  0.2843  0.3468 -0.0228
 1667ntf    sn2 9874   5.611   0.194   5.218  0.3055  0.4730 -0.6626
 1667ntf    cn1 9875   5.638   0.186   5.039  0.0290  0.0876 -0.6880
 1667ntf    fn4 9876   5.767   0.344   5.543  0.1986 -0.9501  0.2843
 1667ntf    fn4 9877   5.607   0.484   5.573  1.3170 -0.1369  0.1239
 1667ntf    fn4 9878   5.569   0.291   5.508 -0.4297 -0.0393 -1.0805
 1667ntf    on5 9879   5.528   0.512   5.296 -0.0068  0.2816 -0.0615
 1667ntf    on5 9880   5.766   0.547   5.335  0.2651 -0.3623 -0.5742
 1667ntf    on5 9881   5.468   0.211   5.226  0.2912  0.1871 -0.2512
 1667ntf    on5 9882   5.672   0.081   5.284 -0.6491  0.3245 -0.0083
 1667ntf    fn4 9883   5.611   0.304   4.986 -0.0084  0.3963  0.0098
 1667ntf    fn4 9884   5.757   0.141   5.003  0.3842 -0.0372  0.5958
 1667ntf    fn4 9885   5.551   0.100   4.988 -0.1031 -0.3144  0.1977
 1668ntf    cn1 9886   3.084   6.774   3.032  0.2392 -0.1238  0.2850
 1668ntf    sn2 9887   3.063   6.695   3.194 -0.2389  0.1090  0.3390
 1668ntf    nn3 9888   3.203   6.625   3.190 -0.1414  0.3604 -0.7958
 1668ntf    sn2 9889   3.252   6.477   3.171  0.0123  0.2551  0.3567
 1668ntf    cn1 9890   3.251   6.397   3.334 -0.3230 -0.0403  0.2115
 1668ntf    fn4 9891   3.116   6.702   2.925 -0.1552  0.2777 -0.1081
 1668ntf    fn4 9892   2.978   6.842   2.991  0.4313 -0.0061 -0.0138
 1668ntf    fn4 9893   3.184   6.859   3.044  0.1252  0.1464 -0.5812
 1668ntf    on5 9894   3.067   6.801   3.292  0.5025  0.5250 -0.1374
 1668ntf    on5 9895   2.942   6.618   3.177 -0.0398 -0.0171 -0.5381
 1668ntf    on5 9896   3.391   6.465   3.135 -0.2641  0.3320 -0.7804
 1668ntf    on5 9897   3.156   6.399   3.096  0.2665  0.2812 -0.0008
 1668ntf    fn4 9898   3.342   6.459   3.408 -0.0535 -0.1442 -0.0328
 1668ntf    fn4 9899   3.137   6.410   3.402 -0.5078 -0.4374 -0.0237
 1668ntf    fn4 9900   3.280   6.269   3.322 -1.1146 -0.2497  0.4595
 1669ntf    cn1 9901   6.692   5.075   1.802  0.5660 -0.4835 -0.7068
 1669ntf    sn2 9902   6.725   5.240   1.733  0.2090 -0.2209 -0.2517
 1669ntf    nn3 9903   6.633   5.261   1.607  0.5427  0.6732 -0.3555
 1669ntf    sn2 9904   6.657   5.259   1.452 -0.0118  0.1520 -0.4404
 1669ntf    cn1 9905   6.505   5.337   1.391  0.0104  0.5053 -0.0524
 1669ntf    fn4 9906   6.567   5.069   1.845  0.8263 -0.0529  0.1314
 1669ntf    fn4 9907   6.719   4.969   1.727 -0.1233 -1.2413  0.0951
 1669ntf    fn4 9908   6.754   5.043   1.914 -0.3830  0.0541 -0.0217
 1669ntf    on5 9909   6.680   5.320   1.844  0.3635 -0.1180 -0.2626
 1669ntf    on5 9910   6.867   5.234   1.711  0.1563 -0.6190 -0.4976
 1669ntf    on5 9911   6.659   5.124   1.404  0.0396  0.1270 -0.3683
 1669ntf    on5 9912   6.752   5.359   1.408  0.5980 -0.5466 -0.7299
 1669ntf    fn4 9913   6.501   5.352   1.259  0.1321  0.3745 -0.0711
 1669ntf    fn4 9914   6.396   5.270   1.425  0.1520  0.2787 -0.0506
 1669ntf    fn4 9915   6.482   5.460   1.435 -0.0695  0.3536  0.3337
 1670ntf    cn1 9916   0.605   0.682   4.303  0.1804  0.4313 -0.7773
 1670ntf    sn2 9917   0.528   0.684   4.138 -0.3408  0.0288 -0.5421
 1670ntf    nn3 9918   0.567   0.536   4.100  0.1144  0.0928 -0.3389
 1670ntf    sn2 9919   0.683   0.491   4.005  0.2377  0.0041 -0.1468
 1670ntf    cn1 9920   0.604   0.507   3.842  0.0545 -0.3724 -0.0944
 1670ntf    fn4 9921   0.512   0.677   4.397  0.8901  0.2491 -0.0791
 1670ntf    fn4 9922   0.690   0.584   4.325  0.1874  0.5474 -0.2726
 1670ntf    fn4 9923   0.674   0.792   4.326  0.2239  0.3005 -0.2700
 1670ntf    on5 9924   0.389   0.710   4.164 -0.4248 -0.2429 -0.7251
 1670ntf    on5 9925   0.597   0.792   4.072  0.2991  0.0055  0.0781
 1670ntf    on5 9926   0.709   0.350   4.014  0.5959  0.0613 -0.2555
 1670ntf    on5 9927   0.797   0.578   3.992  0.4033 -0.2816 -0.6161
 1670ntf    fn4 9928   0.693   0.516   3.745  0.3199 -0.1152  0.1705
 1670ntf    fn4 9929   0.520   0.409   3.810 -0.1288 -0.2937  0.1460
 1670ntf    fn4 9930   0.538   0.621   3.832  0.0826 -0.3222  0.2728
 1671ntf    cn1 9931   4.501   6.051   5.770  0.2886 -0.0898  0.0775
 1671ntf    sn2 9932   4.557   5.897   5.848 -0.2694 -0.2056  0.2561
 1671ntf    nn3 9933   4.419   5.832   5.884 -0.5126  0.1359 -0.0594
 1671ntf    sn2 9934   4.401   5.733   6.004  0.0908  0.2474  0.1236
 1671ntf    cn1 9935   4.388   5.838   6.153  0.1143  0.5114 -0.0589
 1671ntf    fn4 9936   4.410   6.107   5.849 -0.2119 -0.7463 -0.0280
 1671ntf    fn4 9937   4.592   6.144   5.748 -0.2380  0.4117 -0.0284
 1671ntf    fn4 9938   4.432   6.045   5.657 -0.4416  0.0311  0.5094
 1671ntf    on5 9939   4.623   5.852   5.727 -0.1952 -0.5281  0.4142
 1671ntf    on5 9940   4.637   5.945   5.958  0.0224 -0.2088  0.0468
 1671ntf    on5 9941   4.518   5.652   6.026 -0.3801 -0.3045  0.6296
 1671ntf    on5 9942   4.270   5.675   5.986  0.2526  0.0090 -0.2790
 1671ntf    fn4 9943   4.372   5.771   6.266  0.1943 -0.0637 -0.3817
 1671ntf    fn4 9944   4.499   5.909   6.163  0.1442  0.4756 -0.1271
 1671ntf    fn4 9945   4.282   5.917   6.146 -0.7153 -0.5607 -0.0351
 1672ntf    cn1 9946   6.792   3.720   2.145 -0.0444 -0.0340  0.3937
 1672ntf    sn2 9947   6.623   3.668   2.102  0.0308 -0.1300  0.2121
 1672ntf    nn3 9948   6.530   3.778   2.164 -0.0982  0.0766 -0.3388
 1672ntf    sn2 9949   6.485   3.916   2.104 -0.3094  0.0363 -0.2727
 1672ntf    cn1 9950   6.319   3.864   2.051 -0.5733 -0.0090  0.5745
 1672ntf    fn4 9951   6.882   3.624   2.138 -0.1562 -0.1289  0.2618
 1672ntf    fn4 9952   6.842   3.820   2.073  0.0460 -0.3051  0.0776
 1672ntf    fn4 9953   6.808   3.778   2.262 -0.1890  0.7187  0.0479
 1672ntf    on5 9954   6.623   3.662   1.958 -0.0586  0.0646  0.2050
 1672ntf    on5 9955   6.608   3.541   2.168  0.8500 -0.5912 -0.4635
 1672ntf    on5 9956   6.548   3.962   1.983 -0.2782 -0.1110 -0.3129
 1672ntf    on5 9957   6.458   4.020   2.201  0.1407 -0.4496  0.3878
 1672ntf    fn4 9958   6.261   3.824   2.163 -0.0379 -0.1725  0.7996
 1672ntf    fn4 9959   6.260   3.969   1.996  0.2063  0.3300  0.3689
 1672ntf    fn4 9960   6.321   3.763   1.965 -0.6812 -0.2521  0.8574
 1673ntf    cn1 9961   6.916   3.580   6.822 -0.2611  0.0341 -0.0622
 1673ntf    sn2 9962   7.008   3.423   6.810 -0.4798 -0.1237  0.3075
 1673ntf    nn3 9963   7.048   3.427   6.658 -0.2565  0.0477  0.3716
 1673ntf    sn2 9964   6.956   3.367   6.547  0.3619 -0.3333  0.0645
 1673ntf    cn1 9965   7.006   3.192   6.540  0.4170 -0.3197  0.1215
 1673ntf    fn4 9966   6.816   3.590   6.736 -0.8699  0.3125  0.6746
 1673ntf    fn4 9967   6.859   3.598   6.940  0.5463 -0.2413  0.3782
 1673ntf    fn4 9968   6.992   3.686   6.799 -0.1713 -0.0896 -0.3457
 1673ntf    on5 9969   7.122   3.445   6.895 -0.1825  0.7067 -0.2880
 1673ntf    on5 9970   6.914   3.323   6.854 -0.6420 -0.0822  0.0622
 1673ntf    on5 9971   6.988   3.415   6.414 -0.1110 -0.6436 -0.1641
 1673ntf    on5 9972   6.816   3.367   6.580  0.1756 -0.2310 -0.7101
 1673ntf    fn4 9973   7.133   3.186   6.504  0.1844 -0.1266 -0.7419
 1673ntf    fn4 9974   6.998   3.132   6.658 -0.0141  0.5113  0.5218
 1673ntf    fn4 9975   6.940   3.114   6.456  0.3020 -0.1954  0.0968
 1674ntf    cn1 9976   6.194   1.025   2.072 -0.2141  0.0768 -0.2663
 1674ntf    sn2 9977   6.043   1.060   1.977 -0.1778  0.1264 -0.3063
 1674ntf    nn3 9978   6.020   0.920   1.909 -0.1664  0.1093 -0.2750
 1674ntf    sn2 9979   5.945   0.802   1.980 -0.0430  0.0148 -0.2999
 1674ntf    cn1 9980   5.829   0.785   1.840 -0.0293  0.4502 -0.3653
 1674ntf    fn4 9981   6.277   0.963   1.990 -0.1743 -0.0304 -0.1450
 1674ntf    fn4 9982   6.260   1.133   2.110 -0.3607  0.0832 -0.0284
 1674ntf    fn4 9983   6.178   0.954   2.182 -0.4127 -0.0991 -0.4072
 1674ntf    on5 9984   5.945   1.105   2.073 -0.6269  0.4723 -0.9226
 1674ntf    on5 9985   6.092   1.152   1.879  0.1556  0.0123 -0.2471
 1674ntf    on5 9986   5.859   0.828   2.093  0.7134 -0.1142  0.3110
 1674ntf    on5 9987   6.016   0.677   1.974 -0.0699 -0.0411  0.4676
 1674ntf    fn4 9988   5.900   0.773   1.729  0.3926  0.2456 -0.0765
 1674ntf    fn4 9989   5.744   0.685   1.852  0.0557  0.4921  0.7502
 1674ntf    fn4 9990   5.757   0.893   1.814 -0.8808 -0.1058 -0.3195
 1675ntf    cn1 9991   6.892   6.041   0.954 -0.2160  0.2557 -0.0886
 1675ntf    sn2 9992   6.942   6.122   1.109 -0.3120  0.2119 -0.0343
 1675ntf    nn3 9993   7.083   6.168   1.056 -0.0303 -0.2185  0.3281
 1675ntf    sn2 9994   7.213   6.081   1.061  0.0205 -0.1525  0.1668
 1675ntf    cn1 9995   7.274   6.110   1.230  0.2639  0.3018  0.0009
 1675ntf    fn4 9996   6.770   5.990   0.955 -0.3057  0.4680 -0.0587
 1675ntf    fn4 9997   6.900   6.111   0.841 -0.6487 -0.0489 -0.3108
 1675ntf    fn4 9998   6.971   5.940   0.922  0.3565  0.6077  0.2015
 1675ntf    on5 9999   6.851   6.232   1.124 -0.4353  0.0564  0.3606
 1675ntf    on510000   6.936   6.033   1.222  0.1497  1.4967  1.0163
 1675ntf    on510001   7.307   6.144   0.972 -0.2513  0.5392  0.3640
 1675ntf    on510002   7.199   5.937   1.062 -0.4977 -0.1002  0.8842
 1675ntf    fn410003   7.376   6.030   1.256 -0.2218 -0.3995 -0.2282
 1675ntf    fn410004   7.305   6.239   1.240  0.2383  0.2643  0.5854
 1675ntf    fn410005   7.179   6.079   1.317  0.1783  0.0846 -0.1703
 1676ntf    cn110006   5.272   5.991   5.408 -0.1791  0.5324 -0.1717
 1676ntf    sn210007   5.240   5.903   5.252  0.3231  0.0090  0.0190
 1676ntf    nn310008   5.318   5.984   5.143 -0.2305 -0.0012 -0.3856
 1676ntf    sn210009   5.274   6.113   5.065 -0.0612  0.4203  0.2053
 1676ntf    cn110010   5.383   6.239   5.137  0.2821  0.0967  0.2519
 1676ntf    fn410011   5.253   5.909   5.511  0.2103  0.8257  0.1373
 1676ntf    fn410012   5.398   6.031   5.411 -0.1308  0.3451  0.3124
 1676ntf    fn410013   5.184   6.090   5.419 -0.6257  0.1660 -0.3966
 1676ntf    on510014   5.300   5.773   5.271 -0.3300 -0.4167 -0.7851
 1676ntf    on510015   5.097   5.896   5.247  0.3502 -0.2904 -0.3332
 1676ntf    on510016   5.143   6.165   5.095  0.1770  0.7211  0.7364
 1676ntf    on510017   5.319   6.119   4.928  0.4852 -0.3938  0.3404
 1676ntf    fn410018   5.506   6.192   5.148  0.0923 -0.5150 -0.1371
 1676ntf    fn410019   5.390   6.348   5.062  0.1560 -0.2389 -0.2532
 1676ntf    fn410020   5.341   6.273   5.258  0.0599  0.4675  0.0689
 1677ntf    cn110021   6.194   3.929   2.656  0.1841  0.2385 -0.2644
 1677ntf    sn210022   6.226   4.107   2.675  0.4600  0.1604  0.0198
 1677ntf    nn310023   6.382   4.117   2.662  0.5071 -0.4002  0.1409
 1677ntf    sn210024   6.501   4.141   2.761  0.3356  0.2892  0.1849
 1677ntf    cn110025   6.635   4.182   2.646  0.1023  0.2176 -0.1120
 1677ntf    fn410026   6.068   3.903   2.629  0.1693  0.3989 -0.3499
 1677ntf    fn410027   6.265   3.869   2.562  0.0542  0.4458 -0.4964
 1677ntf    fn410028   6.212   3.869   2.772 -0.1158 -0.0971 -0.3906
 1677ntf    on510029   6.163   4.171   2.562 -0.1832  0.2792  0.4412
 1677ntf    on510030   6.177   4.135   2.808 -0.5515 -0.4613 -0.2125
 1677ntf    on510031   6.541   4.016   2.822 -0.0479  0.3190  0.5016
 1677ntf    on510032   6.483   4.263   2.836 -0.0440  0.0675  0.4625
 1677ntf    fn410033   6.662   4.086   2.559 -0.2756 -0.1126  0.1340
 1677ntf    fn410034   6.610   4.287   2.569 -0.0519  0.1955 -0.0918
 1677ntf    fn410035   6.746   4.209   2.713 -0.3755  0.4903  0.5745
 1678ntf    cn110036   1.682   5.551   6.281  0.0171 -0.1296  0.2530
 1678ntf    sn210037   1.643   5.652   6.135 -0.0956 -0.2431  0.2053
 1678ntf    nn310038   1.539   5.752   6.195  0.1941  0.3135 -0.2122
 1678ntf    sn210039   1.385   5.781   6.184  0.1065  0.0139  0.2047
 1678ntf    cn110040   1.391   5.903   6.049 -0.2795  0.3181  0.4608
 1678ntf    fn410041   1.779   5.468   6.245  0.2962  0.2942  0.0246
 1678ntf    fn410042   1.711   5.612   6.394  0.5629  0.2495 -0.0878
 1678ntf    fn410043   1.577   5.477   6.315 -0.3863  0.2474 -0.1544
 1678ntf    on510044   1.768   5.721   6.118  0.0571 -0.3319  0.9512
 1678ntf    on510045   1.597   5.561   6.032 -0.4119  0.1379  0.0057
 1678ntf    on510046   1.323   5.862   6.286 -0.1819  0.1670 -0.0894
 1678ntf    on510047   1.308   5.675   6.123 -0.1065  0.2847 -0.0006
 1678ntf    fn410048   1.445   5.858   5.937 -0.6547  0.8900  0.0456
 1678ntf    fn410049   1.267   5.934   6.017 -0.1053  0.3270 -0.2214
 1678ntf    fn410050   1.444   6.016   6.093 -0.2969  0.5198 -0.0301
 1679ntf    cn110051   5.575   1.281   6.333  0.2783  0.1286  0.0789
 1679ntf    sn210052   5.421   1.375   6.307  0.3201  0.2026  0.0992
 1679ntf    nn310053   5.478   1.521   6.327 -0.0540  0.4301 -0.4788
 1679ntf    sn210054   5.412   1.629   6.420  0.0844 -0.1949  0.3555
 1679ntf    cn110055   5.471   1.589   6.588  0.5171 -0.1222  0.2221
 1679ntf    fn410056   5.621   1.281   6.457 -0.6069  0.0269  0.4116
 1679ntf    fn410057   5.563   1.157   6.289 -0.1051  0.1683  0.0659
 1679ntf    fn410058   5.671   1.331   6.257  0.5453  0.2742  0.5123
 1679ntf    on510059   5.389   1.346   6.170 -0.2135  0.1801  0.2278
 1679ntf    on510060   5.327   1.321   6.402 -0.7116  0.9517 -0.4710
 1679ntf    on510061   5.268   1.628   6.422  0.0780 -0.8218 -0.1209
 1679ntf    on510062   5.475   1.756   6.397  0.4093 -0.2639  0.8391
 1679ntf    fn410063   5.402   1.487   6.636  0.2370  0.1442  0.3939
 1679ntf    fn410064   5.599   1.555   6.581  0.5602  0.1491 -0.3708
 1679ntf    fn410065   5.454   1.687   6.675 -0.5262 -0.0064 -0.0928
 1680ntf    cn110066   3.364   1.809   1.228 -0.1781  0.4244  0.3657
 1680ntf    sn210067   3.419   1.820   1.401  0.2113 -0.3742  0.2984
 1680ntf    nn310068   3.575   1.818   1.387  0.2096  0.1042  0.2054
 1680ntf    sn210069   3.667   1.691   1.385  0.3052  0.1773 -0.1504
 1680ntf    cn110070   3.719   1.694   1.560 -0.1346 -0.4666 -0.0025
 1680ntf    fn410071   3.376   1.685   1.181 -0.0038  0.5368  0.1119
 1680ntf    fn410072   3.240   1.853   1.210 -0.1741  0.0587 -0.5991
 1680ntf    fn410073   3.439   1.888   1.153 -0.4575  0.0485 -0.3250
 1680ntf    on510074   3.375   1.948   1.452 -0.7204 -0.2718 -0.7301
 1680ntf    on510075   3.355   1.709   1.467  0.5319 -0.6088  0.2187
 1680ntf    on510076   3.792   1.712   1.318  0.1371  0.3773 -0.4017
 1680ntf    on510077   3.609   1.560   1.363  0.9311 -0.1541  0.1481
 1680ntf    fn410078   3.771   1.810   1.596  0.4038 -0.7834  0.2612
 1680ntf    fn410079   3.610   1.672   1.631 -0.2833 -0.1461 -0.1306
 1680ntf    fn410080   3.806   1.600   1.592  0.2360 -0.0653  0.1862
 1681ntf    cn110081   1.326   6.235   0.740  0.0029 -0.4291  0.3127
 1681ntf    sn210082   1.331   6.138   0.895  0.0757 -0.1999  0.4534
 1681ntf    nn310083   1.411   6.237   0.987 -0.2097  0.3914  0.0792
 1681ntf    sn210084   1.367   6.363   1.070 -0.2440  0.1893  0.3712
 1681ntf    cn110085   1.509   6.469   1.031  0.0066 -0.2708  0.0267
 1681ntf    fn410086   1.426   6.203   0.660 -0.7198  0.6074 -1.0486
 1681ntf    fn410087   1.208   6.215   0.684  0.2219 -0.2267 -0.2222
 1681ntf    fn410088   1.321   6.365   0.759  0.4126 -0.4406  0.5037
 1681ntf    on510089   1.194   6.127   0.938 -0.1251 -0.1838 -0.1621
 1681ntf    on510090   1.395   6.015   0.857  0.3224  0.0958 -0.1083
 1681ntf    on510091   1.367   6.346   1.213 -0.7670 -0.9062  0.2531
 1681ntf    on510092   1.264   6.440   1.003 -0.3583 -0.4238 -0.1722
 1681ntf    fn410093   1.616   6.430   1.099  0.4987  0.0446 -0.5563
 1681ntf    fn410094   1.551   6.495   0.908  0.3808  0.4430  0.2983
 1681ntf    fn410095   1.479   6.590   1.074  0.0407 -0.1735 -0.2182
 1682ntf    cn110096   1.429   0.683   4.058 -0.3729 -0.0759  0.2104
 1682ntf    sn210097   1.434   0.643   3.881  0.0641  0.5558  0.0787
 1682ntf    nn310098   1.512   0.762   3.814  0.0522  0.4287 -0.1639
 1682ntf    sn210099   1.459   0.882   3.728 -0.3837 -0.0366 -0.5518
 1682ntf    cn110100   1.405   0.786   3.584  0.0632 -0.7257 -0.2621
 1682ntf    fn410101   1.384   0.580   4.128 -0.4736 -0.2725 -0.1434
 1682ntf    fn410102   1.544   0.716   4.115 -0.1772 -0.1122 -0.1608
 1682ntf    fn410103   1.339   0.776   4.083 -0.0634  0.1981  0.3084
 1682ntf    on510104   1.519   0.527   3.877 -0.1044  0.4012  0.9591
 1682ntf    on510105   1.292   0.636   3.858  0.2393  0.0609 -0.9216
 1682ntf    on510106   1.567   0.961   3.673 -0.8625  0.8444 -0.2495
 1682ntf    on510107   1.343   0.949   3.782  0.1318  0.5759 -0.1820
 1682ntf    fn410108   1.491   0.693   3.545  0.3368 -0.5852  0.0104
 1682ntf    fn410109   1.292   0.721   3.608 -0.2594  0.0200  0.2746
 1682ntf    fn410110   1.384   0.865   3.480  0.2881 -0.3991 -0.0583
 1683ntf    cn110111   1.596   3.510   4.840  0.0900 -0.2187 -0.2901
 1683ntf    sn210112   1.720   3.632   4.785  0.1153 -0.0451  0.1439
 1683ntf    nn310113   1.686   3.751   4.881  0.7100  0.2452 -0.0006
 1683ntf    sn210114   1.591   3.873   4.853  0.1642 -0.1492  0.1228
 1683ntf    cn110115   1.538   3.919   5.021  0.0856 -0.0487  0.0707
 1683ntf    fn410116   1.474   3.540   4.798 -0.2588 -0.3218  0.6262
 1683ntf    fn410117   1.624   3.387   4.800  0.5005 -0.3524  0.3869
 1683ntf    fn410118   1.580   3.507   4.972 -0.3078  0.1657 -0.3252
 1683ntf    on510119   1.844   3.567   4.820  0.4044  0.3195 -0.2047
 1683ntf    on510120   1.701   3.655   4.644 -0.2127  0.2615  0.2368
 1683ntf    on510121   1.472   3.820   4.791 -0.0433  0.0661  0.3348
 1683ntf    on510122   1.652   3.993   4.803  0.1619 -0.2138 -0.0333
 1683ntf    fn410123   1.463   3.826   5.078 -0.2930  0.3545  0.2336
 1683ntf    fn410124   1.640   3.941   5.102 -0.1508  0.1795  0.3072
 1683ntf    fn410125   1.466   4.030   5.019  0.2869  0.0734 -0.7276
 1684ntf    cn110126   3.569   5.300   0.108  0.1123  0.1021 -0.3635
 1684ntf    sn210127   3.541   5.433   0.229 -0.2317 -0.1974 -0.1119
 1684ntf    nn310128   3.656   5.533   0.192 -0.1406 -0.5136 -0.6995
 1684ntf    sn210129   3.690   5.640   0.082  0.2056  0.2716  0.1555
 1684ntf    cn110130   3.585   5.778   0.138  0.0850  0.3373 -0.2309
 1684ntf    fn410131   3.459   5.227   0.098  0.2383 -0.1769  0.2018
 1684ntf    fn410132   3.587   5.349  -0.013 -0.4791  0.4194 -0.3257
 1684ntf    fn410133   3.667   5.217   0.139 -0.0608  0.0101 -0.0521
 1684ntf    on510134   3.407   5.471   0.193 -0.0991 -0.5432 -1.0038
 1684ntf    on510135   3.564   5.371   0.358  0.2139  0.3952  0.0994
 1684ntf    on510136   3.643   5.601  -0.049 -0.0809  0.3221  0.2443
 1684ntf    on510137   3.824   5.691   0.103  0.1706  0.4159  0.0328
 1684ntf    fn410138   3.629   5.887   0.078  0.5021  0.2137 -0.1526
 1684ntf    fn410139   3.460   5.762   0.098  0.1229 -0.0514 -0.2006
 1684ntf    fn410140   3.604   5.782   0.269  0.5919 -0.1283 -0.2831
 1685ntf    cn110141   3.266   3.895   3.512  0.2287  0.0733 -0.2809
 1685ntf    sn210142   3.297   3.722   3.466 -0.3969 -0.1855  0.2559
 1685ntf    nn310143   3.454   3.724   3.470 -0.3946 -0.6567  0.5381
 1685ntf    sn210144   3.563   3.668   3.567  0.1145 -0.2326  0.2184
 1685ntf    cn110145   3.699   3.672   3.447  0.2003  0.5552  0.3384
 1685ntf    fn410146   3.360   3.943   3.592  0.1823  0.0914 -0.2372
 1685ntf    fn410147   3.252   3.970   3.404 -0.3041  0.4364  0.0357
 1685ntf    fn410148   3.153   3.905   3.580 -0.1075  0.3392 -0.8707
 1685ntf    on510149   3.241   3.639   3.570 -0.8052  0.3143  0.4428
 1685ntf    on510150   3.238   3.710   3.335 -0.1477 -0.0057  0.1285
 1685ntf    on510151   3.545   3.532   3.613 -0.2099 -0.3335 -0.1950
 1685ntf    on510152   3.611   3.760   3.667  0.0103  0.0374  0.0217
 1685ntf    fn410153   3.679   3.594   3.342  0.3041  1.0000 -0.0175
 1685ntf    fn410154   3.716   3.789   3.386 -0.2974  0.3053 -0.2981
 1685ntf    fn410155   3.816   3.639   3.500  0.3947  0.6835 -0.0069
 1686ntf    cn110156   6.711   0.954   3.136  0.0208  0.2289  0.3871
 1686ntf    sn210157   6.743   1.120   3.071 -0.2863  0.2437  0.2755
 1686ntf    nn310158   6.870   1.154   3.156  0.2032 -0.3221 -0.2223
 1686ntf    sn210159   7.016   1.127   3.104  0.2803  0.3552 -0.3572
 1686ntf    cn110160   7.103   1.103   3.262 -0.0791  0.1349 -0.1906
 1686ntf    fn410161   6.588   0.915   3.109 -0.1960  1.0469  0.1653
 1686ntf    fn410162   6.790   0.859   3.088 -0.0131  0.1040  0.5787
 1686ntf    fn410163   6.711   0.944   3.268 -0.6904  0.6817  0.4260
 1686ntf    on510164   6.767   1.096   2.931 -0.0044  0.6425  0.2543
 1686ntf    on510165   6.631   1.209   3.095 -0.2102  0.3096  0.3894
 1686ntf    on510166   7.081   1.248   3.061 -0.1211  0.7681  0.1862
 1686ntf    on510167   7.032   1.008   3.024 -0.4528 -0.1239  0.1907
 1686ntf    fn410168   7.227   1.061   3.243 -0.0821 -0.2521  0.6164
 1686ntf    fn410169   7.099   1.217   3.329  0.2269 -0.1672  0.3449
 1686ntf    fn410170   7.048   1.016   3.345  0.3278 -0.1392 -0.2070
 1687ntf    cn110171   5.324   5.382   4.729  0.0621  0.4874  0.0602
 1687ntf    sn210172   5.256   5.425   4.566  0.1572 -0.2739 -0.1853
 1687ntf    nn310173   5.129   5.332   4.569 -0.1792  0.1852 -0.0913
 1687ntf    sn210174   5.073   5.248   4.449 -0.2682 -0.2092  0.2238
 1687ntf    cn110175   4.900   5.227   4.499 -0.3890  0.2817  0.0108
 1687ntf    fn410176   5.250   5.404   4.836 -0.3138 -0.2799 -0.0374
 1687ntf    fn410177   5.339   5.251   4.746 -0.3543  0.5166  0.6760
 1687ntf    fn410178   5.443   5.437   4.750  0.2329 -0.0845  0.6284
 1687ntf    on510179   5.227   5.566   4.564 -0.7322 -0.4329  0.6777
 1687ntf    on510180   5.362   5.382   4.478  0.2454 -0.4170 -0.0123
 1687ntf    on510181   5.129   5.116   4.430  0.6264  0.2337 -0.3172
 1687ntf    on510182   5.055   5.336   4.336  0.2105  0.3595  0.5823
 1687ntf    fn410183   4.859   5.138   4.410  0.1232 -0.3801  0.4279
 1687ntf    fn410184   4.884   5.172   4.618 -0.1797  0.3088  0.0523
 1687ntf    fn410185   4.822   5.334   4.491 -0.4193  0.3182  0.7007
 1688ntf    cn110186   0.932   4.241   4.505  0.1981 -0.4822  0.2375
 1688ntf    sn210187   0.928   4.086   4.599 -0.1586 -0.1896  0.7072
 1688ntf    nn310188   0.784   4.097   4.660 -0.1222  0.4112  0.6928
 1688ntf    sn210189   0.654   4.038   4.595  0.1779  0.6492 -0.1424
 1688ntf    cn110190   0.528   4.158   4.648 -0.2587  0.0427  0.2079
 1688ntf    fn410191   1.055   4.275   4.467  0.0628 -0.0311  0.1942
 1688ntf    fn410192   0.862   4.239   4.392  0.5376  0.6408 -0.0098
 1688ntf    fn410193   0.884   4.342   4.576  0.4724 -0.0377 -0.1983
 1688ntf    on510194   0.950   3.984   4.500 -0.1553  0.9594 -0.5049
 1688ntf    on510195   1.033   4.101   4.697 -0.4070 -0.1966  0.9764
 1688ntf    on510196   0.596   3.923   4.660  0.0720  0.4410 -0.6013
 1688ntf    on510197   0.637   4.055   4.453 -0.2979  0.4907 -0.1060
 1688ntf    fn410198   0.503   4.143   4.777  0.2349 -0.2130  0.2764
 1688ntf    fn410199   0.561   4.286   4.642  0.5156 -0.2009 -1.1395
 1688ntf    fn410200   0.412   4.138   4.587 -0.2048 -0.0578  0.1375
 1689ntf    cn110201   2.934   2.208   0.408 -0.2673 -0.4403  0.2513
 1689ntf    sn210202   3.070   2.087   0.395  0.1557  0.0154  0.4327
 1689ntf    nn310203   2.999   1.947   0.397 -0.0904  0.1361  0.2265
 1689ntf    sn210204   2.942   1.871   0.521 -0.2659 -0.3207 -0.1299
 1689ntf    cn110205   3.014   1.705   0.511 -0.1586 -0.2721 -0.1694
 1689ntf    fn410206   2.864   2.204   0.295 -0.0697  0.2124  0.1006
 1689ntf    fn410207   2.853   2.202   0.512  0.3560 -0.5425  0.7377
 1689ntf    fn410208   2.981   2.331   0.407  0.3177 -0.6565 -0.5827
 1689ntf    on510209   3.122   2.110   0.262  0.6921  0.2511  0.6799
 1689ntf    on510210   3.166   2.112   0.499 -0.0276  0.7387  0.4395
 1689ntf    on510211   2.799   1.854   0.520 -0.2954 -0.1559  0.4664
 1689ntf    on510212   2.994   1.923   0.646 -0.1853 -0.5189 -0.0801
 1689ntf    fn410213   2.995   1.634   0.622  0.1930  0.1508  0.1612
 1689ntf    fn410214   2.971   1.640   0.404 -0.8578 -0.6797  0.3442
 1689ntf    fn410215   3.145   1.713   0.498 -0.1532 -0.1038 -0.0081
 1690ntf    cn110216   2.839   5.895   3.748 -0.2124 -0.4137  0.0240
 1690ntf    sn210217   2.720   5.800   3.648 -0.2159 -0.0687 -0.3041
 1690ntf    nn310218   2.620   5.742   3.755 -0.3118  0.8466  0.1164
 1690ntf    sn210219   2.473   5.698   3.722 -0.0924  0.1424  0.0515
 1690ntf    cn110220   2.432   5.584   3.858  0.7388 -0.1876  0.0306
 1690ntf    fn410221   2.952   5.920   3.684 -0.3585 -0.5531 -0.2886
 1690ntf    fn410222   2.787   6.012   3.784 -0.5816 -0.3644 -0.6379
 1690ntf    fn410223   2.871   5.822   3.853  0.3122 -0.1165  0.0715
 1690ntf    on510224   2.659   5.907   3.574  0.3270  0.6881  0.3221
 1690ntf    on510225   2.799   5.697   3.585 -0.4474 -0.6329  0.3122
 1690ntf    on510226   2.460   5.614   3.606 -0.2188 -0.1388  0.2676
 1690ntf    on510227   2.371   5.797   3.746 -0.3349 -0.0621 -0.1280
 1690ntf    fn410228   2.513   5.480   3.857  1.0770  0.0564  0.9377
 1690ntf    fn410229   2.440   5.641   3.978  0.1697 -0.1469  0.0525
 1690ntf    fn410230   2.307   5.542   3.849  0.5456  0.2686  0.5188
 1691ntf    cn110231   1.060   6.853   3.679 -0.5472 -0.2699  0.1790
 1691ntf    sn210232   1.069   6.903   3.854 -0.2585 -0.0270  0.0969
 1691ntf    nn310233   1.207   6.976   3.843 -0.3436  0.2004  0.5320
 1691ntf    sn210234   1.352   6.934   3.886 -0.2563  0.1004  0.1449
 1691ntf    cn110235   1.447   6.968   3.735 -0.0679 -0.1493  0.2066
 1691ntf    fn410236   1.102   6.945   3.594  0.0246 -0.4180  0.2988
 1691ntf    fn410237   1.135   6.747   3.658 -0.0916  0.0192  0.3310
 1691ntf    fn410238   0.935   6.821   3.648 -0.5182 -0.4404  0.2426
 1691ntf    on510239   0.958   6.991   3.883 -0.1300  0.0922  0.2255
 1691ntf    on510240   1.078   6.778   3.925  0.0756  0.0778  0.2393
 1691ntf    on510241   1.383   6.797   3.919 -0.1904  0.1007  0.0834
 1691ntf    on510242   1.401   7.037   3.974  0.8907  0.0156 -0.3816
 1691ntf    fn410243   1.412   7.084   3.682  0.6063  0.2717  0.6749
 1691ntf    fn410244   1.578   6.967   3.748 -0.0584 -0.1249  0.1123
 1691ntf    fn410245   1.425   6.876   3.642  0.5802 -0.3211  0.2172
 1692ntf    cn110246   1.925   3.140   6.271 -0.1485 -0.0110  0.0090
 1692ntf    sn210247   1.867   3.130   6.443 -0.0721  0.0502  0.0386
 1692ntf    nn310248   1.910   3.271   6.498 -0.5228  0.1653  0.0993
 1692ntf    sn210249   1.854   3.343   6.625 -0.6692 -0.1995  0.2428
 1692ntf    cn110250   1.716   3.435   6.552 -0.3553 -0.2460 -0.4143
 1692ntf    fn410251   2.056   3.150   6.256 -0.0874 -0.0185  0.5092
 1692ntf    fn410252   1.899   3.039   6.191  0.1879  0.4683 -0.7160
 1692ntf    fn410253   1.877   3.248   6.212 -0.0208  0.1419  0.1802
 1692ntf    on510254   1.725   3.110   6.430 -0.1685  0.6345  0.1748
 1692ntf    on510255   1.940   3.020   6.503 -0.3579 -0.1211  0.0759
 1692ntf    on510256   1.941   3.450   6.668 -0.5495 -0.0607 -0.3353
 1692ntf    on510257   1.796   3.253   6.721 -0.2515 -0.1186  0.5744
 1692ntf    fn410258   1.643   3.507   6.635  0.2802 -0.7341  0.5785
 1692ntf    fn410259   1.752   3.522   6.459  0.3001 -0.1905 -0.1100
 1692ntf    fn410260   1.637   3.343   6.499  0.2931 -0.8231 -0.3893
 1693ntf    cn110261   6.087   1.231   4.758  0.1807 -0.2094 -0.3274
 1693ntf    sn210262   6.037   1.057   4.772 -0.3551 -0.0181  0.2076
 1693ntf    nn310263   5.936   1.055   4.892  0.2312 -0.2075  0.7050
 1693ntf    sn210264   5.782   1.083   4.907  0.0597 -0.4315 -0.5290
 1693ntf    cn110265   5.726   0.912   4.935 -0.0624 -0.2740  0.1916
 1693ntf    fn410266   6.113   1.282   4.878 -0.9128  0.1888 -0.2434
 1693ntf    fn410267   6.198   1.248   4.689  0.4903  0.1588  0.2480
 1693ntf    fn410268   5.994   1.312   4.709 -0.1809 -0.1067  0.5075
 1693ntf    on510269   5.971   1.019   4.649 -0.0087 -0.4508  0.1526
 1693ntf    on510270   6.160   0.990   4.805 -0.1380  0.1549 -0.2387
 1693ntf    on510271   5.708   1.112   4.786  0.0406 -0.3882 -0.5068
 1693ntf    on510272   5.750   1.141   5.035 -0.0193 -0.2733 -0.6202
 1693ntf    fn410273   5.743   0.842   4.825 -0.6763  0.1160 -0.1593
 1693ntf    fn410274   5.789   0.852   5.034  0.1034 -0.0254  0.2371
 1693ntf    fn410275   5.596   0.917   4.963 -0.1241 -0.0729 -0.1206
 1694ntf    cn110276   5.518   5.210   3.587 -0.0104  0.1532 -0.2289
 1694ntf    sn210277   5.379   5.322   3.554 -0.0524  0.2200  0.1650
 1694ntf    nn310278   5.356   5.384   3.696  0.2274 -0.2432  0.4107
 1694ntf    sn210279   5.224   5.366   3.779 -0.0929 -0.1961 -0.0859
 1694ntf    cn110280   5.243   5.194   3.836  0.3733 -0.1500 -0.1005
 1694ntf    fn410281   5.614   5.276   3.649 -0.5871  0.5688  0.2413
 1694ntf    fn410282   5.495   5.109   3.669  0.3346  0.0672 -0.2364
 1694ntf    fn410283   5.566   5.150   3.480  0.0125  0.3559 -0.3337
 1694ntf    on510284   5.439   5.409   3.455  0.0315 -0.3650 -0.3006
 1694ntf    on510285   5.285   5.224   3.504  0.0830  0.3338 -0.3262
 1694ntf    on510286   5.098   5.364   3.708 -0.5480 -0.0581  0.7000
 1694ntf    on510287   5.231   5.439   3.903 -0.3331  0.6749 -0.5772
 1694ntf    fn410288   5.198   5.105   3.749  0.5567 -0.0349 -0.3145
 1694ntf    fn410289   5.372   5.179   3.861  0.2179 -0.3443  0.6190
 1694ntf    fn410290   5.174   5.172   3.947  0.1387  0.0291 -0.2084
 1695ntf    cn110291   1.051   6.183   3.513 -0.1753 -0.0136 -0.1877
 1695ntf    sn210292   1.096   6.165   3.688 -0.1036  0.0296 -0.2013
 1695ntf    nn310293   1.095   6.009   3.707 -0.2931  0.0108 -0.3569
 1695ntf    sn210294   0.981   5.924   3.774  0.0079 -0.2154 -0.1291
 1695ntf    cn110295   1.065   5.764   3.754  0.3506 -0.1352  0.6175
 1695ntf    fn410296   1.095   6.295   3.458  0.4331 -0.3457 -0.3910
 1695ntf    fn410297   1.108   6.091   3.436 -0.2167  0.1648 -0.4334
 1695ntf    fn410298   0.920   6.181   3.495 -0.2159 -0.2726  0.1251
 1695ntf    on510299   1.229   6.220   3.689 -0.1561  0.1695 -0.5905
 1695ntf    on510300   0.991   6.240   3.753 -0.4001 -0.4325 -0.1441
 1695ntf    on510301   0.857   5.916   3.701 -0.2901 -0.5479  0.4074
 1695ntf    on510302   0.966   5.935   3.917  0.0477  0.0805 -0.1466
 1695ntf    fn410303   1.188   5.755   3.802  0.7086  0.5259 -0.1540
 1695ntf    fn410304   1.001   5.665   3.814 -0.0576  0.1359  0.6341
 1695ntf    fn410305   1.079   5.730   3.627  0.1715  0.1579  0.5178
 1696ntf    cn110306   6.369   4.833   5.411  0.4426 -0.0052  0.0359
 1696ntf    sn210307   6.211   4.782   5.337  0.3805  0.1144  0.0861
 1696ntf    nn310308   6.245   4.635   5.296  0.9409  0.3905 -0.4470
 1696ntf    sn210309   6.268   4.560   5.159  0.7454  0.0016 -0.2687
 1696ntf    cn110310   6.113   4.472   5.125  0.6839  0.0510 -0.1169
 1696ntf    fn410311   6.471   4.810   5.329 -0.1122 -0.3637 -0.5625
 1696ntf    fn410312   6.380   4.958   5.453  0.4301  0.0349 -0.0773
 1696ntf    fn410313   6.395   4.770   5.524  0.0422  0.1102  0.1939
 1696ntf    on510314   6.121   4.790   5.450  0.2840 -0.2738  0.0388
 1696ntf    on510315   6.188   4.868   5.224  0.2183 -0.2302 -0.1419
 1696ntf    on510316   6.363   4.452   5.176  0.5798 -0.1773 -0.4786
 1696ntf    on510317   6.286   4.645   5.044 -0.1527 -0.1416 -0.5179
 1696ntf    fn410318   6.125   4.389   5.023 -0.1746  0.0622 -0.2347
 1696ntf    fn410319   6.072   4.396   5.225  0.0020  0.8390  0.2123
 1696ntf    fn410320   6.002   4.540   5.101  0.3891 -0.3114  0.1893
 1697ntf    cn110321   0.187   1.710   0.626 -0.1172  0.1469 -0.0702
 1697ntf    sn210322   0.147   1.719   0.803 -0.2182  0.0425 -0.0879
 1697ntf    nn310323   0.136   1.564   0.827  0.3890 -0.0014 -0.0878
 1697ntf    sn210324   0.009   1.472   0.824  0.4043 -0.0256 -0.0016
 1697ntf    cn110325   0.020   1.371   0.974 -0.1354 -0.2730 -0.1243
 1697ntf    fn410326   0.290   1.631   0.605 -0.1053  0.2466 -0.3845
 1697ntf    fn410327   0.091   1.658   0.553 -0.5245  0.0701  0.5111
 1697ntf    fn410328   0.219   1.830   0.579 -0.0756  0.2124  0.1240
 1697ntf    on510329   0.263   1.787   0.856 -0.3336  0.4283 -0.3264
 1697ntf    on510330   0.022   1.790   0.817  0.0451  0.3491  0.7460
 1697ntf    on510331   0.014   1.366   0.726 -1.1626  0.3782 -0.5556
 1697ntf    on510332  -0.123   1.527   0.840  0.8507  1.0743 -0.0164
 1697ntf    fn410333   0.095   1.414   1.075  0.0967  0.3641 -0.5634
 1697ntf    fn410334  -0.099   1.344   1.025 -0.2867  0.2439 -0.2052
 1697ntf    fn410335   0.075   1.252   0.954 -0.0142 -0.1041 -0.8025
 1698ntf    cn110336   2.026   0.226   5.151 -0.3634 -0.2758 -0.3630
 1698ntf    sn210337   2.157   0.268   5.270 -0.3335 -0.1582 -0.4378
 1698ntf    nn310338   2.078   0.234   5.401 -0.1297  0.8477 -0.0433
 1698ntf    sn210339   2.103   0.295   5.544 -0.1142 -0.1295  0.3843
 1698ntf    cn110340   1.951   0.392   5.572  0.1292  0.2087  0.5448
 1698ntf    fn410341   1.911   0.280   5.187 -0.0864  0.1774 -0.1494
 1698ntf    fn410342   2.046   0.261   5.025  0.2335 -0.3419 -0.2896
 1698ntf    fn410343   2.002   0.096   5.154  0.6223 -0.4571  0.3037
 1698ntf    on510344   2.259   0.169   5.247  0.3286  0.4319 -0.0778
 1698ntf    on510345   2.174   0.409   5.241  0.1821  0.1144  1.1179
 1698ntf    on510346   2.199   0.401   5.562 -0.0986 -0.0053 -0.3724
 1698ntf    on510347   2.091   0.200   5.651 -0.0206 -0.4810  0.0854
 1698ntf    fn410348   1.847   0.316   5.599  0.6736 -0.7292  0.0769
 1698ntf    fn410349   1.969   0.485   5.664 -0.2450  0.1240  0.7010
 1698ntf    fn410350   1.914   0.447   5.458  0.1754 -0.1888  0.3360
 1699ntf    cn110351   3.946   4.327   2.267  0.3205 -0.0036  0.7828
 1699ntf    sn210352   4.018   4.489   2.229 -0.1773  0.0812  0.1697
 1699ntf    nn310353   4.170   4.454   2.208 -0.1118  0.4599  0.0022
 1699ntf    sn210354   4.300   4.532   2.250  0.1107 -0.0584  0.2883
 1699ntf    cn110355   4.312   4.476   2.422  0.4720 -0.2235  0.2103
 1699ntf    fn410356   4.007   4.271   2.370  1.2963  0.4870  0.4807
 1699ntf    fn410357   3.821   4.338   2.309  0.0840  0.3814  0.0011
 1699ntf    fn410358   3.939   4.241   2.166  0.3077  0.0681  0.7233
 1699ntf    on510359   3.960   4.532   2.105 -0.0271 -0.1007  0.0358
 1699ntf    on510360   3.985   4.566   2.347 -0.0115  0.5288 -0.0722
 1699ntf    on510361   4.284   4.675   2.255  0.2226 -0.0111 -0.5972
 1699ntf    on510362   4.421   4.476   2.196 -0.3762 -0.5776 -0.2839
 1699ntf    fn410363   4.442   4.470   2.446  0.5546 -0.3190 -0.2526
 1699ntf    fn410364   4.245   4.547   2.511 -0.0288 -0.4366  0.0075
 1699ntf    fn410365   4.270   4.351   2.431  0.1940 -0.1170  0.4101
 1700ntf    cn110366   2.055   5.482   6.907  0.0834  0.2728 -0.4955
 1700ntf    sn210367   1.900   5.499   6.814 -0.3180  0.1550  0.1496
 1700ntf    nn310368   1.868   5.347   6.787 -0.2307  0.2292 -0.3738
 1700ntf    sn210369   1.941   5.254   6.684 -0.3518 -0.1995 -0.0721
 1700ntf    cn110370   1.814   5.226   6.557 -0.2790 -0.3283 -0.1177
 1700ntf    fn410371   2.092   5.594   6.967 -0.3770 -0.0553  0.4075
 1700ntf    fn410372   2.035   5.399   7.008  0.6701  0.9175  0.1607
 1700ntf    fn410373   2.157   5.438   6.834  0.2882 -0.6531  0.3350
 1700ntf    on510374   1.811   5.563   6.908 -0.5159 -0.0042  0.0719
 1700ntf    on510375   1.935   5.579   6.699  0.0789 -0.1552  0.0538
 1700ntf    on510376   1.969   5.120   6.728  0.1191  0.1667  0.7612
 1700ntf    on510377   2.051   5.312   6.612  0.2418 -1.0706  0.1205
 1700ntf    fn410378   1.815   5.331   6.476 -0.1983 -0.0664  0.2220
 1700ntf    fn410379   1.831   5.127   6.471 -0.2165 -0.0621 -0.4126
 1700ntf    fn410380   1.694   5.211   6.611  0.1044 -0.4151  0.7311
 1701ntf    cn110381   0.631   3.576   3.500 -0.6377 -0.4997  0.1244
 1701ntf    sn210382   0.510   3.566   3.364 -0.0733 -0.5811 -0.3757
 1701ntf    nn310383   0.585   3.588   3.228 -0.3643  0.2270 -0.4136
 1701ntf    sn210384   0.651   3.485   3.129 -0.0504  0.0868 -0.0635
 1701ntf    cn110385   0.513   3.470   3.011 -0.3347  0.2950  0.2392
 1701ntf    fn410386   0.737   3.497   3.491 -0.1266  0.0899  0.8452
 1701ntf    fn410387   0.669   3.700   3.526  0.5585 -0.6823 -0.6737
 1701ntf    fn410388   0.573   3.541   3.614 -0.3327  0.0958  0.4645
 1701ntf    on510389   0.447   3.437   3.380 -0.5581 -0.2565  0.4031
 1701ntf    on510390   0.428   3.679   3.401  0.7049  0.0111 -0.4250
 1701ntf    on510391   0.677   3.356   3.187  0.5374  0.4378  0.4681
 1701ntf    on510392   0.761   3.549   3.062  0.0814 -0.0150  0.0539
 1701ntf    fn410393   0.486   3.586   2.955  0.3564  0.4777  0.2683
 1701ntf    fn410394   0.543   3.391   2.909 -0.8712  0.6477 -0.1977
 1701ntf    fn410395   0.401   3.418   3.058 -0.0777 -0.5640 -0.0796
 1702ntf    cn110396   2.120   4.340   1.863  0.2998  0.1411  0.0505
 1702ntf    sn210397   2.265   4.448   1.881  0.2554  0.1525  0.3513
 1702ntf    nn310398   2.373   4.335   1.894 -0.0335 -0.1129  0.4675
 1702ntf    sn210399   2.527   4.343   1.865 -0.1775  0.1835 -0.2541
 1702ntf    cn110400   2.584   4.393   2.030 -0.2355 -0.6379  0.0230
 1702ntf    fn410401   2.114   4.291   1.740  0.3349  0.0014  0.1044
 1702ntf    fn410402   2.126   4.238   1.947  0.5071 -0.0822 -0.2353
 1702ntf    fn410403   2.001   4.396   1.882  0.3306  0.2300 -0.0223
 1702ntf    on510404   2.272   4.531   1.763  0.4145  0.6230  0.6910
 1702ntf    on510405   2.232   4.509   2.007 -0.6229  0.7198 -0.1386
 1702ntf    on510406   2.571   4.455   1.786  0.3235 -0.0626 -0.3288
 1702ntf    on510407   2.598   4.218   1.849  0.2813  0.3272  0.5543
 1702ntf    fn410408   2.581   4.304   2.128  0.0312  0.1117  0.7277
 1702ntf    fn410409   2.708   4.438   2.018 -0.4527 -0.0830 -0.2057
 1702ntf    fn410410   2.510   4.491   2.080 -0.5381 -0.7725 -0.1633
 1703ntf    cn110411   2.205   2.233   3.623 -0.0849  0.1384 -0.0347
 1703ntf    sn210412   2.107   2.381   3.662 -0.3141  0.0440 -0.2497
 1703ntf    nn310413   2.036   2.329   3.792  0.4998  0.3321  0.3173
 1703ntf    sn210414   2.058   2.372   3.941 -0.0465  0.3185  0.4017
 1703ntf    cn110415   2.228   2.310   3.954 -0.1781 -0.2052 -0.3288
 1703ntf    fn410416   2.235   2.236   3.494  0.1102 -0.3120 -0.0035
 1703ntf    fn410417   2.307   2.217   3.705 -0.3839  0.2761  0.3629
 1703ntf    fn410418   2.137   2.121   3.638  0.1798 -0.0523 -0.2389
 1703ntf    on510419   2.200   2.491   3.663 -0.0616 -0.1718 -0.0187
 1703ntf    on510420   2.013   2.387   3.553  0.3277  0.1033 -0.8121
 1703ntf    on510421   1.990   2.289   4.038 -0.0716  0.0785  0.1796
 1703ntf    on510422   2.066   2.514   3.961 -0.3669  0.4587 -0.4454
 1703ntf    fn410423   2.316   2.361   3.869  0.3717 -0.6037 -0.0110
 1703ntf    fn410424   2.284   2.301   4.073  0.1077  0.4824 -0.4097
 1703ntf    fn410425   2.232   2.182   3.919 -0.2446 -0.3031  0.0160
 1704ntf    cn110426   2.140   5.898   1.050 -0.2706  0.0033  0.1381
 1704ntf    sn210427   2.120   5.720   1.018  0.3085  0.0176 -0.3062
 1704ntf    nn310428   2.249   5.651   1.076 -0.0745 -0.4416  0.0021
 1704ntf    sn210429   2.290   5.655   1.228  0.4093 -0.4295 -0.1272
 1704ntf    cn110430   2.455   5.580   1.229  0.5074 -0.2087  0.1083
 1704ntf    fn410431   2.075   5.985   0.974 -0.2672  0.0322  0.1680
 1704ntf    fn410432   2.109   5.926   1.176 -0.5748 -0.1623  0.1007
 1704ntf    fn410433   2.267   5.932   1.034 -0.2562 -0.2810 -0.3953
 1704ntf    on510434   1.994   5.684   1.077  0.0559  0.4861 -0.5467
 1704ntf    on510435   2.126   5.730   0.874  0.6201 -0.3498 -0.3205
 1704ntf    on510436   2.220   5.565   1.316 -0.0773  0.0845  0.0159
 1704ntf    on510437   2.322   5.784   1.283  0.6716 -0.5673  0.0450
 1704ntf    fn410438   2.504   5.573   1.352  0.1258  0.6379  0.3174
 1704ntf    fn410439   2.460   5.456   1.184 -0.4268 -0.1274 -0.2455
 1704ntf    fn410440   2.530   5.646   1.143  0.0523 -0.0995 -0.2058
 1705ntf    cn110441   2.049   6.695   1.513  0.2139 -0.1217  0.2212
 1705ntf    sn210442   2.126   6.770   1.366 -0.0075 -0.2047  0.0630
 1705ntf    nn310443   2.005   6.755   1.266  0.3095  0.0810 -0.3664
 1705ntf    sn210444   2.011   6.704   1.118  0.0975  0.3212 -0.4583
 1705ntf    cn110445   2.029   6.525   1.145  0.1351  0.4162  0.1508
 1705ntf    fn410446   1.939   6.761   1.546  0.0230 -0.5406  0.4379
 1705ntf    fn410447   1.999   6.575   1.489  0.1355 -0.0338 -0.0576
 1705ntf    fn410448   2.131   6.683   1.616 -0.1604 -0.0575  0.5300
 1705ntf    on510449   2.143   6.905   1.415 -0.0446 -0.3689  0.5307
 1705ntf    on510450   2.242   6.689   1.340  0.6113  0.8399 -0.5071
 1705ntf    on510451   2.126   6.746   1.042  0.6653 -0.0132  0.2090
 1705ntf    on510452   1.878   6.717   1.063 -0.3647 -0.3113  0.4837
 1705ntf    fn410453   2.019   6.444   1.041  0.1537  0.3915  0.1681
 1705ntf    fn410454   2.143   6.492   1.203 -0.0677  0.0093  0.3197
 1705ntf    fn410455   1.932   6.490   1.228  0.4404  0.0763  0.3684
 1706ntf    cn110456   5.124   5.889   0.827  0.4174 -0.2117 -0.2176
 1706ntf    sn210457   5.254   5.970   0.925 -0.0870  0.0519  0.2472
 1706ntf    nn310458   5.383   5.901   0.867 -0.2041  0.0776 -0.0444
 1706ntf    sn210459   5.436   5.754   0.885 -0.2656  0.0129 -0.3850
 1706ntf    cn110460   5.482   5.742   1.060 -0.4182  0.3167 -0.3228
 1706ntf    fn410461   5.114   5.759   0.844 -0.4152 -0.1315 -0.0420
 1706ntf    fn410462   5.007   5.943   0.861  0.1611 -0.6889 -0.3421
 1706ntf    fn410463   5.131   5.907   0.697  0.1620 -0.1173 -0.2193
 1706ntf    on510464   5.243   6.109   0.889  0.8566 -0.0217 -0.3585
 1706ntf    on510465   5.223   5.938   1.062  0.1556  0.5134  0.4107
 1706ntf    on510466   5.565   5.736   0.824 -0.0257 -0.2142  0.1810
 1706ntf    on510467   5.336   5.654   0.860 -0.4335  0.3137 -0.9308
 1706ntf    fn410468   5.524   5.620   1.089 -0.4515  0.5163  0.6237
 1706ntf    fn410469   5.589   5.815   1.087 -0.0397 -0.3409 -0.0175
 1706ntf    fn410470   5.391   5.769   1.153 -0.0328  0.4301  0.0272
 1707ntf    cn110471   4.138   3.466   4.483 -0.0873  0.1413 -0.0731
 1707ntf    sn210472   4.234   3.542   4.349  0.0604  0.3274  0.1361
 1707ntf    nn310473   4.240   3.424   4.246  0.3438  0.0594  0.4616
 1707ntf    sn210474   4.175   3.396   4.106  0.5668  0.2324  0.3238
 1707ntf    cn110475   4.148   3.217   4.115  0.0574  0.2837 -0.1812
 1707ntf    fn410476   4.188   3.348   4.516 -0.2768  0.0332 -0.1743
 1707ntf    fn410477   4.145   3.535   4.596  0.2281 -0.2371  0.1415
 1707ntf    fn410478   4.012   3.451   4.449 -0.3135  0.7138  0.4773
 1707ntf    on510479   4.161   3.658   4.303  0.5310  0.6119  0.0898
 1707ntf    on510480   4.367   3.552   4.404  0.0932 -0.5760  0.2363
 1707ntf    on510481   4.271   3.402   3.998 -0.3109 -0.0866 -0.4833
 1707ntf    on510482   4.053   3.466   4.078  0.3591 -0.0332  0.5580
 1707ntf    fn410483   4.081   3.186   4.225  0.5251  0.5950  0.1928
 1707ntf    fn410484   4.075   3.164   4.018 -0.4230 -0.1959  0.4330
 1707ntf    fn410485   4.255   3.141   4.135 -0.1473  0.2292  0.7383
 1708ntf    cn110486   0.562   3.619   1.708 -0.3796 -0.1361  0.2731
 1708ntf    sn210487   0.489   3.634   1.542  0.4501 -0.3203 -0.1105
 1708ntf    nn310488   0.404   3.765   1.546  0.0415 -0.6015  0.6590
 1708ntf    sn210489   0.248   3.782   1.545  0.0843 -0.1708 -0.0719
 1708ntf    cn110490   0.237   3.963   1.544  0.0757 -0.1716 -0.1651
 1708ntf    fn410491   0.482   3.630   1.813 -0.4771  0.0001  0.1863
 1708ntf    fn410492   0.622   3.502   1.718 -0.4955 -0.1900  0.3316
 1708ntf    fn410493   0.662   3.703   1.734 -0.2502 -0.3004  0.3040
 1708ntf    on510494   0.602   3.648   1.453  0.1223  0.1544 -0.4569
 1708ntf    on510495   0.412   3.513   1.523 -0.2943  0.1283  0.0400
 1708ntf    on510496   0.178   3.747   1.666  0.0783  0.2524  0.0465
 1708ntf    on510497   0.182   3.746   1.422 -0.0279  0.0404 -0.0735
 1708ntf    fn410498   0.111   3.996   1.521  0.1741  0.4246  0.1229
 1708ntf    fn410499   0.288   4.025   1.650  0.4361 -0.1772 -0.3317
 1708ntf    fn410500   0.302   4.008   1.438  0.0267  0.1580 -0.0560
 1709ntf    cn110501   0.651   5.719   1.079  0.0545 -0.0356 -0.0278
 1709ntf    sn210502   0.767   5.727   1.219  0.1941  0.0926 -0.1522
 1709ntf    nn310503   0.806   5.577   1.240 -0.0132 -0.0115 -0.4945
 1709ntf    sn210504   0.933   5.493   1.200  0.0764 -0.2483  0.2631
 1709ntf    cn110505   0.922   5.374   1.337 -0.2310 -0.4291  0.0855
 1709ntf    fn410506   0.705   5.683   0.964  1.0331  0.2822  0.3235
 1709ntf    fn410507   0.550   5.635   1.099  0.0118 -0.1448 -0.7013
 1709ntf    fn410508   0.591   5.834   1.055 -0.1534 -0.1664 -0.1360
 1709ntf    on510509   0.870   5.815   1.169  0.3952 -0.2559 -0.3563
 1709ntf    on510510   0.677   5.770   1.323  0.2172  0.5606 -0.3199
 1709ntf    on510511   1.065   5.547   1.219 -0.1039  0.1644  0.3412
 1709ntf    on510512   0.901   5.414   1.083  0.0051  0.1984 -0.0204
 1709ntf    fn410513   0.938   5.430   1.456  0.0354 -0.3172 -0.0013
 1709ntf    fn410514   0.810   5.305   1.335 -0.4029 -0.1383 -0.3032
 1709ntf    fn410515   1.016   5.283   1.320  0.2659  0.0409  0.2620
 1710ntf    cn110516   3.782   3.642   2.481  0.2200 -0.0011  0.3285
 1710ntf    sn210517   3.942   3.556   2.491  0.1639 -0.1623 -0.1860
 1710ntf    nn310518   4.012   3.640   2.603  0.7244 -0.7784 -0.0710
 1710ntf    sn210519   4.008   3.631   2.760  0.0006  0.3660 -0.0171
 1710ntf    cn110520   4.164   3.542   2.787 -0.3869 -0.2807  0.0933
 1710ntf    fn410521   3.703   3.601   2.383  0.5013  0.4172 -0.0768
 1710ntf    fn410522   3.717   3.615   2.593  0.2781  0.2075  0.4144
 1710ntf    fn410523   3.794   3.772   2.459 -0.3664 -0.0114 -0.0620
 1710ntf    on510524   3.909   3.420   2.526 -0.2425  0.1043  0.4825
 1710ntf    on510525   3.995   3.580   2.359  0.2724 -0.2117 -0.1514
 1710ntf    on510526   3.905   3.549   2.817 -0.3006  0.4856 -0.3849
 1710ntf    on510527   4.029   3.755   2.831 -0.3362  0.0504  0.6389
 1710ntf    fn410528   4.188   3.498   2.910 -0.4694  0.4492  0.3725
 1710ntf    fn410529   4.177   3.443   2.700  0.1683  0.1400 -0.3097
 1710ntf    fn410530   4.265   3.617   2.748 -0.5235  0.0144  0.3092
 1711ntf    cn110531   5.851   5.479   4.855 -0.0886  0.4111 -0.1031
 1711ntf    sn210532   5.883   5.423   5.025 -0.4452 -0.0590 -0.1903
 1711ntf    nn310533   6.038   5.400   5.015 -0.3643  0.4820 -0.1896
 1711ntf    sn210534   6.154   5.501   5.044  0.1622 -0.0916 -0.2853
 1711ntf    cn110535   6.271   5.453   4.913  0.7133 -0.3754  0.3070
 1711ntf    fn410536   5.730   5.449   4.811  0.0437  0.1782 -0.3108
 1711ntf    fn410537   5.848   5.612   4.857  0.4696  0.4202  0.4401
 1711ntf    fn410538   5.935   5.438   4.761  0.3898  0.2364  0.4000
 1711ntf    on510539   5.843   5.534   5.108  0.3608 -0.0447  0.1854
 1711ntf    on510540   5.807   5.302   5.044 -0.4555 -0.0664 -0.2760
 1711ntf    on510541   6.231   5.484   5.165 -0.3371 -0.6765 -0.0492
 1711ntf    on510542   6.132   5.640   5.011 -0.2464 -0.1587 -0.2967
 1711ntf    fn410543   6.209   5.443   4.796  0.2791 -0.1844  0.5193
 1711ntf    fn410544   6.364   5.546   4.908  0.2951  0.0301  0.0629
 1711ntf    fn410545   6.312   5.328   4.929  0.4968 -0.4762  0.0840
 1712ntf    cn110546   1.121   6.585   6.598  0.3803 -0.1238 -0.2548
 1712ntf    sn210547   1.235   6.568   6.457  0.2722 -0.0634 -0.3501
 1712ntf    nn310548   1.372   6.536   6.527  0.2062 -0.9071 -0.6016
 1712ntf    sn210549   1.517   6.575   6.480  0.2350 -0.3415 -0.0506
 1712ntf    cn110550   1.553   6.722   6.582  0.0251 -0.5296  0.2973
 1712ntf    fn410551   1.097   6.469   6.655  0.2065  0.1303  0.1971
 1712ntf    fn410552   1.172   6.672   6.684 -0.8166  0.8842 -0.5392
 1712ntf    fn410553   1.000   6.634   6.576  0.3580 -0.3023 -0.5390
 1712ntf    on510554   1.176   6.451   6.397 -0.0910  0.1382 -0.3874
 1712ntf    on510555   1.228   6.687   6.377  0.6657  0.2070  0.0111
 1712ntf    on510556   1.526   6.619   6.343  0.1571 -0.9883 -0.2645
 1712ntf    on510557   1.601   6.468   6.527 -0.1658 -0.4954  0.3256
 1712ntf    fn410558   1.663   6.777   6.533 -0.4120 -0.2992 -0.4402
 1712ntf    fn410559   1.457   6.812   6.575  0.7893  0.2626 -0.1940
 1712ntf    fn410560   1.574   6.697   6.710  0.3697 -0.0174  0.3410
 1713ntf    cn110561   2.172   2.520   2.537 -0.2148  0.1747 -0.0254
 1713ntf    sn210562   2.243   2.582   2.381 -0.2471 -0.1009 -0.1509
 1713ntf    nn310563   2.390   2.539   2.412 -0.2245 -0.0004 -0.1170
 1713ntf    sn210564   2.520   2.628   2.416  0.0294 -0.3669 -0.0764
 1713ntf    cn110565   2.502   2.701   2.581  0.0587 -0.1624 -0.1622
 1713ntf    fn410566   2.224   2.568   2.649  0.4892 -0.7215  0.0350
 1713ntf    fn410567   2.041   2.544   2.538 -0.2707 -0.1172 -0.2037
 1713ntf    fn410568   2.194   2.391   2.548 -0.4254  0.1242 -0.1738
 1713ntf    on510569   2.172   2.509   2.279 -0.3427  0.3041 -0.3754
 1713ntf    on510570   2.226   2.726   2.385  0.6743  0.0290 -0.6287
 1713ntf    on510571   2.541   2.734   2.319 -0.4984 -0.1621  0.0285
 1713ntf    on510572   2.627   2.534   2.430 -0.0222 -0.3457  0.4519
 1713ntf    fn410573   2.513   2.612   2.679  0.2678  0.0348 -0.0041
 1713ntf    fn410574   2.598   2.791   2.593  0.0627 -0.2013  0.1278
 1713ntf    fn410575   2.384   2.758   2.596  0.2499  0.1762  0.0949
 1714ntf    cn110576   4.056   0.325   6.578  0.3418 -0.0441 -0.4064
 1714ntf    sn210577   4.142   0.165   6.578  0.4163 -0.0043  0.0525
 1714ntf    nn310578   4.241   0.194   6.697  0.1406  0.0281  0.2752
 1714ntf    sn210579   4.398   0.195   6.692  0.1322  0.2206 -0.0386
 1714ntf    cn110580   4.427   0.056   6.806 -0.6138 -0.2435 -0.4095
 1714ntf    fn410581   4.138   0.410   6.518  0.5164  0.2158  0.1978
 1714ntf    fn410582   3.934   0.327   6.526  0.4312  0.3842 -0.6043
 1714ntf    fn410583   4.043   0.381   6.697 -0.4828  0.3055 -0.6550
 1714ntf    on510584   4.044   0.066   6.617 -0.3062  0.5447 -0.3419
 1714ntf    on510585   4.192   0.153   6.443  0.2198  0.3365 -0.0499
 1714ntf    on510586   4.448   0.310   6.763  0.1073  0.2876 -0.1290
 1714ntf    on510587   4.459   0.157   6.567 -0.5791  0.1631 -0.3750
 1714ntf    fn410588   4.553   0.015   6.802 -0.3235  0.6375 -0.5329
 1714ntf    fn410589   4.419   0.095   6.932 -0.1549  0.1083 -0.4876
 1714ntf    fn410590   4.344  -0.047   6.790 -0.0716 -0.8807  0.7615
 1715ntf    cn110591   4.108   4.598   0.257 -0.4131  0.0762 -0.2265
 1715ntf    sn210592   3.978   4.523   0.359 -0.2230 -0.2391 -0.2157
 1715ntf    nn310593   4.008   4.569   0.506  0.0173 -0.1322 -0.2985
 1715ntf    sn210594   3.973   4.705   0.577  0.2591 -0.1494 -0.1430
 1715ntf    cn110595   3.806   4.677   0.643  0.3064 -0.3679 -0.1121
 1715ntf    fn410596   4.122   4.729   0.272  0.1674  0.0718 -0.6900
 1715ntf    fn410597   4.227   4.554   0.295 -0.3352 -0.2024 -0.7910
 1715ntf    fn410598   4.093   4.577   0.128 -0.2474 -0.8171 -0.1101
 1715ntf    on510599   3.858   4.571   0.297  0.0646  0.1042 -0.5065
 1715ntf    on510600   4.008   4.382   0.348  0.4096 -0.1463  0.2261
 1715ntf    on510601   3.962   4.822   0.494  0.6870 -0.6444 -0.9163
 1715ntf    on510602   4.048   4.720   0.699 -0.1600 -0.2014  0.1211
 1715ntf    fn410603   3.722   4.680   0.541 -0.6310  0.4025  0.6639
 1715ntf    fn410604   3.788   4.558   0.697  0.0863 -0.4398 -0.3389
 1715ntf    fn410605   3.750   4.768   0.721 -0.2448 -0.4909 -0.3544
 1716ntf    cn110606   5.800   4.953   3.839 -0.1895 -0.0865  0.0802
 1716ntf    sn210607   5.918   4.867   3.731  0.1664 -0.0539  0.4388
 1716ntf    nn310608   5.846   4.880   3.592  0.4389 -0.3372  0.2720
 1716ntf    sn210609   5.794   4.765   3.497 -0.2321 -0.0127  0.2418
 1716ntf    cn110610   5.617   4.749   3.533 -0.4153  0.3118 -0.5126
 1716ntf    fn410611   5.698   4.876   3.874  0.1969 -0.8325 -0.4096
 1716ntf    fn410612   5.852   5.006   3.949 -0.9443  0.3699  0.2288
 1716ntf    fn410613   5.751   5.058   3.775  0.8277  0.2871 -0.1005
 1716ntf    on510614   6.043   4.939   3.743  0.5011 -0.5256 -0.1785
 1716ntf    on510615   5.916   4.732   3.782 -0.1796 -0.1398  0.2024
 1716ntf    on510616   5.848   4.634   3.522  0.4648  0.1920 -0.1741
 1716ntf    on510617   5.798   4.799   3.357 -0.1262 -0.5555  0.1148
 1716ntf    fn410618   5.578   4.689   3.644  0.0286 -0.0527 -0.5510
 1716ntf    fn410619   5.554   4.866   3.531 -0.2213  0.4467  0.8315
 1716ntf    fn410620   5.564   4.670   3.441  0.8302  0.0332 -1.0138
 1717ntf    cn110621   6.547   6.604   2.280  0.0959  0.0005 -0.2233
 1717ntf    sn210622   6.484   6.433   2.273  0.2164 -0.0886  0.6432
 1717ntf    nn310623   6.337   6.457   2.224  0.3648  0.7060  0.5669
 1717ntf    sn210624   6.205   6.455   2.310 -0.1427 -0.3222 -0.2145
 1717ntf    cn110625   6.146   6.289   2.266 -0.2268 -0.3837  0.1320
 1717ntf    fn410626   6.468   6.677   2.357  0.3678  0.8674 -0.7621
 1717ntf    fn410627   6.671   6.604   2.327  0.1223 -0.3338 -0.2898
 1717ntf    fn410628   6.545   6.667   2.165 -0.3738 -0.1579 -0.3044
 1717ntf    on510629   6.564   6.373   2.169 -0.2775  0.4100 -0.0342
 1717ntf    on510630   6.502   6.373   2.402  0.2040 -0.3533  0.5225
 1717ntf    on510631   6.107   6.545   2.256  0.2542  0.4367  0.3076
 1717ntf    on510632   6.226   6.471   2.452 -0.0772 -0.2641 -0.2308
 1717ntf    fn410633   6.220   6.194   2.321  0.2358 -0.1025  0.0044
 1717ntf    fn410634   6.024   6.280   2.318 -0.0746 -0.0848  0.5482
 1717ntf    fn410635   6.143   6.283   2.134 -0.1196  0.9300  0.0550
 1718ntf    cn110636   2.137   6.404   5.643 -0.0474 -0.2639 -0.1524
 1718ntf    sn210637   2.248   6.446   5.505  0.2025 -0.3206  0.0282
 1718ntf    nn310638   2.367   6.519   5.575 -0.0352  0.0019  0.0979
 1718ntf    sn210639   2.521   6.498   5.553 -0.1398 -0.4618 -0.1954
 1718ntf    cn110640   2.576   6.488   5.726 -0.1470 -0.5841 -0.2000
 1718ntf    fn410641   2.057   6.502   5.680  0.2306  0.1889 -0.7292
 1718ntf    fn410642   2.063   6.297   5.620  0.2582 -0.5013 -0.0340
 1718ntf    fn410643   2.218   6.371   5.743  0.4110 -0.2416 -0.5137
 1718ntf    on510644   2.281   6.321   5.440 -0.7549 -0.3890 -0.3600
 1718ntf    on510645   2.162   6.535   5.431 -0.2471 -0.2740  0.6026
 1718ntf    on510646   2.596   6.615   5.512  0.0976 -0.6094 -0.1875
 1718ntf    on510647   2.561   6.369   5.503  0.4414 -0.4759  0.2959
 1718ntf    fn410648   2.517   6.379   5.772 -0.0575 -0.4496  0.2388
 1718ntf    fn410649   2.707   6.476   5.742 -0.0785 -0.1441 -0.4063
 1718ntf    fn410650   2.539   6.592   5.799  0.5743 -0.2420 -0.3098
 1719ntf    cn110651   4.472   4.285   1.347  0.2801  0.3322 -0.1333
 1719ntf    sn210652   4.330   4.385   1.403  0.0227 -0.1841  0.1336
 1719ntf    nn310653   4.208   4.291   1.374 -0.4567  0.2642  0.6703
 1719ntf    sn210654   4.125   4.291   1.240  0.4443 -0.4856  0.0982
 1719ntf    cn110655   3.981   4.195   1.297 -0.2542  0.5545  0.1085
 1719ntf    fn410656   4.547   4.354   1.262 -0.1209  0.6940 -0.1999
 1719ntf    fn410657   4.552   4.248   1.445  0.1800 -0.0630 -0.2018
 1719ntf    fn410658   4.443   4.173   1.283 -0.2735  0.2447  0.2635
 1719ntf    on510659   4.340   4.398   1.547  0.3140 -0.1925  0.1155
 1719ntf    on510660   4.346   4.506   1.327  0.3131  0.1912  0.7805
 1719ntf    on510661   4.184   4.211   1.136  0.4970  0.3395 -0.5206
 1719ntf    on510662   4.075   4.419   1.196  0.2401 -0.4648  0.3897
 1719ntf    fn410663   3.889   4.277   1.346  0.2989  1.1087  0.2454
 1719ntf    fn410664   3.914   4.153   1.191  0.1637  0.0687  0.0356
 1719ntf    fn410665   4.009   4.094   1.378 -0.1187  0.5520  0.0594
 1720ntf    cn110666   3.406   5.998   3.533 -0.1909 -0.4789 -0.3705
 1720ntf    sn210667   3.573   6.034   3.594 -0.3253 -0.2299 -0.1435
 1720ntf    nn310668   3.655   5.979   3.471  0.3003  0.3141  0.0223
 1720ntf    sn210669   3.709   5.834   3.444 -0.2073  0.1486 -0.1246
 1720ntf    cn110670   3.677   5.825   3.265 -0.2153  0.4858 -0.1414
 1720ntf    fn410671   3.385   6.058   3.416 -0.3134 -0.1720 -0.1940
 1720ntf    fn410672   3.385   5.870   3.510  0.0755 -0.5059 -0.4608
 1720ntf    fn410673   3.316   6.040   3.621  0.2591  0.1492 -0.2023
 1720ntf    on510674   3.576   6.178   3.600 -0.0448 -0.2371 -0.1013
 1720ntf    on510675   3.576   5.966   3.721 -0.5916  0.3024  0.1499
 1720ntf    on510676   3.625   5.725   3.486  0.4095 -0.3159 -0.0682
 1720ntf    on510677   3.853   5.832   3.455 -0.2487 -0.4566  0.3429
 1720ntf    fn410678   3.550   5.846   3.235 -0.4516 -0.1013  0.4252
 1720ntf    fn410679   3.742   5.913   3.190 -0.1702  0.4686 -0.1230
 1720ntf    fn410680   3.714   5.711   3.210  0.1364  0.4825  0.0974
 1721ntf    cn110681   1.593   0.470   1.923  0.2190  0.0431 -0.1479
 1721ntf    sn210682   1.628   0.623   1.830 -0.0024  0.1898  0.0090
 1721ntf    nn310683   1.591   0.586   1.682  0.2913 -0.0026 -0.0165
 1721ntf    sn210684   1.540   0.677   1.565  0.0562 -0.1811 -0.0536
 1721ntf    cn110685   1.693   0.693   1.467  0.0822  0.2298  0.0526
 1721ntf    fn410686   1.627   0.483   2.050  0.2443  0.1974 -0.1697
 1721ntf    fn410687   1.466   0.435   1.930  0.1679  0.3853  0.7703
 1721ntf    fn410688   1.664   0.368   1.878 -0.1225 -0.0997 -0.3677
 1721ntf    on510689   1.536   0.716   1.890 -0.2486 -0.0781  0.0535
 1721ntf    on510690   1.770   0.645   1.847  0.0748 -0.3574  0.0913
 1721ntf    on510691   1.517   0.813   1.605  0.1251 -0.2795  0.3207
 1721ntf    on510692   1.443   0.615   1.478  0.1368 -0.3441 -0.0295
 1721ntf    fn410693   1.674   0.725   1.341  0.1935  0.0185 -0.0196
 1721ntf    fn410694   1.773   0.787   1.514 -0.3129  0.1964  0.8063
 1721ntf    fn410695   1.757   0.578   1.456 -0.6417 -0.1442 -0.3290
 1722ntf    cn110696   6.596   2.474   6.352 -0.0285 -0.0624 -0.2867
 1722ntf    sn210697   6.768   2.465   6.293  0.1062 -0.1521  0.1137
 1722ntf    nn310698   6.785   2.309   6.292 -0.4560 -0.2158  0.0643
 1722ntf    sn210699   6.758   2.214   6.170  0.1904  0.1993 -0.4087
 1722ntf    cn110700   6.900   2.247   6.062  0.3964  0.1208 -0.1648
 1722ntf    fn410701   6.543   2.595   6.337 -0.0549 -0.1703 -1.1245
 1722ntf    fn410702   6.516   2.387   6.294 -0.5819  0.0609  0.2769
 1722ntf    fn410703   6.585   2.455   6.482 -0.0975  0.4006 -0.2235
 1722ntf    on510704   6.762   2.524   6.161 -0.0687  0.5684  0.4378
 1722ntf    on510705   6.847   2.536   6.391 -0.2835 -0.2297  0.4830
 1722ntf    on510706   6.642   2.249   6.093  0.2212  0.3244 -0.3987
 1722ntf    on510707   6.774   2.074   6.201  0.1533  0.3203  0.1693
 1722ntf    fn410708   7.020   2.230   6.116  0.5338  0.4803 -0.3502
 1722ntf    fn410709   6.891   2.172   5.953 -0.1096 -0.2400  0.1248
 1722ntf    fn410710   6.899   2.371   6.014 -0.0179  0.2420  0.1520
 1723ntf    cn110711   2.504   2.892   5.730 -0.4977 -0.0577  0.3449
 1723ntf    sn210712   2.471   2.730   5.655 -0.3432  0.1001 -0.0677
 1723ntf    nn310713   2.473   2.772   5.504 -0.3427 -0.3162 -0.1859
 1723ntf    sn210714   2.384   2.872   5.422  0.2462  0.3722  0.0046
 1723ntf    cn110715   2.316   2.762   5.294 -0.1188  0.0084  0.5096
 1723ntf    fn410716   2.404   2.978   5.719 -0.1514  0.3866  0.6197
 1723ntf    fn410717   2.534   2.887   5.859  0.0838  0.6393  0.2418
 1723ntf    fn410718   2.611   2.944   5.671 -0.6572 -0.1281 -0.0088
 1723ntf    on510719   2.571   2.636   5.699 -0.6575 -0.0425  0.3508
 1723ntf    on510720   2.338   2.702   5.705 -0.6939  1.2715 -0.3138
 1723ntf    on510721   2.472   2.967   5.358  0.3255  0.2709 -0.0374
 1723ntf    on510722   2.259   2.909   5.483  0.0135 -0.1205 -0.1671
 1723ntf    fn410723   2.405   2.725   5.203 -0.2612 -0.1352  0.4293
 1723ntf    fn410724   2.269   2.651   5.348  0.1537 -0.1849  0.3538
 1723ntf    fn410725   2.217   2.805   5.217 -0.2529 -0.8137  0.2130
 1724ntf    cn110726   6.567   3.074   3.843  0.3645 -0.0496  0.0332
 1724ntf    sn210727   6.503   3.207   3.737  0.0429 -0.2986 -0.0890
 1724ntf    nn310728   6.521   3.130   3.602 -0.2732  0.0131 -0.3102
 1724ntf    sn210729   6.416   3.093   3.491 -0.0520  0.2571 -0.6001
 1724ntf    cn110730   6.516   3.104   3.339  0.1960 -0.0131 -0.4552
 1724ntf    fn410731   6.543   2.954   3.793  0.0418  0.0606 -0.0830
 1724ntf    fn410732   6.697   3.079   3.863  0.3646 -0.5280  0.1735
 1724ntf    fn410733   6.510   3.077   3.962  0.2967  0.3850 -0.0093
 1724ntf    on510734   6.369   3.237   3.783  0.0078 -0.1165 -0.3066
 1724ntf    on510735   6.608   3.306   3.746 -0.0344 -0.1781 -0.5244
 1724ntf    on510736   6.322   3.200   3.465 -0.3975  0.1921  0.3672
 1724ntf    on510737   6.365   2.959   3.504  0.8532 -0.0381  0.0220
 1724ntf    fn410738   6.582   3.218   3.347  0.5399 -0.2514  0.3009
 1724ntf    fn410739   6.611   3.012   3.335  0.1382 -0.1334  0.5789
 1724ntf    fn410740   6.449   3.103   3.226  0.1207 -0.5340 -0.4125
 1725ntf    cn110741   1.032   2.005   4.569 -0.3137  0.2760  0.0929
 1725ntf    sn210742   1.050   2.162   4.659  0.5818  0.1173  0.2045
 1725ntf    nn310743   1.116   2.107   4.790  0.4697  0.1748  0.2857
 1725ntf    sn210744   1.044   2.055   4.919 -0.2721  0.0707 -0.1626
 1725ntf    cn110745   1.183   1.968   4.999 -0.3152  0.0050 -0.1584
 1725ntf    fn410746   1.147   1.939   4.568 -0.4389  0.0585  0.3822
 1725ntf    fn410747   0.947   1.920   4.623  0.5148 -0.3553  0.4236
 1725ntf    fn410748   0.997   2.013   4.441  0.2712 -0.4415 -0.1202
 1725ntf    on510749   1.140   2.230   4.569  0.2874 -0.3805 -0.4794
 1725ntf    on510750   0.918   2.220   4.660  0.5108 -0.0376  0.0280
 1725ntf    on510751   0.954   1.944   4.903 -0.1476 -0.0675  0.0876
 1725ntf    on510752   1.014   2.158   5.015 -0.2392 -0.0878  0.0184
 1725ntf    fn410753   1.161   1.935   5.125 -0.1862  0.4871 -0.0080
 1725ntf    fn410754   1.223   1.861   4.932  0.4026 -0.3930  0.8904
 1725ntf    fn410755   1.290   2.045   5.012  0.1288 -0.6873  0.3528
 1726ntf    cn110756   6.040   5.070   0.618  0.0011  0.2264  0.0841
 1726ntf    sn210757   6.004   5.211   0.727 -0.3430  0.3437 -0.1785
 1726ntf    nn310758   6.068   5.139   0.851 -0.6998  0.0403 -0.1663
 1726ntf    sn210759   5.991   5.056   0.959  0.1338 -0.1241  0.3109
 1726ntf    cn110760   5.949   5.198   1.064 -0.4860 -0.2778  0.2758
 1726ntf    fn410761   5.967   4.963   0.643  0.3540 -0.0389 -0.0231
 1726ntf    fn410762   6.043   5.098   0.488  0.5318  0.2647  0.1046
 1726ntf    fn410763   6.164   5.030   0.640 -0.2916 -0.6240  0.2242
 1726ntf    on510764   6.086   5.323   0.687 -0.0194  0.1544 -0.0477
 1726ntf    on510765   5.861   5.229   0.711 -0.2765  0.9356 -0.1313
 1726ntf    on510766   6.079   4.970   1.035 -0.0133 -0.9076 -0.3958
 1726ntf    on510767   5.867   4.995   0.917 -0.0336 -0.1163  0.7865
 1726ntf    fn410768   5.919   5.304   0.992 -0.2152 -0.4021 -0.0209
 1726ntf    fn410769   5.845   5.181   1.145 -0.5669  0.4132  0.3265
 1726ntf    fn410770   6.046   5.235   1.147 -0.4028 -0.2976  0.1872
 1727ntf    cn110771   0.106   1.390   5.839  0.1092 -0.2456  0.4109
 1727ntf    sn210772  -0.056   1.470   5.817  0.2066 -0.1178  0.1567
 1727ntf    nn310773  -0.117   1.462   5.961 -0.5523 -0.9358 -0.1985
 1727ntf    sn210774  -0.096   1.530   6.101 -0.4691 -0.6170 -0.3655
 1727ntf    cn110775  -0.244   1.636   6.107 -0.0933 -0.1150  0.2539
 1727ntf    fn410776   0.195   1.454   5.911 -0.2329  0.5149  0.1636
 1727ntf    fn410777   0.101   1.271   5.896  0.3696 -0.3391  0.2392
 1727ntf    fn410778   0.161   1.367   5.720 -0.6207 -0.5638  0.1273
 1727ntf    on510779  -0.020   1.598   5.761  0.2512 -0.3141 -0.2703
 1727ntf    on510780  -0.131   1.392   5.722  0.0167  0.6555 -0.3422
 1727ntf    on510781   0.012   1.625   6.105 -0.1335 -1.0242  0.3414
 1727ntf    on510782  -0.125   1.452   6.219  0.1230 -0.2564  0.0259
 1727ntf    fn410783  -0.234   1.732   6.016  0.4670  0.3813  0.8325
 1727ntf    fn410784  -0.358   1.574   6.079 -0.0787 -0.0443  0.0366
 1727ntf    fn410785  -0.259   1.699   6.222  0.4499 -0.3110  0.4343
 1728ntf    cn110786   0.496   2.844   4.297  0.4114  0.0689 -0.1800
 1728ntf    sn210787   0.615   2.759   4.405  0.0674  0.0628  0.1965
 1728ntf    nn310788   0.652   2.874   4.506 -0.3369  0.3902 -0.0270
 1728ntf    sn210789   0.761   2.885   4.618 -0.2428  0.1848 -0.0966
 1728ntf    cn110790   0.667   2.953   4.759 -0.2045  0.0037  0.0160
 1728ntf    fn410791   0.401   2.906   4.365  0.2752 -0.0919 -0.2233
 1728ntf    fn410792   0.556   2.931   4.217 -0.1213  0.8039  0.2096
 1728ntf    fn410793   0.434   2.758   4.217 -0.1213  0.1726  0.1182
 1728ntf    on510794   0.530   2.656   4.458  0.1933  0.3058  0.8861
 1728ntf    on510795   0.714   2.723   4.307 -1.0214 -0.7385 -0.6271
 1728ntf    on510796   0.844   2.999   4.588  0.7479 -0.4761  0.1041
 1728ntf    on510797   0.817   2.762   4.668  0.1833  0.5236  0.2747
 1728ntf    fn410798   0.576   3.043   4.726  0.2002  0.2892 -0.3552
 1728ntf    fn410799   0.619   2.855   4.833 -0.7314  0.0540 -0.2553
 1728ntf    fn410800   0.749   3.018   4.840  0.3588 -0.3145 -0.2887
 1729ntf    cn110801   4.604   3.253   0.619 -0.1457 -0.7150 -0.0846
 1729ntf    sn210802   4.747   3.301   0.721 -0.1978 -0.0618 -0.3185
 1729ntf    nn310803   4.781   3.163   0.787  0.0319 -0.0052 -0.3186
 1729ntf    sn210804   4.735   3.095   0.921 -0.2189 -0.0391 -0.4206
 1729ntf    cn110805   4.893   3.035   0.987  0.0313  0.7442 -0.2873
 1729ntf    fn410806   4.548   3.364   0.576  0.3438 -0.0552  0.9438
 1729ntf    fn410807   4.640   3.196   0.505  0.4111  0.4240 -0.4870
 1729ntf    fn410808   4.520   3.165   0.673  0.3190 -0.8714  0.3950
 1729ntf    on510809   4.837   3.337   0.614  0.8721 -0.4320  0.4485
 1729ntf    on510810   4.697   3.410   0.800  0.5422 -0.1919  0.3381
 1729ntf    on510811   4.668   2.970   0.897 -0.1175 -0.1782  0.0013
 1729ntf    on510812   4.678   3.191   1.013  0.2404  0.3508 -0.5357
 1729ntf    fn410813   4.963   2.988   0.885 -0.7611 -0.4880 -0.2844
 1729ntf    fn410814   4.968   3.133   1.035  0.0136  0.4412  0.3682
 1729ntf    fn410815   4.869   2.947   1.083 -0.2395  0.4042 -0.6632
 1730ntf    cn110816   4.286   5.215   3.193 -0.0075  0.1318 -0.0367
 1730ntf    sn210817   4.192   5.069   3.247  0.0627 -0.0068 -0.2896
 1730ntf    nn310818   4.203   5.090   3.402  0.0707 -0.5311 -0.2167
 1730ntf    sn210819   4.307   5.036   3.506  0.0571  0.1585  0.1626
 1730ntf    cn110820   4.205   4.899   3.570 -0.0735  0.2051  0.0540
 1730ntf    fn410821   4.417   5.208   3.205  0.0596  0.7855 -0.3103
 1730ntf    fn410822   4.283   5.231   3.062  0.6195  0.1639 -0.0496
 1730ntf    fn410823   4.253   5.334   3.240  0.1092  0.2093 -0.1499
 1730ntf    on510824   4.056   5.085   3.203 -0.2260 -0.0571  0.5737
 1730ntf    on510825   4.279   4.962   3.206 -0.1522 -0.1908 -0.2661
 1730ntf    on510826   4.313   5.122   3.622  0.0871  0.2592  0.0860
 1730ntf    on510827   4.419   4.961   3.455 -0.2422 -0.4165  0.3305
 1730ntf    fn410828   4.265   4.841   3.673  0.0990 -0.0812 -0.2080
 1730ntf    fn410829   4.084   4.941   3.604 -0.0961 -0.0392  0.2836
 1730ntf    fn410830   4.191   4.810   3.474  0.1073 -0.3163  0.5047
 1731ntf    cn110831   4.611   5.288   0.223  0.1545  0.2413  0.0788
 1731ntf    sn210832   4.458   5.309   0.319  0.1033 -0.2449  0.1088
 1731ntf    nn310833   4.428   5.462   0.298  0.4805 -0.2093 -0.2003
 1731ntf    sn210834   4.358   5.526   0.173  0.2054  0.1518  0.1358
 1731ntf    cn110835   4.188   5.557   0.228  0.0383 -0.2321 -0.1602
 1731ntf    fn410836   4.594   5.273   0.093  0.2645  0.1041  0.0798
 1731ntf    fn410837   4.698   5.387   0.236 -0.1585  0.4735  0.3955
 1731ntf    fn410838   4.681   5.180   0.257 -0.4269 -0.0971  0.2119
 1731ntf    on510839   4.365   5.215   0.262  0.2172 -0.6568  0.6015
 1731ntf    on510840   4.498   5.279   0.454  0.0433 -0.3367  0.1059
 1731ntf    on510841   4.334   5.432   0.067  0.2266 -0.0378  0.2988
 1731ntf    on510842   4.419   5.653   0.143  0.9278 -0.2665 -0.1791
 1731ntf    fn410843   4.160   5.677   0.277 -0.1674 -0.2298 -0.2795
 1731ntf    fn410844   4.103   5.538   0.128  0.0717 -0.3035 -0.1749
 1731ntf    fn410845   4.138   5.477   0.321 -0.8657  0.4932 -0.0002
 1732ntf    cn110846   2.750   3.291   1.112  0.2739 -0.3520  0.1060
 1732ntf    sn210847   2.773   3.459   1.046  0.1543 -0.3885 -0.0292
 1732ntf    nn310848   2.636   3.479   0.973  0.0339  0.2628  0.3649
 1732ntf    sn210849   2.598   3.556   0.841  0.2577 -0.0696  0.1035
 1732ntf    cn110850   2.564   3.424   0.721  0.3503  0.1073 -0.1190
 1732ntf    fn410851   2.866   3.245   1.155  0.2117 -0.2813  0.3546
 1732ntf    fn410852   2.662   3.286   1.210  0.0090  0.6261 -0.0693
 1732ntf    fn410853   2.708   3.209   1.018  0.1901 -0.0507 -0.1229
 1732ntf    on510854   2.778   3.546   1.161 -0.3076 -0.1562 -0.1813
 1732ntf    on510855   2.893   3.446   0.966  0.4608  0.2318  0.3178
 1732ntf    on510856   2.707   3.634   0.788  0.1042  0.5890  0.7487
 1732ntf    on510857   2.470   3.620   0.861  0.1624  0.0495 -0.8376
 1732ntf    fn410858   2.473   3.337   0.764  0.3993 -0.2055 -0.6363
 1732ntf    fn410859   2.522   3.472   0.605  0.0936  0.1491 -0.0098
 1732ntf    fn410860   2.670   3.348   0.700  0.3697  0.0216  0.2662
 1733ntf    cn110861   4.666   0.364   0.167 -0.9025  0.0446  0.5472
 1733ntf    sn210862   4.833   0.363   0.241 -0.6646  0.0917  0.0133
 1733ntf    nn310863   4.892   0.228   0.186  0.1287  0.3892  0.1344
 1733ntf    sn210864   4.988   0.133   0.266  0.2540  0.1011 -0.3544
 1733ntf    cn110865   4.879  -0.010   0.295  0.0756  0.2606 -0.2344
 1733ntf    fn410866   4.605   0.478   0.196 -0.4274  0.3225  0.4697
 1733ntf    fn410867   4.681   0.363   0.036  0.4489  0.1306  0.6811
 1733ntf    fn410868   4.583   0.265   0.195  0.5522 -1.1595  0.7315
 1733ntf    on510869   4.891   0.480   0.182 -0.4132  0.4755  1.0113
 1733ntf    on510870   4.803   0.378   0.381  0.1754 -0.9113  0.3187
 1733ntf    on510871   5.028   0.174   0.398 -0.2554  0.4621 -0.3083
 1733ntf    on510872   5.095   0.080   0.185 -0.4727 -0.7651 -0.7797
 1733ntf    fn410873   4.787   0.011   0.387  0.0117 -0.5750 -0.0977
 1733ntf    fn410874   4.805  -0.043   0.191  0.0667 -0.4194 -0.0201
 1733ntf    fn410875   4.944  -0.119   0.335 -0.1827  0.0741 -0.3187
 1734ntf    cn110876   2.031   0.173   6.197 -0.0979 -0.0934 -0.3858
 1734ntf    sn210877   1.908   0.040   6.210  0.0023 -0.1483 -0.0023
 1734ntf    nn310878   1.909  -0.021   6.066  0.3154  0.6818 -0.3545
 1734ntf    sn210879   1.988  -0.144   6.007 -0.1971  0.2645 -0.1731
 1734ntf    cn110880   2.051  -0.066   5.856 -0.0225 -0.1055 -0.2924
 1734ntf    fn410881   1.988   0.270   6.118 -0.3682  0.2391  0.1586
 1734ntf    fn410882   2.037   0.228   6.317  0.3487 -0.6117 -0.1691
 1734ntf    fn410883   2.154   0.139   6.165  0.1916  0.5604  0.0046
 1734ntf    on510884   1.971  -0.038   6.314 -0.2173 -0.0979  0.1710
 1734ntf    on510885   1.790   0.111   6.252  0.5168  0.3326  0.6611
 1734ntf    on510886   1.907  -0.259   5.974 -0.2500  0.1876  0.2136
 1734ntf    on510887   2.111  -0.179   6.072 -0.4604 -0.4434 -0.0530
 1734ntf    fn410888   1.952  -0.022   5.779 -0.1579  0.1119  0.0050
 1734ntf    fn410889   2.128   0.039   5.880 -0.4239  0.3161 -0.8067
 1734ntf    fn410890   2.128  -0.146   5.784  0.9492  0.8822 -0.3765
 1735ntf    cn110891   3.561   4.099   5.800  0.2858  0.2418 -0.0506
 1735ntf    sn210892   3.735   4.125   5.757  0.2843  0.2862 -0.0301
 1735ntf    nn310893   3.732   4.036   5.628  0.4003 -0.0314  0.1854
 1735ntf    sn210894   3.832   3.922   5.589 -0.0015 -0.3213 -0.0049
 1735ntf    cn110895   3.840   3.803   5.727 -0.0350  0.0173  0.2894
 1735ntf    fn410896   3.530   4.152   5.918 -0.5395 -0.2579 -0.0373
 1735ntf    fn410897   3.475   4.133   5.706  0.1627 -0.0140 -0.0307
 1735ntf    fn410898   3.536   3.971   5.825 -0.6855  0.4336  0.0031
 1735ntf    on510899   3.735   4.267   5.732  0.4093  0.2002 -0.5292
 1735ntf    on510900   3.808   4.079   5.872  0.3775  0.3864 -0.0477
 1735ntf    on510901   3.968   3.967   5.575 -0.0592 -0.1978 -0.1613
 1735ntf    on510902   3.782   3.858   5.470 -1.1398  0.1901  0.1829
 1735ntf    fn410903   3.894   3.689   5.688  0.0105  0.1530 -0.0466
 1735ntf    fn410904   3.900   3.848   5.836  0.3450 -0.4992  0.2918
 1735ntf    fn410905   3.717   3.774   5.766 -0.0332  0.7752  0.8771
 1736ntf    cn110906   3.351   6.926   1.618 -0.0149  0.3518 -0.3586
 1736ntf    sn210907   3.515   6.878   1.556 -0.0794 -0.1523 -0.1379
 1736ntf    nn310908   3.587   6.871   1.695 -0.3500 -0.0084  0.0108
 1736ntf    sn210909   3.635   6.755   1.789 -0.3006 -0.0456 -0.0604
 1736ntf    cn110910   3.779   6.824   1.875 -0.3505  0.0292 -0.0366
 1736ntf    fn410911   3.284   6.835   1.686  0.8368  0.0341  0.0691
 1736ntf    fn410912   3.353   7.033   1.696  0.0469 -0.4530  0.7728
 1736ntf    fn410913   3.274   6.963   1.516 -0.1041 -0.2213 -0.4994
 1736ntf    on510914   3.485   6.752   1.492 -0.1513 -0.1102 -0.1859
 1736ntf    on510915   3.558   6.987   1.473  0.1237 -0.1476 -0.0253
 1736ntf    on510916   3.692   6.637   1.728  0.2912  0.1547  0.0988
 1736ntf    on510917   3.542   6.733   1.898  0.0904  0.0636  0.2959
 1736ntf    fn410918   3.749   6.948   1.909  0.5493  0.3032 -0.2119
 1736ntf    fn410919   3.805   6.770   1.993 -0.2368 -0.4448 -0.2727
 1736ntf    fn410920   3.894   6.825   1.808 -0.2441  0.0352  0.1462
 1737ntf    cn110921   4.113   3.484   0.743  0.0978 -0.3784  0.1717
 1737ntf    sn210922   4.089   3.557   0.908  0.0630 -0.0714  0.0297
 1737ntf    nn310923   4.236   3.581   0.956  0.0280  0.2076  0.0027
 1737ntf    sn210924   4.346   3.665   0.882 -0.1835  0.5706  0.1004
 1737ntf    cn110925   4.328   3.817   0.979  0.5882  0.2694  0.7215
 1737ntf    fn410926   4.141   3.567   0.644 -0.2898  0.1087  0.4718
 1737ntf    fn410927   4.201   3.385   0.746  0.4870 -0.0226  0.6288
 1737ntf    fn410928   4.000   3.427   0.703  0.2707 -0.1560 -0.6503
 1737ntf    on510929   4.017   3.680   0.885  0.1865 -0.0401 -0.2010
 1737ntf    on510930   4.027   3.442   0.969 -0.2815 -0.3677 -0.8565
 1737ntf    on510931   4.316   3.713   0.749  0.1432 -0.1879 -0.2558
 1737ntf    on510932   4.478   3.618   0.915 -0.3191  0.3998  0.4035
 1737ntf    fn410933   4.366   3.799   1.105 -0.3002 -0.4245  0.9045
 1737ntf    fn410934   4.393   3.920   0.929 -0.1806  0.2690 -0.2950
 1737ntf    fn410935   4.203   3.855   0.999  0.4112  0.1627 -0.1546
 1738ntf    cn110936   0.221   4.548   0.157 -0.3456 -0.0672  0.3026
 1738ntf    sn210937   0.059   4.559   0.075 -0.1078 -0.1828 -0.1802
 1738ntf    nn310938   0.051   4.713   0.046  0.1750 -0.1244  0.0442
 1738ntf    sn210939   0.102   4.792  -0.079 -0.2036 -0.1825 -0.1509
 1738ntf    cn110940  -0.046   4.885  -0.128 -0.3764  0.0721  0.8375
 1738ntf    fn410941   0.232   4.640   0.251  0.2034 -0.0480  0.2224
 1738ntf    fn410942   0.231   4.431   0.218 -0.6200 -0.0166  0.4473
 1738ntf    fn410943   0.320   4.564   0.071 -0.1344  0.5293  0.6531
 1738ntf    on510944   0.075   4.472  -0.039  0.2550 -0.5855  0.1737
 1738ntf    on510945  -0.029   4.518   0.181  0.6777 -0.2188  0.4731
 1738ntf    on510946   0.129   4.728  -0.205  0.0331  0.0449 -0.2180
 1738ntf    on510947   0.200   4.886  -0.030 -0.3510 -0.2449  0.2722
 1738ntf    fn410948  -0.088   4.974  -0.038 -0.6461  1.0177 -0.2030
 1738ntf    fn410949  -0.020   4.954  -0.237 -0.3240  0.1385  0.8915
 1738ntf    fn410950  -0.155   4.815  -0.151 -0.0231 -0.3082  0.3065
 1739ntf    cn110951   2.615   4.448   5.415  0.6364 -0.1104  0.0789
 1739ntf    sn210952   2.719   4.422   5.269  0.4753 -0.0445 -0.0476
 1739ntf    nn310953   2.852   4.494   5.313  0.5289 -0.0981 -0.1206
 1739ntf    sn210954   2.967   4.448   5.409  0.3355 -0.2004  0.0625
 1739ntf    cn110955   3.084   4.372   5.292 -0.0476 -0.7493  0.0324
 1739ntf    fn410956   2.662   4.397   5.528 -0.0725 -0.0972  0.3871
 1739ntf    fn410957   2.619   4.579   5.432  0.3481 -0.0998  0.0788
 1739ntf    fn410958   2.487   4.419   5.401  0.6114  0.2683 -0.5332
 1739ntf    on510959   2.734   4.280   5.251  0.2021 -0.1244  0.3516
 1739ntf    on510960   2.642   4.499   5.174  0.3687  0.0482  0.1136
 1739ntf    on510961   2.927   4.344   5.500  0.0181  0.0295  0.1883
 1739ntf    on510962   3.051   4.550   5.467  0.6396 -0.3191 -0.1666
 1739ntf    fn410963   3.158   4.465   5.235 -0.3037 -0.5139  0.0766
 1739ntf    fn410964   3.163   4.274   5.330 -0.0424 -0.7274  0.0787
 1739ntf    fn410965   3.024   4.322   5.186  0.3005 -0.0262 -0.5091
 1740ntf    cn110966   1.715   2.397   3.010  0.3074 -0.0691 -0.0607
 1740ntf    sn210967   1.596   2.277   3.076  0.1073  0.1892  0.0499
 1740ntf    nn310968   1.570   2.188   2.949 -0.5282 -0.0416  0.3360
 1740ntf    sn210969   1.630   2.052   2.898  0.3766  0.4482  0.0723
 1740ntf    cn110970   1.514   1.944   2.987  0.5458  0.1080 -0.1195
 1740ntf    fn410971   1.795   2.343   2.920  0.4119 -0.1450  0.0770
 1740ntf    fn410972   1.665   2.506   2.954  0.0750 -0.1384  0.0104
 1740ntf    fn410973   1.805   2.443   3.096 -0.1771 -0.1301  0.4817
 1740ntf    on510974   1.657   2.209   3.188 -0.3919  0.1438  0.3003
 1740ntf    on510975   1.484   2.362   3.107  0.1826  0.4332 -0.3482
 1740ntf    on510976   1.764   2.020   2.939 -0.0584 -1.1504  0.3230
 1740ntf    on510977   1.595   2.020   2.762 -0.2407 -0.1216  0.3585
 1740ntf    fn410978   1.503   1.974   3.115 -0.5205 -0.0020 -0.1761
 1740ntf    fn410979   1.390   1.948   2.942  0.4138 -0.3995  0.1928
 1740ntf    fn410980   1.550   1.817   2.974 -0.7169 -0.2502 -0.2600
 1741ntf    cn110981   6.869   3.476   2.502 -0.0459 -0.2550  0.4797
 1741ntf    sn210982   6.961   3.555   2.637  0.4075  0.0591 -0.0102
 1741ntf    nn310983   7.004   3.683   2.557 -0.1679  0.1170 -0.2325
 1741ntf    sn210984   7.077   3.809   2.617  0.0250 -0.1035  0.0014
 1741ntf    cn110985   6.938   3.910   2.676 -0.0572 -0.3395  0.2123
 1741ntf    fn410986   6.776   3.557   2.453  0.1997 -0.0032  0.4281
 1741ntf    fn410987   6.951   3.443   2.404 -0.1435  0.2674  0.2195
 1741ntf    fn410988   6.819   3.360   2.542 -0.1607 -0.3918 -0.0550
 1741ntf    on510989   6.866   3.572   2.744  0.2595  0.0830 -0.1455
 1741ntf    on510990   7.072   3.463   2.648 -0.2501 -0.8307 -0.7277
 1741ntf    on510991   7.131   3.893   2.513 -0.1639  0.1506  0.1063
 1741ntf    on510992   7.161   3.792   2.732  0.1016  0.2122 -0.0064
 1741ntf    fn410993   6.847   3.838   2.740 -0.2934 -0.3666 -0.1553
 1741ntf    fn410994   6.975   4.004   2.762 -0.0888 -0.0852 -0.0528
 1741ntf    fn410995   6.878   3.978   2.580 -0.2675 -0.1468  0.4750
 1742ntf    cn110996   1.783   5.518   0.548 -0.2742  0.3779 -0.4926
 1742ntf    sn210997   1.674   5.520   0.402 -0.5105  0.1776 -0.3185
 1742ntf    nn310998   1.616   5.666   0.405  0.1283  0.4318 -0.1688
 1742ntf    sn210999   1.469   5.716   0.429  0.0648  0.1931 -0.0579
 1742ntf    cn111000   1.490   5.883   0.496  0.0225  0.2875 -0.2807
 1742ntf    fn411001   1.875   5.613   0.541  0.3824 -0.2149 -0.0287
 1742ntf    fn411002   1.726   5.527   0.667 -0.1934 -0.2506 -0.4014
 1742ntf    fn411003   1.848   5.402   0.548 -0.7134  0.1277 -0.5571
 1742ntf    on511004   1.760   5.490   0.291 -0.0121 -0.3367  0.1940
 1742ntf    on511005   1.588   5.408   0.434  0.0365 -0.1751 -0.0677
 1742ntf    on511006   1.395   5.661   0.540  0.2792  0.4050  0.1886
 1742ntf    on511007   1.392   5.743   0.310 -0.3062 -0.2523  0.0772
 1742ntf    fn411008   1.581   5.947   0.425 -0.1092  0.0049 -0.7112
 1742ntf    fn411009   1.382   5.960   0.501 -0.7308 -0.7312 -0.4758
 1742ntf    fn411010   1.529   5.873   0.621  0.2205 -0.2179 -0.3797
 1743ntf    cn111011   2.786   1.776   1.323 -0.1289 -0.0470  0.3807
 1743ntf    sn211012   2.911   1.694   1.220 -0.3679  0.0507  0.0084
 1743ntf    nn311013   2.844   1.551   1.220 -0.4522  0.0876  0.8737
 1743ntf    sn211014   2.880   1.427   1.309 -0.0767 -0.2140  0.3030
 1743ntf    cn111015   2.721   1.346   1.343 -0.0539 -0.3633  0.0540
 1743ntf    fn411016   2.745   1.714   1.432 -0.1530 -0.8159 -0.0576
 1743ntf    fn411017   2.829   1.897   1.355  0.2842 -0.0546 -0.1369
 1743ntf    fn411018   2.668   1.785   1.262 -0.0681 -0.0687  0.2593
 1743ntf    on511019   2.902   1.766   1.096 -0.0551 -0.2960 -0.2190
 1743ntf    on511020   3.036   1.697   1.292 -0.3037 -0.1818 -0.0909
 1743ntf    on511021   2.930   1.461   1.440  0.3636  0.7857 -0.1173
 1743ntf    on511022   2.945   1.322   1.235 -0.1674  0.1261 -0.2683
 1743ntf    fn411023   2.631   1.432   1.387 -0.1581 -0.2833 -0.3074
 1743ntf    fn411024   2.661   1.285   1.241 -0.0157 -0.6076  0.1758
 1743ntf    fn411025   2.736   1.260   1.442 -0.1925 -0.8465 -0.3401
 1744ntf    cn111026   3.153   1.649   2.207 -0.0203 -0.1715  0.2662
 1744ntf    sn211027   3.278   1.768   2.151 -0.2977 -0.1849 -0.3860
 1744ntf    nn311028   3.415   1.720   2.210  0.0542  0.2168 -0.8686
 1744ntf    sn211029   3.481   1.579   2.194  0.0190  0.1133 -0.1148
 1744ntf    cn111030   3.510   1.542   2.370  0.1298 -0.1995 -0.1976
 1744ntf    fn411031   3.194   1.593   2.320  0.0956 -0.2149  0.2028
 1744ntf    fn411032   3.033   1.701   2.225 -0.0892 -0.1978 -0.1061
 1744ntf    fn411033   3.140   1.541   2.131 -0.5919  0.1767 -0.1398
 1744ntf    on511034   3.283   1.758   2.007 -0.3183 -0.1100 -0.3920
 1744ntf    on511035   3.243   1.896   2.207  0.5490  0.0074 -0.2894
 1744ntf    on511036   3.615   1.597   2.143  0.0574  0.7415  0.2029
 1744ntf    on511037   3.400   1.469   2.146 -0.6745  0.7022 -0.3118
 1744ntf    fn411038   3.592   1.627   2.429 -0.1187  0.1104 -0.2946
 1744ntf    fn411039   3.404   1.556   2.448 -0.4230  0.2654 -1.0152
 1744ntf    fn411040   3.562   1.423   2.393 -0.0593 -0.1026  0.7569
 1745ntf    cn111041   3.122   2.988   2.780 -0.4167  0.0060 -0.1158
 1745ntf    sn211042   3.140   3.016   2.959 -0.1059  0.0624 -0.1541
 1745ntf    nn311043   2.992   3.026   3.011  0.0015 -1.0073  0.3794
 1745ntf    sn211044   2.953   3.045   3.162 -0.0195 -0.2926  0.2873
 1745ntf    cn111045   2.906   2.874   3.205 -0.2841 -0.2290  0.2547
 1745ntf    fn411046   3.079   2.871   2.737  0.1361 -0.1211 -0.3401
 1745ntf    fn411047   3.025   3.060   2.726 -0.1776  0.2833 -0.1810
 1745ntf    fn411048   3.233   3.012   2.712 -0.1648 -0.8098  0.0031
 1745ntf    on511049   3.210   2.899   3.006 -0.3797  0.0989  0.3498
 1745ntf    on511050   3.219   3.136   2.959  0.3061 -0.2051  0.4796
 1745ntf    on511051   2.833   3.124   3.173  0.4961  0.6317 -0.5858
 1745ntf    on511052   3.061   3.090   3.245 -0.0268  0.3713 -0.0534
 1745ntf    fn411053   2.779   2.856   3.172 -0.1391 -0.3536 -0.2439
 1745ntf    fn411054   2.985   2.792   3.138 -0.2187  0.3943 -0.4455
 1745ntf    fn411055   2.921   2.853   3.335  0.1585  0.5993  0.3482
 1746ntf    cn111056   6.069   3.676   4.370  0.3620 -0.1004  0.0147
 1746ntf    sn211057   6.171   3.583   4.489  0.1555 -0.1062  0.1882
 1746ntf    nn311058   6.157   3.444   4.417 -0.4123  0.2957 -0.4971
 1746ntf    sn211059   6.245   3.374   4.308 -0.3678 -0.1682 -0.1659
 1746ntf    cn111060   6.100   3.326   4.209 -0.2238 -0.1349 -0.3929
 1746ntf    fn411061   6.131   3.693   4.255  0.5340  1.0023  0.2559
 1746ntf    fn411062   5.951   3.622   4.345  0.1059  0.1813  0.5870
 1746ntf    fn411063   6.052   3.803   4.405 -0.4136 -0.3754  0.6874
 1746ntf    on511064   6.300   3.646   4.486  0.1078 -0.0279 -0.4359
 1746ntf    on511065   6.095   3.596   4.611 -0.7486 -0.1968 -0.3536
 1746ntf    on511066   6.304   3.254   4.362  0.1966 -0.1003 -0.6151
 1746ntf    on511067   6.332   3.455   4.226 -0.7691 -0.3086 -0.7384
 1746ntf    fn411068   6.002   3.413   4.221  0.0909  0.1840 -0.1158
 1746ntf    fn411069   6.132   3.325   4.080 -0.1138 -0.0405 -0.3667
 1746ntf    fn411070   6.051   3.208   4.243  0.2419 -0.2731 -0.1853
 1747ntf    cn111071   5.640   5.644   6.426  0.2474 -0.3011  0.6113
 1747ntf    sn211072   5.651   5.671   6.606  0.0172 -0.2881  0.6236
 1747ntf    nn311073   5.745   5.553   6.650 -0.0111 -0.2953  0.6646
 1747ntf    sn211074   5.898   5.556   6.687  0.1182 -0.2277  0.1257
 1747ntf    cn111075   5.912   5.630   6.852  0.0224 -0.3565  0.1929
 1747ntf    fn411076   5.577   5.531   6.399 -0.6610  0.2416  0.4154
 1747ntf    fn411077   5.575   5.747   6.374  0.4076 -0.4985  0.0151
 1747ntf    fn411078   5.760   5.628   6.372  0.1053 -0.3474  0.3082
 1747ntf    on511079   5.694   5.807   6.623  0.0973 -0.2032 -0.2111
 1747ntf    on511080   5.517   5.647   6.654 -0.2285  0.2855  0.2279
 1747ntf    on511081   5.987   5.632   6.602  0.2832  0.1160  0.6066
 1747ntf    on511082   5.950   5.423   6.710 -0.9654 -0.5961  0.5240
 1747ntf    fn411083   6.037   5.653   6.889 -0.0147 -0.4041  0.3451
 1747ntf    fn411084   5.853   5.749   6.857 -0.6703 -0.6886  0.0117
 1747ntf    fn411085   5.862   5.564   6.955 -0.0814  0.3847  0.6234
 1748ntf    cn111086   5.594   2.304   0.098 -0.6612 -0.2991  0.3552
 1748ntf    sn211087   5.772   2.339   0.079 -0.6966 -0.2750  0.0623
 1748ntf    nn311088   5.795   2.456   0.181  0.3337 -0.9413  0.6093
 1748ntf    sn211089   5.924   2.486   0.265  0.4581  0.2398  0.0202
 1748ntf    cn111090   5.872   2.416   0.424  0.5351  0.1836  0.0207
 1748ntf    fn411091   5.549   2.220   0.006  0.0032 -0.2177 -0.0592
 1748ntf    fn411092   5.564   2.261   0.219  0.1561 -0.2891  0.5666
 1748ntf    fn411093   5.521   2.414   0.093  0.2805  0.3508  0.6198
 1748ntf    on511094   5.835   2.219   0.127  1.2754  0.5363 -0.3858
 1748ntf    on511095   5.789   2.366  -0.062  0.4917 -0.4952  0.1533
 1748ntf    on511096   5.948   2.627   0.288  0.2582  0.1037  1.1225
 1748ntf    on511097   6.038   2.409   0.221  0.4776  0.6322 -0.6301
 1748ntf    fn411098   5.980   2.417   0.502  0.4232  0.1052  0.1781
 1748ntf    fn411099   5.784   2.487   0.493  0.3144 -0.1500  0.0835
 1748ntf    fn411100   5.829   2.291   0.422 -0.1064  0.4059 -0.1419
 1749ntf    cn111101   1.006   1.719   2.459 -0.0594 -0.4146  0.3508
 1749ntf    sn211102   0.897   1.864   2.480  0.1617 -0.2377  0.2819
 1749ntf    nn311103   0.885   1.874   2.636 -0.2215  0.2321  0.2236
 1749ntf    sn211104   0.980   1.931   2.747 -0.0696 -0.2176  0.3298
 1749ntf    cn111105   0.921   2.103   2.761  0.0870 -0.1493  0.1647
 1749ntf    fn411106   0.979   1.667   2.340  0.6174 -0.0106  0.0142
 1749ntf    fn411107   1.134   1.752   2.455 -0.1847 -0.0309 -0.9270
 1749ntf    fn411108   0.988   1.621   2.545 -0.2886 -0.1652  0.5913
 1749ntf    on511109   0.963   1.971   2.410 -0.2067 -0.0269  0.2551
 1749ntf    on511110   0.763   1.829   2.440  0.3578 -0.2511 -0.3852
 1749ntf    on511111   1.116   1.947   2.704 -0.3276 -0.2007 -0.4992
 1749ntf    on511112   0.961   1.887   2.883  0.3992  0.5279  0.6430
 1749ntf    fn411113   0.943   2.184   2.659  0.0722  0.1899  0.4315
 1749ntf    fn411114   0.791   2.111   2.787  0.1044  0.0169  0.1984
 1749ntf    fn411115   0.989   2.162   2.858  0.8446 -0.2771 -0.2818
 1750ntf    cn111116   4.234   1.420   2.867  0.3055  0.1563 -0.0235
 1750ntf    sn211117   4.163   1.262   2.814  0.3667  0.1952 -0.2212
 1750ntf    nn311118   4.283   1.175   2.761  0.2261 -0.2208  0.1390
 1750ntf    sn211119   4.354   1.054   2.833  0.4055 -0.0891  0.1839
 1750ntf    cn111120   4.263   0.908   2.774  0.2111 -0.0942  0.4981
 1750ntf    fn411121   4.333   1.454   2.786  0.1392 -0.1302 -0.3467
 1750ntf    fn411122   4.153   1.524   2.881  0.3171  0.1880 -0.1904
 1750ntf    fn411123   4.293   1.406   2.985  0.5903  0.3513 -0.1389
 1750ntf    on511124   4.094   1.219   2.933 -0.3186 -0.2112 -0.7573
 1750ntf    on511125   4.075   1.300   2.707 -0.2961 -0.5214  0.0597
 1750ntf    on511126   4.358   1.043   2.977 -1.0229  0.1441  0.2586
 1750ntf    on511127   4.480   1.029   2.767 -0.1248 -0.6164 -0.6393
 1750ntf    fn411128   4.138   0.911   2.819  0.1701  0.1857  0.3679
 1750ntf    fn411129   4.257   0.916   2.642 -0.3670  0.1324  0.5310
 1750ntf    fn411130   4.309   0.789   2.807 -0.3950 -0.2804  0.6932
 1751ntf    cn111131   5.715   6.071   4.155  0.3893 -0.5731  0.0601
 1751ntf    sn211132   5.778   6.061   3.984  0.4894 -0.6108  0.0988
 1751ntf    nn311133   5.810   5.908   3.975 -0.4355 -0.8112  0.0450
 1751ntf    sn211134   5.955   5.853   4.000 -0.2462 -0.2524  0.1859
 1751ntf    cn111135   5.921   5.756   4.149  0.1317 -0.2020  0.3068
 1751ntf    fn411136   5.800   6.105   4.250  0.0398 -0.1271  0.2195
 1751ntf    fn411137   5.618   6.159   4.173  0.6749 -0.2778  0.1562
 1751ntf    fn411138   5.665   5.955   4.194 -0.1734 -0.1561  0.6049
 1751ntf    on511139   5.662   6.088   3.902  0.4795  0.1436  0.3519
 1751ntf    on511140   5.883   6.160   3.977  0.0525 -0.1820 -0.4820
 1751ntf    on511141   6.054   5.955   4.028 -0.2746 -0.1554 -0.0591
 1751ntf    on511142   5.990   5.746   3.910  0.0638 -0.8457  1.0042
 1751ntf    fn411143   6.030   5.720   4.214  0.0370  0.1516  0.6670
 1751ntf    fn411144   5.836   5.814   4.232 -0.3446 -0.0553 -0.2748
 1751ntf    fn411145   5.841   5.656   4.115 -0.1155  0.1287 -0.0992
 1752ntf    cn111146   5.036   0.961   1.130  0.5560  0.0286  0.6203
 1752ntf    sn211147   4.963   0.921   0.969  0.2797  0.3404  0.6667
 1752ntf    nn311148   4.817   0.975   0.987 -0.0847 -0.3248 -0.1791
 1752ntf    sn211149   4.722   1.031   0.875 -0.1574  0.1674  0.1206
 1752ntf    cn111150   4.644   0.876   0.820  0.1898  0.1170 -0.2370
 1752ntf    fn411151   5.039   1.092   1.150  0.3004  0.1018  0.1939
 1752ntf    fn411152   4.970   0.906   1.231  0.1706 -0.5203  0.0736
 1752ntf    fn411153   5.163   0.926   1.143  0.4416 -0.2933  0.8929
 1752ntf    on511154   5.056   0.982   0.878 -0.1968  0.2840  0.1353
 1752ntf    on511155   4.953   0.777   0.982  0.1874  0.2157 -0.6866
 1752ntf    on511156   4.788   1.076   0.754 -0.2027 -0.2123 -0.0470
 1752ntf    on511157   4.619   1.119   0.922  0.2574  0.7197  0.0051
 1752ntf    fn411158   4.737   0.797   0.768  0.2446 -0.1063  0.1950
 1752ntf    fn411159   4.581   0.811   0.917 -0.1233  0.2237 -0.3675
 1752ntf    fn411160   4.555   0.900   0.726 -0.4076 -0.5197  0.1565
 1753ntf    cn111161   2.159   4.891   5.844 -0.2367 -0.0599 -0.2302
 1753ntf    sn211162   2.132   5.019   5.970  0.0908 -0.2414  0.0237
 1753ntf    nn311163   1.976   5.012   5.981  0.0533 -0.1342 -0.4453
 1753ntf    sn211164   1.864   5.098   5.913 -0.1297  0.2891  0.3799
 1753ntf    cn111165   1.863   5.247   6.017  0.2022  0.4131  0.2073
 1753ntf    fn411166   2.285   4.879   5.805 -0.2306 -0.2927 -0.1390
 1753ntf    fn411167   2.128   4.771   5.890  0.5856 -0.3003 -0.2863
 1753ntf    fn411168   2.094   4.913   5.731 -0.2919 -0.0811 -0.2021
 1753ntf    on511169   2.202   4.963   6.083  0.5479 -0.0233 -0.1501
 1753ntf    on511170   2.192   5.131   5.902 -0.2874 -0.3795 -0.5363
 1753ntf    on511171   1.731   5.044   5.929 -0.4483  0.7142 -0.6884
 1753ntf    on511172   1.902   5.147   5.783  0.3897 -0.1918  0.3499
 1753ntf    fn411173   1.754   5.319   5.996  0.1118  0.1343 -0.2909
 1753ntf    fn411174   1.862   5.222   6.147  0.0290 -0.3379  0.0628
 1753ntf    fn411175   1.965   5.324   5.984  0.5737 -0.1412  0.0514
 1754ntf    cn111176   2.409   5.257   5.161 -0.3818 -0.0631 -0.1631
 1754ntf    sn211177   2.530   5.327   5.043 -0.1109  0.4567  0.4182
 1754ntf    nn311178   2.620   5.404   5.146  0.2594  0.3332  0.1877
 1754ntf    sn211179   2.740   5.363   5.238 -0.0481 -0.2731  0.3259
 1754ntf    cn111180   2.656   5.406   5.394 -0.0824 -0.0863  0.2555
 1754ntf    fn411181   2.308   5.220   5.083 -0.8328 -0.2103  0.4834
 1754ntf    fn411182   2.456   5.147   5.217  0.3209  0.4915  0.3591
 1754ntf    fn411183   2.391   5.348   5.255  0.0937  0.4323 -0.5388
 1754ntf    on511184   2.583   5.207   4.982  0.1708  0.4116  0.7504
 1754ntf    on511185   2.443   5.407   4.961 -0.1818 -0.0462 -0.0010
 1754ntf    on511186   2.855   5.450   5.238  0.3164 -0.7440  0.0472
 1754ntf    on511187   2.763   5.222   5.257 -0.5482 -0.4158 -0.1204
 1754ntf    fn411188   2.732   5.372   5.497  0.0346  0.2567  0.2828
 1754ntf    fn411189   2.644   5.537   5.408 -0.2129  0.0975 -1.3643
 1754ntf    fn411190   2.538   5.348   5.408  0.0382 -0.3651  0.1323
 1755ntf    cn111191   1.009   6.565   6.034  0.0864 -0.0246  0.1628
 1755ntf    sn211192   0.841   6.597   5.974  0.1264  0.0005  0.0648
 1755ntf    nn311193   0.772   6.462   6.011  0.5539 -0.2325  0.0113
 1755ntf    sn211194   0.748   6.335   5.922 -0.3513  0.0430 -0.1545
 1755ntf    cn111195   0.611   6.398   5.821 -0.4407  0.6375  0.3341
 1755ntf    fn411196   1.021   6.614   6.157 -0.1402  0.1306  0.1244
 1755ntf    fn411197   1.032   6.435   6.038 -0.0895 -0.0726 -0.3112
 1755ntf    fn411198   1.105   6.624   5.965  0.0912 -0.2338 -0.0096
 1755ntf    on511199   0.787   6.708   6.049 -0.0018 -0.1405  0.1828
 1755ntf    on511200   0.864   6.620   5.833  0.5176 -1.0330 -0.0424
 1755ntf    on511201   0.682   6.226   5.988 -0.1994  0.2454  0.3354
 1755ntf    on511202   0.852   6.313   5.824 -0.1905  0.1253 -0.0023
 1755ntf    fn411203   0.649   6.479   5.723 -0.6326  0.2189 -0.0916
 1755ntf    fn411204   0.539   6.298   5.773  0.8802 -0.2022  0.0420
 1755ntf    fn411205   0.514   6.468   5.878 -0.4733  0.3913  0.5813
 1756ntf    cn111206   3.151   2.011   3.488 -0.0648  0.1437 -0.4023
 1756ntf    sn211207   3.015   2.002   3.608  0.2985  0.3371  0.0267
 1756ntf    nn311208   3.093   2.071   3.725  0.5302  0.0845  0.0218
 1756ntf    sn211209   3.044   2.165   3.841  0.1621  0.0356 -0.0946
 1756ntf    cn111210   3.077   2.334   3.780  0.2327  0.1748  0.3265
 1756ntf    fn411211   3.125   1.972   3.365 -0.1298  0.3682 -0.4619
 1756ntf    fn411212   3.186   2.139   3.481 -0.6573  0.2982 -0.6631
 1756ntf    fn411213   3.266   1.953   3.517  0.1559  0.4758 -0.6076
 1756ntf    on511214   2.913   2.088   3.553 -0.0761 -0.3217 -0.3240
 1756ntf    on511215   2.987   1.864   3.640  1.3518  0.1226  0.0694
 1756ntf    on511216   3.121   2.161   3.962 -0.0591 -0.4754  0.0307
 1756ntf    on511217   2.902   2.168   3.864  0.1981 -0.6064  0.2110
 1756ntf    fn411218   3.014   2.366   3.668 -0.0856 -0.9343  0.1735
 1756ntf    fn411219   3.042   2.420   3.874 -0.0861 -0.2547  0.6079
 1756ntf    fn411220   3.207   2.348   3.761  0.1906 -0.0372 -0.1349
 1757ntf    cn111221   4.482   2.416   4.425 -0.3122  0.0718 -0.1576
 1757ntf    sn211222   4.617   2.401   4.304  0.1947 -0.1147  0.4239
 1757ntf    nn311223   4.626   2.245   4.293  0.1665 -0.0789 -0.1739
 1757ntf    sn211224   4.722   2.151   4.375 -0.0209 -0.1493 -0.0363
 1757ntf    cn111225   4.596   2.020   4.385 -0.5123  0.2906 -0.3740
 1757ntf    fn411226   4.431   2.538   4.432  0.1726  0.2861 -0.3191
 1757ntf    fn411227   4.388   2.326   4.400  0.0016 -0.0524 -0.9116
 1757ntf    fn411228   4.526   2.378   4.544 -0.1264  0.0481 -0.2340
 1757ntf    on511229   4.556   2.462   4.188 -0.2332 -0.0633  0.6720
 1757ntf    on511230   4.728   2.476   4.358 -0.2146  0.1842  0.8612
 1757ntf    on511231   4.731   2.191   4.514  0.8999  0.4981 -0.2748
 1757ntf    on511232   4.840   2.101   4.310 -0.2001  0.1859 -0.6263
 1757ntf    fn411233   4.557   1.985   4.263 -0.1815  0.6138 -0.5743
 1757ntf    fn411234   4.660   1.917   4.438 -0.0841  0.7816  0.0718
 1757ntf    fn411235   4.491   2.043   4.462 -0.1809  1.0942 -0.1495
 1758ntf    cn111236   4.694   3.360   2.281 -0.0808  0.6012  0.2929
 1758ntf    sn211237   4.691   3.453   2.437 -0.0034  0.5240  0.3409
 1758ntf    nn311238   4.559   3.535   2.412 -0.5308 -0.2392  0.6096
 1758ntf    sn211239   4.546   3.690   2.428 -0.0028 -0.1519  0.2241
 1758ntf    cn111240   4.366   3.697   2.400  0.0944 -0.1545 -0.4297
 1758ntf    fn411241   4.793   3.271   2.282 -0.0155  0.6730  0.6038
 1758ntf    fn411242   4.583   3.292   2.257 -0.0515  0.3411  0.8760
 1758ntf    fn411243   4.717   3.432   2.173  0.1219  0.0663 -0.0254
 1758ntf    on511244   4.660   3.354   2.536  1.2184 -0.3680 -0.1418
 1758ntf    on511245   4.820   3.517   2.438  0.0810  0.3552  0.8908
 1758ntf    on511246   4.595   3.768   2.317 -0.6798 -0.5535 -0.3662
 1758ntf    on511247   4.565   3.733   2.564 -0.5197  0.0188  0.2446
 1758ntf    fn411248   4.312   3.814   2.431  0.4472 -0.1117  0.0549
 1758ntf    fn411249   4.331   3.662   2.278 -0.0734 -0.7133 -0.2229
 1758ntf    fn411250   4.306   3.605   2.474  0.1308  0.1645  0.0054
 1759ntf    cn111251   5.473   0.053   2.670 -0.2862  0.2220  0.3679
 1759ntf    sn211252   5.563   0.207   2.635 -0.0602  0.0235  0.0661
 1759ntf    nn311253   5.494   0.252   2.501  0.9500  0.0671 -0.4484
 1759ntf    sn211254   5.448   0.398   2.465 -0.1383 -0.1247  0.1232
 1759ntf    cn111255   5.302   0.355   2.366 -0.1250  0.1358 -0.0109
 1759ntf    fn411256   5.342   0.072   2.670 -0.2974  0.1604 -0.1962
 1759ntf    fn411257   5.494  -0.043   2.581 -0.0522  0.2649  0.3742
 1759ntf    fn411258   5.513   0.005   2.786 -0.2358  0.2283  0.3535
 1759ntf    on511259   5.537   0.281   2.756  0.2852  0.4028 -0.0891
 1759ntf    on511260   5.699   0.169   2.607  0.2618  0.9223  0.3610
 1759ntf    on511261   5.538   0.469   2.377 -0.4707  0.1979  0.0412
 1759ntf    on511262   5.392   0.477   2.571  0.3613 -0.1284  0.3956
 1759ntf    fn411263   5.248   0.453   2.296 -0.2006  0.1855  0.1168
 1759ntf    fn411264   5.344   0.267   2.276 -0.7070  0.1522 -0.3028
 1759ntf    fn411265   5.213   0.296   2.445 -0.0578  0.4966  0.3365
 1760ntf    cn111266   4.447   1.955   0.892 -0.5156  0.4596  0.5780
 1760ntf    sn211267   4.561   1.988   1.029 -0.0605 -0.0890  0.3374
 1760ntf    nn311268   4.654   1.862   1.031  0.4170  0.2565  0.0955
 1760ntf    sn211269   4.791   1.841   0.957  0.3161  0.2605 -0.0900
 1760ntf    cn111270   4.910   1.927   1.064  0.4164 -0.0127  0.0193
 1760ntf    fn411271   4.507   1.962   0.774 -0.9665  0.4641  0.3484
 1760ntf    fn411272   4.393   1.835   0.895  1.0044 -0.2655 -0.0175
 1760ntf    fn411273   4.351   2.046   0.891 -1.0196 -0.0722 -0.2716
 1760ntf    on511274   4.628   2.112   0.996 -0.3476 -0.1259 -0.3883
 1760ntf    on511275   4.474   1.993   1.145 -0.6691  0.1316 -0.1239
 1760ntf    on511276   4.805   1.898   0.825  0.2862  0.0459 -0.1863
 1760ntf    on511277   4.835   1.705   0.973 -0.3701  0.0565  0.1121
 1760ntf    fn411278   4.881   2.057   1.063  0.3460 -0.0264  0.3601
 1760ntf    fn411279   4.905   1.888   1.190  0.0436 -0.2879 -0.0792
 1760ntf    fn411280   5.038   1.917   1.034  0.3600 -0.1045 -0.1953
 1761ntf    cn111281   1.819   1.242   4.165  0.1562 -0.0145  0.3797
 1761ntf    sn211282   1.671   1.338   4.208  0.1348 -0.1138  0.5277
 1761ntf    nn311283   1.745   1.457   4.279 -0.1696  0.3838  0.0153
 1761ntf    sn211284   1.764   1.600   4.218  0.1833  0.2898 -0.0991
 1761ntf    cn111285   1.600   1.677   4.241 -0.0530 -0.1881 -0.1785
 1761ntf    fn411286   1.881   1.288   4.058  0.3377 -0.1430  0.4296
 1761ntf    fn411287   1.905   1.236   4.266  0.4192  0.2433  0.1732
 1761ntf    fn411288   1.796   1.115   4.139 -0.2415  0.1371 -0.0282
 1761ntf    on511289   1.598   1.366   4.087  0.1461 -0.1230  0.5183
 1761ntf    on511290   1.610   1.248   4.303 -0.2844 -0.6007 -0.1926
 1761ntf    on511291   1.793   1.608   4.077  0.2644  0.1147 -0.0925
 1761ntf    on511292   1.857   1.669   4.305  0.0202  0.4433 -0.0439
 1761ntf    fn411293   1.598   1.802   4.198  0.6091 -0.1574 -0.1381
 1761ntf    fn411294   1.508   1.618   4.167  0.3934  0.2197 -1.0761
 1761ntf    fn411295   1.559   1.674   4.366  0.0448 -0.2794 -0.1483
 1762ntf    cn111296   4.824   5.330   1.302  0.2233  0.4281  0.5131
 1762ntf    sn211297   5.005   5.332   1.315  0.2509 -0.6903  0.4444
 1762ntf    nn311298   5.058   5.334   1.167 -0.1738  0.0600  0.2987
 1762ntf    sn211299   5.181   5.421   1.121 -0.4560  0.1861 -0.2247
 1762ntf    cn111300   5.304   5.292   1.157 -0.2516  0.2594 -0.6548
 1762ntf    fn411301   4.774   5.436   1.242  0.0075 -0.1052 -0.2708
 1762ntf    fn411302   4.789   5.222   1.234  0.3236 -0.0266  1.1701
 1762ntf    fn411303   4.773   5.321   1.424 -0.3369  0.3893  0.2788
 1762ntf    on511304   5.017   5.460   1.382 -0.4293 -0.2817 -0.1987
 1762ntf    on511305   5.051   5.215   1.385  0.1180 -0.6066  0.6726
 1762ntf    on511306   5.223   5.532   1.202 -0.1338 -0.1123  0.0226
 1762ntf    on511307   5.181   5.446   0.979 -0.7858  0.5068 -0.1698
 1762ntf    fn411308   5.419   5.317   1.097  0.0485  0.0641 -0.1629
 1762ntf    fn411309   5.326   5.298   1.287  0.0664  0.6699 -0.7281
 1762ntf    fn411310   5.273   5.166   1.128  0.4872 -0.0587 -0.0987
 1763ntf    cn111311   1.205   2.109   0.643 -0.2748 -0.4053 -0.4867
 1763ntf    sn211312   1.194   1.944   0.568 -0.1585 -0.4682 -0.3663
 1763ntf    nn311313   1.091   1.877   0.666 -0.5050  0.2312 -0.2491
 1763ntf    sn211314   1.022   1.737   0.654  0.0820 -0.1048  0.2358
 1763ntf    cn111315   1.072   1.675   0.817 -0.2023 -0.3036  0.2488
 1763ntf    fn411316   1.227   2.122   0.773 -0.2337 -0.0601 -0.5271
 1763ntf    fn411317   1.312   2.166   0.592 -0.0520 -0.2816  0.1053
 1763ntf    fn411318   1.094   2.180   0.630  0.0702  0.2114 -0.0798
 1763ntf    on511319   1.135   1.966   0.438 -0.5838 -0.0343 -0.1033
 1763ntf    on511320   1.329   1.897   0.579  0.0269  0.0828 -0.2675
 1763ntf    on511321   1.076   1.659   0.545  0.1098 -0.2651  0.3651
 1763ntf    on511322   0.878   1.743   0.668  0.0578  0.8266 -0.2918
 1763ntf    fn411323   1.035   1.764   0.909 -0.0230  0.2373 -0.1989
 1763ntf    fn411324   1.016   1.559   0.848  0.0572 -0.3846  0.4167
 1763ntf    fn411325   1.202   1.655   0.821 -0.0590  0.4801 -0.1749
 1764ntf    cn111326   3.441   0.897   6.912  0.3906 -0.1897 -0.3995
 1764ntf    sn211327   3.464   0.717   6.915 -0.1127 -0.2481  0.1658
 1764ntf    nn311328   3.325   0.670   6.860 -0.1855 -0.1822  0.2907
 1764ntf    sn211329   3.180   0.664   6.918 -0.0829 -0.1141  0.5521
 1764ntf    cn111330   3.145   0.491   6.877  0.1369 -0.0705  0.1780
 1764ntf    fn411331   3.410   0.936   6.790  0.3928 -0.6002 -0.5343
 1764ntf    fn411332   3.340   0.927   6.992  0.9003  0.0494  0.1722
 1764ntf    fn411333   3.549   0.963   6.952  0.1905 -0.1512  0.0897
 1764ntf    on511334   3.576   0.690   6.828 -0.0272  0.0246  0.1913
 1764ntf    on511335   3.487   0.682   7.054  0.0418  0.6700  0.3739
 1764ntf    on511336   3.081   0.740   6.845  0.7393 -0.4814 -0.9886
 1764ntf    on511337   3.173   0.661   7.062  0.7024  0.8369  0.6255
 1764ntf    fn411338   3.049   0.434   6.949  0.5490 -0.3884  0.4809
 1764ntf    fn411339   3.101   0.466   6.754 -0.3032 -0.4362  0.4031
 1764ntf    fn411340   3.253   0.416   6.892 -0.1135 -0.3838  0.4299
 1765ntf    cn111341   1.984   6.549   3.348  0.5636  0.1506 -0.0140
 1765ntf    sn211342   2.018   6.464   3.505 -0.0269  0.3379  0.2178
 1765ntf    nn311343   1.961   6.566   3.609 -0.3334  0.4404 -0.0512
 1765ntf    sn211344   2.043   6.647   3.716 -0.4013  0.6031 -0.1217
 1765ntf    cn111345   1.977   6.562   3.863 -0.2518  0.2925 -0.2344
 1765ntf    fn411346   1.853   6.553   3.330  0.5844 -0.4893 -0.3386
 1765ntf    fn411347   2.035   6.671   3.345 -0.3457  0.5346 -0.0881
 1765ntf    fn411348   2.038   6.486   3.245  0.0822 -0.0082 -0.1687
 1765ntf    on511349   1.925   6.355   3.490  0.0499  0.2591  0.3048
 1765ntf    on511350   2.159   6.434   3.515 -0.1922 -0.4247  0.3136
 1765ntf    on511351   1.989   6.778   3.740 -0.7921  0.4352 -0.0793
 1765ntf    on511352   2.185   6.625   3.716 -0.4858  0.0304 -0.6142
 1765ntf    fn411353   2.057   6.595   3.963 -0.5383  0.2407  0.0097
 1765ntf    fn411354   1.855   6.594   3.903 -0.2703 -0.2318  0.1423
 1765ntf    fn411355   1.970   6.430   3.852  0.3198  0.2467 -0.0597
 1766ntf    cn111356   2.990   5.202   5.956 -0.5652  0.1290  0.3156
 1766ntf    sn211357   2.969   5.025   5.994 -0.0288 -0.0616 -0.2676
 1766ntf    nn311358   2.861   5.043   6.106  0.1490 -0.1594 -0.0804
 1766ntf    sn211359   2.876   5.064   6.261  0.0505  0.2782 -0.1303
 1766ntf    cn111360   2.734   5.171   6.302 -0.1221 -0.0491  0.1352
 1766ntf    fn411361   2.924   5.233   5.846 -0.2999  0.5564  0.2747
 1766ntf    fn411362   2.932   5.278   6.048 -0.1052 -0.0599  0.7669
 1766ntf    fn411363   3.116   5.240   5.943 -0.2915 -0.9879 -0.5237
 1766ntf    on511364   2.915   4.974   5.871 -0.5223 -0.7451  0.2236
 1766ntf    on511365   3.096   4.969   6.034 -0.0019  0.1871 -0.0018
 1766ntf    on511366   2.990   5.140   6.307 -0.2671  0.5380  0.2431
 1766ntf    on511367   2.841   4.944   6.332  0.1622  0.3176 -0.0056
 1766ntf    fn411368   2.629   5.169   6.221  0.3428 -0.5199 -0.4702
 1766ntf    fn411369   2.694   5.146   6.425 -0.1503  0.0856  0.1530
 1766ntf    fn411370   2.788   5.292   6.303 -0.0419 -0.0869  0.2464
 1767ntf    cn111371   4.575   1.119   2.170  0.3678 -0.1273  0.0953
 1767ntf    sn211372   4.652   1.235   2.287 -0.0274  0.1819  0.0502
 1767ntf    nn311373   4.747   1.312   2.189 -0.3711  0.2100 -0.2602
 1767ntf    sn211374   4.843   1.435   2.206 -0.1528 -0.0158  0.1615
 1767ntf    cn111375   4.807   1.511   2.045 -0.3974 -0.3215  0.0713
 1767ntf    fn411376   4.523   1.183   2.067  0.1048 -0.3499  0.0908
 1767ntf    fn411377   4.656   1.028   2.117  0.2873 -0.2498  0.1821
 1767ntf    fn411378   4.478   1.052   2.229  0.5270  0.3803  0.9582
 1767ntf    on511379   4.539   1.310   2.336 -0.5163 -0.4609 -0.0737
 1767ntf    on511380   4.729   1.146   2.371  0.0538 -0.2850 -0.5143
 1767ntf    on511381   4.981   1.404   2.178 -0.1561  0.2675 -0.1836
 1767ntf    on511382   4.805   1.540   2.296  0.7527  0.1920  0.3097
 1767ntf    fn411383   4.836   1.426   1.947 -0.0729  0.4787 -0.5348
 1767ntf    fn411384   4.680   1.548   2.031 -0.3839 -0.3125 -0.0298
 1767ntf    fn411385   4.885   1.614   2.018 -0.8120  0.0385  0.2250
 1768ntf    cn111386   2.722   5.744   4.290 -0.1221 -0.0240 -0.0833
 1768ntf    sn211387   2.850   5.618   4.262 -0.0710  0.0327 -0.1078
 1768ntf    nn311388   2.792   5.496   4.344  0.1109  0.2701  0.3791
 1768ntf    sn211389   2.870   5.381   4.417  0.0529 -0.0489 -0.0545
 1768ntf    cn111390   2.826   5.242   4.309 -0.3518 -0.0731  0.1405
 1768ntf    fn411391   2.699   5.768   4.418 -0.0178 -0.2364 -0.0248
 1768ntf    fn411392   2.764   5.861   4.244  0.5680 -0.6975 -1.2109
 1768ntf    fn411393   2.606   5.726   4.229 -0.0795  0.6086 -0.3598
 1768ntf    on511394   2.873   5.585   4.124 -0.2911  0.1215 -0.1661
 1768ntf    on511395   2.963   5.665   4.338 -0.0395 -0.2095 -0.0025
 1768ntf    on511396   2.808   5.345   4.542 -0.1794 -0.0120 -0.1584
 1768ntf    on511397   3.014   5.389   4.414  0.0333  0.2883 -0.1963
 1768ntf    fn411398   2.921   5.218   4.220 -0.3630  0.1180  0.0765
 1768ntf    fn411399   2.803   5.124   4.363 -0.0645  0.0735  0.5931
 1768ntf    fn411400   2.715   5.273   4.244 -0.2016 -0.3023 -0.2250
 1769ntf    cn111401   2.243   4.887   3.731  0.3515 -0.4367  0.1568
 1769ntf    sn211402   2.335   5.042   3.710 -0.3667 -0.0370 -0.0706
 1769ntf    nn311403   2.320   5.054   3.554 -0.1672 -0.7454 -0.1483
 1769ntf    sn211404   2.414   5.001   3.439  0.1255 -0.2935 -0.1206
 1769ntf    cn111405   2.492   5.164   3.421 -0.1212 -0.1501  0.1017
 1769ntf    fn411406   2.118   4.895   3.689  0.6259  0.6029 -0.4768
 1769ntf    fn411407   2.302   4.780   3.678 -0.2470 -0.9836  0.5764
 1769ntf    fn411408   2.229   4.865   3.861  0.4009  0.4911  0.3240
 1769ntf    on511409   2.245   5.132   3.778 -0.0209  0.1917  0.0905
 1769ntf    on511410   2.463   5.021   3.773 -0.6319 -0.4218  0.3467
 1769ntf    on511411   2.346   4.975   3.315 -0.5094  0.4073  0.0673
 1769ntf    on511412   2.526   4.917   3.472  0.2380 -0.0581  0.1032
 1769ntf    fn411413   2.599   5.161   3.344 -0.2514 -0.7802 -0.0596
 1769ntf    fn411414   2.409   5.251   3.366  0.3171 -0.2676 -0.7575
 1769ntf    fn411415   2.536   5.220   3.532  0.2644 -0.2118 -0.0197
 1770ntf    cn111416   1.701   3.887   2.047 -0.4688 -0.0570 -0.2148
 1770ntf    sn211417   1.626   3.736   2.116 -0.1370  0.0599  0.4091
 1770ntf    nn311418   1.481   3.782   2.151 -0.1601  0.0896  0.2766
 1770ntf    sn211419   1.347   3.799   2.070 -0.3117  0.2123  0.5512
 1770ntf    cn111420   1.278   3.632   2.085 -0.0782  0.1095  0.4861
 1770ntf    fn411421   1.660   3.922   1.926  0.1136  0.0695 -0.3761
 1770ntf    fn411422   1.683   3.984   2.136  0.2097 -0.4480  0.3576
 1770ntf    fn411423   1.832   3.874   2.046 -0.4647 -0.0998  0.4203
 1770ntf    on511424   1.632   3.638   2.010  0.5058  0.0343  0.4661
 1770ntf    on511425   1.697   3.705   2.238  0.5266  0.5328  0.1490
 1770ntf    on511426   1.373   3.827   1.931 -1.4816 -0.2824  0.2201
 1770ntf    on511427   1.256   3.886   2.141 -0.1884  0.9092 -0.1255
 1770ntf    fn411428   1.365   3.536   2.056 -0.1522  0.0475  0.4675
 1770ntf    fn411429   1.243   3.606   2.210 -0.5255  0.0162  0.3438
 1770ntf    fn411430   1.180   3.610   1.998 -0.3221  0.2089  0.7343
 1771ntf    cn111431   0.796   3.997   6.329  0.4930  0.0934  0.0888
 1771ntf    sn211432   0.744   4.047   6.162 -0.0827 -0.1463  0.1937
 1771ntf    nn311433   0.713   4.201   6.167 -0.3677 -0.1947 -0.1042
 1771ntf    sn211434   0.749   4.323   6.074  0.3961 -0.2211  0.1517
 1771ntf    cn111435   0.585   4.385   6.028  0.5830  0.0731 -0.1197
 1771ntf    fn411436   0.698   4.027   6.412 -0.0679 -0.7537 -0.2548
 1771ntf    fn411437   0.807   3.868   6.357  0.1007  0.0850  0.2098
 1771ntf    fn411438   0.907   4.056   6.373  0.5868  0.1767 -0.2596
 1771ntf    on511439   0.855   4.025   6.073  0.1309 -0.5054  0.5437
 1771ntf    on511440   0.622   3.975   6.143 -0.2675  0.2573 -0.1591
 1771ntf    on511441   0.803   4.288   5.945  0.1612 -0.4258  0.1086
 1771ntf    on511442   0.810   4.433   6.145  0.0188  0.2008 -0.1709
 1771ntf    fn411443   0.491   4.292   6.029  0.1655  0.4872 -0.3098
 1771ntf    fn411444   0.539   4.486   6.100 -0.1822 -0.0705 -0.3949
 1771ntf    fn411445   0.596   4.434   5.905  0.0480 -0.6111 -0.4470
 1772ntf    cn111446   4.447   5.765   4.916  0.0718  0.1957  0.5807
 1772ntf    sn211447   4.329   5.881   4.842  0.4409  0.0870 -0.1863
 1772ntf    nn311448   4.342   5.999   4.945  0.1332 -0.2851  0.2799
 1772ntf    sn211449   4.250   6.036   5.067 -0.1293 -0.0312  0.0073
 1772ntf    cn111450   4.139   6.161   4.996  0.3084  0.2306 -0.2191
 1772ntf    fn411451   4.566   5.821   4.925 -0.0124  0.4913 -0.1095
 1772ntf    fn411452   4.396   5.730   5.033  0.3471  0.1319  0.6816
 1772ntf    fn411453   4.462   5.649   4.853 -0.0009  0.3638  0.2551
 1772ntf    on511454   4.391   5.903   4.713  0.1141  0.4295 -0.2870
 1772ntf    on511455   4.204   5.810   4.846  0.2443  0.4355 -0.1305
 1772ntf    on511456   4.325   6.108   5.168 -0.5465 -0.2708  0.4911
 1772ntf    on511457   4.155   5.934   5.103  0.3479 -0.5114 -0.0618
 1772ntf    fn411458   4.052   6.202   5.086 -0.0187  0.8174 -0.7979
 1772ntf    fn411459   4.196   6.274   4.956 -0.2337  0.5003 -0.2408
 1772ntf    fn411460   4.065   6.113   4.898  0.3692 -0.8684  0.2543
 1773ntf    cn111461   6.731   0.371   0.003 -0.3258 -0.6300  0.6633
 1773ntf    sn211462   6.858   0.335   0.129  0.3678  0.0945  0.1804
 1773ntf    nn311463   6.989   0.366   0.049  0.2037  0.3812  0.0207
 1773ntf    sn211464   7.101   0.265   0.007 -0.1982  0.0994 -0.3835
 1773ntf    cn111465   7.025   0.202  -0.145 -0.4522 -0.2899 -0.0991
 1773ntf    fn411466   6.754   0.489  -0.051 -0.0943 -0.8194  0.3451
 1773ntf    fn411467   6.729   0.279  -0.092  0.1493 -0.1423  0.1767
 1773ntf    fn411468   6.612   0.390   0.057 -0.3713  0.2406  0.2591
 1773ntf    on511469   6.835   0.435   0.231  0.3862 -0.2390  0.5132
 1773ntf    on511470   6.839   0.198   0.170 -0.6442  0.0509 -0.3956
 1773ntf    on511471   7.122   0.147   0.088  0.2136  0.2164 -0.3131
 1773ntf    on511472   7.216   0.340  -0.039 -0.0430  0.2143  0.1772
 1773ntf    fn411473   7.110   0.128  -0.216  0.1060 -0.1492  0.4144
 1773ntf    fn411474   6.921   0.123  -0.130 -0.0426 -0.8251 -0.0442
 1773ntf    fn411475   7.000   0.303  -0.227  0.2451 -0.1412 -0.1372
 1774ntf    cn111476   3.874   6.357   2.440  0.1482 -0.2788  0.0716
 1774ntf    sn211477   3.718   6.337   2.532  0.1104  0.0774  0.0879
 1774ntf    nn311478   3.701   6.181   2.526  0.3272  0.0695 -0.3310
 1774ntf    sn211479   3.608   6.098   2.429 -0.1026 -0.3246  0.4085
 1774ntf    cn111480   3.438   6.133   2.485 -0.1768  0.2006 -0.1362
 1774ntf    fn411481   3.959   6.262   2.475  0.2809 -0.2765 -0.2508
 1774ntf    fn411482   3.849   6.353   2.310 -0.0536 -0.4694  0.1149
 1774ntf    fn411483   3.929   6.473   2.471  0.3523 -0.3258 -0.1130
 1774ntf    on511484   3.743   6.369   2.670  0.7005 -0.0371  0.0124
 1774ntf    on511485   3.620   6.420   2.467 -0.0229 -0.2051 -0.0742
 1774ntf    on511486   3.630   5.957   2.449  0.2056 -0.3288  0.0516
 1774ntf    on511487   3.617   6.150   2.295 -0.0025 -0.5443  0.3306
 1774ntf    fn411488   3.352   6.042   2.443 -0.0692 -0.1430  0.3803
 1774ntf    fn411489   3.437   6.122   2.616 -0.1854  0.4364 -0.1175
 1774ntf    fn411490   3.395   6.255   2.456  0.1570  0.3448 -0.0262
 1775ntf    cn111491   1.227   6.553   3.098  0.4433  0.3022 -0.1061
 1775ntf    sn211492   1.216   6.688   2.977  0.2357  0.3841  0.0041
 1775ntf    nn311493   1.158   6.808   3.061 -0.2124  0.1729  0.0008
 1775ntf    sn211494   1.194   6.960   3.048  0.3132  0.0448 -0.1028
 1775ntf    cn111495   1.239   6.988   3.222  0.4407 -0.0040 -0.1277
 1775ntf    fn411496   1.117   6.541   3.169  0.0432  0.1288 -0.7519
 1775ntf    fn411497   1.235   6.435   3.040  0.3065  0.1726  0.1369
 1775ntf    fn411498   1.323   6.563   3.189  0.7867  0.0552 -0.4400
 1775ntf    on511499   1.356   6.696   2.943  0.2101  0.4556 -0.0872
 1775ntf    on511500   1.117   6.653   2.878 -0.1681  0.2090  0.4690
 1775ntf    on511501   1.075   7.038   3.022  0.4787  0.2483 -0.2538
 1775ntf    on511502   1.309   6.999   2.970  0.1981  0.3727 -0.1091
 1775ntf    fn411503   1.133   6.951   3.293  0.5165  0.2058  0.0970
 1775ntf    fn411504   1.339   6.912   3.261  0.1416 -0.1247  0.4107
 1775ntf    fn411505   1.259   7.114   3.260  0.2565 -0.0390  0.0888
 1776ntf    cn111506   2.034   1.799   1.837 -0.0175 -0.2450  0.3161
 1776ntf    sn211507   1.985   1.793   2.012  0.1004  0.1578  0.3649
 1776ntf    nn311508   1.875   1.681   2.009 -0.2229  0.4763  0.2076
 1776ntf    sn211509   1.719   1.698   2.013 -0.3181 -0.1595 -0.5273
 1776ntf    cn111510   1.668   1.554   2.112 -0.0051  0.0956  0.0106
 1776ntf    fn411511   2.160   1.841   1.826 -0.0742 -0.0882  0.2581
 1776ntf    fn411512   2.027   1.682   1.776  0.6708 -0.1126 -0.0358
 1776ntf    fn411513   1.953   1.882   1.774  0.1203 -0.1784  0.2254
 1776ntf    on511514   2.105   1.750   2.080  0.2303 -0.1753 -0.0738
 1776ntf    on511515   1.922   1.921   2.035 -0.0401  0.0307  0.6999
 1776ntf    on511516   1.667   1.666   1.882  0.4870 -0.2983 -0.8199
 1776ntf    on511517   1.666   1.803   2.096 -0.2588 -0.1569 -0.4926
 1776ntf    fn411518   1.688   1.448   2.035  0.2963 -0.0214  0.2488
 1776ntf    fn411519   1.742   1.539   2.221  0.3071  0.2337 -0.1804
 1776ntf    fn411520   1.541   1.557   2.148 -0.0452  0.5711 -0.1614
 1777ntf    cn111521   4.488   0.208   4.252  0.1814  0.4289  0.1160
 1777ntf    sn211522   4.530   0.298   4.404  0.0122  0.2899  0.2456
 1777ntf    nn311523   4.417   0.244   4.498  0.0844  0.2140  0.2900
 1777ntf    sn211524   4.424   0.128   4.604  0.0259 -0.1774 -0.1294
 1777ntf    cn111525   4.525   0.215   4.727 -0.2664  0.2961 -0.2184
 1777ntf    fn411526   4.569   0.247   4.155  0.2866  0.0562  0.0508
 1777ntf    fn411527   4.510   0.078   4.264  0.4201  0.4161 -0.4046
 1777ntf    fn411528   4.362   0.223   4.215  0.0122 -0.2815  0.3886
 1777ntf    on511529   4.667   0.258   4.429 -0.1576 -0.4863 -0.0323
 1777ntf    on511530   4.507   0.434   4.363  0.5891  0.2482 -0.2479
 1777ntf    on511531   4.491   0.006   4.569 -0.2956 -0.3967  0.0165
 1777ntf    on511532   4.299   0.121   4.676 -0.0385  0.2804 -0.1885
 1777ntf    fn411533   4.656   0.198   4.712 -0.3402 -0.1619 -0.3475
 1777ntf    fn411534   4.508   0.346   4.732 -0.7073  0.2501 -0.5338
 1777ntf    fn411535   4.501   0.166   4.848 -0.2463  1.1105  0.1205
 1778ntf    cn111536   1.284   4.497   4.306 -0.1590 -0.1129  0.3016
 1778ntf    sn211537   1.377   4.598   4.425  0.0778 -0.0414  0.0567
 1778ntf    nn311538   1.524   4.554   4.391  0.0645  0.2145 -0.3253
 1778ntf    sn211539   1.652   4.644   4.376  0.2271 -0.0008 -0.2379
 1778ntf    cn111540   1.763   4.566   4.497  0.0355 -0.0046 -0.0652
 1778ntf    fn411541   1.289   4.542   4.182 -0.4969 -0.8553  0.0126
 1778ntf    fn411542   1.324   4.371   4.310  0.6882  0.1352 -0.1188
 1778ntf    fn411543   1.155   4.493   4.333 -0.4344  0.1082 -0.9160
 1778ntf    on511544   1.343   4.732   4.387 -1.0069 -0.4225 -0.3343
 1778ntf    on511545   1.329   4.550   4.553 -0.5780  0.4604  0.0014
 1778ntf    on511546   1.653   4.780   4.424 -0.4061 -0.0409 -0.0999
 1778ntf    on511547   1.733   4.616   4.260  0.5791 -0.0390  0.0141
 1778ntf    fn411548   1.885   4.616   4.506 -0.1868  0.4163  0.6916
 1778ntf    fn411549   1.715   4.597   4.617 -0.5192 -0.4299 -0.1733
 1778ntf    fn411550   1.758   4.434   4.502 -0.5665  0.0092 -0.2498
 1779ntf    cn111551   3.374   0.897   2.006  0.4111  0.4777 -0.1494
 1779ntf    sn211552   3.400   0.821   1.843 -0.1290  0.0322 -0.0283
 1779ntf    nn311553   3.313   0.690   1.842 -0.1638  0.0530  0.2732
 1779ntf    sn211554   3.168   0.661   1.788  0.1153 -0.1735 -0.3608
 1779ntf    cn111555   3.212   0.583   1.630  0.1392  0.0044 -0.4429
 1779ntf    fn411556   3.403   0.805   2.096 -0.0754  0.3910 -0.0818
 1779ntf    fn411557   3.453   1.003   2.021  0.8523  0.1896 -0.4171
 1779ntf    fn411558   3.250   0.935   2.032  0.3414 -0.0672  0.3140
 1779ntf    on511559   3.377   0.921   1.742  0.6641  0.2797  0.0299
 1779ntf    on511560   3.540   0.786   1.850 -0.2086 -0.3733 -0.4221
 1779ntf    on511561   3.099   0.782   1.749  0.1482 -0.1462 -0.3353
 1779ntf    on511562   3.101   0.562   1.868  0.2582  0.1867  0.2127
 1779ntf    fn411563   3.103   0.532   1.576 -0.1168 -0.1503  0.2127
 1779ntf    fn411564   3.261   0.675   1.548  0.4353  0.5885  0.3817
 1779ntf    fn411565   3.286   0.476   1.656 -0.3692 -0.1598  0.3665
 1780ntf    cn111566   0.274   6.338   4.185 -0.1975 -0.3769  0.4059
 1780ntf    sn211567   0.338   6.205   4.290  0.3231 -0.1879  0.3302
 1780ntf    nn311568   0.289   6.080   4.209  0.1152  0.1072 -0.0039
 1780ntf    sn211569   0.165   5.984   4.197  0.1147  0.0723  0.2835
 1780ntf    cn111570   0.232   5.854   4.305  0.1142  0.0234  0.2234
 1780ntf    fn411571   0.145   6.360   4.205 -0.2125  0.0682 -0.1440
 1780ntf    fn411572   0.330   6.454   4.219 -0.2045 -0.1296 -0.4060
 1780ntf    fn411573   0.295   6.311   4.057 -0.4047 -0.6094  0.4206
 1780ntf    on511574   0.479   6.227   4.267  0.2984 -0.3781 -0.0134
 1780ntf    on511575   0.287   6.233   4.422 -0.3803  0.9047 -0.1602
 1780ntf    on511576   0.162   5.919   4.069  0.1327 -0.3421  0.4885
 1780ntf    on511577   0.046   6.029   4.265 -0.1668  0.2758 -0.3440
 1780ntf    fn411578   0.216   5.899   4.428 -0.1708  0.1427  0.1439
 1780ntf    fn411579   0.168   5.738   4.305  0.1327  0.0112 -0.0866
 1780ntf    fn411580   0.361   5.828   4.291  0.0250  0.1420 -0.9268
 1781ntf    cn111581   2.517   3.653   6.682 -0.1743  0.1729  0.3671
 1781ntf    sn211582   2.349   3.720   6.664 -0.1469  0.0359 -0.4651
 1781ntf    nn311583   2.391   3.848   6.745  0.0701 -0.2118 -0.1801
 1781ntf    sn211584   2.310   3.962   6.816  0.1380 -0.1629 -0.1799
 1781ntf    cn111585   2.290   4.069   6.670 -0.3553 -0.1778 -0.1271
 1781ntf    fn411586   2.605   3.732   6.623  0.0088 -0.4030 -0.1488
 1781ntf    fn411587   2.549   3.636   6.809  0.1944 -0.1655  0.2316
 1781ntf    fn411588   2.545   3.539   6.620 -0.2222  0.7360 -0.6988
 1781ntf    on511589   2.323   3.731   6.523 -0.6025 -0.3276 -0.4138
 1781ntf    on511590   2.267   3.623   6.733 -0.2831  0.2223 -0.3643
 1781ntf    on511591   2.383   4.037   6.915 -0.6259  1.1146 -0.5527
 1781ntf    on511592   2.174   3.926   6.848  0.1496  0.2069  0.2907
 1781ntf    fn411593   2.225   4.180   6.703  0.4810  0.1695  0.3756
 1781ntf    fn411594   2.402   4.101   6.607 -0.0388 -1.2903 -0.1441
 1781ntf    fn411595   2.220   4.017   6.571  0.4718 -0.0455 -0.7937
 1782ntf    cn111596   0.922   1.384   1.966  0.5415  0.3277 -0.0048
 1782ntf    sn211597   0.941   1.208   2.007 -0.0260  0.2564 -0.0428
 1782ntf    nn311598   0.961   1.222   2.162  0.5115 -0.5986 -0.0285
 1782ntf    sn211599   1.033   1.139   2.275 -0.0831 -0.3986  0.5080
 1782ntf    cn111600   0.906   1.108   2.401 -0.2675 -0.2479  0.3594
 1782ntf    fn411601   1.032   1.431   1.910  0.2611  0.6149 -0.3206
 1782ntf    fn411602   0.816   1.412   1.891  0.1441  0.1209  0.4713
 1782ntf    fn411603   0.904   1.466   2.068 -0.2753  0.1625 -0.0089
 1782ntf    on511604   0.815   1.145   1.974 -0.2061 -0.0299  1.1282
 1782ntf    on511605   1.063   1.164   1.945  0.2460  0.0704  0.6073
 1782ntf    on511606   1.133   1.220   2.342 -0.0121 -0.3039  0.2905
 1782ntf    on511607   1.070   1.006   2.234  0.1939  0.1367 -1.0528
 1782ntf    fn411608   0.784   1.084   2.356 -0.1059 -0.2078 -0.1058
 1782ntf    fn411609   0.939   1.009   2.482  0.1384  0.0342  0.5402
 1782ntf    fn411610   0.897   1.213   2.481  0.4171 -0.1860  0.3576
 1783ntf    cn111611   6.305   1.824   4.742  0.0073  0.5018 -0.3289
 1783ntf    sn211612   6.310   1.697   4.872 -0.0475  0.7998 -0.0347
 1783ntf    nn311613   6.344   1.783   4.999 -0.3569  1.1119 -0.1623
 1783ntf    sn211614   6.472   1.779   5.089 -0.2463 -0.2552 -0.3529
 1783ntf    cn111615   6.412   1.695   5.239 -0.3806 -0.0542 -0.2940
 1783ntf    fn411616   6.308   1.770   4.621 -0.6845 -0.5249  0.0960
 1783ntf    fn411617   6.200   1.902   4.758 -0.1668  0.1512  0.2764
 1783ntf    fn411618   6.402   1.912   4.757  0.2839  0.0914  0.3539
 1783ntf    on511619   6.170   1.662   4.878  0.1120 -0.0199 -0.7610
 1783ntf    on511620   6.411   1.600   4.834 -0.2506  0.2981  0.6793
 1783ntf    on511621   6.505   1.908   5.144  0.0295 -0.5300  0.1333
 1783ntf    on511622   6.579   1.690   5.050  0.1283  0.0883 -0.1192
 1783ntf    fn411623   6.296   1.739   5.285 -0.5040 -0.4322 -0.2445
 1783ntf    fn411624   6.401   1.564   5.223  0.1235 -0.0580 -0.6379
 1783ntf    fn411625   6.497   1.707   5.340 -0.0024 -0.2094 -0.5895
 1784ntf    cn111626   0.088   4.869   5.417 -0.2234 -0.2884  0.2900
 1784ntf    sn211627   0.076   4.870   5.599  0.0135  0.1762  0.3043
 1784ntf    nn311628   0.083   5.026   5.613 -0.2356  0.1994  0.1902
 1784ntf    sn211629   0.055   5.120   5.736  0.1762  0.5215  0.0442
 1784ntf    cn111630   0.002   5.276   5.661 -0.1676  0.2062 -0.3753
 1784ntf    fn411631  -0.014   4.925   5.353 -0.0832 -0.4171 -0.0444
 1784ntf    fn411632   0.193   4.935   5.371 -0.3128 -0.1006  0.3538
 1784ntf    fn411633   0.100   4.747   5.368  0.3073 -0.2395  0.2976
 1784ntf    on511634  -0.061   4.827   5.607 -0.1601  0.6524 -0.0178
 1784ntf    on511635   0.190   4.795   5.645  0.0891  0.3956  0.4765
 1784ntf    on511636   0.168   5.164   5.814  0.0757  0.2438  0.3500
 1784ntf    on511637  -0.064   5.085   5.811  0.1956 -0.0780 -0.1969
 1784ntf    fn411638  -0.030   5.377   5.741  0.2912  0.1778 -0.1522
 1784ntf    fn411639   0.083   5.334   5.574  0.4536  0.1271  0.1432
 1784ntf    fn411640  -0.107   5.258   5.589  0.1576  0.1645 -0.8692
 1785ntf    cn111641   4.591   3.874   1.428  0.2284 -0.1261 -0.1643
 1785ntf    sn211642   4.684   3.786   1.557  0.1356  0.1741  0.1100
 1785ntf    nn311643   4.588   3.679   1.621 -0.0143  0.3077  0.1095
 1785ntf    sn211644   4.496   3.715   1.742 -0.2551  0.1865 -0.0383
 1785ntf    cn111645   4.621   3.683   1.871  0.0189 -0.0407 -0.3592
 1785ntf    fn411646   4.536   3.803   1.331 -0.7369  0.2794  0.0721
 1785ntf    fn411647   4.490   3.933   1.490  0.3312 -0.2921  0.1645
 1785ntf    fn411648   4.662   3.974   1.377  0.2188 -0.2229 -0.3683
 1785ntf    on511649   4.790   3.715   1.489 -0.6071 -1.0462  0.2190
 1785ntf    on511650   4.725   3.883   1.656 -0.3779  0.3449  0.1551
 1785ntf    on511651   4.391   3.618   1.763 -0.2134  0.1465 -0.0112
 1785ntf    on511652   4.463   3.855   1.757 -0.3158  0.1709 -0.0227
 1785ntf    fn411653   4.593   3.570   1.934  0.2259  0.0587 -0.0872
 1785ntf    fn411654   4.743   3.657   1.827 -0.2118 -1.3560 -0.2644
 1785ntf    fn411655   4.628   3.770   1.970  0.1619  0.0122 -0.4159
 1786ntf    cn111656   3.796   0.930   1.145  0.4314  0.0837 -0.0532
 1786ntf    sn211657   3.719   0.996   0.994 -0.0920  0.0736  0.2080
 1786ntf    nn311658   3.675   0.863   0.925  0.3061  0.0272  0.0446
 1786ntf    sn211659   3.560   0.762   0.959  0.0727  0.2917  0.0482
 1786ntf    cn111660   3.649   0.618   1.027  0.3134  0.4611  0.0933
 1786ntf    fn411661   3.890   1.014   1.185  0.3518  0.0733  0.1538
 1786ntf    fn411662   3.710   0.903   1.242  0.3520  0.5680  0.0130
 1786ntf    fn411663   3.860   0.819   1.111 -0.2528 -0.2399 -0.3072
 1786ntf    on511664   3.620   1.085   1.050 -0.4327 -0.1848  0.0195
 1786ntf    on511665   3.831   1.062   0.932 -0.6646  0.4527 -0.4360
 1786ntf    on511666   3.491   0.717   0.840  0.1072  0.6427 -0.1034
 1786ntf    on511667   3.488   0.801   1.077  0.2659 -0.8206  0.5485
 1786ntf    fn411668   3.693   0.643   1.149 -0.0928 -0.3886  0.4202
 1786ntf    fn411669   3.573   0.510   1.032  0.8300  0.0764 -0.2535
 1786ntf    fn411670   3.755   0.584   0.955 -0.1331 -0.4503 -0.1463
 1787ntf    cn111671   1.217   3.715   5.858 -0.1800  0.4722 -0.0297
 1787ntf    sn211672   1.101   3.583   5.907  0.2624  0.1078  0.0475
 1787ntf    nn311673   1.211   3.471   5.896  0.3923  0.2064  0.3404
 1787ntf    sn211674   1.234   3.345   5.987  0.1191 -0.0399  0.0702
 1787ntf    cn111675   1.307   3.229   5.869  0.1586  0.2086 -0.1521
 1787ntf    fn411676   1.275   3.688   5.743  0.3659 -0.6530  0.4869
 1787ntf    fn411677   1.151   3.828   5.846 -0.7991  0.1319  0.1184
 1787ntf    fn411678   1.317   3.725   5.944  0.0017  0.5479 -0.2495
 1787ntf    on511679   1.061   3.620   6.040 -0.7526  0.2882 -0.3009
 1787ntf    on511680   1.008   3.583   5.797  0.1297 -0.4695  0.1578
 1787ntf    on511681   1.119   3.264   6.021 -0.0953 -0.1471 -0.8898
 1787ntf    on511682   1.340   3.350   6.084  0.2347  0.5029 -0.0804
 1787ntf    fn411683   1.331   3.110   5.923 -0.2828 -0.1311 -0.6931
 1787ntf    fn411684   1.235   3.205   5.761  0.1848  0.3075 -0.1904
 1787ntf    fn411685   1.421   3.273   5.819  0.4052 -0.0303  0.1894
 1788ntf    cn111686   4.646   6.084   0.083  0.0763  0.3607 -0.3730
 1788ntf    sn211687   4.787   6.163   0.166  0.0690  0.1334 -0.1442
 1788ntf    nn311688   4.721   6.175   0.309 -0.1751 -0.3928 -0.2111
 1788ntf    sn211689   4.636   6.297   0.361  0.0579 -0.1011 -0.5065
 1788ntf    cn111690   4.765   6.412   0.417 -0.2664  0.1361 -0.2477
 1788ntf    fn411691   4.534   6.154   0.090 -0.1193  0.0136 -0.0002
 1788ntf    fn411692   4.671   6.057  -0.044 -0.3609 -0.5783 -0.2695
 1788ntf    fn411693   4.614   5.964   0.128 -0.0074  0.3274 -0.5207
 1788ntf    on511694   4.891   6.064   0.164 -0.1063 -0.0602  0.0836
 1788ntf    on511695   4.806   6.281   0.085 -0.0255  0.4631  0.3015
 1788ntf    on511696   4.569   6.272   0.486  0.5046  0.1566 -0.2119
 1788ntf    on511697   4.552   6.354   0.259 -0.4383  0.5441  0.2555
 1788ntf    fn411698   4.860   6.421   0.326 -0.0914  0.0386 -0.0760
 1788ntf    fn411699   4.712   6.531   0.440 -0.1102  0.0757  0.4709
 1788ntf    fn411700   4.819   6.372   0.532 -0.2833  0.4978 -0.1111
 1789ntf    cn111701   3.043   2.671   6.813 -0.1213 -0.2240  0.3292
 1789ntf    sn211702   3.046   2.490   6.815  0.1351 -0.2226  0.0414
 1789ntf    nn311703   3.035   2.456   6.662 -0.5593  0.4223 -0.0571
 1789ntf    sn211704   2.987   2.318   6.603 -0.1936  0.2537  0.0391
 1789ntf    cn111705   3.149   2.241   6.575 -0.3954  0.0517 -0.5917
 1789ntf    fn411706   3.131   2.703   6.720 -0.5101  0.1344  0.0792
 1789ntf    fn411707   2.932   2.727   6.767  0.2578  0.4102  0.1724
 1789ntf    fn411708   3.077   2.726   6.929 -0.3294  0.5331  0.0422
 1789ntf    on511709   3.169   2.438   6.868  0.0694 -0.1311  0.2825
 1789ntf    on511710   2.925   2.474   6.892  0.1677 -0.3512  0.0656
 1789ntf    on511711   2.940   2.326   6.467  0.5782 -0.5166 -0.2815
 1789ntf    on511712   2.927   2.222   6.691  0.1743  0.1517  0.1795
 1789ntf    fn411713   3.152   2.110   6.555 -0.0870 -0.0556  0.1288
 1789ntf    fn411714   3.218   2.292   6.474  0.5606  0.2874  0.1618
 1789ntf    fn411715   3.230   2.257   6.679  0.3800  0.1104 -1.1932
 1790ntf    cn111716   0.363   5.894   5.409 -0.0108 -0.2239 -0.1079
 1790ntf    sn211717   0.504   5.781   5.392  0.0668 -0.1226 -0.1401
 1790ntf    nn311718   0.594   5.860   5.291 -0.5068  0.3401 -0.2895
 1790ntf    sn211719   0.707   5.968   5.310 -0.2890 -0.0398  0.6018
 1790ntf    cn111720   0.840   5.863   5.374 -0.1474  0.0870  0.5139
 1790ntf    fn411721   0.261   5.848   5.479 -0.1784  0.8105  0.3462
 1790ntf    fn411722   0.394   6.010   5.464 -1.0090 -0.1995  0.4302
 1790ntf    fn411723   0.315   5.920   5.289  0.0592  0.3978 -0.0038
 1790ntf    on511724   0.567   5.776   5.522 -0.0220  0.2053 -0.0843
 1790ntf    on511725   0.452   5.658   5.338  0.1843 -0.1980 -0.0827
 1790ntf    on511726   0.682   6.062   5.417 -0.2197 -0.0152  0.5956
 1790ntf    on511727   0.749   6.028   5.186  0.2451 -0.9105  0.3529
 1790ntf    fn411728   0.826   5.831   5.502 -0.0410 -0.7110  0.3343
 1790ntf    fn411729   0.872   5.751   5.311  0.3972  0.1017  0.7544
 1790ntf    fn411730   0.951   5.935   5.372 -0.0606 -0.0646 -0.3182
 1791ntf    cn111731   2.997   3.621   6.362 -0.2007  0.2335  0.3239
 1791ntf    sn211732   3.162   3.683   6.318 -0.1286 -0.3078 -0.1983
 1791ntf    nn311733   3.141   3.839   6.309  0.3295 -0.2199  0.1951
 1791ntf    sn211734   3.154   3.939   6.189 -0.1343 -0.2774  0.0952
 1791ntf    cn111735   3.121   4.101   6.265 -0.0860 -0.0873 -0.2872
 1791ntf    fn411736   2.941   3.667   6.472 -0.4092  0.3641  0.1622
 1791ntf    fn411737   2.912   3.655   6.267  0.0444  0.0587  0.0404
 1791ntf    fn411738   3.000   3.489   6.376  0.2379  0.2637  0.5286
 1791ntf    on511739   3.237   3.641   6.434 -0.2350  0.2854  0.0940
 1791ntf    on511740   3.188   3.624   6.190 -0.2381 -0.2632 -0.2406
 1791ntf    on511741   3.047   3.932   6.093  0.0310  0.1233 -0.1226
 1791ntf    on511742   3.286   3.949   6.131 -0.3579  0.3021 -0.3231
 1791ntf    fn411743   3.215   4.136   6.352 -0.1885  0.2296 -0.3052
 1791ntf    fn411744   3.114   4.201   6.179 -0.3773 -0.0940 -0.2700
 1791ntf    fn411745   3.002   4.099   6.321  0.0382  0.3157 -0.0053
 1792ntf    cn111746   1.186   2.858   0.503 -0.2468 -0.1042  0.0601
 1792ntf    sn211747   1.217   2.719   0.390 -0.2126 -0.2146  0.2054
 1792ntf    nn311748   1.344   2.785   0.325 -0.1575 -0.3333  0.1922
 1792ntf    sn211749   1.463   2.712   0.254 -0.1796 -0.0789 -0.1088
 1792ntf    cn111750   1.583   2.718   0.390 -0.1930 -0.1000 -0.0961
 1792ntf    fn411751   1.083   2.834   0.582 -0.5320  0.6332 -0.0806
 1792ntf    fn411752   1.288   2.890   0.580  0.2700 -0.2246 -0.5625
 1792ntf    fn411753   1.160   2.974   0.444 -0.1487 -0.1079  0.0086
 1792ntf    on511754   1.248   2.611   0.481 -0.1468 -0.0491  0.3805
 1792ntf    on511755   1.104   2.719   0.301 -0.0609 -0.2285  0.0128
 1792ntf    on511756   1.537   2.792   0.160  0.6772 -0.0380  0.5951
 1792ntf    on511757   1.453   2.570   0.227  0.2852 -0.0526 -0.4405
 1792ntf    fn411758   1.566   2.623   0.481 -0.1264 -0.0638 -0.0459
 1792ntf    fn411759   1.706   2.698   0.343 -0.1791 -0.3903  0.0570
 1792ntf    fn411760   1.586   2.837   0.447  0.4012 -0.1429 -0.0228
 1793ntf    cn111761   6.203   5.176   0.030  0.2935 -0.0889 -0.5346
 1793ntf    sn211762   6.261   5.115  -0.132  0.2176 -0.4732 -0.4176
 1793ntf    nn311763   6.253   4.962  -0.099 -0.0041 -0.3043  0.3323
 1793ntf    sn211764   6.341   4.851  -0.167  0.4021  0.0396  0.2942
 1793ntf    cn111765   6.296   4.882  -0.340  0.1683 -0.3392  0.2861
 1793ntf    fn411766   6.079   5.144   0.062  0.2323  0.4715 -0.1959
 1793ntf    fn411767   6.284   5.136   0.127  0.1175  0.6384 -0.0849
 1793ntf    fn411768   6.203   5.308   0.042 -0.7276 -0.0815 -0.5463
 1793ntf    on511769   6.155   5.156  -0.221 -0.2605  0.0697  0.3886
 1793ntf    on511770   6.391   5.175  -0.149  0.4125 -0.8208 -0.1712
 1793ntf    on511771   6.284   4.725  -0.127 -0.7354  0.6973  0.8016
 1793ntf    on511772   6.485   4.852  -0.160  0.4150  0.0616  0.0093
 1793ntf    fn411773   6.300   5.007  -0.384  0.1366 -0.4143  0.0671
 1793ntf    fn411774   6.361   4.799  -0.421 -0.1078 -0.0693 -0.2188
 1793ntf    fn411775   6.171   4.840  -0.355  0.0097 -0.0978  0.8994
 1794ntf    cn111776   5.488   1.964   2.304 -0.4508 -0.2858 -0.2355
 1794ntf    sn211777   5.586   1.819   2.355 -0.0984 -0.1205 -0.4388
 1794ntf    nn311778   5.553   1.818   2.508  0.0625 -0.7018 -0.4073
 1794ntf    sn211779   5.459   1.710   2.573 -0.3976 -0.0349  0.0496
 1794ntf    cn111780   5.590   1.602   2.638 -0.6395 -0.5936 -0.3878
 1794ntf    fn411781   5.466   1.959   2.173 -0.2309  0.0090 -0.2838
 1794ntf    fn411782   5.368   1.960   2.360 -0.3344  0.4045  0.0659
 1794ntf    fn411783   5.544   2.082   2.325 -0.3425 -0.3761 -0.0162
 1794ntf    on511784   5.540   1.706   2.278 -0.5833  0.0578 -0.4175
 1794ntf    on511785   5.725   1.853   2.334 -0.3520  0.7527 -0.7909
 1794ntf    on511786   5.386   1.618   2.489  0.2538 -0.1616 -0.3820
 1794ntf    on511787   5.390   1.758   2.690 -0.2938  0.4042 -0.0670
 1794ntf    fn411788   5.531   1.499   2.696  0.3305 -0.9351  0.0238
 1794ntf    fn411789   5.672   1.551   2.547  0.2563 -0.1223  0.1398
 1794ntf    fn411790   5.666   1.648   2.736 -0.5654 -0.2699 -0.5958
 1795ntf    cn111791   5.860   3.324   6.103 -0.4157 -0.1441 -0.2746
 1795ntf    sn211792   5.687   3.292   6.058 -0.5252 -0.1179  0.1165
 1795ntf    nn311793   5.624   3.435   6.064  0.1013  0.1570  0.2310
 1795ntf    sn211794   5.473   3.454   6.103  0.0139  0.0076 -0.0339
 1795ntf    cn111795   5.414   3.577   5.983 -0.3581  0.0626  0.2047
 1795ntf    fn411796   5.933   3.216   6.125 -0.2534  0.0178 -0.0124
 1795ntf    fn411797   5.936   3.400   6.025 -0.5590  0.4715  0.1731
 1795ntf    fn411798   5.868   3.383   6.222 -0.3842 -0.1086 -0.2941
 1795ntf    on511799   5.692   3.241   5.923 -0.8857  0.0519  0.0373
 1795ntf    on511800   5.639   3.207   6.164  0.1949 -0.2624  0.3374
 1795ntf    on511801   5.457   3.520   6.230  0.1929  0.0018 -0.0086
 1795ntf    on511802   5.390   3.337   6.084  0.1971 -0.0561 -0.4631
 1795ntf    fn411803   5.308   3.641   6.028  0.1771  0.5193  0.8403
 1795ntf    fn411804   5.507   3.669   5.961 -0.1648 -0.2705 -0.3863
 1795ntf    fn411805   5.383   3.534   5.862  0.3087  0.1117  0.0104
 1796ntf    cn111806   2.552   5.245   2.475 -0.3153  0.0384 -0.1141
 1796ntf    sn211807   2.638   5.116   2.380 -0.0792  0.1596 -0.0668
 1796ntf    nn311808   2.749   5.209   2.319  0.1644 -0.0821  0.0077
 1796ntf    sn211809   2.801   5.221   2.172  0.1492  0.4341  0.0440
 1796ntf    cn111810   2.864   5.060   2.118 -0.3291  0.4988 -0.7271
 1796ntf    fn411811   2.653   5.278   2.554 -0.1903 -0.2958 -0.1316
 1796ntf    fn411812   2.513   5.345   2.399  0.1974  0.1156 -0.2795
 1796ntf    fn411813   2.450   5.201   2.547 -0.0983  0.6582  0.5820
 1796ntf    on511814   2.687   5.027   2.482 -0.7510 -0.6695 -0.4517
 1796ntf    on511815   2.534   5.059   2.297  0.0303 -0.1962  0.0384
 1796ntf    on511816   2.910   5.316   2.173  0.2932  0.2752 -0.2360
 1796ntf    on511817   2.703   5.247   2.069 -0.3534  0.2786  0.4826
 1796ntf    fn411818   2.955   5.071   2.023 -0.0969 -0.0776 -0.5804
 1796ntf    fn411819   2.924   4.998   2.218 -0.1742  0.6878 -0.7023
 1796ntf    fn411820   2.773   4.972   2.079 -0.4288  0.3245 -0.1043
 1797ntf    cn111821   6.131   6.335   5.548 -0.2474 -0.6078  0.7591
 1797ntf    sn211822   6.280   6.232   5.533  0.1203  0.0193  0.0285
 1797ntf    nn311823   6.212   6.093   5.560  0.1847 -0.0409 -0.1200
 1797ntf    sn211824   6.193   6.019   5.697  0.0268  0.2718  0.0273
 1797ntf    cn111825   6.280   5.865   5.656  0.4231  0.4949  0.0323
 1797ntf    fn411826   6.076   6.333   5.668  0.0989  0.6491  0.9455
 1797ntf    fn411827   6.161   6.461   5.524 -1.0459 -0.6140 -0.3807
 1797ntf    fn411828   6.039   6.313   5.454  0.0000 -0.0277  0.3760
 1797ntf    on511829   6.323   6.241   5.396 -0.4157 -0.0242 -0.1406
 1797ntf    on511830   6.369   6.287   5.633 -0.1953 -0.0151  0.3328
 1797ntf    on511831   6.057   5.978   5.724  0.0096  0.2222 -0.1337
 1797ntf    on511832   6.275   6.058   5.809  0.1798  0.0179  0.0024
 1797ntf    fn411833   6.200   5.784   5.589  0.3939  0.3366  0.2603
 1797ntf    fn411834   6.385   5.880   5.577  0.1433 -0.5159 -0.5460
 1797ntf    fn411835   6.331   5.803   5.761  0.4201  0.0326 -0.2376
 1798ntf    cn111836   1.437   0.179   0.026 -0.4820  0.5294 -0.3154
 1798ntf    sn211837   1.335   0.327   0.051 -0.2821  0.5801  0.2149
 1798ntf    nn311838   1.446   0.430   0.093  0.8658 -0.6169  0.1672
 1798ntf    sn211839   1.481   0.572   0.038 -0.2466 -0.2911  0.2783
 1798ntf    cn111840   1.340   0.681   0.073  0.0025 -0.0761  0.6216
 1798ntf    fn411841   1.366   0.068   0.029 -0.0569  0.2671  0.3356
 1798ntf    fn411842   1.492   0.185  -0.094  0.6487 -0.1450  0.1475
 1798ntf    fn411843   1.534   0.164   0.116 -0.4285  0.3140 -0.4078
 1798ntf    on511844   1.291   0.348  -0.084  0.7606 -0.5316 -0.3209
 1798ntf    on511845   1.248   0.284   0.158 -0.6418  0.5637 -0.0844
 1798ntf    on511846   1.508   0.582  -0.104 -0.7482 -0.2233  0.1843
 1798ntf    on511847   1.589   0.623   0.119 -0.2979  0.2400  0.0197
 1798ntf    fn411848   1.322   0.695   0.203  0.1358 -0.5282  0.6909
 1798ntf    fn411849   1.357   0.801   0.018  0.1100 -0.1342  0.5263
 1798ntf    fn411850   1.229   0.625   0.027  0.5528 -0.1295 -0.7031
 1799ntf    cn111851   1.626   0.318   2.550 -0.0461 -0.3034  0.4688
 1799ntf    sn211852   1.478   0.362   2.645 -0.1695  0.1563  0.0680
 1799ntf    nn311853   1.502   0.492   2.730  0.1377 -0.1194  0.4080
 1799ntf    sn211854   1.410   0.549   2.844 -0.3743 -0.0170 -0.0466
 1799ntf    cn111855   1.522   0.527   2.986  0.0635 -0.8020 -0.5067
 1799ntf    fn411856   1.663   0.427   2.485 -0.7832  0.0167  0.5795
 1799ntf    fn411857   1.725   0.274   2.627  0.4175  0.3069  0.2293
 1799ntf    fn411858   1.617   0.217   2.465 -0.0428 -0.3768  0.5545
 1799ntf    on511859   1.376   0.380   2.544  0.0067  0.5775 -0.0355
 1799ntf    on511860   1.471   0.247   2.732  0.1357  0.2738  0.2482
 1799ntf    on511861   1.301   0.461   2.875 -0.2424  0.0114  0.5089
 1799ntf    on511862   1.380   0.690   2.839  0.5476  0.1803 -0.3091
 1799ntf    fn411863   1.474   0.592   3.091 -0.0245 -0.8265 -0.5312
 1799ntf    fn411864   1.533   0.401   3.027 -0.5417 -0.5140  0.5960
 1799ntf    fn411865   1.642   0.576   2.963 -0.1302 -0.1259 -0.0907
 1800ntf    cn111866   0.259   1.388   1.491 -0.0288  0.0805  0.1567
 1800ntf    sn211867   0.307   1.561   1.465 -0.0329  0.0345 -0.1607
 1800ntf    nn311868   0.212   1.627   1.571  0.1576 -0.0340  0.0544
 1800ntf    sn211869   0.064   1.674   1.550  0.2022  0.0348 -0.1116
 1800ntf    cn111870   0.029   1.779   1.695 -0.1114 -0.2275  0.0055
 1800ntf    fn411871   0.296   1.335   1.607  0.0421  0.0289  0.1104
 1800ntf    fn411872   0.128   1.372   1.498 -0.0418  0.2386  0.2731
 1800ntf    fn411873   0.292   1.303   1.395 -0.3741 -0.0419  0.1440
 1800ntf    on511874   0.444   1.571   1.509  0.0702  0.3216 -0.5456
 1800ntf    on511875   0.277   1.589   1.327  0.3708 -0.4472 -0.3487
 1800ntf    on511876  -0.037   1.571   1.558 -0.0907  0.3516  0.3914
 1800ntf    on511877   0.048   1.768   1.443 -0.1829  0.6283  0.4559
 1800ntf    fn411878  -0.097   1.816   1.709 -0.1254 -0.3520  0.2053
 1800ntf    fn411879   0.056   1.718   1.809 -0.0944 -0.5384 -0.1636
 1800ntf    fn411880   0.104   1.888   1.695  0.0344 -0.3289  0.2540
 1801ntf    cn111881   1.451   2.844   5.381  0.2494  0.4124  0.5259
 1801ntf    sn211882   1.529   2.837   5.216 -0.1135  0.0520  0.3675
 1801ntf    nn311883   1.400   2.791   5.139  0.2304  0.3798 -0.4066
 1801ntf    sn211884   1.383   2.715   5.003 -0.1376 -0.1088 -0.0897
 1801ntf    cn111885   1.375   2.542   5.059 -0.0396 -0.0639  0.0641
 1801ntf    fn411886   1.385   2.732   5.408  0.4014  0.2032  0.0430
 1801ntf    fn411887   1.533   2.872   5.481  0.3378 -0.4807  0.7093
 1801ntf    fn411888   1.362   2.941   5.388  0.3749  0.5638  0.0658
 1801ntf    on511889   1.582   2.964   5.174 -0.0371 -0.1820 -0.2547
 1801ntf    on511890   1.625   2.730   5.229 -0.2021 -0.1502 -0.5721
 1801ntf    on511891   1.500   2.719   4.917  0.1226 -0.1025  0.2616
 1801ntf    on511892   1.255   2.741   4.942 -0.1594  0.4177  0.1799
 1801ntf    fn411893   1.477   2.510   5.138 -0.2468 -0.4338  0.1837
 1801ntf    fn411894   1.270   2.511   5.133 -0.0742  0.4249  0.2238
 1801ntf    fn411895   1.371   2.456   4.959 -0.5244 -0.1042  0.1190
 1802ntf    cn111896   6.513   1.667   2.268 -0.1320 -0.3276  0.2160
 1802ntf    sn211897   6.448   1.626   2.433 -0.0043 -0.1828  0.3019
 1802ntf    nn311898   6.304   1.583   2.389  0.1056  0.0576 -0.3035
 1802ntf    sn211899   6.249   1.452   2.323 -0.1364 -0.1149  0.2331
 1802ntf    cn111900   6.140   1.522   2.195 -0.0406 -0.3639  0.0146
 1802ntf    fn411901   6.443   1.757   2.203  0.0431 -0.2626  0.1187
 1802ntf    fn411902   6.640   1.706   2.268 -0.0630 -0.5477  0.0364
 1802ntf    fn411903   6.509   1.563   2.186 -0.2383  0.3229 -0.6041
 1802ntf    on511904   6.531   1.519   2.482  0.1142 -0.3039 -0.1573
 1802ntf    on511905   6.452   1.750   2.508 -1.1407  0.3758 -0.5307
 1802ntf    on511906   6.157   1.380   2.408 -0.4199 -0.4695 -0.3637
 1802ntf    on511907   6.337   1.374   2.240 -0.5051 -0.1364 -0.1437
 1802ntf    fn411908   6.066   1.431   2.133 -0.2358  0.0221 -0.3217
 1802ntf    fn411909   6.072   1.625   2.244  0.5331  0.0558 -0.0630
 1802ntf    fn411910   6.220   1.573   2.103 -0.3686 -0.3392 -0.2585
 1803ntf    cn111911   5.873   1.153   3.066 -0.5897  0.1781 -0.1835
 1803ntf    sn211912   5.945   1.283   3.170  0.0423 -0.2317 -0.1005
 1803ntf    nn311913   5.904   1.408   3.085  0.0380 -0.1721 -0.0119
 1803ntf    sn211914   5.800   1.523   3.111  0.2209  0.0094 -0.0752
 1803ntf    cn111915   5.676   1.470   2.990  0.3484  0.2364 -0.3040
 1803ntf    fn411916   5.741   1.155   3.077 -0.5952 -0.4785 -0.0754
 1803ntf    fn411917   5.895   1.157   2.936 -0.5429 -0.4981 -0.2023
 1803ntf    fn411918   5.900   1.031   3.112  0.0858  0.6568  0.7092
 1803ntf    on511919   5.879   1.248   3.294 -0.1055 -0.0089 -0.1137
 1803ntf    on511920   6.085   1.254   3.157 -0.0928 -0.7832 -0.3380
 1803ntf    on511921   5.838   1.656   3.071  0.5185 -0.1877 -0.4513
 1803ntf    on511922   5.730   1.506   3.236  0.2933  0.2591 -0.0004
 1803ntf    fn411923   5.596   1.370   3.025  0.1387  0.4293 -0.2312
 1803ntf    fn411924   5.595   1.574   2.975 -0.0608 -0.0585 -0.1698
 1803ntf    fn411925   5.729   1.442   2.872  0.2827  0.5983 -0.4212
 1804ntf    cn111926   0.189   1.691   2.428  0.2542 -0.1870 -0.0447
 1804ntf    sn211927   0.354   1.678   2.352  0.3733  0.2975  0.1251
 1804ntf    nn311928   0.324   1.708   2.201  0.3382  0.2187  0.1164
 1804ntf    sn211929   0.338   1.847   2.130  0.2833  0.2413  0.1495
 1804ntf    cn111930   0.239   1.831   1.978 -0.0229  0.1616  0.3563
 1804ntf    fn411931   0.172   1.635   2.547 -0.1376 -0.1814 -0.0977
 1804ntf    fn411932   0.153   1.814   2.462 -0.0118 -0.2554 -0.0822
 1804ntf    fn411933   0.088   1.651   2.353 -0.2579 -0.0952  0.5794
 1804ntf    on511934   0.436   1.772   2.424  0.6165 -0.0613  0.3204
 1804ntf    on511935   0.388   1.539   2.369 -0.4645 -0.0079 -0.5975
 1804ntf    on511936   0.475   1.868   2.087  0.3478 -0.1523  0.1616
 1804ntf    on511937   0.269   1.956   2.194 -0.5968  0.1795 -0.6790
 1804ntf    fn411938   0.252   1.928   1.888  0.1792  0.0093  0.2196
 1804ntf    fn411939   0.264   1.722   1.907 -0.2833  0.0661  0.4128
 1804ntf    fn411940   0.109   1.833   2.002 -0.1178  0.2728 -0.1544
 1805ntf    cn111941   4.855   0.198   1.779 -0.3219 -0.0357  0.1847
 1805ntf    sn211942   4.909   0.137   1.941  0.0871  0.2723  0.1654
 1805ntf    nn311943   5.062   0.168   1.922  0.2004  0.0040  0.6126
 1805ntf    sn211944   5.193   0.093   1.965  0.1654 -0.1386  0.4733
 1805ntf    cn111945   5.221  -0.004   1.814 -0.3369  0.0262  0.2722
 1805ntf    fn411946   4.725   0.176   1.765 -0.2325 -0.5980  0.2231
 1805ntf    fn411947   4.876   0.328   1.764  0.0558 -0.1491 -0.2870
 1805ntf    fn411948   4.912   0.140   1.675  0.2036  0.5611  0.1346
 1805ntf    on511949   4.840   0.219   2.037 -0.2847  0.2534 -0.0861
 1805ntf    on511950   4.865  -0.000   1.933 -0.2957  0.4078 -0.0758
 1805ntf    on511951   5.182  -0.001   2.074  0.6461  0.0162  0.6591
 1805ntf    on511952   5.304   0.185   1.962 -0.1784  0.2592 -0.2167
 1805ntf    fn411953   5.206   0.070   1.706 -0.2863  0.1457  0.3469
 1805ntf    fn411954   5.338  -0.065   1.798 -0.0734  0.5269  0.2797
 1805ntf    fn411955   5.129  -0.099   1.803  0.0828 -0.3583  0.0546
 1806ntf    cn111956   2.632   6.758   0.034 -0.4587  0.3792 -0.1929
 1806ntf    sn211957   2.728   6.677   0.166 -0.1136  0.6555 -0.2743
 1806ntf    nn311958   2.785   6.556   0.083  0.2808  0.1469  0.7176
 1806ntf    sn211959   2.788   6.405   0.123 -0.1926  0.0506  0.3979
 1806ntf    cn111960   2.619   6.361   0.071 -0.0876 -0.1224  0.2030
 1806ntf    fn411961   2.526   6.826   0.076 -0.1562  0.4448  0.4682
 1806ntf    fn411962   2.705   6.843  -0.036 -0.1360  0.1348 -0.1555
 1806ntf    fn411963   2.589   6.667  -0.052 -0.2304  0.4182 -0.3497
 1806ntf    on511964   2.816   6.779   0.215  0.4787  0.1031 -0.1786
 1806ntf    on511965   2.633   6.630   0.263  0.0430 -0.0125 -0.4373
 1806ntf    on511966   2.802   6.377   0.264  0.2282 -0.6107  0.2284
 1806ntf    on511967   2.872   6.332   0.031 -0.7301 -0.0428 -0.0277
 1806ntf    fn411968   2.589   6.238   0.110 -0.0887 -0.1479  0.1226
 1806ntf    fn411969   2.523   6.437   0.119  0.0912  0.0279  0.3240
 1806ntf    fn411970   2.601   6.363  -0.060  0.0042 -0.0552  0.1918
 1807ntf    cn111971   2.602   3.436   2.820  0.2269  0.4170 -0.3837
 1807ntf    sn211972   2.646   3.462   2.995 -0.7273 -0.1456 -0.0504
 1807ntf    nn311973   2.534   3.568   3.022 -0.3309  0.2397  0.0943
 1807ntf    sn211974   2.460   3.609   3.155 -0.3062  0.0140  0.1778
 1807ntf    cn111975   2.561   3.752   3.204  0.0247  0.0707 -0.6410
 1807ntf    fn411976   2.680   3.341   2.772  0.0183  0.0635 -0.0370
 1807ntf    fn411977   2.477   3.399   2.800  0.1124  0.1470  0.7448
 1807ntf    fn411978   2.621   3.540   2.742 -0.4216  0.7580 -0.0967
 1807ntf    on511979   2.632   3.335   3.062  0.4069 -0.4162 -0.2953
 1807ntf    on511980   2.780   3.514   2.987 -0.4759 -0.8503 -0.5277
 1807ntf    on511981   2.472   3.523   3.270 -0.4521 -0.3164 -0.0538
 1807ntf    on511982   2.330   3.666   3.133 -0.1635  0.3679  0.2389
 1807ntf    fn411983   2.686   3.719   3.229 -0.0621  0.2001 -0.0248
 1807ntf    fn411984   2.566   3.842   3.107 -0.4461  0.3097 -0.4494
 1807ntf    fn411985   2.525   3.807   3.319  0.0239  0.4306 -0.8110
 1808ntf    cn111986   5.495   6.723   4.662 -0.1704 -0.0517 -0.5020
 1808ntf    sn211987   5.550   6.816   4.516  0.2355 -0.0957 -0.3776
 1808ntf    nn311988   5.693   6.756   4.489  0.5341  0.4510 -0.0269
 1808ntf    sn211989   5.763   6.694   4.363 -0.2491  0.0699 -0.2787
 1808ntf    cn111990   5.753   6.516   4.397  0.1985  0.0432 -0.2844
 1808ntf    fn411991   5.395   6.781   4.727  0.1954  0.2396 -0.1923
 1808ntf    fn411992   5.459   6.602   4.626  0.3989 -0.1006 -0.9161
 1808ntf    fn411993   5.592   6.709   4.751 -0.3124  0.0667 -0.3274
 1808ntf    on511994   5.453   6.775   4.417 -0.1071  0.1447 -0.1404
 1808ntf    on511995   5.538   6.952   4.562  0.0530 -0.2547  0.0459
 1808ntf    on511996   5.907   6.705   4.367 -0.2449 -0.1945  0.3143
 1808ntf    on511997   5.692   6.708   4.238 -0.1821 -0.2497 -0.3556
 1808ntf    fn411998   5.803   6.476   4.513 -0.4447 -0.2244 -0.0955
 1808ntf    fn411999   5.626   6.480   4.406  0.2791 -0.0197  0.7621
 1808ntf    fn412000   5.817   6.432   4.317  0.3352 -0.0858 -0.0432
 1809ntf    cn112001   1.185   5.526   4.742 -0.3185 -0.3116  0.6197
 1809ntf    sn212002   1.080   5.417   4.640  0.1566 -0.4110  0.2323
 1809ntf    nn312003   1.004   5.524   4.554  0.1689 -0.2822  0.3808
 1809ntf    sn212004   0.926   5.651   4.604  0.1442  0.0124 -0.3939
 1809ntf    cn112005   0.801   5.661   4.472 -0.2062 -0.1396 -0.0753
 1809ntf    fn412006   1.286   5.454   4.788  0.0298  0.1575  0.5816
 1809ntf    fn412007   1.249   5.609   4.663  0.2419 -0.6373  0.7284
 1809ntf    fn412008   1.125   5.589   4.842 -0.1043  0.1862  0.4331
 1809ntf    on512009   1.169   5.339   4.559 -0.0025  0.0336 -0.3785
 1809ntf    on512010   0.993   5.340   4.726  0.2157 -0.7897 -0.0464
 1809ntf    on512011   0.999   5.775   4.597  0.1879  0.0502  0.6492
 1809ntf    on512012   0.843   5.635   4.720  0.1823  0.6647 -0.2747
 1809ntf    fn412013   0.746   5.542   4.457  0.2729 -0.3253 -0.3892
 1809ntf    fn412014   0.709   5.752   4.500 -0.1651 -0.1071 -0.0429
 1809ntf    fn412015   0.845   5.704   4.355 -0.2524  0.2055  0.0322
 1810ntf    cn112016   1.559   6.051   1.673 -0.0570  0.2880 -0.3643
 1810ntf    sn212017   1.560   6.118   1.842 -0.1495 -0.0210 -0.2393
 1810ntf    nn312018   1.424   6.196   1.858  0.2573  0.6037  0.2328
 1810ntf    sn212019   1.297   6.142   1.933  0.4727  0.1603  0.2832
 1810ntf    cn112020   1.183   6.283   1.922 -0.2423 -0.4297  0.0682
 1810ntf    fn412021   1.449   6.078   1.606 -0.4277 -0.7316 -0.1979
 1810ntf    fn412022   1.653   6.099   1.592  0.8033 -1.1148 -0.2409
 1810ntf    fn412023   1.580   5.920   1.665 -0.2297  0.2552 -0.2837
 1810ntf    on512024   1.567   5.998   1.921  0.8430  0.6059  0.6432
 1810ntf    on512025   1.670   6.211   1.845 -0.3731  0.2420 -0.0446
 1810ntf    on512026   1.317   6.135   2.076 -0.7404 -0.6847  0.4208
 1810ntf    on512027   1.213   6.042   1.873  0.3210  0.3743  0.1396
 1810ntf    fn412028   1.078   6.266   2.000  0.0909  0.0251  0.6243
 1810ntf    fn412029   1.241   6.394   1.966 -0.5960 -0.1313 -0.2025
 1810ntf    fn412030   1.141   6.305   1.798 -0.4682 -0.0997  0.1999
 1811ntf    cn112031   5.976   4.895   2.566 -0.0002 -0.2213  0.0255
 1811ntf    sn212032   5.847   4.933   2.688 -0.1206  0.1423 -0.2151
 1811ntf    nn312033   5.835   5.087   2.661  0.2064  0.2073 -0.0032
 1811ntf    sn212034   5.746   5.175   2.565  0.1006 -0.1115 -0.1976
 1811ntf    cn112035   5.612   5.222   2.679  0.2744  0.4433 -0.2185
 1811ntf    fn412036   5.948   4.936   2.443  0.5830 -0.0199 -0.0417
 1811ntf    fn412037   6.091   4.952   2.598 -0.0364 -0.1342 -0.0021
 1811ntf    fn412038   5.996   4.764   2.555 -0.0591 -0.2887  0.7147
 1811ntf    on512039   5.742   4.845   2.645 -0.4039  0.0828  0.5742
 1811ntf    on512040   5.921   4.905   2.809  0.0670  0.5488 -0.2332
 1811ntf    on512041   5.677   5.103   2.461 -0.4675 -0.2028  0.2330
 1811ntf    on512042   5.793   5.306   2.531 -0.0890  0.0153  0.0218
 1811ntf    fn412043   5.520   5.127   2.687  0.1286  0.6011 -0.0098
 1811ntf    fn412044   5.657   5.252   2.799 -0.0973 -0.1276  0.0711
 1811ntf    fn412045   5.545   5.329   2.640  0.0888  0.5790  0.4643
 1812ntf    cn112046   2.160   6.641   2.416 -0.4441 -0.2502 -0.0141
 1812ntf    sn212047   2.248   6.490   2.365  0.2034  0.0487  0.2079
 1812ntf    nn312048   2.207   6.467   2.215 -0.1009 -0.3695  0.3545
 1812ntf    sn212049   2.063   6.429   2.164 -0.2168  0.2274  0.2206
 1812ntf    cn112050   2.062   6.475   1.988 -0.1001  0.4021  0.2657
 1812ntf    fn412051   2.190   6.668   2.542  0.3659 -0.9393 -0.0521
 1812ntf    fn412052   2.186   6.752   2.349 -0.5644 -0.2357 -0.0352
 1812ntf    fn412053   2.029   6.625   2.416 -0.4195 -0.4645 -0.2912
 1812ntf    on512054   2.386   6.531   2.382  0.4847 -0.6206 -0.3842
 1812ntf    on512055   2.205   6.385   2.453 -0.3926 -0.1352 -0.2949
 1812ntf    on512056   1.961   6.513   2.221 -0.5147  0.0500 -0.0461
 1812ntf    on512057   2.041   6.287   2.152 -0.7833  0.2720  0.7052
 1812ntf    fn412058   1.988   6.398   1.910  0.7271  0.2427 -0.3663
 1812ntf    fn412059   2.023   6.601   1.974 -0.2685  0.3392  0.1646
 1812ntf    fn412060   2.183   6.466   1.937 -0.1079  0.1219  0.2973
 1813ntf    cn112061   5.903   4.456   0.529 -0.1737 -0.5504  0.2381
 1813ntf    sn212062   5.765   4.574   0.535  0.3689  0.0987  0.0997
 1813ntf    nn312063   5.658   4.505   0.444  0.5300 -0.8836  0.6390
 1813ntf    sn212064   5.522   4.434   0.477 -0.0237 -0.0765  0.1466
 1813ntf    cn112065   5.414   4.580   0.480  0.0197 -0.0408 -0.0517
 1813ntf    fn412066   5.855   4.333   0.529 -0.5224 -0.4142  0.0404
 1813ntf    fn412067   5.966   4.463   0.413  0.4911  0.2218  0.6320
 1813ntf    fn412068   5.994   4.454   0.626  0.3335 -0.6646 -0.2327
 1813ntf    on512069   5.738   4.590   0.676 -0.4967  0.3789 -0.0909
 1813ntf    on512070   5.817   4.695   0.476  0.4073 -0.0053 -0.0787
 1813ntf    on512071   5.537   4.378   0.609  0.2342 -0.0510  0.1287
 1813ntf    on512072   5.475   4.346   0.373 -0.2270 -0.3732  0.4842
 1813ntf    fn412073   5.440   4.658   0.376  0.9371  0.0528  0.2418
 1813ntf    fn412074   5.285   4.551   0.475  0.0477 -0.2260  0.2678
 1813ntf    fn412075   5.429   4.657   0.586  0.1744  0.3915 -0.3839
 1814ntf    cn112076   5.470   0.721   3.301 -0.4312  0.2693 -0.6273
 1814ntf    sn212077   5.630   0.644   3.262 -0.2477  0.0885  0.4756
 1814ntf    nn312078   5.612   0.645   3.106  0.4848  0.2311  0.3914
 1814ntf    sn212079   5.576   0.525   3.013  0.0078  0.1571  0.6685
 1814ntf    cn112080   5.746   0.492   2.957  0.0200  0.2982  0.6216
 1814ntf    fn412081   5.448   0.726   3.431 -0.5494  0.1410 -0.6422
 1814ntf    fn412082   5.465   0.846   3.257 -0.2627  0.3479 -0.4239
 1814ntf    fn412083   5.368   0.659   3.243 -0.2345 -1.0059  0.3728
 1814ntf    on512084   5.734   0.730   3.313  0.2801 -0.2963  0.0618
 1814ntf    on512085   5.626   0.517   3.330 -0.4101 -0.1662 -0.0056
 1814ntf    on512086   5.501   0.575   2.899  0.2679  0.2769  0.5494
 1814ntf    on512087   5.538   0.400   3.074  0.0363 -0.0669  0.2346
 1814ntf    fn412088   5.789   0.601   2.895 -1.0837  0.6168  0.3989
 1814ntf    fn412089   5.826   0.463   3.059  0.8026 -0.1754 -0.1186
 1814ntf    fn412090   5.758   0.389   2.876 -0.0133  0.6359  0.1824
 1815ntf    cn112091   5.296   4.067   2.318  0.1364  0.1630  0.2023
 1815ntf    sn212092   5.339   3.910   2.238  0.1804  0.0806  0.3897
 1815ntf    nn312093   5.406   3.958   2.104 -0.0224 -0.1695  0.1980
 1815ntf    sn212094   5.336   3.998   1.970  0.1924  0.0674  0.1568
 1815ntf    cn112095   5.432   3.891   1.859 -0.1442 -0.1187  0.0433
 1815ntf    fn412096   5.402   4.143   2.338  0.2293  0.1015 -0.0542
 1815ntf    fn412097   5.206   4.125   2.240  0.1851 -0.4401 -0.3102
 1815ntf    fn412098   5.231   4.038   2.429 -0.2177 -0.5307 -0.1777
 1815ntf    on512099   5.446   3.868   2.325  1.1353  0.1052 -0.7438
 1815ntf    on512100   5.219   3.830   2.235  0.0284  0.3243  0.0316
 1815ntf    on512101   5.360   4.132   1.921  0.1597  0.1975  0.4930
 1815ntf    on512102   5.200   3.953   1.950 -0.0309  0.7003  0.2083
 1815ntf    fn412103   5.428   3.925   1.732 -0.6269 -0.0124  0.0839
 1815ntf    fn412104   5.560   3.901   1.892 -0.1572 -0.5044  0.2173
 1815ntf    fn412105   5.397   3.764   1.869 -0.2722 -0.0832  0.0432
 1816ntf    cn112106   5.504   3.186   1.955  0.0215 -0.2741  0.3408
 1816ntf    sn212107   5.385   3.049   1.945 -0.0247 -0.2000 -0.1928
 1816ntf    nn312108   5.351   3.012   2.094 -0.2123 -0.0442 -0.1970
 1816ntf    sn212109   5.235   3.067   2.184  0.1048  0.2412  0.0394
 1816ntf    cn112110   5.129   2.920   2.169  0.1390  0.2450 -0.2529
 1816ntf    fn412111   5.625   3.139   1.983  0.1107 -0.0857  0.2722
 1816ntf    fn412112   5.505   3.249   1.839  0.3147  0.2622  0.6335
 1816ntf    fn412113   5.480   3.269   2.055 -0.4011 -0.5328  0.4554
 1816ntf    on512114   5.286   3.096   1.852 -0.3107 -0.3438  0.0385
 1816ntf    on512115   5.470   2.940   1.903 -0.0238 -0.1714 -0.2650
 1816ntf    on512116   5.166   3.178   2.121 -0.0447  0.0784 -0.0879
 1816ntf    on512117   5.263   3.074   2.325 -0.0905 -0.1692  0.0980
 1816ntf    fn412118   5.003   2.954   2.189  0.0777 -0.1966  0.1337
 1816ntf    fn412119   5.133   2.868   2.047  0.5429  0.1344 -0.1925
 1816ntf    fn412120   5.162   2.822   2.252 -0.0783 -0.0042 -0.4598
 1817ntf    cn112121   2.927   5.825   6.366 -0.5627  0.1754 -0.0114
 1817ntf    sn212122   3.053   5.954   6.345  0.0338 -0.3691  0.1867
 1817ntf    nn312123   3.186   5.870   6.349  0.4508  0.2178 -0.8854
 1817ntf    sn212124   3.310   5.885   6.444 -0.2997  0.0484  0.1288
 1817ntf    cn112125   3.390   6.008   6.338 -0.1629  0.1512  0.3513
 1817ntf    fn412126   2.946   5.761   6.481 -0.2754  0.2314 -0.0260
 1817ntf    fn412127   2.808   5.882   6.379 -0.8269 -0.3697 -0.0208
 1817ntf    fn412128   2.921   5.736   6.268  0.9967 -0.3072  0.2942
 1817ntf    on512129   3.029   5.994   6.208  1.0308  0.2997  0.1922
 1817ntf    on512130   3.035   6.051   6.450  1.1176 -0.7112  0.7130
 1817ntf    on512131   3.397   5.771   6.427 -0.1385  0.1545  0.2440
 1817ntf    on512132   3.285   5.947   6.572  0.2451 -0.2550  0.3843
 1817ntf    fn412133   3.325   6.122   6.324 -0.7743 -0.2641 -0.2274
 1817ntf    fn412134   3.517   6.031   6.368  0.1311  0.3935 -1.0119
 1817ntf    fn412135   3.399   5.964   6.213  0.2387  0.2457  0.3448
 1818ntf    cn112136   4.552   4.296   2.744 -0.1389  0.4039  0.2856
 1818ntf    sn212137   4.717   4.341   2.808  0.0672 -0.1216  0.1253
 1818ntf    nn312138   4.805   4.346   2.678 -0.4285 -0.1170 -0.2129
 1818ntf    sn212139   4.879   4.229   2.603  0.1759  0.0736  0.0833
 1818ntf    cn112140   5.034   4.322   2.595  0.4940 -0.5132 -0.6008
 1818ntf    fn412141   4.501   4.395   2.673 -0.2021  0.1928  0.0351
 1818ntf    fn412142   4.563   4.189   2.667  0.0312  0.5284  0.1356
 1818ntf    fn412143   4.468   4.268   2.842 -0.0729 -0.3698  0.1279
 1818ntf    on512144   4.696   4.472   2.862  0.3179 -0.1134  0.2028
 1818ntf    on512145   4.751   4.235   2.899 -0.1236 -0.2080  0.0981
 1818ntf    on512146   4.846   4.212   2.464  0.0055  0.5526  0.0636
 1818ntf    on512147   4.907   4.107   2.675 -0.0691 -0.0981 -0.1094
 1818ntf    fn412148   5.083   4.364   2.710 -0.0447 -0.3111 -0.4470
 1818ntf    fn412149   5.130   4.241   2.552  0.9680  0.0358 -0.5894
 1818ntf    fn412150   5.031   4.423   2.510  0.1406 -0.1292 -0.1320
 1819ntf    cn112151   2.291   2.922   0.299  0.0492 -0.1901  0.1812
 1819ntf    sn212152   2.401   2.867   0.165  0.2542  0.4249  0.0941
 1819ntf    nn312153   2.304   2.756   0.110  0.3243  0.0855  0.6446
 1819ntf    sn212154   2.325   2.601   0.109  0.0145  0.0425 -0.0530
 1819ntf    cn112155   2.271   2.557  -0.059  0.1589  0.1042 -0.1157
 1819ntf    fn412156   2.338   3.028   0.362  0.1321 -0.0274 -0.1499
 1819ntf    fn412157   2.170   2.950   0.253  0.3241  0.3416 -0.2275
 1819ntf    fn412158   2.283   2.822   0.385  0.4070 -0.2084  0.1946
 1819ntf    on512159   2.407   2.983   0.080  0.7431  0.5787  0.3374
 1819ntf    on512160   2.525   2.825   0.225  0.2834  0.2479 -0.0881
 1819ntf    on512161   2.229   2.547   0.201 -0.1000 -0.0035 -0.1993
 1819ntf    on512162   2.461   2.552   0.114  0.0385  0.0843 -0.3095
 1819ntf    fn412163   2.141   2.538  -0.075  0.1203  0.0929  0.1993
 1819ntf    fn412164   2.316   2.648  -0.144  0.7372  0.4878  0.5847
 1819ntf    fn412165   2.334   2.451  -0.108  0.0200 -0.1970  0.3514
 1820ntf    cn112166   2.110   3.512   0.348 -0.6409 -0.1691 -0.0898
 1820ntf    sn212167   2.087   3.673   0.268  0.2657 -0.1101 -0.2337
 1820ntf    nn312168   1.931   3.687   0.259  0.3134  0.3934 -0.3293
 1820ntf    sn212169   1.854   3.821   0.232 -0.0011  0.2625 -0.0835
 1820ntf    cn112170   1.694   3.741   0.197 -0.0736  0.4148 -0.0995
 1820ntf    fn412171   2.071   3.415   0.266 -0.9285  0.2131 -0.4091
 1820ntf    fn412172   2.235   3.487   0.381 -0.8723 -0.1525  0.8204
 1820ntf    fn412173   2.043   3.493   0.461 -0.1740  0.1587  0.2410
 1820ntf    on512174   2.143   3.768   0.361 -1.1618  0.2136  0.3104
 1820ntf    on512175   2.145   3.671   0.135 -0.1043 -0.0745 -0.3961
 1820ntf    on512176   1.896   3.875   0.105 -0.3199 -0.3121 -0.4387
 1820ntf    on512177   1.828   3.911   0.342  0.4991 -0.0611  0.3067
 1820ntf    fn412178   1.699   3.653   0.099  0.1026 -0.3661  0.5975
 1820ntf    fn412179   1.648   3.685   0.308 -0.0408  0.7060  0.0623
 1820ntf    fn412180   1.606   3.829   0.153 -0.4267 -0.0962 -0.4191
 1821ntf    cn112181   4.198   3.139   4.899 -0.1676 -0.0924  0.2913
 1821ntf    sn212182   4.142   3.294   4.978  0.3717  0.0788  0.3405
 1821ntf    nn312183   4.283   3.359   5.001  0.4431  0.1544 -0.2982
 1821ntf    sn212184   4.382   3.355   5.122 -0.2897 -0.0849  0.2983
 1821ntf    cn112185   4.339   3.504   5.216 -0.1206  0.0299  0.1945
 1821ntf    fn412186   4.097   3.069   4.849  0.3510 -0.3613 -0.3970
 1821ntf    fn412187   4.283   3.153   4.798 -0.3315  0.0596  0.1725
 1821ntf    fn412188   4.251   3.056   4.987 -0.1238  0.0045  0.3560
 1821ntf    on512189   4.070   3.367   4.877 -1.0781 -0.7261  0.7661
 1821ntf    on512190   4.076   3.253   5.099  0.2411 -0.4799  0.0848
 1821ntf    on512191   4.521   3.382   5.096 -0.2338 -0.1304  0.5445
 1821ntf    on512192   4.362   3.243   5.211 -0.7229 -0.1162  0.1648
 1821ntf    fn412193   4.407   3.515   5.329  0.2930  0.1813 -0.0701
 1821ntf    fn412194   4.373   3.613   5.150 -0.1952 -0.2776 -0.3619
 1821ntf    fn412195   4.211   3.522   5.246 -0.1317  0.3827 -0.0606
 1822ntf    cn112196   6.870   3.905   4.172  0.1826  0.0847 -0.3558
 1822ntf    sn212197   6.957   3.966   4.025  0.4620 -0.1813 -0.3020
 1822ntf    nn312198   6.924   3.864   3.910  0.0022  0.2743 -0.5794
 1822ntf    sn212199   6.998   3.727   3.888 -0.0319  0.1592  0.0061
 1822ntf    cn112200   7.119   3.764   3.758 -0.0670  0.0034 -0.0710
 1822ntf    fn412201   6.744   3.876   4.145  0.3026 -0.8840  0.0438
 1822ntf    fn412202   6.915   3.787   4.214  0.0911  0.1592 -0.0468
 1822ntf    fn412203   6.875   3.983   4.278  0.0810 -0.2710 -0.0858
 1822ntf    on512204   6.882   4.087   4.002 -0.0205 -0.4134  0.0241
 1822ntf    on512205   7.096   3.984   4.059  0.2303 -0.1370  0.6425
 1822ntf    on512206   6.905   3.626   3.843 -0.4907  0.5824  0.0028
 1822ntf    on512207   7.086   3.681   3.992  0.1454  0.4061 -0.0354
 1822ntf    fn412208   7.218   3.848   3.784 -0.4440  0.3606  0.2182
 1822ntf    fn412209   7.168   3.653   3.706  0.1220  0.1684 -0.2479
 1822ntf    fn412210   7.065   3.808   3.645  0.7275  0.1697 -0.3923
 1823ntf    cn112211   5.914   6.284   4.998  0.2686 -0.0626  0.2834
 1823ntf    sn212212   6.080   6.210   5.006  0.4014  0.1750 -0.2669
 1823ntf    nn312213   6.131   6.261   4.866 -0.5223  0.1712 -0.6155
 1823ntf    sn212214   6.214   6.386   4.820  0.3579 -0.2319 -0.1428
 1823ntf    cn112215   6.099   6.460   4.701 -0.2115 -0.0234  0.5279
 1823ntf    fn412216   5.928   6.416   4.996 -0.4380  0.0126 -0.2531
 1823ntf    fn412217   5.848   6.255   4.887  0.0011  0.3091  0.3417
 1823ntf    fn412218   5.832   6.253   5.097 -0.5012  0.2574 -0.2427
 1823ntf    on512219   6.146   6.267   5.120 -0.5253  0.2892  0.2206
 1823ntf    on512220   6.059   6.068   5.003  0.4755  0.1508  0.3064
 1823ntf    on512221   6.322   6.341   4.736  0.1231 -1.0238 -0.0233
 1823ntf    on512222   6.237   6.486   4.922  0.2006 -0.4547  0.1106
 1823ntf    fn412223   6.155   6.564   4.642 -0.5556  0.0001  0.2379
 1823ntf    fn412224   6.061   6.376   4.606  0.3381  0.1274  0.1681
 1823ntf    fn412225   5.990   6.512   4.755 -0.4059  0.1833 -0.0609
 1824ntf    cn112226   3.627   4.402   2.879  0.1409  0.4624  0.2591
 1824ntf    sn212227   3.632   4.255   2.985  0.0803 -0.0326 -0.4142
 1824ntf    nn312228   3.647   4.300   3.135  0.0152 -0.4506 -0.2781
 1824ntf    sn212229   3.768   4.299   3.234 -0.2892 -0.6028  0.0928
 1824ntf    cn112230   3.741   4.151   3.337 -0.0952 -0.3647  0.4880
 1824ntf    fn412231   3.741   4.469   2.884  0.4260  0.0104 -0.0092
 1824ntf    fn412232   3.614   4.364   2.753  0.2924 -0.3880  0.4894
 1824ntf    fn412233   3.525   4.484   2.899 -0.0371  0.3730 -0.2659
 1824ntf    on512234   3.493   4.219   2.972 -0.0307 -0.2308  1.0818
 1824ntf    on512235   3.735   4.163   2.942 -0.3893 -0.9010  0.2769
 1824ntf    on512236   3.761   4.412   3.323  0.4824 -0.4980  0.0314
 1824ntf    on512237   3.893   4.274   3.167 -0.3099  0.4487 -0.3543
 1824ntf    fn412238   3.745   4.037   3.270  0.4824 -0.3093  0.4202
 1824ntf    fn412239   3.822   4.137   3.441  0.3814  0.1785  0.1981
 1824ntf    fn412240   3.617   4.158   3.381 -0.1044 -0.0068  0.4126
 1825ntf    cn112241   3.009   0.672   3.038  0.1878  0.1689 -0.0402
 1825ntf    sn212242   2.924   0.610   3.186 -0.0241  0.3149 -0.1006
 1825ntf    nn312243   2.776   0.639   3.141  0.0386  0.1433 -0.4211
 1825ntf    sn212244   2.667   0.710   3.229  0.0840 -0.2634 -0.0347
 1825ntf    cn112245   2.526   0.663   3.123 -0.0166 -0.5000  0.2033
 1825ntf    fn412246   2.974   0.798   3.020 -0.8152 -0.0851  0.0656
 1825ntf    fn412247   3.141   0.669   3.044  0.1896  0.0740 -0.1240
 1825ntf    fn412248   2.978   0.595   2.935  0.0692  0.1641 -0.0015
 1825ntf    on512249   2.955   0.470   3.200  0.7130  0.3348 -1.3788
 1825ntf    on512250   2.975   0.695   3.291  0.1608 -0.0533  0.1091
 1825ntf    on512251   2.664   0.854   3.236  0.1816 -0.2889  0.5236
 1825ntf    on512252   2.641   0.638   3.351 -0.2434  0.5250  0.3691
 1825ntf    fn412253   2.540   0.704   2.998 -0.1427  0.0694  0.3692
 1825ntf    fn412254   2.501   0.533   3.122 -0.1533 -0.4696 -0.2352
 1825ntf    fn412255   2.416   0.720   3.171  0.0597  0.4542 -0.7096
 1826ntf    cn112256   4.966   0.108   1.142  0.1852 -0.3126  0.1847
 1826ntf    sn212257   5.082   0.096   1.002  0.2181  0.2455  0.1642
 1826ntf    nn312258   5.049  -0.044   0.940 -0.1540  0.4261 -0.0486
 1826ntf    sn212259   5.010  -0.079   0.792 -0.1976 -0.0310  0.0698
 1826ntf    cn112260   5.081  -0.247   0.788  0.0407  0.0669  0.1731
 1826ntf    fn412261   4.983   0.216   1.215  0.0259 -0.3855  0.3306
 1826ntf    fn412262   4.847   0.121   1.086  0.1351  0.3357  0.4362
 1826ntf    fn412263   4.953   0.002   1.219  0.4520 -0.5469 -0.0870
 1826ntf    on512264   5.037   0.202   0.915  0.4072  0.3846  0.2339
 1826ntf    on512265   5.214   0.100   1.059  0.4283 -0.1330 -0.2913
 1826ntf    on512266   5.083  -0.017   0.685 -0.7246  0.0931 -0.2214
 1826ntf    on512267   4.870  -0.109   0.774 -0.0481 -0.2449 -0.7963
 1826ntf    fn412268   5.204  -0.251   0.836  0.3896 -0.1548 -0.7300
 1826ntf    fn412269   5.006  -0.333   0.854 -0.0838 -0.0741 -0.1490
 1826ntf    fn412270   5.094  -0.299   0.667 -0.4922  0.1056  0.0984
 1827ntf    cn112271   1.982   2.196   5.816 -0.2893  0.1562  0.0064
 1827ntf    sn212272   2.022   2.215   5.639 -0.0344  0.6205  0.1132
 1827ntf    nn312273   1.896   2.146   5.575 -0.0921 -0.0026  0.8795
 1827ntf    sn212274   1.752   2.207   5.564 -0.0036  0.1035  0.2392
 1827ntf    cn112275   1.738   2.205   5.383  0.3436 -0.2582  0.2147
 1827ntf    fn412276   1.950   2.075   5.860  0.2513 -0.0354 -0.1174
 1827ntf    fn412277   2.080   2.245   5.890  0.0564 -0.2716 -0.1607
 1827ntf    fn412278   1.876   2.272   5.839 -0.4321  0.0489 -0.2827
 1827ntf    on512279   2.040   2.357   5.622 -0.5276  0.7444  0.5971
 1827ntf    on512280   2.134   2.127   5.618 -0.0377  0.7236 -0.3529
 1827ntf    on512281   1.733   2.347   5.595 -0.8676  0.0741 -0.1172
 1827ntf    on512282   1.658   2.103   5.599  0.1331  0.1655  0.8111
 1827ntf    fn412283   1.758   2.081   5.342  0.1307 -0.3100  0.2689
 1827ntf    fn412284   1.624   2.251   5.334  0.5952  0.1405 -0.0022
 1827ntf    fn412285   1.838   2.272   5.328  0.0651 -0.0335 -0.0252
 1828ntf    cn112286   3.964   2.155   2.289  0.1617 -0.2617  0.0203
 1828ntf    sn212287   4.055   2.069   2.157  0.1157  0.1805 -0.3018
 1828ntf    nn312288   3.980   1.936   2.121 -0.0154  0.1150  0.1955
 1828ntf    sn212289   4.029   1.792   2.079  0.0363  0.1247  0.2224
 1828ntf    cn112290   3.954   1.795   1.913  0.2815  0.2283  0.1122
 1828ntf    fn412291   4.036   2.254   2.340 -0.0877 -0.1344  0.1241
 1828ntf    fn412292   3.856   2.221   2.251  0.2474 -0.3198 -0.3246
 1828ntf    fn412293   3.932   2.070   2.385  0.0859 -0.1039  0.1345
 1828ntf    on512294   4.054   2.170   2.055  1.1963 -0.4229 -0.9218
 1828ntf    on512295   4.181   2.053   2.225  0.1080  0.1749 -0.2880
 1828ntf    on512296   3.949   1.691   2.144  0.0811 -0.3685 -0.4765
 1828ntf    on512297   4.168   1.772   2.048 -0.0594  0.5760 -0.5404
 1828ntf    fn412298   3.985   1.686   1.844  0.8419  0.3776  0.1231
 1828ntf    fn412299   3.822   1.809   1.909  0.3289  0.5557 -0.2945
 1828ntf    fn412300   4.002   1.897   1.845  0.3513  0.2671  0.2187
 1829ntf    cn112301   1.741   1.527   6.772  0.2583 -0.4150 -0.2901
 1829ntf    sn212302   1.685   1.390   6.667 -0.0293 -0.0259 -0.6449
 1829ntf    nn312303   1.531   1.417   6.651 -0.1313 -0.0856  0.2204
 1829ntf    sn212304   1.448   1.455   6.524 -0.3042  0.5872  0.5294
 1829ntf    cn112305   1.430   1.283   6.467 -0.3088  0.5954  0.5053
 1829ntf    fn412306   1.676   1.640   6.752  0.4003 -0.4475 -0.9516
 1829ntf    fn412307   1.719   1.501   6.900 -0.4888  0.5377 -0.2122
 1829ntf    fn412308   1.870   1.555   6.761  0.1398  0.2096 -0.1073
 1829ntf    on512309   1.765   1.421   6.551  0.3463 -0.4043 -0.4863
 1829ntf    on512310   1.719   1.268   6.735  0.3147  0.5353  0.1982
 1829ntf    on512311   1.501   1.518   6.405 -0.1374 -0.1877  0.1890
 1829ntf    on512312   1.316   1.490   6.569 -0.7674 -0.3083 -0.0982
 1829ntf    fn412313   1.395   1.203   6.566  0.4482 -0.3210  0.0455
 1829ntf    fn412314   1.342   1.273   6.369  0.3990  0.1378 -0.0870
 1829ntf    fn412315   1.546   1.240   6.422 -0.5384  0.7854 -0.2751
 1830ntf    cn112316   3.551   5.817   1.659  0.4190  0.3645 -0.2792
 1830ntf    sn212317   3.577   5.903   1.818  0.1585  0.1196 -0.1023
 1830ntf    nn312318   3.714   5.843   1.868  0.1500  0.1892  0.0028
 1830ntf    sn212319   3.740   5.714   1.953 -0.0224  0.0937 -0.0878
 1830ntf    cn112320   3.921   5.735   1.949  0.0131 -0.1508  0.2171
 1830ntf    fn412321   3.437   5.850   1.601 -0.0372 -0.1497  0.3072
 1830ntf    fn412322   3.659   5.818   1.584  0.7447 -0.4542  0.1705
 1830ntf    fn412323   3.531   5.690   1.688  0.3626  0.3770 -0.2652
 1830ntf    on512324   3.613   6.037   1.779  0.7899  0.0398  0.1801
 1830ntf    on512325   3.461   5.879   1.899  0.3463 -0.2003  0.0765
 1830ntf    on512326   3.744   5.590   1.879 -0.0865 -0.0582  0.1639
 1830ntf    on512327   3.703   5.714   2.092 -0.6265 -0.7160 -0.2450
 1830ntf    fn412328   3.959   5.857   1.982 -0.3944  0.1588 -0.4401
 1830ntf    fn412329   3.975   5.645   2.029  0.4159  0.1081  0.2363
 1830ntf    fn412330   3.957   5.716   1.823  0.6217 -0.1203  0.3820
 1831ntf    cn112331   2.485   5.996   4.425 -0.2508  0.0258 -0.0971
 1831ntf    sn212332   2.377   5.983   4.570 -0.2622  0.0988 -0.0996
 1831ntf    nn312333   2.446   5.860   4.638 -0.1948  0.0389 -0.2761
 1831ntf    sn212334   2.412   5.710   4.604 -0.4678  0.0415 -0.0172
 1831ntf    cn112335   2.293   5.694   4.740 -0.3437  0.0384  0.0915
 1831ntf    fn412336   2.613   5.975   4.454 -0.3444 -0.8539 -0.3038
 1831ntf    fn412337   2.466   5.906   4.330  0.2422 -0.0170 -0.1582
 1831ntf    fn412338   2.485   6.115   4.366  0.1815 -0.1489 -0.4605
 1831ntf    on512339   2.411   6.106   4.638 -0.0354 -0.0287  0.0169
 1831ntf    on512340   2.243   5.974   4.518 -0.1530  0.2353 -0.4071
 1831ntf    on512341   2.518   5.618   4.638 -0.2172  0.2763 -0.1550
 1831ntf    on512342   2.331   5.676   4.490  0.0008 -0.6137 -0.1544
 1831ntf    fn412343   2.203   5.790   4.732 -0.1101  0.2532  0.0475
 1831ntf    fn412344   2.235   5.576   4.726  0.3795 -0.3212  0.0969
 1831ntf    fn412345   2.344   5.701   4.862  0.2842  0.2976 -0.1832
 1832ntf    cn112346   6.289   5.409   4.463  0.1736 -0.2456 -0.0794
 1832ntf    sn212347   6.273   5.297   4.320 -0.2079  0.1289 -0.3308
 1832ntf    nn312348   6.141   5.226   4.365 -0.3018  0.4054 -0.1604
 1832ntf    sn212349   6.119   5.090   4.440  0.0601  0.2543 -0.3260
 1832ntf    cn112350   5.951   5.069   4.373  0.0483  0.1216 -0.2577
 1832ntf    fn412351   6.397   5.484   4.451  0.2577 -0.4002 -0.3047
 1832ntf    fn412352   6.185   5.488   4.483  0.1292 -0.2222 -0.3902
 1832ntf    fn412353   6.310   5.337   4.572 -0.6614 -0.8936 -0.3353
 1832ntf    on512354   6.260   5.384   4.205 -0.2107  0.5170 -0.0395
 1832ntf    on512355   6.393   5.218   4.327 -0.4955 -0.2724  0.0664
 1832ntf    on512356   6.105   5.112   4.582  0.9759 -0.0299 -0.1829
 1832ntf    on512357   6.198   4.983   4.385 -0.1619 -0.2269  0.2724
 1832ntf    fn412358   5.945   5.079   4.241 -0.1436 -0.2464 -0.2780
 1832ntf    fn412359   5.898   4.955   4.412  0.2522  0.1617  0.1414
 1832ntf    fn412360   5.869   5.165   4.413 -0.5157 -0.3767 -0.2203
 1833ntf    cn112361   5.573   5.061   5.830 -0.1684 -0.4310  0.2148
 1833ntf    sn212362   5.514   5.233   5.831 -0.0499 -0.3890  0.0316
 1833ntf    nn312363   5.372   5.210   5.770  0.3220 -0.5425 -0.7903
 1833ntf    sn212364   5.288   5.291   5.664 -0.1535  0.0605  0.0360
 1833ntf    cn112365   5.196   5.154   5.588 -0.2349  0.4048 -0.4961
 1833ntf    fn412366   5.509   4.987   5.920 -0.4393 -0.2901  0.1373
 1833ntf    fn412367   5.565   5.012   5.708 -0.5105  0.2999 -0.0624
 1833ntf    fn412368   5.698   5.054   5.874  0.0616  0.3446 -0.2966
 1833ntf    on512369   5.492   5.268   5.969 -0.0545  0.9058 -0.2884
 1833ntf    on512370   5.605   5.316   5.756 -1.0859  1.1204  0.4012
 1833ntf    on512371   5.368   5.342   5.555 -0.0637  0.1982  0.1658
 1833ntf    on512372   5.184   5.375   5.718 -0.0349  0.4898 -0.3931
 1833ntf    fn412373   5.107   5.104   5.673  0.4024 -0.3305 -0.2416
 1833ntf    fn412374   5.133   5.201   5.482 -0.3358  0.0185 -0.6105
 1833ntf    fn412375   5.276   5.058   5.545 -0.8709 -0.1730 -0.4129
 1834ntf    cn112376   2.386   2.498   4.524 -0.2006  0.0256 -0.1408
 1834ntf    sn212377   2.492   2.619   4.439  0.1933 -0.2318 -0.0198
 1834ntf    nn312378   2.457   2.745   4.526  0.4474 -0.3208  0.2145
 1834ntf    sn212379   2.531   2.780   4.660  0.0068  0.0881  0.3530
 1834ntf    cn112380   2.483   2.956   4.656 -0.0303  0.0740  0.1509
 1834ntf    fn412381   2.370   2.384   4.458 -0.5377 -0.1105  0.1714
 1834ntf    fn412382   2.432   2.471   4.645 -0.2970  0.2194 -0.0613
 1834ntf    fn412383   2.265   2.547   4.541  0.0143  0.2666  0.7168
 1834ntf    on512384   2.627   2.570   4.452  0.3631  0.2991  0.2560
 1834ntf    on512385   2.440   2.621   4.305  0.6933  0.3709 -0.2111
 1834ntf    on512386   2.675   2.786   4.652  0.0042 -0.3675 -0.1019
 1834ntf    on512387   2.480   2.721   4.780 -0.1973  0.1813  0.3126
 1834ntf    fn412388   2.354   2.978   4.641 -0.1342 -0.4910  0.1928
 1834ntf    fn412389   2.527   3.026   4.759 -0.4383  0.6970 -0.0928
 1834ntf    fn412390   2.522   3.018   4.546  0.0360 -0.0413  0.1086
 1835ntf    cn112391   3.240   0.813   4.170 -0.1236 -0.0236 -0.2123
 1835ntf    sn212392   3.160   0.969   4.122 -0.1052  0.1301  0.2568
 1835ntf    nn312393   3.284   1.055   4.077  0.0998 -0.2102  0.1685
 1835ntf    sn212394   3.328   1.194   4.134 -0.0657 -0.0185 -0.1692
 1835ntf    cn112395   3.175   1.292   4.122  0.2811  0.5596  0.0474
 1835ntf    fn412396   3.281   0.748   4.062  0.5666  0.2490 -0.1205
 1835ntf    fn412397   3.348   0.837   4.243 -0.1949  0.1264 -0.1547
 1835ntf    fn412398   3.150   0.734   4.226 -0.0555  0.2943  0.3512
 1835ntf    on512399   3.085   0.937   4.004 -0.7292 -0.1877  0.7346
 1835ntf    on512400   3.097   1.011   4.245  0.1340 -0.0513  0.4424
 1835ntf    on512401   3.414   1.270   4.047 -0.2572 -0.4408 -0.7334
 1835ntf    on512402   3.347   1.200   4.277 -0.0431  0.4287 -0.1875
 1835ntf    fn412403   3.187   1.414   4.170  0.2670  0.3409  0.6181
 1835ntf    fn412404   3.137   1.308   3.996 -0.3253  0.3485  0.2015
 1835ntf    fn412405   3.077   1.245   4.197  0.1654  0.1744 -0.3386
 1836ntf    cn112406   2.894   4.466   1.367  0.1034  0.3418  0.1046
 1836ntf    sn212407   2.995   4.613   1.401  0.0214  0.3842  0.1589
 1836ntf    nn312408   2.903   4.739   1.379  0.3060  0.5792  0.0702
 1836ntf    sn212409   2.846   4.848   1.476  0.5109  0.3588  0.4388
 1836ntf    cn112410   2.988   4.961   1.469  0.5727  0.2600  0.0811
 1836ntf    fn412411   2.800   4.503   1.281  0.3055  0.2952 -0.1378
 1836ntf    fn412412   2.964   4.360   1.331 -0.4909 -0.0612  0.1307
 1836ntf    fn412413   2.830   4.430   1.476 -0.3442  0.5066 -0.1021
 1836ntf    on512414   3.043   4.595   1.536  0.3887  0.6877  0.0723
 1836ntf    on512415   3.102   4.606   1.304  0.3012  0.2037  0.4805
 1836ntf    on512416   2.837   4.801   1.612  0.4282 -0.3724  0.1831
 1836ntf    on512417   2.735   4.923   1.422  0.4951  0.4651  0.6168
 1836ntf    fn412418   3.107   4.904   1.481  0.5505  0.1797 -0.0738
 1836ntf    fn412419   2.981   5.031   1.357 -0.3640 -0.0535 -0.0623
 1836ntf    fn412420   2.997   5.052   1.565  0.7565  0.3695 -0.0397
 1837ntf    cn112421   5.611   5.338   2.066  0.3308 -0.2465  0.0324
 1837ntf    sn212422   5.561   5.501   2.002  0.2738 -0.1918  0.2151
 1837ntf    nn312423   5.407   5.479   1.983  0.2267  0.6116 -0.3444
 1837ntf    sn212424   5.289   5.570   2.034 -0.0203  0.1779 -0.1411
 1837ntf    cn112425   5.261   5.491   2.195 -0.0967  0.0718 -0.2056
 1837ntf    fn412426   5.567   5.240   1.988  0.1104  0.0192 -0.1802
 1837ntf    fn412427   5.742   5.325   2.082  0.3681  0.1124  0.0382
 1837ntf    fn412428   5.559   5.319   2.186  0.2730 -0.2160  0.0121
 1837ntf    on512429   5.601   5.583   2.113  0.0782  0.2957 -0.0734
 1837ntf    on512430   5.633   5.508   1.877 -0.3847  0.3447 -0.1403
 1837ntf    on512431   5.166   5.538   1.966  0.0955 -0.6134  0.0060
 1837ntf    on512432   5.317   5.710   2.049  0.3275  0.0926  0.0030
 1837ntf    fn412433   5.152   5.534   2.255 -0.3227 -0.3629 -0.3017
 1837ntf    fn412434   5.252   5.359   2.200  0.6279  0.0162 -0.1254
 1837ntf    fn412435   5.364   5.519   2.274 -0.3691 -0.5084  0.3652
 1838ntf    cn112436   0.338   1.135   4.653  0.0020 -0.2508  0.3458
 1838ntf    sn212437   0.219   1.044   4.756 -0.0464 -0.2900  0.2559
 1838ntf    nn312438   0.175   1.156   4.858 -0.0622  0.0728 -0.1478
 1838ntf    sn212439   0.054   1.253   4.881 -0.2436 -0.1915  0.0267
 1838ntf    cn112440  -0.026   1.167   5.020 -0.2055  0.1071  0.2364
 1838ntf    fn412441   0.399   1.234   4.716 -0.4687  0.3077 -0.0635
 1838ntf    fn412442   0.438   1.055   4.618  0.5904  0.6955 -0.1859
 1838ntf    fn412443   0.293   1.188   4.540 -0.2951 -0.1432  0.5132
 1838ntf    on512444   0.125   1.007   4.654 -0.0581 -0.0168  0.1685
 1838ntf    on512445   0.302   0.937   4.807  0.2309 -0.0803  0.2490
 1838ntf    on512446  -0.056   1.259   4.788 -0.2569  0.2483  0.0665
 1838ntf    on512447   0.090   1.381   4.939 -0.9624 -0.0005  0.0569
 1838ntf    fn412448   0.061   1.141   5.115  0.1874 -0.1355 -0.1843
 1838ntf    fn412449  -0.125   1.242   5.067 -0.0550  0.3306  0.1995
 1838ntf    fn412450  -0.089   1.056   4.984  0.0230  0.0718 -0.0630
 1839ntf    cn112451   5.421   3.115   3.094  0.0627  0.5798 -0.6912
 1839ntf    sn212452   5.249   3.142   3.041 -0.2748  0.1214  0.1581
 1839ntf    nn312453   5.236   3.295   3.073  0.6973  0.1339  0.5110
 1839ntf    sn212454   5.250   3.428   2.990  0.2461 -0.1722 -0.0632
 1839ntf    cn112455   5.356   3.525   3.102 -0.1860  0.2337 -0.0037
 1839ntf    fn412456   5.439   3.172   3.212  0.0363  0.0151 -0.4124
 1839ntf    fn412457   5.443   2.985   3.108 -0.8275  0.4788 -0.1147
 1839ntf    fn412458   5.511   3.162   3.010  0.2028  0.7144 -0.4664
 1839ntf    on512459   5.248   3.126   2.898 -0.0927  0.1712  0.1516
 1839ntf    on512460   5.161   3.051   3.111 -0.3060  0.0325  0.0026
 1839ntf    on512461   5.133   3.511   2.977  0.3115 -0.1916 -0.7902
 1839ntf    on512462   5.337   3.413   2.876  0.0273 -0.2958 -0.2144
 1839ntf    fn412463   5.316   3.530   3.228  0.1398 -0.4028  0.1307
 1839ntf    fn412464   5.473   3.464   3.107 -0.2920 -0.0068 -0.4108
 1839ntf    fn412465   5.381   3.651   3.072  0.1633  0.0149 -0.6326
 1840ntf    cn112466   3.311   1.124   2.709 -0.4189  0.1246  0.1125
 1840ntf    sn212467   3.423   0.983   2.728 -0.2945  0.2580  0.3711
 1840ntf    nn312468   3.466   0.956   2.580 -0.0839  0.0578  0.4675
 1840ntf    sn212469   3.593   1.011   2.505 -0.3935  0.3204  0.1325
 1840ntf    cn112470   3.526   1.084   2.352 -0.3108  0.1105 -0.0039
 1840ntf    fn412471   3.205   1.096   2.635 -0.1254 -0.4381 -0.0930
 1840ntf    fn412472   3.278   1.177   2.826  0.0782  0.5144  0.0810
 1840ntf    fn412473   3.372   1.224   2.648 -0.0967 -0.0779  0.1020
 1840ntf    on512474   3.522   1.041   2.816  0.8017 -0.6207 -0.2506
 1840ntf    on512475   3.323   0.889   2.774 -0.8938  0.1917 -1.0208
 1840ntf    on512476   3.678   0.907   2.452 -0.6998  0.2513 -0.2263
 1840ntf    on512477   3.658   1.132   2.550 -0.2734  0.2854  0.0519
 1840ntf    fn412478   3.421   1.161   2.376 -0.2157  0.1886  0.1725
 1840ntf    fn412479   3.616   1.154   2.285  0.1440 -0.1874  0.2841
 1840ntf    fn412480   3.482   0.994   2.265  0.0401 -0.0118 -0.0555
 1841ntf    cn112481   2.775   1.144   5.480 -0.0326  0.0969 -0.1547
 1841ntf    sn212482   2.671   1.280   5.540  0.2010  0.2745 -0.1498
 1841ntf    nn312483   2.651   1.240   5.691 -0.2707  0.0925 -0.2589
 1841ntf    sn212484   2.575   1.330   5.794  0.1347  0.0648  0.0644
 1841ntf    cn112485   2.660   1.300   5.952  0.2193 -0.1017 -0.0133
 1841ntf    fn412486   2.892   1.146   5.541  0.3618  0.1864 -0.8911
 1841ntf    fn412487   2.732   1.021   5.505  0.2383  0.0343  0.0104
 1841ntf    fn412488   2.790   1.139   5.348  0.5179 -0.8806 -0.0724
 1841ntf    on512489   2.756   1.395   5.525  0.4113  0.1373 -0.0321
 1841ntf    on512490   2.553   1.287   5.458  0.0961  0.3860  0.0123
 1841ntf    on512491   2.449   1.266   5.822  0.3593 -0.2131  0.4448
 1841ntf    on512492   2.572   1.473   5.772 -0.0213  0.1906  0.8794
 1841ntf    fn412493   2.786   1.342   5.952 -0.0156  0.6055  0.4972
 1841ntf    fn412494   2.603   1.372   6.047  0.1081 -0.0681 -0.1067
 1841ntf    fn412495   2.664   1.177   6.003 -0.2881  0.0053  0.2864
 1842ntf    cn112496   5.532   2.015   3.674 -0.0247 -0.4853  0.0189
 1842ntf    sn212497   5.377   2.080   3.743  0.1590  0.2396 -0.2434
 1842ntf    nn312498   5.440   2.213   3.797  0.6176  0.0021 -0.1814
 1842ntf    sn212499   5.394   2.290   3.927  0.3319  0.2806 -0.4455
 1842ntf    cn112500   5.320   2.444   3.865 -0.2570  0.1769 -0.0035
 1842ntf    fn412501   5.630   1.998   3.761 -0.0104 -0.3086  0.0358
 1842ntf    fn412502   5.525   1.890   3.630 -0.4264 -0.8781  1.1687
 1842ntf    fn412503   5.575   2.090   3.574 -0.2589  0.2262  0.4461
 1842ntf    on512504   5.290   2.092   3.629  0.4188  0.2668 -0.4414
 1842ntf    on512505   5.338   1.986   3.845  0.0782  1.0346  0.4725
 1842ntf    on512506   5.505   2.341   4.004  0.0511  0.2160  0.0037
 1842ntf    on512507   5.289   2.241   4.012 -0.0178  0.8739 -0.5294
 1842ntf    fn412508   5.414   2.524   3.818 -0.2328 -0.4490 -1.0558
 1842ntf    fn412509   5.234   2.425   3.766 -0.1930 -0.1088 -0.0070
 1842ntf    fn412510   5.261   2.516   3.958 -0.3891  0.4185 -0.2741
 1843ntf    cn112511   2.489   5.487   5.854  0.1845 -0.1011  0.1633
 1843ntf    sn212512   2.409   5.649   5.864  0.1143 -0.1263  0.0261
 1843ntf    nn312513   2.536   5.740   5.883 -0.2327  0.3200  0.2431
 1843ntf    sn212514   2.614   5.778   6.014 -0.1325  0.1043  0.2456
 1843ntf    cn112515   2.551   5.948   6.021 -0.2843  0.0466  0.2926
 1843ntf    fn412516   2.554   5.458   5.965  0.6626 -0.0011 -0.0848
 1843ntf    fn412517   2.409   5.382   5.840  0.2372 -0.0848 -0.2970
 1843ntf    fn412518   2.582   5.487   5.760  0.2257 -0.0851  0.2045
 1843ntf    on512519   2.351   5.665   5.733  0.4630 -0.2884 -0.1474
 1843ntf    on512520   2.323   5.636   5.979 -0.0009 -0.2689 -0.0764
 1843ntf    on512521   2.754   5.797   5.985 -0.3029 -0.3118 -0.9304
 1843ntf    on512522   2.579   5.720   6.141 -0.2489  0.6236  0.4504
 1843ntf    fn412523   2.452   5.961   6.107 -0.3251 -0.4377  0.3212
 1843ntf    fn412524   2.640   6.038   6.061  0.1630 -0.1449 -0.2583
 1843ntf    fn412525   2.505   5.982   5.902 -0.1061 -0.3308  0.1133
 1844ntf    cn112526   0.424   2.175   0.300 -0.3315  0.2577  0.6615
 1844ntf    sn212527   0.599   2.223   0.287 -0.3479  0.2113  0.2750
 1844ntf    nn312528   0.583   2.284   0.143  0.4737  0.2035  0.1754
 1844ntf    sn212529   0.653   2.410   0.080  0.0980  0.2950 -0.0602
 1844ntf    cn112530   0.528   2.535   0.124 -0.1006  0.2388 -0.4573
 1844ntf    fn412531   0.393   2.075   0.220 -0.2769  0.5145  0.3177
 1844ntf    fn412532   0.397   2.125   0.419 -0.2213  0.1300  0.6333
 1844ntf    fn412533   0.348   2.283   0.294 -0.1730  0.3282 -0.3213
 1844ntf    on512534   0.608   2.317   0.396  0.7803  0.0679  0.3197
 1844ntf    on512535   0.659   2.092   0.283 -1.1856 -0.1878  0.7680
 1844ntf    on512536   0.654   2.411  -0.064 -0.7444  0.7363 -0.0693
 1844ntf    on512537   0.775   2.445   0.149  0.4416 -0.2946 -0.3627
 1844ntf    fn412538   0.555   2.654   0.073 -0.0497  0.3052 -0.2755
 1844ntf    fn412539   0.406   2.499   0.088 -0.2829  0.4438 -0.0495
 1844ntf    fn412540   0.531   2.551   0.255  0.0528  0.1001 -0.4435
 1845ntf    cn112541   1.459   2.268   1.121  0.3043 -0.0693  0.0728
 1845ntf    sn212542   1.485   2.440   1.174 -0.1186 -0.0735  0.2964
 1845ntf    nn312543   1.474   2.425   1.330 -0.3161 -0.1480  0.2760
 1845ntf    sn212544   1.585   2.391   1.436 -0.2802 -0.0037  0.2844
 1845ntf    cn112545   1.585   2.553   1.519 -0.3111  0.2369 -0.1842
 1845ntf    fn412546   1.344   2.214   1.159 -0.0528  0.2658 -0.5144
 1845ntf    fn412547   1.471   2.244   0.992  0.1544  0.2692 -0.0044
 1845ntf    fn412548   1.550   2.193   1.181  0.3144  0.1520  0.3368
 1845ntf    on512549   1.607   2.480   1.110 -0.2463 -0.5384 -0.2516
 1845ntf    on512550   1.368   2.511   1.129  0.0149 -0.2361 -0.3122
 1845ntf    on512551   1.716   2.369   1.381 -0.1264  0.5497  0.4263
 1845ntf    on512552   1.531   2.292   1.526  0.4082 -0.0713  0.6326
 1845ntf    fn412553   1.588   2.659   1.441 -0.5894  0.1739 -0.2836
 1845ntf    fn412554   1.480   2.571   1.598 -0.3228 -0.0462 -0.1330
 1845ntf    fn412555   1.690   2.558   1.598 -0.4143 -0.8742  0.0348
 1846ntf    cn112556   6.043   2.820   4.223  0.6498  0.3171  0.1314
 1846ntf    sn212557   6.069   2.642   4.198  0.0772  0.2050  0.3071
 1846ntf    nn312558   6.222   2.614   4.222  0.0453 -0.2464  0.0026
 1846ntf    sn212559   6.286   2.577   4.360  0.0079 -0.4366 -0.0312
 1846ntf    cn112560   6.466   2.581   4.333 -0.0016 -0.1390 -0.0494
 1846ntf    fn412561   5.927   2.857   4.275  0.7830  0.1764  0.5262
 1846ntf    fn412562   6.131   2.862   4.311  0.4266  0.0797  0.4697
 1846ntf    fn412563   6.053   2.893   4.113  0.2951 -0.8590 -0.7077
 1846ntf    on512564   5.981   2.574   4.290 -0.0085  0.3498  0.3321
 1846ntf    on512565   6.043   2.615   4.058  0.9304 -0.0729  0.1967
 1846ntf    on512566   6.258   2.441   4.400  0.4792 -0.5962 -0.2375
 1846ntf    on512567   6.271   2.680   4.459  0.6618  0.2221 -0.6120
 1846ntf    fn412568   6.496   2.676   4.246 -0.1163  0.2706  0.3531
 1846ntf    fn412569   6.546   2.609   4.434 -0.5838  0.1598  0.3376
 1846ntf    fn412570   6.513   2.478   4.265 -0.0353 -0.1537 -0.0507
 1847ntf    cn112571   6.516   1.673   0.196  0.1032  0.0477  0.0224
 1847ntf    sn212572   6.529   1.661   0.015 -0.8378  0.3060 -0.0687
 1847ntf    nn312573   6.396   1.728  -0.034 -0.5683  0.7664 -0.1684
 1847ntf    sn212574   6.292   1.687  -0.144 -0.4548 -0.1530  0.0651
 1847ntf    cn112575   6.243   1.850  -0.208  0.3860  0.2656  0.4667
 1847ntf    fn412576   6.459   1.789   0.227 -0.2059 -0.1521  0.2024
 1847ntf    fn412577   6.438   1.580   0.249 -0.5640  0.3445 -0.4333
 1847ntf    fn412578   6.634   1.667   0.255  0.1038 -0.4656 -0.0262
 1847ntf    on512579   6.646   1.743   0.002  0.2043 -1.0969  0.1870
 1847ntf    on512580   6.543   1.520  -0.014 -0.6075  0.4489 -0.6540
 1847ntf    on512581   6.167   1.633  -0.097 -0.5682  0.5555  0.5767
 1847ntf    on512582   6.347   1.627  -0.264 -0.0730 -0.2216  0.2726
 1847ntf    fn412583   6.152   1.915  -0.139 -0.1530 -0.2666  0.2705
 1847ntf    fn412584   6.347   1.931  -0.209  0.3738  0.2804  0.3618
 1847ntf    fn412585   6.197   1.840  -0.332  0.7880 -0.0269  0.3372
 1848ntf    cn112586   0.047   6.264   0.201  0.0878 -0.0873 -0.2225
 1848ntf    sn212587   0.065   6.086   0.229  0.1818 -0.0296  0.0778
 1848ntf    nn312588  -0.032   6.026   0.121 -0.0017 -0.1339  0.2995
 1848ntf    sn212589  -0.037   5.881   0.062  0.1508 -0.0487  0.0769
 1848ntf    cn112590  -0.180   5.829   0.162  0.3774 -0.0010  0.4279
 1848ntf    fn412591   0.092   6.298   0.081 -0.1081 -0.4044 -0.3886
 1848ntf    fn412592  -0.082   6.291   0.188  0.0382 -0.0883  0.2446
 1848ntf    fn412593   0.102   6.345   0.289  0.0597 -0.3391  0.0265
 1848ntf    on512594   0.204   6.067   0.195  0.0936 -0.3851 -0.0862
 1848ntf    on512595   0.024   6.075   0.367  0.0755  0.6178  0.0978
 1848ntf    on512596   0.063   5.787   0.107  0.5789 -0.0521 -0.8597
 1848ntf    on512597  -0.091   5.869  -0.071  0.7101 -1.0731 -0.0672
 1848ntf    fn412598  -0.144   5.834   0.289 -0.2421  0.0752  0.6025
 1848ntf    fn412599  -0.281   5.913   0.149  0.4551 -0.0051 -0.2700
 1848ntf    fn412600  -0.227   5.708   0.139  0.0720  0.2469 -0.2899
 1849ntf    cn112601   6.710   1.127   1.289 -0.3716 -0.2786 -0.3479
 1849ntf    sn212602   6.568   1.074   1.389 -0.0405  0.0795  0.3201
 1849ntf    nn312603   6.553   0.924   1.343 -0.7397  0.2130  0.1108
 1849ntf    sn212604   6.458   0.868   1.231  0.0025  0.0787 -0.4570
 1849ntf    cn112605   6.312   0.831   1.333  0.2664 -0.6626 -0.3400
 1849ntf    fn412606   6.730   1.257   1.294  0.2838 -0.3692 -0.4938
 1849ntf    fn412607   6.826   1.069   1.315 -0.2936 -0.2423 -0.6159
 1849ntf    fn412608   6.676   1.104   1.163  0.1061  0.2205 -0.5710
 1849ntf    on512609   6.600   1.089   1.529 -0.7626  0.0117  0.4963
 1849ntf    on512610   6.463   1.160   1.341 -0.4778 -0.1726  0.8062
 1849ntf    on512611   6.504   0.738   1.187  0.3798 -0.0696  0.3423
 1849ntf    on512612   6.410   0.955   1.127 -0.2271 -0.2673 -0.6434
 1849ntf    fn412613   6.257   0.718   1.290 -0.3461 -0.3565 -0.3668
 1849ntf    fn412614   6.340   0.803   1.459  0.5259 -0.5262 -0.3683
 1849ntf    fn412615   6.219   0.924   1.341  0.9361 -0.0142 -0.0912
 1850ntf    cn112616   5.110   6.381   3.299 -0.2433  0.0544  0.3873
 1850ntf    sn212617   5.058   6.224   3.223  0.1683 -0.0455  0.3100
 1850ntf    nn312618   5.135   6.126   3.318  0.0118  0.1729  0.6655
 1850ntf    sn212619   5.281   6.070   3.303 -0.1877 -0.2158  0.1084
 1850ntf    cn112620   5.246   5.911   3.223  0.1072 -0.2681  0.0839
 1850ntf    fn412621   5.239   6.404   3.282 -0.1782 -0.6045 -0.0505
 1850ntf    fn412622   5.038   6.485   3.261 -0.7025 -0.2712  0.3475
 1850ntf    fn412623   5.096   6.389   3.430 -0.2751  1.1688  0.3192
 1850ntf    on512624   4.915   6.220   3.244  0.0543  0.2103 -0.3927
 1850ntf    on512625   5.101   6.228   3.085  0.8010  0.4120  0.5179
 1850ntf    on512626   5.328   6.031   3.434 -0.1251  0.2763  0.2369
 1850ntf    on512627   5.372   6.143   3.218 -0.2630 -0.1467  0.0867
 1850ntf    fn412628   5.364   5.851   3.222  0.0196 -0.4410  0.0272
 1850ntf    fn412629   5.154   5.837   3.282 -0.1318 -0.3501 -0.3911
 1850ntf    fn412630   5.198   5.918   3.100 -0.0874  0.0199  0.1755
 1851ntf    cn112631   5.435   1.595   4.804  0.2292 -0.4586 -0.1314
 1851ntf    sn212632   5.571   1.699   4.744 -0.5153  0.3205 -0.4888
 1851ntf    nn312633   5.503   1.813   4.660 -0.3197  0.2850 -0.6971
 1851ntf    sn212634   5.543   1.871   4.520  0.3073  0.6084 -0.3927
 1851ntf    cn112635   5.619   2.026   4.577  0.2842  0.5927 -0.3205
 1851ntf    fn412636   5.356   1.661   4.887  0.8573  0.2155 -0.0635
 1851ntf    fn412637   5.352   1.554   4.709  0.3753 -0.8568 -0.0914
 1851ntf    fn412638   5.478   1.491   4.874  0.3792  0.0811  0.5862
 1851ntf    on512639   5.627   1.751   4.866 -0.9312 -0.0758 -0.1257
 1851ntf    on512640   5.650   1.610   4.662 -0.1989 -0.1841  0.3482
 1851ntf    on512641   5.423   1.901   4.446  0.0452 -0.1461 -0.2843
 1851ntf    on512642   5.649   1.804   4.448  0.0566 -0.6730  0.3903
 1851ntf    fn412643   5.531   2.093   4.650  0.2121  0.3986 -0.2267
 1851ntf    fn412644   5.728   2.000   4.648 -0.5659 -0.5411  0.6249
 1851ntf    fn412645   5.648   2.113   4.482 -0.2173  0.2764 -0.7700
 1852ntf    cn112646   0.503   4.264   0.115  0.0452 -0.0450 -0.1253
 1852ntf    sn212647   0.601   4.176  -0.010  0.4401 -0.0852  0.2110
 1852ntf    nn312648   0.707   4.105   0.081  0.5322  0.3482  0.4428
 1852ntf    sn212649   0.768   3.963   0.055  0.2857  0.2880  0.1848
 1852ntf    cn112650   0.947   3.996   0.064  0.3717 -0.1429  0.0477
 1852ntf    fn412651   0.562   4.367   0.173  0.2700 -0.1024 -0.2529
 1852ntf    fn412652   0.392   4.314   0.061 -0.1707 -0.6081 -0.2142
 1852ntf    fn412653   0.453   4.182   0.206  0.4787  0.3035  0.4328
 1852ntf    on512654   0.502   4.092  -0.074  0.2979  0.3201 -0.1127
 1852ntf    on512655   0.667   4.283  -0.082  0.1950 -0.6887 -0.9436
 1852ntf    on512656   0.746   3.896  -0.070 -0.4917 -0.2913  0.6298
 1852ntf    on512657   0.737   3.874   0.164  0.1373  0.1617  0.0397
 1852ntf    fn412658   0.977   4.064   0.173  0.4494 -0.3785  0.1741
 1852ntf    fn412659   1.010   3.880   0.062  0.0855 -0.2971 -0.0833
 1852ntf    fn412660   0.990   4.055  -0.047 -0.5718 -0.2594 -0.3877
 1853ntf    cn112661   2.383   0.982   4.647 -0.2874 -0.0249  0.0698
 1853ntf    sn212662   2.283   0.857   4.733 -0.2408 -0.1589 -0.0711
 1853ntf    nn312663   2.285   0.751   4.617  0.4375 -0.1767 -0.0502
 1853ntf    sn212664   2.240   0.601   4.631  0.1496 -0.1089 -0.2381
 1853ntf    cn112665   2.163   0.596   4.466  0.0581  0.6615 -0.2213
 1853ntf    fn412666   2.498   0.924   4.616 -0.4891 -0.7578  0.6657
 1853ntf    fn412667   2.327   1.038   4.542 -0.1673 -0.1806 -0.0781
 1853ntf    fn412668   2.420   1.084   4.723 -0.4696  0.2515 -0.2093
 1853ntf    on512669   2.362   0.832   4.851 -0.5564 -0.2471  0.1235
 1853ntf    on512670   2.155   0.920   4.752 -0.0473  0.2727 -0.1886
 1853ntf    on512671   2.128   0.570   4.717 -0.3402  1.0403 -0.4482
 1853ntf    on512672   2.342   0.502   4.608  0.3696  0.1225 -0.2685
 1853ntf    fn412673   2.115   0.474   4.454  0.1882  0.5516  0.3128
 1853ntf    fn412674   2.062   0.681   4.454 -0.0163  0.5038 -0.6952
 1853ntf    fn412675   2.253   0.616   4.371  0.6632  0.2243  0.2467
 1854ntf    cn112676   0.094   6.886   5.382 -0.2486  0.3725  0.7706
 1854ntf    sn212677   0.247   6.960   5.317  0.0245 -0.5023  0.3927
 1854ntf    nn312678   0.322   6.993   5.451 -0.1967  0.4383  0.2952
 1854ntf    sn212679   0.455   7.071   5.475  0.0998 -0.0146  0.1312
 1854ntf    cn112680   0.562   6.930   5.515  0.5100  0.2881  0.1154
 1854ntf    fn412681   0.006   6.875   5.283  0.4943 -0.2314  0.1563
 1854ntf    fn412682   0.112   6.768   5.438 -0.1690  0.2088  0.4047
 1854ntf    fn412683   0.025   6.962   5.466 -0.2967  0.4696  0.6450
 1854ntf    on512684   0.307   6.855   5.239  0.2378  0.0264 -0.1598
 1854ntf    on512685   0.184   7.071   5.249 -0.0181 -0.6943  0.1185
 1854ntf    on512686   0.446   7.146   5.598 -0.3907 -0.2319  0.2284
 1854ntf    on512687   0.516   7.137   5.362  0.3960 -0.2714  0.1390
 1854ntf    fn412688   0.509   6.852   5.609  0.2378 -0.0877 -0.3465
 1854ntf    fn412689   0.576   6.843   5.416 -0.5465 -0.4728  0.6136
 1854ntf    fn412690   0.686   6.963   5.549  0.5857  0.0944  0.0300
 1855ntf    cn112691   3.996   1.751   5.401 -0.0710  0.1948  0.1016
 1855ntf    sn212692   3.858   1.863   5.439 -0.0240  0.1260  0.4842
 1855ntf    nn312693   3.839   1.863   5.595 -0.1626  0.3160  0.4681
 1855ntf    sn212694   3.930   1.946   5.692  0.1485  0.2539  0.2327
 1855ntf    cn112695   3.832   2.099   5.696  0.0922  0.2298 -0.1974
 1855ntf    fn412696   4.096   1.749   5.487 -0.4122  0.6021  0.5149
 1855ntf    fn412697   3.940   1.631   5.401 -0.0774  0.1976  0.0257
 1855ntf    fn412698   4.042   1.764   5.278 -0.1175  0.3017  0.0948
 1855ntf    on512699   3.901   1.988   5.381  0.0176 -0.0027  0.2376
 1855ntf    on512700   3.743   1.806   5.374  0.5552 -0.6891  0.1644
 1855ntf    on512701   4.055   1.997   5.641  0.2197 -0.3005 -0.1495
 1855ntf    on512702   3.921   1.894   5.826 -0.1074  0.2314  0.2065
 1855ntf    fn412703   3.707   2.069   5.726  0.0836  0.3546 -0.1053
 1855ntf    fn412704   3.861   2.190   5.788 -0.0012  0.1486 -0.0888
 1855ntf    fn412705   3.827   2.165   5.581 -0.5453  0.0515 -0.2748
 1856ntf    cn112706   4.302   3.530   6.047  0.3366 -0.4534 -0.0501
 1856ntf    sn212707   4.129   3.487   6.011  0.2136  0.1955 -0.2517
 1856ntf    nn312708   4.065   3.477   6.154 -0.5837 -0.0584 -0.6259
 1856ntf    sn212709   4.082   3.356   6.252  0.0567  0.4934 -0.0429
 1856ntf    cn112710   4.195   3.432   6.371  0.0207  0.5093 -0.0186
 1856ntf    fn412711   4.380   3.568   5.947  0.2047  0.2536  0.1084
 1856ntf    fn412712   4.309   3.629   6.135  0.2313 -0.4148 -0.0854
 1856ntf    fn412713   4.372   3.430   6.098  0.6897 -0.1534  0.0648
 1856ntf    on512714   4.098   3.608   5.939  0.8349  0.0835 -0.7175
 1856ntf    on512715   4.145   3.363   5.939  0.3349  0.3160 -0.4327
 1856ntf    on512716   4.159   3.245   6.200  0.0391  0.3051  0.3341
 1856ntf    on512717   3.961   3.326   6.325  0.2835 -0.1451  0.0780
 1856ntf    fn412718   4.192   3.370   6.488 -0.1377 -0.5222 -0.5613
 1856ntf    fn412719   4.318   3.417   6.324  0.1553 -0.0562  0.4964
 1856ntf    fn412720   4.177   3.559   6.405 -0.0528  0.3849  0.4112
 1857ntf    cn112721   6.266   0.696   2.937 -0.1943 -0.0399  0.6415
 1857ntf    sn212722   6.287   0.601   2.784 -0.3038  0.2867  0.4207
 1857ntf    nn312723   6.309   0.452   2.828  0.3009  0.0829 -0.5198
 1857ntf    sn212724   6.263   0.317   2.761 -0.0026 -0.0940  0.0298
 1857ntf    cn112725   6.143   0.275   2.891 -0.4570 -0.0671 -0.3776
 1857ntf    fn412726   6.173   0.635   3.008 -0.0998 -0.1686  0.6540
 1857ntf    fn412727   6.370   0.706   3.017  0.2717 -0.1100  0.0556
 1857ntf    fn412728   6.211   0.815   2.914  0.0224 -0.1053 -0.2836
 1857ntf    on512729   6.160   0.624   2.719 -0.2929 -0.2390  0.2054
 1857ntf    on512730   6.409   0.647   2.723 -0.6646 -0.0303 -0.5678
 1857ntf    on512731   6.355   0.207   2.775  0.4455  0.1977 -0.5520
 1857ntf    on512732   6.179   0.331   2.645 -0.0454 -0.0189  0.0698
 1857ntf    fn412733   6.072   0.167   2.864 -0.2461 -0.2286 -0.2953
 1857ntf    fn412734   6.199   0.253   3.009 -0.3588  0.2784 -0.3607
 1857ntf    fn412735   6.048   0.364   2.910 -0.3844 -0.0584 -0.0544
 1858ntf    cn112736   1.841   6.913   4.818  0.0675  0.2020 -0.1109
 1858ntf    sn212737   1.829   6.752   4.735 -0.0277  0.1428  0.0168
 1858ntf    nn312738   1.968   6.690   4.774  0.0550  0.4426  0.2082
 1858ntf    sn212739   2.085   6.646   4.679 -0.1183 -0.0523  0.2185
 1858ntf    cn112740   2.054   6.469   4.654  0.1223 -0.1477  0.5873
 1858ntf    fn412741   1.724   6.973   4.808  0.1715  0.3521 -0.4243
 1858ntf    fn412742   1.860   6.900   4.949 -0.6980 -0.1900 -0.0363
 1858ntf    fn412743   1.936   6.995   4.775  0.1334  0.0786 -0.1987
 1858ntf    on512744   1.717   6.686   4.797  0.0358  0.0390  0.0204
 1858ntf    on512745   1.812   6.794   4.598 -0.3260 -0.4058 -0.1152
 1858ntf    on512746   2.211   6.632   4.748 -0.0433 -0.3550  0.0229
 1858ntf    on512747   2.094   6.692   4.543 -0.1398 -0.1809  0.1741
 1858ntf    fn412748   2.081   6.432   4.529  0.2195  0.1304  0.5259
 1858ntf    fn412749   2.118   6.388   4.737  0.0598 -0.7798  0.0313
 1858ntf    fn412750   1.928   6.435   4.671  0.0373  0.0374  0.3320
 1859ntf    cn112751   4.221   6.484   0.506  0.3974  0.2415  0.2079
 1859ntf    sn212752   4.210   6.594   0.651  0.2896  0.0296  0.3611
 1859ntf    nn312753   4.098   6.533   0.743 -0.1891 -0.2024 -0.3640
 1859ntf    sn212754   4.112   6.453   0.877  0.0886  0.0211 -0.2576
 1859ntf    cn112755   3.937   6.403   0.876 -0.0419  0.4823 -0.5205
 1859ntf    fn412756   4.285   6.550   0.411  0.0291 -0.2445 -0.3774
 1859ntf    fn412757   4.278   6.369   0.536  0.0260  0.0359  0.1299
 1859ntf    fn412758   4.099   6.471   0.457  0.6788 -0.9198 -0.2075
 1859ntf    on512759   4.341   6.578   0.708  0.1451 -0.5097  0.5498
 1859ntf    on512760   4.183   6.726   0.598  0.5975  0.0317  0.2110
 1859ntf    on512761   4.114   6.530   0.999 -0.8056 -0.1118 -0.1497
 1859ntf    on512762   4.177   6.325   0.873  0.2709  0.0965  0.1803
 1859ntf    fn412763   3.898   6.335   0.769  0.0114 -0.5288  0.0929
 1859ntf    fn412764   3.916   6.332   0.986  0.0353  0.3287 -0.6054
 1859ntf    fn412765   3.855   6.507   0.889  0.4773  0.8862 -0.4457
 1860ntf    cn112766   1.895   5.833   3.164  0.0870  0.4869  0.2033
 1860ntf    sn212767   1.748   5.855   3.268  0.2315  0.1645  0.4760
 1860ntf    nn312768   1.638   5.765   3.202  0.3693  0.4807 -0.1895
 1860ntf    sn212769   1.534   5.795   3.088  0.0467  0.0941 -0.0007
 1860ntf    cn112770   1.553   5.643   2.990  0.6111 -0.0655  0.3511
 1860ntf    fn412771   1.910   5.709   3.119 -0.5613  0.3872  0.2603
 1860ntf    fn412772   1.882   5.914   3.060 -0.0738  0.3926  0.1492
 1860ntf    fn412773   2.006   5.869   3.226  0.0703 -0.5525  0.8579
 1860ntf    on512774   1.790   5.805   3.397 -0.0373 -0.4235  0.3366
 1860ntf    on512775   1.719   5.996   3.265 -0.5085  0.0076  0.2284
 1860ntf    on512776   1.575   5.892   2.989  0.4598 -0.2413 -0.1619
 1860ntf    on512777   1.398   5.793   3.134  0.0888 -0.2662  0.1139
 1860ntf    fn412778   1.458   5.629   2.900  0.9180  0.3700 -0.0451
 1860ntf    fn412779   1.672   5.624   2.936  0.4926 -0.0566  0.0836
 1860ntf    fn412780   1.530   5.540   3.071  0.2502 -0.4934 -0.2842
 1861ntf    cn112781   2.266   4.066   1.366 -0.0138  0.2261 -0.0334
 1861ntf    sn212782   2.115   3.979   1.316  0.2934 -0.3108 -0.0394
 1861ntf    nn312783   2.013   4.099   1.308  0.3130 -0.2903  0.0162
 1861ntf    sn212784   1.940   4.183   1.197  0.3429 -0.3090 -0.0177
 1861ntf    cn112785   1.763   4.158   1.229  0.3342  0.3501  0.4662
 1861ntf    fn412786   2.366   3.981   1.386 -0.2363 -0.0221  0.0309
 1861ntf    fn412787   2.300   4.155   1.274  0.4756  0.4398  0.3490
 1861ntf    fn412788   2.253   4.128   1.483 -0.1122 -0.3420  0.2586
 1861ntf    on512789   2.154   3.920   1.190 -0.6061 -0.5505 -0.2154
 1861ntf    on512790   2.091   3.893   1.429 -0.3706 -0.5849 -0.3833
 1861ntf    on512791   1.948   4.147   1.058 -0.2242  0.3454 -0.2243
 1861ntf    on512792   1.964   4.322   1.226  0.3854 -0.3403  0.0973
 1861ntf    fn412793   1.737   4.222   1.342  0.1108 -0.1378  0.6946
 1861ntf    fn412794   1.690   4.208   1.130  0.6835  0.0960  0.0762
 1861ntf    fn412795   1.721   4.033   1.230 -0.2253  0.5305  0.2569
 1862ntf    cn112796   4.616   2.818   3.613  0.2110  0.3359 -0.0373
 1862ntf    sn212797   4.450   2.813   3.540  0.1932  0.1233  0.0191
 1862ntf    nn312798   4.476   2.714   3.421  0.1794 -0.3234  0.3885
 1862ntf    sn212799   4.443   2.561   3.410 -0.4466 -0.1530 -0.1331
 1862ntf    cn112800   4.280   2.563   3.330 -0.3671  0.1654 -0.2875
 1862ntf    fn412801   4.711   2.865   3.534  0.3035  0.5510  0.1984
 1862ntf    fn412802   4.620   2.882   3.729  0.1315  0.8531 -0.3160
 1862ntf    fn412803   4.648   2.691   3.630 -0.3312  0.1852 -0.1347
 1862ntf    on512804   4.358   2.776   3.644 -0.5016  0.0632 -0.6085
 1862ntf    on512805   4.427   2.946   3.487 -0.2334 -0.3145 -0.9247
 1862ntf    on512806   4.427   2.495   3.538 -0.3845  0.2328  0.0758
 1862ntf    on512807   4.526   2.493   3.314 -0.0335  0.1065  0.0391
 1862ntf    fn412808   4.215   2.448   3.326 -0.4391  0.1995 -0.0867
 1862ntf    fn412809   4.204   2.655   3.385 -0.2363  0.5189 -0.6912
 1862ntf    fn412810   4.302   2.602   3.206  0.3937  0.3218 -0.1034
 1863ntf    cn112811   5.919   2.341   3.205 -0.5724 -0.0183 -0.0641
 1863ntf    sn212812   5.901   2.318   3.026 -0.0770 -0.5051 -0.0550
 1863ntf    nn312813   5.744   2.318   3.021 -0.0885  0.3186  0.1741
 1863ntf    sn212814   5.637   2.429   2.991  0.1561  0.4378 -0.2684
 1863ntf    cn112815   5.588   2.386   2.822 -0.1874 -0.5992  0.0868
 1863ntf    fn412816   6.047   2.343   3.241 -0.5512  0.1158 -0.1447
 1863ntf    fn412817   5.854   2.446   3.254 -0.3083  0.0170  0.2186
 1863ntf    fn412818   5.870   2.247   3.284  0.0091 -0.6080 -0.4021
 1863ntf    on512819   5.965   2.425   2.953  0.4641 -0.6283  0.2377
 1863ntf    on512820   5.957   2.186   3.007  0.0167 -0.5522  0.5326
 1863ntf    on512821   5.680   2.566   2.980  0.9356  0.2194 -0.0052
 1863ntf    on512822   5.517   2.405   3.068  0.3613 -0.0406 -0.0913
 1863ntf    fn412823   5.520   2.486   2.768  0.7605  0.1791  0.3080
 1863ntf    fn412824   5.690   2.373   2.737  0.0576  0.3346  0.2217
 1863ntf    fn412825   5.511   2.279   2.822 -0.7661 -0.1922 -0.5299
 1864ntf    cn112826   5.780   4.450   4.486 -0.0026  0.4838  0.0162
 1864ntf    sn212827   5.721   4.401   4.320  0.3467  0.2335 -0.0345
 1864ntf    nn312828   5.710   4.246   4.342 -0.6314  0.3128  0.0740
 1864ntf    sn212829   5.670   4.142   4.231  0.0799  0.4819 -0.3465
 1864ntf    cn112830   5.833   4.078   4.184 -0.2342 -0.4941 -0.1263
 1864ntf    fn412831   5.689   4.411   4.573 -0.1415 -0.3071 -0.4720
 1864ntf    fn412832   5.885   4.374   4.514 -0.0533  0.5910  0.4991
 1864ntf    fn412833   5.829   4.572   4.501  0.1417  0.4820 -0.4146
 1864ntf    on512834   5.587   4.454   4.315 -0.1085 -0.9327 -0.3992
 1864ntf    on512835   5.819   4.455   4.229  0.3221  0.5419  0.1172
 1864ntf    on512836   5.610   4.192   4.110 -1.1576 -0.5229 -0.1692
 1864ntf    on512837   5.616   4.031   4.305  0.5862  0.1360 -0.4861
 1864ntf    fn412838   5.891   4.013   4.284 -0.2695 -0.0460  0.1881
 1864ntf    fn412839   5.838   3.994   4.082 -0.3955 -0.0321 -0.5203
 1864ntf    fn412840   5.908   4.182   4.152 -0.6487 -0.1278  0.0905
 1865ntf    cn112841   5.447   1.664   0.100 -0.1122  0.1270  0.1601
 1865ntf    sn212842   5.541   1.509   0.088 -0.1288  0.1438 -0.1838
 1865ntf    nn312843   5.673   1.558   0.158 -0.1092 -0.5611  0.2788
 1865ntf    sn212844   5.705   1.538   0.310 -0.1842 -0.1411  0.3496
 1865ntf    cn112845   5.785   1.375   0.318  0.1390  0.0002  0.0022
 1865ntf    fn412846   5.508   1.748   0.018  0.0982 -0.7000 -0.5337
 1865ntf    fn412847   5.319   1.661   0.067 -0.2333 -0.3722  0.6604
 1865ntf    fn412848   5.464   1.714   0.222 -0.1622 -0.3079  0.3480
 1865ntf    on512849   5.470   1.398   0.146  0.2156  0.0029 -0.0332
 1865ntf    on512850   5.570   1.510  -0.053  0.2994 -0.3723 -0.1024
 1865ntf    on512851   5.601   1.541   0.410  0.0161 -0.0819  0.5565
 1865ntf    on512852   5.806   1.637   0.334 -0.1944 -0.0289 -0.0580
 1865ntf    fn412853   5.859   1.371   0.428 -0.4674 -0.4123  0.4008
 1865ntf    fn412854   5.703   1.272   0.319  0.3860 -0.1947  0.2723
 1865ntf    fn412855   5.868   1.356   0.217 -0.1252  0.6145 -0.3339
 1866ntf    cn112856   3.103   2.915   1.009  0.0665  0.0115 -0.0091
 1866ntf    sn212857   3.106   2.772   0.896  0.0623 -0.1606  0.2077
 1866ntf    nn312858   2.955   2.759   0.857  0.2023 -0.1675 -0.3360
 1866ntf    sn212859   2.904   2.667   0.740 -0.5903  0.0678 -0.1866
 1866ntf    cn112860   2.852   2.528   0.844 -0.5099 -0.0352 -0.2837
 1866ntf    fn412861   2.996   2.918   1.088 -0.0192  0.4415 -0.1387
 1866ntf    fn412862   3.202   2.900   1.095  0.0633 -0.0019 -0.0077
 1866ntf    fn412863   3.117   3.033   0.952  0.0377  0.1007  0.1683
 1866ntf    on512864   3.195   2.824   0.795  0.4050 -0.4626  0.3552
 1866ntf    on512865   3.154   2.672   0.989 -0.1339 -0.3402  0.1158
 1866ntf    on512866   3.010   2.612   0.659 -0.2735  0.3247  0.0512
 1866ntf    on512867   2.785   2.720   0.679 -0.3645  0.3422 -0.3943
 1866ntf    fn412868   2.953   2.449   0.879 -0.0240  0.0469 -1.4544
 1866ntf    fn412869   2.799   2.566   0.959  0.1629  0.1504 -0.0274
 1866ntf    fn412870   2.768   2.458   0.770 -0.2930  0.0156 -0.5823
 1867ntf    cn112871   6.248   5.048   3.344 -0.3484  0.1411  0.4370
 1867ntf    sn212872   6.204   4.981   3.180 -0.1057  0.3743  0.2763
 1867ntf    nn312873   6.275   4.841   3.188  0.4194  0.6384  0.2733
 1867ntf    sn212874   6.211   4.699   3.165  0.4165  0.6717  0.0656
 1867ntf    cn112875   6.349   4.597   3.225 -0.3434 -0.4077 -0.0036
 1867ntf    fn412876   6.161   5.015   3.438 -0.9154 -0.5835 -0.3241
 1867ntf    fn412877   6.371   5.015   3.379 -0.4669 -0.5263  0.2385
 1867ntf    fn412878   6.247   5.180   3.342  0.5158  0.1428 -0.0798
 1867ntf    on512879   6.060   4.976   3.176 -0.0831  0.0396 -0.1664
 1867ntf    on512880   6.270   5.070   3.089  0.7739  0.0479  0.5805
 1867ntf    on512881   6.203   4.645   3.032 -0.1731  0.1995  0.2869
 1867ntf    on512882   6.099   4.673   3.252  0.3774 -0.3623 -0.2838
 1867ntf    fn412883   6.377   4.616   3.353  0.0427  0.0075 -0.1482
 1867ntf    fn412884   6.329   4.466   3.223  0.0144 -0.4563 -0.8455
 1867ntf    fn412885   6.462   4.612   3.157 -0.5034  0.3841 -0.1069
 1868ntf    cn112886   4.923   3.667   6.225  0.2677 -0.3552  0.1192
 1868ntf    sn212887   4.888   3.838   6.277  0.3880 -0.3432  0.1606
 1868ntf    nn312888   4.747   3.808   6.338  0.2712  0.3028  0.2165
 1868ntf    sn212889   4.670   3.864   6.463  0.4864 -0.3811  0.6635
 1868ntf    cn112890   4.551   3.731   6.498 -0.0979 -0.0570 -0.0593
 1868ntf    fn412891   4.837   3.627   6.134  0.0315 -0.4187  0.3698
 1868ntf    fn412892   5.038   3.641   6.166  0.4709  0.1845  0.2689
 1868ntf    fn412893   4.907   3.584   6.327 -0.5435 -0.0106  0.2845
 1868ntf    on512894   4.998   3.858   6.369  0.4683 -0.1895  0.0318
 1868ntf    on512895   4.894   3.912   6.153  0.1258 -0.0435  0.3261
 1868ntf    on512896   4.584   3.978   6.439  0.3025 -0.7293 -0.3798
 1868ntf    on512897   4.752   3.867   6.582  0.3410 -1.1280  0.7857
 1868ntf    fn412898   4.613   3.615   6.516  0.2888  0.1687  0.0809
 1868ntf    fn412899   4.471   3.771   6.595 -0.0101 -0.1161  0.0370
 1868ntf    fn412900   4.473   3.715   6.392  0.5217  0.2580 -0.5743
 1869ntf    cn112901   0.893   1.715   3.624 -0.1366  0.0412  0.2537
 1869ntf    sn212902   0.754   1.828   3.653 -0.1543  0.0456  0.1504
 1869ntf    nn312903   0.630   1.741   3.612  0.5392 -0.9903  0.2180
 1869ntf    sn212904   0.511   1.701   3.706  0.0351 -0.2150 -0.0798
 1869ntf    cn112905   0.385   1.657   3.583  0.1060 -0.0465 -0.2135
 1869ntf    fn412906   1.009   1.779   3.618  0.0003 -0.1659  0.6498
 1869ntf    fn412907   0.902   1.621   3.717 -0.5189 -0.3615 -0.1130
 1869ntf    fn412908   0.891   1.648   3.510  0.5209 -0.7757  0.7062
 1869ntf    on512909   0.772   1.861   3.792  0.1620 -0.4515  0.2293
 1869ntf    on512910   0.781   1.936   3.560  0.0527 -0.2850 -0.1756
 1869ntf    on512911   0.443   1.811   3.769  0.4299 -0.2311  0.3815
 1869ntf    on512912   0.524   1.585   3.791 -0.0540 -0.2256 -0.0809
 1869ntf    fn412913   0.364   1.759   3.502  0.1191 -0.0670 -0.2430
 1869ntf    fn412914   0.417   1.555   3.505 -0.0837 -0.0448 -0.2934
 1869ntf    fn412915   0.266   1.627   3.632  0.3198 -1.0195 -0.2628
 1870ntf    cn112916   2.308   5.940   3.032  0.2255  0.4893 -0.2019
 1870ntf    sn212917   2.435   6.066   2.999  0.4983  0.2323 -0.1493
 1870ntf    nn312918   2.566   5.987   3.033  0.2830  0.0101  0.1802
 1870ntf    sn212919   2.657   5.914   2.927  0.3153  0.3927 -0.0598
 1870ntf    cn112920   2.742   5.799   3.039  0.0646  0.4606  0.2021
 1870ntf    fn412921   2.188   5.994   3.029 -0.0412 -0.1141 -0.7058
 1870ntf    fn412922   2.318   5.851   2.934  0.0024 -0.1384  0.3345
 1870ntf    fn412923   2.311   5.885   3.153 -0.5063 -0.0404 -0.4196
 1870ntf    on512924   2.414   6.098   2.860  0.4162 -1.1283 -0.4636
 1870ntf    on512925   2.407   6.163   3.102  0.3412 -0.3700  0.3839
 1870ntf    on512926   2.763   5.999   2.880 -0.1190  0.9104 -0.1179
 1870ntf    on512927   2.595   5.816   2.841  0.7498  0.0865 -0.0265
 1870ntf    fn412928   2.841   5.843   3.116  0.1447  0.4172  0.1242
 1870ntf    fn412929   2.657   5.734   3.117  0.8535 -0.2345  0.5028
 1870ntf    fn412930   2.809   5.702   2.979 -0.0476  0.5301 -0.0364
 1871ntf    cn112931   0.859   5.456   5.556 -0.1395 -0.1377 -0.1469
 1871ntf    sn212932   0.976   5.334   5.623  0.3475  0.3375 -0.1240
 1871ntf    nn312933   0.882   5.248   5.714  0.1772  0.6680  0.0164
 1871ntf    sn212934   0.865   5.092   5.706  0.2013  0.6631  0.0672
 1871ntf    cn112935   1.022   5.035   5.778 -0.2084 -0.3609  0.1712
 1871ntf    fn412936   0.916   5.552   5.484 -0.7747  0.1954 -0.2208
 1871ntf    fn412937   0.787   5.385   5.470  0.2516 -0.6436 -0.0572
 1871ntf    fn412938   0.787   5.522   5.645 -0.1833 -0.4714  0.0653
 1871ntf    on512939   1.028   5.264   5.508 -0.2934 -0.1771 -0.1036
 1871ntf    on512940   1.060   5.427   5.694 -0.0724  0.0790  0.7188
 1871ntf    on512941   0.861   5.031   5.575 -0.4877  0.7850  0.0290
 1871ntf    on512942   0.765   5.052   5.801  0.6378  0.9649  0.6631
 1871ntf    fn412943   1.023   4.904   5.796  0.3127 -0.3452  0.2810
 1871ntf    fn412944   1.123   5.068   5.699 -0.2007  0.7288  0.6212
 1871ntf    fn412945   1.045   5.087   5.898  0.5726 -0.8320  0.2380
 1872ntf    cn112946   0.159   6.492   6.329 -0.3268  0.2102 -0.0393
 1872ntf    sn212947   0.022   6.509   6.211 -0.2083 -0.0554 -0.2135
 1872ntf    nn312948   0.107   6.571   6.094  0.1209  0.3070  0.2162
 1872ntf    sn212949   0.060   6.685   5.996 -0.2624  0.1188  0.1763
 1872ntf    cn112950   0.187   6.646   5.872 -0.0763 -0.1746  0.4559
 1872ntf    fn412951   0.192   6.606   6.389 -0.0380 -0.0264  0.2505
 1872ntf    fn412952   0.140   6.407   6.428 -0.1217  0.1327 -0.0649
 1872ntf    fn412953   0.268   6.445   6.271 -0.0288  0.5255  0.2582
 1872ntf    on512954  -0.023   6.374   6.184 -0.3036 -0.2948  1.0879
 1872ntf    on512955  -0.085   6.586   6.269  0.2614  0.5933 -0.2011
 1872ntf    on512956   0.096   6.818   6.040  0.1682  0.0632 -0.0038
 1872ntf    on512957  -0.066   6.662   5.930 -0.3935  0.1518  0.4120
 1872ntf    fn412958   0.188   6.739   5.778 -0.9239 -0.8042 -0.1889
 1872ntf    fn412959   0.307   6.651   5.927  0.2107  0.8837 -0.2321
 1872ntf    fn412960   0.171   6.531   5.809 -0.2480  0.0963  0.0013
 1873ntf    cn112961   4.098   1.729   0.888  0.3114 -0.1084 -0.3482
 1873ntf    sn212962   4.055   1.663   0.724  0.1446  0.0309 -0.3611
 1873ntf    nn312963   3.917   1.736   0.706  0.1882  0.2244  0.0638
 1873ntf    sn212964   3.855   1.818   0.587 -0.3069  0.1821  0.2919
 1873ntf    cn112965   3.716   1.711   0.540  0.1611 -0.3180  0.0309
 1873ntf    fn412966   4.138   1.856   0.887  0.0840 -0.0281  0.2904
 1873ntf    fn412967   3.991   1.730   0.966  0.3398 -0.5744 -0.3046
 1873ntf    fn412968   4.180   1.653   0.958 -0.6265 -1.2228 -0.4357
 1873ntf    on512969   4.165   1.717   0.648  0.5022  0.2308  0.2896
 1873ntf    on512970   4.051   1.519   0.733  0.5976  0.0662  0.6136
 1873ntf    on512971   3.935   1.816   0.467 -0.2052  0.4951  0.3536
 1873ntf    on512972   3.791   1.939   0.632  0.6262  0.6415  0.4230
 1873ntf    fn412973   3.643   1.656   0.636 -0.5914  0.2009 -0.2317
 1873ntf    fn412974   3.629   1.779   0.468  0.8670 -0.0533 -0.5754
 1873ntf    fn412975   3.744   1.602   0.470  0.0655 -0.1670 -0.2440
 1874ntf    cn112976   2.183   2.066   1.160 -0.1793  0.6783 -0.0141
 1874ntf    sn212977   2.143   2.024   0.988 -0.0985  0.2517  0.0701
 1874ntf    nn312978   2.260   2.091   0.908  0.1576  0.0069  0.2353
 1874ntf    sn212979   2.254   2.216   0.813 -0.0273  0.0814  0.3438
 1874ntf    cn112980   2.303   2.147   0.652 -0.0009  0.2506  0.2788
 1874ntf    fn412981   2.094   2.022   1.248  0.3303  0.0258  0.1851
 1874ntf    fn412982   2.301   2.024   1.203 -0.3407  0.3674  0.1380
 1874ntf    fn412983   2.188   2.197   1.177  1.0597  0.6651 -0.2178
 1874ntf    on512984   2.166   1.882   0.976  0.1241  0.2444  0.5562
 1874ntf    on512985   2.009   2.073   0.971  0.0690  0.6351 -0.1547
 1874ntf    on512986   2.359   2.312   0.841 -0.1859  0.3441  0.0490
 1874ntf    on512987   2.126   2.277   0.786  0.4249  0.7787 -0.2749
 1874ntf    fn412988   2.231   2.041   0.620 -0.0603  0.4992 -0.4141
 1874ntf    fn412989   2.274   2.227   0.551  0.1496 -0.1804 -0.1124
 1874ntf    fn412990   2.430   2.118   0.628 -0.1735 -0.2000 -0.1177
 1875ntf    cn112991   3.052   6.223   1.210  0.1837  0.0447  0.1932
 1875ntf    sn212992   3.047   6.270   1.034  0.0733 -0.2650  0.1123
 1875ntf    nn312993   2.944   6.387   1.049  0.2013 -0.0941 -0.3137
 1875ntf    sn212994   2.824   6.422   0.954  0.0487  0.1445 -0.0396
 1875ntf    cn112995   2.682   6.336   1.028 -0.0528  0.1935 -0.1767
 1875ntf    fn412996   2.932   6.196   1.260 -0.0188  0.0249 -0.2915
 1875ntf    fn412997   3.121   6.113   1.229 -0.2868 -0.2319  0.3172
 1875ntf    fn412998   3.104   6.316   1.288  0.1000  0.5414 -0.3311
 1875ntf    on512999   3.183   6.311   1.009  0.0764 -0.3073  0.0613
 1875ntf    on513000   3.003   6.143   0.983 -0.1647 -0.1689  0.0772
 1875ntf    on513001   2.844   6.374   0.819 -0.4755 -0.0875 -0.0373
 1875ntf    on513002   2.781   6.557   0.980 -0.0644  0.0661  0.1812
 1875ntf    fn413003   2.669   6.211   0.985 -0.0935  0.1482 -0.0324
 1875ntf    fn413004   2.690   6.329   1.159 -0.3934  0.0745 -0.1595
 1875ntf    fn413005   2.567   6.396   1.002 -0.2391  0.1300  0.5024
 1876ntf    cn113006   2.413   3.549   3.713  0.0631  0.5188 -0.2538
 1876ntf    sn213007   2.497   3.531   3.873  0.3215 -0.0011 -0.4470
 1876ntf    nn313008   2.544   3.382   3.854  0.4960 -0.0327  0.2097
 1876ntf    sn213009   2.577   3.268   3.957 -0.2593 -0.4168  0.0348
 1876ntf    cn113010   2.720   3.200   3.868 -0.3146  0.2608 -0.5863
 1876ntf    fn413011   2.325   3.450   3.705 -0.0547  0.5908  0.1124
 1876ntf    fn413012   2.341   3.657   3.689 -0.8454  0.0015  0.0833
 1876ntf    fn413013   2.500   3.541   3.614 -0.4271 -0.5566 -0.6062
 1876ntf    on513014   2.607   3.625   3.868  0.8687 -0.6048  0.0632
 1876ntf    on513015   2.389   3.539   3.967  0.2078 -0.0545 -0.5734
 1876ntf    on513016   2.481   3.161   3.959 -0.7775  0.0364 -0.3445
 1876ntf    on513017   2.628   3.317   4.083  0.2236 -0.4704 -0.1386
 1876ntf    fn413018   2.786   3.130   3.959 -0.5876  0.2374 -0.4047
 1876ntf    fn413019   2.690   3.129   3.760  0.1760 -0.7916 -0.0527
 1876ntf    fn413020   2.820   3.280   3.837  0.3326 -0.5252 -0.5511
 1877ntf    cn113021   2.078   3.524   5.799  0.1818 -0.3020  0.0820
 1877ntf    sn213022   2.140   3.691   5.831 -0.2731 -0.2135  0.5241
 1877ntf    nn313023   2.015   3.778   5.792 -0.3059 -0.4423  0.1209
 1877ntf    sn213024   1.949   3.907   5.852  0.0052 -0.2119 -0.0281
 1877ntf    cn113025   1.825   3.831   5.960  0.3130  0.0738  0.5272
 1877ntf    fn413026   2.172   3.438   5.765  0.0255 -0.4611  0.0473
 1877ntf    fn413027   2.016   3.476   5.906 -0.0649 -0.0949  0.0338
 1877ntf    fn413028   1.989   3.522   5.701 -0.3178 -0.1281  0.5251
 1877ntf    on513029   2.180   3.688   5.970 -0.0947 -0.7187  0.4640
 1877ntf    on513030   2.249   3.711   5.739 -0.8116 -0.6701 -0.2157
 1877ntf    on513031   1.865   3.974   5.755 -0.5732 -0.6939  0.1340
 1877ntf    on513032   2.024   3.985   5.947 -0.2242  0.1229 -0.1195
 1877ntf    fn413033   1.722   3.913   5.974  0.3990  0.3597 -0.4537
 1877ntf    fn413034   1.795   3.717   5.900  0.4059  0.1210  0.3924
 1877ntf    fn413035   1.871   3.789   6.077  0.8072 -0.4108  0.1593
 1878ntf    cn113036   2.076   1.263   3.523  0.3428  0.1182 -0.1486
 1878ntf    sn213037   2.221   1.233   3.418  0.3635 -0.1085 -0.0558
 1878ntf    nn313038   2.172   1.295   3.282  0.2680  0.2506  0.1420
 1878ntf    sn213039   2.192   1.441   3.230 -0.1673  0.2438 -0.0476
 1878ntf    cn113040   2.341   1.403   3.133 -0.2432  0.0618 -0.0930
 1878ntf    fn413041   2.045   1.391   3.532  0.2597  0.0861  0.0273
 1878ntf    fn413042   1.965   1.207   3.479  0.3621  0.2533 -0.3702
 1878ntf    fn413043   2.092   1.220   3.647 -0.1434  0.2351 -0.0439
 1878ntf    on513044   2.336   1.292   3.482  0.0839  0.2382  0.1278
 1878ntf    on513045   2.223   1.089   3.404  0.1613 -0.1238  0.0653
 1878ntf    on513046   2.235   1.540   3.325  0.2490 -0.0415  0.0629
 1878ntf    on513047   2.103   1.491   3.128 -0.1680 -0.7756 -0.5539
 1878ntf    fn413048   2.324   1.316   3.035  0.2269 -0.1608  0.0171
 1878ntf    fn413049   2.383   1.509   3.067  0.2749 -0.0074  0.1134
 1878ntf    fn413050   2.442   1.356   3.205  0.2445  0.3504 -0.5788
 1879ntf    cn113051   0.838   4.944   4.850 -0.1362  0.1313  0.3899
 1879ntf    sn213052   0.839   5.035   5.007  0.0900  0.4479  0.2064
 1879ntf    nn313053   0.692   5.026   5.062  0.0511  1.0548  0.2075
 1879ntf    sn213054   0.654   5.032   5.214 -0.1687  0.2854  0.1880
 1879ntf    cn113055   0.541   5.174   5.211 -0.0705  0.3614  0.0520
 1879ntf    fn413056   0.962   4.908   4.819 -0.3310 -0.1880 -0.0287
 1879ntf    fn413057   0.765   4.835   4.868  0.3066 -0.3229 -0.4889
 1879ntf    fn413058   0.780   5.013   4.753  0.4250 -0.2396 -0.2210
 1879ntf    on513059   0.944   4.976   5.087  0.3032  0.2272 -0.2344
 1879ntf    on513060   0.858   5.173   4.971 -0.0131  0.3355 -0.2799
 1879ntf    on513061   0.759   5.061   5.309 -0.2506 -0.4287  0.5047
 1879ntf    on513062   0.565   4.924   5.245  0.2071  0.0405  0.4201
 1879ntf    fn413063   0.451   5.155   5.116 -0.4465  0.2423  0.4244
 1879ntf    fn413064   0.470   5.186   5.322 -0.2018 -0.4267  0.0566
 1879ntf    fn413065   0.607   5.287   5.188 -0.4667  0.6120  0.1288
 1880ntf    cn113066   1.235   4.485   2.286 -0.3976  0.0202  0.3143
 1880ntf    sn213067   1.217   4.321   2.210  0.1059  0.1839 -0.1637
 1880ntf    nn313068   1.331   4.328   2.102  0.0322 -0.7347 -0.3117
 1880ntf    sn213069   1.486   4.334   2.126  0.0282  0.2661 -0.4850
 1880ntf    cn113070   1.547   4.288   1.960 -0.2879 -0.0747 -0.5063
 1880ntf    fn413071   1.139   4.519   2.370 -0.4017  0.2861  0.2017
 1880ntf    fn413072   1.340   4.496   2.365 -0.6101  0.2612  0.5644
 1880ntf    fn413073   1.249   4.581   2.196  0.0585 -0.1232  0.2262
 1880ntf    on513074   1.248   4.235   2.321  0.2539 -1.0300 -1.1165
 1880ntf    on513075   1.091   4.317   2.140  0.2489 -0.4862 -0.3905
 1880ntf    on513076   1.537   4.227   2.209 -0.2403 -0.2340 -0.9572
 1880ntf    on513077   1.538   4.467   2.144  0.4291  0.1887 -1.0405
 1880ntf    fn413078   1.486   4.352   1.862 -0.2091  0.4289 -0.2280
 1880ntf    fn413079   1.676   4.304   1.939 -0.2868  0.6029 -0.0260
 1880ntf    fn413080   1.511   4.163   1.935 -0.2681 -0.0864 -0.4744
 1881ntf    cn113081   1.420   1.222   5.611 -0.4716  0.0317  0.2911
 1881ntf    sn213082   1.544   1.341   5.553 -0.3994 -0.1177  0.1379
 1881ntf    nn313083   1.610   1.376   5.691  0.2225 -0.3661 -0.0929
 1881ntf    sn213084   1.742   1.447   5.739 -0.1039  0.2232 -0.0577
 1881ntf    cn113085   1.672   1.598   5.812 -0.0575  0.1017  0.2401
 1881ntf    fn413086   1.345   1.175   5.513  0.2971  0.0543 -0.3108
 1881ntf    fn413087   1.482   1.117   5.664  0.2768  0.1462 -0.3324
 1881ntf    fn413088   1.338   1.277   5.699 -0.2861  0.2233  0.3446
 1881ntf    on513089   1.630   1.266   5.465 -0.0547  0.3936  0.0340
 1881ntf    on513090   1.461   1.446   5.498  0.2614  0.1152 -0.4259
 1881ntf    on513091   1.827   1.500   5.635  0.0331  0.5076  0.1995
 1881ntf    on513092   1.801   1.388   5.856 -0.0945  0.8929  0.2792
 1881ntf    fn413093   1.601   1.663   5.720 -0.3250 -0.2382  0.2056
 1881ntf    fn413094   1.603   1.567   5.920 -0.2188 -0.3079  0.0219
 1881ntf    fn413095   1.759   1.688   5.856  0.4747 -0.4770  0.3738
 1882ntf    cn113096   5.338   1.097   4.091  0.2733  0.0091  0.2182
 1882ntf    sn213097   5.513   1.120   4.134  0.2198  0.2527  0.3047
 1882ntf    nn313098   5.567   1.004   4.043 -0.3748  0.1137  0.1235
 1882ntf    sn213099   5.689   0.909   4.067 -0.0986  0.4166 -0.0755
 1882ntf    cn113100   5.615   0.744   4.082  0.1755  0.2916 -0.0809
 1882ntf    fn413101   5.265   1.168   4.175 -0.3394 -0.8226  0.3989
 1882ntf    fn413102   5.302   1.127   3.967 -0.3226 -0.4249  0.2783
 1882ntf    fn413103   5.297   0.973   4.113 -0.6636  0.2047 -0.3386
 1882ntf    on513104   5.553   1.247   4.080 -0.7615  0.5812  0.3219
 1882ntf    on513105   5.523   1.105   4.277  0.7144  0.4031  0.2870
 1882ntf    on513106   5.755   0.936   4.193  0.5231  0.3098 -0.3710
 1882ntf    on513107   5.776   0.900   3.952  0.0563  0.1508  0.0604
 1882ntf    fn413108   5.546   0.750   4.195  0.2507  0.8978 -0.0646
 1882ntf    fn413109   5.536   0.711   3.981  0.0658  1.1594 -0.2850
 1882ntf    fn413110   5.703   0.645   4.093 -0.1150  0.0809  0.4155
 1883ntf    cn113111   1.911   3.210   2.836  0.4271 -0.0697  0.2373
 1883ntf    sn213112   1.815   3.270   2.978 -0.1415 -0.0772 -0.1397
 1883ntf    nn313113   1.670   3.273   2.919 -0.1526  0.3654 -0.0989
 1883ntf    sn213114   1.600   3.392   2.846 -0.4020  0.0757 -0.3366
 1883ntf    cn113115   1.432   3.322   2.852 -0.2601 -0.2267  0.1375
 1883ntf    fn413116   1.921   3.307   2.746  0.3878 -0.2751  0.0103
 1883ntf    fn413117   2.035   3.178   2.870  0.2947 -0.0155  0.7656
 1883ntf    fn413118   1.871   3.096   2.781  0.3134  0.0529  0.0645
 1883ntf    on513119   1.822   3.153   3.061 -0.6463  0.0730  0.1152
 1883ntf    on513120   1.872   3.395   3.024 -0.3883 -0.3462  0.9119
 1883ntf    on513121   1.627   3.397   2.704  0.7078 -0.4978 -0.1521
 1883ntf    on513122   1.586   3.514   2.922 -0.0756 -0.4561  0.5902
 1883ntf    fn413123   1.412   3.263   2.968  0.1822  0.4649  0.5774
 1883ntf    fn413124   1.332   3.407   2.834  0.4739  0.5639 -0.2891
 1883ntf    fn413125   1.420   3.228   2.761 -0.4033 -0.4969  0.4338
 1884ntf    cn113126   5.134   3.128   3.937 -0.1081  0.0030 -0.1844
 1884ntf    sn213127   5.153   3.254   3.808  0.0275  0.3521  0.1753
 1884ntf    nn313128   5.258   3.344   3.882  0.2911  0.1369  0.0639
 1884ntf    sn213129   5.256   3.497   3.918 -0.1256  0.1741 -0.1124
 1884ntf    cn113130   5.179   3.487   4.082  0.0360 -0.0765 -0.0493
 1884ntf    fn413131   5.253   3.073   3.957 -0.1443 -0.0714 -0.1680
 1884ntf    fn413132   5.084   3.180   4.047 -0.3198 -1.3036  0.3579
 1884ntf    fn413133   5.047   3.036   3.900 -0.4756  0.2138  0.1583
 1884ntf    on513134   5.197   3.186   3.688  0.4728  0.7128  0.1278
 1884ntf    on513135   5.019   3.305   3.796  0.1728  0.7133  0.0548
 1884ntf    on513136   5.158   3.573   3.845  0.1934  0.1176 -0.6022
 1884ntf    on513137   5.384   3.561   3.935  0.3610 -0.7218 -0.3260
 1884ntf    fn413138   5.241   3.411   4.171 -0.0155 -0.2441 -0.1562
 1884ntf    fn413139   5.168   3.609   4.134  0.2630  0.0536 -0.3065
 1884ntf    fn413140   5.053   3.445   4.083  0.1896 -0.5347  0.1448
 1885ntf    cn113141   5.260   1.692   1.451 -0.0038 -0.2513 -0.0926
 1885ntf    sn213142   5.179   1.531   1.467 -0.4239 -0.0348 -0.0192
 1885ntf    nn313143   5.285   1.468   1.564 -0.1687  0.1911 -0.1507
 1885ntf    sn213144   5.277   1.355   1.673  0.0266  0.1334 -0.1968
 1885ntf    cn113145   5.270   1.469   1.813 -0.0786 -0.2971  0.1510
 1885ntf    fn413146   5.382   1.688   1.398  0.0698 -1.5134  0.1530
 1885ntf    fn413147   5.205   1.779   1.368  0.1252  0.1144  0.1959
 1885ntf    fn413148   5.277   1.749   1.570 -0.0712  0.2008 -0.2964
 1885ntf    on513149   5.053   1.561   1.529 -0.3748  0.2356 -0.0514
 1885ntf    on513150   5.183   1.484   1.330  0.6798  0.2928 -0.1044
 1885ntf    on513151   5.399   1.279   1.690  0.0968  0.3166  0.1188
 1885ntf    on513152   5.156   1.276   1.672 -0.4158  0.8057  0.0153
 1885ntf    fn413153   5.369   1.557   1.807 -0.3130 -0.0431 -0.0015
 1885ntf    fn413154   5.153   1.531   1.821  0.2333  0.3308 -0.0598
 1885ntf    fn413155   5.289   1.403   1.926 -0.0668 -0.6341 -0.0472
 1886ntf    cn113156   2.823   1.768   4.979 -0.1516 -0.3626  0.1978
 1886ntf    sn213157   2.706   1.716   5.109 -0.3072 -0.7795 -0.1044
 1886ntf    nn313158   2.567   1.757   5.049 -0.0331  0.0753 -0.1761
 1886ntf    sn213159   2.485   1.887   5.082  0.1867  0.2870 -0.4630
 1886ntf    cn113160   2.336   1.828   5.168  0.9264 -0.4594  0.3259
 1886ntf    fn413161   2.828   1.899   4.963 -0.7164 -0.3162  0.3829
 1886ntf    fn413162   2.950   1.739   5.001  0.3718  1.0554 -0.8376
 1886ntf    fn413163   2.788   1.727   4.858 -0.0779 -0.0304  0.0635
 1886ntf    on513164   2.716   1.573   5.111 -0.3437 -0.7779  0.2579
 1886ntf    on513165   2.754   1.784   5.227  0.3803 -0.3018 -0.6473
 1886ntf    on513166   2.429   1.941   4.961  0.1295 -0.0812 -0.6026
 1886ntf    on513167   2.543   1.980   5.176 -0.6198 -0.2154  0.5412
 1886ntf    fn413168   2.248   1.781   5.081  0.8069 -0.1335  0.2689
 1886ntf    fn413169   2.358   1.728   5.252  0.0968 -0.5061  0.4902
 1886ntf    fn413170   2.262   1.921   5.225  0.6554 -0.7507  0.4532
 1887ntf    cn113171   2.041   4.520   3.656  0.1096 -0.0119 -0.3430
 1887ntf    sn213172   2.091   4.365   3.575  0.0127 -0.1844 -0.0755
 1887ntf    nn313173   1.993   4.281   3.664 -0.0752  0.0559  0.0561
 1887ntf    sn213174   1.926   4.140   3.646 -0.3142  0.1708  0.0424
 1887ntf    cn113175   2.016   4.038   3.766 -0.4308 -0.2642 -0.2380
 1887ntf    fn413176   2.121   4.616   3.613  0.2991 -0.1046 -0.1995
 1887ntf    fn413177   1.915   4.549   3.627  0.2066  0.8808  0.0982
 1887ntf    fn413178   2.037   4.521   3.788 -0.5896 -0.0664 -0.3576
 1887ntf    on513179   2.054   4.370   3.436 -0.0748  0.0216 -0.0450
 1887ntf    on513180   2.232   4.355   3.606 -0.0393 -0.0326  0.2125
 1887ntf    on513181   1.952   4.067   3.524 -0.3227  0.4457 -0.1250
 1887ntf    on513182   1.793   4.126   3.699 -0.2757 -0.4384 -0.0153
 1887ntf    fn413183   1.961   3.920   3.791  0.0709 -0.3870  0.3048
 1887ntf    fn413184   2.137   4.020   3.717 -0.0599 -0.3273  0.6707
 1887ntf    fn413185   2.047   4.092   3.883  0.5724 -0.4589 -0.4088
 1888ntf    cn113186   4.303   3.802   3.533 -0.2765  0.1455  0.2158
 1888ntf    sn213187   4.456   3.889   3.579 -0.2254 -0.0515  0.4276
 1888ntf    nn313188   4.527   3.920   3.442 -0.1449 -0.1831  0.4410
 1888ntf    sn213189   4.673   3.896   3.388 -0.3366 -0.0260 -0.1496
 1888ntf    cn113190   4.731   4.067   3.371 -0.0023 -0.0971  0.2730
 1888ntf    fn413191   4.241   3.739   3.632 -0.0521  0.1610  0.3686
 1888ntf    fn413192   4.225   3.881   3.461  0.6811  0.4731 -0.4749
 1888ntf    fn413193   4.328   3.708   3.443 -0.2634  0.2737  0.0868
 1888ntf    on513194   4.398   4.009   3.636  0.0081  0.1725  0.1948
 1888ntf    on513195   4.503   3.795   3.676  0.5313  0.0399  0.1545
 1888ntf    on513196   4.667   3.856   3.249 -0.6016  0.0808 -0.1706
 1888ntf    on513197   4.776   3.830   3.464  0.2609  0.5885 -0.4151
 1888ntf    fn413198   4.861   4.078   3.350 -0.0703  0.2222  0.0218
 1888ntf    fn413199   4.664   4.125   3.273 -0.1533  0.0630  0.4714
 1888ntf    fn413200   4.713   4.142   3.478  0.2923  0.4327 -0.0441
 1889ntf    cn113201   5.145   1.097   5.728  0.0737  0.4580 -0.0342
 1889ntf    sn213202   5.089   1.240   5.632 -0.2872  0.3277 -0.0192
 1889ntf    nn313203   5.005   1.326   5.733 -0.5192  0.4760 -0.3381
 1889ntf    sn213204   4.854   1.322   5.776 -0.3882 -0.2100  0.0543
 1889ntf    cn113205   4.779   1.425   5.647  0.2640 -0.0587 -0.2059
 1889ntf    fn413206   5.202   1.006   5.650  0.0411  0.0968  0.3588
 1889ntf    fn413207   5.220   1.125   5.833  0.8538  0.6541 -0.6332
 1889ntf    fn413208   5.046   1.029   5.782  0.2112 -0.2782 -0.6924
 1889ntf    on513209   5.215   1.302   5.597  0.1991 -0.3091  0.5729
 1889ntf    on513210   5.014   1.182   5.524  0.1184  0.2425 -0.2565
 1889ntf    on513211   4.831   1.394   5.899 -0.0412 -0.3240  0.1882
 1889ntf    on513212   4.789   1.193   5.773 -0.8373  0.0108  0.2170
 1889ntf    fn413213   4.812   1.551   5.672 -0.1528 -0.0202  0.1396
 1889ntf    fn413214   4.823   1.402   5.524  0.4284 -0.0327 -0.1511
 1889ntf    fn413215   4.648   1.414   5.639  0.2858 -0.2454 -0.3283
 1890ntf    cn113216   3.212   2.116   4.797  0.1324  0.2273  0.2206
 1890ntf    sn213217   3.121   2.119   4.954 -0.0070 -0.0559  0.1459
 1890ntf    nn313218   3.226   2.195   5.043 -0.1391 -0.5660  0.7480
 1890ntf    sn213219   3.232   2.337   5.110  0.2556 -0.1057 -0.2446
 1890ntf    cn113220   3.393   2.393   5.047  0.2575  0.0460 -0.1054
 1890ntf    fn413221   3.233   1.989   4.767 -0.4871  0.3753 -0.8900
 1890ntf    fn413222   3.155   2.175   4.693 -0.3288 -0.1205  0.2760
 1890ntf    fn413223   3.333   2.168   4.810  0.0814  0.4274 -0.0907
 1890ntf    on513224   2.994   2.178   4.923  0.0850  0.1363  0.1372
 1890ntf    on513225   3.121   1.983   5.004  0.3130  0.1391  0.6931
 1890ntf    on513226   3.264   2.328   5.251 -0.2021  0.7008 -0.0824
 1890ntf    on513227   3.153   2.447   5.061  0.5960 -0.0509 -0.6756
 1890ntf    fn413228   3.409   2.520   5.080  0.0929  0.1076 -0.2609
 1890ntf    fn413229   3.503   2.328   5.082  0.2481  0.0934  0.0142
 1890ntf    fn413230   3.388   2.387   4.915  0.1121  0.0052 -0.0980
 1891ntf    cn113231   5.569   6.190   1.622  0.0481  0.4221 -0.2252
 1891ntf    sn213232   5.719   6.158   1.720 -0.2733 -0.2183  0.0671
 1891ntf    nn313233   5.655   6.058   1.823 -0.2851 -0.1725  0.1049
 1891ntf    sn213234   5.595   6.090   1.965 -0.2230  0.1241  0.0648
 1891ntf    cn113235   5.745   6.089   2.067  0.1345  0.1961 -0.4527
 1891ntf    fn413236   5.518   6.076   1.578  0.0974  0.5137 -0.5225
 1891ntf    fn413237   5.471   6.259   1.678 -0.1408 -0.4298  0.5093
 1891ntf    fn413238   5.598   6.266   1.518 -0.1972 -0.2762 -0.8135
 1891ntf    on513239   5.799   6.094   1.619 -0.8888 -0.8342 -0.0330
 1891ntf    on513240   5.747   6.293   1.764 -0.0360  0.0487 -0.8763
 1891ntf    on513241   5.523   5.976   2.015 -0.3052  0.1363 -0.0266
 1891ntf    on513242   5.541   6.223   1.976  0.1513  0.3473 -0.6740
 1891ntf    fn413243   5.802   5.971   2.086 -0.0148  0.2262  0.2071
 1891ntf    fn413244   5.833   6.173   2.016  0.2223  0.0597 -0.5271
 1891ntf    fn413245   5.723   6.131   2.191  0.3066 -0.3034 -0.2500
 1892ntf    cn113246   3.028   4.219   3.670  0.4180  0.5881 -0.1981
 1892ntf    sn213247   2.958   4.338   3.789 -0.2546 -0.0438  0.0447
 1892ntf    nn313248   2.996   4.272   3.926  0.0519  0.0813  0.0203
 1892ntf    sn213249   3.000   4.350   4.062 -0.1284  0.0821  0.0255
 1892ntf    cn113250   3.179   4.380   4.075 -0.0482 -0.2715 -0.2609
 1892ntf    fn413251   2.951   4.112   3.678  0.2278  0.7182 -0.2828
 1892ntf    fn413252   3.032   4.263   3.546  0.3010  0.7890 -0.1321
 1892ntf    fn413253   3.152   4.189   3.706  0.2337  0.0861  0.0193
 1892ntf    on513254   3.034   4.457   3.758 -0.2788  0.0285  0.2582
 1892ntf    on513255   2.816   4.329   3.765 -0.2929  0.0137  0.2473
 1892ntf    on513256   2.976   4.258   4.171  0.0087 -0.1627 -0.1501
 1892ntf    on513257   2.936   4.479   4.066  0.1218  0.2102 -0.0767
 1892ntf    fn413258   3.230   4.451   3.976 -0.4967 -0.5962 -0.7325
 1892ntf    fn413259   3.205   4.441   4.189  0.2795 -0.2144 -0.3656
 1892ntf    fn413260   3.254   4.272   4.079 -0.0926 -0.2948 -0.0409
 1893ntf    cn113261   0.631   1.092   5.852 -0.7003  0.0388  0.2019
 1893ntf    sn213262   0.549   1.149   5.700 -0.2517  0.1353 -0.0051
 1893ntf    nn313263   0.518   1.007   5.640  0.0619  0.3839 -0.7621
 1893ntf    sn213264   0.375   0.942   5.629  0.0923  0.2413 -0.3221
 1893ntf    cn113265   0.308   1.027   5.483 -0.1293  0.5925 -0.0186
 1893ntf    fn413266   0.729   1.007   5.827 -0.0820  0.5063  0.9883
 1893ntf    fn413267   0.681   1.189   5.926 -0.7830  0.2413 -0.0057
 1893ntf    fn413268   0.552   1.025   5.935  0.0151 -0.2151  0.6882
 1893ntf    on513269   0.441   1.224   5.759 -0.0939  0.0218  0.4342
 1893ntf    on513270   0.658   1.221   5.639 -0.1098 -0.3881 -0.3833
 1893ntf    on513271   0.287   0.974   5.738  0.2322  1.0610 -0.4376
 1893ntf    on513272   0.378   0.808   5.576 -0.4376  0.1384 -0.0908
 1893ntf    fn413273   0.272   1.152   5.509  0.3196  0.7854 -0.3021
 1893ntf    fn413274   0.396   1.029   5.384  0.0384  0.2846  0.1206
 1893ntf    fn413275   0.201   0.965   5.436  0.6284 -0.5961 -0.2335
 1894ntf    cn113276   4.718   0.835   0.073  0.4068 -0.1878 -0.3585
 1894ntf    sn213277   4.795   0.955   0.187 -0.1980 -0.0340 -0.1082
 1894ntf    nn313278   4.941   0.961   0.130 -0.3616 -0.2026 -0.5550
 1894ntf    sn213279   5.050   1.067   0.170 -0.3188 -0.2836 -0.4566
 1894ntf    cn113280   5.131   0.962   0.295 -0.2493  0.0818 -0.1926
 1894ntf    fn413281   4.703   0.893  -0.044  0.2512 -0.1497 -0.3195
 1894ntf    fn413282   4.799   0.734   0.045  0.4877 -0.3190  0.3177
 1894ntf    fn413283   4.602   0.787   0.115  0.2309  0.5982  0.0694
 1894ntf    on513284   4.708   1.067   0.164 -0.0496  0.1528  0.2384
 1894ntf    on513285   4.790   0.888   0.315  0.0942 -0.2467 -0.2048
 1894ntf    on513286   5.003   1.181   0.245  0.7739  0.0973 -0.3442
 1894ntf    on513287   5.156   1.078   0.073  0.1214  0.2119  0.0727
 1894ntf    fn413288   5.048   0.913   0.386  0.3029  0.4502  0.5175
 1894ntf    fn413289   5.171   0.852   0.233 -0.2005  0.1377 -0.2622
 1894ntf    fn413290   5.232   1.015   0.362  0.1750 -0.1303 -0.6535
 1895ntf    cn113291   6.718   5.263   2.599  0.5697 -0.3243 -0.8132
 1895ntf    sn213292   6.890   5.308   2.639  0.3002  0.1598 -0.1929
 1895ntf    nn313293   6.868   5.463   2.630 -0.4077  0.0704 -0.0815
 1895ntf    sn213294   6.875   5.564   2.751 -0.0216 -0.1259  0.0624
 1895ntf    cn113295   6.759   5.687   2.683  0.0041 -0.2126 -0.1369
 1895ntf    fn413296   6.679   5.330   2.492 -0.1891  0.1803 -0.2261
 1895ntf    fn413297   6.708   5.134   2.571  0.0051 -0.4566 -0.0281
 1895ntf    fn413298   6.636   5.302   2.695  0.3414 -0.2350 -1.0426
 1895ntf    on513299   6.919   5.251   2.768  0.1536 -0.4291 -0.4183
 1895ntf    on513300   6.964   5.255   2.528 -0.2259 -0.3536 -0.3036
 1895ntf    on513301   6.996   5.641   2.763 -0.3336  0.3484  0.1709
 1895ntf    on513302   6.815   5.515   2.873 -0.4154  0.2209  0.0083
 1895ntf    fn413303   6.741   5.791   2.762 -0.1238  0.1586 -0.6545
 1895ntf    fn413304   6.783   5.733   2.561 -0.6021  1.0081  0.1903
 1895ntf    fn413305   6.639   5.636   2.666 -0.3171  0.5222 -0.1029
 1896ntf    cn113306   6.217   4.091   4.242  0.2115 -0.0946 -0.3797
 1896ntf    sn213307   6.387   4.034   4.274  0.1137 -0.3338 -0.2815
 1896ntf    nn313308   6.413   4.095   4.416 -0.3745 -0.6580 -0.0481
 1896ntf    sn213309   6.446   4.033   4.556 -0.0867 -0.0502  0.1593
 1896ntf    cn113310   6.288   4.007   4.642 -0.3529  0.2544 -0.2388
 1896ntf    fn413311   6.173   4.045   4.126  0.4107 -0.4134 -0.3306
 1896ntf    fn413312   6.126   4.059   4.333  0.3192  0.3451 -0.1113
 1896ntf    fn413313   6.215   4.223   4.234  0.1379 -0.0645  0.1062
 1896ntf    on513314   6.366   3.891   4.272  0.2018 -0.3482 -0.0763
 1896ntf    on513315   6.467   4.091   4.169  0.3764 -0.4165 -0.1248
 1896ntf    on513316   6.514   4.123   4.645  0.1743 -0.2736  0.1865
 1896ntf    on513317   6.506   3.901   4.548  0.3329  0.1630 -0.2572
 1896ntf    fn413318   6.203   3.936   4.569 -0.2867 -0.2097  0.1382
 1896ntf    fn413319   6.315   3.942   4.753 -0.8074  0.0361 -0.2522
 1896ntf    fn413320   6.235   4.122   4.681  0.1315  0.3654  0.0968
 1897ntf    cn113321   0.968   0.319   5.642 -0.1202 -0.0934  0.1461
 1897ntf    sn213322   1.048   0.479   5.613 -0.0384 -0.1294  0.1709
 1897ntf    nn313323   1.178   0.423   5.546 -0.3134 -0.1310 -0.3716
 1897ntf    sn213324   1.328   0.463   5.573 -0.4304  0.0448  0.0300
 1897ntf    cn113325   1.403   0.463   5.407 -0.1666  0.6429  0.1453
 1897ntf    fn413326   1.020   0.250   5.742  0.4898  0.0043 -0.1027
 1897ntf    fn413327   0.841   0.337   5.674 -0.2399 -0.3685 -0.1652
 1897ntf    fn413328   0.974   0.241   5.535  0.8263  0.4069 -0.1750
 1897ntf    on513329   0.962   0.540   5.514  0.3025 -0.3989 -0.2976
 1897ntf    on513330   1.061   0.534   5.746 -0.2558  0.2370  0.0430
 1897ntf    on513331   1.407   0.359   5.635 -0.0782  0.2944  0.0022
 1897ntf    on513332   1.353   0.599   5.613  0.3876 -0.1094  0.0462
 1897ntf    fn413333   1.310   0.478   5.314  0.0955  0.2342 -0.1880
 1897ntf    fn413334   1.500   0.550   5.386  0.6247 -0.2759 -0.1130
 1897ntf    fn413335   1.453   0.348   5.364 -0.6467  0.6933 -0.5584
 1898ntf    cn113336   3.144   4.860   4.680  0.3050 -0.0181 -0.6512
 1898ntf    sn213337   3.017   4.977   4.622 -0.1659 -0.3570 -0.3096
 1898ntf    nn313338   3.045   5.096   4.720  0.6957 -0.7697 -0.0404
 1898ntf    sn213339   2.963   5.128   4.850  0.1102  0.0652 -0.5973
 1898ntf    cn113340   3.079   5.216   4.959 -0.1592 -0.4137  0.0867
 1898ntf    fn413341   3.145   4.742   4.620  0.2748 -0.1531 -0.3857
 1898ntf    fn413342   3.266   4.910   4.665  0.3031  0.2522  0.1943
 1898ntf    fn413343   3.132   4.849   4.811  0.5434  0.6543 -0.5707
 1898ntf    on513344   3.068   4.995   4.488 -0.1153  0.2451 -0.2079
 1898ntf    on513345   2.890   4.910   4.637 -0.3006 -0.0634 -0.1464
 1898ntf    on513346   2.912   5.013   4.921 -0.4094  0.5433 -0.1905
 1898ntf    on513347   2.868   5.232   4.822 -0.0241  0.2173  0.3963
 1898ntf    fn413348   3.117   5.330   4.904 -0.1918 -0.6537 -0.4412
 1898ntf    fn413349   3.036   5.234   5.082  0.2497  0.5002  0.1060
 1898ntf    fn413350   3.186   5.138   4.966  0.5594  0.4759 -0.6767
 1899ntf    cn113351   0.118   0.067   3.770 -0.2247  0.0211  0.0909
 1899ntf    sn213352   0.218   0.039   3.621 -0.1078  0.2476  0.1272
 1899ntf    nn313353   0.263  -0.111   3.633 -0.1896  0.2481  0.4350
 1899ntf    sn213354   0.415  -0.149   3.648 -0.2664 -0.1387  0.2283
 1899ntf    cn113355   0.452  -0.083   3.813  0.3166 -0.7411  0.3413
 1899ntf    fn413356   0.174   0.016   3.878 -0.1341  0.2913  0.1714
 1899ntf    fn413357   0.102   0.194   3.801 -0.1714  0.0940 -0.1744
 1899ntf    fn413358   0.001   0.005   3.765 -0.3906  0.3285  0.1713
 1899ntf    on513359   0.139   0.049   3.501  0.1558 -1.5496 -0.2191
 1899ntf    on513360   0.317   0.144   3.631  0.5780 -0.3550 -0.1857
 1899ntf    on513361   0.514  -0.079   3.570  0.6751 -1.1199  0.5188
 1899ntf    on513362   0.432  -0.290   3.671 -0.4317 -0.0920  0.6539
 1899ntf    fn413363   0.358  -0.109   3.903 -0.3472 -0.3951 -0.2432
 1899ntf    fn413364   0.567  -0.135   3.851  0.5471 -0.3935  0.1117
 1899ntf    fn413365   0.467   0.048   3.820 -0.7241 -0.5821 -0.1152
 1900ntf    cn113366   4.525   5.504   5.299 -0.3808  0.1723  0.1857
 1900ntf    sn213367   4.552   5.356   5.196  0.0434  0.0626  0.4489
 1900ntf    nn313368   4.538   5.244   5.305  0.6965 -0.3984  0.0662
 1900ntf    sn213369   4.649   5.175   5.391  0.1094 -0.8783  0.4509
 1900ntf    cn113370   4.703   5.038   5.285 -0.0712 -0.4430 -0.2077
 1900ntf    fn413371   4.522   5.621   5.237 -0.2347 -0.1056 -0.3525
 1900ntf    fn413372   4.424   5.493   5.383 -0.2982 -0.3960  0.2118
 1900ntf    fn413373   4.637   5.504   5.370 -0.9182 -0.0898  1.0453
 1900ntf    on513374   4.443   5.357   5.101  0.2471  0.6458  0.2133
 1900ntf    on513375   4.685   5.373   5.143 -0.0816 -0.0456  0.0923
 1900ntf    on513376   4.601   5.095   5.501 -0.0064 -0.5801  0.6200
 1900ntf    on513377   4.765   5.258   5.414 -0.1281 -0.3458 -0.2418
 1900ntf    fn413378   4.600   4.958   5.261 -0.5690  0.1761 -0.1580
 1900ntf    fn413379   4.752   5.075   5.168 -0.0823  0.4501  0.0656
 1900ntf    fn413380   4.795   4.954   5.330  0.2523  0.0449  0.0504
 1901ntf    cn113381   0.172   1.194   2.175  0.0751 -0.0448 -0.4240
 1901ntf    sn213382   0.097   1.039   2.115 -0.0156 -0.1514 -0.0379
 1901ntf    nn313383   0.027   1.013   2.253 -0.1320  0.1949 -0.0308
 1901ntf    sn213384   0.070   0.914   2.367 -0.2637  0.1782  0.0042
 1901ntf    cn113385   0.000   0.755   2.313  0.0093  0.0042  0.1618
 1901ntf    fn413386   0.269   1.178   2.263 -0.0457 -0.2338 -0.3248
 1901ntf    fn413387   0.217   1.265   2.072  0.1206  0.5541  0.0073
 1901ntf    fn413388   0.087   1.274   2.236  0.1809 -0.3638  0.1423
 1901ntf    on513389   0.003   1.082   2.015 -0.4217  0.0389  0.4224
 1901ntf    on513390   0.212   0.960   2.079  0.3131  0.0774  0.5064
 1901ntf    on513391   0.004   0.923   2.494 -0.1138  0.2331  0.0784
 1901ntf    on513392   0.212   0.891   2.376 -0.2613  0.1043 -0.2091
 1901ntf    fn413393  -0.131   0.740   2.326  0.0055  0.0431  0.1676
 1901ntf    fn413394   0.035   0.727   2.189 -0.4360  0.5680 -0.0945
 1901ntf    fn413395   0.036   0.654   2.390  0.5478  0.3305  0.3460
 1902ntf    cn113396   4.235   2.201   4.891  0.0345 -0.4242 -0.2990
 1902ntf    sn213397   4.120   2.334   4.935  0.3721 -0.2453  0.0452
 1902ntf    nn313398   4.217   2.457   4.924 -0.3751  0.3619  0.1169
 1902ntf    sn213399   4.323   2.503   5.030  0.3611 -0.3816 -0.2824
 1902ntf    cn113400   4.234   2.629   5.127  0.1232 -0.5308 -0.3062
 1902ntf    fn413401   4.318   2.170   4.989 -0.2567 -0.3741 -0.0351
 1902ntf    fn413402   4.179   2.083   4.866 -0.3770 -0.2832 -0.0555
 1902ntf    fn413403   4.304   2.231   4.782  0.8597  0.2634  0.4055
 1902ntf    on513404   4.020   2.340   4.831 -0.3814  0.4575  0.7844
 1902ntf    on513405   4.063   2.300   5.063 -0.0172  0.4023  0.0484
 1902ntf    on513406   4.426   2.573   4.957 -0.2106 -0.2874 -1.0064
 1902ntf    on513407   4.375   2.409   5.126 -0.4393 -0.4473  0.0984
 1902ntf    fn413408   4.268   2.631   5.255  0.0771 -0.3129 -0.2969
 1902ntf    fn413409   4.268   2.748   5.081 -0.3794 -0.2297  0.0897
 1902ntf    fn413410   4.104   2.607   5.116  0.0191  0.1706 -0.4850
 1903ntf    cn113411   5.946   4.938   1.787  0.4156 -0.2522  0.3126
 1903ntf    sn213412   5.835   4.958   1.645  0.3330 -0.3201  0.3684
 1903ntf    nn313413   5.889   4.840   1.556  0.3372 -0.4352  0.5233
 1903ntf    sn213414   5.826   4.699   1.527  0.2217 -0.2873  0.0405
 1903ntf    cn113415   5.923   4.652   1.381  0.3406  0.3376 -0.0835
 1903ntf    fn413416   5.915   5.036   1.870  0.2093  0.0480 -0.1113
 1903ntf    fn413417   5.930   4.822   1.847  0.6016 -0.4386  0.0046
 1903ntf    fn413418   6.073   4.965   1.761  0.4324 -0.2367  0.4105
 1903ntf    on513419   5.708   4.950   1.713 -0.1811 -0.2702 -0.5572
 1903ntf    on513420   5.853   5.088   1.587  0.6966 -0.3809  0.3442
 1903ntf    on513421   5.690   4.704   1.479  0.3947  0.3621 -0.3911
 1903ntf    on513422   5.856   4.592   1.620  0.0666 -0.6266 -0.2994
 1903ntf    fn413423   5.929   4.749   1.291 -0.2875 -0.0650 -0.5595
 1903ntf    fn413424   6.048   4.623   1.415  0.0990 -0.5820  0.0475
 1903ntf    fn413425   5.871   4.544   1.325 -0.2502  0.3276  0.4840
 1904ntf    cn113426   3.698   2.663   1.435 -0.0141  0.4190  0.1002
 1904ntf    sn213427   3.833   2.541   1.433 -0.2129  0.2007 -0.0094
 1904ntf    nn313428   3.928   2.605   1.326 -0.3903  0.2020 -0.1659
 1904ntf    sn213429   4.006   2.544   1.204 -0.2780  0.3362 -0.1611
 1904ntf    cn113430   4.174   2.529   1.272 -0.4234 -0.0732  0.1130
 1904ntf    fn413431   3.734   2.791   1.426  0.4491  0.2562 -0.4012
 1904ntf    fn413432   3.615   2.643   1.334  0.2433  0.2607 -0.0825
 1904ntf    fn413433   3.613   2.648   1.536 -0.6072  0.3490 -0.4039
 1904ntf    on513434   3.878   2.542   1.570 -0.0290  0.5418 -0.0720
 1904ntf    on513435   3.755   2.428   1.390  0.0923 -0.0159  0.0061
 1904ntf    on513436   4.024   2.640   1.099  0.2446  0.4628  0.0402
 1904ntf    on513437   3.973   2.411   1.159  0.6579 -0.2185  0.7283
 1904ntf    fn413438   4.260   2.492   1.179  0.4367  0.4540  0.6803
 1904ntf    fn413439   4.220   2.647   1.309  0.0287 -0.2010 -0.0368
 1904ntf    fn413440   4.185   2.449   1.377 -0.6932 -0.7734 -0.3810
 1905ntf    cn113441   1.135   1.096   4.677  0.1583 -0.6311 -0.1202
 1905ntf    sn213442   0.968   1.160   4.710  0.2086 -0.3750 -0.3596
 1905ntf    nn313443   0.993   1.256   4.832  0.2015 -0.3524 -0.3755
 1905ntf    sn213444   0.928   1.391   4.880  0.6058 -0.1475 -0.4057
 1905ntf    cn113445   1.078   1.487   4.915  0.3492  0.0899  0.0522
 1905ntf    fn413446   1.231   1.186   4.688  0.4369 -0.9303 -0.0918
 1905ntf    fn413447   1.171   1.006   4.767  0.6302  0.3189  0.6643
 1905ntf    fn413448   1.150   1.041   4.558 -0.3628 -0.2973 -0.3442
 1905ntf    on513449   0.944   1.221   4.581  0.9237  1.0646  0.1582
 1905ntf    on513450   0.890   1.042   4.738  0.1115 -0.1468  0.3495
 1905ntf    on513451   0.872   1.376   5.012  0.9498 -0.4069 -0.2866
 1905ntf    on513452   0.852   1.474   4.791 -0.5251 -0.1761  0.5159
 1905ntf    fn413453   1.144   1.450   5.023 -0.2957 -0.0327  0.4047
 1905ntf    fn413454   1.165   1.472   4.816  0.2395 -0.9664  0.1140
 1905ntf    fn413455   1.048   1.616   4.921  0.2654  0.0746 -0.0294
 1906ntf    cn113456   6.226   6.482   4.222  0.1312 -0.5896 -0.2863
 1906ntf    sn213457   6.349   6.450   4.092  0.2491  0.0273 -0.3329
 1906ntf    nn313458   6.457   6.563   4.104  0.3533 -0.0408 -0.6109
 1906ntf    sn213459   6.580   6.562   4.202 -0.1218 -0.1078 -0.0033
 1906ntf    cn113460   6.707   6.601   4.077 -0.0981  0.1332  0.0940
 1906ntf    fn413461   6.280   6.474   4.343  0.5092  0.7078 -0.3507
 1906ntf    fn413462   6.182   6.606   4.207  0.2486 -0.4940  0.1447
 1906ntf    fn413463   6.113   6.414   4.218 -0.5177  0.4039  0.6147
 1906ntf    on513464   6.381   6.311   4.113 -0.4198 -0.1378 -0.4078
 1906ntf    on513465   6.268   6.481   3.977 -0.7489 -0.9789  0.0745
 1906ntf    on513466   6.614   6.429   4.246 -0.0065  0.0179  0.2870
 1906ntf    on513467   6.575   6.666   4.302 -0.0167 -0.3533  0.2570
 1906ntf    fn413468   6.716   6.727   4.038  0.0459  0.0739 -0.0692
 1906ntf    fn413469   6.826   6.583   4.131 -0.0069  0.0326 -0.1371
 1906ntf    fn413470   6.701   6.515   3.976  0.0923  0.0168  0.1816
 1907ntf    cn113471   0.253   6.701   1.177 -0.4378  0.1044  0.2712
 1907ntf    sn213472   0.327   6.808   1.304 -0.0074  0.1225  0.0047
 1907ntf    nn313473   0.446   6.721   1.360 -0.0927 -0.0955 -0.1502
 1907ntf    sn213474   0.442   6.589   1.444 -0.2141  0.2115  0.3312
 1907ntf    cn113475   0.506   6.659   1.598  0.3899 -0.4965  0.4076
 1907ntf    fn413476   0.147   6.753   1.116  0.2257  0.6617 -0.4163
 1907ntf    fn413477   0.343   6.684   1.082  0.0085  0.6611  0.5878
 1907ntf    fn413478   0.229   6.578   1.221  0.0874 -0.3014 -0.5602
 1907ntf    on513479   0.369   6.915   1.218 -0.5476  0.0675 -0.3295
 1907ntf    on513480   0.222   6.846   1.396  0.1169  0.0633  0.1723
 1907ntf    on513481   0.550   6.504   1.399  0.2080  0.5105  0.7758
 1907ntf    on513482   0.317   6.529   1.484  0.0334 -0.8224 -0.3899
 1907ntf    fn413483   0.410   6.725   1.661  0.4120  0.1690 -0.2390
 1907ntf    fn413484   0.565   6.568   1.674  0.5825 -0.7803 -0.0779
 1907ntf    fn413485   0.604   6.746   1.577 -0.0939  0.0019  0.1981
 1908ntf    cn113486   1.161   3.978   3.038 -0.2150  0.1628 -0.1191
 1908ntf    sn213487   1.040   4.064   2.933 -0.2743  0.0875 -0.1126
 1908ntf    nn313488   1.047   4.213   2.982  0.4147  0.1421 -0.3714
 1908ntf    sn213489   1.132   4.334   2.928  0.6430 -0.1306 -0.6239
 1908ntf    cn113490   1.220   4.372   3.083 -0.0366 -0.0398 -0.2558
 1908ntf    fn413491   1.127   3.852   3.057  0.3100  0.0417  0.0198
 1908ntf    fn413492   1.284   3.973   2.990 -0.0256 -0.4749  0.4187
 1908ntf    fn413493   1.171   4.028   3.160  0.6037  0.7766 -0.4320
 1908ntf    on513494   1.080   4.046   2.796 -0.4370 -0.0572 -0.1407
 1908ntf    on513495   0.914   4.006   2.971 -0.1632 -0.0772  0.0028
 1908ntf    on513496   1.054   4.453   2.905 -0.0700 -0.3746  0.4519
 1908ntf    on513497   1.235   4.310   2.829  0.4737  0.7705 -1.0285
 1908ntf    fn413498   1.272   4.493   3.084  0.0194 -0.0685  0.3203
 1908ntf    fn413499   1.135   4.369   3.183 -0.3139  0.4396 -0.4728
 1908ntf    fn413500   1.323   4.291   3.103  0.1608 -0.0022 -1.0825
 1909ntf    cn113501   5.021   2.349   1.443  0.4246 -0.1486  0.2649
 1909ntf    sn213502   4.905   2.430   1.557  0.2618  0.0544 -0.0432
 1909ntf    nn313503   4.829   2.526   1.459 -0.0558 -0.3770 -0.2249
 1909ntf    sn213504   4.714   2.484   1.360 -0.3966 -0.1397  0.0668
 1909ntf    cn113505   4.564   2.515   1.458 -0.0336 -0.3194  0.6881
 1909ntf    fn413506   5.132   2.295   1.492  0.1629 -1.0373 -0.1070
 1909ntf    fn413507   4.955   2.255   1.377  0.6563 -0.0714 -0.0802
 1909ntf    fn413508   5.068   2.444   1.363  0.1318 -0.9621 -0.8949
 1909ntf    on513509   4.828   2.325   1.620 -0.0499  0.0198 -0.4725
 1909ntf    on513510   4.993   2.505   1.642  0.3046 -0.0648  0.0178
 1909ntf    on513511   4.709   2.343   1.330  0.3510 -0.1283 -0.1486
 1909ntf    on513512   4.698   2.574   1.249 -0.4028 -0.0381  0.1502
 1909ntf    fn413513   4.568   2.637   1.508 -0.1069 -0.1090  0.1924
 1909ntf    fn413514   4.451   2.501   1.390  0.0402 -0.1490  0.5259
 1909ntf    fn413515   4.554   2.435   1.562 -0.1050 -0.4547  0.5766
 1910ntf    cn113516   5.566   2.509   0.813 -0.0139 -0.3174 -0.2084
 1910ntf    sn213517   5.452   2.377   0.759 -0.2971 -0.1114 -0.1156
 1910ntf    nn313518   5.443   2.286   0.887  0.4853  0.1609  0.1372
 1910ntf    sn213519   5.527   2.156   0.914  0.0213 -0.1473  0.0926
 1910ntf    cn113520   5.688   2.222   0.966  0.1047  0.0694 -0.4359
 1910ntf    fn413521   5.599   2.578   0.705  0.4504 -0.4432 -0.1478
 1910ntf    fn413522   5.521   2.585   0.911 -0.2803  0.1887 -0.7162
 1910ntf    fn413523   5.683   2.458   0.849 -0.3224 -0.5175  0.5369
 1910ntf    on513524   5.329   2.450   0.741 -0.0439  0.2657 -0.3110
 1910ntf    on513525   5.521   2.329   0.642 -0.1470  0.1585 -0.1379
 1910ntf    on513526   5.555   2.065   0.805  0.2987 -0.3175  0.3058
 1910ntf    on513527   5.478   2.097   1.036  0.0519 -0.1578  0.0998
 1910ntf    fn413528   5.777   2.228   0.868 -0.0258  0.8564 -0.5127
 1910ntf    fn413529   5.671   2.343   1.016 -0.5339  0.0824 -0.6749
 1910ntf    fn413530   5.745   2.146   1.058 -0.6079  0.2136  0.1292
 1911ntf    cn113531   3.219   5.833   5.459 -0.1225 -0.1634 -0.2015
 1911ntf    sn213532   3.340   5.966   5.434  0.0188 -0.2034  0.2537
 1911ntf    nn313533   3.242   6.084   5.404  0.4972  0.0904 -0.1781
 1911ntf    sn213534   3.185   6.191   5.504  0.2046 -0.3212  0.1018
 1911ntf    cn113535   3.261   6.343   5.439  0.1820 -0.4358 -0.1923
 1911ntf    fn413536   3.146   5.874   5.561 -0.5512 -0.2851 -0.4577
 1911ntf    fn413537   3.132   5.815   5.362  0.0422  0.1666 -0.4087
 1911ntf    fn413538   3.258   5.709   5.487  0.0620 -0.0748 -0.0604
 1911ntf    on513539   3.428   5.975   5.548 -0.4563 -0.3217  0.6284
 1911ntf    on513540   3.405   5.929   5.310 -0.9595  0.6263 -0.5222
 1911ntf    on513541   3.233   6.183   5.640  0.1572 -0.4001  0.1131
 1911ntf    on513542   3.044   6.209   5.480  0.1691 -0.3613  0.2765
 1911ntf    fn413543   3.389   6.325   5.412  0.2927 -0.2456  0.2081
 1911ntf    fn413544   3.192   6.380   5.332 -0.0482  0.2641  0.1890
 1911ntf    fn413545   3.257   6.442   5.526 -0.5711 -0.4310 -0.2223
 1912ntf    cn113546   1.796   3.012   4.266 -0.1660  0.1241 -0.0751
 1912ntf    sn213547   1.747   3.184   4.297 -0.2842  0.0801 -0.0180
 1912ntf    nn313548   1.684   3.221   4.158  0.2874 -0.5402 -0.4451
 1912ntf    sn213549   1.753   3.281   4.030  0.2205  0.0888 -0.1932
 1912ntf    cn113550   1.732   3.458   4.060  0.0154  0.0247  0.0386
 1912ntf    fn413551   1.854   3.006   4.147 -0.3150  0.6423 -0.1770
 1912ntf    fn413552   1.885   2.967   4.353  0.2200  0.2047 -0.4300
 1912ntf    fn413553   1.692   2.930   4.258 -0.0773  0.0140 -0.0925
 1912ntf    on513554   1.647   3.169   4.400 -0.3527 -0.3546 -0.1471
 1912ntf    on513555   1.866   3.254   4.335  0.1183  0.0374 -1.1706
 1912ntf    on513556   1.667   3.263   3.915  0.4007 -0.1758 -0.2901
 1912ntf    on513557   1.894   3.252   4.016  0.2693 -0.0311  0.4891
 1912ntf    fn413558   1.607   3.501   4.069  0.1195  0.2886  0.2835
 1912ntf    fn413559   1.795   3.483   4.174  0.7999  0.0062 -0.3878
 1912ntf    fn413560   1.797   3.527   3.968 -0.1090 -0.3452 -0.3271
 1913ntf    cn113561   6.331   6.504   1.482 -0.1775 -0.0596  0.0163
 1913ntf    sn213562   6.392   6.337   1.517  0.1934  0.0515 -0.0988
 1913ntf    nn313563   6.434   6.358   1.666  0.2792  0.3075 -0.1574
 1913ntf    sn213564   6.576   6.362   1.733  0.1073  0.1807  0.2168
 1913ntf    cn113565   6.554   6.527   1.807 -0.0362  0.4457 -0.4116
 1913ntf    fn413566   6.434   6.587   1.473 -0.3842  0.2049  0.0405
 1913ntf    fn413567   6.252   6.522   1.376  0.0263  0.1484 -0.1017
 1913ntf    fn413568   6.261   6.550   1.585  0.2854 -0.1471  0.3699
 1913ntf    on513569   6.278   6.251   1.502  0.2648 -0.0901  0.1746
 1913ntf    on513570   6.504   6.319   1.427  0.5402 -0.0534  0.3487
 1913ntf    on513571   6.691   6.378   1.648  0.0198  0.5719  0.1726
 1913ntf    on513572   6.577   6.275   1.849 -0.1610 -0.1172 -0.0030
 1913ntf    fn413573   6.439   6.529   1.872  0.6646  0.1917  0.8706
 1913ntf    fn413574   6.638   6.560   1.903 -0.7528  0.4497  0.2295
 1913ntf    fn413575   6.557   6.623   1.716 -0.3651 -0.0096 -0.9102
 1914ntf    cn113576   3.735   6.860   5.337 -0.0597  0.4060  0.3453
 1914ntf    sn213577   3.745   7.035   5.385  0.3411  0.5469 -0.2390
 1914ntf    nn313578   3.880   7.086   5.324  0.5659  0.4734  0.1915
 1914ntf    sn213579   3.902   7.150   5.182  0.1877  0.1407 -0.0174
 1914ntf    cn113580   4.081   7.176   5.183  0.2762 -0.4540  0.4249
 1914ntf    fn413581   3.827   6.786   5.396 -0.1268 -0.2227 -0.3399
 1914ntf    fn413582   3.619   6.810   5.377  0.0568 -0.0674  0.0927
 1914ntf    fn413583   3.753   6.838   5.208  0.2974  0.8446  0.3175
 1914ntf    on513584   3.631   7.101   5.326 -0.0381  0.1458  0.0361
 1914ntf    on513585   3.750   7.025   5.529  0.3101  0.8038 -0.2183
 1914ntf    on513586   3.851   7.285   5.179  0.2588  0.1613 -0.2974
 1914ntf    on513587   3.878   7.064   5.069 -1.0639  0.4149  0.0204
 1914ntf    fn413588   4.125   7.224   5.068  0.0367 -0.7644  0.2031
 1914ntf    fn413589   4.125   7.261   5.275  0.0561  0.2123 -0.0811
 1914ntf    fn413590   4.145   7.062   5.201  0.9463 -0.2043 -0.2817
 1915ntf    cn113591   4.579   2.552   0.497  0.3000 -0.3125 -0.2872
 1915ntf    sn213592   4.741   2.582   0.421  0.1802 -0.0779 -0.4495
 1915ntf    nn313593   4.697   2.575   0.270  0.1721  0.1527 -0.4585
 1915ntf    sn213594   4.764   2.525   0.137  0.4476 -0.1140 -0.2211
 1915ntf    cn113595   4.644   2.392   0.110 -0.2345  0.3751  0.3562
 1915ntf    fn413596   4.572   2.575   0.627 -0.0742  0.1638 -0.3908
 1915ntf    fn413597   4.488   2.630   0.441  0.6108  0.2475 -0.0156
 1915ntf    fn413598   4.544   2.425   0.479  0.1802 -0.3047 -0.1199
 1915ntf    on513599   4.787   2.715   0.454 -0.0603 -0.0382 -0.2763
 1915ntf    on513600   4.825   2.477   0.473  0.6529  0.4962 -0.0448
 1915ntf    on513601   4.897   2.475   0.159  0.2091 -0.3133  0.8422
 1915ntf    on513602   4.748   2.621   0.031  0.2624  0.5529  0.3978
 1915ntf    fn413603   4.515   2.421   0.105 -0.4223 -0.4834 -0.0712
 1915ntf    fn413604   4.661   2.310   0.007 -0.1599  0.2953  0.4324
 1915ntf    fn413605   4.647   2.317   0.219 -0.0270  0.0705  0.1419
 1916ntf    cn113606   1.245   1.748   5.763 -0.2848 -0.3628  0.1635
 1916ntf    sn213607   1.111   1.805   5.653 -0.0728  0.0159  0.1025
 1916ntf    nn313608   1.156   1.955   5.643  0.5571 -0.1355  0.5848
 1916ntf    sn213609   1.093   2.077   5.719  0.0139  0.1523 -0.3171
 1916ntf    cn113610   1.229   2.198   5.735  0.1937 -0.0245 -0.4938
 1916ntf    fn413611   1.259   1.617   5.745  0.0803 -0.3568  0.4044
 1916ntf    fn413612   1.363   1.799   5.732 -0.5611  0.2250  0.0592
 1916ntf    fn413613   1.224   1.776   5.890  0.1289  0.0958  0.1323
 1916ntf    on513614   1.142   1.726   5.536  0.2675 -0.0671  0.2453
 1916ntf    on513615   0.989   1.769   5.719  0.0722 -0.6287  0.0233
 1916ntf    on513616   1.065   2.061   5.859  0.1539  0.1392 -0.2906
 1916ntf    on513617   0.998   2.144   5.634  0.0438 -0.1371 -0.5811
 1916ntf    fn413618   1.199   2.306   5.806  0.2249 -0.5820  0.3864
 1916ntf    fn413619   1.329   2.145   5.803  0.2111  0.6411  0.0101
 1916ntf    fn413620   1.269   2.247   5.619  0.2936  0.7142 -0.1477
 1917ntf    cn113621   1.180   4.685   5.384  0.4489 -0.1995  0.4552
 1917ntf    sn213622   1.002   4.651   5.397  0.3741 -0.1047 -0.2359
 1917ntf    nn313623   0.961   4.577   5.265 -0.5446 -0.1114  0.0515
 1917ntf    sn213624   0.904   4.432   5.244 -0.1010 -0.2777 -0.0189
 1917ntf    cn113625   0.943   4.431   5.066  0.1633 -0.1764  0.0382
 1917ntf    fn413626   1.204   4.751   5.271 -0.5904  0.0955  0.3978
 1917ntf    fn413627   1.222   4.766   5.479  0.0196 -0.1081  0.5688
 1917ntf    fn413628   1.260   4.580   5.395  0.3178 -0.3234  0.2477
 1917ntf    on513629   0.981   4.586   5.524 -0.2006  0.3011 -0.1207
 1917ntf    on513630   0.945   4.782   5.385  0.6955 -0.0325 -0.9984
 1917ntf    on513631   0.760   4.419   5.232 -0.1527  0.3727 -0.1548
 1917ntf    on513632   0.980   4.323   5.299 -0.2525 -0.2250  0.2985
 1917ntf    fn413633   0.886   4.325   5.010 -0.0443 -0.0623  0.0291
 1917ntf    fn413634   0.890   4.537   5.007 -0.3363 -0.4445 -0.0078
 1917ntf    fn413635   1.068   4.427   5.024  0.0133 -0.7395 -0.3611
 1918ntf    cn113636   3.091   6.514   5.042  0.3726  0.3704  0.5313
 1918ntf    sn213637   2.961   6.562   4.925  0.5093  0.0075  0.2296
 1918ntf    nn313638   2.898   6.423   4.888  0.6169 -0.1140  0.5031
 1918ntf    sn213639   2.953   6.316   4.787 -0.1782 -0.1982  0.1518
 1918ntf    cn113640   2.861   6.344   4.633  0.5448  0.0903 -0.2310
 1918ntf    fn413641   3.135   6.625   5.100  0.0629  0.4227  0.6714
 1918ntf    fn413642   3.041   6.435   5.135 -0.1159 -0.5333 -0.4765
 1918ntf    fn413643   3.192   6.450   4.985  0.1146  0.0279  0.4560
 1918ntf    on513644   2.877   6.643   5.010  0.1713  0.0032 -0.0945
 1918ntf    on513645   3.030   6.638   4.824 -0.3278  0.0119 -0.3509
 1918ntf    on513646   2.904   6.186   4.827 -0.3754 -0.2342 -0.2063
 1918ntf    on513647   3.093   6.315   4.755 -0.1328 -0.7576  0.3611
 1918ntf    fn413648   2.924   6.274   4.540  0.5013  0.0472 -0.2281
 1918ntf    fn413649   2.733   6.310   4.628  0.6628 -0.3480 -0.3264
 1918ntf    fn413650   2.858   6.467   4.583  0.2252  0.1896  0.0315
 1919ntf    cn113651   6.330   2.237   3.471 -0.6025 -0.2978  0.2644
 1919ntf    sn213652   6.390   2.139   3.330 -0.4458  0.2149 -0.0258
 1919ntf    nn313653   6.305   2.011   3.363 -0.2384 -0.0374 -0.4565
 1919ntf    sn213654   6.269   1.898   3.261  0.0762 -0.0253 -0.5818
 1919ntf    cn113655   6.374   1.763   3.324 -0.0047 -0.0717 -0.5466
 1919ntf    fn413656   6.391   2.353   3.486 -0.6458 -0.2405 -0.0132
 1919ntf    fn413657   6.199   2.251   3.462 -0.5203  0.5019  0.2300
 1919ntf    fn413658   6.346   2.176   3.588 -0.1639  0.1761  0.4545
 1919ntf    on513659   6.351   2.221   3.217 -0.2747  0.7042  0.2685
 1919ntf    on513660   6.530   2.130   3.361 -0.5418  0.1787  0.4117
 1919ntf    on513661   6.322   1.906   3.127  0.6621  0.4255 -0.3231
 1919ntf    on513662   6.138   1.843   3.287  0.4059 -0.5719 -0.0318
 1919ntf    fn413663   6.353   1.748   3.454 -0.2248  0.0942 -0.5620
 1919ntf    fn413664   6.376   1.646   3.262  0.4781 -0.5962  0.4402
 1919ntf    fn413665   6.495   1.815   3.316  0.1074 -0.3831 -0.8787
 1920ntf    cn113666   1.728   3.236   0.795 -0.6341 -0.0870 -0.1088
 1920ntf    sn213667   1.739   3.084   0.696 -0.1999 -0.1682  0.0600
 1920ntf    nn313668   1.874   3.104   0.619 -0.0885 -0.1953  0.2496
 1920ntf    sn213669   2.015   3.042   0.652  0.1045  0.2679  0.2947
 1920ntf    cn113670   2.116   3.193   0.639  0.0183  0.2989 -0.0250
 1920ntf    fn413671   1.631   3.223   0.884 -0.2733 -0.5668  0.2202
 1920ntf    fn413672   1.839   3.263   0.862 -0.5179 -0.5347 -0.1194
 1920ntf    fn413673   1.691   3.339   0.721  0.0591  0.0006 -0.3467
 1920ntf    on513674   1.741   2.985   0.801 -0.1096 -0.1543  0.0712
 1920ntf    on513675   1.625   3.102   0.610 -0.0248  0.8930  0.0417
 1920ntf    on513676   2.069   2.960   0.546 -0.3309 -0.2025  0.4335
 1920ntf    on513677   2.053   3.006   0.786  0.0780 -0.0069  0.2278
 1920ntf    fn413678   2.220   3.191   0.721 -0.4973  0.1463  0.6328
 1920ntf    fn413679   2.159   3.216   0.516 -0.3536  0.2063 -0.1714
 1920ntf    fn413680   2.056   3.302   0.682 -0.3861  0.1483 -0.2050
 1921ntf    cn113681   1.570   2.776   2.275 -0.4663  0.0966  0.2603
 1921ntf    sn213682   1.745   2.755   2.228 -0.4769 -0.1383  0.3274
 1921ntf    nn313683   1.729   2.679   2.091 -0.1858 -0.0278  0.2324
 1921ntf    sn213684   1.692   2.528   2.070  0.0769 -0.0214 -0.2854
 1921ntf    cn113685   1.714   2.538   1.889  0.3440  0.1972 -0.2415
 1921ntf    fn413686   1.560   2.853   2.382  0.3456  0.5360  0.0305
 1921ntf    fn413687   1.491   2.830   2.184  0.1300 -0.2385 -0.4697
 1921ntf    fn413688   1.507   2.662   2.298  0.2601 -0.4259 -0.2925
 1921ntf    on513689   1.804   2.886   2.216 -0.1732 -0.2630  0.4549
 1921ntf    on513690   1.807   2.664   2.321  1.0491 -0.0049 -0.5223
 1921ntf    on513691   1.556   2.485   2.090  0.0832  0.2002  0.2450
 1921ntf    on513692   1.788   2.427   2.105 -0.3734  0.0369  1.1538
 1921ntf    fn413693   1.605   2.591   1.836  0.1403  0.0156 -0.0078
 1921ntf    fn413694   1.809   2.621   1.851  0.1728  0.3737 -0.2823
 1921ntf    fn413695   1.743   2.424   1.828 -0.0835  0.2965 -0.6372
 1922ntf    cn113696   5.703   4.253   6.798 -0.8029 -0.0955  0.2700
 1922ntf    sn213697   5.785   4.121   6.704 -0.3905  0.1812  0.2355
 1922ntf    nn313698   5.835   4.019   6.813 -0.3710  0.2744  0.3139
 1922ntf    sn213699   5.841   4.037   6.969  0.0563  0.0571  0.3256
 1922ntf    cn113700   5.898   3.871   7.015 -0.2927 -0.2452 -0.3055
 1922ntf    fn413701   5.788   4.301   6.887 -0.4094 -0.0970 -0.1012
 1922ntf    fn413702   5.670   4.360   6.727 -0.7969 -0.4579 -0.2858
 1922ntf    fn413703   5.593   4.214   6.859 -0.5542 -0.5002  0.4598
 1922ntf    on513704   5.673   4.068   6.631  0.3470  0.1410 -0.8848
 1922ntf    on513705   5.894   4.177   6.627 -0.2590  0.3641  0.5532
 1922ntf    on513706   5.711   4.045   7.030 -0.1271  0.4059 -0.1035
 1922ntf    on513707   5.943   4.128   7.015 -0.1218  0.3883  0.0755
 1922ntf    fn413708   5.801   3.784   7.032 -0.2216 -0.2792 -0.0652
 1922ntf    fn413709   5.978   3.810   6.929  0.5552 -0.0825  0.3414
 1922ntf    fn413710   5.965   3.874   7.130 -0.0617  0.4021 -0.4489
 1923ntf    cn113711   5.037   4.265   3.736 -0.0599  0.3212  0.0037
 1923ntf    sn213712   5.152   4.355   3.628  0.2693 -0.0745  0.0230
 1923ntf    nn313713   5.186   4.475   3.723  0.0383 -0.5621  0.7333
 1923ntf    sn213714   5.115   4.615   3.729  0.4723 -0.2733 -0.4849
 1923ntf    cn113715   5.244   4.740   3.705  0.4227 -0.1042  0.1326
 1923ntf    fn413716   4.981   4.163   3.672  0.4050  0.1477 -0.1334
 1923ntf    fn413717   5.095   4.209   3.841 -0.2466  0.3483  0.1212
 1923ntf    fn413718   4.933   4.333   3.782 -0.3005  0.8411 -1.2573
 1923ntf    on513719   5.264   4.264   3.617  0.3818  0.0141  0.4160
 1923ntf    on513720   5.080   4.370   3.504  0.2993 -0.3032 -0.0233
 1923ntf    on513721   5.078   4.640   3.866  0.2205 -0.0339 -0.5968
 1923ntf    on513722   5.019   4.639   3.625  0.3637  0.0801 -0.3023
 1923ntf    fn413723   5.197   4.864   3.716 -0.1948 -0.3381  0.1673
 1923ntf    fn413724   5.337   4.734   3.799  0.2747  0.0787  0.2917
 1923ntf    fn413725   5.303   4.725   3.588  0.8540 -0.4989  0.3933
 1924ntf    cn113726   4.323   2.355   6.230  0.2658  0.0586  0.0647
 1924ntf    sn213727   4.230   2.480   6.324  0.1177 -0.0763  0.0973
 1924ntf    nn313728   4.346   2.585   6.334 -0.0349  0.0951  0.0682
 1924ntf    sn213729   4.382   2.670   6.461 -0.1169 -0.0878  0.2158
 1924ntf    cn113730   4.539   2.607   6.528  0.0920 -0.3862 -0.5360
 1924ntf    fn413731   4.379   2.415   6.126  0.6287 -0.5287 -0.0823
 1924ntf    fn413732   4.423   2.297   6.295  0.2523  0.4607  0.4476
 1924ntf    fn413733   4.233   2.268   6.189  0.2157  0.1070  0.0716
 1924ntf    on513734   4.116   2.519   6.245  0.0437 -0.5605 -0.0399
 1924ntf    on513735   4.193   2.408   6.443  0.0182  0.1098  0.1799
 1924ntf    on513736   4.291   2.663   6.572 -0.5481 -0.4806 -0.1566
 1924ntf    on513737   4.414   2.803   6.413 -0.4655  0.0427  0.3436
 1924ntf    fn413738   4.533   2.476   6.545 -0.1241 -0.3627 -0.4204
 1924ntf    fn413739   4.642   2.627   6.448 -0.3115  0.3377 -0.8875
 1924ntf    fn413740   4.564   2.658   6.648 -0.4667 -0.0017 -0.5771
 1925ntf    cn113741   3.668   2.904   6.574  0.1248 -0.6208  0.1773
 1925ntf    sn213742   3.500   2.967   6.601  0.4379  0.2652  0.0700
 1925ntf    nn313743   3.527   3.065   6.721  0.3562  0.1232  0.2037
 1925ntf    sn213744   3.560   3.219   6.719  0.5323  0.0850  0.1414
 1925ntf    cn113745   3.690   3.213   6.846  0.4225 -0.1715  0.2423
 1925ntf    fn413746   3.756   3.001   6.587  0.3640 -0.7347 -0.5087
 1925ntf    fn413747   3.702   2.815   6.666 -0.3402 -0.8418  0.1383
 1925ntf    fn413748   3.691   2.845   6.457  0.5029 -0.3194  0.0965
 1925ntf    on513749   3.465   3.022   6.472 -0.1786 -0.4019 -0.0498
 1925ntf    on513750   3.444   2.841   6.641  0.5205  0.3992  0.6179
 1925ntf    on513751   3.447   3.294   6.767  0.6721  0.0950  0.4560
 1925ntf    on513752   3.628   3.264   6.600  0.8346 -0.5343  0.0731
 1925ntf    fn413753   3.803   3.154   6.813  0.4403 -0.1393  0.2467
 1925ntf    fn413754   3.730   3.337   6.867  0.1779 -0.0463 -0.0172
 1925ntf    fn413755   3.655   3.151   6.958  0.0568  0.3412  0.4166
 1926ntf    cn113756   3.027   2.156   6.092  0.3820  0.4204  0.4626
 1926ntf    sn213757   3.139   2.058   5.987 -0.0474  0.2705  0.1400
 1926ntf    nn313758   3.198   2.174   5.900 -0.0100 -0.0260 -0.2317
 1926ntf    sn213759   3.170   2.220   5.752  0.1897  0.0994 -0.2311
 1926ntf    cn113760   3.296   2.349   5.731  0.1004  0.2022 -0.1380
 1926ntf    fn413761   2.902   2.136   6.054  0.6040 -0.4003  0.1459
 1926ntf    fn413762   3.032   2.121   6.219  0.3294 -0.2507  0.2870
 1926ntf    fn413763   3.053   2.286   6.093 -0.5652  0.6383 -0.3336
 1926ntf    on513764   3.246   2.006   6.068  0.2265 -0.3392 -0.5965
 1926ntf    on513765   3.050   1.956   5.935  0.2180  0.3510 -0.4762
 1926ntf    on513766   3.043   2.284   5.733 -0.0760 -0.2266  0.4325
 1926ntf    on513767   3.217   2.125   5.654  0.9252 -0.1261  0.3288
 1926ntf    fn413768   3.267   2.469   5.777  0.1321 -0.0863  0.6607
 1926ntf    fn413769   3.417   2.320   5.779 -0.0173  0.0027  0.0437
 1926ntf    fn413770   3.322   2.376   5.605  0.0104 -0.2028 -0.2457
 1927ntf    cn113771   3.079   4.739   3.047  0.2049  0.1304 -0.1540
 1927ntf    sn213772   2.904   4.697   3.018  0.1781 -0.0788  0.2914
 1927ntf    nn313773   2.910   4.545   2.978 -0.0575  0.0218 -0.1352
 1927ntf    sn213774   2.788   4.450   2.953 -0.2609  0.2867 -0.1645
 1927ntf    cn113775   2.807   4.363   3.112 -0.1667  0.5219 -0.0467
 1927ntf    fn413776   3.129   4.682   3.156 -0.5047 -0.2493 -0.0187
 1927ntf    fn413777   3.161   4.703   2.950 -0.0065 -0.4459 -0.1243
 1927ntf    fn413778   3.097   4.868   3.072 -0.4094  0.1549  0.2081
 1927ntf    on513779   2.840   4.727   3.143  0.2517 -0.1092  0.3361
 1927ntf    on513780   2.877   4.786   2.907  0.3488  0.3102  0.5616
 1927ntf    on513781   2.807   4.348   2.853 -0.0781  0.3832 -0.2266
 1927ntf    on513782   2.657   4.509   2.961 -0.1507  0.5002  0.0745
 1927ntf    fn413783   2.931   4.321   3.130 -0.2137 -0.0160 -0.8926
 1927ntf    fn413784   2.786   4.436   3.220 -0.0389 -0.2682  0.5202
 1927ntf    fn413785   2.729   4.256   3.109 -0.0048  0.4044 -0.1124
 1928ntf    cn113786   5.945   5.647   2.090  0.2809 -0.1694  0.3032
 1928ntf    sn213787   6.038   5.617   2.243  0.4019  0.2371  0.3081
 1928ntf    nn313788   6.095   5.762   2.268 -0.2678  0.6370 -0.4339
 1928ntf    sn213789   6.163   5.798   2.405  0.0287  0.0672 -0.4285
 1928ntf    cn113790   6.032   5.897   2.481 -0.0267 -0.2635 -0.0902
 1928ntf    fn413791   5.876   5.544   2.041  0.0196  0.3338 -0.4040
 1928ntf    fn413792   5.853   5.741   2.103 -0.1620 -0.5130 -0.2533
 1928ntf    fn413793   6.012   5.692   1.986  0.2680 -0.5297  0.1359
 1928ntf    on513794   5.938   5.572   2.337  0.0157  0.0363 -0.1983
 1928ntf    on513795   6.140   5.522   2.205  0.2880  0.1327  0.2651
 1928ntf    on513796   6.271   5.892   2.385  0.5347 -0.3194  0.4365
 1928ntf    on513797   6.180   5.692   2.501  0.1604  0.1167 -0.3969
 1928ntf    fn413798   6.064   5.940   2.602 -0.8707 -0.2158  0.1233
 1928ntf    fn413799   5.997   6.003   2.409  0.1208  0.4205  0.8247
 1928ntf    fn413800   5.928   5.821   2.512  0.0047 -0.2136  0.1368
 1929ntf    cn113801   5.035   6.201   2.570  0.7138 -0.2852  0.0599
 1929ntf    sn213802   5.141   6.168   2.427  0.1029 -0.5105 -0.3480
 1929ntf    nn313803   5.161   6.013   2.439  0.2041 -0.4658  0.0735
 1929ntf    sn213804   5.231   5.915   2.338  0.1733  0.1079 -0.5146
 1929ntf    cn113805   5.383   5.881   2.431  0.0464  0.0839 -0.3142
 1929ntf    fn413806   5.079   6.174   2.692  0.0757 -0.0390  0.3549
 1929ntf    fn413807   5.000   6.329   2.571  0.0180 -0.4677 -0.3112
 1929ntf    fn413808   4.923   6.131   2.561 -0.0792  0.9491 -0.0019
 1929ntf    on513809   5.075   6.219   2.309  0.0579 -0.4236 -0.2849
 1929ntf    on513810   5.263   6.235   2.466 -0.4574  0.2774  0.0823
 1929ntf    on513811   5.274   5.980   2.217 -0.3556 -0.0634 -0.7984
 1929ntf    on513812   5.167   5.786   2.331 -0.2204  0.2442  0.3910
 1929ntf    fn413813   5.452   5.993   2.422 -0.6813  0.5995  0.3685
 1929ntf    fn413814   5.357   5.857   2.559 -0.6447  0.2908 -0.4113
 1929ntf    fn413815   5.458   5.788   2.375 -0.3411 -0.1928 -0.3777
 1930ntf    cn113816   3.562   4.067   1.618 -0.2601  0.3445 -0.0147
 1930ntf    sn213817   3.473   4.047   1.775  0.0109  0.1428  0.1143
 1930ntf    nn313818   3.590   3.982   1.857 -0.0203 -0.3850 -0.2553
 1930ntf    sn213819   3.687   4.051   1.959 -0.5120  0.0264 -0.0603
 1930ntf    cn113820   3.680   3.920   2.086  0.0259  0.3008  0.2549
 1930ntf    fn413821   3.625   3.955   1.585 -0.0179  0.5406 -0.2274
 1930ntf    fn413822   3.485   4.098   1.515 -0.2125  0.2619 -0.0751
 1930ntf    fn413823   3.649   4.167   1.623 -0.0999  0.2178 -0.2570
 1930ntf    on513824   3.429   4.178   1.817 -0.4494  0.0186  0.0243
 1930ntf    on513825   3.372   3.948   1.747  0.0694  0.0875  0.0985
 1930ntf    on513826   3.649   4.169   2.032 -0.5910 -0.2643  0.3734
 1930ntf    on513827   3.824   4.034   1.918 -0.6117 -0.0150 -0.3746
 1930ntf    fn413828   3.719   3.804   2.036  0.1436  0.2873  0.3760
 1930ntf    fn413829   3.764   3.944   2.185  0.3680  0.1730 -0.0022
 1930ntf    fn413830   3.572   3.890   2.155  0.0172 -0.1969  0.0300
 1931ntf    cn113831   1.294   5.090   0.616 -0.1243 -0.0845  0.2584
 1931ntf    sn213832   1.297   4.942   0.721  0.1417 -0.0194  0.3448
 1931ntf    nn313833   1.325   4.838   0.607  0.2940  0.1612  0.2175
 1931ntf    sn213834   1.245   4.707   0.574  0.1194  0.4234 -0.4022
 1931ntf    cn113835   1.199   4.723   0.399 -0.2582  0.2354 -0.3206
 1931ntf    fn413836   1.182   5.101   0.546  0.0095 -0.2715  0.0165
 1931ntf    fn413837   1.294   5.203   0.686 -0.0820 -0.0003  0.1243
 1931ntf    fn413838   1.398   5.088   0.535  0.2450  0.3074  0.7133
 1931ntf    on513839   1.401   4.963   0.818 -0.0559  0.1305  0.5260
 1931ntf    on513840   1.161   4.958   0.766 -0.1766 -0.1706 -0.5435
 1931ntf    on513841   1.112   4.697   0.628  0.2260  0.1011 -0.1950
 1931ntf    on513842   1.324   4.586   0.582 -0.1251  0.2999  0.1595
 1931ntf    fn413843   1.162   4.845   0.364  0.4905  0.3700 -0.6554
 1931ntf    fn413844   1.298   4.700   0.314  0.1668  0.0320  0.2288
 1931ntf    fn413845   1.105   4.639   0.358 -0.0051 -0.3423  0.2610
 1932ntf    cn113846   4.266   6.566   5.752 -0.4770  0.1396  0.1605
 1932ntf    sn213847   4.306   6.743   5.771 -0.0021  0.0706 -0.2044
 1932ntf    nn313848   4.336   6.789   5.624  0.4086 -0.8753 -0.4265
 1932ntf    sn213849   4.231   6.800   5.508  0.1575 -0.1454 -0.1351
 1932ntf    cn113850   4.170   6.966   5.551  0.1865 -0.1196 -0.1940
 1932ntf    fn413851   4.334   6.502   5.659 -0.3554  0.1892  0.2155
 1932ntf    fn413852   4.284   6.502   5.866  1.5420  0.1481 -0.1301
 1932ntf    fn413853   4.137   6.553   5.723 -0.4346  0.2794 -0.0941
 1932ntf    on513854   4.195   6.804   5.839  0.2405  0.3277 -0.0371
 1932ntf    on513855   4.430   6.725   5.842 -0.2377  0.3559  0.2788
 1932ntf    on513856   4.125   6.702   5.517  0.5769 -0.5629  0.2627
 1932ntf    on513857   4.295   6.827   5.381  0.2058  0.1654 -0.0455
 1932ntf    fn413858   4.119   7.034   5.450  0.1345  0.1519  0.0127
 1932ntf    fn413859   4.078   6.989   5.643  0.5286  0.2863  0.0507
 1932ntf    fn413860   4.266   7.047   5.593 -0.3151  0.3904 -0.0137
 1933ntf    cn113861   1.885   0.899   6.009 -0.1659  0.0336  0.1125
 1933ntf    sn213862   1.797   0.904   6.168  0.2406 -0.1044  0.3429
 1933ntf    nn313863   1.901   0.836   6.264  0.0383  0.0310  0.6576
 1933ntf    sn213864   1.920   0.682   6.292 -0.0239 -0.0682  0.1567
 1933ntf    cn113865   2.087   0.667   6.219  0.0853  0.2238  0.3454
 1933ntf    fn413866   1.814   0.955   5.912  0.6607  0.3948 -0.2981
 1933ntf    fn413867   1.995   0.973   6.015 -0.0404 -0.1010 -0.4843
 1933ntf    fn413868   1.922   0.778   5.973 -0.1053  0.1218 -0.1270
 1933ntf    on513869   1.789   1.043   6.206  0.0167  0.1643 -0.6571
 1933ntf    on513870   1.671   0.836   6.147  0.2714 -0.1115  0.1802
 1933ntf    on513871   1.840   0.595   6.210 -0.1818  0.2241 -0.0005
 1933ntf    on513872   1.937   0.648   6.431  0.0098  0.7614  0.3646
 1933ntf    fn413873   2.135   0.544   6.217 -0.0225  0.1761  0.5713
 1933ntf    fn413874   2.093   0.717   6.097  0.2449 -0.3290  0.1261
 1933ntf    fn413875   2.176   0.733   6.292  0.0228  0.2384  0.4093
 1934ntf    cn113876   1.983   4.548   5.178 -0.4805 -0.0413 -0.0950
 1934ntf    sn213877   1.921   4.403   5.268 -0.5841 -0.0755 -0.2208
 1934ntf    nn313878   1.768   4.436   5.260 -0.5089  0.2360 -0.3948
 1934ntf    sn213879   1.656   4.390   5.360  0.2647 -0.2807  0.2409
 1934ntf    cn113880   1.630   4.544   5.452 -0.2710 -0.1698 -0.0935
 1934ntf    fn413881   2.114   4.558   5.194 -0.4316  0.0326 -0.5211
 1934ntf    fn413882   1.955   4.547   5.048 -0.0446 -0.1456 -0.1917
 1934ntf    fn413883   1.931   4.661   5.221 -0.2937  0.0425 -0.0894
 1934ntf    on513884   1.957   4.293   5.181  0.3263  0.1527 -0.1426
 1934ntf    on513885   1.981   4.407   5.399  0.5490 -0.6142 -0.7086
 1934ntf    on513886   1.693   4.299   5.466  0.1641 -0.4134  0.1626
 1934ntf    on513887   1.531   4.367   5.293  0.5144 -0.4750 -0.1644
 1934ntf    fn413888   1.527   4.539   5.535 -0.2680 -0.3015 -0.0983
 1934ntf    fn413889   1.735   4.568   5.529 -0.2068  0.3495 -0.3393
 1934ntf    fn413890   1.609   4.643   5.367 -0.0982  0.2933  0.3922
 1935ntf    cn113891   4.202   0.705   2.012  0.2422 -0.2643 -0.1380
 1935ntf    sn213892   4.327   0.651   2.132  0.1374 -0.1397  0.0260
 1935ntf    nn313893   4.299   0.497   2.122 -0.1682 -0.0814 -0.0390
 1935ntf    sn213894   4.193   0.400   2.184 -0.2927  0.0880  0.0149
 1935ntf    cn113895   4.290   0.326   2.319 -0.2523  0.1885  0.0412
 1935ntf    fn413896   4.236   0.668   1.889  0.6083 -1.1954  0.2324
 1935ntf    fn413897   4.080   0.660   2.036  0.0332 -0.1558 -0.9654
 1935ntf    fn413898   4.182   0.836   2.008 -0.0455 -0.3135 -0.4240
 1935ntf    on513899   4.453   0.689   2.072 -0.0008  0.3234  0.0252
 1935ntf    on513900   4.300   0.714   2.259  0.6992  0.4783 -0.1537
 1935ntf    on513901   4.168   0.290   2.093  0.1999  0.5244 -0.6624
 1935ntf    on513902   4.083   0.466   2.249  0.0245 -0.4720  1.1344
 1935ntf    fn413903   4.404   0.276   2.274 -0.5405 -0.3118 -0.1427
 1935ntf    fn413904   4.317   0.404   2.422  0.4597  0.3289 -0.2450
 1935ntf    fn413905   4.227   0.220   2.367 -0.3058  0.2651  0.1396
 1936ntf    cn113906   5.337   0.825   4.799  0.0856 -0.2730  0.1826
 1936ntf    sn213907   5.229   0.858   4.657  0.3192  0.3412  0.1439
 1936ntf    nn313908   5.264   0.736   4.564  1.2795 -0.3492  1.3828
 1936ntf    sn213909   5.365   0.730   4.444 -0.4443  0.5544 -0.1608
 1936ntf    cn113910   5.260   0.745   4.297 -0.4315  0.0402 -0.2214
 1936ntf    fn413911   5.312   0.715   4.869 -0.6653  0.0990  0.5044
 1936ntf    fn413912   5.464   0.810   4.763 -0.0948  0.1127 -0.6240
 1936ntf    fn413913   5.327   0.926   4.883  0.1640 -0.0090 -0.1249
 1936ntf    on513914   5.096   0.844   4.711  0.4477  0.9161  0.6149
 1936ntf    on513915   5.272   0.987   4.611  0.1668  0.1472 -0.5545
 1936ntf    on513916   5.420   0.597   4.435 -0.7289  0.3974  0.3934
 1936ntf    on513917   5.459   0.839   4.435  0.2699 -0.0882 -0.6760
 1936ntf    fn413918   5.153   0.667   4.295 -0.7016  0.3825  0.5287
 1936ntf    fn413919   5.218   0.870   4.292  0.1732  0.2517 -0.0872
 1936ntf    fn413920   5.325   0.717   4.185 -0.0792 -0.8043  0.1832
 1937ntf    cn113921   0.466   2.732   1.616  0.6670  0.2721  0.0333
 1937ntf    sn213922   0.453   2.552   1.596 -0.3676  0.2798  0.5987
 1937ntf    nn313923   0.603   2.508   1.590 -0.6139 -0.4650 -0.2493
 1937ntf    sn213924   0.696   2.411   1.672 -0.2280  0.0564 -0.0628
 1937ntf    cn113925   0.818   2.528   1.738  0.0539 -0.0392 -0.4145
 1937ntf    fn413926   0.348   2.788   1.636  0.4137 -0.1460 -0.2809
 1937ntf    fn413927   0.546   2.760   1.717  0.2844  0.1763  0.3625
 1937ntf    fn413928   0.523   2.787   1.510  0.3208 -0.5565 -0.5942
 1937ntf    on513929   0.381   2.514   1.715 -0.3583  0.0461  0.5306
 1937ntf    on513930   0.384   2.535   1.471  0.1951 -0.0599  0.3311
 1937ntf    on513931   0.774   2.320   1.593  0.0110 -0.0204  0.2591
 1937ntf    on513932   0.647   2.358   1.797  0.5806 -0.3781  0.0715
 1937ntf    fn413933   0.763   2.594   1.838  0.5121  0.0284 -0.2049
 1937ntf    fn413934   0.932   2.480   1.786  0.0860  0.1640 -0.2855
 1937ntf    fn413935   0.843   2.621   1.648  0.2639 -0.1688 -0.4907
 1938ntf    cn113936   5.738   0.561   0.133  0.1149 -0.1994  0.1186
 1938ntf    sn213937   5.823   0.426   0.045  0.1939 -0.0790  0.0096
 1938ntf    nn313938   5.924   0.371   0.151  0.3350 -0.5552 -0.3688
 1938ntf    sn213939   5.918   0.310   0.295  0.4657 -0.2168 -0.2184
 1938ntf    cn113940   6.057   0.194   0.279  0.5629 -0.0795 -0.3679
 1938ntf    fn413941   5.635   0.618   0.074 -0.3590 -0.5300  0.6205
 1938ntf    fn413942   5.694   0.511   0.247  0.5130 -0.0411  0.3415
 1938ntf    fn413943   5.825   0.652   0.173  0.5583 -0.2753 -0.6425
 1938ntf    on513944   5.729   0.325   0.001 -0.1776  0.1672  0.2255
 1938ntf    on513945   5.892   0.495  -0.062 -0.0315  0.2899  0.0982
 1938ntf    on513946   5.798   0.231   0.305  0.2522  0.0755 -0.4670
 1938ntf    on513947   5.946   0.407   0.398  0.0396 -0.1537 -0.1609
 1938ntf    fn413948   6.072   0.127   0.392  0.5942 -0.2711 -0.4838
 1938ntf    fn413949   6.035   0.101   0.188 -0.1073 -0.5666  0.2782
 1938ntf    fn413950   6.168   0.260   0.251 -0.0170  0.7881 -0.6914
 1939ntf    cn113951   4.977   0.348   2.878  0.2771  0.3271 -0.1189
 1939ntf    sn213952   5.145   0.312   2.934  0.0994 -0.0804  0.1468
 1939ntf    nn313953   5.148   0.155   2.926  0.2782 -0.0626 -0.1316
 1939ntf    sn213954   5.245   0.062   3.008 -0.1756 -0.2208  0.2279
 1939ntf    cn113955   5.120  -0.008   3.120 -0.3198 -0.2464  0.0515
 1939ntf    fn413956   4.933   0.285   2.770  0.0570 -0.3261  0.3485
 1939ntf    fn413957   4.890   0.318   2.973 -0.1412 -0.0498 -0.6143
 1939ntf    fn413958   4.951   0.475   2.848  0.1404  0.3771  0.2153
 1939ntf    on513959   5.235   0.375   2.840  0.1368  0.1287  0.3213
 1939ntf    on513960   5.141   0.363   3.069 -0.2074 -0.3265  0.2312
 1939ntf    on513961   5.341   0.131   3.090  0.0941  0.1505 -0.3891
 1939ntf    on513962   5.298  -0.050   2.933  0.4974  0.2257  0.0326
 1939ntf    fn413963   5.000  -0.017   3.064 -0.3490 -0.2007  0.1072
 1939ntf    fn413964   5.150  -0.131   3.158  0.9855 -0.1101 -0.4933
 1939ntf    fn413965   5.100   0.069   3.225  0.3890 -0.2965  0.2288
 1940ntf    cn113966   5.162   5.310   2.718 -0.0729  0.0141  0.3800
 1940ntf    sn213967   5.116   5.236   2.877 -0.1995 -0.0794  0.2995
 1940ntf    nn313968   5.033   5.113   2.825  0.0200  0.2185 -0.7689
 1940ntf    sn213969   5.039   4.961   2.862 -0.0981  0.3940 -0.0167
 1940ntf    cn113970   5.040   4.901   2.690 -0.6949 -0.2130  0.1902
 1940ntf    fn413971   5.219   5.228   2.632  0.3286  0.1687  0.4985
 1940ntf    fn413972   5.061   5.376   2.663  0.1382 -0.1556 -0.2177
 1940ntf    fn413973   5.254   5.403   2.738 -0.1868  0.2105  0.0114
 1940ntf    on513974   5.236   5.202   2.948  0.0071  0.7302  0.3518
 1940ntf    on513975   5.027   5.331   2.939 -0.4533 -0.0080 -0.1648
 1940ntf    on513976   4.918   4.903   2.913  0.0789 -0.5713 -0.6450
 1940ntf    on513977   5.165   4.911   2.914  0.1027  0.1778 -0.6969
 1940ntf    fn413978   4.956   4.973   2.618 -0.0599 -0.4570 -0.8075
 1940ntf    fn413979   5.159   4.921   2.636 -0.2743  0.2330  1.2614
 1940ntf    fn413980   5.015   4.774   2.663 -0.1962 -0.2116 -0.2953
 1941ntf    cn113981   2.638   3.705   2.029  0.2449 -0.5074  0.3244
 1941ntf    sn213982   2.492   3.596   2.037 -0.4369  0.3547 -0.1777
 1941ntf    nn313983   2.406   3.672   2.144  0.0211  0.5629  0.0476
 1941ntf    sn213984   2.377   3.626   2.292  0.2782  0.1397 -0.0310
 1941ntf    cn113985   2.221   3.537   2.266  0.2872  0.1489 -0.1154
 1941ntf    fn413986   2.757   3.656   1.996  0.3145 -0.2546  0.1998
 1941ntf    fn413987   2.609   3.798   1.939 -0.0400 -0.0206  0.9144
 1941ntf    fn413988   2.660   3.759   2.147  0.8587 -0.2314  0.0911
 1941ntf    on513989   2.428   3.605   1.909 -0.4266 -0.1385 -0.2189
 1941ntf    on513990   2.536   3.466   2.081 -0.2382  0.5652  0.2620
 1941ntf    on513991   2.333   3.741   2.367 -0.1866 -0.1128  0.0862
 1941ntf    on513992   2.470   3.535   2.354  0.0435  0.1161  0.2877
 1941ntf    fn413993   2.214   3.474   2.149  0.0118  0.1025 -0.0762
 1941ntf    fn413994   2.201   3.445   2.359  0.2172  0.4338  0.1524
 1941ntf    fn413995   2.109   3.609   2.270  0.2186  0.0210  0.2325
 1942ntf    cn113996   0.586   2.034   6.767 -0.0397  0.0966  0.4302
 1942ntf    sn213997   0.698   2.000   6.628 -0.1591 -0.0497  0.3686
 1942ntf    nn313998   0.680   1.844   6.626 -0.4190 -0.0154 -0.0361
 1942ntf    sn213999   0.693   1.746   6.505  0.4428 -0.1742  0.1846
 1942ntf    cn114000   0.803   1.618   6.574  0.1457 -0.3865  0.2635
 1942ntf    fn414001   0.605   2.147   6.834  0.3838  0.1750  0.1830
 1942ntf    fn414002   0.460   2.035   6.727 -0.0269  0.1915  0.3904
 1942ntf    fn414003   0.586   1.938   6.858  0.2978  0.1590  0.4953
 1942ntf    on514004   0.645   2.079   6.520  0.4871  0.2727  0.2786
 1942ntf    on514005   0.821   2.044   6.689 -0.0802  0.3561 -0.0771
 1942ntf    on514006   0.768   1.803   6.396  0.1550 -0.3862 -0.1270
 1942ntf    on514007   0.571   1.672   6.482  0.3276  0.3378 -0.9076
 1942ntf    fn414008   0.835   1.524   6.487  0.3789 -0.5952  0.5734
 1942ntf    fn414009   0.917   1.663   6.624 -0.2633  0.2769  0.6219
 1942ntf    fn414010   0.730   1.549   6.661 -0.4263 -0.2038 -0.0619
 1943ntf    cn114011   4.124   4.653   5.719 -0.5163  0.0512  0.2057
 1943ntf    sn214012   4.195   4.731   5.867  0.4834  0.0543 -0.2697
 1943ntf    nn314013   4.118   4.654   5.979 -0.1860  0.1920 -0.6307
 1943ntf    sn214014   4.179   4.564   6.093 -0.4754  0.1931 -0.4735
 1943ntf    cn114015   4.029   4.527   6.189 -0.0499 -0.0228  0.1105
 1943ntf    fn414016   3.994   4.662   5.697 -0.4491  0.3783 -0.0551
 1943ntf    fn414017   4.184   4.680   5.604  0.5390 -0.1666  0.6887
 1943ntf    fn414018   4.144   4.522   5.732 -0.4066 -0.0088 -0.5334
 1943ntf    on514019   4.334   4.700   5.845  0.5596  0.1757  0.0386
 1943ntf    on514020   4.157   4.869   5.846 -0.9475 -0.2325  0.3325
 1943ntf    on514021   4.265   4.641   6.180 -0.7692  0.4441 -0.3998
 1943ntf    on514022   4.218   4.431   6.056 -0.1944  0.0228  0.4256
 1943ntf    fn414023   4.044   4.476   6.310 -0.3518  0.5514  0.3971
 1943ntf    fn414024   3.958   4.636   6.215  0.3528  0.3016 -0.1327
 1943ntf    fn414025   3.947   4.445   6.126 -0.0977  0.4439 -0.4370
 1944ntf    cn114026   4.181   5.900   1.213 -0.2303 -0.1484  0.2177
 1944ntf    sn214027   4.078   5.789   1.113  0.0361 -0.2499  0.0558
 1944ntf    nn314028   3.942   5.803   1.190 -0.3767 -0.8913 -0.5474
 1944ntf    sn214029   3.801   5.865   1.163 -0.0409  0.1370  0.0186
 1944ntf    cn114030   3.826   6.037   1.217  0.3769 -0.0094  0.2912
 1944ntf    fn414031   4.129   6.022   1.220  0.0854 -0.0186  0.3246
 1944ntf    fn414032   4.188   5.849   1.335 -0.3323  0.3140  0.4189
 1944ntf    fn414033   4.307   5.913   1.174 -0.2023  0.2454  0.4281
 1944ntf    on514034   4.076   5.836   0.977  0.3647 -0.3014  0.0312
 1944ntf    on514035   4.140   5.659   1.128  0.3999 -0.0294  0.4922
 1944ntf    on514036   3.702   5.820   1.256  0.0388  0.3373  0.2024
 1944ntf    on514037   3.748   5.885   1.030 -0.1676  0.2239  0.0813
 1944ntf    fn414038   3.929   6.092   1.154 -0.0202  0.2652 -0.1178
 1944ntf    fn414039   3.720   6.113   1.198 -0.2469 -0.9165  0.1177
 1944ntf    fn414040   3.847   6.038   1.348 -0.1635 -0.1760  0.3800
 1945ntf    cn114041   3.053   0.224   6.045  0.0436  0.5319 -0.2063
 1945ntf    sn214042   3.204   0.132   6.004 -0.1572  0.1512 -0.1027
 1945ntf    nn314043   3.216   0.163   5.850  0.6951  0.3046 -0.0119
 1945ntf    sn214044   3.129   0.108   5.731  0.0368  0.3035  0.4666
 1945ntf    cn114045   3.130   0.262   5.636  0.1193 -0.1207 -0.2230
 1945ntf    fn414046   2.940   0.168   6.006  0.5448 -0.6814  0.0459
 1945ntf    fn414047   3.041   0.253   6.174  0.2625 -0.1332 -0.0323
 1945ntf    fn414048   3.063   0.345   5.993  0.5459  0.5761 -0.0135
 1945ntf    on514049   3.310   0.193   6.080  0.1500 -0.2481 -0.2057
 1945ntf    on514050   3.188  -0.009   6.030 -0.3991  0.2575  0.3193
 1945ntf    on514051   2.990   0.078   5.754 -0.0327 -0.1104 -0.4547
 1945ntf    on514052   3.199   0.015   5.647 -0.4762  0.7614 -0.4797
 1945ntf    fn414053   3.066   0.273   5.520 -0.1938  0.2215 -0.0228
 1945ntf    fn414054   3.078   0.355   5.714 -0.5423 -0.9813  0.3713
 1945ntf    fn414055   3.254   0.295   5.606  0.0980  0.5932  0.4459
 1946ntf    cn114056   2.160   1.860   0.349  0.5885 -0.3232 -0.1418
 1946ntf    sn214057   2.038   1.829   0.480  0.2986  0.2926 -0.2602
 1946ntf    nn314058   1.920   1.757   0.405  0.1870 -0.0801  0.2651
 1946ntf    sn214059   1.765   1.762   0.430  0.1394 -0.0580 -0.0287
 1946ntf    cn114060   1.724   1.585   0.425 -0.2078  0.0117  0.2812
 1946ntf    fn414061   2.105   1.945   0.264 -0.3255 -0.1858  0.5741
 1946ntf    fn414062   2.280   1.897   0.390  0.3070  0.4743 -0.0131
 1946ntf    fn414063   2.178   1.749   0.280  0.2127 -0.0797 -0.6326
 1946ntf    on514064   2.115   1.744   0.568 -0.3712 -0.0078  0.0420
 1946ntf    on514065   2.004   1.959   0.531  0.4276  0.1258  0.2588
 1946ntf    on514066   1.684   1.825   0.329  0.0889 -0.7070 -0.4015
 1946ntf    on514067   1.726   1.785   0.567  0.6038 -0.2853  0.1455
 1946ntf    fn414068   1.776   1.506   0.518  0.1065  0.1309  0.2089
 1946ntf    fn414069   1.594   1.561   0.427 -0.1802 -0.2540 -0.5982
 1946ntf    fn414070   1.770   1.542   0.308 -0.6700  0.1966  0.0297
 1947ntf    cn114071   2.574   1.416   4.359 -0.2180 -0.0438 -0.1328
 1947ntf    sn214072   2.666   1.559   4.295 -0.1287  0.0262  0.1511
 1947ntf    nn314073   2.609   1.568   4.149  0.2740 -0.1848 -0.0219
 1947ntf    sn214074   2.577   1.686   4.050 -0.0960 -0.2750 -0.0110
 1947ntf    cn114075   2.406   1.644   4.002 -0.1229 -0.0512 -0.1123
 1947ntf    fn414076   2.466   1.392   4.287 -0.5819 -0.7349  0.6287
 1947ntf    fn414077   2.641   1.301   4.362 -0.1584 -0.0088 -0.1158
 1947ntf    fn414078   2.541   1.439   4.484  0.4216  0.2832 -0.0166
 1947ntf    on514079   2.611   1.663   4.378  0.2953 -0.0036  0.4736
 1947ntf    on514080   2.804   1.520   4.309 -0.2246 -0.0339  0.9702
 1947ntf    on514081   2.654   1.686   3.928 -0.0355  0.0253  0.0274
 1947ntf    on514082   2.558   1.814   4.115  0.1901 -0.0388 -0.3907
 1947ntf    fn414083   2.365   1.537   4.067  0.3178 -0.2210 -0.1067
 1947ntf    fn414084   2.316   1.741   3.993  0.1262  0.1749 -0.2019
 1947ntf    fn414085   2.407   1.595   3.879  0.9209 -0.5202  0.0711
 1948ntf    cn114086   0.104   3.524   5.716  0.3474  0.4807 -0.5958
 1948ntf    sn214087   0.257   3.458   5.787 -0.1563  0.0758  0.1321
 1948ntf    nn314088   0.231   3.307   5.819 -0.0185 -0.0032 -0.1219
 1948ntf    sn214089   0.201   3.235   5.956 -0.0516  0.3106  0.0354
 1948ntf    cn114090   0.369   3.200   6.014 -0.0145  0.0238 -0.2435
 1948ntf    fn414091   0.003   3.508   5.800  0.4632  0.0791 -0.5300
 1948ntf    fn414092   0.109   3.654   5.695  0.1509  0.5537 -0.2003
 1948ntf    fn414093   0.078   3.462   5.601 -0.1936 -0.0872 -0.1770
 1948ntf    on514094   0.357   3.467   5.683 -0.2428 -0.2729  0.0189
 1948ntf    on514095   0.273   3.533   5.909  0.4847 -0.6103  0.4809
 1948ntf    on514096   0.143   3.104   5.949  0.9743 -0.1673  0.3564
 1948ntf    on514097   0.153   3.310   6.069  0.2424 -0.3650  0.6110
 1948ntf    fn414098   0.445   3.308   6.019 -0.2337  0.1757 -0.2115
 1948ntf    fn414099   0.370   3.162   6.141  0.1575 -0.0169 -0.2565
 1948ntf    fn414100   0.429   3.116   5.931  0.1804  0.2046 -0.2862
 1949ntf    cn114101   4.672   3.189   0.143  0.4695 -0.0779  0.0014
 1949ntf    sn214102   4.804   3.312   0.164  0.2501  0.1941 -0.2004
 1949ntf    nn314103   4.901   3.261   0.052  0.8003  0.6720  0.0583
 1949ntf    sn214104   4.919   3.298  -0.099  0.0629 -0.0520 -0.2128
 1949ntf    cn114105   5.091   3.356  -0.113  0.0345  0.0245 -0.2404
 1949ntf    fn414106   4.645   3.177   0.014 -0.2209 -0.0198  0.1357
 1949ntf    fn414107   4.712   3.074   0.195 -0.2670 -0.0642  0.6166
 1949ntf    fn414108   4.560   3.218   0.208  0.3345 -0.0045 -0.2616
 1949ntf    on514109   4.736   3.437   0.141  0.4800  0.3396 -0.0953
 1949ntf    on514110   4.851   3.289   0.298 -0.3341  0.9802  0.1524
 1949ntf    on514111   4.844   3.415  -0.139  0.3296  0.1567 -0.1052
 1949ntf    on514112   4.909   3.184  -0.187 -0.2570 -0.4540  0.3439
 1949ntf    fn414113   5.133   3.370  -0.238 -0.1432 -0.4235 -0.3547
 1949ntf    fn414114   5.115   3.473  -0.056 -0.3597  0.2132 -0.4560
 1949ntf    fn414115   5.182   3.272  -0.066 -0.1062 -0.0100 -0.0295
 1950ntf    cn114116   3.075   4.819   6.792 -0.2066 -0.3653 -0.0173
 1950ntf    sn214117   3.104   4.654   6.862 -0.2235 -0.3833 -0.0546
 1950ntf    nn314118   3.211   4.594   6.764  0.3425 -0.1523  0.4172
 1950ntf    sn214119   3.253   4.445   6.738 -0.0052 -0.2012  0.1247
 1950ntf    cn114120   3.430   4.466   6.778 -0.0810 -0.0443  0.3769
 1950ntf    fn414121   3.014   4.809   6.675 -0.1356 -0.1654 -0.0722
 1950ntf    fn414122   2.996   4.895   6.867  0.4434  0.4896 -0.1833
 1950ntf    fn414123   3.182   4.895   6.777 -0.1411 -0.5679 -0.5737
 1950ntf    on514124   3.155   4.690   6.992 -0.6989 -0.8632  0.2741
 1950ntf    on514125   2.973   4.592   6.857 -0.6818  0.5396  0.2755
 1950ntf    on514126   3.258   4.422   6.596  0.3384 -0.4211  0.1683
 1950ntf    on514127   3.211   4.337   6.824 -0.4378 -0.3331 -0.2510
 1950ntf    fn414128   3.492   4.349   6.775 -0.9687 -0.5117 -0.2618
 1950ntf    fn414129   3.496   4.536   6.687 -0.0227 -0.4006  0.1435
 1950ntf    fn414130   3.452   4.516   6.899  0.2026  0.7603 -0.0034
 1951ntf    cn114131   5.584   2.506   5.540  0.2416  0.0600 -0.0351
 1951ntf    sn214132   5.538   2.486   5.715 -0.0278 -0.0406 -0.1159
 1951ntf    nn314133   5.680   2.492   5.783  0.1466 -0.5395 -0.4257
 1951ntf    sn214134   5.783   2.610   5.793 -0.1456 -0.3147 -0.0430
 1951ntf    cn114135   5.912   2.544   5.904  0.1791 -0.0129 -0.2386
 1951ntf    fn414136   5.671   2.413   5.502 -0.5982 -0.6023 -0.3821
 1951ntf    fn414137   5.484   2.496   5.453  0.5991  0.2865 -0.4767
 1951ntf    fn414138   5.641   2.624   5.529 -0.2978  0.3912  0.6669
 1951ntf    on514139   5.447   2.595   5.737  0.0142 -0.1481  0.6080
 1951ntf    on514140   5.490   2.350   5.723  0.1772 -0.0994  0.1458
 1951ntf    on514141   5.735   2.723   5.869 -0.3189 -0.3394 -0.1158
 1951ntf    on514142   5.854   2.636   5.670  0.0806  0.5494  0.2665
 1951ntf    fn414143   5.867   2.547   6.028  0.0328  0.0066 -0.2918
 1951ntf    fn414144   5.952   2.419   5.884 -0.2667 -0.2499  0.3223
 1951ntf    fn414145   6.022   2.618   5.906  0.0651  0.1558 -0.1923
 1952ntf    cn114146   5.059   6.340   4.146  0.1180  0.0302  0.1772
 1952ntf    sn214147   4.980   6.224   4.262 -0.2171  0.1907  0.1124
 1952ntf    nn314148   4.972   6.094   4.174  0.3755  0.0890  0.2037
 1952ntf    sn214149   5.085   5.990   4.143  0.3453  0.0337  0.2775
 1952ntf    cn114150   5.032   5.858   4.257  0.1776 -0.1227  0.0192
 1952ntf    fn414151   5.188   6.312   4.139  0.1839  0.2372  0.5044
 1952ntf    fn414152   5.009   6.334   4.024  0.3374  0.5214  0.0617
 1952ntf    fn414153   5.046   6.464   4.191 -0.4156 -0.0090  0.1374
 1952ntf    on514154   5.068   6.218   4.376  0.0824  0.1249 -0.1203
 1952ntf    on514155   4.849   6.283   4.280 -0.3240 -0.0523  0.1324
 1952ntf    on514156   5.219   6.022   4.186  0.5197 -0.0699 -0.1865
 1952ntf    on514157   5.064   5.920   4.018 -0.3090  0.0881  0.3535
 1952ntf    fn414158   5.013   5.916   4.374  0.7620 -0.1766  0.1436
 1952ntf    fn414159   4.914   5.805   4.227  0.2711 -0.5060  0.3233
 1952ntf    fn414160   5.122   5.762   4.269 -0.3769 -0.6982 -0.3363
 1953ntf    cn114161   5.109   2.388   2.891 -0.3157  0.7928 -0.0948
 1953ntf    sn214162   4.941   2.457   2.883 -0.5011  0.4045  0.4302
 1953ntf    nn314163   4.980   2.589   2.957 -0.1598  0.4671  0.1426
 1953ntf    sn214164   4.922   2.638   3.094 -0.0682  0.3262  0.2320
 1953ntf    cn114165   4.871   2.803   3.036  0.1793  0.3038 -0.0518
 1953ntf    fn414166   5.120   2.279   2.817 -0.6109  0.6651  0.0496
 1953ntf    fn414167   5.200   2.477   2.851  0.4334  0.0680 -0.0362
 1953ntf    fn414168   5.137   2.359   3.017  0.2862  0.4670 -0.2941
 1953ntf    on514169   4.916   2.480   2.743 -0.1523 -0.1017  0.2767
 1953ntf    on514170   4.870   2.349   2.947  0.0883 -0.0482  0.3381
 1953ntf    on514171   5.016   2.644   3.203 -0.1861 -0.7246  0.3989
 1953ntf    on514172   4.800   2.573   3.134  0.3514 -0.6564 -0.0666
 1953ntf    fn414173   4.776   2.777   2.948  0.0701 -0.2858  0.2337
 1953ntf    fn414174   4.806   2.873   3.127 -0.3302 -0.0681 -0.1265
 1953ntf    fn414175   4.969   2.874   2.984 -0.2093  0.8101 -0.1064
 1954ntf    cn114176   2.008   0.340   3.261  0.1557 -0.1590  0.3293
 1954ntf    sn214177   2.028   0.350   3.080 -0.3087 -0.0568  0.2815
 1954ntf    nn314178   2.126   0.228   3.070 -0.3145  0.0031 -0.5267
 1954ntf    sn214179   2.096   0.083   3.017  0.0169 -0.3346  0.2036
 1954ntf    cn114180   2.129   0.110   2.840  0.1562  0.2506  0.3174
 1954ntf    fn414181   1.954   0.224   3.293 -0.1108 -0.0077  0.4308
 1954ntf    fn414182   2.120   0.359   3.328  0.1025  0.7248  0.1819
 1954ntf    fn414183   1.920   0.425   3.311  0.1962  0.0509  0.0452
 1954ntf    on514184   1.896   0.329   3.025 -0.1868  0.7492 -0.3329
 1954ntf    on514185   2.090   0.479   3.062  0.1855 -0.3229  0.0360
 1954ntf    on514186   1.958   0.046   3.031 -0.2893  0.7553  0.1511
 1954ntf    on514187   2.190  -0.020   3.056  0.3340 -0.2615 -0.3534
 1954ntf    fn414188   2.077   0.227   2.805  0.3408 -0.0294 -0.9135
 1954ntf    fn414189   2.260   0.122   2.826  0.1018  0.0142 -0.3972
 1954ntf    fn414190   2.083   0.020   2.755  0.9058  0.7069 -0.5827
 1955ntf    cn114191   6.169   2.257   5.118  0.3873 -0.2445 -0.4012
 1955ntf    sn214192   6.278   2.379   5.197  0.0457 -0.1738 -0.0367
 1955ntf    nn314193   6.358   2.301   5.306  0.8061 -0.1162 -0.5447
 1955ntf    sn214194   6.482   2.346   5.391  0.4101  0.0910 -0.0684
 1955ntf    cn114195   6.426   2.344   5.564  0.0110  0.1190 -0.1955
 1955ntf    fn414196   6.235   2.161   5.055  0.5194 -0.3785 -0.0584
 1955ntf    fn414197   6.091   2.209   5.213  0.7091  0.0968  0.0389
 1955ntf    fn414198   6.088   2.320   5.034 -0.4183  0.4062  0.8360
 1955ntf    on514199   6.363   2.429   5.092 -0.0916  0.4901  0.1647
 1955ntf    on514200   6.192   2.481   5.252  0.1445  0.1075 -0.3935
 1955ntf    on514201   6.525   2.481   5.368 -0.2392  0.1437 -1.0254
 1955ntf    on514202   6.581   2.240   5.386  0.0684 -0.2449  0.2375
 1955ntf    fn414203   6.318   2.416   5.589  0.1163  0.2342 -0.0696
 1955ntf    fn414204   6.391   2.224   5.607  0.4109  0.2352  0.4733
 1955ntf    fn414205   6.521   2.392   5.643 -0.0825 -0.0774  0.0377
 1956ntf    cn114206   0.074   0.412   1.484  0.4357 -0.2891 -0.0156
 1956ntf    sn214207   0.204   0.518   1.413  0.1422  0.2165  0.1966
 1956ntf    nn314208   0.332   0.481   1.497  0.1548 -0.4107 -0.0908
 1956ntf    sn214209   0.391   0.552   1.624  0.0930 -0.3812 -0.0785
 1956ntf    cn114210   0.427   0.716   1.555 -0.1857 -0.3071 -0.0507
 1956ntf    fn414211   0.049   0.441   1.611 -0.0677 -0.3680 -0.0965
 1956ntf    fn414212  -0.043   0.419   1.423  0.1732  0.0034  0.5220
 1956ntf    fn414213   0.099   0.282   1.488 -0.2517 -0.4286 -0.1273
 1956ntf    on514214   0.225   0.474   1.278  0.1287 -0.4597  0.4125
 1956ntf    on514215   0.145   0.649   1.425 -0.0967  0.1541 -0.3161
 1956ntf    on514216   0.519   0.501   1.666 -0.1840 -0.3563  0.8181
 1956ntf    on514217   0.295   0.577   1.729  0.1184  0.3700 -0.2320
 1956ntf    fn414218   0.377   0.814   1.629  0.4864  0.2770 -0.3492
 1956ntf    fn414219   0.556   0.740   1.536 -0.2865 -0.3347 -0.7976
 1956ntf    fn414220   0.383   0.731   1.431 -0.4448 -0.3371  0.0378
 1957ntf    cn114221   0.829   4.402   1.336  0.0502  0.2665 -0.0796
 1957ntf    sn214222   0.961   4.281   1.368 -0.0410  0.2204  0.1242
 1957ntf    nn314223   1.077   4.360   1.439  0.0451  0.2316 -0.0283
 1957ntf    sn214224   1.214   4.404   1.377 -0.0542  0.1737 -0.2918
 1957ntf    cn114225   1.340   4.302   1.461  0.0310  0.1548 -0.4424
 1957ntf    fn414226   0.750   4.426   1.439  0.0269 -0.3230  0.0470
 1957ntf    fn414227   0.878   4.516   1.291 -0.1404  0.4473  0.1666
 1957ntf    fn414228   0.745   4.348   1.248 -0.1218 -0.2416  0.3849
 1957ntf    on514229   0.896   4.198   1.467  0.4592  0.0132  0.2829
 1957ntf    on514230   0.991   4.220   1.241 -0.6791 -0.4776  0.2998
 1957ntf    on514231   1.250   4.532   1.433 -0.0886 -0.0765  0.3122
 1957ntf    on514232   1.232   4.388   1.235  0.9073 -1.0367 -0.0516
 1957ntf    fn414233   1.341   4.336   1.588  0.7070 -0.2874 -0.3285
 1957ntf    fn414234   1.304   4.175   1.450  0.0127  0.1783 -0.6602
 1957ntf    fn414235   1.463   4.309   1.413 -0.1732  0.1939 -0.9743
 1958ntf    cn114236   1.885   5.246   2.681 -0.1451 -0.2796 -0.4386
 1958ntf    sn214237   1.854   5.411   2.612  0.1683 -0.1615 -0.3002
 1958ntf    nn314238   1.973   5.489   2.678  0.2950 -0.1918 -0.4948
 1958ntf    sn214239   2.079   5.585   2.613  0.3779 -0.0183 -0.1034
 1958ntf    cn114240   2.205   5.477   2.540 -0.1208 -0.7072  0.0455
 1958ntf    fn414241   1.807   5.153   2.629 -0.5684 -0.0009 -0.3065
 1958ntf    fn414242   2.009   5.204   2.663  0.1093  0.0810  0.3963
 1958ntf    fn414243   1.861   5.247   2.812  0.4503 -0.0029 -0.3308
 1958ntf    on514244   1.874   5.375   2.474  0.3130 -0.2921 -0.2453
 1958ntf    on514245   1.722   5.445   2.661  0.5169  0.5994  0.1255
 1958ntf    on514246   2.152   5.661   2.711  0.3462  0.4167 -0.4131
 1958ntf    on514247   2.034   5.669   2.505 -0.0351  0.1399  0.1863
 1958ntf    fn414248   2.145   5.394   2.456 -0.4356  0.1474 -0.5886
 1958ntf    fn414249   2.301   5.538   2.471 -0.9255  0.3303 -0.1864
 1958ntf    fn414250   2.280   5.406   2.623  0.1736  0.2780  0.6425
 1959ntf    cn114251   2.148   0.918   1.223  0.0280 -0.2903  0.3856
 1959ntf    sn214252   2.290   1.023   1.266  0.1343 -0.1420 -0.3169
 1959ntf    nn314253   2.386   0.932   1.352 -0.0732 -0.1372 -0.0798
 1959ntf    sn214254   2.452   0.794   1.317  0.1055 -0.0664 -0.0195
 1959ntf    cn114255   2.624   0.850   1.296  0.0629  0.1478  0.1873
 1959ntf    fn414256   2.050   0.991   1.172  0.7367  0.6025  0.2831
 1959ntf    fn414257   2.180   0.828   1.131 -0.0719  0.0542  0.0118
 1959ntf    fn414258   2.098   0.847   1.323  0.2469 -0.6483  0.2428
 1959ntf    on514259   2.345   1.075   1.143 -0.0661 -0.2369 -0.4462
 1959ntf    on514260   2.229   1.116   1.357  0.4496  0.0662 -0.3166
 1959ntf    on514261   2.423   0.726   1.194  0.7088 -0.3744  0.0020
 1959ntf    on514262   2.449   0.702   1.428 -0.1169  0.0252  0.0519
 1959ntf    fn414263   2.694   0.752   1.240 -0.0728 -0.1065  0.4594
 1959ntf    fn414264   2.632   0.953   1.213 -0.3218  0.1533  0.1540
 1959ntf    fn414265   2.690   0.884   1.405  0.2470 -0.0177  0.1291
 1960ntf    cn114266   4.520   1.080   6.585 -0.0422 -0.6756  0.2505
 1960ntf    sn214267   4.352   1.053   6.521  0.1907 -0.5894 -0.4006
 1960ntf    nn314268   4.301   0.947   6.626  0.1098  0.2487  0.4225
 1960ntf    sn214269   4.154   0.919   6.671 -0.0010  0.2073  0.0393
 1960ntf    cn114270   4.122   0.764   6.583  0.2989  0.3116 -0.2534
 1960ntf    fn414271   4.585   1.165   6.508  0.2721 -0.6596  0.5303
 1960ntf    fn414272   4.522   1.120   6.711  0.0904  0.6318 -0.1551
 1960ntf    fn414273   4.601   0.975   6.590 -0.2181 -0.8158  0.1830
 1960ntf    on514274   4.296   1.186   6.527  0.7368 -0.3408 -0.7590
 1960ntf    on514275   4.367   1.000   6.388 -0.5450 -0.0058 -0.7227
 1960ntf    on514276   4.058   1.014   6.619 -0.2311 -0.1024 -0.1021
 1960ntf    on514277   4.129   0.880   6.808 -0.8548 -0.0276 -0.1755
 1960ntf    fn414278   4.116   0.773   6.451 -0.6893 -0.1037 -0.2417
 1960ntf    fn414279   4.213   0.669   6.599  0.1555  0.3175  0.6205
 1960ntf    fn414280   4.008   0.705   6.614  0.9171 -0.6824  0.2038
 1961ntf    cn114281   0.572   1.955   5.548  0.0504  0.1268 -0.0288
 1961ntf    sn214282   0.392   1.981   5.535 -0.0061 -0.0868  0.3294
 1961ntf    nn314283   0.363   1.980   5.690 -0.4442 -0.4364  0.2460
 1961ntf    sn214284   0.360   2.100   5.791 -0.1697 -0.1185 -0.1158
 1961ntf    cn114285   0.187   2.156   5.802 -0.2286 -0.3786  0.3448
 1961ntf    fn414286   0.642   1.988   5.441 -0.1043 -0.0983 -0.2022
 1961ntf    fn414287   0.620   2.039   5.637 -0.2757  0.3146 -0.0270
 1961ntf    fn414288   0.611   1.833   5.584  0.7045  0.3313 -0.0334
 1961ntf    on514289   0.390   2.100   5.455  0.4634 -0.1987  0.1473
 1961ntf    on514290   0.331   1.861   5.484 -0.6584  0.1458  0.5534
 1961ntf    on514291   0.423   2.221   5.747 -0.0987 -0.3231 -0.5743
 1961ntf    on514292   0.381   2.052   5.926  0.1363 -0.4017 -0.2633
 1961ntf    fn414293   0.099   2.063   5.835 -0.4380 -0.1232  0.5002
 1961ntf    fn414294   0.177   2.249   5.895 -0.4660 -0.1361  0.0774
 1961ntf    fn414295   0.156   2.207   5.684  0.4996 -0.2948  0.1844
 1962ntf    cn114296   5.357   1.060   2.866  0.2562  0.0864  0.3639
 1962ntf    sn214297   5.208   0.963   2.904  0.0440  0.1817 -0.2204
 1962ntf    nn314298   5.178   0.922   2.756 -0.1369  0.0998 -0.1622
 1962ntf    sn214299   5.215   0.791   2.678 -0.1634  0.0794 -0.1401
 1962ntf    cn114300   5.051   0.741   2.618 -0.3757  0.0547  0.4460
 1962ntf    fn414301   5.453   0.988   2.810 -0.0016 -0.1527  0.2249
 1962ntf    fn414302   5.327   1.152   2.776 -0.0295 -0.3258  0.0312
 1962ntf    fn414303   5.405   1.119   2.975  0.3225 -0.0371  0.4024
 1962ntf    on514304   5.247   0.856   2.993 -0.1163  0.0576 -0.2999
 1962ntf    on514305   5.114   1.063   2.950  0.0289 -0.2725  0.7690
 1962ntf    on514306   5.265   0.680   2.755  0.2764  0.3059 -0.1010
 1962ntf    on514307   5.286   0.828   2.559  1.0441 -0.1243  0.5031
 1962ntf    fn414308   5.025   0.615   2.650  0.4569 -0.1224  0.4498
 1962ntf    fn414309   4.957   0.809   2.681 -0.3083  0.4586  0.1154
 1962ntf    fn414310   5.039   0.748   2.486  0.2538 -0.6129  0.3457
 1963ntf    cn114311   3.557   4.571   4.823  0.4525  0.2263  0.2207
 1963ntf    sn214312   3.457   4.436   4.753 -0.2071  0.6623  0.3086
 1963ntf    nn314313   3.499   4.333   4.864  0.1550 -0.3608 -0.7603
 1963ntf    sn214314   3.445   4.188   4.885  0.3447 -0.2762  0.3832
 1963ntf    cn114315   3.340   4.206   5.032  0.1482 -0.0953  0.2226
 1963ntf    fn414316   3.685   4.538   4.832  0.3752 -0.1627 -0.1032
 1963ntf    fn414317   3.550   4.683   4.752  0.1786  0.1213  0.0811
 1963ntf    fn414318   3.517   4.609   4.943 -0.0544 -0.5052  0.2884
 1963ntf    on514319   3.323   4.488   4.753 -0.3570  0.2803  0.7864
 1963ntf    on514320   3.513   4.413   4.622  0.2267 -0.1262  0.6286
 1963ntf    on514321   3.549   4.100   4.932  0.3533 -0.1137  0.6715
 1963ntf    on514322   3.356   4.136   4.784  0.2252 -0.0432  0.3705
 1963ntf    fn414323   3.417   4.243   5.133  0.1295 -0.3320  0.3255
 1963ntf    fn414324   3.246   4.299   5.031  0.1408 -0.1052  0.0595
 1963ntf    fn414325   3.273   4.096   5.062  0.3232 -0.2731 -0.0309
 1964ntf    cn114326   0.388   0.800   0.716 -0.0159  0.5046 -0.1605
 1964ntf    sn214327   0.319   0.865   0.561 -0.1685 -0.1028 -0.3478
 1964ntf    nn314328   0.216   0.749   0.538 -0.2361 -0.1460  0.1603
 1964ntf    sn214329   0.243   0.598   0.501  0.1119 -0.0192 -0.1099
 1964ntf    cn114330   0.203   0.504   0.651  0.2004  0.1390  0.0135
 1964ntf    fn414331   0.484   0.872   0.771 -0.0773 -0.0330  0.6696
 1964ntf    fn414332   0.302   0.772   0.812  0.1628 -0.4085 -0.2557
 1964ntf    fn414333   0.443   0.683   0.689 -0.5855  0.0811  0.4896
 1964ntf    on514334   0.258   0.991   0.596  0.2833  0.0691 -0.1860
 1964ntf    on514335   0.434   0.882   0.475  0.1390 -0.0116  0.0811
 1964ntf    on514336   0.378   0.558   0.472  0.1977  0.0057  0.2496
 1964ntf    on514337   0.143   0.549   0.410 -0.5400  0.2037  0.4719
 1964ntf    fn414338   0.279   0.539   0.754 -0.0530  0.4264  0.1025
 1964ntf    fn414339   0.075   0.514   0.684  0.0133 -0.1071 -0.6236
 1964ntf    fn414340   0.224   0.376   0.626  0.1991 -0.1145  1.2398
 1965ntf    cn114341   1.836   0.269   0.998  0.4123 -0.4353 -0.0378
 1965ntf    sn214342   1.852   0.166   0.849  0.0732  0.1341 -0.4685
 1965ntf    nn314343   1.701   0.132   0.821 -0.2536  0.3848  0.9089
 1965ntf    sn214344   1.640  -0.010   0.793  0.0324  0.3977  0.2090
 1965ntf    cn114345   1.537   0.008   0.644  0.3254  0.3575  0.0006
 1965ntf    fn414346   1.752   0.370   0.992  0.0072 -0.7892 -0.3457
 1965ntf    fn414347   1.789   0.198   1.100  0.2940  0.2673  0.4027
 1965ntf    fn414348   1.951   0.324   1.034  0.2281  0.1591 -0.3499
 1965ntf    on514349   1.896   0.265   0.754 -0.5859  0.2089 -0.7057
 1965ntf    on514350   1.943   0.059   0.880 -0.2856 -0.1943 -0.5397
 1965ntf    on514351   1.544  -0.036   0.897 -0.3291 -0.6911 -0.3779
 1965ntf    on514352   1.733  -0.111   0.747 -0.5694  0.2386 -0.6725
 1965ntf    fn414353   1.490  -0.105   0.594  0.4395 -0.0309  0.7576
 1965ntf    fn414354   1.437   0.088   0.676  0.3986  0.3743  0.1940
 1965ntf    fn414355   1.603   0.058   0.540 -0.0242  0.2735 -0.2620
 1966ntf    cn114356   5.832   1.104   6.119  0.0151  0.1791 -0.3617
 1966ntf    sn214357   5.979   1.025   6.048 -0.1485 -0.0060 -0.4953
 1966ntf    nn314358   5.935   0.989   5.902 -0.8057  0.7359 -0.4878
 1966ntf    sn214359   5.872   0.858   5.842 -0.0116 -0.0162  0.2992
 1966ntf    cn114360   5.984   0.850   5.699 -0.1960  0.2072  0.1428
 1966ntf    fn414361   5.739   1.013   6.140 -0.0191  0.3037  0.0428
 1966ntf    fn414362   5.860   1.164   6.234  0.0833  0.5344 -0.5646
 1966ntf    fn414363   5.777   1.194   6.039  0.2684  0.3289 -0.3690
 1966ntf    on514364   6.076   1.132   6.038  0.0104 -0.0986  0.0149
 1966ntf    on514365   6.006   0.913   6.135 -0.5362 -0.1644 -0.5768
 1966ntf    on514366   5.750   0.901   5.779 -0.0282 -0.1732  0.2216
 1966ntf    on514367   5.878   0.732   5.913 -0.3086 -0.0063  0.3436
 1966ntf    fn414368   5.973   0.740   5.627 -0.3304  0.5532 -0.3690
 1966ntf    fn414369   5.948   0.950   5.619 -0.3932 -0.0572 -0.0986
 1966ntf    fn414370   6.110   0.870   5.734 -0.1521  0.5141 -0.1865
 1967ntf    cn114371   1.861   3.412   1.422  0.4885  0.2519  0.1502
 1967ntf    sn214372   1.697   3.444   1.493  0.2064  0.2579 -0.5027
 1967ntf    nn314373   1.606   3.326   1.444  0.3015  0.1503 -0.4228
 1967ntf    sn214374   1.450   3.329   1.425  0.2457 -0.2035 -0.0350
 1967ntf    cn114375   1.452   3.257   1.258  0.3406  0.0531 -0.1457
 1967ntf    fn414376   1.955   3.495   1.467  0.4046  0.5381 -0.1992
 1967ntf    fn414377   1.907   3.295   1.462  0.0740  0.0338 -0.0160
 1967ntf    fn414378   1.857   3.403   1.291  0.0390  0.2455  0.1651
 1967ntf    on514379   1.721   3.450   1.635 -0.4682 -0.4548 -0.3470
 1967ntf    on514380   1.666   3.568   1.426 -0.5445  0.0749 -0.5003
 1967ntf    on514381   1.378   3.453   1.414  0.4163 -0.1144 -0.1456
 1967ntf    on514382   1.377   3.226   1.495 -0.2028  0.4202  0.4221
 1967ntf    fn414383   1.506   3.137   1.249 -0.0396 -0.1744  0.5392
 1967ntf    fn414384   1.335   3.254   1.195 -0.0334  0.1712  0.5331
 1967ntf    fn414385   1.534   3.331   1.185  0.4529  0.6055  0.5338
 1968ntf    cn114386   2.387   6.856   1.993  0.1293 -0.2137 -0.1877
 1968ntf    sn214387   2.504   6.971   2.071 -0.2636  0.0669 -0.0069
 1968ntf    nn314388   2.512   7.076   1.955  0.2833  0.0820  0.0411
 1968ntf    sn214389   2.610   7.072   1.833  0.1438  0.1660 -0.0741
 1968ntf    cn114390   2.743   7.167   1.913  0.0771  0.0192  0.2131
 1968ntf    fn414391   2.440   6.822   1.876  0.1924  0.9019 -0.4966
 1968ntf    fn414392   2.353   6.742   2.051  0.1682 -0.2081 -0.1540
 1968ntf    fn414393   2.265   6.905   1.973  0.0472 -0.4818 -0.3459
 1968ntf    on514394   2.437   7.029   2.185 -0.5319  0.0541 -0.1571
 1968ntf    on514395   2.622   6.896   2.106 -0.3837 -0.2222 -0.2178
 1968ntf    on514396   2.563   7.150   1.721 -0.9487 -0.3153  0.0409
 1968ntf    on514397   2.667   6.944   1.798  0.2220  0.2150 -0.1271
 1968ntf    fn414398   2.709   7.290   1.946 -0.0874  0.0013  0.1106
 1968ntf    fn414399   2.785   7.106   2.022  0.5300  0.1869  0.1357
 1968ntf    fn414400   2.852   7.174   1.837 -0.0716  0.0240 -0.0025
 1969ntf    cn114401   2.585   0.940   6.247 -0.1854 -0.1516  0.0860
 1969ntf    sn214402   2.598   0.758   6.239 -0.2734 -0.1432 -0.2431
 1969ntf    nn314403   2.743   0.744   6.180 -0.2622 -0.6062 -0.1035
 1969ntf    sn214404   2.876   0.721   6.261 -0.2882  0.1515  0.1639
 1969ntf    cn114405   2.886   0.542   6.228  0.0812  0.1665  0.1898
 1969ntf    fn414406   2.540   1.001   6.139  0.2504 -0.2137 -0.1326
 1969ntf    fn414407   2.517   0.971   6.356  0.9385  0.0690  0.7400
 1969ntf    fn414408   2.706   0.988   6.271 -0.0716 -0.4426  0.1091
 1969ntf    on514409   2.571   0.716   6.374 -0.1374  0.0726 -0.1462
 1969ntf    on514410   2.500   0.735   6.136  0.4274 -0.5331 -0.8289
 1969ntf    on514411   2.870   0.733   6.405 -0.5035  0.4470  0.1303
 1969ntf    on514412   2.990   0.782   6.198 -0.6726  0.3542 -0.3390
 1969ntf    fn414413   2.794   0.475   6.297  0.1041 -0.2060 -0.1381
 1969ntf    fn414414   2.868   0.504   6.103  0.8675  0.1723  0.0708
 1969ntf    fn414415   3.000   0.492   6.273  0.1794 -0.0222 -0.2689
 1970ntf    cn114416   0.920   3.793   0.967 -0.0631 -0.4236  0.1908
 1970ntf    sn214417   1.096   3.785   0.922 -0.0982 -0.2683  0.0263
 1970ntf    nn314418   1.089   3.633   0.882 -0.4821 -0.2734  0.1055
 1970ntf    sn214419   1.198   3.526   0.919 -0.0077  0.1903  0.0649
 1970ntf    cn114420   1.336   3.578   0.813 -0.5164  0.0004 -0.6959
 1970ntf    fn414421   0.882   3.707   1.060 -0.9672 -0.2522 -0.0094
 1970ntf    fn414422   0.891   3.912   1.018  0.1959 -0.2825  0.0076
 1970ntf    fn414423   0.844   3.784   0.859 -0.2844 -0.0309  0.3134
 1970ntf    on514424   1.106   3.881   0.814  0.2287 -0.2341  0.0868
 1970ntf    on514425   1.165   3.817   1.045 -0.1234  0.1148 -0.0585
 1970ntf    on514426   1.167   3.395   0.868  0.2317  0.1299  0.0723
 1970ntf    on514427   1.250   3.524   1.054 -0.3129 -0.1823  0.1774
 1970ntf    fn414428   1.317   3.550   0.685 -0.0131 -0.8790 -0.5889
 1970ntf    fn414429   1.364   3.707   0.821 -0.4808 -0.0602  0.2354
 1970ntf    fn414430   1.445   3.514   0.853 -0.5581  0.1895 -0.2768
 1971ntf    cn114431   2.123   4.838   4.616 -0.1695 -0.0830  0.2578
 1971ntf    sn214432   2.258   4.743   4.541 -0.1657  0.1017  0.0293
 1971ntf    nn314433   2.286   4.826   4.411  0.2722 -0.1834 -0.0619
 1971ntf    sn214434   2.394   4.934   4.374  0.2065 -0.0952  0.0027
 1971ntf    cn114435   2.437   4.867   4.210  0.1759  0.1497 -0.1056
 1971ntf    fn414436   2.171   4.950   4.670  0.0610 -0.2140  0.3258
 1971ntf    fn414437   2.021   4.871   4.539  0.2147  0.2581 -0.1104
 1971ntf    fn414438   2.080   4.770   4.721 -0.3449 -0.3061  0.0406
 1971ntf    on514439   2.361   4.734   4.642  0.6308  0.5666 -0.7229
 1971ntf    on514440   2.192   4.619   4.511  1.0413 -0.5110 -0.1666
 1971ntf    on514441   2.518   4.941   4.447  0.2572  0.0646 -0.0988
 1971ntf    on514442   2.332   5.057   4.333 -0.1136 -0.2766 -0.0622
 1971ntf    fn414443   2.535   4.937   4.156 -0.1126  0.3408 -0.3879
 1971ntf    fn414444   2.476   4.741   4.214 -0.6330 -0.0858  0.9837
 1971ntf    fn414445   2.337   4.874   4.123 -0.2271 -0.3341  0.3090
 1972ntf    cn114446   2.471   3.061   6.328  0.0067 -0.4877 -0.1384
 1972ntf    sn214447   2.594   2.929   6.309  0.1098 -0.3886 -0.1653
 1972ntf    nn314448   2.511   2.800   6.342 -0.0161 -0.3231 -0.2248
 1972ntf    sn214449   2.434   2.707   6.241 -0.3268 -0.2579 -0.0513
 1972ntf    cn114450   2.295   2.665   6.350 -0.1936  0.5436  0.4338
 1972ntf    fn414451   2.505   3.174   6.268 -0.1198 -0.2538  0.2262
 1972ntf    fn414452   2.358   3.028   6.267 -0.1279  0.0255 -0.1749
 1972ntf    fn414453   2.431   3.096   6.449 -0.6944  0.2226 -0.5630
 1972ntf    on514454   2.636   2.936   6.172  0.1165 -1.0498 -0.2028
 1972ntf    on514455   2.697   2.958   6.405 -0.3490  0.3974  0.0977
 1972ntf    on514456   2.499   2.581   6.216  0.6278  0.1803  0.1707
 1972ntf    on514457   2.369   2.773   6.131  0.1152  0.2140 -0.0346
 1972ntf    fn414458   2.327   2.622   6.471 -0.2887 -0.4309  0.1173
 1972ntf    fn414459   2.207   2.763   6.366 -0.5540  0.2197  0.4347
 1972ntf    fn414460   2.221   2.582   6.279  0.6024  0.0660  0.1561
 1973ntf    cn114461   5.714   0.040   6.287 -0.1018 -0.1159 -0.1856
 1973ntf    sn214462   5.886   0.007   6.336 -0.1866 -0.1441  0.0977
 1973ntf    nn314463   5.968   0.128   6.279  0.1903 -0.3420  0.2186
 1973ntf    sn214464   6.073   0.130   6.162 -0.0099  0.1057  0.0456
 1973ntf    cn114465   6.220   0.084   6.260 -0.1108 -0.4743 -0.0682
 1973ntf    fn414466   5.652   0.137   6.351  0.0267 -0.6504  0.7650
 1973ntf    fn414467   5.710   0.074   6.159  0.1179  0.3865 -0.0603
 1973ntf    fn414468   5.634  -0.064   6.306 -0.3341  0.1427  0.2713
 1973ntf    on514469   5.879   0.021   6.479  0.8808 -0.0150  0.1450
 1973ntf    on514470   5.915  -0.125   6.284 -0.8728 -0.1565 -0.2658
 1973ntf    on514471   6.105   0.264   6.119 -0.2374  0.0676 -0.2454
 1973ntf    on514472   6.066   0.030   6.058  0.4188  0.4719 -0.3405
 1973ntf    fn414473   6.330   0.141   6.213 -0.2822 -0.1736 -0.1116
 1973ntf    fn414474   6.215   0.114   6.388  0.6947 -0.6031 -0.0078
 1973ntf    fn414475   6.234  -0.047   6.255 -0.5041 -0.4906 -0.9829
 1974ntf    cn114476   3.142   4.788   2.428 -0.0714 -0.1239 -0.2667
 1974ntf    sn214477   3.282   4.755   2.316  0.1153 -0.0181 -0.0638
 1974ntf    nn314478   3.351   4.896   2.311 -0.1017  0.1198  0.6426
 1974ntf    sn214479   3.409   4.995   2.204  0.0770 -0.1159  0.5202
 1974ntf    cn114480   3.274   5.116   2.202 -0.1136 -0.3333  0.2904
 1974ntf    fn414481   3.096   4.912   2.427  0.1338 -0.0504 -0.6695
 1974ntf    fn414482   3.040   4.706   2.411 -0.3129  0.0240  0.4682
 1974ntf    fn414483   3.179   4.774   2.554 -0.0353  0.6835 -0.1839
 1974ntf    on514484   3.358   4.663   2.398  0.3001 -0.4369 -0.7035
 1974ntf    on514485   3.208   4.704   2.204  0.3629  0.6095 -0.5213
 1974ntf    on514486   3.424   4.941   2.071  0.1750  1.3747 -0.0909
 1974ntf    on514487   3.520   5.070   2.258  0.0965  0.0603  0.2373
 1974ntf    fn414488   3.249   5.165   2.322 -0.1837  0.3148  0.0130
 1974ntf    fn414489   3.300   5.217   2.120 -0.1009 -0.3505  0.2734
 1974ntf    fn414490   3.161   5.063   2.158 -0.0824 -0.3529  0.2336
 1975ntf    cn114491   6.222   2.273   0.804 -0.0768  0.0418  0.2230
 1975ntf    sn214492   6.309   2.254   0.646 -0.1675  0.3658  0.1327
 1975ntf    nn314493   6.420   2.153   0.693  0.2088  0.6201 -0.2000
 1975ntf    sn214494   6.461   2.016   0.629 -0.1669  0.2974  0.2441
 1975ntf    cn114495   6.636   2.058   0.602 -0.1065 -0.1650 -0.0933
 1975ntf    fn414496   6.185   2.155   0.852 -0.1078 -0.0169  0.0543
 1975ntf    fn414497   6.304   2.317   0.898  0.3712  0.1414 -0.2139
 1975ntf    fn414498   6.114   2.350   0.801  0.0590  0.2180 -0.1266
 1975ntf    on514499   6.202   2.197   0.567 -0.2039 -0.3152  0.6621
 1975ntf    on514500   6.356   2.387   0.615 -0.7811  0.5083 -0.2010
 1975ntf    on514501   6.408   1.987   0.498 -0.5864  0.2149  0.4311
 1975ntf    on514502   6.476   1.913   0.729  0.0668 -0.0967 -0.1951
 1975ntf    fn414503   6.696   2.084   0.717  0.2762 -0.5944 -0.1952
 1975ntf    fn414504   6.706   1.961   0.546  0.5624  0.2355  0.0494
 1975ntf    fn414505   6.651   2.169   0.532  0.1951  0.4594  0.9394
 1976ntf    cn114506   4.791   4.532   1.074 -0.6349 -0.0297 -0.2816
 1976ntf    sn214507   4.711   4.686   1.019 -0.0010  0.3979 -0.0241
 1976ntf    nn314508   4.780   4.724   0.883  0.3374  0.2184  0.0967
 1976ntf    sn214509   4.751   4.664   0.741  0.1105  0.1236  0.1831
 1976ntf    cn114510   4.910   4.591   0.692  0.0897  0.1643  0.0542
 1976ntf    fn414511   4.783   4.426   0.996 -0.2606 -0.2981  0.0411
 1976ntf    fn414512   4.923   4.545   1.077 -0.6441  0.1811 -0.7450
 1976ntf    fn414513   4.763   4.489   1.196 -0.3045 -0.0544 -0.2139
 1976ntf    on514514   4.567   4.672   1.011  0.0214  0.1204  0.0383
 1976ntf    on514515   4.764   4.782   1.112  0.0223  0.7993 -0.4506
 1976ntf    on514516   4.714   4.759   0.639 -0.0455 -0.1983 -0.0617
 1976ntf    on514517   4.679   4.539   0.743  0.1888  0.0780  0.1499
 1976ntf    fn414518   4.959   4.505   0.780 -0.1724 -0.0730 -0.0285
 1976ntf    fn414519   4.896   4.522   0.580 -0.5408 -0.1247  0.3073
 1976ntf    fn414520   5.007   4.679   0.673 -0.0740  0.2030 -0.6396
 1977ntf    cn114521   6.866   2.874   2.174 -0.1811 -0.1273  0.2255
 1977ntf    sn214522   6.690   2.913   2.193 -0.1890  0.0805 -0.2558
 1977ntf    nn314523   6.632   2.836   2.069  0.2481 -0.2114 -0.2799
 1977ntf    sn214524   6.597   2.683   2.059 -0.7050 -0.0157 -0.0713
 1977ntf    cn114525   6.653   2.638   1.892 -0.0406  0.0989  0.1165
 1977ntf    fn414526   6.894   2.751   2.215 -0.9267 -0.4750 -0.2783
 1977ntf    fn414527   6.908   2.888   2.049  0.7905  0.9960  0.6578
 1977ntf    fn414528   6.940   2.959   2.243  0.0510  0.3488 -0.5951
 1977ntf    on514529   6.642   2.851   2.314  0.3142  0.4665  0.1457
 1977ntf    on514530   6.682   3.057   2.190  0.7090  0.1377 -0.0934
 1977ntf    on514531   6.456   2.652   2.054 -0.6481 -0.3354  0.2829
 1977ntf    on514532   6.685   2.600   2.138  0.5051  0.3433 -0.9993
 1977ntf    fn414533   6.679   2.510   1.875  0.1553  0.1700 -0.1356
 1977ntf    fn414534   6.586   2.688   1.789  0.2003 -0.3832 -0.2762
 1977ntf    fn414535   6.769   2.702   1.883 -0.5529  0.9179 -1.0315
 1978ntf    cn114536   5.039   2.164   1.910  0.0478 -0.1282  0.1791
 1978ntf    sn214537   4.955   2.040   2.013  0.0326 -0.1563  0.1336
 1978ntf    nn314538   4.975   2.120   2.147  0.4725  0.5267 -0.3307
 1978ntf    sn214539   4.874   2.168   2.256  0.2532 -0.0173 -0.2876
 1978ntf    cn114540   4.984   2.295   2.326  0.1320 -0.2574  0.3523
 1978ntf    fn414541   5.171   2.153   1.916  0.0402  0.0872  0.7105
 1978ntf    fn414542   5.005   2.150   1.782  0.0580  0.1012  0.1513
 1978ntf    fn414543   5.005   2.287   1.943  0.3475 -0.1278  0.4900
 1978ntf    on514544   4.819   2.026   1.966 -0.3201 -0.0847  1.1150
 1978ntf    on514545   5.043   1.926   2.005 -0.4132 -0.4743 -0.2690
 1978ntf    on514546   4.846   2.082   2.368 -0.6905  0.5652 -0.0622
 1978ntf    on514547   4.765   2.248   2.204  0.1024  0.0354  0.1050
 1978ntf    fn414548   4.997   2.388   2.232 -0.5054 -0.5939 -0.0782
 1978ntf    fn414549   4.922   2.353   2.427  0.2628 -0.0997  0.3434
 1978ntf    fn414550   5.102   2.252   2.367  0.2902 -0.0166  0.1588
 1979ntf    cn114551   3.236   2.932   5.233  0.0173  0.1146 -0.0678
 1979ntf    sn214552   3.270   3.019   5.077 -0.3671  0.1499 -0.1311
 1979ntf    nn314553   3.396   3.108   5.103 -0.3140  0.0079  0.1030
 1979ntf    sn214554   3.535   3.119   5.031 -0.1813  0.0969  0.3747
 1979ntf    cn114555   3.531   3.292   4.974  0.3762  0.0076  0.0530
 1979ntf    fn414556   3.219   3.022   5.329  0.4676  0.5135 -0.3540
 1979ntf    fn414557   3.126   2.860   5.225 -0.1867  0.3535  0.5382
 1979ntf    fn414558   3.328   2.845   5.271  0.4117  0.4635 -0.2180
 1979ntf    on514559   3.290   2.904   4.992 -0.6402 -0.2871  0.3847
 1979ntf    on514560   3.155   3.105   5.068 -0.6333 -0.2862 -1.0274
 1979ntf    on514561   3.551   3.058   4.902 -0.2056  0.3907  0.2321
 1979ntf    on514562   3.643   3.113   5.127  0.0275 -0.1402  0.1260
 1979ntf    fn414563   3.646   3.349   4.942  0.2681  0.2290  0.0561
 1979ntf    fn414564   3.450   3.314   4.872  0.9577 -0.0453 -0.4249
 1979ntf    fn414565   3.492   3.367   5.076 -0.1493 -0.3688  0.1337
 1980ntf    cn114566   2.317   0.931   0.529  0.0264 -0.3928  0.0008
 1980ntf    sn214567   2.479   1.011   0.554 -0.3464  0.2573  0.3386
 1980ntf    nn314568   2.535   0.935   0.679 -0.2342 -0.0912  0.0777
 1980ntf    sn214569   2.638   0.817   0.678 -0.2278 -0.0834 -0.2316
 1980ntf    cn114570   2.562   0.700   0.794  0.5501 -0.1338  0.2356
 1980ntf    fn414571   2.320   0.802   0.500  0.3334 -0.5404  0.6693
 1980ntf    fn414572   2.243   0.956   0.635  0.3219  0.0515  0.1062
 1980ntf    fn414573   2.265   0.990   0.423  0.5465 -0.0466 -0.0668
 1980ntf    on514574   2.552   0.981   0.433 -0.6807 -0.5900  0.3445
 1980ntf    on514575   2.448   1.150   0.579 -0.5453  0.3024 -0.1428
 1980ntf    on514576   2.752   0.856   0.757 -0.1409 -0.9306  0.0639
 1980ntf    on514577   2.666   0.728   0.568  0.3472 -0.5337  0.2717
 1980ntf    fn414578   2.451   0.652   0.742  0.3507  0.5337  0.0291
 1980ntf    fn414579   2.646   0.605   0.831  0.2093 -0.6658 -0.3583
 1980ntf    fn414580   2.519   0.766   0.901 -0.4729  0.3461 -0.4616
 1981ntf    cn114581   6.873   2.597   0.076  0.2212 -0.0154 -0.2146
 1981ntf    sn214582   6.887   2.764   0.006  0.0914  0.1496  0.1470
 1981ntf    nn314583   6.953   2.839   0.127 -0.1440 -0.2260  0.5131
 1981ntf    sn214584   6.926   2.976   0.199  0.0966  0.1680 -0.1341
 1981ntf    cn114585   7.096   3.037   0.223  0.0645  0.3964 -0.4827
 1981ntf    fn414586   6.992   2.551   0.111 -0.0444 -0.2061  0.4667
 1981ntf    fn414587   6.809   2.574   0.190  0.3449 -0.4233 -0.2233
 1981ntf    fn414588   6.817   2.513  -0.010 -0.7125  0.3821 -0.0159
 1981ntf    on514589   6.981   2.737  -0.101  0.3198 -0.5891  0.5229
 1981ntf    on514590   6.752   2.794  -0.032  0.0497 -0.3589 -0.1190
 1981ntf    on514591   6.887   2.975   0.338  0.4643 -0.1957 -0.0290
 1981ntf    on514592   6.857   3.074   0.120  0.2271 -0.2329 -0.7514
 1981ntf    fn414593   7.157   3.011   0.338 -0.5521 -0.0284 -0.2482
 1981ntf    fn414594   7.178   3.008   0.123 -0.4158 -0.4608 -0.6344
 1981ntf    fn414595   7.085   3.169   0.225 -0.1932  0.3692  0.3172
 1982ntf    cn114596   6.112   6.024   3.202  0.5115 -0.0768 -0.1561
 1982ntf    sn214597   6.128   5.843   3.209 -0.0356 -0.1187  0.0647
 1982ntf    nn314598   6.065   5.793   3.074 -0.3124 -0.1489  0.2045
 1982ntf    sn214599   5.973   5.668   3.055 -0.1905 -0.1763 -0.2121
 1982ntf    cn114600   5.819   5.758   3.020 -0.4162 -0.4370  0.0991
 1982ntf    fn414601   6.185   6.095   3.285  0.2857  0.4317 -0.3869
 1982ntf    fn414602   6.136   6.066   3.078 -0.1300 -0.1318 -0.3031
 1982ntf    fn414603   5.988   6.056   3.234  0.6177  0.1160  0.0590
 1982ntf    on514604   6.267   5.806   3.214 -0.0751 -0.2636  0.0922
 1982ntf    on514605   6.054   5.810   3.328  0.1929 -0.1049  0.2109
 1982ntf    on514606   5.944   5.586   3.171  0.3953 -0.0553  0.0212
 1982ntf    on514607   6.004   5.599   2.932  0.7536 -0.3374  0.1079
 1982ntf    fn414608   5.847   5.874   2.963  0.2024 -1.0071 -0.7874
 1982ntf    fn414609   5.740   5.679   2.949 -0.0769 -0.2577 -0.4824
 1982ntf    fn414610   5.752   5.779   3.132 -0.2966  0.4855  0.0080
 1983ntf    cn114611   5.683   6.164   6.108 -0.5145  0.2133  0.0880
 1983ntf    sn214612   5.640   6.238   5.947 -0.1295 -0.1389 -0.1768
 1983ntf    nn314613   5.490   6.269   5.980  0.1314  0.2588  0.6729
 1983ntf    sn214614   5.367   6.172   5.986  0.0731  0.2468 -0.3901
 1983ntf    cn114615   5.316   6.171   5.812  0.0320 -0.0360 -0.3774
 1983ntf    fn414616   5.658   6.034   6.114  0.0466  0.0854 -0.2577
 1983ntf    fn414617   5.814   6.172   6.123 -0.3558 -0.4558 -0.8543
 1983ntf    fn414618   5.622   6.224   6.209 -0.6636  0.4649 -0.1472
 1983ntf    on514619   5.715   6.360   5.937 -0.5248  0.1448  0.3001
 1983ntf    on514620   5.665   6.131   5.854 -0.8179  0.0477 -0.5778
 1983ntf    on514621   5.247   6.229   6.043  0.3587  0.3131  0.1496
 1983ntf    on514622   5.396   6.034   6.017  0.1152  0.1550 -0.8326
 1983ntf    fn414623   5.262   6.290   5.791  0.0581 -0.0033 -0.2586
 1983ntf    fn414624   5.411   6.152   5.722  0.3377 -0.6269  0.0657
 1983ntf    fn414625   5.230   6.073   5.794  0.3103 -0.2221 -0.7215
 1984ntf    cn114626   6.070   6.905   1.724  0.1900  0.8681  0.2754
 1984ntf    sn214627   5.905   6.912   1.800 -0.1014 -0.2002 -0.2304
 1984ntf    nn314628   5.853   7.036   1.718 -0.2147  0.2194  0.4633
 1984ntf    sn214629   5.783   7.044   1.577  0.4897  0.0968  0.1043
 1984ntf    cn114630   5.612   7.049   1.638  0.2593 -0.5673 -0.4657
 1984ntf    fn414631   6.149   6.824   1.792 -0.0937  0.1953 -0.1762
 1984ntf    fn414632   6.078   6.871   1.596  0.6234  0.5244  0.3930
 1984ntf    fn414633   6.137   7.019   1.729  0.7157  0.6273 -0.9123
 1984ntf    on514634   5.842   6.786   1.769 -0.0836 -0.3329  0.2636
 1984ntf    on514635   5.934   6.948   1.936  0.5376  0.3160 -0.4982
 1984ntf    on514636   5.798   6.927   1.494 -0.5736  0.4699 -0.6290
 1984ntf    on514637   5.790   7.165   1.499  0.0607  0.1282  0.1124
 1984ntf    fn414638   5.584   7.163   1.699  0.8182 -0.3624 -0.5845
 1984ntf    fn414639   5.521   7.041   1.543 -0.3336 -0.5333  0.0958
 1984ntf    fn414640   5.582   6.952   1.722 -0.1821  0.0093  0.0566
 1985ntf    cn114641   3.115   5.488   0.974  0.2891 -0.0003  0.2531
 1985ntf    sn214642   3.065   5.472   1.148 -0.4275  0.0853  0.0586
 1985ntf    nn314643   3.191   5.403   1.213 -0.7722  0.0363  0.6787
 1985ntf    sn214644   3.261   5.446   1.347  0.3623  0.2650  0.0252
 1985ntf    cn114645   3.383   5.568   1.291  0.5174  0.0428 -0.1230
 1985ntf    fn414646   3.208   5.581   0.961 -0.4982  0.7369 -0.1557
 1985ntf    fn414647   3.171   5.375   0.935 -0.0071  0.0438 -0.3015
 1985ntf    fn414648   3.025   5.522   0.884  0.1153 -0.8937  0.0771
 1985ntf    on514649   3.041   5.609   1.188 -0.2202  0.0978  0.1432
 1985ntf    on514650   2.952   5.384   1.138 -0.4727  0.0634  0.6714
 1985ntf    on514651   3.340   5.345   1.412  0.0833  0.1749  0.2287
 1985ntf    on514652   3.182   5.521   1.442  0.2669  0.4726 -0.2180
 1985ntf    fn414653   3.483   5.596   1.372  0.0281  0.4588  0.3492
 1985ntf    fn414654   3.425   5.529   1.172 -0.0179 -0.4977 -0.1398
 1985ntf    fn414655   3.318   5.683   1.272  0.5972  0.1306  0.1374
 1986ntf    cn114656   0.348   5.491   6.246 -0.0558 -0.1427 -0.2146
 1986ntf    sn214657   0.190   5.579   6.225 -0.0047 -0.0167 -0.0677
 1986ntf    nn314658   0.207   5.650   6.086 -0.0474  0.0629 -0.0321
 1986ntf    sn214659   0.101   5.740   6.014 -0.1865 -0.1298 -0.0698
 1986ntf    cn114660   0.051   5.633   5.876 -0.4891 -0.0613 -0.0153
 1986ntf    fn414661   0.356   5.396   6.154 -0.2196 -0.2053 -0.1657
 1986ntf    fn414662   0.454   5.566   6.225 -0.0829 -0.0075  0.1264
 1986ntf    fn414663   0.363   5.434   6.365 -0.2406  0.2806  0.0112
 1986ntf    on514664   0.099   5.467   6.225 -0.6870  0.5278 -0.4130
 1986ntf    on514665   0.199   5.665   6.340  0.1441 -0.2453  0.0948
 1986ntf    on514666   0.154   5.856   5.947 -0.6761 -0.1648 -0.5261
 1986ntf    on514667  -0.026   5.757   6.081  0.0123 -0.2676  0.3429
 1986ntf    fn414668  -0.055   5.681   5.812 -0.5443 -0.5703 -0.3111
 1986ntf    fn414669   0.148   5.612   5.788 -0.4446 -0.1949  0.0659
 1986ntf    fn414670   0.024   5.512   5.921  0.6260 -0.2780  0.1082
 1987ntf    cn114671   0.496   2.479   3.942  0.3006  0.2029 -0.0687
 1987ntf    sn214672   0.401   2.502   3.789  0.0941  0.1150  0.0459
 1987ntf    nn314673   0.321   2.631   3.827  0.3360  0.1667  0.3807
 1987ntf    sn214674   0.165   2.650   3.822  0.3188 -0.0531  0.0641
 1987ntf    cn114675   0.121   2.630   3.997 -0.5235  0.0834 -0.1273
 1987ntf    fn414676   0.567   2.579   3.990 -0.4876  0.5694  0.3465
 1987ntf    fn414677   0.412   2.453   4.041 -0.3609  0.4784 -0.5497
 1987ntf    fn414678   0.566   2.367   3.929 -0.1927 -0.2995  1.3743
 1987ntf    on514679   0.503   2.537   3.694 -0.0160 -0.2686 -0.2160
 1987ntf    on514680   0.329   2.378   3.771  0.1757  0.0859 -0.0874
 1987ntf    on514681   0.078   2.558   3.754  0.2026 -0.1425  0.3332
 1987ntf    on514682   0.139   2.788   3.786  0.4306 -0.2176 -0.6692
 1987ntf    fn414683  -0.009   2.630   4.021 -0.4698 -0.0860  0.1696
 1987ntf    fn414684   0.171   2.520   4.049 -0.2043  0.1510 -0.2898
 1987ntf    fn414685   0.178   2.729   4.064  0.2476 -0.5224  0.1196
 1988ntf    cn114686   4.491   5.455   2.553  0.1156 -0.8404  0.1359
 1988ntf    sn214687   4.477   5.397   2.381  0.0235 -0.4022 -0.0028
 1988ntf    nn314688   4.351   5.303   2.384  0.0782 -0.4746  0.0056
 1988ntf    sn214689   4.273   5.253   2.257  0.2074 -0.4119 -0.0985
 1988ntf    cn114690   4.254   5.079   2.307 -0.0997 -0.3644 -0.0496
 1988ntf    fn414691   4.614   5.470   2.601 -0.0722 -0.1250  0.3890
 1988ntf    fn414692   4.448   5.579   2.557  0.4411 -0.7162 -0.1168
 1988ntf    fn414693   4.424   5.379   2.637 -0.4621 -0.4542  0.0275
 1988ntf    on514694   4.464   5.516   2.300 -0.3591 -0.5459 -0.1561
 1988ntf    on514695   4.599   5.326   2.355  0.1200 -0.1058 -0.3802
 1988ntf    on514696   4.350   5.252   2.135  0.3835 -0.5255  0.0115
 1988ntf    on514697   4.140   5.304   2.241  0.3714  0.0163 -0.1166
 1988ntf    fn414698   4.169   5.057   2.405  0.1188 -0.7915  0.0453
 1988ntf    fn414699   4.216   5.003   2.205 -0.3818  0.3116 -0.4579
 1988ntf    fn414700   4.365   5.020   2.347  0.1711 -0.0615 -0.3431
 1989ntf    cn114701   3.779   1.982   2.798 -0.7268  0.1201  0.1214
 1989ntf    sn214702   3.641   2.014   2.912 -0.6026 -0.3111  0.3939
 1989ntf    nn314703   3.723   2.039   3.044  0.4765 -0.2360 -0.2747
 1989ntf    sn214704   3.733   1.963   3.181 -0.1090  0.0747 -0.0567
 1989ntf    cn114705   3.900   2.011   3.234 -0.0205 -0.3078  0.0118
 1989ntf    fn414706   3.872   2.074   2.783 -0.2861 -0.3073  0.2237
 1989ntf    fn414707   3.839   1.877   2.852 -0.4024  0.6111  0.7151
 1989ntf    fn414708   3.731   1.946   2.680 -0.6848 -0.1307  0.1806
 1989ntf    on514709   3.580   2.134   2.861 -0.0719 -0.3201 -0.2733
 1989ntf    on514710   3.567   1.890   2.904 -0.4296 -0.3876 -0.0517
 1989ntf    on514711   3.736   1.819   3.171 -0.0005  0.0147  0.7429
 1989ntf    on514712   3.655   2.023   3.287  0.1205 -0.1815  0.2602
 1989ntf    fn414713   3.993   1.944   3.168 -0.0983 -0.7271  0.3228
 1989ntf    fn414714   3.917   2.140   3.214 -0.0497 -0.2880  0.1131
 1989ntf    fn414715   3.922   1.993   3.363  0.0152 -0.7266 -0.0514
 1990ntf    cn114716   5.707   2.418   2.366  0.3407 -0.0275  0.2259
 1990ntf    sn214717   5.815   2.501   2.246 -0.0713 -0.1195 -0.2100
 1990ntf    nn314718   5.870   2.621   2.330 -0.2764 -0.0391 -0.1892
 1990ntf    sn214719   6.006   2.700   2.332 -0.0610 -0.4150  0.0154
 1990ntf    cn114720   6.081   2.631   2.483  0.4762  0.2545  0.0621
 1990ntf    fn414721   5.603   2.495   2.398 -0.0894 -0.3346 -0.4195
 1990ntf    fn414722   5.662   2.302   2.324 -0.2012  0.1698  0.2487
 1990ntf    fn414723   5.757   2.394   2.486  0.0931 -0.1980  0.2971
 1990ntf    on514724   5.913   2.400   2.215  0.3055  0.0462  0.4377
 1990ntf    on514725   5.723   2.535   2.139 -0.1092 -0.4332 -0.2777
 1990ntf    on514726   5.991   2.839   2.366 -0.6331 -0.4475 -0.0916
 1990ntf    on514727   6.107   2.670   2.234 -0.1187 -0.1248 -0.1324
 1990ntf    fn414728   6.124   2.506   2.475  0.0923  0.1336 -0.1656
 1990ntf    fn414729   6.192   2.698   2.509  0.5606  0.2256 -0.2153
 1990ntf    fn414730   6.004   2.647   2.590  0.3837  0.0948  0.0211
 1991ntf    cn114731   6.591   4.198   6.592  0.0173  0.3411  0.2665
 1991ntf    sn214732   6.657   4.048   6.513 -0.2391  0.1456  0.4237
 1991ntf    nn314733   6.555   4.036   6.394  0.4394 -0.1281 -0.1369
 1991ntf    sn214734   6.429   3.943   6.378  0.0392  0.3469  0.2471
 1991ntf    cn114735   6.311   4.069   6.320  0.0028  0.1774 -0.0449
 1991ntf    fn414736   6.590   4.304   6.514 -0.3231  0.1685  0.0305
 1991ntf    fn414737   6.464   4.178   6.626 -0.2412  0.7998 -0.4123
 1991ntf    fn414738   6.668   4.226   6.695  0.0603 -0.0591  0.3472
 1991ntf    on514739   6.785   4.089   6.462 -0.5524  0.7855  0.1400
 1991ntf    on514740   6.655   3.945   6.615  0.4634  0.4283  0.7230
 1991ntf    on514741   6.376   3.891   6.502 -0.4115  0.6751  0.1967
 1991ntf    on514742   6.434   3.844   6.274 -0.1202  0.1005  0.4710
 1991ntf    fn414743   6.314   4.103   6.192 -0.7672  0.1854 -0.0653
 1991ntf    fn414744   6.194   4.014   6.350 -0.0431  0.1740 -0.2280
 1991ntf    fn414745   6.306   4.181   6.390 -0.4998  0.0804  0.0809
 1992ntf    cn114746   4.890   0.671   5.030 -0.1076 -0.1133 -0.4962
 1992ntf    sn214747   4.819   0.607   5.184  0.0846  0.0342 -0.3460
 1992ntf    nn314748   4.674   0.577   5.133  0.1135 -0.3155 -0.2277
 1992ntf    sn214749   4.543   0.582   5.220  0.3075 -0.0226  0.0491
 1992ntf    cn114750   4.430   0.501   5.103 -0.1699  0.0952  0.4279
 1992ntf    fn414751   5.017   0.706   5.041 -0.1277 -0.1181 -0.2623
 1992ntf    fn414752   4.883   0.579   4.936 -0.0984 -0.3818 -0.2339
 1992ntf    fn414753   4.826   0.780   4.989  0.0317 -0.0354 -0.5071
 1992ntf    on514754   4.898   0.491   5.216  0.5627  0.3706 -0.2987
 1992ntf    on514755   4.831   0.720   5.274 -0.2460 -0.2145  0.0152
 1992ntf    on514756   4.491   0.716   5.228 -0.2372 -0.2406  0.1965
 1992ntf    on514757   4.539   0.507   5.343 -0.2618 -0.1072 -0.0185
 1992ntf    fn414758   4.490   0.396   5.049 -0.5270  0.3678 -0.5067
 1992ntf    fn414759   4.320   0.446   5.153 -0.3172  0.0273  0.0288
 1992ntf    fn414760   4.390   0.580   5.006  0.6875  0.3581  0.2801
 1993ntf    cn114761   1.011   2.775   5.835  0.5197  0.0082  0.2443
 1993ntf    sn214762   0.879   2.718   5.947  0.2255 -0.1169 -0.1629
 1993ntf    nn314763   0.820   2.852   6.004  0.5443 -0.0148 -0.0678
 1993ntf    sn214764   0.736   2.871   6.135  0.1043 -0.0562 -0.3444
 1993ntf    cn114765   0.859   2.925   6.257  0.1389 -0.0534 -0.3806
 1993ntf    fn414766   0.963   2.854   5.742  0.2002 -0.2510  0.1880
 1993ntf    fn414767   1.108   2.843   5.895  0.5496  0.4351 -0.2899
 1993ntf    fn414768   1.066   2.672   5.773  0.7775  0.5789 -0.4793
 1993ntf    on514769   0.796   2.647   5.854 -0.1778  0.2192 -0.0641
 1993ntf    on514770   0.953   2.646   6.048  0.2780  0.0543 -0.0778
 1993ntf    on514771   0.690   2.752   6.202 -0.0401  0.3525  0.2992
 1993ntf    on514772   0.631   2.971   6.129  0.1459  0.0233  0.1823
 1993ntf    fn414773   0.939   2.823   6.285  0.3090  0.2315  0.2058
 1993ntf    fn414774   0.933   3.022   6.205 -0.2064  0.3048 -0.2071
 1993ntf    fn414775   0.811   2.969   6.372  0.3768 -0.0183 -0.2932
 1994ntf    cn114776   6.690   4.950   0.849 -0.4474 -0.0755  0.0986
 1994ntf    sn214777   6.835   5.028   0.926 -0.2984 -0.0132 -0.2443
 1994ntf    nn314778   6.901   4.893   0.973 -0.0882  0.1662 -0.0225
 1994ntf    sn214779   7.023   4.815   0.914 -0.3115 -0.3698  0.2188
 1994ntf    cn114780   6.973   4.641   0.936  0.3007 -0.5865 -0.0694
 1994ntf    fn414781   6.654   5.019   0.742  0.8044  0.4267 -0.0097
 1994ntf    fn414782   6.705   4.823   0.816 -0.4646 -0.1367  0.3248
 1994ntf    fn414783   6.592   4.950   0.939  0.2510 -0.0831  0.8656
 1994ntf    on514784   6.898   5.098   0.818  0.3861 -0.2749 -0.0193
 1994ntf    on514785   6.776   5.108   1.031  0.4584 -0.1279  0.2762
 1994ntf    on514786   7.145   4.832   0.988 -0.1483  0.8020 -0.3104
 1994ntf    on514787   7.033   4.825   0.771  1.0147  0.1250  0.3333
 1994ntf    fn414788   7.063   4.552   0.898  0.0319 -0.7245 -0.3871
 1994ntf    fn414789   6.941   4.615   1.062  0.3491 -0.2868  0.0067
 1994ntf    fn414790   6.861   4.617   0.869 -0.0850  0.6858  0.0927
 1995ntf    cn114791   1.561   4.784   3.286  0.2009  0.1817 -0.0599
 1995ntf    sn214792   1.631   4.912   3.178  0.1367  0.0205 -0.2914
 1995ntf    nn314793   1.527   5.025   3.207 -0.0256  0.0547 -0.9945
 1995ntf    sn214794   1.561   5.166   3.268 -0.2715 -0.3685  0.1382
 1995ntf    cn114795   1.422   5.182   3.384  0.1462 -0.0245  0.5957
 1995ntf    fn414796   1.459   4.723   3.229 -0.3922  0.6469  0.4877
 1995ntf    fn414797   1.638   4.679   3.309  0.0986  0.1818  0.3002
 1995ntf    fn414798   1.518   4.824   3.405 -0.4058 -0.2827 -0.1208
 1995ntf    on514799   1.768   4.928   3.221  0.1215 -0.2761 -0.1261
 1995ntf    on514800   1.606   4.849   3.050 -1.0002  0.2409 -0.1812
 1995ntf    on514801   1.559   5.276   3.174 -0.5657 -0.3623  0.1503
 1995ntf    on514802   1.673   5.168   3.358 -0.1939  0.1581  0.0310
 1995ntf    fn414803   1.306   5.160   3.323  0.3689 -0.0050  0.1603
 1995ntf    fn414804   1.423   5.092   3.480  0.2844 -0.2263  0.4062
 1995ntf    fn414805   1.403   5.302   3.438  0.5536  0.0623  0.5439
 1996ntf    cn114806   3.641   3.554   0.926  0.0755 -0.0565  0.3454
 1996ntf    sn214807   3.498   3.642   0.996  0.0510  0.1870 -0.0044
 1996ntf    nn314808   3.547   3.789   1.022  0.7404 -0.0875  0.3027
 1996ntf    sn214809   3.482   3.896   1.117  0.1524  0.1135 -0.3084
 1996ntf    cn114810   3.597   3.887   1.258 -0.0353 -0.1334 -0.1709
 1996ntf    fn414811   3.616   3.424   0.925 -0.1466 -0.0134  0.3062
 1996ntf    fn414812   3.673   3.594   0.803 -0.2117 -0.1655  0.2355
 1996ntf    fn414813   3.748   3.574   1.002  0.1678 -0.7592  0.4056
 1996ntf    on514814   3.403   3.641   0.888 -0.2381  0.3521  0.2480
 1996ntf    on514815   3.476   3.556   1.109  0.5068 -0.3166 -0.2912
 1996ntf    on514816   3.355   3.862   1.176  0.3927 -0.1040  0.0956
 1996ntf    on514817   3.494   4.028   1.060  0.2885  0.0112 -0.5165
 1996ntf    fn414818   3.575   3.980   1.349 -0.1922 -0.5890  0.2643
 1996ntf    fn414819   3.589   3.769   1.318  0.0532  0.2036  0.5135
 1996ntf    fn414820   3.721   3.897   1.214 -0.0467  0.2987 -0.1045
 1997ntf    cn114821   2.317   5.023   0.186  0.3499 -0.0202 -0.0614
 1997ntf    sn214822   2.339   4.877   0.292  0.1578 -0.0960 -0.1269
 1997ntf    nn314823   2.191   4.826   0.293 -0.0118  0.4029  0.1896
 1997ntf    sn214824   2.124   4.688   0.257  0.5116  0.1951  0.0142
 1997ntf    cn114825   2.002   4.740   0.133 -0.0456  0.3052  0.6033
 1997ntf    fn414826   2.297   4.997   0.058 -0.0801 -0.2378  0.0494
 1997ntf    fn414827   2.211   5.091   0.227  0.0102 -0.2201 -0.6088
 1997ntf    fn414828   2.412   5.115   0.192  0.5743 -0.2774  0.3651
 1997ntf    on514829   2.438   4.801   0.219  0.3119  0.0731 -0.0946
 1997ntf    on514830   2.372   4.924   0.424 -0.6816 -0.9997  0.4200
 1997ntf    on514831   2.035   4.638   0.359  0.8153  0.3664  0.3679
 1997ntf    on514832   2.209   4.602   0.178  0.1176  0.0957 -0.2988
 1997ntf    fn414833   2.063   4.828   0.055 -0.4653  0.3393  0.3128
 1997ntf    fn414834   1.966   4.642   0.052  0.4207  0.4629  0.2022
 1997ntf    fn414835   1.889   4.796   0.172 -0.1320  0.4241  0.1850
 1998ntf    cn114836   5.081   6.702   6.288  0.1235  0.2122  0.0810
 1998ntf    sn214837   4.904   6.706   6.331  0.1808  0.1632  0.3218
 1998ntf    nn314838   4.891   6.564   6.398  0.6904 -0.1668 -0.2706
 1998ntf    sn214839   4.834   6.432   6.336 -0.3870  0.3024 -0.3087
 1998ntf    cn114840   4.660   6.435   6.389 -0.2166  0.1952  0.2666
 1998ntf    fn414841   5.127   6.822   6.257  0.0210  0.2161 -0.0557
 1998ntf    fn414842   5.147   6.671   6.398 -0.3113  0.0787  0.3062
 1998ntf    fn414843   5.118   6.611   6.200 -0.3053  0.4295 -0.3291
 1998ntf    on514844   4.905   6.815   6.426 -0.4223  0.0948  0.4061
 1998ntf    on514845   4.849   6.723   6.199  0.4576 -0.1681  0.1608
 1998ntf    on514846   4.880   6.312   6.401  0.4055  0.8469  0.1511
 1998ntf    on514847   4.832   6.430   6.192 -0.1429 -0.4772 -0.3094
 1998ntf    fn414848   4.607   6.319   6.355  0.5722 -0.0367 -0.2282
 1998ntf    fn414849   4.648   6.442   6.520 -0.6057 -0.2723  0.2573
 1998ntf    fn414850   4.595   6.535   6.333 -0.4433 -0.2290 -0.2377
 1999ntf    cn114851   0.394   0.052   3.052  0.1169  0.2979  0.1233
 1999ntf    sn214852   0.307   0.188   3.136 -0.0258  0.2052  0.1259
 1999ntf    nn314853   0.298   0.286   3.013  0.2255  0.6030  0.4232
 1999ntf    sn214854   0.417   0.354   2.936  0.2511  0.0623 -0.0187
 1999ntf    cn114855   0.332   0.506   2.885  0.2698  0.0106 -0.2051
 1999ntf    fn414856   0.422  -0.056   3.123  0.4897 -0.0329 -0.5181
 1999ntf    fn414857   0.318   0.012   2.952  0.1169 -0.1567  0.3048
 1999ntf    fn414858   0.509   0.085   2.995  0.1332 -0.7239 -0.4657
 1999ntf    on514859   0.182   0.122   3.161 -0.1067  0.4620  0.4032
 1999ntf    on514860   0.398   0.219   3.244  0.5597 -0.5612 -0.1330
 1999ntf    on514861   0.452   0.285   2.814  0.0622  0.3387 -0.2330
 1999ntf    on514862   0.517   0.409   3.023  0.5028 -0.1608 -0.1673
 1999ntf    fn414863   0.327   0.600   2.978  0.1835 -0.3581  0.1638
 1999ntf    fn414864   0.399   0.553   2.781 -0.0091 -0.1485 -0.4597
 1999ntf    fn414865   0.206   0.484   2.849  0.2793  0.0832 -0.2852
 2000ntf    cn114866   2.884   6.654   3.621 -0.1246  0.0544 -0.2574
 2000ntf    sn214867   2.760   6.704   3.745 -0.2749  0.0687 -0.4131
 2000ntf    nn314868   2.661   6.584   3.765  0.1109 -0.1877 -0.0067
 2000ntf    sn214869   2.666   6.466   3.869  0.0986 -0.0804  0.1154
 2000ntf    cn114870   2.703   6.323   3.763 -0.1297 -0.1707  0.1571
 2000ntf    fn414871   2.973   6.569   3.668 -0.3336 -0.1846 -0.2890
 2000ntf    fn414872   2.832   6.596   3.514 -0.7051  0.1618 -0.0412
 2000ntf    fn414873   2.946   6.761   3.576  0.0359  0.0033 -0.1589
 2000ntf    on514874   2.843   6.746   3.856 -0.1225 -0.1443 -0.4449
 2000ntf    on514875   2.692   6.817   3.688 -0.3361  0.1810 -0.1204
 2000ntf    on514876   2.532   6.441   3.917  0.0829 -0.2894 -0.0367
 2000ntf    on514877   2.774   6.467   3.965  0.5313  0.0555 -0.3661
 2000ntf    fn414878   2.808   6.354   3.689  0.2633 -0.4416  0.5941
 2000ntf    fn414879   2.738   6.215   3.831  0.2379 -0.6351 -0.7641
 2000ntf    fn414880   2.598   6.298   3.686 -0.0563  0.2191 -0.0736
 2001ntf    cn114881   3.989   0.961   4.605  0.1805  0.1579 -0.6301
 2001ntf    sn214882   3.873   0.837   4.541 -0.0291 -0.0255  0.0993
 2001ntf    nn314883   3.754   0.925   4.487  0.2290  0.4665  0.3299
 2001ntf    sn214884   3.624   0.970   4.564 -0.0817 -0.3669  0.3022
 2001ntf    cn114885   3.530   0.814   4.562 -0.2605 -0.2560 -0.1499
 2001ntf    fn414886   4.110   0.909   4.609  0.0509 -0.1067 -0.0985
 2001ntf    fn414887   3.987   1.067   4.526 -0.0099 -0.0221 -0.8704
 2001ntf    fn414888   3.956   1.001   4.726 -0.0719  0.2287 -0.7204
 2001ntf    on514889   3.950   0.780   4.433 -0.4618  0.5598 -0.5302
 2001ntf    on514890   3.844   0.753   4.654  1.4239  0.3232  0.7498
 2001ntf    on514891   3.552   1.069   4.488 -0.2237 -0.3798  0.4215
 2001ntf    on514892   3.642   1.011   4.700 -0.1240  0.6284  0.0108
 2001ntf    fn414893   3.579   0.713   4.633 -0.5311 -0.1970  0.1247
 2001ntf    fn414894   3.412   0.833   4.620 -0.2724 -0.1849 -0.1971
 2001ntf    fn414895   3.509   0.764   4.442  0.3648  0.6237 -0.6352
 2002ntf    cn114896   0.877   4.612   3.236 -0.1261  0.0628 -0.2220
 2002ntf    sn214897   0.850   4.736   3.366  0.2138  0.0669 -0.1550
 2002ntf    nn314898   0.749   4.672   3.467  0.5269 -0.0365  0.0938
 2002ntf    sn214899   0.779   4.569   3.582  0.0559 -0.0746  0.1836
 2002ntf    cn114900   0.671   4.646   3.707  0.0174 -0.0259  0.1206
 2002ntf    fn414901   0.942   4.507   3.283 -0.6210 -0.0080  0.3149
 2002ntf    fn414902   0.763   4.557   3.199 -0.5044  0.3696  0.4604
 2002ntf    fn414903   0.936   4.655   3.126 -0.9034  0.3435 -0.5347
 2002ntf    on514904   0.986   4.760   3.408  0.2271  0.1830 -0.2652
 2002ntf    on514905   0.781   4.847   3.305  0.1126  0.3094  0.3937
 2002ntf    on514906   0.913   4.573   3.634  0.1813  0.3562 -0.1715
 2002ntf    on514907   0.704   4.446   3.569  0.1033 -0.0894  0.0553
 2002ntf    fn414908   0.654   4.565   3.810  0.6122 -0.4770 -0.1306
 2002ntf    fn414909   0.735   4.752   3.753 -0.1776 -0.0161  0.3707
 2002ntf    fn414910   0.552   4.678   3.658  0.0775  0.6150  0.3888
 2003ntf    cn114911   2.444   2.726   3.484 -0.1070 -0.0761  0.1387
 2003ntf    sn214912   2.375   2.694   3.319  0.4553  0.1892 -0.1532
 2003ntf    nn314913   2.452   2.808   3.244  0.3742  0.2019 -0.2172
 2003ntf    sn214914   2.409   2.950   3.193 -0.0193  0.2346  0.1971
 2003ntf    cn114915   2.388   2.914   3.016  0.5639  0.5142  0.0654
 2003ntf    fn414916   2.398   2.631   3.564 -0.3032 -0.0932  0.0057
 2003ntf    fn414917   2.576   2.736   3.480 -0.1260  0.2439  0.2735
 2003ntf    fn414918   2.405   2.841   3.535 -0.1397 -0.1272  0.2282
 2003ntf    on514919   2.425   2.565   3.278  0.3671 -0.0080  0.3584
 2003ntf    on514920   2.234   2.717   3.338  0.4524  0.2649 -0.2613
 2003ntf    on514921   2.524   3.038   3.194 -0.1341  0.3877 -0.0603
 2003ntf    on514922   2.278   2.996   3.232 -0.0636 -0.1310  0.4766
 2003ntf    fn414923   2.504   2.918   2.953  0.7571 -0.2678  0.3650
 2003ntf    fn414924   2.325   2.803   2.983  0.8124  0.2487  0.4830
 2003ntf    fn414925   2.316   3.009   2.957 -0.2145 -0.0099  0.1593
 2004ntf    cn114926   2.607   0.325   0.098  0.4821  0.0585  0.1974
 2004ntf    sn214927   2.502   0.321  -0.050  0.4606 -0.0384  0.2144
 2004ntf    nn314928   2.366   0.273   0.014  0.4600 -0.0853  0.1793
 2004ntf    sn214929   2.248   0.362   0.067  0.2724 -0.2333  0.0122
 2004ntf    cn114930   2.144   0.379  -0.081  0.0657 -0.1843  0.1637
 2004ntf    fn414931   2.725   0.376   0.066  0.3955 -0.4583 -0.9850
 2004ntf    fn414932   2.552   0.394   0.197 -0.2242 -0.2668  0.0431
 2004ntf    fn414933   2.621   0.201   0.140  0.4607 -0.0788 -0.1986
 2004ntf    on514934   2.492   0.451  -0.112  0.2473 -0.3562 -0.4273
 2004ntf    on514935   2.571   0.221  -0.128  0.9150  0.6345 -0.2555
 2004ntf    on514936   2.283   0.494   0.113 -0.9041  0.2253 -0.3872
 2004ntf    on514937   2.161   0.281   0.148  0.4389 -0.0840  0.3413
 2004ntf    fn414938   2.040   0.461  -0.069 -0.2202 -0.5592  0.2802
 2004ntf    fn414939   2.216   0.431  -0.179  0.2944  0.0540  0.4569
 2004ntf    fn414940   2.099   0.265  -0.131  0.6746 -0.4332  0.1836
 2005ntf    cn114941   3.414   4.753   0.899 -0.3321 -0.0451  0.0256
 2005ntf    sn214942   3.395   4.758   0.718 -0.3186  0.2563  0.0309
 2005ntf    nn314943   3.238   4.769   0.711 -0.3025  0.2732 -0.2912
 2005ntf    sn214944   3.160   4.903   0.690 -0.5761  0.1451 -0.0864
 2005ntf    cn114945   3.156   4.891   0.509  0.1876  0.0532 -0.0994
 2005ntf    fn414946   3.376   4.864   0.961 -0.0968 -0.1006  0.2711
 2005ntf    fn414947   3.340   4.663   0.962 -0.8046  0.2372 -0.1218
 2005ntf    fn414948   3.535   4.721   0.941 -0.3849 -0.7400 -0.3331
 2005ntf    on514949   3.483   4.866   0.682  0.0441  0.0315  0.2398
 2005ntf    on514950   3.445   4.628   0.680 -0.3361  0.1871  0.2436
 2005ntf    on514951   3.237   5.024   0.697 -0.2795 -0.0408 -0.1098
 2005ntf    on514952   3.019   4.915   0.720 -0.5400  0.3491  0.0033
 2005ntf    fn414953   3.275   4.919   0.459  0.0550  0.1024 -0.3916
 2005ntf    fn414954   3.116   4.775   0.458 -0.4425  0.4697 -0.5791
 2005ntf    fn414955   3.075   4.980   0.454  0.8085  0.6852 -0.0046
 2006ntf    cn114956   2.777   5.916   2.049  0.1822  0.2704  0.2248
 2006ntf    sn214957   2.839   6.064   1.963 -0.0681  0.2199 -0.0457
 2006ntf    nn314958   2.829   6.034   1.809 -1.3738 -1.1675  0.2774
 2006ntf    sn214959   2.732   6.090   1.699 -0.2629  0.0531 -0.1123
 2006ntf    cn114960   2.815   6.237   1.632 -0.1604  0.1249  0.1690
 2006ntf    fn414961   2.648   5.897   2.025  0.0494  0.0666  1.0528
 2006ntf    fn414962   2.849   5.814   2.007 -0.5122  0.0155 -0.3628
 2006ntf    fn414963   2.789   5.925   2.181 -0.1949  0.4872  0.2453
 2006ntf    on514964   2.750   6.169   2.007 -0.6152 -0.1124 -0.3428
 2006ntf    on514965   2.974   6.073   2.014 -0.1900 -0.2289  0.3647
 2006ntf    on514966   2.606   6.144   1.744 -0.0509  0.2567  0.2448
 2006ntf    on514967   2.713   6.001   1.588  0.4903  0.1858 -0.3534
 2006ntf    fn414968   2.925   6.223   1.560 -0.2560  0.2435 -0.0009
 2006ntf    fn414969   2.737   6.303   1.548  0.0250  0.0707 -0.0502
 2006ntf    fn414970   2.838   6.322   1.730 -0.3305 -0.3160  0.5937
 2007ntf    cn114971   4.256   1.763   4.013  0.0520 -0.2292  0.0361
 2007ntf    sn214972   4.238   1.789   3.834  0.3644  0.3300  0.0837
 2007ntf    nn314973   4.370   1.870   3.806  0.6173  0.0576  0.4801
 2007ntf    sn214974   4.458   1.893   3.678  0.0431 -0.1268  0.0460
 2007ntf    cn114975   4.367   2.033   3.607 -0.1307 -0.3282 -0.1306
 2007ntf    fn414976   4.334   1.659   4.040 -0.5873 -0.7275 -0.0196
 2007ntf    fn414977   4.311   1.862   4.082 -0.0476  0.0838 -0.3248
 2007ntf    fn414978   4.135   1.739   4.060 -0.1888 -0.0653 -0.4908
 2007ntf    on514979   4.238   1.655   3.781 -0.6774  0.2487  0.2739
 2007ntf    on514980   4.120   1.870   3.819  0.1131 -0.0574 -0.0402
 2007ntf    on514981   4.446   1.792   3.576 -0.1736 -0.1323  0.0764
 2007ntf    on514982   4.593   1.934   3.707 -0.2508  0.6244  0.3522
 2007ntf    fn414983   4.242   2.010   3.569 -0.0950 -0.4233 -0.1894
 2007ntf    fn414984   4.368   2.130   3.698 -0.5728 -0.3341 -0.1167
 2007ntf    fn414985   4.419   2.089   3.499 -0.0954  0.9537  0.5312
 2008ntf    cn114986   0.686   6.680   0.675  0.4131 -0.2869 -0.3784
 2008ntf    sn214987   0.654   6.613   0.509 -0.2370 -0.0970 -0.3341
 2008ntf    nn314988   0.797   6.577   0.455  0.0231 -0.0406  0.3035
 2008ntf    sn214989   0.875   6.652   0.341  0.1493 -0.5245  0.0677
 2008ntf    cn114990   0.847   6.551   0.192  0.0574 -0.2250 -0.1188
 2008ntf    fn414991   0.579   6.720   0.742  0.6481 -0.6961  0.2580
 2008ntf    fn414992   0.740   6.595   0.761 -0.2483 -0.0605  0.2748
 2008ntf    fn414993   0.765   6.786   0.675 -0.0191  0.0399 -0.1234
 2008ntf    on514994   0.565   6.503   0.534 -0.4203  0.1685  0.1887
 2008ntf    on514995   0.583   6.722   0.446 -0.0322 -0.0425 -0.4729
 2008ntf    on514996   1.014   6.633   0.375  0.2412  0.6250  0.3886
 2008ntf    on514997   0.833   6.786   0.307  0.1989 -0.5293 -0.0131
 2008ntf    fn414998   0.887   6.619   0.086  0.3391  0.1114  0.1989
 2008ntf    fn414999   0.919   6.440   0.191  0.4289  0.0163 -0.7569
 2008ntf    fn415000   0.719   6.525   0.170  0.0218  0.1954 -0.4221
 2009ntf    cn115001   4.300   0.685   0.615  0.0439 -0.3214  0.1809
 2009ntf    sn215002   4.264   0.622   0.448  0.0785 -0.3132  0.1703
 2009ntf    nn315003   4.110   0.591   0.464  0.0145 -0.1240 -0.0734
 2009ntf    sn215004   4.031   0.458   0.484  0.3729 -0.3517 -0.1532
 2009ntf    cn115005   3.889   0.538   0.566  0.4787 -0.1315 -0.1854
 2009ntf    fn415006   4.429   0.716   0.614 -0.1499  0.5242  0.5356
 2009ntf    fn415007   4.233   0.791   0.656  0.5070 -0.1251  0.4377
 2009ntf    fn415008   4.287   0.595   0.711 -0.5843 -0.1016  0.3064
 2009ntf    on515009   4.292   0.743   0.375 -0.3240 -0.3983 -0.1289
 2009ntf    on515010   4.357   0.513   0.437  0.0964 -0.2490 -0.3485
 2009ntf    on515011   4.082   0.369   0.585  0.3920  0.1395  0.2733
 2009ntf    on515012   3.974   0.410   0.361  0.0922 -0.6004  0.0702
 2009ntf    fn415013   3.918   0.593   0.683 -0.2309 -0.2829  0.0643
 2009ntf    fn415014   3.850   0.637   0.488 -0.2778 -0.3202 -0.0497
 2009ntf    fn415015   3.786   0.459   0.592  0.1552  0.4366  0.2787
 2010ntf    cn115016   5.641   2.604   4.999 -0.4887  0.0673 -0.2317
 2010ntf    sn215017   5.497   2.709   5.039 -0.1473  0.3443  0.2927
 2010ntf    nn315018   5.379   2.612   5.074  0.2381 -0.2274  0.0376
 2010ntf    sn215019   5.304   2.522   4.970 -0.0346 -0.0426  0.0729
 2010ntf    cn115020   5.269   2.385   5.084 -0.0329  0.2495  0.4267
 2010ntf    fn415021   5.651   2.518   5.099 -0.0004  0.3519 -0.0299
 2010ntf    fn415022   5.640   2.538   4.885  0.2895  0.9379 -0.7547
 2010ntf    fn415023   5.757   2.669   4.997 -0.2979 -0.2510  0.2236
 2010ntf    on515024   5.529   2.781   5.159 -0.3316  0.6042  0.1864
 2010ntf    on515025   5.475   2.793   4.923  0.4395  0.0643 -0.0311
 2010ntf    on515026   5.391   2.460   4.873 -0.0057 -0.5236  0.4053
 2010ntf    on515027   5.174   2.572   4.933 -0.1498  0.0763  0.6251
 2010ntf    fn415028   5.367   2.325   5.149 -0.2836 -0.5452  0.0889
 2010ntf    fn415029   5.180   2.418   5.176 -0.8113 -0.3421 -0.1013
 2010ntf    fn415030   5.207   2.294   5.010  0.0727  0.0503  0.5828
 2011ntf    cn115031   5.265   6.782   3.553 -0.0557  0.0130 -0.3538
 2011ntf    sn215032   5.400   6.733   3.665 -0.0787  0.0803 -0.2966
 2011ntf    nn315033   5.436   6.873   3.726 -0.1602 -0.1341  0.2559
 2011ntf    sn215034   5.490   6.926   3.863 -0.1669 -0.0518  0.2272
 2011ntf    cn115035   5.644   7.005   3.807 -0.2780 -0.1160 -0.1666
 2011ntf    fn415036   5.309   6.856   3.452  0.0197  0.0028 -0.3281
 2011ntf    fn415037   5.204   6.681   3.494 -0.6097 -0.1097  0.4109
 2011ntf    fn415038   5.163   6.845   3.610 -0.0474 -0.3783  0.0934
 2011ntf    on515039   5.330   6.649   3.759 -0.0873  0.8774  0.4206
 2011ntf    on515040   5.509   6.678   3.588  0.3255  0.3505  0.0772
 2011ntf    on515041   5.548   6.825   3.948  0.5798  0.4191  0.2915
 2011ntf    on515042   5.426   7.041   3.923 -0.9321  0.0191 -0.7092
 2011ntf    fn415043   5.632   7.102   3.717  0.6051  0.1388 -0.0130
 2011ntf    fn415044   5.703   7.057   3.913 -0.3962  0.0819 -0.1953
 2011ntf    fn415045   5.716   6.913   3.745  0.4732  0.5021 -0.2254
 2012ntf    cn115046   6.143   4.002   3.500 -0.2634  0.0997 -0.5509
 2012ntf    sn215047   6.211   4.159   3.438  0.0071  0.1898 -0.0358
 2012ntf    nn315048   6.365   4.130   3.448 -0.2687 -1.0783  0.8384
 2012ntf    sn215049   6.453   4.052   3.345 -0.1721  0.0632  0.0369
 2012ntf    cn115050   6.532   4.198   3.269  0.0401 -0.2704 -0.3890
 2012ntf    fn415051   6.175   3.962   3.622 -0.2459  0.3189 -0.4838
 2012ntf    fn415052   6.011   4.006   3.506 -0.2653 -0.3885 -0.2012
 2012ntf    fn415053   6.165   3.900   3.418  0.4431  0.2115 -0.5032
 2012ntf    on515054   6.170   4.166   3.299  0.4329 -0.0742 -0.1749
 2012ntf    on515055   6.168   4.267   3.523 -0.9420  0.1370 -0.4273
 2012ntf    on515056   6.386   3.988   3.235  0.3134 -0.5037  0.0642
 2012ntf    on515057   6.565   3.976   3.397 -0.2125  0.4198  0.6556
 2012ntf    fn415058   6.442   4.275   3.211  0.1248 -0.3486 -0.6242
 2012ntf    fn415059   6.599   4.264   3.362 -0.3683  0.3454 -0.5254
 2012ntf    fn415060   6.615   4.167   3.171  0.1108  0.0346 -0.4244
 2013ntf    cn115061   4.688   1.587   3.205  0.3634 -0.5500 -0.1839
 2013ntf    sn215062   4.830   1.590   3.092  0.0855  0.2471 -0.5182
 2013ntf    nn315063   4.914   1.700   3.166  0.2345  0.0918 -0.4546
 2013ntf    sn215064   4.944   1.851   3.139  0.1037  0.2307  0.1475
 2013ntf    cn115065   5.119   1.840   3.091  0.0637  0.1640  0.0170
 2013ntf    fn415066   4.717   1.591   3.334  0.6990 -0.0908 -0.2697
 2013ntf    fn415067   4.608   1.689   3.183  0.1476 -0.6533  0.1099
 2013ntf    fn415068   4.608   1.484   3.183 -0.8893  0.2122  0.6770
 2013ntf    on515069   4.885   1.457   3.107 -0.6938 -0.0196  0.0202
 2013ntf    on515070   4.778   1.626   2.962  0.3522  0.7008 -0.4988
 2013ntf    on515071   4.960   1.922   3.263  0.1759  0.4231  0.0292
 2013ntf    on515072   4.879   1.917   3.028  0.0872  0.1358  0.1008
 2013ntf    fn415073   5.136   1.761   2.986 -0.0815  0.1256  0.0231
 2013ntf    fn415074   5.164   1.961   3.062  0.6506  0.0911  0.6097
 2013ntf    fn415075   5.192   1.808   3.196 -0.5120  0.8707  0.6440
 2014ntf    cn115076   5.828   3.974   5.884  0.3835 -0.4965  0.3541
 2014ntf    sn215077   5.910   4.115   5.802  0.0485 -0.4856  0.0364
 2014ntf    nn315078   5.949   4.046   5.667 -0.8494 -0.4152 -0.2634
 2014ntf    sn215079   6.080   3.970   5.624 -0.1547  0.4017  0.3801
 2014ntf    cn115080   6.148   4.111   5.532 -0.0456  0.1250  0.0336
 2014ntf    fn415081   5.808   3.990   6.014  0.2176  0.6547  0.1974
 2014ntf    fn415082   5.710   3.954   5.828  0.2554  0.6569  0.1758
 2014ntf    fn415083   5.890   3.858   5.873  0.9118 -0.1810 -0.0937
 2014ntf    on515084   5.797   4.202   5.783  0.7060  0.3169 -0.2688
 2014ntf    on515085   6.014   4.161   5.891  0.0470  0.3357 -0.3798
 2014ntf    on515086   6.042   3.865   5.532 -0.8255  1.1642 -0.2436
 2014ntf    on515087   6.173   3.930   5.726 -0.1762 -0.8836 -0.0928
 2014ntf    fn415088   6.194   4.208   5.609 -0.0147 -0.2931  0.5442
 2014ntf    fn415089   6.244   4.074   5.449  0.0439  0.5526 -0.0588
 2014ntf    fn415090   6.057   4.172   5.458 -0.1475  0.1599  0.1869
 2015ntf    cn115091   0.933   3.081   6.659  0.6736  0.5271 -0.0231
 2015ntf    sn215092   0.838   3.215   6.736 -0.0826 -0.1908  0.3093
 2015ntf    nn315093   0.937   3.336   6.723  0.4155 -0.6015  0.2403
 2015ntf    sn215094   1.044   3.385   6.826  0.1731  0.0367  0.1938
 2015ntf    cn115095   0.940   3.485   6.937 -0.0791  0.2411 -0.2265
 2015ntf    fn415096   0.982   3.115   6.541  0.1178  0.3101 -0.3222
 2015ntf    fn415097   1.040   3.048   6.730 -0.0080  0.1279  0.8334
 2015ntf    fn415098   0.862   2.972   6.636  0.0585  0.7092  0.9635
 2015ntf    on515099   0.720   3.221   6.654  0.2414 -0.4540 -0.1820
 2015ntf    on515100   0.819   3.155   6.866  0.0276 -0.0185  0.4045
 2015ntf    on515101   1.148   3.472   6.776 -0.1529  0.3020 -0.0234
 2015ntf    on515102   1.097   3.290   6.921  0.7671  0.6374  0.4815
 2015ntf    fn415103   0.853   3.416   7.009  0.4508  0.2985  0.4807
 2015ntf    fn415104   1.008   3.565   7.017  0.6621 -0.1850 -0.4208
 2015ntf    fn415105   0.866   3.565   6.862  0.3781  0.4154 -0.4991
 2016ntf    cn115106   1.122   0.697   5.083 -0.1400  0.2959 -0.4171
 2016ntf    sn215107   1.069   0.651   4.915  0.1444 -0.1364 -0.3897
 2016ntf    nn315108   1.105   0.499   4.931 -0.3158 -0.1981  0.0981
 2016ntf    sn215109   1.186   0.405   4.835 -0.1130  0.3239 -0.2496
 2016ntf    cn115110   1.361   0.421   4.879 -0.1463 -0.7503  0.3081
 2016ntf    fn415111   1.037   0.640   5.167 -0.2664 -0.1584 -0.8505
 2016ntf    fn415112   1.243   0.649   5.108 -0.3094  0.0326 -0.0952
 2016ntf    fn415113   1.134   0.827   5.104  0.5425  0.1735 -0.0025
 2016ntf    on515114   0.926   0.671   4.917  0.1799  0.1241 -0.3926
 2016ntf    on515115   1.153   0.724   4.824  0.3614  0.1058  0.0027
 2016ntf    on515116   1.172   0.437   4.695  0.5651 -0.1684 -0.4383
 2016ntf    on515117   1.159   0.269   4.877 -0.2332  0.3242 -0.3258
 2016ntf    fn415118   1.405   0.395   5.001 -0.0127  0.2091  0.4675
 2016ntf    fn415119   1.435   0.339   4.805  0.2357 -0.4653  0.3682
 2016ntf    fn415120   1.412   0.540   4.851 -0.4097 -0.7204 -0.0580
 2017ntf    cn115121   3.547   0.021   6.585  0.1068  0.1001  0.2353
 2017ntf    sn215122   3.406  -0.067   6.661  0.1254 -0.3488 -0.2466
 2017ntf    nn315123   3.306   0.051   6.638  0.2970 -0.2580 -0.5396
 2017ntf    sn215124   3.213   0.073   6.513 -0.4892 -0.4356  0.0091
 2017ntf    cn115125   3.059  -0.001   6.576 -0.6428 -0.1010  0.0256
 2017ntf    fn415126   3.521   0.058   6.461  0.6018  0.4491  0.2336
 2017ntf    fn415127   3.583   0.138   6.635  0.3408  0.0490  0.1837
 2017ntf    fn415128   3.650  -0.061   6.576 -0.4070 -0.5281  0.0277
 2017ntf    on515129   3.386  -0.179   6.573  0.3077 -0.9564  0.4826
 2017ntf    on515130   3.449  -0.092   6.796  0.4505  0.2075 -0.2398
 2017ntf    on515131   3.246   0.003   6.391 -0.0275  0.0504 -0.1464
 2017ntf    on515132   3.180   0.212   6.494 -0.2130 -0.3615  0.0727
 2017ntf    fn415133   3.073  -0.130   6.601 -0.4774  0.0046  0.4861
 2017ntf    fn415134   3.019   0.051   6.691 -0.3995  0.4905 -0.1513
 2017ntf    fn415135   2.963   0.020   6.487 -0.7284  0.1316  0.1707
 2018ntf    cn115136   5.041   3.576   4.734 -0.2815  0.0268  0.5565
 2018ntf    sn215137   5.145   3.674   4.847 -0.0343  0.4588 -0.0402
 2018ntf    nn315138   5.098   3.599   4.977 -0.1430 -0.3422 -0.5347
 2018ntf    sn215139   5.165   3.475   5.047  0.1992  0.0906 -0.0964
 2018ntf    cn115140   5.272   3.572   5.158  0.2288 -0.3281  0.2453
 2018ntf    fn415141   5.059   3.445   4.723  0.8307  0.1999  0.1862
 2018ntf    fn415142   4.914   3.585   4.770 -0.3628 -0.2108  0.3348
 2018ntf    fn415143   5.048   3.618   4.609  0.7240 -0.1108  0.5543
 2018ntf    on515144   5.279   3.642   4.805 -0.0905 -0.1551  0.2271
 2018ntf    on515145   5.104   3.811   4.838  0.0703  0.4773 -0.2339
 2018ntf    on515146   5.254   3.393   4.969  0.1095 -0.0411 -0.0607
 2018ntf    on515147   5.080   3.407   5.141 -0.3242  0.8363 -0.0217
 2018ntf    fn415148   5.353   3.651   5.089  0.2525 -0.1639  0.4606
 2018ntf    fn415149   5.207   3.644   5.248  0.2304 -0.2895  0.2165
 2018ntf    fn415150   5.354   3.491   5.222  0.5248 -0.6093 -0.4783
 2019ntf    cn115151   4.452   5.628   2.944  0.0907 -0.1493 -0.0315
 2019ntf    sn215152   4.523   5.759   3.049  0.0493 -0.2273  0.0954
 2019ntf    nn315153   4.395   5.781   3.136  0.2074 -0.4610  0.3927
 2019ntf    sn215154   4.329   5.915   3.186  0.1039 -0.1436 -0.5715
 2019ntf    cn115155   4.246   5.842   3.330  0.1281  0.2057 -0.3804
 2019ntf    fn415156   4.327   5.655   2.910  0.2266  0.5500  0.0032
 2019ntf    fn415157   4.514   5.632   2.828 -0.3562  0.0771 -0.2672
 2019ntf    fn415158   4.454   5.505   2.993 -0.1439 -0.0571  0.2137
 2019ntf    on515159   4.637   5.696   3.111  0.1551  0.0717  0.2050
 2019ntf    on515160   4.547   5.868   2.958  0.7424 -0.4743 -0.0273
 2019ntf    on515161   4.221   5.967   3.106 -0.4147 -0.3052  0.0168
 2019ntf    on515162   4.415   6.018   3.238  0.1668 -0.4745 -0.0161
 2019ntf    fn415163   4.321   5.750   3.389  0.1062  0.4050 -0.0370
 2019ntf    fn415164   4.212   5.933   3.420  0.0162 -0.1433 -0.0660
 2019ntf    fn415165   4.132   5.784   3.296  0.0682  0.1056 -0.0132
 2020ntf    cn115166   6.116   6.502   1.005  0.0321  0.3520  0.0846
 2020ntf    sn215167   6.020   6.446   0.861  0.3510  0.1049 -0.0348
 2020ntf    nn315168   5.917   6.564   0.841 -0.2145 -0.3666  0.0710
 2020ntf    sn215169   5.768   6.577   0.888 -0.1804  0.0371  0.0688
 2020ntf    cn115170   5.684   6.508   0.743 -0.0951 -0.3290  0.1914
 2020ntf    fn415171   6.241   6.460   0.999  0.0947  0.5995 -0.4099
 2020ntf    fn415172   6.113   6.634   1.018  0.7453  0.3502  0.2955
 2020ntf    fn415173   6.062   6.458   1.117 -0.2298  0.0140 -0.1706
 2020ntf    on515174   6.111   6.439   0.750 -0.1065 -0.1292 -0.3982
 2020ntf    on515175   5.961   6.326   0.914  0.1802  0.4725  0.6201
 2020ntf    on515176   5.747   6.720   0.885  0.1923  0.0913  0.0118
 2020ntf    on515177   5.725   6.508   1.007 -0.5025  0.4033  0.1671
 2020ntf    fn415178   5.737   6.397   0.696  0.5634 -0.0764  0.3318
 2020ntf    fn415179   5.553   6.492   0.755 -0.0766 -0.4413  0.2341
 2020ntf    fn415180   5.703   6.598   0.648 -0.3294 -0.4839 -0.0039
 2021ntf    cn115181   3.367   3.517   4.281 -0.3632 -1.0342 -0.2835
 2021ntf    sn215182   3.365   3.694   4.323 -0.1617 -0.8858 -0.8919
 2021ntf    nn315183   3.300   3.682   4.465  0.4807 -0.0753 -0.5247
 2021ntf    sn215184   3.153   3.722   4.504  0.4796 -0.4290 -0.1604
 2021ntf    cn115185   3.187   3.864   4.612  0.0476 -0.2079 -0.3157
 2021ntf    fn415186   3.466   3.456   4.345  0.2806 -0.0995 -0.3771
 2021ntf    fn415187   3.245   3.477   4.314 -0.5589 -0.2708 -0.0672
 2021ntf    fn415188   3.377   3.494   4.151  0.4405 -0.5096 -0.3182
 2021ntf    on515189   3.506   3.721   4.334 -0.4476  0.2753  0.0848
 2021ntf    on515190   3.291   3.753   4.214 -0.2081 -0.4264 -0.6157
 2021ntf    on515191   3.081   3.619   4.576  0.7497 -0.3603  0.2125
 2021ntf    on515192   3.083   3.783   4.394  0.0435 -0.7168 -0.0458
 2021ntf    fn415193   3.287   3.841   4.694 -0.1286 -0.4203 -0.1590
 2021ntf    fn415194   3.197   3.981   4.552  0.4460 -0.0655  0.0247
 2021ntf    fn415195   3.084   3.892   4.691  0.4030  0.6929 -0.1592
 2022ntf    cn115196   5.163   0.090   6.053 -0.3348  0.0235 -0.2877
 2022ntf    sn215197   5.164  -0.038   5.924 -0.3638 -0.0215 -0.2438
 2022ntf    nn315198   5.051   0.018   5.831 -0.0304  0.9830 -0.0637
 2022ntf    sn215199   4.906  -0.036   5.804  0.3657 -0.3200  0.3442
 2022ntf    cn115200   4.939  -0.125   5.648 -0.0150  0.1294  0.0036
 2022ntf    fn415201   5.253   0.053   6.143 -0.1349  0.1531 -0.4342
 2022ntf    fn415202   5.194   0.209   6.006 -0.5187  0.3202  0.3180
 2022ntf    fn415203   5.046   0.100   6.114 -0.1309 -0.0591  0.1210
 2022ntf    on515204   5.287  -0.022   5.850 -0.2111  0.6397  0.1428
 2022ntf    on515205   5.153  -0.165   5.990  0.2598  0.1077  0.1139
 2022ntf    on515206   4.814   0.067   5.761 -0.0196 -0.7080  0.2275
 2022ntf    on515207   4.859  -0.130   5.903 -0.4520  0.4682  0.7163
 2022ntf    fn415208   4.975  -0.046   5.548  0.2464  0.2452  0.1884
 2022ntf    fn415209   5.035  -0.214   5.669 -0.1957  0.0617  0.5703
 2022ntf    fn415210   4.831  -0.192   5.611 -0.0904  0.1120  0.2489
 2023ntf    cn115211   6.308   1.987   4.105 -0.2817 -0.0949 -0.0759
 2023ntf    sn215212   6.220   1.830   4.129  0.1716 -0.3372  0.0135
 2023ntf    nn315213   6.313   1.729   4.053  0.6897  0.2488 -0.1395
 2023ntf    sn215214   6.302   1.678   3.905  0.1676 -0.0618  0.0016
 2023ntf    cn115215   6.172   1.552   3.920  0.0420  0.0218 -0.3753
 2023ntf    fn415216   6.336   2.014   3.979 -0.3569  0.1335 -0.0436
 2023ntf    fn415217   6.241   2.094   4.142 -0.0888  0.0860 -0.2457
 2023ntf    fn415218   6.410   1.994   4.189 -0.0896 -0.0034 -0.3138
 2023ntf    on515219   6.224   1.810   4.272 -0.6114 -0.0394  0.0787
 2023ntf    on515220   6.088   1.861   4.079 -0.0159 -0.7047  0.2748
 2023ntf    on515221   6.419   1.606   3.858  0.4171  0.3587 -0.0241
 2023ntf    on515222   6.241   1.775   3.818  0.0431  0.1804  0.3576
 2023ntf    fn415223   6.056   1.603   3.957 -0.1344 -0.6660  0.0304
 2023ntf    fn415224   6.144   1.494   3.804  0.3147 -1.3795  0.2391
 2023ntf    fn415225   6.190   1.454   4.007 -0.4390  0.0903 -0.1965
 2024ntf    cn115226   3.301   3.705   5.610  0.0741  0.0220 -0.0703
 2024ntf    sn215227   3.203   3.605   5.494 -0.1452 -0.3482  0.4267
 2024ntf    nn315228   3.203   3.459   5.551  0.4719 -0.6016 -0.1990
 2024ntf    sn215229   3.102   3.399   5.655  0.2250 -0.2443 -0.2318
 2024ntf    cn115230   3.184   3.240   5.683 -0.0018 -0.3386 -0.1049
 2024ntf    fn415231   3.415   3.656   5.656  0.0066 -0.0349  0.0384
 2024ntf    fn415232   3.341   3.822   5.563 -0.3096  0.2067  0.0596
 2024ntf    fn415233   3.235   3.731   5.721 -0.6833  0.0180 -0.5141
 2024ntf    on515234   3.073   3.668   5.494 -0.3467 -0.7658  0.4516
 2024ntf    on515235   3.290   3.617   5.379 -0.1928 -0.0205  0.4231
 2024ntf    on515236   2.973   3.367   5.597  0.1906 -0.5937  0.0388
 2024ntf    on515237   3.105   3.460   5.786  1.0888 -0.2465 -0.2499
 2024ntf    fn415238   3.183   3.156   5.581 -0.4257 -0.5736  0.0888
 2024ntf    fn415239   3.312   3.264   5.701 -0.1056 -0.1466  0.3942
 2024ntf    fn415240   3.129   3.169   5.780  0.4717 -0.4139  0.1099
 2025ntf    cn115241   2.332   1.909   6.064  0.2249 -0.1657 -0.0294
 2025ntf    sn215242   2.172   1.927   6.150  0.2661  0.2096 -0.0284
 2025ntf    nn315243   2.217   1.898   6.297 -0.0427 -0.1576 -0.0043
 2025ntf    sn215244   2.229   1.990   6.424  0.1954  0.3198 -0.3693
 2025ntf    cn115245   2.280   1.867   6.547 -0.2619  0.0557 -0.4399
 2025ntf    fn415246   2.409   1.812   6.110  0.9117  0.1516 -0.4896
 2025ntf    fn415247   2.319   1.889   5.934  0.3967 -0.0007 -0.0716
 2025ntf    fn415248   2.403   2.019   6.082  0.1567 -0.1674  0.2525
 2025ntf    on515249   2.128   2.063   6.132  0.4642  0.2763 -0.0196
 2025ntf    on515250   2.090   1.821   6.097  0.3907  0.2895 -0.3850
 2025ntf    on515251   2.101   2.021   6.483  0.2640 -0.4171  0.1814
 2025ntf    on515252   2.341   2.080   6.422  0.1810  0.3347 -0.5253
 2025ntf    fn415253   2.387   1.796   6.513 -0.6421 -0.8754  0.2493
 2025ntf    fn415254   2.329   1.926   6.655  0.0837 -0.1802 -0.4632
 2025ntf    fn415255   2.176   1.796   6.588 -0.2167  0.2229 -0.0226
 2026ntf    cn115256   6.281   1.144   6.908  0.5591  0.1206 -0.2774
 2026ntf    sn215257   6.122   1.210   6.967  0.5318 -0.1674 -0.0214
 2026ntf    nn315258   6.023   1.091   6.945 -0.0268  0.3540 -0.3707
 2026ntf    sn215259   5.914   1.080   6.832 -0.2301 -0.0966 -0.1349
 2026ntf    cn115260   5.772   1.013   6.923  0.0515 -0.2259  0.2144
 2026ntf    fn415261   6.338   1.067   6.999 -0.3927  0.1255  0.3288
 2026ntf    fn415262   6.278   1.080   6.792  0.2404 -0.3251 -0.0256
 2026ntf    fn415263   6.362   1.245   6.883  0.3065  0.4851  0.3587
 2026ntf    on515264   6.132   1.225   7.110  0.5512  0.1403 -0.0532
 2026ntf    on515265   6.107   1.331   6.890  0.0134 -0.2384 -0.0369
 2026ntf    on515266   5.950   0.970   6.746 -0.2656 -0.2583  0.0574
 2026ntf    on515267   5.851   1.186   6.758  0.8511  0.5322 -0.1724
 2026ntf    fn415268   5.803   0.893   6.970  0.1930 -0.4729 -0.5047
 2026ntf    fn415269   5.738   1.082   7.031 -0.0526 -0.0577  0.0739
 2026ntf    fn415270   5.666   1.003   6.844  0.1311  0.4168  0.0234
 2027ntf    cn115271   0.293   1.068   6.864 -0.0809 -0.1330 -0.1190
 2027ntf    sn215272   0.161   1.193   6.862  0.0455  0.0053  0.0630
 2027ntf    nn315273   0.168   1.204   6.705  0.6383 -0.4813  0.0520
 2027ntf    sn215274   0.269   1.274   6.606  0.3600  0.1982  0.2398
 2027ntf    cn115275   0.158   1.364   6.494 -0.1911 -0.2490  0.4193
 2027ntf    fn415276   0.294   0.986   6.760  0.5155  0.0292 -0.2453
 2027ntf    fn415277   0.416   1.117   6.863  0.1144 -0.6235 -0.3629
 2027ntf    fn415278   0.289   0.990   6.971 -0.0791 -0.3669 -0.2896
 2027ntf    on515279   0.042   1.127   6.910 -0.5979  0.3500 -1.0241
 2027ntf    on515280   0.204   1.309   6.935  0.8133 -0.4468  0.3409
 2027ntf    on515281   0.330   1.182   6.513  0.0462 -0.0756  0.3021
 2027ntf    on515282   0.358   1.376   6.654  0.3943  0.5821 -0.6267
 2027ntf    fn415283   0.073   1.281   6.435 -0.2894  0.2304 -0.1218
 2027ntf    fn415284   0.087   1.455   6.560  0.3492  0.0131  0.6426
 2027ntf    fn415285   0.214   1.431   6.395  0.2677 -0.2138  0.6969
 2028ntf    cn115286   6.385   2.226   1.383 -0.4120 -0.5380 -0.1583
 2028ntf    sn215287   6.314   2.152   1.533  0.1056 -0.0926  0.3092
 2028ntf    nn315288   6.430   2.175   1.636 -0.1313  0.8975  0.3648
 2028ntf    sn215289   6.446   2.118   1.782  0.0741 -0.0386 -0.0144
 2028ntf    cn115290   6.574   1.991   1.758 -0.0082 -0.1132 -0.0576
 2028ntf    fn415291   6.367   2.357   1.386 -0.1474 -0.4832 -0.7710
 2028ntf    fn415292   6.516   2.208   1.374 -0.3184  0.1029 -0.1024
 2028ntf    fn415293   6.339   2.181   1.267 -1.2460  0.0193 -0.0563
 2028ntf    on515294   6.206   2.240   1.571  0.3563  0.5245 -0.3824
 2028ntf    on515295   6.282   2.015   1.501 -0.4077 -0.0213  0.4993
 2028ntf    on515296   6.333   2.047   1.836 -0.4353  0.8312  0.0841
 2028ntf    on515297   6.509   2.210   1.873  0.3945 -0.5007  0.2336
 2028ntf    fn415298   6.687   2.032   1.704 -0.0267  0.0961  0.0619
 2028ntf    fn415299   6.625   1.933   1.865  0.5787 -0.2595 -0.4136
 2028ntf    fn415300   6.534   1.893   1.678  0.2206 -0.6943  0.5301
 2029ntf    cn115301   4.051   0.658   3.822 -0.1891 -0.3399  0.0746
 2029ntf    sn215302   4.204   0.717   3.743 -0.2571 -0.1768  0.0644
 2029ntf    nn315303   4.207   0.866   3.790 -0.1092 -0.0231 -0.4307
 2029ntf    sn215304   4.244   0.994   3.706 -0.2217  0.3152  0.0285
 2029ntf    cn115305   4.418   1.020   3.753  0.0708 -0.2073 -0.7557
 2029ntf    fn415306   4.032   0.702   3.945  0.1699  1.1568 -0.3903
 2029ntf    fn415307   3.945   0.688   3.750 -0.3268  0.5024  0.6168
 2029ntf    fn415308   4.048   0.526   3.836 -0.1897 -0.3798 -0.2943
 2029ntf    on515309   4.291   0.633   3.822 -0.0450 -0.0066  0.0127
 2029ntf    on515310   4.175   0.685   3.606 -0.3851 -0.1449  0.0843
 2029ntf    on515311   4.170   1.107   3.756 -0.1598  0.4005 -0.0707
 2029ntf    on515312   4.263   0.980   3.564  0.0106  0.6783  0.0227
 2029ntf    fn415313   4.432   1.039   3.883  0.0590 -0.4463 -0.7177
 2029ntf    fn415314   4.492   0.911   3.737  0.4829 -0.0838  0.2819
 2029ntf    fn415315   4.486   1.116   3.693  0.1649  0.5929  0.5998
 2030ntf    cn115316   3.822   5.173   6.120 -0.3378 -0.0272 -0.0266
 2030ntf    sn215317   3.788   5.187   6.298 -0.1068 -0.1062  0.0247
 2030ntf    nn315318   3.705   5.056   6.323 -0.1939 -0.0211  0.1784
 2030ntf    sn215319   3.563   5.042   6.390 -0.1496  0.0776  0.2942
 2030ntf    cn115320   3.605   4.966   6.550  0.0247 -0.2315  0.1032
 2030ntf    fn415321   3.721   5.236   6.062 -0.0986 -0.1920 -0.6369
 2030ntf    fn415322   3.941   5.218   6.083 -0.2249 -0.3223 -0.0242
 2030ntf    fn415323   3.824   5.051   6.070  0.2998 -0.0723  0.0946
 2030ntf    on515324   3.919   5.187   6.359  0.0628 -0.0911 -0.3381
 2030ntf    on515325   3.724   5.316   6.311 -0.4716 -0.2774 -0.0393
 2030ntf    on515326   3.487   4.936   6.329 -0.1638  0.1597  0.1676
 2030ntf    on515327   3.492   5.161   6.432 -0.1958  0.2509 -0.2605
 2030ntf    fn415328   3.500   4.960   6.630  0.4781 -0.7727  0.6552
 2030ntf    fn415329   3.659   4.846   6.537  0.1411 -0.1316 -0.3882
 2030ntf    fn415330   3.695   5.042   6.610 -0.1672  0.3152 -0.2858
 2031ntf    cn115331   2.646   4.180   1.117  0.1659  0.3460  0.2576
 2031ntf    sn215332   2.553   4.303   1.021  0.0464 -0.1073 -0.2052
 2031ntf    nn315333   2.595   4.255   0.877 -0.1775 -0.1268 -0.2659
 2031ntf    sn215334   2.724   4.305   0.802 -0.0874 -0.0635 -0.0711
 2031ntf    cn115335   2.664   4.424   0.679 -0.1333  0.2693  0.2733
 2031ntf    fn415336   2.636   4.057   1.070  0.2494  0.3761  0.1631
 2031ntf    fn415337   2.775   4.208   1.111  0.2128  0.0237 -0.2876
 2031ntf    fn415338   2.599   4.179   1.241 -0.3402 -0.0326  0.0692
 2031ntf    on515339   2.414   4.272   1.048  0.3043 -0.7584  0.4016
 2031ntf    on515340   2.597   4.434   1.059 -0.0069 -0.0432 -0.3611
 2031ntf    on515341   2.775   4.200   0.717 -0.5466  0.3736 -0.8932
 2031ntf    on515342   2.824   4.375   0.878 -0.1171 -0.1466  0.0445
 2031ntf    fn415343   2.611   4.533   0.732 -0.7036  0.0271  0.2107
 2031ntf    fn415344   2.760   4.460   0.596  0.4972 -0.8239  0.5102
 2031ntf    fn415345   2.573   4.375   0.597  0.0119 -0.0239  0.2873
 2032ntf    cn115346   4.857   4.075   4.403 -0.1210  0.0421  0.0748
 2032ntf    sn215347   4.785   4.159   4.547  0.2202  0.1138  0.2043
 2032ntf    nn315348   4.641   4.097   4.549 -0.0387  0.7178  0.4483
 2032ntf    sn215349   4.563   4.017   4.660  0.4433 -0.2284  0.1108
 2032ntf    cn115350   4.507   4.157   4.761  0.1451 -0.2125 -0.0755
 2032ntf    fn415351   4.775   4.062   4.300 -0.4147 -0.3881  0.3560
 2032ntf    fn415352   4.962   4.146   4.366  0.1087 -0.2676  0.1308
 2032ntf    fn415353   4.910   3.956   4.426  0.0310  0.0508 -0.2333
 2032ntf    on515354   4.867   4.125   4.661 -0.2633 -0.5594  0.3551
 2032ntf    on515355   4.791   4.294   4.496 -0.1199  0.1176  0.1690
 2032ntf    on515356   4.654   3.948   4.748 -0.1222 -0.4899  0.4948
 2032ntf    on515357   4.438   3.959   4.616  0.2287  0.2200  0.1230
 2032ntf    fn415358   4.415   4.231   4.701  0.4661  0.2564  0.0129
 2032ntf    fn415359   4.465   4.125   4.883 -0.4261  1.1269  0.0995
 2032ntf    fn415360   4.603   4.244   4.789 -0.2621  0.1224  0.2976
 2033ntf    cn115361   5.542   3.293   0.577 -0.0172 -0.1582 -0.2313
 2033ntf    sn215362   5.434   3.327   0.435 -0.2107 -0.3158 -0.1233
 2033ntf    nn315363   5.539   3.382   0.331  0.5120 -0.2721  0.6161
 2033ntf    sn215364   5.621   3.313   0.217 -0.1237  0.1294 -0.0897
 2033ntf    cn115365   5.782   3.390   0.249 -0.3359  0.4554  0.2024
 2033ntf    fn415366   5.482   3.231   0.677  0.0123  0.9410  0.4812
 2033ntf    fn415367   5.645   3.213   0.553 -0.1692 -0.3364 -0.2870
 2033ntf    fn415368   5.586   3.404   0.635 -0.2231  0.0849 -0.5408
 2033ntf    on515369   5.371   3.204   0.393  0.1502 -0.3631 -0.5274
 2033ntf    on515370   5.341   3.423   0.489  0.0421 -0.1919  0.0947
 2033ntf    on515371   5.583   3.353   0.083  0.2398  0.8229  0.0122
 2033ntf    on515372   5.648   3.172   0.234 -0.3075  0.0334 -0.5697
 2033ntf    fn415373   5.876   3.381   0.156  0.0798  0.0304  0.6590
 2033ntf    fn415374   5.780   3.519   0.276  0.3378  0.3625  0.7388
 2033ntf    fn415375   5.829   3.341   0.363 -0.3875 -0.5267 -0.1885
 2034ntf    cn115376   0.311   4.256   2.535 -0.2016 -0.0283  0.2135
 2034ntf    sn215377   0.456   4.355   2.581 -0.0309 -0.3000  0.2597
 2034ntf    nn315378   0.422   4.500   2.533  0.3470 -0.3428 -0.1480
 2034ntf    sn215379   0.358   4.623   2.607  0.3190 -0.4971  0.0852
 2034ntf    cn115380   0.497   4.740   2.616 -0.2350  0.1915 -0.2168
 2034ntf    fn415381   0.196   4.312   2.569  0.3871  0.9863  0.5904
 2034ntf    fn415382   0.306   4.233   2.405  0.1972 -0.0503  0.2007
 2034ntf    fn415383   0.321   4.136   2.590  0.7277 -0.4717 -0.8837
 2034ntf    on515384   0.476   4.333   2.722  0.1784 -0.2944  0.2313
 2034ntf    on515385   0.551   4.299   2.488  0.2267  0.2987  0.1555
 2034ntf    on515386   0.318   4.602   2.744  0.1833  0.3972  0.1930
 2034ntf    on515387   0.270   4.695   2.518  0.5363 -0.7296 -0.3209
 2034ntf    fn415388   0.487   4.846   2.537 -0.8228  0.2683 -0.0499
 2034ntf    fn415389   0.508   4.787   2.739 -0.3073 -0.3141 -0.0145
 2034ntf    fn415390   0.610   4.678   2.587 -0.4184 -0.4471  0.4114
 2035ntf    cn115391   3.361   4.011   0.558 -0.2588  0.1378 -0.0765
 2035ntf    sn215392   3.375   3.903   0.413 -0.3465  0.1466 -0.0915
 2035ntf    nn315393   3.470   3.987   0.320 -0.0963  0.4533  0.4393
 2035ntf    sn215394   3.441   4.065   0.187 -0.0562 -0.1385  0.0834
 2035ntf    cn115395   3.381   3.936   0.074  0.4672 -0.1392 -0.1984
 2035ntf    fn415396   3.441   3.977   0.659 -0.0178 -0.3783 -0.4357
 2035ntf    fn415397   3.388   4.137   0.530  0.4285 -0.1992 -0.9798
 2035ntf    fn415398   3.238   4.005   0.607 -0.2361  0.8157  0.0651
 2035ntf    on515399   3.445   3.792   0.473 -0.7149  0.4849  0.9695
 2035ntf    on515400   3.239   3.876   0.376 -0.5025  0.3997  0.2932
 2035ntf    on515401   3.565   4.113   0.131 -0.3514  0.2720 -0.2228
 2035ntf    on515402   3.330   4.154   0.206  0.2237  0.2800 -0.2253
 2035ntf    fn415403   3.358   3.980  -0.049  0.2231  0.4639  0.0620
 2035ntf    fn415404   3.463   3.832   0.073 -0.1526 -0.6351 -0.1471
 2035ntf    fn415405   3.267   3.889   0.121  0.1675  0.0148 -0.7615
 2036ntf    cn115406   5.068   1.889   5.452  0.0242  0.1751  0.2832
 2036ntf    sn215407   5.142   1.835   5.295 -0.1734 -0.1488  0.3005
 2036ntf    nn315408   5.063   1.701   5.276 -0.1221 -0.0474 -0.6746
 2036ntf    sn215409   5.113   1.581   5.189 -0.1006 -0.4611 -0.0963
 2036ntf    cn115410   5.041   1.444   5.284  0.1972 -0.6106 -0.0838
 2036ntf    fn415411   5.150   1.973   5.513 -0.0157  0.0810  0.4633
 2036ntf    fn415412   4.953   1.951   5.428 -0.0963 -0.1802 -0.0733
 2036ntf    fn415413   5.050   1.786   5.532  0.0615  0.2223  0.3518
 2036ntf    on515414   5.111   1.939   5.200  0.0861 -0.1219  0.2426
 2036ntf    on515415   5.278   1.824   5.343 -0.0515  0.0971  0.0166
 2036ntf    on515416   5.254   1.550   5.188 -0.1127 -0.5321  0.2856
 2036ntf    on515417   5.041   1.577   5.064  0.3803  0.2099 -0.3996
 2036ntf    fn415418   5.078   1.323   5.246  0.1468 -0.5100 -0.4603
 2036ntf    fn415419   5.071   1.456   5.412 -0.7041  0.3764  0.0521
 2036ntf    fn415420   4.909   1.451   5.274  0.2738  0.5029 -0.3880
 2037ntf    cn115421   1.160   0.958   1.147 -0.1802 -0.2897 -0.1640
 2037ntf    sn215422   1.113   1.133   1.148  0.1808 -0.1928 -0.1199
 2037ntf    nn315423   0.998   1.130   1.254 -0.1442  0.3594 -0.4500
 2037ntf    sn215424   0.845   1.092   1.249 -0.0777  0.0014  0.0871
 2037ntf    cn115425   0.791   1.252   1.316 -0.0522 -0.0560  0.2449
 2037ntf    fn415426   1.279   0.943   1.091 -0.1501 -0.1179 -0.1448
 2037ntf    fn415427   1.165   0.913   1.272 -0.0900  0.3872  0.0791
 2037ntf    fn415428   1.072   0.883   1.083 -0.1044 -0.0787 -0.5129
 2037ntf    on515429   1.228   1.204   1.198 -0.7303  0.5778  0.9391
 2037ntf    on515430   1.070   1.159   1.013  0.6331 -0.9786 -0.4235
 2037ntf    on515431   0.803   1.000   1.351  0.0279 -0.1124  0.0294
 2037ntf    on515432   0.785   1.090   1.118  0.4882  0.0036 -0.1788
 2037ntf    fn415433   0.662   1.269   1.290  0.0173  0.1693  0.0463
 2037ntf    fn415434   0.804   1.262   1.447  0.4455 -0.0605  0.1974
 2037ntf    fn415435   0.863   1.350   1.265 -0.3803 -0.1425 -0.4028
 2038ntf    cn115436   5.774   3.558   2.982 -0.0297  0.3685  0.2908
 2038ntf    sn215437   5.949   3.596   2.950  0.0548 -0.2161  0.0476
 2038ntf    nn315438   5.939   3.572   2.795  0.1086  0.2088 -0.0221
 2038ntf    sn215439   5.981   3.444   2.714  0.0284  0.0369  0.2064
 2038ntf    cn115440   6.162   3.451   2.727  0.0504 -0.1839  0.0243
 2038ntf    fn415441   5.691   3.635   2.915 -0.2169  0.0463  0.1479
 2038ntf    fn415442   5.735   3.438   2.941 -0.2599  0.5668 -0.0749
 2038ntf    fn415443   5.745   3.570   3.110 -0.0101  0.5599  0.2767
 2038ntf    on515444   5.961   3.735   2.985 -0.3139 -0.2487  0.3143
 2038ntf    on515445   6.016   3.495   3.030  0.0235  0.0269  0.3818
 2038ntf    on515446   5.956   3.457   2.573  0.2810 -0.0651  0.1512
 2038ntf    on515447   5.946   3.315   2.769  0.0569 -0.3434 -0.6472
 2038ntf    fn415448   6.221   3.554   2.669 -0.1027 -0.0142  0.1710
 2038ntf    fn415449   6.196   3.460   2.855 -0.3931  0.5192  0.0925
 2038ntf    fn415450   6.221   3.342   2.679  0.2243  0.1656 -0.5577
 2039ntf    cn115451   2.985   3.986   2.648  0.3752  0.4457  0.5099
 2039ntf    sn215452   3.159   3.986   2.597  0.2630 -0.1420  0.1161
 2039ntf    nn315453   3.228   3.927   2.725 -0.2123  0.0219  0.4495
 2039ntf    sn215454   3.306   3.791   2.739 -0.0935  0.0223 -0.1771
 2039ntf    cn115455   3.468   3.864   2.699  0.1458 -0.1461  0.4786
 2039ntf    fn415456   2.962   4.068   2.749  0.0617  0.5309  0.3726
 2039ntf    fn415457   2.908   4.034   2.551  0.1624 -0.2972  0.3021
 2039ntf    fn415458   2.936   3.868   2.682 -0.1498  0.3475 -0.5441
 2039ntf    on515459   3.150   3.904   2.479 -0.0679 -0.0901  0.1043
 2039ntf    on515460   3.187   4.127   2.582  0.5378 -0.2958 -0.8943
 2039ntf    on515461   3.285   3.692   2.637  0.1216  0.7232 -0.9167
 2039ntf    on515462   3.316   3.745   2.875 -0.3793  0.1286 -0.1187
 2039ntf    fn415463   3.468   3.948   2.597  0.4620 -0.0845  0.5278
 2039ntf    fn415464   3.519   3.933   2.800 -1.0056  0.4195  0.6982
 2039ntf    fn415465   3.556   3.773   2.663  0.1974  0.3319 -0.6220
 2040ntf    cn115466   2.563   0.607   3.793 -0.5273  0.3745  0.1089
 2040ntf    sn215467   2.430   0.484   3.812 -0.4001  0.2555  0.2317
 2040ntf    nn315468   2.316   0.591   3.829 -0.2657  0.4785 -0.2341
 2040ntf    sn215469   2.219   0.589   3.952  0.2430 -0.0761  0.1665
 2040ntf    cn115470   2.264   0.734   4.053 -0.7081  0.3934 -0.0734
 2040ntf    fn415471   2.670   0.565   3.727 -0.2481  0.1904  0.6756
 2040ntf    fn415472   2.524   0.711   3.721 -0.4718 -0.1687 -0.7159
 2040ntf    fn415473   2.621   0.640   3.907  0.1556 -0.3146 -0.0370
 2040ntf    on515474   2.422   0.425   3.680 -0.6562 -0.3930  0.5335
 2040ntf    on515475   2.472   0.398   3.920  0.2828  0.1558 -0.1059
 2040ntf    on515476   2.242   0.490   4.054  0.1539  0.0720  0.3318
 2040ntf    on515477   2.086   0.618   3.906  0.3582 -0.3448 -0.3396
 2040ntf    fn415478   2.393   0.750   4.075 -0.5272 -1.0124  0.0208
 2040ntf    fn415479   2.227   0.847   3.995  1.0018  0.7942 -0.4221
 2040ntf    fn415480   2.202   0.735   4.171 -0.3543  0.2167  0.1155
 2041ntf    cn115481   4.948   3.907   0.706  0.4857  0.1529  0.1744
 2041ntf    sn215482   4.782   3.918   0.778  0.2839  0.0307 -0.2691
 2041ntf    nn315483   4.687   3.950   0.657 -0.1359  0.5361  0.1875
 2041ntf    sn215484   4.668   4.085   0.578 -0.2535  0.4857  0.1289
 2041ntf    cn115485   4.498   4.048   0.525 -0.2432 -0.0186  0.4320
 2041ntf    fn415486   5.007   4.024   0.724 -0.5357  0.7334 -0.2188
 2041ntf    fn415487   5.034   3.822   0.760  0.0631 -0.1754  0.3317
 2041ntf    fn415488   4.946   3.886   0.575  0.3745 -0.3211  0.2519
 2041ntf    on515489   4.771   3.780   0.818 -0.4908  0.1740  0.0394
 2041ntf    on515490   4.788   4.019   0.881  0.7199 -0.1915 -0.0771
 2041ntf    on515491   4.739   4.098   0.454 -0.0532  0.0738  0.1951
 2041ntf    on515492   4.654   4.201   0.663 -0.0416  0.0512  0.7709
 2041ntf    fn415493   4.488   3.999   0.402  0.2780 -0.1855  0.4519
 2041ntf    fn415494   4.444   3.955   0.602  0.5554 -0.6205  0.2825
 2041ntf    fn415495   4.423   4.156   0.535  0.1222  0.3044 -0.2225
 2042ntf    cn115496   4.310   6.152   1.848 -0.1853  0.2952 -0.0228
 2042ntf    sn215497   4.382   6.292   1.938 -0.0419  0.2468 -0.0621
 2042ntf    nn315498   4.265   6.396   1.928 -0.5603 -0.3735 -0.4875
 2042ntf    sn215499   4.265   6.532   1.850 -0.0091  0.0617  0.2544
 2042ntf    cn115500   4.131   6.605   1.950  0.0699  0.4529  0.0786
 2042ntf    fn415501   4.209   6.108   1.923  0.3030 -0.1440  0.3850
 2042ntf    fn415502   4.257   6.192   1.734  0.5173  0.4016 -0.3125
 2042ntf    fn415503   4.392   6.051   1.825 -0.3580  0.0532  0.4096
 2042ntf    on515504   4.420   6.251   2.071  0.1520 -0.2791 -0.2789
 2042ntf    on515505   4.493   6.322   1.851  0.0231  0.6164  0.1464
 2042ntf    on515506   4.217   6.529   1.714  0.7226  0.1452 -0.0100
 2042ntf    on515507   4.378   6.617   1.877  0.2975 -0.3450  0.2574
 2042ntf    fn415508   4.125   6.735   1.928 -0.0168  0.4801  0.2671
 2042ntf    fn415509   4.017   6.542   1.927  0.0748  0.4558  0.0443
 2042ntf    fn415510   4.143   6.597   2.081 -0.1075  0.2766  0.0863
 2043ntf    cn115511   5.582   6.399   6.835 -0.0029 -0.2275  0.0165
 2043ntf    sn215512   5.580   6.487   6.994 -0.0260  0.0383 -0.1317
 2043ntf    nn315513   5.569   6.365   7.092 -0.1129 -0.2455 -0.4914
 2043ntf    sn215514   5.679   6.263   7.138  0.0637  0.1462 -0.0361
 2043ntf    cn115515   5.736   6.330   7.298  0.0295 -0.3658  0.1925
 2043ntf    fn415516   5.465   6.347   6.802 -0.0371 -0.2297  0.1437
 2043ntf    fn415517   5.608   6.478   6.732  0.2717 -0.5071 -0.1315
 2043ntf    fn415518   5.675   6.305   6.829 -0.1723 -0.3914 -0.0557
 2043ntf    on515519   5.698   6.571   6.995  0.1531 -0.2145 -0.1431
 2043ntf    on515520   5.461   6.569   6.994  0.5665  0.9224  0.2057
 2043ntf    on515521   5.798   6.259   7.057 -0.0425 -1.0885 -0.1422
 2043ntf    on515522   5.611   6.139   7.165 -0.1509  0.1649 -0.4917
 2043ntf    fn415523   5.825   6.250   7.354  0.5425  0.1768  0.1619
 2043ntf    fn415524   5.799   6.444   7.275 -0.0045 -0.4682 -0.4394
 2043ntf    fn415525   5.638   6.348   7.385 -0.4011 -0.2367 -0.3116
 2044ntf    cn115526   5.555   3.014   3.418  0.0738  0.0399 -0.1902
 2044ntf    sn215527   5.638   2.854   3.440 -0.1580 -0.0632 -0.0644
 2044ntf    nn315528   5.610   2.829   3.593 -0.1536 -0.4276 -0.1235
 2044ntf    sn215529   5.695   2.874   3.716 -0.2786  0.1495 -0.2474
 2044ntf    cn115530   5.567   2.888   3.845  0.1671 -0.5462  0.2753
 2044ntf    fn415531   5.581   3.118   3.497  0.4193 -0.1818 -0.0095
 2044ntf    fn415532   5.590   3.057   3.297  0.4979  0.3030  0.0212
 2044ntf    fn415533   5.424   3.001   3.425  0.1595 -0.4459  0.4778
 2044ntf    on515534   5.571   2.777   3.339 -0.0186 -0.4944  0.1715
 2044ntf    on515535   5.774   2.884   3.400 -0.0822 -0.1590  0.1179
 2044ntf    on515536   5.741   3.011   3.705  0.4317 -0.0227  0.4832
 2044ntf    on515537   5.792   2.785   3.774 -0.4197  0.6021  0.7059
 2044ntf    fn415538   5.459   2.947   3.796  0.4464 -0.4460 -0.2257
 2044ntf    fn415539   5.542   2.762   3.878 -0.3194 -0.4239  0.3809
 2044ntf    fn415540   5.609   2.953   3.952  0.5732 -0.0648 -0.1745
 2045ntf    cn115541   3.355   5.768   2.676  0.0869  0.2298  0.1352
 2045ntf    sn215542   3.277   5.604   2.682  0.0568  0.2229 -0.3985
 2045ntf    nn315543   3.210   5.598   2.824  0.4329  0.1062 -0.2265
 2045ntf    sn215544   3.243   5.510   2.950 -0.3562  0.0825 -0.0348
 2045ntf    cn115545   3.370   5.617   3.023  0.3439 -0.3893 -0.5591
 2045ntf    fn415546   3.388   5.810   2.555 -0.0828 -0.2503 -0.0795
 2045ntf    fn415547   3.269   5.861   2.717 -0.0092  0.1710  0.0661
 2045ntf    fn415548   3.456   5.782   2.760  0.4773 -0.3273 -0.2431
 2045ntf    on515549   3.173   5.614   2.582 -0.3091  0.1710 -0.0274
 2045ntf    on515550   3.389   5.517   2.659  0.3869  0.3175  0.8194
 2045ntf    on515551   3.312   5.387   2.921  0.6327  0.6241 -0.0014
 2045ntf    on515552   3.139   5.510   3.051 -0.3379  0.2311 -0.0157
 2045ntf    fn415553   3.468   5.639   2.936  0.4329  0.4836 -0.2444
 2045ntf    fn415554   3.316   5.731   3.062  0.1485 -0.4891 -0.5391
 2045ntf    fn415555   3.418   5.573   3.138 -0.1670  0.1990 -0.1182
 2046ntf    cn115556   0.992   2.815   3.241  0.0845  0.2873  0.5031
 2046ntf    sn215557   0.972   2.639   3.203  0.0348  0.3993  0.0023
 2046ntf    nn315558   0.840   2.641   3.117 -0.0395 -0.1828  0.0966
 2046ntf    sn215559   0.724   2.535   3.116 -0.1779 -0.0291 -0.4247
 2046ntf    cn115560   0.631   2.604   2.976 -0.1574  0.1000 -0.3748
 2046ntf    fn415561   0.878   2.882   3.225  0.0814  0.2223  0.2492
 2046ntf    fn415562   1.037   2.826   3.364 -0.3744 -0.3044  0.7303
 2046ntf    fn415563   1.084   2.870   3.164 -0.7666  0.3024 -0.5436
 2046ntf    on515564   1.088   2.601   3.127 -0.1944  1.2144 -0.7774
 2046ntf    on515565   0.966   2.582   3.335 -0.2376 -0.6357 -0.4444
 2046ntf    on515566   0.639   2.532   3.233  0.2219  0.4477 -0.1169
 2046ntf    on515567   0.762   2.405   3.069 -0.1230 -0.0524 -0.3153
 2046ntf    fn415568   0.557   2.512   2.917 -0.2239  0.1942 -0.4400
 2046ntf    fn415569   0.560   2.709   3.015  0.2749  0.1450  0.2977
 2046ntf    fn415570   0.703   2.651   2.875  0.2336 -0.3048 -0.2871
 2047ntf    cn115571   1.466   6.383   5.687  0.3335  0.2276 -0.1680
 2047ntf    sn215572   1.385   6.542   5.725  0.1503  0.0861  0.0354
 2047ntf    nn315573   1.442   6.619   5.600 -0.6380  0.3272 -0.1781
 2047ntf    sn215574   1.356   6.675   5.482 -0.3941  0.3744 -0.3345
 2047ntf    cn115575   1.267   6.814   5.559  0.1179  0.4900  0.0536
 2047ntf    fn415576   1.437   6.292   5.778  0.3158  0.3930 -0.0067
 2047ntf    fn415577   1.430   6.336   5.569 -0.3744 -0.2459  0.2335
 2047ntf    fn415578   1.597   6.399   5.693  0.3354  0.0956  0.1872
 2047ntf    on515579   1.246   6.504   5.734  0.0627  0.1531 -0.9066
 2047ntf    on515580   1.448   6.578   5.849 -0.2583  0.6740  0.0768
 2047ntf    on515581   1.263   6.580   5.426 -0.0507  0.0350 -0.3355
 2047ntf    on515582   1.445   6.739   5.388  0.3301 -0.3136 -0.1280
 2047ntf    fn415583   1.345   6.902   5.620 -0.0872  0.7562 -0.0639
 2047ntf    fn415584   1.200   6.880   5.465 -0.2728  0.4190  0.2808
 2047ntf    fn415585   1.172   6.776   5.643  0.3343  0.7943  0.4388
 2048ntf    cn115586   4.197   1.086   5.154  0.9433 -0.3758  0.0774
 2048ntf    sn215587   4.301   1.160   5.025  0.4448  0.1192 -0.0419
 2048ntf    nn315588   4.290   1.307   5.082 -0.3337  0.0666 -0.0509
 2048ntf    sn215589   4.266   1.440   5.002 -0.0701  0.1509  0.0083
 2048ntf    cn115590   4.409   1.431   4.890  0.0047  0.0629  0.1104
 2048ntf    fn415591   4.233   1.125   5.275  0.6335  0.2868 -0.0397
 2048ntf    fn415592   4.073   1.129   5.139  1.2579  0.3882 -0.3772
 2048ntf    fn415593   4.201   0.953   5.155  1.1685 -0.3706  0.7187
 2048ntf    on515594   4.427   1.093   5.044  0.1062 -0.5359 -0.0938
 2048ntf    on515595   4.218   1.146   4.909  0.5987  0.8454 -0.2459
 2048ntf    on515596   4.291   1.554   5.086 -0.5156 -0.0324  0.3975
 2048ntf    on515597   4.153   1.447   4.913 -0.2444  0.1133  0.2258
 2048ntf    fn415598   4.511   1.383   4.959 -0.0721  0.1035  0.2539
 2048ntf    fn415599   4.383   1.343   4.795 -0.4011  0.3093 -0.0097
 2048ntf    fn415600   4.434   1.546   4.831  0.3096 -0.2250 -0.3250
 2049ntf    cn115601   3.463   1.266   6.095  0.3226  0.2987  0.0931
 2049ntf    sn215602   3.382   1.392   6.198 -0.4924  0.1555 -0.3620
 2049ntf    nn315603   3.473   1.392   6.326 -0.5137 -0.3748 -0.3460
 2049ntf    sn215604   3.431   1.420   6.474  0.4064  0.0919 -0.1653
 2049ntf    cn115605   3.409   1.251   6.538 -0.1755  0.2641  0.1038
 2049ntf    fn415606   3.465   1.152   6.163 -0.3497  0.4679  0.4098
 2049ntf    fn415607   3.386   1.248   5.988 -0.0142  0.2435  0.3407
 2049ntf    fn415608   3.580   1.302   6.045  0.4681 -0.0736  0.1632
 2049ntf    on515609   3.398   1.508   6.114  0.0767  0.1371 -0.2842
 2049ntf    on515610   3.248   1.343   6.215 -0.3086 -0.0747  0.4744
 2049ntf    on515611   3.307   1.485   6.508  0.5875  0.0571  0.5879
 2049ntf    on515612   3.552   1.456   6.544  0.5752 -0.5465 -0.1190
 2049ntf    fn415613   3.414   1.254   6.670 -0.2578 -0.3357  0.1251
 2049ntf    fn415614   3.300   1.185   6.503 -0.2564  0.2449  0.3902
 2049ntf    fn415615   3.506   1.169   6.500 -0.9374 -0.6303  0.0639
 2050ntf    cn115616   5.868   4.464   2.783 -0.2467 -0.2181 -0.0183
 2050ntf    sn215617   5.756   4.336   2.847 -0.4456 -0.0645 -0.0600
 2050ntf    nn315618   5.725   4.385   2.993  0.0658  0.2789 -0.0651
 2050ntf    sn215619   5.820   4.349   3.113 -0.0666 -0.0161 -0.0477
 2050ntf    cn115620   5.729   4.220   3.203  0.1417  0.2668  0.5717
 2050ntf    fn415621   5.995   4.443   2.812 -0.1154  0.4975 -0.0561
 2050ntf    fn415622   5.861   4.474   2.651  0.3900 -0.3111 -0.0611
 2050ntf    fn415623   5.828   4.582   2.829 -0.4379 -0.4229  0.3467
 2050ntf    on515624   5.634   4.358   2.773 -0.6455 -0.0817  0.2661
 2050ntf    on515625   5.805   4.201   2.837 -0.9533 -0.1958 -0.8815
 2050ntf    on515626   5.824   4.470   3.191  0.0845  0.2737 -0.4980
 2050ntf    on515627   5.947   4.289   3.079 -0.2192 -0.0730 -0.5260
 2050ntf    fn415628   5.796   4.219   3.317  0.2202  0.1369  0.5248
 2050ntf    fn415629   5.608   4.263   3.236 -0.1417 -0.5603  0.6434
 2050ntf    fn415630   5.724   4.100   3.148  0.3087  0.4297  0.1912
 2051ntf    cn115631   6.681   5.812   3.402  0.1196 -0.8453 -0.0138
 2051ntf    sn215632   6.601   5.724   3.540 -0.2804 -0.2824  0.1147
 2051ntf    nn315633   6.718   5.624   3.573  0.1061  0.2583  0.4076
 2051ntf    sn215634   6.745   5.480   3.517 -0.1316  0.2832  0.2214
 2051ntf    cn115635   6.722   5.393   3.676  0.1230  0.0849  0.1510
 2051ntf    fn415636   6.589   5.884   3.341  0.2436 -0.5585  0.1389
 2051ntf    fn415637   6.774   5.893   3.450 -0.5361 -0.1868  0.1540
 2051ntf    fn415638   6.739   5.725   3.319  0.6149 -0.1997 -0.3547
 2051ntf    on515639   6.606   5.819   3.648  0.1165 -0.3465  0.1570
 2051ntf    on515640   6.471   5.675   3.500  0.0572 -0.4533 -0.8141
 2051ntf    on515641   6.882   5.450   3.485 -0.5708 -0.6812 -0.8337
 2051ntf    on515642   6.649   5.430   3.422  0.5565 -0.5619 -0.0465
 2051ntf    fn415643   6.763   5.268   3.663 -0.2037  0.0803 -0.9490
 2051ntf    fn415644   6.787   5.441   3.780  0.0171  0.1961  0.1654
 2051ntf    fn415645   6.594   5.394   3.711 -0.0435  0.5172 -0.4461
 2052ntf    cn115646   1.923   5.880   4.408  0.1242 -0.5717 -0.4817
 2052ntf    sn215647   1.759   5.826   4.353 -0.1498 -0.0880 -0.1492
 2052ntf    nn315648   1.743   5.908   4.220 -0.2619 -0.0104 -0.0883
 2052ntf    sn215649   1.644   6.019   4.170 -0.0681  0.1896 -0.0288
 2052ntf    cn115650   1.713   6.162   4.259  0.0450 -0.1544  0.4382
 2052ntf    fn415651   1.973   5.789   4.490  0.1993  0.1771  0.3186
 2052ntf    fn415652   2.011   5.895   4.310  0.0096  0.1460 -0.4847
 2052ntf    fn415653   1.922   5.997   4.471  0.2116 -0.6184 -0.3920
 2052ntf    on515654   1.775   5.684   4.331  0.7202 -0.0881  0.4573
 2052ntf    on515655   1.686   5.864   4.472  0.7447 -0.0230  0.3858
 2052ntf    on515656   1.507   6.008   4.214 -0.1701  0.5093 -0.2581
 2052ntf    on515657   1.662   6.056   4.032 -0.7258  0.0287 -0.1630
 2052ntf    fn415658   1.637   6.270   4.261 -0.1187 -0.2571 -0.1640
 2052ntf    fn415659   1.732   6.138   4.388 -0.3646  0.2113  0.5677
 2052ntf    fn415660   1.832   6.197   4.213 -0.1657 -0.2172 -0.1614
 2053ntf    cn115661   2.665   1.660   3.188 -0.0862  0.1310  0.1323
 2053ntf    sn215662   2.699   1.819   3.106  0.2163  0.0082  0.0190
 2053ntf    nn315663   2.813   1.796   3.001 -0.4344 -0.2576 -0.6425
 2053ntf    sn215664   2.853   1.883   2.876  0.1837  0.1185 -0.1889
 2053ntf    cn115665   2.843   1.752   2.751 -0.2076 -0.2614  0.2326
 2053ntf    fn415666   2.631   1.565   3.103 -0.4574  0.0280  0.3934
 2053ntf    fn415667   2.775   1.606   3.239  0.1495 -0.0920 -0.6065
 2053ntf    fn415668   2.572   1.658   3.282  0.0140 -0.2266  0.2253
 2053ntf    on515669   2.575   1.852   3.040 -0.1506 -0.5087  0.4409
 2053ntf    on515670   2.752   1.898   3.213 -0.1849 -0.1234  0.3186
 2053ntf    on515671   2.995   1.905   2.872  0.0843  0.9815  0.6515
 2053ntf    on515672   2.761   1.985   2.831 -0.2493  0.1538  0.7399
 2053ntf    fn415673   2.719   1.709   2.738 -0.3224 -0.1342  0.8842
 2053ntf    fn415674   2.893   1.788   2.633 -0.3807 -0.1058  0.2054
 2053ntf    fn415675   2.915   1.645   2.779  0.1526 -0.1498 -0.2501
 2054ntf    cn115676   1.454   5.093   5.194 -0.1874  0.2656 -0.3584
 2054ntf    sn215677   1.603   5.034   5.107  0.0096  0.0934  0.0922
 2054ntf    nn315678   1.635   5.165   5.027 -0.0578  0.0472 -0.0097
 2054ntf    sn215679   1.727   5.279   5.083 -0.1751 -0.0046  0.2934
 2054ntf    cn115680   1.886   5.211   5.026 -0.2007  0.3207 -0.1753
 2054ntf    fn415681   1.477   5.180   5.291  0.3253  0.1231 -0.3447
 2054ntf    fn415682   1.366   5.156   5.118  0.1487  0.2858 -0.7366
 2054ntf    fn415683   1.392   4.996   5.260  0.4558  0.0433 -0.0649
 2054ntf    on515684   1.684   5.011   5.224  0.2710  0.0330 -0.0994
 2054ntf    on515685   1.553   4.929   5.022 -0.0596  0.0848  0.1418
 2054ntf    on515686   1.743   5.296   5.225 -0.0309  0.5011  0.2197
 2054ntf    on515687   1.714   5.396   4.999 -0.0239 -0.5973 -0.5663
 2054ntf    fn415688   1.910   5.226   4.896  0.0399  0.2839 -0.1359
 2054ntf    fn415689   1.974   5.271   5.104 -0.1105 -0.0121 -0.0203
 2054ntf    fn415690   1.893   5.083   5.059  0.1641  0.3920  0.0203
 2055ntf    cn115691   6.737   0.314   6.182 -0.2244  0.0901  0.6180
 2055ntf    sn215692   6.701   0.492   6.172 -0.0454  0.0898 -0.1065
 2055ntf    nn315693   6.616   0.506   6.303 -0.6353 -0.3237 -0.4389
 2055ntf    sn215694   6.600   0.635   6.392  0.3432 -0.4856 -0.0211
 2055ntf    cn115695   6.561   0.764   6.270  0.1966  0.0215  0.5628
 2055ntf    fn415696   6.628   0.240   6.169 -0.0811 -0.0768  0.3489
 2055ntf    fn415697   6.812   0.270   6.082 -0.3040  0.7370  0.2695
 2055ntf    fn415698   6.784   0.284   6.302  0.1141 -0.3197  0.3858
 2055ntf    on515699   6.833   0.550   6.176  0.2502 -0.5381 -0.5736
 2055ntf    on515700   6.620   0.499   6.053 -0.4076 -0.6722  0.0853
 2055ntf    on515701   6.721   0.680   6.456  0.1763  0.0056 -0.0519
 2055ntf    on515702   6.484   0.638   6.476  0.1029 -0.5014 -0.3496
 2055ntf    fn415703   6.593   0.886   6.309 -0.4603  0.5872 -0.6139
 2055ntf    fn415704   6.639   0.755   6.164  0.2790  0.2274  0.6051
 2055ntf    fn415705   6.437   0.772   6.225  0.3893  0.1799  0.0584
 2056ntf    cn115706   4.504   6.719   2.808  0.1901  0.1309  0.5351
 2056ntf    sn215707   4.407   6.608   2.701  0.3541  0.2289  0.2841
 2056ntf    nn315708   4.261   6.656   2.734  0.0144 -0.2794 -0.4490
 2056ntf    sn215709   4.134   6.565   2.743  0.0606 -0.2889  0.1896
 2056ntf    cn115710   4.117   6.554   2.924  0.0592  0.0543  0.2105
 2056ntf    fn415711   4.523   6.838   2.755 -0.3093 -0.0542 -0.0730
 2056ntf    fn415712   4.444   6.740   2.924 -0.1508 -0.0056  0.3844
 2056ntf    fn415713   4.624   6.667   2.830  0.3249  0.0749 -0.3041
 2056ntf    on515714   4.429   6.645   2.563 -0.2908  0.9488  0.3624
 2056ntf    on515715   4.437   6.474   2.744 -0.0917 -0.2444 -0.8368
 2056ntf    on515716   4.141   6.426   2.706  0.1073 -0.1631 -0.2852
 2056ntf    on515717   4.024   6.644   2.693 -0.1290 -0.6021  0.1010
 2056ntf    fn415718   4.226   6.506   2.979  0.1947 -0.2772 -0.3360
 2056ntf    fn415719   4.093   6.674   2.974  0.6569  0.0002  0.6258
 2056ntf    fn415720   4.015   6.475   2.955 -0.3088  0.5713  0.3317
 2057ntf    cn115721   6.465   4.564   6.244  0.0398  0.0496  0.1368
 2057ntf    sn215722   6.504   4.435   6.123 -0.2520 -0.0103  0.1055
 2057ntf    nn315723   6.618   4.494   6.033  0.0443 -0.0530  0.4517
 2057ntf    sn215724   6.769   4.453   6.015  0.0051 -0.0241  0.0407
 2057ntf    cn115725   6.821   4.595   5.915 -0.3776  0.0245 -0.0913
 2057ntf    fn415726   6.573   4.588   6.317  0.1018  0.2582 -0.0230
 2057ntf    fn415727   6.430   4.683   6.196 -0.0081 -0.0962 -0.1913
 2057ntf    fn415728   6.370   4.528   6.329 -0.4556 -0.4367 -0.6234
 2057ntf    on515729   6.540   4.327   6.212  0.0432 -0.3475 -0.4157
 2057ntf    on515730   6.386   4.415   6.043 -0.3982  0.4243  0.2081
 2057ntf    on515731   6.805   4.340   5.932 -0.1104 -0.0425  0.0147
 2057ntf    on515732   6.856   4.468   6.128 -0.3570  0.8290  0.2144
 2057ntf    fn415733   6.808   4.712   5.975 -0.3235  0.1559 -0.3347
 2057ntf    fn415734   6.948   4.588   5.878 -0.2660 -0.0908  0.3165
 2057ntf    fn415735   6.765   4.605   5.795  0.1762 -0.3637 -0.3862
 2058ntf    cn115736   3.470   1.614   4.270 -0.0991 -0.1745 -0.1865
 2058ntf    sn215737   3.609   1.539   4.360  0.2174  0.3049 -0.2711
 2058ntf    nn315738   3.613   1.644   4.477  0.7144 -0.1211  0.1011
 2058ntf    sn215739   3.701   1.775   4.479  0.4335  0.0706 -0.0752
 2058ntf    cn115740   3.598   1.874   4.592  0.5000 -0.2035  0.2256
 2058ntf    fn415741   3.360   1.610   4.344 -0.1613  0.4937 -0.2368
 2058ntf    fn415742   3.491   1.738   4.229 -0.6835 -0.0463 -0.1147
 2058ntf    fn415743   3.432   1.557   4.157 -0.3817  0.0193 -0.1910
 2058ntf    on515744   3.558   1.409   4.397  0.7477  0.1643 -0.0277
 2058ntf    on515745   3.712   1.542   4.260  0.5921 -0.2091  0.0949
 2058ntf    on515746   3.702   1.853   4.358 -0.4796 -0.0375 -0.1653
 2058ntf    on515747   3.830   1.749   4.536  0.2962 -0.3126  0.0659
 2058ntf    fn415748   3.579   1.825   4.714  0.9870  0.3530  0.5335
 2058ntf    fn415749   3.645   1.997   4.607 -0.0780  0.0420  0.0126
 2058ntf    fn415750   3.475   1.898   4.551  0.4431 -0.5392  0.1967
 2059ntf    cn115751   0.813   4.945   2.391  0.0075 -0.2950 -0.0401
 2059ntf    sn215752   0.790   5.126   2.389  0.2057 -0.2709 -0.4213
 2059ntf    nn315753   0.936   5.172   2.355  0.4491 -0.0143  0.8933
 2059ntf    sn215754   0.987   5.318   2.331  0.2055 -0.1139 -0.3134
 2059ntf    cn115755   1.078   5.347   2.486 -0.0060 -0.2374 -0.1646
 2059ntf    fn415756   0.848   4.904   2.270  0.2951  0.4766 -0.2259
 2059ntf    fn415757   0.913   4.902   2.465 -0.4881  0.0598  0.8470
 2059ntf    fn415758   0.712   4.872   2.435  0.2039 -0.6039 -0.0978
 2059ntf    on515759   0.696   5.143   2.282 -0.5983 -0.2123  0.2798
 2059ntf    on515760   0.740   5.157   2.521 -0.1224 -0.7715 -0.4219
 2059ntf    on515761   0.888   5.423   2.327  0.8543  0.5441  0.4832
 2059ntf    on515762   1.093   5.323   2.233  0.1899 -0.3968 -0.3431
 2059ntf    fn415763   1.146   5.460   2.498  0.5416 -0.5666 -0.1249
 2059ntf    fn415764   1.000   5.347   2.592  0.4542 -0.3456  0.1753
 2059ntf    fn415765   1.170   5.258   2.519  0.3864  0.1735 -0.1329
 2060ntf    cn115766   5.782   0.351   1.029  0.2296 -0.0695 -0.5789
 2060ntf    sn215767   5.762   0.515   0.954 -0.1408  0.2220  0.1400
 2060ntf    nn315768   5.607   0.528   0.932 -0.2301 -0.5041  0.2978
 2060ntf    sn215769   5.523   0.488   0.806  0.4222 -0.0770 -0.2849
 2060ntf    cn115770   5.537   0.641   0.708 -0.0479  0.0258 -0.1946
 2060ntf    fn415771   5.755   0.253   0.945  0.0570 -0.2933 -0.2664
 2060ntf    fn415772   5.906   0.342   1.073  0.2650 -0.2508 -0.7149
 2060ntf    fn415773   5.702   0.331   1.133  0.3612  0.2133 -0.4222
 2060ntf    on515774   5.818   0.598   1.057  0.8325 -0.0024 -0.1950
 2060ntf    on515775   5.843   0.495   0.836 -0.2446  0.1626  0.0792
 2060ntf    on515776   5.384   0.464   0.836  0.6312 -0.1694  0.6273
 2060ntf    on515777   5.576   0.380   0.727 -0.8001 -0.6385 -0.3611
 2060ntf    fn415778   5.450   0.734   0.743  0.3157  0.0960  0.5526
 2060ntf    fn415779   5.662   0.683   0.711  0.0310 -0.2073 -0.1517
 2060ntf    fn415780   5.518   0.624   0.579  0.0791  0.2793 -0.2461
 2061ntf    cn115781   2.766   1.660   2.305 -0.1865 -0.0689 -0.3693
 2061ntf    sn215782   2.631   1.552   2.248 -0.1360 -0.4173  0.1639
 2061ntf    nn315783   2.709   1.470   2.139  0.0745 -0.1441  0.1089
 2061ntf    sn215784   2.718   1.474   1.983 -0.0017  0.2075  0.1119
 2061ntf    cn115785   2.817   1.325   1.949  0.0026  0.1757  0.2660
 2061ntf    fn415786   2.787   1.754   2.214 -0.7736  0.5664  0.1402
 2061ntf    fn415787   2.739   1.717   2.421 -0.2596 -0.0890 -0.3759
 2061ntf    fn415788   2.875   1.587   2.320 -0.6018 -0.4943  0.6291
 2061ntf    on515789   2.599   1.478   2.367  0.1875 -0.0778  0.4630
 2061ntf    on515790   2.535   1.640   2.184  0.2028 -0.3989 -0.3255
 2061ntf    on515791   2.808   1.578   1.939 -0.0789  0.1731 -0.1335
 2061ntf    on515792   2.601   1.450   1.902  0.2420  0.0645 -0.2015
 2061ntf    fn415793   2.846   1.325   1.820  0.4557 -0.1501  0.3653
 2061ntf    fn415794   2.931   1.308   2.013  0.0636  0.0323  0.1195
 2061ntf    fn415795   2.754   1.211   1.971  0.3777 -0.1822 -0.4778
 2062ntf    cn115796   0.955   0.780   6.309 -0.3467 -0.0719  0.1339
 2062ntf    sn215797   0.891   0.895   6.183  0.3122 -0.0775 -0.2148
 2062ntf    nn315798   0.944   1.024   6.254 -0.1947 -0.2695  0.5318
 2062ntf    sn215799   1.081   1.101   6.238 -0.2282 -0.3104  0.0471
 2062ntf    cn115800   1.022   1.272   6.256  0.3785 -0.1191  0.2261
 2062ntf    fn415801   0.953   0.822   6.434  0.3081 -0.2367  0.2024
 2062ntf    fn415802   0.893   0.663   6.312 -0.2651 -0.1327 -0.3231
 2062ntf    fn415803   1.081   0.753   6.280 -0.5744 -0.5007 -0.4875
 2062ntf    on515804   0.960   0.863   6.061  0.5773  0.0949 -0.1116
 2062ntf    on515805   0.750   0.865   6.195  0.3126 -0.2789 -0.7055
 2062ntf    on515806   1.138   1.108   6.106 -0.6801 -0.6097 -0.1689
 2062ntf    on515807   1.167   1.086   6.353  0.3978 -0.6649 -0.4642
 2062ntf    fn415808   0.904   1.280   6.197  0.4769 -0.2419  0.0147
 2062ntf    fn415809   1.003   1.307   6.383 -0.1898 -0.2477  0.1800
 2062ntf    fn415810   1.095   1.373   6.213 -0.6612  0.4157 -0.3294
 2063ntf    cn115811   3.605   0.149   0.897  0.3634  0.3093 -0.0609
 2063ntf    sn215812   3.528   0.179   0.735 -0.0706  0.2917  0.1396
 2063ntf    nn315813   3.405   0.084   0.755  0.1069 -0.0339 -0.3027
 2063ntf    sn215814   3.250   0.112   0.759  0.0404 -0.4752  0.3092
 2063ntf    cn115815   3.211   0.111   0.937 -0.3791  0.4368  0.2275
 2063ntf    fn415816   3.729   0.191   0.912  0.5121 -0.0111 -0.3891
 2063ntf    fn415817   3.537   0.210   0.993 -0.0428 -0.2860  0.0379
 2063ntf    fn415818   3.617   0.023   0.936  0.1243  0.1369 -0.5385
 2063ntf    on515819   3.495   0.318   0.754 -0.1134  0.2252  0.5708
 2063ntf    on515820   3.621   0.134   0.634  0.4778 -0.2088  0.8594
 2063ntf    on515821   3.180  -0.002   0.706  0.7752 -0.7733 -0.0305
 2063ntf    on515822   3.204   0.237   0.704  0.2753 -0.3320  0.4330
 2063ntf    fn415823   3.273   0.210   0.999  0.0986  0.3954 -0.1717
 2063ntf    fn415824   3.081   0.116   0.959 -0.5609  0.2837 -0.7684
 2063ntf    fn415825   3.254   0.001   0.996 -0.0654  0.2865 -0.2696
 2064ntf    cn115826   5.885   5.167   6.233 -0.3368 -0.2068 -0.1458
 2064ntf    sn215827   6.015   5.279   6.293 -0.2474 -0.2879 -0.1874
 2064ntf    nn315828   6.144   5.226   6.220 -0.0107  0.1104 -0.0611
 2064ntf    sn215829   6.224   5.297   6.105  0.1923  0.1206  0.0861
 2064ntf    cn115830   6.321   5.429   6.184 -0.1925  0.1017  0.5979
 2064ntf    fn415831   5.882   5.171   6.101  0.3127 -0.7968 -0.1848
 2064ntf    fn415832   5.908   5.038   6.253 -0.3285 -0.1955 -0.0842
 2064ntf    fn415833   5.764   5.193   6.280 -0.1400 -0.4231  0.4936
 2064ntf    on515834   5.963   5.407   6.253 -0.3469 -0.1392  0.4080
 2064ntf    on515835   6.021   5.264   6.436 -0.5511  0.3177 -0.1104
 2064ntf    on515836   6.151   5.384   6.016  0.3627 -0.5681 -0.7283
 2064ntf    on515837   6.320   5.206   6.050  0.3207  0.0178  0.4724
 2064ntf    fn415838   6.251   5.482   6.283 -0.0328  0.8327  0.3288
 2064ntf    fn415839   6.438   5.390   6.231 -0.1288 -0.4080  0.0272
 2064ntf    fn415840   6.353   5.525   6.098 -0.2339 -0.5111 -0.1103
 2065ntf    cn115841   6.678   4.111   0.860  0.6894 -0.4867  0.0883
 2065ntf    sn215842   6.618   4.172   0.699  0.1119 -0.3845  0.3383
 2065ntf    nn315843   6.537   4.299   0.743 -0.2699 -0.1853 -0.9071
 2065ntf    sn215844   6.382   4.323   0.759 -0.1773 -0.1166 -0.0882
 2065ntf    cn115845   6.367   4.473   0.657  0.4526  0.0369  0.0391
 2065ntf    fn415846   6.763   4.011   0.849  0.4253 -0.7295  0.2357
 2065ntf    fn415847   6.742   4.205   0.926  0.1688  0.1814 -0.3439
 2065ntf    fn415848   6.576   4.070   0.935  0.6459 -1.1021 -0.2993
 2065ntf    on515849   6.733   4.213   0.621 -0.0026 -0.5179  0.1011
 2065ntf    on515850   6.548   4.059   0.646  0.5657 -0.2174 -0.6403
 2065ntf    on515851   6.341   4.363   0.891 -0.1483  0.3439 -0.2164
 2065ntf    on515852   6.306   4.224   0.688  0.5629 -0.4577 -0.4090
 2065ntf    fn415853   6.416   4.579   0.720 -0.4638  0.4869  0.0013
 2065ntf    fn415854   6.424   4.444   0.541  0.1006  0.3026 -0.2024
 2065ntf    fn415855   6.243   4.501   0.620  0.2526 -0.4854  0.3039
 2066ntf    cn115856   2.223   6.353   6.287  0.0497  0.4790  0.0601
 2066ntf    sn215857   2.079   6.246   6.318  0.1544  0.2016 -0.3988
 2066ntf    nn315858   2.139   6.144   6.421  0.0360  0.4549 -0.0779
 2066ntf    sn215859   2.061   6.033   6.501 -0.0719  0.5401 -0.0654
 2066ntf    cn115860   2.061   6.088   6.674  0.0730 -0.4006  0.2383
 2066ntf    fn415861   2.208   6.426   6.178  0.1587 -0.2052 -0.4226
 2066ntf    fn415862   2.258   6.433   6.386  0.1221  0.1734  0.2828
 2066ntf    fn415863   2.333   6.284   6.260 -0.2652  0.0753 -0.1969
 2066ntf    on515864   1.994   6.348   6.375  0.9239  0.0494  1.0530
 2066ntf    on515865   2.053   6.189   6.188  0.5620 -0.5404 -0.1611
 2066ntf    on515866   2.133   5.909   6.514 -0.1553  0.3923 -0.9793
 2066ntf    on515867   1.920   6.026   6.472 -0.1145 -0.3599  0.3384
 2066ntf    fn415868   2.181   6.123   6.719  0.4035 -0.9427 -0.2080
 2066ntf    fn415869   1.982   6.193   6.687  0.2578 -0.1605 -0.5598
 2066ntf    fn415870   2.005   5.993   6.748  0.3167 -0.5028  0.2911
 2067ntf    cn115871   5.103   4.853   5.831  0.1406 -0.2584 -0.3159
 2067ntf    sn215872   5.045   4.693   5.896  0.1025 -0.1416 -0.0646
 2067ntf    nn315873   5.167   4.605   5.852 -0.1827 -0.5807  0.0150
 2067ntf    sn215874   5.289   4.562   5.941 -0.0707 -0.0985  0.0962
 2067ntf    cn115875   5.228   4.404   6.008  0.0456 -0.2559 -0.1713
 2067ntf    fn415876   5.184   4.915   5.914  0.1488  0.3042 -0.7323
 2067ntf    fn415877   5.163   4.840   5.714  0.4747  0.0574 -0.1791
 2067ntf    fn415878   5.002   4.937   5.817  0.1584 -0.0745  0.6497
 2067ntf    on515879   5.026   4.706   6.038 -0.5503 -0.4742 -0.1217
 2067ntf    on515880   4.928   4.666   5.817  0.0856  0.1472 -0.1400
 2067ntf    on515881   5.313   4.645   6.057  0.0286 -0.4185  0.3047
 2067ntf    on515882   5.405   4.522   5.866 -0.0382 -0.0302  0.1095
 2067ntf    fn415883   5.327   4.326   6.047 -0.3296 -0.7250 -0.1565
 2067ntf    fn415884   5.143   4.418   6.108  0.4617 -0.6432  0.2378
 2067ntf    fn415885   5.157   4.330   5.925  0.0416 -0.0213 -0.3807
 2068ntf    cn115886   3.882   5.379   4.350  0.4411  0.5156  0.2869
 2068ntf    sn215887   3.716   5.422   4.411  0.1716 -0.6207  0.3933
 2068ntf    nn315888   3.723   5.576   4.444 -0.1341 -0.5414  0.0953
 2068ntf    sn215889   3.630   5.696   4.406  0.3465 -0.1981  0.0058
 2068ntf    cn115890   3.623   5.777   4.569  0.6153 -0.0465 -0.0559
 2068ntf    fn415891   3.874   5.269   4.276 -0.3928  0.3413  0.6159
 2068ntf    fn415892   3.930   5.474   4.272  0.1847  0.1071 -0.3740
 2068ntf    fn415893   3.968   5.364   4.450  0.2235 -0.0983  0.3916
 2068ntf    on515894   3.637   5.385   4.296  0.1938 -0.3706  0.2948
 2068ntf    on515895   3.708   5.343   4.531  0.1904 -0.6076  0.4032
 2068ntf    on515896   3.491   5.678   4.374  0.1746  0.5427  0.3043
 2068ntf    on515897   3.689   5.802   4.327 -0.5314  0.4318  0.1775
 2068ntf    fn415898   3.602   5.690   4.667  0.6174  0.1998  0.1633
 2068ntf    fn415899   3.741   5.831   4.593  0.4745  0.2137  0.0549
 2068ntf    fn415900   3.538   5.878   4.576 -0.1128 -0.6841  0.4014
 2069ntf    cn115901   2.096   3.031   1.444 -0.2518 -0.0330  0.2313
 2069ntf    sn215902   2.236   2.920   1.406 -0.3764 -0.0908 -0.0634
 2069ntf    nn315903   2.345   3.031   1.387 -0.5190  0.0802  0.1140
 2069ntf    sn215904   2.397   3.137   1.491  0.0591 -0.1933  0.1061
 2069ntf    cn115905   2.573   3.096   1.473  0.1073 -0.1093  0.3864
 2069ntf    fn415906   2.050   3.077   1.329  0.2103 -0.2226 -0.0331
 2069ntf    fn415907   1.992   2.970   1.499  0.0143 -0.5790  0.1341
 2069ntf    fn415908   2.139   3.129   1.522  0.0313  0.1952 -0.2035
 2069ntf    on515909   2.255   2.842   1.525 -0.8662  0.0587  0.1204
 2069ntf    on515910   2.200   2.855   1.283 -0.8666  0.0762 -0.0151
 2069ntf    on515911   2.361   3.109   1.627 -0.2665  0.8226  0.2404
 2069ntf    on515912   2.390   3.274   1.445  0.5079 -0.2196 -0.0459
 2069ntf    fn415913   2.603   3.062   1.349 -0.0810  0.0249  0.3033
 2069ntf    fn415914   2.653   3.196   1.509 -0.0107  0.0220  0.2867
 2069ntf    fn415915   2.612   2.997   1.552 -0.1039 -0.3465  0.1932
 2070ntf    cn115916   1.747   6.105   5.472 -0.5094 -0.2458 -0.1560
 2070ntf    sn215917   1.790   5.971   5.356 -0.0359 -0.1753 -0.0616
 2070ntf    nn315918   1.921   6.039   5.302 -0.2008  0.1895 -0.0012
 2070ntf    sn215919   1.952   6.097   5.160 -0.3868 -0.2692 -0.2300
 2070ntf    cn115920   1.962   6.272   5.208  0.1111 -0.2035 -0.5633
 2070ntf    fn415921   1.710   6.219   5.418  0.5367  0.1278 -0.1036
 2070ntf    fn415922   1.648   6.069   5.553 -0.2924 -0.1489  0.1516
 2070ntf    fn415923   1.849   6.124   5.554 -0.8184  0.4747  0.0709
 2070ntf    on515924   1.797   5.856   5.443  0.1523 -0.1273 -0.0121
 2070ntf    on515925   1.673   5.980   5.273 -0.2922 -0.8490  0.2209
 2070ntf    on515926   1.845   6.104   5.063 -0.6893 -0.2430  0.1069
 2070ntf    on515927   2.086   6.069   5.113  0.0955  0.6492  0.5473
 2070ntf    fn415928   2.052   6.284   5.304 -0.4150  0.9778 -0.1939
 2070ntf    fn415929   2.008   6.357   5.116  0.3510  0.1002 -0.1652
 2070ntf    fn415930   1.846   6.319   5.252  0.5155  0.2249  0.0610
 2071ntf    cn115931   4.789   0.776   3.511 -0.4213 -0.2490  0.2320
 2071ntf    sn215932   4.969   0.797   3.498 -0.4928  0.2016 -0.0381
 2071ntf    nn315933   5.007   0.820   3.648 -0.4999 -0.2248  0.0308
 2071ntf    sn215934   5.044   0.718   3.761  0.1083  0.0373  0.0774
 2071ntf    cn115935   5.225   0.713   3.749  0.1380  0.5594  0.2732
 2071ntf    fn415936   4.743   0.665   3.567 -0.5716 -0.3928 -0.1672
 2071ntf    fn415937   4.729   0.875   3.574  0.2185  0.1013  0.2949
 2071ntf    fn415938   4.735   0.784   3.390 -0.2329 -0.2279  0.1476
 2071ntf    on515939   5.016   0.671   3.445  0.0337  0.5466 -0.4010
 2071ntf    on515940   4.990   0.915   3.418  0.3486 -0.0303 -0.1795
 2071ntf    on515941   5.008   0.583   3.724 -0.0015  0.0465  0.1496
 2071ntf    on515942   4.998   0.765   3.889  0.1365  0.5431 -0.0969
 2071ntf    fn415943   5.277   0.610   3.815  0.2828  0.6812  0.3472
 2071ntf    fn415944   5.270   0.699   3.625 -0.4820 -0.1078  0.1171
 2071ntf    fn415945   5.278   0.824   3.796 -0.5143  0.6660  0.7667
 2072ntf    cn115946   2.306   4.325   5.915 -0.0072 -0.1419  0.3980
 2072ntf    sn215947   2.484   4.362   5.914 -0.0843  0.2271 -0.1172
 2072ntf    nn315948   2.511   4.408   6.061  0.0603  0.2476 -0.1503
 2072ntf    sn215949   2.583   4.321   6.170 -0.5274  0.0921  0.1160
 2072ntf    cn115950   2.754   4.352   6.116 -0.4562  0.1306  0.3579
 2072ntf    fn415951   2.235   4.426   5.962 -0.2704 -0.2094  0.1504
 2072ntf    fn415952   2.254   4.301   5.795  0.2920 -0.1032  0.2588
 2072ntf    fn415953   2.274   4.225   5.994 -0.8755 -0.1907 -0.0004
 2072ntf    on515954   2.540   4.238   5.867 -0.0909  0.0684  0.2925
 2072ntf    on515955   2.486   4.472   5.820  0.4836 -0.2304 -0.6514
 2072ntf    on515956   2.571   4.177   6.165  0.2943  0.0468 -0.8166
 2072ntf    on515957   2.581   4.394   6.295 -1.0712  0.3513 -0.0412
 2072ntf    fn415958   2.789   4.479   6.124  0.8599 -0.2179  0.2783
 2072ntf    fn415959   2.845   4.289   6.189 -0.2221 -0.3705 -0.3481
 2072ntf    fn415960   2.782   4.320   5.990 -0.0352  0.7078  0.3024
 2073ntf    cn115961   5.940   3.079   4.718 -0.5308 -0.3903  0.1651
 2073ntf    sn215962   5.817   3.211   4.695 -0.0185  0.0722  0.0658
 2073ntf    nn315963   5.775   3.200   4.544  0.0534 -0.0326  0.0529
 2073ntf    sn215964   5.634   3.174   4.479  0.1423  0.0955 -0.1883
 2073ntf    cn115965   5.675   3.168   4.302 -0.1105 -0.3966 -0.2293
 2073ntf    fn415966   6.044   3.095   4.638 -0.4829 -0.2461  0.2567
 2073ntf    fn415967   5.986   3.070   4.841 -0.0548 -0.1691  0.0044
 2073ntf    fn415968   5.887   2.962   4.687 -0.2919 -0.5125  0.2204
 2073ntf    on515969   5.724   3.160   4.793  0.2918 -0.0722  0.2855
 2073ntf    on515970   5.880   3.337   4.724  0.2155  0.0152 -0.1895
 2073ntf    on515971   5.551   3.291   4.497  0.1884  0.1919 -0.5784
 2073ntf    on515972   5.575   3.046   4.507  0.3026  0.0918  0.1424
 2073ntf    fn415973   5.572   3.128   4.229 -0.3342 -0.5463  0.1693
 2073ntf    fn415974   5.722   3.282   4.255  0.5026 -0.2579  0.7039
 2073ntf    fn415975   5.776   3.085   4.278  0.1435  0.0013 -0.5653
 2074ntf    cn115976   4.720   4.922   6.820 -0.2099  0.3847 -0.1379
 2074ntf    sn215977   4.902   4.920   6.818 -0.2186  0.0666 -0.4811
 2074ntf    nn315978   4.912   4.798   6.719 -0.1079  0.0698 -0.4739
 2074ntf    sn215979   4.953   4.648   6.741  0.0500  0.2108  0.2234
 2074ntf    cn115980   5.121   4.629   6.675 -0.2024  0.2301 -0.4381
 2074ntf    fn415981   4.676   5.004   6.914  0.6743  0.4122  0.2597
 2074ntf    fn415982   4.668   4.965   6.706 -0.3968  0.3050 -0.0819
 2074ntf    fn415983   4.670   4.802   6.844  0.1081  0.2573 -0.1069
 2074ntf    on515984   4.945   5.043   6.757  0.7548  0.1462  0.3501
 2074ntf    on515985   4.939   4.903   6.956 -0.0044  0.1612 -0.5273
 2074ntf    on515986   4.873   4.557   6.662  0.6189  0.2485 -0.3997
 2074ntf    on515987   4.960   4.610   6.880 -0.0021  0.5330  0.3140
 2074ntf    fn415988   5.162   4.503   6.671  0.0279  0.2724  0.3489
 2074ntf    fn415989   5.127   4.680   6.553  0.3431  0.3523 -0.3643
 2074ntf    fn415990   5.214   4.697   6.742 -0.1539  0.2098 -0.4842
 2075ntf    cn115991   6.162   0.023   5.411 -0.6334 -0.1583 -0.2587
 2075ntf    sn215992   6.169  -0.137   5.496  0.1293 -0.1135 -0.2317
 2075ntf    nn315993   6.250  -0.217   5.388  0.4706  0.5282 -0.4587
 2075ntf    sn215994   6.202  -0.270   5.249  0.1375  0.1253 -0.1938
 2075ntf    cn115995   6.331  -0.195   5.145  0.1648  0.4779  0.0947
 2075ntf    fn415996   6.073   0.107   5.463  0.7045  0.7803  0.5948
 2075ntf    fn415997   6.277   0.089   5.417 -0.7723  0.0674 -0.0691
 2075ntf    fn415998   6.143   0.017   5.280  0.3229  0.1834 -0.4185
 2075ntf    on515999   6.248  -0.104   5.612 -0.2379 -0.0494  0.0019
 2075ntf    on516000   6.032  -0.183   5.503 -0.0015  0.2335 -0.5043
 2075ntf    on516001   6.075  -0.230   5.193  0.0610  0.4744  0.2265
 2075ntf    on516002   6.241  -0.408   5.228  0.1947  0.1169 -0.0293
 2075ntf    fn416003   6.370  -0.077   5.190  0.1244  0.5941 -0.1685
 2075ntf    fn416004   6.436  -0.275   5.145  0.0179  0.2829  0.5917
 2075ntf    fn416005   6.295  -0.176   5.019 -0.5688 -0.1771  0.1974
 2076ntf    cn116006   2.971   3.251   0.610  0.0509  0.1373  0.2405
 2076ntf    sn216007   3.046   3.189   0.456 -0.1619 -0.1257  0.2415
 2076ntf    nn316008   2.933   3.231   0.356 -0.4101  0.2179  0.6627
 2076ntf    sn216009   2.931   3.273   0.205  0.4470 -0.3162  0.4971
 2076ntf    cn116010   2.862   3.117   0.142  0.0311  0.1067 -0.1106
 2076ntf    fn416011   2.880   3.165   0.653  0.1310 -0.1621 -0.1707
 2076ntf    fn416012   3.059   3.267   0.707 -0.5066  0.7225  0.6528
 2076ntf    fn416013   2.907   3.367   0.605 -0.1026  0.0437 -0.0466
 2076ntf    on516014   3.166   3.266   0.437 -0.5061  0.2264 -0.5278
 2076ntf    on516015   3.065   3.047   0.475  0.8020 -0.0054  0.2433
 2076ntf    on516016   3.059   3.278   0.139  0.0172  0.1552 -0.3127
 2076ntf    on516017   2.832   3.373   0.176  0.5189 -0.6049 -0.8156
 2076ntf    fn416018   2.935   3.014   0.182 -0.1294  0.1595  0.3300
 2076ntf    fn416019   2.740   3.113   0.193 -0.0677  0.4575 -0.3200
 2076ntf    fn416020   2.845   3.103   0.012 -0.2398  0.2373 -0.0903
 2077ntf    cn116021   5.420   3.976   1.171 -0.1681  0.3313 -0.0792
 2077ntf    sn216022   5.577   3.905   1.112 -0.1183  0.4136 -0.0478
 2077ntf    nn316023   5.509   3.841   0.986  0.1670  0.5193 -0.2549
 2077ntf    sn216024   5.578   3.735   0.893 -0.0205  0.2193 -0.0513
 2077ntf    cn116025   5.581   3.826   0.736  0.2447 -0.3338 -0.3707
 2077ntf    fn416026   5.313   3.911   1.130  0.2396 -0.5014  0.1674
 2077ntf    fn416027   5.418   3.991   1.303 -0.2949 -0.3895  0.0040
 2077ntf    fn416028   5.400   4.093   1.113  0.8760  0.4456 -0.2183
 2077ntf    on516029   5.666   4.016   1.088  0.8696 -0.5433 -0.8748
 2077ntf    on516030   5.608   3.808   1.214 -0.3499  0.2491 -0.1317
 2077ntf    on516031   5.496   3.620   0.863 -0.1634  0.3016  0.0207
 2077ntf    on516032   5.715   3.713   0.929 -0.0727 -0.4072 -0.2153
 2077ntf    fn416033   5.627   3.747   0.641 -0.1065 -0.1267 -0.7203
 2077ntf    fn416034   5.455   3.861   0.713  0.4788  0.6073 -0.2583
 2077ntf    fn416035   5.652   3.938   0.735 -0.7345  0.3118  0.4305
 2078ntf    cn116036   4.183   3.071   2.997  0.2128 -0.2468  0.2352
 2078ntf    sn216037   4.082   3.021   2.854  0.3168  0.2745 -0.0212
 2078ntf    nn316038   4.067   2.871   2.894 -0.1294  0.2847 -0.1434
 2078ntf    sn216039   4.100   2.742   2.810  0.1328  0.1340  0.1872
 2078ntf    cn116040   4.251   2.677   2.887  0.2383  0.0361 -0.1034
 2078ntf    fn416041   4.195   3.202   3.001  0.6703 -0.2727 -0.2192
 2078ntf    fn416042   4.123   3.038   3.110  0.0313  0.6092  0.3906
 2078ntf    fn416043   4.305   3.020   2.991  0.2346 -0.2349  0.5663
 2078ntf    on516044   3.964   3.102   2.871  0.1430  0.0920 -0.3527
 2078ntf    on516045   4.173   3.047   2.745  0.4128  0.7257  0.1651
 2078ntf    on516046   4.138   2.756   2.672  0.6288  0.3177  0.3416
 2078ntf    on516047   3.995   2.647   2.837  0.1946  0.1182  0.3746
 2078ntf    fn416048   4.332   2.774   2.925 -0.5483  0.6287  0.0828
 2078ntf    fn416049   4.231   2.602   2.994  0.3465 -0.6847 -0.5842
 2078ntf    fn416050   4.320   2.596   2.809  0.7312  0.5538 -0.2161
 2079ntf    cn116051   1.634   5.099   3.724 -0.0495 -0.1288  0.2590
 2079ntf    sn216052   1.635   5.194   3.879  0.2593  0.2708  0.0163
 2079ntf    nn316053   1.487   5.248   3.876  0.1019 -0.1828 -0.5162
 2079ntf    sn216054   1.355   5.194   3.942  0.3862  0.0387  0.2458
 2079ntf    cn116055   1.223   5.229   3.822  0.1841 -0.0602  0.4384
 2079ntf    fn416056   1.753   5.051   3.692  0.1305  0.3604  0.1846
 2079ntf    fn416057   1.561   4.990   3.742 -0.2594 -0.1988 -0.9158
 2079ntf    fn416058   1.567   5.158   3.627  0.2179  0.1774  0.2590
 2079ntf    on516059   1.674   5.095   3.977  0.0787  0.4232  0.2434
 2079ntf    on516060   1.729   5.299   3.848 -0.1469  0.5007 -0.4355
 2079ntf    on516061   1.311   5.273   4.054 -0.3776  0.0454 -0.0565
 2079ntf    on516062   1.360   5.052   3.968 -0.3036 -0.0012  0.1788
 2079ntf    fn416063   1.212   5.145   3.720  0.0758  0.2830  0.1648
 2079ntf    fn416064   1.101   5.234   3.871 -0.2014 -0.4971 -0.4543
 2079ntf    fn416065   1.244   5.349   3.770  0.1319 -0.3431 -0.2425
 2080ntf    cn116066   2.485   4.010   4.694 -0.5097  0.0445 -0.1026
 2080ntf    sn216067   2.369   4.145   4.658 -0.0547  0.3637 -0.3851
 2080ntf    nn316068   2.310   4.094   4.522  0.1206 -0.3724 -0.1904
 2080ntf    sn216069   2.355   4.120   4.374 -0.0036 -0.1365 -0.1888
 2080ntf    cn116070   2.214   4.220   4.319 -0.0682 -0.0554  0.1234
 2080ntf    fn416071   2.433   3.890   4.674  0.1148 -0.3834  0.7514
 2080ntf    fn416072   2.591   4.015   4.615 -0.7445 -0.0944 -0.4290
 2080ntf    fn416073   2.534   4.012   4.817 -0.5105  0.1309 -0.1037
 2080ntf    on516074   2.275   4.140   4.768 -0.2769 -0.0423 -0.5942
 2080ntf    on516075   2.446   4.267   4.656  0.2023  0.2257  0.5533
 2080ntf    on516076   2.335   3.999   4.299  0.0977 -0.1751 -0.1535
 2080ntf    on516077   2.477   4.194   4.353 -0.1029  0.0712 -0.0327
 2080ntf    fn416078   2.242   4.349   4.331  0.0306 -0.0108 -0.5569
 2080ntf    fn416079   2.189   4.190   4.193  0.1594 -0.5178  0.1858
 2080ntf    fn416080   2.102   4.198   4.387 -0.0795 -0.3724  0.0047
 2081ntf    cn116081   1.618   2.428   6.850 -0.1312  0.1984  0.2905
 2081ntf    sn216082   1.534   2.348   6.710  0.1449  0.3060  0.0621
 2081ntf    nn316083   1.567   2.462   6.608  0.1160  0.3659  0.1198
 2081ntf    sn216084   1.522   2.461   6.457  0.1625 -0.6107  0.1082
 2081ntf    cn116085   1.391   2.586   6.448  0.3359 -0.4341  0.0366
 2081ntf    fn416086   1.745   2.427   6.811 -0.0088 -0.3608  0.6844
 2081ntf    fn416087   1.575   2.552   6.867 -0.1061  0.3644 -0.7850
 2081ntf    fn416088   1.603   2.377   6.971 -0.3149 -0.3272  0.0485
 2081ntf    on516089   1.619   2.233   6.689 -0.1037  0.1120  0.1107
 2081ntf    on516090   1.399   2.322   6.753  0.1921  0.4323  0.2919
 2081ntf    on516091   1.451   2.342   6.417  0.1341 -0.3696 -0.5717
 2081ntf    on516092   1.618   2.514   6.364 -0.5729  0.1587 -0.2232
 2081ntf    fn416093   1.339   2.600   6.327 -0.1877  0.3928  0.3489
 2081ntf    fn416094   1.282   2.550   6.513  0.0541  0.1988 -0.0725
 2081ntf    fn416095   1.430   2.705   6.492 -0.2304 -0.1529 -0.1978
 2082ntf    cn116096   3.579   3.019   4.343 -0.3043 -0.2272  0.5513
 2082ntf    sn216097   3.611   2.840   4.359  0.1459 -0.2063 -0.1152
 2082ntf    nn316098   3.473   2.771   4.389  0.0473 -0.4125 -1.0047
 2082ntf    sn216099   3.446   2.618   4.405 -0.0473 -0.3286 -0.3491
 2082ntf    cn116100   3.371   2.590   4.242 -0.6110 -0.3412 -0.0887
 2082ntf    fn416101   3.684   3.092   4.313 -0.1461 -0.4973  0.4419
 2082ntf    fn416102   3.487   3.050   4.254  0.2579 -0.5448 -0.1501
 2082ntf    fn416103   3.531   3.079   4.451  0.2140  0.4518  0.4049
 2082ntf    on516104   3.660   2.804   4.228 -0.0905 -0.1974 -0.2069
 2082ntf    on516105   3.700   2.815   4.469 -0.2743 -0.4083  0.1778
 2082ntf    on516106   3.344   2.593   4.504 -0.1820  0.1880 -0.3591
 2082ntf    on516107   3.565   2.536   4.401 -0.0526 -0.3483 -0.1249
 2082ntf    fn416108   3.455   2.601   4.141 -0.5717 -0.2739 -0.0484
 2082ntf    fn416109   3.329   2.465   4.232 -0.0374 -0.5279 -0.2098
 2082ntf    fn416110   3.259   2.658   4.222 -0.1581  0.4302 -0.0271
 2083ntf    cn116111   3.921   3.109   0.696  0.5383 -0.0854  0.4307
 2083ntf    sn216112   3.943   2.939   0.637 -0.1999 -0.0812  0.1288
 2083ntf    nn316113   3.860   2.935   0.504  0.0338 -0.0913 -0.0167
 2083ntf    sn216114   3.785   2.813   0.440 -0.2363  0.1288 -0.1207
 2083ntf    cn116115   3.816   2.854   0.266  0.0590  0.5115  0.0212
 2083ntf    fn416116   3.943   3.201   0.604  0.1062  0.1266  0.5320
 2083ntf    fn416117   3.792   3.123   0.726  0.2973 -0.4053 -0.4506
 2083ntf    fn416118   3.982   3.147   0.808  0.7431 -0.0346  0.3016
 2083ntf    on516119   4.086   2.932   0.616 -0.2099  0.1630 -0.0248
 2083ntf    on516120   3.889   2.866   0.749  0.0285  0.9592  0.9302
 2083ntf    on516121   3.642   2.812   0.460 -0.2239 -0.8295 -0.0479
 2083ntf    on516122   3.856   2.689   0.460  0.5345  0.5976  0.0602
 2083ntf    fn416123   3.936   2.907   0.248  0.2725 -0.0378 -0.1796
 2083ntf    fn416124   3.789   2.758   0.179 -0.0565  0.3724  0.2117
 2083ntf    fn416125   3.729   2.944   0.222 -0.4909 -0.3423 -0.6776
 2084ntf    cn116126   4.348   4.670   4.737 -0.1197  0.5731 -0.0886
 2084ntf    sn216127   4.308   4.760   4.889 -0.5391  0.0501  0.1142
 2084ntf    nn316128   4.202   4.662   4.950  0.1276 -0.5550  0.3074
 2084ntf    sn216129   4.066   4.703   5.018  0.2439  0.1364  0.1305
 2084ntf    cn116130   4.065   4.595   5.165  0.2772  0.2233  0.1952
 2084ntf    fn416131   4.446   4.728   4.670  0.1584 -0.1966 -0.3648
 2084ntf    fn416132   4.376   4.542   4.756 -0.2225  0.4638 -0.6472
 2084ntf    fn416133   4.236   4.659   4.667 -0.4919 -0.0905  0.5929
 2084ntf    on516134   4.430   4.774   4.964  0.0046 -0.2743 -0.6962
 2084ntf    on516135   4.253   4.883   4.837 -0.7206 -0.2219 -0.3389
 2084ntf    on516136   3.951   4.654   4.946  0.4336 -0.7789  0.4309
 2084ntf    on516137   4.062   4.836   5.072  0.2562  0.2263 -0.0921
 2084ntf    fn416138   4.182   4.581   5.224  0.4211  1.0421  0.1155
 2084ntf    fn416139   3.983   4.634   5.261 -0.4898 -0.1804 -0.2842
 2084ntf    fn416140   4.027   4.476   5.123  0.3694  0.3056 -0.1208
 2085ntf    cn116141   3.276   1.319   0.388 -0.2592  0.1422 -0.1583
 2085ntf    sn216142   3.387   1.176   0.396 -0.2554  0.1631  0.1860
 2085ntf    nn316143   3.393   1.155   0.551 -0.3019  0.1441  0.1850
 2085ntf    sn216144   3.297   1.055   0.626  0.0300 -0.1983  0.1565
 2085ntf    cn116145   3.282   1.164   0.771 -0.1134 -0.0635  0.0399
 2085ntf    fn416146   3.244   1.357   0.265  0.1937 -0.2279 -0.3885
 2085ntf    fn416147   3.164   1.293   0.454  0.0637 -0.2397  0.2470
 2085ntf    fn416148   3.331   1.425   0.446  0.4720 -0.1226 -0.3678
 2085ntf    on516149   3.335   1.072   0.311  0.2703 -0.0693  0.1446
 2085ntf    on516150   3.514   1.233   0.356 -0.3394  0.3436  0.1729
 2085ntf    on516151   3.354   0.938   0.688 -0.1334 -0.4351 -0.1431
 2085ntf    on516152   3.164   1.050   0.572  0.2118 -0.0645 -0.3098
 2085ntf    fn416153   3.209   1.101   0.861  0.0168  0.1643  0.3056
 2085ntf    fn416154   3.400   1.197   0.821 -0.0431 -0.3093  0.0362
 2085ntf    fn416155   3.231   1.283   0.743  0.2903  0.0954 -0.0372
 2086ntf    cn116156   3.767   6.587   4.382 -0.0547  0.1445 -0.6356
 2086ntf    sn216157   3.879   6.445   4.363  0.0604  0.2006 -0.3737
 2086ntf    nn316158   3.977   6.484   4.247 -0.0821 -0.0511 -0.5805
 2086ntf    sn216159   4.134   6.487   4.240 -0.0463 -0.1545  0.0510
 2086ntf    cn116160   4.154   6.620   4.118 -0.0899 -0.0152  0.1955
 2086ntf    fn416161   3.724   6.620   4.261  0.6852  0.1206 -0.9124
 2086ntf    fn416162   3.657   6.571   4.454  0.4359 -0.5108 -0.0166
 2086ntf    fn416163   3.822   6.697   4.430 -0.1533  0.2262 -0.7087
 2086ntf    on516164   3.934   6.434   4.496  0.8702 -0.5195 -0.7584
 2086ntf    on516165   3.791   6.336   4.329  0.1121  0.0798 -0.1238
 2086ntf    on516166   4.180   6.373   4.163 -0.0927 -0.7258  0.8543
 2086ntf    on516167   4.213   6.546   4.344 -0.2065  0.4173 -0.1489
 2086ntf    fn416168   4.280   6.656   4.098 -0.2418  0.5791  0.2856
 2086ntf    fn416169   4.096   6.605   3.999  0.1839  0.2958  0.0214
 2086ntf    fn416170   4.103   6.732   4.165  0.0957  0.1357  0.0394
 2087ntf    cn116171   4.509   0.500   1.036 -0.0677 -0.0497  0.1490
 2087ntf    sn216172   4.456   0.340   1.105 -0.1552 -0.1333 -0.1105
 2087ntf    nn316173   4.461   0.375   1.258  0.0432 -0.1700 -0.1080
 2087ntf    sn216174   4.352   0.350   1.369 -0.2000  0.1030 -0.2840
 2087ntf    cn116175   4.351   0.171   1.399 -0.0016  0.1557  0.0439
 2087ntf    fn416176   4.438   0.602   1.081 -0.5231 -0.3059  0.0202
 2087ntf    fn416177   4.632   0.535   1.069 -0.3162  0.0920  0.9583
 2087ntf    fn416178   4.496   0.500   0.905  0.2104  0.1868  0.1224
 2087ntf    on516179   4.324   0.321   1.049 -0.2661 -0.0963  0.1362
 2087ntf    on516180   4.556   0.244   1.068  0.2776  0.1161  0.3965
 2087ntf    on516181   4.218   0.385   1.327 -0.4792 -0.3473  0.2245
 2087ntf    on516182   4.400   0.396   1.497 -0.2103 -0.7686  0.0336
 2087ntf    fn416183   4.371   0.095   1.293 -0.1662  0.2917 -0.0851
 2087ntf    fn416184   4.441   0.130   1.486  0.5967 -0.2319 -0.7485
 2087ntf    fn416185   4.234   0.122   1.439  0.0878  0.4455  0.6765
 2088ntf    cn116186   2.050   2.273   4.560 -0.0568 -0.0210  0.0127
 2088ntf    sn216187   1.960   2.295   4.716  0.0737  0.0936  0.0716
 2088ntf    nn316188   1.962   2.153   4.785  0.3171 -0.2722 -0.6800
 2088ntf    sn216189   1.842   2.065   4.832  0.3410  0.1746  0.2425
 2088ntf    cn116190   1.911   1.974   4.973  0.4167 -0.3586 -0.1329
 2088ntf    fn416191   2.077   2.383   4.492  0.1571 -0.0661  0.0235
 2088ntf    fn416192   2.168   2.223   4.592 -0.0173  0.4577  0.6197
 2088ntf    fn416193   1.984   2.198   4.472  0.0003 -0.0085 -0.0414
 2088ntf    on516194   2.023   2.388   4.806 -0.1951  0.1948  0.1549
 2088ntf    on516195   1.830   2.333   4.668 -0.1654 -0.9784 -0.1530
 2088ntf    on516196   1.810   1.962   4.736 -0.3726  0.1370  0.5144
 2088ntf    on516197   1.735   2.142   4.891  0.2246  0.2306 -0.0365
 2088ntf    fn416198   1.909   2.043   5.087  0.3495  0.2574 -0.5029
 2088ntf    fn416199   1.843   1.862   4.990 -0.8409  0.3672 -0.1899
 2088ntf    fn416200   2.039   1.946   4.961  0.4512 -0.3479  0.1815
 2089ntf    cn116201   1.925   1.000   0.462 -0.1654 -0.0806  0.1135
 2089ntf    sn216202   1.806   1.031   0.596  0.1025  0.3339  0.2573
 2089ntf    nn316203   1.697   0.934   0.539  0.3349  0.0707  0.2621
 2089ntf    sn216204   1.542   0.948   0.516  0.3354 -0.6284 -0.1985
 2089ntf    cn116205   1.528   0.989   0.339 -0.2431  0.2476  0.0469
 2089ntf    fn416206   1.898   1.036   0.338  0.5629 -0.4167 -0.1487
 2089ntf    fn416207   2.045   1.049   0.487 -0.0074 -0.1621 -0.4637
 2089ntf    fn416208   1.942   0.870   0.447 -0.1512 -0.0636 -0.0167
 2089ntf    on516209   1.880   0.978   0.707 -0.2692  0.2233  0.4542
 2089ntf    on516210   1.772   1.171   0.581 -0.5908  0.1230 -0.2310
 2089ntf    on516211   1.473   1.061   0.574  0.6446 -0.4572 -0.1612
 2089ntf    on516212   1.486   0.816   0.531  0.1810 -0.5506 -0.0910
 2089ntf    fn416213   1.633   0.946   0.272 -0.0881  0.5584  0.0868
 2089ntf    fn416214   1.425   0.925   0.287 -0.0518 -0.1866  0.2032
 2089ntf    fn416215   1.514   1.118   0.314 -0.0810  0.2160 -0.2042
 2090ntf    cn116216   0.966   5.036   1.844  0.0308  0.1033  0.3966
 2090ntf    sn216217   1.078   5.002   1.705  0.1617  0.4776  0.4105
 2090ntf    nn316218   1.123   5.146   1.660  0.6932  0.1205 -0.2252
 2090ntf    sn216219   1.260   5.218   1.685  0.4819  0.2953  0.4667
 2090ntf    cn116220   1.240   5.361   1.574 -0.0482  0.0580  0.2511
 2090ntf    fn416221   1.021   5.100   1.946  0.5682  0.1856  0.0561
 2090ntf    fn416222   0.867   5.115   1.807  0.1452  0.0305 -0.0654
 2090ntf    fn416223   0.916   4.925   1.896  0.1712 -0.0251  0.2605
 2090ntf    on516224   1.181   4.920   1.762  0.2937  0.6185  0.3766
 2090ntf    on516225   0.989   4.947   1.606  0.2209 -0.1935  0.7267
 2090ntf    on516226   1.384   5.160   1.641  0.2763 -0.0681  0.3644
 2090ntf    on516227   1.268   5.282   1.814  0.3201  0.7608  0.2488
 2090ntf    fn416228   1.151   5.449   1.617  0.4031  0.5973  0.0976
 2090ntf    fn416229   1.353   5.429   1.560  0.1372 -0.3487 -0.2536
 2090ntf    fn416230   1.215   5.330   1.448 -0.3274  0.1593  0.2806
 2091ntf    cn116231   6.573   2.860   3.021  0.1040 -0.5148  0.1398
 2091ntf    sn216232   6.745   2.821   2.976  0.1285 -0.2400 -0.0074
 2091ntf    nn316233   6.756   2.684   3.052 -0.4373 -0.1306  0.2779
 2091ntf    sn216234   6.854   2.564   3.030 -0.1255  0.1975 -0.1606
 2091ntf    cn116235   6.741   2.445   2.952  0.0806 -0.0614 -0.0702
 2091ntf    fn416236   6.493   2.757   3.001 -0.2987 -0.0719 -0.5866
 2091ntf    fn416237   6.544   2.900   3.143 -0.7280 -0.3085 -0.1196
 2091ntf    fn416238   6.521   2.952   2.942  0.3081 -0.4081  0.1288
 2091ntf    on516239   6.740   2.824   2.832 -0.0809  0.7546  0.0111
 2091ntf    on516240   6.826   2.924   3.038 -0.4347  0.0509  0.2536
 2091ntf    on516241   6.902   2.505   3.153 -0.0899 -0.8170 -0.6445
 2091ntf    on516242   6.956   2.590   2.932 -0.0342  0.9748  0.1395
 2091ntf    fn416243   6.635   2.490   2.885 -0.2034 -0.3907  0.1528
 2091ntf    fn416244   6.810   2.373   2.865  0.0928  0.0142 -0.1238
 2091ntf    fn416245   6.693   2.359   3.040 -0.4015 -0.3963 -0.6490
 2092ntf    cn116246   2.194   1.238   4.896 -0.5094  0.1942 -0.4007
 2092ntf    sn216247   2.042   1.308   4.967 -0.2081  0.1850  0.2562
 2092ntf    nn316248   1.936   1.194   4.946  0.1286 -0.0815 -0.0013
 2092ntf    sn216249   1.894   1.089   5.055 -0.1323  0.0742  0.0483
 2092ntf    cn116250   1.744   1.166   5.124 -0.0339  0.0728  0.2658
 2092ntf    fn416251   2.294   1.324   4.902 -0.0761 -0.3517  0.3009
 2092ntf    fn416252   2.239   1.132   4.960 -0.2322  0.2438 -0.5124
 2092ntf    fn416253   2.181   1.205   4.768 -0.8782 -0.1298 -0.2853
 2092ntf    on516254   2.064   1.330   5.108  0.1547  0.0093  0.2275
 2092ntf    on516255   2.018   1.422   4.882  0.1539  0.0524 -0.0275
 2092ntf    on516256   1.983   1.079   5.169  0.6366 -0.2271 -0.5712
 2092ntf    on516257   1.841   0.968   4.997  0.2345 -0.1853  0.2448
 2092ntf    fn416258   1.788   1.256   5.211  0.2979  0.2546 -0.0830
 2092ntf    fn416259   1.680   1.240   5.034 -0.7658 -0.7536  0.0921
 2092ntf    fn416260   1.661   1.081   5.181 -0.0790  0.0953  0.2338
 2093ntf    cn116261   2.333   0.889   2.220  0.2633  0.0839  0.2973
 2093ntf    sn216262   2.510   0.886   2.264  0.3562  0.0060 -0.0820
 2093ntf    nn316263   2.502   0.782   2.381  0.7191  0.2611  0.1710
 2093ntf    sn216264   2.534   0.629   2.366 -0.0430  0.1411 -0.2857
 2093ntf    cn116265   2.713   0.626   2.336  0.0402 -0.0558  0.2103
 2093ntf    fn416266   2.289   0.771   2.182  0.1947  0.2512 -0.1478
 2093ntf    fn416267   2.256   0.930   2.319  0.1470  0.2861  0.1229
 2093ntf    fn416268   2.301   0.963   2.115 -0.2306 -0.0875  0.3249
 2093ntf    on516269   2.570   0.844   2.140  0.2081  0.3477 -0.2715
 2093ntf    on516270   2.542   1.016   2.318 -0.2270 -0.0788  0.4736
 2093ntf    on516271   2.469   0.568   2.253  0.2830 -0.4254 -0.1748
 2093ntf    on516272   2.531   0.548   2.486 -0.3430  0.4689 -0.0694
 2093ntf    fn416273   2.780   0.650   2.447 -0.2459  0.4109  0.2823
 2093ntf    fn416274   2.753   0.507   2.292  0.0349  0.1308 -0.3102
 2093ntf    fn416275   2.749   0.718   2.247 -0.5675 -0.2938 -0.2917
 2094ntf    cn116276   3.390   5.205   3.407 -0.6713  0.0413  0.2219
 2094ntf    sn216277   3.284   5.084   3.492 -0.3981 -0.0863  0.3822
 2094ntf    nn316278   3.360   5.091   3.629  0.4098  0.3469 -0.0825
 2094ntf    sn216279   3.321   5.052   3.776  0.2861 -0.0675 -0.2259
 2094ntf    cn116280   3.428   4.908   3.805 -0.0844 -0.3211 -0.1113
 2094ntf    fn416281   3.515   5.163   3.397 -0.6399  0.3163 -0.6668
 2094ntf    fn416282   3.353   5.235   3.284  0.0296 -0.2371 -0.0630
 2094ntf    fn416283   3.394   5.323   3.467  0.5406  0.4875 -0.6980
 2094ntf    on516284   3.156   5.150   3.497 -0.3645 -0.0179  0.3452
 2094ntf    on516285   3.301   4.968   3.409  0.1042 -0.0688  0.4571
 2094ntf    on516286   3.185   5.004   3.775  0.2031  0.1700 -0.4615
 2094ntf    on516287   3.365   5.150   3.872  0.4521 -0.6091  0.2561
 2094ntf    fn416288   3.540   4.928   3.736 -0.1408  0.3026 -0.0267
 2094ntf    fn416289   3.462   4.883   3.930  0.0813 -0.0942 -0.1105
 2094ntf    fn416290   3.373   4.797   3.758 -0.5150 -0.1642  0.0195
 2095ntf    cn116291   2.918   6.840   4.516 -0.0105 -0.0862  0.1546
 2095ntf    sn216292   2.929   7.015   4.467  0.2221 -0.0799  0.2245
 2095ntf    nn316293   2.991   7.012   4.323  0.0974  0.3747  0.1611
 2095ntf    sn216294   3.144   7.001   4.293  0.0958 -0.0228  0.3044
 2095ntf    cn116295   3.147   6.999   4.111 -0.4551 -0.3538  0.2960
 2095ntf    fn416296   2.864   6.766   4.420 -0.0225  0.0575  0.0506
 2095ntf    fn416297   3.033   6.777   4.533  0.1518  0.0735 -0.3185
 2095ntf    fn416298   2.839   6.828   4.621  0.0827  0.0241  0.2367
 2095ntf    on516299   2.796   7.069   4.485  0.3575  0.0148  0.9511
 2095ntf    on516300   3.023   7.060   4.566  0.0703  0.3787  0.1625
 2095ntf    on516301   3.180   6.871   4.345  0.0590 -0.2685 -0.2750
 2095ntf    on516302   3.216   7.118   4.336 -0.4873  0.2714  0.4889
 2095ntf    fn416303   3.111   7.117   4.063 -0.0020 -0.3629 -0.0802
 2095ntf    fn416304   3.267   6.957   4.076 -0.1646  0.5344  0.2036
 2095ntf    fn416305   3.053   6.914   4.075 -1.0432  0.1956  0.5068
 2096ntf    cn116306   6.543   6.091   3.007 -0.4314  0.2469  0.4558
 2096ntf    sn216307   6.614   6.254   3.046  0.1524  0.1250 -0.0799
 2096ntf    nn316308   6.747   6.228   3.125  0.1221 -0.0188 -0.0770
 2096ntf    sn216309   6.893   6.282   3.107  0.1020  0.0308 -0.0919
 2096ntf    cn116310   6.955   6.220   2.947  0.0813  0.5522 -0.3031
 2096ntf    fn416311   6.529   6.016   3.115 -0.8219 -0.0191  0.2186
 2096ntf    fn416312   6.429   6.090   2.941 -0.4016  0.0883  0.4069
 2096ntf    fn416313   6.629   6.018   2.938 -0.1198  0.3599  0.7164
 2096ntf    on516314   6.638   6.322   2.921  0.5511  0.2336  0.0546
 2096ntf    on516315   6.513   6.310   3.133  0.5043  0.5504  0.0619
 2096ntf    on516316   6.981   6.226   3.206  0.2487  0.0035 -0.2371
 2096ntf    on516317   6.895   6.426   3.097 -0.2010  0.0449  0.0253
 2096ntf    fn416318   7.087   6.218   2.940  0.0920  0.8702 -0.2489
 2096ntf    fn416319   6.918   6.094   2.931  0.0016  0.6098 -0.5698
 2096ntf    fn416320   6.921   6.298   2.845 -0.5299  0.0394 -0.4984
 2097ntf    cn116321   6.019   0.348   4.079  0.0499 -0.2831 -0.1663
 2097ntf    sn216322   6.144   0.318   4.208  0.1003  0.0485 -0.1368
 2097ntf    nn316323   6.270   0.404   4.172  0.2805  0.1323  0.6847
 2097ntf    sn216324   6.369   0.384   4.052 -0.0791 -0.2799  0.4560
 2097ntf    cn116325   6.340   0.549   3.981  0.4660 -0.5075 -0.3103
 2097ntf    fn416326   5.957   0.235   4.047 -0.8293  0.1507 -0.0289
 2097ntf    fn416327   5.924   0.427   4.126  0.5526  0.5259 -0.4890
 2097ntf    fn416328   6.064   0.404   3.968  0.1914  0.2784  0.1706
 2097ntf    on516329   6.088   0.378   4.326  0.3218  0.3200 -0.1691
 2097ntf    on516330   6.164   0.175   4.204 -1.0592 -0.1429  0.4253
 2097ntf    on516331   6.330   0.292   3.948 -0.2076 -0.4738  0.6759
 2097ntf    on516332   6.507   0.387   4.092  0.1184 -0.6978 -0.1710
 2097ntf    fn416333   6.396   0.554   3.862  0.6818 -0.0935 -0.1949
 2097ntf    fn416334   6.210   0.568   3.968  0.4197 -0.5291  0.0939
 2097ntf    fn416335   6.373   0.642   4.070  0.0965 -0.1349 -0.5625
 2098ntf    cn116336   6.540   0.023   0.561 -0.0988  0.1801  0.0307
 2098ntf    sn216337   6.597  -0.090   0.692 -0.1138  0.1287 -0.0071
 2098ntf    nn316338   6.736  -0.143   0.642 -0.0425 -0.1730  0.5009
 2098ntf    sn216339   6.877  -0.083   0.676  0.1247 -0.1418 -0.2260
 2098ntf    cn116340   6.913  -0.157   0.838 -0.1314  0.3422  0.0534
 2098ntf    fn416341   6.549  -0.025   0.438  0.3655 -0.0400  0.1462
 2098ntf    fn416342   6.415   0.063   0.572 -0.1801  0.0746 -0.4997
 2098ntf    fn416343   6.614   0.133   0.562  0.3893 -0.1446 -0.0970
 2098ntf    on516344   6.591  -0.012   0.813  0.7458 -0.4113  0.3905
 2098ntf    on516345   6.515  -0.209   0.681  0.8952 -0.6357  0.6049
 2098ntf    on516346   6.875   0.061   0.682  0.0848 -0.1480 -0.1007
 2098ntf    on516347   6.986  -0.138   0.599 -0.1993 -0.5067 -0.4274
 2098ntf    fn416348   6.984  -0.078   0.916 -0.1458  0.1382  0.2758
 2098ntf    fn416349   6.795  -0.179   0.894 -0.4697  0.3319 -0.6517
 2098ntf    fn416350   6.975  -0.272   0.820 -0.0946  0.3906 -0.1301
 2099ntf    cn116351   6.374   3.501   0.619 -0.1945  0.1284 -0.0301
 2099ntf    sn216352   6.502   3.517   0.490 -0.2548  0.3405 -0.0644
 2099ntf    nn316353   6.633   3.485   0.570 -0.1174 -0.8840 -0.7434
 2099ntf    sn216354   6.776   3.443   0.520  0.2899  0.1525 -0.4975
 2099ntf    cn116355   6.808   3.303   0.632 -0.3548  0.1631 -0.2968
 2099ntf    fn416356   6.252   3.536   0.584 -0.2179 -0.3510 -0.4357
 2099ntf    fn416357   6.374   3.375   0.660 -0.2485  0.2847  0.4553
 2099ntf    fn416358   6.411   3.582   0.717 -0.2007  0.5115 -0.3402
 2099ntf    on516359   6.460   3.410   0.403 -0.2089  0.4117 -0.1730
 2099ntf    on516360   6.492   3.652   0.443  0.3142  0.2318 -0.5092
 2099ntf    on516361   6.880   3.533   0.563  0.0956  0.1280  0.0410
 2099ntf    on516362   6.778   3.377   0.392  0.1435  0.3416 -0.5975
 2099ntf    fn416363   6.922   3.240   0.610 -0.4410 -0.1845  0.2177
 2099ntf    fn416364   6.792   3.334   0.760  0.2691 -0.4506 -0.0619
 2099ntf    fn416365   6.722   3.203   0.618 -0.9241  0.6639 -0.4351
 2100ntf    cn116366   6.404   0.335   5.039 -0.6366 -0.3886  0.6911
 2100ntf    sn216367   6.406   0.264   4.871  0.0431  0.6289  0.2561
 2100ntf    nn316368   6.528   0.339   4.807  0.3701  0.2434  0.4220
 2100ntf    sn216369   6.556   0.371   4.656 -0.3881 -0.2958  0.1611
 2100ntf    cn116370   6.570   0.552   4.663  0.4566 -0.3367 -0.3300
 2100ntf    fn416371   6.512   0.297   5.104  0.0467  0.8379  0.3023
 2100ntf    fn416372   6.401   0.467   5.032 -0.6115 -0.4250 -0.1789
 2100ntf    fn416373   6.307   0.284   5.113 -1.0857 -0.6970 -0.0938
 2100ntf    on516374   6.434   0.125   4.897 -0.6434  0.4108 -0.1497
 2100ntf    on516375   6.269   0.287   4.833  0.0696 -0.1019 -0.2924
 2100ntf    on516376   6.450   0.348   4.561 -0.2204  0.3871 -0.1981
 2100ntf    on516377   6.687   0.325   4.618 -0.2961 -0.4451  0.6544
 2100ntf    fn416378   6.456   0.602   4.707  0.9344  0.1747  0.3431
 2100ntf    fn416379   6.658   0.592   4.753 -0.1343  0.4005 -0.0704
 2100ntf    fn416380   6.604   0.614   4.551 -0.3728  0.2644 -0.2580
 2101ntf    cn116381   6.260   3.161   1.466 -0.1001  0.0350 -0.1237
 2101ntf    sn216382   6.096   3.199   1.534 -0.2091  0.0627 -0.4048
 2101ntf    nn316383   6.135   3.332   1.606 -0.0104 -0.0037 -0.3903
 2101ntf    sn216384   6.051   3.455   1.656  0.2318 -0.1571  0.4086
 2101ntf    cn116385   6.026   3.439   1.836 -0.1338  0.0110  0.3736
 2101ntf    fn416386   6.310   3.271   1.412 -0.3728 -0.0270 -0.5036
 2101ntf    fn416387   6.352   3.141   1.560 -0.0655  0.6411 -0.0271
 2101ntf    fn416388   6.257   3.056   1.385  0.7165 -0.0251 -0.0884
 2101ntf    on516389   6.008   3.204   1.419 -0.2550 -0.4201 -0.3953
 2101ntf    on516390   6.079   3.090   1.627  0.4954  0.6055  0.3687
 2101ntf    on516391   5.920   3.465   1.597  0.4846 -0.1852 -0.1630
 2101ntf    on516392   6.129   3.576   1.657 -0.2908  0.1823  0.1374
 2101ntf    fn416393   6.143   3.436   1.898  0.2660 -0.2339 -0.3749
 2101ntf    fn416394   5.955   3.543   1.874  0.0167  0.2030  0.1328
 2101ntf    fn416395   5.953   3.334   1.870 -0.1704  0.0638  0.4562
 2102ntf    cn116396   5.321   4.809   4.871 -0.2379  0.0630 -0.1951
 2102ntf    sn216397   5.415   4.668   4.805 -0.0551  0.1369 -0.0923
 2102ntf    nn316398   5.522   4.661   4.919  0.0541 -0.1158 -0.2100
 2102ntf    sn216399   5.538   4.553   5.032 -0.2109  0.1167  0.0538
 2102ntf    cn116400   5.624   4.417   4.946 -0.1557  0.3362 -0.2419
 2102ntf    fn416401   5.245   4.871   4.782 -0.5508  0.0570  0.0628
 2102ntf    fn416402   5.238   4.792   4.973 -0.0622 -0.8397 -0.1951
 2102ntf    fn416403   5.406   4.902   4.910 -0.4105  0.1176  0.0565
 2102ntf    on516404   5.312   4.568   4.794 -0.1077  0.2293 -0.4477
 2102ntf    on516405   5.470   4.732   4.688 -0.4091  0.0370 -0.3153
 2102ntf    on516406   5.416   4.492   5.078 -0.2369  0.2717  0.1881
 2102ntf    on516407   5.633   4.600   5.129 -0.2091  0.3521 -0.0630
 2102ntf    fn416408   5.751   4.443   4.921 -0.0194 -0.1732 -0.0908
 2102ntf    fn416409   5.623   4.299   5.007 -0.3122  0.3197 -0.2733
 2102ntf    fn416410   5.571   4.381   4.830  0.8608 -0.3334 -0.5122
 2103ntf    cn116411   6.562   3.219   4.848 -0.1337 -0.1329  0.0460
 2103ntf    sn216412   6.396   3.152   4.817 -0.1482 -0.0007 -0.1618
 2103ntf    nn316413   6.310   3.262   4.889  0.3450  0.4858 -0.3097
 2103ntf    sn216414   6.291   3.416   4.861  0.0543  0.6220  0.6142
 2103ntf    cn116415   6.332   3.489   5.022 -0.2514  0.3149  0.8346
 2103ntf    fn416416   6.560   3.287   4.961 -0.8066 -0.2225  0.0883
 2103ntf    fn416417   6.658   3.128   4.858 -0.4665 -0.5240 -0.3009
 2103ntf    fn416418   6.594   3.299   4.747 -0.2850 -0.6835 -0.4460
 2103ntf    on516419   6.391   3.148   4.673  0.0783 -1.0527 -0.1433
 2103ntf    on516420   6.400   3.024   4.883 -0.8069  0.0926  0.0615
 2103ntf    on516421   6.148   3.433   4.859 -0.0389 -0.1663 -0.2663
 2103ntf    on516422   6.369   3.484   4.761 -0.0441 -0.0530  0.0674
 2103ntf    fn416423   6.264   3.443   5.126 -0.3222 -0.5708  0.4006
 2103ntf    fn416424   6.459   3.478   5.058  0.0698 -0.2889 -0.4317
 2103ntf    fn416425   6.300   3.617   5.005 -0.0761  0.2259 -0.2121
 2104ntf    cn116426   1.047   6.209   6.920 -0.2697 -0.4726  0.0088
 2104ntf    sn216427   0.996   6.041   6.874  0.0772 -0.5814  0.0148
 2104ntf    nn316428   0.840   6.038   6.891  0.1039  0.3169  0.4502
 2104ntf    sn216429   0.730   5.961   6.811  0.2825  0.6215 -0.0965
 2104ntf    cn116430   0.591   6.068   6.860  0.1480  0.2221  0.4076
 2104ntf    fn416431   0.990   6.308   6.853  0.2284  0.0619  0.3578
 2104ntf    fn416432   1.028   6.236   7.049 -0.1456 -0.1098 -0.0456
 2104ntf    fn416433   1.176   6.230   6.899 -0.1613 -0.4610  0.6577
 2104ntf    on516434   1.046   6.031   6.739  0.0292 -0.9277  0.0233
 2104ntf    on516435   1.068   5.969   6.975  0.0624  0.0618  0.4880
 2104ntf    on516436   0.701   5.827   6.858  0.6473  0.2921 -0.7868
 2104ntf    on516437   0.739   5.992   6.671  0.1824  0.5370 -0.1221
 2104ntf    fn416438   0.481   6.025   6.800 -0.0481  0.2252  0.7673
 2104ntf    fn416439   0.555   6.067   6.987  0.3104 -0.0316  0.4542
 2104ntf    fn416440   0.608   6.194   6.826 -1.0394  0.2726 -0.0506
 2105ntf    cn116441   2.227   4.443   2.489  0.3541  0.1109  0.2578
 2105ntf    sn216442   2.095   4.344   2.566  0.0586  0.1831 -0.1479
 2105ntf    nn316443   2.135   4.348   2.718  0.0427  0.0295 -0.1393
 2105ntf    sn216444   2.172   4.241   2.826 -0.1195 -0.0994 -0.2123
 2105ntf    cn116445   2.350   4.252   2.795 -0.1522  0.0206 -0.3596
 2105ntf    fn416446   2.236   4.437   2.357  0.0165  0.4368  0.2214
 2105ntf    fn416447   2.227   4.574   2.508 -0.2024  0.2490 -0.6497
 2105ntf    fn416448   2.344   4.395   2.529  0.2280 -0.0744  0.4063
 2105ntf    on516449   1.975   4.421   2.546 -0.5694 -0.8857 -0.5074
 2105ntf    on516450   2.102   4.213   2.507  0.4716  0.0743  0.1350
 2105ntf    on516451   2.137   4.102   2.806  0.6230 -0.3435  0.1340
 2105ntf    on516452   2.153   4.294   2.959 -0.2913 -0.4512 -0.0950
 2105ntf    fn416453   2.375   4.380   2.772 -0.7329  0.2559  0.2730
 2105ntf    fn416454   2.422   4.210   2.898  0.3976  0.7942 -0.4180
 2105ntf    fn416455   2.386   4.184   2.687 -0.0138 -0.3356 -0.0913
 2106ntf    cn116456   0.795   0.455   6.459  0.4031 -0.3462 -0.3002
 2106ntf    sn216457   0.621   0.413   6.492  0.3421 -0.1515 -0.3701
 2106ntf    nn316458   0.609   0.269   6.430  0.4592 -0.2123 -0.2521
 2106ntf    sn216459   0.501   0.188   6.350 -0.0530 -0.2008  0.4161
 2106ntf    cn116460   0.445   0.084   6.489 -0.1687 -0.1073  0.4395
 2106ntf    fn416461   0.806   0.468   6.328 -0.1657 -0.0385 -0.3230
 2106ntf    fn416462   0.830   0.571   6.512 -0.0040 -0.2996 -0.1290
 2106ntf    fn416463   0.873   0.358   6.502  0.1041 -0.3177  0.3165
 2106ntf    on516464   0.613   0.403   6.635  0.6454  0.4736 -0.3053
 2106ntf    on516465   0.544   0.515   6.426 -0.5933 -0.7012 -0.1481
 2106ntf    on516466   0.557   0.089   6.262  0.2584  0.3308  0.0095
 2106ntf    on516467   0.383   0.254   6.298 -0.1922 -0.3729  0.5112
 2106ntf    fn416468   0.547   0.022   6.545 -0.0881 -0.2815  0.0994
 2106ntf    fn416469   0.379   0.153   6.580  0.3599  1.0227 -0.0093
 2106ntf    fn416470   0.364  -0.013   6.451 -0.3336  0.2404 -0.1097
 2107ntf    cn116471   6.209   3.198   5.956 -0.0961  0.0428 -0.2275
 2107ntf    sn216472   6.380   3.143   5.930 -0.0859  0.0169 -0.1083
 2107ntf    nn316473   6.410   3.245   5.814 -0.5303 -0.1374 -0.3606
 2107ntf    sn216474   6.529   3.225   5.713 -0.3804 -0.2443 -0.1629
 2107ntf    cn116475   6.614   3.385   5.725  0.3264 -0.6522  0.3289
 2107ntf    fn416476   6.134   3.103   6.010  0.1595 -0.0326 -0.0040
 2107ntf    fn416477   6.202   3.302   6.037  0.2539  0.5018 -0.7763
 2107ntf    fn416478   6.138   3.245   5.855 -0.2315 -0.1141 -0.2054
 2107ntf    on516479   6.452   3.169   6.052  0.0440  0.3106 -0.2447
 2107ntf    on516480   6.363   3.009   5.881 -0.8915  0.1886 -0.3123
 2107ntf    on516481   6.473   3.230   5.580  0.6048  0.1881 -0.5726
 2107ntf    on516482   6.636   3.131   5.736 -0.5957 -0.5161 -0.2765
 2107ntf    fn416483   6.525   3.482   5.711  0.4679 -0.5221  0.3166
 2107ntf    fn416484   6.676   3.398   5.842  0.5894 -0.6780  0.1936
 2107ntf    fn416485   6.709   3.400   5.634  0.0627 -0.5990  0.0618
 2108ntf    cn116486   2.109   4.879   0.986  0.4047  0.3617 -0.4465
 2108ntf    sn216487   1.986   4.886   0.852 -0.1220  0.2197  0.0260
 2108ntf    nn316488   1.997   5.042   0.836 -0.1207  0.1774 -0.4035
 2108ntf    sn216489   1.873   5.137   0.851 -0.2418 -0.0464  0.0464
 2108ntf    cn116490   1.773   5.104   0.702 -0.0871  0.5160 -0.1836
 2108ntf    fn416491   2.069   4.927   1.102  0.1118 -0.0795 -0.3625
 2108ntf    fn416492   2.136   4.752   1.012 -0.4493  0.1848 -0.3779
 2108ntf    fn416493   2.215   4.950   0.951  0.4815  0.2255 -0.4944
 2108ntf    on516494   2.056   4.828   0.740 -0.4539 -0.1597  0.0137
 2108ntf    on516495   1.871   4.819   0.908  0.4022 -0.3559  0.4436
 2108ntf    on516496   1.913   5.274   0.836 -0.2933 -0.0528 -0.1579
 2108ntf    on516497   1.787   5.115   0.965 -0.5906  0.1547 -0.1763
 2108ntf    fn416498   1.655   5.160   0.719 -0.4892 -0.2268 -0.4896
 2108ntf    fn416499   1.825   5.162   0.595 -0.6564  0.2792 -0.5960
 2108ntf    fn416500   1.746   4.977   0.678  0.3140  0.3999 -0.0240
 2109ntf    cn116501   6.525   0.804   0.237  0.0989  0.0744  0.3594
 2109ntf    sn216502   6.625   0.813   0.388  0.3346  0.0842  0.2028
 2109ntf    nn316503   6.554   0.701   0.471  0.0946  0.4819  0.5368
 2109ntf    sn216504   6.603   0.568   0.539 -0.0193  0.0621 -0.1893
 2109ntf    cn116505   6.572   0.606   0.714 -0.0672 -0.2426 -0.1310
 2109ntf    fn416506   6.395   0.810   0.263  0.0698  0.1327  0.2030
 2109ntf    fn416507   6.562   0.907   0.163  0.6710  0.1134  0.6927
 2109ntf    fn416508   6.543   0.694   0.165  0.2336  0.3382 -0.0155
 2109ntf    on516509   6.761   0.786   0.347  0.3665  0.5363  0.0091
 2109ntf    on516510   6.599   0.944   0.442 -0.6048 -0.1941  0.4451
 2109ntf    on516511   6.744   0.543   0.531 -0.0915 -0.4535  0.0942
 2109ntf    on516512   6.513   0.458   0.514 -0.1139  0.1411 -0.2006
 2109ntf    fn416513   6.681   0.620   0.788 -0.5923  0.1461  0.5698
 2109ntf    fn416514   6.495   0.712   0.734  0.5418  0.2926 -0.5828
 2109ntf    fn416515   6.514   0.501   0.770  0.1663 -0.0853  0.4200
 2110ntf    cn116516   3.692   6.371   6.914 -0.0432  0.1125  0.0712
 2110ntf    sn216517   3.668   6.460   7.071 -0.1434  0.0250  0.1054
 2110ntf    nn316518   3.582   6.354   7.149 -0.1951 -0.0846 -0.0999
 2110ntf    sn216519   3.450   6.383   7.229 -0.1684  0.0317 -0.0986
 2110ntf    cn116520   3.430   6.237   7.336 -0.3683 -0.0847 -0.2951
 2110ntf    fn416521   3.744   6.447   6.819 -0.1383 -0.2092 -0.2377
 2110ntf    fn416522   3.775   6.268   6.910 -0.7153 -0.4376  0.1369
 2110ntf    fn416523   3.579   6.331   6.858  0.0051 -0.5157  0.4211
 2110ntf    on516524   3.802   6.462   7.124  0.0310  0.1826 -0.3393
 2110ntf    on516525   3.605   6.583   7.032 -0.1897 -0.1054 -0.2313
 2110ntf    on516526   3.335   6.377   7.142 -0.1277  0.9993 -0.2284
 2110ntf    on516527   3.447   6.489   7.327 -0.5243 -0.0489 -0.0221
 2110ntf    fn416528   3.513   6.230   7.438  0.6163  0.0736 -1.0732
 2110ntf    fn416529   3.306   6.236   7.382 -0.0551 -0.6288  0.5415
 2110ntf    fn416530   3.444   6.122   7.273 -0.7902 -0.1978 -0.1850
 2111ntf    cn116531   1.311   1.783   1.721  0.6531  0.6088 -0.0749
 2111ntf    sn216532   1.248   1.897   1.594  0.0145  0.1191 -0.2026
 2111ntf    nn316533   1.251   1.802   1.469  0.3766 -0.1965  0.0446
 2111ntf    sn216534   1.184   1.662   1.448 -0.1518  0.0526  0.0525
 2111ntf    cn116535   1.077   1.723   1.314 -0.3157 -0.6589 -0.1467
 2111ntf    fn416536   1.417   1.715   1.680  0.2332 -0.1701  0.1148
 2111ntf    fn416537   1.332   1.843   1.836 -0.5052  0.0455  0.4383
 2111ntf    fn416538   1.218   1.694   1.750  0.6609  0.3430 -0.8364
 2111ntf    on516539   1.116   1.937   1.639 -0.1641 -0.3233 -0.3357
 2111ntf    on516540   1.338   2.009   1.581  0.0790  0.0550 -0.3031
 2111ntf    on516541   1.092   1.602   1.541 -0.2360  0.5399  0.2833
 2111ntf    on516542   1.270   1.572   1.374 -0.2314  0.1939 -0.2161
 2111ntf    fn416543   1.150   1.739   1.204 -0.3794  0.0368 -0.0961
 2111ntf    fn416544   0.978   1.637   1.297 -0.5797 -0.3963  0.0581
 2111ntf    fn416545   1.024   1.839   1.349  0.2645 -0.2827 -0.4876
 2112ntf    cn116546   0.381   4.734   0.525  0.2310  0.2847  0.4368
 2112ntf    sn216547   0.558   4.727   0.483  0.1083 -0.0419 -0.0311
 2112ntf    nn316548   0.596   4.878   0.470 -0.0453  0.0171  0.2048
 2112ntf    sn216549   0.654   4.980   0.575 -0.0303  0.1105  0.1057
 2112ntf    cn116550   0.834   4.960   0.558  0.0127  0.1618  0.5137
 2112ntf    fn416551   0.301   4.778   0.428 -0.2829 -0.1349  0.6669
 2112ntf    fn416552   0.329   4.620   0.568 -0.1881  0.2714 -0.0829
 2112ntf    fn416553   0.365   4.821   0.623  0.0901  0.0804  0.5957
 2112ntf    on516554   0.604   4.665   0.604 -0.1766  0.3389  0.2745
 2112ntf    on516555   0.562   4.645   0.364 -0.2678  0.5146 -0.4312
 2112ntf    on516556   0.628   4.948   0.713 -0.0401 -0.7273 -0.0878
 2112ntf    on516557   0.635   5.117   0.533  0.0847  0.1353  0.1332
 2112ntf    fn416558   0.897   5.057   0.623 -0.3590  0.5557  0.2914
 2112ntf    fn416559   0.880   4.841   0.594  0.1474 -0.0400 -0.3130
 2112ntf    fn416560   0.871   4.973   0.432 -0.5912  0.0557  0.3235
 2113ntf    cn116561   3.048   3.444   1.790  0.0143  0.4383 -0.4288
 2113ntf    sn216562   3.091   3.268   1.811 -0.5384  0.3529  0.0192
 2113ntf    nn316563   3.165   3.281   1.949 -0.3905  0.7536 -0.0931
 2113ntf    sn216564   3.113   3.266   2.097  0.1892 -0.3891  0.0083
 2113ntf    cn116565   3.159   3.095   2.137  0.6794 -0.1940  0.2859
 2113ntf    fn416566   2.980   3.481   1.897  0.2854 -0.2164 -0.0226
 2113ntf    fn416567   3.156   3.520   1.787 -0.1376  0.6748  0.0107
 2113ntf    fn416568   2.980   3.461   1.678 -0.2743 -0.6630 -0.4364
 2113ntf    on516569   2.968   3.194   1.804 -0.0208 -0.4880 -0.3560
 2113ntf    on516570   3.185   3.250   1.703 -0.8985 -0.2560 -0.1939
 2113ntf    on516571   2.970   3.280   2.114  0.1795 -0.0692 -0.3161
 2113ntf    on516572   3.190   3.354   2.180 -0.0236  0.1524 -0.3562
 2113ntf    fn416573   3.109   3.067   2.256  0.2350 -0.5868  0.0117
 2113ntf    fn416574   3.103   3.002   2.060 -0.1859  0.4594  0.1121
 2113ntf    fn416575   3.289   3.073   2.145  0.7569  0.3791  0.6049
 2114ntf    cn116576   4.761   2.194   5.721  0.2558 -0.2095 -0.1066
 2114ntf    sn216577   4.656   2.269   5.593  0.1850 -0.0759  0.0304
 2114ntf    nn316578   4.602   2.389   5.678  0.6724  0.2834 -0.1631
 2114ntf    sn216579   4.674   2.516   5.737  0.0481  0.4231  0.3065
 2114ntf    cn116580   4.566   2.657   5.695  0.0013  0.2857 -0.0421
 2114ntf    fn416581   4.860   2.272   5.761 -0.0865  0.1721 -0.0018
 2114ntf    fn416582   4.689   2.161   5.827 -0.2596  0.1865 -0.3306
 2114ntf    fn416583   4.814   2.076   5.691  0.1843 -0.3118  0.1682
 2114ntf    on516584   4.744   2.306   5.485 -0.1286  0.1578 -0.1443
 2114ntf    on516585   4.566   2.160   5.563  0.3555 -0.0401 -0.6188
 2114ntf    on516586   4.804   2.543   5.682 -0.0484  0.2897  0.0093
 2114ntf    on516587   4.658   2.509   5.880  0.7899 -0.3774  0.3563
 2114ntf    fn416588   4.596   2.772   5.754  0.4627  0.0849  0.1231
 2114ntf    fn416589   4.562   2.674   5.564  0.0902  0.4178 -0.0276
 2114ntf    fn416590   4.439   2.640   5.726 -0.1676 -0.2859 -1.0399
 2115ntf    cn116591   6.715   0.068   2.030 -0.3133 -0.0627 -0.1086
 2115ntf    sn216592   6.872   0.147   1.982 -0.0459 -0.4683  0.0915
 2115ntf    nn316593   6.973   0.033   2.021 -0.2493 -0.6848 -0.0053
 2115ntf    sn216594   7.078   0.028   2.138 -0.1776 -0.2236 -0.0491
 2115ntf    cn116595   6.984  -0.067   2.260 -0.2745  0.1156  0.1437
 2115ntf    fn416596   6.730  -0.022   2.126 -0.1716 -0.2778 -0.3300
 2115ntf    fn416597   6.619   0.152   2.063 -0.5583 -0.3681 -0.0458
 2115ntf    fn416598   6.668  -0.010   1.934 -0.5904 -0.9016  0.6889
 2115ntf    on516599   6.862   0.161   1.838 -0.5565  0.1870  0.1884
 2115ntf    on516600   6.888   0.269   2.057 -0.1856 -0.2329 -0.2595
 2115ntf    on516601   7.117   0.153   2.200  0.0282 -0.3123  0.0016
 2115ntf    on516602   7.185  -0.059   2.096  0.1649  0.0200  0.3154
 2115ntf    fn416603   6.926  -0.174   2.207  0.4901 -0.2947  0.1148
 2115ntf    fn416604   7.075  -0.112   2.345  0.1176 -0.3421 -0.5073
 2115ntf    fn416605   6.892   0.006   2.321 -0.2440  0.0477  0.2725
 2116ntf    cn116606   0.008   1.116   3.702 -0.1019  0.0834  0.3051
 2116ntf    sn216607   0.067   1.009   3.836 -0.0607 -0.0302  0.1962
 2116ntf    nn316608   0.029   0.866   3.784  0.3969 -0.1170  0.0981
 2116ntf    sn216609  -0.066   0.762   3.852 -0.3085  0.3502 -0.1644
 2116ntf    cn116610   0.052   0.642   3.920 -0.3464  0.3178 -0.1545
 2116ntf    fn416611   0.061   1.238   3.698  0.2341 -0.0602  0.3899
 2116ntf    fn416612   0.035   1.059   3.586 -0.2563  0.1499  0.2358
 2116ntf    fn416613  -0.124   1.132   3.702 -0.1603 -0.3804 -0.3310
 2116ntf    on516614   0.210   1.031   3.836 -0.0628 -0.0204 -0.1577
 2116ntf    on516615  -0.019   1.050   3.945 -0.7068  0.0686 -0.3485
 2116ntf    on516616  -0.118   0.675   3.750 -0.6020 -0.2160  0.4576
 2116ntf    on516617  -0.153   0.795   3.963 -0.7090  0.4165 -0.4958
 2116ntf    fn416618  -0.016   0.535   3.958  0.3525  0.1280  0.5938
 2116ntf    fn416619   0.152   0.605   3.841 -0.3321  0.8013 -0.3650
 2116ntf    fn416620   0.104   0.688   4.033 -0.2632 -0.7337  0.2454
 2117ntf    cn116621   4.204   3.933   6.538  0.1315 -0.6744 -0.1288
 2117ntf    sn216622   4.164   3.973   6.710 -0.5236 -0.1848 -0.3887
 2117ntf    nn316623   4.195   4.127   6.714 -0.3535 -0.2283  0.0877
 2117ntf    sn216624   4.130   4.235   6.622 -0.1611 -0.1362  0.0594
 2117ntf    cn116625   4.152   4.381   6.729  0.1605  0.0000 -0.1913
 2117ntf    fn416626   4.206   3.805   6.505 -0.0616 -0.5863 -0.4977
 2117ntf    fn416627   4.102   3.973   6.464  0.0193 -0.1373  0.3168
 2117ntf    fn416628   4.317   3.984   6.491 -0.2477  0.0365 -0.2775
 2117ntf    on516629   4.028   3.933   6.737 -0.2165 -0.6613  0.5345
 2117ntf    on516630   4.260   3.895   6.785  0.3090  1.1688 -0.0216
 2117ntf    on516631   3.987   4.237   6.599  0.0004 -1.1169 -1.1741
 2117ntf    on516632   4.209   4.261   6.504  0.0624  0.4980  0.3439
 2117ntf    fn416633   4.110   4.488   6.663 -0.0785  0.0621  0.0630
 2117ntf    fn416634   4.093   4.379   6.847  0.1466  0.3680 -0.1908
 2117ntf    fn416635   4.279   4.402   6.760  0.1426  0.0394 -0.1465
 2118ntf    cn116636   0.231   3.342   1.108  0.1049 -0.2323  0.2671
 2118ntf    sn216637   0.070   3.330   1.192 -0.0084  0.2284  0.1192
 2118ntf    nn316638   0.014   3.189   1.151  0.1310  0.1259  0.2792
 2118ntf    sn216639   0.010   3.058   1.238  0.3520  0.2364  0.4569
 2118ntf    cn116640  -0.152   3.070   1.319 -0.0469 -0.6896 -0.1738
 2118ntf    fn416641   0.300   3.231   1.127 -0.0122 -0.3857 -0.1880
 2118ntf    fn416642   0.213   3.369   0.980 -0.3073  0.6823  0.5123
 2118ntf    fn416643   0.295   3.445   1.160  0.0127  0.0001 -0.0743
 2118ntf    on516644   0.097   3.353   1.332 -0.3477 -0.1425  0.2493
 2118ntf    on516645  -0.013   3.434   1.137  0.5678  0.4186 -0.4048
 2118ntf    on516646   0.111   3.039   1.339  0.1962 -0.2609  0.5196
 2118ntf    on516647  -0.008   2.943   1.153  0.0179  0.4313  0.2622
 2118ntf    fn416648  -0.196   2.954   1.363  0.4212 -0.8706 -0.1722
 2118ntf    fn416649  -0.149   3.154   1.422 -0.1345  0.0731 -0.7808
 2118ntf    fn416650  -0.250   3.113   1.242 -0.0268  0.3595  0.3604
 2119ntf    cn116651   6.232   2.182   6.428 -0.4825  0.2538 -0.0746
 2119ntf    sn216652   6.090   2.204   6.539 -0.3725  0.1453  0.0864
 2119ntf    nn316653   6.014   2.321   6.468 -0.4295  0.1788  0.2012
 2119ntf    sn216654   5.891   2.305   6.371 -0.4101  0.0805  0.1930
 2119ntf    cn116655   5.964   2.246   6.215 -0.4427  0.0207  0.2005
 2119ntf    fn416656   6.304   2.072   6.442 -0.4831  0.2868  0.1932
 2119ntf    fn416657   6.203   2.187   6.299 -0.6633  0.8092 -0.0156
 2119ntf    fn416658   6.318   2.282   6.437 -0.1215 -0.1207  0.6589
 2119ntf    on516659   6.027   2.075   6.525  0.1997 -0.1525  0.2215
 2119ntf    on516660   6.140   2.241   6.669 -0.1749  0.2070 -0.0067
 2119ntf    on516661   5.837   2.434   6.334  0.1771  0.4485  0.6086
 2119ntf    on516662   5.799   2.197   6.394  0.2667 -0.5555 -0.0286
 2119ntf    fn416663   5.883   2.263   6.112  0.0329  0.4758 -0.1055
 2119ntf    fn416664   6.073   2.319   6.194 -0.0558 -0.6984 -0.3279
 2119ntf    fn416665   6.007   2.121   6.216  0.2767  0.2610 -0.0249
 2120ntf    cn116666   6.375   3.105   0.355 -0.3997 -0.0557 -0.0225
 2120ntf    sn216667   6.319   3.042   0.194  0.3387 -0.2537 -0.2076
 2120ntf    nn316668   6.377   3.151   0.097  0.0636 -0.2255 -0.3425
 2120ntf    sn216669   6.336   3.187  -0.050 -0.2593 -0.3670 -0.2860
 2120ntf    cn116670   6.313   3.365  -0.023  0.1822 -0.3450 -0.0516
 2120ntf    fn416671   6.502   3.138   0.369 -0.3817 -0.0531 -0.1900
 2120ntf    fn416672   6.300   3.203   0.402 -0.0564  0.1889  0.0185
 2120ntf    fn416673   6.371   3.009   0.446  0.5281 -0.1280 -0.0502
 2120ntf    on516674   6.390   2.917   0.186 -0.4608 -0.7065 -0.3323
 2120ntf    on516675   6.175   3.029   0.199  0.2564  0.7228  0.1223
 2120ntf    on516676   6.206   3.139  -0.092 -0.5429  0.4884 -0.3942
 2120ntf    on516677   6.433   3.171  -0.155 -0.5315  0.3909 -0.6619
 2120ntf    fn416678   6.424   3.425   0.015 -0.1346  0.4431 -0.3367
 2120ntf    fn416679   6.261   3.423  -0.131  0.4598  0.1496  0.0774
 2120ntf    fn416680   6.236   3.392   0.080  0.2316 -0.0847 -0.0827
 2121ntf    cn116681   5.624   3.562   4.983  0.2551 -0.2159  0.1193
 2121ntf    sn216682   5.773   3.667   4.989  0.0462  0.0584  0.5094
 2121ntf    nn316683   5.705   3.808   4.986  0.0194  0.0379  0.1510
 2121ntf    sn216684   5.691   3.916   5.099  0.1462  0.1412  0.0687
 2121ntf    cn116685   5.824   4.030   5.047  0.0528  0.1644 -0.1195
 2121ntf    fn416686   5.551   3.597   4.879  0.8372 -0.3567 -0.3447
 2121ntf    fn416687   5.643   3.431   4.972 -0.1660 -0.1899 -1.0285
 2121ntf    fn416688   5.559   3.584   5.096 -0.1774  0.0304 -0.1776
 2121ntf    on516689   5.845   3.630   5.108  0.3927 -0.2176  0.2179
 2121ntf    on516690   5.843   3.632   4.868 -0.4694  0.2134  0.1634
 2121ntf    on516691   5.748   3.877   5.225  0.1411  0.1935  0.0873
 2121ntf    on516692   5.572   3.997   5.103 -0.1671 -0.3058 -0.1243
 2121ntf    fn416693   5.852   4.117   5.141  0.5206  0.0487 -0.1531
 2121ntf    fn416694   5.937   3.977   5.003  0.1114 -0.0104  0.2356
 2121ntf    fn416695   5.776   4.106   4.949 -0.2783 -0.1006 -0.1686
 2122ntf    cn116696   3.504   5.271   5.085  0.0688  0.1423 -0.0249
 2122ntf    sn216697   3.624   5.309   5.217 -0.0836  0.1753  0.1040
 2122ntf    nn316698   3.534   5.275   5.341 -0.0386  0.2207  0.1492
 2122ntf    sn216699   3.573   5.233   5.488  0.1825  0.5386  0.1826
 2122ntf    cn116700   3.444   5.320   5.582  0.2124  0.2803  0.4608
 2122ntf    fn416701   3.392   5.341   5.097 -0.3680 -0.5959  0.2691
 2122ntf    fn416702   3.542   5.298   4.961 -0.0857 -0.5137 -0.2191
 2122ntf    fn416703   3.468   5.144   5.089  0.7046 -0.0392  0.1339
 2122ntf    on516704   3.727   5.213   5.190 -0.4350 -0.1643 -0.0426
 2122ntf    on516705   3.652   5.450   5.202  0.2459  0.0655 -0.3210
 2122ntf    on516706   3.700   5.289   5.527  0.7555 -0.1442 -0.6630
 2122ntf    on516707   3.541   5.097   5.521  0.3356  0.2689 -0.7564
 2122ntf    fn416708   3.322   5.291   5.541  0.4607  0.5112 -0.4600
 2122ntf    fn416709   3.451   5.292   5.711 -0.0714  0.1597  0.4509
 2122ntf    fn416710   3.461   5.448   5.554 -0.0749  0.2263  0.0342
 2123ntf    cn116711   3.512   3.179   1.995 -0.0252 -0.0119 -0.0717
 2123ntf    sn216712   3.665   3.272   1.963 -0.0634 -0.0435 -0.3532
 2123ntf    nn316713   3.752   3.164   1.889 -0.3249 -0.1080 -0.5681
 2123ntf    sn216714   3.786   3.152   1.736  0.0382  0.2996 -0.5226
 2123ntf    cn116715   3.860   2.986   1.727 -0.0517  0.2347 -0.1114
 2123ntf    fn416716   3.441   3.165   1.884 -0.6028  0.7354  0.1909
 2123ntf    fn416717   3.544   3.066   2.055 -0.2355 -0.1202 -0.1604
 2123ntf    fn416718   3.431   3.236   2.082 -0.1883 -0.8305  0.3107
 2123ntf    on516719   3.622   3.375   1.872 -0.3168  0.6864  0.5765
 2123ntf    on516720   3.718   3.308   2.092 -0.1295 -0.5094 -0.1930
 2123ntf    on516721   3.898   3.236   1.704  0.1644  0.0579 -0.7224
 2123ntf    on516722   3.673   3.147   1.647 -0.2548 -0.0658 -0.1357
 2123ntf    fn416723   3.788   2.887   1.776 -0.4839  0.6112  0.0115
 2123ntf    fn416724   3.903   2.940   1.611 -0.2237 -0.5462  0.1291
 2123ntf    fn416725   3.965   2.985   1.808 -0.1598 -0.6793  0.0263
 2124ntf    cn116726   3.113   2.696   3.525 -0.2282 -0.2112  0.2324
 2124ntf    sn216727   3.192   2.855   3.561 -0.1669 -0.0744 -0.4873
 2124ntf    nn316728   3.321   2.800   3.633 -0.4301  0.0433  0.0771
 2124ntf    sn216729   3.411   2.887   3.728 -0.1662 -0.0456 -0.0934
 2124ntf    cn116730   3.346   2.847   3.892  0.4731 -0.1675  0.1339
 2124ntf    fn416731   3.108   2.614   3.629 -0.0518 -0.2862  0.1835
 2124ntf    fn416732   2.988   2.710   3.484 -0.2401  0.0557  0.3599
 2124ntf    fn416733   3.165   2.620   3.429 -0.2959 -0.1177  0.1218
 2124ntf    on516734   3.219   2.908   3.429  0.9801  0.1191 -0.1878
 2124ntf    on516735   3.093   2.924   3.640 -0.1872 -0.3422 -0.2789
 2124ntf    on516736   3.412   3.031   3.719  0.4775 -0.0525 -0.2165
 2124ntf    on516737   3.545   2.835   3.741 -0.1087  0.1513  0.1047
 2124ntf    fn416738   3.432   2.850   3.993 -0.1599 -0.8805  0.7111
 2124ntf    fn416739   3.232   2.913   3.911  0.5212 -0.0630  0.0615
 2124ntf    fn416740   3.300   2.723   3.892 -0.0398  0.0182  0.4516
 2125ntf    cn116741   4.297   0.713   5.888 -0.0802 -0.6802 -0.6501
 2125ntf    sn216742   4.184   0.803   5.998  0.4894 -0.2907 -0.3770
 2125ntf    nn316743   4.155   0.932   5.914  0.4262 -0.1408 -0.1263
 2125ntf    sn216744   4.025   1.003   5.861  0.5498  0.3036  0.1563
 2125ntf    cn116745   4.096   1.135   5.758  0.0805  0.5681  0.1703
 2125ntf    fn416746   4.306   0.583   5.914  0.9841 -0.4552  0.1870
 2125ntf    fn416747   4.255   0.721   5.763 -0.1557 -0.1610 -0.5903
 2125ntf    fn416748   4.420   0.760   5.891 -0.1652 -0.5009  0.6903
 2125ntf    on516749   4.076   0.709   6.015  0.0360  0.3138  0.1308
 2125ntf    on516750   4.259   0.838   6.116 -0.2358 -0.2922  0.0935
 2125ntf    on516751   3.951   1.078   5.959 -0.5113 -0.3081 -0.1573
 2125ntf    on516752   3.947   0.911   5.782  0.1135  0.5822  0.2633
 2125ntf    fn416753   4.007   1.228   5.730 -0.5121 -0.0179  0.0835
 2125ntf    fn416754   4.198   1.198   5.814  0.0325  0.1898  0.6985
 2125ntf    fn416755   4.156   1.083   5.652 -0.0591  0.3887  0.1784
 2126ntf    cn116756   4.368   1.091   4.477 -0.0905 -0.0940  0.1825
 2126ntf    sn216757   4.517   1.158   4.397  0.1842 -0.3594  0.4683
 2126ntf    nn316758   4.473   1.308   4.382  0.2787 -0.3548  0.2355
 2126ntf    sn216759   4.562   1.437   4.377 -0.1815 -0.0313  0.3397
 2126ntf    cn116760   4.540   1.498   4.546 -0.2217 -0.0929  0.3561
 2126ntf    fn416761   4.308   1.169   4.564 -0.4137 -0.1122 -0.0205
 2126ntf    fn416762   4.271   1.074   4.388 -0.3677  0.3859  0.3925
 2126ntf    fn416763   4.390   0.974   4.536 -0.3614 -0.2850 -0.0872
 2126ntf    on516764   4.622   1.132   4.493  0.7121  0.0324  0.0023
 2126ntf    on516765   4.527   1.085   4.273  0.0612 -0.0024  0.2488
 2126ntf    on516766   4.499   1.535   4.292  0.3887 -0.2703 -0.3700
 2126ntf    on516767   4.704   1.421   4.358 -0.2279  0.4114 -0.4324
 2126ntf    fn416768   4.416   1.501   4.592 -0.3386 -0.3831  0.0638
 2126ntf    fn416769   4.601   1.410   4.623 -0.1507 -0.3095  0.0525
 2126ntf    fn416770   4.593   1.617   4.568  0.2328 -0.2797  0.2891
 2127ntf    cn116771   6.796   3.028   4.319 -0.0968 -0.0304 -0.2395
 2127ntf    sn216772   6.738   3.161   4.429  0.3281 -0.0042 -0.0468
 2127ntf    nn316773   6.822   3.281   4.373 -0.1641  0.1823 -0.3878
 2127ntf    sn216774   6.890   3.407   4.437  0.3152 -0.0817 -0.3666
 2127ntf    cn116775   7.057   3.410   4.367  0.2811  0.1128 -0.4423
 2127ntf    fn416776   6.728   2.916   4.331  0.1287 -0.1370  0.0475
 2127ntf    fn416777   6.773   3.054   4.191  0.5387 -0.1160 -0.3737
 2127ntf    fn416778   6.926   3.004   4.329 -0.1022  0.0397  0.0113
 2127ntf    on516779   6.597   3.165   4.400  0.2264 -0.0333  0.4400
 2127ntf    on516780   6.772   3.117   4.562 -0.0238  1.1386  0.4306
 2127ntf    on516781   6.919   3.400   4.578 -0.0207 -0.0219 -0.2920
 2127ntf    on516782   6.842   3.529   4.376 -0.5898 -0.2791 -0.0731
 2127ntf    fn416783   7.129   3.303   4.398 -0.0921  0.0795  0.3090
 2127ntf    fn416784   7.048   3.408   4.235  0.0973 -0.1705 -0.4262
 2127ntf    fn416785   7.131   3.514   4.400 -0.0103  0.0430  0.4573
 2128ntf    cn116786   5.508   5.430   0.549  0.0563 -0.3292 -0.4006
 2128ntf    sn216787   5.338   5.403   0.490 -0.1841 -0.2052  0.2301
 2128ntf    nn316788   5.294   5.547   0.448 -0.0546 -0.2390 -0.0259
 2128ntf    sn216789   5.152   5.609   0.476 -0.0095 -0.0572 -0.1972
 2128ntf    cn116790   5.035   5.491   0.402 -0.0642 -0.2953  0.2645
 2128ntf    fn416791   5.589   5.487   0.461 -0.0723  0.7977  0.2016
 2128ntf    fn416792   5.513   5.513   0.652 -0.3913  0.0324 -0.6690
 2128ntf    fn416793   5.562   5.316   0.591 -0.3345 -0.5213 -0.4139
 2128ntf    on516794   5.348   5.316   0.375  0.7022  0.0232  0.1243
 2128ntf    on516795   5.269   5.355   0.608  0.0935 -0.3843  0.3221
 2128ntf    on516796   5.135   5.732   0.403 -0.3657 -0.0158 -0.0447
 2128ntf    on516797   5.118   5.605   0.616 -0.5433 -0.3449 -0.3324
 2128ntf    fn416798   5.061   5.362   0.414 -0.2127 -0.2970  0.5684
 2128ntf    fn416799   4.916   5.507   0.457 -0.0100  0.2586  0.2245
 2128ntf    fn416800   5.016   5.512   0.273  0.0985  0.1134  0.3028
 2129ntf    cn116801   6.845   4.898   4.819  0.1844 -0.1530  0.2008
 2129ntf    sn216802   6.798   4.732   4.760 -0.0570 -0.1032  0.2519
 2129ntf    nn316803   6.942   4.675   4.730 -0.0018  0.3329 -0.3103
 2129ntf    sn216804   7.025   4.554   4.783  0.0303  0.5326  0.0963
 2129ntf    cn116805   7.055   4.451   4.636 -0.1373  0.3395  0.1964
 2129ntf    fn416806   6.766   4.953   4.910 -0.0374 -0.3129  0.1068
 2129ntf    fn416807   6.965   4.909   4.873  0.0951  0.2581  0.3155
 2129ntf    fn416808   6.845   4.992   4.726 -0.1609 -0.1310  0.2195
 2129ntf    on516809   6.732   4.678   4.876 -0.8295  0.1266 -0.0778
 2129ntf    on516810   6.711   4.757   4.648  0.2031 -0.2527  0.0155
 2129ntf    on516811   6.957   4.457   4.866  0.0434  0.2037 -0.2707
 2129ntf    on516812   7.159   4.582   4.826  0.1527  0.1644 -0.0365
 2129ntf    fn416813   7.080   4.325   4.671  0.2403  0.5079  0.5427
 2129ntf    fn416814   6.948   4.446   4.559 -0.0246 -0.3522  0.0750
 2129ntf    fn416815   7.156   4.496   4.564 -0.5119  0.5083 -0.2284
 2130ntf    cn116816   1.321   1.979   4.208  0.1114 -0.1343 -0.1651
 2130ntf    sn216817   1.230   2.008   4.054 -0.7042 -0.3088  0.2777
 2130ntf    nn316818   1.317   2.129   4.007 -0.4913 -0.4018  0.4319
 2130ntf    sn216819   1.266   2.274   3.972  0.1580 -0.2775 -0.0248
 2130ntf    cn116820   1.417   2.317   3.880  0.2316 -0.2475  0.1095
 2130ntf    fn416821   1.309   2.083   4.289 -0.3960 -0.2585 -0.0756
 2130ntf    fn416822   1.280   1.866   4.263 -0.9382  0.2424 -0.1548
 2130ntf    fn416823   1.452   1.971   4.193  0.1552 -0.1884  0.2213
 2130ntf    on516824   1.265   1.890   3.978 -0.1701  0.1680 -0.2324
 2130ntf    on516825   1.090   2.033   4.079 -0.7250 -0.1212 -0.0152
 2130ntf    on516826   1.260   2.365   4.084 -0.6479 -0.1640 -0.1532
 2130ntf    on516827   1.163   2.292   3.873 -0.1346 -0.0990  0.3114
 2130ntf    fn416828   1.422   2.263   3.759  0.3464 -0.1371  0.0655
 2130ntf    fn416829   1.425   2.446   3.852 -0.4694 -0.1307  0.4170
 2130ntf    fn416830   1.520   2.285   3.957  0.2687 -0.5849 -0.0810
 2131ntf    cn116831   3.586   1.283   3.607 -0.0384  0.3752 -0.4628
 2131ntf    sn216832   3.557   1.157   3.478 -0.3304 -0.3382  0.2859
 2131ntf    nn316833   3.478   1.243   3.372  0.0742 -0.4215 -0.0876
 2131ntf    sn216834   3.481   1.218   3.217  0.2072 -0.0994 -0.1364
 2131ntf    cn116835   3.318   1.140   3.202  0.0214  0.2962 -0.2001
 2131ntf    fn416836   3.469   1.340   3.631 -0.2957 -0.4243  0.2230
 2131ntf    fn416837   3.630   1.233   3.721 -0.4366  0.2809 -0.3483
 2131ntf    fn416838   3.672   1.376   3.570  0.3847  0.1191 -0.1326
 2131ntf    on516839   3.689   1.107   3.448 -0.3175  0.0882 -0.4120
 2131ntf    on516840   3.466   1.066   3.541 -0.8830 -0.2163 -0.3221
 2131ntf    on516841   3.571   1.117   3.166  0.0263 -0.2975 -0.0631
 2131ntf    on516842   3.463   1.340   3.143  0.2720 -0.1162 -0.1792
 2131ntf    fn416843   3.335   1.009   3.211 -0.2443  0.2662 -0.1139
 2131ntf    fn416844   3.233   1.168   3.300  0.3691 -0.3202  0.2940
 2131ntf    fn416845   3.262   1.166   3.085  0.5142  0.6264 -0.3665
 2132ntf    cn116846   1.742   6.675   0.252  0.1328  0.4198  0.0446
 2132ntf    sn216847   1.697   6.583   0.402  0.1246  0.3846  0.0204
 2132ntf    nn316848   1.726   6.431   0.372  0.3597  0.3655  0.3436
 2132ntf    sn216849   1.839   6.339   0.429 -0.0677 -0.3151  0.1058
 2132ntf    cn116850   1.760   6.241   0.560 -0.2792 -0.3792 -0.0694
 2132ntf    fn416851   1.711   6.803   0.249  0.3704  0.4854  0.3167
 2132ntf    fn416852   1.873   6.681   0.232  0.1054  0.6799 -0.0656
 2132ntf    fn416853   1.693   6.617   0.144  0.7817  0.3860 -0.2412
 2132ntf    on516854   1.780   6.649   0.499 -0.0021  0.9394 -0.2452
 2132ntf    on516855   1.557   6.616   0.402  0.1616  0.5408  0.4553
 2132ntf    on516856   1.943   6.408   0.501 -0.0395 -0.3341  0.0839
 2132ntf    on516857   1.883   6.237   0.337  0.2553 -0.5552  0.5202
 2132ntf    fn416858   1.728   6.321   0.660  0.6997 -0.6801  0.4960
 2132ntf    fn416859   1.652   6.181   0.514  0.1001 -0.7404 -0.4976
 2132ntf    fn416860   1.837   6.149   0.617  0.3890  0.2591  0.0763
 2133ntf    cn116861   0.608   5.170   6.606  0.2203  0.0596  0.1624
 2133ntf    sn216862   0.715   5.316   6.592 -0.1748  0.3122 -0.2519
 2133ntf    nn316863   0.859   5.253   6.582 -0.2329  0.1645 -0.1681
 2133ntf    sn216864   0.971   5.237   6.691 -0.2511 -0.0488 -0.1817
 2133ntf    cn116865   0.947   5.057   6.699 -0.3071 -0.0612 -0.5994
 2133ntf    fn416866   0.484   5.197   6.569  0.3812 -0.0876 -0.4899
 2133ntf    fn416867   0.648   5.059   6.546  0.3963  0.1858  0.0482
 2133ntf    fn416868   0.599   5.134   6.733  0.5751 -0.2859  0.0909
 2133ntf    on516869   0.673   5.390   6.475 -0.5128  0.6244  0.0680
 2133ntf    on516870   0.694   5.378   6.720  0.3266 -0.0090 -0.0122
 2133ntf    on516871   0.946   5.281   6.826 -0.1816 -0.2866 -0.0893
 2133ntf    on516872   1.102   5.253   6.631  0.0939  0.3579  0.6663
 2133ntf    fn416873   1.043   4.996   6.768 -0.1563  0.8207 -0.0180
 2133ntf    fn416874   0.836   5.013   6.755  0.2287  0.2665  0.7592
 2133ntf    fn416875   0.947   5.009   6.575  0.0362 -0.7018 -0.3591
 2134ntf    cn116876   6.306   4.859   1.946  0.0180 -0.1763  0.1695
 2134ntf    sn216877   6.227   4.826   2.107 -0.4607 -0.0351 -0.0345
 2134ntf    nn316878   6.308   4.914   2.209 -0.0590 -0.0193 -0.3669
 2134ntf    sn216879   6.460   4.892   2.242 -0.1075  0.1812 -0.0066
 2134ntf    cn116880   6.453   4.916   2.422 -0.4874 -0.4658  0.0670
 2134ntf    fn416881   6.434   4.827   1.949  0.0768  0.0485  0.1359
 2134ntf    fn416882   6.246   4.811   1.839  0.0522  0.2874 -0.0602
 2134ntf    fn416883   6.304   4.989   1.922 -0.0427 -0.3118 -0.5713
 2134ntf    on516884   6.095   4.883   2.092 -0.2084  0.5269 -0.1724
 2134ntf    on516885   6.240   4.683   2.121  0.8427  0.0832  0.1087
 2134ntf    on516886   6.531   5.008   2.194  0.6719 -0.4796 -0.4871
 2134ntf    on516887   6.520   4.762   2.222 -0.0261  0.1918  0.1672
 2134ntf    fn416888   6.390   4.812   2.475 -0.3709 -0.7264 -0.3050
 2134ntf    fn416889   6.577   4.918   2.468 -0.3790  0.1296 -0.2515
 2134ntf    fn416890   6.389   5.028   2.452 -0.0533 -0.1809 -0.0760
 2135ntf    cn116891   4.854   6.588   5.223 -0.6652 -0.3302 -0.2093
 2135ntf    sn216892   4.837   6.756   5.155 -0.1396  0.0169  0.4989
 2135ntf    nn316893   4.827   6.712   5.005  0.5123 -0.3277  0.5555
 2135ntf    sn216894   4.919   6.731   4.879 -0.1916 -0.0392  0.0802
 2135ntf    cn116895   4.836   6.878   4.811 -0.3416 -0.2011 -0.0875
 2135ntf    fn416896   4.873   6.578   5.353  0.1811 -0.5328 -0.3452
 2135ntf    fn416897   4.747   6.520   5.186 -0.6308 -0.0546 -0.8309
 2135ntf    fn416898   4.957   6.533   5.162 -0.1085 -0.0134  0.4281
 2135ntf    on516899   4.712   6.796   5.215 -0.0803  0.5337  0.2883
 2135ntf    on516900   4.955   6.826   5.200  0.1779 -0.1055 -0.1276
 2135ntf    on516901   4.906   6.636   4.772  0.4044 -0.6127  0.5103
 2135ntf    on516902   5.053   6.769   4.914 -0.1050 -0.0179 -0.2718
 2135ntf    fn416903   4.721   6.843   4.756 -0.3601 -0.1685 -0.0691
 2135ntf    fn416904   4.810   6.961   4.911  0.2745 -0.6006  0.4109
 2135ntf    fn416905   4.915   6.939   4.725 -0.7046  0.0977 -0.2106
 2136ntf    cn116906   1.120   1.394   3.554 -0.1199 -0.0993  0.2522
 2136ntf    sn216907   1.157   1.378   3.377 -0.2126  0.3722  0.1877
 2136ntf    nn316908   1.094   1.235   3.357 -0.3393  0.4096  0.3162
 2136ntf    sn216909   0.967   1.180   3.284  0.0832 -0.1075 -0.0345
 2136ntf    cn116910   1.038   1.119   3.128 -0.4352 -0.1616 -0.2513
 2136ntf    fn416911   1.157   1.287   3.622 -0.4772 -0.1455  0.3783
 2136ntf    fn416912   1.177   1.499   3.612 -0.0204 -0.1986  0.3332
 2136ntf    fn416913   0.991   1.396   3.581 -0.1627 -0.3721  0.0720
 2136ntf    on516914   1.104   1.492   3.306 -0.3698  0.2248  0.0661
 2136ntf    on516915   1.301   1.372   3.375 -0.2018  0.7289 -0.2963
 2136ntf    on516916   0.869   1.278   3.243  0.0956 -0.1666 -0.2061
 2136ntf    on516917   0.924   1.050   3.330 -0.1951  0.0505  0.1568
 2136ntf    fn416918   0.955   1.088   3.029 -0.3568 -0.8410 -0.1070
 2136ntf    fn416919   1.129   1.207   3.091  0.1618 -0.4616  0.4940
 2136ntf    fn416920   1.118   1.014   3.137 -0.5028 -0.1474  0.5161
 2137ntf    cn116921   4.814   3.064   4.464 -0.1381 -0.2253  0.0110
 2137ntf    sn216922   4.895   2.938   4.567 -0.0602 -0.2650 -0.0989
 2137ntf    nn316923   5.014   3.025   4.621 -0.2414 -0.2895  0.3449
 2137ntf    sn216924   5.049   3.082   4.763 -0.6068  0.3269  0.1913
 2137ntf    cn116925   5.072   2.922   4.847 -0.0960  0.3921  0.1796
 2137ntf    fn416926   4.775   3.162   4.544 -0.2452 -0.1639 -0.1170
 2137ntf    fn416927   4.887   3.123   4.370  0.3424 -0.0916  0.4597
 2137ntf    fn416928   4.706   3.016   4.405 -0.5514  0.6122  0.0647
 2137ntf    on516929   4.803   2.909   4.674  0.0053  0.0065  0.0320
 2137ntf    on516930   4.928   2.834   4.473 -0.1035 -0.3350 -0.0360
 2137ntf    on516931   4.937   3.151   4.822 -0.4446  0.4967  0.2982
 2137ntf    on516932   5.180   3.142   4.771 -0.0730 -0.7694 -0.1709
 2137ntf    fn416933   4.974   2.834   4.850  0.6781 -0.4809  0.1127
 2137ntf    fn416934   5.180   2.866   4.795 -0.3136  0.0565  0.0859
 2137ntf    fn416935   5.098   2.946   4.975  0.4615 -0.0402  0.1476
 2138ntf    cn116936   6.067   1.600   5.851 -0.0485  0.3712 -0.0988
 2138ntf    sn216937   6.083   1.714   5.711  0.2542  0.1330 -0.2572
 2138ntf    nn316938   6.129   1.601   5.611  0.0636 -0.7015  0.5833
 2138ntf    sn216939   6.050   1.496   5.525 -0.2546 -0.0339  0.0522
 2138ntf    cn116940   6.130   1.340   5.574 -0.0755 -0.0099 -0.1628
 2138ntf    fn416941   6.182   1.566   5.907 -0.1045 -0.2338 -0.3401
 2138ntf    fn416942   5.991   1.648   5.948 -0.4614  0.1211 -0.2959
 2138ntf    fn416943   6.015   1.482   5.821  0.1402  0.2795 -0.0669
 2138ntf    on516944   5.952   1.770   5.688  0.2701  0.5172  0.5682
 2138ntf    on516945   6.192   1.798   5.754  0.1691 -0.2492  0.7288
 2138ntf    on516946   6.087   1.507   5.386  0.0307  0.2994  0.1536
 2138ntf    on516947   5.912   1.482   5.564 -0.1558  0.0937  0.4494
 2138ntf    fn416948   6.048   1.242   5.541 -0.2198  0.0747 -0.0573
 2138ntf    fn416949   6.244   1.317   5.512  0.3113  0.4092  0.3826
 2138ntf    fn416950   6.145   1.322   5.704  0.5619 -0.1080 -0.2498
 2139ntf    cn116951   0.708   3.611   5.127 -0.0214  0.1482  0.3640
 2139ntf    sn216952   0.878   3.614   5.064 -0.0772 -0.1199  0.2012
 2139ntf    nn316953   0.971   3.596   5.189 -0.1523  0.2489  0.3125
 2139ntf    sn216954   1.028   3.693   5.298  0.4225 -0.0399  0.2747
 2139ntf    cn116955   1.195   3.721   5.232  0.2773 -0.0983 -0.1229
 2139ntf    fn416956   0.661   3.491   5.156  0.1780  0.0117  0.1198
 2139ntf    fn416957   0.693   3.683   5.237 -0.0240 -0.4042  0.7278
 2139ntf    fn416958   0.615   3.655   5.044  0.0633 -0.2138  0.0759
 2139ntf    on516959   0.878   3.493   4.985  0.3010 -0.0468  0.0863
 2139ntf    on516960   0.881   3.743   5.000  0.0302 -0.0677  0.3127
 2139ntf    on516961   1.053   3.632   5.426 -0.1815 -0.3993  0.2236
 2139ntf    on516962   0.966   3.823   5.304  0.3822 -0.0251 -0.4039
 2139ntf    fn416963   1.191   3.786   5.117 -0.4374 -0.4568 -0.3063
 2139ntf    fn416964   1.266   3.796   5.316  0.4329 -0.0136 -0.3288
 2139ntf    fn416965   1.273   3.616   5.214  0.2059 -0.1049 -0.3875
 2140ntf    cn116966   6.489   6.297   6.866  0.0240 -0.3188 -0.0142
 2140ntf    sn216967   6.409   6.316   6.704  0.3374 -0.0634 -0.1404
 2140ntf    nn316968   6.436   6.177   6.637 -0.4827 -0.3359  0.0812
 2140ntf    sn216969   6.423   6.142   6.484 -0.1111 -0.0790 -0.0092
 2140ntf    cn116970   6.594   6.139   6.423 -0.1417  0.0679 -0.1028
 2140ntf    fn416971   6.450   6.186   6.926 -0.3975 -0.0397  0.2379
 2140ntf    fn416972   6.617   6.267   6.855 -0.0050 -0.6455  0.5008
 2140ntf    fn416973   6.477   6.399   6.950  0.4029 -0.6051  0.3905
 2140ntf    on516974   6.272   6.321   6.750  0.6113 -0.1108  0.7120
 2140ntf    on516975   6.476   6.430   6.646  0.8691 -0.1298  0.3320
 2140ntf    on516976   6.360   6.241   6.401 -0.3759  0.2413  0.5651
 2140ntf    on516977   6.378   6.008   6.456 -0.3250  0.0919 -0.4787
 2140ntf    fn416978   6.644   6.023   6.461  0.2814  0.0787 -0.6055
 2140ntf    fn416979   6.601   6.139   6.291  0.6246  0.1616 -0.0698
 2140ntf    fn416980   6.675   6.237   6.461  0.0877 -0.0007 -0.4110
 2141ntf    cn116981   4.304   0.468   2.858  0.3028  0.3057  0.0856
 2141ntf    sn216982   4.173   0.458   2.984  0.2582  0.0616  0.0214
 2141ntf    nn316983   4.067   0.557   2.924 -0.3970 -0.5802  0.1014
 2141ntf    sn216984   3.923   0.592   2.976 -0.2400 -0.1477  0.2582
 2141ntf    cn116985   3.848   0.427   2.998 -0.2125 -0.2147 -0.1371
 2141ntf    fn416986   4.399   0.377   2.867 -0.5232 -0.6717 -0.8397
 2141ntf    fn416987   4.265   0.476   2.732 -0.1728  0.1586  0.2199
 2141ntf    fn416988   4.373   0.580   2.872 -0.5212  0.8234  0.1000
 2141ntf    on516989   4.143   0.318   2.969 -0.3292  0.2252 -0.3600
 2141ntf    on516990   4.218   0.508   3.111 -0.3739 -0.6287  0.5264
 2141ntf    on516991   3.842   0.654   2.874 -0.0424  0.0192  0.2036
 2141ntf    on516992   3.917   0.666   3.099 -0.5573 -0.1480  0.2450
 2141ntf    fn416993   3.720   0.434   3.033 -0.1360  0.8158 -0.0189
 2141ntf    fn416994   3.854   0.370   2.879 -0.6221 -0.4450 -0.0515
 2141ntf    fn416995   3.905   0.362   3.098  0.0449 -0.3400 -0.3647
 2142ntf    cn116996   0.607   2.712   0.799 -0.1376 -0.0414  0.1665
 2142ntf    sn216997   0.733   2.777   0.913 -0.0042  0.1275 -0.0736
 2142ntf    nn316998   0.745   2.925   0.863  0.3391  0.3071  0.5223
 2142ntf    sn216999   0.736   3.061   0.942 -0.1937  0.3881  0.3277
 2142ntf    cn117000   0.558   3.098   0.936 -0.1796  0.4364  0.1891
 2142ntf    fn417001   0.495   2.783   0.798 -0.0370  0.1200  0.3525
 2142ntf    fn417002   0.654   2.695   0.676 -0.7277 -0.0758 -0.0548
 2142ntf    fn417003   0.582   2.586   0.829  0.2197 -0.0725  0.3459
 2142ntf    on517004   0.667   2.761   1.041  0.0345  0.0926 -0.0578
 2142ntf    on517005   0.844   2.689   0.888 -0.4311 -0.2607 -0.6339
 2142ntf    on517006   0.795   3.168   0.865 -0.3082  0.3388  0.1689
 2142ntf    on517007   0.771   3.060   1.082 -0.2504  0.7907  0.3452
 2142ntf    fn417008   0.537   3.229   0.929  0.4770  0.5083 -0.5530
 2142ntf    fn417009   0.500   3.042   0.831  0.5608  0.0505 -0.0215
 2142ntf    fn417010   0.489   3.054   1.040 -0.9711  0.7382 -0.1963
 2143ntf    cn117011   0.926   2.929   2.354  0.3210  0.0639  0.5054
 2143ntf    sn217012   1.102   2.910   2.315  0.0989 -0.2030 -0.3875
 2143ntf    nn317013   1.098   2.761   2.265 -0.1728 -0.2739 -0.1530
 2143ntf    sn217014   1.128   2.633   2.352  0.0559  0.0105  0.1872
 2143ntf    cn117015   1.176   2.512   2.226  0.0770  0.2502 -0.0356
 2143ntf    fn417016   0.854   2.958   2.246  0.1251 -0.1468  0.5795
 2143ntf    fn417017   0.874   2.817   2.401 -0.0815 -0.0967 -0.2940
 2143ntf    fn417018   0.902   3.023   2.444 -0.3515  0.0419  0.3552
 2143ntf    on517019   1.127   3.001   2.206  0.2820 -0.1430 -0.2959
 2143ntf    on517020   1.167   2.941   2.440 -0.9677  0.6223 -0.0282
 2143ntf    on517021   1.012   2.570   2.411  0.0335 -0.2074 -0.0885
 2143ntf    on517022   1.241   2.648   2.440  0.6758 -0.6207 -0.4942
 2143ntf    fn417023   1.248   2.411   2.272 -0.2061  0.1804  0.2565
 2143ntf    fn417024   1.076   2.463   2.156  0.1560  0.2999 -0.1840
 2143ntf    fn417025   1.254   2.572   2.137  0.3063  0.2438  0.1598
 2144ntf    cn117026   0.818   5.966   3.174 -0.2901  0.2844 -0.3578
 2144ntf    sn217027   0.675   5.931   3.280  0.0119 -0.2673 -0.1324
 2144ntf    nn317028   0.571   5.881   3.173 -0.6308 -0.4042  0.5386
 2144ntf    sn217029   0.537   5.734   3.129 -0.1243 -0.3647 -0.0004
 2144ntf    cn117030   0.369   5.713   3.195 -0.2465  0.1285 -0.1508
 2144ntf    fn417031   0.855   5.861   3.103  0.0827  0.0480  0.1794
 2144ntf    fn417032   0.789   6.059   3.084 -0.0663  0.2822 -0.4318
 2144ntf    fn417033   0.929   6.009   3.232 -0.2176  0.1421 -0.3936
 2144ntf    on517034   0.725   5.837   3.378  0.0373  0.6246  0.7262
 2144ntf    on517035   0.634   6.058   3.334 -0.2219 -0.1517 -0.5797
 2144ntf    on517036   0.613   5.624   3.184  0.2324  0.1975  0.6516
 2144ntf    on517037   0.515   5.729   2.987 -0.3085  0.6071 -0.0147
 2144ntf    fn417038   0.313   5.594   3.190 -0.0988  0.0292  0.4552
 2144ntf    fn417039   0.372   5.730   3.326 -0.1819 -0.2819 -0.0988
 2144ntf    fn417040   0.283   5.802   3.149 -0.1956  0.1927 -0.1216
 2145ntf    cn117041   0.637   2.672   5.293  0.3099  0.0146 -0.2787
 2145ntf    sn217042   0.478   2.627   5.217  0.0813 -0.1617  0.3030
 2145ntf    nn317043   0.417   2.768   5.187  0.2556 -0.1225  0.1307
 2145ntf    sn217044   0.310   2.841   5.276 -0.1830 -0.4586 -0.1166
 2145ntf    cn117045   0.213   2.925   5.148  0.0078  0.1837  0.1575
 2145ntf    fn417046   0.709   2.739   5.203  0.6653 -0.0178 -0.0211
 2145ntf    fn417047   0.620   2.764   5.386  0.1518  0.1479 -0.4380
 2145ntf    fn417048   0.711   2.566   5.318  0.4231  0.2667  0.4763
 2145ntf    on517049   0.520   2.552   5.101  0.2502  0.0172  0.2480
 2145ntf    on517050   0.403   2.552   5.314 -1.2404  0.6304 -0.0805
 2145ntf    on517051   0.373   2.948   5.348 -0.1390 -0.2246 -0.5042
 2145ntf    on517052   0.209   2.767   5.348 -0.2204 -0.8060 -0.5225
 2145ntf    fn417053   0.286   2.996   5.063  0.1419 -0.4487 -0.2639
 2145ntf    fn417054   0.140   2.845   5.071  0.5189 -0.1754  0.0384
 2145ntf    fn417055   0.128   3.012   5.200 -0.2084  0.0600  0.0158
 2146ntf    cn117056   4.984   2.648   6.378 -0.0461 -0.1805 -0.1860
 2146ntf    sn217057   5.143   2.559   6.368  0.3440  0.4932 -0.0629
 2146ntf    nn317058   5.165   2.528   6.520  0.0012 -0.5376 -0.2141
 2146ntf    sn217059   5.278   2.599   6.603 -0.0876 -0.3749 -0.2313
 2146ntf    cn117060   5.292   2.492   6.750  0.0483 -0.0477 -0.0058
 2146ntf    fn417061   4.924   2.662   6.261 -0.6304 -0.1322  0.1166
 2146ntf    fn417062   4.902   2.589   6.463  0.4307  0.1052  0.4775
 2146ntf    fn417063   4.998   2.774   6.417 -0.3870 -0.2179  0.0520
 2146ntf    on517064   5.110   2.438   6.296  0.7774  0.6571 -0.5460
 2146ntf    on517065   5.227   2.658   6.306 -0.2472  0.6444 -0.6330
 2146ntf    on517066   5.238   2.727   6.656 -0.1309 -0.6093  0.3113
 2146ntf    on517067   5.412   2.592   6.552 -0.1338 -0.0481 -0.3982
 2146ntf    fn417068   5.182   2.474   6.821  0.0871  0.4516  0.1851
 2146ntf    fn417069   5.338   2.375   6.709 -0.1505  0.0082 -0.4024
 2146ntf    fn417070   5.382   2.541   6.833 -0.0943  0.8776 -0.3875
 2147ntf    cn117071   6.744   5.999   5.357 -0.0568  0.0714 -0.0330
 2147ntf    sn217072   6.814   6.151   5.286 -0.1156  0.0211 -0.1973
 2147ntf    nn317073   6.691   6.234   5.233 -0.0844  0.5672  0.5688
 2147ntf    sn217074   6.620   6.228   5.093  0.0738  0.0191  0.5102
 2147ntf    cn117075   6.694   6.372   5.009  0.1439 -0.1179  0.3378
 2147ntf    fn417076   6.665   5.938   5.270 -0.2054 -0.0273  0.1699
 2147ntf    fn417077   6.834   5.912   5.401 -0.3130 -0.1832 -0.0110
 2147ntf    fn417078   6.660   6.021   5.457 -0.5331 -0.7458 -0.2422
 2147ntf    on517079   6.864   6.212   5.407  0.5469  0.8088 -0.8562
 2147ntf    on517080   6.912   6.109   5.189  0.2404 -0.2175  0.2614
 2147ntf    on517081   6.483   6.270   5.097  0.2474  0.7480 -0.7066
 2147ntf    on517082   6.660   6.117   5.010  0.0767  0.3835  0.0159
 2147ntf    fn417083   6.669   6.378   4.879 -0.1139 -0.5087  0.3669
 2147ntf    fn417084   6.646   6.485   5.058 -0.5780 -0.3082  0.0794
 2147ntf    fn417085   6.826   6.373   5.016  0.1518 -0.2599  0.2359
 2148ntf    cn117086   5.812   4.878   6.840 -0.0668  0.0764  0.1944
 2148ntf    sn217087   5.797   4.966   6.681  0.0411 -0.4248 -0.0947
 2148ntf    nn317088   5.644   4.995   6.661 -0.0343 -0.5292  0.3187
 2148ntf    sn217089   5.567   5.124   6.709  0.3037 -0.2939  0.2320
 2148ntf    cn117090   5.589   5.250   6.580 -0.2890  0.2275  0.6392
 2148ntf    fn417091   5.928   4.916   6.893  0.1905  0.1134 -0.3896
 2148ntf    fn417092   5.716   4.898   6.928 -0.0224 -0.0891  0.2819
 2148ntf    fn417093   5.810   4.746   6.830 -0.1898  0.0765  0.2280
 2148ntf    on517094   5.873   5.087   6.696 -0.4735 -0.1398  0.2678
 2148ntf    on517095   5.850   4.867   6.591 -0.2723  0.2362 -1.0174
 2148ntf    on517096   5.616   5.185   6.829 -0.2373 -0.1251  0.3666
 2148ntf    on517097   5.426   5.094   6.704  0.2522  0.0556 -0.6084
 2148ntf    fn417098   5.715   5.287   6.566 -0.0550 -0.7600  0.0585
 2148ntf    fn417099   5.548   5.196   6.467  0.2667  0.3784  0.3610
 2148ntf    fn417100   5.518   5.361   6.597 -0.1505  0.3110  0.6858
 2149ntf    cn117101   6.868   4.475   3.501 -0.3453 -0.1772  0.2510
 2149ntf    sn217102   6.751   4.605   3.551 -0.1432  0.0894  0.0375
 2149ntf    nn317103   6.824   4.668   3.675 -0.2964  0.4223 -0.0408
 2149ntf    sn217104   6.909   4.800   3.671 -0.1057  0.2931 -0.2989
 2149ntf    cn117105   7.042   4.767   3.792 -0.0930 -0.0959 -0.4159
 2149ntf    fn417106   6.879   4.465   3.369  0.1641 -0.6102  0.3257
 2149ntf    fn417107   6.988   4.481   3.554  0.0041  0.1671 -0.5659
 2149ntf    fn417108   6.820   4.357   3.538 -0.2381 -0.1774  0.3888
 2149ntf    on517109   6.734   4.685   3.433 -0.0653 -0.4035 -0.3112
 2149ntf    on517110   6.633   4.529   3.587 -0.0705 -0.0339  0.0150
 2149ntf    on517111   6.840   4.912   3.729 -0.1862  0.3480 -0.5005
 2149ntf    on517112   6.989   4.822   3.553  0.3880 -0.0102 -0.0257
 2149ntf    fn417113   7.000   4.761   3.917  0.1713  0.1847 -0.3114
 2149ntf    fn417114   7.100   4.651   3.767  0.3995  0.0864 -0.1307
 2149ntf    fn417115   7.138   4.857   3.784  0.1330 -0.2020  0.9606
 2150ntf    cn117116   4.658   4.298   5.163  0.1251  0.2267  0.0183
 2150ntf    sn217117   4.664   4.124   5.215 -0.0555  0.1262 -0.2957
 2150ntf    nn317118   4.639   4.140   5.369  0.1305  0.4989 -0.3043
 2150ntf    sn217119   4.750   4.172   5.476  0.3009  0.2280 -0.3985
 2150ntf    cn117120   4.868   4.035   5.455 -0.3879 -0.3971 -0.2317
 2150ntf    fn417121   4.633   4.301   5.033 -0.5244 -0.1744  0.1357
 2150ntf    fn417122   4.551   4.347   5.223 -0.1533  0.2988 -0.5392
 2150ntf    fn417123   4.757   4.381   5.191  0.0963  0.5131 -0.7158
 2150ntf    on517124   4.551   4.054   5.159 -0.3104  0.3116 -0.0198
 2150ntf    on517125   4.797   4.087   5.173 -0.0049  1.0380 -0.9596
 2150ntf    on517126   4.711   4.157   5.614  0.1758  0.0110 -0.4585
 2150ntf    on517127   4.827   4.293   5.460 -1.1050  1.1463 -0.3693
 2150ntf    fn417128   4.972   4.060   5.376 -0.5373 -0.5850 -0.4912
 2150ntf    fn417129   4.919   3.995   5.570 -0.3573  0.4333  0.0558
 2150ntf    fn417130   4.798   3.934   5.408 -0.6087 -0.0910 -0.5676
 2151ntf    cn117131   5.440   2.922   1.137 -0.5540  0.0369 -0.2493
 2151ntf    sn217132   5.260   2.949   1.147 -0.5369  0.0700 -0.0315
 2151ntf    nn317133   5.254   3.088   1.220  0.2947  0.1341 -0.0698
 2151ntf    sn217134   5.219   3.121   1.369  0.2761  0.2418 -0.0980
 2151ntf    cn117135   5.041   3.156   1.353  0.2299  0.0208 -0.0626
 2151ntf    fn417136   5.477   2.849   1.033  0.6508 -0.0626  0.2300
 2151ntf    fn417137   5.508   3.035   1.129 -0.0314 -0.1864  0.7884
 2151ntf    fn417138   5.491   2.864   1.245  0.3910  0.4487 -0.4706
 2151ntf    on517139   5.224   2.961   1.008  0.1636  0.2438 -0.2030
 2151ntf    on517140   5.203   2.840   1.223  0.4269 -0.3396  0.1229
 2151ntf    on517141   5.271   3.251   1.404  0.3576  0.2169 -0.1254
 2151ntf    on517142   5.240   3.028   1.477 -1.0678 -0.2239 -0.2295
 2151ntf    fn417143   4.980   3.056   1.291  0.0667  0.3012 -0.3529
 2151ntf    fn417144   4.973   3.179   1.464  0.7308  0.0199  0.2514
 2151ntf    fn417145   5.024   3.262   1.276 -0.0549  0.4523  0.5938
 2152ntf    cn117146   2.561   5.446   0.180  0.2175  0.1758 -0.4884
 2152ntf    sn217147   2.613   5.615   0.137  0.0641  0.4154  0.2601
 2152ntf    nn317148   2.726   5.634   0.244  0.6502 -0.3103 -0.2215
 2152ntf    sn217149   2.749   5.733   0.364 -0.4467  0.0966 -0.3450
 2152ntf    cn117150   2.764   5.615   0.501  0.1019  0.1084 -0.3956
 2152ntf    fn417151   2.662   5.361   0.179 -0.3325 -0.5035  0.0343
 2152ntf    fn417152   2.501   5.434   0.297  0.1658  0.6015 -0.4696
 2152ntf    fn417153   2.476   5.403   0.087  0.0340 -0.3323 -0.0927
 2152ntf    on517154   2.675   5.607   0.008 -0.3814  0.1656  0.0593
 2152ntf    on517155   2.494   5.695   0.145 -0.2462  0.0194 -0.3319
 2152ntf    on517156   2.635   5.816   0.397 -0.3509  0.1617 -0.1809
 2152ntf    on517157   2.881   5.789   0.359 -0.4044 -0.0156 -0.5099
 2152ntf    fn417158   2.858   5.524   0.477  0.3751  0.1474  0.4659
 2152ntf    fn417159   2.794   5.673   0.616  0.8718  0.4296 -0.7508
 2152ntf    fn417160   2.650   5.549   0.515  0.1729  0.0121 -0.2650
 2153ntf    cn117161   1.153   0.367   1.982 -0.2796 -0.2987 -0.2090
 2153ntf    sn217162   1.032   0.494   2.031 -0.0745 -0.1712 -0.0316
 2153ntf    nn317163   0.991   0.460   2.178 -0.5192 -0.0089 -0.1169
 2153ntf    sn217164   0.929   0.321   2.219  0.0897 -0.1934  0.2006
 2153ntf    cn117165   0.752   0.353   2.244  0.1126  0.0862  0.0253
 2153ntf    fn417166   1.234   0.418   1.891 -0.1378  0.3313  0.2602
 2153ntf    fn417167   1.222   0.335   2.090 -0.2854  0.1135 -0.0814
 2153ntf    fn417168   1.095   0.261   1.929 -0.8834 -0.0827  0.0083
 2153ntf    on517169   1.112   0.615   2.031 -0.0877 -0.1626  0.0213
 2153ntf    on517170   0.926   0.498   1.934 -0.3435 -0.5782  0.2469
 2153ntf    on517171   0.983   0.286   2.347  0.5451  0.4122  0.1787
 2153ntf    on517172   0.926   0.218   2.118 -0.3891  0.4276 -0.4356
 2153ntf    fn417173   0.694   0.423   2.148 -0.0570  0.1917  0.2030
 2153ntf    fn417174   0.676   0.245   2.258  0.1990  0.0771  0.4641
 2153ntf    fn417175   0.735   0.414   2.360 -0.2245  0.4534 -0.2151
 2154ntf    cn117176   1.161   1.076   0.386 -0.5938  0.4662  0.1107
 2154ntf    sn217177   1.050   0.969   0.288  0.2252 -0.0806 -0.2340
 2154ntf    nn317178   0.925   1.062   0.270  0.0516 -0.3870 -0.6077
 2154ntf    sn217179   0.918   1.192   0.181  0.0025  0.0362  0.0100
 2154ntf    cn117180   0.847   1.124   0.028  0.1410  0.0149 -0.0448
 2154ntf    fn417181   1.234   1.007   0.473 -0.0949  0.4152 -0.3401
 2154ntf    fn417182   1.244   1.148   0.312 -0.5719  0.3746  0.0457
 2154ntf    fn417183   1.092   1.166   0.454 -0.0666  0.3703  0.7857
 2154ntf    on517184   1.137   0.953   0.174 -0.1028 -0.0087 -0.4922
 2154ntf    on517185   1.013   0.853   0.365  0.4805  0.0974  0.1620
 2154ntf    on517186   1.041   1.255   0.141  0.3289 -0.4731  0.2060
 2154ntf    on517187   0.813   1.275   0.235 -0.6486 -0.5634 -0.3060
 2154ntf    fn417188   0.934   1.033  -0.013  0.1492  0.3409 -0.7685
 2154ntf    fn417189   0.737   1.059   0.062  0.0782  0.2990  0.3043
 2154ntf    fn417190   0.827   1.211  -0.070 -0.2091  0.0858  0.0870
 2155ntf    cn117191   5.202   4.532   2.094  0.1192  0.0726  0.0017
 2155ntf    sn217192   5.223   4.708   2.135 -0.1634  0.1913 -0.3573
 2155ntf    nn317193   5.316   4.756   2.018  0.1864  0.2205 -0.0672
 2155ntf    sn217194   5.264   4.809   1.880  0.3634  0.5300 -0.0163
 2155ntf    cn117195   5.255   4.989   1.904 -0.0068  0.5072  0.0239
 2155ntf    fn417196   5.126   4.519   1.986  0.4538 -0.0498 -0.2187
 2155ntf    fn417197   5.318   4.477   2.065  0.0749  0.3118 -0.6315
 2155ntf    fn417198   5.139   4.462   2.188  0.1085 -0.2379 -0.2357
 2155ntf    on517199   5.092   4.767   2.126 -0.3188 -0.1502 -0.3541
 2155ntf    on517200   5.293   4.706   2.261 -0.4830  0.1525 -0.1790
 2155ntf    on517201   5.132   4.766   1.839  0.7076 -0.0810 -0.5053
 2155ntf    on517202   5.362   4.792   1.776 -0.3545  0.0425 -0.6237
 2155ntf    fn417203   5.367   5.045   1.945  0.1572  0.0571  0.1860
 2155ntf    fn417204   5.225   5.045   1.787 -0.2694  0.5222  0.0967
 2155ntf    fn417205   5.160   5.023   1.989 -0.5301 -0.1563 -0.2895
 2156ntf    cn117206   3.826   6.339   6.459 -0.0238  0.0747  0.1275
 2156ntf    sn217207   3.947   6.227   6.383  0.0072  0.0794  0.1714
 2156ntf    nn317208   4.073   6.321   6.390  0.2048 -0.1858  0.1812
 2156ntf    sn217209   4.227   6.293   6.402  0.1824 -0.3444  0.1150
 2156ntf    cn117210   4.285   6.371   6.248  0.2352  0.0677  0.3415
 2156ntf    fn417211   3.703   6.290   6.462  0.0321 -0.0594  0.2278
 2156ntf    fn417212   3.858   6.373   6.582  0.0271  0.3273  0.0467
 2156ntf    fn417213   3.814   6.455   6.396 -0.0322  0.0726  0.1261
 2156ntf    on517214   3.945   6.103   6.457 -0.0444 -0.1128 -0.1518
 2156ntf    on517215   3.912   6.219   6.244  0.2751  0.2500  0.0942
 2156ntf    on517216   4.255   6.153   6.386  0.2559 -0.2293 -0.8365
 2156ntf    on517217   4.280   6.370   6.512 -0.6167  0.4174 -0.0195
 2156ntf    fn417218   4.351   6.485   6.263  0.6188 -0.0688 -0.2835
 2156ntf    fn417219   4.364   6.292   6.178 -0.1098  0.0436 -0.0210
 2156ntf    fn417220   4.189   6.416   6.169 -0.1584  0.1031  0.8334
 2157ntf    cn117221   1.561   1.142   2.349 -0.1338  0.0751 -0.2792
 2157ntf    sn217222   1.679   1.144   2.487  0.0579 -0.1280 -0.4411
 2157ntf    nn317223   1.813   1.099   2.418  0.1580 -0.2260 -0.1860
 2157ntf    sn217224   1.852   0.949   2.391  0.1357 -0.2637 -0.0070
 2157ntf    cn117225   1.868   0.956   2.210 -0.6158 -0.3714 -0.0846
 2157ntf    fn417226   1.440   1.172   2.393  0.2022 -0.2771  0.9186
 2157ntf    fn417227   1.595   1.217   2.246 -0.4150  0.7668  0.1206
 2157ntf    fn417228   1.568   1.017   2.306  0.3226  0.2232 -0.6370
 2157ntf    on517229   1.682   1.284   2.521 -0.1345  0.0206 -1.0187
 2157ntf    on517230   1.618   1.059   2.586  0.3584  0.4182  0.2288
 2157ntf    on517231   1.745   0.853   2.408  0.2980 -0.4345  0.0537
 2157ntf    on517232   1.982   0.916   2.443  0.0620 -0.5140  0.0182
 2157ntf    fn417233   1.762   1.004   2.147 -0.3459  0.1555 -0.1461
 2157ntf    fn417234   1.974   1.031   2.182 -0.7032 -0.4058 -0.5121
 2157ntf    fn417235   1.888   0.832   2.168  0.5588 -0.0824 -0.4233
 2158ntf    cn117236   5.892   1.592   1.209 -0.0995 -0.7215  0.1465
 2158ntf    sn217237   5.864   1.511   1.049 -0.2450  0.0439 -0.2214
 2158ntf    nn317238   6.009   1.483   0.996  0.0402  0.3888  0.3737
 2158ntf    sn217239   6.040   1.474   0.843 -0.0261  0.1208  0.3757
 2158ntf    cn117240   5.899   1.380   0.778 -0.1129  0.4193  0.1297
 2158ntf    fn417241   5.964   1.703   1.197 -0.3686 -0.5127  0.4397
 2158ntf    fn417242   5.782   1.626   1.275  0.0613 -0.0728  0.0944
 2158ntf    fn417243   5.965   1.508   1.280  1.1789  0.2281 -0.0044
 2158ntf    on517244   5.785   1.398   1.093 -0.2974  0.2516  0.2201
 2158ntf    on517245   5.788   1.618   0.988  0.3031  0.3057 -0.4457
 2158ntf    on517246   6.145   1.376   0.828 -0.1150  0.0726  0.0574
 2158ntf    on517247   6.054   1.598   0.770 -0.4780 -0.0974 -0.0847
 2158ntf    fn417248   5.890   1.259   0.830  0.0693  0.4189  0.1615
 2158ntf    fn417249   5.784   1.445   0.789 -0.1712  0.5267 -1.0099
 2158ntf    fn417250   5.926   1.361   0.650 -0.7000 -0.0271  0.0657
 2159ntf    cn117251   4.651   1.718   6.114  0.3577  0.1893 -0.0311
 2159ntf    sn217252   4.551   1.810   6.235 -0.1057  0.1027 -0.3467
 2159ntf    nn317253   4.484   1.694   6.316  0.2225  0.1948  0.0591
 2159ntf    sn217254   4.505   1.638   6.461 -0.0334  0.2403  0.1136
 2159ntf    cn117255   4.601   1.487   6.428 -0.2521  0.2518 -0.5825
 2159ntf    fn417256   4.730   1.795   6.043 -0.0740  0.3057 -0.3928
 2159ntf    fn417257   4.727   1.623   6.166 -0.4176 -0.3921  0.0704
 2159ntf    fn417258   4.571   1.662   6.025  0.1929  0.0211  0.2199
 2159ntf    on517259   4.649   1.886   6.308 -0.2010 -0.3450  0.2479
 2159ntf    on517260   4.457   1.883   6.153  0.1092  0.3753 -0.3533
 2159ntf    on517261   4.384   1.575   6.506  0.0271 -0.1801 -0.3060
 2159ntf    on517262   4.579   1.712   6.561 -0.3517  0.5004  0.1589
 2159ntf    fn417263   4.544   1.406   6.340 -0.9060 -0.2629  0.3044
 2159ntf    fn417264   4.719   1.511   6.373  0.2711  0.4158  0.5910
 2159ntf    fn417265   4.624   1.425   6.542 -0.2601  0.3325 -0.5369
 2160ntf    cn117266   5.231   0.329   6.406 -0.1556 -0.0494  0.1787
 2160ntf    sn217267   5.247   0.510   6.424 -0.1922 -0.0363  0.0797
 2160ntf    nn317268   5.188   0.565   6.289  0.1561 -0.1094 -0.1021
 2160ntf    sn217269   5.060   0.653   6.267  0.3708  0.1610 -0.2785
 2160ntf    cn117270   5.045   0.655   6.086 -0.1894 -0.3578 -0.2435
 2160ntf    fn417271   5.263   0.306   6.280  0.3256 -0.2519  0.3337
 2160ntf    fn417272   5.311   0.251   6.477 -0.5305 -0.4427  0.1718
 2160ntf    fn417273   5.112   0.276   6.430 -0.1915 -0.0400  0.0195
 2160ntf    on517274   5.162   0.541   6.536  0.0823 -0.0830  0.3004
 2160ntf    on517275   5.389   0.532   6.436 -0.1930 -0.0779  0.1616
 2160ntf    on517276   5.078   0.789   6.311 -0.2284  0.1255  0.0889
 2160ntf    on517277   4.934   0.593   6.304  0.3341  0.2176 -0.3128
 2160ntf    fn417278   5.138   0.732   6.031  0.1426 -0.2016  0.5164
 2160ntf    fn417279   5.048   0.533   6.037  0.4285 -0.2567 -0.4726
 2160ntf    fn417280   4.935   0.721   6.052  0.3010  0.5189 -0.1646
   6.92786   6.92786   6.92786
