Converted from moscito
16200
    1SOL     ow    1   3.664   3.856   5.556 -0.2227  0.3941 -0.0190
    1SOL     hw    2   3.696   3.939   5.521  0.6372 -0.6983 -1.9932
    1SOL     hw    3   3.658   3.870   5.650  0.7028  2.4161 -0.2184
    1SOL     vw    4   3.667   3.869   5.563  0.0128  0.5168 -0.3061
    2SOL     ow    5   6.106   5.587   4.102 -0.3264 -0.0635 -0.1335
    2SOL     hw    6   6.088   5.590   4.196  0.0488 -0.0331 -0.0600
    2SOL     hw    7   6.202   5.594   4.096 -0.4192  1.1514 -0.5613
    2SOL     vw    8   6.116   5.589   4.114 -0.2890  0.1006 -0.1805
    3SOL     ow    9   4.899   4.408   0.244  0.2266  0.4134  0.2891
    3SOL     hw   10   4.804   4.409   0.235  0.0852 -5.1703 -4.6514
    3SOL     hw   11   4.929   4.484   0.195 -1.6559  1.3434  0.5109
    3SOL     vw   12   4.891   4.418   0.237 -0.0405 -0.2007 -0.3335
    4SOL     ow   13   6.809   5.755   0.760 -0.1720 -1.0001  0.2696
    4SOL     hw   14   6.869   5.690   0.799  0.9618  0.9332  1.9969
    4SOL     hw   15   6.728   5.744   0.810 -0.0264 -1.1746  0.4757
    4SOL     vw   16   6.807   5.745   0.772 -0.0032 -0.7682  0.5247
    5SOL     ow   17   2.900   5.954   6.801  0.0504  0.7869  0.5819
    5SOL     hw   18   2.820   6.007   6.801 -0.5811 -0.1158 -0.9607
    5SOL     hw   19   2.873   5.870   6.764  1.7717  0.5208 -0.1379
    5SOL     vw   20   2.886   5.949   6.796  0.1942  0.6328  0.2837
    6SOL     ow   21   2.752   1.973   3.844  0.2288 -0.1212 -0.0411
    6SOL     hw   22   2.772   1.879   3.847  0.6390 -0.0745 -0.9251
    6SOL     hw   23   2.683   1.985   3.909  0.4151 -0.9746  0.3297
    6SOL     vw   24   2.746   1.962   3.853  0.3073 -0.2277 -0.1090
    7SOL     ow   25   3.710   3.241   2.318 -0.5940 -0.2534 -0.0861
    7SOL     hw   26   3.791   3.190   2.320 -2.8797 -4.2978 -0.3374
    7SOL     hw   27   3.736   3.328   2.351  3.8358 -1.1139 -0.6118
    7SOL     vw   28   3.724   3.246   2.323 -0.3111 -0.9005 -0.1886
    8SOL     ow   29   0.928   2.069   6.828 -0.2354 -0.0135 -0.0720
    8SOL     hw   30   0.958   2.103   6.913 -2.1184 -0.2517  0.7396
    8SOL     hw   31   0.867   1.999   6.851 -2.5523  1.4228 -1.5537
    8SOL     vw   32   0.924   2.064   6.842 -0.7896  0.1447 -0.1604
    9SOL     ow   33   3.345   0.208   4.942  0.4108 -0.5669  0.3906
    9SOL     hw   34   3.425   0.172   4.979 -1.6235 -3.9189  2.1107
    9SOL     hw   35   3.341   0.171   4.854  0.6417 -0.6529  0.4152
    9SOL     vw   36   3.355   0.198   4.935  0.1729 -1.0205  0.6208
   10SOL     ow   37   6.157   4.222   4.941 -0.2079 -0.2832  0.1085
   10SOL     hw   38   6.124   4.185   5.023  0.4604  2.5559  1.7965
   10SOL     hw   39   6.090   4.284   4.914  0.3586  0.0460 -0.5735
   10SOL     vw   40   6.144   4.225   4.948 -0.0453  0.1349  0.2413
   11SOL     ow   41   0.368   2.375   0.118 -0.2716  0.0755  0.0739
   11SOL     hw   42   0.368   2.469   0.134 -0.3141  0.0658  0.1326
   11SOL     hw   43   0.378   2.335   0.205  0.0756  0.0296  0.0148
   11SOL     vw   44   0.369   2.382   0.132 -0.2314  0.0682  0.0739
   12SOL     ow   45   1.142   0.720   0.232  0.0945 -0.7350 -0.0884
   12SOL     hw   46   1.067   0.734   0.175 -0.1477 -0.6379  0.2476
   12SOL     hw   47   1.105   0.682   0.312  0.4109 -0.7647  0.0473
   12SOL     vw   48   1.127   0.717   0.235  0.1042 -0.7261 -0.0262
   13SOL     ow   49   1.843   0.763   4.981 -0.3512  0.0969 -0.3580
   13SOL     hw   50   1.828   0.751   5.075  3.4594 -0.9641  0.3138
   13SOL     hw   51   1.799   0.845   4.960 -0.8192  0.7071  2.5112
   13SOL     vw   52   1.835   0.772   4.991  0.0899  0.0375  0.1090
   14SOL     ow   53   2.651   4.708   6.361 -0.5501  0.2372  0.4777
   14SOL     hw   54   2.621   4.785   6.410  1.1629  1.1609  0.1435
   14SOL     hw   55   2.571   4.660   6.340 -1.5500  1.2698  1.7772
   14SOL     vw   56   2.636   4.712   6.365 -0.4560  0.4952  0.6049
   15SOL     ow   57   1.033   1.583   0.117  0.0802 -0.5033  0.3122
   15SOL     hw   58   1.004   1.601   0.028 -2.9997 -1.0170  1.0904
   15SOL     hw   59   0.993   1.652   0.170  1.7621 -0.2656  1.3482
   15SOL     vw   60   1.024   1.594   0.112 -0.1042 -0.5397  0.5515
   16SOL     ow   61   4.164   0.052   3.128 -0.3350 -0.2198 -0.1389
   16SOL     hw   62   4.205  -0.030   3.100 -0.3414 -0.0477 -0.6516
   16SOL     hw   63   4.071   0.040   3.111 -0.4537 -0.4305  0.5940
   16SOL     vw   64   4.157   0.040   3.122 -0.3514 -0.2249 -0.1098
   17SOL     ow   65   2.934   2.015   0.577  0.6127  0.4881 -0.5248
   17SOL     hw   66   2.973   2.065   0.505  0.1409 -0.0592 -1.1695
   17SOL     hw   67   3.008   1.971   0.619  0.8230  0.3886 -1.0033
   17SOL     vw   68   2.949   2.016   0.573  0.5783  0.4028 -0.6730
   18SOL     ow   69   4.029   5.066   5.657 -0.2378 -0.4114  0.5375
   18SOL     hw   70   3.986   5.139   5.702 -2.3834 -2.0290  1.2816
   18SOL     hw   71   3.957   5.010   5.628  1.1925 -0.8429 -2.5962
   18SOL     vw   72   4.014   5.068   5.659 -0.3326 -0.6816  0.2224
   19SOL     ow   73   4.288   0.569   0.983  0.3577  0.8721 -1.0877
   19SOL     hw   74   4.305   0.478   1.009 -0.0298  0.7167 -1.3563
   19SOL     hw   75   4.361   0.592   0.925  0.8951  1.0136 -0.3681
   19SOL     vw   76   4.300   0.560   0.979  0.3774  0.8703 -1.0282
   20SOL     ow   77   5.718   1.447   5.593 -0.3033 -0.1643  0.0220
   20SOL     hw   78   5.626   1.461   5.615 -0.4814  0.6409 -1.1260
   20SOL     hw   79   5.766   1.483   5.668 -0.9122 -0.6307  0.6523
   20SOL     vw   80   5.712   1.454   5.606 -0.4072 -0.1196 -0.0463
   21SOL     ow   81   2.058   5.415   0.857  0.2144  0.5350  0.1269
   21SOL     hw   82   2.085   5.421   0.948 -1.2762  2.0523  0.5164
   21SOL     hw   83   2.081   5.501   0.820  4.3552 -1.1857 -2.0688
   21SOL     vw   84   2.065   5.427   0.864  0.5640  0.5085 -0.1114
   22SOL     ow   85   4.731   2.072   4.577 -0.2081 -0.1652  0.4874
   22SOL     hw   86   4.804   2.036   4.528  1.1510 -1.2090  3.0850
   22SOL     hw   87   4.653   2.040   4.531  0.8931  0.2561 -1.8458
   22SOL     vw   88   4.730   2.063   4.564  0.1166 -0.2472  0.5224
   23SOL     ow   89   3.730   6.435   2.439 -0.3852 -0.1234 -0.7091
   23SOL     hw   90   3.666   6.497   2.475 -0.8788  0.1936 -2.0546
   23SOL     hw   91   3.725   6.358   2.496  1.0313  1.4184  1.6978
   23SOL     vw   92   3.721   6.433   2.451 -0.2636  0.1218 -0.5690
   24SOL     ow   93   0.706   0.229   3.834 -0.4101  0.5750 -0.3149
   24SOL     hw   94   0.616   0.210   3.861 -0.3602  0.6061 -0.1250
   24SOL     hw   95   0.699   0.250   3.740 -0.5222  0.0601 -0.4237
   24SOL     vw   96   0.693   0.229   3.825 -0.4183  0.5112 -0.3042
   25SOL     ow   97   2.170   0.838   6.768  0.6871 -0.0984  0.4851
   25SOL     hw   98   2.132   0.811   6.852 -0.8331  0.9212  0.1588
   25SOL     hw   99   2.248   0.783   6.759 -0.1096 -1.5180  1.7097
   25SOL     vw  100   2.175   0.827   6.778  0.3814 -0.1512  0.6037
   26SOL     ow  101   3.577   6.820   0.419  0.8165  0.1533  0.6449
   26SOL     hw  102   3.558   6.779   0.503  0.3255  0.4746  0.6966
   26SOL     hw  103   3.492   6.822   0.374  0.7212  1.5315  0.8410
   26SOL     vw  104   3.563   6.815   0.424  0.7392  0.3772  0.6776
   27SOL     ow  105   5.257   6.794   1.367 -0.3236  0.8555 -0.0682
   27SOL     hw  106   5.350   6.808   1.383 -0.4910  0.5953  1.2882
   27SOL     hw  107   5.240   6.705   1.398 -1.1267  1.1034  0.2246
   27SOL     vw  108   5.267   6.784   1.373 -0.4518  0.8540  0.1494
   28SOL     ow  109   0.202   6.745   5.561  0.4823 -0.2701  0.3095
   28SOL     hw  110   0.137   6.706   5.501  1.2189 -2.1792  0.6755
   28SOL     hw  111   0.193   6.839   5.549 -1.8171 -0.5030 -0.2323
   28SOL     vw  112   0.192   6.752   5.552  0.2761 -0.5524  0.2863
   29SOL     ow  113   4.843   3.531   0.770  0.5670  0.2526 -0.4886
   29SOL     hw  114   4.824   3.625   0.774 -0.0039  0.0877  1.9712
   29SOL     hw  115   4.777   3.490   0.825  1.2940 -1.5414 -0.8732
   29SOL     vw  116   4.832   3.538   0.777  0.5875 -0.0060 -0.2148
   30SOL     ow  117   3.587   4.240   6.049 -0.2203  0.5000  0.5863
   30SOL     hw  118   3.593   4.309   6.115  2.0989 -0.0471  1.0442
   30SOL     hw  119   3.673   4.198   6.051 -1.2112 -1.7314 -0.4143
   30SOL     vw  120   3.599   4.244   6.058 -0.0451  0.1335  0.5145
   31SOL     ow  121   4.807   4.192   6.809  0.4899  0.1570 -0.4099
   31SOL     hw  122   4.747   4.120   6.830  0.6290 -0.2199 -1.2602
   31SOL     hw  123   4.771   4.268   6.856  0.1478 -0.3832  0.2173
   31SOL     vw  124   4.794   4.193   6.818  0.4630  0.0360 -0.4392
   32SOL     ow  125   4.380   3.454   0.428  0.1090  0.0593 -0.5237
   32SOL     hw  126   4.414   3.478   0.342  1.9966  0.1867  0.2118
   32SOL     hw  127   4.286   3.439   0.413  0.3681  0.1336 -2.5737
   32SOL     vw  128   4.372   3.455   0.414  0.3924  0.0859 -0.6971
   33SOL     ow  129   3.972   1.664   0.337 -0.2999 -0.3442  0.4044
   33SOL     hw  130   3.967   1.570   0.355 -2.3104 -0.2677  0.4917
   33SOL     hw  131   3.978   1.671   0.242  0.3513 -0.5490  0.4241
   33SOL     vw  132   3.972   1.653   0.327 -0.4792 -0.3611  0.4185
   34SOL     ow  133   5.325   6.353   1.803  0.3139 -0.5077  0.0773
   34SOL     hw  134   5.362   6.291   1.741  0.0963 -1.4619  0.8665
   34SOL     hw  135   5.238   6.318   1.822  0.1662  0.0740  0.4928
   34SOL     vw  136   5.318   6.340   1.797  0.2658 -0.5572  0.2363
   35SOL     ow  137   0.910   0.274   3.501 -0.0126  0.1197  0.2831
   35SOL     hw  138   0.973   0.346   3.496 -1.1600  1.3141  1.7095
   35SOL     hw  139   0.828   0.312   3.469 -0.6547 -0.5050  1.1329
   35SOL     vw  140   0.908   0.288   3.496 -0.2487  0.1949  0.5835
   36SOL     ow  141   5.217   6.636   0.615 -0.1023  0.2536  0.5204
   36SOL     hw  142   5.291   6.691   0.589 -0.4662  0.5098  0.0095
   36SOL     hw  143   5.157   6.641   0.541  0.9427 -2.8794 -0.6783
   36SOL     vw  144   5.219   6.644   0.602 -0.0124 -0.1259  0.2948
   37SOL     ow  145   5.392   3.165   3.541 -0.4713  0.1804  0.5075
   37SOL     hw  146   5.440   3.222   3.601 -1.8479  1.0084  0.8627
   37SOL     hw  147   5.450   3.090   3.527  1.2530  1.5159  0.2619
   37SOL     vw  148   5.406   3.162   3.547 -0.4256  0.4659  0.5219
   38SOL     ow  149   6.560   5.455   2.233 -0.2032 -0.1578  0.3419
   38SOL     hw  150   6.540   5.418   2.147 -1.7779 -1.1202  1.0775
   38SOL     hw  151   6.509   5.536   2.238 -1.9102 -1.2164  1.1579
   38SOL     vw  152   6.551   5.461   2.223 -0.6363 -0.4241  0.5466
   39SOL     ow  153   2.861   2.445   6.493 -0.2851  0.5225  0.8331
   39SOL     hw  154   2.931   2.419   6.433 -1.3985  1.9305 -1.2084
   39SOL     hw  155   2.815   2.364   6.512  0.3842 -0.0356  0.1618
   39SOL     vw  156   2.864   2.431   6.488 -0.3436  0.6346  0.4752
   40SOL     ow  157   2.118   1.717   4.302 -0.2448  0.1765  0.0558
   40SOL     hw  158   2.073   1.754   4.378  1.6060  3.4869 -0.2503
   40SOL     hw  159   2.211   1.735   4.318  0.4262 -1.0659 -1.9893
   40SOL     vw  160   2.124   1.724   4.314  0.0881  0.4494 -0.2544
   41SOL     ow  161   4.301   1.355   1.800  0.2729  0.2254  0.2555
   41SOL     hw  162   4.221   1.346   1.749 -0.8421 -0.5168  2.0353
   41SOL     hw  163   4.368   1.308   1.750 -1.4914 -3.2945  0.9125
   41SOL     vw  164   4.300   1.348   1.787 -0.1070 -0.3369  0.5770
   42SOL     ow  165   2.975   0.350   0.452  0.4783  0.6109  0.3370
   42SOL     hw  166   2.963   0.433   0.497 -0.4387  1.3428 -1.1856
   42SOL     hw  167   3.033   0.300   0.509  0.9472  2.2312  1.3403
   42SOL     vw  168   2.981   0.354   0.465  0.4191  0.9213  0.2684
   43SOL     ow  169   1.571   6.165   0.934 -0.2126 -0.1632 -0.2856
   43SOL     hw  170   1.527   6.217   1.001  2.3137  0.6249  0.9114
   43SOL     hw  171   1.570   6.220   0.856  0.5846  0.8261  0.3736
   43SOL     vw  172   1.565   6.179   0.933  0.2258  0.0713 -0.0407
   44SOL     ow  173   1.997   4.677   1.162  0.6078 -0.3764  0.2596
   44SOL     hw  174   1.929   4.628   1.210 -0.8843  1.8956  0.6111
   44SOL     hw  175   2.023   4.747   1.222  1.8898 -0.0571 -0.6279
   44SOL     vw  176   1.991   4.680   1.176  0.5801 -0.0348  0.1889
   45SOL     ow  177   0.376   6.005   5.841 -0.0645 -0.2554 -0.1934
   45SOL     hw  178   0.452   6.031   5.893 -2.1909  3.8757  1.2872
   45SOL     hw  179   0.406   6.012   5.750  1.1525  2.3024  0.3226
   45SOL     vw  180   0.390   6.009   5.836 -0.1845  0.6270  0.0703
   46SOL     ow  181   4.618   5.049   4.054  0.0118  0.6037  0.0107
   46SOL     hw  182   4.553   4.979   4.057  0.4196  0.2046 -0.2940
   46SOL     hw  183   4.568   5.129   4.066 -0.7782  0.4491 -1.8376
   46SOL     vw  184   4.603   5.050   4.056 -0.0386  0.5305 -0.2735
   47SOL     ow  185   4.933   0.223   1.945  1.0397  0.2077 -0.0304
   47SOL     hw  186   4.996   0.234   1.873  2.1515  0.6147  0.9754
   47SOL     hw  187   4.947   0.300   2.001  0.0617 -0.0065  0.5344
   47SOL     vw  188   4.943   0.235   1.943  1.0576  0.2331  0.1769
   48SOL     ow  189   3.330   1.816   2.533 -0.1448 -0.5880  0.2484
   48SOL     hw  190   3.340   1.820   2.628 -0.0840  0.8716  0.2148
   48SOL     hw  191   3.402   1.760   2.504 -0.2614 -1.1848  1.0636
   48SOL     vw  192   3.341   1.809   2.542 -0.1521 -0.4742  0.3514
   49SOL     ow  193   4.390   6.523   5.411 -0.4344  0.7526  0.5221
   49SOL     hw  194   4.449   6.534   5.485 -0.7970  0.4631  0.8557
   49SOL     hw  195   4.390   6.428   5.393 -1.2875  0.6666  0.9342
   49SOL     vw  196   4.398   6.512   5.418 -0.5949  0.7029  0.6206
   50SOL     ow  197   2.790   0.783   1.595  0.1170 -0.2471  0.2911
   50SOL     hw  198   2.813   0.696   1.562 -0.4324 -0.2068 -0.2300
   50SOL     hw  199   2.794   0.840   1.518 -1.2194 -0.1592  0.2514
   50SOL     vw  200   2.793   0.779   1.580 -0.1317 -0.2302  0.2171
   51SOL     ow  201   4.246   5.134   3.324 -0.6931 -0.6548 -0.0820
   51SOL     hw  202   4.269   5.105   3.236  1.7025 -0.8724  0.5379
   51SOL     hw  203   4.286   5.068   3.382 -0.3705  0.6163  1.1966
   51SOL     vw  204   4.255   5.121   3.320 -0.3345 -0.5159  0.1686
   52SOL     ow  205   5.141   5.959   1.810 -0.7070  0.3197  0.1312
   52SOL     hw  206   5.208   5.966   1.742  0.9067  0.5782  1.6769
   52SOL     hw  207   5.086   6.036   1.797  0.2186  0.9458 -0.2368
   52SOL     vw  208   5.143   5.970   1.799 -0.3719  0.4363  0.2865
   53SOL     ow  209   6.696   0.010   5.512  0.1686 -0.4466  0.2678
   53SOL     hw  210   6.705  -0.056   5.444  1.3515 -1.1141  1.0507
   53SOL     hw  211   6.707  -0.037   5.594  0.7021  0.6519  0.8578
   53SOL     vw  212   6.699  -0.005   5.513  0.3951 -0.3898  0.4487
   54SOL     ow  213   2.783   2.654   6.721 -0.6524 -0.6381 -0.2554
   54SOL     hw  214   2.862   2.706   6.730 -1.1147  0.0385 -0.0550
   54SOL     hw  215   2.784   2.595   6.796  0.4202 -1.6846 -1.0544
   54SOL     vw  216   2.793   2.653   6.732 -0.5718 -0.6869 -0.3345
   55SOL     ow  217   0.990   3.542   0.858 -0.1651 -0.4618 -0.4627
   55SOL     hw  218   0.932   3.496   0.798  1.3780 -0.3454 -2.1432
   55SOL     hw  219   1.068   3.486   0.863  0.5537  0.5363 -0.1951
   55SOL     vw  220   0.993   3.529   0.851  0.1333 -0.3148 -0.6491
   56SOL     ow  221   1.684   3.917   3.540  0.0323  0.0343  0.1058
   56SOL     hw  222   1.622   3.931   3.612 -0.6523  0.5700 -0.5696
   56SOL     hw  223   1.766   3.955   3.572 -0.8501  2.4225 -0.2576
   56SOL     vw  224   1.686   3.924   3.554 -0.1745  0.4200 -0.0311
   57SOL     ow  225   5.740   0.705   3.803  0.8281 -0.2544 -0.0138
   57SOL     hw  226   5.692   0.738   3.880  0.8927 -0.1333 -0.0247
   57SOL     hw  227   5.749   0.611   3.819 -1.1269 -0.6504 -0.9298
   57SOL     vw  228   5.735   0.697   3.816  0.5789 -0.2907 -0.1361
   58SOL     ow  229   6.481   5.234   0.855  0.4554 -0.2489  0.4651
   58SOL     hw  230   6.502   5.246   0.762  1.5462 -1.4195  0.5349
   58SOL     hw  231   6.386   5.237   0.858  0.1287 -3.8719 -1.3118
   58SOL     vw  232   6.471   5.236   0.843  0.5562 -0.8810  0.2398
   59SOL     ow  233   3.849   5.709   4.184 -0.0025 -0.4149  0.6175
   59SOL     hw  234   3.926   5.676   4.230  0.1578 -0.7809  0.0952
   59SOL     hw  235   3.845   5.802   4.206  0.1763 -0.5507  1.2200
   59SOL     vw  236   3.859   5.717   4.193  0.0422 -0.4809  0.6282
   60SOL     ow  237   3.113   5.493   3.825 -0.1931  0.1757 -0.3820
   60SOL     hw  238   3.130   5.451   3.909 -1.0362 -0.5592 -0.5680
   60SOL     hw  239   3.151   5.581   3.834 -0.3654  0.1440  0.8011
   60SOL     vw  240   3.120   5.499   3.837 -0.3271  0.0744 -0.2505
   61SOL     ow  241   0.605   0.593   5.666 -0.1946  0.1634  0.2519
   61SOL     hw  242   0.520   0.596   5.709  0.3056 -1.5308  1.4419
   61SOL     hw  243   0.667   0.621   5.733  0.3461 -0.0895 -0.1343
   61SOL     vw  244   0.602   0.597   5.681 -0.0573 -0.0935  0.3581
   62SOL     ow  245   1.307   6.752   1.199 -0.5854  0.3628  0.1090
   62SOL     hw  246   1.287   6.664   1.168 -1.1281  0.5431 -0.0661
   62SOL     hw  247   1.368   6.787   1.135  0.8633 -0.4400  1.0058
   62SOL     vw  248   1.312   6.745   1.187 -0.4658  0.2806  0.2043
   63SOL     ow  249   5.326   5.193   2.744 -0.4552  0.2524 -0.8706
   63SOL     hw  250   5.286   5.192   2.830 -0.7364  1.6556 -0.9683
   63SOL     hw  251   5.379   5.273   2.743 -1.3551  0.8646 -2.3882
   63SOL     vw  252   5.328   5.203   2.755 -0.6113  0.5183 -1.0836
   64SOL     ow  253   0.644   0.432   0.687 -0.4423  0.2723 -0.0873
   64SOL     hw  254   0.701   0.412   0.613 -1.3922  2.5272 -1.5363
   64SOL     hw  255   0.700   0.424   0.764  1.2992  0.4959 -1.2854
   64SOL     vw  256   0.659   0.428   0.688 -0.3378  0.5994 -0.4366
   65SOL     ow  257   0.327   2.101   4.088 -0.2292  0.0021 -0.0001
   65SOL     hw  258   0.419   2.101   4.114 -0.4689  0.8780  0.9099
   65SOL     hw  259   0.317   2.182   4.038  0.1038 -1.4095 -2.4851
   65SOL     vw  260   0.338   2.112   4.085 -0.2169 -0.0684 -0.2079
   66SOL     ow  261   1.409   5.845   1.893 -0.7639 -0.1328 -0.2820
   66SOL     hw  262   1.351   5.830   1.819  0.3175  0.8641 -1.3692
   66SOL     hw  263   1.412   5.760   1.939 -1.3914 -0.7805 -1.3980
   66SOL     vw  264   1.402   5.832   1.889 -0.7040 -0.0865 -0.5727
   67SOL     ow  265   0.651   3.810   3.096 -0.2614 -0.6413  0.5900
   67SOL     hw  266   0.596   3.778   3.168 -0.3265 -1.7907  0.0491
   67SOL     hw  267   0.588   3.843   3.032 -0.3359 -1.6655  0.1097
   67SOL     vw  268   0.635   3.810   3.097 -0.2798 -0.9280  0.4554
   68SOL     ow  269   6.091   5.774   3.840 -0.1774 -0.4417 -0.6526
   68SOL     hw  270   6.076   5.796   3.748 -2.5342  2.1255  0.2076
   68SOL     hw  271   6.183   5.795   3.856 -0.2454  1.0431 -1.9775
   68SOL     vw  272   6.101   5.780   3.830 -0.4973  0.0930 -0.7139
   69SOL     ow  273   3.439   2.547   5.097  0.6842 -0.4003 -0.2403
   69SOL     hw  274   3.459   2.586   5.012 -0.5435 -0.8730 -0.7825
   69SOL     hw  275   3.465   2.456   5.089 -0.2126 -0.6517 -0.4260
   69SOL     vw  276   3.445   2.540   5.085  0.4038 -0.4958 -0.3362
   70SOL     ow  277   5.318   1.360   3.305  0.1618 -0.3266  0.1800
   70SOL     hw  278   5.375   1.412   3.362  0.9418 -0.2150 -0.6731
   70SOL     hw  279   5.376   1.293   3.269 -0.9157 -2.0681  1.5511
   70SOL     vw  280   5.334   1.358   3.308  0.1228 -0.5416  0.2484
   71SOL     ow  281   2.575   6.298   2.161  0.1194 -0.3423 -0.1586
   71SOL     hw  282   2.546   6.344   2.082 -2.8493 -1.1089  0.3340
   71SOL     hw  283   2.669   6.311   2.164  0.2749  0.1916 -3.5056
   71SOL     vw  284   2.583   6.306   2.151 -0.2518 -0.3729 -0.5352
   72SOL     ow  285   1.767   5.029   5.230 -0.2497  0.3344 -0.0996
   72SOL     hw  286   1.774   4.960   5.297 -0.8474 -0.5199 -0.9021
   72SOL     hw  287   1.788   5.110   5.278  0.0493 -0.3392  0.9570
   72SOL     vw  288   1.771   5.031   5.245 -0.2890  0.1326 -0.0660
   73SOL     ow  289   6.372   1.680   3.572  0.4932 -0.3521  0.6063
   73SOL     hw  290   6.418   1.664   3.654  1.7264 -0.1127 -0.0117
   73SOL     hw  291   6.351   1.593   3.538  1.5459 -0.5181  0.3374
   73SOL     vw  292   6.375   1.667   3.578  0.7946 -0.3424  0.4894
   74SOL     ow  293   5.527   0.650   6.685  0.1952 -0.2419 -0.7165
   74SOL     hw  294   5.495   0.740   6.673 -0.7887 -0.6176 -1.0226
   74SOL     hw  295   5.608   0.646   6.635 -0.3739  0.1402 -1.6868
   74SOL     vw  296   5.533   0.661   6.677 -0.0100 -0.2411 -0.8848
   75SOL     ow  297   4.605   4.902   4.695 -0.1822 -0.1621 -0.5085
   75SOL     hw  298   4.620   4.993   4.717 -3.8556  0.3193  0.6603
   75SOL     hw  299   4.629   4.854   4.775  0.1702 -0.0466 -0.5429
   75SOL     vw  300   4.611   4.907   4.709 -0.6206 -0.0837 -0.3591
   76SOL     ow  301   6.304   2.346   1.890 -0.3334 -0.2954  0.2737
   76SOL     hw  302   6.263   2.414   1.943 -2.3567  0.6648 -2.2658
   76SOL     hw  303   6.394   2.376   1.876 -1.2023  2.0495 -0.9010
   76SOL     vw  304   6.310   2.359   1.895 -0.7150  0.1405 -0.2164
   77SOL     ow  305   4.331   1.218   4.681  0.1421 -0.7833 -0.5775
   77SOL     hw  306   4.408   1.162   4.686  1.5096  1.0689  0.4898
   77SOL     hw  307   4.341   1.279   4.755 -1.1368  0.9802 -1.7820
   77SOL     vw  308   4.343   1.219   4.692  0.1538 -0.3062 -0.5956
   78SOL     ow  309   3.385   3.767   5.523  0.5295  0.7155 -0.3041
   78SOL     hw  310   3.344   3.839   5.475 -0.0170  0.8488  0.3451
   78SOL     hw  311   3.365   3.786   5.615  0.3336 -0.2928 -0.1334
   78SOL     vw  312   3.377   3.779   5.529  0.4314  0.6001 -0.1960
   79SOL     ow  313   6.476   0.808   1.340  0.7280  0.5213  0.0245
   79SOL     hw  314   6.522   0.808   1.424  1.8667  1.2494 -0.5767
   79SOL     hw  315   6.474   0.716   1.314  1.4308  0.4239  0.2970
   79SOL     vw  316   6.482   0.796   1.348  0.9711  0.6045 -0.0190
   80SOL     ow  317   6.138   0.311   3.431  0.8007 -0.5654  0.2022
   80SOL     hw  318   6.113   0.362   3.354 -1.2527  1.1243  1.8514
   80SOL     hw  319   6.232   0.326   3.441  0.4213  2.5393  0.2237
   80SOL     vw  320   6.147   0.320   3.422  0.4799  0.0671  0.4227
   81SOL     ow  321   6.827   6.284   4.956  0.7206  0.3550 -0.8700
   81SOL     hw  322   6.831   6.364   4.905  1.3965  1.3144  0.6306
   81SOL     hw  323   6.909   6.239   4.936  1.1375  0.8907 -0.3610
   81SOL     vw  324   6.838   6.288   4.946  0.8650  0.5519 -0.6046
   82SOL     ow  325   3.308   6.027   3.156 -0.7755 -0.1070 -0.4371
   82SOL     hw  326   3.374   6.072   3.103 -1.0521  1.8795  0.7700
   82SOL     hw  327   3.358   5.977   3.220 -0.4438  0.1242 -0.5156
   82SOL     vw  328   3.323   6.027   3.157 -0.7683  0.1855 -0.2881
   83SOL     ow  329   2.328   5.153   5.656 -0.3955  0.7327 -0.0608
   83SOL     hw  330   2.242   5.180   5.624 -1.0000  0.1366  1.0216
   83SOL     hw  331   2.380   5.141   5.576 -1.9938 -1.1086 -0.9049
   83SOL     vw  332   2.324   5.155   5.641 -0.6862  0.4110 -0.0293
   84SOL     ow  333   3.393   0.458   5.992 -0.4969 -0.3785  0.0414
   84SOL     hw  334   3.313   0.414   5.960  0.0490 -0.5467 -1.1382
   84SOL     hw  335   3.436   0.489   5.912  0.4386  0.0285  0.7013
   84SOL     vw  336   3.388   0.456   5.977 -0.3015 -0.3470 -0.0272
   85SOL     ow  337   5.483   4.927   0.853  0.0277 -0.2266  0.2871
   85SOL     hw  338   5.395   4.903   0.824 -0.4152 -0.0649  1.4311
   85SOL     hw  339   5.477   5.021   0.870 -0.6708 -0.7505  3.7861
   85SOL     vw  340   5.470   4.936   0.851 -0.1228 -0.2744  0.8997
   86SOL     ow  341   5.955   4.440   6.295  0.3573  0.1432 -0.4882
   86SOL     hw  342   6.005   4.519   6.317 -2.0646  1.6213  0.0655
   86SOL     hw  343   5.968   4.429   6.201  1.0482  0.9701 -0.5024
   86SOL     vw  344   5.963   4.449   6.285  0.1292  0.4473 -0.4170
   87SOL     ow  345   3.808   1.484   5.679  0.4357 -0.0740  0.1403
   87SOL     hw  346   3.847   1.456   5.762 -0.1276 -0.4220  0.2967
   87SOL     hw  347   3.848   1.428   5.613  0.0242 -0.6007  0.3301
   87SOL     vw  348   3.818   1.473   5.681  0.3070 -0.1894  0.1862
   88SOL     ow  349   4.140   1.052   3.972 -0.1634 -0.1232  0.7281
   88SOL     hw  350   4.164   0.961   3.990 -2.0039 -0.9424 -0.6683
   88SOL     hw  351   4.065   1.069   4.030 -0.0133  0.4122  0.7702
   88SOL     vw  352   4.133   1.043   3.982 -0.3867 -0.1606  0.5494
   89SOL     ow  353   4.761   1.030   0.226 -0.2519  0.3446  0.3318
   89SOL     hw  354   4.718   0.974   0.291 -1.3569 -0.0669 -0.7166
   89SOL     hw  355   4.744   0.986   0.142  2.1316  0.2323 -0.1526
   89SOL     vw  356   4.753   1.017   0.223 -0.0834  0.2755  0.1296
   90SOL     ow  357   4.303   4.811   6.275 -0.1017 -0.0125 -0.6390
   90SOL     hw  358   4.393   4.784   6.292 -0.4026  0.3730  1.8945
   90SOL     hw  359   4.305   4.906   6.278 -0.4027  0.0535 -1.8851
   90SOL     vw  360   4.315   4.820   6.278 -0.1810  0.0470 -0.4692
   91SOL     ow  361   4.621   2.092   4.837  0.1110 -0.3861 -0.5074
   91SOL     hw  362   4.649   2.069   4.926  0.1785 -2.0629 -0.9140
   91SOL     hw  363   4.571   2.172   4.847 -0.2498 -0.7779  1.1124
   91SOL     vw  364   4.618   2.099   4.850  0.0722 -0.6590 -0.3471
   92SOL     ow  365   6.712   6.775   1.234 -0.0087 -0.3184 -0.5441
   92SOL     hw  366   6.688   6.784   1.326  0.9516  0.7649 -0.3753
   92SOL     hw  367   6.779   6.706   1.233  1.1010  0.7328 -0.2016
   92SOL     vw  368   6.718   6.767   1.246  0.2644 -0.0372 -0.4766
   93SOL     ow  369   2.055   3.904   5.997  0.0779  0.2827  0.4571
   93SOL     hw  370   1.994   3.877   5.929 -0.0877  0.1516  0.6548
   93SOL     hw  371   2.053   3.833   6.061  1.0314 -0.0881  0.0946
   93SOL     vw  372   2.047   3.891   5.997  0.1818  0.2166  0.4354
   94SOL     ow  373   1.485   1.848   2.832 -0.4878 -0.2917  0.5334
   94SOL     hw  374   1.392   1.847   2.855 -0.6622  1.1546 -0.0306
   94SOL     hw  375   1.487   1.823   2.740 -0.3899  0.4083  0.3439
   94SOL     vw  376   1.473   1.844   2.823 -0.4979 -0.0085  0.4340
   95SOL     ow  377   2.535   0.227   1.920 -0.1290  0.0429  0.3913
   95SOL     hw  378   2.494   0.285   1.985  0.5448  1.3238 -0.2995
   95SOL     hw  379   2.571   0.286   1.854 -0.0714 -1.2078 -0.7314
   95SOL     vw  380   2.534   0.242   1.920 -0.0325  0.0469  0.1521
   96SOL     ow  381   3.041   6.717   2.129  0.4178 -0.1355  0.7457
   96SOL     hw  382   3.097   6.772   2.075  1.6375 -1.9233  0.1222
   96SOL     hw  383   3.073   6.628   2.115 -0.0453 -0.8075  3.4243
   96SOL     vw  384   3.053   6.712   2.120  0.5176 -0.4599  1.0169
   97SOL     ow  385   2.897   5.323   2.188  0.2615 -0.5247 -0.3641
   97SOL     hw  386   2.880   5.394   2.125  0.5301 -2.2158 -2.4722
   97SOL     hw  387   2.981   5.344   2.227 -0.4791  1.2019  0.4227
   97SOL     vw  388   2.906   5.335   2.185  0.1992 -0.5200 -0.5383
   98SOL     ow  389   6.411   3.577   3.324  0.3446  0.0659 -0.1270
   98SOL     hw  390   6.384   3.487   3.345  0.3254 -0.0920 -0.8181
   98SOL     hw  391   6.336   3.614   3.277 -0.3266  0.9986  1.5913
   98SOL     vw  392   6.398   3.570   3.321  0.2532  0.1681  0.0085
   99SOL     ow  393   6.213   3.040   3.937 -0.5166  0.0035 -0.1518
   99SOL     hw  394   6.211   3.030   4.032 -1.9046 -0.4080 -0.1933
   99SOL     hw  395   6.128   3.080   3.916  0.7792  2.5353 -0.9878
   99SOL     vw  396   6.201   3.044   3.947 -0.5286  0.2831 -0.2675
  100SOL     ow  397   5.790   5.043   2.107 -0.6713 -0.9331  0.3486
  100SOL     hw  398   5.699   5.031   2.079 -0.0041  1.7434 -3.8936
  100SOL     hw  399   5.835   4.964   2.077 -0.7739  0.0764 -2.8394
  100SOL     vw  400   5.784   5.031   2.099 -0.5970 -0.4468 -0.6318
  101SOL     ow  401   0.284   3.185   4.745  0.5396  0.7022 -0.3588
  101SOL     hw  402   0.320   3.222   4.664  0.6704 -0.3853 -0.8190
  101SOL     hw  403   0.338   3.108   4.762  0.7186  1.0986  0.9582
  101SOL     vw  404   0.296   3.180   4.736  0.5805  0.6111 -0.2458
  102SOL     ow  405   4.982   2.833   6.303 -0.6263 -0.6336 -0.4857
  102SOL     hw  406   4.967   2.814   6.396 -0.2396 -0.5161 -0.3981
  102SOL     hw  407   5.002   2.927   6.301 -2.0590 -0.3130 -0.8562
  102SOL     vw  408   4.983   2.843   6.315 -0.7644 -0.5759 -0.5233
  103SOL     ow  409   3.588   3.230   4.418 -0.5212  1.1627  0.2914
  103SOL     hw  410   3.512   3.249   4.362 -1.5887  0.2868  1.3833
  103SOL     hw  411   3.618   3.316   4.447  1.0380  1.7958 -2.7484
  103SOL     vw  412   3.582   3.244   4.414 -0.4562  1.1307  0.0346
  104SOL     ow  413   2.795   2.052   5.815  0.1446 -0.3156 -0.3009
  104SOL     hw  414   2.749   2.024   5.736 -0.3116 -0.1095 -0.1102
  104SOL     hw  415   2.732   2.107   5.861  0.1411 -1.0401  0.5756
  104SOL     vw  416   2.781   2.056   5.810  0.0839 -0.3841 -0.1602
  105SOL     ow  417   6.828   5.860   1.588  0.7248  0.4321 -0.6126
  105SOL     hw  418   6.908   5.828   1.547  1.5799  0.6839  0.7932
  105SOL     hw  419   6.783   5.909   1.519  1.7536  0.2445 -1.4337
  105SOL     vw  420   6.832   5.862   1.573  0.9735  0.4406 -0.5355
  106SOL     ow  421   2.009   3.308   3.675 -0.6047  0.4264 -0.5560
  106SOL     hw  422   1.973   3.223   3.649 -1.4492  0.4218  0.5428
  106SOL     hw  423   2.058   3.289   3.755 -0.7440  0.9522 -0.3406
  106SOL     vw  424   2.011   3.294   3.682 -0.7344  0.4952 -0.3825
  107SOL     ow  425   1.881   3.100   5.060  0.6019 -0.6973  0.6282
  107SOL     hw  426   1.844   3.083   5.146 -1.0575  1.8606  0.5183
  107SOL     hw  427   1.878   3.195   5.051  1.1699 -0.8564 -2.0677
  107SOL     vw  428   1.876   3.110   5.070  0.4579 -0.3809  0.2580
  108SOL     ow  429   2.296   6.657   4.861 -0.0162  0.1127  0.6950
  108SOL     hw  430   2.336   6.636   4.777 -1.0331  0.8049  0.0041
  108SOL     hw  431   2.303   6.752   4.868 -1.5646  0.2763  0.4936
  108SOL     vw  432   2.302   6.667   4.851 -0.3548  0.2253  0.5772
  109SOL     ow  433   5.627   3.645   5.849  0.3374  0.2258 -1.0307
  109SOL     hw  434   5.714   3.674   5.877  0.4630 -0.2436 -0.9312
  109SOL     hw  435   5.643   3.568   5.795 -0.0776 -0.6139  0.0056
  109SOL     vw  436   5.641   3.639   5.846  0.2990  0.0530 -0.8805
  110SOL     ow  437   6.213   0.659   5.344  0.0554 -0.6708 -0.2376
  110SOL     hw  438   6.193   0.569   5.316 -2.1479 -0.1185 -0.5702
  110SOL     hw  439   6.169   0.669   5.428  1.9020 -0.4662  0.7671
  110SOL     vw  440   6.205   0.648   5.351  0.0083 -0.5710 -0.1488
  111SOL     ow  441   4.036   0.984   0.373  0.2388  0.1893  0.2197
  111SOL     hw  442   3.955   0.960   0.418  1.2813 -1.3741  1.3755
  111SOL     hw  443   4.054   1.074   0.400  0.8807 -0.7131  3.1154
  111SOL     vw  444   4.028   0.993   0.382  0.4611 -0.1360  0.7542
  112SOL     ow  445   3.816   3.839   4.181  0.0086 -0.0076  0.1812
  112SOL     hw  446   3.809   3.928   4.215 -2.7341  0.5383 -1.5233
  112SOL     hw  447   3.854   3.849   4.093  1.5988 -0.7824  0.7388
  112SOL     vw  448   3.820   3.852   4.174 -0.1434 -0.0379  0.0298
  113SOL     ow  449   5.581   5.417   1.540  0.2777  0.0630  0.2299
  113SOL     hw  450   5.491   5.435   1.516  1.5416  3.0914 -3.1493
  113SOL     hw  451   5.586   5.437   1.634 -2.7553 -1.7110  0.8953
  113SOL     vw  452   5.570   5.422   1.549  0.0441  0.2284 -0.1282
  114SOL     ow  453   0.653   1.517   4.283  0.5029  0.1194  0.4295
  114SOL     hw  454   0.585   1.537   4.347  0.1538 -0.7439  0.3469
  114SOL     hw  455   0.684   1.602   4.252 -1.2345  0.5387 -0.2647
  114SOL     vw  456   0.648   1.531   4.287  0.2276  0.0609  0.3269
  115SOL     ow  457   4.251   3.171   1.862  0.1276  0.2918 -0.0687
  115SOL     hw  458   4.279   3.081   1.850 -3.6272 -1.1431  0.4517
  115SOL     hw  459   4.258   3.187   1.957 -0.2262  0.1347 -0.0143
  115SOL     vw  460   4.255   3.161   1.873 -0.4146  0.0818  0.0072
  116SOL     ow  461   2.797   0.771   2.982 -0.0602  0.1875  0.2643
  116SOL     hw  462   2.812   0.683   3.017 -1.8850  0.0473  0.8156
  116SOL     hw  463   2.754   0.818   3.054  1.6811  1.8328  0.2915
  116SOL     vw  464   2.793   0.766   2.996 -0.0712  0.3861  0.3406
  117SOL     ow  465   5.800   5.070   4.610 -0.5814  0.3384 -0.0118
  117SOL     hw  466   5.740   4.998   4.594  1.7122 -1.3820 -1.3841
  117SOL     hw  467   5.804   5.076   4.706 -1.4947 -0.7366  0.1205
  117SOL     vw  468   5.793   5.061   4.621 -0.3991 -0.0303 -0.1755
  118SOL     ow  469   6.534   2.379   5.521 -0.5426 -0.1103  0.7342
  118SOL     hw  470   6.497   2.453   5.569  0.4754  1.3216 -0.5947
  118SOL     hw  471   6.596   2.339   5.582 -0.7806  0.4050  1.3198
  118SOL     vw  472   6.537   2.383   5.535 -0.4399  0.1467  0.6361
  119SOL     ow  473   6.598   2.081   4.724  0.1104 -0.3186  0.1195
  119SOL     hw  474   6.552   2.020   4.781  0.8193 -0.9025  0.0717
  119SOL     hw  475   6.587   2.045   4.636 -0.2611  0.1282 -0.0233
  119SOL     vw  476   6.590   2.069   4.720  0.1547 -0.3365  0.0944
  120SOL     ow  477   0.885   2.723   5.809 -0.1033  0.0807  0.1582
  120SOL     hw  478   0.854   2.744   5.721 -1.3129  3.5239  1.2669
  120SOL     hw  479   0.827   2.771   5.868  2.2399  0.0203  2.7345
  120SOL     vw  480   0.873   2.732   5.805  0.0462  0.5270  0.6442
  121SOL     ow  481   0.997   4.172   5.616 -0.1614 -0.0384 -0.3925
  121SOL     hw  482   1.092   4.163   5.610 -0.0661 -0.6975  1.6100
  121SOL     hw  483   0.966   4.085   5.641 -1.3287  0.1578 -1.0633
  121SOL     vw  484   1.005   4.160   5.618 -0.3029 -0.0994 -0.2167
  122SOL     ow  485   2.465   0.756   1.133  0.2819  0.0628 -0.1525
  122SOL     hw  486   2.530   0.687   1.145 -0.1777 -0.3062  0.2497
  122SOL     hw  487   2.381   0.713   1.146  0.0496  1.2270  2.9808
  122SOL     vw  488   2.463   0.741   1.136  0.1906  0.1676  0.3139
  123SOL     ow  489   5.780   0.159   4.928  0.3586  0.3180  0.0767
  123SOL     hw  490   5.823   0.216   4.992 -1.3567  0.2030  1.3908
  123SOL     hw  491   5.829   0.077   4.933 -0.6378 -0.2162  2.4071
  123SOL     vw  492   5.792   0.156   4.937  0.0010  0.2324  0.5577
  124SOL     ow  493   0.846   5.828   3.789  0.0851  0.5324  0.2989
  124SOL     hw  494   0.862   5.752   3.844  2.5780  0.2159 -0.7227
  124SOL     hw  495   0.818   5.792   3.705  0.6974  0.7550 -0.0067
  124SOL     vw  496   0.845   5.814   3.785  0.4948  0.5202  0.1237
  125SOL     ow  497   3.617   6.064   0.880  0.2887  0.3231  0.3354
  125SOL     hw  498   3.627   6.110   0.963  0.1083  0.4200  0.3035
  125SOL     hw  499   3.700   6.017   0.868  0.6240  0.9393  0.1783
  125SOL     vw  500   3.629   6.064   0.889  0.3091  0.4175  0.3105
  126SOL     ow  501   3.982   3.650   3.042 -0.1292 -0.2776 -0.3716
  126SOL     hw  502   3.906   3.682   2.993 -0.4310 -1.0993 -0.4553
  126SOL     hw  503   3.991   3.712   3.115 -1.9077 -1.0723  0.5888
  126SOL     vw  504   3.973   3.663   3.045 -0.4035 -0.4909 -0.2558
  127SOL     ow  505   1.712   1.359   3.195 -0.1771  0.0940  0.4192
  127SOL     hw  506   1.677   1.274   3.223 -0.2599 -0.5563 -1.5059
  127SOL     hw  507   1.640   1.400   3.147  0.2864  0.6769  0.2100
  127SOL     vw  508   1.698   1.353   3.192 -0.1268  0.0851  0.1376
  128SOL     ow  509   3.505   5.377   1.501  0.3570 -0.1055 -0.4463
  128SOL     hw  510   3.533   5.290   1.528 -1.4720 -1.8553 -3.5142
  128SOL     hw  511   3.534   5.385   1.410  0.2019  2.4150 -0.3590
  128SOL     vw  512   3.512   5.367   1.493  0.0951 -0.0038 -0.8396
  129SOL     ow  513   0.418   2.466   0.586 -0.0148  0.2156  0.5292
  129SOL     hw  514   0.428   2.536   0.521  1.1417 -0.1539  0.2918
  129SOL     hw  515   0.323   2.450   0.589 -0.0059 -1.0951 -2.5085
  129SOL     vw  516   0.407   2.473   0.577  0.1389 -0.0061  0.0971
  130SOL     ow  517   6.005   4.527   3.619 -0.1561 -0.1599  0.2976
  130SOL     hw  518   5.922   4.555   3.657 -0.1067  2.7946 -1.4161
  130SOL     hw  519   6.072   4.564   3.677 -0.1020  2.2768 -1.1844
  130SOL     vw  520   6.003   4.536   3.632 -0.1428  0.5512 -0.1239
  131SOL     ow  521   5.844   2.907   1.824  0.1522  0.1281 -0.1721
  131SOL     hw  522   5.754   2.884   1.850  0.0217  1.9897  1.2205
  131SOL     hw  523   5.833   2.962   1.747  0.0980  0.3866  0.0205
  131SOL     vw  524   5.830   2.911   1.818  0.1278  0.4081  0.0371
  132SOL     ow  525   6.218   3.558   5.594  0.7715 -0.1876 -0.7818
  132SOL     hw  526   6.152   3.588   5.532 -0.3491 -1.7396 -0.4027
  132SOL     hw  527   6.229   3.465   5.575  1.8660 -0.2500  0.0457
  132SOL     vw  528   6.210   3.550   5.584  0.7679 -0.4005 -0.6227
  133SOL     ow  529   4.964   2.956   2.488  0.1259  0.3647 -0.4993
  133SOL     hw  530   5.022   3.031   2.480  0.7197  0.0431  0.5950
  133SOL     hw  531   5.012   2.883   2.448 -0.1597  0.4086 -0.9348
  133SOL     vw  532   4.978   2.956   2.482  0.1667  0.3282 -0.4123
  134SOL     ow  533   5.806   2.218   6.140 -0.4118 -0.0972 -1.1475
  134SOL     hw  534   5.715   2.189   6.151  0.0076 -0.7482  1.2858
  134SOL     hw  535   5.800   2.311   6.122 -1.5954  0.8164  2.9317
  134SOL     vw  536   5.793   2.226   6.139 -0.5126 -0.0627 -0.2885
  135SOL     ow  537   2.669   5.991   2.725 -0.4815  0.2528  0.2961
  135SOL     hw  538   2.638   5.901   2.718 -0.7320  0.3092  0.6712
  135SOL     hw  539   2.607   6.034   2.784  1.4856 -0.2107  2.9079
  135SOL     vw  540   2.657   5.985   2.732 -0.2549  0.1993  0.6902
  136SOL     ow  541   4.915   5.500   0.058  0.5339  0.3817 -0.7298
  136SOL     hw  542   4.852   5.569   0.036 -0.8787 -0.6680 -0.1126
  136SOL     hw  543   4.907   5.490   0.153  0.2767 -1.0268 -0.8876
  136SOL     vw  544   4.906   5.508   0.068  0.3135  0.0577 -0.6692
  137SOL     ow  545   2.685   4.523   5.210 -0.1224  0.0303 -0.0126
  137SOL     hw  546   2.671   4.510   5.304  1.9139 -0.5436  0.2494
  137SOL     hw  547   2.618   4.468   5.169  0.0081 -1.0115  1.1083
  137SOL     vw  548   2.674   4.514   5.217  0.1636 -0.1829  0.1698
  138SOL     ow  549   2.648   0.769   5.601 -0.2630  0.3596  0.7130
  138SOL     hw  550   2.605   0.846   5.563  0.0521  0.1734 -0.0160
  138SOL     hw  551   2.649   0.705   5.531  2.4723  0.8259  0.2427
  138SOL     vw  552   2.642   0.771   5.587  0.1394  0.3966  0.5548
  139SOL     ow  553   2.388   1.028   4.507  0.1908  0.4136 -0.0750
  139SOL     hw  554   2.335   0.974   4.566 -0.2013  0.9660  0.0870
  139SOL     hw  555   2.441   0.965   4.458 -2.9719 -0.5321 -2.6446
  139SOL     vw  556   2.388   1.013   4.508 -0.2782  0.3617 -0.3927
  140SOL     ow  557   0.360   6.837   3.051  0.3078  0.4771 -0.0333
  140SOL     hw  558   0.366   6.759   3.106 -2.1942  0.7967  0.8535
  140SOL     hw  559   0.411   6.904   3.097  2.3678 -0.5606 -0.7386
  140SOL     vw  560   0.367   6.836   3.065  0.2495  0.3824 -0.0093
  141SOL     ow  561   5.097   6.132   3.629  0.0448 -0.3048  0.3144
  141SOL     hw  562   5.111   6.166   3.541  0.0090  0.5803  0.6425
  141SOL     hw  563   5.075   6.209   3.682  1.0398 -0.6683  1.3057
  141SOL     vw  564   5.096   6.146   3.624  0.1714 -0.2358  0.4885
  142SOL     ow  565   3.687   5.654   6.490  0.4304  0.3128 -0.2532
  142SOL     hw  566   3.619   5.602   6.533  1.2034  0.7755  1.6440
  142SOL     hw  567   3.677   5.742   6.526 -0.1033  1.2520 -2.5382
  142SOL     vw  568   3.677   5.658   6.500  0.4619  0.4978 -0.3045
  143SOL     ow  569   4.065   3.451   1.669 -0.3930 -0.2904  0.1811
  143SOL     hw  570   3.992   3.406   1.628  0.5184 -1.4434 -0.2278
  143SOL     hw  571   4.078   3.529   1.615 -0.2964 -0.9183 -0.7156
  143SOL     vw  572   4.057   3.456   1.656 -0.2599 -0.5254  0.0089
  144SOL     ow  573   4.895   5.128   4.193 -0.4172 -0.2706  0.1833
  144SOL     hw  574   4.967   5.191   4.190  0.7043 -1.5470 -0.5024
  144SOL     hw  575   4.896   5.096   4.283  1.0357 -1.5397 -0.2378
  144SOL     vw  576   4.905   5.132   4.205 -0.0775 -0.6065  0.0374
  145SOL     ow  577   0.854   3.527   4.778 -0.4754  0.1278  0.6108
  145SOL     hw  578   0.846   3.621   4.758 -0.6954  0.2967  1.4372
  145SOL     hw  579   0.852   3.484   4.693  0.9385  0.9562  0.1138
  145SOL     vw  580   0.853   3.534   4.765 -0.3179  0.2594  0.6542
  146SOL     ow  581   2.287   6.834   1.899  0.2178 -0.6338  0.7222
  146SOL     hw  582   2.292   6.850   1.993  0.5015 -0.7245  0.7206
  146SOL     hw  583   2.193   6.835   1.880  0.1284 -1.3302  1.1261
  146SOL     vw  584   2.275   6.837   1.909  0.2434 -0.7376  0.7753
  147SOL     ow  585   5.225   5.172   6.016  0.0173  0.0197 -0.2251
  147SOL     hw  586   5.205   5.079   6.023 -1.7482  0.2938 -1.0553
  147SOL     hw  587   5.236   5.202   6.106  0.5679 -0.9752  0.0453
  147SOL     vw  588   5.224   5.164   6.029 -0.1431 -0.0756 -0.2987
  148SOL     ow  589   4.973   4.038   6.537  0.4377  0.1467  0.1829
  148SOL     hw  590   5.066   4.038   6.516  0.2035 -0.2545 -0.9022
  148SOL     hw  591   4.930   4.007   6.458 -0.5741 -0.3026  0.8795
  148SOL     vw  592   4.979   4.034   6.524  0.2732  0.0346  0.1314
  149SOL     ow  593   4.526   4.621   0.636 -0.1456 -0.2897  0.2940
  149SOL     hw  594   4.621   4.636   0.639  0.2890 -2.5331 -0.4797
  149SOL     hw  595   4.505   4.620   0.543 -0.9751  0.3552  0.4655
  149SOL     vw  596   4.536   4.623   0.624 -0.1974 -0.5007  0.2145
  150SOL     ow  597   6.495   4.996   6.273 -0.0245 -0.3977 -0.0042
  150SOL     hw  598   6.414   4.954   6.245 -0.1859  0.2041 -0.4527
  150SOL     hw  599   6.556   4.923   6.289 -1.1414 -0.9610  1.9843
  150SOL     vw  600   6.493   4.980   6.272 -0.1931 -0.3927  0.1991
  151SOL     ow  601   5.830   4.054   4.282  0.5765  0.3974 -0.7332
  151SOL     hw  602   5.918   4.024   4.261  0.5447 -0.3398  0.1330
  151SOL     hw  603   5.796   4.086   4.198  1.6657  0.7226 -1.0689
  151SOL     vw  604   5.837   4.054   4.268  0.7162  0.3431 -0.6630
  152SOL     ow  605   5.795   0.841   3.519 -0.0350 -0.7793  0.0641
  152SOL     hw  606   5.815   0.853   3.427  1.0162 -0.1655  0.3550
  152SOL     hw  607   5.833   0.918   3.562 -2.3543  0.0408  0.7729
  152SOL     vw  608   5.803   0.853   3.513 -0.2027 -0.5901  0.1961
  153SOL     ow  609   0.727   3.942   0.494 -0.1287 -0.3858 -0.1009
  153SOL     hw  610   0.720   3.856   0.453 -2.6249 -0.4150  0.2475
  153SOL     hw  611   0.743   3.924   0.586  1.0016 -0.4130 -0.2898
  153SOL     vw  612   0.728   3.928   0.501 -0.3089 -0.3934 -0.0799
  154SOL     ow  613   3.108   4.484   1.256 -0.1600 -0.6315 -0.0091
  154SOL     hw  614   3.121   4.393   1.282  1.0508  0.1635  2.5288
  154SOL     hw  615   3.197   4.518   1.244 -0.3471  1.0893  2.7089
  154SOL     vw  616   3.121   4.477   1.258 -0.0250 -0.2997  0.6844
  155SOL     ow  617   3.906   3.119   5.986 -1.0007 -1.0056  0.4685
  155SOL     hw  618   3.976   3.158   6.040 -1.2808  0.6020 -0.2522
  155SOL     hw  619   3.938   3.031   5.966  0.8930 -0.2813  0.0668
  155SOL     vw  620   3.920   3.113   5.991 -0.7877 -0.6979  0.3207
  156SOL     ow  621   4.153   0.838   0.087 -0.0216  0.6786  0.2194
  156SOL     hw  622   4.243   0.853   0.115 -0.0589 -0.6100  1.1187
  156SOL     hw  623   4.159   0.829  -0.008  1.3353 -2.4344  0.4633
  156SOL     vw  624   4.166   0.838   0.078  0.1526  0.0979  0.3703
  157SOL     ow  625   5.545   3.268   6.461 -0.1292 -0.0651 -0.1086
  157SOL     hw  626   5.511   3.331   6.525 -0.8747 -1.7079  1.2134
  157SOL     hw  627   5.471   3.252   6.403  0.0254  0.1966 -0.3776
  157SOL     vw  628   5.530   3.274   6.462 -0.2074 -0.2472  0.0303
  158SOL     ow  629   6.214   4.763   5.276 -0.1729  0.7204 -0.6325
  158SOL     hw  630   6.295   4.750   5.226 -1.5500 -1.8393 -2.3942
  158SOL     hw  631   6.166   4.829   5.225 -0.5963 -0.2109 -1.4599
  158SOL     vw  632   6.219   4.770   5.263 -0.4103  0.2596 -0.9739
  159SOL     ow  633   5.310   4.191   4.719 -0.7521  0.1044 -0.4089
  159SOL     hw  634   5.286   4.144   4.639 -2.0801 -0.8202  0.4943
  159SOL     hw  635   5.319   4.282   4.692 -0.1839 -0.3374 -1.7906
  159SOL     vw  636   5.308   4.197   4.705 -0.8523 -0.0758 -0.4718
  160SOL     ow  637   5.044   3.299   0.699 -0.1842 -0.7718 -0.3522
  160SOL     hw  638   5.074   3.230   0.639 -1.3705 -0.5338 -1.2607
  160SOL     hw  639   5.080   3.274   0.784  3.8384  0.2664 -1.5352
  160SOL     vw  640   5.052   3.287   0.702  0.1900 -0.6034 -0.6281
  161SOL     ow  641   4.379   0.287   3.107  0.1531 -0.0951 -0.3488
  161SOL     hw  642   4.410   0.378   3.105  0.7264 -0.1751  2.1397
  161SOL     hw  643   4.348   0.271   3.017  2.0452  1.8292 -1.4501
  161SOL     vw  644   4.379   0.297   3.095  0.4783  0.1482 -0.1659
  162SOL     ow  645   6.112   2.278   3.642  0.2091  0.6178  0.1216
  162SOL     hw  646   6.176   2.313   3.704  1.6080  0.2899 -1.0925
  162SOL     hw  647   6.042   2.244   3.698  1.6242 -0.0778  1.5804
  162SOL     vw  648   6.111   2.278   3.658  0.5803  0.4828  0.1537
  163SOL     ow  649   0.388   2.243   6.210  0.0811  0.0822 -0.0086
  163SOL     hw  650   0.471   2.207   6.181 -0.4686 -1.1837 -0.0697
  163SOL     hw  651   0.379   2.325   6.161  1.2276  0.1771 -0.0823
  163SOL     vw  652   0.397   2.249   6.200  0.1598 -0.0724 -0.0265
  164SOL     ow  653   2.213   2.214   1.440 -0.2156  0.1750  0.3170
  164SOL     hw  654   2.148   2.215   1.510 -1.0449 -1.4984 -0.3654
  164SOL     hw  655   2.275   2.146   1.465  1.2707  1.6922  0.9144
  164SOL     vw  656   2.212   2.205   1.452 -0.1289  0.1544  0.3058
  165SOL     ow  657   3.764   4.130   1.959  0.6386  0.2933 -0.1533
  165SOL     hw  658   3.692   4.191   1.942 -0.9887 -1.1949  0.9332
  165SOL     hw  659   3.801   4.158   2.042  1.4608  1.1439 -0.7798
  165SOL     vw  660   3.759   4.141   1.967  0.5323  0.2093 -0.0926
  166SOL     ow  661   4.451   2.052   6.455  0.2748 -0.6889  0.1716
  166SOL     hw  662   4.498   2.042   6.372 -1.1714 -0.8968 -0.6506
  166SOL     hw  663   4.476   1.975   6.506  0.1376 -1.2515 -0.5993
  166SOL     vw  664   4.460   2.041   6.451  0.0658 -0.7906 -0.0386
  167SOL     ow  665   5.650   4.819   3.608  0.2716  0.3117 -0.1542
  167SOL     hw  666   5.744   4.829   3.623  0.3388 -0.3414 -0.1230
  167SOL     hw  667   5.616   4.908   3.615  0.9010  0.5723 -0.2766
  167SOL     vw  668   5.658   4.832   3.611  0.3638  0.2601 -0.1663
  168SOL     ow  669   4.512   5.799   0.967 -0.1561  0.3597 -0.1274
  168SOL     hw  670   4.493   5.780   0.875 -1.9069  0.1229  0.2607
  168SOL     hw  671   4.481   5.888   0.980 -1.5538 -0.2194  0.6602
  168SOL     vw  672   4.506   5.808   0.956 -0.5715  0.2520  0.0277
  169SOL     ow  673   5.494   3.977   2.777 -0.0659  0.9108 -0.1322
  169SOL     hw  674   5.521   4.069   2.784 -1.2464  1.3072 -0.5390
  169SOL     hw  675   5.536   3.947   2.696  0.6379  0.9581  0.1997
  169SOL     vw  676   5.503   3.986   2.767 -0.1287  0.9693 -0.1420
  170SOL     ow  677   5.548   3.675   1.521 -0.1937 -0.6135  0.3529
  170SOL     hw  678   5.493   3.659   1.598  0.8842  0.3594  1.3872
  170SOL     hw  679   5.619   3.731   1.554  1.0686 -1.3015 -1.0582
  170SOL     vw  680   5.550   3.681   1.536  0.1147 -0.5760  0.3031
  171SOL     ow  681   2.864   5.271   1.593  0.6370 -0.4025  0.5216
  171SOL     hw  682   2.771   5.247   1.590  0.6134 -0.4049  1.0585
  171SOL     hw  683   2.863   5.362   1.623  0.9023 -1.4699  4.2889
  171SOL     vw  684   2.851   5.280   1.597  0.6690 -0.5438  1.0895
  172SOL     ow  685   6.152   6.503   6.807  0.0429 -0.0670  0.4803
  172SOL     hw  686   6.147   6.473   6.716 -3.6330  1.1056  0.1022
  172SOL     hw  687   6.167   6.424   6.858  5.3931 -0.4353 -1.1023
  172SOL     vw  688   6.153   6.489   6.802  0.2637  0.0391  0.2215
  173SOL     ow  689   1.061   1.465   0.418  0.0839 -0.6777 -0.6098
  173SOL     hw  690   1.055   1.539   0.478  1.3625 -1.7043  0.8734
  173SOL     hw  691   0.972   1.430   0.414 -0.5613  0.9429 -1.4176
  173SOL     vw  692   1.049   1.470   0.425  0.1675 -0.5993 -0.5207
  174SOL     ow  693   5.257   6.401   3.043 -0.0406 -0.6321  0.1081
  174SOL     hw  694   5.197   6.397   2.969  0.9458 -0.1073 -0.7530
  174SOL     hw  695   5.269   6.495   3.058  3.0470 -0.5359 -1.9015
  174SOL     vw  696   5.251   6.413   3.035  0.4969 -0.5505 -0.2707
  175SOL     ow  697   2.065   1.685   6.036 -0.2191 -0.1633 -0.1197
  175SOL     hw  698   1.991   1.696   6.096  0.0060 -0.8062  0.2912
  175SOL     hw  699   2.094   1.774   6.016 -1.6099  0.1229 -0.9410
  175SOL     vw  700   2.059   1.698   6.042 -0.3730 -0.2103 -0.1740
  176SOL     ow  701   6.499   5.420   2.524 -0.0455 -0.2899  0.2554
  176SOL     hw  702   6.436   5.484   2.492 -1.4358 -1.9110 -0.3762
  176SOL     hw  703   6.447   5.360   2.577  1.0989 -1.2561  0.3166
  176SOL     vw  704   6.484   5.421   2.527 -0.0782 -0.6311  0.1801
  177SOL     ow  705   4.458   0.882   5.621  0.9863 -0.3259  0.2584
  177SOL     hw  706   4.447   0.822   5.547 -1.4717 -0.1615  0.4039
  177SOL     hw  707   4.543   0.923   5.606  0.4853 -0.1262 -2.6244
  177SOL     vw  708   4.468   0.879   5.609  0.5960 -0.2779 -0.1028
  178SOL     ow  709   2.540   5.663   4.475 -0.3849  0.3631 -0.4423
  178SOL     hw  710   2.466   5.604   4.457 -0.7663  0.4597  0.7018
  178SOL     hw  711   2.566   5.641   4.565  0.6323  0.7113 -0.6441
  178SOL     vw  712   2.534   5.652   4.485 -0.3011  0.4220 -0.3181
  179SOL     ow  713   3.212   6.276   3.250 -0.0349 -0.0562 -0.1681
  179SOL     hw  714   3.146   6.259   3.318  0.2932 -0.0199  0.1661
  179SOL     hw  715   3.246   6.190   3.228  3.0303  0.1219  2.9378
  179SOL     vw  716   3.208   6.263   3.256  0.4131 -0.0279  0.2859
  180SOL     ow  717   1.200   6.540   3.309 -0.4553 -0.5237 -0.2273
  180SOL     hw  718   1.293   6.560   3.300 -0.7848  0.6173 -1.3867
  180SOL     hw  719   1.188   6.524   3.403  0.9087 -0.7566 -0.0679
  180SOL     vw  720   1.211   6.540   3.320 -0.3188 -0.4041 -0.3593
  181SOL     ow  721   2.357   3.582   0.997  0.2356 -0.2315  0.3012
  181SOL     hw  722   2.425   3.623   1.050 -0.0622 -0.7591  1.1160
  181SOL     hw  723   2.313   3.655   0.954 -0.0154  0.2824  1.3971
  181SOL     vw  724   2.360   3.597   0.999  0.1631 -0.2333  0.5533
  182SOL     ow  725   3.236   4.509   4.562 -0.0659  0.0993 -0.6412
  182SOL     hw  726   3.158   4.562   4.549 -1.3821 -2.1422 -2.5132
  182SOL     hw  727   3.295   4.534   4.491 -0.0849  0.0555 -0.6723
  182SOL     vw  728   3.234   4.519   4.551 -0.2421 -0.2022 -0.8924
  183SOL     ow  729   3.826   1.754   4.851 -0.4182 -0.0456  0.1511
  183SOL     hw  730   3.800   1.697   4.923 -1.7802  0.2249 -0.0931
  183SOL     hw  731   3.858   1.694   4.783 -0.3680 -0.3960  0.4849
  183SOL     vw  732   3.827   1.738   4.851 -0.5914 -0.0561  0.1631
  184SOL     ow  733   6.214   2.115   1.688 -0.9338  0.6053  0.2718
  184SOL     hw  734   6.227   2.021   1.696  3.3166  0.9277 -0.1841
  184SOL     hw  735   6.229   2.134   1.595 -1.0042  1.8094  0.4842
  184SOL     vw  736   6.218   2.105   1.677 -0.3824  0.8067  0.2396
  185SOL     ow  737   3.760   3.854   2.072 -0.1150  0.1513  0.4006
  185SOL     hw  738   3.836   3.846   2.130 -0.8071  0.0598  1.3138
  185SOL     hw  739   3.733   3.764   2.056 -0.5250  0.2122  0.7468
  185SOL     vw  740   3.767   3.841   2.077 -0.2605  0.1472  0.5668
  186SOL     ow  741   2.329   2.040   6.562 -0.1027 -0.7104 -0.1140
  186SOL     hw  742   2.394   1.994   6.614  0.0329  1.2927  1.6339
  186SOL     hw  743   2.313   1.983   6.487  1.9479 -2.3132  0.5767
  186SOL     vw  744   2.335   2.027   6.559  0.1857 -0.6576  0.2077
  187SOL     ow  745   0.523   3.264   3.310 -0.1868 -0.0642 -0.9646
  187SOL     hw  746   0.439   3.287   3.270 -0.2703  1.4604  0.0074
  187SOL     hw  747   0.579   3.242   3.236 -1.3667 -0.8697 -1.6426
  187SOL     vw  748   0.519   3.264   3.295 -0.3535  0.0306 -0.9257
  188SOL     ow  749   2.860   4.576   0.773 -0.8045  0.2187  0.1195
  188SOL     hw  750   2.868   4.499   0.829 -0.9925  0.5913  0.6665
  188SOL     hw  751   2.885   4.649   0.829  0.3183  0.4706 -0.6669
  188SOL     vw  752   2.864   4.576   0.788 -0.6810  0.3014  0.0879
  189SOL     ow  753   0.428   1.273   3.857  0.0904  0.9302  0.0422
  189SOL     hw  754   0.522   1.256   3.865  0.3532  1.2471 -1.9424
  189SOL     hw  755   0.387   1.188   3.869  0.7802  0.4319 -1.0135
  189SOL     vw  756   0.435   1.260   3.860  0.2161  0.9063 -0.3589
  190SOL     ow  757   1.359   3.173   6.708 -0.2805  0.5546  0.0207
  190SOL     hw  758   1.368   3.091   6.659  1.0444  1.0774 -0.6687
  190SOL     hw  759   1.422   3.232   6.667  0.3753  1.2372  1.9385
  190SOL     vw  760   1.368   3.170   6.696 -0.0191  0.7137  0.1829
  191SOL     ow  761   1.267   6.360   4.662 -0.0332  0.5567  0.7844
  191SOL     hw  762   1.215   6.403   4.595 -0.4643 -2.0540 -0.6805
  191SOL     hw  763   1.348   6.411   4.665  0.0382  0.7316 -1.7898
  191SOL     vw  764   1.271   6.373   4.654 -0.0806  0.2353  0.2515
  192SOL     ow  765   6.032   1.042   0.790 -0.0299 -0.5170 -0.4410
  192SOL     hw  766   5.976   1.088   0.852  0.3842 -2.2239  1.2847
  192SOL     hw  767   6.043   0.955   0.827  1.0265 -1.3105 -2.4551
  192SOL     vw  768   6.026   1.037   0.803  0.1643 -0.8469 -0.4790
  193SOL     ow  769   4.583   4.752   0.925  0.4446  0.3337 -0.9446
  193SOL     hw  770   4.596   4.829   0.870  0.3692  0.7344 -0.4092
  193SOL     hw  771   4.631   4.771   1.005  1.1460 -0.5425 -1.1303
  193SOL     vw  772   4.591   4.764   0.928  0.5274  0.2711 -0.8985
  194SOL     ow  773   4.463   4.483   3.459  0.1187 -0.8723 -0.2642
  194SOL     hw  774   4.525   4.445   3.521  0.6327 -1.2574 -1.0024
  194SOL     hw  775   4.462   4.576   3.480  3.2411 -0.2631 -2.1048
  194SOL     vw  776   4.471   4.490   3.470  0.5987 -0.8428 -0.6044
  195SOL     ow  777   0.880   5.021   6.025 -0.1727  0.1108 -1.4200
  195SOL     hw  778   0.934   4.956   6.071  0.2400 -0.3590 -2.5399
  195SOL     hw  779   0.874   5.094   6.087  0.3648 -0.4977 -0.6145
  195SOL     vw  780   0.887   5.022   6.040 -0.0473 -0.0312 -1.4615
  196SOL     ow  781   4.690   0.237   2.156 -0.2524  0.7649 -0.7291
  196SOL     hw  782   4.748   0.174   2.198  0.3348 -0.3817 -3.1116
  196SOL     hw  783   4.602   0.209   2.181  0.0189 -0.8089 -1.3973
  196SOL     vw  784   4.686   0.225   2.165 -0.1390  0.4060 -1.1317
  197SOL     ow  785   0.022   6.465   3.455 -0.2354 -0.0135  1.0927
  197SOL     hw  786   0.018   6.403   3.382  0.9433 -1.1642  1.9530
  197SOL     hw  787   0.071   6.418   3.523  0.6753  1.8564  1.7892
  197SOL     vw  788   0.028   6.450   3.454  0.0403  0.0813  1.2981
  198SOL     ow  789   4.429   3.613   3.633 -0.1835 -0.0077  0.9275
  198SOL     hw  790   4.347   3.645   3.672  0.6679  1.3335  1.6842
  198SOL     hw  791   4.401   3.546   3.571 -1.7769 -0.3485  1.9576
  198SOL     vw  792   4.414   3.609   3.630 -0.2813  0.1242  1.1632
  199SOL     ow  793   1.905   5.588   1.854 -0.7328 -0.0284 -0.2115
  199SOL     hw  794   1.821   5.581   1.809 -0.6146 -1.2051 -0.2916
  199SOL     hw  795   1.884   5.578   1.947 -1.0657  3.1097  0.1523
  199SOL     vw  796   1.891   5.586   1.860 -0.7612  0.2301 -0.1740
  200SOL     ow  797   5.672   5.305   6.490  0.4020 -0.1504 -0.2499
  200SOL     hw  798   5.703   5.391   6.462 -0.5492 -0.3215 -1.9462
  200SOL     hw  799   5.628   5.321   6.573  1.1806  0.7976  0.0012
  200SOL     vw  800   5.671   5.319   6.497  0.3793 -0.0482 -0.4404
  201SOL     ow  801   0.827   0.035   4.533 -0.2400 -0.0401  0.5194
  201SOL     hw  802   0.890  -0.004   4.473 -2.1435 -2.0053 -0.3487
  201SOL     hw  803   0.828   0.128   4.512 -1.3602 -0.7126 -3.2446
  201SOL     vw  804   0.835   0.042   4.523 -0.6389 -0.3881 -0.0918
  202SOL     ow  805   1.388   0.387   3.079  0.5638 -0.0312  0.1485
  202SOL     hw  806   1.381   0.483   3.070 -2.1679  0.0395  1.7791
  202SOL     hw  807   1.423   0.374   3.166  2.1041 -0.5761 -0.5223
  202SOL     vw  808   1.391   0.398   3.089  0.4066 -0.0938  0.2749
  203SOL     ow  809   3.091   1.676   1.203  0.3847 -0.2007  0.4388
  203SOL     hw  810   3.098   1.756   1.255  0.4886  0.2995 -0.3218
  203SOL     hw  811   2.998   1.653   1.207  0.2909  0.1638  0.3577
  203SOL     vw  812   3.080   1.684   1.210  0.3860 -0.0865  0.3277
  204SOL     ow  813   1.005   4.318   5.905  0.2196  0.1928  0.3219
  204SOL     hw  814   0.968   4.374   5.973  3.0900  1.4632  0.9821
  204SOL     hw  815   1.100   4.321   5.919  0.7790 -1.4365 -2.2694
  204SOL     vw  816   1.013   4.326   5.916  0.6722  0.1452  0.0672
  205SOL     ow  817   6.241   0.006   4.394  0.2239  0.2300 -0.6562
  205SOL     hw  818   6.282   0.092   4.405  2.6253 -0.7217 -1.5484
  205SOL     hw  819   6.301  -0.043   4.338 -1.0358 -2.0669 -0.1441
  205SOL     vw  820   6.254   0.011   4.388  0.3746 -0.1986 -0.7064
  206SOL     ow  821   3.201   0.405   3.820  0.1585  0.4726 -0.0735
  206SOL     hw  822   3.106   0.418   3.819  0.0101 -0.5033 -1.1844
  206SOL     hw  823   3.237   0.484   3.779 -0.3083  0.0754 -1.2842
  206SOL     vw  824   3.193   0.417   3.815  0.0774  0.2915 -0.3799
  207SOL     ow  825   5.138   3.540   0.851 -0.2921  0.8673  0.4827
  207SOL     hw  826   5.197   3.508   0.919  2.2839 -0.6204 -2.1769
  207SOL     hw  827   5.154   3.634   0.848  1.7779  0.5692  0.1459
  207SOL     vw  828   5.148   3.548   0.859  0.3209  0.6317  0.0874
  208SOL     ow  829   5.495   2.608   2.544 -0.2170  0.1655 -0.1633
  208SOL     hw  830   5.416   2.595   2.596 -1.2316 -0.0289 -1.6923
  208SOL     hw  831   5.463   2.642   2.460  1.4159  1.1327 -0.4410
  208SOL     vw  832   5.481   2.611   2.540 -0.1354  0.2674 -0.4017
  209SOL     ow  833   3.458   3.034   2.752 -0.1647 -0.1310  0.0846
  209SOL     hw  834   3.373   3.031   2.709  0.8572 -2.1820 -1.9840
  209SOL     hw  835   3.498   2.949   2.733  2.4056  0.8039  0.8790
  209SOL     vw  836   3.452   3.022   2.744  0.3092 -0.2784 -0.0834
  210SOL     ow  837   4.373   6.369   1.545  0.8862  0.5792 -0.6063
  210SOL     hw  838   4.368   6.376   1.640 -0.2351 -0.2025 -0.5935
  210SOL     hw  839   4.449   6.314   1.528  1.2628  0.9610 -0.1860
  210SOL     vw  840   4.383   6.363   1.555  0.7880  0.5267 -0.5492
  211SOL     ow  841   3.526   5.602   4.071 -0.1428 -0.2611  0.5283
  211SOL     hw  842   3.466   5.544   4.024 -1.5822  0.1165  1.8379
  211SOL     hw  843   3.519   5.686   4.026 -1.1819 -0.0211  1.1076
  211SOL     vw  844   3.518   5.605   4.059 -0.4698 -0.1798  0.7775
  212SOL     ow  845   5.197   5.902   3.829 -0.1341  0.0029  0.0461
  212SOL     hw  846   5.278   5.934   3.790  0.7417 -0.1645  1.6457
  212SOL     hw  847   5.220   5.819   3.870 -0.5366  0.9117  2.3084
  212SOL     vw  848   5.211   5.895   3.829 -0.0718  0.1006  0.5556
  213SOL     ow  849   4.829   5.309   6.632 -0.5491 -0.9077 -0.3800
  213SOL     hw  850   4.773   5.300   6.555 -0.8344  0.2245 -0.3150
  213SOL     hw  851   4.786   5.256   6.699 -0.8901 -1.0177 -0.6810
  213SOL     vw  852   4.816   5.301   6.631 -0.6320 -0.7727 -0.4110
  214SOL     ow  853   1.526   3.383   5.672  0.1181 -0.5562 -0.6206
  214SOL     hw  854   1.458   3.442   5.702  0.4435  0.3625 -1.6411
  214SOL     hw  855   1.491   3.345   5.592  0.6431 -0.3794 -0.9354
  214SOL     vw  856   1.513   3.386   5.666  0.2303 -0.4116 -0.7966
  215SOL     ow  857   2.250   3.786   3.958  0.0033  0.0601 -0.5524
  215SOL     hw  858   2.160   3.801   3.989 -0.6426 -1.8661 -1.3383
  215SOL     hw  859   2.273   3.700   3.994  2.6658  1.6921  2.0208
  215SOL     vw  860   2.241   3.776   3.967  0.2694  0.0213 -0.3166
  216SOL     ow  861   3.859   2.059   1.186  0.3926 -0.2833 -0.6080
  216SOL     hw  862   3.804   2.138   1.185  0.4616 -0.1981  0.9007
  216SOL     hw  863   3.914   2.069   1.108 -1.6008 -0.3159 -2.1061
  216SOL     vw  864   3.859   2.071   1.175  0.1385 -0.2764 -0.6066
  217SOL     ow  865   1.654   0.864   2.593  0.0444 -0.2293  0.4189
  217SOL     hw  866   1.568   0.840   2.561 -0.9323 -0.4853  3.0135
  217SOL     hw  867   1.706   0.784   2.585 -0.6020 -0.6989  0.7787
  217SOL     vw  868   1.650   0.851   2.588 -0.1697 -0.3251  0.8086
  218SOL     ow  869   0.327   0.883   5.267 -0.0828  0.0492 -0.5147
  218SOL     hw  870   0.335   0.789   5.281  1.6893  0.1193 -0.8128
  218SOL     hw  871   0.316   0.892   5.172 -1.0813  0.1164 -0.4019
  218SOL     vw  872   0.327   0.872   5.256  0.0193  0.0673 -0.5395
  219SOL     ow  873   1.201   4.923   3.189  0.0868 -0.0253  0.3103
  219SOL     hw  874   1.194   4.988   3.258 -0.9290  1.4114 -1.0673
  219SOL     hw  875   1.110   4.898   3.170  0.2782  0.1157 -0.9237
  219SOL     vw  876   1.188   4.928   3.195 -0.0220  0.1829 -0.0342
  220SOL     ow  877   6.686   3.427   1.261 -0.0774 -0.6955 -0.6748
  220SOL     hw  878   6.594   3.406   1.247 -0.0867 -2.4078  1.4023
  220SOL     hw  879   6.733   3.346   1.239  0.8879 -0.0174 -1.2001
  220SOL     vw  880   6.680   3.414   1.256  0.0486 -0.8320 -0.4700
  221SOL     ow  881   0.897   3.365   5.015 -0.5944 -0.1141 -0.2642
  221SOL     hw  882   0.956   3.346   5.088  1.3266 -1.6875 -2.1247
  221SOL     hw  883   0.877   3.280   4.977 -1.4907  0.6715 -1.6435
  221SOL     vw  884   0.902   3.351   5.020 -0.4592 -0.2182 -0.6919
  222SOL     ow  885   3.559   5.240   3.227  0.2581 -0.7391 -0.2955
  222SOL     hw  886   3.590   5.310   3.283 -0.6830  0.4106 -1.1623
  222SOL     hw  887   3.491   5.196   3.278  0.5299 -0.7344  0.0706
  222SOL     vw  888   3.554   5.243   3.241  0.1698 -0.5872 -0.3616
  223SOL     ow  889   5.164   2.109   2.866 -0.5602  0.1031  0.2302
  223SOL     hw  890   5.082   2.157   2.855 -0.5252 -0.0196 -0.7379
  223SOL     hw  891   5.144   2.021   2.833  0.5887  0.7316 -2.3925
  223SOL     vw  892   5.151   2.103   2.860 -0.4044  0.1699 -0.2437
  224SOL     ow  893   5.646   0.634   2.024  0.3032 -0.2433 -0.3443
  224SOL     hw  894   5.697   0.588   1.958  0.1931 -1.7609  0.5882
  224SOL     hw  895   5.555   0.608   2.006  0.2533 -0.5108  0.2721
  224SOL     vw  896   5.641   0.624   2.013  0.2820 -0.4788 -0.1400
  225SOL     ow  897   6.113   6.528   1.862 -0.1142  0.6186  0.0023
  225SOL     hw  898   6.079   6.583   1.792  0.6363  0.1926 -0.7129
  225SOL     hw  899   6.112   6.584   1.940 -1.0821  1.0513 -0.3049
  225SOL     vw  900   6.109   6.543   1.863 -0.1431  0.6196 -0.1326
  226SOL     ow  901   3.919   2.015   4.994  0.3491  0.7230 -0.3664
  226SOL     hw  902   3.884   2.063   5.069 -1.3490  1.3072 -1.4832
  226SOL     hw  903   4.014   2.012   5.010  0.0512  0.9035  1.7324
  226SOL     vw  904   3.927   2.021   5.006  0.0857  0.8239 -0.2370
  227SOL     ow  905   0.835   5.346   4.931  0.7873 -1.1320 -0.2950
  227SOL     hw  906   0.844   5.284   5.004  1.9797  0.5377  1.0719
  227SOL     hw  907   0.922   5.387   4.924 -0.4597  1.9034  0.3520
  227SOL     vw  908   0.848   5.343   4.940  0.7801 -0.5114 -0.0293
  228SOL     ow  909   2.724   6.299   4.043 -0.6093 -0.2646 -0.3791
  228SOL     hw  910   2.652   6.295   4.106  0.7362  0.0566  1.2223
  228SOL     hw  911   2.802   6.318   4.095  0.1970  2.7572 -2.4038
  228SOL     vw  912   2.725   6.301   4.058 -0.3253  0.1767 -0.4349
  229SOL     ow  913   5.270   3.871   3.016  0.0012  0.4455 -0.1394
  229SOL     hw  914   5.252   3.870   3.110 -0.2873  2.7371 -0.0930
  229SOL     hw  915   5.251   3.782   2.986  0.0216 -0.3093  1.9443
  229SOL     vw  916   5.265   3.859   3.024 -0.0341  0.6483  0.1417
  230SOL     ow  917   6.515   3.370   1.876  0.0135 -0.2763  0.5019
  230SOL     hw  918   6.485   3.361   1.786 -0.8067 -0.0426  0.7460
  230SOL     hw  919   6.610   3.356   1.871 -0.2390 -2.0764 -0.1449
  230SOL     vw  920   6.524   3.367   1.864 -0.1280 -0.4829  0.4488
  231SOL     ow  921   5.477   6.415   6.754  0.5708 -0.0401 -0.2702
  231SOL     hw  922   5.552   6.433   6.698  0.2604  1.7916 -0.1727
  231SOL     hw  923   5.401   6.438   6.700  0.1352 -0.7379  0.0346
  231SOL     vw  924   5.477   6.421   6.740  0.4723  0.1097 -0.2172
  232SOL     ow  925   2.779   3.365   4.273  0.0084  0.5221  0.2374
  232SOL     hw  926   2.719   3.382   4.201  0.8513  2.5269 -0.0653
  232SOL     hw  927   2.841   3.301   4.239 -2.4361 -2.3924  0.8929
  232SOL     vw  928   2.779   3.359   4.259 -0.2030  0.4021  0.2840
  233SOL     ow  929   4.774   0.121   0.246 -0.2241  0.0952  0.5636
  233SOL     hw  930   4.758   0.171   0.326  0.4413 -0.0926  0.8189
  233SOL     hw  931   4.703   0.057   0.244 -0.4010  0.2778  0.8565
  233SOL     vw  932   4.762   0.119   0.256 -0.1593  0.0945  0.6359
  234SOL     ow  933   6.032   2.619   1.338  0.0805 -0.0425  0.3017
  234SOL     hw  934   5.969   2.553   1.364 -0.1886 -0.0985 -0.4481
  234SOL     hw  935   6.085   2.576   1.270 -0.4012  0.6442 -0.5373
  234SOL     vw  936   6.031   2.605   1.332 -0.0184  0.0408  0.0921
  235SOL     ow  937   2.722   6.356   0.958  0.5673 -0.3302 -0.6898
  235SOL     hw  938   2.743   6.447   0.937 -2.2386  0.6208  0.2675
  235SOL     hw  939   2.721   6.352   1.053  0.7804 -1.4278 -0.7150
  235SOL     vw  940   2.725   6.368   0.968  0.2252 -0.3493 -0.5668
  236SOL     ow  941   6.110   6.252   1.009 -0.2129 -0.4837  0.1678
  236SOL     hw  942   6.158   6.334   0.999 -1.3838  0.3052  0.7170
  236SOL     hw  943   6.159   6.189   0.957 -1.4241  1.4487 -3.7106
  236SOL     vw  944   6.122   6.255   1.001 -0.5269 -0.1245 -0.2714
  237SOL     ow  945   2.109   0.228   3.464 -0.1414  0.1790 -0.1824
  237SOL     hw  946   2.145   0.206   3.550  0.7472  0.8535 -0.3622
  237SOL     hw  947   2.016   0.246   3.481  0.2563  1.4804  0.8754
  237SOL     vw  948   2.101   0.228   3.478  0.0284  0.4397 -0.0666
  238SOL     ow  949   3.677   1.640   2.892  0.1302 -0.4258  0.0653
  238SOL     hw  950   3.762   1.679   2.872  1.0622 -2.1504  0.4846
  238SOL     hw  951   3.660   1.666   2.983  0.5692 -0.6737  0.2246
  238SOL     vw  952   3.686   1.648   2.901  0.3110 -0.6862  0.1416
  239SOL     ow  953   2.258   6.465   3.027 -0.3436 -0.3808 -0.1356
  239SOL     hw  954   2.305   6.436   3.105  2.6764  1.9046 -0.8980
  239SOL     hw  955   2.301   6.421   2.954 -0.0257  0.9411 -0.7918
  239SOL     vw  956   2.270   6.456   3.027  0.0967  0.0951 -0.3227
  240SOL     ow  957   0.844   3.352   2.088 -0.7415  0.0530  0.4071
  240SOL     hw  958   0.930   3.341   2.048 -1.0425 -0.5073 -0.0942
  240SOL     hw  959   0.862   3.348   2.182 -0.1171  0.7477  0.3305
  240SOL     vw  960   0.858   3.350   2.095 -0.6988  0.0707  0.3309
  241SOL     ow  961   1.976   1.559   3.164  0.0531  0.0940 -0.0781
  241SOL     hw  962   2.014   1.569   3.077  0.8923 -1.7774  0.0389
  241SOL     hw  963   2.013   1.632   3.214  0.5044  0.4832 -0.9569
  241SOL     vw  964   1.986   1.570   3.159  0.2234 -0.1015 -0.1786
  242SOL     ow  965   6.628   6.231   4.730 -0.1137  0.2386  0.1245
  242SOL     hw  966   6.673   6.176   4.665  0.1605  0.0932  0.4327
  242SOL     hw  967   6.657   6.320   4.709  0.2071  0.1601  0.2330
  242SOL     vw  968   6.638   6.235   4.718 -0.0353  0.2091  0.1795
  243SOL     ow  969   6.709   1.977   6.701 -0.9019  0.3811 -0.4854
  243SOL     hw  970   6.622   1.985   6.663 -1.3469  1.1060  0.6326
  243SOL     hw  971   6.758   2.052   6.667 -0.3949 -0.5547 -1.8770
  243SOL     vw  972   6.704   1.988   6.692 -0.8938  0.3533 -0.5217
  244SOL     ow  973   0.276   1.577   2.194  0.2069 -0.2120  0.3007
  244SOL     hw  974   0.276   1.667   2.163  0.0015 -0.4544 -0.4404
  244SOL     hw  975   0.343   1.574   2.262 -0.7902  0.8309  1.3593
  244SOL     vw  976   0.285   1.588   2.199  0.0483 -0.1063  0.3424
  245SOL     ow  977   3.945   1.065   4.128  0.0945  0.3305  0.5918
  245SOL     hw  978   3.878   1.126   4.158 -0.1428  1.4592 -1.9672
  245SOL     hw  979   3.900   0.981   4.119 -0.7115  0.8174 -0.0461
  245SOL     vw  980   3.931   1.062   4.131 -0.0432  0.5437  0.1700
  246SOL     ow  981   5.045   4.292   3.370 -0.6427  0.3657  0.2808
  246SOL     hw  982   5.095   4.210   3.366  0.8773  1.2414  0.3310
  246SOL     hw  983   5.067   4.330   3.455 -0.3439  1.4007 -0.2376
  246SOL     vw  984   5.055   4.286   3.380 -0.4027  0.6180  0.2190
  247SOL     ow  985   2.402   3.372   2.202 -0.9605  0.3554  0.4189
  247SOL     hw  986   2.387   3.280   2.221  0.9533  0.1607  1.2625
  247SOL     hw  987   2.418   3.375   2.108 -0.4478 -0.2860  0.4780
  247SOL     vw  988   2.402   3.360   2.192 -0.6404  0.2450  0.5381
  248SOL     ow  989   0.968   4.064   0.391 -0.2478  0.3651 -0.2479
  248SOL     hw  990   1.028   4.019   0.451 -1.3579 -1.2946 -0.3388
  248SOL     hw  991   1.017   4.072   0.310  0.1738 -0.1717 -0.0537
  248SOL     vw  992   0.982   4.059   0.388 -0.3386  0.0753 -0.2343
  249SOL     ow  993   1.088   0.953   4.638  0.0975  0.1934 -0.0155
  249SOL     hw  994   1.098   0.891   4.566 -2.0920 -1.0849  0.6972
  249SOL     hw  995   1.173   0.953   4.682  0.3728 -1.7503 -0.4710
  249SOL     vw  996   1.101   0.945   4.634 -0.1550 -0.2317  0.0184
  250SOL     ow  997   5.047   0.864   4.297 -0.0953 -0.2630  0.3598
  250SOL     hw  998   5.021   0.913   4.375  3.0912  0.2268  1.2326
  250SOL     hw  999   5.066   0.932   4.232  1.8458 -0.3750  0.7498
  250SOL     vw 1000   5.046   0.880   4.299  0.5810 -0.2132  0.5264
  251SOL     ow 1001   1.129   6.770   1.478  0.3081 -0.0490 -0.2865
  251SOL     hw 1002   1.058   6.804   1.532  0.1695  1.5193 -1.4007
  251SOL     hw 1003   1.198   6.748   1.540 -1.5577 -2.9548  0.9899
  251SOL     vw 1004   1.129   6.772   1.493  0.0436 -0.2253 -0.2650
  252SOL     ow 1005   5.863   4.560   6.528  0.5417  0.6652 -0.1805
  252SOL     hw 1006   5.844   4.588   6.618  0.1097 -2.1612  0.7072
  252SOL     hw 1007   5.872   4.642   6.479  2.4623  2.3831  2.7281
  252SOL     vw 1008   5.862   4.575   6.534  0.7379  0.5190  0.3207
  253SOL     ow 1009   4.716   4.803   2.172 -0.6783 -0.6535 -0.3234
  253SOL     hw 1010   4.659   4.778   2.245 -1.3959 -0.0302 -0.6530
  253SOL     hw 1011   4.785   4.737   2.172 -0.9568 -0.9665  0.5894
  253SOL     vw 1012   4.718   4.791   2.182 -0.8094 -0.6127 -0.2464
  254SOL     ow 1013   6.255   0.006   3.310  0.5281 -0.1600  0.1217
  254SOL     hw 1014   6.340   0.037   3.278  1.1182 -1.2621  0.6054
  254SOL     hw 1015   6.225  -0.055   3.243  0.6383 -0.6217  0.4912
  254SOL     vw 1016   6.262   0.002   3.297  0.6208 -0.3664  0.2342
  255SOL     ow 1017   2.804   5.519   4.495 -0.0749 -0.2850 -0.6769
  255SOL     hw 1018   2.883   5.487   4.452  0.7496  2.6558 -1.6034
  255SOL     hw 1019   2.823   5.513   4.589  1.8178  1.4534 -0.8852
  255SOL     vw 1020   2.817   5.514   4.502  0.2836  0.3324 -0.8264
  256SOL     ow 1021   3.461   1.207   4.297 -0.6540 -0.0806  0.1305
  256SOL     hw 1022   3.544   1.254   4.291 -0.5213 -0.0385  1.7680
  256SOL     hw 1023   3.487   1.115   4.305 -0.6684  0.0188  1.7421
  256SOL     vw 1024   3.476   1.201   4.297 -0.6384 -0.0619  0.5591
  257SOL     ow 1025   3.407   6.550   6.279 -0.2565 -0.3290 -0.3578
  257SOL     hw 1026   3.469   6.617   6.252 -1.0025  0.2888 -0.5764
  257SOL     hw 1027   3.372   6.515   6.197 -0.1908 -0.6794 -0.2377
  257SOL     vw 1028   3.411   6.554   6.265 -0.3464 -0.2937 -0.3707
  258SOL     ow 1029   0.366   5.817   4.596 -0.6098 -0.3390 -0.4258
  258SOL     hw 1030   0.370   5.871   4.674  2.6789 -1.4237  0.3343
  258SOL     hw 1031   0.308   5.744   4.620 -1.2577  0.3661  0.2176
  258SOL     vw 1032   0.359   5.814   4.609 -0.2614 -0.3893 -0.2406
  259SOL     ow 1033   6.670   6.737   0.937 -0.2093 -0.0948  0.2214
  259SOL     hw 1034   6.635   6.649   0.952  2.2156 -1.5243 -1.8264
  259SOL     hw 1035   6.763   6.724   0.918  0.0116  2.7927 -1.2843
  259SOL     vw 1036   6.677   6.724   0.937  0.1397  0.0978 -0.2474
  260SOL     ow 1037   3.205   5.987   1.747  0.5722 -0.3051  0.0569
  260SOL     hw 1038   3.201   5.946   1.833  0.1262  0.6986  0.5336
  260SOL     hw 1039   3.137   5.942   1.696  0.3049 -0.3654  0.4669
  260SOL     vw 1040   3.195   5.976   1.751  0.4781 -0.1807  0.1739
  261SOL     ow 1041   4.159   2.664   0.749 -0.2465  0.2049 -0.4986
  261SOL     hw 1042   4.143   2.577   0.712  0.6577  0.2788 -1.1089
  261SOL     hw 1043   4.167   2.721   0.672  1.7322  0.3510 -0.2546
  261SOL     vw 1044   4.158   2.660   0.734  0.1340  0.2339 -0.5470
  262SOL     ow 1045   0.543   3.056   3.532 -0.4416  0.0474 -0.3677
  262SOL     hw 1046   0.502   2.976   3.564 -0.3364  0.3334  0.5300
  262SOL     hw 1047   0.617   3.026   3.480  0.5257 -0.4493  1.2315
  262SOL     vw 1048   0.547   3.042   3.530 -0.3000  0.0197 -0.0383
  263SOL     ow 1049   2.090   2.688   4.514  0.0483 -0.8609 -0.3453
  263SOL     hw 1050   2.000   2.686   4.480 -0.1470 -1.9553  0.1884
  263SOL     hw 1051   2.085   2.640   4.596  0.9929 -0.3216  0.0342
  263SOL     vw 1052   2.077   2.681   4.520  0.1471 -0.9341 -0.2246
  264SOL     ow 1053   0.185   1.432   3.782  0.1544  0.0907 -0.2862
  264SOL     hw 1054   0.158   1.518   3.750 -0.4909 -0.0506 -0.1468
  264SOL     hw 1055   0.122   1.412   3.851  2.2248  0.9562  2.0265
  264SOL     vw 1056   0.173   1.441   3.787  0.3424  0.1863  0.0374
  265SOL     ow 1057   5.983   1.032   2.832 -0.8754  0.2108 -0.4127
  265SOL     hw 1058   5.942   0.961   2.881  1.1543  0.8636  2.4689
  265SOL     hw 1059   6.052   0.989   2.781 -0.2694 -0.0634  0.5998
  265SOL     vw 1060   5.987   1.017   2.832 -0.5274  0.2608  0.1011
  266SOL     ow 1061   0.501   5.388   6.743  0.8046  0.5003  0.4851
  266SOL     hw 1062   0.439   5.361   6.675  0.3073  0.8628  0.7877
  266SOL     hw 1063   0.547   5.308   6.767  0.5624  0.2547  0.1406
  266SOL     vw 1064   0.499   5.374   6.737  0.7071  0.5157  0.4795
  267SOL     ow 1065   5.968   1.284   6.238 -0.9795 -0.3910  0.7409
  267SOL     hw 1066   5.885   1.318   6.203 -0.4000  0.5005  0.2003
  267SOL     hw 1067   6.034   1.345   6.207 -0.0621 -1.2774  0.8900
  267SOL     vw 1068   5.965   1.296   6.229 -0.7820 -0.3904  0.6893
  268SOL     ow 1069   2.462   6.422   6.317 -0.5467  0.6931  0.5799
  268SOL     hw 1070   2.431   6.497   6.368 -0.6558  0.7303  0.4607
  268SOL     hw 1071   2.386   6.363   6.313 -0.0157 -0.1324  1.9683
  268SOL     vw 1072   2.448   6.424   6.323 -0.4910  0.5889  0.7472
  269SOL     ow 1073   4.494   2.238   0.187 -0.1737  0.1547 -0.0687
  269SOL     hw 1074   4.516   2.145   0.184  0.8898  0.4197 -1.4378
  269SOL     hw 1075   4.416   2.243   0.242 -1.8156 -1.8587 -2.0502
  269SOL     vw 1076   4.487   2.226   0.194 -0.2499 -0.0759 -0.5108
  270SOL     ow 1077   6.561   3.211   2.898  0.0385  0.5909 -0.1190
  270SOL     hw 1078   6.559   3.146   2.969 -0.8309  1.4994  0.7166
  270SOL     hw 1079   6.589   3.292   2.940 -2.3374  1.6195 -0.3461
  270SOL     vw 1080   6.564   3.213   2.913 -0.3898  0.8466 -0.0386
  271poe    c31 1081   1.959   2.048   5.282  0.2180 -0.6263 -0.3814
  271poe     o2 1082   2.020   1.922   5.298  0.3834 -0.4698  0.2577
  271poe    c23 1083   2.024   1.868   5.168  0.1639  0.0984  0.0139
  271poe    c23 1084   2.126   1.754   5.155  0.5122  0.3506  0.5168
  271poe     o2 1085   2.090   1.647   5.240 -0.1649 -0.1483 -0.3906
  271poe    c23 1086   2.201   1.566   5.270 -0.0977 -0.0131 -0.2747
  271poe    c23 1087   2.168   1.531   5.416  0.7027  0.0140 -0.0836
  271poe     o2 1088   2.149   1.651   5.488  0.0879 -0.2459  0.1879
  271poe    c23 1089   2.125   1.633   5.626  0.0044  0.1019  0.2197
  271poe    c23 1090   2.134   1.778   5.675  0.8741  0.1972 -0.1870
  271poe     o2 1091   2.054   1.857   5.589  0.3069  0.1777  0.3141
  271poe    c31 1092   2.066   1.994   5.618  0.8024  0.3233 -0.5632
  272poe    c31 1093   3.405   5.125   2.902  0.2187  0.2198  0.8399
  272poe     o2 1094   3.479   5.066   3.006  0.5195 -0.5031  0.2311
  272poe    c23 1095   3.380   4.988   3.070 -0.1523  0.4234  0.3331
  272poe    c23 1096   3.458   4.892   3.161 -0.0390  0.1399 -0.0613
  272poe     o2 1097   3.535   4.985   3.233 -0.0230 -0.3667  0.5938
  272poe    c23 1098   3.622   4.906   3.311 -0.4276 -1.1215  0.2909
  272poe    c23 1099   3.743   4.999   3.329 -0.8828 -0.4797  0.0869
  272poe     o2 1100   3.764   5.053   3.200 -0.2890 -0.1257  0.3283
  272poe    c23 1101   3.871   5.145   3.193 -0.3306 -0.0893  0.1729
  272poe    c23 1102   3.871   5.205   3.052 -0.1136  0.3937  0.3762
  272poe     o2 1103   3.742   5.227   2.999  0.0225  0.2951 -0.0022
  272poe    c31 1104   3.733   5.344   2.920  0.2586  0.0204 -0.4370
  273poe    c31 1105   3.822   3.045   1.990  0.0853  0.0409 -0.3254
  273poe     o2 1106   3.709   3.066   2.071  0.4060  0.3712  0.0392
  273poe    c23 1107   3.667   2.951   2.142  0.1948  0.3055 -0.1930
  273poe    c23 1108   3.518   2.970   2.178  0.0385 -0.5592 -0.3558
  273poe     o2 1109   3.492   3.078   2.265 -0.3717 -0.4330 -0.6321
  273poe    c23 1110   3.359   3.101   2.303 -0.1410  0.5032 -0.3517
  273poe    c23 1111   3.380   3.219   2.400  0.1958  0.0940  0.0821
  273poe     o2 1112   3.446   3.317   2.324  0.1421  0.0334 -0.0434
  273poe    c23 1113   3.451   3.429   2.409  0.0468 -0.1435  0.1961
  273poe    c23 1114   3.549   3.532   2.351 -0.0909  0.0424  0.2924
  273poe     o2 1115   3.683   3.493   2.368  0.1058  0.0573 -1.0635
  273poe    c31 1116   3.765   3.607   2.355 -0.0040  0.2599 -0.0476
  274poe    c31 1117   1.785   6.491   4.351 -0.0326  0.2685 -0.1656
  274poe     o2 1118   1.887   6.458   4.259 -0.1439 -0.3630 -0.0651
  274poe    c23 1119   2.015   6.443   4.316 -0.1231 -0.0948 -0.0431
  274poe    c23 1120   2.121   6.423   4.206 -0.0628 -0.2016  0.0342
  274poe     o2 1121   2.054   6.315   4.145 -0.1370  0.1141 -0.4510
  274poe    c23 1122   2.130   6.264   4.038  0.3487 -0.7147  0.2740
  274poe    c23 1123   2.018   6.229   3.939  0.3912 -0.0101 -0.0355
  274poe     o2 1124   1.901   6.190   4.008  0.0286  0.8006 -0.1904
  274poe    c23 1125   1.784   6.173   3.930  0.0121  0.0926 -0.0145
  274poe    c23 1126   1.701   6.303   3.928  0.5143  0.4143 -0.2458
  274poe     o2 1127   1.709   6.347   4.061  0.1089 -0.0265 -0.0724
  274poe    c31 1128   1.637   6.468   4.067 -0.2517 -0.2622  0.4836
  275poe    c31 1129   6.066   4.498   1.252 -0.2223 -0.0138  0.4233
  275poe     o2 1130   6.111   4.465   1.122 -0.0601  0.3254  0.3935
  275poe    c23 1131   6.171   4.587   1.084  0.3041 -0.0250 -0.1610
  275poe    c23 1132   6.190   4.581   0.932 -0.5338  0.2270 -0.2814
  275poe     o2 1133   6.231   4.459   0.873  0.0340  0.0633  0.4438
  275poe    c23 1134   6.370   4.443   0.851  0.1349  0.6074  0.6582
  275poe    c23 1135   6.415   4.359   0.972 -0.4559 -0.3237  0.2446
  275poe     o2 1136   6.315   4.264   1.000 -0.4754 -0.3594  0.0580
  275poe    c23 1137   6.352   4.163   1.091 -0.1213 -0.2934 -0.0104
  275poe    c23 1138   6.228   4.075   1.119 -0.0042 -0.4858 -0.0953
  275poe     o2 1139   6.120   4.163   1.135 -0.1094 -0.5750 -0.3051
  275poe    c31 1140   6.026   4.101   1.219 -0.5032 -0.1043 -0.3934
  276poe    c31 1141   4.452   6.726   0.661 -0.4864  0.0631 -0.2645
  276poe     o2 1142   4.388   6.612   0.715 -0.2567 -0.1001 -0.3340
  276poe    c23 1143   4.323   6.645   0.835  0.6418 -0.1007  0.1638
  276poe    c23 1144   4.188   6.573   0.818  0.3724  0.3933  0.1862
  276poe     o2 1145   4.216   6.441   0.776  0.3136  0.4326  0.0216
  276poe    c23 1146   4.117   6.342   0.770  0.4691  0.2310  0.6586
  276poe    c23 1147   4.181   6.222   0.698 -0.4960  0.2129 -0.1842
  276poe     o2 1148   4.241   6.297   0.595 -0.0343  0.3279  0.1702
  276poe    c23 1149   4.318   6.225   0.502 -0.3010  0.3740 -0.0872
  276poe    c23 1150   4.393   6.329   0.417 -0.5054  0.5048 -0.1083
  276poe     o2 1151   4.471   6.406   0.506 -0.1278  0.2875 -0.2476
  276poe    c31 1152   4.560   6.492   0.438  0.5337  0.1959  0.4974
  277poe    c31 1153   2.083   5.287   6.343 -0.4964 -0.2080 -0.4566
  277poe     o2 1154   2.152   5.300   6.466  0.1288  0.1665 -0.8419
  277poe    c23 1155   2.290   5.287   6.441  0.2816 -0.1696  0.1261
  277poe    c23 1156   2.362   5.349   6.562  0.2951  0.8119 -0.3710
  277poe     o2 1157   2.294   5.301   6.676  0.1586  1.1580 -0.3075
  277poe    c23 1158   2.374   5.313   6.792 -0.1712  0.1722  0.0318
  277poe    c23 1159   2.295   5.245   6.904  0.4295 -0.3991  0.1194
  277poe     o2 1160   2.161   5.227   6.862  0.6796 -0.0386 -0.8324
  277poe    c23 1161   2.112   5.095   6.860 -0.0055  0.1563  1.2234
  277poe    c23 1162   1.979   5.114   6.785  0.6760 -0.0889 -0.0792
  277poe     o2 1163   1.971   5.187   6.665  0.2485  0.6785  0.4016
  277poe    c31 1164   1.834   5.208   6.643  0.0742 -0.6730  0.1490
  278poe    c31 1165   4.599   2.165   5.419 -0.9199 -0.1156 -0.0003
  278poe     o2 1166   4.521   2.063   5.476 -1.0481  0.0100  0.0499
  278poe    c23 1167   4.516   1.949   5.394 -0.1975  0.0838 -0.1101
  278poe    c23 1168   4.431   1.839   5.460 -0.0908  0.3952  0.5469
  278poe     o2 1169   4.295   1.850   5.425  0.1636  0.3921 -0.4645
  278poe    c23 1170   4.253   1.756   5.328 -0.3183  0.0014  0.1139
  278poe    c23 1171   4.101   1.781   5.319 -0.2627  0.1130 -0.5782
  278poe     o2 1172   4.044   1.805   5.445  0.3791  0.2454 -0.3074
  278poe    c23 1173   3.906   1.829   5.426  0.1647 -0.5644  0.1706
  278poe    c23 1174   3.834   1.856   5.560 -0.0307 -0.2697  0.0080
  278poe     o2 1175   3.918   1.957   5.611 -0.2290  0.1356 -0.4563
  278poe    c31 1176   3.848   2.045   5.696  0.1946  0.3042 -0.2790
  279poe    c31 1177   1.500   0.049   3.087 -0.3544 -0.3114 -0.4443
  279poe     o2 1178   1.473   0.131   2.975  0.3021  0.3644 -0.1152
  279poe    c23 1179   1.543   0.090   2.860  0.5252 -0.1137  0.1908
  279poe    c23 1180   1.570   0.224   2.790 -0.2989 -0.1094 -0.1359
  279poe     o2 1181   1.448   0.294   2.788 -0.3708 -0.2380 -0.2534
  279poe    c23 1182   1.439   0.419   2.722 -0.0805  0.1145  0.3602
  279poe    c23 1183   1.286   0.431   2.711  0.0132  0.5464 -0.4914
  279poe     o2 1184   1.232   0.456   2.838  0.2901  0.2604 -0.3171
  279poe    c23 1185   1.114   0.533   2.836  0.1532  0.1117  0.8140
  279poe    c23 1186   0.988   0.452   2.871  0.3024 -0.5845 -0.2084
  279poe     o2 1187   0.870   0.528   2.861  0.4421 -0.3498 -0.0695
  279poe    c31 1188   0.763   0.466   2.928  0.1905  0.0501 -0.0957
  280poe    c31 1189   3.580   4.051   6.760  0.8714 -0.0957  0.0830
  280poe     o2 1190   3.505   4.087   6.646  0.6704 -0.1859  0.1862
  280poe    c23 1191   3.572   4.082   6.522  0.2821 -0.1205 -0.0291
  280poe    c23 1192   3.461   4.102   6.418 -0.1919  0.3610  0.5635
  280poe     o2 1193   3.359   4.016   6.465  0.1247 -0.2812  0.0815
  280poe    c23 1194   3.251   4.017   6.374  0.0734 -0.8307  0.1304
  280poe    c23 1195   3.149   3.914   6.428 -0.5646 -0.3037 -0.0528
  280poe     o2 1196   3.154   3.933   6.567 -0.1705 -0.1934 -0.0803
  280poe    c23 1197   3.147   3.814   6.642 -0.0132 -0.1316  0.0331
  280poe    c23 1198   3.159   3.863   6.787 -0.0469 -0.4730  0.1515
  280poe     o2 1199   3.267   3.953   6.797  0.2998 -0.9158  0.4878
  280poe    c31 1200   3.266   4.018   6.922  0.9068  0.5316 -0.2326
  281poe    c31 1201   2.350   4.675   1.215 -0.3085 -0.2659  0.3296
  281poe     o2 1202   2.286   4.659   1.090  0.3371  0.6701 -0.1425
  281poe    c23 1203   2.353   4.682   0.969  0.1494 -0.0143 -0.3810
  281poe    c23 1204   2.246   4.734   0.871  0.0805  0.2274 -0.1761
  281poe     o2 1205   2.123   4.669   0.896  0.5550 -0.6066  0.0435
  281poe    c23 1206   2.047   4.627   0.785  0.1586  0.1588  0.0138
  281poe    c23 1207   1.936   4.726   0.745  0.0721  0.0778  0.0518
  281poe     o2 1208   2.007   4.838   0.697 -0.2715  0.1628 -0.2619
  281poe    c23 1209   1.927   4.916   0.611 -0.1096  0.0912 -0.4780
  281poe    c23 1210   1.982   5.060   0.600 -0.6403  0.3634  0.3017
  281poe     o2 1211   1.959   5.165   0.691 -0.1543 -0.0290  0.8836
  281poe    c31 1212   1.824   5.205   0.697 -0.3303 -0.4839  0.1374
  282poe    c31 1213   1.358   1.915   3.596 -0.6222 -0.3471 -0.4137
  282poe     o2 1214   1.344   1.946   3.732 -0.2691 -0.0843 -0.4355
  282poe    c23 1215   1.219   1.908   3.786 -0.1363 -0.0974 -0.1317
  282poe    c23 1216   1.209   1.954   3.933 -0.3190 -0.3692 -0.0588
  282poe     o2 1217   1.270   2.081   3.925 -0.3328 -0.3680 -0.1515
  282poe    c23 1218   1.303   2.131   4.053  0.0988  0.2238 -0.4906
  282poe    c23 1219   1.361   2.271   4.029  0.2060  0.2707  0.0370
  282poe     o2 1220   1.458   2.254   3.928 -0.5141  0.4515 -0.6933
  282poe    c23 1221   1.533   2.367   3.888  0.0718  0.1216 -0.5308
  282poe    c23 1222   1.640   2.307   3.795  0.0146  0.0884 -0.5748
  282poe     o2 1223   1.585   2.198   3.724 -0.2458 -0.0102 -0.2236
  282poe    c31 1224   1.678   2.152   3.629  0.0144 -0.1025  0.0724
  283poe    c31 1225   2.041   1.251   3.218 -0.5992  0.0080 -0.1773
  283poe     o2 1226   1.965   1.318   3.316 -0.4837  0.3998 -0.3524
  283poe    c23 1227   2.027   1.340   3.441 -0.2220 -0.1506 -0.3803
  283poe    c23 1228   1.946   1.445   3.519  0.2566 -0.0728  0.0114
  283poe     o2 1229   1.887   1.525   3.418  0.1231  0.1593  0.2710
  283poe    c23 1230   1.813   1.633   3.469 -0.0274 -0.0623  0.5266
  283poe    c23 1231   1.748   1.715   3.356  0.4139 -0.3545  0.0543
  283poe     o2 1232   1.663   1.627   3.285  0.6734 -0.1908 -0.4598
  283poe    c23 1233   1.559   1.689   3.214  0.0727 -0.2423  0.3648
  283poe    c23 1234   1.460   1.582   3.165 -0.1855  0.2815 -0.2715
  283poe     o2 1235   1.499   1.491   3.064 -0.3846 -0.0586 -0.0418
  283poe    c31 1236   1.393   1.428   2.995 -0.1906 -0.6721  0.2073
  284poe    c31 1237   5.563   4.107   0.402 -0.1796 -0.5128 -0.0839
  284poe     o2 1238   5.614   3.976   0.389  0.1868 -0.3534 -0.2766
  284poe    c23 1239   5.733   3.985   0.314  0.1182 -0.2544 -0.3729
  284poe    c23 1240   5.790   3.842   0.313  0.0905 -0.2705  0.1508
  284poe     o2 1241   5.795   3.795   0.446 -0.2936 -0.1654  0.2044
  284poe    c23 1242   5.827   3.658   0.441 -0.0289 -0.0969 -0.0532
  284poe    c23 1243   5.778   3.594   0.573 -0.1398 -0.2277 -0.1575
  284poe     o2 1244   5.645   3.640   0.575  0.0057  0.2050 -0.1376
  284poe    c23 1245   5.575   3.626   0.696 -0.4228 -0.1353 -0.4196
  284poe    c23 1246   5.444   3.707   0.687 -0.1482  0.3850  0.1888
  284poe     o2 1247   5.469   3.821   0.608 -0.0491 -0.2188 -0.6688
  284poe    c31 1248   5.348   3.892   0.597 -0.2717 -0.3880  0.4606
  285poe    c31 1249   4.303   6.207   5.500  0.6260 -0.7416 -0.2702
  285poe     o2 1250   4.315   6.279   5.380 -0.0672 -0.1076  0.0297
  285poe    c23 1251   4.401   6.205   5.295  0.3905  0.3980  0.0424
  285poe    c23 1252   4.394   6.250   5.148  0.1521  0.3434  0.0352
  285poe     o2 1253   4.450   6.376   5.118  0.2292  0.4028  0.4250
  285poe    c23 1254   4.428   6.424   4.988  0.0438 -0.0044  0.3036
  285poe    c23 1255   4.474   6.571   4.986  0.3910 -0.1148  0.2353
  285poe     o2 1256   4.413   6.651   5.085 -0.4751 -0.1321 -0.2708
  285poe    c23 1257   4.434   6.788   5.060 -0.5770 -0.0485  0.0959
  285poe    c23 1258   4.452   6.848   5.201  0.0022 -0.4682  0.2069
  285poe     o2 1259   4.365   6.791   5.296 -0.2960 -0.0784  0.1713
  285poe    c31 1260   4.367   6.871   5.411 -0.4213  0.1672  0.0027
  286poe    c31 1261   3.776   4.518   4.708  0.8861  0.2129  0.2129
  286poe     o2 1262   3.860   4.416   4.757 -0.4433 -0.7401  0.5829
  286poe    c23 1263   3.902   4.320   4.663 -0.7810 -0.1093 -0.2252
  286poe    c23 1264   3.958   4.202   4.746  0.0474  0.1662 -0.3898
  286poe     o2 1265   4.055   4.265   4.827 -0.0824  0.1879 -0.2525
  286poe    c23 1266   4.123   4.185   4.922 -0.0699  0.2983 -0.1676
  286poe    c23 1267   4.253   4.266   4.936  0.0184  0.2126 -0.4938
  286poe     o2 1268   4.225   4.403   4.926  0.0305  0.2569  0.0648
  286poe    c23 1269   4.234   4.465   5.053  0.4243  0.5322 -0.0961
  286poe    c23 1270   4.159   4.600   5.052 -0.1842  0.2000 -0.1759
  286poe     o2 1271   4.049   4.581   4.966 -0.2074 -0.7579  0.0516
  286poe    c31 1272   3.954   4.683   4.986 -0.0172 -0.5454 -0.1196
  287poe    c31 1273   2.765   0.212   4.603  0.2530  0.2840 -0.0654
  287poe     o2 1274   2.700   0.336   4.583  0.3937  0.3304 -0.2458
  287poe    c23 1275   2.598   0.357   4.678  0.2731  0.5689 -0.4296
  287poe    c23 1276   2.468   0.332   4.599  0.0375  0.1881  0.0765
  287poe     o2 1277   2.475   0.417   4.487  0.2139 -0.2066 -0.2134
  287poe    c23 1278   2.390   0.354   4.393  0.4256 -0.1682 -0.4309
  287poe    c23 1279   2.470   0.350   4.261  0.2001  0.4757 -0.5934
  287poe     o2 1280   2.609   0.338   4.283  0.1354  0.4363 -0.1898
  287poe    c23 1281   2.687   0.366   4.169  0.0379 -0.1451 -0.4012
  287poe    c23 1282   2.832   0.357   4.219 -0.3465 -0.5732  0.6693
  287poe     o2 1283   2.841   0.429   4.339  0.4445 -0.6891  0.6856
  287poe    c31 1284   2.975   0.424   4.385  0.4515  0.7428  0.8660
  288poe    c31 1285   3.627   5.213   1.153  0.7614 -0.0009  0.3099
  288poe     o2 1286   3.580   5.326   1.222  0.0100 -0.1638  0.0702
  288poe    c23 1287   3.587   5.439   1.138 -0.2629 -0.1223  0.1006
  288poe    c23 1288   3.480   5.545   1.167 -0.5902 -0.4780  0.2020
  288poe     o2 1289   3.452   5.577   1.302 -0.2269 -0.6087  0.3086
  288poe    c23 1290   3.340   5.659   1.323  0.3587  0.3747 -0.3123
  288poe    c23 1291   3.351   5.716   1.465 -0.3538  0.0657 -0.1271
  288poe     o2 1292   3.371   5.618   1.564  0.4359  0.5410  0.1972
  288poe    c23 1293   3.313   5.659   1.686  0.8109  0.2558  0.4711
  288poe    c23 1294   3.314   5.536   1.779  0.1975 -0.2180 -0.1407
  288poe     o2 1295   3.441   5.476   1.795  0.3981  0.2168 -0.0843
  288poe    c31 1296   3.447   5.355   1.868  0.5809  0.6548  0.6378
  289poe    c31 1297   5.294   0.763   1.295  0.1648 -0.6474 -0.3503
  289poe     o2 1298   5.390   0.843   1.360 -0.5921 -0.0748  0.0769
  289poe    c23 1299   5.505   0.871   1.284 -0.2406 -0.1218  0.5857
  289poe    c23 1300   5.588   0.986   1.346  0.7927 -0.3950 -0.2595
  289poe     o2 1301   5.585   0.949   1.482  0.0542  0.1355 -0.1246
  289poe    c23 1302   5.708   0.896   1.526 -0.0116  0.0351 -0.0634
  289poe    c23 1303   5.673   0.861   1.672 -0.2520  0.4423 -0.0215
  289poe     o2 1304   5.542   0.810   1.671  0.1732 -0.6889 -0.3997
  289poe    c23 1305   5.488   0.805   1.801  0.7452 -0.7066 -0.1601
  289poe    c23 1306   5.345   0.749   1.781  0.4859 -0.1545  0.1205
  289poe     o2 1307   5.290   0.809   1.666 -0.1139 -0.7952  0.0691
  289poe    c31 1308   5.149   0.805   1.670 -0.1618  0.1193 -0.3955
  290poe    c31 1309   6.007   6.725   5.040 -0.3031 -0.2232 -0.7101
  290poe     o2 1310   5.903   6.771   4.956 -1.0047 -0.2879  0.1057
  290poe    c23 1311   5.830   6.658   4.913 -0.7706 -0.5919  0.4954
  290poe    c23 1312   5.736   6.657   4.791 -0.1066 -0.1476 -0.0300
  290poe     o2 1313   5.622   6.737   4.812  0.1574  0.2737 -0.1939
  290poe    c23 1314   5.530   6.732   4.705  0.1921  0.1974 -0.2198
  290poe    c23 1315   5.533   6.871   4.639  0.1655  0.1682 -0.2819
  290poe     o2 1316   5.495   6.967   4.734 -0.4761 -0.1566 -0.2004
  290poe    c23 1317   5.506   7.097   4.681 -0.0756 -0.1417 -0.0807
  290poe    c23 1318   5.467   7.188   4.799  0.4469  0.4762 -0.3700
  290poe     o2 1319   5.530   7.148   4.919 -0.4161  0.2520  0.0204
  290poe    c31 1320   5.570   7.258   4.998 -0.3288 -0.0676  0.4246
  291poe    c31 1321   0.199   5.560   6.712 -1.0532  0.1144  0.4776
  291poe     o2 1322   0.293   5.593   6.812 -0.5955  0.0604  0.0691
  291poe    c23 1323   0.244   5.570   6.942 -0.1833 -0.2441  0.1711
  291poe    c23 1324   0.347   5.602   7.052  0.1237  0.4629 -0.3205
  291poe     o2 1325   0.470   5.548   7.009  0.2168  0.3156  0.1269
  291poe    c23 1326   0.569   5.620   7.079  0.0484  0.2889  0.3922
  291poe    c23 1327   0.687   5.636   6.982 -0.1762 -0.0455  0.0611
  291poe     o2 1328   0.628   5.684   6.863 -0.1468  0.5595  0.2841
  291poe    c23 1329   0.724   5.694   6.761 -0.3899 -0.1567 -0.0250
  291poe    c23 1330   0.647   5.733   6.633  0.0351 -0.0320 -0.2448
  291poe     o2 1331   0.537   5.646   6.628 -0.3393  0.4197  0.0948
  291poe    c31 1332   0.487   5.630   6.498  0.1057 -0.1912 -0.0080
  292poe    c31 1333   3.282   6.185   0.885 -0.4539 -0.4919 -0.5790
  292poe     o2 1334   3.395   6.215   0.808 -0.3429  0.5086 -0.0416
  292poe    c23 1335   3.355   6.327   0.732 -0.3894  0.3218 -0.2949
  292poe    c23 1336   3.482   6.411   0.707  0.0713 -0.0191  0.8129
  292poe     o2 1337   3.571   6.313   0.659 -0.0295  0.3789 -0.2208
  292poe    c23 1338   3.694   6.368   0.616  0.0199  0.1102 -0.4201
  292poe    c23 1339   3.770   6.245   0.563 -0.0555 -0.0213 -0.2255
  292poe     o2 1340   3.762   6.147   0.664  0.3255 -0.0546 -0.2266
  292poe    c23 1341   3.814   6.030   0.603  0.4849 -0.0327 -0.1335
  292poe    c23 1342   3.913   5.973   0.706 -0.3239 -0.5888  0.3512
  292poe     o2 1343   3.852   5.926   0.824 -0.2763 -0.5221  0.4025
  292poe    c31 1344   3.934   5.855   0.915  0.6787  0.0900  0.0267
  293poe    c31 1345   6.471   6.378   5.068  0.0110  0.4418 -0.2175
  293poe     o2 1346   6.566   6.274   5.061 -0.1471  0.2663  0.2055
  293poe    c23 1347   6.548   6.190   5.173  0.0770 -0.7261 -0.4953
  293poe    c23 1348   6.664   6.090   5.188  0.6723  0.0555  0.2090
  293poe     o2 1349   6.670   6.032   5.059  0.2271  0.6070 -0.0679
  293poe    c23 1350   6.769   5.933   5.039 -0.0841  0.2736  0.0261
  293poe    c23 1351   6.742   5.856   4.908 -0.2503  0.1312  0.1447
  293poe     o2 1352   6.715   5.934   4.794  0.8541 -0.1922 -0.3448
  293poe    c23 1353   6.739   5.859   4.677  0.2434  0.1410 -0.6913
  293poe    c23 1354   6.693   5.941   4.556 -0.2536  0.0743 -0.5499
  293poe     o2 1355   6.753   6.069   4.556 -0.1201  0.0139 -0.0341
  293poe    c31 1356   6.744   6.121   4.425 -0.0402  0.4138  0.1165
  294poe    c31 1357   1.581   2.657   4.941  0.0423 -0.2500  0.1539
  294poe     o2 1358   1.485   2.694   5.037  0.2484  0.0905  0.2294
  294poe    c23 1359   1.465   2.834   5.043  0.0223  0.0651  0.0921
  294poe    c23 1360   1.363   2.878   5.150 -0.2669  0.0990 -0.1992
  294poe     o2 1361   1.263   2.785   5.114 -0.2843 -0.0419  0.2150
  294poe    c23 1362   1.154   2.775   5.203 -0.4614  0.2366  0.0304
  294poe    c23 1363   1.069   2.656   5.154 -0.0190 -0.1659  0.2298
  294poe     o2 1364   1.161   2.551   5.135  0.1496  0.0269 -0.0226
  294poe    c23 1365   1.171   2.459   5.242 -0.5752 -0.3953 -0.3143
  294poe    c23 1366   1.284   2.358   5.214 -0.1257  0.0177 -0.0022
  294poe     o2 1367   1.385   2.447   5.172 -0.4100  0.0744 -0.5847
  294poe    c31 1368   1.514   2.391   5.180 -0.2794  0.4888  0.4013
  295poe    c31 1369   3.527   0.877   6.564  0.3477  0.7039  0.3295
  295poe     o2 1370   3.437   0.952   6.485 -0.1355  0.1419  0.3434
  295poe    c23 1371   3.471   1.088   6.502  0.1053  0.0822  0.3404
  295poe    c23 1372   3.401   1.198   6.422 -0.2544 -0.2429  0.2049
  295poe     o2 1373   3.262   1.207   6.445 -0.2333  0.5243  0.0653
  295poe    c23 1374   3.206   1.296   6.351 -0.4750  0.5264  0.2097
  295poe    c23 1375   3.059   1.335   6.372 -0.6326 -0.1775  0.4546
  295poe     o2 1376   3.051   1.392   6.501  0.1018  0.3582  0.2711
  295poe    c23 1377   2.926   1.450   6.532 -0.0944  0.0505  0.0655
  295poe    c23 1378   2.902   1.434   6.683  0.2797  0.2647  0.1503
  295poe     o2 1379   3.023   1.468   6.747  0.5069 -0.4789  0.1307
  295poe    c31 1380   2.991   1.497   6.881 -0.8324 -0.1406 -0.2402
  296poe    c31 1381   4.379   4.852   1.758 -0.2246 -0.0212 -0.0257
  296poe     o2 1382   4.387   4.718   1.801  0.1300 -0.0758 -0.2595
  296poe    c23 1383   4.315   4.692   1.919  0.1928 -0.3329 -0.2766
  296poe    c23 1384   4.364   4.560   1.980 -0.5272 -0.3515  0.2779
  296poe     o2 1385   4.319   4.446   1.910 -0.5109 -0.1973  0.0184
  296poe    c23 1386   4.342   4.324   1.976 -0.2267 -0.2340 -0.1434
  296poe    c23 1387   4.247   4.218   1.917 -0.1742 -0.2020 -0.2836
  296poe     o2 1388   4.240   4.228   1.776  0.1394 -0.3154 -0.3089
  296poe    c23 1389   4.148   4.137   1.721 -0.3482  0.1431 -0.2674
  296poe    c23 1390   4.151   4.135   1.567  0.2831  0.3475 -0.2589
  296poe     o2 1391   4.172   4.271   1.533 -0.3214  0.5719  0.2613
  296poe    c31 1392   4.152   4.277   1.394  0.4978  0.2143  0.1266
  297poe    c31 1393   5.645   1.836   6.415 -0.0300  0.3208  0.1483
  297poe     o2 1394   5.766   1.899   6.451  0.0463  0.0202  0.4182
  297poe    c23 1395   5.870   1.853   6.367 -0.4325  0.0821 -0.2145
  297poe    c23 1396   6.003   1.905   6.426 -0.4590  0.5701 -0.5829
  297poe     o2 1397   6.011   1.906   6.566  0.4093 -0.1106 -0.6176
  297poe    c23 1398   6.145   1.940   6.592  0.3122  0.0027 -0.2475
  297poe    c23 1399   6.160   1.955   6.744 -0.4314 -0.1163 -0.1598
  297poe     o2 1400   6.126   1.834   6.809  0.0489 -0.2448 -0.1433
  297poe    c23 1401   6.150   1.847   6.947  0.0678  0.0266 -0.1709
  297poe    c23 1402   6.066   1.752   7.035 -0.0105  0.2134 -0.0429
  297poe     o2 1403   6.066   1.616   6.998 -0.0095  0.1583  0.1595
  297poe    c31 1404   6.136   1.540   7.094  0.3920 -0.1699 -0.3856
  298poe    c31 1405   3.157   1.065   3.854 -0.1444 -0.4606 -0.2914
  298poe     o2 1406   3.235   1.065   3.737 -0.3772 -0.1123 -0.4449
  298poe    c23 1407   3.319   0.953   3.727 -0.1116  0.0101  0.3655
  298poe    c23 1408   3.410   0.982   3.606 -0.8206  0.6817 -0.0164
  298poe     o2 1409   3.362   0.990   3.474 -0.3481 -0.0718 -0.2433
  298poe    c23 1410   3.465   0.979   3.379 -0.3510  0.0583 -0.2618
  298poe    c23 1411   3.413   0.951   3.237 -0.1661  0.0275 -0.3253
  298poe     o2 1412   3.295   1.026   3.217 -0.2640  0.0936  0.4496
  298poe    c23 1413   3.265   1.046   3.080 -0.0797 -0.0616  0.3861
  298poe    c23 1414   3.130   1.114   3.052 -0.3585 -0.4206  0.8310
  298poe     o2 1415   3.128   1.250   3.091  0.4379 -0.1990  0.1201
  298poe    c31 1416   2.998   1.303   3.085  0.6041  0.1869 -0.0857
  299poe    c31 1417   4.408   2.771   4.152  0.2128  0.0984 -0.0972
  299poe     o2 1418   4.364   2.794   4.020 -0.3528 -0.3202  0.0170
  299poe    c23 1419   4.416   2.916   3.973 -0.7121 -0.0222  0.3880
  299poe    c23 1420   4.340   2.969   3.850 -0.1389 -0.1485 -0.0209
  299poe     o2 1421   4.208   2.925   3.871 -0.4217  0.7166  0.0316
  299poe    c23 1422   4.118   2.961   3.768 -0.2500 -0.1114 -0.4134
  299poe    c23 1423   3.970   2.922   3.779 -0.1493 -0.3132  0.2742
  299poe     o2 1424   3.973   2.786   3.813 -0.1005 -0.4322 -0.1987
  299poe    c23 1425   3.853   2.714   3.835 -0.7210  0.7666  0.4234
  299poe    c23 1426   3.775   2.689   3.705 -0.0150  0.2744  0.0875
  299poe     o2 1427   3.728   2.800   3.632 -0.1988  0.3263  0.2831
  299poe    c31 1428   3.650   2.758   3.523 -0.1165  0.2812  0.2415
  300poe    c31 1429   0.351   3.790   5.196  0.4938  0.2647  0.3864
  300poe     o2 1430   0.358   3.763   5.058 -0.0417  0.4404  0.3216
  300poe    c23 1431   0.319   3.878   4.987 -0.6015  0.2272  0.2788
  300poe    c23 1432   0.272   3.825   4.850  0.1109  0.4855 -0.0722
  300poe     o2 1433   0.357   3.717   4.817 -0.0590  0.1494  0.5657
  300poe    c23 1434   0.310   3.638   4.710 -0.7008 -0.3243  1.1919
  300poe    c23 1435   0.373   3.497   4.719  0.0126 -0.0592  0.4439
  300poe     o2 1436   0.384   3.451   4.852 -0.0356 -0.0730  0.4431
  300poe    c23 1437   0.511   3.396   4.875  0.1049  0.3261  0.6243
  300poe    c23 1438   0.531   3.397   5.028 -0.2585 -0.2913  0.6784
  300poe     o2 1439   0.527   3.536   5.050 -0.8206 -0.3281  0.8279
  300poe    c31 1440   0.615   3.558   5.158 -0.5307  0.3584  0.4644
  301poe    c31 1441   6.697   0.832   2.672  0.0911  0.7352  0.5271
  301poe     o2 1442   6.813   0.762   2.632 -0.4103 -0.1432  0.5940
  301poe    c23 1443   6.802   0.626   2.670 -0.1790 -0.4158 -0.2943
  301poe    c23 1444   6.921   0.539   2.625  0.2785 -0.0710  0.2226
  301poe     o2 1445   6.938   0.588   2.494  0.3306  0.1615  0.3176
  301poe    c23 1446   7.052   0.543   2.425  0.1172 -0.0227  0.0871
  301poe    c23 1447   7.060   0.624   2.294  0.2582 -0.2417 -0.0416
  301poe     o2 1448   7.061   0.760   2.331  0.6207 -0.1682 -0.3117
  301poe    c23 1449   7.038   0.855   2.229  0.3450 -0.1209 -0.2085
  301poe    c23 1450   7.011   0.983   2.310 -0.4809 -0.0014 -0.6701
  301poe     o2 1451   6.903   0.945   2.393 -0.0059 -0.5959 -0.3227
  301poe    c31 1452   6.882   1.040   2.494 -0.4325 -0.8713 -0.1513
  302poe    c31 1453   2.379   0.176   1.583  0.1579  0.5178  0.2638
  302poe     o2 1454   2.465   0.104   1.668 -0.2071 -1.0893 -0.6912
  302poe    c23 1455   2.570   0.043   1.598  0.7513  0.2136 -0.4236
  302poe    c23 1456   2.675   0.002   1.704  0.0952 -0.2791  0.0422
  302poe     o2 1457   2.613  -0.054   1.817 -0.0456 -0.0400  0.0865
  302poe    c23 1458   2.698  -0.097   1.922  0.1060  0.2199  0.0707
  302poe    c23 1459   2.612  -0.156   2.035  0.4493  0.0239  0.2319
  302poe     o2 1460   2.512  -0.058   2.057  0.6451  0.1572  0.5293
  302poe    c23 1461   2.486  -0.064   2.196  0.0860 -0.2433  0.4125
  302poe    c23 1462   2.408   0.061   2.241  0.6130  0.3483 -0.2837
  302poe     o2 1463   2.294   0.073   2.158  0.2979  0.2343  0.1276
  302poe    c31 1464   2.206   0.161   2.223  0.4797  0.2108  0.4102
  303poe    c31 1465   4.705   2.955   2.174  0.1498  0.1494 -0.0698
  303poe     o2 1466   4.732   2.969   2.037 -0.3099 -0.1972 -0.1953
  303poe    c23 1467   4.611   2.952   1.966  0.0444 -0.4404 -0.7523
  303poe    c23 1468   4.621   2.957   1.813  0.1614  0.0252 -0.7289
  303poe     o2 1469   4.722   3.051   1.782  0.7147 -0.0318  0.8415
  303poe    c23 1470   4.763   3.037   1.648 -0.3732  0.1475  0.4803
  303poe    c23 1471   4.872   3.142   1.620 -0.3014 -0.0752 -0.0918
  303poe     o2 1472   4.988   3.115   1.696 -0.2448  0.4731  0.0181
  303poe    c23 1473   5.106   3.168   1.638  0.0782  0.1500  0.3712
  303poe    c23 1474   5.226   3.114   1.717  0.3546 -0.8336 -0.6825
  303poe     o2 1475   5.235   3.159   1.850  0.0656 -0.5148 -0.7708
  303poe    c31 1476   5.324   3.080   1.926  0.4170  0.6344  0.0537
  304poe    c31 1477   4.480   4.303   5.343 -0.0395  0.8245 -0.1083
  304poe     o2 1478   4.570   4.197   5.316 -0.4662  0.4563 -0.0987
  304poe    c23 1479   4.512   4.076   5.272 -0.2701  0.1622  0.4380
  304poe    c23 1480   4.631   3.998   5.212 -0.5390 -0.1072  0.2532
  304poe     o2 1481   4.740   4.025   5.297 -0.2313  0.0184 -0.1761
  304poe    c23 1482   4.853   3.941   5.288 -0.2778 -0.1159  0.4652
  304poe    c23 1483   4.949   3.967   5.406  0.4898 -0.1346 -0.1516
  304poe     o2 1484   4.996   4.100   5.410  0.0028  0.0289  0.2357
  304poe    c23 1485   5.110   4.120   5.490  0.1297 -1.4094  0.4349
  304poe    c23 1486   5.249   4.091   5.431  0.0242 -0.3152 -0.3700
  304poe     o2 1487   5.268   3.951   5.423 -0.3198 -0.3906  0.1119
  304poe    c31 1488   5.406   3.938   5.397 -0.3967 -0.1936 -0.4004
  305poe    c31 1489   3.148   2.462   5.812 -0.3435  0.5240 -0.2795
  305poe     o2 1490   3.183   2.567   5.900 -0.5696  0.3028  0.0725
  305poe    c23 1491   3.077   2.659   5.891 -0.8559 -0.0463 -0.1588
  305poe    c23 1492   3.123   2.777   5.979  0.0746 -0.5707  0.0721
  305poe     o2 1493   3.174   2.718   6.096  0.2067 -0.3056  0.1487
  305poe    c23 1494   3.240   2.815   6.174 -0.2022 -0.0502  0.1804
  305poe    c23 1495   3.361   2.750   6.243  0.0756  0.1201 -0.1427
  305poe     o2 1496   3.406   2.674   6.134  0.1073  0.0977 -0.1147
  305poe    c23 1497   3.531   2.609   6.144  0.0432  0.0231  0.2114
  305poe    c23 1498   3.562   2.550   6.005 -0.1990 -0.0118  0.1710
  305poe     o2 1499   3.449   2.480   5.958 -0.1691 -0.1513  0.3067
  305poe    c31 1500   3.481   2.402   5.845 -0.1445 -0.3406  0.4435
  306poe    c31 1501   3.804   3.460   6.049 -0.0583 -0.1717 -0.1668
  306poe     o2 1502   3.737   3.344   6.006 -0.9442  0.2726 -0.0158
  306poe    c23 1503   3.608   3.321   6.058 -0.9188 -0.0176 -0.0791
  306poe    c23 1504   3.578   3.170   6.053  0.0724 -0.2132 -0.1434
  306poe     o2 1505   3.622   3.140   5.922  0.2822  0.0115 -0.1257
  306poe    c23 1506   3.580   3.014   5.875  0.4557  0.0033 -0.2599
  306poe    c23 1507   3.632   3.000   5.731  0.1372  0.1503 -0.3896
  306poe     o2 1508   3.764   3.048   5.746  0.2898 -0.3735 -0.0261
  306poe    c23 1509   3.818   3.085   5.621  0.9288  0.1243  0.3949
  306poe    c23 1510   3.923   3.198   5.625  0.5169  0.5397 -0.3476
  306poe     o2 1511   3.885   3.280   5.734  0.3389  0.0639 -0.0515
  306poe    c31 1512   3.972   3.389   5.756 -0.2223  0.5563 -0.2578
  307poe    c31 1513   3.061   0.085   3.675 -0.0163 -0.4517  0.4531
  307poe     o2 1514   3.161   0.109   3.771 -0.2218  0.1568  0.5200
  307poe    c23 1515   3.158   0.005   3.866 -0.1960 -0.4776 -0.1740
  307poe    c23 1516   3.301  -0.016   3.917 -0.1364  0.4305  0.0296
  307poe     o2 1517   3.341   0.113   3.959  0.0316  0.3405  0.1476
  307poe    c23 1518   3.463   0.126   4.029  0.0648  0.0975  0.1365
  307poe    c23 1519   3.500   0.275   4.047  1.4961 -0.1763 -0.3820
  307poe     o2 1520   3.492   0.327   3.916  0.1123  0.0006 -0.2484
  307poe    c23 1521   3.509   0.467   3.913 -0.1753  0.0450  0.1154
  307poe    c23 1522   3.513   0.518   3.767 -0.0059 -0.1267  0.0601
  307poe     o2 1523   3.396   0.564   3.703 -0.0093 -0.2955 -0.0550
  307poe    c31 1524   3.413   0.578   3.564  0.1580 -0.2978 -0.0356
  308poe    c31 1525   5.204   5.243   6.362  1.0435  0.0116 -0.5368
  308poe     o2 1526   5.150   5.270   6.235  0.7274  0.3549 -0.3323
  308poe    c23 1527   5.060   5.378   6.224 -0.1050 -0.3656 -0.7384
  308poe    c23 1528   4.946   5.343   6.126 -0.5506 -0.7316 -0.0909
  308poe     o2 1529   4.985   5.311   5.994 -0.6169  0.2442 -0.3506
  308poe    c23 1530   4.878   5.251   5.925 -0.7833 -0.1005  0.1995
  308poe    c23 1531   4.898   5.273   5.774  0.2384 -0.1101  0.3213
  308poe     o2 1532   5.029   5.225   5.757  0.1908 -0.1092 -0.0633
  308poe    c23 1533   5.079   5.226   5.625  0.6596 -0.3345  0.1095
  308poe    c23 1534   5.227   5.185   5.635  0.8108  0.0893 -0.3889
  308poe     o2 1535   5.287   5.269   5.731  0.1670  0.7512 -0.5486
  308poe    c31 1536   5.420   5.286   5.686  0.2609 -0.5546 -0.8132
  309poe    c31 1537   1.278   3.143   2.415  0.3572 -0.5352  0.3498
  309poe     o2 1538   1.237   3.030   2.489 -0.2952 -0.7765 -0.3722
  309poe    c23 1539   1.108   2.981   2.456 -0.8233  0.2394  0.1354
  309poe    c23 1540   1.081   2.848   2.529 -0.2913 -0.2791 -0.5983
  309poe     o2 1541   0.972   2.769   2.487 -0.1039 -0.8463 -0.0282
  309poe    c23 1542   0.846   2.803   2.542  0.0925  0.6321 -0.4621
  309poe    c23 1543   0.757   2.704   2.464  0.2883  0.5170 -0.5408
  309poe     o2 1544   0.798   2.571   2.482  0.1619  0.5800  0.2211
  309poe    c23 1545   0.738   2.483   2.390  0.3614  0.5249  0.1433
  309poe    c23 1546   0.828   2.358   2.399 -0.3196  0.0126 -0.0522
  309poe     o2 1547   0.961   2.406   2.395 -0.1905 -0.3313  0.0696
  309poe    c31 1548   1.050   2.301   2.367  0.1875 -0.0275  0.1140
  310poe    c31 1549   6.094   4.824   5.592 -0.0093 -0.2217  0.3898
  310poe     o2 1550   6.103   4.691   5.545  0.2377  0.1767 -0.7232
  310poe    c23 1551   5.983   4.623   5.575  0.2832  0.3135 -0.2295
  310poe    c23 1552   6.021   4.477   5.547  0.0999  0.2221 -0.0042
  310poe     o2 1553   6.098   4.480   5.429 -0.1286 -0.2985 -0.1718
  310poe    c23 1554   6.126   4.349   5.384  0.0496 -0.1983 -0.3548
  310poe    c23 1555   6.167   4.361   5.236 -0.2244 -0.2297 -0.4331
  310poe     o2 1556   6.250   4.474   5.231 -0.2756 -0.1914 -0.4206
  310poe    c23 1557   6.291   4.485   5.097 -0.1573 -0.1071 -0.3793
  310poe    c23 1558   6.427   4.556   5.098 -0.3076  0.1734  0.0181
  310poe     o2 1559   6.429   4.680   5.165  0.0307 -0.0409  0.4081
  310poe    c31 1560   6.557   4.739   5.165  0.0485 -0.0800  0.4451
  311poe    c31 1561   2.789   5.114   1.912 -0.4926 -0.2578  0.1671
  311poe     o2 1562   2.849   5.077   2.035 -0.1545  0.4156  0.2074
  311poe    c23 1563   2.970   5.010   2.013 -0.4615 -0.0757  0.0106
  311poe    c23 1564   3.058   5.024   2.138 -0.4665  0.9296 -0.0892
  311poe     o2 1565   2.952   5.012   2.231 -0.2184 -0.6260  0.0287
  311poe    c23 1566   2.994   5.003   2.365 -0.4556 -0.0860  0.1410
  311poe    c23 1567   2.864   4.999   2.448 -0.1500  0.0881  0.6311
  311poe     o2 1568   2.785   5.104   2.396 -0.0158 -0.0729  0.0968
  311poe    c23 1569   2.660   5.127   2.457 -0.1025 -0.2706 -0.0034
  311poe    c23 1570   2.597   5.237   2.369  0.3236 -0.2153 -0.2434
  311poe     o2 1571   2.606   5.189   2.237 -0.3658 -0.2999 -0.2589
  311poe    c31 1572   2.544   5.280   2.148  0.1407  0.1778 -0.1313
  312poe    c31 1573   2.718   1.821   0.869  0.4065 -0.0595  0.6445
  312poe     o2 1574   2.766   1.952   0.848  0.3084 -0.1595 -0.2395
  312poe    c23 1575   2.791   2.004   0.976 -0.1573 -0.0944 -0.1738
  312poe    c23 1576   2.912   2.097   0.950  0.2916 -0.8015 -0.6368
  312poe     o2 1577   2.870   2.162   0.832 -0.4204  0.2813  0.1908
  312poe    c23 1578   2.955   2.266   0.791  0.2509 -0.2076  0.3231
  312poe    c23 1579   2.885   2.358   0.689 -0.1535 -0.0925  0.6994
  312poe     o2 1580   2.809   2.274   0.604 -0.2635  0.3581  0.3479
  312poe    c23 1581   2.695   2.340   0.554 -0.2001  0.2995  0.1261
  312poe    c23 1582   2.593   2.226   0.538 -0.2679  0.3733  0.0348
  312poe     o2 1583   2.608   2.122   0.632 -0.4703  0.2078 -0.1128
  312poe    c31 1584   2.524   2.015   0.596 -0.0816 -0.0865 -0.1529
  313poe    c31 1585   2.562   3.730   4.072  0.5637  0.2394 -0.3893
  313poe     o2 1586   2.512   3.856   4.035 -0.4861  0.0195  0.2109
  313poe    c23 1587   2.600   3.914   3.941 -0.2180  0.1112  0.5157
  313poe    c23 1588   2.542   4.046   3.888  0.3180  0.5749  1.0706
  313poe     o2 1589   2.408   4.043   3.934  0.0276 -0.1923  0.2096
  313poe    c23 1590   2.367   4.170   3.979  0.3587 -0.2074  0.5578
  313poe    c23 1591   2.231   4.161   4.051  0.1372  0.1847  0.1908
  313poe     o2 1592   2.242   4.045   4.130 -0.2666  0.2390  0.3281
  313poe    c23 1593   2.115   4.026   4.190 -0.2758 -0.1891  0.1785
  313poe    c23 1594   2.117   3.901   4.278 -0.0082  0.1071  0.5936
  313poe     o2 1595   2.195   3.806   4.208 -0.2906 -0.0322  0.4672
  313poe    c31 1596   2.192   3.678   4.265  0.1968 -0.0844  0.3778
  314poe    c31 1597   3.351   2.654   1.588 -0.1574  0.3255  0.1210
  314poe     o2 1598   3.285   2.539   1.636  0.0444  0.0151 -0.3361
  314poe    c23 1599   3.180   2.520   1.543 -0.3656  0.0705  0.1154
  314poe    c23 1600   3.085   2.417   1.607 -0.4676  0.1408  0.0776
  314poe     o2 1601   3.173   2.323   1.664 -0.4441  0.1292  0.0225
  314poe    c23 1602   3.113   2.211   1.726 -0.2029  0.1836  0.3571
  314poe    c23 1603   3.226   2.116   1.769 -0.1453 -0.0213 -0.2484
  314poe     o2 1604   3.303   2.215   1.832  0.0370 -0.6714  0.5722
  314poe    c23 1605   3.432   2.164   1.857  0.4077 -0.1132 -0.1454
  314poe    c23 1606   3.522   2.286   1.883 -0.2592  0.3791 -0.1216
  314poe     o2 1607   3.480   2.369   1.777 -0.4260  0.2634 -0.1465
  314poe    c31 1608   3.588   2.439   1.720 -0.2176 -0.0213 -0.1051
  315poe    c31 1609   1.231   0.678   6.770  0.0828 -0.0030 -0.3849
  315poe     o2 1610   1.304   0.625   6.878  0.0768  0.6925 -0.0342
  315poe    c23 1611   1.378   0.511   6.843 -0.3234  0.4972 -0.2501
  315poe    c23 1612   1.461   0.476   6.968 -1.0941 -1.2838 -0.2009
  315poe     o2 1613   1.394   0.511   7.087 -0.1804  0.1369 -0.0809
  315poe    c23 1614   1.456   0.460   7.203 -0.0735 -0.1763 -0.2772
  315poe    c23 1615   1.392   0.551   7.309 -0.7705 -0.2988 -0.5887
  315poe     o2 1616   1.371   0.682   7.262 -0.2647  0.2443  0.6483
  315poe    c23 1617   1.467   0.776   7.306  0.0784  0.1161  0.1896
  315poe    c23 1618   1.479   0.869   7.184  0.3597 -0.2051 -0.0288
  315poe     o2 1619   1.430   0.810   7.065  0.3224  0.0906 -0.1603
  315poe    c31 1620   1.420   0.909   6.965  0.2063 -0.8958 -1.1389
  316poe    c31 1621   4.121   1.425   6.630 -0.3378 -0.0793 -0.5577
  316poe     o2 1622   4.144   1.433   6.491 -0.2562  0.1113 -0.5342
  316poe    c23 1623   4.280   1.463   6.471 -0.1496  0.0446  0.0552
  316poe    c23 1624   4.286   1.539   6.337 -0.3725  0.2623  0.1672
  316poe     o2 1625   4.214   1.459   6.246 -0.1229 -0.1921  0.3644
  316poe    c23 1626   4.170   1.529   6.132  0.3252 -0.4428  0.0344
  316poe    c23 1627   4.038   1.461   6.091  0.2172 -0.4000  0.3087
  316poe     o2 1628   3.962   1.448   6.208  0.1217 -0.0188  0.2918
  316poe    c23 1629   3.825   1.415   6.194  0.1881 -0.4255  0.5558
  316poe    c23 1630   3.781   1.468   6.331  0.3317  0.4977  0.2549
  316poe     o2 1631   3.827   1.396   6.443  0.0689 -0.0650  0.0087
  316poe    c31 1632   3.756   1.440   6.557 -0.1013 -0.5976  0.1092
  317poe    c31 1633   1.338   4.516   3.056 -0.6195  0.1702  0.0501
  317poe     o2 1634   1.375   4.644   3.101 -0.6854  0.3490 -0.3923
  317poe    c23 1635   1.458   4.712   3.009  0.0220 -0.0695 -0.0738
  317poe    c23 1636   1.502   4.854   3.051  0.0289 -0.0845 -0.0301
  317poe     o2 1637   1.493   4.835   3.191 -0.7974  0.6547  0.0273
  317poe    c23 1638   1.561   4.932   3.267  0.3543  0.3755 -0.6251
  317poe    c23 1639   1.551   4.895   3.416  0.4480 -0.2254 -0.7625
  317poe     o2 1640   1.421   4.840   3.411  0.3098  0.0593 -0.3882
  317poe    c23 1641   1.399   4.759   3.524 -0.1856  0.3902 -0.2438
  317poe    c23 1642   1.264   4.697   3.483 -0.0358  0.0042 -0.1610
  317poe     o2 1643   1.264   4.653   3.349 -0.0096 -0.0429 -0.1455
  317poe    c31 1644   1.160   4.560   3.329  0.2089 -0.3002 -0.0900
  318poe    c31 1645   4.131   5.414   5.333  0.3880  0.6716  0.0524
  318poe     o2 1646   4.045   5.356   5.429  0.0001 -0.4273 -0.9336
  318poe    c23 1647   3.914   5.407   5.429  0.1417 -0.0532 -0.6073
  318poe    c23 1648   3.838   5.355   5.553 -0.0072 -0.1884 -0.7548
  318poe     o2 1649   3.809   5.217   5.550 -0.2581 -0.1615  0.1774
  318poe    c23 1650   3.694   5.187   5.626  0.0069 -0.0187  0.6401
  318poe    c23 1651   3.651   5.040   5.615 -0.2260  0.0123  1.1392
  318poe     o2 1652   3.740   4.941   5.663  0.7167  0.1951 -0.2049
  318poe    c23 1653   3.701   4.814   5.617 -0.7280  0.5101  0.1082
  318poe    c23 1654   3.762   4.768   5.483  0.3114 -0.3445  0.8644
  318poe     o2 1655   3.903   4.756   5.490  0.4728  0.4794 -0.5470
  318poe    c31 1656   3.964   4.676   5.392  0.3326 -0.5693  0.2070
  319poe    c31 1657   6.628   0.373   6.811  0.4925  0.2700  0.3646
  319poe     o2 1658   6.531   0.406   6.908  0.2472  0.2613  0.1250
  319poe    c23 1659   6.473   0.311   6.994  0.7205  0.1772  0.3569
  319poe    c23 1660   6.375   0.370   7.098  0.9008  0.3739  0.4160
  319poe     o2 1661   6.334   0.493   7.044  0.8003  0.4137  0.5830
  319poe    c23 1662   6.239   0.558   7.125  0.2666  0.3163  0.0486
  319poe    c23 1663   6.210   0.699   7.069  0.2784 -0.0128 -0.7877
  319poe     o2 1664   6.329   0.745   7.010  0.2723  0.7315 -0.2241
  319poe    c23 1665   6.329   0.859   6.928 -0.7073  0.7941 -0.1377
  319poe    c23 1666   6.468   0.847   6.864 -0.3693 -0.4347  0.7926
  319poe     o2 1667   6.504   0.715   6.830 -0.1023 -0.2072  0.1768
  319poe    c31 1668   6.630   0.719   6.767 -0.3533  0.4126 -0.3014
  320poe    c31 1669   4.978   0.896   1.086  0.0763  0.3647  0.0015
  320poe     o2 1670   4.848   0.950   1.090 -0.0845 -0.0028 -0.2001
  320poe    c23 1671   4.853   1.079   1.033  0.4178 -0.0706 -0.3171
  320poe    c23 1672   4.727   1.120   0.955  0.0485  0.3858  0.5106
  320poe     o2 1673   4.618   1.097   1.042 -0.3206 -0.2298 -0.1003
  320poe    c23 1674   4.490   1.109   0.984 -0.1654 -0.2739 -0.4509
  320poe    c23 1675   4.419   1.010   1.078 -0.0058  0.0680  0.0282
  320poe     o2 1676   4.488   0.889   1.103  0.2468  0.1841 -0.1048
  320poe    c23 1677   4.431   0.825   1.214  0.1983  0.3035 -0.0605
  320poe    c23 1678   4.528   0.716   1.264  0.1874  0.4138  0.2005
  320poe     o2 1679   4.664   0.747   1.243  0.1982 -0.1918 -0.6730
  320poe    c31 1680   4.741   0.658   1.321  0.2974  0.8269  0.4306
  321poe    c31 1681   4.178   1.030   4.935 -0.1733 -0.1227  0.8959
  321poe     o2 1682   4.116   0.935   4.851  0.6568 -0.0517  0.1796
  321poe    c23 1683   4.161   0.806   4.886  0.2084 -0.3818 -0.4492
  321poe    c23 1684   4.118   0.685   4.801  0.2147 -0.4243 -0.3926
  321poe     o2 1685   3.980   0.656   4.811  0.2064 -0.1388  0.4386
  321poe    c23 1686   3.957   0.574   4.923 -0.0206 -0.1592  0.3788
  321poe    c23 1687   3.829   0.490   4.909 -0.2944  0.2915  0.1581
  321poe     o2 1688   3.717   0.574   4.896 -0.4672  0.0120 -0.1749
  321poe    c23 1689   3.601   0.494   4.905 -0.4816  0.0049 -0.4312
  321poe    c23 1690   3.472   0.574   4.876 -0.4237  0.2010 -0.1534
  321poe     o2 1691   3.466   0.634   4.749 -0.1775 -0.4503 -0.4829
  321poe    c31 1692   3.415   0.545   4.652 -0.5167 -0.3452 -0.4025
  322poe    c31 1693   6.639   5.753   5.325 -0.0021 -0.5447  0.3288
  322poe     o2 1694   6.544   5.751   5.430 -0.2845 -0.6147  0.0727
  322poe    c23 1695   6.589   5.694   5.550  0.5456 -0.2926 -0.0813
  322poe    c23 1696   6.569   5.544   5.576 -0.0530 -0.1449  0.3351
  322poe     o2 1697   6.432   5.534   5.545  0.1395  0.4948 -0.7749
  322poe    c23 1698   6.388   5.405   5.507  0.1613  0.1802  0.2401
  322poe    c23 1699   6.281   5.418   5.397 -0.2099 -0.5979  0.5009
  322poe     o2 1700   6.284   5.549   5.344 -0.2253 -0.7850  0.0350
  322poe    c23 1701   6.208   5.572   5.227 -0.5089  0.1143  0.3863
  322poe    c23 1702   6.247   5.716   5.188 -0.2601 -0.1140 -0.2256
  322poe     o2 1703   6.258   5.785   5.311 -0.1962 -0.1441 -0.2137
  322poe    c31 1704   6.279   5.917   5.264 -0.6753  0.0432  0.0917
  323poe    c31 1705   0.157   5.711   1.284 -0.3881  0.4477 -0.3886
  323poe     o2 1706   0.125   5.690   1.419 -0.8729  0.1103 -0.5512
  323poe    c23 1707   0.034   5.582   1.429 -0.7418  0.0640  0.2644
  323poe    c23 1708   0.028   5.502   1.560 -0.3938  0.3036  0.4303
  323poe     o2 1709  -0.037   5.563   1.669 -0.3648  0.0456  0.5945
  323poe    c23 1710  -0.026   5.492   1.790 -0.0059 -0.2011  0.4183
  323poe    c23 1711   0.000   5.588   1.907 -0.8982  0.0232  0.4443
  323poe     o2 1712  -0.079   5.699   1.873 -0.3820  0.2496 -0.0352
  323poe    c23 1713  -0.079   5.802   1.969  0.4007  0.7762 -0.5831
  323poe    c23 1714  -0.178   5.911   1.924 -0.2515  0.3604 -0.1913
  323poe     o2 1715  -0.153   5.940   1.788 -0.4439  0.5448 -0.1880
  323poe    c31 1716  -0.147   6.080   1.779 -0.1563  0.5639  0.2920
  324poe    c31 1717   1.742   5.565   4.484  0.1414 -0.3951 -0.1796
  324poe     o2 1718   1.731   5.511   4.354 -0.6611  0.2571 -0.3925
  324poe    c23 1719   1.634   5.594   4.294 -0.7379  0.2920 -0.2217
  324poe    c23 1720   1.644   5.589   4.140  0.8082 -0.4929 -0.1199
  324poe     o2 1721   1.601   5.466   4.086 -0.1465 -0.1294 -0.2131
  324poe    c23 1722   1.552   5.470   3.954  0.8907  0.0637 -0.6054
  324poe    c23 1723   1.533   5.327   3.902  0.3273 -0.2427  0.4165
  324poe     o2 1724   1.483   5.234   3.996 -0.4151  0.2188  0.4895
  324poe    c23 1725   1.367   5.166   3.953  0.1137 -0.5384  0.2196
  324poe    c23 1726   1.356   5.037   4.038  0.2145 -0.5342  0.2388
  324poe     o2 1727   1.387   5.065   4.172 -0.1685 -0.4855  0.3155
  324poe    c31 1728   1.302   4.985   4.252 -0.8682 -0.0732 -0.0044
  325poe    c31 1729   0.220   2.958   5.276  0.5084  0.5731  0.1259
  325poe     o2 1730   0.329   3.034   5.324  0.5331  0.0013  1.0133
  325poe    c23 1731   0.418   3.062   5.218 -0.1665  0.6542  0.5874
  325poe    c23 1732   0.531   3.150   5.275  0.0979  0.3729  0.5005
  325poe     o2 1733   0.460   3.244   5.352 -0.2940  0.0016  0.5991
  325poe    c23 1734   0.553   3.302   5.441  0.3747 -0.0842 -0.0363
  325poe    c23 1735   0.464   3.387   5.533 -0.3468  0.0918 -0.8768
  325poe     o2 1736   0.350   3.308   5.559 -0.1925  0.0444 -0.3209
  325poe    c23 1737   0.232   3.373   5.600  0.1460  0.1758  0.4628
  325poe    c23 1738   0.128   3.262   5.621  0.6698 -0.4179 -0.0575
  325poe     o2 1739   0.123   3.186   5.502  0.4779  0.0193 -0.3333
  325poe    c31 1740   0.043   3.072   5.526 -0.0697  0.4443 -0.1142
  326poe    c31 1741   3.140   2.869   5.233  0.3426  0.6799 -0.4951
  326poe     o2 1742   3.229   2.775   5.177 -0.3349 -0.7536  0.7887
  326poe    c23 1743   3.202   2.735   5.045  0.2501 -0.4228  0.5641
  326poe    c23 1744   3.305   2.801   4.951 -0.1150  0.1032  0.5265
  326poe     o2 1745   3.423   2.794   5.028 -0.0410  0.3094  0.4320
  326poe    c23 1746   3.497   2.914   5.029  0.1967  0.1670  0.0991
  326poe    c23 1747   3.543   2.937   5.174 -0.0676  0.1036  0.1942
  326poe     o2 1748   3.539   2.807   5.230  0.6880  0.0375  0.1012
  326poe    c23 1749   3.560   2.828   5.368 -0.0166 -0.6052  0.3101
  326poe    c23 1750   3.542   2.689   5.431  0.4058 -0.6331  0.3696
  326poe     o2 1751   3.428   2.627   5.377  0.2278 -0.0323  0.0563
  326poe    c31 1752   3.354   2.552   5.471 -0.1437  0.0683 -0.1536
  327poe    c31 1753   0.344   2.375   0.924 -0.0032 -0.3318 -0.2433
  327poe     o2 1754   0.465   2.349   0.857  0.1709 -0.1855  0.0132
  327poe    c23 1755   0.478   2.215   0.816  0.1944 -0.1043 -0.2459
  327poe    c23 1756   0.628   2.197   0.785  0.1336 -0.5857 -0.2695
  327poe     o2 1757   0.678   2.302   0.705  0.5128 -0.3218  0.3084
  327poe    c23 1758   0.814   2.321   0.735  0.4053  0.1601  0.4995
  327poe    c23 1759   0.848   2.458   0.672  0.2945  0.0829  0.2727
  327poe     o2 1760   0.742   2.535   0.724  0.3633  0.4078 -0.0658
  327poe    c23 1761   0.731   2.669   0.679 -0.4215  0.2060 -0.4940
  327poe    c23 1762   0.615   2.727   0.761  0.2434  0.4370  0.3000
  327poe     o2 1763   0.505   2.639   0.774  0.2800  0.3227 -0.1356
  327poe    c31 1764   0.407   2.714   0.842 -0.2067 -0.2677 -0.1819
  328poe    c31 1765   3.865   0.164   6.573  0.1800  0.3783 -0.3847
  328poe     o2 1766   4.003   0.138   6.561  0.1812  0.2744 -0.1424
  328poe    c23 1767   4.037   0.008   6.517  0.1860  0.3021 -0.2186
  328poe    c23 1768   4.172   0.024   6.445  0.1928  0.4574 -0.1727
  328poe     o2 1769   4.248   0.091   6.543 -0.3366  0.4021  0.2815
  328poe    c23 1770   4.389   0.100   6.533 -0.2898 -0.1690  0.3758
  328poe    c23 1771   4.428   0.247   6.558 -0.2781 -0.0091 -0.5669
  328poe     o2 1772   4.323   0.294   6.640  0.2498 -0.1840  0.2156
  328poe    c23 1773   4.314   0.432   6.616  0.3002 -0.2388 -0.1288
  328poe    c23 1774   4.214   0.491   6.718  0.6030 -0.6188  0.3965
  328poe     o2 1775   4.091   0.422   6.711 -0.1482  0.7297 -0.2058
  328poe    c31 1776   4.012   0.502   6.796 -0.1496  0.4080  0.0982
  329poe    c31 1777   0.348   2.497   5.104  0.3567  0.3090  0.8148
  329poe     o2 1778   0.410   2.418   5.005 -0.7641  0.2183  0.1623
  329poe    c23 1779   0.343   2.424   4.881 -0.2531  0.4684 -0.1076
  329poe    c23 1780   0.384   2.290   4.818 -0.3813  0.2019  0.3638
  329poe     o2 1781   0.525   2.298   4.818 -0.3499 -0.2603 -0.2131
  329poe    c23 1782   0.588   2.176   4.786  0.0982  0.0553 -0.5399
  329poe    c23 1783   0.735   2.205   4.748  0.0232  0.3142 -0.6318
  329poe     o2 1784   0.757   2.298   4.851  0.4549 -0.1288 -0.3181
  329poe    c23 1785   0.823   2.411   4.799 -0.4254  0.2679 -0.6068
  329poe    c23 1786   0.820   2.517   4.911 -0.2269  0.0143 -0.3593
  329poe     o2 1787   0.700   2.513   4.984  0.0342  0.1644  0.0825
  329poe    c31 1788   0.693   2.619   5.076  0.2568  0.3231 -0.0837
  330poe    c31 1789   0.064   2.277   5.082  0.7628  0.0149 -0.0483
  330poe     o2 1790   0.016   2.303   4.952  0.0184  0.0266  0.2227
  330poe    c23 1791  -0.066   2.416   4.935  0.6082  0.5115  0.5562
  330poe    c23 1792  -0.075   2.466   4.790 -0.2863 -0.2563  0.3380
  330poe     o2 1793  -0.149   2.372   4.716  0.0792 -0.4099  0.1636
  330poe    c23 1794  -0.183   2.428   4.591 -0.0300 -1.1534 -0.1439
  330poe    c23 1795  -0.306   2.380   4.511 -0.2751 -0.1833 -0.3612
  330poe     o2 1796  -0.285   2.250   4.459  0.2130 -0.4154  0.3993
  330poe    c23 1797  -0.399   2.192   4.400  0.4868 -0.1419 -0.4069
  330poe    c23 1798  -0.384   2.041   4.375 -0.0481 -0.3050  0.2155
  330poe     o2 1799  -0.358   1.957   4.484  0.1812 -0.1965  0.2459
  330poe    c31 1800  -0.333   1.822   4.452 -0.4266 -0.3488  0.3993
  331poe    c31 1801   6.426   6.595   2.650 -0.0302 -0.0502 -0.6906
  331poe     o2 1802   6.349   6.704   2.605 -0.4035  0.1866  0.4970
  331poe    c23 1803   6.413   6.828   2.624  0.2219  0.0176 -0.4311
  331poe    c23 1804   6.342   6.927   2.530 -0.0523 -0.4023 -0.6714
  331poe     o2 1805   6.205   6.899   2.547 -0.0981  0.0205 -0.3329
  331poe    c23 1806   6.136   6.986   2.634  0.3431 -0.4020  0.4562
  331poe    c23 1807   6.000   6.916   2.649 -0.1914  0.5916  0.3263
  331poe     o2 1808   6.014   6.780   2.683 -0.5061  0.5149  0.1608
  331poe    c23 1809   5.896   6.705   2.675 -0.1531 -0.0460  0.1409
  331poe    c23 1810   5.943   6.560   2.702  0.2618  0.0768  0.0788
  331poe     o2 1811   6.055   6.540   2.620  0.3926  0.2376  0.2180
  331poe    c31 1812   6.089   6.407   2.652  0.1778  0.1699  0.1700
  332poe    c31 1813   5.678   5.632   6.467  0.4230 -0.3471  0.2090
  332poe     o2 1814   5.778   5.541   6.427  0.7827  0.1331  0.0025
  332poe    c23 1815   5.795   5.549   6.288 -0.3673  0.1922 -0.1464
  332poe    c23 1816   5.842   5.414   6.231 -0.1336  0.0258  0.4411
  332poe     o2 1817   5.737   5.319   6.236  0.4755 -0.6920 -0.2052
  332poe    c23 1818   5.688   5.298   6.105  0.0931 -0.0106 -0.1792
  332poe    c23 1819   5.544   5.246   6.116  0.1159 -0.0234  0.0856
  332poe     o2 1820   5.573   5.119   6.168 -0.3532 -0.1670  0.0045
  332poe    c23 1821   5.466   5.039   6.215 -0.3047  0.1746  0.7102
  332poe    c23 1822   5.517   4.955   6.333 -0.1412 -0.1516  0.4095
  332poe     o2 1823   5.582   5.041   6.425  0.2072 -0.1959  0.2077
  332poe    c31 1824   5.573   4.990   6.556 -0.6739 -0.4762  0.0436
  333poe    c31 1825   4.835   0.231   3.050  0.7031 -0.0530 -0.6761
  333poe     o2 1826   4.870   0.328   3.146  0.2417 -0.1154 -0.4416
  333poe    c23 1827   4.803   0.295   3.265 -0.3268  0.3472 -0.6262
  333poe    c23 1828   4.778   0.427   3.341  0.6477  0.2461 -0.1143
  333poe     o2 1829   4.897   0.503   3.333  0.6245  0.2917 -0.0113
  333poe    c23 1830   4.882   0.639   3.370 -0.2281  0.1672  0.1385
  333poe    c23 1831   5.022   0.699   3.346 -0.0255 -0.4829 -0.3370
  333poe     o2 1832   5.059   0.643   3.222 -0.0779  0.2279 -0.6751
  333poe    c23 1833   5.199   0.630   3.215 -0.0522 -0.4096  0.6694
  333poe    c23 1834   5.236   0.559   3.083 -0.4699  0.2112  0.2145
  333poe     o2 1835   5.146   0.451   3.080 -0.3403  0.0937  0.5197
  333poe    c31 1836   5.199   0.343   3.007 -0.0483  0.2839  0.4485
  334poe    c31 1837   2.665   5.539   4.149 -0.0530 -0.0592 -0.6277
  334poe     o2 1838   2.732   5.625   4.240 -0.4519 -0.2005 -0.1964
  334poe    c23 1839   2.752   5.757   4.194  0.3638 -0.4291 -0.5234
  334poe    c23 1840   2.870   5.823   4.266 -0.0235 -0.8226  0.4992
  334poe     o2 1841   2.828   5.831   4.400 -0.2877  0.4218  0.3517
  334poe    c23 1842   2.941   5.856   4.482  0.3798  0.2162 -0.4923
  334poe    c23 1843   2.866   5.881   4.614  0.2372  0.0667 -0.5441
  334poe     o2 1844   2.786   5.769   4.644  0.6551 -0.0437  0.1764
  334poe    c23 1845   2.706   5.796   4.757 -0.0711  0.0860 -0.3586
  334poe    c23 1846   2.645   5.666   4.813  0.1776 -0.2180 -0.7905
  334poe     o2 1847   2.570   5.589   4.721 -0.1463 -0.0233 -0.6873
  334poe    c31 1848   2.503   5.481   4.782 -0.1933  0.1370 -0.4489
  335poe    c31 1849   6.542   5.298   3.720  0.5656  0.2202  0.2109
  335poe     o2 1850   6.530   5.203   3.823 -0.3573  0.6872  0.5457
  335poe    c23 1851   6.408   5.133   3.813  0.1280 -0.0836 -0.1360
  335poe    c23 1852   6.407   4.996   3.883  0.5907 -0.0952 -0.1500
  335poe     o2 1853   6.474   5.020   4.005  0.0768 -0.4066  0.1983
  335poe    c23 1854   6.484   4.908   4.091 -0.2159 -0.1448  0.5755
  335poe    c23 1855   6.603   4.945   4.181  0.1203 -0.1179  0.1252
  335poe     o2 1856   6.692   4.998   4.085  0.2527 -0.2134  0.1961
  335poe    c23 1857   6.821   5.025   4.135  0.1690  0.7369 -0.0908
  335poe    c23 1858   6.880   5.143   4.055  0.8105 -0.1151 -0.9039
  335poe     o2 1859   6.790   5.196   3.960 -0.1190 -0.7859 -0.4218
  335poe    c31 1860   6.857   5.296   3.886 -0.7017 -0.1515 -0.1064
  336poe    c31 1861   4.905   0.122   5.967 -0.2342  0.0042 -0.7739
  336poe     o2 1862   4.828   0.208   6.048  0.6411  0.4373 -0.3865
  336poe    c23 1863   4.862   0.186   6.183  0.1964  0.1804 -0.3137
  336poe    c23 1864   4.854   0.321   6.257  0.1460 -0.0426  0.0930
  336poe     o2 1865   4.774   0.405   6.176  0.2582  0.1474  0.1807
  336poe    c23 1866   4.732   0.518   6.248 -0.1543 -0.0174  0.1967
  336poe    c23 1867   4.717   0.613   6.128 -0.2739 -0.5259 -0.1960
  336poe     o2 1868   4.658   0.548   6.018 -0.6891  0.0035 -0.2918
  336poe    c23 1869   4.681   0.614   5.896 -0.0264  0.0147 -0.1651
  336poe    c23 1870   4.645   0.512   5.786 -0.3512 -0.4381  0.3515
  336poe     o2 1871   4.698   0.389   5.829  0.0136 -0.3876  0.0522
  336poe    c31 1872   4.673   0.311   5.714 -0.3072  0.1522 -0.2526
  337poe    c31 1873   2.090   5.331   1.885 -0.2247  0.3286 -0.3561
  337poe     o2 1874   2.150   5.457   1.863 -0.1982  0.4338  0.3009
  337poe    c23 1875   2.276   5.468   1.926 -0.1704  0.2214  0.2834
  337poe    c23 1876   2.333   5.602   1.875 -0.5069  0.1236 -0.3588
  337poe     o2 1877   2.218   5.683   1.858 -0.3273  0.3369 -0.5667
  337poe    c23 1878   2.259   5.810   1.814  0.2088  0.1934 -0.4861
  337poe    c23 1879   2.139   5.877   1.745  0.0970 -0.1179 -0.5948
  337poe     o2 1880   2.048   5.783   1.693 -0.5216 -0.0200  0.2937
  337poe    c23 1881   1.939   5.847   1.631 -0.7956  0.0723  0.8598
  337poe    c23 1882   1.847   5.749   1.556 -0.0604  0.0137  0.0102
  337poe     o2 1883   1.762   5.669   1.635 -0.0114  0.0199  0.0691
  337poe    c31 1884   1.645   5.612   1.581  0.2476  0.0037 -0.4739
  338poe    c31 1885   6.595   5.496   4.709 -0.1385 -0.5887 -0.8499
  338poe     o2 1886   6.523   5.389   4.766  0.3304 -0.6007 -0.2760
  338poe    c23 1887   6.408   5.446   4.825  0.6370  0.1519 -0.3964
  338poe    c23 1888   6.358   5.347   4.932 -0.3791  0.5532 -0.4957
  338poe     o2 1889   6.385   5.216   4.888  0.0683  0.4753  0.0059
  338poe    c23 1890   6.345   5.118   4.981  0.1169  0.2607 -0.1973
  338poe    c23 1891   6.389   4.996   4.899 -0.3427 -0.3845  0.4993
  338poe     o2 1892   6.516   5.005   4.838 -0.6343 -0.5719 -0.1516
  338poe    c23 1893   6.508   4.955   4.707  0.2964  0.2188 -0.5256
  338poe    c23 1894   6.615   5.008   4.609  0.9510  0.2428  0.1942
  338poe     o2 1895   6.639   5.146   4.626  0.0293  0.4357  0.0065
  338poe    c31 1896   6.691   5.201   4.508  0.0499 -0.0130 -0.1969
  339poe    c31 1897   6.334   4.559   6.731 -0.7411 -0.4606 -0.1590
  339poe     o2 1898   6.288   4.552   6.864  0.2164  0.0978  0.2089
  339poe    c23 1899   6.360   4.466   6.949  0.2658  0.5398  0.6163
  339poe    c23 1900   6.280   4.455   7.080 -0.0768  0.4157  0.3987
  339poe     o2 1901   6.269   4.583   7.139  0.5652  0.5055  0.3293
  339poe    c23 1902   6.183   4.577   7.250  0.8403  0.2139  0.5286
  339poe    c23 1903   6.142   4.722   7.283  0.0956 -0.0727  0.8862
  339poe     o2 1904   6.141   4.789   7.159 -0.3896 -0.5789  0.6154
  339poe    c23 1905   6.012   4.819   7.113 -0.2001  0.1309  0.5391
  339poe    c23 1906   6.032   4.877   6.972 -0.1284  0.5225  0.7102
  339poe     o2 1907   6.165   4.850   6.933 -0.1038  0.5866  0.7482
  339poe    c31 1908   6.195   4.934   6.824 -0.8262 -0.3190 -0.1763
  340poe    c31 1909   5.227   5.548   1.438  0.0056  0.1382 -0.5217
  340poe     o2 1910   5.317   5.441   1.422  0.1115  0.1253  0.1169
  340poe    c23 1911   5.326   5.388   1.291 -0.5652 -0.2864  0.2370
  340poe    c23 1912   5.425   5.272   1.271  0.1052  0.3251 -0.0011
  340poe     o2 1913   5.555   5.299   1.317  0.0826 -0.5323  0.5851
  340poe    c23 1914   5.649   5.211   1.259 -0.2251 -0.3632 -0.1783
  340poe    c23 1915   5.760   5.168   1.357 -0.0523  0.6488  0.0813
  340poe     o2 1916   5.812   5.288   1.410  0.5447  0.6143 -0.4077
  340poe    c23 1917   5.949   5.303   1.439  0.5301 -0.1343  0.0780
  340poe    c23 1918   5.966   5.443   1.498  0.2758  0.0290 -0.2305
  340poe     o2 1919   5.874   5.531   1.437  0.2175  0.0758 -0.0784
  340poe    c31 1920   5.893   5.663   1.481  0.0951  0.1104 -0.1308
  341poe    c31 1921   2.340   5.165   4.138 -0.4617  1.0305 -0.5065
  341poe     o2 1922   2.243   5.106   4.055 -0.5608  0.3075  0.1165
  341poe    c23 1923   2.182   5.208   3.979  0.5136  0.9567  0.1167
  341poe    c23 1924   2.152   5.149   3.840  0.0788  0.1027  0.5670
  341poe     o2 1925   2.090   5.027   3.874 -0.4979  0.2601  0.0989
  341poe    c23 1926   2.093   4.959   3.750  0.8936 -0.5169  0.5351
  341poe    c23 1927   2.055   4.814   3.784 -0.1048 -0.2446  0.6018
  341poe     o2 1928   2.131   4.791   3.901  0.7707 -0.2662  0.0362
  341poe    c23 1929   2.065   4.701   3.987  0.1014  0.1020 -0.0813
  341poe    c23 1930   2.134   4.727   4.123 -0.1075 -0.1064  0.0645
  341poe     o2 1931   2.130   4.867   4.144 -0.3168 -0.0531 -0.3214
  341poe    c31 1932   2.162   4.875   4.280 -0.4417 -0.7706 -0.2458
  342poe    c31 1933   1.295   4.607   4.565 -0.0055 -0.4400 -0.7191
  342poe     o2 1934   1.360   4.487   4.531 -0.3272 -0.7387 -0.2820
  342poe    c23 1935   1.340   4.397   4.638 -0.0527 -0.5495 -0.0707
  342poe    c23 1936   1.359   4.255   4.581  0.4777 -0.5597  0.1202
  342poe     o2 1937   1.478   4.246   4.507  0.3167 -0.5502 -0.1409
  342poe    c23 1938   1.497   4.135   4.421 -0.6719 -0.0079 -1.0830
  342poe    c23 1939   1.622   4.169   4.338  0.1369 -0.0491  0.0887
  342poe     o2 1940   1.577   4.294   4.290 -0.4719 -0.1250  0.4471
  342poe    c23 1941   1.686   4.345   4.216 -0.6171 -0.5990 -0.1112
  342poe    c23 1942   1.629   4.480   4.169 -0.1829 -0.2972  0.2206
  342poe     o2 1943   1.560   4.550   4.269  0.5499  0.3632  0.2814
  342poe    c31 1944   1.485   4.650   4.204 -0.2379 -0.2725  0.1927
  343poe    c31 1945   4.880   1.512   5.539  0.1638  0.2045 -0.0408
  343poe     o2 1946   5.000   1.515   5.463 -0.1270 -0.3595 -0.5332
  343poe    c23 1947   5.034   1.392   5.402  0.1961 -0.4483 -0.1784
  343poe    c23 1948   5.094   1.426   5.265 -0.3602 -0.0151 -0.3197
  343poe     o2 1949   5.169   1.545   5.267 -0.0117 -0.2376 -0.1158
  343poe    c23 1950   5.172   1.609   5.141  0.2189  0.1114  0.0638
  343poe    c23 1951   5.182   1.762   5.159 -0.3000  0.2323 -0.6462
  343poe     o2 1952   5.122   1.779   5.285  0.4592  0.6061 -0.3266
  343poe    c23 1953   5.086   1.914   5.307  0.3861  0.4622  0.4632
  343poe    c23 1954   5.092   1.923   5.461  0.4091 -0.6573  0.5418
  343poe     o2 1955   5.036   1.810   5.522 -0.2884 -0.5547  0.1062
  343poe    c31 1956   4.996   1.838   5.654 -0.5333  0.2229 -0.1282
  344poe    c31 1957   5.260   4.185   3.907  0.1060  0.4980  0.6497
  344poe     o2 1958   5.160   4.113   3.975  0.2614  0.0726  0.4344
  344poe    c23 1959   5.094   4.026   3.885 -0.2973  0.2421  0.6731
  344poe    c23 1960   5.060   3.904   3.972 -0.2350 -0.1265  0.1818
  344poe     o2 1961   4.987   3.952   4.082 -0.6197 -0.1982 -0.0423
  344poe    c23 1962   4.957   3.856   4.181 -0.5438 -0.6397 -0.4470
  344poe    c23 1963   4.921   3.953   4.295 -0.0141  0.2260 -1.0096
  344poe     o2 1964   5.019   4.054   4.306  0.0351  0.0929 -0.1795
  344poe    c23 1965   4.975   4.161   4.387 -0.2687 -0.1885  0.0259
  344poe    c23 1966   5.081   4.270   4.366 -0.3178 -0.1551 -0.0530
  344poe     o2 1967   5.106   4.278   4.227 -0.5916  0.4591 -0.0698
  344poe    c31 1968   5.183   4.395   4.210 -0.2324  0.2196 -0.1003
  345poe    c31 1969   3.667   5.009   4.536 -0.0921  0.3690 -0.2968
  345poe     o2 1970   3.646   5.075   4.659 -0.1141  0.3793 -0.3059
  345poe    c23 1971   3.754   5.162   4.681  0.1019 -0.0297  0.2712
  345poe    c23 1972   3.760   5.198   4.831  0.6716  0.3413  0.1613
  345poe     o2 1973   3.630   5.223   4.879  0.1813 -0.5381 -0.6632
  345poe    c23 1974   3.603   5.358   4.909  0.1970 -0.6865  0.0463
  345poe    c23 1975   3.516   5.410   4.794  0.5901 -0.3427 -0.1002
  345poe     o2 1976   3.454   5.295   4.742 -0.4082 -0.0132  0.3348
  345poe    c23 1977   3.372   5.326   4.632 -0.0170 -0.0121  0.0415
  345poe    c23 1978   3.288   5.198   4.608 -0.0491  0.0913 -0.3992
  345poe     o2 1979   3.383   5.096   4.628 -0.0885  0.0196 -0.5797
  345poe    c31 1980   3.331   4.966   4.611  0.6581 -0.4687  0.7436
  346poe    c31 1981   3.300   1.094   4.686 -0.8578  0.5401  0.2910
  346poe     o2 1982   3.271   1.103   4.548  0.1095 -0.0633  0.0373
  346poe    c23 1983   3.144   1.050   4.515 -0.1160  0.2387  0.4091
  346poe    c23 1984   3.123   1.061   4.363  0.1710 -0.1629  0.3386
  346poe     o2 1985   3.143   1.194   4.320  0.2351 -0.2392  0.1315
  346poe    c23 1986   3.104   1.219   4.187 -0.0752  0.5605  0.3679
  346poe    c23 1987   3.125   1.372   4.187  0.5216  0.4813 -0.1837
  346poe     o2 1988   3.258   1.389   4.230  0.4361 -0.0791  0.3184
  346poe    c23 1989   3.281   1.525   4.257 -0.4431  0.1922 -0.2427
  346poe    c23 1990   3.391   1.535   4.365  0.1756 -0.6355 -0.7842
  346poe     o2 1991   3.369   1.422   4.446  0.2129 -0.3259 -0.3413
  346poe    c31 1992   3.451   1.430   4.560 -0.1265 -0.0676 -0.1127
  347poe    c31 1993   6.150   2.924   5.985  0.1595  0.7631 -0.4951
  347poe     o2 1994   6.244   2.958   6.085 -0.4729  0.2341  0.2983
  347poe    c23 1995   6.210   2.906   6.211 -0.0571  0.1439  0.3748
  347poe    c23 1996   6.276   2.768   6.222  0.0398  0.2279  0.8972
  347poe     o2 1997   6.405   2.799   6.174 -0.3160  0.4975  0.1006
  347poe    c23 1998   6.465   2.688   6.111 -0.7377  0.2625  0.1111
  347poe    c23 1999   6.578   2.744   6.023 -0.3747  0.2297  0.5478
  347poe     o2 2000   6.499   2.828   5.942  0.1444  0.3830  0.1976
  347poe    c23 2001   6.580   2.906   5.856  0.0422  0.4652  0.1748
  347poe    c23 2002   6.491   3.022   5.809 -0.0350  0.3016 -0.0882
  347poe     o2 2003   6.428   3.075   5.923  0.4577  0.3196  0.1753
  347poe    c31 2004   6.363   3.197   5.896 -0.1984  0.0352  0.4472
  348poe    c31 2005   6.700   2.001   1.539 -0.1987  0.8594  0.1721
  348poe     o2 2006   6.687   1.907   1.435 -0.2997  0.2385  0.7408
  348poe    c23 2007   6.667   1.776   1.482 -0.6826 -0.1113 -0.3508
  348poe    c23 2008   6.613   1.688   1.368 -0.6287 -0.5763 -0.0212
  348poe     o2 2009   6.675   1.724   1.247 -0.7400 -0.6833 -0.1109
  348poe    c23 2010   6.607   1.680   1.132 -0.1131 -0.0691 -0.7329
  348poe    c23 2011   6.674   1.758   1.018 -0.0921 -0.1174 -0.7534
  348poe     o2 2012   6.691   1.887   1.072 -0.2436 -0.3366 -0.1812
  348poe    c23 2013   6.751   1.974   0.980 -0.2574 -0.2769 -0.1340
  348poe    c23 2014   6.768   2.115   1.040  0.0986 -0.2509 -0.2940
  348poe     o2 2015   6.785   2.086   1.177  0.2221  0.1994 -0.2112
  348poe    c31 2016   6.790   2.212   1.240 -0.5029 -0.1223  0.5016
  349poe    c31 2017   6.837   3.559   0.806  0.3164 -0.0468  0.1410
  349poe     o2 2018   6.949   3.524   0.728 -0.1066 -0.3658 -0.3296
  349poe    c23 2019   7.013   3.646   0.699 -0.0427 -0.2856  0.1507
  349poe    c23 2020   7.129   3.616   0.603 -0.0983 -0.2361  0.0679
  349poe     o2 2021   7.092   3.495   0.539 -0.0078  0.1153 -0.6624
  349poe    c23 2022   7.213   3.449   0.484 -0.0285  0.3028 -0.8688
  349poe    c23 2023   7.206   3.295   0.478  0.4741  0.2490 -0.2355
  349poe     o2 2024   7.159   3.248   0.603 -0.2797 -0.0016 -0.6097
  349poe    c23 2025   7.100   3.120   0.607  0.0884 -0.1487  0.2427
  349poe    c23 2026   7.006   3.124   0.729 -0.0405 -0.4741  0.1560
  349poe     o2 2027   6.928   3.241   0.732  0.1709 -0.3061 -0.7049
  349poe    c31 2028   6.800   3.185   0.752  0.1904 -0.1666 -0.1846
  350poe    c31 2029   0.245   1.276   2.061  0.5488  0.1205  1.0578
  350poe     o2 2030   0.129   1.308   2.135  0.2921 -0.5273  0.9420
  350poe    c23 2031   0.018   1.229   2.101  0.0918 -0.1708  0.7587
  350poe    c23 2032  -0.106   1.290   2.170  0.1044 -0.0997  0.7183
  350poe     o2 2033  -0.063   1.419   2.207  0.3669 -0.2293  0.8695
  350poe    c23 2034  -0.167   1.514   2.200  0.4197 -0.1753  0.8130
  350poe    c23 2035  -0.117   1.656   2.233  0.7343 -0.2043  0.4732
  350poe     o2 2036  -0.016   1.662   2.135  0.5605 -0.3592  0.2823
  350poe    c23 2037   0.009   1.799   2.111 -0.1994 -0.2247  0.2268
  350poe    c23 2038   0.099   1.815   1.987  0.0505 -0.0146  0.4339
  350poe     o2 2039   0.221   1.748   2.007 -0.0251 -0.2008  0.2695
  350poe    c31 2040   0.329   1.796   1.929  0.4502 -0.1611  0.9467
  351poe    c31 2041   1.072   6.833   6.264  0.2552  0.2281 -0.6404
  351poe     o2 2042   1.031   6.820   6.398  0.0548 -0.0933 -0.7297
  351poe    c23 2043   1.112   6.911   6.470 -0.3541 -0.7706  0.6156
  351poe    c23 2044   1.059   6.920   6.615  0.0055  0.2217  0.6875
  351poe     o2 2045   1.013   6.790   6.644 -0.0180  0.0531 -0.0751
  351poe    c23 2046   0.953   6.777   6.771 -0.3440  0.1133 -0.2218
  351poe    c23 2047   0.989   6.636   6.822 -0.2757  0.0770 -0.3682
  351poe     o2 2048   0.913   6.538   6.753 -0.4830 -0.2508  0.3150
  351poe    c23 2049   0.983   6.417   6.773  0.1391 -0.0038 -0.3186
  351poe    c23 2050   0.897   6.304   6.714  0.2267 -0.2170 -0.0419
  351poe     o2 2051   0.902   6.312   6.574 -0.0919  0.0119 -0.0418
  351poe    c31 2052   0.829   6.204   6.519 -0.2423  0.2751 -0.3626
  352poe    c31 2053   6.212   5.394   0.562 -0.4759 -0.0882  0.3350
  352poe     o2 2054   6.100   5.472   0.526 -0.4255 -0.0206  0.3237
  352poe    c23 2055   6.029   5.512   0.641 -0.6534  0.3156  0.0694
  352poe    c23 2056   5.906   5.594   0.599 -0.6182  0.4669  0.2617
  352poe     o2 2057   5.940   5.687   0.499 -0.1762  0.4172  0.3655
  352poe    c23 2058   5.998   5.807   0.544 -0.1841  0.4274  0.3496
  352poe    c23 2059   6.072   5.857   0.419  0.4619 -0.4486  0.3716
  352poe     o2 2060   6.109   5.746   0.339 -0.0400 -0.4092  0.0810
  352poe    c23 2061   6.234   5.756   0.276 -0.2170  0.1281 -0.1954
  352poe    c23 2062   6.246   5.632   0.184 -0.2129  0.0098 -0.0357
  352poe     o2 2063   6.196   5.524   0.260 -0.2693  0.1384  0.1110
  352poe    c31 2064   6.241   5.403   0.204 -0.3466  0.0579  0.2217
  353poe    c31 2065   4.879   0.060   6.674 -0.1656  0.3045  0.0216
  353poe     o2 2066   4.938   0.068   6.802 -0.5658  0.6056  0.1880
  353poe    c23 2067   5.078   0.057   6.792 -0.5694  0.1651  0.5630
  353poe    c23 2068   5.130   0.082   6.935 -0.1932  0.4745  0.3740
  353poe     o2 2069   5.059   0.195   6.981 -0.6084  0.3829 -0.0340
  353poe    c23 2070   5.120   0.228   7.104 -0.8469 -0.1486  0.2293
  353poe    c23 2071   5.065   0.363   7.153 -0.2114 -0.0654  0.7182
  353poe     o2 2072   4.924   0.362   7.153 -0.2133 -0.2281 -0.1682
  353poe    c23 2073   4.867   0.482   7.199  0.3083  0.1812 -0.5830
  353poe    c23 2074   4.715   0.490   7.176  0.2058  0.1624  0.0787
  353poe     o2 2075   4.642   0.393   7.249  0.1621  0.1634  0.0362
  353poe    c31 2076   4.503   0.413   7.251  0.1550  0.2424 -0.7234
  354poe    c31 2077   5.122   3.330   4.152 -0.0672  0.4509  0.3610
  354poe     o2 2078   5.247   3.347   4.216  0.2099 -0.0796 -0.0224
  354poe    c23 2079   5.245   3.249   4.317 -0.4808 -0.6874 -0.6116
  354poe    c23 2080   5.380   3.177   4.334  0.0104  0.3894  0.2229
  354poe     o2 2081   5.469   3.285   4.353 -0.1275  0.4665  0.4352
  354poe    c23 2082   5.605   3.252   4.333 -0.4615 -0.2435 -0.7391
  354poe    c23 2083   5.683   3.381   4.302 -0.0266 -0.4450 -0.4833
  354poe     o2 2084   5.597   3.436   4.206  0.2986 -0.4050 -0.7522
  354poe    c23 2085   5.630   3.570   4.175 -0.3823  0.0793  0.5649
  354poe    c23 2086   5.533   3.610   4.062  0.1273 -0.4028 -0.0488
  354poe     o2 2087   5.406   3.557   4.090 -0.1283  0.2021 -0.0439
  354poe    c31 2088   5.304   3.633   4.029 -0.3099  0.0842  0.1101
  355poe    c31 2089   4.597   4.547   2.386  0.3483  0.3457 -0.3668
  355poe     o2 2090   4.605   4.687   2.397  0.1037  0.3421 -0.1211
  355poe    c23 2091   4.674   4.730   2.512 -0.0804  0.5114 -0.0732
  355poe    c23 2092   4.645   4.877   2.548  0.4405  0.4798  0.4922
  355poe     o2 2093   4.666   4.939   2.423 -0.3249 -0.3152 -0.0443
  355poe    c23 2094   4.705   5.074   2.432  0.3798 -0.5380  0.3684
  355poe    c23 2095   4.637   5.152   2.317  1.1167 -0.1972  0.1571
  355poe     o2 2096   4.651   5.091   2.190  0.2693 -0.1992  0.0601
  355poe    c23 2097   4.600   5.168   2.084  0.1572  0.1318  0.3499
  355poe    c23 2098   4.623   5.097   1.949 -0.0627  0.0415  0.3602
  355poe     o2 2099   4.743   5.026   1.965 -0.2118 -0.2457  0.2043
  355poe    c31 2100   4.770   4.945   1.852  0.4512 -0.4345  0.4884
  356poe    c31 2101   2.055   6.274   0.922 -0.1199  0.3691  0.2154
  356poe     o2 2102   2.121   6.370   1.001  0.1744 -0.0751  0.5097
  356poe    c23 2103   2.219   6.446   0.934 -0.0150  0.0196  0.3381
  356poe    c23 2104   2.337   6.467   1.030 -0.1690 -0.1075  0.5549
  356poe     o2 2105   2.265   6.527   1.135  0.0372  0.8379  0.1589
  356poe    c23 2106   2.336   6.575   1.247  0.4336 -0.0990  0.3115
  356poe    c23 2107   2.217   6.617   1.334  0.0015  0.2231 -0.4246
  356poe     o2 2108   2.100   6.547   1.298 -0.2144  0.3007  0.1221
  356poe    c23 2109   1.992   6.626   1.344 -0.4617 -0.0146  0.0862
  356poe    c23 2110   1.869   6.586   1.260 -0.3671 -0.0215 -0.0498
  356poe     o2 2111   1.909   6.543   1.132 -0.1057  0.2017 -0.0434
  356poe    c31 2112   1.794   6.533   1.052 -0.1387  0.0691  0.0200
  357poe    c31 2113   1.446   4.318   2.561  0.7842 -0.0976  0.4616
  357poe     o2 2114   1.330   4.260   2.617  0.3832  0.4449  0.2003
  357poe    c23 2115   1.359   4.229   2.751 -0.2441  0.4901  0.3504
  357poe    c23 2116   1.234   4.159   2.807  0.1753 -0.2310  0.3947
  357poe     o2 2117   1.125   4.236   2.763  0.1429 -0.3745  0.2236
  357poe    c23 2118   1.001   4.192   2.812 -0.0494  0.1905  0.2473
  357poe    c23 2119   0.913   4.314   2.777 -0.3526  0.0022  0.3507
  357poe     o2 2120   0.976   4.359   2.659  0.3799 -0.4247  0.5710
  357poe    c23 2121   0.967   4.499   2.647  0.5986 -0.4502  0.0954
  357poe    c23 2122   1.003   4.523   2.499  0.0753 -0.4298 -0.0317
  357poe     o2 2123   1.113   4.442   2.463  0.0148 -0.4955 -0.0681
  357poe    c31 2124   1.109   4.441   2.322  0.2029 -0.4783 -0.0734
  358poe    c31 2125   1.346   6.662   0.441  0.2431 -0.7049 -0.1335
  358poe     o2 2126   1.212   6.699   0.466  0.5145 -0.0029  0.3187
  358poe    c23 2127   1.169   6.768   0.351 -0.8185 -0.8671  0.2865
  358poe    c23 2128   1.023   6.812   0.373 -0.6596 -0.1936 -0.0014
  358poe     o2 2129   0.964   6.708   0.448 -0.5474 -0.3025 -0.0630
  358poe    c23 2130   0.846   6.755   0.509 -0.3197  0.3134 -0.0893
  358poe    c23 2131   0.814   6.659   0.624 -0.5666  0.6888  0.1607
  358poe     o2 2132   0.940   6.638   0.684 -0.4819  0.1907 -0.1820
  358poe    c23 2133   0.931   6.532   0.777 -0.3088 -0.0239 -0.4084
  358poe    c23 2134   1.075   6.532   0.830 -0.2590 -0.2114 -0.5410
  358poe     o2 2135   1.175   6.554   0.733  0.1568 -0.4709 -0.1747
  358poe    c31 2136   1.298   6.524   0.795  0.3035 -0.0874 -0.2757
  359poe    c31 2137   0.660   3.402   4.539  0.0497 -0.7033 -0.1318
  359poe     o2 2138   0.800   3.411   4.544  0.0128 -0.2309  0.1158
  359poe    c23 2139   0.848   3.280   4.525  0.1444 -0.2011  0.2445
  359poe    c23 2140   1.002   3.272   4.537  0.1478 -0.1281  0.2443
  359poe     o2 2141   1.029   3.310   4.670  0.0374 -0.3224  0.3221
  359poe    c23 2142   1.167   3.324   4.696  0.0810  0.5255 -0.3064
  359poe    c23 2143   1.211   3.464   4.740 -0.4351  0.5945 -0.0043
  359poe     o2 2144   1.151   3.529   4.850 -0.6101  0.3282  0.0577
  359poe    c23 2145   1.204   3.656   4.883  0.3079  0.0421 -0.2965
  359poe    c23 2146   1.146   3.685   5.023  0.0479 -0.8318 -0.2134
  359poe     o2 2147   1.006   3.671   5.016  0.0188 -0.5535 -0.2104
  359poe    c31 2148   0.943   3.733   5.126  0.0131 -0.2901 -0.3629
  360poe    c31 2149   1.375   4.552   6.549  0.3492 -0.0024 -0.7599
  360poe     o2 2150   1.415   4.682   6.511  0.6628  0.4095  0.8597
  360poe    c23 2151   1.491   4.657   6.395 -1.1359  0.4564 -0.3719
  360poe    c23 2152   1.577   4.783   6.371 -0.1446 -0.1612 -0.1299
  360poe     o2 2153   1.481   4.887   6.373 -0.1814 -0.1980  0.1480
  360poe    c23 2154   1.544   5.012   6.391 -0.4812  0.0044 -0.1953
  360poe    c23 2155   1.428   5.112   6.406 -0.4373  0.0320 -0.0360
  360poe     o2 2156   1.327   5.049   6.482 -0.2892 -0.1964 -0.0266
  360poe    c23 2157   1.326   5.101   6.614  0.1019  0.2958 -0.2114
  360poe    c23 2158   1.237   4.998   6.685  0.4712 -0.3453 -0.6672
  360poe     o2 2159   1.262   4.865   6.645  0.1565 -0.3947 -0.6993
  360poe    c31 2160   1.157   4.782   6.692 -0.0397  0.0979 -0.2617
  361poe    c31 2161   2.710   4.157   5.024 -0.2003 -0.6426  0.4613
  361poe     o2 2162   2.699   4.017   5.014 -0.9938 -0.5732  0.2976
  361poe    c23 2163   2.661   3.989   4.881 -0.1385 -0.0989 -0.0554
  361poe    c23 2164   2.573   3.864   4.863 -0.4184 -0.0224  0.7482
  361poe     o2 2165   2.651   3.767   4.929  0.1204 -0.2057 -0.1551
  361poe    c23 2166   2.578   3.659   4.982 -0.2525  0.1024 -0.0405
  361poe    c23 2167   2.547   3.698   5.128  0.0908  0.6220 -0.1053
  361poe     o2 2168   2.665   3.761   5.173  0.3107  0.1422 -0.0045
  361poe    c23 2169   2.638   3.839   5.287  0.1899  0.2981 -0.1388
  361poe    c23 2170   2.776   3.888   5.337  0.1078 -0.0037  0.3884
  361poe     o2 2171   2.858   3.941   5.236  0.1347 -0.5479  0.1213
  361poe    c31 2172   2.956   4.018   5.301  0.2003 -0.2156 -0.3655
  362poe    c31 2173   2.540   3.226   0.998 -0.0647 -1.3040  0.4719
  362poe     o2 2174   2.430   3.288   1.061  0.8939  0.4473  0.4734
  362poe    c23 2175   2.367   3.194   1.145  0.0353  0.5833 -0.0088
  362poe    c23 2176   2.237   3.253   1.202 -0.4885 -0.5818  0.0422
  362poe     o2 2177   2.176   3.317   1.093 -0.1902 -0.2869  0.0448
  362poe    c23 2178   2.038   3.332   1.115 -0.1123  0.5213  0.0159
  362poe    c23 2179   1.971   3.399   0.993 -0.0043  0.2113 -0.2139
  362poe     o2 2180   2.020   3.531   0.986  0.2619  0.1476  0.3691
  362poe    c23 2181   2.015   3.592   0.859  0.3226  0.3586  0.4677
  362poe    c23 2182   2.070   3.735   0.843  0.3124  0.2422 -0.6836
  362poe     o2 2183   2.209   3.730   0.862  0.2239 -0.2582 -0.1397
  362poe    c31 2184   2.272   3.846   0.814  1.1520 -0.7224 -0.0655
  363poe    c31 2185   0.108   1.388   0.170 -0.0856 -0.5357  0.2572
  363poe     o2 2186   0.222   1.442   0.233  0.0604 -0.1608 -0.3288
  363poe    c23 2187   0.318   1.477   0.136  0.5293 -0.7162 -0.0684
  363poe    c23 2188   0.448   1.501   0.215  0.2777 -0.7571  0.3572
  363poe     o2 2189   0.438   1.594   0.320  0.0067 -0.4947  0.1006
  363poe    c23 2190   0.560   1.643   0.371 -0.1993  0.0616  0.0678
  363poe    c23 2191   0.517   1.712   0.502 -0.0914  0.4890 -0.1191
  363poe     o2 2192   0.415   1.626   0.548 -0.1716  0.8630  0.4055
  363poe    c23 2193   0.437   1.539   0.657 -0.3825  0.5799  0.2251
  363poe    c23 2194   0.345   1.416   0.655  0.9517 -0.4351 -0.3414
  363poe     o2 2195   0.331   1.367   0.524  0.2013 -0.1842 -0.3581
  363poe    c31 2196   0.289   1.233   0.536  0.5630 -0.2725 -0.0924
  364poe    c31 2197   2.673   1.054   1.381 -0.2394  0.3425 -0.2541
  364poe     o2 2198   2.793   0.990   1.417 -0.3792  0.3980  0.3164
  364poe    c23 2199   2.893   1.089   1.430  0.1622 -0.2071  0.8835
  364poe    c23 2200   3.034   1.030   1.448  0.1869 -0.3944  0.1051
  364poe     o2 2201   3.045   0.970   1.575 -0.3785 -0.2203  0.2395
  364poe    c23 2202   3.150   0.876   1.588  0.1606  0.3525  0.0492
  364poe    c23 2203   3.178   0.852   1.737 -0.3503 -0.3085  0.0439
  364poe     o2 2204   3.070   0.792   1.806 -0.2065 -0.5596  0.0503
  364poe    c23 2205   3.091   0.797   1.945  0.2220  0.4188 -0.0379
  364poe    c23 2206   2.963   0.735   2.005  0.2860 -0.2909 -0.6212
  364poe     o2 2207   2.866   0.808   1.932  0.2089 -0.2484 -0.4761
  364poe    c31 2208   2.747   0.774   1.999  0.2824  0.4799  0.0323
  365poe    c31 2209   5.410   3.556   6.563 -0.1890  0.0121 -0.2059
  365poe     o2 2210   5.492   3.451   6.609 -0.2501  0.1794  0.2872
  365poe    c23 2211   5.602   3.485   6.690 -0.3260  0.0850  0.4319
  365poe    c23 2212   5.687   3.362   6.725  0.0133  0.1257 -0.2258
  365poe     o2 2213   5.789   3.343   6.630  0.0909  0.3799 -0.1944
  365poe    c23 2214   5.884   3.241   6.652 -0.2513  0.1271  0.1344
  365poe    c23 2215   5.974   3.234   6.527  0.1165 -0.0999  0.4095
  365poe     o2 2216   5.895   3.226   6.411  0.3018 -0.0157  0.2758
  365poe    c23 2217   5.943   3.156   6.299 -0.9114  0.2783 -0.4424
  365poe    c23 2218   5.813   3.104   6.234 -0.8148  0.0874 -0.4827
  365poe     o2 2219   5.714   3.205   6.233 -0.6296  0.2878  0.4071
  365poe    c31 2220   5.613   3.161   6.145 -0.0274 -0.0910 -0.1029
  366poe    c31 2221   2.837   1.109   2.822  0.0820 -0.1906 -0.1669
  366poe     o2 2222   2.786   1.012   2.734 -0.0533  0.1517 -0.4698
  366poe    c23 2223   2.660   1.030   2.673 -0.3943 -0.3755  0.0691
  366poe    c23 2224   2.622   0.890   2.622  0.0556 -0.5408  0.1808
  366poe     o2 2225   2.618   0.796   2.727 -0.2232 -0.3148  0.3747
  366poe    c23 2226   2.574   0.673   2.674 -0.5509 -0.1645  0.2932
  366poe    c23 2227   2.616   0.557   2.767  0.1103 -0.5113 -0.4287
  366poe     o2 2228   2.756   0.576   2.760 -0.0024  0.3803 -0.4125
  366poe    c23 2229   2.823   0.456   2.792 -0.1992  0.2791 -0.3783
  366poe    c23 2230   2.868   0.433   2.937  0.2637  0.5507 -0.4759
  366poe     o2 2231   2.793   0.499   3.037  0.4155  0.0969 -0.0576
  366poe    c31 2232   2.830   0.451   3.164  0.1324  0.4359  0.1517
  367poe    c31 2233   5.683   2.271   4.197  0.2337  0.0840  0.2505
  367poe     o2 2234   5.681   2.412   4.193  0.3098  0.0659 -0.5395
  367poe    c23 2235   5.625   2.461   4.073 -0.4817 -0.1991 -0.2850
  367poe    c23 2236   5.620   2.614   4.087 -0.2756 -0.1897 -0.3008
  367poe     o2 2237   5.545   2.627   4.205  0.4960  0.1009  0.1637
  367poe    c23 2238   5.571   2.755   4.258 -0.2748  0.1491  0.4395
  367poe    c23 2239   5.534   2.752   4.408  0.1255 -0.3713  0.5303
  367poe     o2 2240   5.564   2.619   4.443  0.1378 -0.3566  0.5763
  367poe    c23 2241   5.509   2.573   4.564 -0.9140  0.4459  0.4151
  367poe    c23 2242   5.415   2.460   4.520 -0.0295 -0.1715  0.0843
  367poe     o2 2243   5.473   2.370   4.428  0.2339 -0.0257  0.1052
  367poe    c31 2244   5.435   2.238   4.458 -1.1552  0.3870  0.2538
  368poe    c31 2245   3.633   2.051   1.486 -0.1618 -0.1200 -0.0278
  368poe     o2 2246   3.769   2.069   1.454 -0.2383 -0.3852 -0.5094
  368poe    c23 2247   3.833   2.159   1.542 -0.2884 -0.2847 -0.5747
  368poe    c23 2248   3.969   2.098   1.582  0.1621  0.8221 -0.3755
  368poe     o2 2249   4.024   2.054   1.459  0.3184  0.2518 -0.1033
  368poe    c23 2250   4.143   1.981   1.480 -0.1793 -0.3175  0.8610
  368poe    c23 2251   4.199   1.956   1.339 -0.1975 -0.1784  0.8287
  368poe     o2 2252   4.103   1.895   1.257  0.3752  0.7790 -0.6092
  368poe    c23 2253   4.136   1.838   1.132  0.0253 -0.3608 -0.2014
  368poe    c23 2254   4.180   1.943   1.028  0.0640 -0.4716 -0.2972
  368poe     o2 2255   4.069   2.017   0.982 -0.0435 -0.1617  0.4340
  368poe    c31 2256   4.132   2.089   0.879 -0.5898 -0.0528  0.1713
  369poe    c31 2257   2.270   1.101   3.638  0.3635 -0.3865 -0.3793
  369poe     o2 2258   2.244   0.962   3.639  0.1297 -0.3416 -0.0721
  369poe    c23 2259   2.158   0.934   3.531 -0.1723  0.0984  0.0512
  369poe    c23 2260   2.156   0.785   3.493 -0.4245  0.0287  0.3363
  369poe     o2 2261   2.195   0.722   3.613  0.1414  0.3318  0.3163
  369poe    c23 2262   2.175   0.582   3.614  0.4801  0.2788  0.0147
  369poe    c23 2263   2.241   0.531   3.744  0.2949  0.0054  0.0029
  369poe     o2 2264   2.238   0.638   3.835 -0.2822 -0.0799  0.0907
  369poe    c23 2265   2.344   0.642   3.929  0.2072 -0.0635 -0.4515
  369poe    c23 2266   2.321   0.769   4.014  0.3450 -0.3952  0.0825
  369poe     o2 2267   2.309   0.869   3.916  0.3638  0.4926  0.9702
  369poe    c31 2268   2.325   1.003   3.957  0.0221  0.6492  0.6004
  370poe    c31 2269   4.740   3.310   2.027 -0.2050  0.1536  0.2851
  370poe     o2 2270   4.828   3.214   1.974  0.1089  0.4420  0.2788
  370poe    c23 2271   4.961   3.253   2.002  0.0073  0.8525  0.1951
  370poe    c23 2272   5.014   3.143   2.096 -0.1116  0.5579 -0.0804
  370poe     o2 2273   5.003   3.032   2.010 -0.3068  0.4285  0.1117
  370poe    c23 2274   5.045   2.909   2.066  0.0747  0.5609  0.1198
  370poe    c23 2275   5.055   2.792   1.966 -0.5100  0.3421  0.3136
  370poe     o2 2276   4.945   2.804   1.878 -0.6659 -0.2163  0.4258
  370poe    c23 2277   4.946   2.708   1.776  0.6222 -0.1765  0.3844
  370poe    c23 2278   5.052   2.750   1.672 -0.2134  0.1397 -0.3557
  370poe     o2 2279   5.029   2.720   1.536  0.2277 -0.0392 -0.3928
  370poe    c31 2280   5.145   2.754   1.463 -0.0004 -0.0492 -0.7629
  371poe    c31 2281   2.460   6.009   3.351 -0.1952  0.3110 -0.1152
  371poe     o2 2282   2.443   6.078   3.229  0.1847  0.4736 -0.0781
  371poe    c23 2283   2.411   6.004   3.114  0.0320  0.4328 -0.0108
  371poe    c23 2284   2.458   6.089   2.994  0.1413  0.0348 -0.2512
  371poe     o2 2285   2.594   6.088   2.958  0.1281  0.4594 -0.3104
  371poe    c23 2286   2.677   6.171   3.036 -0.1744  0.0936  0.4098
  371poe    c23 2287   2.817   6.108   3.049 -0.4807 -0.5830  0.4891
  371poe     o2 2288   2.876   6.096   2.922  0.4264 -0.0324  0.8453
  371poe    c23 2289   2.976   6.191   2.891  0.2470 -0.0211  0.2880
  371poe    c23 2290   2.963   6.211   2.739 -0.6777 -0.2038  0.3378
  371poe     o2 2291   2.923   6.095   2.669  0.4621 -0.3628 -0.0659
  371poe    c31 2292   2.901   6.126   2.534 -0.3287  0.0864  0.1610
  372poe    c31 2293   3.784   5.956   6.600  0.0516 -0.0424  0.2042
  372poe     o2 2294   3.676   5.893   6.536 -0.7028  0.6540  0.7621
  372poe    c23 2295   3.624   5.982   6.439 -0.2405 -0.1596 -0.2611
  372poe    c23 2296   3.497   5.927   6.371 -0.2852 -0.3880  0.0020
  372poe     o2 2297   3.515   5.808   6.299 -0.1028 -0.4319  0.1193
  372poe    c23 2298   3.397   5.760   6.239 -0.0816 -0.3090 -0.0226
  372poe    c23 2299   3.368   5.625   6.307  0.2731 -0.2229  0.3026
  372poe     o2 2300   3.492   5.558   6.321  0.4663  0.1469  0.3724
  372poe    c23 2301   3.489   5.419   6.298 -0.2850  0.2450 -0.1839
  372poe    c23 2302   3.638   5.380   6.296 -0.1641  0.6927  0.1285
  372poe     o2 2303   3.708   5.489   6.240  0.4501  0.1760 -0.1206
  372poe    c31 2304   3.846   5.462   6.234  0.4832  0.4424 -0.5942
  373poe    c31 2305   4.646   1.524   3.080  0.2523  0.0423  0.0815
  373poe     o2 2306   4.618   1.396   3.029  0.2642  0.4787 -1.0435
  373poe    c23 2307   4.730   1.310   3.028 -0.0124  0.0820  0.2537
  373poe    c23 2308   4.688   1.171   2.977 -0.0948  0.0859  0.3114
  373poe     o2 2309   4.591   1.135   3.073 -0.3806  0.1657  0.0562
  373poe    c23 2310   4.503   1.040   3.018 -0.1231  0.3178 -0.6351
  373poe    c23 2311   4.364   1.022   3.083  0.0257 -0.0184 -0.4040
  373poe     o2 2312   4.317   1.155   3.080 -0.2724 -0.1243 -0.4150
  373poe    c23 2313   4.196   1.150   3.152 -0.2930 -0.2211 -0.4550
  373poe    c23 2314   4.111   1.279   3.153  0.0821  0.0345  0.7037
  373poe     o2 2315   4.183   1.384   3.213  0.3783 -0.0797  0.5493
  373poe    c31 2316   4.128   1.513   3.211  1.2624  0.3023  0.4261
  374poe    c31 2317   5.887   0.168   6.331  0.7373  0.3956 -0.5677
  374poe     o2 2318   5.775   0.150   6.247  0.5261  0.1120 -0.2236
  374poe    c23 2319   5.782   0.016   6.203  0.1307  0.2803 -0.7924
  374poe    c23 2320   5.652  -0.023   6.129 -0.1823  0.1851 -0.1930
  374poe     o2 2321   5.612   0.090   6.055  0.4062  0.3251 -0.3030
  374poe    c23 2322   5.485   0.079   5.993  0.1418  0.2877  0.2394
  374poe    c23 2323   5.445   0.224   5.960  0.3919  0.2370 -0.2856
  374poe     o2 2324   5.494   0.294   6.072 -0.1701  0.3376 -0.1018
  374poe    c23 2325   5.473   0.433   6.066 -0.0450  0.3518 -0.2194
  374poe    c23 2326   5.540   0.484   6.195  0.0577  0.2334 -0.2268
  374poe     o2 2327   5.666   0.426   6.220 -0.0169  0.2494  0.1969
  374poe    c31 2328   5.735   0.489   6.325  0.3661  0.4834 -0.1910
  375poe    c31 2329   1.729   5.014   3.938  0.2303 -0.4692  0.0992
  375poe     o2 2330   1.695   5.085   4.055 -0.0894 -0.1258 -0.1991
  375poe    c23 2331   1.721   5.001   4.165 -0.2678  0.0215 -0.0429
  375poe    c23 2332   1.732   5.091   4.289  0.3590  0.5462 -0.4737
  375poe     o2 2333   1.609   5.156   4.313 -0.1051 -0.3553 -0.3571
  375poe    c23 2334   1.592   5.213   4.441 -0.2068  0.2143 -0.6197
  375poe    c23 2335   1.450   5.272   4.452  0.1217  0.8825  0.1095
  375poe     o2 2336   1.413   5.311   4.322 -0.7024 -0.2842 -0.0154
  375poe    c23 2337   1.319   5.415   4.333 -0.2630  0.1094 -0.0074
  375poe    c23 2338   1.269   5.489   4.207 -0.3782  0.0246 -0.0113
  375poe     o2 2339   1.205   5.400   4.118  0.2698 -0.5228  0.0684
  375poe    c31 2340   1.144   5.470   4.012 -0.4012 -0.4624  0.4911
  376poe    c31 2341   3.269   2.087   6.664 -0.7628  0.3383  0.1593
  376poe     o2 2342   3.328   2.060   6.789 -0.2429  0.3196 -0.0873
  376poe    c23 2343   3.402   2.180   6.799  0.7087 -0.2495 -0.1457
  376poe    c23 2344   3.514   2.173   6.904  0.6943  0.0130 -0.1136
  376poe     o2 2345   3.458   2.108   7.016 -0.3558  0.0441 -0.6089
  376poe    c23 2346   3.543   2.079   7.125 -0.4924 -0.2091 -0.5692
  376poe    c23 2347   3.447   2.028   7.235 -0.6804  0.0001 -0.6357
  376poe     o2 2348   3.369   1.928   7.173 -0.1188 -0.8099 -0.0477
  376poe    c23 2349   3.237   1.932   7.222 -0.1655 -0.2325 -0.2108
  376poe    c23 2350   3.134   1.875   7.123  0.0954 -0.8570 -0.1322
  376poe     o2 2351   3.176   1.916   6.995  0.4966 -0.1762  0.2114
  376poe    c31 2352   3.055   1.909   6.923  0.5692  1.1116 -0.0723
  377poe    c31 2353   4.181   1.400   3.894 -0.0438  0.1161 -0.1305
  377poe     o2 2354   4.119   1.297   3.820 -0.1695 -0.0547  0.2081
  377poe    c23 2355   4.031   1.354   3.725  0.0412  0.3218  0.2380
  377poe    c23 2356   3.919   1.251   3.706  0.2215  0.1697 -0.0073
  377poe     o2 2357   3.992   1.131   3.697  0.3979  0.2786 -0.0363
  377poe    c23 2358   3.921   1.013   3.665  0.0763  0.3609  0.3581
  377poe    c23 2359   4.025   0.900   3.647  0.4197  0.6859  0.2885
  377poe     o2 2360   4.107   0.923   3.759 -0.2429 -0.0622  0.9364
  377poe    c23 2361   4.197   0.816   3.772 -0.5993 -0.4948 -0.0608
  377poe    c23 2362   4.179   0.741   3.906  0.1263  0.1305  0.3896
  377poe     o2 2363   4.222   0.806   4.024 -0.6219  0.6014  0.4078
  377poe    c31 2364   4.231   0.709   4.126  0.0580 -0.1125 -0.3139
  378poe    c31 2365   3.979   1.677   6.820  0.2578  0.3075 -0.1950
  378poe     o2 2366   4.062   1.660   6.933 -0.2564 -0.0955  0.1280
  378poe    c23 2367   4.199   1.672   6.901 -0.2673 -0.0739  0.0892
  378poe    c23 2368   4.298   1.656   7.018  0.4802 -0.3978 -0.5805
  378poe     o2 2369   4.258   1.709   7.142  0.5991 -0.1827 -0.6330
  378poe    c23 2370   4.373   1.701   7.223  0.1575 -0.0663  0.0144
  378poe    c23 2371   4.336   1.774   7.354  0.1112  0.5137 -0.3183
  378poe     o2 2372   4.216   1.723   7.407  0.2650  0.1465 -0.3160
  378poe    c23 2373   4.208   1.754   7.545 -0.0456 -0.4894 -0.1884
  378poe    c23 2374   4.057   1.743   7.570 -0.0391  0.1375  0.1365
  378poe     o2 2375   3.985   1.810   7.469 -0.2813 -0.2087  0.0789
  378poe    c31 2376   3.867   1.874   7.512 -0.1301 -0.0604  0.2721
  379poe    c31 2377   3.352   0.054   1.213  0.1541 -0.0431  0.3127
  379poe     o2 2378   3.254   0.150   1.182  0.0654 -0.2285  0.0230
  379poe    c23 2379   3.152   0.099   1.098  0.0272 -0.3341  0.1332
  379poe    c23 2380   3.034   0.198   1.105  0.3613  0.1110 -0.4556
  379poe     o2 2381   3.094   0.325   1.105  0.3524  0.1158 -0.1861
  379poe    c23 2382   3.018   0.436   1.061 -0.0873 -0.3296 -0.5643
  379poe    c23 2383   3.107   0.561   1.076 -0.1142 -0.3855  0.1210
  379poe     o2 2384   3.175   0.527   1.194 -0.0836  0.6298  0.4077
  379poe    c23 2385   3.288   0.606   1.222  0.4953  0.1079 -0.3946
  379poe    c23 2386   3.382   0.516   1.304  0.5299 -0.0371 -0.5956
  379poe     o2 2387   3.401   0.390   1.243 -0.1180 -0.2124 -0.4420
  379poe    c31 2388   3.535   0.347   1.256 -0.1340  0.1094  0.8603
  380poe    c31 2389   0.656   2.101   5.708 -0.7990 -0.2631 -0.6521
  380poe     o2 2390   0.582   2.208   5.653 -0.0894  0.7648  0.3354
  380poe    c23 2391   0.587   2.325   5.731  0.0352  0.5519  0.6485
  380poe    c23 2392   0.539   2.441   5.642 -0.5650 -0.0674  0.1596
  380poe     o2 2393   0.424   2.391   5.577  0.1018 -0.7349 -0.5255
  380poe    c23 2394   0.352   2.475   5.490 -0.0137 -0.0337  0.2387
  380poe    c23 2395   0.234   2.380   5.467  0.1136 -0.3421  0.8253
  380poe     o2 2396   0.295   2.259   5.427 -0.0422  0.0581 -0.7105
  380poe    c23 2397   0.198   2.158   5.406 -0.2323  0.0192  0.2802
  380poe    c23 2398   0.267   2.020   5.412  0.2387  0.2566  0.3307
  380poe     o2 2399   0.371   2.032   5.508  0.0215  0.3900  0.5521
  380poe    c31 2400   0.407   1.901   5.546 -0.5247  0.2096  0.4554
  381poe    c31 2401   0.133   3.177   6.822  0.0999  0.1087  1.0003
  381poe     o2 2402   0.189   3.299   6.862  0.0339  0.4297  0.1273
  381poe    c23 2403   0.329   3.287   6.865  0.0229  0.3212  0.2090
  381poe    c23 2404   0.385   3.430   6.853 -0.1024  0.3481 -0.0568
  381poe     o2 2405   0.310   3.498   6.951  0.0529 -0.2784  0.5038
  381poe    c23 2406   0.331   3.637   6.950 -0.5097 -0.1903 -0.0018
  381poe    c23 2407   0.208   3.700   7.017 -0.4246  1.0097 -0.9235
  381poe     o2 2408   0.090   3.645   6.963 -0.1893  0.0445 -0.4759
  381poe    c23 2409   0.043   3.734   6.865 -0.3793  0.8696  0.3469
  381poe    c23 2410  -0.063   3.654   6.787 -0.1330  0.4945  0.3940
  381poe     o2 2411  -0.017   3.533   6.731 -0.5163  0.6564 -0.2769
  381poe    c31 2412  -0.084   3.475   6.621  0.0552  0.5805 -0.5879
  382poe    c31 2413   1.539   4.875   2.142 -0.3553  0.7428  0.5652
  382poe     o2 2414   1.601   4.928   2.257  0.3892 -0.0790  0.5574
  382poe    c23 2415   1.616   5.067   2.238  0.3517 -0.2286 -0.6324
  382poe    c23 2416   1.611   5.123   2.381 -0.2011 -0.8109 -0.4229
  382poe     o2 2417   1.722   5.059   2.439  0.4568  0.4690 -0.2375
  382poe    c23 2418   1.732   5.078   2.579  0.2091  0.0888 -0.1646
  382poe    c23 2419   1.809   4.957   2.634  0.7828  0.2171 -0.6629
  382poe     o2 2420   1.746   4.844   2.577  0.2400  0.3501 -0.3350
  382poe    c23 2421   1.816   4.722   2.587 -0.0733  0.1981  0.0292
  382poe    c23 2422   1.756   4.639   2.472  0.4823 -0.1479 -0.0139
  382poe     o2 2423   1.738   4.720   2.358  0.1779 -0.0696  0.0871
  382poe    c31 2424   1.749   4.624   2.255 -0.3412  0.2441 -0.2649
  383poe    c31 2425   6.262   6.217   0.159  0.7335  0.6487 -0.8896
  383poe     o2 2426   6.156   6.309   0.142  0.3476  0.5491  0.7729
  383poe    c23 2427   6.081   6.326   0.260 -0.3427  0.3061  0.3691
  383poe    c23 2428   5.964   6.424   0.241 -0.0883  0.6198  0.4277
  383poe     o2 2429   5.995   6.556   0.202  0.3041  0.3312 -0.2563
  383poe    c23 2430   5.905   6.654   0.249  0.0668  0.1510 -0.3341
  383poe    c23 2431   5.965   6.793   0.221 -0.7686  0.5567 -0.1270
  383poe     o2 2432   5.995   6.808   0.084  0.4956 -0.0843  0.0630
  383poe    c23 2433   6.043   6.936   0.050  0.0146 -0.0927 -0.6850
  383poe    c23 2434   6.123   6.911  -0.079 -0.1593 -0.5645 -0.7025
  383poe     o2 2435   6.173   6.780  -0.062  0.4788 -0.2447 -0.0217
  383poe    c31 2436   6.264   6.756  -0.167  0.8739  0.3739  0.1770
  384poe    c31 2437   4.449   5.102   4.425 -0.0265 -0.1718  0.2182
  384poe     o2 2438   4.507   4.980   4.385 -0.2665 -0.1457 -0.2105
  384poe    c23 2439   4.436   4.901   4.292  0.0960 -0.3762 -0.2963
  384poe    c23 2440   4.509   4.766   4.302  0.4567 -0.1815 -0.3114
  384poe     o2 2441   4.517   4.714   4.433 -0.0009  0.1027 -0.1691
  384poe    c23 2442   4.609   4.608   4.427 -0.5648 -0.3901 -0.1329
  384poe    c23 2443   4.595   4.539   4.564 -0.0567 -0.0006  0.1152
  384poe     o2 2444   4.602   4.630   4.671 -0.0227 -0.0164  0.1266
  384poe    c23 2445   4.695   4.574   4.761 -0.0651  0.0327  0.2019
  384poe    c23 2446   4.662   4.615   4.905  0.2406  0.2044  0.2237
  384poe     o2 2447   4.662   4.755   4.927 -0.4306  0.3502 -0.6615
  384poe    c31 2448   4.607   4.790   5.052  0.1724  0.6686 -0.4809
  385poe    c31 2449   2.585   2.231   6.607 -0.5918 -0.4124  0.7379
  385poe     o2 2450   2.579   2.333   6.509  0.5771 -0.5830  0.4667
  385poe    c23 2451   2.506   2.437   6.571  0.1711 -0.0319 -0.9105
  385poe    c23 2452   2.503   2.558   6.476  0.5673  0.4578 -0.3000
  385poe     o2 2453   2.613   2.644   6.497  0.7599  0.2162 -0.3128
  385poe    c23 2454   2.607   2.735   6.390  0.4228 -0.1840 -0.6371
  385poe    c23 2455   2.713   2.845   6.410  0.0344  0.0280  0.3673
  385poe     o2 2456   2.826   2.776   6.460  0.0069 -0.2864  0.0089
  385poe    c23 2457   2.952   2.839   6.456 -0.1160 -0.0690 -0.5039
  385poe    c23 2458   3.057   2.730   6.484 -0.2924 -0.1029  0.0375
  385poe     o2 2459   3.028   2.661   6.603 -0.1104  0.3508  0.3477
  385poe    c31 2460   3.137   2.603   6.671 -0.2263 -0.1997  0.0706
  386poe    c31 2461   1.549   3.967   3.853  0.8790  0.2083 -0.0566
  386poe     o2 2462   1.501   3.993   3.722 -0.4260 -0.6342  0.2253
  386poe    c23 2463   1.483   4.131   3.703  0.6657 -0.5245 -0.1172
  386poe    c23 2464   1.422   4.156   3.564  0.6084  0.1447  0.0224
  386poe     o2 2465   1.540   4.158   3.487  0.9233 -0.4127  0.4813
  386poe    c23 2466   1.564   4.281   3.421  0.5275 -0.2819  0.5773
  386poe    c23 2467   1.712   4.275   3.381  0.4655  0.1860  0.2749
  386poe     o2 2468   1.723   4.163   3.297 -0.0152  0.2963  0.0663
  386poe    c23 2469   1.852   4.156   3.241 -0.0617  0.2573 -0.0368
  386poe    c23 2470   1.864   4.019   3.171 -0.5985  0.0913  0.1897
  386poe     o2 2471   1.784   3.922   3.234 -0.3997 -0.3271 -0.1931
  386poe    c31 2472   1.787   3.793   3.177  0.8334 -0.3407 -0.1165
  387poe    c31 2473   4.702   2.570   3.240  0.3837 -0.2799 -0.7154
  387poe     o2 2474   4.572   2.538   3.197  0.0384 -0.2658  0.2900
  387poe    c23 2475   4.579   2.579   3.062  0.1028 -0.1449  0.3306
  387poe    c23 2476   4.439   2.583   2.998  0.2687  0.3309 -0.0088
  387poe     o2 2477   4.375   2.477   3.066 -0.3156  0.1398 -0.8401
  387poe    c23 2478   4.235   2.470   3.074 -0.2805 -0.2064 -0.5162
  387poe    c23 2479   4.201   2.334   3.138 -0.5298  0.0396 -0.1223
  387poe     o2 2480   4.293   2.321   3.244 -0.0213  0.1592 -0.5494
  387poe    c23 2481   4.307   2.183   3.272  0.1201  0.3639  0.4030
  387poe    c23 2482   4.438   2.156   3.350  0.4622 -0.8454 -0.5584
  387poe     o2 2483   4.536   2.227   3.278  0.1048 -0.2885 -0.5088
  387poe    c31 2484   4.661   2.202   3.338  0.0465 -0.2509 -0.3693
  388poe    c31 2485   2.079   2.323   6.521  0.0171 -0.0101 -0.3824
  388poe     o2 2486   2.073   2.198   6.586 -0.1573  0.2947  0.1948
  388poe    c23 2487   1.944   2.158   6.627  0.0352 -0.2583  0.2696
  388poe    c23 2488   1.954   2.004   6.633  0.3967 -0.2484 -0.0763
  388poe     o2 2489   2.054   1.990   6.732 -0.0854  0.0108  0.4519
  388poe    c23 2490   2.105   1.860   6.751  0.3088  0.0155 -0.5383
  388poe    c23 2491   2.218   1.880   6.853  0.6590 -0.8865 -0.7370
  388poe     o2 2492   2.291   1.995   6.815 -0.4725  0.2093  0.2845
  388poe    c23 2493   2.413   1.994   6.886 -0.1466  0.0506 -0.2738
  388poe    c23 2494   2.520   1.892   6.843  0.1609  0.1937  0.1502
  388poe     o2 2495   2.528   1.902   6.703 -0.5054  0.1572  0.1058
  388poe    c31 2496   2.597   1.785   6.666 -0.2254  0.4013 -0.1598
  389poe    c31 2497   1.431   5.862   6.610  0.4696  0.5010 -0.1199
  389poe     o2 2498   1.510   5.978   6.616  0.0350  0.7798  0.3110
  389poe    c23 2499   1.498   6.054   6.497 -0.1107  0.4218  0.0964
  389poe    c23 2500   1.630   6.132   6.479  0.3597 -0.3710  0.0473
  389poe     o2 2501   1.662   6.192   6.602  0.2878  0.2073 -0.2147
  389poe    c23 2502   1.775   6.273   6.578  0.8285 -0.4140  0.2213
  389poe    c23 2503   1.797   6.296   6.729  0.3381  0.0750  0.2203
  389poe     o2 2504   1.786   6.179   6.807 -0.5753 -0.2337 -0.3513
  389poe    c23 2505   1.758   6.209   6.941 -0.0136  0.1208 -0.3099
  389poe    c23 2506   1.677   6.092   7.001  0.6010 -0.4978 -0.6612
  389poe     o2 2507   1.571   6.069   6.910 -0.1519  0.1282  0.0393
  389poe    c31 2508   1.451   6.071   6.984 -0.1053 -0.3373  0.1297
  390poe    c31 2509   0.447   2.400   3.933 -0.3755  0.0120 -0.6730
  390poe     o2 2510   0.334   2.324   3.970 -0.2244 -0.0132 -0.2567
  390poe    c23 2511   0.228   2.326   3.877 -0.2544  0.2397 -0.2184
  390poe    c23 2512   0.085   2.317   3.935 -0.1738 -0.1238 -0.0699
  390poe     o2 2513   0.066   2.191   3.994 -0.1043 -0.2959 -0.4147
  390poe    c23 2514  -0.068   2.178   4.035 -0.1572 -0.4086 -0.6238
  390poe    c23 2515  -0.059   2.146   4.185 -0.6033 -0.5945 -0.6357
  390poe     o2 2516   0.033   2.040   4.196 -0.2684 -0.1748  0.6992
  390poe    c23 2517  -0.004   1.959   4.305 -0.8343 -0.5052  0.2661
  390poe    c23 2518   0.056   1.820   4.277  0.4654  0.3117 -1.1605
  390poe     o2 2519   0.189   1.836   4.233  0.8948 -0.0358 -0.0276
  390poe    c31 2520   0.259   1.714   4.235  0.2294 -0.4225  0.3009
  391poe    c31 2521   0.262   0.979   0.938 -0.4333 -0.0402 -0.0874
  391poe     o2 2522   0.139   0.969   1.006 -0.3995 -0.4089 -0.0754
  391poe    c23 2523   0.055   0.913   0.908 -0.2848 -0.1167 -0.3432
  391poe    c23 2524  -0.061   0.838   0.976 -0.1327  0.1281  0.1885
  391poe     o2 2525  -0.158   0.930   1.021 -0.6335 -0.2190 -0.1586
  391poe    c23 2526  -0.275   0.932   0.944 -0.2964 -0.2633 -0.6737
  391poe    c23 2527  -0.359   1.054   0.985  0.5396 -0.0515  0.4224
  391poe     o2 2528  -0.443   1.025   1.095  0.3126  0.0140  0.2665
  391poe    c23 2529  -0.550   1.116   1.090  0.2737 -0.0585 -0.3241
  391poe    c23 2530  -0.651   1.049   1.185  0.5863 -0.5899 -0.3643
  391poe     o2 2531  -0.575   1.014   1.298  0.1547  0.3220  0.2226
  391poe    c31 2532  -0.662   0.954   1.392  0.4444 -1.1978 -0.4482
  392poe    c31 2533   0.939   3.571   4.252 -0.3831  0.4554  0.3316
  392poe     o2 2534   0.950   3.709   4.279 -0.1853  0.4659  0.1975
  392poe    c23 2535   1.084   3.752   4.285 -0.1605  0.3574  0.3992
  392poe    c23 2536   1.096   3.905   4.300  0.1062  0.3738  0.0259
  392poe     o2 2537   0.988   3.948   4.221 -0.1891 -0.4863 -0.0527
  392poe    c23 2538   0.991   4.089   4.228 -0.0484 -0.5130  0.4156
  392poe    c23 2539   0.851   4.132   4.180  0.2232  0.0008  0.0765
  392poe     o2 2540   0.757   4.031   4.210  0.4710 -0.4458 -0.6216
  392poe    c23 2541   0.627   4.035   4.154  0.3509 -0.8147 -0.3742
  392poe    c23 2542   0.546   3.919   4.214 -0.2885  0.1622  0.6819
  392poe     o2 2543   0.644   3.818   4.224 -0.1863  0.1835 -0.0733
  392poe    c31 2544   0.612   3.695   4.284  0.4493  0.1616  0.2322
  393poe    c31 2545   2.943   2.265   4.560  0.4801 -0.2283  0.1546
  393poe     o2 2546   3.008   2.373   4.498 -0.0065 -0.0484 -0.0455
  393poe    c23 2547   2.964   2.501   4.536 -0.2543  0.0059 -0.5161
  393poe    c23 2548   3.021   2.613   4.446  0.1159 -0.3396 -0.7113
  393poe     o2 2549   3.153   2.578   4.411  0.2563 -0.5850  0.0600
  393poe    c23 2550   3.173   2.638   4.286 -0.3263  0.1331  0.3036
  393poe    c23 2551   3.299   2.564   4.236 -0.0911  0.2719  0.6862
  393poe     o2 2552   3.256   2.430   4.250 -0.6193  0.3318 -0.3135
  393poe    c23 2553   3.345   2.330   4.207 -0.5996 -0.1508  0.8257
  393poe    c23 2554   3.262   2.201   4.193 -0.1962 -0.2961 -0.3958
  393poe     o2 2555   3.159   2.199   4.289  0.3539 -0.5821  0.1950
  393poe    c31 2556   3.050   2.112   4.267 -0.0126  0.0508 -0.5131
  394poe    c31 2557   3.469   5.651   5.713 -0.4455 -0.3529  0.2384
  394poe     o2 2558   3.461   5.586   5.588 -0.6491 -0.2062  0.1731
  394poe    c23 2559   3.578   5.611   5.514 -0.5564 -0.8329  0.0986
  394poe    c23 2560   3.542   5.610   5.364 -0.1045  0.1797 -0.0276
  394poe     o2 2561   3.485   5.481   5.358 -0.7541  0.4622  0.0157
  394poe    c23 2562   3.444   5.441   5.229  0.2631  0.3936 -0.2886
  394poe    c23 2563   3.370   5.310   5.263  0.5054  0.3486  0.0701
  394poe     o2 2564   3.307   5.325   5.388  0.5298 -0.3312  0.1665
  394poe    c23 2565   3.274   5.208   5.459 -0.3288  0.1698  0.6011
  394poe    c23 2566   3.221   5.235   5.601  0.2239  0.2371  0.7956
  394poe     o2 2567   3.307   5.339   5.643  0.4383  0.3208  0.1606
  394poe    c31 2568   3.304   5.352   5.784 -0.1080 -0.5355  0.2360
  395poe    c31 2569   3.158   0.126   0.669 -0.7039 -0.3535 -0.2321
  395poe     o2 2570   3.167   0.238   0.583  0.0591 -0.5702 -0.4466
  395poe    c23 2571   3.299   0.280   0.557 -0.0554  0.1055  0.0243
  395poe    c23 2572   3.311   0.408   0.472 -0.2793  0.2062  0.1448
  395poe     o2 2573   3.243   0.410   0.348  0.0278  0.2525 -0.0237
  395poe    c23 2574   3.299   0.501   0.257  0.4729 -0.3194 -0.3245
  395poe    c23 2575   3.250   0.454   0.119  0.0755 -0.8753  0.0043
  395poe     o2 2576   3.113   0.421   0.125 -0.0008 -0.5343  0.1642
  395poe    c23 2577   3.064   0.375   0.000  0.1698 -0.4399  0.0618
  395poe    c23 2578   2.916   0.351   0.034  0.1237 -0.4191 -0.1252
  395poe     o2 2579   2.906   0.300   0.165  0.3712  0.0754  0.0885
  395poe    c31 2580   2.777   0.249   0.187  0.0626  0.5126 -0.6856
  396poe    c31 2581   5.868   3.414   0.868 -0.2521  0.3205 -0.0780
  396poe     o2 2582   5.965   3.430   0.766  0.1218 -0.1213  0.2017
  396poe    c23 2583   6.083   3.497   0.803 -0.2615  0.3613  0.5787
  396poe    c23 2584   6.196   3.486   0.698 -0.2211  0.4644  0.6113
  396poe     o2 2585   6.180   3.571   0.587  0.2253 -0.0853  0.1241
  396poe    c23 2586   6.228   3.703   0.598  0.6395 -0.1972 -0.3051
  396poe    c23 2587   6.215   3.792   0.473  0.0083 -0.2112 -0.2532
  396poe     o2 2588   6.250   3.707   0.366 -0.1862 -0.4802 -0.1035
  396poe    c23 2589   6.281   3.766   0.242 -0.3351  0.1204  0.1461
  396poe    c23 2590   6.353   3.655   0.163 -0.4638  0.1202  0.0304
  396poe     o2 2591   6.270   3.545   0.194 -0.8133  0.2606 -0.4007
  396poe    c31 2592   6.296   3.438   0.106  0.2362 -0.2702  0.5329
  397poe    c31 2593   5.875   2.639   2.813  0.0061 -0.6844 -0.2592
  397poe     o2 2594   5.746   2.607   2.765 -0.1943 -0.0527 -0.1473
  397poe    c23 2595   5.674   2.519   2.849  0.2921 -0.3445 -0.0327
  397poe    c23 2596   5.551   2.593   2.904  0.5935  0.2905 -0.2008
  397poe     o2 2597   5.481   2.648   2.795 -0.3082 -0.4267  0.0065
  397poe    c23 2598   5.377   2.730   2.846  0.4992  0.0948  0.8520
  397poe    c23 2599   5.429   2.875   2.843  0.3619  0.1327  0.0189
  397poe     o2 2600   5.501   2.883   2.722 -0.0517 -0.1742 -0.2489
  397poe    c23 2601   5.591   2.990   2.737 -0.3670  0.0096  0.3511
  397poe    c23 2602   5.693   2.971   2.624 -0.9377  0.1052 -0.1846
  397poe     o2 2603   5.719   2.835   2.594  0.0794  0.4286 -0.8400
  397poe    c31 2604   5.818   2.832   2.494 -0.0700  0.2695 -0.9837
  398poe    c31 2605   5.252   3.044   5.161  0.1030 -0.5315  0.2796
  398poe     o2 2606   5.356   3.140   5.158 -0.2012 -0.2044  0.0761
  398poe    c23 2607   5.410   3.145   5.028  0.3067 -0.0592  0.2923
  398poe    c23 2608   5.510   3.260   5.004  0.1758 -0.0114 -0.0260
  398poe     o2 2609   5.598   3.245   5.113 -0.0483 -0.1771  0.1348
  398poe    c23 2610   5.692   3.350   5.110 -0.1100 -0.1033  0.6838
  398poe    c23 2611   5.762   3.360   5.247  0.4955  0.3528  0.3486
  398poe     o2 2612   5.678   3.316   5.351 -0.0895  0.3863 -0.1071
  398poe    c23 2613   5.731   3.347   5.477 -0.4078  0.2619  0.0575
  398poe    c23 2614   5.629   3.355   5.593 -0.5307  0.5113 -0.0657
  398poe     o2 2615   5.673   3.396   5.720  0.7366 -0.0766 -0.2967
  398poe    c31 2616   5.719   3.292   5.804  0.2793  0.2045  0.3197
  399poe    c31 2617   2.449   6.096   6.540  0.4148  0.2703 -0.4975
  399poe     o2 2618   2.478   6.025   6.659  0.2284  0.2284 -0.4767
  399poe    c23 2619   2.502   5.893   6.617 -0.7988 -0.2293  0.3199
  399poe    c23 2620   2.562   5.814   6.735  0.3601  0.5864  0.2916
  399poe     o2 2621   2.457   5.828   6.828 -0.0705 -0.9728  0.0771
  399poe    c23 2622   2.487   5.772   6.954 -0.0575 -0.2886  0.3842
  399poe    c23 2623   2.367   5.794   7.048 -0.3089 -0.1797  0.0388
  399poe     o2 2624   2.340   5.932   7.032  0.3423 -0.0084  0.3869
  399poe    c23 2625   2.213   5.973   7.075  0.0601 -0.5612  0.1022
  399poe    c23 2626   2.193   6.116   7.021  0.0879 -0.5010  0.2499
  399poe     o2 2627   2.223   6.114   6.883  0.3954  0.2361  0.3034
  399poe    c31 2628   2.193   6.227   6.804 -0.2794  0.3858  0.7700
  400poe    c31 2629   5.725   1.830   4.967 -0.1661 -0.1376 -0.8318
  400poe     o2 2630   5.848   1.861   4.905  0.1123  0.5950  0.0526
  400poe    c23 2631   5.962   1.843   4.986 -0.0721 -0.0959  0.1646
  400poe    c23 2632   6.073   1.907   4.900  0.0269 -0.3644  0.0894
  400poe     o2 2633   6.054   1.856   4.771 -0.0295  0.3250 -0.1814
  400poe    c23 2634   6.166   1.877   4.688  0.4614 -0.4135  0.2809
  400poe    c23 2635   6.144   1.819   4.547  0.0758  0.0516  0.1457
  400poe     o2 2636   6.015   1.869   4.522  0.0941 -0.0734 -0.1914
  400poe    c23 2637   5.962   1.790   4.417 -0.1303  0.4842 -0.5006
  400poe    c23 2638   5.812   1.822   4.415 -0.3770 -0.6096 -0.1091
  400poe     o2 2639   5.772   1.866   4.543  0.4688  0.4810 -0.2088
  400poe    c31 2640   5.635   1.901   4.549  0.1795 -0.6677  0.0379
  401poe    c31 2641   5.435   4.204   5.041  0.5079  0.1210 -0.2775
  401poe     o2 2642   5.390   4.084   4.983 -0.4633  0.2098  0.2784
  401poe    c23 2643   5.386   3.984   5.083  0.2339  0.2134  0.3152
  401poe    c23 2644   5.347   3.861   4.999  0.2906  0.6342 -0.3350
  401poe     o2 2645   5.243   3.910   4.918  0.2745  0.2256 -0.5636
  401poe    c23 2646   5.152   3.815   4.868  0.4497  0.1228 -0.6872
  401poe    c23 2647   5.098   3.886   4.742 -0.4613 -0.1388 -0.4505
  401poe     o2 2648   5.066   4.021   4.764 -0.1217 -0.1377  0.0606
  401poe    c23 2649   4.939   4.048   4.821 -0.1728  0.0859 -0.1593
  401poe    c23 2650   4.961   4.169   4.914  0.0378  0.0937 -0.2161
  401poe     o2 2651   5.095   4.169   4.958 -0.1438 -0.2425  0.3538
  401poe    c31 2652   5.099   4.218   5.090 -0.2295  0.3902  0.1241
  402poe    c31 2653   4.568   6.063   6.659  0.7661  0.0747  0.1179
  402poe     o2 2654   4.500   6.179   6.615  0.1468 -0.3017  0.0706
  402poe    c23 2655   4.473   6.257   6.729 -0.2365 -0.3207 -0.0058
  402poe    c23 2656   4.461   6.400   6.672  0.6039 -0.3273 -0.2166
  402poe     o2 2657   4.435   6.390   6.534  0.4686 -0.0410 -0.2131
  402poe    c23 2658   4.418   6.514   6.469  0.8326  0.2014  0.1500
  402poe    c23 2659   4.317   6.484   6.357  0.2806 -0.1786  0.7438
  402poe     o2 2660   4.361   6.359   6.309  0.3114  0.1088  0.0100
  402poe    c23 2661   4.250   6.298   6.247  0.5489 -0.2362 -0.0766
  402poe    c23 2662   4.191   6.192   6.342 -0.4027 -0.2760 -0.6982
  402poe     o2 2663   4.291   6.121   6.412 -0.2081  0.6151 -0.0651
  402poe    c31 2664   4.233   6.022   6.494  0.5333  0.0453 -0.2216
  403poe    c31 2665   5.604   1.135   4.349  0.1150 -0.0668 -0.3237
  403poe     o2 2666   5.540   1.261   4.346  0.0951 -0.0804 -0.4856
  403poe    c23 2667   5.627   1.362   4.300 -0.0621  0.2725 -0.0170
  403poe    c23 2668   5.549   1.495   4.294  0.3293  0.5020 -0.0214
  403poe     o2 2669   5.467   1.473   4.407  0.3161  0.3367 -0.0632
  403poe    c23 2670   5.374   1.577   4.430  0.0230  0.0394  0.0937
  403poe    c23 2671   5.282   1.533   4.545 -0.0220  0.5337  0.2470
  403poe     o2 2672   5.257   1.398   4.513 -0.6816  0.6986  0.0674
  403poe    c23 2673   5.193   1.319   4.611 -0.4088  0.5395  0.1179
  403poe    c23 2674   5.206   1.172   4.568 -0.1824  0.4719  0.4224
  403poe     o2 2675   5.341   1.144   4.539 -0.2861  0.2999  0.0934
  403poe    c31 2676   5.371   1.007   4.537  0.6561  0.4894  0.4426
  404poe    c31 2677   5.198   6.563   6.093  0.8724 -1.3120 -0.0659
  404poe     o2 2678   5.213   6.547   5.954 -0.0486  0.1545 -0.3510
  404poe    c23 2679   5.148   6.657   5.893 -0.5656  0.0657  0.0340
  404poe    c23 2680   5.154   6.620   5.744 -0.2538 -0.1553  0.0979
  404poe     o2 2681   5.282   6.574   5.710 -0.3476 -0.2241 -0.1688
  404poe    c23 2682   5.278   6.533   5.575 -0.6873  0.7308 -0.4553
  404poe    c23 2683   5.315   6.384   5.578 -0.5916  0.7685  0.5523
  404poe     o2 2684   5.253   6.321   5.689 -0.2872 -0.2961  0.1231
  404poe    c23 2685   5.269   6.180   5.692 -0.2692 -0.3060 -0.2846
  404poe    c23 2686   5.199   6.153   5.827 -0.3282  0.0441 -0.2412
  404poe     o2 2687   5.229   6.242   5.932  0.1790 -0.1717 -0.1994
  404poe    c31 2688   5.144   6.208   6.039  0.0543  0.4715 -0.0887
  405poe    c31 2689   5.297   2.858   0.935 -0.6343 -0.4788  0.2647
  405poe     o2 2690   5.201   2.813   1.028 -0.3331 -0.3140  0.6564
  405poe    c23 2691   5.175   2.923   1.112 -0.0881  0.1854  0.0875
  405poe    c23 2692   5.023   2.947   1.120 -0.1016  0.0541  0.2225
  405poe     o2 2693   4.988   2.811   1.140 -0.2152 -0.1124 -1.0569
  405poe    c23 2694   4.853   2.793   1.177  0.0940  0.0803  0.1996
  405poe    c23 2695   4.843   2.643   1.213 -0.1123  0.2389  0.8246
  405poe     o2 2696   4.927   2.583   1.117 -0.1716  0.0445  0.8937
  405poe    c23 2697   4.959   2.446   1.131  0.1417  0.0899  0.6427
  405poe    c23 2698   5.102   2.441   1.188  0.0976 -0.2987  0.7223
  405poe     o2 2699   5.182   2.532   1.116 -0.0935 -0.3387  0.4583
  405poe    c31 2700   5.320   2.518   1.140  0.0183  0.0874  0.0809
  406poe    c31 2701   1.100   1.126   5.643  0.3597  1.0225 -0.5675
  406poe     o2 2702   1.161   1.043   5.547 -0.0548 -0.1452  0.1585
  406poe    c23 2703   1.127   0.907   5.560  0.0455 -0.2108 -0.2751
  406poe    c23 2704   1.205   0.811   5.467  0.1076 -0.4242 -0.0058
  406poe     o2 2705   1.338   0.853   5.484  0.0115 -0.3102  0.4743
  406poe    c23 2706   1.420   0.833   5.371  0.5406 -0.3526  0.8633
  406poe    c23 2707   1.530   0.940   5.354 -0.2023  0.3580  0.4919
  406poe     o2 2708   1.455   1.060   5.353 -0.3273  0.2772  0.0476
  406poe    c23 2709   1.520   1.173   5.300 -0.3413  0.1078 -0.3365
  406poe    c23 2710   1.403   1.274   5.299 -0.4907 -0.0646 -0.3609
  406poe     o2 2711   1.336   1.257   5.421  0.0151  0.3337 -0.0212
  406poe    c31 2712   1.230   1.350   5.431  0.2013  0.4696  0.7554
  407poe    c31 2713   6.327   3.844   5.826 -0.1788  0.4941  0.1408
  407poe     o2 2714   6.321   3.818   5.688 -0.1684  0.1410  0.2074
  407poe    c23 2715   6.334   3.941   5.621  0.3514  0.0187  0.0782
  407poe    c23 2716   6.321   3.902   5.472 -0.2162 -0.5547  0.2731
  407poe     o2 2717   6.386   3.778   5.459  0.3979 -0.2071 -0.0719
  407poe    c23 2718   6.392   3.746   5.322  0.0436  0.0943 -0.1612
  407poe    c23 2719   6.473   3.615   5.319  0.6484  0.4459  0.4084
  407poe     o2 2720   6.435   3.533   5.427  0.4365 -0.4381 -0.3145
  407poe    c23 2721   6.501   3.409   5.437  0.2527 -0.4748  0.5180
  407poe    c23 2722   6.406   3.289   5.452  0.5112 -0.7189  0.2080
  407poe     o2 2723   6.292   3.305   5.533 -0.2381 -0.2532 -0.9131
  407poe    c31 2724   6.215   3.188   5.531 -1.3175  0.3832  0.8830
  408poe    c31 2725   0.085   4.007   2.350 -0.2810 -0.3156  0.7356
  408poe     o2 2726   0.214   4.047   2.393 -0.2464  0.3703  0.0297
  408poe    c23 2727   0.253   4.180   2.369 -0.2280  0.3713  0.0665
  408poe    c23 2728   0.406   4.195   2.371 -0.2015  0.1882 -0.3360
  408poe     o2 2729   0.450   4.136   2.491  0.5306  0.1905 -0.5980
  408poe    c23 2730   0.582   4.084   2.489  0.4928  0.0827 -0.3919
  408poe    c23 2731   0.595   3.937   2.447  0.5109 -0.1187  0.3115
  408poe     o2 2732   0.492   3.868   2.514  0.0722  0.0712 -0.1588
  408poe    c23 2733   0.490   3.731   2.479  0.1695 -0.0711  0.3705
  408poe    c23 2734   0.351   3.693   2.534 -0.3002  0.3614 -0.4867
  408poe     o2 2735   0.253   3.794   2.520  0.0614  0.8174  0.2403
  408poe    c31 2736   0.137   3.735   2.575  0.4677 -0.0647  0.1751
  409poe    c31 2737   1.925   4.078   0.571 -0.1476 -0.5644  0.1946
  409poe     o2 2738   1.831   3.992   0.511  0.1439 -0.5264 -0.3255
  409poe    c23 2739   1.856   3.970   0.374  0.1878 -0.2041 -0.3688
  409poe    c23 2740   1.722   3.958   0.299  0.1658  0.1489 -0.3909
  409poe     o2 2741   1.636   3.871   0.370  0.6404 -0.0061  0.0092
  409poe    c23 2742   1.529   3.838   0.283  0.9681 -0.7323 -0.1259
  409poe    c23 2743   1.403   3.766   0.334  0.6447 -0.1147 -0.0454
  409poe     o2 2744   1.340   3.829   0.443  0.2978 -0.4727 -0.0362
  409poe    c23 2745   1.212   3.790   0.486  0.2368  0.2970  0.4968
  409poe    c23 2746   1.181   3.820   0.634  1.4346 -0.1004  0.8344
  409poe     o2 2747   1.159   3.959   0.645 -0.0538 -0.2407 -0.1164
  409poe    c31 2748   1.167   3.992   0.782  0.4759 -0.4374 -0.0956
  410poe    c31 2749   4.630   5.588   5.957  0.0326 -0.4222 -0.4285
  410poe     o2 2750   4.519   5.673   5.944  0.2750  0.0048  0.2140
  410poe    c23 2751   4.406   5.643   6.023 -0.0619  0.1603 -0.2032
  410poe    c23 2752   4.287   5.713   5.954 -0.0797 -0.3736 -0.7230
  410poe     o2 2753   4.330   5.847   5.942 -0.2167 -0.2457  0.1472
  410poe    c23 2754   4.224   5.938   5.919  0.1040  0.1289  0.1492
  410poe    c23 2755   4.300   6.071   5.902 -0.1029  0.2289  0.0107
  410poe     o2 2756   4.422   6.054   5.835  0.0632 -0.4209  0.4744
  410poe    c23 2757   4.529   6.133   5.882  0.1198  0.0836 -0.4737
  410poe    c23 2758   4.657   6.090   5.808  0.3570 -0.0165 -0.0120
  410poe     o2 2759   4.658   5.949   5.815 -0.4545 -0.0628 -0.6440
  410poe    c31 2760   4.777   5.906   5.753  0.0118 -0.1895  0.3172
  411poe    c31 2761   1.738   2.313   4.567 -0.4854  0.2839 -0.1060
  411poe     o2 2762   1.711   2.175   4.556 -0.4633  0.2934 -0.2729
  411poe    c23 2763   1.706   2.139   4.420  0.3196  0.0519 -0.2424
  411poe    c23 2764   1.672   1.991   4.398  0.4400 -0.0461  0.2133
  411poe     o2 2765   1.572   1.965   4.494  0.0369  0.2094 -0.1305
  411poe    c23 2766   1.548   1.829   4.521 -0.0274  0.1643 -0.4122
  411poe    c23 2767   1.475   1.825   4.657  0.7287 -0.2201 -0.0150
  411poe     o2 2768   1.547   1.919   4.733  0.4556 -0.2650  0.3005
  411poe    c23 2769   1.523   1.917   4.872 -0.6286  0.2158  0.1232
  411poe    c23 2770   1.619   2.015   4.943 -0.2229 -0.1265  0.0432
  411poe     o2 2771   1.671   2.114   4.857  0.3618 -0.4039  0.0747
  411poe    c31 2772   1.755   2.189   4.941  0.0429  0.0136  0.0190
  412poe    c31 2773   0.715   2.905   3.254 -0.9315  0.5138 -0.3505
  412poe     o2 2774   0.736   2.978   3.373 -0.3330 -0.5300  0.2041
  412poe    c23 2775   0.846   3.065   3.363 -0.3117 -0.5143  0.5408
  412poe    c23 2776   0.886   3.138   3.492 -0.4900  0.1660  0.2189
  412poe     o2 2777   0.787   3.239   3.496 -0.4900  0.1736  0.0365
  412poe    c23 2778   0.824   3.341   3.586  0.2065  0.1298 -0.1982
  412poe    c23 2779   0.744   3.340   3.717  0.1651 -0.0952 -0.2248
  412poe     o2 2780   0.610   3.324   3.675  0.0195  0.1401  0.1428
  412poe    c23 2781   0.520   3.296   3.780 -0.2905  0.5699 -0.0091
  412poe    c23 2782   0.388   3.338   3.711 -0.4906 -0.0967 -0.0353
  412poe     o2 2783   0.376   3.301   3.575 -0.0720  0.2325 -0.1640
  412poe    c31 2784   0.257   3.340   3.512 -0.0925  0.4238 -0.0065
  413poe    c31 2785   6.821   3.409   1.571 -0.1701 -0.1453 -0.3454
  413poe     o2 2786   6.792   3.541   1.530 -0.1721  0.2497  0.8873
  413poe    c23 2787   6.695   3.601   1.614  0.4372  1.0208  1.0550
  413poe    c23 2788   6.651   3.724   1.533  0.0009  0.2483  0.0962
  413poe     o2 2789   6.635   3.685   1.398  0.5631 -0.0917  0.1238
  413poe    c23 2790   6.596   3.805   1.335  0.2861 -0.1485  0.1825
  413poe    c23 2791   6.598   3.779   1.183  0.1900 -0.2200  0.1940
  413poe     o2 2792   6.720   3.712   1.160  0.2998  0.0755 -0.0810
  413poe    c23 2793   6.832   3.791   1.128  0.0710  0.1853 -0.6283
  413poe    c23 2794   6.956   3.700   1.144  0.0556  0.3247  0.3601
  413poe     o2 2795   6.952   3.652   1.276 -0.3779  0.5437  0.4306
  413poe    c31 2796   7.078   3.596   1.308 -0.1245  0.5889 -0.4595
  414poe    c31 2797   6.087   5.619   2.394 -0.1673 -0.2639  0.3510
  414poe     o2 2798   6.007   5.723   2.445  0.1000  0.0343  0.1634
  414poe    c23 2799   5.925   5.785   2.348 -0.2188 -0.3083  0.2108
  414poe    c23 2800   5.806   5.844   2.428  0.0046  0.5654 -0.0912
  414poe     o2 2801   5.866   5.926   2.526  0.5304  0.0552  0.0211
  414poe    c23 2802   5.760   5.968   2.609  0.3242 -0.1100 -0.1540
  414poe    c23 2803   5.834   6.006   2.739  0.4670  0.7763 -0.4822
  414poe     o2 2804   5.930   5.902   2.743 -0.0447  0.3148 -0.1319
  414poe    c23 2805   5.987   5.863   2.866  0.2355  0.5045 -0.2018
  414poe    c23 2806   6.066   5.734   2.836 -0.5142  0.1116 -0.5017
  414poe     o2 2807   6.148   5.765   2.726  0.0398  0.4415  0.0023
  414poe    c31 2808   6.276   5.708   2.742 -0.3229 -0.2397  0.4785
  415poe    c31 2809   3.280   0.003   1.946 -0.5950  0.7108 -0.0032
  415poe     o2 2810   3.168   0.047   2.021 -0.3242 -0.2155  0.9758
  415poe    c23 2811   3.179   0.188   2.029  0.0183 -0.1848  0.1446
  415poe    c23 2812   3.060   0.255   2.101 -0.3669 -0.5503 -0.1482
  415poe     o2 2813   3.044   0.209   2.233 -0.2508 -0.2500 -0.0303
  415poe    c23 2814   2.915   0.226   2.285 -0.4883 -0.0126 -0.6959
  415poe    c23 2815   2.905   0.136   2.409  0.2758 -0.0743 -0.6809
  415poe     o2 2816   2.950   0.003   2.392  0.2889 -0.1569 -0.0417
  415poe    c23 2817   2.952  -0.052   2.521 -0.1645  0.4937  0.2492
  415poe    c23 2818   3.000  -0.198   2.505 -0.4710  0.4686 -0.4794
  415poe     o2 2819   3.103  -0.189   2.410  0.2331  0.1741  0.2416
  415poe    c31 2820   3.163  -0.312   2.378 -0.9443 -0.3542  0.0096
  416poe    c31 2821   0.704   2.239   6.165  0.1787 -0.4786 -0.6519
  416poe     o2 2822   0.608   2.143   6.125 -0.0540 -0.3474 -0.4051
  416poe    c23 2823   0.654   2.015   6.162  0.3449 -0.0885  0.0114
  416poe    c23 2824   0.552   1.901   6.146 -0.3242  0.5557 -0.3688
  416poe     o2 2825   0.431   1.916   6.216  0.0417 -0.0562  0.4075
  416poe    c23 2826   0.354   1.798   6.209  0.0928 -0.0459 -0.3993
  416poe    c23 2827   0.248   1.826   6.318  0.5824  0.7002 -0.1081
  416poe     o2 2828   0.193   1.952   6.292 -0.2559  0.3661  0.0299
  416poe    c23 2829   0.121   1.987   6.408 -0.2308 -0.0333  0.1654
  416poe    c23 2830   0.039   2.112   6.370 -0.0102  0.0275 -0.1126
  416poe     o2 2831   0.137   2.201   6.323 -0.1027  0.3214  0.2482
  416poe    c31 2832   0.107   2.338   6.336 -0.1551  0.3541 -0.1767
  417poe    c31 2833   0.723   5.358   4.593  0.1125  0.1505  0.4277
  417poe     o2 2834   0.711   5.458   4.691 -0.1126 -0.0645  0.6228
  417poe    c23 2835   0.814   5.550   4.659 -0.0124 -0.5053 -0.3501
  417poe    c23 2836   0.802   5.656   4.770  0.1842 -0.9133  0.0689
  417poe     o2 2837   0.758   5.600   4.891 -0.1378  0.3681  0.5635
  417poe    c23 2838   0.794   5.677   5.004  0.2549  0.7852  0.1581
  417poe    c23 2839   0.685   5.697   5.111 -0.5178  0.0575 -0.4814
  417poe     o2 2840   0.637   5.576   5.166 -0.7287  0.5924  0.5241
  417poe    c23 2841   0.501   5.549   5.139 -0.4184  0.2263 -0.7238
  417poe    c23 2842   0.492   5.402   5.092  0.2813 -0.2761  0.6588
  417poe     o2 2843   0.552   5.396   4.965 -0.3739  0.2779  0.3209
  417poe    c31 2844   0.513   5.276   4.900 -0.0180  0.4905 -0.2987
  418poe    c31 2845   0.281   5.105   2.487 -0.5862 -0.5591  0.1071
  418poe     o2 2846   0.355   4.988   2.464  0.2334  0.0075 -0.1691
  418poe    c23 2847   0.479   5.021   2.405  0.1452 -0.0177 -0.3680
  418poe    c23 2848   0.549   4.904   2.335  0.4071  0.1326 -0.3583
  418poe     o2 2849   0.531   4.793   2.421 -0.4906  0.5984  0.0674
  418poe    c23 2850   0.554   4.666   2.363  0.2997  0.5359  0.4969
  418poe    c23 2851   0.536   4.568   2.480 -0.2395  0.0893  0.0491
  418poe     o2 2852   0.397   4.568   2.506 -0.2542 -0.3994 -0.0224
  418poe    c23 2853   0.375   4.548   2.644 -0.2331 -0.3660 -0.0141
  418poe    c23 2854   0.261   4.643   2.685  0.0492 -0.0917  0.1430
  418poe     o2 2855   0.274   4.776   2.641 -0.0147 -0.1700 -0.1118
  418poe    c31 2856   0.189   4.860   2.716  0.1795 -0.6493  0.6489
  419poe    c31 2857   1.963   3.358   3.311 -0.0007 -0.5637  0.0936
  419poe     o2 2858   1.886   3.407   3.418  0.5565  0.0365  0.2300
  419poe    c23 2859   1.752   3.382   3.380  0.4808  0.7939 -0.0060
  419poe    c23 2860   1.687   3.350   3.516  0.8558 -0.0175 -0.0127
  419poe     o2 2861   1.737   3.444   3.607 -0.0608  0.1635  0.3189
  419poe    c23 2862   1.685   3.444   3.738 -0.7412  0.3267  0.0500
  419poe    c23 2863   1.766   3.559   3.801  0.3062 -0.0511 -0.5853
  419poe     o2 2864   1.901   3.550   3.761  0.3301  0.0315 -0.5219
  419poe    c23 2865   1.971   3.673   3.759 -0.2649  0.3854 -0.0822
  419poe    c23 2866   2.087   3.641   3.663 -0.1787 -0.4206  0.2760
  419poe     o2 2867   2.034   3.594   3.541 -0.1216  0.1454  0.0262
  419poe    c31 2868   2.014   3.698   3.449 -0.1804  0.2745  0.1847
  420poe    c31 2869   0.646   0.549   6.649  0.0849 -0.2748 -0.3109
  420poe     o2 2870   0.538   0.558   6.739 -0.0334 -0.1747 -0.4604
  420poe    c23 2871   0.517   0.434   6.803  0.2920  0.0882  0.1687
  420poe    c23 2872   0.388   0.438   6.887  0.1222 -0.1489 -0.0805
  420poe     o2 2873   0.383   0.563   6.950 -0.1869 -0.3620  0.3210
  420poe    c23 2874   0.257   0.603   6.999  0.0524  0.1818  0.5101
  420poe    c23 2875   0.204   0.715   6.908 -0.0032  0.3767  0.7831
  420poe     o2 2876   0.310   0.808   6.895 -0.0779  0.3624  0.0656
  420poe    c23 2877   0.287   0.899   6.790 -0.4199 -0.4352 -0.5624
  420poe    c23 2878   0.424   0.958   6.750 -0.3850  0.2396  0.5285
  420poe     o2 2879   0.513   0.849   6.751 -0.0850  0.4758  0.0063
  420poe    c31 2880   0.617   0.889   6.666  0.2423 -0.7198 -0.1807
  421poe    c31 2881   4.266   3.334   3.591 -0.3426 -0.5168 -0.3568
  421poe     o2 2882   4.365   3.384   3.504 -0.0458 -0.0690  0.2300
  421poe    c23 2883   4.493   3.329   3.523  0.1910  0.4172  0.0691
  421poe    c23 2884   4.603   3.398   3.439  0.3786 -0.1342 -0.1424
  421poe     o2 2885   4.657   3.526   3.463  0.0468 -0.0193 -0.0019
  421poe    c23 2886   4.695   3.571   3.335 -0.9264  0.2631 -0.1994
  421poe    c23 2887   4.765   3.707   3.355 -0.1468 -0.1237 -0.2977
  421poe     o2 2888   4.671   3.777   3.432 -0.1110 -0.0577 -0.3145
  421poe    c23 2889   4.690   3.917   3.438 -0.6788  0.0369 -0.6055
  421poe    c23 2890   4.623   3.960   3.570 -0.0461 -0.4532 -0.1211
  421poe     o2 2891   4.598   3.851   3.656  0.1843 -0.3194  0.1181
  421poe    c31 2892   4.534   3.900   3.772 -0.2345  0.5702 -0.4742
  422poe    c31 2893   2.902   5.631   6.643 -0.5558  0.3743 -0.2343
  422poe     o2 2894   2.875   5.698   6.764  0.9986  0.1179  0.2776
  422poe    c23 2895   2.911   5.619   6.875  0.5725  0.0802  0.3891
  422poe    c23 2896   2.868   5.679   7.010 -0.6957 -0.2524  0.1499
  422poe     o2 2897   2.937   5.798   7.042 -0.4471 -0.2042 -0.5557
  422poe    c23 2898   2.888   5.845   7.165  0.6363  0.4784 -0.3720
  422poe    c23 2899   2.979   5.966   7.193 -0.3127  1.0204  0.4409
  422poe     o2 2900   3.002   6.036   7.073  0.0082 -0.7495 -0.5600
  422poe    c23 2901   3.028   6.175   7.078  0.2604 -0.8245  0.1894
  422poe    c23 2902   3.108   6.218   6.954 -0.2381 -0.5180 -0.0269
  422poe     o2 2903   3.205   6.119   6.932  0.2283 -0.0291 -0.2086
  422poe    c31 2904   3.301   6.157   6.836 -0.0303  0.4012 -0.2971
  423poe    c31 2905   5.627   6.153   6.527  0.4496  0.1993  0.2133
  423poe     o2 2906   5.504   6.146   6.594  0.1091  0.3461 -0.3861
  423poe    c23 2907   5.403   6.144   6.496 -0.3161  0.4984  0.0437
  423poe    c23 2908   5.268   6.121   6.567 -0.4339 -0.0202 -0.3435
  423poe     o2 2909   5.261   6.206   6.680 -0.0192 -0.5693  0.0980
  423poe    c23 2910   5.164   6.153   6.767 -0.5712  0.2419 -0.0199
  423poe    c23 2911   5.203   6.203   6.907 -0.0713 -0.1249 -0.0254
  423poe     o2 2912   5.341   6.177   6.914 -0.0112  0.0264 -0.5859
  423poe    c23 2913   5.396   6.244   7.025 -0.4544 -0.0525 -0.3203
  423poe    c23 2914   5.545   6.205   7.030 -0.6253 -0.7403 -0.4540
  423poe     o2 2915   5.587   6.199   6.895 -0.2789  0.1602 -0.3937
  423poe    c31 2916   5.727   6.186   6.903 -0.3264 -0.0963  0.0548
  424poe    c31 2917   3.595   1.759   5.846 -0.4424 -0.9281 -0.0258
  424poe     o2 2918   3.565   1.655   5.756 -0.1793 -0.8810 -0.1684
  424poe    c23 2919   3.519   1.717   5.638  0.5574 -0.3774 -0.1960
  424poe    c23 2920   3.447   1.610   5.554 -0.4865 -0.1147  0.3444
  424poe     o2 2921   3.512   1.486   5.576 -0.6639 -0.1965  0.4112
  424poe    c23 2922   3.434   1.374   5.542 -0.2135 -0.3757 -0.0479
  424poe    c23 2923   3.523   1.249   5.544  0.2703 -0.0270  0.2448
  424poe     o2 2924   3.589   1.269   5.667  0.4336 -0.2092  0.1883
  424poe    c23 2925   3.680   1.165   5.697  0.1472 -0.5794 -0.2286
  424poe    c23 2926   3.749   1.187   5.833  0.8283 -0.6590 -0.5614
  424poe     o2 2927   3.857   1.278   5.826  0.1947  0.1417 -0.0842
  424poe    c31 2928   3.983   1.215   5.818  0.1121 -0.1298  0.6308
  425poe    c31 2929   1.897   1.095   4.954  0.2640  0.0888 -0.2600
  425poe     o2 2930   1.797   1.019   4.890  0.0023  0.0400  0.2042
  425poe    c23 2931   1.814   1.024   4.750 -0.1653 -0.3593  0.1670
  425poe    c23 2932   1.720   0.931   4.672 -0.2120  0.5768 -0.9175
  425poe     o2 2933   1.744   0.794   4.694 -0.4627  0.5787 -0.6333
  425poe    c23 2934   1.625   0.723   4.666 -0.0631 -0.1819 -0.4263
  425poe    c23 2935   1.655   0.572   4.667  0.5907 -0.0485  0.3473
  425poe     o2 2936   1.765   0.561   4.756  0.6719  0.1926  0.2773
  425poe    c23 2937   1.831   0.438   4.736  0.5741  0.0977  0.5302
  425poe    c23 2938   1.920   0.398   4.855  0.1769 -0.6590  0.5795
  425poe     o2 2939   2.003   0.509   4.882 -0.3699 -0.0679 -0.1055
  425poe    c31 2940   2.049   0.491   5.014 -0.3464 -0.5037 -0.1703
  426poe    c31 2941   0.678   4.052   5.152  0.1502 -0.3102 -0.3778
  426poe     o2 2942   0.781   4.148   5.159  0.5491 -0.7753  0.2112
  426poe    c23 2943   0.849   4.145   5.283  0.4305 -0.5820  0.2810
  426poe    c23 2944   0.965   4.243   5.256 -0.0612 -0.1579 -0.3386
  426poe     o2 2945   0.921   4.361   5.192 -0.3296 -0.1886 -0.2170
  426poe    c23 2946   1.024   4.457   5.180 -0.3705 -0.1228 -0.0368
  426poe    c23 2947   0.967   4.560   5.081  0.5717  0.6903  0.2501
  426poe     o2 2948   0.896   4.504   4.973  1.0101  0.0950  0.2640
  426poe    c23 2949   0.862   4.594   4.870 -0.3786 -0.9806 -0.2538
  426poe    c23 2950   0.975   4.629   4.771 -0.6050  0.4892 -0.0211
  426poe     o2 2951   0.948   4.723   4.670 -0.4615 -0.1696 -0.6850
  426poe    c31 2952   0.951   4.853   4.724  0.4854 -0.5712  0.2668
  427poe    c31 2953   2.978   2.476   5.414 -0.2189 -0.6557 -0.4016
  427poe     o2 2954   2.856   2.486   5.344 -0.2647  0.0818 -0.2267
  427poe    c23 2955   2.763   2.550   5.428 -0.0962 -0.2451  0.2159
  427poe    c23 2956   2.627   2.556   5.356 -0.2662 -0.6616  0.4963
  427poe     o2 2957   2.621   2.448   5.266 -0.5099 -0.2835  0.0510
  427poe    c23 2958   2.501   2.436   5.193 -0.4654  0.1550 -0.0981
  427poe    c23 2959   2.527   2.313   5.103 -0.6717  0.5257 -0.6729
  427poe     o2 2960   2.640   2.345   5.025 -0.1911 -0.3802 -0.3717
  427poe    c23 2961   2.710   2.237   4.968  0.0935 -0.1160 -0.5233
  427poe    c23 2962   2.857   2.278   4.947  0.0644  0.1291 -0.2654
  427poe     o2 2963   2.912   2.334   5.064 -0.6881 -0.0069  0.1577
  427poe    c31 2964   3.036   2.272   5.088 -0.6304  0.1226  0.1935
  428poe    c31 2965   2.678   0.525   1.294  0.5848  0.4047  0.2459
  428poe     o2 2966   2.670   0.549   1.155  0.3329 -0.2573  0.1457
  428poe    c23 2967   2.622   0.434   1.088 -0.7533  0.1064  0.2913
  428poe    c23 2968   2.594   0.479   0.944 -0.4567 -0.1090  0.1652
  428poe     o2 2969   2.492   0.574   0.922 -0.3969 -0.1129 -0.1296
  428poe    c23 2970   2.415   0.548   0.806 -0.5288 -0.4975  0.0420
  428poe    c23 2971   2.302   0.651   0.788 -0.1693 -0.0415  0.3718
  428poe     o2 2972   2.360   0.771   0.833 -0.5139  0.2140  0.1482
  428poe    c23 2973   2.273   0.880   0.811 -0.2065  0.5021  0.3365
  428poe    c23 2974   2.339   1.007   0.866  0.4697  0.1845  0.2702
  428poe     o2 2975   2.441   0.978   0.959  0.0799 -0.5214  0.4850
  428poe    c31 2976   2.496   1.083   1.037 -0.4295 -0.3953  0.6759
  429poe    c31 2977   5.607   1.070   3.720 -0.5694  0.1976 -0.3911
  429poe     o2 2978   5.563   0.936   3.718  0.0374 -0.0132  0.0324
  429poe    c23 2979   5.438   0.919   3.654 -0.3168  0.0740  0.6838
  429poe    c23 2980   5.406   0.770   3.635 -0.6698  0.2269  0.0706
  429poe     o2 2981   5.515   0.720   3.560 -0.4951  0.1392  0.3834
  429poe    c23 2982   5.494   0.585   3.524  0.4689  0.3043 -0.8356
  429poe    c23 2983   5.622   0.509   3.486  0.1396 -0.5961 -0.1658
  429poe     o2 2984   5.714   0.518   3.593 -0.2827  0.0241  0.1527
  429poe    c23 2985   5.809   0.414   3.597  0.2529  0.5001 -0.0260
  429poe    c23 2986   5.919   0.443   3.700  0.4136  0.6187 -0.2294
  429poe     o2 2987   5.880   0.440   3.836  0.3670 -0.2442 -0.2510
  429poe    c31 2988   5.985   0.479   3.922 -0.0525 -0.0609  0.1844
  430poe    c31 2989   3.701   5.467   3.796 -0.4886  1.0073 -0.4012
  430poe     o2 2990   3.743   5.449   3.929 -0.6188 -0.1380 -0.5109
  430poe    c23 2991   3.707   5.318   3.967 -0.2326 -0.0963  0.0197
  430poe    c23 2992   3.792   5.269   4.086  0.2503  0.7299  0.0234
  430poe     o2 2993   3.766   5.376   4.174 -1.0622 -0.0295  0.5884
  430poe    c23 2994   3.812   5.358   4.306  0.0730  0.5731  0.2804
  430poe    c23 2995   3.725   5.437   4.405 -0.8640  0.2527 -0.2732
  430poe     o2 2996   3.691   5.563   4.351 -0.2622  0.4665 -0.1619
  430poe    c23 2997   3.581   5.619   4.419  0.0657  0.6203  0.2450
  430poe    c23 2998   3.549   5.765   4.382  0.6931  0.8016  0.3940
  430poe     o2 2999   3.411   5.786   4.362  0.7073  0.4706 -0.0545
  430poe    c31 3000   3.377   5.912   4.308 -0.1734  0.2849  0.0559
  431poe    c31 3001   5.081   0.640   4.576  0.1344 -0.3902 -0.5087
  431poe     o2 3002   5.009   0.605   4.460  0.1817 -0.2946 -0.5664
  431poe    c23 3003   4.873   0.586   4.493  0.1629  0.5169 -0.1553
  431poe    c23 3004   4.805   0.528   4.368  0.4449 -0.0413 -0.0498
  431poe     o2 3005   4.837   0.623   4.269 -0.3455 -0.1669 -0.4339
  431poe    c23 3006   4.803   0.569   4.143 -0.1193 -0.3099 -0.4338
  431poe    c23 3007   4.918   0.473   4.108  0.4677  0.3707 -0.4123
  431poe     o2 3008   5.034   0.544   4.144  0.1659  0.2220  0.9074
  431poe    c23 3009   5.144   0.472   4.092 -0.1914  0.2801  0.0532
  431poe    c23 3010   5.259   0.572   4.116 -0.1017  0.0036  0.7907
  431poe     o2 3011   5.239   0.636   4.240 -0.1592  0.8057  0.3724
  431poe    c31 3012   5.359   0.703   4.272  0.4052 -0.2315  0.4945
  432poe    c31 3013   0.466   5.292   0.942 -0.0903  0.8030 -0.1479
  432poe     o2 3014   0.593   5.342   0.908  0.2448  0.3384  0.4016
  432poe    c23 3015   0.613   5.342   0.769 -0.2111  0.3995  0.3342
  432poe    c23 3016   0.750   5.406   0.740 -0.3878  0.4595 -0.4102
  432poe     o2 3017   0.741   5.521   0.820  0.5433  0.3417 -0.1162
  432poe    c23 3018   0.813   5.634   0.776  0.4330  0.3015 -0.4047
  432poe    c23 3019   0.776   5.742   0.881 -0.0974 -0.3085  0.0457
  432poe     o2 3020   0.724   5.691   1.001 -0.6360 -0.7822 -0.3832
  432poe    c23 3021   0.612   5.762   1.048 -0.0394 -0.3319  0.3857
  432poe    c23 3022   0.561   5.683   1.170 -0.4299  0.2061  0.5751
  432poe     o2 3023   0.558   5.544   1.150  0.0773  0.2191  0.3993
  432poe    c31 3024   0.522   5.474   1.267 -0.1382 -0.4589 -0.0656
  433poe    c31 3025   4.653   4.840   6.315  0.0367  0.2073  0.0146
  433poe     o2 3026   4.545   4.764   6.363  0.1444  0.2226  0.2820
  433poe    c23 3027   4.553   4.746   6.503 -0.2726 -0.2433  0.2491
  433poe    c23 3028   4.427   4.767   6.589 -0.6820  0.5948 -0.5374
  433poe     o2 3029   4.309   4.699   6.555 -0.2375 -0.3010 -0.3108
  433poe    c23 3030   4.233   4.695   6.674 -0.1982  0.5599 -0.2543
  433poe    c23 3031   4.097   4.629   6.646 -0.0941  0.2345  0.0038
  433poe     o2 3032   4.056   4.697   6.530 -0.0450  0.1939 -0.0368
  433poe    c23 3033   3.918   4.718   6.513  0.0152  0.9021  0.3472
  433poe    c23 3034   3.911   4.810   6.389  0.1902  0.5302  0.0589
  433poe     o2 3035   4.011   4.783   6.294  0.0453 -0.0547  0.0716
  433poe    c31 3036   3.970   4.842   6.173 -0.3290  0.0272  0.2374
  434poe    c31 3037   0.215   6.778   5.937  0.6435  0.4895  0.3339
  434poe     o2 3038   0.223   6.678   5.838 -0.5242  0.3775  0.3343
  434poe    c23 3039   0.143   6.569   5.879  0.2432 -0.3066  0.0326
  434poe    c23 3040   0.210   6.440   5.828  0.4163 -0.1166 -0.2225
  434poe     o2 3041   0.267   6.469   5.702  0.5440  0.6891  0.0141
  434poe    c23 3042   0.342   6.362   5.649  0.0301  0.2135  0.2342
  434poe    c23 3043   0.381   6.412   5.508  0.6414 -0.1655  0.2679
  434poe     o2 3044   0.401   6.551   5.505 -0.2947 -0.0355 -0.0574
  434poe    c23 3045   0.491   6.594   5.406 -0.3401  0.8954  0.2934
  434poe    c23 3046   0.412   6.616   5.275 -0.8934  0.0146  0.4756
  434poe     o2 3047   0.331   6.731   5.268 -0.7821  0.0941  0.5018
  434poe    c31 3048   0.261   6.753   5.148  0.3838  0.5482 -0.1120
  435poe    c31 3049   3.934   5.068   5.280 -0.4229 -0.2856 -0.1381
  435poe     o2 3050   4.053   5.090   5.351 -0.4239  0.1960 -0.2871
  435poe    c23 3051   4.159   5.017   5.294 -0.3661 -0.1828  0.2994
  435poe    c23 3052   4.290   5.076   5.349 -0.1943 -0.4578  0.1882
  435poe     o2 3053   4.265   5.117   5.482 -0.4448 -0.4552  0.1409
  435poe    c23 3054   4.382   5.175   5.536 -0.2375 -0.1434 -0.6289
  435poe    c23 3055   4.334   5.228   5.672  0.2342  0.0129 -0.5239
  435poe     o2 3056   4.208   5.289   5.656  0.1829  0.0685  0.0439
  435poe    c23 3057   4.159   5.375   5.756 -0.5761  0.1750 -0.4095
  435poe    c23 3058   4.099   5.307   5.881  0.0198 -0.1064 -0.2726
  435poe     o2 3059   3.978   5.240   5.855 -0.2834  0.0503  0.7102
  435poe    c31 3060   3.900   5.187   5.961 -0.1079  0.0176  0.8237
  436poe    c31 3061   5.213   1.888   2.157 -0.2494 -0.2872 -0.4114
  436poe     o2 3062   5.247   2.025   2.161  0.3618 -0.4390 -0.3629
  436poe    c23 3063   5.298   2.077   2.040  0.3469  0.3231 -0.0432
  436poe    c23 3064   5.346   2.221   2.066 -0.2818  0.4940  0.2020
  436poe     o2 3065   5.452   2.219   2.159  0.3605 -0.3513 -0.5277
  436poe    c23 3066   5.520   2.343   2.163  0.1923 -0.2699 -0.0659
  436poe    c23 3067   5.531   2.368   2.315 -0.0974 -0.2331 -0.0506
  436poe     o2 3068   5.572   2.248   2.376  0.0696 -0.4072 -0.5014
  436poe    c23 3069   5.532   2.250   2.511 -0.2857  0.5187 -0.6148
  436poe    c23 3070   5.523   2.099   2.542  0.3823  0.3101 -1.3900
  436poe     o2 3071   5.421   2.047   2.460 -0.1894 -0.5494 -0.1634
  436poe    c31 3072   5.301   2.020   2.530 -0.2021 -0.5706 -0.1933
  437poe    c31 3073   3.829   0.520   2.599  0.5184  0.0048  0.3286
  437poe     o2 3074   3.864   0.657   2.599 -0.5514  0.2912 -0.2704
  437poe    c23 3075   4.005   0.654   2.598 -0.5632 -0.3781 -0.6956
  437poe    c23 3076   4.063   0.796   2.605 -0.1560 -0.5633 -0.2134
  437poe     o2 3077   3.979   0.886   2.535  0.0983 -0.1680 -0.0169
  437poe    c23 3078   4.014   1.022   2.549  0.0558 -0.0930 -0.5817
  437poe    c23 3079   3.900   1.105   2.488 -0.1808 -0.0400 -0.0717
  437poe     o2 3080   3.786   1.030   2.522 -0.1237 -0.0456  0.1132
  437poe    c23 3081   3.675   1.066   2.442 -0.0048  0.4699  0.1769
  437poe    c23 3082   3.574   0.959   2.486  0.3940  0.3156  0.7341
  437poe     o2 3083   3.634   0.833   2.504  0.0194  0.0968  0.4677
  437poe    c31 3084   3.531   0.738   2.525  0.0483  0.0443  0.3737
  438poe    c31 3085   1.600   5.758   3.682 -0.4970 -0.7293  0.9774
  438poe     o2 3086   1.614   5.668   3.574 -0.4835 -0.0422  0.3958
  438poe    c23 3087   1.727   5.585   3.592 -1.0049 -0.7386  0.4821
  438poe    c23 3088   1.719   5.475   3.484  0.2311  0.3134 -0.7139
  438poe     o2 3089   1.685   5.546   3.367 -0.1280  0.4667 -0.5171
  438poe    c23 3090   1.649   5.460   3.261  0.1601  0.1349 -0.3457
  438poe    c23 3091   1.669   5.533   3.126  0.1162  0.0802 -0.3815
  438poe     o2 3092   1.579   5.638   3.102  0.1738  0.2828  0.2543
  438poe    c23 3093   1.440   5.622   3.110  0.2791 -0.7309  0.1177
  438poe    c23 3094   1.377   5.732   3.196  0.1341 -0.9456  0.2880
  438poe     o2 3095   1.429   5.747   3.327 -0.1107 -0.2345  0.3109
  438poe    c31 3096   1.348   5.834   3.403 -0.1121 -0.2312  0.3060
  439poe    c31 3097   3.549   6.043   1.189 -0.2812 -0.3980 -0.1706
  439poe     o2 3098   3.563   6.150   1.098 -0.2680  0.1558  0.4696
  439poe    c23 3099   3.623   6.266   1.151  0.3801  0.3044 -0.5609
  439poe    c23 3100   3.547   6.385   1.090 -0.1699  0.5181  0.5200
  439poe     o2 3101   3.408   6.379   1.112 -0.1289  0.2006  0.6876
  439poe    c23 3102   3.349   6.507   1.113 -0.2280  0.1781 -0.6518
  439poe    c23 3103   3.197   6.495   1.091 -0.2925  0.0041 -0.1298
  439poe     o2 3104   3.117   6.452   1.199  0.1697 -0.1805  0.1427
  439poe    c23 3105   2.994   6.391   1.168  0.5571 -0.8186 -0.1513
  439poe    c23 3106   2.898   6.356   1.283  0.1945  0.1125 -0.1658
  439poe     o2 3107   2.773   6.329   1.225 -0.0653  0.5462  0.1833
  439poe    c31 3108   2.680   6.256   1.301  0.1739  0.1351  0.0846
  440poe    c31 3109   0.660   1.458   2.484  0.0773 -0.3904 -0.0856
  440poe     o2 3110   0.735   1.514   2.378 -0.4522  0.6040  0.0513
  440poe    c23 3111   0.740   1.429   2.266  0.3247  0.2690  0.3334
  440poe    c23 3112   0.888   1.453   2.233  0.2886  0.2180  0.1307
  440poe     o2 3113   0.908   1.593   2.230 -0.2515  0.2873 -0.3026
  440poe    c23 3114   1.038   1.627   2.190  0.0013 -0.5883 -0.2500
  440poe    c23 3115   1.043   1.772   2.244  0.0858 -0.7970  0.3108
  440poe     o2 3116   0.997   1.752   2.376 -0.4776 -0.1497  0.2184
  440poe    c23 3117   1.012   1.870   2.452 -0.1552 -0.0534  0.0095
  440poe    c23 3118   0.901   1.856   2.558 -0.0146  0.0031  0.1641
  440poe     o2 3119   0.780   1.795   2.519 -0.0434  0.1590  0.0078
  440poe    c31 3120   0.693   1.781   2.629 -0.4373 -0.2852 -0.3531
  441poe    c31 3121   1.487   5.453   0.629 -0.2736 -0.4498 -0.5691
  441poe     o2 3122   1.475   5.527   0.510  0.1740 -0.1437 -0.4254
  441poe    c23 3123   1.562   5.635   0.483 -0.3490  0.1749 -0.8601
  441poe    c23 3124   1.600   5.624   0.334  0.3153 -0.1953 -0.6701
  441poe     o2 3125   1.481   5.639   0.259 -0.3331 -0.2918  0.3143
  441poe    c23 3126   1.506   5.618   0.122  0.1441 -0.0306  0.3586
  441poe    c23 3127   1.362   5.625   0.068 -0.0169 -0.0466  0.7800
  441poe     o2 3128   1.282   5.573   0.171  0.2417 -0.3992  0.8055
  441poe    c23 3129   1.155   5.635   0.166  0.1726 -0.6122 -0.5050
  441poe    c23 3130   1.108   5.593   0.307  0.1424  0.2166 -0.2654
  441poe     o2 3131   1.209   5.602   0.405  0.1541 -0.0318 -0.2535
  441poe    c31 3132   1.156   5.604   0.535  0.1586 -0.1704 -0.2499
  442poe    c31 3133   0.445   4.985   6.113 -0.6813 -0.2408 -0.0780
  442poe     o2 3134   0.570   4.928   6.082 -0.5773 -0.1039  0.0865
  442poe    c23 3135   0.602   4.848   6.194  0.3717  0.1687  0.0109
  442poe    c23 3136   0.642   4.906   6.331 -0.0439 -0.0110  0.2092
  442poe     o2 3137   0.659   4.806   6.430  0.1318  0.0633  0.2553
  442poe    c23 3138   0.695   4.862   6.554 -0.2494  0.3609  0.2350
  442poe    c23 3139   0.778   4.753   6.625 -0.3748  0.1680  0.0853
  442poe     o2 3140   0.704   4.634   6.608  0.1349 -0.1622  0.1676
  442poe    c23 3141   0.759   4.532   6.688 -0.0294 -0.5199 -0.1685
  442poe    c23 3142   0.673   4.409   6.654 -0.2187 -0.3528 -0.2993
  442poe     o2 3143   0.661   4.397   6.514  0.3325  0.0095 -0.3789
  442poe    c31 3144   0.629   4.268   6.468 -0.0900  0.0376 -0.1627
  443poe    c31 3145   5.582   1.549   2.891 -0.2334 -0.2598  0.3558
  443poe     o2 3146   5.675   1.549   2.784 -0.4692  0.0133  0.1497
  443poe    c23 3147   5.656   1.657   2.696  0.4921  0.2013  0.1704
  443poe    c23 3148   5.764   1.639   2.588 -0.0271 -0.0865 -0.3040
  443poe     o2 3149   5.766   1.504   2.547  0.0638 -0.0647 -0.3728
  443poe    c23 3150   5.858   1.466   2.448 -0.5607 -0.2751 -0.8762
  443poe    c23 3151   5.834   1.318   2.412 -0.4918 -0.4403 -0.2470
  443poe     o2 3152   5.807   1.265   2.540 -0.2148  0.4220  0.1803
  443poe    c23 3153   5.749   1.136   2.538  0.1638  0.2565 -0.9719
  443poe    c23 3154   5.683   1.108   2.674  0.2226  0.2748 -0.9394
  443poe     o2 3155   5.622   1.231   2.708  0.2497  0.0271  0.0226
  443poe    c31 3156   5.529   1.224   2.814  0.2158  0.0801 -0.0040
  444poe    c31 3157   5.044   2.294   4.172 -0.0845 -0.0243  0.3253
  444poe     o2 3158   5.039   2.230   4.047 -0.5338 -0.6516  0.6607
  444poe    c23 3159   5.149   2.146   4.019  0.2869  0.8014 -0.5735
  444poe    c23 3160   5.143   2.137   3.865  0.2664 -0.2870 -0.5162
  444poe     o2 3161   5.021   2.071   3.844 -0.1710  0.2042  0.4284
  444poe    c23 3162   4.998   2.070   3.705 -0.5816  0.1475  0.4944
  444poe    c23 3163   4.864   2.146   3.694 -0.5905  0.1142  0.3779
  444poe     o2 3164   4.835   2.248   3.785  0.1316  0.1232  0.6060
  444poe    c23 3165   4.699   2.287   3.784  0.2342  0.4600 -0.1471
  444poe    c23 3166   4.694   2.371   3.913 -0.2892  0.3917 -0.1216
  444poe     o2 3167   4.760   2.313   4.023  0.0342  0.5129 -0.2480
  444poe    c31 3168   4.710   2.386   4.133  0.4623  0.1220  0.2130
  445poe    c31 3169   1.195   0.509   5.222 -0.1428  0.3609  1.0426
  445poe     o2 3170   1.309   0.445   5.167 -0.4225  0.4477  0.3416
  445poe    c23 3171   1.432   0.503   5.206  0.1851 -0.5056 -0.1340
  445poe    c23 3172   1.524   0.464   5.089 -0.0258 -0.2701 -0.3798
  445poe     o2 3173   1.482   0.343   5.030  0.3663 -0.5806 -0.0344
  445poe    c23 3174   1.562   0.283   4.931 -0.1584  0.3957 -1.0737
  445poe    c23 3175   1.480   0.172   4.861 -0.5940  0.3002 -0.4192
  445poe     o2 3176   1.352   0.223   4.830 -0.5679  0.2193 -0.6598
  445poe    c23 3177   1.350   0.300   4.713  0.3887 -0.2396 -0.9947
  445poe    c23 3178   1.216   0.374   4.733  0.4533 -0.2958 -0.3480
  445poe     o2 3179   1.211   0.452   4.851  0.1093 -0.0338 -0.5337
  445poe    c31 3180   1.128   0.565   4.835  0.2726  0.1176 -0.3172
  446poe    c31 3181   0.270   4.067   0.480 -0.8205 -0.5064  0.0421
  446poe     o2 3182   0.168   4.140   0.416  0.3382  0.8453 -0.2935
  446poe    c23 3183   0.104   4.063   0.317  0.5036  0.0908  0.1830
  446poe    c23 3184  -0.016   4.130   0.249  0.2957  0.5061  0.9487
  446poe     o2 3185   0.035   4.249   0.195 -0.2771  0.4899  0.3561
  446poe    c23 3186  -0.073   4.338   0.183 -0.1219  0.5652 -0.6184
  446poe    c23 3187  -0.012   4.477   0.212 -0.0576  0.3323  0.4138
  446poe     o2 3188   0.061   4.476   0.332 -0.2492 -0.5951  0.5297
  446poe    c23 3189   0.144   4.585   0.364  0.2580 -0.9034  0.2759
  446poe    c23 3190   0.214   4.553   0.498  0.8230  0.3454  0.2916
  446poe     o2 3191   0.262   4.420   0.500 -0.3660 -0.0967  0.0512
  446poe    c31 3192   0.348   4.411   0.611 -0.3754 -0.2116  0.0491
  447poe    c31 3193   0.394   2.045   3.491  0.0644 -0.1936 -0.0206
  447poe     o2 3194   0.515   2.101   3.445 -0.1679  0.2304 -0.1190
  447poe    c23 3195   0.557   2.205   3.530 -0.0025  0.4397 -0.4545
  447poe    c23 3196   0.695   2.258   3.488  0.4355 -0.1772  0.2028
  447poe     o2 3197   0.680   2.257   3.348  0.1402 -1.3260  0.2281
  447poe    c23 3198   0.803   2.275   3.281 -0.1447  0.0683  0.0386
  447poe    c23 3199   0.772   2.278   3.130  0.0207  0.5136  0.0123
  447poe     o2 3200   0.682   2.170   3.124 -0.1400  0.6480  0.0094
  447poe    c23 3201   0.605   2.154   3.007 -0.1048  0.9139 -0.0507
  447poe    c23 3202   0.465   2.207   3.041 -0.3231 -0.0373  0.5756
  447poe     o2 3203   0.437   2.167   3.174  0.1926  0.1021  0.7275
  447poe    c31 3204   0.298   2.192   3.171  0.1577 -0.1310 -0.1132
  448poe    c31 3205   2.468   4.342   2.758  0.2582  0.3615 -0.0893
  448poe     o2 3206   2.525   4.369   2.884 -0.5985 -0.0707  0.3975
  448poe    c23 3207   2.659   4.327   2.899 -0.4376  0.2039 -0.2784
  448poe    c23 3208   2.744   4.432   2.973  0.1858 -0.4876 -0.0046
  448poe     o2 3209   2.661   4.469   3.080 -0.1836 -0.2628 -0.3683
  448poe    c23 3210   2.724   4.566   3.161 -0.3445 -0.2071 -0.3075
  448poe    c23 3211   2.629   4.632   3.262 -0.8448 -0.7383 -0.4248
  448poe     o2 3212   2.519   4.701   3.207 -0.6111 -0.1873 -0.2061
  448poe    c23 3213   2.441   4.768   3.303  0.3217  0.1807  0.3076
  448poe    c23 3214   2.367   4.690   3.414  0.0570  0.1319  0.0958
  448poe     o2 3215   2.253   4.625   3.361  0.1637  0.0306 -0.0085
  448poe    c31 3216   2.181   4.571   3.469  0.2124  0.4720  0.2454
  449poe    c31 3217   2.648   6.213   1.828  0.1003 -0.0649  0.8644
  449poe     o2 3218   2.587   6.336   1.862  0.1125  0.1220  0.2249
  449poe    c23 3219   2.472   6.380   1.794 -0.1444 -0.4010  0.3198
  449poe    c23 3220   2.339   6.332   1.856 -0.3531 -0.4863 -0.1863
  449poe     o2 3221   2.332   6.378   1.989 -0.2640  0.1548 -0.3975
  449poe    c23 3222   2.203   6.364   2.046 -0.0085 -0.8550 -0.0349
  449poe    c23 3223   2.174   6.407   2.191 -0.6498  0.0753 -0.4273
  449poe     o2 3224   2.267   6.346   2.277 -0.7576  0.4255 -0.0634
  449poe    c23 3225   2.226   6.331   2.411 -0.0392 -0.5182  0.0666
  449poe    c23 3226   2.344   6.321   2.509  0.0833 -0.0392 -0.0266
  449poe     o2 3227   2.437   6.243   2.438 -0.3087 -0.8622  0.3449
  449poe    c31 3228   2.533   6.200   2.533 -0.1232  0.2627  0.6903
  450poe    c31 3229   1.969   2.821   0.580  0.4691 -0.0782 -0.0104
  450poe     o2 3230   2.006   2.689   0.611  0.0345 -0.2088 -0.0408
  450poe    c23 3231   2.044   2.674   0.745  0.0559 -0.0705 -0.0313
  450poe    c23 3232   2.142   2.554   0.749 -0.2470 -0.3095  0.2833
  450poe     o2 3233   2.100   2.454   0.660  0.1069  0.3559 -0.6463
  450poe    c23 3234   2.146   2.324   0.691 -0.5205  0.1941 -0.3758
  450poe    c23 3235   2.040   2.232   0.627  0.0764 -0.4836 -0.4067
  450poe     o2 3236   1.981   2.313   0.528  0.0576 -0.3503 -0.2872
  450poe    c23 3237   1.851   2.264   0.503  0.1318 -0.4319 -0.5093
  450poe    c23 3238   1.789   2.390   0.442  0.0289 -0.0214  0.4323
  450poe     o2 3239   1.826   2.509   0.509  0.1605  0.2817 -0.1726
  450poe    c31 3240   1.718   2.600   0.510  0.2665  0.4043  0.2375
  451poe    c31 3241   2.225   5.028   6.014  0.1079 -0.0485 -0.0092
  451poe     o2 3242   2.302   5.119   5.939 -0.4413  0.1697 -0.3133
  451poe    c23 3243   2.328   5.230   6.022  0.0603  0.0343 -0.2855
  451poe    c23 3244   2.399   5.341   5.943 -0.0783 -0.2111 -0.7616
  451poe     o2 3245   2.509   5.274   5.885  0.3030 -0.1622 -0.1131
  451poe    c23 3246   2.594   5.368   5.825  0.7597 -0.4109  0.1422
  451poe    c23 3247   2.692   5.290   5.735  0.8407 -0.4576  0.2711
  451poe     o2 3248   2.619   5.197   5.659 -0.0446  0.7223 -0.3660
  451poe    c23 3249   2.685   5.162   5.540 -0.3012  0.7834 -0.5258
  451poe    c23 3250   2.614   5.044   5.469  0.2709 -0.0927  0.3241
  451poe     o2 3251   2.484   5.086   5.435  0.4721  0.2822  0.0112
  451poe    c31 3252   2.441   4.989   5.342  0.1113  0.6967 -0.2616
  452poe    c31 3253   6.021   1.782   3.441  0.2097 -0.6299 -0.0657
  452poe     o2 3254   6.117   1.823   3.536 -0.2645  0.4870 -0.0554
  452poe    c23 3255   6.073   1.770   3.659 -0.0526  0.1166 -0.1395
  452poe    c23 3256   6.132   1.847   3.779 -0.0061 -0.4850  0.2298
  452poe     o2 3257   6.266   1.852   3.735 -0.3919  0.1945 -0.9008
  452poe    c23 3258   6.333   1.952   3.808  0.3609 -0.7317 -0.3039
  452poe    c23 3259   6.430   2.019   3.709  0.3105 -0.2214 -0.0112
  452poe     o2 3260   6.384   1.985   3.580  0.5853 -0.1861 -0.1180
  452poe    c23 3261   6.445   2.048   3.469 -0.0234  0.3389 -0.1640
  452poe    c23 3262   6.377   2.017   3.334 -0.9911 -0.0159  0.3930
  452poe     o2 3263   6.333   1.883   3.335  0.1786 -0.4214  0.2472
  452poe    c31 3264   6.325   1.849   3.199  0.7206  0.5360 -0.0343
  453poe    c31 3265   2.057   6.351   6.319 -0.4019 -0.6629  0.3037
  453poe     o2 3266   2.180   6.292   6.283 -0.2299 -0.2481  0.2043
  453poe    c23 3267   2.172   6.232   6.156 -0.1449 -0.1460  0.1503
  453poe    c23 3268   2.306   6.161   6.127  0.3342  0.3726  1.0420
  453poe     o2 3269   2.397   6.246   6.059 -0.2869  0.1722 -0.0690
  453poe    c23 3270   2.503   6.160   6.022 -0.2614  0.4544 -0.6593
  453poe    c23 3271   2.625   6.235   5.965 -0.0722 -0.0031 -0.8538
  453poe     o2 3272   2.672   6.321   6.066 -0.0059 -0.3412 -0.5937
  453poe    c23 3273   2.769   6.416   6.028 -0.6818  0.7027  0.2214
  453poe    c23 3274   2.802   6.497   6.155  0.2094  0.3714  0.2126
  453poe     o2 3275   2.681   6.547   6.208  0.1367  0.0737  0.3319
  453poe    c31 3276   2.704   6.637   6.314 -0.4676  0.0900  0.4530
  454poe    c31 3277   1.817   1.849   6.242  0.4872  0.0225 -0.6325
  454poe     o2 3278   1.868   1.722   6.209  0.2842 -0.1033 -0.4678
  454poe    c23 3279   1.834   1.623   6.303 -0.2070  0.1648 -0.3637
  454poe    c23 3280   1.830   1.486   6.234 -0.3116  0.1714 -0.3717
  454poe     o2 3281   1.953   1.444   6.177 -0.0160 -0.0596  0.4291
  454poe    c23 3282   1.930   1.313   6.130  0.1662  0.1025 -0.1131
  454poe    c23 3283   2.073   1.263   6.104  0.0569 -0.1731 -0.1852
  454poe     o2 3284   2.144   1.368   6.042 -0.2495 -0.2663 -0.7029
  454poe    c23 3285   2.248   1.330   5.954 -0.0969  0.3693 -0.8062
  454poe    c23 3286   2.351   1.443   5.942  0.4239 -0.0893 -0.6800
  454poe     o2 3287   2.296   1.570   5.967  0.4332 -0.1860 -0.1415
  454poe    c31 3288   2.392   1.668   5.935  0.7637 -0.5672 -0.3286
  455poe    c31 3289   3.242   3.253   0.681  0.2335 -0.4658  0.1921
  455poe     o2 3290   3.309   3.362   0.623 -0.5637 -0.3106 -0.4604
  455poe    c23 3291   3.226   3.475   0.606  0.1887  0.4442  0.7245
  455poe    c23 3292   3.309   3.604   0.591 -0.0493  0.4750 -0.3906
  455poe     o2 3293   3.418   3.562   0.512  0.2834  0.1855  0.2186
  455poe    c23 3294   3.510   3.667   0.493  0.2446  0.1417 -0.2197
  455poe    c23 3295   3.596   3.611   0.378  0.5220  0.1797 -0.0305
  455poe     o2 3296   3.630   3.477   0.407  0.4228  0.1730  0.0531
  455poe    c23 3297   3.597   3.387   0.304 -0.4864  0.2118  0.2971
  455poe    c23 3298   3.620   3.255   0.379  0.2510  0.1330 -0.0588
  455poe     o2 3299   3.527   3.250   0.484  0.2690 -0.2663 -0.0594
  455poe    c31 3300   3.503   3.119   0.531 -0.0358 -0.1671  0.0666
  456poe    c31 3301   0.730   3.464   1.036  0.0109 -0.5140  0.3707
  456poe     o2 3302   0.822   3.531   1.118 -0.1797  0.7750 -0.4416
  456poe    c23 3303   0.742   3.558   1.231 -0.0579 -0.0900 -0.1392
  456poe    c23 3304   0.847   3.614   1.328 -0.0243 -0.0297 -0.2105
  456poe     o2 3305   0.956   3.527   1.350 -0.0114  0.0366 -0.0063
  456poe    c23 3306   0.935   3.401   1.412  0.1041  0.1007  0.1628
  456poe    c23 3307   1.047   3.298   1.387  0.3788  0.4321  0.0202
  456poe     o2 3308   1.169   3.364   1.413  0.4649  0.2154  0.1677
  456poe    c23 3309   1.279   3.289   1.368  0.1480 -0.0226 -0.2172
  456poe    c23 3310   1.399   3.351   1.443 -0.1494 -0.1834  0.3946
  456poe     o2 3311   1.387   3.491   1.445  0.4527 -0.1111 -0.4309
  456poe    c31 3312   1.513   3.552   1.458  0.2712  0.1951 -0.0968
  457poe    c31 3313   3.106   4.810   2.831 -0.1755 -0.0737 -0.7349
  457poe     o2 3314   3.139   4.680   2.788  0.2854 -0.1779 -0.0947
  457poe    c23 3315   3.135   4.594   2.900 -0.5783  0.3453  0.2855
  457poe    c23 3316   3.113   4.455   2.837 -0.2420  0.4968 -0.1750
  457poe     o2 3317   3.204   4.459   2.729  0.0687 -0.1384  0.0550
  457poe    c23 3318   3.172   4.361   2.633  0.1278  0.0730 -0.1796
  457poe    c23 3319   3.264   4.401   2.516 -0.0757  0.2228 -0.2888
  457poe     o2 3320   3.257   4.539   2.490 -0.6141  0.2396 -0.0616
  457poe    c23 3321   3.359   4.591   2.408  0.0156 -0.0312  0.5382
  457poe    c23 3322   3.361   4.745   2.411  0.5949 -0.0225 -0.1689
  457poe     o2 3323   3.332   4.784   2.543  0.3583 -0.3409 -0.1256
  457poe    c31 3324   3.352   4.924   2.535  0.0728 -0.3265 -0.6456
  458poe    c31 3325   2.621   4.296   1.903  0.6715  0.5731  0.1439
  458poe     o2 3326   2.542   4.408   1.936 -0.0092  0.1948 -0.1814
  458poe    c23 3327   2.501   4.465   1.814 -0.4837 -0.5665 -0.3855
  458poe    c23 3328   2.415   4.591   1.840  0.4979  0.1394 -0.4778
  458poe     o2 3329   2.500   4.667   1.922 -0.6994  0.5234  0.4419
  458poe    c23 3330   2.440   4.782   1.977 -0.4922  0.6500  0.4048
  458poe    c23 3331   2.509   4.809   2.111  0.2789  0.2426  0.0941
  458poe     o2 3332   2.519   4.702   2.202 -0.0457  0.1233 -0.0138
  458poe    c23 3333   2.403   4.670   2.276 -0.1360  0.2350 -0.1076
  458poe    c23 3334   2.439   4.527   2.320 -0.4863  0.1147 -0.2076
  458poe     o2 3335   2.482   4.461   2.204  0.4440 -0.2540  0.3341
  458poe    c31 3336   2.484   4.325   2.243 -0.4391 -0.4539 -0.2717
  459poe    c31 3337   4.073   2.721   4.881  0.8105  0.6812  0.1254
  459poe     o2 3338   4.131   2.675   4.760  0.5137 -0.1800  0.3031
  459poe    c23 3339   4.054   2.570   4.706  1.0081 -0.1957 -0.3814
  459poe    c23 3340   4.099   2.518   4.569  0.1181 -0.4908 -0.5728
  459poe     o2 3341   4.234   2.485   4.594  0.3813  0.6405 -0.4592
  459poe    c23 3342   4.305   2.457   4.476  0.4400  0.2047 -0.3238
  459poe    c23 3343   4.447   2.503   4.513  0.5986 -0.2511 -0.3582
  459poe     o2 3344   4.422   2.627   4.577 -0.0107 -0.4516 -0.2035
  459poe    c23 3345   4.512   2.733   4.555 -0.6043  0.0758 -0.1258
  459poe    c23 3346   4.486   2.822   4.678 -0.3583 -0.3756  0.2603
  459poe     o2 3347   4.347   2.818   4.705 -0.4530 -1.0751 -0.3003
  459poe    c31 3348   4.297   2.949   4.691  0.4691 -0.6247  0.5026
  460poe    c31 3349   5.803   3.549   1.300 -0.6803 -0.6745  0.1482
  460poe     o2 3350   5.681   3.616   1.276 -0.2416  0.1393  0.1547
  460poe    c23 3351   5.698   3.739   1.208  0.0116  0.1329  0.2056
  460poe    c23 3352   5.571   3.767   1.125  0.1483 -0.0164 -0.0527
  460poe     o2 3353   5.477   3.756   1.229  0.3066  0.2495  0.1164
  460poe    c23 3354   5.343   3.767   1.188  0.1458 -0.3626  0.4706
  460poe    c23 3355   5.262   3.774   1.319 -0.5851 -0.1973  0.0167
  460poe     o2 3356   5.283   3.653   1.389  0.5381 -0.1232 -0.1681
  460poe    c23 3357   5.207   3.658   1.508  0.4191  0.0575 -0.2518
  460poe    c23 3358   5.241   3.539   1.599 -0.3989  0.0986  0.1167
  460poe     o2 3359   5.374   3.541   1.646 -0.4193 -0.1283  0.1845
  460poe    c31 3360   5.383   3.443   1.747 -0.4535 -0.4787 -0.1483
  461poe    c31 3361   0.030   1.617   5.439 -0.7869 -0.4909 -0.0473
  461poe     o2 3362   0.025   1.602   5.579 -0.0703 -0.1064  0.0268
  461poe    c23 3363   0.158   1.569   5.611 -0.0081  0.2866  0.1817
  461poe    c23 3364   0.154   1.582   5.764 -0.4939  0.5332  0.1481
  461poe     o2 3365   0.035   1.519   5.808 -0.2135 -0.1506 -0.0544
  461poe    c23 3366   0.014   1.552   5.943 -0.0068  0.3172 -0.1344
  461poe    c23 3367  -0.137   1.586   5.943 -0.1520 -0.3128 -0.6927
  461poe     o2 3368  -0.154   1.676   5.836 -0.1461  0.0429 -0.3964
  461poe    c23 3369  -0.277   1.744   5.829 -0.0890  0.1992  0.1137
  461poe    c23 3370  -0.291   1.762   5.677  0.8182  0.5767  0.0742
  461poe     o2 3371  -0.275   1.641   5.607 -0.4117  0.2331  0.3822
  461poe    c31 3372  -0.344   1.634   5.484  0.2847 -0.0565  0.0021
  462poe    c31 3373   4.795   3.253   0.002 -0.5300  0.1689  0.1936
  462poe     o2 3374   4.800   3.382  -0.054  0.0776 -0.1057 -0.4052
  462poe    c23 3375   4.937   3.414  -0.043 -0.0037  0.2115 -0.2960
  462poe    c23 3376   4.951   3.561  -0.088  0.0570  0.1556 -0.4603
  462poe     o2 3377   4.885   3.569  -0.212  0.1227 -0.3838 -0.5332
  462poe    c23 3378   4.888   3.698  -0.268 -0.1279 -0.0938  0.1081
  462poe    c23 3379   4.767   3.705  -0.363 -0.3483  0.7423  0.4420
  462poe     o2 3380   4.661   3.650  -0.289 -0.3323 -0.5877 -0.4933
  462poe    c23 3381   4.554   3.638  -0.380 -0.4943  0.4600 -0.4564
  462poe    c23 3382   4.534   3.485  -0.391  0.1375  0.3231  0.2280
  462poe     o2 3383   4.576   3.423  -0.271  0.1730  0.0436  0.0704
  462poe    c31 3384   4.568   3.282  -0.276 -0.1491  0.0603  0.1236
  463poe    c31 3385   0.369   3.200   6.050 -0.0964 -0.4130  0.6707
  463poe     o2 3386   0.385   3.108   6.156  0.5985 -0.4802  0.5107
  463poe    c23 3387   0.271   3.086   6.236  0.1298  0.6107  0.1703
  463poe    c23 3388   0.302   2.990   6.353 -0.6666  0.2663  0.1045
  463poe     o2 3389   0.429   3.019   6.407 -0.1594 -0.7432 -0.5027
  463poe    c23 3390   0.481   2.924   6.497  0.0925  0.2312  0.4075
  463poe    c23 3391   0.628   2.962   6.517  0.2937 -0.1238 -0.3606
  463poe     o2 3392   0.633   3.101   6.499 -0.1748 -0.1229 -0.4702
  463poe    c23 3393   0.754   3.173   6.498 -0.0095 -0.3867 -0.0000
  463poe    c23 3394   0.794   3.184   6.349 -0.5054  0.3156 -0.0895
  463poe     o2 3395   0.679   3.178   6.268 -0.3561 -0.2582 -0.2613
  463poe    c31 3396   0.717   3.172   6.132  0.9261 -0.1769  0.0847
  464poe    c31 3397   2.228   1.263   1.383  0.4853  0.5056  0.4119
  464poe     o2 3398   2.181   1.390   1.345  0.1589  0.2111 -0.1865
  464poe    c23 3399   2.059   1.382   1.276  0.1003  0.0707 -0.0668
  464poe    c23 3400   1.998   1.518   1.238 -0.2460  0.0447  0.3871
  464poe     o2 3401   2.022   1.602   1.348  0.6290  0.0170  0.2230
  464poe    c23 3402   2.012   1.736   1.306  0.4800 -0.1034 -0.1242
  464poe    c23 3403   2.034   1.833   1.423 -0.3335 -0.0481 -0.0121
  464poe     o2 3404   2.152   1.771   1.470 -0.0774  0.5097  0.0974
  464poe    c23 3405   2.176   1.809   1.603  0.0953  0.1847  0.1591
  464poe    c23 3406   2.298   1.723   1.642 -0.1210 -0.1259  0.1531
  464poe     o2 3407   2.278   1.600   1.576 -0.0099 -0.0017 -0.1131
  464poe    c31 3408   2.359   1.502   1.637  0.6585  0.5926 -0.0348
  465poe    c31 3409   0.689   5.315   3.653  0.0469 -0.0962  0.0259
  465poe     o2 3410   0.638   5.255   3.536 -0.2701  0.5687 -0.1771
  465poe    c23 3411   0.751   5.243   3.452 -0.4765 -0.1325 -0.3543
  465poe    c23 3412   0.726   5.142   3.338  0.2750  0.1351 -0.7618
  465poe     o2 3413   0.605   5.183   3.278 -0.2973  0.0904  0.3408
  465poe    c23 3414   0.540   5.088   3.196  0.1555 -0.0526  0.1447
  465poe    c23 3415   0.465   4.985   3.282 -0.2997 -0.1302 -0.3431
  465poe     o2 3416   0.404   5.051   3.391 -0.0276 -0.0692 -0.2285
  465poe    c23 3417   0.309   4.977   3.464  0.1118 -0.1004 -0.0755
  465poe    c23 3418   0.264   5.048   3.593 -0.0873 -0.2146 -0.0818
  465poe     o2 3419   0.368   5.120   3.653  0.2211 -0.7931  0.0888
  465poe    c31 3420   0.335   5.164   3.783 -0.1383 -0.3659 -0.1413
  466poe    c31 3421   6.630   4.309   2.874  0.2150 -0.3661 -0.3663
  466poe     o2 3422   6.504   4.368   2.852  0.3451  0.2150  0.4217
  466poe    c23 3423   6.416   4.299   2.938  0.6601 -0.0778  0.5095
  466poe    c23 3424   6.298   4.398   2.944  0.3613 -0.3731 -0.3474
  466poe     o2 3425   6.234   4.409   2.819  0.2260  0.3682 -0.2186
  466poe    c23 3426   6.178   4.536   2.794 -0.1675  0.1133 -0.6656
  466poe    c23 3427   6.224   4.602   2.663 -0.3412  0.7722 -0.3995
  466poe     o2 3428   6.363   4.582   2.659 -0.4052  0.0126  0.6738
  466poe    c23 3429   6.423   4.643   2.547 -0.3026 -0.5005  0.4484
  466poe    c23 3430   6.575   4.615   2.550 -0.2623 -0.4094 -0.4145
  466poe     o2 3431   6.585   4.480   2.591 -0.6729 -0.3474 -0.0942
  466poe    c31 3432   6.707   4.435   2.536 -0.0416  0.6187  0.4790
  467poe    c31 3433   5.514   2.086   0.730 -0.1662 -0.0065 -0.1258
  467poe     o2 3434   5.384   2.129   0.695 -0.2516  0.5052  0.7920
  467poe    c23 3435   5.382   2.178   0.563 -0.8925 -0.1307  0.5626
  467poe    c23 3436   5.289   2.087   0.480  0.3294 -0.2601 -0.6878
  467poe     o2 3437   5.182   2.081   0.571  0.5327  0.1955 -0.4163
  467poe    c23 3438   5.070   2.024   0.507  0.3284 -0.3165  0.3853
  467poe    c23 3439   4.953   2.034   0.607  0.1089 -0.1415  0.1119
  467poe     o2 3440   5.018   2.031   0.732  0.1888  0.6323  0.0913
  467poe    c23 3441   4.958   2.124   0.819 -0.7926 -0.2091  0.3275
  467poe    c23 3442   5.038   2.106   0.949  0.0164 -0.4599 -0.1981
  467poe     o2 3443   5.175   2.112   0.916 -0.0361  0.2524 -0.3127
  467poe    c31 3444   5.271   2.112   1.020  0.0649  0.3386 -0.4065
  468poe    c31 3445   6.705   5.329   0.019  0.0382  0.2597  0.5185
  468poe     o2 3446   6.800   5.226   0.030  0.0286  0.2620  0.6243
  468poe    c23 3447   6.890   5.248   0.137  0.2489  1.4809  0.2055
  468poe    c23 3448   7.018   5.166   0.111 -0.3921  0.5025  0.0728
  468poe     o2 3449   6.986   5.030   0.092 -0.2964  0.4816  0.0615
  468poe    c23 3450   7.087   4.951   0.033 -0.4063  0.3914 -0.0067
  468poe    c23 3451   7.035   4.837  -0.056  0.3809  0.4641 -0.5689
  468poe     o2 3452   6.928   4.909  -0.114 -0.4568  0.1358  0.5280
  468poe    c23 3453   6.834   4.821  -0.173 -0.6062  0.1110  0.8026
  468poe    c23 3454   6.734   4.925  -0.227 -0.2583  0.0165 -0.0364
  468poe     o2 3455   6.697   5.020  -0.130 -0.1239  0.6353 -0.5912
  468poe    c31 3456   6.572   5.066  -0.177 -0.4001  0.1154 -0.3709
  469poe    c31 3457   3.010   1.987   1.332  0.1479 -0.5578  0.6920
  469poe     o2 3458   3.133   1.946   1.277 -0.4257 -0.5649 -0.6515
  469poe    c23 3459   3.205   2.050   1.215  0.1076 -0.6862 -0.2506
  469poe    c23 3460   3.348   2.000   1.189  0.2873 -0.5784  0.5049
  469poe     o2 3461   3.354   1.913   1.078  0.4500  0.0670  0.0002
  469poe    c23 3462   3.477   1.845   1.078  0.3320 -0.1593  1.0850
  469poe    c23 3463   3.457   1.709   1.008 -0.3100  0.5103 -0.0511
  469poe     o2 3464   3.372   1.627   1.084  0.1228  0.0050 -0.1074
  469poe    c23 3465   3.426   1.501   1.117  0.0813  0.1002  0.3282
  469poe    c23 3466   3.335   1.429   1.219 -0.1443  0.2553  0.2367
  469poe     o2 3467   3.216   1.428   1.142 -0.1825 -0.0207  0.2980
  469poe    c31 3468   3.154   1.311   1.191  0.1029 -0.4380 -0.3298
  470poe    c31 3469   1.362   2.625   1.800 -0.0429 -0.6623  0.1357
  470poe     o2 3470   1.354   2.557   1.677 -0.2749 -0.1442 -0.1395
  470poe    c23 3471   1.324   2.627   1.558 -0.2244  0.1331  0.0105
  470poe    c23 3472   1.402   2.553   1.448  0.3006  0.4015  0.1988
  470poe     o2 3473   1.361   2.419   1.467  0.0640  0.4669  0.1511
  470poe    c23 3474   1.437   2.322   1.398  0.2612 -0.0503  1.0901
  470poe    c23 3475   1.382   2.181   1.426 -0.5491  0.0945  0.2860
  470poe     o2 3476   1.368   2.176   1.567 -0.2851 -0.7673  0.2897
  470poe    c23 3477   1.246   2.124   1.615 -0.3279 -0.8293  0.1147
  470poe    c23 3478   1.132   2.226   1.631  0.5157  0.2890 -0.8223
  470poe     o2 3479   1.179   2.335   1.707 -0.0912 -0.2077  0.2861
  470poe    c31 3480   1.071   2.422   1.735  0.1158 -0.1839  1.0362
  471poe    c31 3481   2.013   4.838   5.013 -0.0989 -0.1760  0.0796
  471poe     o2 3482   1.873   4.834   5.028 -0.1310 -0.7112 -0.3405
  471poe    c23 3483   1.842   4.718   5.102 -0.4092 -0.0029  0.6586
  471poe    c23 3484   1.694   4.677   5.101 -0.3699 -0.1311 -0.1128
  471poe     o2 3485   1.621   4.790   5.145 -0.4047 -0.3880  0.5041
  471poe    c23 3486   1.486   4.793   5.105 -0.1036 -0.6319 -0.5805
  471poe    c23 3487   1.473   4.841   4.959 -0.2270  0.5804 -0.1862
  471poe     o2 3488   1.562   4.950   4.968  0.8662 -0.2861 -0.2092
  471poe    c23 3489   1.547   5.049   4.869 -0.1215  0.3016  0.5022
  471poe    c23 3490   1.657   5.153   4.895  0.0394  0.2256  0.1329
  471poe     o2 3491   1.773   5.090   4.946  0.1030 -0.2020 -0.5273
  471poe    c31 3492   1.865   5.195   4.967  0.0135 -0.2774  0.2513
  472poe    c31 3493   6.085   5.606   6.548 -0.2319 -0.7220 -0.0955
  472poe     o2 3494   6.226   5.598   6.539 -0.2402 -1.0052  0.0049
  472poe    c23 3495   6.276   5.511   6.637 -0.1638 -0.2496  0.6428
  472poe    c23 3496   6.428   5.507   6.615 -0.2467  0.2812 -0.0255
  472poe     o2 3497   6.463   5.639   6.577 -0.0583  0.2326 -0.0230
  472poe    c23 3498   6.598   5.639   6.538  0.0002  0.2737  0.1774
  472poe    c23 3499   6.621   5.763   6.450 -0.2780  0.2143  0.0193
  472poe     o2 3500   6.508   5.763   6.367 -0.0760  0.4179 -0.2593
  472poe    c23 3501   6.502   5.867   6.271  0.1236  0.1045 -0.6127
  472poe    c23 3502   6.360   5.843   6.216  0.1565 -0.3829 -0.4914
  472poe     o2 3503   6.280   5.791   6.320  0.2710 -0.2912 -0.3555
  472poe    c31 3504   6.151   5.782   6.264  0.0473 -0.3484  0.1625
  473poe    c31 3505   4.641   3.963   1.942 -0.2486  0.3083 -0.0134
  473poe     o2 3506   4.662   3.903   2.067  0.2893 -0.0797 -0.2877
  473poe    c23 3507   4.583   3.787   2.078 -0.0352  0.1620 -0.0642
  473poe    c23 3508   4.622   3.715   2.209  0.5827  0.0819 -0.2888
  473poe     o2 3509   4.762   3.715   2.217  0.5630  0.1528  0.0685
  473poe    c23 3510   4.802   3.666   2.343 -0.1002 -0.8370 -0.0989
  473poe    c23 3511   4.947   3.713   2.367 -0.4805  0.2515  0.1282
  473poe     o2 3512   4.986   3.833   2.305  0.3772 -0.3044 -0.4279
  473poe    c23 3513   5.120   3.862   2.340  0.2751  0.2128 -0.4533
  473poe    c23 3514   5.150   4.009   2.374  0.3146 -0.0535  0.7054
  473poe     o2 3515   5.064   4.052   2.478  0.1191 -0.3571  0.6722
  473poe    c31 3516   5.116   4.177   2.517 -0.2505  0.0565 -0.1217
  474poe    c31 3517   4.454   3.791   4.161 -0.2659 -0.3534  0.1868
  474poe     o2 3518   4.342   3.752   4.236 -0.2031  0.2174  0.5798
  474poe    c23 3519   4.305   3.622   4.199  0.6596 -0.0541  0.6544
  474poe    c23 3520   4.197   3.559   4.289  1.0534 -0.7317  0.6621
  474poe     o2 3521   4.237   3.588   4.421  0.9186  0.2248  0.5043
  474poe    c23 3522   4.132   3.590   4.515  0.1955  0.5436 -0.2950
  474poe    c23 3523   4.117   3.726   4.586 -0.3253  0.3535 -0.0359
  474poe     o2 3524   4.147   3.827   4.492  0.0858  0.1252 -0.1560
  474poe    c23 3525   4.118   3.958   4.537  0.0944  0.1475 -0.2154
  474poe    c23 3526   4.130   4.062   4.424  0.0800  0.6340  0.2241
  474poe     o2 3527   4.265   4.065   4.383  0.0481 -0.0926  0.0449
  474poe    c31 3528   4.284   4.152   4.274 -0.7038  0.0921  0.0584
  475poe    c31 3529   6.692   5.020   1.016  0.1469 -0.4431 -0.0676
  475poe     o2 3530   6.685   5.152   1.063  0.2853 -0.3232 -0.3847
  475poe    c23 3531   6.801   5.221   1.020  0.1534  0.2869  0.2283
  475poe    c23 3532   6.793   5.372   1.049  0.2446  0.2574  0.4054
  475poe     o2 3533   6.664   5.417   1.013  0.5381  0.4034 -0.4831
  475poe    c23 3534   6.633   5.550   1.045  0.2436  0.2619 -0.1672
  475poe    c23 3535   6.492   5.571   0.987  0.3156 -0.1716 -0.5051
  475poe     o2 3536   6.403   5.465   1.010 -0.3822  0.5405  0.1421
  475poe    c23 3537   6.270   5.484   0.968 -0.4140  0.2278  0.0983
  475poe    c23 3538   6.179   5.362   0.992 -0.2246  0.0605 -0.0262
  475poe     o2 3539   6.225   5.260   0.908 -0.2087 -0.1917  0.2860
  475poe    c31 3540   6.142   5.149   0.932 -0.1196 -0.2188  0.4676
  476poe    c31 3541   5.435   5.083   2.049  0.1333  0.4442  0.2218
  476poe     o2 3542   5.562   5.078   1.987  0.0367  0.0869  0.0531
  476poe    c23 3543   5.552   5.106   1.849  0.2374  0.8625  0.1912
  476poe    c23 3544   5.687   5.101   1.776  0.2188 -0.2557  0.2172
  476poe     o2 3545   5.801   5.152   1.842  0.3738 -0.8801  0.4391
  476poe    c23 3546   5.921   5.096   1.793  0.6139  0.0519 -0.0660
  476poe    c23 3547   6.038   5.184   1.842  0.8004 -0.2144 -0.0310
  476poe     o2 3548   6.042   5.169   1.982 -0.1320 -0.1825  0.0063
  476poe    c23 3549   6.153   5.225   2.048 -0.0260 -0.2904 -0.0790
  476poe    c23 3550   6.124   5.216   2.199 -0.2604  0.6492 -0.0585
  476poe     o2 3551   5.991   5.260   2.217 -0.3547  0.2269  0.2950
  476poe    c31 3552   5.963   5.268   2.355  0.2809  0.2264  0.4289
  477poe    c31 3553   1.785   0.188   3.511  0.2646 -0.5590  0.2891
  477poe     o2 3554   1.874   0.288   3.467 -0.2553 -0.0731  0.3400
  477poe    c23 3555   1.833   0.349   3.346 -0.0719  0.0753  0.3527
  477poe    c23 3556   1.929   0.459   3.298  0.1750 -0.2913 -0.0021
  477poe     o2 3557   2.056   0.407   3.265  0.2389 -0.0015 -0.2160
  477poe    c23 3558   2.139   0.512   3.220  0.0313  0.0171 -0.5570
  477poe    c23 3559   2.254   0.439   3.147  0.0977 -0.4331 -0.0092
  477poe     o2 3560   2.324   0.352   3.234  0.3439  0.0590  0.2940
  477poe    c23 3561   2.409   0.258   3.171  0.0281 -0.2998  0.4022
  477poe    c23 3562   2.456   0.147   3.266 -0.1452 -0.1437  0.6731
  477poe     o2 3563   2.339   0.110   3.337 -0.2099  0.3989  0.8495
  477poe    c31 3564   2.380  -0.000   3.414 -0.4339 -0.4275 -0.1898
  478poe    c31 3565   6.477   0.589   1.702 -1.3201  0.2298  0.2133
  478poe     o2 3566   6.450   0.468   1.768  0.1557 -0.5622 -0.5727
  478poe    c23 3567   6.481   0.485   1.905  0.5693 -0.4030 -0.6843
  478poe    c23 3568   6.497   0.346   1.969  0.4960  0.0935  0.4301
  478poe     o2 3569   6.385   0.277   1.920  0.8272 -0.2038  0.0904
  478poe    c23 3570   6.373   0.156   1.992  0.0295 -0.3293 -0.2386
  478poe    c23 3571   6.259   0.084   1.918  0.2299 -0.6792 -0.2079
  478poe     o2 3572   6.265   0.090   1.777 -0.2227  0.3681 -0.1963
  478poe    c23 3573   6.131   0.097   1.736 -0.5066  0.2438  0.6897
  478poe    c23 3574   6.153   0.180   1.608  0.2661 -0.1620  0.5520
  478poe     o2 3575   6.219   0.299   1.644 -0.1270  0.2723 -0.1534
  478poe    c31 3576   6.228   0.386   1.532 -0.4136  0.5404  0.0303
  479poe    c31 3577   0.090   2.409   2.123  0.1384  0.6604  0.0577
  479poe     o2 3578   0.217   2.410   2.062  0.0893 -0.3761 -0.0639
  479poe    c23 3579   0.301   2.399   2.175  0.2861 -0.2954 -0.2015
  479poe    c23 3580   0.406   2.507   2.148  0.3880 -0.3878 -0.1756
  479poe     o2 3581   0.448   2.489   2.015  0.7161  0.5205 -0.2049
  479poe    c23 3582   0.537   2.585   1.961  0.9667  0.2807 -0.2258
  479poe    c23 3583   0.562   2.537   1.817  0.6197  0.3662 -0.3155
  479poe     o2 3584   0.432   2.518   1.764  0.6720 -0.4101 -0.1673
  479poe    c23 3585   0.432   2.427   1.656  0.4103 -0.1906 -0.3515
  479poe    c23 3586   0.315   2.330   1.683  0.1634  0.1382 -0.2282
  479poe     o2 3587   0.322   2.292   1.819  0.2064  0.0221 -0.2625
  479poe    c31 3588   0.253   2.171   1.840 -0.0440  0.2464  0.2280
  480poe    c31 3589   1.339   3.683   5.626  0.0344  0.1950 -0.3450
  480poe     o2 3590   1.335   3.585   5.727 -0.2261  0.6099  0.0504
  480poe    c23 3591   1.379   3.649   5.844 -0.4159  0.3342  0.2730
  480poe    c23 3592   1.419   3.554   5.959  0.4124  0.1793 -0.1408
  480poe     o2 3593   1.527   3.472   5.921  0.1798 -0.1508 -0.0921
  480poe    c23 3594   1.583   3.411   6.036 -0.3935 -0.2073  0.1598
  480poe    c23 3595   1.676   3.301   5.983  0.0315  0.0674  0.3354
  480poe     o2 3596   1.761   3.350   5.881  0.0277 -0.2927  0.1555
  480poe    c23 3597   1.881   3.280   5.857  0.2125  0.3340 -0.8027
  480poe    c23 3598   1.939   3.350   5.733 -0.1848  1.0021 -0.6167
  480poe     o2 3599   1.829   3.357   5.646 -0.6883 -0.0006 -0.0746
  480poe    c31 3600   1.866   3.385   5.513  0.7707 -0.7413  0.1556
  481poe    c31 3601   4.800   1.633   1.353  0.3494 -0.1741 -0.8179
  481poe     o2 3602   4.691   1.587   1.276 -0.0987 -0.0465 -0.2625
  481poe    c23 3603   4.754   1.566   1.152 -0.1706 -0.4585 -0.2324
  481poe    c23 3604   4.663   1.486   1.057 -0.1243 -0.7541 -0.0296
  481poe     o2 3605   4.546   1.559   1.085  0.2892  0.1975 -0.7008
  481poe    c23 3606   4.438   1.500   1.016 -0.2191 -0.2331  0.4278
  481poe    c23 3607   4.324   1.483   1.117 -0.4762 -0.2131  0.1441
  481poe     o2 3608   4.350   1.576   1.221  0.0485 -0.3011  0.0893
  481poe    c23 3609   4.264   1.584   1.332 -0.1734  0.2868 -0.1236
  481poe    c23 3610   4.360   1.632   1.443  0.2847 -0.6298 -0.1136
  481poe     o2 3611   4.463   1.712   1.389 -0.1273 -0.4002 -0.5680
  481poe    c31 3612   4.512   1.809   1.480 -0.2775 -1.0299  0.1932
  482poe    c31 3613   4.414   6.357   1.906 -0.0087  0.8043  0.1975
  482poe     o2 3614   4.377   6.433   1.793  0.2232  0.3093 -0.2142
  482poe    c23 3615   4.339   6.564   1.828  0.3657  0.1961  0.3750
  482poe    c23 3616   4.368   6.673   1.723 -0.0618  0.0221  0.0750
  482poe     o2 3617   4.296   6.642   1.606 -0.7022  0.5803  0.3178
  482poe    c23 3618   4.286   6.758   1.526 -0.1331  0.4311  0.0284
  482poe    c23 3619   4.188   6.733   1.411  0.1227  0.2198 -0.1451
  482poe     o2 3620   4.207   6.599   1.372 -0.1039  0.1785 -0.1135
  482poe    c23 3621   4.104   6.559   1.283 -0.2229 -0.2999  0.2341
  482poe    c23 3622   4.126   6.408   1.264 -0.3676 -0.3112  0.1572
  482poe     o2 3623   4.120   6.345   1.390  0.0399 -0.2561  0.2040
  482poe    c31 3624   4.091   6.208   1.380  0.5928 -0.3602 -0.0147
  483poe    c31 3625   4.943   1.161   2.043 -0.0988 -0.0502 -0.1996
  483poe     o2 3626   4.951   1.283   2.115  0.3392  0.0707 -0.4516
  483poe    c23 3627   4.885   1.266   2.238 -0.0967  0.1363 -0.6755
  483poe    c23 3628   4.840   1.389   2.318  0.6636  0.0041 -0.0334
  483poe     o2 3629   4.754   1.465   2.235  0.0904  0.0624  0.6043
  483poe    c23 3630   4.794   1.600   2.225  0.3901 -0.0562  0.1441
  483poe    c23 3631   4.933   1.629   2.166  0.3388 -0.9595 -0.4399
  483poe     o2 3632   4.980   1.585   2.041  0.2209 -0.3594 -0.6997
  483poe    c23 3633   4.927   1.661   1.935 -0.9740 -0.3583 -0.1173
  483poe    c23 3634   4.952   1.586   1.803  0.2794  0.3757 -0.3180
  483poe     o2 3635   4.925   1.450   1.828 -0.3305  0.5876  0.2213
  483poe    c31 3636   4.869   1.385   1.716  0.3041  0.6897 -0.1614
  484poe    c31 3637   3.209   5.829   3.898  0.4826  0.3322 -0.2510
  484poe     o2 3638   3.232   5.705   3.834  0.8532 -0.0615  0.6320
  484poe    c23 3639   3.333   5.713   3.736  0.4985 -0.2707  0.2467
  484poe    c23 3640   3.270   5.719   3.596 -0.2604  0.0238  0.5971
  484poe     o2 3641   3.191   5.604   3.577 -0.2949 -0.0541  1.1887
  484poe    c23 3642   3.108   5.616   3.463  0.2437 -0.5623  0.7335
  484poe    c23 3643   2.961   5.590   3.503 -0.1557 -0.4531 -0.6048
  484poe     o2 3644   2.945   5.456   3.543  0.2508 -0.4143 -0.2963
  484poe    c23 3645   2.810   5.432   3.574  0.2138  0.0213 -0.1156
  484poe    c23 3646   2.794   5.301   3.653  0.2782  0.1247  0.0696
  484poe     o2 3647   2.905   5.295   3.739  0.4304 -0.3418 -0.1548
  484poe    c31 3648   2.887   5.196   3.838 -0.2913  0.3796  0.4471
  485poe    c31 3649   0.983   1.435   4.264 -0.0889  0.4092  0.5549
  485poe     o2 3650   0.894   1.331   4.295 -0.0432  0.1330 -0.2311
  485poe    c23 3651   0.921   1.222   4.209 -0.6262 -0.3227  0.1525
  485poe    c23 3652   0.813   1.114   4.228 -0.3871 -0.4803  0.6222
  485poe     o2 3653   0.694   1.189   4.229 -0.0780  0.0188  0.3783
  485poe    c23 3654   0.582   1.104   4.210  0.1650 -0.1911 -0.1191
  485poe    c23 3655   0.452   1.185   4.199  0.4601  0.3302  0.1496
  485poe     o2 3656   0.438   1.266   4.313 -0.2433  0.4389 -0.0069
  485poe    c23 3657   0.317   1.338   4.324 -0.4339  0.0817  0.2280
  485poe    c23 3658   0.322   1.422   4.453  0.1412 -0.3482  0.4940
  485poe     o2 3659   0.423   1.520   4.447 -0.0051 -0.2166  0.1421
  485poe    c31 3660   0.426   1.591   4.568  0.0919 -0.1607  0.1071
  486poe    c31 3661   2.544   3.726   2.510 -0.2890  0.1906 -0.0921
  486poe     o2 3662   2.466   3.610   2.491 -0.2588  0.1290  0.1486
  486poe    c23 3663   2.410   3.568   2.613  0.1919  0.3037  0.4208
  486poe    c23 3664   2.375   3.418   2.601  0.0323  0.3874 -0.2329
  486poe     o2 3665   2.300   3.389   2.486 -0.2519 -0.2782  0.1169
  486poe    c23 3666   2.160   3.397   2.492 -0.2738 -0.4285 -0.1560
  486poe    c23 3667   2.112   3.535   2.443  0.3858 -0.0481  0.2729
  486poe     o2 3668   2.190   3.568   2.330 -0.3256 -0.0521 -0.2200
  486poe    c23 3669   2.152   3.688   2.266 -0.5969 -0.2514 -0.4361
  486poe    c23 3670   2.255   3.690   2.151 -0.0265 -0.5145  0.0630
  486poe     o2 3671   2.380   3.645   2.199  0.2203 -0.2184 -0.3006
  486poe    c31 3672   2.467   3.677   2.093  0.4957 -0.0408 -0.0204
  487poe    c31 3673   5.981   5.963   3.341 -0.4597 -0.2968  0.8107
  487poe     o2 3674   6.041   6.089   3.355 -0.7952 -0.0911  0.4147
  487poe    c23 3675   6.053   6.119   3.492 -0.2401  0.5189  0.2401
  487poe    c23 3676   6.170   6.219   3.505  0.0125  0.1729  0.6569
  487poe     o2 3677   6.282   6.172   3.434 -0.2995  0.5974 -0.1304
  487poe    c23 3678   6.396   6.242   3.479  0.0710 -0.1960  0.1769
  487poe    c23 3679   6.512   6.184   3.395 -0.2212 -0.1532 -0.2580
  487poe     o2 3680   6.472   6.181   3.260  0.5567  0.1905 -0.4984
  487poe    c23 3681   6.576   6.130   3.179  0.7294 -0.1053 -0.0936
  487poe    c23 3682   6.545   6.110   3.029  0.0471  0.4644 -0.0322
  487poe     o2 3683   6.467   5.993   3.033  0.5635  0.1408  0.7298
  487poe    c31 3684   6.460   5.954   2.898 -0.2997  0.3057  0.7214
  488poe    c31 3685   0.485   1.265   2.705 -0.5211 -0.1073 -0.3848
  488poe     o2 3686   0.540   1.314   2.825  0.1036 -1.1611 -0.2269
  488poe    c23 3687   0.473   1.255   2.935  0.2026 -0.8306  0.0110
  488poe    c23 3688   0.530   1.283   3.075 -0.2643 -0.1866  0.0796
  488poe     o2 3689   0.657   1.223   3.093  0.1312  0.5745 -0.1453
  488poe    c23 3690   0.681   1.200   3.230  0.0643  0.7560 -0.1027
  488poe    c23 3691   0.831   1.197   3.264  0.0308  0.0491 -0.0099
  488poe     o2 3692   0.914   1.123   3.178 -0.0679  0.0908 -0.1408
  488poe    c23 3693   1.028   1.094   3.256 -0.4558 -0.1859  0.3233
  488poe    c23 3694   1.082   0.960   3.204  0.0564 -0.0495  0.4968
  488poe     o2 3695   1.076   0.963   3.063  0.0213  0.0250  0.4993
  488poe    c31 3696   1.194   0.915   3.001  0.5182  0.4531  1.1004
  489poe    c31 3697   1.848   2.850   4.735  0.4783 -0.4281 -0.5992
  489poe     o2 3698   1.948   2.918   4.808  0.1435 -0.2049 -0.3412
  489poe    c23 3699   2.079   2.905   4.757  0.2566 -0.3862 -0.0029
  489poe    c23 3700   2.166   2.997   4.845 -0.1902  0.4118 -0.3811
  489poe     o2 3701   2.151   2.957   4.980 -0.2671  0.2441 -0.4390
  489poe    c23 3702   2.247   3.034   5.049  0.2635 -0.4692 -0.3601
  489poe    c23 3703   2.238   2.983   5.194 -0.1945  0.0012 -0.2194
  489poe     o2 3704   2.099   2.985   5.216 -0.1428  0.3780  0.0968
  489poe    c23 3705   2.064   3.020   5.348 -0.2145 -0.8274  0.4090
  489poe    c23 3706   1.932   2.945   5.372 -0.5384 -0.2721  0.3797
  489poe     o2 3707   1.844   2.971   5.265 -0.2609 -0.4443  0.1079
  489poe    c31 3708   1.749   2.866   5.262 -0.7473 -0.0059  0.0500
  490poe    c31 3709   6.033   4.462   3.299 -0.7100  0.3253  0.4431
  490poe     o2 3710   6.033   4.352   3.389  0.5582 -0.0471  0.0058
  490poe    c23 3711   5.938   4.254   3.355 -0.3301  0.8521 -0.1547
  490poe    c23 3712   5.952   4.135   3.452  0.9007  0.3938 -0.8813
  490poe     o2 3713   5.962   4.207   3.573 -0.3773 -0.4342 -0.2682
  490poe    c23 3714   6.007   4.120   3.674 -0.1060 -0.2037 -0.1913
  490poe    c23 3715   5.999   4.201   3.805  0.4264 -0.4306 -0.0129
  490poe     o2 3716   6.076   4.317   3.781 -0.3431 -0.0047 -0.4575
  490poe    c23 3717   6.128   4.368   3.901 -0.3986  0.0381 -0.4519
  490poe    c23 3718   6.241   4.472   3.888 -0.3292  0.0408  0.1663
  490poe     o2 3719   6.170   4.573   3.819 -0.0251  0.1766  0.0518
  490poe    c31 3720   6.206   4.701   3.866  0.1898  0.1737 -0.1049
  491poe    c31 3721   0.505   6.003   5.507 -0.1939  0.0761  0.7743
  491poe     o2 3722   0.381   6.027   5.569 -0.1985 -0.0803  0.8259
  491poe    c23 3723   0.272   5.963   5.508 -0.0298  0.3950  0.0169
  491poe    c23 3724   0.152   5.979   5.603  0.0755  0.2316  0.1755
  491poe     o2 3725   0.156   5.904   5.723 -0.5104  0.8606  0.5968
  491poe    c23 3726   0.030   5.873   5.778 -0.4150 -0.5264  0.0630
  491poe    c23 3727   0.056   5.871   5.930 -0.1621 -0.2643  0.0241
  491poe     o2 3728   0.160   5.776   5.945  0.0252 -0.1305 -0.4105
  491poe    c23 3729   0.219   5.772   6.073 -0.2676  0.3118 -0.2596
  491poe    c23 3730   0.351   5.697   6.055 -0.1916  0.5378 -0.6602
  491poe     o2 3731   0.428   5.749   5.949 -0.2057  0.1888 -0.8431
  491poe    c31 3732   0.558   5.695   5.933 -0.2754 -0.1642 -0.2524
  492poe    c31 3733   1.670   5.991   1.220  0.3528 -0.1487  0.1629
  492poe     o2 3734   1.600   5.931   1.113 -0.5733  0.8368  0.2046
  492poe    c23 3735   1.518   5.827   1.161 -0.7584  0.8805 -0.0145
  492poe    c23 3736   1.467   5.757   1.033 -0.4948 -0.0521  0.3833
  492poe     o2 3737   1.455   5.859   0.936  0.0243 -0.2528  0.1052
  492poe    c23 3738   1.378   5.823   0.824  0.4784 -0.2861 -0.1993
  492poe    c23 3739   1.341   5.946   0.739  0.1117 -0.4102 -0.2244
  492poe     o2 3740   1.456   6.003   0.680  0.0227  0.4729  0.4227
  492poe    c23 3741   1.423   6.115   0.602  0.2670 -0.0650 -0.4709
  492poe    c23 3742   1.536   6.219   0.585  0.0342  0.2070 -0.3715
  492poe     o2 3743   1.556   6.295   0.702  0.5868 -0.4843 -0.0147
  492poe    c31 3744   1.668   6.379   0.689  0.1299  0.0518 -0.5393
  493poe    c31 3745   0.460   3.951   1.710 -0.1957  0.2014  0.2671
  493poe     o2 3746   0.596   3.942   1.748 -0.0777  0.2510 -0.1308
  493poe    c23 3747   0.663   3.843   1.673 -0.3885  0.0203 -0.1067
  493poe    c23 3748   0.809   3.858   1.718 -0.4544 -0.2449  0.1974
  493poe     o2 3749   0.835   3.996   1.724 -0.1725 -0.2542 -0.6623
  493poe    c23 3750   0.967   4.009   1.770 -0.3753 -0.1246 -0.1075
  493poe    c23 3751   1.034   4.144   1.737 -0.6556 -0.0350 -0.3052
  493poe     o2 3752   0.991   4.233   1.838  0.5228 -0.2336  0.3917
  493poe    c23 3753   1.031   4.364   1.806 -0.4531 -0.0626 -0.1762
  493poe    c23 3754   1.004   4.468   1.916  0.2974 -0.8283  0.7488
  493poe     o2 3755   0.867   4.498   1.933  0.3332 -0.1901 -0.0435
  493poe    c31 3756   0.855   4.606   2.023 -0.4349 -0.0650 -0.2839
  494poe    c31 3757   2.940   2.825   1.769  0.2726  0.4911  0.1277
  494poe     o2 3758   2.812   2.767   1.776  0.0943  0.8084 -0.4668
  494poe    c23 3759   2.803   2.656   1.688  0.3523  0.1090  0.3750
  494poe    c23 3760   2.673   2.582   1.726  0.3142 -0.0984 -0.1543
  494poe     o2 3761   2.575   2.676   1.764  0.4986  0.0248  0.0166
  494poe    c23 3762   2.454   2.626   1.816  0.7439 -0.7929 -0.1816
  494poe    c23 3763   2.465   2.646   1.968 -0.7624  0.7328 -0.2481
  494poe     o2 3764   2.540   2.765   1.981  0.0207  0.2155  0.0628
  494poe    c23 3765   2.546   2.787   2.121  0.1007  0.0586  0.0831
  494poe    c23 3766   2.653   2.897   2.133  0.0395  0.1180  0.0872
  494poe     o2 3767   2.755   2.850   2.047 -0.0870 -0.1037  0.0569
  494poe    c31 3768   2.884   2.889   2.087 -0.1153  0.1360 -0.0803
  495poe    c31 3769   5.634   3.907   6.005  0.3592 -0.4055 -0.6641
  495poe     o2 3770   5.511   3.863   5.951  0.4948 -0.5491 -0.8591
  495poe    c23 3771   5.452   3.971   5.883  0.1768 -0.3376 -0.2510
  495poe    c23 3772   5.316   3.913   5.840 -0.2818  0.8042 -0.3804
  495poe     o2 3773   5.343   3.787   5.784  0.0794  0.5873  0.2711
  495poe    c23 3774   5.226   3.720   5.743  0.0529  0.6500  0.2445
  495poe    c23 3775   5.263   3.572   5.721 -0.2454  0.6747 -0.4598
  495poe     o2 3776   5.354   3.527   5.819 -0.2869 -0.2112 -0.8192
  495poe    c23 3777   5.301   3.472   5.938  0.4314  0.8150 -0.0091
  495poe    c23 3778   5.351   3.520   6.076 -0.0900 -0.1305  0.5183
  495poe     o2 3779   5.371   3.660   6.081 -0.4984 -0.0591  0.2457
  495poe    c31 3780   5.371   3.723   6.207 -0.9551  0.7131 -0.1336
  496poe    c31 3781   2.982   4.319   1.018 -0.4051 -0.8247  0.1507
  496poe     o2 3782   2.880   4.357   0.928 -0.0759  0.4622  0.2978
  496poe    c23 3783   2.856   4.261   0.828  0.5045  0.8827 -0.2507
  496poe    c23 3784   2.714   4.252   0.768  0.6792 -0.1462 -0.5348
  496poe     o2 3785   2.711   4.362   0.680  0.0923  0.1741 -0.1166
  496poe    c23 3786   2.579   4.414   0.680 -0.2127 -0.5893 -0.1882
  496poe    c23 3787   2.555   4.509   0.561  0.2450 -0.2272  0.0054
  496poe     o2 3788   2.660   4.602   0.576 -0.3306  0.3236  0.6702
  496poe    c23 3789   2.656   4.694   0.470  0.2700 -0.1951  0.1882
  496poe    c23 3790   2.768   4.795   0.503 -0.0040  0.2083 -0.0955
  496poe     o2 3791   2.889   4.724   0.520 -0.0615  0.1944  0.2639
  496poe    c31 3792   2.984   4.824   0.552  0.3280 -0.0176 -0.2165
  497poe    c31 3793   1.310   1.295   3.539 -0.1974 -0.0314 -0.0599
  497poe     o2 3794   1.336   1.338   3.671  0.4449 -0.1834 -0.1377
  497poe    c23 3795   1.363   1.476   3.667  0.3734 -0.1642  0.0316
  497poe    c23 3796   1.420   1.519   3.804  0.3048 -0.2163  0.0760
  497poe     o2 3797   1.346   1.451   3.903 -0.0606  0.0730  0.0049
  497poe    c23 3798   1.417   1.444   4.025  0.0988  0.3625 -0.0707
  497poe    c23 3799   1.352   1.352   4.129 -0.1485  0.3491 -0.2365
  497poe     o2 3800   1.304   1.242   4.055 -0.1498 -0.1078  0.4321
  497poe    c23 3801   1.373   1.119   4.069  0.0934  0.0672  0.7783
  497poe    c23 3802   1.314   1.031   3.958  0.7625 -0.2325  0.6610
  497poe     o2 3803   1.300   1.090   3.831 -0.2166 -0.3780  0.6952
  497poe    c31 3804   1.287   0.999   3.724  0.1422  0.0830  0.2548
  498poe    c31 3805   6.255   2.089   2.700 -0.0171  0.2615 -0.1101
  498poe     o2 3806   6.367   2.019   2.649  0.0523  0.7308 -0.6028
  498poe    c23 3807   6.372   1.882   2.682 -0.1587  0.6886 -0.7424
  498poe    c23 3808   6.508   1.832   2.628 -0.1375  0.4268 -0.4489
  498poe     o2 3809   6.603   1.935   2.642 -0.0480  0.3288 -0.3449
  498poe    c23 3810   6.695   1.924   2.536  0.0551  0.8339 -0.3094
  498poe    c23 3811   6.775   2.055   2.523  0.6322  0.4944 -0.2423
  498poe     o2 3812   6.672   2.152   2.528  0.3871  0.2384 -0.2923
  498poe    c23 3813   6.654   2.237   2.417 -1.0652 -0.0006 -0.2459
  498poe    c23 3814   6.536   2.333   2.443 -0.3003  1.0085 -0.4785
  498poe     o2 3815   6.412   2.268   2.458  0.1868  0.1101 -0.2224
  498poe    c31 3816   6.304   2.358   2.447  0.7030  0.6536 -1.0200
  499poe    c31 3817   1.567   4.782   0.006 -0.6511  0.5159 -0.0286
  499poe     o2 3818   1.653   4.752  -0.101 -0.2098  0.4214  0.3509
  499poe    c23 3819   1.790   4.777  -0.076 -0.0379 -0.1278 -0.0100
  499poe    c23 3820   1.868   4.704  -0.186 -0.1676  0.1673 -0.3008
  499poe     o2 3821   1.926   4.579  -0.155  0.0117  0.3479  0.0926
  499poe    c23 3822   1.834   4.479  -0.118  0.6405 -0.5111 -0.6327
  499poe    c23 3823   1.922   4.364  -0.064  0.4766 -0.3674 -0.0496
  499poe     o2 3824   2.025   4.343  -0.158 -0.1542 -0.2803 -0.7745
  499poe    c23 3825   2.090   4.218  -0.151  0.0991 -0.1204 -0.2390
  499poe    c23 3826   2.186   4.219  -0.271  0.3239 -0.3306 -0.0610
  499poe     o2 3827   2.259   4.337  -0.247 -0.1409 -0.1201  0.3390
  499poe    c31 3828   2.387   4.318  -0.305 -0.3222 -0.0433 -0.0895
  500poe    c31 3829   6.023   5.935   1.108 -0.3690 -0.2084  0.0383
  500poe     o2 3830   5.930   6.042   1.109 -0.2330 -0.0906  0.1040
  500poe    c23 3831   5.890   6.090   1.235 -0.5545 -0.8583  0.3023
  500poe    c23 3832   5.771   6.187   1.229  0.1865  0.0632  0.2370
  500poe     o2 3833   5.813   6.296   1.149 -0.0325 -0.6044 -0.8082
  500poe    c23 3834   5.706   6.386   1.130  0.2764 -0.1450 -0.4070
  500poe    c23 3835   5.780   6.490   1.045 -0.4531  0.4676 -0.3041
  500poe     o2 3836   5.872   6.440   0.951 -0.5195  0.3008 -0.2799
  500poe    c23 3837   5.922   6.536   0.861  0.0835  0.8062  0.5782
  500poe    c23 3838   6.053   6.492   0.792 -0.5885 -0.7106  0.2204
  500poe     o2 3839   6.165   6.459   0.871 -0.0863  0.3023 -0.0522
  500poe    c31 3840   6.283   6.436   0.798 -0.0956  0.1348 -0.0143
  501poe    c31 3841   6.647   0.122   4.522  0.3453  0.0895  0.2330
  501poe     o2 3842   6.753   0.214   4.514  0.3416  0.0876  0.1615
  501poe    c23 3843   6.751   0.257   4.380 -0.3872  0.1636  0.1972
  501poe    c23 3844   6.892   0.303   4.338 -0.2526 -0.3467  0.0819
  501poe     o2 3845   6.930   0.388   4.444 -0.1229 -0.2356 -0.0528
  501poe    c23 3846   7.055   0.451   4.433  0.4691 -1.2876  0.3968
  501poe    c23 3847   7.088   0.502   4.574  0.5194 -0.3056  0.0456
  501poe     o2 3848   7.024   0.401   4.650  0.4938 -0.4346 -0.1474
  501poe    c23 3849   7.040   0.422   4.788  0.3268 -0.8069 -0.0716
  501poe    c23 3850   6.955   0.306   4.844 -0.2686 -0.2004  0.2956
  501poe     o2 3851   6.836   0.297   4.770 -0.0436  0.4664 -0.1647
  501poe    c31 3852   6.734   0.233   4.844  0.5194 -0.2000  0.0486
  502poe    c31 3853   4.472   2.860   0.755 -0.5641  0.2018 -0.3394
  502poe     o2 3854   4.436   2.741   0.822  0.0596  0.2085  0.0146
  502poe    c23 3855   4.482   2.633   0.743 -0.4828 -0.0747  0.0823
  502poe    c23 3856   4.482   2.502   0.824  0.4811  0.2208  0.5746
  502poe     o2 3857   4.350   2.499   0.874  0.3590  0.2349  0.2563
  502poe    c23 3858   4.336   2.432   0.997 -0.0128 -0.2195 -0.0295
  502poe    c23 3859   4.211   2.488   1.069 -0.0603 -0.2140 -0.1156
  502poe     o2 3860   4.240   2.626   1.070  0.1002 -0.2477  0.4108
  502poe    c23 3861   4.132   2.705   1.114 -0.3199 -0.3618 -0.3967
  502poe    c23 3862   4.174   2.851   1.092 -0.3690 -0.3054 -0.1104
  502poe     o2 3863   4.230   2.874   0.965  0.2536  0.5441  0.3042
  502poe    c31 3864   4.200   3.009   0.934  0.2104  0.6393  0.7610
  503poe    c31 3865   2.595   0.114   6.104 -0.0788  0.2258 -0.2381
  503poe     o2 3866   2.662   0.105   5.981 -0.5952  0.3014 -0.5288
  503poe    c23 3867   2.772   0.016   5.984 -0.6477  0.2451 -0.2184
  503poe    c23 3868   2.843   0.040   5.850 -0.2054 -0.3077 -0.0850
  503poe     o2 3869   2.745   0.083   5.758 -0.6655 -0.2498  0.4276
  503poe    c23 3870   2.774   0.061   5.621 -0.2416 -0.0733  0.4852
  503poe    c23 3871   2.635   0.056   5.555  0.0599  0.3171 -0.1843
  503poe     o2 3872   2.567   0.159   5.624 -0.8468  0.3112 -1.0473
  503poe    c23 3873   2.429   0.148   5.595 -0.8615 -0.3081 -0.7562
  503poe    c23 3874   2.355   0.245   5.688  0.2672 -0.4400  0.3061
  503poe     o2 3875   2.407   0.233   5.819  0.1257  0.0078  0.4056
  503poe    c31 3876   2.334   0.304   5.916 -0.2377  0.5405 -0.2506
  504poe    c31 3877   1.158   1.791   2.947  0.2935  0.6156 -0.0788
  504poe     o2 3878   1.251   1.897   2.948  0.0609  0.8243 -0.3367
  504poe    c23 3879   1.234   1.953   3.076 -0.0942  0.3551 -0.1495
  504poe    c23 3880   1.332   2.071   3.094 -0.0373  0.2657  0.1291
  504poe     o2 3881   1.466   2.038   3.067 -0.0857 -0.4018  0.6744
  504poe    c23 3882   1.550   2.141   3.114  0.0951  0.0461 -0.5891
  504poe    c23 3883   1.697   2.101   3.090  0.0102 -0.3826 -0.4165
  504poe     o2 3884   1.708   2.010   2.983  0.1433 -0.4939 -0.3090
  504poe    c23 3885   1.843   1.986   2.954  0.1158 -0.9360 -0.0800
  504poe    c23 3886   1.850   1.914   2.818 -0.2031 -0.8484 -0.1427
  504poe     o2 3887   1.757   1.957   2.721  0.1186  0.3851  0.0836
  504poe    c31 3888   1.813   2.044   2.625 -0.1339 -0.2932 -0.6890
  505poe    c31 3889   6.668   6.693   5.191  0.0709  0.2789 -0.0145
  505poe     o2 3890   6.601   6.715   5.313 -0.2396 -0.2722 -0.0852
  505poe    c23 3891   6.473   6.655   5.313 -0.1700 -0.4212 -0.0872
  505poe    c23 3892   6.396   6.698   5.439 -0.1040 -0.2917 -0.0909
  505poe     o2 3893   6.397   6.838   5.459 -0.0386 -0.3358  0.2155
  505poe    c23 3894   6.343   6.882   5.582 -0.5196  0.3142 -0.2243
  505poe    c23 3895   6.372   7.030   5.611  0.1897  0.1902 -0.2801
  505poe     o2 3896   6.511   7.050   5.594  0.1297  0.0028 -1.0292
  505poe    c23 3897   6.541   7.187   5.574  0.0059  0.0854 -0.6583
  505poe    c23 3898   6.671   7.182   5.490  0.1920 -0.1530 -0.3583
  505poe     o2 3899   6.630   7.102   5.381  0.6367 -0.5439 -0.2405
  505poe    c31 3900   6.719   7.111   5.272 -0.1909  0.2376 -0.8599
  506poe    c31 3901   3.556   2.768   2.594 -0.2649  0.1725  0.0636
  506poe     o2 3902   3.590   2.830   2.716  0.0051 -0.0189  0.0838
  506poe    c23 3903   3.701   2.772   2.783  0.2488  0.0524 -0.2552
  506poe    c23 3904   3.731   2.853   2.911  0.1256  0.2064 -0.3231
  506poe     o2 3905   3.735   2.993   2.922  0.1669  0.1724  0.0937
  506poe    c23 3906   3.838   3.051   2.845 -0.0033 -0.2718 -0.4708
  506poe    c23 3907   3.822   3.204   2.845 -0.3365 -0.3063  0.2622
  506poe     o2 3908   3.686   3.236   2.822 -0.3091 -0.3436  0.0542
  506poe    c23 3909   3.668   3.376   2.817 -0.3400 -0.3261  0.6789
  506poe    c23 3910   3.520   3.394   2.779 -0.1443  0.1758  0.1454
  506poe     o2 3911   3.454   3.310   2.871 -0.1798 -0.1036 -0.1342
  506poe    c31 3912   3.321   3.357   2.875  0.0239  0.4512  0.1544
  507poe    c31 3913   0.198   4.684   4.839  0.1663  0.6569  0.0395
  507poe     o2 3914   0.309   4.682   4.752  0.2994 -0.5219  0.2192
  507poe    c23 3915   0.403   4.784   4.776  0.2730 -0.4489  0.0209
  507poe    c23 3916   0.520   4.781   4.676  0.3495  0.0669  0.0944
  507poe     o2 3917   0.588   4.658   4.680  0.0146 -0.1169  0.1157
  507poe    c23 3918   0.675   4.640   4.570 -0.2850  0.1680 -0.1712
  507poe    c23 3919   0.674   4.487   4.553 -0.0062 -0.0128  1.2949
  507poe     o2 3920   0.541   4.450   4.580 -0.2794 -0.4091 -0.5009
  507poe    c23 3921   0.504   4.329   4.517  0.1221 -0.8717  0.1442
  507poe    c23 3922   0.379   4.293   4.600 -0.1240 -0.1046  0.1122
  507poe     o2 3923   0.310   4.414   4.623 -0.0260  0.0169 -0.2232
  507poe    c31 3924   0.175   4.393   4.658  0.0301 -0.1390 -0.0977
  508poe    c31 3925   3.740   4.532   6.159 -0.0695 -0.3640  0.1573
  508poe     o2 3926   3.625   4.453   6.180 -0.2535 -0.0082  0.5104
  508poe    c23 3927   3.531   4.506   6.270 -0.2660  0.5340  0.1790
  508poe    c23 3928   3.408   4.413   6.277  0.0659  0.0508 -0.3398
  508poe     o2 3929   3.351   4.376   6.154  0.4365 -0.1410 -0.4563
  508poe    c23 3930   3.286   4.481   6.086  0.0576 -0.0309  0.0735
  508poe    c23 3931   3.216   4.429   5.959  0.3369  0.2515 -0.1938
  508poe     o2 3932   3.320   4.375   5.880  0.0554  0.1661 -0.5064
  508poe    c23 3933   3.310   4.417   5.745 -0.0061 -0.0941 -0.5835
  508poe    c23 3934   3.459   4.422   5.707  0.0803 -0.1238 -0.2583
  508poe     o2 3935   3.534   4.310   5.749 -0.0120  0.0187  0.2847
  508poe    c31 3936   3.673   4.320   5.729  0.0874 -0.0442  0.9055
  509poe    c31 3937   4.192   3.145   6.789 -0.0308  0.1789  0.3388
  509poe     o2 3938   4.115   3.133   6.671  0.0919  0.1474  0.2620
  509poe    c23 3939   4.074   3.257   6.618  0.5780  0.3082  0.2590
  509poe    c23 3940   3.991   3.248   6.489  0.3091  0.2027  0.4383
  509poe     o2 3941   3.878   3.165   6.499 -0.1327  0.7250 -0.1229
  509poe    c23 3942   3.844   3.092   6.383 -0.2468 -0.0398  0.3803
  509poe    c23 3943   3.953   2.992   6.341 -0.1248  0.0522  0.4782
  509poe     o2 3944   3.996   2.930   6.461  0.5136  0.0580  0.2601
  509poe    c23 3945   4.107   2.845   6.443  0.2555 -0.2740  0.2261
  509poe    c23 3946   4.121   2.761   6.572 -1.0619 -0.3037  0.3633
  509poe     o2 3947   4.134   2.847   6.683  0.4097  0.0064 -0.0277
  509poe    c31 3948   4.172   2.763   6.790 -0.1665 -0.0402  0.1424
  510poe    c31 3949   0.689   5.641   2.095  0.0314  0.0206 -0.1040
  510poe     o2 3950   0.638   5.645   1.964 -0.6705  0.2450  0.1694
  510poe    c23 3951   0.750   5.621   1.881 -0.5637  0.4088  0.2651
  510poe    c23 3952   0.709   5.688   1.749 -0.9307 -0.2957  0.0196
  510poe     o2 3953   0.589   5.628   1.703 -0.8032 -0.2817 -0.3361
  510poe    c23 3954   0.540   5.712   1.601 -0.2004 -0.3531 -0.6919
  510poe    c23 3955   0.388   5.684   1.602 -0.3096  0.2151  0.3743
  510poe     o2 3956   0.342   5.690   1.735 -0.5087 -0.5115  0.3440
  510poe    c23 3957   0.312   5.823   1.774  0.0755 -0.2733 -0.0138
  510poe    c23 3958   0.295   5.826   1.927  0.5002 -0.0500  0.0320
  510poe     o2 3959   0.388   5.731   1.975  0.9070  0.2246 -0.2053
  510poe    c31 3960   0.362   5.722   2.113  0.2962 -0.1143 -0.3354
  511poe    c31 3961   3.179   3.550   3.138 -0.1011  0.0389  0.5002
  511poe     o2 3962   3.067   3.464   3.136 -0.2033  0.1820  0.0184
  511poe    c23 3963   3.043   3.396   3.257 -0.4632  0.2482  0.0037
  511poe    c23 3964   2.974   3.263   3.222 -0.0852 -0.0107  0.2473
  511poe     o2 3965   2.854   3.305   3.163 -0.2094 -0.2525  0.3244
  511poe    c23 3966   2.796   3.205   3.083 -0.1291  0.2805 -0.4163
  511poe    c23 3967   2.747   3.275   2.955 -0.5830  0.0748 -0.3565
  511poe     o2 3968   2.840   3.373   2.914  0.0593 -0.3798 -0.0054
  511poe    c23 3969   2.798   3.452   2.805  0.1326 -0.0420  0.2103
  511poe    c23 3970   2.912   3.550   2.771  0.0955  0.0079  0.2301
  511poe     o2 3971   2.933   3.632   2.884  0.2851 -0.2252  0.3649
  511poe    c31 3972   2.977   3.760   2.843 -0.5913 -0.0580 -0.0714
  512poe    c31 3973   3.420   4.950   0.758 -0.5867 -0.8939 -0.1302
  512poe     o2 3974   3.401   4.903   0.627 -0.2688 -0.2355 -0.4146
  512poe    c23 3975   3.394   4.762   0.618  0.3538 -0.3000  0.0376
  512poe    c23 3976   3.366   4.715   0.474  0.0029  0.3615 -0.1169
  512poe     o2 3977   3.490   4.717   0.406 -0.1243  0.1484 -0.3547
  512poe    c23 3978   3.485   4.605   0.320 -0.1332 -0.5982  0.6094
  512poe    c23 3979   3.623   4.567   0.262 -0.7121 -0.4617 -0.8998
  512poe     o2 3980   3.678   4.692   0.230 -0.1428 -0.5084 -0.1463
  512poe    c23 3981   3.791   4.667   0.149 -0.4420  0.0454 -0.7509
  512poe    c23 3982   3.828   4.792   0.068  0.6458  0.2225 -0.0013
  512poe     o2 3983   3.806   4.914   0.136 -0.6773 -0.0979  0.1644
  512poe    c31 3984   3.872   5.025   0.082 -0.5261 -0.0916  0.3643
  513poe    c31 3985   0.990   5.144   6.368 -0.1915  0.3749 -0.0716
  513poe     o2 3986   0.901   5.182   6.265  0.1573  0.1849 -0.4469
  513poe    c23 3987   0.791   5.261   6.305 -0.2560 -0.4219 -0.3625
  513poe    c23 3988   0.739   5.324   6.174  0.1373  0.2073 -0.2224
  513poe     o2 3989   0.701   5.233   6.073  0.6270 -0.5619  0.2755
  513poe    c23 3990   0.665   5.305   5.958 -0.2733 -0.4256  0.6361
  513poe    c23 3991   0.588   5.221   5.854  0.1252  0.1295 -0.1212
  513poe     o2 3992   0.647   5.095   5.830  0.3853  0.1745  0.2778
  513poe    c23 3993   0.606   5.018   5.720  0.2163  0.3594  0.2111
  513poe    c23 3994   0.695   4.892   5.715 -0.2621  0.0201  0.1959
  513poe     o2 3995   0.721   4.848   5.846 -0.1863  0.0797  0.2011
  513poe    c31 3996   0.791   4.726   5.853  0.0991  0.2313 -0.0281
  514poe    c31 3997   4.255   1.961   4.981  0.1205  0.1833  0.3703
  514poe     o2 3998   4.176   2.019   5.082 -0.1818  0.0198  0.2309
  514poe    c23 3999   4.261   2.115   5.142  0.4858 -0.3094 -0.1814
  514poe    c23 4000   4.191   2.183   5.261  0.3199 -0.5563 -0.1371
  514poe     o2 4001   4.203   2.119   5.385  0.1431  0.3365  0.3476
  514poe    c23 4002   4.137   2.194   5.485 -0.2241  0.3192  0.1224
  514poe    c23 4003   4.215   2.174   5.617  0.5973  0.1445 -0.3814
  514poe     o2 4004   4.190   2.044   5.665  0.8623  0.2412  0.0188
  514poe    c23 4005   4.267   2.004   5.777 -0.1777 -0.2337  0.5803
  514poe    c23 4006   4.206   1.867   5.813 -0.6755 -0.1339  0.1340
  514poe     o2 4007   4.193   1.791   5.695  0.2539 -0.1966  0.0641
  514poe    c31 4008   4.121   1.672   5.717  0.3328 -0.2085  0.2631
  515poe    c31 4009   5.504   1.403   0.745 -0.4145  0.5368 -0.2410
  515poe     o2 4010   5.473   1.411   0.608 -0.1197  0.2455 -0.3274
  515poe    c23 4011   5.392   1.301   0.574  0.0318  0.1083 -0.2384
  515poe    c23 4012   5.271   1.362   0.502 -0.4739 -0.5942  0.0015
  515poe     o2 4013   5.309   1.457   0.406  0.0716 -0.0857  0.7114
  515poe    c23 4014   5.205   1.521   0.335  0.7906 -0.3417 -0.6187
  515poe    c23 4015   5.266   1.656   0.291  0.0021  0.3217  0.2812
  515poe     o2 4016   5.354   1.714   0.384  0.4829 -0.8361  0.5647
  515poe    c23 4017   5.471   1.763   0.322  0.2108 -0.7270  0.1397
  515poe    c23 4018   5.580   1.768   0.430 -0.2352  0.1971  0.5570
  515poe     o2 4019   5.582   1.637   0.484  0.4540 -0.1131 -0.2081
  515poe    c31 4020   5.713   1.615   0.530  0.4433  0.1643 -0.0437
  516poe    c31 4021   5.913   2.155   3.921 -0.0005  0.4605  0.0750
  516poe     o2 4022   5.904   2.203   3.789  0.4198  0.2012 -0.0513
  516poe    c23 4023   5.768   2.220   3.758  0.3457 -0.3997 -0.0632
  516poe    c23 4024   5.765   2.253   3.608  0.4571 -0.0983 -0.0004
  516poe     o2 4025   5.841   2.368   3.578  0.0627  0.1857  0.0965
  516poe    c23 4026   5.768   2.486   3.550 -0.3184  0.0255  0.3976
  516poe    c23 4027   5.855   2.612   3.559  0.1430 -0.1878 -0.8933
  516poe     o2 4028   5.975   2.569   3.499  0.4709 -0.7313  0.1302
  516poe    c23 4029   6.069   2.674   3.509  0.1473 -0.3875 -0.3825
  516poe    c23 4030   6.183   2.622   3.420  0.4047  0.4263 -0.5303
  516poe     o2 4031   6.216   2.492   3.463 -0.1046  0.3984 -0.2203
  516poe    c31 4032   6.310   2.426   3.382  0.1540  0.7044 -0.1736
  517poe    c31 4033   1.313   4.150   5.978  0.2355 -0.1727 -0.6215
  517poe     o2 4034   1.242   4.238   5.893 -0.0190  0.0515 -0.1770
  517poe    c23 4035   1.334   4.269   5.791  0.2409 -0.3131 -0.0581
  517poe    c23 4036   1.310   4.408   5.729 -0.7110 -0.2744  0.3745
  517poe     o2 4037   1.178   4.427   5.684 -0.5752 -0.5921 -0.1737
  517poe    c23 4038   1.181   4.531   5.589  0.1612 -0.3955  0.0555
  517poe    c23 4039   1.036   4.572   5.558  0.2133  0.0030  0.3309
  517poe     o2 4040   0.954   4.459   5.580  0.2843 -0.2655 -0.7448
  517poe    c23 4041   0.817   4.478   5.549  0.2600  0.1178 -0.4090
  517poe    c23 4042   0.734   4.357   5.596 -0.2221  0.5930 -0.0337
  517poe     o2 4043   0.789   4.328   5.723 -0.3804  0.0015 -0.0968
  517poe    c31 4044   0.701   4.247   5.797  0.1590 -0.1438  0.3848
  518poe    c31 4045   0.069   4.591   3.951 -0.0802  0.4304  0.5328
  518poe     o2 4046  -0.023   4.491   3.991  0.4980 -0.2548  0.1708
  518poe    c23 4047  -0.097   4.523   4.106  0.5018 -0.0293  0.1100
  518poe    c23 4048  -0.231   4.447   4.100  0.6477 -0.2938  0.2201
  518poe     o2 4049  -0.189   4.318   4.062  0.4297 -0.3292  0.0972
  518poe    c23 4050  -0.299   4.234   4.034  0.2350  0.1068 -0.4553
  518poe    c23 4051  -0.248   4.092   4.003  0.5356  0.1118 -0.0027
  518poe     o2 4052  -0.165   4.133   3.897 -0.1441  0.1225 -0.5427
  518poe    c23 4053  -0.096   4.034   3.825 -0.0700  0.1001 -0.4405
  518poe    c23 4054   0.007   4.107   3.737 -0.3139  0.4859 -0.4072
  518poe     o2 4055   0.067   4.218   3.800 -0.0536  0.0447  0.1312
  518poe    c31 4056   0.200   4.251   3.767  0.1059  0.0494  0.7606
  519poe    c31 4057   1.563   0.313   1.901  0.1653  0.3349 -0.1096
  519poe     o2 4058   1.635   0.256   2.009 -0.0328  0.0745 -0.1158
  519poe    c23 4059   1.736   0.340   2.060 -0.0797  0.0040  0.0924
  519poe    c23 4060   1.785   0.288   2.197  0.3715 -0.0534 -0.0915
  519poe     o2 4061   1.799   0.148   2.184 -0.3094 -0.0955 -0.4222
  519poe    c23 4062   1.824   0.076   2.302 -0.4207  0.2689 -0.1747
  519poe    c23 4063   1.686   0.031   2.356 -0.2511 -0.3118 -0.2199
  519poe     o2 4064   1.621  -0.006   2.236 -0.1618 -0.5498 -0.1968
  519poe    c23 4065   1.491  -0.058   2.255 -0.0387 -0.8353 -0.1370
  519poe    c23 4066   1.460  -0.097   2.110 -0.1642 -0.3061 -0.2552
  519poe     o2 4067   1.513  -0.000   2.023  0.6055 -0.3707  0.1376
  519poe    c31 4068   1.433  -0.018   1.908 -0.4071 -0.0164  0.7817
  520poe    c31 4069   5.683   4.749   4.672  0.2992  0.3814  0.2936
  520poe     o2 4070   5.651   4.861   4.593  0.1421  0.2566  0.1817
  520poe    c23 4071   5.597   4.812   4.472 -0.4776  0.1176  0.5084
  520poe    c23 4072   5.546   4.918   4.373  0.5585  0.1781  0.0230
  520poe     o2 4073   5.651   5.003   4.333  0.8566 -0.2753 -0.1560
  520poe    c23 4074   5.598   5.125   4.289  0.7973 -0.4186 -0.4823
  520poe    c23 4075   5.707   5.208   4.219  0.4668  0.0623 -0.4391
  520poe     o2 4076   5.790   5.235   4.330 -0.2036  0.5130 -0.0443
  520poe    c23 4077   5.901   5.311   4.288  0.2640 -0.2033 -0.1081
  520poe    c23 4078   6.013   5.331   4.393 -0.4851  0.1973  0.6203
  520poe     o2 4079   6.035   5.209   4.460 -0.2884 -0.2720 -0.2856
  520poe    c31 4080   6.115   5.217   4.575 -0.1599 -0.4940 -0.3579
  521poe    c31 4081   3.213   4.476   3.325  0.0886  0.1570  0.1974
  521poe     o2 4082   3.234   4.360   3.402  0.1982 -0.2822 -0.4834
  521poe    c23 4083   3.342   4.379   3.490 -0.2626  0.2397 -0.0206
  521poe    c23 4084   3.370   4.253   3.574 -0.8407  0.2304  0.1612
  521poe     o2 4085   3.449   4.143   3.534 -0.8232  0.3857 -0.2353
  521poe    c23 4086   3.499   4.088   3.654 -0.4346  0.2751 -0.4462
  521poe    c23 4087   3.624   4.006   3.621 -0.3964  0.0208  0.3071
  521poe     o2 4088   3.615   3.937   3.498  0.3518  0.0324  0.2392
  521poe    c23 4089   3.604   3.797   3.514  0.3932  0.0664  0.5673
  521poe    c23 4090   3.619   3.741   3.371  0.1456 -0.2942  0.6840
  521poe     o2 4091   3.521   3.813   3.300  0.4906 -0.4520  0.0458
  521poe    c31 4092   3.483   3.746   3.182 -0.5128 -0.0736  0.1430
  522poe    c31 4093   2.892   1.170   0.361 -0.6560  0.1988 -0.0701
  522poe     o2 4094   2.784   1.145   0.274 -0.3989 -0.7719 -0.1285
  522poe    c23 4095   2.813   1.200   0.147 -0.5158  0.0455  0.1916
  522poe    c23 4096   2.739   1.101   0.054 -0.2084  0.1571 -0.1740
  522poe     o2 4097   2.602   1.104   0.088 -0.1025  0.1578  0.2654
  522poe    c23 4098   2.538   0.982   0.058 -0.2418  0.3681 -0.3078
  522poe    c23 4099   2.441   0.953   0.174  0.1457  0.0723 -0.0535
  522poe     o2 4100   2.522   0.972   0.288 -0.0339  0.0688  0.0756
  522poe    c23 4101   2.449   0.962   0.408  0.1068 -0.2967  0.1342
  522poe    c23 4102   2.523   1.024   0.528 -0.5889  0.2357  0.2917
  522poe     o2 4103   2.560   1.150   0.476 -0.0949 -0.1290 -0.2337
  522poe    c31 4104   2.566   1.249   0.575  0.0793  0.1623 -0.5331
  523poe    c31 4105   5.057   5.435   2.854  0.4989  0.4150 -0.3062
  523poe     o2 4106   4.930   5.450   2.794  0.2881 -0.5430 -0.1167
  523poe    c23 4107   4.854   5.336   2.827 -0.5443  0.2486  0.7414
  523poe    c23 4108   4.711   5.377   2.787 -0.2108  0.2125 -0.5202
  523poe     o2 4109   4.715   5.458   2.672  0.0176  0.0465 -0.6291
  523poe    c23 4110   4.590   5.517   2.647  0.0342  0.3681  0.0230
  523poe    c23 4111   4.620   5.645   2.566 -0.0937  0.5599  0.2753
  523poe     o2 4112   4.737   5.693   2.627 -0.1298  0.5306  0.3672
  523poe    c23 4113   4.765   5.818   2.569 -0.0934 -0.1327 -1.0962
  523poe    c23 4114   4.881   5.859   2.662 -0.5569 -0.6747 -0.2675
  523poe     o2 4115   4.955   5.742   2.688  0.4229  0.0078  0.1157
  523poe    c31 4116   5.073   5.765   2.761  0.2886  0.0430  0.3217
  524poe    c31 4117   1.735   2.599   2.233  0.3569  0.3429 -0.0927
  524poe     o2 4118   1.656   2.486   2.205 -0.1822  0.7010 -0.0245
  524poe    c23 4119   1.532   2.491   2.272 -0.1479 -0.3044  0.1251
  524poe    c23 4120   1.472   2.351   2.247  0.0260 -0.3768  0.1131
  524poe     o2 4121   1.580   2.260   2.256  0.3660  0.0330  0.2044
  524poe    c23 4122   1.530   2.130   2.233  0.4837  0.0091  0.0835
  524poe    c23 4123   1.647   2.037   2.199  0.1773 -0.4598  0.3097
  524poe     o2 4124   1.713   2.120   2.106  0.0753 -0.2595  0.4171
  524poe    c23 4125   1.839   2.063   2.078  0.0306  0.2082 -0.7836
  524poe    c23 4126   1.940   2.177   2.104  0.0742  0.0330 -0.1729
  524poe     o2 4127   1.874   2.273   2.183 -0.4742 -0.6302  0.1927
  524poe    c31 4128   1.970   2.351   2.250 -0.5567 -0.5016  0.1610
  525poe    c31 4129   2.476   6.420   3.328 -0.1213  0.4224 -0.5165
  525poe     o2 4130   2.351   6.443   3.266 -0.4374 -0.1695 -0.1052
  525poe    c23 4131   2.249   6.420   3.360  0.1130 -0.1653  0.5025
  525poe    c23 4132   2.115   6.494   3.341  0.3510  0.2572  0.4424
  525poe     o2 4133   2.036   6.449   3.233  0.0819  0.3135  0.6135
  525poe    c23 4134   1.898   6.442   3.259  0.0359  0.2629  0.3570
  525poe    c23 4135   1.848   6.374   3.129 -0.2754  0.3694  0.4190
  525poe     o2 4136   1.910   6.447   3.026  0.3275 -0.4469  0.1919
  525poe    c23 4137   1.873   6.414   2.894  0.2597 -0.1280  0.1298
  525poe    c23 4138   1.925   6.523   2.799 -0.2231  0.1221  0.1472
  525poe     o2 4139   2.059   6.527   2.843 -0.1316 -0.2257 -0.0998
  525poe    c31 4140   2.131   6.618   2.762 -0.0470 -0.1444  0.0645
  526poe    c31 4141   0.093   0.361   2.048  0.1242  0.2649  0.2046
  526poe     o2 4142   0.208   0.291   2.008  0.0029 -0.2237  0.7088
  526poe    c23 4143   0.262   0.332   1.885 -0.1990 -0.4157  0.5543
  526poe    c23 4144   0.377   0.236   1.849 -0.1220 -0.0039 -0.3455
  526poe     o2 4145   0.364   0.120   1.928  0.0978  0.1045 -0.1494
  526poe    c23 4146   0.444   0.010   1.892  0.4090  0.2069  0.2266
  526poe    c23 4147   0.440  -0.100   2.000  0.1028  0.1564  0.1649
  526poe     o2 4148   0.301  -0.119   2.010  0.2312 -1.0607 -0.2196
  526poe    c23 4149   0.255  -0.206   2.111 -0.0207  0.1746  0.7384
  526poe    c23 4150   0.109  -0.168   2.145 -0.4667  0.0331 -0.9571
  526poe     o2 4151   0.107  -0.027   2.145 -0.1452  0.0453  0.0724
  526poe    c31 4152  -0.019   0.027   2.180 -0.2726  0.1303 -0.5064
  527poe    c31 4153   0.691   0.169   4.178  0.9819 -0.7578 -0.5289
  527poe     o2 4154   0.789   0.254   4.124  0.3899  0.2836  0.0037
  527poe    c23 4155   0.912   0.186   4.132  0.2166 -0.0335 -0.0151
  527poe    c23 4156   1.035   0.267   4.087  0.1344  0.3674  0.4746
  527poe     o2 4157   0.987   0.352   3.986 -0.0215  0.0983  0.3206
  527poe    c23 4158   1.088   0.401   3.901 -0.1253 -0.1590  0.0474
  527poe    c23 4159   1.012   0.514   3.829 -0.2936 -0.4212 -0.1845
  527poe     o2 4160   0.889   0.458   3.787  0.0690 -0.6976 -0.8877
  527poe    c23 4161   0.798   0.564   3.770  0.0847 -0.4954  0.2663
  527poe    c23 4162   0.727   0.606   3.900  0.2908  0.2683  0.1370
  527poe     o2 4163   0.702   0.487   3.972 -0.5228  0.1622 -0.3163
  527poe    c31 4164   0.607   0.512   4.074 -0.0634 -0.3331  0.2386
  528poe    c31 4165   6.761   6.432   1.394  0.0348  0.1182  0.3927
  528poe     o2 4166   6.803   6.491   1.273  0.1402  0.1744  0.4560
  528poe    c23 4167   6.764   6.434   1.150  0.7125 -0.1132  0.4070
  528poe    c23 4168   6.615   6.426   1.112  0.8990  0.0580 -0.3722
  528poe     o2 4169   6.563   6.554   1.083  0.4920  0.2897  1.3047
  528poe    c23 4170   6.441   6.576   1.150 -0.5190 -0.2079 -0.3037
  528poe    c23 4171   6.371   6.702   1.097 -0.3145 -0.1277 -0.3814
  528poe     o2 4172   6.449   6.818   1.116 -0.2731 -0.1562 -0.3763
  528poe    c23 4173   6.380   6.936   1.082  0.0397  0.1221 -0.0571
  528poe    c23 4174   6.478   7.054   1.095  0.0058  0.1350  0.0792
  528poe     o2 4175   6.606   7.013   1.050  0.0463  0.1455  0.1814
  528poe    c31 4176   6.681   7.132   1.047  0.3167 -0.0352 -0.3065
  529poe    c31 4177   5.654   2.618   5.745 -0.0425 -0.1026  0.1828
  529poe     o2 4178   5.759   2.608   5.652 -0.0106  0.4013  0.1620
  529poe    c23 4179   5.824   2.733   5.647  0.2428  0.2534 -0.3654
  529poe    c23 4180   5.968   2.735   5.593  0.3887 -0.1531  0.0029
  529poe     o2 4181   5.958   2.655   5.477  0.1676 -0.1911  0.0472
  529poe    c23 4182   6.079   2.609   5.421  0.2681 -0.2097  0.2800
  529poe    c23 4183   6.024   2.512   5.315 -0.2285  0.3527  0.0202
  529poe     o2 4184   5.921   2.441   5.379 -0.0778  0.1438  0.0349
  529poe    c23 4185   5.855   2.365   5.280 -0.2404  0.4919 -0.1267
  529poe    c23 4186   5.752   2.287   5.363  0.4176 -0.1401  0.1076
  529poe     o2 4187   5.706   2.373   5.465  0.3499  0.1643 -0.1768
  529poe    c31 4188   5.615   2.294   5.539 -0.0364  0.3579 -0.4427
  530poe    c31 4189   1.130   1.898   5.682  0.3317 -0.4752 -0.5934
  530poe     o2 4190   1.217   1.812   5.752  0.1148  0.1523  0.4667
  530poe    c23 4191   1.162   1.682   5.757  0.2835  0.0758  0.3191
  530poe    c23 4192   1.247   1.607   5.861 -0.2168 -0.5446  0.2842
  530poe     o2 4193   1.379   1.656   5.854 -0.2320 -0.4840  0.4120
  530poe    c23 4194   1.463   1.614   5.959  0.0976 -0.2790  0.2326
  530poe    c23 4195   1.585   1.701   5.925 -0.5499  0.4866 -0.1668
  530poe     o2 4196   1.536   1.833   5.912 -0.4935  0.5293  0.0494
  530poe    c23 4197   1.629   1.935   5.939  0.4848 -0.3265 -0.0046
  530poe    c23 4198   1.552   2.069   5.937  0.3434 -0.4093 -0.1884
  530poe     o2 4199   1.451   2.063   5.839  0.3017  0.5166 -0.2030
  530poe    c31 4200   1.371   2.179   5.823 -0.3712  0.0630 -0.1585
  531poe    c31 4201   5.818   3.412   2.387 -0.8325  0.6226 -0.0974
  531poe     o2 4202   5.877   3.517   2.314 -0.0671  0.3898  0.1858
  531poe    c23 4203   5.821   3.509   2.185  0.6128  0.1866 -0.1009
  531poe    c23 4204   5.825   3.646   2.113 -0.1565  0.3336  0.1295
  531poe     o2 4205   5.955   3.702   2.112 -0.1820  0.3935  0.1138
  531poe    c23 4206   5.959   3.842   2.104  0.4260  0.3440 -0.5649
  531poe    c23 4207   6.050   3.870   2.225  0.0852  0.0776 -0.2440
  531poe     o2 4208   5.998   3.823   2.347  0.1487 -0.0481 -0.2644
  531poe    c23 4209   6.076   3.862   2.458 -0.0802 -0.1632 -0.0631
  531poe    c23 4210   6.025   3.784   2.581 -0.0441 -0.2397 -0.0970
  531poe     o2 4211   6.012   3.648   2.545 -0.2398 -0.2272 -0.0726
  531poe    c31 4212   5.997   3.574   2.664  0.0019 -0.3301 -0.1056
  532poe    c31 4213   2.890   3.108   0.606 -0.5657  0.2271 -0.0323
  532poe     o2 4214   2.861   3.006   0.513  0.1315  0.0177 -0.0239
  532poe    c23 4215   2.864   2.881   0.579  0.6937 -0.0138 -0.1058
  532poe    c23 4216   2.867   2.775   0.468  0.3631  0.4721 -0.5873
  532poe     o2 4217   2.743   2.794   0.403 -0.2814 -0.4163  0.3465
  532poe    c23 4218   2.726   2.714   0.289 -0.4090  0.2920 -0.1357
  532poe    c23 4219   2.633   2.792   0.194  0.3597  0.7492 -0.5278
  532poe     o2 4220   2.675   2.926   0.197  0.1034  0.8247 -0.1845
  532poe    c23 4221   2.576   3.005   0.135 -0.3001  0.0799 -0.4908
  532poe    c23 4222   2.644   3.142   0.153 -0.5239  0.1496 -0.1798
  532poe     o2 4223   2.712   3.145   0.277 -0.3733  0.1911 -0.2635
  532poe    c31 4224   2.750   3.276   0.310  1.2164 -0.3966  0.3167
  533poe    c31 4225   5.153   0.860   5.509  0.2988 -0.3955 -0.4932
  533poe     o2 4226   5.237   0.901   5.614 -0.0484 -0.8225 -0.0466
  533poe    c23 4227   5.243   1.040   5.591  1.0619 -0.8360  0.1197
  533poe    c23 4228   5.304   1.116   5.710 -0.2462 -0.2372  0.4315
  533poe     o2 4229   5.423   1.040   5.712 -0.1018 -0.0213  0.0975
  533poe    c23 4230   5.503   1.067   5.825  0.0739 -0.1199 -0.0019
  533poe    c23 4231   5.614   0.962   5.812  0.2858  0.1398 -0.2961
  533poe     o2 4232   5.554   0.852   5.747 -0.0622  0.1409  0.0216
  533poe    c23 4233   5.651   0.757   5.710 -0.1210  0.0847  0.0125
  533poe    c23 4234   5.602   0.709   5.572  0.0349  0.1846 -0.0779
  533poe     o2 4235   5.463   0.716   5.551  0.1703  0.7004 -0.8143
  533poe    c31 4236   5.434   0.622   5.451  0.0788  0.1786 -0.3000
  534poe    c31 4237   5.159   2.923   6.024  0.0520  0.3829  0.3080
  534poe     o2 4238   5.191   2.811   6.104  0.2603 -0.1009 -0.4453
  534poe    c23 4239   5.330   2.807   6.129  0.1052 -0.0179  0.4573
  534poe    c23 4240   5.375   2.685   6.212 -0.1103 -0.2791  0.1928
  534poe     o2 4241   5.283   2.679   6.318 -0.0680 -0.2457  0.2318
  534poe    c23 4242   5.256   2.560   6.389  0.1860  0.0761  0.8703
  534poe    c23 4243   5.161   2.475   6.303 -0.4452  0.6312  1.0131
  534poe     o2 4244   5.063   2.560   6.248 -0.0754  0.3250 -0.1303
  534poe    c23 4245   4.961   2.490   6.179 -0.1589  0.1550  0.1643
  534poe    c23 4246   4.857   2.595   6.136 -0.2437  0.3208  0.7583
  534poe     o2 4247   4.925   2.699   6.070 -0.4364 -0.2587 -0.3966
  534poe    c31 4248   4.830   2.784   6.012  0.1400  0.6496 -0.0365
  535poe    c31 4249   1.451   3.482   2.397  0.3416 -0.5056 -0.5803
  535poe     o2 4250   1.556   3.572   2.420  0.4436 -0.7695  0.0115
  535poe    c23 4251   1.617   3.582   2.293 -0.5918  0.5826 -0.4021
  535poe    c23 4252   1.702   3.711   2.288  0.0312  0.1677 -0.6649
  535poe     o2 4253   1.724   3.749   2.422 -0.2117 -0.2630 -0.4990
  535poe    c23 4254   1.780   3.878   2.426  0.0321 -0.3643 -0.6356
  535poe    c23 4255   1.779   3.920   2.575  0.7353 -0.0930 -0.6989
  535poe     o2 4256   1.655   3.871   2.621  0.9025  0.4571  0.3584
  535poe    c23 4257   1.648   3.865   2.762  0.0756  0.9149  0.3416
  535poe    c23 4258   1.508   3.802   2.769  0.0817  0.7739 -0.6016
  535poe     o2 4259   1.522   3.676   2.708  0.7030  0.4921  0.0994
  535poe    c31 4260   1.420   3.597   2.764  0.4102  0.5973 -0.2791
  536poe    c31 4261   2.772   3.017   5.544  0.0339  0.0173  0.7109
  536poe     o2 4262   2.700   3.138   5.537  0.3572  0.1856  0.2218
  536poe    c23 4263   2.628   3.143   5.416  0.2082  0.1848  0.3097
  536poe    c23 4264   2.720   3.228   5.327 -0.2880  0.0507 -0.3423
  536poe     o2 4265   2.739   3.344   5.404  0.2133 -0.2161 -0.0582
  536poe    c23 4266   2.819   3.441   5.339 -0.6810  0.3415 -0.3382
  536poe    c23 4267   2.844   3.541   5.454  0.5594 -0.3180 -0.0147
  536poe     o2 4268   2.869   3.462   5.568 -0.2700 -0.3513  0.1547
  536poe    c23 4269   2.864   3.532   5.690  0.3894  0.0075 -0.0217
  536poe    c23 4270   2.844   3.421   5.794 -0.1033  0.2229  0.1141
  536poe     o2 4271   2.746   3.331   5.747 -0.3117  0.5127 -0.0021
  536poe    c31 4272   2.722   3.227   5.838  0.3672  0.4896  0.1529
  537poe    c31 4273   1.306   4.932   0.738 -0.0289 -0.0415  0.4501
  537poe     o2 4274   1.168   4.902   0.737 -0.1028  0.3025  0.2889
  537poe    c23 4275   1.148   4.927   0.599 -0.0261 -0.0369  0.2162
  537poe    c23 4276   0.997   4.937   0.571 -0.1448  0.1443  0.9056
  537poe     o2 4277   0.934   4.832   0.642  0.1123 -0.3410  0.4201
  537poe    c23 4278   0.810   4.797   0.586 -0.1495  0.2985  0.5926
  537poe    c23 4279   0.751   4.665   0.638 -0.1159  0.3471  0.7523
  537poe     o2 4280   0.824   4.546   0.614 -0.3833  0.3816 -0.2510
  537poe    c23 4281   0.773   4.429   0.673  0.0766  0.5767  0.5435
  537poe    c23 4282   0.841   4.304   0.614 -0.0188  0.6498  0.2761
  537poe     o2 4283   0.806   4.273   0.481 -0.8089  0.8500  0.4265
  537poe    c31 4284   0.839   4.367   0.382 -0.1199 -0.2346 -0.3977
  538poe    c31 4285   0.057   0.517   3.328 -0.3039  0.5864  0.0605
  538poe     o2 4286  -0.069   0.575   3.354 -0.2462  0.6883  0.1124
  538poe    c23 4287  -0.105   0.640   3.234 -0.3099 -0.1915 -0.3526
  538poe    c23 4288  -0.242   0.703   3.263 -0.2280 -0.0749 -0.2095
  538poe     o2 4289  -0.247   0.758   3.392 -0.6506 -0.6030  0.0051
  538poe    c23 4290  -0.372   0.779   3.456 -0.6375 -0.5634  0.0170
  538poe    c23 4291  -0.331   0.792   3.604 -0.0171  0.3215 -0.2246
  538poe     o2 4292  -0.227   0.706   3.644 -0.0798  0.3114 -0.0864
  538poe    c23 4293  -0.183   0.704   3.778  0.1970 -0.1394 -0.1815
  538poe    c23 4294  -0.124   0.564   3.801 -0.3123 -0.3740 -0.2945
  538poe     o2 4295  -0.068   0.529   3.676  0.0403  0.0225 -0.2492
  538poe    c31 4296  -0.002   0.405   3.687  0.4122  0.2012 -0.4391
  539poe    c31 4297   6.120   2.299   6.201 -0.1225  0.1997 -0.3273
  539poe     o2 4298   6.078   2.183   6.132 -0.6675 -0.0217  0.3660
  539poe    c23 4299   6.181   2.087   6.133 -0.7183 -0.0806  0.0428
  539poe    c23 4300   6.127   1.987   6.029 -0.2996 -0.2349 -0.0276
  539poe     o2 4301   5.990   1.956   6.044 -0.3236 -0.1441 -0.0561
  539poe    c23 4302   5.941   1.864   5.949  0.1837 -0.2637 -0.2053
  539poe    c23 4303   5.790   1.854   5.974  0.1020  0.1965 -0.4941
  539poe     o2 4304   5.755   1.990   5.983  0.3133  0.2277 -0.1304
  539poe    c23 4305   5.617   2.001   5.953  0.2296 -0.5077 -0.0253
  539poe    c23 4306   5.544   2.135   5.971  0.2718 -0.4832 -0.0318
  539poe     o2 4307   5.557   2.170   6.107  0.0282 -0.2638 -0.0630
  539poe    c31 4308   5.463   2.267   6.146 -0.1592 -0.4146 -0.1384
  540poe    c31 4309   6.498   4.197   5.997  0.1402 -0.2053 -0.5130
  540poe     o2 4310   6.587   4.157   6.098 -0.2066 -0.0728 -0.1512
  540poe    c23 4311   6.702   4.238   6.103 -0.0506 -0.2561 -0.6700
  540poe    c23 4312   6.818   4.143   6.138 -0.2389 -0.2243  0.0573
  540poe     o2 4313   6.757   4.027   6.189  0.0353 -0.8834 -1.0803
  540poe    c23 4314   6.834   3.910   6.206  0.6166 -0.3164  0.4231
  540poe    c23 4315   6.738   3.797   6.249  0.2162 -0.2758 -0.3446
  540poe     o2 4316   6.603   3.836   6.231  0.2201 -0.2056 -0.2195
  540poe    c23 4317   6.506   3.752   6.290 -0.1082  0.3297  0.0037
  540poe    c23 4318   6.384   3.823   6.228 -0.1162  0.8093  0.5547
  540poe     o2 4319   6.392   3.963   6.228  0.0322  0.8022  0.3335
  540poe    c31 4320   6.262   4.017   6.238 -0.4145 -0.2838  0.5276
  541poe    c31 4321   1.738   2.868   6.262  0.5205 -0.3111 -0.4244
  541poe     o2 4322   1.679   2.742   6.241  0.0859 -0.0856 -0.5658
  541poe    c23 4323   1.622   2.743   6.112 -0.0995 -0.3477 -0.4874
  541poe    c23 4324   1.560   2.604   6.089 -0.3595 -0.2566 -0.3360
  541poe     o2 4325   1.505   2.567   6.213  0.3295  0.4464  0.1915
  541poe    c23 4326   1.469   2.430   6.213  0.3118  0.4507  0.2468
  541poe    c23 4327   1.477   2.386   6.360  0.3193  0.9147  0.3887
  541poe     o2 4328   1.593   2.453   6.405  0.8826  0.2959 -0.1074
  541poe    c23 4329   1.603   2.439   6.545  0.0973  0.1806 -0.0560
  541poe    c23 4330   1.746   2.493   6.562  0.2216 -0.0117 -0.4847
  541poe     o2 4331   1.736   2.626   6.515 -0.1796  0.3284  0.5348
  541poe    c31 4332   1.855   2.678   6.571  0.5415 -0.6726 -0.0218
  542poe    c31 4333   0.696   5.050   1.240  0.0127  0.4844 -0.3034
  542poe     o2 4334   0.680   4.984   1.363  0.1222 -0.0071 -0.5489
  542poe    c23 4335   0.609   4.867   1.332  0.8593 -0.4675 -0.5142
  542poe    c23 4336   0.534   4.808   1.453  0.5212 -1.1043 -1.0233
  542poe     o2 4337   0.617   4.805   1.568 -0.2460 -0.1033 -0.4327
  542poe    c23 4338   0.555   4.821   1.693 -0.1285 -0.0635 -0.3794
  542poe    c23 4339   0.668   4.877   1.781 -0.1042  0.1214 -0.5289
  542poe     o2 4340   0.713   4.994   1.717 -0.2286  0.5925  0.2311
  542poe    c23 4341   0.829   5.045   1.779  0.2917 -0.4014  0.1009
  542poe    c23 4342   0.848   5.177   1.701  0.4742 -0.1562  0.5545
  542poe     o2 4343   0.858   5.133   1.567  0.4883  0.2471  0.4225
  542poe    c31 4344   0.876   5.241   1.478  0.0115 -0.3967 -0.4772
  543poe    c31 4345   1.043   5.441   5.334 -0.3358  0.3927  0.1975
  543poe     o2 4346   1.144   5.355   5.382 -0.2715  0.4913  0.2382
  543poe    c23 4347   1.249   5.370   5.289 -0.4724 -0.4358 -0.1516
  543poe    c23 4348   1.367   5.286   5.341  0.0309  0.3679  0.0235
  543poe     o2 4349   1.372   5.306   5.480 -0.2819 -0.7725  0.2107
  543poe    c23 4350   1.467   5.255   5.571  0.5264 -0.0686 -0.2240
  543poe    c23 4351   1.383   5.245   5.700 -0.3278  0.1448 -0.7550
  543poe     o2 4352   1.251   5.209   5.665 -0.3546 -0.0473 -0.4603
  543poe    c23 4353   1.176   5.200   5.784  0.3003 -0.5143 -0.0738
  543poe    c23 4354   1.028   5.197   5.742  0.1586  0.3774  0.3331
  543poe     o2 4355   1.005   5.283   5.632 -0.3258  0.9008  0.8365
  543poe    c31 4356   0.867   5.313   5.623 -0.4666  0.0073 -0.3373
  544poe    c31 4357   0.797   6.487   2.528 -0.8593 -0.1427  0.2445
  544poe     o2 4358   0.719   6.386   2.468 -0.3833 -0.5287  0.2703
  544poe    c23 4359   0.605   6.443   2.407  0.3815  0.3109 -0.3905
  544poe    c23 4360   0.548   6.334   2.313  0.4202 -0.3359  0.3302
  544poe     o2 4361   0.649   6.300   2.221  0.1118 -0.2072 -0.0545
  544poe    c23 4362   0.638   6.176   2.155  0.4402 -0.4137  0.2803
  544poe    c23 4363   0.706   6.063   2.235  0.2560 -1.1012 -0.5179
  544poe     o2 4364   0.828   6.095   2.298  0.1187 -0.7347 -0.4366
  544poe    c23 4365   0.862   5.994   2.390 -0.1878 -0.4188  0.0284
  544poe    c23 4366   0.968   6.063   2.477  0.1574  0.0791 -0.7828
  544poe     o2 4367   0.932   6.199   2.492  0.1248  0.0366 -0.4599
  544poe    c31 4368   1.025   6.252   2.583 -0.6013  0.2183  0.1800
  545poe    c31 4369   0.168   5.523   4.706  0.0833 -0.3557 -0.2037
  545poe     o2 4370   0.227   5.581   4.592 -0.2005 -0.0411 -0.1917
  545poe    c23 4371   0.166   5.533   4.475 -0.0091 -0.1735 -0.2377
  545poe    c23 4372   0.248   5.583   4.355  0.4676  0.2890  0.2779
  545poe     o2 4373   0.257   5.724   4.353 -0.4285  0.3606  0.9554
  545poe    c23 4374   0.204   5.761   4.228  0.7365  0.0496  0.3547
  545poe    c23 4375   0.198   5.914   4.245 -0.3714  0.0757 -0.1819
  545poe     o2 4376   0.327   5.969   4.262 -0.5856  0.3807  0.5219
  545poe    c23 4377   0.334   6.100   4.313  0.0844  0.5616 -0.0205
  545poe    c23 4378   0.475   6.125   4.370  0.2194 -0.1092 -0.0509
  545poe     o2 4379   0.517   6.017   4.450 -0.5349 -0.3186  0.0747
  545poe    c31 4380   0.633   6.069   4.511 -0.4819 -0.1560 -0.1608
  546poe    c31 4381   2.448   2.273   1.176 -0.2983 -0.4432 -0.2431
  546poe     o2 4382   2.380   2.371   1.251  0.2868 -0.2735  0.0690
  546poe    c23 4383   2.459   2.483   1.285  0.2174 -0.0784 -0.4080
  546poe    c23 4384   2.424   2.541   1.423 -0.1316 -0.6324 -0.2582
  546poe     o2 4385   2.286   2.524   1.443 -0.1581  0.1107  0.2325
  546poe    c23 4386   2.233   2.553   1.571 -0.8314 -0.5795  0.1187
  546poe    c23 4387   2.084   2.567   1.536 -0.7030 -0.0966 -0.2395
  546poe     o2 4388   2.058   2.455   1.455  0.3234 -0.1692 -0.4804
  546poe    c23 4389   1.950   2.494   1.373 -0.3314  0.3426  0.6080
  546poe    c23 4390   1.949   2.387   1.262 -0.2931  0.5410  0.4182
  546poe     o2 4391   2.080   2.351   1.224 -0.5097 -0.4021  0.5540
  546poe    c31 4392   2.079   2.288   1.098  0.3142 -0.0648  0.3736
  547poe    c31 4393   6.522   1.052   4.018  0.6517  0.2406 -0.6516
  547poe     o2 4394   6.428   1.157   4.019  0.0166 -0.3184  0.3942
  547poe    c23 4395   6.462   1.258   3.926  0.3804 -0.2389  0.6112
  547poe    c23 4396   6.351   1.357   3.885  0.1841 -0.5277  0.4374
  547poe     o2 4397   6.281   1.394   4.002  0.3592  1.0066  0.0803
  547poe    c23 4398   6.170   1.477   3.980 -0.5639 -0.3329 -0.4239
  547poe    c23 4399   6.104   1.466   4.118  0.7749  0.6814  0.3154
  547poe     o2 4400   6.107   1.332   4.164 -0.3116  0.4560 -0.2508
  547poe    c23 4401   6.009   1.242   4.117 -0.2132  0.0784  0.2673
  547poe    c23 4402   6.047   1.103   4.173  0.2832  0.0829 -0.0449
  547poe     o2 4403   6.174   1.069   4.122  0.1825  0.2342 -0.3994
  547poe    c31 4404   6.185   0.928   4.125  0.6056  0.2761  0.1707
  548poe    c31 4405   2.066   1.702   0.424  0.5162  0.1376 -0.6626
  548poe     o2 4406   2.157   1.649   0.518 -0.0608  0.0898 -0.1300
  548poe    c23 4407   2.218   1.763   0.575  0.1362 -0.2246  0.2901
  548poe    c23 4408   2.293   1.716   0.701  0.0298 -0.3865  0.2943
  548poe     o2 4409   2.349   1.592   0.665 -0.3518 -0.4433 -0.1038
  548poe    c23 4410   2.392   1.519   0.778 -0.6984 -0.1446  0.2243
  548poe    c23 4411   2.275   1.428   0.818 -0.4856 -0.3828  0.3083
  548poe     o2 4412   2.233   1.358   0.703  0.0886 -0.0225 -0.1291
  548poe    c23 4413   2.095   1.329   0.709  0.1486 -0.2542  0.1955
  548poe    c23 4414   2.061   1.277   0.568  0.1042  0.5199 -0.0861
  548poe     o2 4415   2.105   1.364   0.466 -0.3552  0.7657 -0.0773
  548poe    c31 4416   2.030   1.335   0.351 -0.0343  0.0915 -0.1213
  549poe    c31 4417   4.559   3.320   4.324 -0.5696  0.6685 -0.0559
  549poe     o2 4418   4.605   3.317   4.458 -0.4968 -0.5280 -0.1051
  549poe    c23 4419   4.490   3.332   4.538 -0.2281 -0.1089  0.2020
  549poe    c23 4420   4.504   3.286   4.684  0.7250  0.6361  0.3545
  549poe     o2 4421   4.596   3.179   4.681  0.0485  0.0646 -0.0937
  549poe    c23 4422   4.650   3.129   4.801 -0.0594 -0.7810 -0.3909
  549poe    c23 4423   4.767   3.218   4.846 -0.3641 -0.5443 -0.0605
  549poe     o2 4424   4.836   3.243   4.726 -0.1307  0.4201  0.2667
  549poe    c23 4425   4.945   3.328   4.751  0.2604  0.0741 -0.2372
  549poe    c23 4426   5.003   3.357   4.611  0.3600  1.0248 -0.0119
  549poe     o2 4427   4.896   3.372   4.521  0.1372 -0.5232 -0.0458
  549poe    c31 4428   4.938   3.458   4.417  0.0404 -0.5538 -0.1113
  550poe    c31 4429   4.106   0.863   5.543 -0.1095  0.5673 -0.1156
  550poe     o2 4430   4.170   0.865   5.668 -0.6203 -0.0195  0.1560
  550poe    c23 4431   4.102   0.794   5.770 -0.2035 -0.4817  0.1191
  550poe    c23 4432   4.194   0.780   5.893 -0.1940  0.0575  0.1761
  550poe     o2 4433   4.263   0.903   5.884  0.0129 -0.0627  0.1287
  550poe    c23 4434   4.359   0.913   5.987 -0.3329 -0.2257  0.4688
  550poe    c23 4435   4.413   1.056   5.977 -0.2015 -0.3150 -0.1012
  550poe     o2 4436   4.436   1.084   5.840 -0.1720  0.5432  0.0696
  550poe    c23 4437   4.543   1.174   5.821  0.2498  0.2159  0.8425
  550poe    c23 4438   4.676   1.102   5.793 -0.3387 -0.4687 -0.2667
  550poe     o2 4439   4.677   1.062   5.658 -0.4913 -0.0227 -0.4022
  550poe    c31 4440   4.775   0.960   5.648  0.1433  0.5559 -0.1554
  551poe    c31 4441   3.161   6.001   6.507  0.0669 -0.1839  0.0831
  551poe     o2 4442   3.198   6.030   6.374  0.4554 -0.9221  0.0234
  551poe    c23 4443   3.104   5.981   6.281 -0.1491 -0.1354  0.2008
  551poe    c23 4444   3.099   6.064   6.152  0.0516 -0.0945  0.2187
  551poe     o2 4445   3.210   6.035   6.070  0.1341 -0.2469  0.3841
  551poe    c23 4446   3.329   6.109   6.088 -0.0301  0.0749  0.1436
  551poe    c23 4447   3.442   6.072   5.991 -0.0404  0.2381  0.0685
  551poe     o2 4448   3.412   6.102   5.856  0.2318  0.2605  0.0119
  551poe    c23 4449   3.528   6.083   5.778 -0.0494  0.2762 -0.4141
  551poe    c23 4450   3.493   6.008   5.649 -0.3145 -0.0407 -0.1583
  551poe     o2 4451   3.359   6.041   5.619 -0.2223  0.3169 -0.1846
  551poe    c31 4452   3.329   6.032   5.482 -0.1693 -0.9996 -0.1227
  552poe    c31 4453   4.343   2.198   6.167  0.5370  0.0969  0.0113
  552poe     o2 4454   4.272   2.220   6.287 -0.1120  0.4648 -0.4260
  552poe    c23 4455   4.187   2.331   6.275 -0.6514  0.0095 -0.8377
  552poe    c23 4456   4.090   2.323   6.395 -0.1071 -0.4802 -0.4226
  552poe     o2 4457   4.177   2.275   6.494  0.1428  0.2931 -0.2640
  552poe    c23 4458   4.113   2.274   6.620  0.1223  0.0198 -0.2762
  552poe    c23 4459   4.212   2.231   6.730  0.1781  0.0691 -0.3074
  552poe     o2 4460   4.289   2.132   6.667  0.1306  0.1391 -0.4769
  552poe    c23 4461   4.370   2.067   6.763 -0.1713  0.4169 -0.0324
  552poe    c23 4462   4.383   1.916   6.738 -0.7265  0.3944 -0.1900
  552poe     o2 4463   4.477   1.884   6.639  0.1675 -0.0366  0.7822
  552poe    c31 4464   4.528   1.753   6.643  0.2775 -0.0210  0.0793
  553poe    c31 4465   4.484   5.697   3.792  0.3637 -0.1526 -0.5458
  553poe     o2 4466   4.563   5.814   3.799 -0.1169  0.1429  0.1396
  553poe    c23 4467   4.568   5.867   3.668 -0.1890  0.0905  0.1155
  553poe    c23 4468   4.593   6.018   3.658 -0.0081  0.0871  0.5044
  553poe     o2 4469   4.486   6.094   3.709  0.2711  0.5415  0.4260
  553poe    c23 4470   4.520   6.231   3.712  0.6295  0.4607  0.1043
  553poe    c23 4471   4.418   6.297   3.806 -0.2742 -0.9572  0.1480
  553poe     o2 4472   4.295   6.303   3.737  0.0689  0.5127 -0.3624
  553poe    c23 4473   4.210   6.388   3.812 -0.1323  0.2166 -0.2527
  553poe    c23 4474   4.076   6.414   3.741 -0.1231  0.4655 -0.1783
  553poe     o2 4475   4.065   6.289   3.678 -0.1338  0.4093 -0.0636
  553poe    c31 4476   3.939   6.270   3.618  0.3874 -0.1058 -1.0135
  554poe    c31 4477   5.455   5.131   3.647 -0.1948 -0.3986  0.2075
  554poe     o2 4478   5.502   5.022   3.569  0.6186  0.3636 -0.3936
  554poe    c23 4479   5.389   4.983   3.494  0.5258  0.1810 -0.1630
  554poe    c23 4480   5.426   4.911   3.363  0.2180  0.1539 -0.2364
  554poe     o2 4481   5.470   4.778   3.376 -0.5247 -0.1060 -0.3652
  554poe    c23 4482   5.528   4.717   3.262  0.0169 -0.4494  0.0860
  554poe    c23 4483   5.572   4.574   3.297 -0.3559 -0.5390  0.1969
  554poe     o2 4484   5.592   4.566   3.436 -0.5157  0.1014  0.2617
  554poe    c23 4485   5.633   4.436   3.474  0.0879  0.1345 -0.2613
  554poe    c23 4486   5.633   4.448   3.627 -0.3741  0.1326 -0.2598
  554poe     o2 4487   5.722   4.543   3.681 -0.3247 -0.1186  0.1056
  554poe    c31 4488   5.710   4.573   3.818 -0.4163 -0.3686  0.1539
  555poe    c31 4489   1.765   6.832   4.071  0.1657  0.3034  0.0971
  555poe     o2 4490   1.730   6.962   4.029  0.3875  0.2520 -0.2458
  555poe    c23 4491   1.617   6.953   3.945 -0.0003  0.2179  0.2725
  555poe    c23 4492   1.586   7.092   3.887 -0.3433 -0.0121 -0.1081
  555poe     o2 4493   1.713   7.139   3.848 -0.1267 -0.1005  0.4765
  555poe    c23 4494   1.716   7.275   3.813  0.0939 -0.2688 -0.1740
  555poe    c23 4495   1.719   7.355   3.945  0.6509 -0.0680 -0.3064
  555poe     o2 4496   1.806   7.289   4.034 -0.2379 -0.4346  0.2967
  555poe    c23 4497   1.804   7.348   4.162 -0.0537  0.0638  0.0698
  555poe    c23 4498   1.882   7.256   4.258 -0.0919 -0.0127  0.0269
  555poe     o2 4499   1.865   7.122   4.219  0.3464 -0.0975  0.1264
  555poe    c31 4500   1.869   7.035   4.330  0.0312 -0.4761 -0.1546
  556poe    c31 4501   1.537   6.633   3.437 -0.1852  0.0988 -0.1058
  556poe     o2 4502   1.477   6.561   3.333 -0.3631  0.1668 -0.0501
  556poe    c23 4503   1.498   6.423   3.350  0.3435  0.3040  0.1880
  556poe    c23 4504   1.477   6.339   3.223 -0.0214  0.1984  0.3183
  556poe     o2 4505   1.346   6.322   3.173  0.0114  0.3148  0.1912
  556poe    c23 4506   1.341   6.229   3.066 -0.4072 -0.0766  0.5473
  556poe    c23 4507   1.213   6.148   3.092 -0.4715 -0.0885  0.1946
  556poe     o2 4508   1.117   6.249   3.118 -0.2084  0.1660  0.1845
  556poe    c23 4509   0.986   6.196   3.124 -0.0405 -0.2726  0.0402
  556poe    c23 4510   0.890   6.311   3.159  0.1549 -0.2689  0.5659
  556poe     o2 4511   0.951   6.385   3.263 -0.6757 -0.0764  0.9234
  556poe    c31 4512   0.841   6.459   3.311  0.2562  1.3256  0.9427
  557poe    c31 4513   5.346   6.037   2.963 -0.3440 -0.0022  0.5867
  557poe     o2 4514   5.387   6.134   3.057 -0.1462  0.3862  0.1050
  557poe    c23 4515   5.504   6.084   3.119 -0.3271  0.2814  0.3672
  557poe    c23 4516   5.557   6.201   3.205  0.1651  0.1272  0.2793
  557poe     o2 4517   5.563   6.322   3.134 -0.2720  0.0259  0.0616
  557poe    c23 4518   5.591   6.432   3.219  1.0824 -0.2370 -0.0235
  557poe    c23 4519   5.591   6.565   3.141  0.0662 -0.0085  0.3505
  557poe     o2 4520   5.476   6.569   3.060  0.2356 -0.2050  0.1011
  557poe    c23 4521   5.444   6.706   3.053  0.0932 -0.2661 -0.5226
  557poe    c23 4522   5.322   6.732   2.962 -0.1100 -0.0876 -0.2003
  557poe     o2 4523   5.215   6.667   3.027 -0.0267 -0.3228 -0.2952
  557poe    c31 4524   5.091   6.679   2.959 -0.3061  0.2351  0.2969
  558poe    c31 4525   2.917   3.387   1.537 -0.6464  0.1905 -0.7286
  558poe     o2 4526   3.037   3.414   1.468  0.1630 -0.5963  0.3337
  558poe    c23 4527   3.099   3.526   1.527 -0.2258 -0.1562 -0.0784
  558poe    c23 4528   3.237   3.543   1.462 -0.5187 -0.2603 -0.7336
  558poe     o2 4529   3.218   3.510   1.326 -0.4568  0.5750 -0.9504
  558poe    c23 4530   3.334   3.506   1.247 -0.2628  0.1964 -0.6485
  558poe    c23 4531   3.388   3.362   1.257 -0.1758  0.2797  0.1731
  558poe     o2 4532   3.266   3.296   1.232  0.4488 -0.6119 -0.5745
  558poe    c23 4533   3.259   3.157   1.257  0.0461 -0.4890  0.0166
  558poe    c23 4534   3.112   3.120   1.228  0.0522 -0.1742 -0.4273
  558poe     o2 4535   3.018   3.207   1.288 -0.0924 -0.2439 -0.5538
  558poe    c31 4536   2.892   3.145   1.273 -0.3002 -0.0536  0.3469
  559poe    c31 4537   4.689   4.317   0.569 -0.3293 -0.1748 -0.5502
  559poe     o2 4538   4.802   4.283   0.492 -0.1158  0.4510 -0.5221
  559poe    c23 4539   4.844   4.156   0.535 -0.1163  0.7110  0.2598
  559poe    c23 4540   4.979   4.106   0.478  0.0140 -0.1427  1.2871
  559poe     o2 4541   5.048   4.228   0.465 -0.0729 -0.1412  0.8267
  559poe    c23 4542   5.178   4.208   0.413 -0.1038  0.5172  0.4979
  559poe    c23 4543   5.248   4.344   0.396  0.1406  0.3220 -0.1061
  559poe     o2 4544   5.162   4.433   0.329  0.1196  0.1397 -0.3228
  559poe    c23 4545   5.234   4.528   0.253  0.1325  0.4737  0.0982
  559poe    c23 4546   5.141   4.642   0.209 -0.0362  0.2174 -0.2157
  559poe     o2 4547   5.024   4.603   0.141 -0.1799  0.0351  0.1337
  559poe    c31 4548   4.996   4.681   0.026  0.3046 -0.2409 -0.1773
  560poe    c31 4549   4.081   3.354   0.290  0.1554  0.5293 -0.3201
  560poe     o2 4550   4.128   3.394   0.417  0.1647  0.7909 -0.4048
  560poe    c23 4551   4.050   3.340   0.521  0.8208  0.4803 -0.0692
  560poe    c23 4552   4.133   3.379   0.645 -0.0336  0.6564  0.4508
  560poe     o2 4553   4.256   3.312   0.650 -0.5281 -0.2675  0.3847
  560poe    c23 4554   4.305   3.305   0.782  0.1052  0.3797  0.1925
  560poe    c23 4555   4.441   3.233   0.782 -0.3173 -0.4320 -0.2889
  560poe     o2 4556   4.529   3.301   0.696 -0.0281  0.1316  0.4401
  560poe    c23 4557   4.658   3.248   0.682 -0.2026 -0.1485 -0.1598
  560poe    c23 4558   4.718   3.324   0.561  0.5570 -0.1599  0.2016
  560poe     o2 4559   4.622   3.322   0.458  0.4760 -0.4551  0.2785
  560poe    c31 4560   4.689   3.396   0.358  0.0929 -0.1001  0.2821
  561poe    c31 4561   1.233   5.902   5.353  0.1191 -0.4269 -0.3138
  561poe     o2 4562   1.356   5.833   5.355  0.1340 -0.3935  0.3449
  561poe    c23 4563   1.389   5.772   5.232  0.0781  0.3317 -0.0335
  561poe    c23 4564   1.477   5.651   5.268 -0.2907  0.0407 -0.1005
  561poe     o2 4565   1.577   5.715   5.345  0.2140 -0.3392 -0.4331
  561poe    c23 4566   1.701   5.649   5.336  0.2524 -0.3760  0.3428
  561poe    c23 4567   1.782   5.726   5.442 -0.0190 -0.3930  0.5638
  561poe     o2 4568   1.746   5.860   5.421  0.2825 -0.4091 -0.0579
  561poe    c23 4569   1.789   5.956   5.516  0.3161 -0.4182 -0.0641
  561poe    c23 4570   1.688   5.953   5.632  0.1346  0.1655 -0.2066
  561poe     o2 4571   1.564   5.955   5.563  0.1862 -0.0769 -0.3071
  561poe    c31 4572   1.462   6.000   5.648  0.2082 -0.5148 -0.0434
  562poe    c31 4573   2.724   5.963   5.532  0.1861 -0.2453  0.0498
  562poe     o2 4574   2.696   5.876   5.425  0.1876 -0.4814  0.2414
  562poe    c23 4575   2.786   5.895   5.317 -0.0663  0.3175  0.1621
  562poe    c23 4576   2.777   5.774   5.222 -0.0514  0.4757 -0.0381
  562poe     o2 4577   2.642   5.778   5.182 -0.1449 -0.0759  0.2253
  562poe    c23 4578   2.581   5.651   5.177 -0.0867 -0.0935 -0.0396
  562poe    c23 4579   2.566   5.584   5.315  0.2577  0.2173  0.1484
  562poe     o2 4580   2.501   5.678   5.398  0.0055  0.1875 -0.0131
  562poe    c23 4581   2.497   5.638   5.533 -0.4085 -0.3509 -0.1820
  562poe    c23 4582   2.386   5.727   5.592  0.2467 -0.0864  0.6789
  562poe     o2 4583   2.429   5.857   5.560  0.4487 -0.1551  0.6698
  562poe    c31 4584   2.370   5.950   5.648 -0.1241 -0.0749  0.2082
  563poe    c31 4585   1.859   0.381   5.824  0.3679  0.3545 -0.0330
  563poe     o2 4586   1.758   0.381   5.922 -0.3819  0.7797 -0.7892
  563poe    c23 4587   1.744   0.511   5.974  0.6457  0.4993  0.2418
  563poe    c23 4588   1.681   0.614   5.878 -0.3862 -0.1719  0.1746
  563poe     o2 4589   1.541   0.619   5.887 -0.3807  0.0390  0.1534
  563poe    c23 4590   1.496   0.734   5.819 -0.5999 -0.3270 -0.3226
  563poe    c23 4591   1.347   0.757   5.852 -0.2966  0.5893  0.4518
  563poe     o2 4592   1.285   0.642   5.904 -0.1605  0.4907  0.3976
  563poe    c23 4593   1.156   0.614   5.854  0.1683 -0.2499 -0.0542
  563poe    c23 4594   1.075   0.519   5.943 -0.2381  0.2765  0.1405
  563poe     o2 4595   1.150   0.406   5.981 -0.3006  0.0805 -0.3093
  563poe    c31 4596   1.087   0.313   6.067 -0.1931 -0.0318 -0.3527
  564poe    c31 4597   0.126   1.378   4.771 -0.1762  0.1077 -0.1595
  564poe     o2 4598   0.050   1.261   4.789  0.1977 -0.1014  0.0832
  564poe    c23 4599   0.142   1.157   4.763  0.0438  0.0527 -1.1682
  564poe    c23 4600   0.050   1.035   4.776  0.5619 -0.2295 -0.0013
  564poe     o2 4601  -0.065   1.063   4.699  0.2052 -0.3086  0.4958
  564poe    c23 4602  -0.154   0.954   4.692  0.2614 -0.3199 -0.1001
  564poe    c23 4603  -0.293   1.015   4.722  0.3828 -0.0581 -0.0660
  564poe     o2 4604  -0.260   1.114   4.817  0.1655  0.0082 -0.0614
  564poe    c23 4605  -0.368   1.194   4.863 -0.0720 -0.2151 -0.2289
  564poe    c23 4606  -0.303   1.317   4.929 -0.6094  0.1870 -0.4447
  564poe     o2 4607  -0.227   1.373   4.824  0.0587 -0.4976 -0.3401
  564poe    c31 4608  -0.206   1.508   4.860  0.2105 -0.5497 -0.2339
  565poe    c31 4609   5.944   0.957   6.104  0.1467  0.3273 -0.3351
  565poe     o2 4610   6.036   0.994   6.204 -0.5298  0.0111  0.4177
  565poe    c23 4611   6.155   1.030   6.138 -0.5034 -0.4541  0.2055
  565poe    c23 4612   6.268   1.069   6.235 -0.5328  0.1732 -0.0050
  565poe     o2 4613   6.202   1.146   6.333 -0.8598 -0.0336 -0.0605
  565poe    c23 4614   6.281   1.154   6.449 -0.3639  0.1803 -0.4108
  565poe    c23 4615   6.195   1.092   6.560 -0.5971  1.1362 -0.0449
  565poe     o2 4616   6.061   1.124   6.529 -0.6816 -0.0743 -0.9947
  565poe    c23 4617   5.976   1.045   6.610 -0.2167  0.0918 -0.3452
  565poe    c23 4618   5.834   1.060   6.553 -0.3865 -0.1550  0.0122
  565poe     o2 4619   5.843   1.056   6.412 -0.0890  1.0987 -0.0171
  565poe    c31 4620   5.723   1.013   6.351 -0.0706  0.2172  0.5452
  566poe    c31 4621   3.944   2.063   4.635 -0.2368 -0.0016  0.0188
  566poe     o2 4622   3.840   2.008   4.713 -0.0867 -0.0006  0.2193
  566poe    c23 4623   3.718   2.047   4.655 -0.2420 -0.8264 -0.0169
  566poe    c23 4624   3.616   2.076   4.766 -0.0745 -0.0837 -0.0486
  566poe     o2 4625   3.635   1.971   4.858 -0.5921 -0.3214 -0.2104
  566poe    c23 4626   3.541   1.978   4.963 -0.5154  0.3218 -0.1777
  566poe    c23 4627   3.499   1.843   5.025  0.5946 -0.0902 -0.3114
  566poe     o2 4628   3.618   1.775   5.058  0.7535  0.4622  0.2626
  566poe    c23 4629   3.601   1.673   5.155  0.4206 -0.1236 -0.4004
  566poe    c23 4630   3.656   1.537   5.109  0.2187 -0.4892  0.4237
  566poe     o2 4631   3.771   1.544   5.028 -0.2129  0.1427 -0.1435
  566poe    c31 4632   3.842   1.422   5.026 -0.5821 -0.0784  0.0257
  567poe    c31 4633   6.365   2.618   0.352  0.4383  0.8810 -0.2271
  567poe     o2 4634   6.291   2.673   0.459  0.0467 -0.1396  0.0364
  567poe    c23 4635   6.156   2.631   0.466  0.0306 -0.0607  0.2099
  567poe    c23 4636   6.078   2.695   0.582 -0.2970  0.3031 -0.2042
  567poe     o2 4637   6.106   2.833   0.579  0.0312  0.2447  0.0700
  567poe    c23 4638   6.031   2.912   0.668 -0.2366  0.2086 -0.1192
  567poe    c23 4639   6.121   3.034   0.701 -0.2033  0.1397  0.0474
  567poe     o2 4640   6.171   3.078   0.577  0.4542  0.1604  0.3173
  567poe    c23 4641   6.296   3.142   0.580  0.1609  0.7369  0.3408
  567poe    c23 4642   6.416   3.050   0.608 -0.3867  0.0062  0.3147
  567poe     o2 4643   6.406   2.927   0.539  0.0632  0.1486 -0.0140
  567poe    c31 4644   6.531   2.864   0.553  0.2344  0.4670 -0.0980
  568poe    c31 4645   6.502   3.841   3.178  0.0846  0.3625 -0.1179
  568poe     o2 4646   6.549   3.868   3.307  0.7639 -0.2432 -0.2341
  568poe    c23 4647   6.497   3.990   3.356 -0.2565 -0.5260 -0.6010
  568poe    c23 4648   6.483   3.982   3.509  0.1284 -0.2919 -0.5535
  568poe     o2 4649   6.436   3.854   3.546 -0.4253  0.0440 -0.0843
  568poe    c23 4650   6.365   3.848   3.668  0.1913  0.0628  0.2839
  568poe    c23 4651   6.360   3.705   3.724  0.2710  0.0334  0.2152
  568poe     o2 4652   6.337   3.617   3.616 -0.4011 -0.0348  0.4072
  568poe    c23 4653   6.330   3.484   3.660  0.2955 -0.0412  0.5229
  568poe    c23 4654   6.266   3.386   3.560  0.6441  0.2478  0.0133
  568poe     o2 4655   6.321   3.369   3.431 -0.0938 -0.1186 -0.2643
  568poe    c31 4656   6.264   3.259   3.365  0.2561 -0.3697 -0.1491
  569poe    c31 4657   2.836   1.239   2.228 -0.0552 -0.2623  0.8445
  569poe     o2 4658   2.939   1.333   2.207 -0.4715 -0.0939 -0.5296
  569poe    c23 4659   2.895   1.447   2.137  0.5617  0.4241 -0.3573
  569poe    c23 4660   3.010   1.548   2.126  0.6084  0.3416 -0.6416
  569poe     o2 4661   3.124   1.469   2.099  0.2901 -0.3018 -0.1220
  569poe    c23 4662   3.244   1.534   2.066  0.0140 -0.0532 -0.6590
  569poe    c23 4663   3.342   1.421   2.026  0.6645  0.2445  0.0627
  569poe     o2 4664   3.310   1.313   2.110 -0.3794  0.1828 -0.3982
  569poe    c23 4665   3.355   1.187   2.064 -0.6428  0.1763 -0.6369
  569poe    c23 4666   3.279   1.084   2.150  0.1901  0.1929  0.1243
  569poe     o2 4667   3.148   1.126   2.181  0.0474 -0.2847  0.1701
  569poe    c31 4668   3.086   1.025   2.257 -0.4377 -0.0956  0.0311
  570poe    c31 4669   2.627   2.820   3.743 -0.0099  0.1269 -0.5535
  570poe     o2 4670   2.695   2.938   3.710  0.2643  0.3694  0.8199
  570poe    c23 4671   2.830   2.934   3.750  0.4540 -0.3310  0.1209
  570poe    c23 4672   2.890   3.062   3.689  0.0348 -0.1103  0.1675
  570poe     o2 4673   2.788   3.158   3.704  0.1307  0.0185 -0.0082
  570poe    c23 4674   2.833   3.288   3.674 -0.0014  0.1491  0.3581
  570poe    c23 4675   2.702   3.366   3.655  0.2463  0.3596 -0.5597
  570poe     o2 4676   2.609   3.274   3.603  0.4640 -0.3199  0.2355
  570poe    c23 4677   2.484   3.339   3.597  0.4460 -0.3417  0.3744
  570poe    c23 4678   2.399   3.219   3.554  0.5013 -0.1437 -0.3004
  570poe     o2 4679   2.440   3.108   3.631  0.2101  0.0028  0.0674
  570poe    c31 4680   2.319   3.042   3.663  0.3478 -0.3489 -0.1384
  571poe    c31 4681   6.732   2.616   2.568  0.1686 -0.1219 -0.0923
  571poe     o2 4682   6.762   2.747   2.612 -0.1187 -0.1927  0.3139
  571poe    c23 4683   6.781   2.742   2.752  0.1801 -0.0804  0.2766
  571poe    c23 4684   6.784   2.891   2.793  0.1910  0.0496 -0.1880
  571poe     o2 4685   6.876   2.955   2.708  0.5923  0.0909  0.2768
  571poe    c23 4686   6.918   3.085   2.745  0.1005  0.2997  0.1092
  571poe    c23 4687   7.014   3.129   2.633 -0.6194  0.0690 -0.6124
  571poe     o2 4688   6.977   3.069   2.511 -0.3001 -0.4702 -0.4477
  571poe    c23 4689   6.893   3.153   2.435 -0.3458  0.1227  0.2420
  571poe    c23 4690   6.794   3.062   2.360  0.4759 -0.3704 -0.2631
  571poe     o2 4691   6.751   2.948   2.430  0.0793  0.2486  0.5113
  571poe    c31 4692   6.633   2.894   2.375  0.2637 -0.2766  0.6296
  572poe    c31 4693   3.203   2.190   3.313 -0.0178 -0.3341 -0.2265
  572poe     o2 4694   3.186   2.231   3.179 -0.1461  0.1751 -0.0567
  572poe    c23 4695   3.059   2.183   3.141 -0.3407  0.1895  0.5502
  572poe    c23 4696   3.015   2.225   2.999  0.5393 -0.3300  0.1153
  572poe     o2 4697   3.051   2.361   2.986 -0.3232 -0.1021  0.0339
  572poe    c23 4698   3.091   2.397   2.855 -0.5711  0.5363  0.1298
  572poe    c23 4699   3.157   2.534   2.874  0.4067  0.1143 -0.1587
  572poe     o2 4700   3.236   2.537   2.991  0.4153  0.1129 -0.1643
  572poe    c23 4701   3.294   2.658   3.035 -0.1554  0.1353  0.5564
  572poe    c23 4702   3.409   2.597   3.116 -0.2374  0.1635  0.6937
  572poe     o2 4703   3.351   2.498   3.199 -0.3140 -0.3081  0.0820
  572poe    c31 4704   3.429   2.476   3.314  0.4851 -1.1940 -0.6230
  573poe    c31 4705   6.534   3.572   4.155 -0.0382  0.2824  0.2988
  573poe     o2 4706   6.492   3.613   4.283 -0.0992 -0.3910  0.4945
  573poe    c23 4707   6.589   3.711   4.311  0.0043 -0.2312 -0.4011
  573poe    c23 4708   6.553   3.765   4.451  0.8942 -0.0729 -0.2296
  573poe     o2 4709   6.492   3.666   4.531  0.9084 -0.3282 -0.5299
  573poe    c23 4710   6.561   3.609   4.639  0.1945 -0.1419  0.0348
  573poe    c23 4711   6.474   3.493   4.690  0.5614 -0.4246  0.0231
  573poe     o2 4712   6.418   3.435   4.574 -0.8049 -0.0160  0.4604
  573poe    c23 4713   6.463   3.303   4.552 -0.0955  0.3245 -0.1827
  573poe    c23 4714   6.406   3.255   4.418 -0.2794 -0.1584  0.0666
  573poe     o2 4715   6.417   3.350   4.315 -0.1504 -0.0486  0.1817
  573poe    c31 4716   6.341   3.302   4.206 -0.1971 -0.2058  0.2841
  574poe    c31 4717   5.215   0.237   5.398  0.8158  0.1017 -0.2029
  574poe     o2 4718   5.176   0.213   5.264  0.3775  0.0816 -0.0722
  574poe    c23 4719   5.172   0.330   5.186 -0.4209  0.3371  0.3345
  574poe    c23 4720   5.156   0.291   5.038 -0.8108 -0.0787  0.4823
  574poe     o2 4721   5.223   0.169   5.015 -0.1567  0.4022 -0.2321
  574poe    c23 4722   5.172   0.115   4.896 -0.1540 -0.1501  0.0143
  574poe    c23 4723   5.132  -0.032   4.922  0.3645 -0.2353  0.3594
  574poe     o2 4724   5.064  -0.021   5.045 -0.3572  0.0918 -0.0579
  574poe    c23 4725   5.015  -0.142   5.097 -0.0082  0.0685  0.2236
  574poe    c23 4726   4.932  -0.100   5.220 -0.3600 -0.8181  0.3026
  574poe     o2 4727   5.027  -0.029   5.295 -0.7981  0.6307 -0.4708
  574poe    c31 4728   4.972   0.005   5.420 -0.4051  0.1462 -0.1612
  575poe    c31 4729   0.947   0.381   0.854 -0.2417  0.1311  0.1728
  575poe     o2 4730   0.811   0.415   0.871 -0.4605 -0.4478 -0.3864
  575poe    c23 4731   0.763   0.407   1.003 -0.4803 -0.0333 -0.3675
  575poe    c23 4732   0.658   0.510   1.051 -0.3067 -0.5318  1.1301
  575poe     o2 4733   0.531   0.497   0.991  0.1729  0.1501 -0.0686
  575poe    c23 4734   0.447   0.610   0.996 -0.1055 -0.0481 -0.2409
  575poe    c23 4735   0.316   0.581   0.921 -0.2767 -0.1170  0.0806
  575poe     o2 4736   0.348   0.548   0.787 -0.7339 -0.0838 -0.0404
  575poe    c23 4737   0.264   0.617   0.699 -0.0882  0.9003  0.0926
  575poe    c23 4738   0.259   0.524   0.576  0.1870  0.5394  0.3544
  575poe     o2 4739   0.390   0.481   0.544 -0.1135 -0.1441  0.0313
  575poe    c31 4740   0.389   0.424   0.415  0.4479 -0.5354  0.1958
  576poe    c31 4741   1.736   0.546   2.517  0.1831 -0.1096  0.1265
  576poe     o2 4742   1.803   0.656   2.576 -0.0054  0.0598  0.0265
  576poe    c23 4743   1.890   0.619   2.681 -0.6342  0.1387  0.5875
  576poe    c23 4744   1.972   0.733   2.744  0.2263 -0.0227 -0.2159
  576poe     o2 4745   1.907   0.845   2.799  0.6065  0.2092 -0.2346
  576poe    c23 4746   1.998   0.953   2.792  0.5994  0.2445  0.2056
  576poe    c23 4747   1.923   1.063   2.869  0.1293  0.1401 -0.1056
  576poe     o2 4748   1.795   1.071   2.809  0.1968  0.3219 -0.2265
  576poe    c23 4749   1.719   1.178   2.860 -0.3589 -0.4255  0.5506
  576poe    c23 4750   1.592   1.194   2.774  0.2583  0.3152 -0.2508
  576poe     o2 4751   1.523   1.071   2.771 -0.1124  0.4975  0.4635
  576poe    c31 4752   1.401   1.095   2.704  0.3470  0.1533 -0.5168
  577poe    c31 4753   2.115   2.472   4.225  0.1219  0.2167  0.3679
  577poe     o2 4754   2.156   2.596   4.278  0.1411  0.2270  0.3293
  577poe    c23 4755   2.176   2.689   4.174 -0.9378 -0.0241 -0.1181
  577poe    c23 4756   2.210   2.832   4.219  0.3274 -0.3409 -0.0067
  577poe     o2 4757   2.266   2.817   4.347  0.4155 -0.0682 -0.0129
  577poe    c23 4758   2.341   2.923   4.401  0.5036  0.3913 -1.0181
  577poe    c23 4759   2.470   2.851   4.445 -0.0880 -0.5205 -0.7554
  577poe     o2 4760   2.414   2.742   4.515 -0.0875  0.1066  0.2390
  577poe    c23 4761   2.503   2.662   4.590 -0.3850  0.1626  0.6570
  577poe    c23 4762   2.425   2.530   4.608  0.0819 -0.1845  0.1763
  577poe     o2 4763   2.349   2.507   4.492  0.2072  0.0163  0.0532
  577poe    c31 4764   2.329   2.368   4.493 -0.3925  0.0969 -0.1591
  578poe    c31 4765   1.536   1.724   1.618  0.0858 -0.1886 -0.0755
  578poe     o2 4766   1.574   1.661   1.498  0.3356 -0.4428  0.1358
  578poe    c23 4767   1.527   1.736   1.388 -0.4838 -0.1481  0.6849
  578poe    c23 4768   1.575   1.665   1.261  0.1518  0.4880  0.5658
  578poe     o2 4769   1.564   1.527   1.285  0.6462  0.3111 -0.1724
  578poe    c23 4770   1.562   1.441   1.173  0.6317  0.0432  0.0307
  578poe    c23 4771   1.540   1.302   1.236 -0.7568  0.3116  0.1705
  578poe     o2 4772   1.609   1.307   1.359  0.0265 -0.2101 -0.2370
  578poe    c23 4773   1.604   1.193   1.442  0.5046 -0.0404  0.0265
  578poe    c23 4774   1.504   1.200   1.560  0.6348 -0.6998  0.1767
  578poe     o2 4775   1.511   1.330   1.613 -0.2400 -0.4827 -0.2380
  578poe    c31 4776   1.429   1.341   1.727  0.1798  0.2291 -0.0023
  579poe    c31 4777   0.756   2.116   1.286  0.9279 -0.3509 -0.2183
  579poe     o2 4778   0.711   2.019   1.378 -0.3181  0.1363 -0.2954
  579poe    c23 4779   0.631   2.088   1.471  0.4491  0.2463  0.2908
  579poe    c23 4780   0.639   2.015   1.606  0.0080  0.0672  0.2229
  579poe     o2 4781   0.625   1.881   1.566  0.2680  0.2434 -0.4770
  579poe    c23 4782   0.622   1.800   1.682 -0.3742  0.0656 -0.6152
  579poe    c23 4783   0.575   1.665   1.625 -0.0032 -0.1272 -0.4664
  579poe     o2 4784   0.664   1.636   1.519  0.2330  0.0053 -0.3034
  579poe    c23 4785   0.615   1.527   1.445 -0.4153  0.0268  0.0861
  579poe    c23 4786   0.681   1.551   1.308 -0.1737 -0.3656  0.1313
  579poe     o2 4787   0.702   1.689   1.292 -0.3778 -0.4082 -0.5692
  579poe    c31 4788   0.767   1.709   1.169  0.3566  0.6042 -0.0320
  580poe    c31 4789   4.883   2.669   3.962 -0.5882 -0.0544  0.2166
  580poe     o2 4790   4.869   2.763   3.858 -0.3872  0.0812  0.3118
  580poe    c23 4791   4.738   2.779   3.809 -0.1894  0.8961  0.0200
  580poe    c23 4792   4.711   2.830   3.666 -0.1079 -0.2681 -0.4280
  580poe     o2 4793   4.825   2.906   3.633 -0.3683  0.0174 -0.6701
  580poe    c23 4794   4.825   2.938   3.496  0.1557 -0.0487 -0.6883
  580poe    c23 4795   4.946   3.028   3.465  0.0109  0.4956  0.2899
  580poe     o2 4796   5.045   2.994   3.558  0.0627  0.4342  0.2122
  580poe    c23 4797   5.079   3.095   3.649 -0.0621  0.2455  0.4707
  580poe    c23 4798   5.174   3.031   3.753 -0.0804 -0.0775  0.2883
  580poe     o2 4799   5.107   2.949   3.846 -0.0769 -0.2461  0.1424
  580poe    c31 4800   5.179   2.879   3.946 -0.5020 -0.4130  0.3311
  581poe    c31 4801   1.351   5.254   2.645 -0.3955 -0.1636 -0.0693
  581poe     o2 4802   1.223   5.309   2.624 -0.4487 -0.2080  0.1415
  581poe    c23 4803   1.218   5.354   2.491  0.6880  0.2364  0.2439
  581poe    c23 4804   1.083   5.422   2.464  0.5756  0.1998  0.7149
  581poe     o2 4805   0.993   5.340   2.535  0.7188 -0.3997  0.2071
  581poe    c23 4806   0.857   5.372   2.518  0.5691 -0.9739  0.2962
  581poe    c23 4807   0.764   5.268   2.583  0.2556 -0.8734  0.0145
  581poe     o2 4808   0.816   5.202   2.697  0.5997  0.0515  0.4013
  581poe    c23 4809   0.800   5.277   2.816 -0.2362  0.7597 -0.1391
  581poe    c23 4810   0.925   5.260   2.904 -0.6121 -0.5925  0.1696
  581poe     o2 4811   1.047   5.275   2.835 -0.7342  0.6031  0.1774
  581poe    c31 4812   1.152   5.264   2.929 -0.0222  0.0511 -0.6615
  582poe    c31 4813   5.445   4.804   5.881  0.2020 -0.1047  0.4954
  582poe     o2 4814   5.461   4.813   5.741 -0.2153 -0.8825  0.3898
  582poe    c23 4815   5.599   4.833   5.720 -0.3982  0.2880  0.2355
  582poe    c23 4816   5.611   4.899   5.581 -0.3251  0.1957  0.1986
  582poe     o2 4817   5.536   4.812   5.499  0.3342 -0.0130 -0.1913
  582poe    c23 4818   5.543   4.841   5.361 -0.0867 -0.0307 -0.2157
  582poe    c23 4819   5.454   4.739   5.288 -0.1756 -0.0794 -0.0416
  582poe     o2 4820   5.342   4.742   5.373  0.3155 -0.1134  0.6093
  582poe    c23 4821   5.236   4.826   5.333 -0.2086 -0.9541  0.2162
  582poe    c23 4822   5.145   4.825   5.457 -0.4455 -0.7532  0.0453
  582poe     o2 4823   5.210   4.826   5.582 -0.2013 -0.3704 -0.0810
  582poe    c31 4824   5.102   4.792   5.667  0.3260  0.1524  0.8147
  583poe    c31 4825   3.819   0.833   0.036 -0.0431 -0.1468  0.8890
  583poe     o2 4826   3.842   0.943   0.121  0.0572  0.3463  0.2265
  583poe    c23 4827   3.796   1.073   0.090 -0.4254  0.2613  0.5812
  583poe    c23 4828   3.878   1.183   0.160 -0.0680  0.0218  0.5428
  583poe     o2 4829   4.012   1.142   0.148 -0.0145  0.3165  0.0865
  583poe    c23 4830   4.101   1.251   0.143 -0.0926  0.3851  0.2027
  583poe    c23 4831   4.240   1.201   0.101  0.2420  0.9216  0.6497
  583poe     o2 4832   4.282   1.099   0.189 -0.2639 -0.4643 -0.6551
  583poe    c23 4833   4.419   1.066   0.192 -0.2394 -0.3493 -0.4286
  583poe    c23 4834   4.472   0.955   0.099  0.1597 -0.4621 -0.0672
  583poe     o2 4835   4.407   0.831   0.113 -0.0195 -0.3650 -0.0366
  583poe    c31 4836   4.500   0.727   0.134  0.1644 -0.3045 -0.5437
  584poe    c31 4837   6.461   1.330   1.853  0.2561  0.3343  0.0426
  584poe     o2 4838   6.332   1.355   1.800  0.0632 -0.2553  0.2317
  584poe    c23 4839   6.325   1.291   1.674  0.3418  0.1512  0.0065
  584poe    c23 4840   6.189   1.325   1.610  0.2272  0.4801  0.4168
  584poe     o2 4841   6.095   1.320   1.715 -0.2348  0.6428  0.0148
  584poe    c23 4842   5.967   1.341   1.661 -0.3465  0.5599  0.2475
  584poe    c23 4843   5.877   1.367   1.783 -0.0523 -0.0672  0.6053
  584poe     o2 4844   5.951   1.442   1.877  0.3216  0.0788  0.1942
  584poe    c23 4845   5.874   1.481   1.988  0.1600 -0.0143  0.1147
  584poe    c23 4846   5.956   1.563   2.089 -0.0680 -0.4154  0.6323
  584poe     o2 4847   6.070   1.488   2.126  0.4621 -0.0817 -0.2800
  584poe    c31 4848   6.150   1.575   2.203 -0.1477  0.1318  0.1176
  585poe    c31 4849   1.844   0.931   1.663  0.5467  0.0927  0.3151
  585poe     o2 4850   1.960   0.856   1.691  0.4973 -0.0895  0.0386
  585poe    c23 4851   1.928   0.771   1.799  0.1065 -0.0848 -0.0700
  585poe    c23 4852   1.997   0.634   1.781  0.4250  0.0717 -0.0381
  585poe     o2 4853   2.133   0.661   1.752  0.3388  0.1899 -0.3333
  585poe    c23 4854   2.209   0.556   1.699 -0.0624 -0.1602 -0.2203
  585poe    c23 4855   2.352   0.612   1.697 -0.0734 -0.1121  0.2129
  585poe     o2 4856   2.324   0.742   1.649 -0.0369 -0.3304 -0.4130
  585poe    c23 4857   2.419   0.843   1.675 -0.2852 -0.2457  0.1821
  585poe    c23 4858   2.347   0.971   1.721  0.1122  0.1481 -0.2767
  585poe     o2 4859   2.214   0.983   1.675  0.0387  0.1327 -0.0702
  585poe    c31 4860   2.164   1.110   1.712 -0.3610  0.0197 -0.2197
  586poe    c31 4861   5.402   3.747   1.971  0.5889 -0.6337  0.6652
  586poe     o2 4862   5.272   3.771   1.922  0.6778 -0.9575  0.2647
  586poe    c23 4863   5.190   3.674   1.985 -0.3638 -0.1511  0.1921
  586poe    c23 4864   5.045   3.716   1.957 -0.3080  0.0784  0.2435
  586poe     o2 4865   5.008   3.833   2.027  0.2157  0.4261 -0.0594
  586poe    c23 4866   4.982   3.943   1.943 -0.7496  0.2095 -0.0534
  586poe    c23 4867   4.969   4.070   2.029  0.3218  0.2589  0.0437
  586poe     o2 4868   4.883   4.031   2.133  0.1212 -0.1143 -0.2582
  586poe    c23 4869   4.804   4.136   2.184 -0.0582 -0.3020 -0.1473
  586poe    c23 4870   4.775   4.119   2.334 -0.5977  0.4587 -0.1601
  586poe     o2 4871   4.728   3.987   2.351  0.8056  0.0040  0.3534
  586poe    c31 4872   4.686   3.968   2.484  0.1321 -0.5024  0.0705
  587poe    c31 4873   6.059   2.595   4.838 -0.0237  0.1022  0.3872
  587poe     o2 4874   6.116   2.724   4.825 -0.2365  0.1365 -0.2376
  587poe    c23 4875   6.213   2.715   4.723 -0.1814 -0.3526 -0.1460
  587poe    c23 4876   6.303   2.840   4.728 -0.1864 -0.3450 -0.2334
  587poe     o2 4877   6.291   2.881   4.862  0.0418 -0.2078 -0.2545
  587poe    c23 4878   6.362   3.002   4.878  0.0481 -0.2566  0.0837
  587poe    c23 4879   6.319   3.046   5.020  0.7925 -0.5696  0.4124
  587poe     o2 4880   6.187   3.004   5.048  0.3630  0.4246 -0.0941
  587poe    c23 4881   6.150   3.016   5.183  0.5252  0.4169 -0.0482
  587poe    c23 4882   6.009   2.960   5.157  0.5641  0.5493 -0.5569
  587poe     o2 4883   6.011   2.841   5.082 -0.2658  0.1092  0.1041
  587poe    c31 4884   5.879   2.790   5.089 -0.3223  0.2607  0.1340
  588poe    c31 4885   5.620   6.321   2.109 -0.2964  0.0434  0.5167
  588poe     o2 4886   5.508   6.396   2.067  0.1969  0.3985 -0.1942
  588poe    c23 4887   5.449   6.454   2.181  0.2171  0.1563 -0.0598
  588poe    c23 4888   5.312   6.514   2.145  0.3065  0.5057  0.1727
  588poe     o2 4889   5.309   6.565   2.014 -0.0840  0.2389  0.0745
  588poe    c23 4890   5.293   6.705   2.005  1.1910  0.3846 -0.0943
  588poe    c23 4891   5.293   6.742   1.855  0.1228 -0.3122 -0.2807
  588poe     o2 4892   5.408   6.677   1.806  0.3040 -0.1369 -0.0909
  588poe    c23 4893   5.531   6.743   1.830  0.1485  0.3117 -0.5274
  588poe    c23 4894   5.647   6.645   1.803 -0.1871 -0.0800 -0.5742
  588poe     o2 4895   5.594   6.519   1.834 -0.2197  0.0067 -0.2769
  588poe    c31 4896   5.683   6.423   1.782 -0.3949 -0.0187 -0.5278
  589poe    c31 4897   0.621   3.020   4.423  0.1165 -0.2826 -0.1581
  589poe     o2 4898   0.572   2.899   4.370 -0.0287 -0.0184 -0.6319
  589poe    c23 4899   0.436   2.916   4.338 -0.3768 -1.0553  0.2442
  589poe    c23 4900   0.396   2.840   4.210  0.3156 -0.2936 -0.4356
  589poe     o2 4901   0.473   2.722   4.211  0.5580 -0.1432 -0.9894
  589poe    c23 4902   0.387   2.620   4.258  0.3101  0.4735 -0.0965
  589poe    c23 4903   0.468   2.491   4.272 -0.3193  0.0654 -0.1850
  589poe     o2 4904   0.573   2.546   4.349 -0.2252 -0.5444  0.1341
  589poe    c23 4905   0.681   2.457   4.365 -0.0206 -0.2735  0.2716
  589poe    c23 4906   0.784   2.541   4.442  0.0159  0.0656 -0.1471
  589poe     o2 4907   0.801   2.670   4.389 -0.4635  0.2499  0.1468
  589poe    c31 4908   0.900   2.734   4.466  0.0735 -0.1400 -0.2133
  590poe    c31 4909   0.373   4.008   1.347 -0.3219 -0.0869  0.3177
  590poe     o2 4910   0.489   4.039   1.423 -0.0071 -0.4116 -0.0247
  590poe    c23 4911   0.559   4.151   1.374  0.0152 -0.5143 -0.2265
  590poe    c23 4912   0.687   4.187   1.451 -0.2716 -0.1567  0.0852
  590poe     o2 4913   0.666   4.201   1.590 -0.4312  0.0207  0.0428
  590poe    c23 4914   0.689   4.324   1.654 -0.5033  0.2540 -0.3758
  590poe    c23 4915   0.641   4.324   1.800  0.0103 -0.1077 -0.2071
  590poe     o2 4916   0.686   4.209   1.869 -0.1106  0.0513  0.1382
  590poe    c23 4917   0.646   4.209   2.004 -0.1011 -0.3771  0.1402
  590poe    c23 4918   0.724   4.102   2.083 -0.0634 -0.4664 -0.0168
  590poe     o2 4919   0.674   3.977   2.040  0.0344 -0.4424 -0.2011
  590poe    c31 4920   0.726   3.869   2.115 -0.3798 -0.0871  0.6210
  591poe    c31 4921   0.008   4.835   1.424 -0.1209 -0.4122 -0.4128
  591poe     o2 4922   0.075   4.712   1.411 -0.1558 -0.4150 -0.5641
  591poe    c23 4923   0.161   4.680   1.518 -0.4125 -0.0896 -0.2621
  591poe    c23 4924   0.183   4.528   1.507 -0.1462 -0.0732  0.0106
  591poe     o2 4925   0.193   4.498   1.369 -0.4612  0.0578 -0.0408
  591poe    c23 4926   0.196   4.361   1.339 -0.2370 -0.0350  0.4061
  591poe    c23 4927   0.176   4.339   1.188 -0.0646  0.1701  0.3532
  591poe     o2 4928   0.065   4.425   1.181 -0.5265 -0.4630 -0.1497
  591poe    c23 4929  -0.016   4.411   1.067  0.1622  0.0858 -0.7091
  591poe    c23 4930  -0.084   4.548   1.045 -0.2721 -0.0581 -0.2613
  591poe     o2 4931  -0.091   4.612   1.170 -0.2336 -0.5856  0.0168
  591poe    c31 4932  -0.196   4.707   1.172  0.0470 -0.2656 -0.2606
  592poe    c31 4933   4.217   2.016   2.372  0.0142  0.2736 -0.3547
  592poe     o2 4934   4.153   2.129   2.429  0.1193 -0.0488  0.4208
  592poe    c23 4935   4.225   2.172   2.542  0.6540  0.8001 -0.2293
  592poe    c23 4936   4.158   2.297   2.601 -0.0208  0.4051 -0.1504
  592poe     o2 4937   4.084   2.364   2.502 -0.0979  0.7083  0.1107
  592poe    c23 4938   4.164   2.460   2.437  0.4912 -0.1669 -0.4774
  592poe    c23 4939   4.088   2.482   2.304  0.0952 -0.2229 -0.2630
  592poe     o2 4940   4.059   2.353   2.255 -0.4059 -0.2985  0.2201
  592poe    c23 4941   3.956   2.367   2.159  0.1908 -0.1115 -0.4065
  592poe    c23 4942   3.932   2.232   2.089  0.2457 -0.2040 -0.2471
  592poe     o2 4943   3.923   2.154   2.207 -0.5283  0.4662  0.1494
  592poe    c31 4944   3.854   2.033   2.189 -0.0939  0.1776  0.4072
  593poe    c31 4945   4.663   2.764   2.475 -0.4356 -0.1188 -0.2374
  593poe     o2 4946   4.690   2.876   2.556 -0.3870 -0.2491 -0.0734
  593poe    c23 4947   4.574   2.908   2.630 -0.1523 -0.2825  0.3107
  593poe    c23 4948   4.566   3.055   2.584 -0.0687 -0.3001  0.2387
  593poe     o2 4949   4.693   3.108   2.612 -0.2379  0.0906  0.2824
  593poe    c23 4950   4.697   3.239   2.562 -0.1920 -0.0561 -0.1056
  593poe    c23 4951   4.829   3.307   2.603 -0.2494  0.3487 -0.5871
  593poe     o2 4952   4.931   3.227   2.547  0.0368  0.0203  0.3925
  593poe    c23 4953   5.062   3.279   2.546 -0.0977  0.3643  0.5037
  593poe    c23 4954   5.177   3.177   2.559 -0.2824  0.1268  0.2642
  593poe     o2 4955   5.183   3.070   2.468  0.3898 -0.1327  0.6107
  593poe    c31 4956   5.320   3.034   2.461  0.4348  0.2016 -0.3778
  594poe    c31 4957   2.480   1.324   4.841  0.5655 -0.3827 -0.3059
  594poe     o2 4958   2.490   1.221   4.745  0.1599 -0.3186 -0.4149
  594poe    c23 4959   2.597   1.134   4.772  0.0746 -0.3486 -0.1720
  594poe    c23 4960   2.707   1.167   4.669  0.4838 -0.1226  0.3329
  594poe     o2 4961   2.639   1.158   4.546  0.0944 -0.0545  0.5404
  594poe    c23 4962   2.717   1.212   4.442 -0.5901  0.1664  0.1351
  594poe    c23 4963   2.619   1.259   4.332 -0.3652 -0.8745 -0.5283
  594poe     o2 4964   2.512   1.314   4.405  0.0749  0.1802 -0.6599
  594poe    c23 4965   2.407   1.363   4.325  0.0478  0.5509 -0.4045
  594poe    c23 4966   2.314   1.414   4.436  0.4505  0.7017 -0.1365
  594poe     o2 4967   2.323   1.321   4.542  0.3360  0.9341  0.0785
  594poe    c31 4968   2.195   1.301   4.596  0.2897 -0.5102 -0.5232
  595poe    c31 4969   0.652   1.578   5.100  0.3474  0.0924 -0.1182
  595poe     o2 4970   0.792   1.592   5.096  0.3759  0.0394  0.5458
  595poe    c23 4971   0.854   1.495   5.178  0.3718 -0.1482  0.3280
  595poe    c23 4972   0.996   1.533   5.221  0.4607 -0.2345  0.1150
  595poe     o2 4973   1.053   1.596   5.109  0.1032 -0.2288 -0.0644
  595poe    c23 4974   1.168   1.666   5.151 -0.1060 -0.1675  0.4118
  595poe    c23 4975   1.203   1.755   5.030 -0.2018 -0.2298  0.3384
  595poe     o2 4976   1.086   1.823   4.992 -0.0253  0.2561  0.6539
  595poe    c23 4977   1.101   1.903   4.877  0.5227 -0.5573  0.1518
  595poe    c23 4978   0.960   1.918   4.818  0.6193  0.0032  0.0543
  595poe     o2 4979   0.895   1.793   4.823  0.5369  0.0345 -0.2253
  595poe    c31 4980   0.775   1.776   4.750 -0.1780 -0.1585  0.9668
  596poe    c31 4981   4.737   5.466   0.339 -0.1471 -0.3063 -0.2499
  596poe     o2 4982   4.873   5.453   0.303 -0.1022 -0.8085  0.0927
  596poe    c23 4983   4.938   5.398   0.415  0.5253 -0.1755  0.0471
  596poe    c23 4984   5.083   5.359   0.382  0.3922 -0.2871 -0.4172
  596poe     o2 4985   5.185   5.445   0.427 -0.0623  0.1615 -0.2384
  596poe    c23 4986   5.306   5.378   0.457  0.0222  0.1278 -0.6484
  596poe    c23 4987   5.416   5.484   0.476  0.5121 -0.4253 -0.4163
  596poe     o2 4988   5.362   5.584   0.558  0.4367 -0.4905 -0.3865
  596poe    c23 4989   5.446   5.694   0.585 -0.0160 -0.1803 -0.2204
  596poe    c23 4990   5.367   5.786   0.680  0.2921  0.0885 -0.2220
  596poe     o2 4991   5.230   5.756   0.693  0.4970 -0.6923  0.2201
  596poe    c31 4992   5.168   5.833   0.793  0.0884 -0.4060 -0.2490
  597poe    c31 4993   0.128   5.178   3.192  0.1861  0.0708  0.4186
  597poe     o2 4994  -0.003   5.127   3.197  0.1656 -0.0210 -0.9051
  597poe    c23 4995  -0.003   4.997   3.250  0.7553  0.3387  0.0005
  597poe    c23 4996  -0.117   4.990   3.353 -0.2131  0.3312 -1.0506
  597poe     o2 4997  -0.218   5.062   3.286 -0.6571  0.1316 -0.6035
  597poe    c23 4998  -0.337   5.059   3.361 -0.3103 -0.2724 -0.0573
  597poe    c23 4999  -0.414   5.169   3.284 -0.5132 -0.3102  0.0897
  597poe     o2 5000  -0.323   5.272   3.254 -0.9601  0.1470  0.2968
  597poe    c23 5001  -0.385   5.378   3.184 -0.2489  0.2735 -0.1489
  597poe    c23 5002  -0.266   5.442   3.109 -0.0215  0.2409  0.1790
  597poe     o2 5003  -0.189   5.332   3.066 -0.2654  0.2200 -0.2145
  597poe    c31 5004  -0.108   5.376   2.960 -0.2175  0.0483 -0.2497
  598poe    c31 5005   3.600   6.598   2.126 -0.4701  0.2496 -0.4237
  598poe     o2 5006   3.726   6.606   2.189 -0.2221  0.3451 -0.9285
  598poe    c23 5007   3.750   6.735   2.240  0.6420 -0.3308  0.4491
  598poe    c23 5008   3.902   6.736   2.261  0.7617  0.2814 -0.3661
  598poe     o2 5009   3.948   6.623   2.333  0.3202 -0.0177 -0.5502
  598poe    c23 5010   4.087   6.606   2.319  0.3488 -0.0888 -0.1845
  598poe    c23 5011   4.107   6.454   2.331  0.4818 -0.0661 -0.1149
  598poe     o2 5012   4.013   6.403   2.240  0.2588  0.1358 -0.0012
  598poe    c23 5013   3.998   6.262   2.240  0.2523  0.1368 -0.0229
  598poe    c23 5014   3.885   6.243   2.137 -0.2271 -0.0825  0.5344
  598poe     o2 5015   3.769   6.286   2.203 -0.5608 -0.0868 -0.0412
  598poe    c31 5016   3.661   6.222   2.139 -0.4249  0.6721 -1.0397
  599poe    c31 5017   1.457   5.512   5.911 -0.1084  0.3715  0.2196
  599poe     o2 5018   1.565   5.544   5.995  0.1961  0.0638 -0.0477
  599poe    c23 5019   1.656   5.436   5.994 -0.0625 -0.1494 -1.1883
  599poe    c23 5020   1.777   5.466   6.084 -0.6491  0.4689 -0.5988
  599poe     o2 5021   1.727   5.522   6.204  0.0365 -0.5678  0.1931
  599poe    c23 5022   1.804   5.615   6.277  0.1721 -0.4083 -0.1478
  599poe    c23 5023   1.812   5.750   6.204 -0.2675 -0.2325  0.1241
  599poe     o2 5024   1.679   5.788   6.176  0.0743  0.5204 -0.5200
  599poe    c23 5025   1.665   5.906   6.099 -0.7666  0.5600 -0.3139
  599poe    c23 5026   1.515   5.929   6.074 -0.9228 -0.0321  0.0554
  599poe     o2 5027   1.456   5.802   6.053 -0.0582 -0.4151 -0.0908
  599poe    c31 5028   1.330   5.836   6.002  0.0781 -0.3859 -0.4109
  600poe    c31 5029   1.262   6.502   1.651  0.4008 -0.2566  0.5000
  600poe     o2 5030   1.299   6.637   1.631 -0.0832 -0.2379 -0.3141
  600poe    c23 5031   1.422   6.639   1.562  0.0544  0.0800 -0.0655
  600poe    c23 5032   1.455   6.786   1.534  0.3228 -0.0745 -0.5751
  600poe     o2 5033   1.358   6.862   1.466 -0.1735  0.1247  0.3356
  600poe    c23 5034   1.402   6.996   1.462  0.3100 -0.0330  0.3341
  600poe    c23 5035   1.275   7.079   1.437  0.0988 -0.4858 -0.1305
  600poe     o2 5036   1.203   7.029   1.327  0.0216 -0.0062 -0.3023
  600poe    c23 5037   1.079   7.082   1.287  0.0944  0.1176 -0.3655
  600poe    c23 5038   1.036   7.011   1.157  0.2086 -0.1812 -0.2410
  600poe     o2 5039   1.049   6.871   1.173 -0.0643 -0.1935 -0.1124
  600poe    c31 5040   0.972   6.821   1.066  0.1020 -0.3941 -0.1390
  601poe    c31 5041   3.530   5.411   0.488  0.2563  0.5221 -1.0861
  601poe     o2 5042   3.389   5.418   0.492  0.2494 -0.0508  0.0674
  601poe    c23 5043   3.364   5.490   0.374  0.3675  0.4456  0.3436
  601poe    c23 5044   3.215   5.516   0.344  0.1941 -0.4688  0.3852
  601poe     o2 5045   3.153   5.568   0.459 -0.3621 -0.3882  0.0501
  601poe    c23 5046   3.020   5.545   0.500 -0.4428 -0.2948 -0.1596
  601poe    c23 5047   3.014   5.400   0.552  0.0108 -0.2483  0.0212
  601poe     o2 5048   3.116   5.387   0.648 -0.2165 -0.0327  0.2932
  601poe    c23 5049   3.125   5.260   0.708  0.2832 -0.3153 -0.3619
  601poe    c23 5050   3.245   5.268   0.804 -0.2181  0.0141  0.2535
  601poe     o2 5051   3.357   5.330   0.744 -0.3403  0.1581  0.1758
  601poe    c31 5052   3.462   5.313   0.836 -0.7431  0.0462  0.6199
  602poe    c31 5053   6.309   0.740   4.973  0.6178 -0.1873 -0.3443
  602poe     o2 5054   6.361   0.756   5.103  0.0113 -0.0012 -0.1202
  602poe    c23 5055   6.501   0.763   5.088  0.0047 -0.0362 -0.1957
  602poe    c23 5056   6.575   0.723   5.217 -0.1502  0.2488 -0.0172
  602poe     o2 5057   6.498   0.772   5.324 -0.1957 -0.0105  0.0697
  602poe    c23 5058   6.550   0.740   5.451 -0.1035 -0.1693 -0.0082
  602poe    c23 5059   6.481   0.811   5.569 -0.2611 -0.1711 -0.0977
  602poe     o2 5060   6.355   0.777   5.621 -0.4203  0.8306  0.1805
  602poe    c23 5061   6.328   0.649   5.674  0.1823  0.5451 -0.1955
  602poe    c23 5062   6.176   0.640   5.696  0.1629  0.1883 -0.4768
  602poe     o2 5063   6.120   0.625   5.567 -0.2832  0.1884 -0.2853
  602poe    c31 5064   5.983   0.596   5.579 -0.1904 -0.0760  0.1712
  603poe    c31 5065   0.241   6.210   1.057  0.4435 -0.3577 -0.4328
  603poe     o2 5066   0.291   6.249   0.931  0.3831 -0.6817 -0.5569
  603poe    c23 5067   0.172   6.279   0.861  0.0666 -0.4480  0.0778
  603poe    c23 5068   0.236   6.385   0.770 -0.0790 -0.1996  0.2634
  603poe     o2 5069   0.345   6.328   0.701 -0.6131 -0.2228 -0.5688
  603poe    c23 5070   0.404   6.409   0.601 -0.2427 -0.1314 -0.2776
  603poe    c23 5071   0.549   6.363   0.577 -0.0711  0.3606 -0.1872
  603poe     o2 5072   0.590   6.309   0.700 -0.2496  0.0415 -0.2676
  603poe    c23 5073   0.688   6.208   0.687 -0.1090  0.1329  0.0590
  603poe    c23 5074   0.722   6.161   0.830 -0.4410  0.0389  0.1063
  603poe     o2 5075   0.603   6.171   0.905 -0.0396  0.3227  0.7054
  603poe    c31 5076   0.632   6.143   1.040 -0.5996 -0.2585  0.7070
  604poe    c31 5077   4.896   2.797   5.230 -0.9181 -0.6849  0.8352
  604poe     o2 5078   4.997   2.700   5.214 -0.0075  0.4780 -0.8319
  604poe    c23 5079   4.987   2.609   5.321  0.5032  0.7250 -0.5710
  604poe    c23 5080   5.082   2.489   5.305 -0.5333 -0.1807 -0.1000
  604poe     o2 5081   5.095   2.471   5.166  0.5287  0.5635 -0.1117
  604poe    c23 5082   5.222   2.417   5.139  0.3126 -0.2569  0.4666
  604poe    c23 5083   5.251   2.437   4.989  0.4235  0.0398  0.5258
  604poe     o2 5084   5.208   2.570   4.971  0.3570  0.0392  0.6836
  604poe    c23 5085   5.209   2.609   4.836 -0.8511 -0.3493  0.5512
  604poe    c23 5086   5.168   2.757   4.844 -0.0300 -0.1320  0.7739
  604poe     o2 5087   5.042   2.767   4.905 -0.4067  0.0974 -0.0243
  604poe    c31 5088   5.002   2.901   4.892  0.1850  0.2567 -0.2278
  605poe    c31 5089   5.263   6.609   3.750  0.0031  0.5707  0.1728
  605poe     o2 5090   5.172   6.617   3.643  0.2109  0.4016 -0.0182
  605poe    c23 5091   5.220   6.557   3.525 -0.1714 -0.0366  0.0420
  605poe    c23 5092   5.138   6.622   3.413 -0.5113  0.1751  0.4098
  605poe     o2 5093   5.008   6.630   3.465 -0.5061  0.7882  0.3429
  605poe    c23 5094   4.938   6.699   3.365 -0.1890  0.4602 -0.1068
  605poe    c23 5095   4.807   6.734   3.438 -0.3433  0.3053 -0.3077
  605poe     o2 5096   4.856   6.806   3.548 -0.0483 -0.1138 -0.1628
  605poe    c23 5097   4.758   6.823   3.648 -0.0123  0.2424 -0.1849
  605poe    c23 5098   4.826   6.881   3.774 -0.3459  0.3891 -0.0726
  605poe     o2 5099   4.943   6.804   3.781 -0.0800  0.7861 -0.1037
  605poe    c31 5100   5.016   6.860   3.888  0.3901  0.0993 -0.0580
  606poe    c31 5101   2.435   2.454   3.379 -0.3538  0.0526  0.1740
  606poe     o2 5102   2.358   2.466   3.497 -0.1907  0.0718  0.2781
  606poe    c23 5103   2.432   2.539   3.593  0.1089  0.1611 -0.0185
  606poe    c23 5104   2.374   2.495   3.728 -0.2244  0.3914 -0.0851
  606poe     o2 5105   2.237   2.523   3.706 -0.1391  0.6621 -0.2732
  606poe    c23 5106   2.151   2.495   3.814  0.1372  0.1222 -0.1888
  606poe    c23 5107   2.016   2.524   3.745 -0.2292 -0.6161  0.2049
  606poe     o2 5108   2.025   2.448   3.627  0.1846  0.0265 -0.1793
  606poe    c23 5109   1.907   2.450   3.551 -0.4187 -0.3144  0.7351
  606poe    c23 5110   1.935   2.356   3.432  0.1554  0.3892  0.3076
  606poe     o2 5111   2.066   2.393   3.397  0.0633  0.4562  0.0260
  606poe    c31 5112   2.108   2.338   3.274 -0.1447 -0.0433  0.1769
  607poe    c31 5113   5.617   4.942   2.692  0.0884  0.1568 -0.0234
  607poe     o2 5114   5.527   5.022   2.619  0.5069  0.1196 -0.5883
  607poe    c23 5115   5.589   5.099   2.518  0.0700  0.1596 -0.8306
  607poe    c23 5116   5.474   5.170   2.444 -0.4226  0.3754  0.1198
  607poe     o2 5117   5.366   5.087   2.480 -0.1192 -0.0645  0.0282
  607poe    c23 5118   5.245   5.141   2.430  0.0111  0.5497  0.3669
  607poe    c23 5119   5.140   5.030   2.447  0.5759 -0.0668 -0.0466
  607poe     o2 5120   5.148   4.996   2.584  0.1555 -0.3358 -0.0872
  607poe    c23 5121   5.163   4.857   2.569 -0.2373 -0.3478 -0.3967
  607poe    c23 5122   5.199   4.803   2.709  0.4981  0.5266 -0.2397
  607poe     o2 5123   5.311   4.879   2.749  0.1374  0.5656  0.7331
  607poe    c31 5124   5.343   4.843   2.881 -0.2521 -0.2526  0.6141
  608poe    c31 5125   3.366   1.562   2.986 -0.2498 -0.1737  0.0401
  608poe     o2 5126   3.442   1.469   2.912  0.3917  0.1998  0.2219
  608poe    c23 5127   3.415   1.333   2.936  0.0416  0.3392  0.6522
  608poe    c23 5128   3.511   1.244   2.854 -0.5200 -0.0453  0.4022
  608poe     o2 5129   3.633   1.315   2.858 -0.3759 -0.1717 -1.1191
  608poe    c23 5130   3.738   1.258   2.785 -0.0054 -0.1010 -0.6491
  608poe    c23 5131   3.872   1.334   2.795 -0.1115  0.0508 -0.3936
  608poe     o2 5132   3.841   1.469   2.768 -0.1666  0.1080 -0.0523
  608poe    c23 5133   3.967   1.530   2.753 -0.3216  0.3517 -0.3697
  608poe    c23 5134   3.971   1.683   2.732 -0.7310  0.3515 -0.4599
  608poe     o2 5135   3.897   1.758   2.826  0.1544 -0.0150  0.5608
  608poe    c31 5136   3.956   1.879   2.866  0.8526 -0.1298 -0.0806
  609poe    c31 5137   0.765   1.388   0.601  0.9932 -0.6508  0.2069
  609poe     o2 5138   0.835   1.364   0.480 -0.5440 -0.1023 -0.8159
  609poe    c23 5139   0.815   1.237   0.423 -0.1526 -0.2691 -0.5853
  609poe    c23 5140   0.859   1.234   0.275 -0.0619 -0.0507 -0.5629
  609poe     o2 5141   1.000   1.234   0.273 -0.0539 -0.4814 -0.1718
  609poe    c23 5142   1.041   1.197   0.143  0.0759  0.5123 -0.4219
  609poe    c23 5143   1.192   1.222   0.130  0.2405 -0.2492 -0.0706
  609poe     o2 5144   1.227   1.353   0.168 -0.3427 -0.0116 -0.3439
  609poe    c23 5145   1.366   1.365   0.185 -0.3125 -0.5137 -0.2401
  609poe    c23 5146   1.396   1.464   0.299  0.5421  0.0185 -0.9204
  609poe     o2 5147   1.296   1.561   0.280  0.1938 -0.1298  0.1140
  609poe    c31 5148   1.319   1.666   0.371  0.3091  0.0578 -0.1288
  610poe    c31 5149   3.684   4.113   3.212 -0.2158  0.2976 -0.4890
  610poe     o2 5150   3.550   4.092   3.253 -0.0192  1.0988  0.6046
  610poe    c23 5151   3.462   4.142   3.155 -0.0782 -0.4423 -0.1465
  610poe    c23 5152   3.322   4.095   3.199  0.1389 -0.2822  0.7290
  610poe     o2 5153   3.333   3.992   3.296 -0.0411 -0.7149  0.2948
  610poe    c23 5154   3.206   3.949   3.340 -0.5233  0.0929 -0.2668
  610poe    c23 5155   3.214   3.816   3.417 -0.6043  0.1482 -0.1624
  610poe     o2 5156   3.293   3.826   3.534 -0.1411  0.0170 -0.4580
  610poe    c23 5157   3.255   3.749   3.645 -0.3469 -0.0631 -0.5831
  610poe    c23 5158   3.142   3.810   3.731  0.2752 -0.1607  0.3177
  610poe     o2 5159   3.182   3.927   3.798  0.1041  0.1901 -0.1870
  610poe    c31 5160   3.079   4.023   3.807 -0.1016 -0.0256 -0.2103
  611poe    c31 5161   5.747   3.814   4.561  0.5269 -0.1837  0.3067
  611poe     o2 5162   5.710   3.950   4.571 -0.1000 -0.3024 -0.2599
  611poe    c23 5163   5.779   4.002   4.683 -0.6940 -0.0043 -0.0299
  611poe    c23 5164   5.735   4.150   4.685 -0.7221 -0.0103 -0.1893
  611poe     o2 5165   5.768   4.214   4.564 -0.2224 -0.2174 -0.1676
  611poe    c23 5166   5.693   4.331   4.541  0.1586  0.1632  0.5087
  611poe    c23 5167   5.696   4.402   4.404 -0.2200 -0.4476  0.1808
  611poe     o2 5168   5.641   4.300   4.324 -0.0472 -0.1155 -0.3638
  611poe    c23 5169   5.602   4.357   4.201 -0.3482  0.2935 -0.0802
  611poe    c23 5170   5.571   4.243   4.103  0.0898  0.4118 -0.3632
  611poe     o2 5171   5.672   4.145   4.096  0.1914  0.4395  0.6070
  611poe    c31 5172   5.655   4.055   3.989 -0.1948  0.2256  0.8461
  612poe    c31 5173   3.543   2.880   1.058  0.1990 -0.4029  0.1705
  612poe     o2 5174   3.495   2.812   0.945 -0.0509 -0.0023  0.0331
  612poe    c23 5175   3.374   2.876   0.910 -0.5820 -0.6591  0.6496
  612poe    c23 5176   3.321   2.791   0.793 -0.1775  0.2269 -0.1854
  612poe     o2 5177   3.412   2.760   0.690  0.1426  0.0598  0.1457
  612poe    c23 5178   3.371   2.686   0.577  0.1215  0.2468  0.0309
  612poe    c23 5179   3.510   2.663   0.517 -0.1031  0.5127 -0.5981
  612poe     o2 5180   3.606   2.633   0.615 -0.3783  0.4880 -0.3369
  612poe    c23 5181   3.736   2.656   0.566  0.1871 -1.3678  0.2135
  612poe    c23 5182   3.823   2.689   0.689  0.4653 -0.0674 -0.3144
  612poe     o2 5183   3.762   2.785   0.773  0.8403  0.1925 -0.3361
  612poe    c31 5184   3.862   2.798   0.872  0.2734 -0.5899  0.3560
  613poe    c31 5185   5.187   3.891   6.767 -0.9161 -0.6070  0.1192
  613poe     o2 5186   5.136   4.022   6.772  0.5245 -0.0193  0.0562
  613poe    c23 5187   5.236   4.120   6.757  0.2610  0.2416 -0.0112
  613poe    c23 5188   5.163   4.256   6.750 -0.6640 -0.2268  0.3550
  613poe     o2 5189   5.067   4.272   6.648  0.1570 -0.1766 -0.4256
  613poe    c23 5190   5.045   4.410   6.628  0.4262 -0.0863 -0.1096
  613poe    c23 5191   4.968   4.427   6.496 -0.3022  0.2783  0.3575
  613poe     o2 5192   4.863   4.337   6.522 -0.5781  0.5707  0.2562
  613poe    c23 5193   4.760   4.340   6.425 -0.4182 -0.0242  0.0676
  613poe    c23 5194   4.649   4.249   6.481 -0.7918  0.1251 -0.4263
  613poe     o2 5195   4.703   4.125   6.521 -0.1151  0.6094  0.1937
  613poe    c31 5196   4.594   4.036   6.535  0.4780 -0.0361  0.7849
  614poe    c31 5197   4.595   2.265   2.473  0.5917  0.2174  0.1725
  614poe     o2 5198   4.672   2.204   2.371 -0.1939 -0.2544 -0.1481
  614poe    c23 5199   4.756   2.106   2.425 -0.3182  0.0280  0.5598
  614poe    c23 5200   4.866   2.087   2.319 -0.6115  0.2249  0.2222
  614poe     o2 5201   4.830   2.144   2.195 -0.4212 -0.3847 -0.1153
  614poe    c23 5202   4.935   2.159   2.102 -0.0978  0.1063  0.3268
  614poe    c23 5203   4.873   2.207   1.970  0.6719  0.1763 -0.0139
  614poe     o2 5204   4.788   2.314   2.008  0.3984 -0.0174 -0.0763
  614poe    c23 5205   4.669   2.328   1.934  0.1116 -0.2524  0.3361
  614poe    c23 5206   4.582   2.419   2.022 -0.1225 -0.0348 -0.1181
  614poe     o2 5207   4.564   2.348   2.143  0.2637 -0.0410 -0.0631
  614poe    c31 5208   4.431   2.352   2.190  0.1660  0.5411 -0.3774
  615poe    c31 5209   3.830   3.265   4.662  0.1553  0.0347 -0.5965
  615poe     o2 5210   3.766   3.142   4.634 -0.0888 -0.0500  0.2893
  615poe    c23 5211   3.846   3.026   4.644  0.1295  0.1143  0.4579
  615poe    c23 5212   3.777   2.936   4.540  0.5587  0.1684  0.1185
  615poe     o2 5213   3.638   2.957   4.526  0.4931 -0.1351  0.3042
  615poe    c23 5214   3.569   2.869   4.440  0.7732 -0.5675  0.5121
  615poe    c23 5215   3.423   2.883   4.489  0.3716  0.0416 -0.7884
  615poe     o2 5216   3.413   3.019   4.525  0.5850 -0.2037  0.2567
  615poe    c23 5217   3.307   3.055   4.612  0.0733 -0.1183 -0.3881
  615poe    c23 5218   3.349   3.183   4.687 -0.2334 -0.1001 -0.2492
  615poe     o2 5219   3.487   3.198   4.712 -0.3844  0.3959  0.3061
  615poe    c31 5220   3.505   3.313   4.790  0.3039  0.4936  0.0139
  616poe    c31 5221   3.923   3.623   2.667  0.8036 -0.1292 -0.2245
  616poe     o2 5222   3.983   3.497   2.685  0.3310 -0.2513  0.5598
  616poe    c23 5223   4.124   3.509   2.685  0.3234 -0.1664  0.2949
  616poe    c23 5224   4.173   3.390   2.770  0.0464 -0.3467  0.2037
  616poe     o2 5225   4.154   3.427   2.905  0.7200  0.3084  0.1238
  616poe    c23 5226   4.188   3.311   2.977 -0.0307 -0.0773 -0.1332
  616poe    c23 5227   4.170   3.338   3.128 -0.1309  0.1908 -0.1916
  616poe     o2 5228   4.166   3.477   3.147  0.9250  0.2117 -0.0635
  616poe    c23 5229   4.156   3.500   3.286  0.0921 -0.5060  0.0043
  616poe    c23 5230   4.152   3.651   3.316  0.3775 -0.4475 -0.2455
  616poe     o2 5231   4.037   3.716   3.267  0.3345 -0.2582  0.1038
  616poe    c31 5232   4.019   3.836   3.340 -0.5063 -0.0976 -0.3530
  617poe    c31 5233   2.567   1.775   2.081  0.2210 -1.1414 -0.7638
  617poe     o2 5234   2.435   1.767   2.131  0.3929 -0.2741 -0.1534
  617poe    c23 5235   2.338   1.761   2.029 -0.1497  0.4093  0.3098
  617poe    c23 5236   2.205   1.700   2.075 -0.3750  0.5201 -0.1892
  617poe     o2 5237   2.184   1.769   2.196 -0.1265  0.2443  0.0145
  617poe    c23 5238   2.074   1.716   2.267  0.1123 -0.4296 -0.1132
  617poe    c23 5239   2.061   1.805   2.392  0.0891  0.1871 -0.5454
  617poe     o2 5240   2.190   1.832   2.440  0.0382 -0.2215 -0.1661
  617poe    c23 5241   2.205   1.966   2.481 -0.1740 -0.0685 -0.5908
  617poe    c23 5242   2.355   1.998   2.493 -0.2961  0.5012 -0.5194
  617poe     o2 5243   2.424   1.923   2.395 -0.0778  0.0860 -0.0579
  617poe    c31 5244   2.554   1.973   2.377 -0.1480  0.1561 -0.3811
  618poe    c31 5245   4.755   4.277   3.184 -0.5699  0.8968  0.2401
  618poe     o2 5246   4.825   4.391   3.229  0.6344  0.0802  0.4549
  618poe    c23 5247   4.749   4.475   3.312 -0.3415  0.5365 -0.8775
  618poe    c23 5248   4.837   4.601   3.329  0.1708 -0.0024  0.5787
  618poe     o2 5249   4.973   4.566   3.325  0.0877 -0.2308 -0.4851
  618poe    c23 5250   5.059   4.677   3.309  0.0775 -0.1571 -0.0402
  618poe    c23 5251   5.186   4.614   3.251  0.3232 -0.1611  0.4993
  618poe     o2 5252   5.144   4.503   3.175 -0.0899 -0.1620  0.7306
  618poe    c23 5253   5.250   4.417   3.140  0.0955  0.3143  0.1104
  618poe    c23 5254   5.191   4.312   3.045 -0.0359  0.3166  0.1886
  618poe     o2 5255   5.071   4.264   3.101 -0.0489  0.1175 -0.0082
  618poe    c31 5256   5.042   4.150   3.023  0.9241 -0.0910 -0.0801
  619poe    c31 5257   2.805   1.481   5.036  0.2884  1.3511 -0.6793
  619poe     o2 5258   2.911   1.543   5.104  0.0887  0.3598  0.5787
  619poe    c23 5259   2.939   1.664   5.036 -0.5528  0.1792 -0.0203
  619poe    c23 5260   3.020   1.747   5.138  0.0732 -0.1087 -0.2783
  619poe     o2 5261   3.122   1.665   5.192 -0.5179 -0.5748  0.1520
  619poe    c23 5262   3.190   1.704   5.309 -0.2250  0.4354 -0.3448
  619poe    c23 5263   3.098   1.687   5.431 -0.2252  0.2010 -0.3780
  619poe     o2 5264   3.050   1.556   5.408 -0.2056  0.0359  0.4828
  619poe    c23 5265   3.056   1.471   5.520 -0.2681 -0.2763  0.2498
  619poe    c23 5266   3.045   1.329   5.460 -0.3441 -0.2311  0.1569
  619poe     o2 5267   2.953   1.327   5.353 -0.0319  0.1492 -0.1236
  619poe    c31 5268   2.909   1.195   5.331 -0.2190  0.1666  0.1413
  620poe    c31 5269   2.314   0.530   6.730  0.6569  0.2402  0.2196
  620poe     o2 5270   2.308   0.659   6.673 -0.0712 -0.0275 -0.3337
  620poe    c23 5271   2.401   0.673   6.568  0.2303  0.0072 -0.0660
  620poe    c23 5272   2.400   0.810   6.497 -0.5657  0.0873  0.0888
  620poe     o2 5273   2.413   0.920   6.585  0.3130  0.0034  0.0753
  620poe    c23 5274   2.423   1.042   6.514  0.4459  0.0106  0.1061
  620poe    c23 5275   2.363   1.143   6.613 -0.4074 -0.1814 -0.1969
  620poe     o2 5276   2.223   1.126   6.612 -0.4056 -0.3448  0.7998
  620poe    c23 5277   2.167   1.220   6.701 -0.1411  0.2753  0.3245
  620poe    c23 5278   2.015   1.210   6.722 -0.0972  0.1805  0.5962
  620poe     o2 5279   1.981   1.073   6.716  0.1578  0.1143  0.6679
  620poe    c31 5280   1.864   1.045   6.788 -0.1390  0.3646  0.2876
  621poe    c31 5281   6.696   5.924   3.666 -0.0129  0.3421  0.4962
  621poe     o2 5282   6.823   5.893   3.720  0.2379  0.2047 -0.1674
  621poe    c23 5283   6.809   5.793   3.818  0.2707  0.2848 -0.0814
  621poe    c23 5284   6.937   5.781   3.902  0.0440 -0.1039  0.2140
  621poe     o2 5285   7.050   5.785   3.816 -0.4192 -0.4711 -0.4201
  621poe    c23 5286   7.177   5.796   3.875 -0.5284  0.7466 -0.3757
  621poe    c23 5287   7.264   5.822   3.751  0.3548  0.3980  0.1605
  621poe     o2 5288   7.195   5.915   3.671 -0.0623  0.3325  0.4394
  621poe    c23 5289   7.229   5.915   3.534  0.6718  0.6167  0.6148
  621poe    c23 5290   7.144   6.029   3.473  0.7015  0.4174  0.1974
  621poe     o2 5291   7.014   5.990   3.512  0.6592  0.3531 -0.0070
  621poe    c31 5292   6.933   6.041   3.409  0.2129  0.4039  0.3657
  622poe    c31 5293   1.579   5.154   1.618 -0.3942 -0.6003  0.6630
  622poe     o2 5294   1.546   5.024   1.575 -0.6067 -0.0793 -0.8243
  622poe    c23 5295   1.641   4.925   1.609 -0.8515 -0.1197 -0.2560
  622poe    c23 5296   1.668   4.852   1.477  0.3622 -0.0998 -0.0252
  622poe     o2 5297   1.549   4.796   1.428  0.1632  0.1249  0.2040
  622poe    c23 5298   1.568   4.746   1.298 -0.0444  0.4151  0.0609
  622poe    c23 5299   1.440   4.787   1.223  0.4072  0.1481 -0.8673
  622poe     o2 5300   1.405   4.918   1.260  0.1610 -0.3139  0.5868
  622poe    c23 5301   1.280   4.966   1.217  0.2966  0.0645  0.6115
  622poe    c23 5302   1.257   5.098   1.293  0.1192  0.2951  0.1620
  622poe     o2 5303   1.287   5.070   1.428  0.6084 -0.7763 -0.1591
  622poe    c31 5304   1.239   5.175   1.508 -0.2203 -0.4353 -1.0820
  623poe    c31 5305   3.434   4.281   4.714 -0.4777 -0.1222 -0.2094
  623poe     o2 5306   3.346   4.332   4.811 -0.4240  0.2007 -0.3264
  623poe    c23 5307   3.363   4.254   4.928  0.7728  0.5904 -0.2297
  623poe    c23 5308   3.287   4.303   5.053  0.2003  0.2138 -0.4267
  623poe     o2 5309   3.315   4.433   5.100 -0.3647  0.1927 -0.0299
  623poe    c23 5310   3.273   4.470   5.230 -0.1165  0.1234  0.0714
  623poe    c23 5311   3.123   4.467   5.264 -0.0238  0.2879  0.5022
  623poe     o2 5312   3.037   4.558   5.198 -0.0211  0.3046  0.5217
  623poe    c23 5313   3.063   4.697   5.200 -0.3944  0.3763  0.5313
  623poe    c23 5314   2.969   4.785   5.116 -0.1433  0.7699  0.6571
  623poe     o2 5315   2.843   4.722   5.125  0.1460 -0.0220 -0.5350
  623poe    c31 5316   2.750   4.828   5.110 -0.2915 -0.3464 -0.1590
  624poe    c31 5317   5.084   5.882   3.426 -0.0585  0.2269 -0.6821
  624poe     o2 5318   5.045   5.850   3.558 -0.1413 -0.2575 -0.8217
  624poe    c23 5319   5.004   5.715   3.561  0.3475 -0.4056 -0.6564
  624poe    c23 5320   5.002   5.649   3.699  0.0346  0.0917 -0.4178
  624poe     o2 5321   4.929   5.709   3.804  0.3616  0.0721 -0.1776
  624poe    c23 5322   4.889   5.621   3.907  0.3391  0.3671  0.0674
  624poe    c23 5323   4.861   5.694   4.039  0.3688 -0.3112  0.4530
  624poe     o2 5324   4.731   5.747   4.047  0.2995 -0.4591  0.3164
  624poe    c23 5325   4.703   5.768   4.184 -0.4570 -0.3974  0.1615
  624poe    c23 5326   4.558   5.815   4.206 -0.4732 -0.3380 -0.0698
  624poe     o2 5327   4.516   5.897   4.099  0.4594  0.6648  0.3113
  624poe    c31 5328   4.413   5.981   4.145 -0.0444 -0.1374  0.6885
  625poe    c31 5329   5.899   3.225   1.832  0.1475 -0.1426 -0.7924
  625poe     o2 5330   5.981   3.125   1.775 -0.1890 -0.7509 -0.2278
  625poe    c23 5331   6.117   3.137   1.808 -0.2679 -0.9054  0.1698
  625poe    c23 5332   6.185   3.048   1.702 -0.1555  0.1281 -0.6524
  625poe     o2 5333   6.131   2.920   1.727 -0.2261  0.2094 -0.3833
  625poe    c23 5334   6.207   2.827   1.652 -0.6301  0.0164 -0.5541
  625poe    c23 5335   6.151   2.685   1.632 -1.0793  0.2183 -0.7468
  625poe     o2 5336   6.064   2.658   1.740  0.3162 -0.2408  0.3029
  625poe    c23 5337   6.039   2.519   1.741 -0.0409 -0.1800  0.1893
  625poe    c23 5338   5.901   2.511   1.808 -0.0949  0.5220  0.1704
  625poe     o2 5339   5.898   2.607   1.911  0.6251  0.1990  0.5028
  625poe    c31 5340   5.833   2.571   2.030 -0.6925 -0.0557 -0.2786
  626poe    c31 5341   4.169   0.907   1.703  0.2580  0.3350 -0.1880
  626poe     o2 5342   4.193   0.927   1.840 -0.0711  0.2431 -0.1149
  626poe    c23 5343   4.224   1.063   1.862  0.4318  0.0949  0.1239
  626poe    c23 5344   4.212   1.077   2.014  0.1090 -0.0598  0.1142
  626poe     o2 5345   4.251   0.953   2.069 -0.3989 -0.1184  0.3479
  626poe    c23 5346   4.259   0.963   2.210  0.3351  0.5694  0.2690
  626poe    c23 5347   4.331   0.828   2.232  0.5170  0.4729 -0.8255
  626poe     o2 5348   4.265   0.723   2.165  0.0382  0.2933 -0.0959
  626poe    c23 5349   4.356   0.616   2.153 -0.3349 -0.0389  0.0343
  626poe    c23 5350   4.310   0.529   2.034  0.2385 -0.1274 -0.1252
  626poe     o2 5351   4.308   0.623   1.930 -0.4193  0.6848  0.6024
  626poe    c31 5352   4.301   0.567   1.801 -0.1851 -0.3700  1.0381
  627poe    c31 5353   0.688   0.965   5.416 -0.4520  0.2657 -0.4516
  627poe     o2 5354   0.603   1.001   5.309 -0.5892  0.7214 -0.1921
  627poe    c23 5355   0.675   1.037   5.193 -0.0746 -0.4489 -0.2413
  627poe    c23 5356   0.618   1.172   5.146 -0.1201 -0.5789 -0.5586
  627poe     o2 5357   0.485   1.152   5.103 -0.3003  0.1201 -0.3334
  627poe    c23 5358   0.404   1.267   5.099  0.3302  0.5908  0.0662
  627poe    c23 5359   0.366   1.316   5.240 -0.2903 -0.1656  0.1662
  627poe     o2 5360   0.338   1.211   5.330  0.1830  0.1520  0.6875
  627poe    c23 5361   0.307   1.263   5.457 -0.3849  0.2104  0.5301
  627poe    c23 5362   0.279   1.132   5.531 -0.3745 -0.3661 -0.4736
  627poe     o2 5363   0.373   1.030   5.507 -0.1138 -0.2074 -0.1414
  627poe    c31 5364   0.364   0.924   5.600  0.3417 -0.0337  0.1007
  628poe    c31 5365   0.167   6.679   2.677 -0.1028 -0.7732 -0.1606
  628poe     o2 5366   0.270   6.684   2.773 -0.4626 -0.8211  0.2313
  628poe    c23 5367   0.357   6.574   2.755  0.1947 -0.2184 -0.3561
  628poe    c23 5368   0.477   6.607   2.846 -0.2312 -0.1479  0.1932
  628poe     o2 5369   0.490   6.743   2.813 -0.2112 -0.1785  0.0688
  628poe    c23 5370   0.616   6.788   2.858  0.0033 -0.1118 -0.5951
  628poe    c23 5371   0.609   6.937   2.819 -0.5254  0.0732  0.1939
  628poe     o2 5372   0.478   6.981   2.845 -0.3499  0.8890 -0.2714
  628poe    c23 5373   0.435   7.077   2.751 -0.7045  0.8822 -0.1172
  628poe    c23 5374   0.286   7.095   2.786 -0.5987  0.2604  0.6948
  628poe     o2 5375   0.227   6.971   2.816 -0.5631  0.1076  0.1410
  628poe    c31 5376   0.093   6.987   2.856 -0.4452  0.3125  0.4528
  629poe    c31 5377   5.012   6.021   2.222 -0.8099 -0.6147  0.6853
  629poe     o2 5378   4.990   5.952   2.101 -0.1413  0.0150  0.1962
  629poe    c23 5379   4.861   5.897   2.108 -0.2538  0.2138 -0.2896
  629poe    c23 5380   4.830   5.809   1.985  0.0440 -0.3456  0.0311
  629poe     o2 5381   4.950   5.739   1.961 -0.0596 -0.3188 -0.5969
  629poe    c23 5382   4.949   5.665   1.841 -0.2179 -0.0455 -0.7653
  629poe    c23 5383   5.092   5.607   1.845 -0.2865 -0.1713  0.2924
  629poe     o2 5384   5.175   5.713   1.886 -0.1617 -0.1621  0.0163
  629poe    c23 5385   5.307   5.675   1.921 -0.2293 -0.1393  0.2922
  629poe    c23 5386   5.376   5.803   1.972  0.2176 -0.3329  0.1737
  629poe     o2 5387   5.286   5.852   2.069 -0.0885 -0.5246 -0.0121
  629poe    c31 5388   5.362   5.898   2.178 -0.4429 -0.5425  0.2440
  630poe    c31 5389   4.129   6.022   4.594 -0.3035  0.2024  0.0194
  630poe     o2 5390   4.152   6.015   4.733  0.2638 -0.6015 -0.1056
  630poe    c23 5391   4.070   6.115   4.790  0.5733 -0.1469 -0.4453
  630poe    c23 5392   4.089   6.124   4.942  0.4609  0.3181 -0.4572
  630poe     o2 5393   4.200   6.041   4.971 -0.1191 -0.2024  0.3242
  630poe    c23 5394   4.176   5.962   5.085 -0.3487 -0.6791 -0.0551
  630poe    c23 5395   4.290   5.859   5.088  0.2681  0.0038  0.1372
  630poe     o2 5396   4.305   5.798   4.962  0.5354  0.1157  0.1141
  630poe    c23 5397   4.411   5.706   4.950  0.1462 -0.2401 -0.6889
  630poe    c23 5398   4.401   5.614   4.827 -0.1644 -0.6290 -0.3725
  630poe     o2 5399   4.386   5.716   4.732 -0.3077 -0.2722  0.0315
  630poe    c31 5400   4.388   5.652   4.606 -0.5355 -0.0237 -0.1017
  631poe    c31 5401   0.508   5.840   3.028 -0.0691 -0.2412  0.5424
  631poe     o2 5402   0.492   5.847   2.888 -0.3098  0.1452  0.5883
  631poe    c23 5403   0.597   5.922   2.831 -0.5587  0.0474 -0.0087
  631poe    c23 5404   0.578   5.905   2.680  0.4272  0.7665 -0.2288
  631poe     o2 5405   0.444   5.908   2.635  0.4253  0.5442 -0.2396
  631poe    c23 5406   0.380   6.031   2.610 -0.1704  0.4074  0.6058
  631poe    c23 5407   0.229   6.002   2.603 -0.1045  0.1790  0.1372
  631poe     o2 5408   0.208   5.923   2.718  0.0680 -0.1425 -0.0492
  631poe    c23 5409   0.104   5.961   2.805  0.4073 -0.0887  0.3342
  631poe    c23 5410   0.080   5.831   2.885  0.0294 -0.2732 -0.0742
  631poe     o2 5411   0.209   5.780   2.910 -0.2744 -1.2151 -0.4076
  631poe    c31 5412   0.193   5.672   3.000  0.5030 -0.2501  0.9201
  632poe    c31 5413   3.995   0.712   1.144 -0.6962  0.0464 -0.0235
  632poe     o2 5414   4.054   0.720   1.016 -0.0439  0.5539  0.3022
  632poe    c23 5415   4.007   0.839   0.956 -0.1986  0.4775  0.2709
  632poe    c23 5416   4.108   0.850   0.840 -0.5290  0.0952 -0.0547
  632poe     o2 5417   4.103   0.730   0.765 -0.0846  0.1672 -0.2020
  632poe    c23 5418   4.192   0.726   0.656  0.3977 -0.1898  0.2020
  632poe    c23 5419   4.195   0.580   0.607  0.2136 -0.0303 -0.2824
  632poe     o2 5420   4.206   0.500   0.722  0.5518  0.1059 -0.2178
  632poe    c23 5421   4.152   0.371   0.709  0.0167  0.2544  0.4433
  632poe    c23 5422   4.113   0.330   0.852 -0.0209 -0.6384  0.1878
  632poe     o2 5423   4.052   0.438   0.919  0.2330 -0.0566 -0.5020
  632poe    c31 5424   3.969   0.379   1.017  0.5945  0.7501  0.3062
  633poe    c31 5425   3.434   3.956   0.866  0.1562  0.0834  0.1094
  633poe     o2 5426   3.555   4.018   0.901  0.4363 -0.0567 -0.6109
  633poe    c23 5427   3.631   3.909   0.950  0.0795 -0.1090 -0.1791
  633poe    c23 5428   3.767   3.962   0.999  0.0889  0.0843 -0.4139
  633poe     o2 5429   3.814   4.034   0.887 -0.1512  0.8007 -0.0567
  633poe    c23 5430   3.934   4.102   0.916  0.0836  0.2894  0.1859
  633poe    c23 5431   3.927   4.226   0.825  0.0721  0.1213 -0.0435
  633poe     o2 5432   3.793   4.269   0.832 -0.0832 -0.3317 -0.2156
  633poe    c23 5433   3.774   4.374   0.740 -0.0026  0.0878  0.2433
  633poe    c23 5434   3.624   4.406   0.756  0.0831  0.5633  0.1150
  633poe     o2 5435   3.545   4.295   0.792  0.0095  0.7539  0.5508
  633poe    c31 5436   3.422   4.326   0.855 -0.4725 -0.2645  0.1234
  634poe    c31 5437   3.054   3.582   4.352  0.3812  0.0086  0.6326
  634poe     o2 5438   2.971   3.555   4.462 -0.0955 -0.3391  0.1943
  634poe    c23 5439   2.951   3.658   4.557 -0.2386 -0.1877  0.0014
  634poe    c23 5440   2.825   3.736   4.516 -0.0682  0.0437 -0.0838
  634poe     o2 5441   2.739   3.629   4.482 -0.2618  0.1158  0.1805
  634poe    c23 5442   2.607   3.648   4.526 -0.2648 -0.2957  0.3503
  634poe    c23 5443   2.532   3.522   4.479  0.1777 -0.3725 -0.1516
  634poe     o2 5444   2.632   3.428   4.513  0.3253  0.0147  0.4872
  634poe    c23 5445   2.606   3.290   4.524 -0.0268  0.0672  0.3390
  634poe    c23 5446   2.721   3.240   4.613 -0.0410  0.2955  0.4868
  634poe     o2 5447   2.833   3.283   4.539 -0.2109 -0.1440 -0.0318
  634poe    c31 5448   2.954   3.244   4.601 -0.0231  0.1995 -0.1778
  635poe    c31 5449   2.147   5.465   2.463 -0.1230  0.1440  0.1256
  635poe     o2 5450   2.006   5.469   2.464 -0.1395 -0.4031  0.5073
  635poe    c23 5451   1.956   5.398   2.353  0.4921  0.1416 -0.1455
  635poe    c23 5452   1.812   5.446   2.327  0.3335  0.3344  1.0176
  635poe     o2 5453   1.813   5.585   2.305  0.2468  0.2612  0.5353
  635poe    c23 5454   1.689   5.641   2.345  0.1076  0.4574 -0.1630
  635poe    c23 5455   1.656   5.649   2.495  0.6709 -0.1565 -0.0006
  635poe     o2 5456   1.778   5.638   2.565  0.4037 -0.1651  0.4673
  635poe    c23 5457   1.769   5.698   2.692 -0.3064 -0.6200  0.6341
  635poe    c23 5458   1.907   5.677   2.758  0.0005  0.2811  0.2930
  635poe     o2 5459   1.998   5.716   2.658 -0.3301 -0.0880 -0.1576
  635poe    c31 5460   2.123   5.759   2.705 -0.1518 -0.4321 -0.3132
  636poe    c31 5461   4.193   4.962   1.194  0.3458  0.4058 -0.3310
  636poe     o2 5462   4.249   5.091   1.182  0.0070  0.5465 -0.4198
  636poe    c23 5463   4.325   5.106   1.065  0.4071 -0.3027 -0.2785
  636poe    c23 5464   4.406   5.236   1.075 -0.0106 -0.0489 -0.1915
  636poe     o2 5465   4.321   5.331   1.136 -0.4064 -0.3747 -0.2312
  636poe    c23 5466   4.252   5.418   1.048  0.1080  0.0937 -0.1795
  636poe    c23 5467   4.134   5.473   1.130  0.7099  0.1102  0.6903
  636poe     o2 5468   4.088   5.356   1.192 -0.2002 -0.1037 -0.3602
  636poe    c23 5469   3.981   5.376   1.282  0.3933 -0.3068  0.4111
  636poe    c23 5470   3.962   5.248   1.365 -0.3986 -0.6026 -0.2070
  636poe     o2 5471   4.084   5.180   1.386  0.0476  0.2263 -0.0454
  636poe    c31 5472   4.067   5.104   1.504  0.5905  0.1760  0.0021
  637poe    c31 5473   4.442   6.602   2.655 -0.5888  0.6790  0.1516
  637poe     o2 5474   4.460   6.485   2.732  0.3376  0.3869 -0.4964
  637poe    c23 5475   4.505   6.391   2.636  0.4320 -0.1126  0.0282
  637poe    c23 5476   4.521   6.250   2.696 -0.4102 -0.0841  0.3353
  637poe     o2 5477   4.426   6.234   2.799 -0.1213  0.4892  0.7011
  637poe    c23 5478   4.436   6.104   2.853  0.1059  0.3705  0.3778
  637poe    c23 5479   4.352   6.062   2.975 -0.5817  0.1846 -0.1531
  637poe     o2 5480   4.218   6.044   2.935 -0.5589 -0.4277  0.0375
  637poe    c23 5481   4.159   5.985   3.049  0.0924 -0.4470  0.3650
  637poe    c23 5482   4.042   5.898   3.001 -0.3248  0.1393  0.3138
  637poe     o2 5483   3.956   5.988   2.933 -0.4426  0.0122  0.2946
  637poe    c31 5484   3.845   6.019   3.014 -0.6025  0.1269  0.0321
  638poe    c31 5485   6.008   0.860   2.477 -0.3280 -0.7611  0.0207
  638poe     o2 5486   6.072   0.846   2.602  0.0385 -0.2422 -0.1041
  638poe    c23 5487   6.209   0.878   2.596 -0.0695  0.2326 -0.0900
  638poe    c23 5488   6.278   0.857   2.732 -0.0991  0.0458 -0.1028
  638poe     o2 5489   6.215   0.923   2.839  0.1935 -0.2210  0.2355
  638poe    c23 5490   6.259   0.889   2.969  0.3197 -0.6661  0.0771
  638poe    c23 5491   6.257   0.992   3.084  0.2693 -0.1720 -0.3589
  638poe     o2 5492   6.140   1.070   3.072  0.4392  0.2411  0.6102
  638poe    c23 5493   6.064   1.069   3.191  0.0274  0.3964  0.3508
  638poe    c23 5494   5.971   1.191   3.202 -0.1706  0.2791  0.0159
  638poe     o2 5495   5.916   1.224   3.077  0.2385  0.6632 -0.0655
  638poe    c31 5496   5.807   1.310   3.101  0.2396  0.6399  0.0242
  639poe    c31 5497   1.554   4.125   1.564  0.4101  0.8695 -0.4612
  639poe     o2 5498   1.493   4.143   1.690  0.0488 -0.4652 -0.4261
  639poe    c23 5499   1.452   4.016   1.736  0.1253 -0.3729 -0.0972
  639poe    c23 5500   1.379   4.056   1.866  0.0088  0.3437 -0.3756
  639poe     o2 5501   1.461   4.152   1.928  0.1521  0.0859 -0.1682
  639poe    c23 5502   1.396   4.200   2.044 -0.0982 -0.1137 -0.2253
  639poe    c23 5503   1.489   4.302   2.113 -0.6038  0.3280 -0.1917
  639poe     o2 5504   1.579   4.365   2.025  0.4805 -0.0474  0.6231
  639poe    c23 5505   1.537   4.492   1.979 -0.0097 -0.5650 -0.3873
  639poe    c23 5506   1.615   4.522   1.849 -0.2287 -0.2868 -0.4554
  639poe     o2 5507   1.568   4.416   1.769 -0.1190 -0.3620 -0.4204
  639poe    c31 5508   1.606   4.436   1.635  0.0160  0.1453 -0.3096
  640poe    c31 5509   1.967   3.312   0.133 -0.0177  0.0779 -0.4514
  640poe     o2 5510   2.023   3.191   0.089  0.2799  0.0020  0.1182
  640poe    c23 5511   2.141   3.137   0.144  0.1005 -0.4414  0.0750
  640poe    c23 5512   2.115   2.998   0.206  0.2209 -0.5732 -0.1675
  640poe     o2 5513   2.081   2.909   0.102 -0.6573 -0.3270 -0.1017
  640poe    c23 5514   1.981   2.816   0.137 -0.1829 -0.9654 -0.4264
  640poe    c23 5515   1.862   2.819   0.039 -0.3593 -0.4934 -0.1966
  640poe     o2 5516   1.830   2.954   0.010  0.3117 -0.3742 -0.3930
  640poe    c23 5517   1.730   2.966  -0.089 -0.0917 -0.2646  0.0250
  640poe    c23 5518   1.709   3.117  -0.107 -0.3162 -0.3902 -0.7740
  640poe     o2 5519   1.839   3.172  -0.105 -0.4323 -0.1353 -0.1308
  640poe    c31 5520   1.848   3.280  -0.195  0.9724  0.1805  0.3651
  641poe    c31 5521   6.774   3.595   3.110  0.7568 -0.1867  0.0082
  641poe     o2 5522   6.745   3.521   2.993 -0.7982 -0.0708  0.3012
  641poe    c23 5523   6.659   3.573   2.895 -0.0604  0.4382 -0.0861
  641poe    c23 5524   6.510   3.585   2.931 -0.1528  0.1328 -0.3576
  641poe     o2 5525   6.433   3.467   2.941  0.3276 -0.0989  0.7521
  641poe    c23 5526   6.300   3.505   2.972  0.3422  0.2986  0.3422
  641poe    c23 5527   6.211   3.379   2.978  0.0121  0.4864 -0.5472
  641poe     o2 5528   6.222   3.293   2.867 -0.2756 -0.5456  0.2169
  641poe    c23 5529   6.155   3.174   2.905 -1.0147 -0.0981  0.3325
  641poe    c23 5530   6.192   3.085   2.785 -0.0554  0.2809  0.3420
  641poe     o2 5531   6.331   3.101   2.762 -0.0308 -0.1763  0.1498
  641poe    c31 5532   6.361   2.984   2.691  0.0326 -0.6688  0.9816
  642poe    c31 5533   2.576   3.174   6.419 -0.3046  0.0640  0.0300
  642poe     o2 5534   2.664   3.256   6.345 -0.1122 -0.4806 -0.3536
  642poe    c23 5535   2.621   3.252   6.211  0.0593 -0.4392 -0.4107
  642poe    c23 5536   2.640   3.395   6.159 -0.0912 -0.1614  0.2956
  642poe     o2 5537   2.760   3.436   6.221  0.1208  0.1585 -0.3174
  642poe    c23 5538   2.773   3.575   6.239  0.0734  0.1397 -0.1421
  642poe    c23 5539   2.743   3.605   6.387 -0.3181 -0.1532 -0.1587
  642poe     o2 5540   2.805   3.501   6.460  0.1327  0.1102 -0.1595
  642poe    c23 5541   2.751   3.489   6.590 -0.0796 -0.3553 -0.2872
  642poe    c23 5542   2.818   3.372   6.664  1.0251  0.1124 -0.5196
  642poe     o2 5543   2.812   3.252   6.591  0.0916  0.1183 -0.4703
  642poe    c31 5544   2.871   3.150   6.669 -0.9309  0.1527  0.3546
  643poe    c31 5545   2.305   3.990   0.264  0.1145  0.0043  0.1532
  643poe     o2 5546   2.442   4.013   0.238  0.0210  0.0579 -0.2940
  643poe    c23 5547   2.497   4.140   0.261 -0.2721  0.0683  0.3805
  643poe    c23 5548   2.631   4.150   0.185 -0.0910 -0.2331  0.6564
  643poe     o2 5549   2.690   4.023   0.189  0.4566  0.0111  0.3822
  643poe    c23 5550   2.828   4.020   0.160  0.3740  0.0588 -0.0244
  643poe    c23 5551   2.866   3.871   0.169 -0.3893 -0.1405 -0.1033
  643poe     o2 5552   2.757   3.784   0.145 -0.3636 -0.3583  0.5479
  643poe    c23 5553   2.765   3.668   0.224  0.1380 -0.4981  0.2960
  643poe    c23 5554   2.623   3.614   0.247 -0.1414  0.0227 -0.1969
  643poe     o2 5555   2.532   3.717   0.280  0.0625  0.0984  0.1338
  643poe    c31 5556   2.431   3.649   0.350  0.2635 -0.5160 -0.1665
  644poe    c31 5557   2.074   0.196   0.895 -0.3154  0.2878  0.5921
  644poe     o2 5558   1.969   0.247   0.974 -0.4906  0.3871  0.2968
  644poe    c23 5559   1.897   0.144   1.038 -0.4203  0.2477  0.1528
  644poe    c23 5560   1.822   0.196   1.162 -0.2423  0.1113  0.3184
  644poe     o2 5561   1.775   0.319   1.111  0.1676  0.2327  0.2243
  644poe    c23 5562   1.716   0.400   1.211  0.2613  0.1243  0.3681
  644poe    c23 5563   1.665   0.527   1.140  0.5268  0.3553  0.5870
  644poe     o2 5564   1.749   0.541   1.028 -0.6285  0.5838 -0.2744
  644poe    c23 5565   1.671   0.582   0.918 -0.6481  0.2902 -0.3703
  644poe    c23 5566   1.767   0.571   0.798  0.2464 -0.2764  0.3884
  644poe     o2 5567   1.843   0.452   0.800 -0.0939 -0.5099 -0.3044
  644poe    c31 5568   1.877   0.398   0.675  0.3372  0.2291 -0.5099
  645poe    c31 5569   6.659   1.516   3.457  0.3411  0.2302  0.4636
  645poe     o2 5570   6.772   1.448   3.405 -0.1094 -0.7028  0.6938
  645poe    c23 5571   6.842   1.374   3.502  0.6401 -0.5435  0.2784
  645poe    c23 5572   6.939   1.270   3.442 -0.0742 -0.9265 -0.2198
  645poe     o2 5573   7.062   1.327   3.405 -0.6026 -0.0056 -0.6204
  645poe    c23 5574   7.162   1.274   3.490 -0.0992  0.6264 -0.8069
  645poe    c23 5575   7.289   1.360   3.484  0.5216 -0.2148  0.0513
  645poe     o2 5576   7.261   1.461   3.578 -0.2144 -0.0918 -0.2935
  645poe    c23 5577   7.366   1.555   3.577 -0.3014  0.0098  0.0893
  645poe    c23 5578   7.326   1.661   3.682 -0.5933 -0.1535  0.1413
  645poe     o2 5579   7.290   1.574   3.787 -0.0309 -0.0958  0.3837
  645poe    c31 5580   7.284   1.650   3.906 -0.8650 -0.1802  0.4052
  646poe    c31 5581   5.251   3.093   0.090 -0.3820 -0.7856 -0.5893
  646poe     o2 5582   5.275   2.982   0.173  0.0491 -0.5003 -0.3320
  646poe    c23 5583   5.156   2.914   0.208 -0.0991 -0.2141 -0.2821
  646poe    c23 5584   5.200   2.808   0.310 -0.3819  0.2396  0.3195
  646poe     o2 5585   5.288   2.712   0.256 -0.8471 -0.0361  0.0476
  646poe    c23 5586   5.271   2.596   0.333  0.2851 -0.4782 -0.3359
  646poe    c23 5587   5.338   2.484   0.251 -0.0255 -0.8456 -0.0934
  646poe     o2 5588   5.470   2.529   0.234 -0.1881 -0.3892 -0.1595
  646poe    c23 5589   5.556   2.435   0.174 -0.1816 -0.5109  0.0416
  646poe    c23 5590   5.700   2.487   0.195 -0.2538 -0.2057 -0.2165
  646poe     o2 5591   5.711   2.625   0.168 -0.0261 -0.1505  0.1405
  646poe    c31 5592   5.845   2.668   0.159  0.0867 -0.4861  0.2109
  647poe    c31 5593   2.873   6.775   0.464  0.6970  0.5329  0.6176
  647poe     o2 5594   2.743   6.769   0.410  0.9335 -0.3081  0.1244
  647poe    c23 5595   2.760   6.699   0.288 -0.2438  0.5155 -0.5316
  647poe    c23 5596   2.620   6.701   0.223 -0.4146  0.0874 -0.1844
  647poe     o2 5597   2.561   6.827   0.249 -0.2998  0.1334 -0.1481
  647poe    c23 5598   2.440   6.845   0.180  0.0334  0.1921 -0.7236
  647poe    c23 5599   2.374   6.978   0.223 -0.3217 -0.3221  0.3684
  647poe     o2 5600   2.432   6.998   0.349 -0.2213 -0.4523  0.3436
  647poe    c23 5601   2.423   7.136   0.375 -0.6187 -0.4523  0.1966
  647poe    c23 5602   2.548   7.168   0.459 -0.3713 -0.1046 -0.2955
  647poe     o2 5603   2.612   7.048   0.496  0.6336  0.3284 -0.6076
  647poe    c31 5604   2.679   7.070   0.618  0.4100 -0.2330 -0.3826
  648poe    c31 5605   5.564   5.945   5.031 -0.1588  0.0242  0.0984
  648poe     o2 5606   5.644   5.907   5.140  0.3202  0.0635 -0.2325
  648poe    c23 5607   5.765   5.863   5.085  0.1203 -0.1459 -0.5050
  648poe    c23 5608   5.867   5.868   5.200 -0.1723  0.2464 -0.2627
  648poe     o2 5609   5.819   5.771   5.290  0.5809 -0.1115 -0.2356
  648poe    c23 5610   5.884   5.779   5.415 -0.6114  0.1321  0.3906
  648poe    c23 5611   5.789   5.724   5.522 -0.3014  0.1927  0.6992
  648poe     o2 5612   5.674   5.801   5.497 -0.2807 -0.1337 -0.4633
  648poe    c23 5613   5.556   5.781   5.571  0.0880  0.1122  0.1954
  648poe    c23 5614   5.461   5.882   5.503  0.0748 -0.4198 -0.5820
  648poe     o2 5615   5.477   5.885   5.363  0.0993 -0.6592 -0.5846
  648poe    c31 5616   5.350   5.918   5.310 -0.3545 -0.5731  0.5233
  649poe    c31 5617   5.635   2.922   3.528  0.1333  0.2281  0.0617
  649poe     o2 5618   5.524   2.981   3.465  0.4664 -0.0728 -0.8133
  649poe    c23 5619   5.488   2.905   3.352 -0.1649 -0.4419 -0.3693
  649poe    c23 5620   5.346   2.928   3.296 -0.1267 -0.3175 -0.4142
  649poe     o2 5621   5.335   3.064   3.259 -0.2761  0.0184  0.8130
  649poe    c23 5622   5.205   3.104   3.222 -0.2580 -0.2608  0.4411
  649poe    c23 5623   5.187   3.256   3.204  0.5960 -0.1247  0.6954
  649poe     o2 5624   5.242   3.323   3.316  0.4348  0.7706  0.2460
  649poe    c23 5625   5.279   3.453   3.276  0.3210  0.7178 -0.0360
  649poe    c23 5626   5.376   3.499   3.386  0.6019  0.0998 -0.0203
  649poe     o2 5627   5.478   3.407   3.421  0.1236 -0.2171  0.5582
  649poe    c31 5628   5.570   3.464   3.511  0.3589 -0.4535  0.4681
  650poe    c31 5629   5.203   1.741   1.250  0.6468 -0.4165 -0.0208
  650poe     o2 5630   5.324   1.732   1.321  0.5696 -0.3040  0.1260
  650poe    c23 5631   5.417   1.650   1.251  0.5749 -0.0109 -0.2153
  650poe    c23 5632   5.551   1.652   1.327  0.2304 -0.0764  0.4036
  650poe     o2 5633   5.568   1.777   1.390  0.0940  0.1863 -0.0730
  650poe    c23 5634   5.697   1.774   1.448  0.0649  0.4335  0.0082
  650poe    c23 5635   5.712   1.893   1.545 -0.1577  0.4645  0.0065
  650poe     o2 5636   5.599   1.910   1.626 -0.4311 -0.2790 -0.2070
  650poe    c23 5637   5.599   1.831   1.743  0.2265 -0.4562 -0.3277
  650poe    c23 5638   5.451   1.791   1.754  0.3801 -0.8681  0.3224
  650poe     o2 5639   5.397   1.734   1.637 -0.6449  0.9662 -0.1554
  650poe    c31 5640   5.317   1.624   1.674  0.3907 -0.0770 -0.9398
  651poe    c31 5641   0.610   4.070   3.407 -0.6026 -0.0148  0.2935
  651poe     o2 5642   0.588   4.200   3.356  0.4958  0.0469 -0.0510
  651poe    c23 5643   0.710   4.242   3.300  0.2849 -0.3260 -0.8090
  651poe    c23 5644   0.678   4.379   3.238 -0.0194  0.1247  0.3153
  651poe     o2 5645   0.553   4.369   3.174 -0.0308  0.5263  0.2745
  651poe    c23 5646   0.490   4.488   3.130 -0.3870  0.2894  0.1300
  651poe    c23 5647   0.340   4.470   3.102 -0.4519  0.0006  0.6507
  651poe     o2 5648   0.296   4.395   3.213  0.0107 -0.6661  0.3883
  651poe    c23 5649   0.157   4.377   3.227 -0.1445  0.6024  0.5491
  651poe    c23 5650   0.139   4.263   3.329  0.5744  0.1683  0.1989
  651poe     o2 5651   0.251   4.178   3.318  0.3205 -0.2665  0.9144
  651poe    c31 5652   0.248   4.056   3.388  0.4470 -0.4029  0.6836
  652poe    c31 5653   2.441   6.163   0.648  0.3103 -0.4342  0.0202
  652poe     o2 5654   2.509   6.161   0.771  0.3351 -0.5660  0.0049
  652poe    c23 5655   2.499   6.041   0.845 -0.5052 -0.2531  0.4213
  652poe    c23 5656   2.585   6.068   0.970 -0.3167 -0.6171  0.3711
  652poe     o2 5657   2.716   6.110   0.936 -0.4541 -0.1408  0.4226
  652poe    c23 5658   2.801   6.001   0.908 -0.3598  0.0742 -0.1227
  652poe    c23 5659   2.911   6.057   0.815 -0.3253 -0.6927 -0.5538
  652poe     o2 5660   2.835   6.142   0.732 -0.1979  0.2111  0.2257
  652poe    c23 5661   2.895   6.204   0.620 -0.3015  0.4139  0.2844
  652poe    c23 5662   2.790   6.302   0.564 -0.0083  0.2578 -0.5529
  652poe     o2 5663   2.701   6.350   0.662 -0.1978 -0.2646 -0.4629
  652poe    c31 5664   2.637   6.471   0.624  0.3674  0.2132  0.0791
  653poe    c31 5665   0.363   3.711   3.175 -0.4380 -0.5428  0.4134
  653poe     o2 5666   0.479   3.715   3.255 -0.2819  0.0061  0.1650
  653poe    c23 5667   0.500   3.609   3.344  0.2633 -0.0213  0.0029
  653poe    c23 5668   0.638   3.624   3.411  0.0929  0.6651  0.2094
  653poe     o2 5669   0.746   3.608   3.322  0.1762  0.2298  0.3838
  653poe    c23 5670   0.874   3.639   3.373  0.1966  0.5793  0.1245
  653poe    c23 5671   0.979   3.625   3.261 -0.4805 -0.2105 -0.4244
  653poe     o2 5672   0.932   3.693   3.147 -0.6172 -0.0494 -0.2717
  653poe    c23 5673   1.043   3.685   3.061 -0.3554 -0.0975  0.0692
  653poe    c23 5674   0.989   3.759   2.937  0.0416 -0.8152 -0.5434
  653poe     o2 5675   0.857   3.729   2.899  0.1716 -0.8366 -0.9821
  653poe    c31 5676   0.820   3.826   2.803 -0.0141  0.0247 -0.0637
  654poe    c31 5677   5.227   5.017   1.039  0.3596 -0.2420 -0.2289
  654poe     o2 5678   5.196   4.919   1.135  0.0819  0.1028  0.0356
  654poe    c23 5679   5.308   4.834   1.143  0.5317  0.6917  0.0872
  654poe    c23 5680   5.285   4.743   1.266  0.4528  0.1119 -0.3528
  654poe     o2 5681   5.204   4.811   1.359 -0.1291 -0.3048 -0.5509
  654poe    c23 5682   5.287   4.872   1.456 -0.2746 -0.2198 -0.4804
  654poe    c23 5683   5.187   4.964   1.528  0.7857  0.6691 -0.1203
  654poe     o2 5684   5.131   5.047   1.428 -0.0899 -0.2956 -0.4475
  654poe    c23 5685   5.020   5.117   1.479 -0.0112 -0.4027 -0.1271
  654poe    c23 5686   4.967   5.191   1.355  0.0346 -0.3694 -0.1267
  654poe     o2 5687   4.957   5.093   1.254  0.1153 -0.4970 -0.0122
  654poe    c31 5688   4.871   5.134   1.150  0.4179 -0.6713 -0.3310
  655poe    c31 5689   5.840   2.354   1.472  0.0896  0.0702 -0.1993
  655poe     o2 5690   5.855   2.494   1.470  0.0133  0.0731 -0.7435
  655poe    c23 5691   5.729   2.558   1.469 -0.2307 -0.3953 -0.3621
  655poe    c23 5692   5.732   2.707   1.506  0.4384 -0.5926  0.4349
  655poe     o2 5693   5.800   2.788   1.413 -0.4799 -0.3564 -0.0437
  655poe    c23 5694   5.793   2.918   1.467 -0.2136 -0.2877 -0.1734
  655poe    c23 5695   5.876   3.011   1.376 -0.3389  0.3280  0.3307
  655poe     o2 5696   5.980   2.931   1.324 -0.2033  0.2658  0.6981
  655poe    c23 5697   6.079   3.013   1.266 -0.4125 -0.3864 -0.6201
  655poe    c23 5698   6.209   2.939   1.230  0.1167  0.3146 -0.1717
  655poe     o2 5699   6.186   2.830   1.144  0.2299  0.1549  0.0012
  655poe    c31 5700   6.292   2.811   1.053  0.0996 -0.3521 -0.0500
  656poe    c31 5701   2.040   5.753   4.747 -0.4995 -0.1524 -0.1909
  656poe     o2 5702   2.093   5.813   4.631  0.3318 -0.0066  0.2524
  656poe    c23 5703   2.103   5.953   4.644 -0.0063  0.0714 -0.2790
  656poe    c23 5704   2.196   6.008   4.534  0.0768  0.5253  0.0203
  656poe     o2 5705   2.154   5.975   4.404  0.5071 -0.2188  0.0652
  656poe    c23 5706   2.257   6.009   4.313  0.4780  0.0069  0.1150
  656poe    c23 5707   2.212   5.965   4.173 -0.1838  0.3218  0.2248
  656poe     o2 5708   2.170   5.833   4.199  1.3007 -0.1017  0.5651
  656poe    c23 5709   2.171   5.757   4.080  0.2839  0.4279  0.2033
  656poe    c23 5710   2.033   5.697   4.049  0.2624  0.4678  0.2223
  656poe     o2 5711   1.917   5.776   4.041  0.4934  0.8528  0.6533
  656poe    c31 5712   1.911   5.841   3.916  0.4191 -0.0147  0.2017
  657poe    c31 5713   4.263   1.396   4.979 -0.0486 -0.0894  0.0330
  657poe     o2 5714   4.325   1.410   4.853 -0.6813 -0.2895 -0.3053
  657poe    c23 5715   4.302   1.538   4.797 -0.3732 -0.0628  0.0801
  657poe    c23 5716   4.374   1.564   4.663  0.0223  0.2391  0.3481
  657poe     o2 5717   4.334   1.478   4.559  0.0374  0.3875  0.2205
  657poe    c23 5718   4.390   1.546   4.449 -0.2718 -0.2822 -0.3606
  657poe    c23 5719   4.343   1.471   4.323 -0.1725 -0.1327 -0.4876
  657poe     o2 5720   4.354   1.332   4.345 -0.4680 -0.1017 -0.1364
  657poe    c23 5721   4.294   1.251   4.247  0.2165 -0.4477 -0.2752
  657poe    c23 5722   4.269   1.112   4.309 -0.9033 -0.4206 -0.6444
  657poe     o2 5723   4.215   1.136   4.437 -0.0758 -0.1156 -0.3469
  657poe    c31 5724   4.117   1.036   4.450 -0.6004  0.4655  0.2550
  658poe    c31 5725   0.257   1.541   3.203  0.7656  0.3000  0.3128
  658poe     o2 5726   0.120   1.571   3.183  0.8160  0.1850 -0.2385
  658poe    c23 5727   0.101   1.669   3.084 -0.3620 -0.2340 -0.4404
  658poe    c23 5728  -0.051   1.686   3.067 -0.4453 -0.0410  0.4871
  658poe     o2 5729  -0.106   1.557   3.083  0.1803 -0.3568  0.1011
  658poe    c23 5730  -0.246   1.563   3.080  0.1475 -0.7407  0.7486
  658poe    c23 5731  -0.304   1.421   3.095  0.0814 -0.8830 -0.7100
  658poe     o2 5732  -0.237   1.367   3.207 -0.3256  0.2592  0.1045
  658poe    c23 5733  -0.199   1.231   3.193 -0.3794  0.2785 -0.2503
  658poe    c23 5734  -0.096   1.215   3.080 -0.0309 -0.5186  0.1698
  658poe     o2 5735   0.004   1.309   3.113 -0.2654 -0.1301 -0.2135
  658poe    c31 5736   0.079   1.320   2.993  0.2365  0.2083  0.1281
  659poe    c31 5737   5.842   2.211   6.587  0.4327  0.3091  0.0621
  659poe     o2 5738   5.819   2.095   6.663  0.0809  0.3313 -0.0057
  659poe    c23 5739   5.797   2.126   6.799 -0.1156  0.0141  0.0349
  659poe    c23 5740   5.751   1.992   6.860 -0.0227 -0.0978 -0.1394
  659poe     o2 5741   5.795   1.874   6.796  0.1724 -0.2976  0.3541
  659poe    c23 5742   5.740   1.763   6.863 -0.6902 -0.1043 -0.0077
  659poe    c23 5743   5.740   1.645   6.764 -0.8796 -0.3521  0.2850
  659poe     o2 5744   5.865   1.583   6.743 -0.4163  0.7701 -0.3615
  659poe    c23 5745   5.886   1.525   6.616 -0.3438  0.2361 -0.1069
  659poe    c23 5746   6.038   1.517   6.594 -0.3182  0.1989  0.0787
  659poe     o2 5747   6.094   1.511   6.724 -0.5821  0.2844  0.1974
  659poe    c31 5748   6.234   1.515   6.740 -0.5722  0.1692  0.1462
  660poe    c31 5749   3.624   0.143   0.110  0.4798  0.0217 -0.2928
  660poe     o2 5750   3.700   0.040   0.168 -0.0493 -0.0570  0.2738
  660poe    c23 5751   3.760  -0.035   0.065  0.8412  1.1007 -0.0721
  660poe    c23 5752   3.826  -0.164   0.119 -0.3290  0.2216 -0.7214
  660poe     o2 5753   3.768  -0.201   0.242  0.4029  0.0030 -0.4423
  660poe    c23 5754   3.849  -0.275   0.331  0.6602 -0.3067 -0.9279
  660poe    c23 5755   3.947  -0.180   0.401 -0.0566  0.2385 -0.6477
  660poe     o2 5756   3.876  -0.063   0.435 -0.4874 -0.2027 -0.0073
  660poe    c23 5757   3.965   0.036   0.484 -0.4322 -0.2569  0.0022
  660poe    c23 5758   3.883   0.161   0.522  0.1026  0.0583  0.1312
  660poe     o2 5759   3.814   0.199   0.406 -0.2331  0.0056  0.3112
  660poe    c31 5760   3.751   0.324   0.425  0.6832  0.5055  0.1084
  661poe    c31 5761   6.529   4.684   1.592  0.0134  1.4037  0.0046
  661poe     o2 5762   6.554   4.621   1.715  0.1369  0.2033 -0.6157
  661poe    c23 5763   6.679   4.671   1.759  0.3141 -0.0470 -0.8364
  661poe    c23 5764   6.719   4.584   1.880 -0.5732  0.4753 -0.1574
  661poe     o2 5765   6.696   4.449   1.848 -0.2578  0.3197  0.2714
  661poe    c23 5766   6.703   4.369   1.964  0.0164  0.9896  0.7165
  661poe    c23 5767   6.587   4.268   1.956  0.5658  0.3270  0.9892
  661poe     o2 5768   6.478   4.350   1.918  0.0676 -0.6283  0.3306
  661poe    c23 5769   6.361   4.284   1.875  0.0262 -0.1694 -0.2828
  661poe    c23 5770   6.271   4.380   1.795 -0.0303  0.0873  0.0886
  661poe     o2 5771   6.345   4.437   1.690 -0.0274  0.0415  0.0657
  661poe    c31 5772   6.248   4.476   1.594  0.2648  0.2319 -0.1536
  662poe    c31 5773   5.536   5.311   4.711  0.4046  0.2042  0.3908
  662poe     o2 5774   5.404   5.350   4.682  0.1817 -0.5972  0.2941
  662poe    c23 5775   5.416   5.491   4.676  0.1123 -0.6269 -0.6557
  662poe    c23 5776   5.271   5.540   4.670  0.2219 -0.1333  0.5074
  662poe     o2 5777   5.199   5.463   4.764 -0.5035  0.1810  0.2143
  662poe    c23 5778   5.061   5.496   4.768 -0.5178  0.1532 -0.0256
  662poe    c23 5779   4.995   5.382   4.847 -0.4686  0.6782  0.7857
  662poe     o2 5780   5.070   5.264   4.823 -1.3663  0.2162  0.1995
  662poe    c23 5781   5.016   5.142   4.868 -0.0727 -0.0845  0.9705
  662poe    c23 5782   5.117   5.049   4.798 -0.0984  0.4678  0.1840
  662poe     o2 5783   5.239   5.119   4.807  0.1328  0.0172  0.6587
  662poe    c31 5784   5.333   5.036   4.742  0.0267 -0.1279  0.6925
  663poe    c31 5785   6.141   4.387   5.919 -0.2044  0.4086  0.6772
  663poe     o2 5786   6.055   4.326   6.013  0.0551 -0.7513  0.1822
  663poe    c23 5787   5.944   4.282   5.939 -0.0567  0.0529 -0.1426
  663poe    c23 5788   5.839   4.208   6.025 -0.0394  0.2589  0.0560
  663poe     o2 5789   5.778   4.295   6.117  0.0945 -0.0436  0.4296
  663poe    c23 5790   5.646   4.255   6.144  0.2231 -0.4391  0.4702
  663poe    c23 5791   5.608   4.286   6.290 -0.1009 -0.4330  0.3861
  663poe     o2 5792   5.717   4.268   6.378 -0.1066  0.2864  0.5492
  663poe    c23 5793   5.729   4.139   6.434  0.2946 -0.1818 -0.5651
  663poe    c23 5794   5.856   4.135   6.522 -0.1025  0.3569  0.0426
  663poe     o2 5795   5.905   4.265   6.544  0.4321  0.2039 -0.2159
  663poe    c31 5796   6.041   4.260   6.579  0.4914 -0.3654 -0.5246
  664poe    c31 5797   1.283   3.013   4.397 -0.0741  0.3979 -0.3676
  664poe     o2 5798   1.406   3.081   4.396  0.3323 -0.3117  0.2598
  664poe    c23 5799   1.423   3.130   4.265 -0.4269  0.2398  0.3604
  664poe    c23 5800   1.563   3.191   4.247 -0.0137 -0.7229  0.2444
  664poe     o2 5801   1.670   3.144   4.326  0.7750 -0.1603 -0.4728
  664poe    c23 5802   1.778   3.235   4.333  0.0510  0.6741 -0.0650
  664poe    c23 5803   1.885   3.196   4.437 -0.0030 -0.2903 -0.3584
  664poe     o2 5804   1.821   3.152   4.554  0.3541 -0.0323 -0.0662
  664poe    c23 5805   1.773   3.252   4.641 -0.7371 -0.7387  0.1702
  664poe    c23 5806   1.677   3.178   4.735 -0.6708 -0.1537  0.7083
  664poe     o2 5807   1.590   3.101   4.655 -0.1349 -0.1752  0.1306
  664poe    c31 5808   1.463   3.072   4.710 -0.1971  0.7905  0.5152
  665poe    c31 5809   3.315   6.573   3.448 -0.1073  0.1095 -0.2023
  665poe     o2 5810   3.388   6.476   3.377 -0.3092 -0.0932 -0.1317
  665poe    c23 5811   3.448   6.397   3.477  0.1590  0.2787 -0.1183
  665poe    c23 5812   3.559   6.320   3.402  0.0254  0.2585 -0.2968
  665poe     o2 5813   3.506   6.303   3.273  0.1261  0.0893 -0.3169
  665poe    c23 5814   3.591   6.250   3.173  0.6803  0.1478  0.1185
  665poe    c23 5815   3.569   6.341   3.052 -0.1445 -0.0712  0.0940
  665poe     o2 5816   3.430   6.363   3.039 -0.1918 -0.1963  0.3793
  665poe    c23 5817   3.389   6.462   2.947  0.0767 -0.3123  0.1319
  665poe    c23 5818   3.248   6.505   2.993  0.3597  0.4569  0.3038
  665poe     o2 5819   3.256   6.546   3.128  0.2321  0.0025  0.4518
  665poe    c31 5820   3.133   6.607   3.159  0.0875 -0.1807  0.2425
  666poe    c31 5821   1.969   0.204   6.121 -0.0512  0.4107  0.4237
  666poe     o2 5822   1.852   0.157   6.058 -0.2193  0.1940  0.8932
  666poe    c23 5823   1.836   0.019   6.033 -0.6630  0.5054 -0.6505
  666poe    c23 5824   1.892  -0.027   5.897  0.4240 -0.5139  0.1201
  666poe     o2 5825   1.836   0.022   5.777  0.2441  0.0102  0.4123
  666poe    c23 5826   1.893  -0.064   5.681  0.2328  0.0514  0.3686
  666poe    c23 5827   1.833  -0.038   5.542 -0.5626  0.5514  0.7996
  666poe     o2 5828   1.705  -0.096   5.528 -0.1100 -0.1653 -0.5101
  666poe    c23 5829   1.657  -0.094   5.395 -0.3122  0.2899 -0.4300
  666poe    c23 5830   1.504  -0.076   5.406 -0.3633 -0.4167  0.0570
  666poe     o2 5831   1.460  -0.154   5.515  0.3322 -0.8175  0.0616
  666poe    c31 5832   1.319  -0.146   5.526  0.2822 -0.6432 -0.6124
  667poe    c31 5833   1.829   4.160   5.312  0.0263 -0.3111 -0.2123
  667poe     o2 5834   1.814   4.081   5.196 -0.6313 -0.1266 -0.2606
  667poe    c23 5835   1.896   3.966   5.203 -0.1212  0.2424 -0.0741
  667poe    c23 5836   1.803   3.845   5.185 -0.8068  0.6715  0.5377
  667poe     o2 5837   1.722   3.891   5.079  0.4014  0.1268 -0.6570
  667poe    c23 5838   1.621   3.800   5.042  0.3602 -0.0956 -0.0244
  667poe    c23 5839   1.559   3.853   4.911  0.4810  0.0724 -0.0134
  667poe     o2 5840   1.549   3.993   4.921  0.5405  0.0442  0.4450
  667poe    c23 5841   1.588   4.044   4.796  0.9995 -0.5493  0.3378
  667poe    c23 5842   1.641   4.187   4.822  0.2434 -0.2098  0.0575
  667poe     o2 5843   1.721   4.180   4.938 -0.4189 -0.9216  0.4820
  667poe    c31 5844   1.844   4.241   4.907 -0.9820  0.0236  0.0612
  668poe    c31 5845   6.019   0.149   4.674  0.2124  0.3038 -0.2670
  668poe     o2 5846   6.006   0.107   4.540  0.6029 -0.3478 -0.1057
  668poe    c23 5847   5.979   0.215   4.453 -0.1952 -0.3811  0.0932
  668poe    c23 5848   5.925   0.163   4.318  0.0721 -0.4490  0.0110
  668poe     o2 5849   6.005   0.057   4.272 -0.3459 -0.8730  0.2424
  668poe    c23 5850   5.930  -0.030   4.190 -0.1364 -0.1434 -0.7484
  668poe    c23 5851   5.850  -0.129   4.277  0.4143 -0.1849 -0.2784
  668poe     o2 5852   5.948  -0.174   4.367  0.0540  0.3676  0.3996
  668poe    c23 5853   5.921  -0.278   4.458  0.6554 -0.1193  0.0257
  668poe    c23 5854   6.044  -0.298   4.549 -0.1100  0.4357  1.2007
  668poe     o2 5855   6.099  -0.173   4.585 -0.1581  0.7676  0.1494
  668poe    c31 5856   6.216  -0.186   4.663  0.0742  0.4873 -0.2430
  669poe    c31 5857   3.859   0.473   1.512  0.0100 -0.7709  0.2450
  669poe     o2 5858   3.863   0.406   1.636 -0.2743  0.0026  0.6784
  669poe    c23 5859   3.953   0.298   1.639  0.0594  0.2462 -0.1579
  669poe    c23 5860   3.891   0.202   1.742  0.8759 -0.3092 -0.1729
  669poe     o2 5861   3.853   0.280   1.853  0.5502 -0.3189 -0.2762
  669poe    c23 5862   3.753   0.220   1.933  0.3011  0.6414  0.1507
  669poe    c23 5863   3.611   0.272   1.905 -0.0510 -0.4667 -0.1516
  669poe     o2 5864   3.617   0.411   1.886  0.3455 -0.5966 -1.0154
  669poe    c23 5865   3.501   0.470   1.832 -0.1548  0.0160  0.6438
  669poe    c23 5866   3.554   0.611   1.801  0.1350 -0.1255  0.4882
  669poe     o2 5867   3.663   0.604   1.711 -0.0399  0.0184  0.2620
  669poe    c31 5868   3.675   0.737   1.666  0.8587 -0.1787 -0.0817
  670poe    c31 5869   5.708   4.440   4.983  0.3409  0.8201 -0.2828
  670poe     o2 5870   5.834   4.400   4.933  0.1509 -0.3609  0.1513
  670poe    c23 5871   5.916   4.515   4.938 -0.3733  0.0256 -0.0952
  670poe    c23 5872   5.996   4.535   4.809 -0.0252  0.2368  0.1522
  670poe     o2 5873   6.033   4.402   4.780 -0.1659  0.1219  0.5010
  670poe    c23 5874   6.095   4.400   4.654 -0.2913 -0.3718  0.4454
  670poe    c23 5875   6.124   4.266   4.583 -0.2107 -0.2681  0.2825
  670poe     o2 5876   6.214   4.179   4.648 -0.0216 -0.2734  0.0159
  670poe    c23 5877   6.224   4.069   4.561 -0.2080 -0.2916  0.0161
  670poe    c23 5878   6.282   3.952   4.642  0.1744 -0.4114 -0.4198
  670poe     o2 5879   6.232   3.964   4.774  0.3772 -0.3261 -0.3510
  670poe    c31 5880   6.211   3.841   4.839 -0.0363 -0.1900 -0.2245
  671poe    c31 5881   1.132   0.765   0.714 -0.8880  0.3895  0.4862
  671poe     o2 5882   1.180   0.894   0.688 -0.0285 -0.0209 -0.0211
  671poe    c23 5883   1.126   0.959   0.576 -0.1685  0.2424  0.1961
  671poe    c23 5884   1.163   1.107   0.556  0.1901  0.0648 -0.5025
  671poe     o2 5885   1.119   1.154   0.682  0.9431  0.0451 -0.2257
  671poe    c23 5886   1.128   1.295   0.691  0.0230  0.0924  0.0061
  671poe    c23 5887   1.090   1.327   0.837 -0.2803 -0.2306  0.0000
  671poe     o2 5888   1.178   1.239   0.903  0.0590  0.0322 -0.1009
  671poe    c23 5889   1.161   1.213   1.041 -0.2529  0.3171 -0.0831
  671poe    c23 5890   1.072   1.088   1.048  0.1169  0.0399 -0.2544
  671poe     o2 5891   1.109   0.983   0.962 -0.5224 -0.0149 -0.4732
  671poe    c31 5892   1.081   0.860   1.025  0.0013  0.1043  0.0006
  672poe    c31 5893   5.908   1.400   5.897 -0.5366 -0.0437  0.1956
  672poe     o2 5894   5.909   1.456   5.767 -0.5949 -0.3266  0.0734
  672poe    c23 5895   6.037   1.436   5.711 -0.7329  0.0548 -0.3777
  672poe    c23 5896   6.090   1.523   5.596  0.1613 -0.1858 -0.1561
  672poe     o2 5897   6.008   1.509   5.482  0.2989  0.0673 -0.2882
  672poe    c23 5898   6.027   1.609   5.384 -0.4152  0.4721 -0.0257
  672poe    c23 5899   5.972   1.543   5.256  0.2557 -0.1507 -0.0036
  672poe     o2 5900   5.847   1.487   5.288  0.0709  0.0273 -0.4003
  672poe    c23 5901   5.799   1.438   5.165 -0.0595 -0.2292 -0.2467
  672poe    c23 5902   5.662   1.377   5.201 -0.1880  0.3271  0.2108
  672poe     o2 5903   5.662   1.288   5.311 -0.1717 -0.6117 -0.5407
  672poe    c31 5904   5.530   1.242   5.327 -0.3117  0.1991  0.7417
  673poe    c31 5905   1.057   3.104   0.949  0.8477  0.3103 -0.0637
  673poe     o2 5906   1.101   2.982   0.894  0.0864  0.2888 -0.6408
  673poe    c23 5907   0.992   2.907   0.845 -0.3578  0.7203 -0.3210
  673poe    c23 5908   1.054   2.821   0.733 -0.5594  0.1164  0.0291
  673poe     o2 5909   1.178   2.772   0.779 -0.6052  0.3429  0.3970
  673poe    c23 5910   1.263   2.716   0.681  0.1776  0.7842  0.8136
  673poe    c23 5911   1.396   2.699   0.756  0.1104 -0.7724  0.6187
  673poe     o2 5912   1.413   2.816   0.835  0.1163  0.0542 -0.5828
  673poe    c23 5913   1.497   2.793   0.946 -0.7940  0.0078  0.1113
  673poe    c23 5914   1.451   2.882   1.063 -0.3644 -0.1763  0.4183
  673poe     o2 5915   1.311   2.889   1.048 -0.2913  0.0764 -0.1752
  673poe    c31 5916   1.252   2.919   1.173 -0.2420  0.2623 -0.1956
  674poe    c31 5917   5.929   5.237   3.004 -0.3719 -0.0731 -0.2186
  674poe     o2 5918   5.811   5.248   3.080 -0.2287 -0.0368  0.0006
  674poe    c23 5919   5.713   5.171   3.013 -0.4184  0.4063 -0.2346
  674poe    c23 5920   5.601   5.150   3.117  0.0182  0.3077  0.2203
  674poe     o2 5921   5.603   5.256   3.209 -0.0533  0.4028  0.1126
  674poe    c23 5922   5.477   5.290   3.262 -0.1185  0.1274  0.1368
  674poe    c23 5923   5.500   5.404   3.362  0.2909 -0.2591  0.4839
  674poe     o2 5924   5.614   5.475   3.319  0.0345  0.2486  0.6298
  674poe    c23 5925   5.693   5.528   3.423  0.2539 -0.5849  0.8992
  674poe    c23 5926   5.840   5.549   3.383  0.0816 -0.2732  0.4220
  674poe     o2 5927   5.868   5.448   3.289  0.3163  0.2057 -0.0250
  674poe    c31 5928   6.000   5.457   3.239  0.3787 -0.3235  0.0379
  675poe    c31 5929   0.888   5.006   0.905  0.4856 -0.2689  1.3060
  675poe     o2 5930   0.963   4.887   0.917  0.9287 -0.1661 -0.2856
  675poe    c23 5931   0.939   4.810   1.032  0.1170 -0.1064 -0.4089
  675poe    c23 5932   1.048   4.700   1.033 -0.3622 -0.5844  0.1244
  675poe     o2 5933   1.052   4.648   0.902  0.3129 -0.2968  0.0250
  675poe    c23 5934   1.175   4.584   0.875  0.3758 -0.0781 -0.2097
  675poe    c23 5935   1.172   4.513   0.739 -1.0405 -0.0486 -0.2150
  675poe     o2 5936   1.158   4.604   0.632 -0.2261 -0.3327 -0.5751
  675poe    c23 5937   1.167   4.521   0.518  0.2643 -0.5464 -0.3827
  675poe    c23 5938   1.213   4.593   0.390 -0.2124 -0.0010 -0.2519
  675poe     o2 5939   1.147   4.716   0.368 -0.7667 -0.4244 -1.0063
  675poe    c31 5940   1.194   4.777   0.250  0.1628  0.2646 -0.2961
  676poe    c31 5941   4.427   0.149   3.406 -0.5573 -0.2669 -0.0166
  676poe     o2 5942   4.307   0.214   3.369 -0.1521  0.5877  0.1380
  676poe    c23 5943   4.226   0.232   3.483 -0.1833 -0.2903  0.2650
  676poe    c23 5944   4.121   0.338   3.445 -0.3480 -0.6431 -0.2757
  676poe     o2 5945   4.101   0.302   3.310 -0.1012 -0.2516 -0.4178
  676poe    c23 5946   3.970   0.335   3.269 -0.4908 -0.6351  0.4882
  676poe    c23 5947   3.991   0.393   3.128  0.1197 -1.2730  0.3099
  676poe     o2 5948   4.056   0.299   3.045 -0.2470 -1.0625 -0.2133
  676poe    c23 5949   4.074   0.366   2.921  0.0941 -0.1793  0.3018
  676poe    c23 5950   4.143   0.279   2.814  0.2499  0.2995  0.0138
  676poe     o2 5951   4.274   0.244   2.855  0.1846  0.0470  0.0041
  676poe    c31 5952   4.307   0.142   2.763 -0.1601 -0.2924  0.2526
  677poe    c31 5953   0.430   2.103   0.371 -0.3477  0.2110 -0.1515
  677poe     o2 5954   0.474   2.229   0.325  0.1998  0.0798  0.0132
  677poe    c23 5955   0.615   2.231   0.334  0.1885 -0.4829  0.3481
  677poe    c23 5956   0.676   2.347   0.254  0.1479 -0.4017  0.4358
  677poe     o2 5957   0.656   2.343   0.115  0.3831  0.4446  0.3703
  677poe    c23 5958   0.761   2.393   0.035  0.3215 -0.0366 -0.0139
  677poe    c23 5959   0.716   2.501  -0.065  0.4976  0.3047  0.2752
  677poe     o2 5960   0.601   2.438  -0.117  0.5473 -0.0376  0.5745
  677poe    c23 5961   0.546   2.497  -0.233  0.2815 -0.2195  0.6078
  677poe    c23 5962   0.410   2.434  -0.267  0.0590  0.5447  0.0719
  677poe     o2 5963   0.339   2.420  -0.146  0.0347 -0.6470 -0.0756
  677poe    c31 5964   0.200   2.396  -0.154 -0.2570  0.9494 -0.1483
  678poe    c31 5965   6.534   6.494   2.102  0.1665 -0.7786 -0.2530
  678poe     o2 5966   6.445   6.401   2.045 -0.1629 -0.3381 -0.4625
  678poe    c23 5967   6.353   6.333   2.128  0.4061 -0.0429  0.4222
  678poe    c23 5968   6.284   6.213   2.062 -0.4513  0.7188 -0.1038
  678poe     o2 5969   6.218   6.243   1.941 -0.5513  0.1365 -0.1994
  678poe    c23 5970   6.189   6.132   1.859  0.0389 -0.3188  0.1989
  678poe    c23 5971   6.135   6.188   1.726 -0.3449 -0.0417  0.4680
  678poe     o2 5972   6.199   6.309   1.691 -0.4082  0.0799  0.7696
  678poe    c23 5973   6.314   6.290   1.611 -0.4790  0.1140  0.6603
  678poe    c23 5974   6.370   6.433   1.605 -0.4311  0.0749  0.1690
  678poe     o2 5975   6.362   6.493   1.733  0.1994 -0.1944  0.3376
  678poe    c31 5976   6.376   6.632   1.718  0.5060 -0.2015  0.5410
  679poe    c31 5977   1.026   3.161   5.879 -0.1319  0.0324  0.3753
  679poe     o2 5978   1.019   3.024   5.912 -0.4997  0.0187  0.2499
  679poe    c23 5979   1.120   2.997   6.007 -0.3126 -0.0471  0.0333
  679poe    c23 5980   1.095   2.883   6.108 -0.2039 -0.1397 -0.0449
  679poe     o2 5981   1.099   2.755   6.049 -0.0662 -0.0961 -0.1318
  679poe    c23 5982   1.039   2.668   6.143  0.5101 -0.3275  0.0260
  679poe    c23 5983   1.077   2.524   6.104  0.9460 -0.1074 -0.3776
  679poe     o2 5984   1.044   2.510   5.968 -0.4568  0.1606 -0.0726
  679poe    c23 5985   1.086   2.386   5.917 -0.1899  0.3338 -0.2731
  679poe    c23 5986   1.005   2.348   5.792 -0.1432 -0.1951 -0.1458
  679poe     o2 5987   1.069   2.411   5.683  0.0021 -0.0851  0.0034
  679poe    c31 5988   0.992   2.495   5.600 -0.2479  0.2866  0.6033
  680poe    c31 5989   2.522   4.691   4.383 -0.1383  0.1565  0.3915
  680poe     o2 5990   2.499   4.735   4.515  0.2495  0.4915  0.3500
  680poe    c23 5991   2.476   4.628   4.603 -0.6739  0.4068  0.0248
  680poe    c23 5992   2.437   4.685   4.741 -0.1454  0.3078  0.2168
  680poe     o2 5993   2.526   4.787   4.781  0.5299 -0.1492 -0.0880
  680poe    c23 5994   2.461   4.882   4.863  0.5656  0.1801 -0.4379
  680poe    c23 5995   2.525   5.018   4.829  0.0307  0.4112 -0.5235
  680poe     o2 5996   2.548   5.030   4.691 -0.0835 -0.0848 -0.5864
  680poe    c23 5997   2.612   5.149   4.653  0.2103 -0.0429  0.0256
  680poe    c23 5998   2.615   5.146   4.499  0.2611 -0.6079  0.0350
  680poe     o2 5999   2.653   5.016   4.460  0.0367 -0.5121 -0.5223
  680poe    c31 6000   2.667   5.002   4.321  0.6634 -0.2673 -0.4865
  681poe    c31 6001   4.206   5.038   2.955  0.3603  0.6916 -0.1223
  681poe     o2 6002   4.298   5.074   3.056  0.1831  0.7623  0.0150
  681poe    c23 6003   4.424   5.095   2.996  0.3281 -0.5784 -0.1831
  681poe    c23 6004   4.529   5.079   3.107  0.1915  0.0569  0.0460
  681poe     o2 6005   4.501   5.156   3.221 -0.2411 -0.7159  0.4668
  681poe    c23 6006   4.600   5.251   3.253 -0.2974 -0.4427 -0.1627
  681poe    c23 6007   4.594   5.278   3.404  0.3642 -0.8866 -0.0529
  681poe     o2 6008   4.466   5.320   3.446  0.6053 -0.2130  0.0082
  681poe    c23 6009   4.471   5.336   3.586 -0.4905 -0.8041  0.1223
  681poe    c23 6010   4.324   5.356   3.627 -0.3700  0.3843 -0.0065
  681poe     o2 6011   4.243   5.329   3.514  0.2417 -0.0678 -0.3434
  681poe    c31 6012   4.104   5.337   3.534  0.1861 -0.1158 -0.7152
  682poe    c31 6013   4.942   1.568   4.310  0.4576  0.0246  0.5212
  682poe     o2 6014   4.847   1.510   4.223  0.4577  0.2705  0.3563
  682poe    c23 6015   4.767   1.417   4.293 -0.2298 -0.1867 -0.9987
  682poe    c23 6016   4.669   1.341   4.202 -0.6621 -0.0734 -0.6268
  682poe     o2 6017   4.750   1.296   4.096  0.4665 -0.1277  0.2443
  682poe    c23 6018   4.665   1.274   3.986  0.4609  0.0230  0.2200
  682poe    c23 6019   4.652   1.396   3.892  0.3837 -0.3228 -0.2191
  682poe     o2 6020   4.784   1.443   3.883  0.5829 -0.8201  0.0183
  682poe    c23 6021   4.789   1.548   3.789  0.5112 -0.7243  0.1208
  682poe    c23 6022   4.930   1.602   3.821  0.4246 -0.0730 -0.5563
  682poe     o2 6023   4.958   1.601   3.959  0.2201 -0.0823 -0.5137
  682poe    c31 6024   5.074   1.682   3.968  0.0861  0.0177  0.3797
  683poe    c31 6025   1.970   6.444   4.754 -0.2058  0.1521 -0.0619
  683poe     o2 6026   2.007   6.468   4.888  0.5573  0.1657 -0.2750
  683poe    c23 6027   2.016   6.348   4.961 -0.0612  0.0516 -0.3856
  683poe    c23 6028   2.048   6.382   5.107 -0.3189  0.3154 -0.3891
  683poe     o2 6029   2.166   6.458   5.102 -0.2438  0.2210 -0.1171
  683poe    c23 6030   2.197   6.487   5.236 -0.8811  0.0191  0.0768
  683poe    c23 6031   2.323   6.576   5.234 -0.5962 -0.3863 -0.3478
  683poe     o2 6032   2.284   6.691   5.162 -0.7627  0.0344  0.4010
  683poe    c23 6033   2.366   6.806   5.166 -0.1277 -0.4018 -0.0188
  683poe    c23 6034   2.324   6.929   5.084 -0.1780 -0.2141  0.2883
  683poe     o2 6035   2.325   6.908   4.944  0.8673  0.0796  0.2417
  683poe    c31 6036   2.267   7.013   4.871  0.3265  0.3126  0.9901
  684poe    c31 6037   2.076   1.217   2.134  0.0084  0.3549 -0.6913
  684poe     o2 6038   1.950   1.156   2.126 -0.0401  0.3666 -0.0392
  684poe    c23 6039   1.973   1.018   2.144  0.5896  0.3813 -0.6895
  684poe    c23 6040   1.840   0.949   2.181  0.7057  0.2972 -0.4241
  684poe     o2 6041   1.743   1.015   2.102 -0.0064  0.1559  0.3218
  684poe    c23 6042   1.628   0.934   2.114 -0.1276  0.1065 -1.1067
  684poe    c23 6043   1.491   1.003   2.097 -0.4053 -0.1536  0.0136
  684poe     o2 6044   1.496   1.133   2.152 -0.4578 -0.1357 -0.0240
  684poe    c23 6045   1.486   1.136   2.293  0.8615 -0.0487  0.0799
  684poe    c23 6046   1.585   1.251   2.323 -0.1011  0.7143  0.4042
  684poe     o2 6047   1.720   1.229   2.289 -0.2421  0.7139 -0.1715
  684poe    c31 6048   1.786   1.312   2.382  0.3147 -0.2625  0.3249
  685poe    c31 6049   6.585   4.674   6.353  0.6599  0.0827  0.9059
  685poe     o2 6050   6.651   4.793   6.317  0.5145 -0.0022  0.3542
  685poe    c23 6051   6.755   4.756   6.229  0.0822 -0.2201 -0.0710
  685poe    c23 6052   6.829   4.883   6.182  0.2115 -0.3536 -0.2293
  685poe     o2 6053   6.758   4.995   6.134 -0.1860 -0.1470  0.8220
  685poe    c23 6054   6.746   4.989   5.994  0.7654  0.5325  0.7015
  685poe    c23 6055   6.682   5.117   5.936  0.0753 -0.0715  0.1089
  685poe     o2 6056   6.572   5.159   6.015 -0.0018  0.3745 -0.2300
  685poe    c23 6057   6.546   5.293   5.983  0.0405  0.4683  0.1269
  685poe    c23 6058   6.442   5.344   6.085 -0.2748  0.2772 -0.0970
  685poe     o2 6059   6.472   5.281   6.207 -0.2936  0.0941 -0.1864
  685poe    c31 6060   6.352   5.273   6.280 -0.0689  0.1629  0.1931
  686poe    c31 6061   3.344   1.547   3.638  0.9226  0.0167  0.3920
  686poe     o2 6062   3.383   1.654   3.722  1.1715  0.1089  0.1579
  686poe    c23 6063   3.425   1.761   3.640  0.3410 -0.1904 -0.6726
  686poe    c23 6064   3.476   1.885   3.714  0.4713 -0.4141 -0.3862
  686poe     o2 6065   3.605   1.869   3.769  0.4922  0.4649 -0.1621
  686poe    c23 6066   3.602   1.824   3.903 -0.3635 -0.1027 -0.3643
  686poe    c23 6067   3.727   1.736   3.913  0.0531  0.4878 -0.3432
  686poe     o2 6068   3.845   1.803   3.873  0.3618  0.1099 -0.0805
  686poe    c23 6069   3.966   1.734   3.894  0.0785 -0.2060  0.5190
  686poe    c23 6070   4.067   1.843   3.855 -0.6392  0.1287 -0.4477
  686poe     o2 6071   4.015   1.918   3.748 -0.5026  0.5697 -0.2105
  686poe    c31 6072   4.092   2.036   3.747 -0.3893  0.4970 -0.0788
  687poe    c31 6073   4.182   4.439   5.635 -0.3412 -0.0022 -0.6663
  687poe     o2 6074   4.190   4.565   5.697 -0.2871 -0.0329 -0.6104
  687poe    c23 6075   4.058   4.601   5.733 -0.0716  0.1605  0.0087
  687poe    c23 6076   4.057   4.752   5.762 -0.8806  0.0626  0.4942
  687poe     o2 6077   4.154   4.779   5.861  0.3386 -0.4134 -0.5459
  687poe    c23 6078   4.190   4.915   5.865 -0.2023 -0.2828  0.0334
  687poe    c23 6079   4.320   4.911   5.948  0.0467  0.5099 -0.3144
  687poe     o2 6080   4.412   4.827   5.882  0.3004  0.4905  0.0644
  687poe    c23 6081   4.536   4.805   5.945  0.1584 -0.0344  0.1660
  687poe    c23 6082   4.528   4.662   6.000  0.0752 -0.1746 -0.2030
  687poe     o2 6083   4.467   4.595   5.892 -0.0491 -0.4781  0.0530
  687poe    c31 6084   4.448   4.458   5.919 -0.4515 -0.3269  0.5598
  688poe    c31 6085   4.361   5.469   0.179  0.0357  0.1541 -0.1218
  688poe     o2 6086   4.239   5.533   0.150  0.0379  0.0618 -0.3326
  688poe    c23 6087   4.148   5.523   0.257  0.4939 -1.1851 -0.0366
  688poe    c23 6088   4.005   5.500   0.204  0.4674 -0.2725 -0.3782
  688poe     o2 6089   4.003   5.559   0.075  0.0461  0.4730 -0.0398
  688poe    c23 6090   3.918   5.484  -0.009 -0.6389  1.0370  0.1450
  688poe    c23 6091   3.932   5.553  -0.146 -0.1251 -0.0841 -0.3795
  688poe     o2 6092   4.073   5.562  -0.154 -0.0682 -0.0944  0.4596
  688poe    c23 6093   4.116   5.650  -0.255 -0.3915 -0.4072  0.0448
  688poe    c23 6094   4.267   5.651  -0.281 -0.3486  0.2571  0.2970
  688poe     o2 6095   4.329   5.660  -0.154  0.8464 -0.3406 -0.2258
  688poe    c31 6096   4.463   5.700  -0.171  0.5204  0.9255  0.0975
  689poe    c31 6097   3.204   0.008   6.295  0.2586  0.4492 -0.2313
  689poe     o2 6098   3.263  -0.077   6.391  0.2215  0.3241 -0.3187
  689poe    c23 6099   3.302   0.006   6.497 -0.1035  0.0665  0.0078
  689poe    c23 6100   3.420  -0.051   6.579 -0.1117  0.3773  0.2390
  689poe     o2 6101   3.396  -0.183   6.621  0.3662  0.3182  0.3297
  689poe    c23 6102   3.497  -0.261   6.681  0.1060 -0.3680 -0.1084
  689poe    c23 6103   3.437  -0.402   6.665  0.0157 -0.3537  0.1027
  689poe     o2 6104   3.387  -0.425   6.535  0.0983 -0.7761  0.1450
  689poe    c23 6105   3.284  -0.520   6.520 -0.0205 -0.5867 -0.2708
  689poe    c23 6106   3.142  -0.461   6.527  0.1953 -0.0906 -0.0478
  689poe     o2 6107   3.141  -0.336   6.462 -0.5434 -0.0602  0.0157
  689poe    c31 6108   3.018  -0.268   6.462 -0.3210  0.3479  0.3961
  690poe    c31 6109   1.781   1.564   4.254  0.1725  1.2264 -0.3722
  690poe     o2 6110   1.885   1.589   4.162  0.5473  0.1230 -0.2640
  690poe    c23 6111   1.859   1.516   4.044  0.2749  0.4449 -0.4048
  690poe    c23 6112   1.987   1.440   4.005  0.3695  0.0614  0.6350
  690poe     o2 6113   2.082   1.544   4.020 -0.1586  0.6209  0.1576
  690poe    c23 6114   2.182   1.528   3.923 -0.1107  0.0184  0.2997
  690poe    c23 6115   2.277   1.650   3.927  0.7462 -0.6138 -0.3324
  690poe     o2 6116   2.318   1.664   4.061  0.1245 -0.6004 -0.1412
  690poe    c23 6117   2.433   1.741   4.086 -0.1522 -0.2997  0.2170
  690poe    c23 6118   2.472   1.733   4.235 -0.3062 -0.0072  0.2749
  690poe     o2 6119   2.375   1.777   4.326 -0.6384  0.1953 -0.1727
  690poe    c31 6120   2.434   1.865   4.420 -0.3885  0.3878 -0.5072
  691poe    c31 6121   6.825   1.038   5.958 -0.5638 -0.8265  0.2433
  691poe     o2 6122   6.914   1.082   6.059 -0.3298 -0.0355 -0.2955
  691poe    c23 6123   6.995   1.189   6.018  0.0124 -0.2169 -0.0934
  691poe    c23 6124   7.145   1.160   6.038 -0.0739 -1.1384 -0.7439
  691poe     o2 6125   7.153   1.119   6.172  0.0453 -0.0687 -0.4109
  691poe    c23 6126   7.275   1.068   6.220  0.1513  0.2338 -0.3597
  691poe    c23 6127   7.254   0.916   6.218  0.0637  0.2331  0.3052
  691poe     o2 6128   7.133   0.896   6.289  0.0546 -0.3011  0.1482
  691poe    c23 6129   7.082   0.766   6.272  0.2187 -0.3037 -0.3389
  691poe    c23 6130   6.933   0.779   6.308  0.2156 -0.4374 -0.3046
  691poe     o2 6131   6.865   0.874   6.230 -0.2591 -0.6684 -0.1757
  691poe    c31 6132   6.730   0.858   6.270 -0.3406  1.0028  0.2952
  692poe    c31 6133   1.659   3.304   1.966  0.3024  0.0676 -0.0565
  692poe     o2 6134   1.758   3.244   1.886  0.1104 -0.0905 -0.1742
  692poe    c23 6135   1.805   3.344   1.800  0.2746 -0.0846 -0.0774
  692poe    c23 6136   1.916   3.289   1.708  0.3105 -0.2893  0.0907
  692poe     o2 6137   2.011   3.219   1.787  0.7625  0.3412  0.1109
  692poe    c23 6138   2.092   3.123   1.723  0.5217  0.2197 -0.0125
  692poe    c23 6139   2.107   3.002   1.816  0.4737  0.0654 -0.2045
  692poe     o2 6140   1.977   2.964   1.855  0.3398  0.4036 -0.3182
  692poe    c23 6141   1.912   2.880   1.763 -0.1685  0.5168 -0.0670
  692poe    c23 6142   1.775   2.862   1.829 -0.1452  0.0564 -0.1398
  692poe     o2 6143   1.719   2.979   1.884 -0.6728 -0.2049 -0.1109
  692poe    c31 6144   1.597   2.958   1.951 -0.5251  0.1303  0.2686
  693poe    c31 6145   2.824   5.735   2.520 -0.2354  0.1592  0.3724
  693poe     o2 6146   2.923   5.769   2.614  0.2202  0.3275 -0.1579
  693poe    c23 6147   3.046   5.709   2.581 -0.0717 -0.4504  0.1434
  693poe    c23 6148   3.156   5.793   2.649 -1.4218  0.4132  1.3378
  693poe     o2 6149   3.186   5.754   2.781 -0.3561 -0.0873  0.9583
  693poe    c23 6150   3.293   5.837   2.820 -0.1603  0.0555  0.1448
  693poe    c23 6151   3.403   5.743   2.873 -0.1459 -0.4459 -0.7589
  693poe     o2 6152   3.335   5.646   2.951  0.3205 -0.2299 -0.0761
  693poe    c23 6153   3.399   5.558   3.040  0.0552  0.0040  0.3478
  693poe    c23 6154   3.289   5.486   3.121 -0.6114  0.4840 -0.1202
  693poe     o2 6155   3.207   5.414   3.031  0.0297  0.0181 -0.3410
  693poe    c31 6156   3.127   5.325   3.107 -0.3397  0.2751 -0.4279
  694poe    c31 6157   0.873   0.384   4.525  0.6479 -0.2857  0.4782
  694poe     o2 6158   0.767   0.296   4.497  0.2240  0.3311  0.1356
  694poe    c23 6159   0.653   0.324   4.576  0.0439  0.4625 -0.1679
  694poe    c23 6160   0.547   0.216   4.549 -0.0298  0.3683  0.4916
  694poe     o2 6161   0.555   0.097   4.624 -0.8156 -0.0200 -0.0345
  694poe    c23 6162   0.472  -0.001   4.565  0.4623 -1.1162 -0.0463
  694poe    c23 6163   0.461  -0.111   4.672 -0.2045 -0.6627  0.3563
  694poe     o2 6164   0.593  -0.155   4.696  0.0478  0.0407  0.2777
  694poe    c23 6165   0.623  -0.273   4.768 -0.1250 -0.3635 -0.3038
  694poe    c23 6166   0.774  -0.304   4.761  0.0090  0.0976  0.4675
  694poe     o2 6167   0.863  -0.195   4.763  0.0693  0.0498  0.3419
  694poe    c31 6168   0.991  -0.216   4.819  0.3207 -0.9527 -0.5641
  695poe    c31 6169   3.923   4.806   3.848  0.1133 -0.2854  0.2528
  695poe     o2 6170   3.981   4.678   3.860 -0.1662 -0.3853  0.5447
  695poe    c23 6171   3.890   4.583   3.911  0.1137 -0.3933  1.0338
  695poe    c23 6172   3.968   4.450   3.917 -0.1243 -0.5836  0.1271
  695poe     o2 6173   4.073   4.462   3.824 -0.1320 -0.0868  0.1799
  695poe    c23 6174   4.162   4.352   3.829  0.1069  0.1052  0.2111
  695poe    c23 6175   4.268   4.366   3.719  0.0333  0.4820  0.1849
  695poe     o2 6176   4.236   4.328   3.587  0.1323 -0.0610  0.3150
  695poe    c23 6177   4.220   4.192   3.553 -0.5494  0.0887  0.0257
  695poe    c23 6178   4.165   4.180   3.410 -0.4732  0.5240 -0.0392
  695poe     o2 6179   4.266   4.235   3.328 -0.2581  0.5339  0.2304
  695poe    c31 6180   4.256   4.191   3.194  0.1254 -0.2711  0.4591
  696poe    c31 6181   4.267   4.767   2.680  0.5446  0.3414  1.0174
  696poe     o2 6182   4.176   4.672   2.730  0.2405 -0.1062 -0.3462
  696poe    c23 6183   4.051   4.734   2.746  0.2332 -0.1837 -0.0937
  696poe    c23 6184   3.986   4.694   2.880  0.7466 -0.3843  0.0999
  696poe     o2 6185   4.014   4.556   2.890 -0.0363 -0.5108  0.5842
  696poe    c23 6186   3.942   4.504   3.000  0.1851 -0.6244  0.6755
  696poe    c23 6187   3.921   4.352   2.985  0.4751 -0.6198  0.1944
  696poe     o2 6188   4.042   4.279   2.977  0.5259 -0.4926 -0.2267
  696poe    c23 6189   4.050   4.221   2.849 -0.1375 -0.1936 -0.4062
  696poe    c23 6190   4.191   4.222   2.787 -0.0742 -0.1088 -0.2602
  696poe     o2 6191   4.221   4.353   2.747 -0.2195 -0.0641 -0.2249
  696poe    c31 6192   4.297   4.323   2.631  0.4179 -0.2193  0.2293
  697poe    c31 6193   4.150   6.593   5.669 -0.1064 -0.3029 -0.4899
  697poe     o2 6194   4.044   6.681   5.699  0.0290 -0.4112  0.3379
  697poe    c23 6195   4.048   6.800   5.624 -0.5822 -0.3691  0.3690
  697poe    c23 6196   3.921   6.876   5.665 -0.2009  0.2726  0.3899
  697poe     o2 6197   3.817   6.782   5.686 -0.1909  0.1920  0.0840
  697poe    c23 6198   3.704   6.848   5.739 -0.2314  0.3741 -0.2238
  697poe    c23 6199   3.632   6.726   5.799  0.2256  0.0399 -0.3515
  697poe     o2 6200   3.730   6.650   5.866 -0.0527 -0.3299 -0.3578
  697poe    c23 6201   3.683   6.524   5.906 -0.3772  0.0592  0.5287
  697poe    c23 6202   3.806   6.435   5.930 -0.1136  0.1744 -0.3579
  697poe     o2 6203   3.910   6.454   5.837  0.1595  0.7787  0.0687
  697poe    c31 6204   3.998   6.346   5.860 -0.5762  0.1268 -0.1743
  698poe    c31 6205   4.420   3.973   6.182 -0.8235  0.8432  0.4248
  698poe     o2 6206   4.300   3.916   6.227 -0.6062  0.0419 -0.0068
  698poe    c23 6207   4.285   3.903   6.367  0.2352  0.0843  0.0887
  698poe    c23 6208   4.173   3.799   6.386  0.5058 -0.2325 -0.0404
  698poe     o2 6209   4.075   3.831   6.290 -0.0059  0.4782  0.7089
  698poe    c23 6210   3.955   3.760   6.309  0.1290  0.2368  0.6581
  698poe    c23 6211   3.857   3.786   6.194  0.0851 -0.0349  0.6332
  698poe     o2 6212   3.921   3.860   6.093 -0.2890 -0.4600  0.0764
  698poe    c23 6213   3.912   3.815   5.960  0.3487 -0.2809 -0.0308
  698poe    c23 6214   4.023   3.897   5.890  0.3944 -0.4175 -0.1208
  698poe     o2 6215   4.141   3.885   5.966 -0.0151 -0.0410  0.5900
  698poe    c31 6216   4.238   3.958   5.896 -0.3444 -0.5420 -0.4139
  699poe    c31 6217   3.970   6.515   4.105 -0.0677  0.2703  0.4862
  699poe     o2 6218   3.929   6.644   4.066 -0.0872  0.0930 -0.0815
  699poe    c23 6219   4.013   6.749   4.107 -0.1735  0.0982  0.0820
  699poe    c23 6220   3.967   6.829   4.231 -0.2425 -0.2716  0.2964
  699poe     o2 6221   3.827   6.817   4.230 -0.2096 -0.6874 -0.0584
  699poe    c23 6222   3.776   6.748   4.342  0.4436 -0.3484  0.4571
  699poe    c23 6223   3.640   6.684   4.308  0.4283 -0.1032  0.0492
  699poe     o2 6224   3.646   6.625   4.180 -0.2664 -0.2582  0.0856
  699poe    c23 6225   3.519   6.574   4.144 -0.2302 -0.2665 -0.0316
  699poe    c23 6226   3.552   6.482   4.026  0.0806 -0.1742 -0.0183
  699poe     o2 6227   3.632   6.547   3.929 -0.5512  0.1058 -0.3577
  699poe    c31 6228   3.640   6.490   3.800 -0.0246 -0.1105 -0.2308
  700poe    c31 6229   0.997   1.425   3.049  0.4313  0.4742 -0.3214
  700poe     o2 6230   0.995   1.307   2.972  0.4394  0.1632  0.1509
  700poe    c23 6231   0.907   1.313   2.862  0.3449  0.3234  0.2353
  700poe    c23 6232   0.929   1.187   2.776 -0.3723  0.1593  0.2812
  700poe     o2 6233   0.884   1.084   2.860 -0.1226 -0.0020  0.2172
  700poe    c23 6234   0.831   0.974   2.790  0.2349 -0.0415  0.0047
  700poe    c23 6235   0.756   0.885   2.890  0.1407 -0.0446 -0.0681
  700poe     o2 6236   0.803   0.890   3.023 -0.0324  0.1170 -0.0124
  700poe    c23 6237   0.726   0.792   3.091 -0.4354  0.2008 -0.3439
  700poe    c23 6238   0.733   0.784   3.244  0.6390 -0.2624 -0.4076
  700poe     o2 6239   0.709   0.902   3.317  0.1866 -0.7306  0.2209
  700poe    c31 6240   0.660   0.872   3.446 -0.3035 -0.4742  0.0976
  701poe    c31 6241   3.808   3.483   4.218 -0.2827 -0.1180 -0.2378
  701poe     o2 6242   3.710   3.572   4.171  0.2749  0.4596 -0.3167
  701poe    c23 6243   3.618   3.502   4.090 -0.0886  0.4038  0.1397
  701poe    c23 6244   3.542   3.617   4.020 -0.3220  0.0162 -0.2506
  701poe     o2 6245   3.526   3.712   4.123  0.0807 -0.0941 -0.0830
  701poe    c23 6246   3.425   3.805   4.089 -0.1478 -0.3110  0.0038
  701poe    c23 6247   3.415   3.908   4.203 -0.4358 -0.2256 -0.0991
  701poe     o2 6248   3.549   3.945   4.229 -0.5117  0.0336 -0.0734
  701poe    c23 6249   3.556   4.050   4.323  0.6998 -0.0925 -0.0162
  701poe    c23 6250   3.696   4.049   4.389  0.6925  0.5178  0.0115
  701poe     o2 6251   3.810   4.072   4.310  0.9990 -0.3516  0.1939
  701poe    c31 6252   3.812   4.184   4.225 -0.0064 -0.0033  0.6204
  702poe    c31 6253   4.675   6.654   4.113  0.2339 -0.4379 -0.0836
  702poe     o2 6254   4.678   6.645   4.254 -0.2791 -0.7135 -0.0849
  702poe    c23 6255   4.803   6.593   4.295  0.1230  0.1571 -0.1644
  702poe    c23 6256   4.812   6.599   4.448  0.0078 -0.1897 -0.1428
  702poe     o2 6257   4.756   6.724   4.483  0.2039 -0.0839 -0.2077
  702poe    c23 6258   4.720   6.743   4.618  0.4665  0.3910 -0.2018
  702poe    c23 6259   4.670   6.888   4.636 -0.1033  0.1929 -0.1500
  702poe     o2 6260   4.554   6.894   4.557 -0.3726  0.2763  0.2476
  702poe    c23 6261   4.540   7.020   4.496  0.0845  0.2930  0.1724
  702poe    c23 6262   4.639   7.062   4.385 -0.0591  0.2714  0.0340
  702poe     o2 6263   4.641   6.945   4.306 -0.0458 -0.0919  0.5623
  702poe    c31 6264   4.742   6.971   4.211 -0.2936  0.0432  0.3321
  703poe    c31 6265   6.374   5.990   3.943 -0.5507  0.3802 -0.0529
  703poe     o2 6266   6.301   5.871   3.963 -0.1478  0.1343 -0.0274
  703poe    c23 6267   6.284   5.845   4.101 -0.2026 -0.0979 -0.0777
  703poe    c23 6268   6.154   5.914   4.146  0.1689  0.2539  0.4686
  703poe     o2 6269   6.032   5.855   4.107  0.2305  0.1533  0.4265
  703poe    c23 6270   5.921   5.920   4.164 -0.2839 -0.2713 -0.0809
  703poe    c23 6271   5.817   5.888   4.055 -0.1018 -0.2961 -0.2474
  703poe     o2 6272   5.826   5.748   4.044 -0.0686 -0.3135  0.0018
  703poe    c23 6273   5.724   5.676   3.977 -0.0981 -0.3268  0.0606
  703poe    c23 6274   5.778   5.533   3.963 -0.0638 -0.2736 -0.3583
  703poe     o2 6275   5.908   5.557   3.913 -0.0303 -0.3359 -0.3016
  703poe    c31 6276   5.945   5.459   3.819  0.2060  0.0384 -0.6013
  704poe    c31 6277   4.132   3.956   0.149  0.4933 -0.0601 -0.4027
  704poe     o2 6278   4.173   4.035   0.259  0.2177 -0.2579 -0.1549
  704poe    c23 6279   4.280   4.121   0.227  0.5570 -0.4519  0.4587
  704poe    c23 6280   4.298   4.223   0.340 -0.6361  0.2641  0.0161
  704poe     o2 6281   4.300   4.138   0.452  0.3237 -0.4702 -0.5388
  704poe    c23 6282   4.308   4.205   0.576 -0.3265 -0.5773 -0.4309
  704poe    c23 6283   4.295   4.091   0.679  0.2576 -0.4437 -0.2026
  704poe     o2 6284   4.170   4.028   0.665  0.2601 -0.4751 -0.0805
  704poe    c23 6285   4.178   3.888   0.683 -0.0884 -0.4952 -0.0831
  704poe    c23 6286   4.055   3.832   0.609 -0.0637 -0.7004  0.0335
  704poe     o2 6287   4.065   3.862   0.472  0.2119  0.4850  0.3103
  704poe    c31 6288   3.991   3.763   0.406  0.4402  0.4836  0.0554
  705poe    c31 6289   5.851   4.790   0.931  0.4325  0.2584 -0.2610
  705poe     o2 6290   5.768   4.836   0.827 -0.0670  0.0108  0.0258
  705poe    c23 6291   5.833   4.946   0.767 -0.5290  0.3612  0.1638
  705poe    c23 6292   5.773   4.997   0.635 -0.0205  0.1468 -0.1531
  705poe     o2 6293   5.771   4.876   0.562  0.4666  0.0322  0.0186
  705poe    c23 6294   5.649   4.851   0.496  0.0686  0.8206  0.4283
  705poe    c23 6295   5.604   4.706   0.525  0.3076  0.7225  0.3145
  705poe     o2 6296   5.588   4.680   0.663 -0.3375 -0.0800  0.0910
  705poe    c23 6297   5.577   4.542   0.689  0.2570 -0.0738  0.3897
  705poe    c23 6298   5.499   4.537   0.822  0.2400 -0.1931  0.3755
  705poe     o2 6299   5.563   4.627   0.909  0.4128  0.2199 -0.1691
  705poe    c31 6300   5.547   4.585   1.043 -0.3727  0.5391 -0.1577
  706poe    c31 6301   3.191   0.627   3.208 -0.2298  0.2152  0.2056
  706poe     o2 6302   3.150   0.753   3.256 -0.8454  0.1172 -0.0580
  706poe    c23 6303   3.130   0.763   3.395  0.2638 -0.0601  0.1207
  706poe    c23 6304   3.026   0.873   3.424  0.1311 -0.1615  0.0314
  706poe     o2 6305   3.069   1.004   3.396  0.1257 -0.1635  0.0145
  706poe    c23 6306   3.015   1.096   3.488  0.1785 -0.1466  0.0285
  706poe    c23 6307   3.062   1.233   3.435 -0.4557  0.2170  0.3870
  706poe     o2 6308   3.201   1.224   3.411 -0.5132  0.3704 -0.0181
  706poe    c23 6309   3.253   1.331   3.336 -0.0851 -0.2840 -0.6642
  706poe    c23 6310   3.406   1.350   3.342 -0.0723 -0.5730 -0.0356
  706poe     o2 6311   3.487   1.251   3.282  0.5917  0.0609 -0.1902
  706poe    c31 6312   3.620   1.293   3.261  0.5662  0.4833  0.4590
  707poe    c31 6313   1.001   0.530   1.814 -0.0918 -0.4091 -0.0978
  707poe     o2 6314   0.957   0.601   1.700  0.4290  0.1160  0.0207
  707poe    c23 6315   0.839   0.534   1.663  0.2823  0.2144  0.3139
  707poe    c23 6316   0.806   0.591   1.524 -0.4556  0.0405  0.4143
  707poe     o2 6317   0.840   0.727   1.521  0.2702 -0.1479 -0.3913
  707poe    c23 6318   0.787   0.789   1.406 -1.2599 -0.0798  0.3262
  707poe    c23 6319   0.829   0.936   1.423  0.5056 -0.4126 -0.9268
  707poe     o2 6320   0.952   0.923   1.491  0.0149  0.2697  0.1104
  707poe    c23 6321   0.974   1.031   1.578 -0.3035  0.2113  0.2652
  707poe    c23 6322   1.062   0.999   1.700  0.1838  0.0458 -0.1265
  707poe     o2 6323   1.075   0.861   1.726 -0.5631 -0.0626 -0.3027
  707poe    c31 6324   1.125   0.843   1.857  1.0463  0.3382 -0.8391
  708poe    c31 6325   0.705   6.312   5.658 -0.3304 -0.7175 -0.1063
  708poe     o2 6326   0.843   6.284   5.659 -0.2229 -0.1911  0.1590
  708poe    c23 6327   0.877   6.273   5.522  0.1660  0.5623  0.1890
  708poe    c23 6328   1.028   6.243   5.517  0.0968  0.2550 -0.1199
  708poe     o2 6329   1.079   6.327   5.618  0.0216  0.0321  0.1048
  708poe    c23 6330   1.220   6.318   5.622  0.0130 -0.0144  0.3296
  708poe    c23 6331   1.252   6.352   5.769  0.0165  0.3650  0.2419
  708poe     o2 6332   1.153   6.287   5.845  0.0398  0.0121 -0.0269
  708poe    c23 6333   1.182   6.272   5.982 -0.2532 -0.1006  0.0223
  708poe    c23 6334   1.059   6.188   6.021 -0.1323 -0.3772 -0.1874
  708poe     o2 6335   0.943   6.228   5.950 -0.1856  0.2222  0.2316
  708poe    c31 6336   0.831   6.145   5.969 -0.2424  0.1789 -0.2946
  709poe    c31 6337   0.693   0.333   2.021  0.3805  0.1407 -0.1221
  709poe     o2 6338   0.703   0.406   2.142 -0.6849 -0.1478  0.1474
  709poe    c23 6339   0.592   0.493   2.149 -0.5394  0.0384  0.1594
  709poe    c23 6340   0.588   0.546   2.293 -0.2644  0.1852  0.1127
  709poe     o2 6341   0.717   0.580   2.341 -0.2596  0.2094  0.0823
  709poe    c23 6342   0.712   0.582   2.482 -0.8118 -0.7105  0.0852
  709poe    c23 6343   0.860   0.559   2.519 -0.6739  0.1934  0.1195
  709poe     o2 6344   0.893   0.446   2.442 -0.3824  0.2904  0.1023
  709poe    c23 6345   1.032   0.424   2.440 -0.3712  0.3743 -0.0501
  709poe    c23 6346   1.062   0.290   2.370 -0.9140  0.2240  0.0022
  709poe     o2 6347   0.998   0.295   2.245  0.0977  0.3808 -0.5191
  709poe    c31 6348   1.082   0.232   2.151  0.4767  0.6371 -0.3582
  710poe    c31 6349   2.266   5.605   3.252 -0.5265 -0.5748  0.1772
  710poe     o2 6350   2.239   5.512   3.150  0.5454 -0.3150 -0.3592
  710poe    c23 6351   2.154   5.570   3.054  0.1456 -0.2677  0.0201
  710poe    c23 6352   2.123   5.460   2.950 -0.1427 -0.4149  0.2600
  710poe     o2 6353   2.238   5.398   2.896  0.1801  0.2693  0.1625
  710poe    c23 6354   2.212   5.260   2.885  0.0451  0.2723  0.4433
  710poe    c23 6355   2.343   5.183   2.903  0.0057  0.0799 -0.0910
  710poe     o2 6356   2.381   5.224   3.033 -0.2730 -0.2343  0.0898
  710poe    c23 6357   2.509   5.171   3.060 -0.2456  0.1163  0.6607
  710poe    c23 6358   2.568   5.237   3.186  0.0099 -0.0480  0.6268
  710poe     o2 6359   2.523   5.371   3.188 -0.3627 -0.1489 -0.3955
  710poe    c31 6360   2.618   5.443   3.263 -0.1525 -0.7792 -0.0515
  711poe    c31 6361   1.363   2.207   0.670  0.1421 -0.0478 -0.4710
  711poe     o2 6362   1.390   2.069   0.677  0.2296  0.0033  0.3210
  711poe    c23 6363   1.471   2.035   0.567 -0.2098  0.3329 -0.1097
  711poe    c23 6364   1.531   1.894   0.583 -0.4517  0.1174 -1.0526
  711poe     o2 6365   1.432   1.816   0.646 -0.0892  0.0959 -0.5052
  711poe    c23 6366   1.479   1.690   0.687 -0.3425  0.1881  0.0853
  711poe    c23 6367   1.400   1.654   0.814  0.2406  0.0404  0.4119
  711poe     o2 6368   1.401   1.765   0.901 -0.1665  0.2982  0.0886
  711poe    c23 6369   1.299   1.762   0.998 -0.2424 -0.1600 -0.0047
  711poe    c23 6370   1.297   1.903   1.060 -0.7334 -0.1208 -0.1065
  711poe     o2 6371   1.280   1.991   0.951 -0.8658  0.0602  0.0599
  711poe    c31 6372   1.196   2.099   0.983  0.0854  0.7588  0.2351
  712poe    c31 6373   0.956   6.220   4.896 -0.2019 -0.4100 -0.1061
  712poe     o2 6374   1.073   6.167   4.837  0.1778  0.2268  0.0532
  712poe    c23 6375   1.068   6.026   4.824  0.2238  0.1967  0.3525
  712poe    c23 6376   1.204   5.972   4.777 -0.0854 -0.2335 -0.0594
  712poe     o2 6377   1.304   6.061   4.821  0.1405 -0.4298 -0.1724
  712poe    c23 6378   1.424   6.019   4.759 -0.1253  0.1175 -1.0785
  712poe    c23 6379   1.548   6.093   4.810 -0.4820  0.1915 -0.3013
  712poe     o2 6380   1.523   6.230   4.784  0.1358  0.5532  0.9317
  712poe    c23 6381   1.618   6.325   4.825  0.3994  0.5757  0.2738
  712poe    c23 6382   1.553   6.460   4.858 -0.2491  0.3915 -0.2328
  712poe     o2 6383   1.479   6.514   4.751 -0.2207  0.2251 -0.3358
  712poe    c31 6384   1.434   6.644   4.783  0.1364  0.3419 -0.3119
  713poe    c31 6385   6.009   0.636   3.324 -0.3348  0.1983 -0.2887
  713poe     o2 6386   6.026   0.506   3.272  0.2769  0.3238 -0.4011
  713poe    c23 6387   5.956   0.480   3.153 -0.4560  0.2770  0.0393
  713poe    c23 6388   5.964   0.327   3.136  0.1106  0.3287 -0.1570
  713poe     o2 6389   5.916   0.254   3.246 -0.2441  0.0764 -0.4781
  713poe    c23 6390   5.884   0.123   3.203 -0.5537  0.0218 -0.0820
  713poe    c23 6391   5.866   0.026   3.321  0.4298 -0.9033 -0.6848
  713poe     o2 6392   5.980   0.039   3.405 -0.1481 -0.4877  0.0471
  713poe    c23 6393   5.952  -0.039   3.519 -0.2685 -0.1648  0.2403
  713poe    c23 6394   6.078  -0.071   3.603 -0.1247 -0.1045  0.0490
  713poe     o2 6395   6.167   0.036   3.582 -0.5243  0.2832  0.3169
  713poe    c31 6396   6.271   0.041   3.677 -0.2717  0.2075  0.0445
  714poe    c31 6397   1.182   3.415   0.230 -0.5640  0.0481 -0.5700
  714poe     o2 6398   1.192   3.316   0.130  0.2740 -0.5734  0.1085
  714poe    c23 6399   1.067   3.314   0.064  0.2106  0.0237  0.2012
  714poe    c23 6400   1.013   3.172   0.087  0.9279 -0.2509  0.2145
  714poe     o2 6401   1.098   3.089   0.011  0.1898 -0.5134 -0.3373
  714poe    c23 6402   1.099   2.957   0.060  0.4132 -0.3727  0.0407
  714poe    c23 6403   1.237   2.923   0.119  0.4355 -0.1061  0.1421
  714poe     o2 6404   1.286   3.046   0.167  0.4117  0.0613 -0.2600
  714poe    c23 6405   1.414   3.016   0.218 -0.0693  0.1324  1.0301
  714poe    c23 6406   1.494   3.147   0.229 -0.0478  0.2446 -0.3208
  714poe     o2 6407   1.482   3.220   0.109 -0.5594  0.4878 -0.1252
  714poe    c31 6408   1.530   3.353   0.117 -0.5481  0.4761 -0.0012
  715poe    c31 6409   5.592   4.474   2.006  0.0016  0.1177  0.1194
  715poe     o2 6410   5.624   4.517   2.136  0.1350 -0.2024  0.1931
  715poe    c23 6411   5.528   4.619   2.154  0.3952  0.1587 -0.4594
  715poe    c23 6412   5.547   4.668   2.298 -0.2103 -0.5083 -0.1493
  715poe     o2 6413   5.684   4.698   2.317 -0.1621 -0.7247 -0.1475
  715poe    c23 6414   5.712   4.746   2.447  0.2876  0.0456 -0.5223
  715poe    c23 6415   5.846   4.674   2.471 -0.0726 -0.4683 -0.0097
  715poe     o2 6416   5.825   4.543   2.424 -0.4609 -0.3051 -0.2908
  715poe    c23 6417   5.943   4.466   2.416 -0.2769 -0.0034 -0.5019
  715poe    c23 6418   5.904   4.329   2.358  0.1102 -0.3835  0.1288
  715poe     o2 6419   5.825   4.347   2.242  0.0477  0.0700  0.2404
  715poe    c31 6420   5.846   4.228   2.170 -0.5983 -0.0743  0.2865
  716poe    c31 6421   1.194   5.866   3.924 -0.5860 -0.4297  0.1845
  716poe     o2 6422   1.067   5.916   3.957 -0.2928  0.1797  0.4026
  716poe    c23 6423   1.086   6.015   4.056  0.1891  0.6849 -0.1947
  716poe    c23 6424   0.948   6.084   4.066 -0.1049  0.1382 -0.4128
  716poe     o2 6425   0.886   6.088   3.940 -0.1607  0.2283 -0.3826
  716poe    c23 6426   0.831   6.214   3.909 -0.1788  0.2908 -0.0982
  716poe    c23 6427   0.733   6.218   3.790 -0.2169 -0.0113 -0.0781
  716poe     o2 6428   0.805   6.165   3.681 -0.0663  0.2019 -0.0837
  716poe    c23 6429   0.708   6.166   3.579 -0.3966  0.0946  0.2255
  716poe    c23 6430   0.788   6.108   3.461 -0.3643  0.0469  0.2708
  716poe     o2 6431   0.829   5.977   3.494 -0.2536  0.0793  0.2646
  716poe    c31 6432   0.912   5.907   3.405 -0.0018 -0.6641  1.0692
  717poe    c31 6433   0.208   0.423   1.237 -0.3726 -0.2220 -0.2629
  717poe     o2 6434   0.164   0.553   1.205  0.8513  0.3321  0.1996
  717poe    c23 6435   0.138   0.631   1.320  0.3618  0.1772  0.1973
  717poe    c23 6436   0.076   0.770   1.298  0.5139  0.1449 -0.4695
  717poe     o2 6437   0.160   0.876   1.258  0.2031  0.5587 -0.0408
  717poe    c23 6438   0.277   0.897   1.334  0.1692 -0.0734  0.1929
  717poe    c23 6439   0.263   1.040   1.389 -0.8594 -0.1273  0.0850
  717poe     o2 6440   0.271   1.131   1.282 -0.1752 -0.2944 -0.0128
  717poe    c23 6441   0.268   1.267   1.319  0.7167 -0.1565 -0.4348
  717poe    c23 6442   0.256   1.345   1.186  0.3680 -0.6935 -0.7223
  717poe     o2 6443   0.163   1.287   1.098 -0.1254 -0.9153 -0.0611
  717poe    c31 6444   0.130   1.388   1.006 -0.2969 -0.6203  0.3246
  718poe    c31 6445   0.198   3.342   3.160 -0.3385 -0.1113 -0.2221
  718poe     o2 6446   0.299   3.244   3.177  0.0189  0.2496 -0.2472
  718poe    c23 6447   0.262   3.122   3.117 -0.0177  0.0486  0.1831
  718poe    c23 6448   0.344   3.001   3.165 -0.3336 -0.1355  0.2662
  718poe     o2 6449   0.278   2.879   3.144 -0.8892  0.2336 -0.1531
  718poe    c23 6450   0.325   2.815   3.027 -0.3778 -0.0622  0.2090
  718poe    c23 6451   0.282   2.668   3.036  0.2595 -0.2767 -0.1804
  718poe     o2 6452   0.159   2.652   3.103  0.0840 -0.2496 -0.4973
  718poe    c23 6453   0.117   2.518   3.090  0.0968 -0.3382  0.3238
  718poe    c23 6454  -0.018   2.504   3.163 -0.1230  0.2450  0.0371
  718poe     o2 6455  -0.010   2.576   3.284  0.3346 -0.2458  0.3028
  718poe    c31 6456  -0.084   2.511   3.386 -0.2415  0.3614  0.2743
  719poe    c31 6457   4.256   2.893   5.596 -0.6703  0.0613  0.3434
  719poe     o2 6458   4.304   3.025   5.613  0.1056 -0.1463 -0.1569
  719poe    c23 6459   4.278   3.088   5.736  0.3344 -0.0000 -0.1855
  719poe    c23 6460   4.401   3.081   5.828  0.0296 -0.1635  0.2091
  719poe     o2 6461   4.507   3.138   5.755 -0.0558 -0.2826 -0.0089
  719poe    c23 6462   4.629   3.107   5.818  0.2018 -0.0585 -0.3914
  719poe    c23 6463   4.733   3.168   5.722  0.3959  0.0721 -0.0995
  719poe     o2 6464   4.700   3.121   5.593 -0.6956  0.1525  0.1372
  719poe    c23 6465   4.780   3.166   5.485 -0.3647 -0.0212  0.3081
  719poe    c23 6466   4.932   3.153   5.509 -0.2324  0.1172 -0.4325
  719poe     o2 6467   4.967   3.022   5.471 -0.0625  0.0564 -0.0689
  719poe    c31 6468   5.105   2.992   5.477  0.1095  0.7202 -0.6102
  720poe    c31 6469   3.482   4.580   6.711 -0.1946  0.2795 -0.0943
  720poe     o2 6470   3.514   4.672   6.812 -0.4575 -0.0967  0.3369
  720poe    c23 6471   3.427   4.782   6.798 -0.5306 -0.2545 -0.4478
  720poe    c23 6472   3.476   4.908   6.871 -0.4045 -0.1206 -0.7619
  720poe     o2 6473   3.460   4.909   7.011  0.0819  0.7178 -0.7011
  720poe    c23 6474   3.413   5.036   7.052 -0.1371  0.3604  0.1866
  720poe    c23 6475   3.469   5.070   7.191  0.0274 -0.4836  0.3373
  720poe     o2 6476   3.596   5.011   7.186  0.1778 -0.1521  0.1988
  720poe    c23 6477   3.669   5.029   7.305  0.1370 -0.1905  0.2297
  720poe    c23 6478   3.772   4.914   7.307  0.2226 -0.1241 -0.2446
  720poe     o2 6479   3.722   4.783   7.296  0.1331 -0.1704  0.6046
  720poe    c31 6480   3.789   4.697   7.385  0.0885 -0.5636  0.2632
  721poe    c31 6481   2.004   3.572   6.160  0.9817 -0.4778  0.0713
  721poe     o2 6482   2.055   3.701   6.184  0.6439 -0.3465  0.0881
  721poe    c23 6483   2.159   3.689   6.278  0.7783  0.2243  0.0144
  721poe    c23 6484   2.259   3.806   6.287  0.6639  0.3296 -0.0790
  721poe     o2 6485   2.334   3.834   6.171  0.5202 -0.6172 -0.4095
  721poe    c23 6486   2.412   3.950   6.188 -0.6649  0.0762  0.3981
  721poe    c23 6487   2.477   3.977   6.051 -0.4238  0.3518  0.5657
  721poe     o2 6488   2.384   4.003   5.948 -0.2819  0.3229  0.4296
  721poe    c23 6489   2.443   4.029   5.823 -0.8025  0.2520  0.1633
  721poe    c23 6490   2.337   4.044   5.712 -0.4676 -0.1967 -0.2208
  721poe     o2 6491   2.238   3.946   5.732 -0.3691 -0.2390  0.0720
  721poe    c31 6492   2.140   3.949   5.631 -0.7194 -0.2931  0.4091
  722poe    c31 6493   4.396   5.596   2.266  0.2395 -0.6427 -0.2519
  722poe     o2 6494   4.299   5.658   2.185  0.0457  0.1123  0.5288
  722poe    c23 6495   4.177   5.588   2.199 -0.1704  0.3110 -0.2961
  722poe    c23 6496   4.062   5.690   2.191 -0.2059  0.3574  0.7384
  722poe     o2 6497   4.099   5.793   2.102 -0.9928 -0.0756 -0.0970
  722poe    c23 6498   4.008   5.899   2.080 -0.4237  0.4407  0.0256
  722poe    c23 6499   4.068   5.978   1.963 -0.2497  0.0640 -0.1397
  722poe     o2 6500   4.207   5.986   1.984 -0.3036  0.3014  0.1172
  722poe    c23 6501   4.287   5.990   1.868  0.1038 -0.0546  0.3797
  722poe    c23 6502   4.425   5.935   1.907  0.0046 -0.0060  0.8007
  722poe     o2 6503   4.383   5.809   1.954  0.2780 -0.2530  0.3952
  722poe    c31 6504   4.462   5.714   1.887 -0.0376 -0.3730  0.1933
  723poe    c31 6505   1.174   5.711   1.674  0.2803  0.1813 -0.2171
  723poe     o2 6506   1.216   5.836   1.722  0.3551 -0.1933  0.7206
  723poe    c23 6507   1.237   5.914   1.606  0.4693  0.2166  1.0130
  723poe    c23 6508   1.291   6.056   1.633 -0.6338  0.7529  0.4561
  723poe     o2 6509   1.410   6.026   1.701 -0.4578  0.4035  0.0045
  723poe    c23 6510   1.515   6.120   1.702  0.0872 -0.1943 -0.4007
  723poe    c23 6511   1.595   6.118   1.833  0.0647  0.4305 -0.3717
  723poe     o2 6512   1.512   6.131   1.946 -0.1920 -0.1983 -0.4803
  723poe    c23 6513   1.594   6.132   2.061 -0.4936  1.0668 -0.2561
  723poe    c23 6514   1.509   6.083   2.180 -0.0974  0.2348 -0.3035
  723poe     o2 6515   1.434   5.969   2.145 -0.1436  0.2661 -0.3064
  723poe    c31 6516   1.383   5.912   2.264  0.8425  0.9951  0.4849
  724poe    c31 6517   6.786   2.682   0.139 -0.3040 -0.2910  0.1885
  724poe     o2 6518   6.808   2.741   0.013  0.3059 -0.0955  0.3796
  724poe    c23 6519   6.931   2.804  -0.013 -0.0313  0.4306  0.0465
  724poe    c23 6520   6.980   2.792  -0.158  0.1032 -0.0631  0.1336
  724poe     o2 6521   6.861   2.775  -0.231 -0.1351  0.3831  0.4159
  724poe    c23 6522   6.879   2.726  -0.362  0.0938  0.1588  0.5320
  724poe    c23 6523   6.738   2.751  -0.419  0.1186  0.1779  0.4776
  724poe     o2 6524   6.641   2.721  -0.321 -0.3457 -0.2155 -0.0993
  724poe    c23 6525   6.530   2.807  -0.321  0.3760  0.7349  0.5233
  724poe    c23 6526   6.440   2.785  -0.198 -0.1126 -0.4405 -0.0293
  724poe     o2 6527   6.539   2.792  -0.097 -0.3836 -0.4610  0.2412
  724poe    c31 6528   6.515   2.913  -0.029 -0.1033 -0.2861  0.0319
  725poe    c31 6529   3.069   0.949   6.296  0.2605 -0.6813 -0.2517
  725poe     o2 6530   3.203   0.907   6.290  0.2675 -0.6390 -0.3918
  725poe    c23 6531   3.227   0.890   6.152  0.2230 -0.4982 -0.4171
  725poe    c23 6532   3.376   0.886   6.111  0.4379  0.3013  0.2401
  725poe     o2 6533   3.448   0.782   6.173  0.0106 -0.5857 -0.7069
  725poe    c23 6534   3.588   0.800   6.166 -0.0227 -0.2655 -0.5890
  725poe    c23 6535   3.666   0.680   6.222  0.2410  0.1262 -0.1082
  725poe     o2 6536   3.636   0.557   6.159  0.3161 -0.1599  0.4128
  725poe    c23 6537   3.756   0.487   6.182  0.3657 -0.2348 -0.0748
  725poe    c23 6538   3.741   0.378   6.074  0.0620 -0.1137 -0.1574
  725poe     o2 6539   3.614   0.322   6.100 -0.2829  0.8252  0.2115
  725poe    c31 6540   3.610   0.204   6.024  0.0099  0.3207  0.9690
  726poe    c31 6541   5.678   0.489   0.603 -0.7585 -0.5071 -0.0883
  726poe     o2 6542   5.681   0.461   0.741  0.8853  0.1798  0.0385
  726poe    c23 6543   5.571   0.528   0.798  0.5949 -0.2260 -0.0427
  726poe    c23 6544   5.558   0.524   0.951 -0.2208  0.0974 -0.0986
  726poe     o2 6545   5.608   0.395   0.980 -0.5589 -0.0081  0.0244
  726poe    c23 6546   5.651   0.374   1.113  1.0257  0.6534 -0.3549
  726poe    c23 6547   5.741   0.250   1.106 -0.5715 -0.5518 -0.2402
  726poe     o2 6548   5.839   0.270   1.006  0.0910 -0.0546  0.4903
  726poe    c23 6549   5.914   0.153   0.982 -0.2242 -0.1949  0.1717
  726poe    c23 6550   5.977   0.183   0.844  0.5507  0.1889  0.6051
  726poe     o2 6551   5.873   0.228   0.761  0.6339 -0.1009  0.3452
  726poe    c31 6552   5.917   0.214   0.628  0.2028 -0.1130  0.2023
  727poe    c31 6553   5.332   4.287   1.272  0.3897 -0.5018 -0.2530
  727poe     o2 6554   5.265   4.278   1.396 -0.0123  0.0120 -0.4293
  727poe    c23 6555   5.132   4.326   1.394 -0.0396 -0.0363  0.1433
  727poe    c23 6556   5.101   4.390   1.531 -0.4011 -0.2366  0.1548
  727poe     o2 6557   5.209   4.360   1.616 -0.2677  0.1826  0.1387
  727poe    c23 6558   5.201   4.430   1.738 -0.3954  0.1054  0.1747
  727poe    c23 6559   5.272   4.355   1.852 -0.5225 -0.8217 -0.3396
  727poe     o2 6560   5.390   4.313   1.786 -0.1270 -0.1750 -0.0642
  727poe    c23 6561   5.438   4.182   1.810 -0.9364 -0.4509  0.0903
  727poe    c23 6562   5.528   4.139   1.693 -0.3383  0.2437  0.2841
  727poe     o2 6563   5.460   4.155   1.571 -0.0542  0.3222  0.1362
  727poe    c31 6564   5.487   4.047   1.484 -0.0710  0.5107 -0.1071
  728poe    c31 6565   2.469   4.865   5.773 -0.0677  0.1871  0.2472
  728poe     o2 6566   2.514   4.983   5.836  0.3747 -0.0223  0.3286
  728poe    c23 6567   2.632   4.959   5.911  0.5355 -0.2779 -0.0056
  728poe    c23 6568   2.597   4.919   6.055  0.8054 -0.5404 -0.0111
  728poe     o2 6569   2.589   5.034   6.137  0.5234 -0.4431 -0.1705
  728poe    c23 6570   2.702   5.043   6.221  0.2117  0.1210  0.1952
  728poe    c23 6571   2.705   5.180   6.291  0.4562 -0.2423  0.9143
  728poe     o2 6572   2.670   5.150   6.424 -0.7258 -0.4125  0.5773
  728poe    c23 6573   2.713   5.249   6.515 -0.2241  0.2722 -0.3842
  728poe    c23 6574   2.856   5.224   6.564 -0.2528 -0.4977 -0.6786
  728poe     o2 6575   2.941   5.210   6.452 -0.3277 -0.4766 -0.7382
  728poe    c31 6576   3.071   5.162   6.478 -0.1076  0.6235  0.2992
  729poe    c31 6577   1.520   1.076   6.454 -0.3832 -0.3587  0.3114
  729poe     o2 6578   1.464   1.191   6.397  0.5149  0.2835  0.6924
  729poe    c23 6579   1.447   1.290   6.496 -0.0166  0.6636  0.2308
  729poe    c23 6580   1.408   1.424   6.430 -0.7143  0.6386  0.5807
  729poe     o2 6581   1.289   1.400   6.358 -0.0875 -0.4919 -0.1157
  729poe    c23 6582   1.243   1.512   6.285 -0.3561 -0.1449  0.5738
  729poe    c23 6583   1.120   1.461   6.208  0.0319 -0.0146 -0.1456
  729poe     o2 6584   1.164   1.343   6.145 -0.0682 -0.2961  0.3068
  729poe    c23 6585   1.056   1.268   6.095 -0.1554  0.3541 -0.4984
  729poe    c23 6586   1.101   1.121   6.093  0.8553  0.6451  0.2038
  729poe     o2 6587   1.169   1.088   6.212 -0.0526  0.0225  0.5640
  729poe    c31 6588   1.212   0.955   6.226  0.2139  0.1250  0.7227
  730poe    c31 6589   2.340   2.552   3.012 -0.0371 -0.2436 -0.2382
  730poe     o2 6590   2.459   2.568   2.939 -0.1518  0.3185 -0.3078
  730poe    c23 6591   2.539   2.453   2.946  0.0601  0.4774 -0.0847
  730poe    c23 6592   2.607   2.432   2.809 -0.5517 -0.1549 -0.2975
  730poe     o2 6593   2.675   2.554   2.788  0.5208 -0.6550  0.2033
  730poe    c23 6594   2.698   2.578   2.651 -0.2789  0.4931  0.2474
  730poe    c23 6595   2.744   2.724   2.633  0.7259  0.2380  0.6621
  730poe     o2 6596   2.641   2.780   2.711  0.0443  0.1270 -0.1538
  730poe    c23 6597   2.635   2.920   2.700 -0.2214  0.1557  0.3268
  730poe    c23 6598   2.511   2.961   2.781 -0.5656  0.3337 -0.2864
  730poe     o2 6599   2.491   2.863   2.881 -0.3688 -0.2493 -0.8109
  730poe    c31 6600   2.414   2.908   2.990  0.3573  0.0253 -0.4088
  731poe    c31 6601   4.712   5.026   0.762 -0.1810 -0.3537 -0.2123
  731poe     o2 6602   4.580   4.982   0.789 -0.0618 -0.6571 -0.1206
  731poe    c23 6603   4.491   4.989   0.680 -0.4280  0.2730  0.2333
  731poe    c23 6604   4.349   4.929   0.687 -0.4346  0.2620  0.0156
  731poe     o2 6605   4.346   4.797   0.735  0.2561  0.2047 -0.0860
  731poe    c23 6606   4.211   4.761   0.754  0.3027  0.1932  0.2381
  731poe    c23 6607   4.190   4.662   0.870  0.5051  0.6952  0.7107
  731poe     o2 6608   4.295   4.569   0.882  0.1139  0.0404 -0.6475
  731poe    c23 6609   4.268   4.450   0.953 -0.2993  0.4352 -0.1352
  731poe    c23 6610   4.402   4.397   1.007 -0.4748 -0.3470 -0.4488
  731poe     o2 6611   4.498   4.383   0.904 -0.1070 -0.1968 -0.1272
  731poe    c31 6612   4.633   4.382   0.946 -0.1661  0.7402  0.1025
  732poe    c31 6613   0.048   4.752   5.304  0.0569  0.5643  0.4831
  732poe     o2 6614   0.060   4.653   5.404 -0.4830 -0.0995 -0.1038
  732poe    c23 6615   0.092   4.729   5.518  0.5045 -0.0681 -0.3943
  732poe    c23 6616   0.086   4.641   5.644  0.1648  0.0297 -0.3396
  732poe     o2 6617   0.173   4.537   5.604  0.1366 -0.0414 -0.2168
  732poe    c23 6618   0.136   4.427   5.684 -0.0248  0.1081 -0.0857
  732poe    c23 6619   0.178   4.303   5.603  0.3322  0.4120 -0.3680
  732poe     o2 6620   0.120   4.316   5.475 -0.7400  0.2235  0.0861
  732poe    c23 6621   0.129   4.201   5.394 -0.2139  0.0815  0.3448
  732poe    c23 6622   0.048   4.233   5.267  0.5131 -0.3045 -0.2227
  732poe     o2 6623   0.082   4.367   5.243  0.4598 -0.2439  0.0370
  732poe    c31 6624   0.087   4.390   5.104  0.0663  0.2878  0.1042
  733poe    c31 6625   3.190   5.786   2.069 -0.6168  0.4088 -0.3238
  733poe     o2 6626   3.254   5.876   1.981  0.0024  0.3784  0.0810
  733poe    c23 6627   3.351   5.955   2.046  0.1918 -0.0722  0.3507
  733poe    c23 6628   3.477   5.998   1.969 -0.2737 -0.1978 -0.5022
  733poe     o2 6629   3.449   6.092   1.869 -0.2431 -0.6262 -0.9180
  733poe    c23 6630   3.570   6.123   1.804  0.1900  0.1965  0.2461
  733poe    c23 6631   3.537   6.208   1.681 -0.8251  0.1146  0.4563
  733poe     o2 6632   3.406   6.188   1.632 -0.7063  0.0823  0.1456
  733poe    c23 6633   3.396   6.238   1.501  0.1823 -0.5362 -0.1679
  733poe    c23 6634   3.249   6.219   1.462 -0.1138  0.5040  0.3993
  733poe     o2 6635   3.215   6.084   1.443 -0.1737  0.5039  0.5110
  733poe    c31 6636   3.081   6.053   1.415 -0.0020  0.4446 -0.2559
  734poe    c31 6637   4.714   0.922   6.682  0.3833 -0.3503 -0.2261
  734poe     o2 6638   4.788   0.995   6.777 -0.3876  0.6435 -0.3808
  734poe    c23 6639   4.922   1.009   6.736 -0.1812 -0.7316 -0.1914
  734poe    c23 6640   4.967   1.140   6.802 -0.4486 -0.8387  0.2126
  734poe     o2 6641   4.977   1.145   6.942  0.2427 -0.4120  0.1554
  734poe    c23 6642   5.102   1.104   6.991  0.5845  0.4778  0.0554
  734poe    c23 6643   5.091   1.106   7.144  0.2370  0.6061  0.0275
  734poe     o2 6644   4.997   1.205   7.181  0.3892  0.6418  0.3267
  734poe    c23 6645   4.955   1.200   7.315  0.8659  0.5973  0.4752
  734poe    c23 6646   4.828   1.287   7.310  0.0351 -0.5874  0.3972
  734poe     o2 6647   4.750   1.273   7.194  0.5644  0.3504 -0.0866
  734poe    c31 6648   4.619   1.309   7.229  0.3444 -0.4454 -0.0789
  735poe    c31 6649   6.308   1.669   0.781 -0.3580 -0.4632  0.0880
  735poe     o2 6650   6.253   1.784   0.840  0.0789 -0.1428 -0.1304
  735poe    c23 6651   6.115   1.758   0.850  0.2004 -0.5854  0.4450
  735poe    c23 6652   6.057   1.871   0.938 -0.1676 -0.2048 -0.2771
  735poe     o2 6653   6.097   1.993   0.881  0.1894 -0.1208  0.1536
  735poe    c23 6654   6.049   2.114   0.936  0.2833  0.0847 -0.2134
  735poe    c23 6655   6.129   2.233   0.879  0.2533  0.2635  0.1147
  735poe     o2 6656   6.261   2.184   0.878 -0.1940 -0.9658 -0.6128
  735poe    c23 6657   6.338   2.252   0.782  0.0039  0.0373  0.2392
  735poe    c23 6658   6.438   2.155   0.717 -0.2549 -0.1532  0.1209
  735poe     o2 6659   6.394   2.022   0.722 -0.4824 -0.0850 -0.0537
  735poe    c31 6660   6.433   1.949   0.608 -0.1665  0.4763 -0.3097
  736poe    c31 6661   0.835   2.676   3.653 -0.3565 -0.2402  0.3633
  736poe     o2 6662   0.958   2.678   3.722 -0.0980  0.1850 -0.0951
  736poe    c23 6663   1.030   2.790   3.679 -0.1893  0.0460 -0.6132
  736poe    c23 6664   1.179   2.792   3.718 -0.3373  0.1739 -0.0498
  736poe     o2 6665   1.182   2.729   3.844  0.1584  0.0899 -0.1034
  736poe    c23 6666   1.302   2.724   3.919  0.0321  0.5387  0.1330
  736poe    c23 6667   1.274   2.666   4.059 -0.8726  0.5105 -0.0504
  736poe     o2 6668   1.183   2.563   4.028 -0.4816  0.2671 -0.3969
  736poe    c23 6669   1.108   2.536   4.144  0.4989 -0.4743  0.0880
  736poe    c23 6670   0.983   2.453   4.106 -0.1249  0.4001  0.2021
  736poe     o2 6671   0.930   2.497   3.983 -0.6946  0.5571  0.4975
  736poe    c31 6672   0.808   2.436   3.948  0.0667 -0.6458 -0.1566
  737poe    c31 6673   3.679   6.442   4.794  0.4429  0.5399  0.1175
  737poe     o2 6674   3.578   6.370   4.862  0.6501 -0.0034 -0.1455
  737poe    c23 6675   3.621   6.363   4.997  0.2752  0.0744 -0.0205
  737poe    c23 6676   3.528   6.271   5.076 -0.1451  0.0406 -0.5485
  737poe     o2 6677   3.496   6.162   4.992 -0.3975 -0.2906 -0.0360
  737poe    c23 6678   3.588   6.055   4.993 -0.6061 -0.4662  0.7976
  737poe    c23 6679   3.571   5.987   4.856  1.0487  0.0012  0.3424
  737poe     o2 6680   3.583   6.094   4.765  0.3743 -0.2268 -0.0196
  737poe    c23 6681   3.577   6.045   4.633 -0.0050 -0.4679  0.0866
  737poe    c23 6682   3.577   6.176   4.552  0.6979 -0.3676  0.2484
  737poe     o2 6683   3.483   6.253   4.624  0.1137 -0.6347 -0.2324
  737poe    c31 6684   3.419   6.357   4.554 -0.0847 -0.6315 -0.0464
  738poe    c31 6685   4.464   2.584   0.163  0.0638 -0.3409 -0.0159
  738poe     o2 6686   4.570   2.501   0.205 -0.4800 -0.9024  0.2652
  738poe    c23 6687   4.596   2.534   0.340 -0.2806  0.0655  0.0012
  738poe    c23 6688   4.727   2.470   0.388  0.2449  0.6734 -0.6075
  738poe     o2 6689   4.757   2.350   0.320  0.5437  0.1381  0.4473
  738poe    c23 6690   4.873   2.368   0.242  0.0641 -0.4778 -0.4180
  738poe    c23 6691   4.901   2.250   0.147 -0.0584 -0.3289 -0.6398
  738poe     o2 6692   4.780   2.232   0.076 -0.0348  0.4661 -0.8848
  738poe    c23 6693   4.774   2.107   0.011  0.2266  0.1645 -0.3342
  738poe    c23 6694   4.749   1.987   0.104 -0.3280  0.3749 -0.2114
  738poe     o2 6695   4.627   2.010   0.171 -0.6292 -0.3259 -0.5108
  738poe    c31 6696   4.618   1.939   0.292  0.1592  0.1395 -0.1708
  739poe    c31 6697   0.687   0.511   5.288  0.2821  1.3705 -0.1896
  739poe     o2 6698   0.697   0.437   5.407 -0.4827  0.7538 -0.5011
  739poe    c23 6699   0.830   0.395   5.425 -0.7334 -0.0904 -0.5710
  739poe    c23 6700   0.810   0.275   5.519  0.2475  0.1164 -0.0788
  739poe     o2 6701   0.740   0.315   5.635  0.6235 -0.4707  0.3590
  739poe    c23 6702   0.704   0.207   5.718 -0.3005 -0.3277  0.1557
  739poe    c23 6703   0.611   0.261   5.828  0.1440  0.6770  0.0463
  739poe     o2 6704   0.516   0.333   5.753  0.2724  0.5885 -0.2011
  739poe    c23 6705   0.394   0.357   5.820  0.5678 -0.2959  0.6793
  739poe    c23 6706   0.392   0.491   5.896 -0.3888 -0.0617  0.2579
  739poe     o2 6707   0.403   0.612   5.824  0.0191 -0.4692 -0.3836
  739poe    c31 6708   0.346   0.714   5.904  0.0646  0.0459 -1.0019
  740poe    c31 6709   4.974   5.198   4.525 -0.4075  0.9313 -0.6155
  740poe     o2 6710   4.967   5.075   4.457  0.2188  0.1634  0.6641
  740poe    c23 6711   4.872   4.975   4.486  0.0697 -0.1209 -0.7444
  740poe    c23 6712   4.876   4.852   4.393 -0.2227 -0.4510 -0.3234
  740poe     o2 6713   4.827   4.865   4.262 -0.4433  0.3422 -0.1691
  740poe    c23 6714   4.883   4.759   4.188  0.2563 -0.0093  0.8405
  740poe    c23 6715   4.813   4.750   4.051  0.5662 -0.1406  0.6893
  740poe     o2 6716   4.828   4.873   3.984 -0.3526 -0.1647  0.4292
  740poe    c23 6717   4.848   4.866   3.844  0.7335  0.5013  0.5421
  740poe    c23 6718   4.922   4.995   3.805  0.3239  0.5576 -0.0633
  740poe     o2 6719   4.855   5.095   3.880 -0.1734  0.2592 -0.1049
  740poe    c31 6720   4.874   5.224   3.827  0.0117  0.3021  0.0634
  741poe    c31 6721   1.946   4.379   5.726 -0.0293 -0.0329 -0.1274
  741poe     o2 6722   1.870   4.481   5.664 -0.1563  0.1235  0.2866
  741poe    c23 6723   1.776   4.402   5.595  0.4440 -0.3780  0.0454
  741poe    c23 6724   1.698   4.478   5.486  0.2590  0.0408  0.4712
  741poe     o2 6725   1.707   4.614   5.520  0.7320  0.1762 -0.1793
  741poe    c23 6726   1.629   4.708   5.448  0.6212  0.0627 -0.2080
  741poe    c23 6727   1.665   4.846   5.505  0.0943 -0.1667  0.6951
  741poe     o2 6728   1.802   4.861   5.478  0.0243 -0.1663  0.3370
  741poe    c23 6729   1.866   4.973   5.535 -0.1043  0.1624 -0.1616
  741poe    c23 6730   2.000   4.916   5.585 -0.3844 -0.2042  0.1690
  741poe     o2 6731   1.980   4.789   5.643 -0.3812 -0.0428  0.5264
  741poe    c31 6732   2.086   4.767   5.733 -0.0983  0.3777  0.2966
  742poe    c31 6733   5.282   6.571   1.039 -0.9531 -0.3142  0.1300
  742poe     o2 6734   5.209   6.521   0.929 -0.4087 -0.3010 -0.2435
  742poe    c23 6735   5.178   6.385   0.949 -0.4655 -0.2766 -0.1639
  742poe    c23 6736   5.113   6.323   0.824  0.0370 -0.2360 -0.4510
  742poe     o2 6737   5.203   6.342   0.718  0.7699  0.1824  0.2325
  742poe    c23 6738   5.180   6.262   0.604  0.4610  1.1347 -0.3834
  742poe    c23 6739   5.101   6.323   0.486 -0.0666  0.7393 -0.2392
  742poe     o2 6740   5.186   6.418   0.427  0.5111  0.4048  0.0435
  742poe    c23 6741   5.155   6.481   0.304  0.0186  0.4906  0.2100
  742poe    c23 6742   5.028   6.567   0.303  0.0626  0.5483 -0.6352
  742poe     o2 6743   5.045   6.654   0.412  0.0015 -0.0347 -0.1569
  742poe    c31 6744   4.927   6.730   0.426 -0.2283 -0.4432  0.1187
  743poe    c31 6745   3.501   1.876   2.195  0.4250 -0.1837 -0.0763
  743poe     o2 6746   3.377   1.909   2.252  0.4632 -0.0008 -0.0987
  743poe    c23 6747   3.276   1.912   2.153  0.2762  0.2243  0.0943
  743poe    c23 6748   3.169   2.015   2.193  0.3771  0.5423 -0.4518
  743poe     o2 6749   3.156   2.011   2.333 -0.1222  0.2613 -0.5044
  743poe    c23 6750   3.043   2.084   2.375  0.1798  0.6164 -0.3000
  743poe    c23 6751   3.023   2.048   2.523  0.8586 -0.4283 -0.4512
  743poe     o2 6752   3.142   2.040   2.598  0.6148  0.1427  0.0074
  743poe    c23 6753   3.112   2.015   2.734 -0.3948  0.6620 -0.1062
  743poe    c23 6754   3.244   2.021   2.814 -0.7461  0.0539  0.5286
  743poe     o2 6755   3.320   1.906   2.787 -0.2332  0.3944  0.5085
  743poe    c31 6756   3.446   1.924   2.847 -0.0236 -0.9259  0.5030
  744poe    c31 6757   5.283   0.312   1.112  0.0879 -0.1260 -0.1859
  744poe     o2 6758   5.211   0.193   1.134  0.4289 -0.4353 -0.7288
  744poe    c23 6759   5.106   0.181   1.042  0.0660 -0.3275 -0.3309
  744poe    c23 6760   5.026   0.049   1.046 -0.4022 -0.0286  0.3828
  744poe     o2 6761   5.003   0.033   1.184  0.0056  0.1775  0.4785
  744poe    c23 6762   4.930  -0.087   1.205 -0.1919  0.2263  0.0784
  744poe    c23 6763   4.893  -0.092   1.354 -0.1825  0.5816  0.0951
  744poe     o2 6764   4.978  -0.149   1.450 -0.0822 -0.1278 -0.4065
  744poe    c23 6765   4.985  -0.290   1.460  0.2967 -0.0553  0.4904
  744poe    c23 6766   5.120  -0.346   1.508  0.4699  0.2117  0.3165
  744poe     o2 6767   5.219  -0.302   1.418  0.1483  0.0042 -0.1381
  744poe    c31 6768   5.332  -0.376   1.459  0.2615  0.3798  0.2289
  745poe    c31 6769   4.663   1.324   4.963  1.1623  0.2888  0.2792
  745poe     o2 6770   4.710   1.204   5.019 -0.2344 -0.4557 -0.0853
  745poe    c23 6771   4.656   1.168   5.144 -0.4394 -0.2726 -0.1197
  745poe    c23 6772   4.752   1.069   5.214  0.1360  0.0347 -0.4610
  745poe     o2 6773   4.783   0.983   5.107 -0.0336 -0.0399 -0.4512
  745poe    c23 6774   4.806   0.850   5.145  0.2375  0.1586  0.0823
  745poe    c23 6775   4.681   0.759   5.144  0.1642  0.2629 -0.3363
  745poe     o2 6776   4.591   0.780   5.250  0.2305 -0.3924 -0.1495
  745poe    c23 6777   4.476   0.701   5.227  0.5083 -0.8974  0.1775
  745poe    c23 6778   4.349   0.727   5.310  0.6772 -0.0481  0.1783
  745poe     o2 6779   4.366   0.696   5.447 -0.3088 -0.2172  0.2709
  745poe    c31 6780   4.356   0.561   5.487 -0.3943 -0.2171  0.2487
  746poe    c31 6781   2.282   2.518   6.151 -0.9274 -0.4097 -0.0917
  746poe     o2 6782   2.225   2.600   6.052 -0.2359 -0.2231 -0.3473
  746poe    c23 6783   2.144   2.696   6.118 -0.5625 -0.2695 -0.6743
  746poe    c23 6784   2.074   2.786   6.015 -1.5123  0.2280  0.3977
  746poe     o2 6785   2.043   2.702   5.906  0.2497  0.2763 -0.1727
  746poe    c23 6786   1.967   2.766   5.806 -0.2380 -0.2016 -0.1130
  746poe    c23 6787   1.957   2.654   5.700  0.1161  0.4201 -0.8093
  746poe     o2 6788   2.094   2.622   5.690  0.0102 -0.4571  0.3594
  746poe    c23 6789   2.108   2.504   5.614  0.6187 -0.1809  0.0339
  746poe    c23 6790   2.253   2.454   5.626  0.8358  0.4212 -0.0430
  746poe     o2 6791   2.301   2.458   5.758  0.1406  0.6864  0.2058
  746poe    c31 6792   2.403   2.362   5.776  0.3557  0.8034 -0.3712
  747poe    c31 6793   0.403   3.984   6.150 -0.0651  0.0767 -0.3202
  747poe     o2 6794   0.449   3.872   6.078 -0.7608 -0.2997 -0.1833
  747poe    c23 6795   0.332   3.797   6.053 -0.6454 -0.3135 -0.6989
  747poe    c23 6796   0.378   3.656   6.010  0.0493 -0.2663 -0.1302
  747poe     o2 6797   0.518   3.657   5.996  0.0398  0.0661 -0.2097
  747poe    c23 6798   0.589   3.536   5.979  0.0551  0.0236  0.1417
  747poe    c23 6799   0.730   3.573   5.929 -0.1244  0.4877 -0.0341
  747poe     o2 6800   0.772   3.669   6.023 -0.0626  0.2148  0.2224
  747poe    c23 6801   0.889   3.743   5.995  0.0565 -0.1611 -0.2931
  747poe    c23 6802   0.875   3.866   6.087 -0.7507 -0.2205 -0.3238
  747poe     o2 6803   0.758   3.938   6.056 -0.3959  0.1327 -0.8760
  747poe    c31 6804   0.776   4.070   6.103 -0.2642 -0.1494 -0.1129
  748poe    c31 6805   2.554   6.207   3.715 -0.1917  0.9294 -0.6162
  748poe     o2 6806   2.575   6.339   3.760  0.5349  0.4037  0.6316
  748poe    c23 6807   2.450   6.406   3.764  0.5404  0.4793 -0.2754
  748poe    c23 6808   2.484   6.541   3.829  0.3565  0.4417 -0.1014
  748poe     o2 6809   2.565   6.526   3.944  0.1465  0.2779  0.0264
  748poe    c23 6810   2.621   6.648   3.989 -0.0762  0.3630  0.0716
  748poe    c23 6811   2.702   6.644   4.119  0.0574  0.3976 -0.0107
  748poe     o2 6812   2.808   6.551   4.111 -0.3852 -0.0987 -0.1644
  748poe    c23 6813   2.883   6.551   4.230  0.0927  0.0733 -0.4616
  748poe    c23 6814   3.000   6.450   4.225 -0.2829 -0.3368 -0.9851
  748poe     o2 6815   2.944   6.324   4.194 -0.4602 -0.4496 -0.2099
  748poe    c31 6816   3.012   6.225   4.268 -0.2966  0.4815  0.9300
  749poe    c31 6817   0.769   0.300   6.357 -0.1980 -0.0970 -0.5367
  749poe     o2 6818   0.734   0.208   6.458  0.3071  0.1905 -0.0957
  749poe    c23 6819   0.657   0.098   6.415 -0.3508  0.5216  0.2312
  749poe    c23 6820   0.674  -0.032   6.495  0.3522  0.2762 -0.3115
  749poe     o2 6821   0.771  -0.121   6.445  0.2170  0.1715 -0.3880
  749poe    c23 6822   0.720  -0.204   6.343 -0.5273  0.7459 -0.4851
  749poe    c23 6823   0.830  -0.296   6.287 -0.1323  0.7564  0.2540
  749poe     o2 6824   0.926  -0.311   6.389  0.0992  0.2521 -0.0317
  749poe    c23 6825   1.035  -0.386   6.341 -0.1364  0.2152 -0.5101
  749poe    c23 6826   1.161  -0.383   6.428  0.0673 -0.2455 -0.7838
  749poe     o2 6827   1.209  -0.251   6.443  0.2500 -0.3141 -0.7571
  749poe    c31 6828   1.328  -0.231   6.516 -0.1677 -0.0770 -0.1311
  750poe    c31 6829   5.076   6.210   4.385  0.0829  0.4977  0.1382
  750poe     o2 6830   5.193   6.255   4.322 -0.0511  0.1282 -0.3789
  750poe    c23 6831   5.192   6.396   4.325 -0.4094  0.1245 -0.3302
  750poe    c23 6832   5.286   6.441   4.211  0.1322  0.0823  0.0960
  750poe     o2 6833   5.407   6.369   4.219  0.2994  0.3377 -0.1343
  750poe    c23 6834   5.474   6.359   4.096  0.4964 -0.0341  0.0018
  750poe    c23 6835   5.423   6.242   4.010  0.2897  0.1983 -0.1932
  750poe     o2 6836   5.424   6.142   4.110 -0.5834  0.6080  0.2368
  750poe    c23 6837   5.389   6.011   4.073  0.8459  0.3789 -0.3548
  750poe    c23 6838   5.397   5.934   4.207  0.1738  0.3388 -0.3350
  750poe     o2 6839   5.323   6.014   4.296  0.3131 -0.4111  0.4700
  750poe    c31 6840   5.267   5.938   4.401 -0.6931 -0.6958 -0.2629
  751poe    c31 6841   6.144   5.645   2.017 -0.1167 -0.4193 -0.0231
  751poe     o2 6842   6.225   5.540   1.969 -0.0816 -0.3210 -0.1777
  751poe    c23 6843   6.352   5.600   1.952 -0.2407  0.0760  0.0171
  751poe    c23 6844   6.430   5.489   1.879 -0.1909  0.3114 -0.2898
  751poe     o2 6845   6.446   5.371   1.954 -0.1408  0.0382 -0.7237
  751poe    c23 6846   6.522   5.275   1.885  0.4040  0.2341 -0.4105
  751poe    c23 6847   6.578   5.170   1.983  0.2580  0.5780  0.0459
  751poe     o2 6848   6.676   5.231   2.064 -0.0268 -0.0295  0.8581
  751poe    c23 6849   6.766   5.156   2.142  0.6581 -0.2922 -0.1665
  751poe    c23 6850   6.698   5.092   2.264  0.1169  0.4437 -0.0765
  751poe     o2 6851   6.622   5.187   2.337 -0.5316 -0.1611  0.0479
  751poe    c31 6852   6.518   5.126   2.409 -0.4088  0.4106  0.7107
  752poe    c31 6853   2.550   0.458   5.470  0.2420  0.3628 -0.6627
  752poe     o2 6854   2.640   0.564   5.445  0.2926  0.5509  0.2627
  752poe    c23 6855   2.766   0.531   5.391 -0.0347  0.2058 -0.3023
  752poe    c23 6856   2.874   0.637   5.363  0.3550 -0.1024  0.0180
  752poe     o2 6857   2.930   0.691   5.481  0.0699 -0.0047  0.1092
  752poe    c23 6858   2.972   0.825   5.462  0.5902 -0.1432  0.2750
  752poe    c23 6859   3.030   0.875   5.596  0.3035  0.4363  0.1850
  752poe     o2 6860   2.927   0.869   5.692  0.0032  0.4021 -0.1357
  752poe    c23 6861   2.960   0.927   5.816  0.0766 -0.2806  0.1686
  752poe    c23 6862   2.828   0.959   5.887  0.1000  0.2645 -0.0330
  752poe     o2 6863   2.756   0.838   5.886  0.0041  0.3228 -0.3756
  752poe    c31 6864   2.649   0.829   5.978  0.2590  0.0074 -0.1096
  753poe    c31 6865   3.337   1.261   0.444 -0.3044 -0.0850 -0.4325
  753poe     o2 6866   3.364   1.145   0.519  0.0705  0.2001 -0.1190
  753poe    c23 6867   3.278   1.040   0.481 -0.1151  0.2416  0.1809
  753poe    c23 6868   3.213   0.963   0.598 -0.5163  0.6416  0.2245
  753poe     o2 6869   3.310   0.943   0.698  0.0445  0.4234 -0.3512
  753poe    c23 6870   3.260   0.941   0.830  0.3402 -0.1452 -0.2477
  753poe    c23 6871   3.372   0.903   0.929 -0.0139 -0.4089  0.0516
  753poe     o2 6872   3.470   0.999   0.899 -0.4278  0.0101  0.0356
  753poe    c23 6873   3.580   1.019   0.985  0.0753 -0.0081 -0.5955
  753poe    c23 6874   3.647   1.144   0.926  0.4971 -0.0093 -0.1240
  753poe     o2 6875   3.588   1.161   0.798  0.0960 -0.5063 -0.0097
  753poe    c31 6876   3.609   1.296   0.763  1.0676 -0.7281 -0.3226
  754poe    c31 6877   3.638   4.359   2.230 -0.3593  0.3732  0.0930
  754poe     o2 6878   3.609   4.303   2.104  0.6457  0.0198  0.0094
  754poe    c23 6879   3.488   4.348   2.047  0.1312 -0.6003  0.5975
  754poe    c23 6880   3.478   4.318   1.896 -0.3915 -0.1449  0.5394
  754poe     o2 6881   3.512   4.181   1.887 -0.2798 -0.1050  0.3262
  754poe    c23 6882   3.486   4.124   1.761  0.4435  0.0613  0.0982
  754poe    c23 6883   3.491   3.971   1.782  0.3112  0.0672  0.1728
  754poe     o2 6884   3.623   3.929   1.810  0.0708 -0.5494  0.3993
  754poe    c23 6885   3.671   3.866   1.693 -0.0622  0.0801 -0.0052
  754poe    c23 6886   3.791   3.771   1.712 -0.0609  0.0309 -0.2629
  754poe     o2 6887   3.882   3.858   1.775 -0.3020  0.3535 -0.3546
  754poe    c31 6888   4.008   3.795   1.792 -0.2773  0.2951 -0.7327
  755poe    c31 6889   4.146   5.969   3.873 -1.2795 -0.0206 -0.2034
  755poe     o2 6890   4.177   6.018   3.745  1.4814 -0.2253  0.3226
  755poe    c23 6891   4.130   5.935   3.642  0.6212  0.2181  0.3479
  755poe    c23 6892   4.204   5.961   3.509 -0.3619 -0.0600 -0.2669
  755poe     o2 6893   4.222   6.099   3.486  0.0433 -0.0567  0.0649
  755poe    c23 6894   4.316   6.126   3.385 -0.0882  0.0888 -0.0182
  755poe    c23 6895   4.311   6.272   3.336  0.7176  0.1469  0.0604
  755poe     o2 6896   4.312   6.366   3.441  0.3353  0.1431  0.0687
  755poe    c23 6897   4.386   6.482   3.410  0.4506  0.1876  0.4973
  755poe    c23 6898   4.355   6.607   3.493  0.0920  0.1008  0.4941
  755poe     o2 6899   4.391   6.597   3.629  0.2363 -0.4277  0.4187
  755poe    c31 6900   4.357   6.718   3.694  0.9932 -0.1009  0.2233
  756poe    c31 6901   4.975   1.799   2.903  0.1365  0.2582  0.6607
  756poe     o2 6902   5.106   1.849   2.885 -0.0662  0.5569 -0.0175
  756poe    c23 6903   5.191   1.768   2.963 -0.3700  0.2557  0.0032
  756poe    c23 6904   5.337   1.816   2.964 -0.0439 -0.7071  0.4295
  756poe     o2 6905   5.364   1.940   3.026 -0.3793 -0.3127 -0.1942
  756poe    c23 6906   5.500   1.971   3.045 -0.3923 -0.4715  0.1766
  756poe    c23 6907   5.500   2.096   3.135  0.3760 -0.1667 -0.2397
  756poe     o2 6908   5.399   2.184   3.091  0.2338 -0.1065  0.1985
  756poe    c23 6909   5.378   2.288   3.184 -0.1058  0.1604 -0.1684
  756poe    c23 6910   5.267   2.375   3.122 -0.5416  0.0552  0.4538
  756poe     o2 6911   5.161   2.287   3.094 -0.2620 -0.1560  0.0430
  756poe    c31 6912   5.034   2.338   3.128 -0.2005  0.2478 -0.3229
  757poe    c31 6913   3.126   4.761   4.288  0.5649 -0.3074  0.1135
  757poe     o2 6914   3.060   4.736   4.166  0.3235  0.6118  0.0493
  757poe    c23 6915   3.015   4.855   4.105 -0.3420  0.2191 -0.2362
  757poe    c23 6916   3.054   4.835   3.957 -0.4902  0.1994 -0.2732
  757poe     o2 6917   3.025   4.700   3.931 -0.4034  0.1472 -0.1024
  757poe    c23 6918   3.077   4.656   3.808  0.0720  0.5599 -0.0519
  757poe    c23 6919   3.056   4.503   3.807  0.4909  0.4977  0.3190
  757poe     o2 6920   3.093   4.439   3.927  0.0014 -0.2744  0.0652
  757poe    c23 6921   3.010   4.329   3.956 -0.1735 -0.3386 -0.6769
  757poe    c23 6922   2.889   4.375   4.040  0.4549  0.3812 -0.1618
  757poe     o2 6923   2.936   4.475   4.128  0.4918 -0.1357  0.4092
  757poe    c31 6924   2.841   4.513   4.226 -0.2342  0.0476 -0.3592
  758poe    c31 6925   4.484   5.563   1.248  0.1598 -0.3125 -0.4608
  758poe     o2 6926   4.604   5.617   1.198  0.0995 -0.1407 -0.4221
  758poe    c23 6927   4.661   5.692   1.302 -0.3513  0.2507 -0.4541
  758poe    c23 6928   4.807   5.723   1.261  0.0369 -0.4029  0.3989
  758poe     o2 6929   4.789   5.779   1.133  0.4471 -0.2545  0.4071
  758poe    c23 6930   4.898   5.851   1.080  0.1084 -0.4857 -0.6251
  758poe    c23 6931   4.842   5.954   0.980  0.4501 -0.0449 -0.3689
  758poe     o2 6932   4.761   5.881   0.891 -0.3345  0.4431 -0.0669
  758poe    c23 6933   4.740   5.951   0.770  0.0640  0.1687 -0.2977
  758poe    c23 6934   4.634   5.887   0.677 -0.1931  0.4810 -0.2192
  758poe     o2 6935   4.499   5.905   0.712 -0.1757 -0.5776  0.4270
  758poe    c31 6936   4.417   5.852   0.610 -0.3796  0.1652  0.1965
  759poe    c31 6937   0.419   6.556   1.524  0.0903  0.6210 -0.2899
  759poe     o2 6938   0.536   6.504   1.466 -0.0704  0.1570 -0.2013
  759poe    c23 6939   0.521   6.519   1.326  0.0406  0.3657 -0.1915
  759poe    c23 6940   0.655   6.512   1.250  0.0422  0.5638 -0.2083
  759poe     o2 6941   0.740   6.452   1.346 -0.3109  0.3339 -0.0350
  759poe    c23 6942   0.876   6.469   1.312 -0.2807 -0.0267 -0.0917
  759poe    c23 6943   0.946   6.395   1.428  0.1861  0.7593  0.1325
  759poe     o2 6944   0.886   6.446   1.544 -0.2013  0.6608 -0.0247
  759poe    c23 6945   0.920   6.387   1.667 -0.0716 -0.3482 -0.5350
  759poe    c23 6946   0.825   6.452   1.770  0.2918  0.0303 -0.4385
  759poe     o2 6947   0.697   6.442   1.713  0.1815 -0.1581 -0.1572
  759poe    c31 6948   0.620   6.413   1.828 -0.0789  0.4030 -0.1889
  760poe    c31 6949   2.738   2.428   5.990  0.6901 -0.2133  0.1435
  760poe     o2 6950   2.691   2.295   5.994 -0.7748  0.2716 -0.3291
  760poe    c23 6951   2.654   2.264   6.126  0.1358 -0.3986 -0.2253
  760poe    c23 6952   2.614   2.116   6.143 -0.4824 -0.3243 -0.9704
  760poe     o2 6953   2.704   2.008   6.135  0.0241 -0.0257  0.3898
  760poe    c23 6954   2.647   1.886   6.094 -0.1747  0.1718  0.0816
  760poe    c23 6955   2.751   1.777   6.063 -0.5792 -0.1734 -0.0871
  760poe     o2 6956   2.846   1.810   5.964 -0.0903 -0.2709  0.3389
  760poe    c23 6957   2.901   1.694   5.907 -0.2158  0.0419 -0.4364
  760poe    c23 6958   2.988   1.744   5.790  0.0822  0.1179 -0.1862
  760poe     o2 6959   3.037   1.873   5.815 -0.0366  0.1759 -0.2477
  760poe    c31 6960   3.150   1.892   5.732  0.0328  0.5547 -0.0716
  761poe    c31 6961   3.064   1.976   3.638 -0.0217 -0.6977  0.1295
  761poe     o2 6962   2.933   2.026   3.619  0.2094  0.1533  0.7247
  761poe    c23 6963   2.883   1.963   3.503  0.2020  0.4908  0.5428
  761poe    c23 6964   2.762   2.046   3.457  0.0682 -0.1270 -0.2396
  761poe     o2 6965   2.692   2.057   3.579  0.3538  0.1415 -0.0950
  761poe    c23 6966   2.559   2.101   3.563  0.2144 -0.3657 -0.3756
  761poe    c23 6967   2.477   2.077   3.691 -0.1308  0.7675 -0.3708
  761poe     o2 6968   2.530   2.161   3.791  0.4872 -0.2367  0.1657
  761poe    c23 6969   2.458   2.166   3.912 -0.4667 -0.4322 -0.3781
  761poe    c23 6970   2.537   2.174   4.045  0.0680  0.5187 -0.7373
  761poe     o2 6971   2.630   2.070   4.062 -0.8818 -0.2305  0.0256
  761poe    c31 6972   2.705   2.088   4.180  0.3427 -0.2797 -0.7185
  762poe    c31 6973   6.765   3.045   1.457 -0.6482 -0.1791  0.1337
  762poe     o2 6974   6.866   2.964   1.513 -0.3444 -0.0557 -0.2340
  762poe    c23 6975   6.952   3.041   1.594  0.2467 -0.3736 -0.5553
  762poe    c23 6976   7.096   2.988   1.578  0.3500 -0.1618 -0.3314
  762poe     o2 6977   7.100   2.850   1.605 -0.6471 -0.1709 -0.1670
  762poe    c23 6978   7.217   2.787   1.556 -0.3533  0.3297 -0.1225
  762poe    c23 6979   7.205   2.748   1.408  0.2273 -0.1397 -0.0480
  762poe     o2 6980   7.080   2.689   1.382  0.0549  0.3567 -0.3648
  762poe    c23 6981   7.040   2.657   1.251 -0.2543  0.0982 -0.2105
  762poe    c23 6982   6.893   2.612   1.253 -0.1389 -0.2686  0.1352
  762poe     o2 6983   6.823   2.703   1.334  0.0069 -0.1110  0.0840
  762poe    c31 6984   6.684   2.687   1.318 -0.0345  0.3540 -0.0263
  763poe    c31 6985   2.242   0.810   5.732  0.2626 -0.1010  0.2166
  763poe     o2 6986   2.138   0.869   5.658  0.3955  0.1038  0.1919
  763poe    c23 6987   2.046   0.931   5.746 -0.2102  0.2575 -0.5381
  763poe    c23 6988   1.989   1.061   5.688 -0.5976  0.3351  0.0057
  763poe     o2 6989   1.991   1.057   5.547  0.0378  0.5303  0.0075
  763poe    c23 6990   1.975   1.175   5.470 -0.0191  0.2086 -0.4810
  763poe    c23 6991   2.020   1.153   5.325 -0.5728  0.0534 -0.6332
  763poe     o2 6992   2.126   1.061   5.338 -0.4454  0.2875  0.0269
  763poe    c23 6993   2.160   1.008   5.212  0.1715  0.6790  0.0269
  763poe    c23 6994   2.261   0.898   5.251 -0.5861 -0.0796 -0.1368
  763poe     o2 6995   2.225   0.833   5.371 -0.2014 -0.1228 -0.0436
  763poe    c31 6996   2.322   0.738   5.408 -0.3837 -0.3316 -0.1022
  764poe    c31 6997   5.493   1.665   3.393  0.2789 -0.5628  0.1825
  764poe     o2 6998   5.400   1.571   3.442 -0.4098 -0.2877 -0.5889
  764poe    c23 6999   5.331   1.610   3.559 -0.0371  0.0357 -0.4731
  764poe    c23 7000   5.267   1.487   3.627 -0.2809  0.4171 -0.0084
  764poe     o2 7001   5.185   1.417   3.536 -0.1381 -0.0225  0.1997
  764poe    c23 7002   5.147   1.295   3.596 -0.1327  0.0351  0.3220
  764poe    c23 7003   5.027   1.237   3.519  0.3039 -0.7596  0.2282
  764poe     o2 7004   5.072   1.243   3.385 -0.3155 -0.2173  0.0361
  764poe    c23 7005   5.004   1.159   3.295  0.2029 -0.8796  0.2509
  764poe    c23 7006   5.073   1.186   3.159  0.0864  0.0155  0.3602
  764poe     o2 7007   5.082   1.326   3.147  0.1824 -0.0110  0.1290
  764poe    c31 7008   5.145   1.369   3.028 -0.4323 -0.7418 -0.4776
  765poe    c31 7009   0.093   1.707   6.666  0.0673 -0.3287 -0.1276
  765poe     o2 7010  -0.008   1.734   6.761 -0.1359  0.1163 -0.4655
  765poe    c23 7011  -0.109   1.639   6.737 -0.0721  0.0562 -0.4936
  765poe    c23 7012  -0.205   1.648   6.857 -0.1581 -0.4179 -0.5267
  765poe     o2 7013  -0.244   1.783   6.860  0.6955 -0.1789  0.0263
  765poe    c23 7014  -0.307   1.804   6.984  0.4991 -0.7334  0.0207
  765poe    c23 7015  -0.295   1.950   7.031  0.3050 -0.8488  0.4396
  765poe     o2 7016  -0.173   1.993   6.975  0.2483 -0.8183  0.3380
  765poe    c23 7017  -0.092   2.038   7.082  0.1148  0.2198  0.0197
  765poe    c23 7018   0.051   2.046   7.024  0.2991 -0.0442  0.4328
  765poe     o2 7019   0.072   1.936   6.939 -0.1142 -0.1744  0.4959
  765poe    c31 7020   0.204   1.886   6.940 -0.1101 -0.2025 -0.5432
  766poe    c31 7021   3.846   5.344   2.137 -0.2814 -0.1241  0.2523
  766poe     o2 7022   3.902   5.215   2.131  0.5285  0.2302 -0.0079
  766poe    c23 7023   3.880   5.177   1.997  0.3207  0.4657 -0.0424
  766poe    c23 7024   3.950   5.044   1.963  0.0895  0.2835  0.1904
  766poe     o2 7025   3.927   4.963   2.076  0.1980 -0.2921 -0.1961
  766poe    c23 7026   3.858   4.842   2.053 -1.0309  0.2682  0.4225
  766poe    c23 7027   3.798   4.809   2.191 -0.2359 -0.7439  0.5443
  766poe     o2 7028   3.747   4.931   2.240  0.4993 -0.2864  0.1924
  766poe    c23 7029   3.708   4.924   2.376 -0.2571  0.6700  0.0339
  766poe    c23 7030   3.716   5.066   2.435 -0.1489  0.6035  0.1785
  766poe     o2 7031   3.842   5.121   2.401  0.4125 -0.6264  0.2365
  766poe    c31 7032   3.878   5.193   2.517  0.1633 -0.2332  0.0673
  767poe    c31 7033   1.789   3.537   0.442 -0.1996 -0.0251  0.3956
  767poe     o2 7034   1.806   3.634   0.542 -0.1894  0.3753  0.0043
  767poe    c23 7035   1.711   3.623   0.646  0.0198  0.6159  0.2211
  767poe    c23 7036   1.693   3.734   0.752  0.1302  0.5183  0.3426
  767poe     o2 7037   1.640   3.854   0.700  0.3082  0.6134  0.3807
  767poe    c23 7038   1.537   3.908   0.779 -0.1564  0.2707  0.0129
  767poe    c23 7039   1.513   4.055   0.741 -0.4159  0.3193  0.3541
  767poe     o2 7040   1.543   4.079   0.605 -0.0529  0.6847  0.4961
  767poe    c23 7041   1.468   4.186   0.550  0.1379  0.3658 -0.3975
  767poe    c23 7042   1.513   4.218   0.406 -0.1690  0.2361 -0.5237
  767poe     o2 7043   1.647   4.263   0.404 -0.1538  0.2325  0.1454
  767poe    c31 7044   1.679   4.295   0.271  0.2439 -0.7326  0.0026
  768poe    c31 7045   4.572   5.195   6.818  0.0945 -0.1744  0.9251
  768poe     o2 7046   4.711   5.169   6.818  0.1524  0.0711 -0.4465
  768poe    c23 7047   4.752   5.125   6.946 -0.0066 -0.3817 -0.5469
  768poe    c23 7048   4.898   5.077   6.945  0.3435  0.6199  0.2252
  768poe     o2 7049   4.973   5.190   6.906  0.3837  0.4854 -0.0917
  768poe    c23 7050   5.108   5.154   6.892  0.2207 -0.0012 -0.4546
  768poe    c23 7051   5.204   5.274   6.892  0.5554 -0.2615  0.2732
  768poe     o2 7052   5.144   5.351   6.791  0.1326 -0.1727  0.5892
  768poe    c23 7053   5.222   5.460   6.746 -0.2220 -0.3283 -0.4446
  768poe    c23 7054   5.160   5.512   6.616  0.4123 -0.1820 -0.6912
  768poe     o2 7055   5.021   5.527   6.634  0.4650 -0.2866 -0.2103
  768poe    c31 7056   4.942   5.612   6.554  0.0096 -0.2854  0.2308
  769poe    c31 7057   1.599   3.880   6.378  0.5038  0.2305 -0.6280
  769poe     o2 7058   1.476   3.938   6.415  0.4252 -0.1478 -0.2930
  769poe    c23 7059   1.459   4.052   6.333  0.2752  0.0753  0.0462
  769poe    c23 7060   1.338   4.138   6.373  0.0649 -0.0539 -0.3080
  769poe     o2 7061   1.242   4.042   6.411 -0.1683  0.2809 -0.0367
  769poe    c23 7062   1.134   4.097   6.482 -0.6978 -0.5970 -0.1388
  769poe    c23 7063   1.060   3.973   6.536 -0.2526 -0.6802  0.2936
  769poe     o2 7064   1.153   3.870   6.557 -0.1655 -0.5917  0.3475
  769poe    c23 7065   1.097   3.763   6.631 -0.0733 -0.5253  0.5130
  769poe    c23 7066   0.991   3.686   6.551 -0.2182  0.1466  0.0405
  769poe     o2 7067   1.043   3.624   6.435 -0.0346  0.4433 -0.0342
  769poe    c31 7068   0.946   3.591   6.339 -0.2163  0.7780  0.0330
  770poe    c31 7069   6.007   2.998   4.210 -0.2662  0.7214 -0.7625
  770poe     o2 7070   6.140   2.994   4.163 -0.2066  0.0880 -0.5482
  770poe    c23 7071   6.214   2.913   4.252 -0.0284  1.0365  0.1905
  770poe    c23 7072   6.366   2.926   4.232  0.0824 -0.1507  0.2147
  770poe     o2 7073   6.405   2.879   4.105 -0.4937  0.0864 -0.0493
  770poe    c23 7074   6.539   2.907   4.074 -0.4983  0.0269 -0.1230
  770poe    c23 7075   6.568   2.834   3.941  0.4183  0.7097 -0.3063
  770poe     o2 7076   6.464   2.876   3.856 -0.3128 -0.1356  0.1598
  770poe    c23 7077   6.484   2.829   3.724  0.5043 -0.0630  0.2552
  770poe    c23 7078   6.379   2.907   3.643  0.0982 -0.6874  0.1759
  770poe     o2 7079   6.252   2.901   3.703 -0.1386 -0.3536 -0.2879
  770poe    c31 7080   6.163   2.985   3.632 -0.5404 -0.8263 -0.3530
  771poe    c31 7081   1.838   0.267   0.318  0.1290 -0.9331  0.6090
  771poe     o2 7082   1.839   0.162   0.224 -0.4449 -0.2224 -0.2111
  771poe    c23 7083   1.863   0.047   0.303  1.1974  0.0661 -0.2406
  771poe    c23 7084   1.947  -0.033   0.202  0.5855 -0.9303  0.0285
  771poe     o2 7085   1.890  -0.014   0.075  0.0075 -0.3689  0.3620
  771poe    c23 7086   1.963  -0.078  -0.027 -0.1951 -0.1923  0.1036
  771poe    c23 7087   1.926  -0.014  -0.162  0.2265 -0.4909 -0.1566
  771poe     o2 7088   1.898   0.120  -0.129  0.3400 -0.6091  0.4278
  771poe    c23 7089   1.909   0.211  -0.237  0.1550 -0.4967  0.5032
  771poe    c23 7090   1.903   0.354  -0.181  0.6614 -0.2916  0.0417
  771poe     o2 7091   1.814   0.377  -0.074  0.6907 -0.0860  0.0231
  771poe    c31 7092   1.847   0.489   0.006  0.4708 -0.3923  0.5481
  772poe    c31 7093   2.775   4.443   1.305  0.1642  0.0778 -0.0572
  772poe     o2 7094   2.862   4.513   1.392  0.3180 -0.1449 -0.0313
  772poe    c23 7095   2.803   4.554   1.513  0.0582  0.4779 -0.3675
  772poe    c23 7096   2.908   4.533   1.623  0.1690  0.1324 -0.5396
  772poe     o2 7097   3.027   4.592   1.574 -0.1549  0.7138 -0.6298
  772poe    c23 7098   3.131   4.610   1.667 -0.3644 -0.4717 -0.1500
  772poe    c23 7099   3.263   4.615   1.588 -0.2046  0.4575  0.1616
  772poe     o2 7100   3.237   4.658   1.457 -0.4111  0.4598  0.2043
  772poe    c23 7101   3.369   4.694   1.426 -0.5071  0.9189  0.3182
  772poe    c23 7102   3.376   4.736   1.278  0.2943  0.4133  0.2045
  772poe     o2 7103   3.331   4.629   1.197  0.2129  0.3502  0.3327
  772poe    c31 7104   3.362   4.641   1.060 -0.2489  0.2324  0.2165
  773poe    c31 7105   1.692   5.194   1.022 -0.0520 -0.0777 -0.6521
  773poe     o2 7106   1.833   5.199   1.007  0.0264 -0.0265  0.1029
  773poe    c23 7107   1.905   5.092   1.063  0.3721 -0.5640 -1.3550
  773poe    c23 7108   2.057   5.115   1.066  0.3305 -0.4341  0.1319
  773poe     o2 7109   2.120   5.129   0.941  0.4894  0.0368  0.2631
  773poe    c23 7110   2.259   5.122   0.967  0.5059  0.2906  0.2532
  773poe    c23 7111   2.325   5.124   0.828  0.1565  0.0880  0.0814
  773poe     o2 7112   2.265   5.232   0.760  0.3053 -0.0158 -0.2193
  773poe    c23 7113   2.330   5.240   0.635  0.1481  0.2219 -0.2871
  773poe    c23 7114   2.258   5.345   0.549 -0.2593 -0.1402 -0.3871
  773poe     o2 7115   2.119   5.325   0.538 -0.3759  0.3545  0.1880
  773poe    c31 7116   2.068   5.427   0.455 -0.1761  0.1314 -0.2135
  774poe    c31 7117   3.571   2.833   4.057  0.3153 -0.5578  0.0933
  774poe     o2 7118   3.498   2.849   3.938 -0.0667 -0.1754  0.3728
  774poe    c23 7119   3.416   2.736   3.916  0.2536 -0.3398  0.0234
  774poe    c23 7120   3.383   2.730   3.766 -0.5942 -0.1734  0.2007
  774poe     o2 7121   3.335   2.860   3.739 -0.2776 -0.1311 -0.1737
  774poe    c23 7122   3.311   2.887   3.603  0.6603  0.4512 -0.2327
  774poe    c23 7123   3.311   3.041   3.603 -0.0830  0.4560  0.0153
  774poe     o2 7124   3.422   3.087   3.677  0.0615 -0.0788  0.1343
  774poe    c23 7125   3.463   3.222   3.674 -0.4758  0.1124  1.0068
  774poe    c23 7126   3.585   3.211   3.767  0.5824 -0.3577 -0.3960
  774poe     o2 7127   3.563   3.125   3.877  0.3382  0.2595  0.0414
  774poe    c31 7128   3.667   3.147   3.970  0.2962  0.5441  0.0223
  775poe    c31 7129   5.874   1.300   0.623 -0.3019  0.0242  0.4237
  775poe     o2 7130   5.874   1.165   0.581  0.1617  0.3165 -0.5633
  775poe    c23 7131   5.743   1.113   0.576  0.3084 -0.0462 -0.6772
  775poe    c23 7132   5.759   0.983   0.496 -0.2307 -0.3754 -0.2596
  775poe     o2 7133   5.883   0.926   0.534 -0.2913 -0.2304  0.1641
  775poe    c23 7134   5.879   0.785   0.543  0.3728 -0.2775 -0.2506
  775poe    c23 7135   6.027   0.746   0.562  0.4108 -0.2745 -0.5331
  775poe     o2 7136   6.095   0.866   0.591 -0.0741 -0.0037 -0.5017
  775poe    c23 7137   6.232   0.860   0.560  0.1119 -0.2697  0.3487
  775poe    c23 7138   6.302   0.992   0.595 -0.1863 -0.1189  0.3768
  775poe     o2 7139   6.205   1.094   0.590 -0.0003  0.0730  0.6973
  775poe    c31 7140   6.250   1.223   0.625 -0.5883  0.3986  0.2656
  776poe    c31 7141   4.835   4.379   5.226 -0.1385 -0.0763 -0.4836
  776poe     o2 7142   4.801   4.314   5.346  0.1209 -0.0066 -0.3729
  776poe    c23 7143   4.849   4.385   5.459  0.1234 -0.1945 -0.2562
  776poe    c23 7144   4.756   4.354   5.578  0.7439  0.0516  0.2929
  776poe     o2 7145   4.740   4.214   5.578 -0.2479  0.1573  0.6675
  776poe    c23 7146   4.708   4.167   5.708 -0.4889 -0.6497  0.3231
  776poe    c23 7147   4.707   4.013   5.700  0.1878 -0.6551  0.3128
  776poe     o2 7148   4.623   3.964   5.598 -0.1692  0.4400  0.0579
  776poe    c23 7149   4.594   3.827   5.615  0.1762  0.3394 -0.1420
  776poe    c23 7150   4.479   3.784   5.522 -0.1017  0.2922  0.2189
  776poe     o2 7151   4.525   3.793   5.388  0.6598 -0.2901  0.4351
  776poe    c31 7152   4.455   3.705   5.303  0.5294 -0.0612  0.3043
  777poe    c31 7153   6.687   6.388   0.214  0.2287  0.1114  0.6102
  777poe     o2 7154   6.708   6.518   0.163 -0.0313  0.1441  0.5821
  777poe    c23 7155   6.679   6.510   0.025  0.2975  0.3032  0.5030
  777poe    c23 7156   6.667   6.651  -0.037  0.0513 -0.0369 -0.2331
  777poe     o2 7157   6.747   6.727   0.051  0.0091 -0.1470 -0.0989
  777poe    c23 7158   6.764   6.859   0.006 -0.3367 -0.0131  0.1604
  777poe    c23 7159   6.854   6.930   0.109  0.1638  0.3712 -0.5254
  777poe     o2 7160   6.800   6.882   0.230  0.1069  0.8544 -0.3576
  777poe    c23 7161   6.854   6.955   0.338 -0.3725  0.0197  0.4652
  777poe    c23 7162   6.811   6.887   0.469 -0.3657 -0.3598  0.2738
  777poe     o2 7163   6.853   6.754   0.487  1.2263  0.0699 -0.1156
  777poe    c31 7164   6.833   6.733   0.625 -0.1126 -0.3130 -0.3517
  778poe    c31 7165   5.598   2.498   0.560  0.5521  0.4953  0.8885
  778poe     o2 7166   5.564   2.607   0.478  0.3436 -0.2438 -0.0147
  778poe    c23 7167   5.631   2.722   0.525 -0.3896  0.2103 -0.0542
  778poe    c23 7168   5.601   2.843   0.434  0.0556  0.5860  0.2945
  778poe     o2 7169   5.609   2.821   0.295  0.7137 -0.5541  0.4947
  778poe    c23 7170   5.603   2.947   0.232 -0.7590 -0.9322 -0.1551
  778poe    c23 7171   5.594   2.930   0.079 -0.0813  0.4430 -0.3689
  778poe     o2 7172   5.486   2.842   0.059 -0.0861  0.3893 -0.1104
  778poe    c23 7173   5.453   2.840  -0.078  0.1611 -0.2566 -0.1637
  778poe    c23 7174   5.332   2.747  -0.103 -0.1909  0.0331  0.4447
  778poe     o2 7175   5.368   2.611  -0.096  0.1012  0.0977  0.2069
  778poe    c31 7176   5.266   2.518  -0.123 -0.0103  0.2896 -0.0220
  779poe    c31 7177   5.428   0.829   6.416  0.3178 -0.3939 -0.1108
  779poe     o2 7178   5.463   0.851   6.550 -0.1489  0.0789 -0.0635
  779poe    c23 7179   5.368   0.937   6.609 -0.0536  0.0098  0.1925
  779poe    c23 7180   5.399   0.938   6.760  0.1002  0.4911  0.1568
  779poe     o2 7181   5.363   0.819   6.826  0.5519  0.3691  0.1872
  779poe    c23 7182   5.420   0.809   6.954  0.1502 -0.3883  0.3122
  779poe    c23 7183   5.374   0.683   7.029 -0.0507 -0.2641  0.4000
  779poe     o2 7184   5.433   0.567   6.975 -0.2785  0.1729 -0.8087
  779poe    c23 7185   5.409   0.457   7.059 -0.3521  0.2412 -0.7407
  779poe    c23 7186   5.484   0.340   6.992  0.4687  0.2136  0.2029
  779poe     o2 7187   5.475   0.364   6.853 -0.4114  0.2941  0.2668
  779poe    c31 7188   5.594   0.316   6.793 -0.4609  0.1530  0.2794
  780poe    c31 7189   2.385   3.601   1.367  0.2608  0.0767  0.5151
  780poe     o2 7190   2.278   3.693   1.363  0.2434  0.0175 -0.5232
  780poe    c23 7191   2.173   3.627   1.295  0.1294  0.1491 -0.4736
  780poe    c23 7192   2.054   3.725   1.287 -0.2410 -0.2936 -0.4083
  780poe     o2 7193   2.093   3.843   1.220  0.0209 -0.3763 -0.4048
  780poe    c23 7194   2.012   3.958   1.235  0.8992  0.2262 -0.1968
  780poe    c23 7195   2.003   4.015   1.378  0.0197  0.0048 -0.1563
  780poe     o2 7196   2.131   3.987   1.431 -0.3440  0.0228  0.7409
  780poe    c23 7197   2.137   4.014   1.569  0.1466 -0.2063  0.7632
  780poe    c23 7198   2.285   4.002   1.612  0.3679  0.6323  0.2651
  780poe     o2 7199   2.351   3.901   1.539 -0.2198 -0.0578  0.6734
  780poe    c31 7200   2.488   3.903   1.569 -0.1002  0.5260  0.1063
  781poe    c31 7201   6.171   3.494   1.886 -0.2581  0.1639  0.1801
  781poe     o2 7202   6.294   3.554   1.920 -0.0163  0.0710 -0.5071
  781poe    c23 7203   6.300   3.686   1.872 -0.5527  0.2963  0.0236
  781poe    c23 7204   6.405   3.767   1.949 -0.2227 -0.0763 -0.0319
  781poe     o2 7205   6.520   3.686   1.961  0.1017  0.3801  0.0106
  781poe    c23 7206   6.629   3.768   1.995  0.0568  0.3985  0.1120
  781poe    c23 7207   6.706   3.673   2.089 -0.1649  0.2133  0.1075
  781poe     o2 7208   6.671   3.539   2.066 -0.0935  0.2363 -0.1373
  781poe    c23 7209   6.784   3.469   2.113 -0.0939  0.4179  0.1318
  781poe    c23 7210   6.765   3.320   2.076 -0.3948  0.5437 -0.2234
  781poe     o2 7211   6.753   3.301   1.937 -0.3719  0.2974 -0.1908
  781poe    c31 7212   6.821   3.180   1.911 -0.5053  0.2232 -0.1952
  782poe    c31 7213   1.911   1.557   2.789 -0.1429 -0.6071  0.4419
  782poe     o2 7214   2.013   1.602   2.876 -0.0726 -0.0199  0.0560
  782poe    c23 7215   2.130   1.635   2.805  0.2255 -0.3487  0.3937
  782poe    c23 7216   2.233   1.688   2.907 -0.4661  0.0862  0.8784
  782poe     o2 7217   2.269   1.598   3.010 -0.7969 -0.5442  0.4538
  782poe    c23 7218   2.366   1.505   2.969 -0.0493 -0.0036  0.9640
  782poe    c23 7219   2.378   1.411   3.091  0.0719 -0.1334  0.8521
  782poe     o2 7220   2.448   1.474   3.195  0.5083  0.5692  0.1452
  782poe    c23 7221   2.465   1.403   3.316  1.0732 -0.2528 -0.4073
  782poe    c23 7222   2.548   1.477   3.422  0.4690  0.0608 -0.1455
  782poe     o2 7223   2.508   1.611   3.415  0.0717 -0.0210  0.4996
  782poe    c31 7224   2.594   1.704   3.476  0.2531 -0.0882  0.3444
  783poe    c31 7225   6.041   0.510   4.731  0.3209 -0.2152  0.4722
  783poe     o2 7226   5.993   0.627   4.792  0.2536  0.3125 -0.5672
  783poe    c23 7227   5.930   0.591   4.913 -0.4514  0.2344 -0.9508
  783poe    c23 7228   5.842   0.699   4.977 -0.2036 -0.2962  0.3116
  783poe     o2 7229   5.776   0.756   4.867 -0.0965 -0.2482  0.2725
  783poe    c23 7230   5.718   0.883   4.886  0.3065 -0.0282  0.0314
  783poe    c23 7231   5.825   0.993   4.868  0.2557  0.0561  0.2401
  783poe     o2 7232   5.917   0.966   4.764 -0.1791  0.4979 -0.2656
  783poe    c23 7233   6.033   1.046   4.773  0.3123 -0.2745  0.3156
  783poe    c23 7234   6.121   0.987   4.660 -0.5722 -0.1849 -0.4291
  783poe     o2 7235   6.127   0.847   4.675 -0.2437 -0.1470 -0.2044
  783poe    c31 7236   6.207   0.778   4.582  0.4808 -0.1348  0.3980
  784poe    c31 7237   2.526   5.068   1.594 -0.0616 -0.5475 -0.2733
  784poe     o2 7238   2.597   5.171   1.530  0.0794 -0.5178 -0.0706
  784poe    c23 7239   2.585   5.162   1.389  0.6140 -0.4869 -0.1212
  784poe    c23 7240   2.659   5.266   1.304 -0.1010 -0.0290 -0.1932
  784poe     o2 7241   2.800   5.266   1.311 -0.0859 -0.7117 -0.4388
  784poe    c23 7242   2.853   5.362   1.222 -0.4557 -0.3501 -0.2707
  784poe    c23 7243   2.994   5.310   1.188 -0.3595 -0.0520 -0.3350
  784poe     o2 7244   3.060   5.277   1.308 -0.0865 -0.2699 -0.5437
  784poe    c23 7245   3.169   5.191   1.285  0.1262 -0.2138  0.2269
  784poe    c23 7246   3.247   5.166   1.416  0.3994  0.2956  0.1645
  784poe     o2 7247   3.139   5.139   1.502  0.5818  0.1606  0.3498
  784poe    c31 7248   3.180   5.097   1.631  0.3351 -0.6016  0.1840
  785poe    c31 7249   1.077   2.285   6.565 -0.0207 -0.9262 -0.2308
  785poe     o2 7250   1.161   2.194   6.634  0.2572 -0.5166 -0.0276
  785poe    c23 7251   1.227   2.253   6.744  0.0255  0.0126 -0.1663
  785poe    c23 7252   1.296   2.134   6.813  0.0059  0.1060  0.0144
  785poe     o2 7253   1.207   2.028   6.841  0.2906 -0.0364  0.3908
  785poe    c23 7254   1.268   1.910   6.887 -0.0714 -0.1583  0.5646
  785poe    c23 7255   1.257   1.800   6.780  0.7766  0.2578  0.0351
  785poe     o2 7256   1.127   1.822   6.729  0.6695 -0.3909  0.0112
  785poe    c23 7257   1.110   1.762   6.603 -0.1541 -0.4118  0.1238
  785poe    c23 7258   0.968   1.806   6.565 -0.0011  0.0072  0.0275
  785poe     o2 7259   0.965   1.946   6.584  0.4660 -0.0619  0.6222
  785poe    c31 7260   0.861   2.007   6.511  0.2474 -1.4056 -0.2234
  786poe    c31 7261   6.635   0.476   5.972  0.3338 -0.1832 -0.2218
  786poe     o2 7262   6.618   0.424   6.102  0.2268  0.2900 -0.0424
  786poe    c23 7263   6.614   0.521   6.204  0.2220 -0.0834  0.3159
  786poe    c23 7264   6.501   0.482   6.301 -0.0284 -0.1352  0.0093
  786poe     o2 7265   6.511   0.345   6.335 -0.5122 -0.1505  0.0935
  786poe    c23 7266   6.392   0.300   6.396 -0.2356 -0.0873  0.6781
  786poe    c23 7267   6.389   0.155   6.343 -0.5430  0.4750 -0.8710
  786poe     o2 7268   6.442   0.159   6.212 -0.5449  0.0688 -0.8837
  786poe    c23 7269   6.454   0.031   6.154 -0.1935 -0.4525  0.3021
  786poe    c23 7270   6.504   0.062   6.011  0.2577 -0.8983  0.3601
  786poe     o2 7271   6.625   0.135   6.016 -0.3974  0.1944  0.3812
  786poe    c31 7272   6.702   0.134   5.898 -0.3709  0.4801  0.3947
  787poe    c31 7273   0.259   6.528   6.488  0.1595 -0.2884 -0.7321
  787poe     o2 7274   0.199   6.408   6.532 -0.4519  0.2420 -0.0860
  787poe    c23 7275   0.063   6.445   6.533 -0.3085  0.7871 -0.1932
  787poe    c23 7276  -0.019   6.316   6.552  0.4666  0.3004 -0.1217
  787poe     o2 7277   0.054   6.243   6.649 -0.6879 -0.0984  0.4655
  787poe    c23 7278   0.000   6.122   6.698  0.0997 -1.0287 -0.8857
  787poe    c23 7279   0.110   6.056   6.784 -0.1336  0.0752  0.2988
  787poe     o2 7280   0.237   6.078   6.727 -0.3316 -0.1364 -0.2321
  787poe    c23 7281   0.338   6.084   6.826  0.3230 -0.0493 -0.8950
  787poe    c23 7282   0.453   6.169   6.770  0.7452  0.0973  0.1698
  787poe     o2 7283   0.399   6.272   6.691  0.4537 -0.6149 -0.5785
  787poe    c31 7284   0.493   6.377   6.683 -0.3486  0.2010  0.3910
  788poe    c31 7285   0.910   5.054   4.266  0.2352 -0.6821  0.1648
  788poe     o2 7286   0.929   4.984   4.145  0.2491  0.0539 -0.2641
  788poe    c23 7287   0.867   5.046   4.035 -0.0760 -0.0326 -0.1284
  788poe    c23 7288   0.832   4.942   3.926 -0.3091 -0.4056  0.2969
  788poe     o2 7289   0.753   4.833   3.968 -0.4360 -0.4566 -0.0776
  788poe    c23 7290   0.625   4.869   4.014 -0.1048  0.2037  0.3495
  788poe    c23 7291   0.565   4.737   4.068  0.0395 -0.0777 -0.1670
  788poe     o2 7292   0.595   4.631   3.980  0.3306 -0.2825  0.1802
  788poe    c23 7293   0.586   4.508   4.047 -0.6456  0.0412  0.6529
  788poe    c23 7294   0.638   4.412   3.938 -0.3067  0.7389  0.1979
  788poe     o2 7295   0.743   4.485   3.879  0.0698 -0.4298 -0.6125
  788poe    c31 7296   0.830   4.393   3.816  0.1218 -0.5701 -0.3382
  789poe    c31 7297   2.347   4.906   6.539  0.4907 -0.5316 -0.3116
  789poe     o2 7298   2.461   4.828   6.569  0.4159 -0.2169  0.8396
  789poe    c23 7299   2.519   4.857   6.694 -0.4942  0.4549  1.1227
  789poe    c23 7300   2.645   4.774   6.724 -0.4689 -0.0550 -0.3052
  789poe     o2 7301   2.752   4.800   6.636  0.3800 -0.8654  0.4657
  789poe    c23 7302   2.880   4.754   6.676  0.8264 -0.3636 -0.3510
  789poe    c23 7303   2.984   4.813   6.580  0.0006  0.8157 -0.5499
  789poe     o2 7304   2.960   4.762   6.451 -0.2831  0.0520 -0.2031
  789poe    c23 7305   3.059   4.812   6.363 -0.4951 -0.2271 -0.6012
  789poe    c23 7306   3.028   4.753   6.224 -0.2014  0.3459 -0.9136
  789poe     o2 7307   2.894   4.709   6.216 -0.2043  0.2571 -0.4265
  789poe    c31 7308   2.867   4.655   6.088 -0.6770  1.0616 -0.6712
  790poe    c31 7309   1.597   3.018   2.604 -0.2766 -0.4640  0.8162
  790poe     o2 7310   1.638   2.886   2.632  0.1768 -0.3931  0.5044
  790poe    c23 7311   1.761   2.856   2.570 -0.0566 -0.0814 -0.1272
  790poe    c23 7312   1.834   2.746   2.650  0.2875  0.4017  0.2333
  790poe     o2 7313   1.804   2.782   2.783 -0.9046  0.8351 -0.1425
  790poe    c23 7314   1.917   2.818   2.858 -0.5291  0.1475 -0.3634
  790poe    c23 7315   1.861   2.867   2.993  0.0446  0.3543 -0.1953
  790poe     o2 7316   1.747   2.941   2.955 -0.3600 -0.1650 -0.0062
  790poe    c23 7317   1.660   2.981   3.058  0.0122  0.5987  0.0243
  790poe    c23 7318   1.540   3.027   2.973  0.2326  0.0554 -0.5889
  790poe     o2 7319   1.502   2.924   2.884  0.0107 -0.0653 -0.3581
  790poe    c31 7320   1.374   2.962   2.840  0.0234 -0.2560 -0.5613
  791poe    c31 7321   0.770   6.739   3.533 -0.3109 -0.4926  0.3281
  791poe     o2 7322   0.853   6.834   3.596 -0.2040 -0.2703 -0.1437
  791poe    c23 7323   0.844   6.814   3.736  0.0273 -0.1957 -0.1187
  791poe    c23 7324   0.983   6.835   3.798  0.3968 -0.9156 -0.6835
  791poe     o2 7325   1.056   6.945   3.749 -0.5856 -0.0182 -0.1636
  791poe    c23 7326   1.194   6.926   3.729 -0.5245  0.2979 -0.0545
  791poe    c23 7327   1.227   6.947   3.580  0.3280 -0.5168  0.0093
  791poe     o2 7328   1.131   6.890   3.493  0.0975  0.1140 -0.1503
  791poe    c23 7329   1.182   6.897   3.361  0.3780 -0.3245 -0.0678
  791poe    c23 7330   1.064   6.866   3.266  0.0483  0.1334  0.1879
  791poe     o2 7331   0.945   6.920   3.320 -0.6128 -0.8093 -0.3181
  791poe    c31 7332   0.865   6.984   3.223 -0.1151 -0.0458 -0.2283
  792poe    c31 7333   3.512   3.485   5.722 -0.0455 -0.0174  0.3178
  792poe     o2 7334   3.547   3.536   5.595 -1.3657 -0.0402 -0.0707
  792poe    c23 7335   3.631   3.447   5.526 -0.2939  0.4953  0.5138
  792poe    c23 7336   3.609   3.477   5.376 -0.2969 -0.3042  0.3484
  792poe     o2 7337   3.624   3.615   5.353  0.0513 -0.4460 -0.2767
  792poe    c23 7338   3.646   3.627   5.214 -0.3751  0.1827 -0.2955
  792poe    c23 7339   3.652   3.780   5.198 -0.0753  0.2591  0.5034
  792poe     o2 7340   3.560   3.849   5.280 -0.8154  0.3576 -0.3983
  792poe    c23 7341   3.550   3.982   5.236  0.5759  0.5808 -0.1023
  792poe    c23 7342   3.409   4.035   5.271  0.3007 -0.3478  0.2325
  792poe     o2 7343   3.380   4.029   5.409 -0.1572 -0.1669  0.1443
  792poe    c31 7344   3.426   4.138   5.486  0.4676 -0.2844 -0.0609
  793poe    c31 7345   5.087   1.605   6.017  0.3072  0.2143 -0.1513
  793poe     o2 7346   5.038   1.663   6.135 -0.2161  0.1988 -0.3566
  793poe    c23 7347   5.087   1.585   6.242 -0.1452  0.3522 -0.2764
  793poe    c23 7348   5.026   1.617   6.380 -0.4365  0.1965 -0.3675
  793poe     o2 7349   5.000   1.756   6.368 -0.0339  0.2929 -0.1499
  793poe    c23 7350   4.920   1.807   6.472  0.1391 -0.3998  0.3317
  793poe    c23 7351   4.931   1.960   6.469  0.7138 -0.4460 -0.0204
  793poe     o2 7352   4.904   1.980   6.332 -0.0812 -0.1925  0.1667
  793poe    c23 7353   4.979   2.090   6.286 -0.7089  0.0463 -0.3076
  793poe    c23 7354   4.996   2.076   6.134 -0.1626  0.1979 -0.2654
  793poe     o2 7355   5.047   1.950   6.099 -0.9386 -0.1385 -0.2172
  793poe    c31 7356   5.113   1.962   5.975 -0.2444 -0.3938  0.1162
  794poe    c31 7357   3.033   0.347   4.790  0.6212  0.3077 -0.1854
  794poe     o2 7358   3.064   0.371   4.925 -0.1174 -0.5907  0.1538
  794poe    c23 7359   3.056   0.509   4.954  0.6120 -0.5654  0.2431
  794poe    c23 7360   3.086   0.516   5.105 -0.2769  0.2772  0.3901
  794poe     o2 7361   3.198   0.436   5.138 -0.3549  0.0584  0.1269
  794poe    c23 7362   3.234   0.453   5.273  0.0665  0.4330 -0.0307
  794poe    c23 7363   3.386   0.428   5.276 -0.0364 -0.1617  0.3517
  794poe     o2 7364   3.422   0.306   5.216 -0.0867  0.1237 -0.2709
  794poe    c23 7365   3.563   0.298   5.220 -0.0968  0.0405 -0.0571
  794poe    c23 7366   3.614   0.158   5.184 -0.2210 -0.0964  0.2899
  794poe     o2 7367   3.575   0.149   5.049  0.3794  0.1840  0.0928
  794poe    c31 7368   3.637   0.039   4.987  0.1573 -0.0193  0.2295
  795poe    c31 7369   4.864   3.755   2.991  0.3538 -0.4137 -0.7058
  795poe     o2 7370   4.978   3.673   3.008  0.2825 -0.3494  0.1184
  795poe    c23 7371   4.994   3.618   2.879 -0.5174  0.0270 -0.1517
  795poe    c23 7372   5.131   3.549   2.862 -0.3848  0.2313  0.0608
  795poe     o2 7373   5.250   3.622   2.876 -0.0040 -0.4454  0.3745
  795poe    c23 7374   5.365   3.541   2.896  0.2212 -0.1255  0.3771
  795poe    c23 7375   5.494   3.620   2.867 -0.2284  0.4174 -0.2123
  795poe     o2 7376   5.516   3.732   2.950  0.0157  0.6293 -0.5611
  795poe    c23 7377   5.648   3.737   3.001 -0.0585 -0.3357 -0.2397
  795poe    c23 7378   5.662   3.859   3.094  0.2217 -0.4100 -0.1849
  795poe     o2 7379   5.567   3.956   3.058  0.1478 -0.5835 -0.4605
  795poe    c31 7380   5.630   4.080   3.081 -0.8753 -0.1477  0.0344
  796poe    c31 7381   0.859   3.504   2.376 -0.8035  0.8078  0.1661
  796poe     o2 7382   0.843   3.365   2.359  0.6692  0.6086  0.2806
  796poe    c23 7383   0.739   3.312   2.438  0.5584 -0.2463 -0.4215
  796poe    c23 7384   0.712   3.170   2.385 -0.0421 -0.4230  0.3340
  796poe     o2 7385   0.658   3.170   2.254 -0.0956 -0.4415  0.3559
  796poe    c23 7386   0.651   3.034   2.216 -0.2290 -0.3479  0.0475
  796poe    c23 7387   0.558   3.018   2.094  0.1754 -0.0818 -0.3054
  796poe     o2 7388   0.598   3.119   2.005  0.2318 -0.0952 -0.2950
  796poe    c23 7389   0.574   3.099   1.868  0.1663 -0.4093 -0.2387
  796poe    c23 7390   0.679   3.191   1.804  0.1545  0.2478  0.6748
  796poe     o2 7391   0.669   3.316   1.870  0.3662  0.3272  0.5585
  796poe    c31 7392   0.685   3.421   1.777  0.6547 -0.5402 -0.3991
  797poe    c31 7393   6.498   6.654   3.467  0.0632  0.3911 -0.3438
  797poe     o2 7394   6.622   6.645   3.534 -0.2362  0.2082  0.1912
  797poe    c23 7395   6.616   6.592   3.664  0.1367  0.1783  0.1955
  797poe    c23 7396   6.723   6.646   3.761  0.2845  0.2926 -0.0302
  797poe     o2 7397   6.851   6.646   3.702  0.1739 -0.5432 -0.2741
  797poe    c23 7398   6.921   6.764   3.734 -0.3946 -0.2717 -0.0120
  797poe    c23 7399   7.002   6.803   3.609 -0.0257  0.4684  0.4532
  797poe     o2 7400   6.919   6.797   3.496  0.7324 -0.2513 -0.0848
  797poe    c23 7401   6.997   6.816   3.381  0.6929  0.2195 -0.0374
  797poe    c23 7402   6.910   6.806   3.254  0.1162 -0.0259  0.3763
  797poe     o2 7403   6.842   6.683   3.262  0.1166 -0.0699 -0.2836
  797poe    c31 7404   6.812   6.650   3.128  0.1082 -0.0544 -0.2853
  798poe    c31 7405   4.764   4.468   1.846  0.4782  0.2532 -0.4879
  798poe     o2 7406   4.667   4.366   1.838  0.3161  0.3889 -0.2927
  798poe    c23 7407   4.642   4.305   1.713 -0.4082  0.3029 -0.1090
  798poe    c23 7408   4.569   4.389   1.606  0.0534  0.5060 -0.2683
  798poe     o2 7409   4.439   4.436   1.632 -0.1147 -0.0456 -0.0875
  798poe    c23 7410   4.409   4.523   1.525 -0.0376  0.2099  0.0947
  798poe    c23 7411   4.278   4.598   1.557  0.0465  0.3358  0.1416
  798poe     o2 7412   4.187   4.514   1.624 -0.2792  0.2370 -0.4175
  798poe    c23 7413   4.062   4.578   1.641 -0.1236  0.2987  0.5432
  798poe    c23 7414   3.975   4.492   1.734  0.0419 -0.3472  0.1037
  798poe     o2 7415   4.036   4.474   1.859  0.2350  0.2611  0.1021
  798poe    c31 7416   3.944   4.404   1.940  0.4792 -0.8642 -0.5583
  799poe    c31 7417   4.442   2.680   5.890  0.0351  0.0063  0.5264
  799poe     o2 7418   4.548   2.705   5.801 -0.5791  0.3467 -0.1231
  799poe    c23 7419   4.532   2.616   5.693 -0.3759 -0.2553  0.3340
  799poe    c23 7420   4.610   2.692   5.584 -0.3219 -0.2198  0.3973
  799poe     o2 7421   4.548   2.809   5.535  0.5678  0.1344  0.1095
  799poe    c23 7422   4.595   2.828   5.403  0.1363 -0.3097 -0.1121
  799poe    c23 7423   4.502   2.918   5.320 -0.4763 -0.3610  0.5071
  799poe     o2 7424   4.489   3.040   5.389 -0.7353 -0.2105  0.1964
  799poe    c23 7425   4.390   3.118   5.325 -0.3863 -0.1587 -0.2874
  799poe    c23 7426   4.406   3.262   5.375 -0.1689 -0.1310 -0.4359
  799poe     o2 7427   4.424   3.276   5.514  0.1556  0.0355 -0.4928
  799poe    c31 7428   4.486   3.401   5.536 -0.4474  0.3053 -0.3033
  800poe    c31 7429   5.813   0.481   1.691 -0.1728  0.9571  0.2223
  800poe     o2 7430   5.819   0.498   1.831  0.1944 -0.3874  0.3883
  800poe    c23 7431   5.934   0.571   1.867  0.4330 -0.3020 -0.5244
  800poe    c23 7432   5.985   0.541   2.009 -0.6502 -0.1865 -0.1037
  800poe     o2 7433   5.903   0.576   2.118  0.1942  0.3008  0.3884
  800poe    c23 7434   5.958   0.547   2.244  0.6514 -0.7174 -0.0328
  800poe    c23 7435   5.837   0.504   2.328  0.1941  0.1154 -0.2551
  800poe     o2 7436   5.747   0.611   2.346  0.2489  0.0161  0.6605
  800poe    c23 7437   5.617   0.568   2.380 -0.1599  0.9101  0.2746
  800poe    c23 7438   5.523   0.690   2.373 -0.3654  0.8213  1.3058
  800poe     o2 7439   5.561   0.762   2.258 -0.3891 -0.0458  0.7423
  800poe    c31 7440   5.498   0.885   2.230 -0.0160 -0.0021  0.0892
  801poe    c31 7441   3.868   3.184   1.611  0.5429 -0.5866 -0.4224
  801poe     o2 7442   3.974   3.245   1.541  0.2335  0.2074 -0.2081
  801poe    c23 7443   4.063   3.143   1.502 -0.0428 -0.0844 -0.0760
  801poe    c23 7444   4.203   3.197   1.468  0.1820 -0.5949  0.0268
  801poe     o2 7445   4.273   3.259   1.573  0.1896  0.0922 -0.3747
  801poe    c23 7446   4.381   3.328   1.514  0.0931  0.3198 -0.2869
  801poe    c23 7447   4.467   3.406   1.614  0.0265 -0.5438  0.4642
  801poe     o2 7448   4.380   3.432   1.721  0.1350  0.3189  0.3509
  801poe    c23 7449   4.423   3.507   1.833 -0.2686  0.1726  0.6061
  801poe    c23 7450   4.295   3.552   1.906 -0.8759  0.0161 -0.3415
  801poe     o2 7451   4.214   3.437   1.923 -0.4974 -0.2289 -0.1875
  801poe    c31 7452   4.111   3.461   2.016 -0.5490 -1.2307  0.0276
  802poe    c31 7453   4.565   1.483   1.937 -0.0597  0.2282 -0.3553
  802poe     o2 7454   4.450   1.474   2.017  0.0499 -0.0833 -0.2308
  802poe    c23 7455   4.464   1.400   2.136 -0.7786  0.0603 -0.0389
  802poe    c23 7456   4.333   1.418   2.215 -0.7105 -0.5516  0.2214
  802poe     o2 7457   4.237   1.433   2.113 -0.1936  0.2259 -0.1619
  802poe    c23 7458   4.122   1.505   2.153 -0.0106  0.4299  0.0016
  802poe    c23 7459   4.032   1.496   2.028  0.0889  0.4353 -0.0708
  802poe     o2 7460   4.109   1.530   1.915  0.0848  0.4603 -0.0660
  802poe    c23 7461   4.040   1.547   1.793  0.6343 -0.2674 -0.4861
  802poe    c23 7462   3.969   1.424   1.735 -0.1244 -0.1190  0.1045
  802poe     o2 7463   4.072   1.333   1.699 -0.1221  0.1054 -0.4621
  802poe    c31 7464   4.060   1.302   1.562 -0.0816  0.3707 -0.5273
  803poe    c31 7465   6.219   6.246   5.559 -0.8143 -0.1920 -1.2879
  803poe     o2 7466   6.122   6.348   5.562 -0.3358  0.2531  0.0937
  803poe    c23 7467   6.121   6.408   5.434  0.2054 -0.2040 -0.1280
  803poe    c23 7468   6.020   6.525   5.434  0.0505 -0.3384  0.2096
  803poe     o2 7469   6.052   6.616   5.537 -0.0639  0.1420 -0.1780
  803poe    c23 7470   5.933   6.671   5.590  0.4463  1.0656  0.0246
  803poe    c23 7471   5.968   6.703   5.737  0.4611  0.1205  0.2349
  803poe     o2 7472   6.019   6.580   5.783  0.4493  0.0417  0.0379
  803poe    c23 7473   6.065   6.578   5.916  0.7880 -0.2553 -0.0819
  803poe    c23 7474   6.107   6.436   5.961 -0.3375 -0.3437  0.7367
  803poe     o2 7475   6.146   6.354   5.853 -0.7683 -0.1433  0.4231
  803poe    c31 7476   6.196   6.237   5.913 -0.1642  0.2279  0.6575
  804poe    c31 7477   5.228   5.833   4.882  0.1247 -0.4102  0.0112
  804poe     o2 7478   5.193   5.940   4.967  0.4708 -0.0823 -0.2542
  804poe    c23 7479   5.196   6.066   4.904 -0.0815  0.1979  0.2764
  804poe    c23 7480   5.108   6.174   4.970 -0.3334  0.0295  0.2154
  804poe     o2 7481   4.972   6.134   4.968 -0.2535 -0.2319 -0.1430
  804poe    c23 7482   4.911   6.240   5.038  0.0602 -0.4348  0.4459
  804poe    c23 7483   4.767   6.183   5.037 -0.0422 -0.1744  0.2916
  804poe     o2 7484   4.769   6.049   5.082  0.0792 -0.2966 -0.0788
  804poe    c23 7485   4.761   6.024   5.220 -0.3643  0.2403 -0.0022
  804poe    c23 7486   4.788   5.874   5.243  0.1695  0.3895  0.3643
  804poe     o2 7487   4.904   5.864   5.164  0.3080  0.1793  0.5962
  804poe    c31 7488   4.968   5.739   5.183  0.1850  0.1394  0.7513
  805poe    c31 7489   2.948   6.543   5.350  0.0824  0.8172 -0.1849
  805poe     o2 7490   2.953   6.499   5.216 -1.0778  0.4615 -0.1248
  805poe    c23 7491   2.817   6.471   5.189 -0.5822 -1.6222 -0.5686
  805poe    c23 7492   2.769   6.553   5.068 -0.0351 -0.2456  0.1301
  805poe     o2 7493   2.879   6.546   4.980 -0.2983 -0.1311 -0.2071
  805poe    c23 7494   2.859   6.621   4.862 -0.3202  0.5207  0.2004
  805poe    c23 7495   2.993   6.612   4.786 -0.1744  0.4141  0.4691
  805poe     o2 7496   3.088   6.609   4.891 -0.1705 -0.1348  0.4533
  805poe    c23 7497   3.219   6.630   4.844 -0.4819  0.8677 -0.0198
  805poe    c23 7498   3.314   6.650   4.964  0.1380 -0.0613 -0.3432
  805poe     o2 7499   3.263   6.565   5.063  0.8787 -0.1994 -0.0701
  805poe    c31 7500   3.339   6.582   5.181 -0.1650 -0.3787  0.6497
  806poe    c31 7501   3.832   0.398   4.556 -0.3397 -0.1951  0.2502
  806poe     o2 7502   3.769   0.515   4.602 -1.0338 -0.4911  0.0575
  806poe    c23 7503   3.823   0.616   4.521 -0.9162 -0.0119  0.7263
  806poe    c23 7504   3.747   0.750   4.527  0.3105  0.7516 -0.2635
  806poe     o2 7505   3.751   0.803   4.658  0.0203  0.1020  0.0076
  806poe    c23 7506   3.672   0.919   4.647  0.0451  0.1731  0.5359
  806poe    c23 7507   3.696   0.981   4.786  0.2150  0.5669  0.3317
  806poe     o2 7508   3.681   0.872   4.874  1.1446  0.0350 -0.1574
  806poe    c23 7509   3.706   0.918   5.005  0.1088 -0.0705  0.0795
  806poe    c23 7510   3.676   0.816   5.116  0.4482  0.3473  0.5568
  806poe     o2 7511   3.771   0.712   5.117  0.3955  0.2908 -0.0180
  806poe    c31 7512   3.796   0.693   5.255  0.2357  0.2006 -0.0011
  807poe    c31 7513   5.068   0.935   2.612 -0.0548 -0.0613 -0.3383
  807poe     o2 7514   5.082   0.804   2.663 -0.0016  0.0916  0.0474
  807poe    c23 7515   5.218   0.766   2.667 -0.0679 -0.1181  0.3051
  807poe    c23 7516   5.214   0.615   2.694 -0.2602 -0.1429  0.1400
  807poe     o2 7517   5.145   0.541   2.596 -0.0988 -0.4797  0.2805
  807poe    c23 7518   5.152   0.402   2.620 -0.0326 -0.4807  0.2570
  807poe    c23 7519   5.039   0.342   2.534 -0.1052 -0.7770  0.5591
  807poe     o2 7520   4.936   0.436   2.553  0.2874 -0.2162 -0.0349
  807poe    c23 7521   4.827   0.418   2.465  0.0307 -0.1350  0.2644
  807poe    c23 7522   4.727   0.533   2.492 -0.1809 -0.2637  0.0321
  807poe     o2 7523   4.804   0.648   2.516 -0.0996 -0.4531  0.7199
  807poe    c31 7524   4.713   0.751   2.483  0.4584 -0.0289  0.4706
  808poe    c31 7525   4.723   0.475   1.870 -0.4229  0.0525  0.3285
  808poe     o2 7526   4.698   0.338   1.851 -0.6992  0.2098 -0.4662
  808poe    c23 7527   4.623   0.299   1.738 -0.5674  0.4591 -0.6397
  808poe    c23 7528   4.646   0.149   1.716 -0.1461  0.3654  0.3884
  808poe     o2 7529   4.660   0.077   1.836  0.0895 -0.3328 -0.0471
  808poe    c23 7530   4.758  -0.022   1.817 -0.0908 -0.5086 -0.0563
  808poe    c23 7531   4.766  -0.092   1.955  0.5357  0.0247  0.1823
  808poe     o2 7532   4.797   0.001   2.056 -1.2219  0.6632  0.1723
  808poe    c23 7533   4.893  -0.045   2.148 -0.5397  0.7432 -0.4927
  808poe    c23 7534   4.831  -0.066   2.287  0.1226  0.2609 -0.2643
  808poe     o2 7535   4.800   0.054   2.356 -0.4885  0.1463 -0.3332
  808poe    c31 7536   4.733   0.032   2.477 -0.2601 -0.1168 -0.2521
  809poe    c31 7537   2.923   3.639   1.944 -0.3817  1.2217 -0.1628
  809poe     o2 7538   3.006   3.739   1.997  0.9781 -0.1164  0.3053
  809poe    c23 7539   3.022   3.842   1.901  0.0833 -0.0432  0.2275
  809poe    c23 7540   3.129   3.945   1.942 -0.2215  0.3929 -0.0599
  809poe     o2 7541   3.113   3.952   2.082  0.3814 -0.2096  0.0449
  809poe    c23 7542   3.230   3.999   2.147  0.0971  0.2621  0.2207
  809poe    c23 7543   3.214   3.970   2.298 -0.1155 -0.3159  0.0908
  809poe     o2 7544   3.176   3.834   2.303  0.1230 -0.3815  0.1240
  809poe    c23 7545   3.138   3.796   2.433 -0.5411 -0.5748 -0.1232
  809poe    c23 7546   3.082   3.653   2.422 -0.3464 -0.6785  0.2127
  809poe     o2 7547   3.009   3.659   2.302 -0.3754 -0.5518  0.2362
  809poe    c31 7548   2.928   3.544   2.287 -0.2554 -0.5955 -0.0796
  810poe    c31 7549   2.523   4.726   2.805  0.3903  0.3591 -0.6544
  810poe     o2 7550   2.453   4.643   2.895  0.4525  0.5942 -0.3887
  810poe    c23 7551   2.321   4.694   2.902  0.0776 -0.4425  0.2301
  810poe    c23 7552   2.236   4.576   2.954 -0.2063 -0.4746 -0.2971
  810poe     o2 7553   2.312   4.499   3.045 -0.3805  0.4516  0.6556
  810poe    c23 7554   2.240   4.402   3.118 -0.4466 -0.0230 -0.0323
  810poe    c23 7555   2.321   4.316   3.216 -0.1189  0.1158 -0.1804
  810poe     o2 7556   2.447   4.297   3.155 -0.2503 -0.1789 -0.3611
  810poe    c23 7557   2.518   4.192   3.218  0.1221  0.3651  0.1381
  810poe    c23 7558   2.590   4.217   3.352  0.6122  0.1748 -0.0896
  810poe     o2 7559   2.697   4.306   3.330  0.1874  0.6665 -0.1847
  810poe    c31 7560   2.781   4.304   3.444  0.1781  0.4156 -0.1825
  811lim     li 7561   0.796   0.336   3.955 -1.2182  0.3053  0.2223
  812lim     li 7562   3.403   2.692   5.208  1.0414  0.7214  0.4913
  813lim     li 7563   3.457   4.265   5.921 -0.0235 -0.3630  0.7471
  814lim     li 7564   6.749   1.882   0.027  0.4974 -0.5947 -0.2176
  815lim     li 7565   4.173   4.507   2.807  0.1181  0.5300  0.1723
  816lim     li 7566   1.582   5.988   0.931 -0.2154  0.7771 -0.2622
  817lim     li 7567   4.956   0.624   2.591 -0.1849  1.3184  1.1147
  818lim     li 7568   0.095   2.789   1.495  0.2459 -1.1779  0.1569
  819lim     li 7569   1.665   0.074   2.069  0.3221  0.3457 -0.9590
  820lim     li 7570   5.407   6.310   3.020 -0.0230 -0.1053 -0.1040
  821lim     li 7571   4.281   2.706   0.906  0.3591 -0.2835 -0.4391
  822lim     li 7572   4.903   2.202   3.947  0.7688 -0.4159 -0.5941
  823lim     li 7573   2.439   5.135   5.812  0.0446  0.2501 -0.1053
  824lim     li 7574   5.989   3.650   2.352  0.6657  1.3058  0.8768
  825lim     li 7575   0.828   3.850   4.203  0.9627 -0.5936 -0.0413
  826lim     li 7576   5.595   4.780   0.809  1.2974  0.1735 -1.4885
  827lim     li 7577   6.267   1.260   4.129 -0.7219  0.1067  1.3064
  828lim     li 7578   1.249   6.230   4.810 -0.1121 -0.3118  0.3655
  829lim     li 7579   1.644   3.073   4.496  0.0017  0.4843 -0.3954
  830lim     li 7580   2.122   0.933   5.492  0.3177  0.6498  0.0933
  831lim     li 7581   4.951   4.370   0.427  0.0674  0.6782  0.7674
  832lim     li 7582   2.171   2.576   5.853 -0.3701 -0.7331  1.2576
  833lim     li 7583   2.861   4.546   5.154 -0.0969  0.9782  0.3119
  834lim     li 7584   5.411   1.819   1.474 -1.1035  0.9523 -0.5616
  835lim     li 7585   2.715   3.340   5.582 -0.5174 -0.3076 -0.1642
  836lim     li 7586   1.330   1.092   5.478  0.5978  0.5999 -0.0998
  837lim     li 7587   2.809   3.846   5.066  0.0029  0.6041 -0.5223
  838lim     li 7588   1.558   5.667   6.129  0.4889  1.5639  0.4221
  839lim     li 7589   2.788   0.758   2.770  0.3060 -0.1899  0.6872
  840lim     li 7590   1.057   2.695   5.883  0.8681 -0.4721 -0.1167
  841lim     li 7591   3.565   3.114   4.563 -0.1199  1.0048  0.6609
  842lim     li 7592   2.118   0.968   6.642 -0.9462  0.2298 -0.0959
  843lim     li 7593   0.416   1.036   5.315  0.8186 -0.5015  0.0371
  844lim     li 7594   4.312   3.781   4.408  0.6243  0.5872 -0.5873
  845lim     li 7595   6.417   2.950   6.076 -0.7848 -0.4111  0.7241
  846lim     li 7596   5.735   5.379   3.211  0.6249 -0.8090  0.3226
  847lim     li 7597   6.016   1.030   0.603 -1.4901 -0.6791 -0.7667
  848lim     li 7598   1.611   2.083   4.677  0.5450  0.2857 -0.5112
  849lim     li 7599   0.307   2.447   1.904  1.2015 -0.6465  0.1881
  850lim     li 7600   5.464   3.227   5.262 -0.2331 -1.0178  0.8449
  851lim     li 7601   4.111   4.612   3.766  0.6681  0.3055  0.6494
  852lim     li 7602   3.225   0.325   1.238 -0.0958  0.5437  0.3423
  853lim     li 7603   3.556   3.724   5.465  0.9291 -0.5083 -0.6010
  854lim     li 7604   5.096   5.856   1.980  1.4072  1.1179 -0.3546
  855lim     li 7605   4.155   0.218   6.637  1.0421  1.3796  0.2230
  856lim     li 7606   2.358   3.923   4.059 -0.3938 -0.0253  0.3780
  857lim     li 7607   3.514   5.130   4.775  0.7709 -0.8974 -0.6957
  858lim     li 7608   2.601   1.135   0.273  0.2969  0.5624  0.0532
  859lim     li 7609   0.037   2.888   2.544 -0.2208  0.1969  0.1089
  860lim     li 7610   6.579   0.262   6.177 -0.0501 -0.8688  0.1418
  861lim     li 7611   5.949   0.787   4.708 -0.2118  0.5333 -0.3217
  862lim     li 7612   2.384   6.010   0.011  0.1899 -0.3347  0.4165
  863lim     li 7613   0.473   0.703   0.015  0.9282  0.1837 -0.1141
  864lim     li 7614   6.544   5.281   1.044  0.2581 -1.4992 -0.4238
  865lim     li 7615   1.387   5.999   1.979  1.3011 -0.4449  0.1455
  866lim     li 7616   4.773   4.974   2.136  0.9016 -0.5890  0.9724
  867lim     li 7617   2.830   4.566   0.577  0.3578 -0.0373 -0.3689
  868lim     li 7618   4.211   5.249   1.258 -0.5802  0.3065  0.8093
  869lim     li 7619   4.853   5.574   2.672  0.4017  0.0974 -0.1853
  870lim     li 7620   1.389   1.859   5.825  0.2791  0.2618  1.7950
  871lim     li 7621   6.020   2.406   3.531 -0.2935  0.8330  0.9204
  872lim     li 7622   4.172   4.696   6.392  0.4221 -1.2064 -0.2278
  873lim     li 7623   5.513   2.100   2.295  0.3441 -0.1155 -0.5414
  874lim     li 7624   4.149   4.018   0.438  0.4601  0.4257 -0.2270
  875lim     li 7625   0.645   4.619   6.439  0.1182  0.3296  0.6548
  876lim     li 7626   4.844   3.044   1.928 -0.5605  0.0046  1.2714
  877lim     li 7627   4.647   5.700   1.057 -0.8023 -0.6789 -0.9255
  878lim     li 7628   5.027   3.484   0.712  0.6428 -1.1109  1.0098
  879lim     li 7629   0.820   1.682   2.366 -0.0499 -0.0523 -0.0737
  880lim     li 7630   6.824   6.574   4.187 -0.5841  0.3454  0.6602
  881lim     li 7631   2.795   2.084   0.688  0.0296 -0.7168 -1.1456
  882lim     li 7632   3.487   3.399   0.539 -0.0076 -0.6256  1.1430
  883lim     li 7633   1.525   4.429   4.414 -0.2181  0.2413  0.2589
  884lim     li 7634   5.282   6.493   0.733  0.6335 -0.4720 -0.5052
  885lim     li 7635   2.007   2.534   0.528  0.2417 -0.6389  1.8940
  886lim     li 7636   2.260   5.784   1.056 -0.0747 -0.3862  0.3201
  887lim     li 7637   2.489   0.792   0.952  0.1740 -0.0162  0.4137
  888lim     li 7638   1.582   2.009   2.872 -0.5282 -0.8666 -0.0605
  889lim     li 7639   5.886   1.862   4.702 -0.7707 -0.0630 -0.6142
  890lim     li 7640   2.070   6.448   1.142  0.2464 -0.4690  0.3817
  891lim     li 7641   2.819   3.341   6.377  0.7096 -1.6346  0.2800
  892lim     li 7642   6.467   3.523   1.999  0.1051 -0.0632 -0.3981
  893lim     li 7643   4.637   2.348   0.117  0.6731 -1.0224  1.6279
  894lim     li 7644   2.141   0.822   1.645 -0.7155 -0.0226  1.3783
  895lim     li 7645   3.189   0.288   5.034  0.8373  0.2230  0.6753
  896lim     li 7646   6.396   3.257   2.812  0.2174  0.1734  0.6604
  897lim     li 7647   0.716   1.339   4.322 -0.5831 -0.9952 -0.7152
  898lim     li 7648   0.422   4.540   4.687  0.3091  0.3372 -0.3852
  899lim     li 7649   0.620   2.728   4.306 -0.1761  0.5516 -0.0458
  900lim     li 7650   6.573   4.011   6.217  1.9407 -0.6464 -0.2803
  901lim     li 7651   4.724   0.195   1.962 -0.5612 -0.1417 -0.8791
  902lim     li 7652   5.142   1.379   3.304 -0.6405  0.4882 -0.2618
  903lim     li 7653   2.067   6.527   3.050 -0.4866  0.0669  0.0745
  904lim     li 7654   6.399   3.523   4.416 -1.7883  0.6815  1.1758
  905lim     li 7655   5.039   2.629   5.051 -0.7210  0.3060 -0.1708
  906lim     li 7656   5.744   0.335   0.848  0.3500  1.4252  0.0129
  907lim     li 7657   3.181   2.390   4.409 -0.3761 -0.2551  0.1588
  908lim     li 7658   2.467   1.209   4.563 -0.1664 -0.8314  0.0488
  909lim     li 7659   6.825   5.855   0.611  0.0958  0.6775  0.2887
  910lim     li 7660   0.949   1.697   4.973 -0.5537  0.4037 -0.6368
  911lim     li 7661   2.805   0.746   5.727  1.5063 -0.0332  0.1716
  912lim     li 7662   2.793   2.617   6.534  0.4373  0.4549  1.4461
  913lim     li 7663   4.825   2.977   2.610  0.7355 -0.2473 -0.6708
  914lim     li 7664   1.636   4.019   3.395 -0.0057  0.1467  0.5325
  915lim     li 7665   6.134   1.399   1.879  0.8037  0.0973 -0.0044
  916lim     li 7666   1.923   3.452   3.582 -0.5596 -0.1341  0.5734
  917lim     li 7667   0.683   5.438   4.866 -0.8421 -0.9729 -0.1217
  918lim     li 7668   1.901   0.676   4.816 -0.8627 -0.5966  0.7699
  919lim     li 7669   0.354   0.014   2.847 -0.5550  1.6047  0.4402
  920lim     li 7670   5.034   4.127   4.133 -0.3005  0.7155  0.8275
  921lim     li 7671   5.424   6.488   1.905 -0.2626 -0.1726  0.1126
  922lim     li 7672   1.189   1.069   0.819  1.2010 -0.2363  0.3160
  923lim     li 7673   2.191   0.242   3.298 -0.1466 -0.0195 -0.2253
  924lim     li 7674   1.663   4.875   2.416 -0.8254  0.2251  0.0896
  925lim     li 7675   1.353   5.550   0.339  0.6743 -0.7053  0.1667
  926lim     li 7676   3.347   1.982   0.128 -1.1738 -0.2814  1.6962
  927lim     li 7677   1.419   4.929   1.444  0.3198  0.1794  0.5873
  928lim     li 7678   5.923   6.261   1.012  1.0712  0.2987 -0.4427
  929lim     li 7679   1.321   2.595   5.082  0.1830 -0.0216  0.9771
  930lim     li 7680   4.018   2.221   2.362  0.3852 -0.6531  0.0539
  931lim     li 7681   0.094   3.191   4.722  0.4146  0.7854 -0.3735
  932lim     li 7682   4.499   5.859   5.880 -1.1533  0.3122  0.4173
  933lim     li 7683   5.664   5.190   6.346 -0.1381  0.8582 -0.0644
  934lim     li 7684   5.730   0.697   2.190  0.1047  0.5931  0.3923
  935lim     li 7685   4.161   1.902   5.544 -0.1042 -0.8649 -0.2848
  936lim     li 7686   3.457   3.004   3.841 -0.2989  0.2650  0.5115
  937lim     li 7687   1.872   6.308   4.151 -0.7443  1.0502  0.3304
  938lim     li 7688   0.968   5.970   3.821  0.3754  0.0588  1.7516
  939lim     li 7689   0.993   3.485   4.894  0.6917 -0.2925  0.8833
  940lim     li 7690   5.726   1.371   2.657  0.5433  0.3602  0.2286
  941lim     li 7691   5.418   1.307   4.468 -0.0311  0.6850  0.4817
  942lim     li 7692   0.338   3.983   2.511 -0.4872 -0.3107  0.8312
  943lim     li 7693   5.823   1.925   6.618  0.7751  0.6721  0.5174
  944lim     li 7694   1.136   6.399   3.201  0.2624  0.0848  0.3109
  945lim     li 7695   0.383   3.609   4.971  0.2124 -0.3426 -0.3468
  946lim     li 7696   5.375   6.183   4.271  1.4083  0.0839 -0.4184
  947lim     li 7697   4.065   1.756   0.462  1.3004 -0.0972  0.7948
  948lim     li 7698   5.184   5.621   0.586  0.5648 -0.1214  0.6673
  949lim     li 7699   1.840   4.658   5.629 -0.0674 -0.4400 -0.7783
  950lim     li 7700   0.784   3.674   3.051 -0.4275 -0.2394  0.4806
  951lim     li 7701   4.522   1.653   1.235  0.0431 -0.3942 -0.8487
  952lim     li 7702   2.210   4.939   3.985  0.2922  0.1553  0.1202
  953lim     li 7703   5.202   2.063   0.742 -0.3676 -0.4458 -1.4533
  954lim     li 7704   0.221   0.066   2.036 -0.0796 -0.1261 -0.6726
  955lim     li 7705   2.359   3.492   2.332  1.2754 -0.3291 -0.8849
  956lim     li 7706   4.036   0.958   0.175  0.4471  0.3802 -0.1415
  957lim     li 7707   6.532   0.121   5.438 -0.5340 -1.0225  1.1498
  958lim     li 7708   4.470   3.107   5.575 -0.7541 -1.0816 -0.0052
  959lim     li 7709   2.209   2.105   6.693  0.5371  0.0894  0.4226
  960lim     li 7710   3.744   6.811   0.325 -1.4915 -1.3365  0.1316
  961lim     li 7711   6.212   3.516   0.374 -0.3032  0.1649  0.1235
  962lim     li 7712   4.284   5.938   4.830  0.9033  0.0643 -0.4241
  963lim     li 7713   5.417   1.557   0.516  0.4002  0.3095  1.1893
  964lim     li 7714   2.172   2.478   3.520 -0.0039  0.7014  0.0008
  965lim     li 7715   4.900   4.182   6.633  1.4976 -0.4030  0.0505
  966lim     li 7716   1.374   0.505   5.970 -0.6110 -1.3343 -0.0546
  967lim     li 7717   2.257   2.664   4.431 -0.0926  0.2280 -0.1133
  968lim     li 7718   3.888   1.969   1.357 -0.8191  1.7561  0.0908
  969lim     li 7719   4.707   0.379   6.003  0.9331  1.2745  0.2522
  970lim     li 7720   1.593   5.694   3.376 -0.1080 -0.1534  0.4656
  971lim     li 7721   5.821   1.386   5.449  0.6892 -0.3873  0.4129
  972lim     li 7722   4.985   2.872   3.742  0.2978  0.2234 -0.2131
  973lim     li 7723   6.703   2.728   6.697  0.3631  0.5414 -0.5231
  974lim     li 7724   3.831   6.487   2.284  0.8274  0.1678 -0.1069
  975lim     li 7725   2.575   2.697   2.861 -0.6562 -0.0840  0.4198
  976lim     li 7726   5.596   2.480   4.327  0.1315 -0.2156  0.2382
  977lim     li 7727   1.141   4.307   2.580 -0.0172 -0.0127 -0.2704
  978lim     li 7728   4.071   4.451   4.848  0.2230 -0.0533 -1.1300
  979lim     li 7729   6.138   0.115   3.423  0.7335 -0.7749  0.5090
  980lim     li 7730   3.049   0.324   0.264 -0.5864  0.2853  0.3568
  981lim     li 7731   3.360   6.409   3.218  0.2369  0.2902 -0.3912
  982lim     li 7732   6.445   0.566   0.087 -0.9041 -1.2800  0.2825
  983lim     li 7733   5.146   0.053   5.178  1.6837 -1.2657 -0.2208
  984lim     li 7734   4.306   0.978   5.718 -0.3286  0.1611  0.8805
  985lim     li 7735   5.363   4.303   1.551  0.5085 -0.7584  0.2556
  986lim     li 7736   2.678   0.449   4.412  0.1467  0.2360 -0.2092
  987lim     li 7737   5.108   1.648   5.409 -0.6160  0.4757  0.5502
  988lim     li 7738   6.732   1.917   1.258  0.2871  0.2090  0.4930
  989lim     li 7739   3.315   4.033   6.632  0.6216 -0.0200  0.2443
  990lim     li 7740   4.459   3.302   0.530 -0.4728  0.0314  0.1876
  991lim     li 7741   1.424   2.108   3.818 -0.4976  0.1609  1.5828
  992lim     li 7742   1.557   5.886   5.407  0.2763 -0.2183  0.9719
  993lim     li 7743   0.211   3.675   4.059 -0.7081  0.1140 -0.4635
  994lim     li 7744   2.314   3.405   0.984 -0.0082  0.8013  0.3457
  995lim     li 7745   3.660   3.750   4.225  0.0228 -0.4544  0.2151
  996lim     li 7746   0.965   6.688   6.498  0.2408  0.5334 -0.3354
  997lim     li 7747   1.315   0.326   4.989  0.3868  1.1520  0.6045
  998lim     li 7748   2.106   5.296   6.669 -0.8833 -0.0285 -0.4068
  999lim     li 7749   0.306   5.826   5.827  0.3909  1.1110  1.0249
 1000lim     li 7750   2.571   3.878   0.195 -0.0343 -1.0612  0.3241
 1001lim     li 7751   1.260   2.912   0.869  0.5374  0.4275 -0.6185
 1002lim     li 7752   4.862   1.469   4.034 -0.5903  0.6856  0.6876
 1003lim     li 7753   3.804   1.937   4.877  0.1350 -1.0060  0.3383
 1004lim     li 7754   4.279   1.484   1.951  0.5311 -0.6147  0.1902
 1005lim     li 7755   0.120   1.103   1.135 -0.0624 -0.6087  0.9701
 1006lim     li 7756   4.155   1.102   3.778  0.2706  0.2164  0.0687
 1007lim     li 7757   6.256   4.748   0.201  0.8942 -0.2242  1.1596
 1008lim     li 7758   0.338   5.813   2.752  0.9439  0.5055  0.0472
 1009lim     li 7759   0.155   5.923   3.665 -0.7317 -0.4824 -0.5541
 1010lim     li 7760   5.722   3.299   6.390  0.0754 -0.3869 -0.2959
 1011lim     li 7761   5.634   5.799   5.302 -1.0748  1.4958  0.3527
 1012lim     li 7762   6.288   1.839   3.537  0.6357  0.3085 -1.0808
 1013lim     li 7763   3.182   2.421   3.121  1.2961  0.1972  0.7741
 1014lim     li 7764   5.181   0.106   1.293  0.2088  0.1508  0.7437
 1015lim     li 7765   1.208   0.011   1.329  0.0100 -0.0929  0.3158
 1016lim     li 7766   3.117   1.300   2.171  0.6952 -1.1102  1.0096
 1017lim     li 7767   4.431   6.242   6.447  0.5317  0.2928 -0.5704
 1018lim     li 7768   1.359   2.357   1.643  0.0341 -0.0588  0.0251
 1019lim     li 7769   2.801   3.461   4.445  0.3875 -0.7855  0.8722
 1020lim     li 7770   3.260   4.475   4.762 -0.3452  0.7444 -1.2762
 1021lim     li 7771   5.013   1.417   2.013  1.0016  0.0597 -0.0482
 1022lim     li 7772   4.331   4.695   5.798 -0.1605 -0.6570  0.8325
 1023lim     li 7773   6.332   5.686   5.448 -0.3659  0.3784 -0.6614
 1024lim     li 7774   1.628   2.626   6.360  0.4317 -0.5173  0.3194
 1025lim     li 7775   0.417   4.266   3.280 -0.7485 -0.0771  0.3543
 1026lim     li 7776   4.425   6.386   2.910 -0.3474 -0.1124  0.1166
 1027lim     li 7777   4.220   6.473   1.514  0.4079 -1.6666  0.2026
 1028lim     li 7778   4.380   6.443   0.663 -0.1566  0.1935  0.1759
 1029lim     li 7779   6.246   6.413   1.834  0.1640  0.8535  0.5679
 1030lim     li 7780   6.772   4.287   3.935 -0.4420  0.3524 -0.4111
 1031lim     li 7781   0.549   2.455   0.726 -0.5246 -0.9581 -0.2816
 1032lim     li 7782   0.001   0.345   4.611  0.0030  0.7690  0.2238
 1033lim     li 7783   4.594   6.783   4.360  0.7625  0.5414 -0.7242
 1034lim     li 7784   5.979   1.516   0.038  0.5981  1.4194  0.9865
 1035lim     li 7785   0.461   2.192   5.536  0.3619 -0.5115 -0.4555
 1036lim     li 7786   4.968   5.391   6.754  0.6754 -0.5302 -0.2685
 1037lim     li 7787   1.325   3.885   6.493  0.2229  0.2400  0.2011
 1038lim     li 7788   3.576   2.721   0.793  0.1420  1.1843 -0.1468
 1039lim     li 7789   5.917   2.114   6.040 -0.4016 -0.5538 -0.6584
 1040lim     li 7790   3.311   6.134   1.772 -0.0465 -0.4935 -0.6007
 1041lim     li 7791   0.457   6.230   0.806  0.6927  0.4254  1.1036
 1042lim     li 7792   1.639   2.839   2.819 -0.3214 -0.7306 -0.1422
 1043lim     li 7793   2.825   4.681   6.380 -1.2778 -0.5358  0.6591
 1044lim     li 7794   3.303   6.583   6.440  0.7205  0.4603  0.2672
 1045lim     li 7795   0.237   6.242   6.611  0.0116  0.1496 -0.0876
 1046lim     li 7796   2.791   2.418   5.201  2.0523  1.0189  0.7932
 1047lim     li 7797   2.763   2.991   0.357  0.5569 -0.3387 -0.1297
 1048lim     li 7798   2.052   1.791   5.415 -0.0833  0.3078  0.3275
 1049lim     li 7799   4.223   0.219   3.202 -0.9566 -0.4419 -0.5464
 1050lim     li 7800   2.265   3.867   1.394  1.2082  0.3840 -0.2295
 1051lim     li 7801   3.265   6.024   5.781 -0.5695  0.8388 -1.6810
 1052lim     li 7802   0.959   0.102   3.505  1.2546 -0.1070 -0.1749
 1053lim     li 7803   1.213   3.541   1.450 -0.6773 -0.0960  0.9236
 1054lim     li 7804   2.228   3.908   5.910  0.7032  0.2713 -0.7383
 1055lim     li 7805   3.830   1.929   3.745 -0.8647  0.2540  1.1719
 1056lim     li 7806   0.721   6.814   4.685 -1.1634  0.4731  0.5951
 1057lim     li 7807   5.674   0.754   3.633  0.2733 -0.6224  0.5781
 1058lim     li 7808   3.070   4.570   4.077  0.3852 -0.7912 -0.3032
 1059lim     li 7809   1.677   0.954   2.762  0.5062  0.8417  1.1812
 1060lim     li 7810   0.692   4.972   5.958  0.0213  0.1450  0.9042
 1061lim     li 7811   0.492   2.351   6.819 -0.1151  0.2199  0.0030
 1062lim     li 7812   5.536   2.692   0.211  0.4158  0.3376 -0.2491
 1063lim     li 7813   4.998   4.389   3.221 -0.0346 -1.9510  1.1434
 1064lim     li 7814   0.716   1.798   1.444 -0.6515  0.8126  0.2486
 1065lim     li 7815   4.186   5.609   6.822  0.1924 -0.1899  0.6216
 1066lim     li 7816   2.626   3.114   3.695  0.2311 -0.4111  0.0374
 1067lim     li 7817   6.617   5.141   3.991  0.3078  0.0679 -0.2288
 1068lim     li 7818   3.903   5.065   2.243 -0.0483 -0.3099 -0.0741
 1069lim     li 7819   3.279   0.868   6.446  0.5406 -0.3592  1.1005
 1070lim     li 7820   6.150   4.321   1.017  0.7341 -0.1277  0.3430
 1071lim     li 7821   6.424   0.969   1.259  1.0418 -0.3419 -0.3221
 1072lim     li 7822   6.331   0.784   5.278 -0.4376 -0.5130  0.4018
 1073lim     li 7823   0.985   6.311   5.780  0.3220 -1.0882 -0.0460
 1074lim     li 7824   2.064   5.835   4.351  0.5426 -0.6173  0.8705
 1075lim     li 7825   1.863   1.446   3.261 -0.0534  1.3256  0.1942
 1076lim     li 7826   0.994   2.582   2.460 -0.8199  0.1454 -0.1178
 1077lim     li 7827   4.866   0.174   0.099  0.8139  0.3872  0.3246
 1078lim     li 7828   3.672   4.130   0.834  0.1618  0.0787  0.9637
 1079lim     li 7829   4.716   4.154   5.411 -0.1961 -0.2705 -0.0946
 1080lim     li 7830   4.711   3.517   6.663 -1.2552  0.0052  0.2641
 1081lim     li 7831   0.081   0.781   2.463 -0.5359 -0.4053  0.7329
 1082lim     li 7832   2.918   3.474   3.044  0.2645 -0.4385  0.7795
 1083lim     li 7833   3.058   6.530   5.066  1.6036 -1.7851 -0.8631
 1084lim     li 7834   2.479   4.474   3.037 -0.0091  0.5433  1.1367
 1085lim     li 7835   3.499   0.439   6.138  0.7752 -0.3359 -1.1809
 1086lim     li 7836   2.345   1.787   2.307  0.3058  0.0127 -1.1785
 1087lim     li 7837   5.450   6.223   6.769 -0.4170  1.9666  0.1648
 1088lim     li 7838   4.741   3.730   1.238  1.3272  0.4577  1.6505
 1089lim     li 7839   6.162   6.676   2.592 -0.0657  0.1388  1.4963
 1090lim     li 7840   5.431   0.540   6.799  0.7946 -0.6915  0.1890
 1091lim     li 7841   1.286   3.177   0.046  0.1334 -1.3824 -0.1421
 1092lim     li 7842   2.465   0.050   1.867 -0.2373  1.1339 -0.5739
 1093lim     li 7843   3.234   1.055   3.373  0.2800 -1.2149  0.4028
 1094lim     li 7844   4.620   5.862   3.962 -1.0351  0.4136  0.6554
 1095lim     li 7845   0.260   2.096   6.224  0.2590  0.4588  0.0847
 1096lim     li 7846   4.499   4.789   4.595  1.1768 -0.0431 -0.1662
 1097lim     li 7847   3.272   5.461   0.616 -0.1214 -0.3742 -0.6942
 1098lim     li 7848   6.619   6.834   1.081  0.4130 -0.9022  1.2315
 1099lim     li 7849   3.562   3.224   2.205 -0.4351  0.4733 -0.8680
 1100lim     li 7850   5.452   3.708   5.913 -1.1066  0.5816 -1.0715
 1101lim     li 7851   1.792   0.122   0.015 -0.1805 -0.4685 -1.0136
 1102lim     li 7852   3.192   5.581   2.877  0.8139  0.6223 -0.6846
 1103lim     li 7853   5.144   5.291   5.888 -0.0962  0.5399 -0.4829
 1104lim     li 7854   1.250   2.620   3.162 -1.4414  0.5388 -0.0864
 1105lim     li 7855   3.495   3.251   6.758  0.0059 -0.7793  0.4556
 1106lim     li 7856   4.325   5.297   3.351  0.0028  0.6868  0.0083
 1107lim     li 7857   0.487   5.179   3.478  0.8214  0.0181 -0.4280
 1108lim     li 7858   0.896   1.038   3.033 -0.7760  0.1974  0.9852
 1109lim     li 7859   4.453   2.377   3.192  0.6060 -0.5307  0.0880
 1110lim     li 7860   1.066   2.001   6.713  0.3139 -0.1899  2.4346
 1111lim     li 7861   2.800   5.148   2.200 -0.1464  0.4048 -0.2309
 1112lim     li 7862   6.063   6.790   4.415  0.2448 -0.1686  0.1484
 1113lim     li 7863   3.995   2.971   6.640  0.1434 -0.4069 -0.6524
 1114lim     li 7864   0.567   2.117   3.276 -1.1506 -2.2681  0.2626
 1115lim     li 7865   6.824   1.468   3.224 -0.3022 -0.2234 -0.6316
 1116lim     li 7866   2.434   6.254   2.265  0.4375  0.3077 -0.3042
 1117lim     li 7867   2.079   5.235   0.810 -1.1448 -0.5775  0.5276
 1118lim     li 7868   3.466   1.039   0.718  0.4031 -0.1085  0.1800
 1119lim     li 7869   3.727   5.557   4.138 -0.6085  0.3145  1.1496
 1120lim     li 7870   4.055   1.386   6.340  0.2774  0.4665  0.7147
 1121lim     li 7871   4.607   3.674   3.586 -0.2354  0.4942 -0.1815
 1122lim     li 7872   4.450   1.295   3.089  0.1157  0.3219 -0.2945
 1123lim     li 7873   0.488   5.576   6.807  0.8025  0.3819 -0.3111
 1124lim     li 7874   6.633   6.160   4.910  0.1128 -1.2437 -0.4999
 1125lim     li 7875   6.704   1.218   4.739 -0.2510  0.1422 -0.6685
 1126lim     li 7876   1.162   5.305   5.540  0.8011  1.0236 -0.5162
 1127lim     li 7877   0.614   3.812   6.006  0.5609 -0.1969  0.7475
 1128lim     li 7878   1.569   1.466   1.454  0.7785  0.1578 -0.3360
 1129lim     li 7879   0.410   5.843   4.411  0.2458 -0.6793  0.4458
 1130lim     li 7880   3.488   6.233   4.820  0.3164 -0.4160  0.3154
 1131lim     li 7881   2.934   1.964   5.924  0.3146 -0.1569 -0.3911
 1132lim     li 7882   0.835   6.278   2.339 -0.2488 -0.0576 -0.6757
 1133lim     li 7883   2.896   0.840   1.753 -0.1451  0.5638  0.0544
 1134lim     li 7884   2.200   0.816   3.771 -0.5889 -0.2040 -0.6409
 1135lim     li 7885   3.070   5.389   3.670  0.1157  0.5435  0.9398
 1136lim     li 7886   5.269   5.303   4.795  0.4642  0.0650 -0.5652
 1137lim     li 7887   1.662   3.958   0.557 -0.4385 -0.5102 -0.4270
 1138lim     li 7888   5.076   5.969   3.699  1.7010 -0.4085  0.7280
 1139lim     li 7889   1.340   4.759   3.245  0.4044  0.1894 -0.6811
 1140lim     li 7890   0.117   3.477   0.092 -0.1479 -0.4118 -0.0311
 1141lim     li 7891   0.743   4.986   1.541 -0.3044 -0.4658  0.1011
 1142lim     li 7892   2.676   6.400   3.898 -0.6807 -1.0003  0.1280
 1143lim     li 7893   2.129   4.595   1.058  0.0329 -0.6750  1.3547
 1144lim     li 7894   0.953   3.630   1.026 -0.5954  0.1686  0.3783
 1145lim     li 7895   0.297   1.526   0.416 -1.7055  0.1293 -0.8212
 1146lim     li 7896   0.060   4.590   1.268  0.6306  0.1289 -0.6300
 1147lim     li 7897   1.580   6.667   5.639 -0.9856  1.3928 -0.4438
 1148lim     li 7898   5.924   2.763   1.285 -0.3343  1.0587  0.0990
 1149lim     li 7899   6.186   4.631   5.403 -0.4602 -0.8200  0.5352
 1150lim     li 7900   2.949   5.210   1.441 -1.1293 -0.2369 -0.7457
 1151lim     li 7901   5.882   5.106   4.444 -0.6789  0.0631  0.7929
 1152lim     li 7902   5.826   4.385   6.442  0.1973 -1.8133  0.1644
 1153lim     li 7903   1.703   2.303   2.141 -0.1744  0.1276 -0.0737
 1154lim     li 7904   6.277   6.128   3.256 -0.1032  0.4861  0.0895
 1155lim     li 7905   1.132   1.481   0.242 -0.8969 -0.5338 -0.2619
 1156lim     li 7906   6.603   5.365   2.378 -0.6209 -0.0171  0.3711
 1157lim     li 7907   3.620   5.123   3.092  0.4341  0.1828 -0.1034
 1158lim     li 7908   0.537   3.242   3.512 -0.8758  0.0032 -0.1043
 1159lim     li 7909   5.748   4.512   2.260 -0.9709 -0.4628 -0.5070
 1160lim     li 7910   4.373   6.625   5.256  1.2657  0.2630  0.4379
 1161lim     li 7911   6.009   1.119   6.336  0.5055  0.8017 -0.3324
 1162lim     li 7912   0.109   2.727   3.256  0.7825  0.2639 -0.6042
 1163lim     li 7913   2.482   1.642   3.204  0.1231  0.9879  1.0153
 1164lim     li 7914   0.161   1.017   6.200  0.0095  0.8545 -0.8058
 1165lim     li 7915   4.205   6.186   3.659 -0.8967 -0.6468 -0.5279
 1166lim     li 7916   5.810   2.498   5.503  0.1122 -0.2225 -0.3019
 1167lim     li 7917   1.492   5.231   4.173  0.0201 -0.2550 -0.6319
 1168lim     li 7918   3.042   3.794   2.180  0.4083 -0.5421  0.7788
 1169lim     li 7919   2.597   4.873   4.614 -0.5328 -0.1815  1.0904
 1170lim     li 7920   5.233   2.132   3.039 -0.0302  0.5580  0.1116
 1171lim     li 7921   6.049   6.431   5.708  0.7062  0.5329  0.3540
 1172lim     li 7922   3.005   1.483   5.242  0.1318  0.6776 -0.3724
 1173lim     li 7923   2.172   1.533   6.083 -0.2096 -1.0708 -0.6962
 1174lim     li 7924   5.281   6.410   5.863 -0.4512 -0.1453 -0.4355
 1175lim     li 7925   4.104   5.192   5.505 -0.0297  0.4346  0.2247
 1176lim     li 7926   3.492   3.982   3.373  0.0091 -1.1706 -1.1076
 1177lim     li 7927   1.994   2.946   5.054 -0.4270  0.0877  0.7886
 1178lim     li 7928   0.783   4.094   0.408  0.4583  0.3212  0.6471
 1179lim     li 7929   5.073   4.941   1.274 -0.0583 -1.1270 -0.0971
 1180lim     li 7930   1.019   4.789   0.785 -0.5558  1.2853  0.1293
 1181lim     li 7931   3.586   6.145   0.711  0.4758 -0.5288 -1.3013
 1182lim     li 7932   0.107   1.481   2.187  1.4599  0.9046 -0.6674
 1183lim     li 7933   6.782   6.679   0.223  1.0050  0.4759 -0.3446
 1184lim     li 7934   5.421   0.878   1.558 -0.5516  0.8147  0.4839
 1185lim     li 7935   2.549   4.554   2.076 -0.7696 -0.2483  0.3374
 1186lim     li 7936   6.529   2.112   2.616 -0.1444  0.7089  0.2879
 1187lim     li 7937   5.379   0.843   5.679 -0.5062  0.3913 -0.6999
 1188lim     li 7938   1.057   5.229   2.666 -0.3699 -0.0481  0.6698
 1189lim     li 7939   2.238   1.498   0.527  0.4483  0.6342  0.1721
 1190lim     li 7940   1.969   3.065   6.802  0.5631 -0.1938  0.6215
 1191lim     li 7941   0.332   3.168   5.450  0.9413  0.2769  0.3459
 1192lim     li 7942   6.284   4.148   4.810 -0.2142 -0.6436 -0.1410
 1193lim     li 7943   5.498   3.618   1.343  0.3699  0.0600 -0.1345
 1194lim     li 7944   2.159   6.614   4.993 -1.9653  1.1870  1.0649
 1195lim     li 7945   3.303   2.572   6.026  0.7160  0.2081 -0.8470
 1196lim     li 7946   6.041   5.841   2.607  0.6133 -0.4144 -0.4003
 1197lim     li 7947   2.184   1.591   1.437 -0.0501  0.1797  0.1357
 1198lim     li 7948   1.343   0.268   2.932 -1.6358  0.6349 -0.0553
 1199lim     li 7949   2.131   4.472   6.643 -0.9514 -0.4843  0.8850
 1200lim     li 7950   5.881   5.205   2.074 -0.4130 -1.0485  0.1003
 1201lim     li 7951   4.837   1.074   4.954  0.8185  0.3444 -0.3150
 1202lim     li 7952   2.078   5.598   1.792  1.4550 -1.9791 -0.3269
 1203lim     li 7953   0.449   0.435   0.694 -0.3962  0.0901 -0.5341
 1204lim     li 7954   6.510   4.457   1.760  0.4256  0.5741 -0.4480
 1205lim     li 7955   1.846   3.100   1.913  0.0168  0.6704 -0.3142
 1206lim     li 7956   4.959   0.490   3.154  0.2594  0.3747 -0.3040
 1207lim     li 7957   1.096   6.651   0.592  0.8588 -0.0128 -0.7723
 1208lim     li 7958   6.478   3.708   3.469 -0.2366  0.9769  0.5510
 1209lim     li 7959   0.616   2.357   4.964 -0.5314 -0.2474  0.2939
 1210lim     li 7960   1.410   1.939   0.816 -0.3351  0.6090  0.5344
 1211lim     li 7961   6.361   5.736   6.468  0.0784 -0.6360  0.5778
 1212lim     li 7962   5.670   0.240   6.147  0.1693 -0.6597  0.0500
 1213lim     li 7963   6.277   1.995   0.854 -0.2219  0.1239  0.0234
 1214lim     li 7964   3.537   3.156   2.872  0.1627 -0.3916  0.9883
 1215lim     li 7965   5.721   4.091   4.429 -0.1785 -1.1309 -0.0096
 1216lim     li 7966   1.055   2.603   3.878 -0.8292  0.3697 -0.7059
 1217lim     li 7967   6.290   2.884   3.886 -0.5659 -0.1947  0.0320
 1218lim     li 7968   3.599   1.446   5.721 -0.0250  0.1739  0.5560
 1219lim     li 7969   1.735   4.951   5.054  1.0449  0.0528  0.2650
 1220lim     li 7970   4.274   4.386   1.706 -0.2295  0.5444 -0.4580
 1221lim     li 7971   5.086   2.690   1.052  0.6045 -0.3047 -1.2384
 1222lim     li 7972   0.160   4.320   0.383 -0.5633  0.2218 -0.0977
 1223lim     li 7973   5.377   4.750   5.559  0.2174 -0.2242 -0.4542
 1224lim     li 7974   4.968   1.826   6.210  1.7602  0.5246 -0.0799
 1225lim     li 7975   5.722   5.430   1.386  0.6659  0.8954 -0.1284
 1226lim     li 7976   5.591   0.135   4.908 -0.0552 -0.7026  0.6471
 1227lim     li 7977   4.265   1.290   4.521  0.1441 -0.3358 -0.0278
 1228lim     li 7978   6.723   2.166   4.839 -0.6855 -1.2669  0.7192
 1229lim     li 7979   6.130   2.868   4.940 -0.5436 -0.1755  0.6847
 1230lim     li 7980   3.065   4.609   1.403 -0.1503 -0.4627 -0.0052
 1231lim     li 7981   3.033   5.925   0.103  0.3231  1.4678  0.9537
 1232lim     li 7982   1.251   1.247   6.281 -0.4214  0.5563 -0.2090
 1233lim     li 7983   2.604   0.175   5.811 -0.1873 -0.6372 -0.5182
 1234lim     li 7984   2.838   5.990   2.782 -0.0264  0.3679 -0.5532
 1235lim     li 7985   3.781   3.196   5.870 -0.3372  0.0267 -0.1320
 1236lim     li 7986   5.617   2.690   2.658  0.5169  0.5910  0.2399
 1237lim     li 7987   6.410   2.319   5.380  0.4843  0.3664  1.0493
 1238lim     li 7988   0.685   6.448   1.530  0.1195  0.4335 -1.2697
 1239lim     li 7989   1.858   0.411   0.978  0.0129 -0.5429  0.4341
 1240lim     li 7990   1.688   4.059   5.082  0.4929  1.0205 -0.4653
 1241lim     li 7991   3.807   0.853   2.564  0.1135  0.8438 -0.1010
 1242lim     li 7992   6.052   6.658   0.011 -0.3163  0.3234 -1.1148
 1243lim     li 7993   0.661   3.295   2.047  0.3738  0.3645 -0.4634
 1244lim     li 7994   1.614   3.683   2.550 -0.3208  0.6170  0.1016
 1245lim     li 7995   6.039   1.154   2.962  0.4362 -0.0737  0.2005
 1246lim     li 7996   0.838   4.322   5.037 -0.8381  0.1798 -0.6966
 1247lim     li 7997   3.752   0.729   4.822  0.1191  0.0696  0.3459
 1248lim     li 7998   0.973   4.339   5.712 -0.6742  1.2416  0.1271
 1249lim     li 7999   3.785   0.447   1.803  0.9016 -0.9945  0.6205
 1250lim     li 8000   0.822   0.392   2.287 -0.2190  0.4520  0.0714
 1251lim     li 8001   4.116   3.893   6.132  0.2813  1.9143 -0.2501
 1252lim     li 8002   6.255   2.856   0.474  0.0248 -0.3651 -0.0503
 1253lim     li 8003   0.469   5.629   1.851 -0.3056  0.3054  0.6081
 1254lim     li 8004   2.719   5.674   4.430  0.4391  0.2445 -0.5359
 1255lim     li 8005   0.693   4.091   1.757 -0.1022  0.2415 -0.4410
 1256lim     li 8006   2.361   5.393   3.098 -0.3463 -0.2969 -1.5206
 1257lim     li 8007   1.676   3.445   5.765  0.0040 -0.8932 -0.3368
 1258lim     li 8008   4.747   3.256   4.554  0.6561 -0.7941 -0.0971
 1259lim     li 8009   0.673   5.493   0.984  0.0659 -1.2658 -0.0468
 1260lim     li 8010   3.098   6.792   2.305  1.0489 -0.5302 -0.6117
 1261lim     li 8011   0.179   2.000   4.107 -0.9400 -0.4591 -0.2363
 1262lim     li 8012   3.312   2.399   1.752  0.7955 -0.1141  0.2593
 1263lim     li 8013   5.048   0.672   4.271 -0.1791  0.0735 -0.0037
 1264lim     li 8014   1.567   4.249   1.821 -0.2628  0.4433  0.1542
 1265lim     li 8015   3.993   6.064   2.782  1.1124 -1.1324  0.1523
 1266lim     li 8016   3.762   3.961   1.904  0.8916  0.7044 -0.0669
 1267lim     li 8017   4.928   5.963   5.010  0.4986  0.2889 -0.5866
 1268lim     li 8018   4.270   5.827   2.093 -0.4829  0.9077 -0.3443
 1269lim     li 8019   6.220   2.183   1.867  0.8682  0.6387  1.5857
 1270lim     li 8020   0.325   6.639   5.652  1.6764 -0.1767 -0.3441
 1271lim     li 8021   6.588   5.154   6.194  0.3031  0.3738 -0.0375
 1272lim     li 8022   5.405   3.245   3.369  0.5507  0.6951  0.6296
 1273lim     li 8023   5.444   3.891   2.954  0.6120  1.6877  0.4500
 1274lim     li 8024   6.716   0.608   3.526  0.0445 -0.1873 -0.3449
 1275lim     li 8025   3.294   0.219   3.831  0.5766 -0.2143  0.1386
 1276lim     li 8026   3.507   5.529   1.628 -0.3523 -0.2683  1.0544
 1277lim     li 8027   4.806   5.044   4.040 -0.4497  0.2660 -0.0526
 1278lim     li 8028   0.153   3.395   0.627  0.3178 -0.2556  0.4158
 1279lim     li 8029   3.366   5.463   5.506 -0.3731 -0.1168 -1.0040
 1280lim     li 8030   5.532   4.710   3.527  0.0617  0.5722 -0.5167
 1281lim     li 8031   6.373   0.266   1.742  0.0722  0.0961  0.1324
 1282lim     li 8032   6.011   5.710   3.989  0.1318  0.3329  0.7083
 1283lim     li 8033   1.949   5.645   2.497 -0.3325 -0.0965 -0.5443
 1284lim     li 8034   3.598   1.495   2.814  0.6151 -0.4303 -0.3119
 1285lim     li 8035   4.296   2.651   4.702  0.8260 -0.5460  0.0644
 1286lim     li 8036   6.812   6.655   3.454  1.2233 -0.4784 -0.5769
 1287lim     li 8037   4.675   2.221   2.186 -0.2082  0.4829  0.2292
 1288lim     li 8038   2.228   2.379   1.351  0.2774 -0.3955 -0.8561
 1289lim     li 8039   6.770   3.585   1.344  0.4253 -0.5700 -0.8124
 1290lim     li 8040   3.096   3.390   1.295  0.5084 -0.5011 -0.3142
 1291lim     li 8041   1.013   0.776   1.580 -0.2877  0.7321  0.7270
 1292lim     li 8042   4.854   1.192   0.231 -0.5988 -0.2815 -1.0011
 1293lim     li 8043   4.275   2.134   6.463 -0.2424 -0.5489  0.4535
 1294lim     li 8044   3.759   6.660   4.039 -0.0896  0.6250 -0.0338
 1295lim     li 8045   6.565   5.194   4.795  0.5719  0.2524  0.3600
 1296lim     li 8046   6.376   3.659   5.605  0.0828  0.4518  0.3285
 1297lim     li 8047   4.781   2.023   4.757  0.8786 -0.7408 -0.3404
 1298lim     li 8048   6.017   5.962   4.686 -1.3131  0.0125 -0.3716
 1299lim     li 8049   3.191   1.599   1.069  0.1244 -0.2061  0.0219
 1300lim     li 8050   6.708   5.751   1.711  0.3141  0.1375  0.3464
 1301lim     li 8051   3.637   5.667   6.304 -0.4631 -0.0701 -0.0526
 1302lim     li 8052   1.652   6.054   6.732  0.1151  1.7247 -0.3216
 1303lim     li 8053   1.693   0.259   6.039 -0.2433  0.2123 -0.7923
 1304lim     li 8054   2.546   6.457   6.148  0.4055  0.8441 -0.7777
 1305lim     li 8055   5.416   3.418   4.222  0.2780 -1.2360 -0.2053
 1306lim     li 8056   0.368   1.427   3.755  0.0850  0.2951 -0.0592
 1307lim     li 8057   6.664   5.172   3.147  0.2473 -0.5252 -0.4735
 1308lim     li 8058   6.066   4.361   3.559  0.0052  1.3863  0.1849
 1309lim     li 8059   4.116   0.593   0.889 -0.5217  1.2732  0.0518
 1310lim     li 8060   4.191   2.766   3.948 -0.5262  0.3862  0.0510
 1311lim     li 8061   3.606   4.834   0.310  0.1066 -0.0296  1.0958
 1312lim     li 8062   0.946   0.997   4.750  0.1045 -0.4016 -0.7699
 1313lim     li 8063   0.008   5.072   6.778  0.5885 -0.2247  0.2964
 1314lim     li 8064   0.347   4.807   2.491  0.4605 -0.7730  0.2129
 1315lim     li 8065   3.873   6.625   5.751  0.2048 -0.9943  0.4067
 1316lim     li 8066   3.158   1.386   6.658  0.4761  0.1971  0.3056
 1317lim     li 8067   2.537   5.864   5.362 -0.3672 -0.2352  0.9382
 1318lim     li 8068   5.629   3.823   0.508  0.1408 -1.7193  1.2179
 1319lim     li 8069   0.533   3.147   6.348  0.8443 -1.0170  0.6741
 1320lim     li 8070   6.432   4.434   2.697 -1.3234  0.8166 -0.2370
 1321lim     li 8071   0.129   4.486   5.426 -0.5212  0.8906  0.0963
 1322lim     li 8072   4.311   4.405   3.384  0.4408  0.2577 -1.6349
 1323lim     li 8073   5.225   4.081   4.863  0.1762  0.8259  0.2415
 1324lim     li 8074   4.683   0.881   1.105  0.5809  1.0692  1.2060
 1325lim     li 8075   6.712   1.560   5.681 -0.1381 -0.6138  0.3827
 1326lim     li 8076   0.598   0.427   5.591 -0.4875 -0.0139 -1.2765
 1327lim     li 8077   1.316   0.675   0.229  0.1631  0.5773  0.3756
 1328lim     li 8078   3.274   1.979   2.462 -0.1798 -1.1733 -0.1600
 1329lim     li 8079   3.298   1.277   4.355 -0.2418 -0.7756  0.1212
 1330lim     li 8080   5.060   2.719   6.192 -0.8793 -0.2629  0.9051
 1331lim     li 8081   6.055   5.585   0.364 -0.2428 -0.2176 -0.2522
 1332lim     li 8082   5.351   5.032   2.654  0.2890  0.4279  1.1779
 1333lim     li 8083   1.825   0.274   4.018 -0.9628  0.0835 -0.1374
 1334lim     li 8084   2.577   0.049   0.428 -1.0828  0.3101  0.6436
 1335lim     li 8085   2.038   1.669   4.136 -0.2098  0.3395  0.9090
 1336lim     li 8086   4.217   3.346   1.733 -1.1786 -0.7847  0.7825
 1337lim     li 8087   1.286   1.272   3.834 -0.5021 -0.7425 -1.0249
 1338lim     li 8088   5.986   2.781   1.856  0.0514 -0.5563  0.3112
 1339lim     li 8089   4.138   3.568   3.010 -0.8594 -0.7709  1.1598
 1340lim     li 8090   0.752   4.670   3.899 -0.4833  0.5031  0.2778
 1341lim     li 8091   4.452   4.675   0.810 -0.2250  1.6461  0.5712
 1342lim     li 8092   2.677   2.820   1.868  0.4821 -0.4478  0.7676
 1343lim     li 8093   1.757   1.194   2.127 -0.3316 -0.4654  0.3794
 1344lim     li 8094   5.033   6.723   3.612  0.3200 -0.4851 -1.0535
 1345lim     li 8095   4.820   3.883   2.185 -0.9978  0.4438  0.3991
 1346lim     li 8096   1.332   4.856   6.476  0.3851 -1.1469  1.0429
 1347lim     li 8097   2.697   6.235   0.810 -0.0127  0.1985 -2.0008
 1348lim     li 8098   2.809   2.093   3.722  0.4817 -0.4469  0.0851
 1349lim     li 8099   3.251   4.623   2.651 -0.0652 -0.5455 -0.2124
 1350lim     li 8100   4.216   0.787   1.970 -0.8667  0.4800 -0.4669
 1351ntf    cn1 8101   5.919   6.430   6.348  0.2346 -0.0192  0.0722
 1351ntf    sn2 8102   5.988   6.583   6.417  0.1978  0.1769 -0.3256
 1351ntf    nn3 8103   5.856   6.637   6.483  0.3050 -0.5342  0.4774
 1351ntf    sn2 8104   5.802   6.613   6.629 -0.1807 -0.1837  0.3567
 1351ntf    cn1 8105   5.709   6.769   6.636 -0.0605 -0.0996  0.1070
 1351ntf    fn4 8106   5.821   6.461   6.265  0.2231 -0.7458 -0.1955
 1351ntf    fn4 8107   6.009   6.362   6.279  0.0163  0.4279 -0.6592
 1351ntf    fn4 8108   5.868   6.351   6.441 -0.0774 -0.1169 -0.1791
 1351ntf    on5 8109   6.082   6.526   6.510 -0.5797 -0.1699  0.2618
 1351ntf    on5 8110   6.040   6.652   6.302  0.4090  0.6538  0.0517
 1351ntf    on5 8111   5.894   6.622   6.740  0.0438  0.4985  0.1225
 1351ntf    on5 8112   5.692   6.521   6.641 -0.0367 -0.3360  0.4982
 1351ntf    fn4 8113   5.620   6.781   6.538 -0.1182 -0.4625  0.1143
 1351ntf    fn4 8114   5.645   6.775   6.752  0.4722  0.0296  0.3987
 1351ntf    fn4 8115   5.794   6.870   6.626 -0.4758  0.2319 -0.1096
 1352ntf    cn1 8116   2.247   2.889   2.346 -0.1313 -0.2260 -0.2211
 1352ntf    sn2 8117   2.217   3.043   2.254  0.0907 -0.2134 -0.2724
 1352ntf    nn3 8118   2.077   3.082   2.311  0.2983  0.8280 -0.4533
 1352ntf    sn2 8119   1.937   3.074   2.241  0.1884  0.1424 -0.1713
 1352ntf    cn1 8120   1.858   3.216   2.324  0.6194  0.1590  0.2125
 1352ntf    fn4 8121   2.214   2.784   2.273 -0.7070 -0.0654 -0.1977
 1352ntf    fn4 8122   2.371   2.878   2.391 -0.2298  0.0348  0.1197
 1352ntf    fn4 8123   2.176   2.883   2.458  0.1661 -0.2622 -0.0328
 1352ntf    on5 8124   2.318   3.139   2.292  0.0098 -0.4132  0.4582
 1352ntf    on5 8125   2.214   2.997   2.117 -0.2301 -0.4084 -0.1999
 1352ntf    on5 8126   1.855   2.965   2.288 -0.1739  0.3578 -0.2914
 1352ntf    on5 8127   1.925   3.119   2.104 -0.0045 -0.0833 -0.2286
 1352ntf    fn4 8128   1.835   3.196   2.453  0.4671  0.0038  0.1619
 1352ntf    fn4 8129   1.934   3.324   2.327  0.1762  0.5147 -0.7756
 1352ntf    fn4 8130   1.741   3.252   2.274  0.5266 -0.3746  0.0429
 1353ntf    cn1 8131   5.159   4.884   6.565 -0.1359 -0.1725  0.2772
 1353ntf    sn2 8132   5.023   4.868   6.445  0.1163 -0.2406 -0.0007
 1353ntf    nn3 8133   5.092   4.833   6.308  0.1635  0.8029 -0.2501
 1353ntf    sn2 8134   5.043   4.863   6.162  0.0657  0.4732 -0.2845
 1353ntf    cn1 8135   5.012   4.697   6.094  0.0726  0.4198 -0.1575
 1353ntf    fn4 8136   5.235   4.775   6.569  0.4175  0.1998  0.0774
 1353ntf    fn4 8137   5.248   4.977   6.536  0.4921 -0.6387  0.6554
 1353ntf    fn4 8138   5.120   4.912   6.688 -0.1072 -0.1301  0.2762
 1353ntf    on5 8139   4.959   4.754   6.505  0.0080 -0.1629  0.0316
 1353ntf    on5 8140   4.955   4.994   6.461  0.0428 -0.2325 -0.3676
 1353ntf    on5 8141   5.162   4.894   6.086  0.2290  0.0619 -0.2007
 1353ntf    on5 8142   4.919   4.929   6.133  0.1565  0.7043 -0.1466
 1353ntf    fn4 8143   4.911   4.699   6.008  0.2538  0.0597 -0.3807
 1353ntf    fn4 8144   5.118   4.643   6.038  0.3175  0.1976  0.5117
 1353ntf    fn4 8145   4.969   4.613   6.187  0.2968  0.0095 -0.4203
 1354ntf    cn1 8146   1.137   5.259   2.086  0.0207  0.0542  0.3392
 1354ntf    sn2 8147   1.177   5.375   1.951 -0.0811  0.0673  0.3203
 1354ntf    nn3 8148   1.332   5.356   1.936 -0.2196 -0.4850 -0.5020
 1354ntf    sn2 8149   1.455   5.431   2.000 -0.5026 -0.3188 -0.1475
 1354ntf    cn1 8150   1.587   5.370   1.891 -0.2692  0.0859 -0.0926
 1354ntf    fn4 8151   1.200   5.275   2.201  0.3310  0.5425  0.1072
 1354ntf    fn4 8152   1.010   5.271   2.120 -0.0010 -0.1127  0.3149
 1354ntf    fn4 8153   1.161   5.133   2.056  0.3138  0.1827  0.0302
 1354ntf    on5 8154   1.106   5.328   1.835  0.7383  0.0361 -0.1691
 1354ntf    on5 8155   1.146   5.502   2.011  0.4042  0.1341  0.4303
 1354ntf    on5 8156   1.500   5.386   2.129 -0.7245  0.5413  0.2356
 1354ntf    on5 8157   1.460   5.570   1.965 -0.3696 -0.0637  0.8582
 1354ntf    fn4 8158   1.706   5.422   1.916 -0.4700  0.5384 -0.0722
 1354ntf    fn4 8159   1.584   5.237   1.895 -0.4272  0.0942  0.0917
 1354ntf    fn4 8160   1.566   5.405   1.765  0.2391  0.0930 -0.1774
 1355ntf    cn1 8161   6.673   0.467   0.445  0.3571 -0.0659 -0.1834
 1355ntf    sn2 8162   6.697   0.623   0.354  0.3403 -0.0980 -0.2429
 1355ntf    nn3 8163   6.641   0.728   0.457  0.2063 -0.7235  0.3322
 1355ntf    sn2 8164   6.724   0.839   0.530 -0.2761  0.0042 -0.2172
 1355ntf    cn1 8165   6.753   0.939   0.381  0.0509  0.2379  0.0011
 1355ntf    fn4 8166   6.547   0.445   0.481  0.3605  0.2871  0.0600
 1355ntf    fn4 8167   6.709   0.362   0.373 -0.1121  0.1067 -0.6768
 1355ntf    fn4 8168   6.750   0.461   0.553 -0.2574 -0.3994  0.2466
 1355ntf    on5 8169   6.839   0.627   0.333  0.3036  0.5839 -0.3736
 1355ntf    on5 8170   6.612   0.603   0.240  0.1700  0.2380 -0.1761
 1355ntf    on5 8171   6.851   0.798   0.582 -0.1112  0.8727  0.0914
 1355ntf    on5 8172   6.641   0.926   0.610  0.0714  0.0378  0.1082
 1355ntf    fn4 8173   6.879   0.921   0.343 -0.0005  0.1838 -0.1437
 1355ntf    fn4 8174   6.676   0.902   0.280 -0.0679  0.6887 -0.0721
 1355ntf    fn4 8175   6.739   1.069   0.396  0.1342  0.2527 -0.0460
 1356ntf    cn1 8176   0.518   4.181   2.869 -0.0108 -0.2137 -0.2573
 1356ntf    sn2 8177   0.384   4.105   2.966 -0.0191  0.1323  0.0038
 1356ntf    nn3 8178   0.269   4.186   2.896 -0.1777 -0.2520 -0.1839
 1356ntf    sn2 8179   0.188   4.149   2.767 -0.2575  0.1304 -0.2461
 1356ntf    cn1 8180   0.050   4.040   2.815 -0.0333  0.0335  0.1851
 1356ntf    fn4 8181   0.515   4.309   2.903 -0.0818 -0.0582 -0.8368
 1356ntf    fn4 8182   0.629   4.120   2.907 -0.5329 -0.4458  0.9659
 1356ntf    fn4 8183   0.511   4.167   2.738  0.4251 -0.2071 -0.2834
 1356ntf    on5 8184   0.382   3.963   2.941 -0.4115  0.0994  0.2209
 1356ntf    on5 8185   0.409   4.152   3.100  1.0706 -0.2448 -0.0580
 1356ntf    on5 8186   0.261   4.062   2.678 -0.7517  0.2475 -0.7760
 1356ntf    on5 8187   0.121   4.269   2.722 -0.5017  0.0454 -0.1156
 1356ntf    fn4 8188  -0.013   4.091   2.920  0.3626  0.2130  0.3374
 1356ntf    fn4 8189  -0.027   4.019   2.710 -0.5551 -0.2521  0.6193
 1356ntf    fn4 8190   0.079   3.921   2.866 -0.2803 -0.1018  0.0090
 1357ntf    cn1 8191   4.311   1.364   0.512  0.3171 -0.0874 -0.0619
 1357ntf    sn2 8192   4.133   1.349   0.548  0.3977  0.2207  0.4893
 1357ntf    nn3 8193   4.145   1.354   0.704 -0.4058  0.7886  0.5439
 1357ntf    sn2 8194   4.053   1.270   0.800 -0.4185  0.1549 -0.0159
 1357ntf    cn1 8195   3.990   1.409   0.899  0.3563  0.6707 -0.2349
 1357ntf    fn4 8196   4.339   1.413   0.393 -0.1893 -0.2963 -0.2688
 1357ntf    fn4 8197   4.369   1.450   0.595 -0.0948 -0.0900  0.2384
 1357ntf    fn4 8198   4.379   1.252   0.525  0.2834 -0.1539 -0.4698
 1357ntf    on5 8199   4.078   1.472   0.496 -0.0315 -0.1376  0.0828
 1357ntf    on5 8200   4.109   1.226   0.476 -0.0325  0.2528  0.5737
 1357ntf    on5 8201   4.135   1.199   0.895 -0.9933 -0.3845  0.0835
 1357ntf    on5 8202   3.936   1.210   0.741 -0.1225  0.2485 -0.7058
 1357ntf    fn4 8203   4.076   1.499   0.942  0.5608  0.2101  0.3378
 1357ntf    fn4 8204   3.898   1.482   0.840 -0.2587 -0.2189 -0.4056
 1357ntf    fn4 8205   3.932   1.357   1.006  0.5643  0.5688 -0.1711
 1358ntf    cn1 8206   0.714   1.536   5.575 -0.7720  0.1359 -0.2835
 1358ntf    sn2 8207   0.593   1.466   5.692 -0.1160  0.0132  0.3239
 1358ntf    nn3 8208   0.663   1.462   5.833 -0.1781 -0.2467  0.3471
 1358ntf    sn2 8209   0.645   1.578   5.937  0.0311  0.1797 -0.0908
 1358ntf    cn1 8210   0.727   1.515   6.086  0.1237  0.4094 -0.0439
 1358ntf    fn4 8211   0.725   1.668   5.572 -0.6293  0.1418  0.3747
 1358ntf    fn4 8212   0.836   1.487   5.588 -0.6089  0.6135  0.0055
 1358ntf    fn4 8213   0.681   1.505   5.450 -0.0277  0.1174 -0.4793
 1358ntf    on5 8214   0.478   1.551   5.678 -0.3960 -0.3244  0.5686
 1358ntf    on5 8215   0.575   1.331   5.643 -0.3461  0.2435 -0.2388
 1358ntf    on5 8216   0.507   1.595   5.975  0.1698 -0.0125  0.5095
 1358ntf    on5 8217   0.729   1.691   5.905  0.1306  0.0977 -0.1204
 1358ntf    fn4 8218   0.741   1.610   6.177 -0.0431  0.5191 -0.1333
 1358ntf    fn4 8219   0.670   1.403   6.129  0.0467  0.4605 -0.0135
 1358ntf    fn4 8220   0.850   1.483   6.048 -0.0088 -0.1311 -0.0275
 1359ntf    cn1 8221   1.989   2.387   2.836  0.0661 -0.2856  0.1402
 1359ntf    sn2 8222   2.093   2.333   2.697 -0.3079  0.0515 -0.2741
 1359ntf    nn3 8223   2.212   2.436   2.701 -0.0480 -0.2542 -0.0696
 1359ntf    sn2 8224   2.234   2.568   2.619 -0.0647  0.0047  0.3413
 1359ntf    cn1 8225   2.313   2.512   2.466 -0.2405 -0.1583  0.3099
 1359ntf    fn4 8226   1.891   2.307   2.877  0.0686 -0.3090  0.1009
 1359ntf    fn4 8227   2.062   2.398   2.945  0.1369  0.3477  0.0316
 1359ntf    fn4 8228   1.932   2.504   2.812  0.4514 -0.0644  0.2998
 1359ntf    on5 8229   2.140   2.206   2.745 -0.6542  0.0510  0.0664
 1359ntf    on5 8230   2.011   2.336   2.578 -0.6673 -0.1741 -0.0324
 1359ntf    on5 8231   2.340   2.652   2.670  0.0145  0.1634 -0.0789
 1359ntf    on5 8232   2.110   2.631   2.580 -0.1946 -0.5525 -0.1499
 1359ntf    fn4 8233   2.429   2.454   2.492 -0.2281 -0.3056 -0.0604
 1359ntf    fn4 8234   2.234   2.433   2.395  0.4064 -0.2686 -0.2990
 1359ntf    fn4 8235   2.340   2.620   2.394 -0.3996  0.1556  0.7195
 1360ntf    cn1 8236   1.648   2.141   1.119 -0.1724  0.4251 -0.2285
 1360ntf    sn2 8237   1.685   2.091   0.948 -0.3557 -0.1396 -0.1061
 1360ntf    nn3 8238   1.828   2.029   0.969 -0.2322  0.0548 -0.3748
 1360ntf    sn2 8239   1.886   1.894   0.915 -0.1728  0.0788 -0.3710
 1360ntf    cn1 8240   2.061   1.941   0.928 -0.3109  0.4012  0.3804
 1360ntf    fn4 8241   1.737   2.221   1.175 -0.1725 -0.0691  0.4872
 1360ntf    fn4 8242   1.531   2.201   1.132 -0.2901  0.0586  0.4849
 1360ntf    fn4 8243   1.637   2.034   1.196 -0.0603  0.3326 -0.3415
 1360ntf    on5 8244   1.577   2.002   0.911  0.0003 -0.4276 -0.4630
 1360ntf    on5 8245   1.704   2.217   0.880 -0.1752 -0.0867  0.0414
 1360ntf    on5 8246   1.872   1.873   0.773  0.9000 -0.3320 -0.4251
 1360ntf    on5 8247   1.881   1.782   1.005  0.1002  0.6586  0.3807
 1360ntf    fn4 8248   2.098   2.042   0.852 -0.2033  0.1064  0.0340
 1360ntf    fn4 8249   2.095   1.964   1.054 -0.1216  0.6297  0.2886
 1360ntf    fn4 8250   2.143   1.845   0.886 -0.4965  0.3430  0.1522
 1361ntf    cn1 8251   3.377   1.693   6.512  0.1037  0.1249  0.3335
 1361ntf    sn2 8252   3.358   1.611   6.673  0.1231 -0.0414  0.2516
 1361ntf    nn3 8253   3.496   1.621   6.747  0.2533 -0.0120  0.0083
 1361ntf    sn2 8254   3.535   1.700   6.877  0.3757  0.1636 -0.1356
 1361ntf    cn1 8255   3.488   1.587   7.011  0.3565  0.1313 -0.1696
 1361ntf    fn4 8256   3.483   1.646   6.447  0.0127  0.0324  0.2518
 1361ntf    fn4 8257   3.273   1.674   6.432  0.3790 -0.3781  0.0885
 1361ntf    fn4 8258   3.398   1.823   6.522  0.6937  0.0936 -0.3625
 1361ntf    on5 8259   3.253   1.685   6.738  0.1811  0.1524  0.1275
 1361ntf    on5 8260   3.318   1.479   6.630  0.6209  0.1011 -0.6835
 1361ntf    on5 8261   3.466   1.824   6.904 -0.4615 -0.2195 -0.4793
 1361ntf    on5 8262   3.677   1.708   6.903  0.2437  1.4070  0.2880
 1361ntf    fn4 8263   3.363   1.549   6.992  0.2016  0.3016  0.4896
 1361ntf    fn4 8264   3.563   1.477   7.011  0.2297  0.0421  0.1671
 1361ntf    fn4 8265   3.499   1.655   7.124  0.4203  0.8249 -0.5893
 1362ntf    cn1 8266   5.284   0.112   6.523  0.1752  0.2017 -0.0685
 1362ntf    sn2 8267   5.237  -0.035   6.428 -0.2555  0.2479  0.0726
 1362ntf    nn3 8268   5.159  -0.115   6.538  0.1900 -0.1557  0.0952
 1362ntf    sn2 8269   5.187  -0.253   6.609 -0.0175 -0.3720 -0.2412
 1362ntf    cn1 8270   5.025  -0.330   6.578  0.0498 -0.5063 -0.2579
 1362ntf    fn4 8271   5.184   0.191   6.559 -0.2834 -0.2361 -0.3776
 1362ntf    fn4 8272   5.348   0.075   6.634 -0.5438 -0.4282  0.1395
 1362ntf    fn4 8273   5.371   0.191   6.461 -0.1569  0.7800  0.1870
 1362ntf    on5 8274   5.148   0.009   6.323 -0.7686  0.3409  0.5432
 1362ntf    on5 8275   5.364  -0.085   6.384 -0.5653 -0.3362 -0.1650
 1362ntf    on5 8276   5.198  -0.228   6.750 -0.1749 -0.1323 -0.2702
 1362ntf    on5 8277   5.273  -0.348   6.542 -0.3097 -0.2196 -0.8476
 1362ntf    fn4 8278   4.935  -0.291   6.667  0.0162 -0.3325 -0.3688
 1362ntf    fn4 8279   4.972  -0.299   6.461 -0.2876  0.5594  0.1692
 1362ntf    fn4 8280   5.017  -0.461   6.597 -0.3576 -0.4507 -0.0484
 1363ntf    cn1 8281   5.133   0.580   6.527  0.0698 -0.2063 -0.1475
 1363ntf    sn2 8282   5.112   0.578   6.708 -0.2469  0.1770 -0.1787
 1363ntf    nn3 8283   5.007   0.463   6.727  0.0060  0.0552  0.5160
 1363ntf    sn2 8284   4.856   0.463   6.772 -0.1103 -0.0753  0.1317
 1363ntf    cn1 8285   4.765   0.462   6.615  0.1251  0.1505 -0.0065
 1363ntf    fn4 8286   5.172   0.462   6.481 -0.5077 -0.3493 -0.2786
 1363ntf    fn4 8287   5.020   0.605   6.464  0.3251  0.3480 -0.3923
 1363ntf    fn4 8288   5.220   0.667   6.479 -0.1263  0.1517  0.1423
 1363ntf    on5 8289   5.244   0.543   6.755 -0.0413  0.3846 -0.5970
 1363ntf    on5 8290   5.069   0.712   6.737 -0.4261  0.0821  0.0015
 1363ntf    on5 8291   4.813   0.589   6.827  0.4420  0.2045 -0.0636
 1363ntf    on5 8292   4.820   0.339   6.836 -0.5147  0.0719  0.1918
 1363ntf    fn4 8293   4.641   0.504   6.637  0.3221  0.6743  0.1227
 1363ntf    fn4 8294   4.818   0.533   6.517  0.7655 -0.5365 -0.1659
 1363ntf    fn4 8295   4.753   0.338   6.571  0.1570 -0.0877  0.6459
 1364ntf    cn1 8296   6.748   3.186   0.344  0.4136 -0.0585  0.4903
 1364ntf    sn2 8297   6.787   3.363   0.356  0.4434 -0.0285 -0.0103
 1364ntf    nn3 8298   6.638   3.413   0.341  0.4889  0.2586  0.4451
 1364ntf    sn2 8299   6.545   3.465   0.455  0.0064  0.4030 -0.0144
 1364ntf    cn1 8300   6.595   3.640   0.453 -0.3091  0.4940 -0.0927
 1364ntf    fn4 8301   6.670   3.150   0.444 -0.3168 -0.3150 -0.1669
 1364ntf    fn4 8302   6.692   3.151   0.230 -0.2294  0.9959  0.4750
 1364ntf    fn4 8303   6.856   3.110   0.355  0.1974 -0.4907 -0.3222
 1364ntf    on5 8304   6.855   3.372   0.483 -0.1691  0.0567  0.3150
 1364ntf    on5 8305   6.859   3.402   0.238  0.0002  0.2343 -0.1957
 1364ntf    on5 8306   6.574   3.414   0.586  0.0728 -0.2158 -0.2685
 1364ntf    on5 8307   6.404   3.464   0.424  0.1582  0.0738 -0.6921
 1364ntf    fn4 8308   6.719   3.658   0.495 -0.0749 -0.1377 -0.4898
 1364ntf    fn4 8309   6.601   3.683   0.328 -0.4135  0.2361 -0.1854
 1364ntf    fn4 8310   6.517   3.723   0.521 -0.5429  0.1574  0.0523
 1365ntf    cn1 8311   5.565   5.979   1.556 -0.1537 -0.3120  0.1302
 1365ntf    sn2 8312   5.395   6.039   1.531 -0.1334 -0.3419 -0.0872
 1365ntf    nn3 8313   5.393   6.056   1.375 -0.2282  0.3708 -0.0113
 1365ntf    sn2 8314   5.294   6.008   1.263 -0.1813 -0.1380  0.1631
 1365ntf    cn1 8315   5.218   6.172   1.248 -0.2221 -0.1560  0.1667
 1365ntf    fn4 8316   5.597   5.987   1.684  0.0723 -0.1103  0.0642
 1365ntf    fn4 8317   5.575   5.851   1.526 -0.6452 -0.4008  0.3535
 1365ntf    fn4 8318   5.660   6.038   1.484 -0.0071 -0.1784  0.4328
 1365ntf    on5 8319   5.322   5.926   1.583 -0.1283 -0.0852  0.4881
 1365ntf    on5 8320   5.389   6.163   1.605 -0.4736 -0.3860 -0.0421
 1365ntf    on5 8321   5.180   5.928   1.298 -0.2855 -0.0912 -0.0710
 1365ntf    on5 8322   5.354   5.991   1.133  1.2385 -0.0877  0.7867
 1365ntf    fn4 8323   5.131   6.179   1.148 -0.1217  0.6620  0.1286
 1365ntf    fn4 8324   5.149   6.204   1.356 -0.2913  0.3211 -0.0138
 1365ntf    fn4 8325   5.304   6.272   1.230  0.1415 -0.5233 -0.1517
 1366ntf    cn1 8326   3.732   5.917   2.451 -0.1975  0.1180  0.1966
 1366ntf    sn2 8327   3.738   6.060   2.564 -0.2538 -0.0474  0.4082
 1366ntf    nn3 8328   3.591   6.054   2.619 -0.6315  0.1384 -0.5611
 1366ntf    sn2 8329   3.502   6.175   2.664 -0.0469  0.3634  0.0099
 1366ntf    cn1 8330   3.398   6.194   2.516  0.0467 -0.2082 -0.1307
 1366ntf    fn4 8331   3.709   5.809   2.524  0.5018 -0.0779  0.1287
 1366ntf    fn4 8332   3.624   5.934   2.377  0.0333  0.6735 -0.0218
 1366ntf    fn4 8333   3.844   5.900   2.382 -0.5362 -0.0763 -0.3138
 1366ntf    on5 8334   3.823   6.016   2.672 -0.1031 -0.1324  0.2552
 1366ntf    on5 8335   3.781   6.165   2.476  0.5210 -0.3533  0.4161
 1366ntf    on5 8336   3.578   6.297   2.669  0.7275 -0.1115 -0.0989
 1366ntf    on5 8337   3.412   6.153   2.774 -0.1897 -0.5340 -0.2824
 1366ntf    fn4 8338   3.328   6.085   2.489  0.0984 -0.3664  0.3772
 1366ntf    fn4 8339   3.315   6.296   2.531  0.1738 -0.1202 -0.0336
 1366ntf    fn4 8340   3.472   6.221   2.410  0.5818 -0.3297  0.2086
 1367ntf    cn1 8341   1.253   4.832   1.854  0.0604 -0.3535  0.0364
 1367ntf    sn2 8342   1.233   4.763   1.687 -0.1229  0.2445 -0.1927
 1367ntf    nn3 8343   1.078   4.769   1.663 -0.1467  0.5047  0.0265
 1367ntf    sn2 8344   1.001   4.757   1.527  0.1661  0.0938 -0.1142
 1367ntf    cn1 8345   0.919   4.597   1.547 -0.0915  0.1870 -0.4149
 1367ntf    fn4 8346   1.201   4.953   1.867 -0.0016 -0.3418 -0.2898
 1367ntf    fn4 8347   1.184   4.757   1.938 -0.1936 -0.2391 -0.0698
 1367ntf    fn4 8348   1.374   4.848   1.906  0.1596  0.3049 -0.3696
 1367ntf    on5 8349   1.313   4.842   1.596  0.2086 -0.1084 -0.2086
 1367ntf    on5 8350   1.284   4.631   1.717  0.9142  0.6004 -0.3402
 1367ntf    on5 8351   1.089   4.742   1.413  0.3651 -0.2564  0.0842
 1367ntf    on5 8352   0.888   4.845   1.523  0.0151 -0.0822  0.2666
 1367ntf    fn4 8353   0.834   4.596   1.648  0.1148  0.2803 -0.2404
 1367ntf    fn4 8354   0.843   4.553   1.448 -0.1203 -0.5284 -0.0822
 1367ntf    fn4 8355   1.007   4.500   1.566 -0.9430 -0.4667  0.2843
 1368ntf    cn1 8356   2.597   3.060   1.537 -0.2893 -0.2539 -0.1063
 1368ntf    sn2 8357   2.492   3.045   1.684 -0.3053  0.0643 -0.0856
 1368ntf    nn3 8358   2.454   3.195   1.710 -0.0340  0.1597 -0.2365
 1368ntf    sn2 8359   2.526   3.294   1.808 -0.0522 -0.0563 -0.0053
 1368ntf    cn1 8360   2.526   3.446   1.708 -0.1829 -0.0184  0.0521
 1368ntf    fn4 8361   2.624   2.948   1.472  0.2076  0.0236 -0.3855
 1368ntf    fn4 8362   2.551   3.130   1.435 -0.6594  0.2523  0.4025
 1368ntf    fn4 8363   2.715   3.116   1.560 -0.1531 -0.2900 -0.6834
 1368ntf    on5 8364   2.388   2.957   1.637  0.3137 -0.8081  0.1661
 1368ntf    on5 8365   2.580   2.984   1.781  0.1450  0.4315 -0.2591
 1368ntf    on5 8366   2.665   3.266   1.833 -0.0045 -0.1399 -0.3522
 1368ntf    on5 8367   2.450   3.336   1.923  0.2462 -0.8022  0.4667
 1368ntf    fn4 8368   2.576   3.548   1.776 -0.1529 -0.1169  0.1795
 1368ntf    fn4 8369   2.598   3.428   1.598  0.0787  0.0109  0.2158
 1368ntf    fn4 8370   2.406   3.474   1.660  0.0400 -0.2240 -0.6366
 1369ntf    cn1 8371   5.562   6.413   4.570 -0.0534 -0.2170 -0.3291
 1369ntf    sn2 8372   5.519   6.237   4.582 -0.1444 -0.1673  0.0847
 1369ntf    nn3 8373   5.649   6.165   4.632 -0.2180 -0.3150  0.0685
 1369ntf    sn2 8374   5.749   6.087   4.540 -0.2091 -0.2399  0.0142
 1369ntf    cn1 8375   5.677   5.920   4.552 -0.0785 -0.2977 -0.0034
 1369ntf    fn4 8376   5.659   6.443   4.485 -0.6300  0.4122 -0.7683
 1369ntf    fn4 8377   5.463   6.490   4.531  0.1056  0.1512 -0.0182
 1369ntf    fn4 8378   5.604   6.463   4.685 -0.1456  0.1748 -0.4676
 1369ntf    on5 8379   5.419   6.237   4.687 -0.4801 -0.4141 -0.2325
 1369ntf    on5 8380   5.473   6.213   4.448 -0.2147  0.1996  0.0444
 1369ntf    on5 8381   5.875   6.069   4.607 -0.2355  0.2226  0.1893
 1369ntf    on5 8382   5.744   6.115   4.398  0.5090 -0.6984 -0.1066
 1369ntf    fn4 8383   5.554   5.905   4.505 -0.1904  0.2487  0.1034
 1369ntf    fn4 8384   5.746   5.837   4.476  0.2090  0.4088 -0.5341
 1369ntf    fn4 8385   5.674   5.875   4.676  0.1222 -0.1050  0.0727
 1370ntf    cn1 8386   6.642   3.345   4.991 -0.4067  0.2266 -0.1831
 1370ntf    sn2 8387   6.805   3.400   4.935 -0.2818 -0.0685 -0.1109
 1370ntf    nn3 8388   6.885   3.332   5.051 -0.0258 -0.4210 -0.4875
 1370ntf    sn2 8389   6.991   3.406   5.141 -0.3842  0.0286 -0.4296
 1370ntf    cn1 8390   6.883   3.518   5.234 -0.0153 -0.1236  0.1880
 1370ntf    fn4 8391   6.540   3.404   4.930 -0.6197 -0.1631 -0.2102
 1370ntf    fn4 8392   6.633   3.214   4.975  0.2501  0.2237 -0.5478
 1370ntf    fn4 8393   6.615   3.363   5.119  0.7977 -0.5635  0.1940
 1370ntf    on5 8394   6.813   3.329   4.809  0.6798 -0.0080 -0.0960
 1370ntf    on5 8395   6.798   3.544   4.936  0.2003 -0.0460  0.4460
 1370ntf    on5 8396   7.082   3.495   5.073  0.5655 -0.4982  0.1212
 1370ntf    on5 8397   7.042   3.316   5.242  0.1038  0.1030 -0.6077
 1370ntf    fn4 8398   6.865   3.636   5.176  0.1177 -0.0823  0.2294
 1370ntf    fn4 8399   6.758   3.477   5.246 -0.0385 -0.1365 -0.0993
 1370ntf    fn4 8400   6.941   3.545   5.350 -0.1533  0.1532  0.1943
 1371ntf    cn1 8401   4.618   3.060   1.284  0.2526  0.0309 -0.0322
 1371ntf    sn2 8402   4.565   3.184   1.162 -0.0861 -0.3094 -0.2343
 1371ntf    nn3 8403   4.633   3.310   1.227  0.4621 -0.7373  0.0335
 1371ntf    sn2 8404   4.722   3.419   1.156 -0.3439 -0.1518 -0.0836
 1371ntf    cn1 8405   4.884   3.339   1.174 -0.2024  0.1157 -0.1603
 1371ntf    fn4 8406   4.747   3.029   1.282  0.4356  0.7815 -0.0195
 1371ntf    fn4 8407   4.589   3.093   1.408  0.1050 -0.2829  0.0197
 1371ntf    fn4 8408   4.555   2.945   1.265  0.3648 -0.1657  0.7641
 1371ntf    on5 8409   4.622   3.133   1.040  0.0305 -0.8123  0.0265
 1371ntf    on5 8410   4.423   3.179   1.185 -0.0699 -0.3284 -0.1362
 1371ntf    on5 8411   4.723   3.541   1.233 -0.3080 -0.2113  0.0103
 1371ntf    on5 8412   4.710   3.434   1.013 -0.1466  0.9978  0.0128
 1371ntf    fn4 8413   4.913   3.318   1.301  0.0118  0.0064 -0.2262
 1371ntf    fn4 8414   4.891   3.225   1.107  0.5027 -0.2689  0.5527
 1371ntf    fn4 8415   4.983   3.415   1.132  0.1106 -0.0866  0.2061
 1372ntf    cn1 8416   6.053   6.505   1.357 -0.0416 -0.0251 -0.1641
 1372ntf    sn2 8417   5.997   6.639   1.466  0.1558 -0.0592 -0.0197
 1372ntf    nn3 8418   5.840   6.642   1.452  0.2157  0.3847 -0.6259
 1372ntf    sn2 8419   5.756   6.753   1.380 -0.0355  0.4907 -0.1707
 1372ntf    cn1 8420   5.760   6.885   1.505  0.2820  0.3014  0.0219
 1372ntf    fn4 8421   6.021   6.542   1.234  0.0407 -0.3808 -0.2950
 1372ntf    fn4 8422   6.186   6.507   1.355 -0.0294 -0.0252  0.4993
 1372ntf    fn4 8423   6.013   6.380   1.372  0.3650 -0.1084  0.2479
 1372ntf    on5 8424   6.030   6.590   1.598  0.6991 -0.0385 -0.1502
 1372ntf    on5 8425   6.067   6.756   1.420 -0.5446  0.2947 -0.2058
 1372ntf    on5 8426   5.619   6.709   1.382  0.0844  0.1284  0.3060
 1372ntf    on5 8427   5.809   6.793   1.252  0.3115  0.2662 -0.0982
 1372ntf    fn4 8428   5.883   6.901   1.551  0.3499  0.2342 -0.1354
 1372ntf    fn4 8429   5.715   7.006   1.476 -0.1693  0.3171  0.7749
 1372ntf    fn4 8430   5.683   6.855   1.608 -0.3980  0.1583 -0.5159
 1373ntf    cn1 8431   2.795   3.217   2.448 -0.3855 -0.5874 -0.3004
 1373ntf    sn2 8432   2.966   3.171   2.487 -0.3224  0.0231  0.1594
 1373ntf    nn3 8433   2.951   3.036   2.567  0.1110 -0.0765  0.0803
 1373ntf    sn2 8434   3.066   2.983   2.659  0.2334 -0.0114 -0.0339
 1373ntf    cn1 8435   3.008   3.041   2.821  0.3389 -0.1796  0.0646
 1373ntf    fn4 8436   2.732   3.132   2.368 -0.6047  0.1689 -0.9358
 1373ntf    fn4 8437   2.720   3.231   2.556  0.0271  0.7273 -0.1723
 1373ntf    fn4 8438   2.804   3.333   2.385  0.2515 -0.4512  0.0294
 1373ntf    on5 8439   3.015   3.139   2.355 -0.0538 -0.1804  0.3039
 1373ntf    on5 8440   3.017   3.282   2.563  0.3190  0.0749 -0.3365
 1373ntf    on5 8441   3.201   3.026   2.637  0.1248  0.2428 -0.2051
 1373ntf    on5 8442   3.049   2.841   2.677  0.1687  0.0058  0.0420
 1373ntf    fn4 8443   2.877   3.061   2.814  0.5506  1.1736 -0.2601
 1373ntf    fn4 8444   3.036   2.949   2.912  0.6640 -0.3724 -0.2302
 1373ntf    fn4 8445   3.062   3.156   2.859 -0.1874  0.1769 -0.2513
 1374ntf    cn1 8446   5.647   1.263   0.077 -0.3019  0.5427  0.2031
 1374ntf    sn2 8447   5.744   1.329   0.215  0.3345 -0.3395  0.1846
 1374ntf    nn3 8448   5.837   1.205   0.241  0.6829 -0.0023  0.5647
 1374ntf    sn2 8449   5.976   1.170   0.177  0.1826 -0.4228 -0.2991
 1374ntf    cn1 8450   6.076   1.187   0.328  0.1041  0.3123 -0.3257
 1374ntf    fn4 8451   5.533   1.204   0.110 -0.4665  0.1749 -0.9665
 1374ntf    fn4 8452   5.626   1.361  -0.010  0.0449  0.2892 -0.1755
 1374ntf    fn4 8453   5.707   1.163   0.015  0.4841  0.6764  0.7415
 1374ntf    on5 8454   5.812   1.441   0.154 -0.3870 -0.0101 -0.0226
 1374ntf    on5 8455   5.650   1.355   0.321  0.4528 -0.6036  0.3554
 1374ntf    on5 8456   6.035   1.264   0.085 -0.5885  0.4154  0.0591
 1374ntf    on5 8457   5.995   1.028   0.159  0.0294 -0.3698 -0.9294
 1374ntf    fn4 8458   6.044   1.096   0.419  0.3633  0.2640 -0.2833
 1374ntf    fn4 8459   6.206   1.185   0.303  0.0913  0.2239 -0.3895
 1374ntf    fn4 8460   6.046   1.298   0.392 -0.3659 -0.0990  0.1787
 1375ntf    cn1 8461   1.661   2.539   3.070 -0.0157 -0.0466 -0.1961
 1375ntf    sn2 8462   1.525   2.550   2.950 -0.0376  0.2824 -0.1422
 1375ntf    nn3 8463   1.504   2.400   2.908 -0.0855  0.3259 -0.2745
 1375ntf    sn2 8464   1.554   2.321   2.782  0.0712  0.0787 -0.0556
 1375ntf    cn1 8465   1.434   2.378   2.659  0.1667  0.1299 -0.1249
 1375ntf    fn4 8466   1.687   2.663   3.108 -0.2755 -0.1299  0.2663
 1375ntf    fn4 8467   1.639   2.467   3.178 -0.4818  0.5532  0.1162
 1375ntf    fn4 8468   1.767   2.474   3.026 -0.0005 -0.1284 -0.0358
 1375ntf    on5 8469   1.412   2.589   3.031  0.3439  0.6383  0.2170
 1375ntf    on5 8470   1.577   2.641   2.851 -0.3991  0.2150 -0.3986
 1375ntf    on5 8471   1.527   2.179   2.794 -0.2570  0.1244 -0.2459
 1375ntf    on5 8472   1.677   2.351   2.714 -0.0948  0.0544 -0.3705
 1375ntf    fn4 8473   1.329   2.300   2.640  0.2776 -0.2741  0.8645
 1375ntf    fn4 8474   1.405   2.505   2.684  0.3634  0.1686 -0.0932
 1375ntf    fn4 8475   1.492   2.373   2.540  0.2396 -0.1591 -0.0776
 1376ntf    cn1 8476   3.622   1.429   2.349 -0.5211  0.1714 -0.4954
 1376ntf    sn2 8477   3.527   1.521   2.473  0.0464  0.0658  0.0217
 1376ntf    nn3 8478   3.380   1.494   2.425  0.1385 -0.1328 -0.1485
 1376ntf    sn2 8479   3.287   1.371   2.454 -0.1055  0.0601 -0.1059
 1376ntf    cn1 8480   3.204   1.428   2.605  0.0202  0.0828 -0.0457
 1376ntf    fn4 8481   3.560   1.321   2.304  0.5104 -0.6445  0.0063
 1376ntf    fn4 8482   3.649   1.503   2.242 -0.0227  0.1220 -0.4071
 1376ntf    fn4 8483   3.737   1.382   2.395 -0.4834  0.4562 -0.2961
 1376ntf    on5 8484   3.551   1.476   2.608 -0.6909  0.2048  0.2057
 1376ntf    on5 8485   3.565   1.657   2.446  0.8595 -0.0702  0.4567
 1376ntf    on5 8486   3.368   1.257   2.490 -0.0163 -0.0218 -0.5578
 1376ntf    on5 8487   3.183   1.354   2.355 -0.0137  0.7399 -0.3209
 1376ntf    fn4 8488   3.136   1.325   2.653  0.1379  0.2241  0.4361
 1376ntf    fn4 8489   3.274   1.461   2.713 -0.4626  0.6130  0.1057
 1376ntf    fn4 8490   3.120   1.521   2.563 -0.2859 -0.4040 -0.5170
 1377ntf    cn1 8491   1.010   4.281   6.816  0.2953 -0.0566 -0.3902
 1377ntf    sn2 8492   1.150   4.219   6.914 -0.0831  0.2667  0.3613
 1377ntf    nn3 8493   1.237   4.164   6.796  0.0646  0.4946  0.3633
 1377ntf    sn2 8494   1.372   4.085   6.803  0.0317  0.4017 -0.0701
 1377ntf    cn1 8495   1.483   4.226   6.775  0.1438  0.3752  0.2387
 1377ntf    fn4 8496   0.937   4.372   6.880  0.1616 -0.3570 -0.1153
 1377ntf    fn4 8497   1.053   4.353   6.713 -0.2781  0.1732 -0.4762
 1377ntf    fn4 8498   0.923   4.189   6.776  0.2112 -0.1358 -0.0328
 1377ntf    on5 8499   1.202   4.337   6.978 -0.5339  0.5978  0.1300
 1377ntf    on5 8500   1.089   4.110   6.987  0.6205 -0.4139 -0.0609
 1377ntf    on5 8501   1.392   3.996   6.691 -0.3067 -0.1893  0.3315
 1377ntf    on5 8502   1.419   4.037   6.930 -0.6040 -0.3809 -0.1184
 1377ntf    fn4 8503   1.607   4.182   6.772  0.0277  0.0849 -0.3885
 1377ntf    fn4 8504   1.446   4.278   6.659 -0.2369 -0.2634  0.0690
 1377ntf    fn4 8505   1.467   4.328   6.858 -0.4814  0.2346  0.2998
 1378ntf    cn1 8506   2.014   4.924   3.024  0.3180  0.1124  0.0236
 1378ntf    sn2 8507   1.947   5.073   3.103  0.1413  0.0181  0.0511
 1378ntf    nn3 8508   2.084   5.123   3.162  0.2840 -0.0257 -0.2451
 1378ntf    sn2 8509   2.120   5.215   3.283 -0.2156  0.0050 -0.1188
 1378ntf    cn1 8510   2.135   5.111   3.432  0.0886  0.3115  0.0679
 1378ntf    fn4 8511   2.075   4.844   3.110  0.4932 -0.4054 -0.5807
 1378ntf    fn4 8512   1.916   4.848   2.979  0.1764  0.4228 -0.1945
 1378ntf    fn4 8513   2.107   4.948   2.933  0.1959  0.8162  0.0759
 1378ntf    on5 8514   1.902   5.138   2.983  0.1279 -0.4497 -0.1974
 1378ntf    on5 8515   1.857   5.008   3.195  0.1146 -0.1178 -0.0707
 1378ntf    on5 8516   2.030   5.319   3.327  0.2652  0.2363  0.3282
 1378ntf    on5 8517   2.259   5.251   3.283 -0.1373 -0.2796  0.7650
 1378ntf    fn4 8518   2.016   5.055   3.450  0.3869 -0.3655 -0.0459
 1378ntf    fn4 8519   2.217   5.012   3.403 -0.0336  0.2385 -0.0329
 1378ntf    fn4 8520   2.176   5.174   3.540 -0.3151  0.0477  0.3773
 1379ntf    cn1 8521   3.011   2.494   1.198  0.2189  0.2803  0.2138
 1379ntf    sn2 8522   2.852   2.581   1.179 -0.0902 -0.1942  0.5762
 1379ntf    nn3 8523   2.916   2.704   1.104  0.3949 -1.0985 -0.5367
 1379ntf    sn2 8524   2.903   2.750   0.955  0.0873  0.1174 -0.1519
 1379ntf    cn1 8525   2.733   2.815   0.956 -0.1323 -0.4395 -0.3101
 1379ntf    fn4 8526   3.110   2.581   1.193  0.2045  0.2753 -0.1667
 1379ntf    fn4 8527   3.014   2.421   1.308  0.0527 -0.5764 -0.3451
 1379ntf    fn4 8528   3.039   2.415   1.097  0.3448  0.5366  0.0481
 1379ntf    on5 8529   2.767   2.498   1.097  0.6209 -0.1676 -0.2093
 1379ntf    on5 8530   2.817   2.611   1.315  0.1851  1.0418  0.3918
 1379ntf    on5 8531   2.902   2.641   0.860  0.4308 -0.2535  0.2682
 1379ntf    on5 8532   2.985   2.864   0.922 -0.1012  0.3889  0.3108
 1379ntf    fn4 8533   2.725   2.928   1.026  0.1184 -0.3364 -0.4469
 1379ntf    fn4 8534   2.698   2.841   0.831 -0.2397  0.0952 -0.1734
 1379ntf    fn4 8535   2.645   2.733   1.011 -0.2099 -0.2259 -0.1100
 1380ntf    cn1 8536   3.199   2.404   0.240 -0.1231  0.3414 -0.4425
 1380ntf    sn2 8537   3.039   2.335   0.291  0.2763 -0.3034 -0.0493
 1380ntf    nn3 8538   2.981   2.266   0.162  0.2057 -0.1934 -0.0758
 1380ntf    sn2 8539   2.870   2.314   0.062  0.0861 -0.1153  0.0937
 1380ntf    cn1 8540   2.729   2.222   0.131 -0.1189 -0.0107 -0.1845
 1380ntf    fn4 8541   3.286   2.306   0.219 -0.3116  0.0965 -0.0977
 1380ntf    fn4 8542   3.174   2.470   0.128 -0.0844 -0.0499 -0.6856
 1380ntf    fn4 8543   3.255   2.489   0.324  0.0663  0.2066 -0.4323
 1380ntf    on5 8544   3.065   2.233   0.390  1.0659  0.1103  0.1793
 1380ntf    on5 8545   2.962   2.451   0.329 -0.4635 -0.5984 -0.6259
 1380ntf    on5 8546   2.904   2.268  -0.070 -0.1494  0.5121 -0.1916
 1380ntf    on5 8547   2.827   2.452   0.067  0.1108 -0.1089  0.1225
 1380ntf    fn4 8548   2.747   2.091   0.120  0.1123 -0.0117  0.2045
 1380ntf    fn4 8549   2.722   2.242   0.261  0.1334 -0.8770 -0.0307
 1380ntf    fn4 8550   2.613   2.256   0.077 -0.3070  0.8731  0.7431
 1381ntf    cn1 8551   1.975   4.587   0.322  0.6281  0.4954  0.0498
 1381ntf    sn2 8552   2.135   4.501   0.317  0.1167 -0.4878  0.3289
 1381ntf    nn3 8553   2.156   4.515   0.162 -0.4445  0.4659  0.3306
 1381ntf    sn2 8554   2.255   4.601   0.076 -0.3689 -0.1286 -0.1819
 1381ntf    cn1 8555   2.416   4.524   0.110 -0.3855 -0.0482  0.0772
 1381ntf    fn4 8556   1.931   4.602   0.446 -0.0117  0.1389 -0.1307
 1381ntf    fn4 8557   1.980   4.711   0.277  0.0702  0.4111 -0.2477
 1381ntf    fn4 8558   1.885   4.523   0.248  0.3041  0.1371  0.7391
 1381ntf    on5 8559   2.222   4.582   0.399 -0.3128  0.0501  0.2582
 1381ntf    on5 8560   2.111   4.363   0.354 -0.0760 -0.5978 -0.1950
 1381ntf    on5 8561   2.281   4.739   0.105 -0.1488 -0.2936  0.4069
 1381ntf    on5 8562   2.234   4.566  -0.063  0.2063  0.1209 -0.3329
 1381ntf    fn4 8563   2.419   4.395   0.079  0.0739 -0.0280  0.0289
 1381ntf    fn4 8564   2.522   4.586   0.061  0.0737 -0.2910  0.7551
 1381ntf    fn4 8565   2.437   4.528   0.240 -0.1911 -0.2231  0.0508
 1382ntf    cn1 8566   6.447   2.344   2.972  0.3426  0.0776  0.1174
 1382ntf    sn2 8567   6.607   2.299   2.898  0.0933 -0.0068 -0.3748
 1382ntf    nn3 8568   6.700   2.252   3.015 -0.0285 -0.0125 -0.2807
 1382ntf    sn2 8569   6.723   2.107   3.070  0.0409  0.0488 -0.1472
 1382ntf    cn1 8570   6.837   2.036   2.947  0.0719  0.3057 -0.2662
 1382ntf    fn4 8571   6.360   2.409   2.897  0.0819 -0.2559  0.1295
 1382ntf    fn4 8572   6.383   2.235   3.010  0.1619  0.2541  0.3257
 1382ntf    fn4 8573   6.480   2.403   3.086  0.2169 -0.3655  0.3851
 1382ntf    on5 8574   6.573   2.206   2.794 -0.4001  0.3199 -0.5095
 1382ntf    on5 8575   6.648   2.430   2.852 -0.4545  0.1428 -0.4447
 1382ntf    on5 8576   6.602   2.029   3.067  0.2350 -0.2794  0.2943
 1382ntf    on5 8577   6.796   2.095   3.194 -0.0174  0.5089 -0.0686
 1382ntf    fn4 8578   6.894   1.924   2.987 -0.1402 -0.0613 -0.9843
 1382ntf    fn4 8579   6.780   2.015   2.829 -0.2057 -0.6734  0.0341
 1382ntf    fn4 8580   6.926   2.128   2.913 -0.0305  0.5387  0.0957
 1383ntf    cn1 8581   1.741   2.037   1.649 -0.1615 -0.4502  0.0904
 1383ntf    sn2 8582   1.809   2.202   1.612 -0.2331 -0.4656 -0.1117
 1383ntf    nn3 8583   1.788   2.273   1.751  0.1681 -0.6143  0.0257
 1383ntf    sn2 8584   1.676   2.371   1.800  0.4686 -0.1768 -0.1642
 1383ntf    cn1 8585   1.746   2.531   1.749 -0.3601  0.2830  0.1327
 1383ntf    fn4 8586   1.619   2.048   1.699 -0.1666  0.2359 -0.0597
 1383ntf    fn4 8587   1.722   1.962   1.542  0.0024 -0.0671 -0.2075
 1383ntf    fn4 8588   1.812   1.969   1.737  0.2283 -0.3765 -0.1634
 1383ntf    on5 8589   1.950   2.175   1.595 -0.0813  0.0614  0.2909
 1383ntf    on5 8590   1.731   2.249   1.500  0.0013  0.8182  0.2461
 1383ntf    on5 8591   1.667   2.368   1.944  0.4338 -0.6554 -0.1769
 1383ntf    on5 8592   1.552   2.358   1.727  0.3790 -0.1669 -0.0136
 1383ntf    fn4 8593   1.782   2.514   1.623  0.1516  0.0373  0.3101
 1383ntf    fn4 8594   1.659   2.631   1.744  0.3098  0.8809  0.1771
 1383ntf    fn4 8595   1.850   2.582   1.813 -0.2304 -0.2203  0.3257
 1384ntf    cn1 8596   2.629   1.473   5.621  0.5630 -0.6186 -0.0458
 1384ntf    sn2 8597   2.629   1.299   5.673  0.3224 -0.6180 -0.0418
 1384ntf    nn3 8598   2.498   1.253   5.600  0.2090 -0.0273 -0.2083
 1384ntf    sn2 8599   2.455   1.121   5.528 -0.2058  0.0000 -0.0150
 1384ntf    cn1 8600   2.501   1.163   5.357  0.2635 -0.3372  0.0250
 1384ntf    fn4 8601   2.510   1.523   5.650  0.4307 -0.7187 -0.4056
 1384ntf    fn4 8602   2.734   1.536   5.671 -0.0470 -0.1526  0.6651
 1384ntf    fn4 8603   2.647   1.492   5.491  0.2691 -0.9746 -0.1418
 1384ntf    on5 8604   2.757   1.252   5.624  0.4214  0.2978 -0.6764
 1384ntf    on5 8605   2.615   1.310   5.816  0.1075 -0.4632 -0.0744
 1384ntf    on5 8606   2.314   1.090   5.535 -0.1361 -0.3094  0.0490
 1384ntf    on5 8607   2.534   1.004   5.556  0.1518  0.4058  0.6968
 1384ntf    fn4 8608   2.631   1.185   5.348  0.2127 -0.1266 -0.1968
 1384ntf    fn4 8609   2.465   1.071   5.269  0.7362 -0.0704 -0.4500
 1384ntf    fn4 8610   2.439   1.273   5.317 -0.0016 -0.5660 -0.1996
 1385ntf    cn1 8611   4.179   4.308   6.431 -0.3339 -0.2410 -0.0999
 1385ntf    sn2 8612   4.180   4.386   6.267  0.1677  0.1730  0.0951
 1385ntf    nn3 8613   4.040   4.339   6.212  0.1822 -0.2492  0.4145
 1385ntf    sn2 8614   4.008   4.215   6.121  0.1553 -0.1245  0.2555
 1385ntf    cn1 8615   4.036   4.298   5.961  0.3120 -0.4139  0.1328
 1385ntf    fn4 8616   4.303   4.309   6.477 -0.4084 -0.0251  0.1032
 1385ntf    fn4 8617   4.101   4.368   6.520  0.5835  0.3931  0.2885
 1385ntf    fn4 8618   4.138   4.184   6.413  0.0373 -0.4523  0.4970
 1385ntf    on5 8619   4.189   4.527   6.293  0.4134  0.1701  0.0269
 1385ntf    on5 8620   4.293   4.328   6.200 -0.1733  0.2318 -0.5414
 1385ntf    on5 8621   3.868   4.183   6.126  0.2998 -0.7130  0.5390
 1385ntf    on5 8622   4.099   4.104   6.128  0.0038 -0.2542  0.1619
 1385ntf    fn4 8623   4.039   4.211   5.861  0.0660  0.4571 -0.6464
 1385ntf    fn4 8624   3.931   4.374   5.933  0.3618 -0.5331 -0.3917
 1385ntf    fn4 8625   4.148   4.365   5.942  0.4034 -0.4053  0.7016
 1386ntf    cn1 8626   2.929   4.979   3.285  0.4007  0.1440 -0.0256
 1386ntf    sn2 8627   3.030   4.935   3.429  0.1515 -0.1395  0.0655
 1386ntf    nn3 8628   3.160   5.019   3.402  0.2053 -0.0452  0.6023
 1386ntf    sn2 8629   3.220   5.150   3.466  0.2703  0.4337 -0.4094
 1386ntf    cn1 8630   3.333   5.088   3.594 -0.2559  0.2631 -0.0231
 1386ntf    fn4 8631   2.814   4.914   3.289  0.1785  0.5606  0.5372
 1386ntf    fn4 8632   2.906   5.109   3.273  0.2209  0.1288  0.1505
 1386ntf    fn4 8633   2.983   4.941   3.170  0.3282  0.0629 -0.0334
 1386ntf    on5 8634   2.957   4.977   3.546  0.6128 -0.4014  0.4538
 1386ntf    on5 8635   3.047   4.793   3.412 -0.4343 -0.3537  1.1981
 1386ntf    on5 8636   3.135   5.243   3.535 -0.1702  0.2659 -0.7180
 1386ntf    on5 8637   3.316   5.206   3.374  0.9861 -0.2447 -0.0901
 1386ntf    fn4 8638   3.343   5.174   3.695  0.1088  0.0954  0.0874
 1386ntf    fn4 8639   3.312   4.966   3.641  0.2518  0.0746 -0.2799
 1386ntf    fn4 8640   3.459   5.089   3.554 -0.1691 -0.4545  0.2140
 1387ntf    cn1 8641   1.369   4.662   2.639 -0.3475 -0.6944 -0.2372
 1387ntf    sn2 8642   1.359   4.755   2.483  0.2439 -0.0283  0.1145
 1387ntf    nn3 8643   1.216   4.816   2.509  0.1506 -0.0002 -0.4627
 1387ntf    sn2 8644   1.160   4.954   2.460 -0.0727 -0.0760 -0.4235
 1387ntf    cn1 8645   1.006   4.892   2.387 -0.2470  0.0788 -0.1911
 1387ntf    fn4 8646   1.490   4.611   2.660 -0.2121 -0.1306  0.3914
 1387ntf    fn4 8647   1.331   4.744   2.735 -0.6149 -0.4968 -0.5118
 1387ntf    fn4 8648   1.280   4.564   2.643 -0.6875 -0.3752  0.1125
 1387ntf    on5 8649   1.467   4.848   2.497  0.4882 -0.1942 -0.6459
 1387ntf    on5 8650   1.366   4.661   2.374 -0.2056  0.1401 -0.0611
 1387ntf    on5 8651   1.233   5.020   2.354 -0.9969  0.5559 -0.6771
 1387ntf    on5 8652   1.104   5.038   2.564  0.7677 -0.2226  0.1572
 1387ntf    fn4 8653   0.937   4.819   2.473  0.0146  0.2307  0.1494
 1387ntf    fn4 8654   0.930   4.994   2.352  0.1765  0.5056  0.1237
 1387ntf    fn4 8655   1.032   4.821   2.278  0.8774  0.0247  0.1019
 1388ntf    cn1 8656   3.967   6.639   1.805  0.3874  0.1594  0.1192
 1388ntf    sn2 8657   3.925   6.511   1.683 -0.0965  0.1719  0.2732
 1388ntf    nn3 8658   3.849   6.598   1.576 -0.1892  0.0263  0.2211
 1388ntf    sn2 8659   3.704   6.594   1.517 -0.0391 -0.0032 -0.1508
 1388ntf    cn1 8660   3.692   6.769   1.469 -0.1634 -0.0125 -0.1544
 1388ntf    fn4 8661   4.041   6.597   1.906  0.2667  0.1136  0.1874
 1388ntf    fn4 8662   4.042   6.733   1.748  0.1419 -0.0600 -0.5787
 1388ntf    fn4 8663   3.863   6.703   1.856  0.1196  0.3662 -0.6634
 1388ntf    on5 8664   4.053   6.470   1.633 -0.2465 -0.2809  0.2578
 1388ntf    on5 8665   3.838   6.414   1.745  0.1913 -0.5521 -0.4376
 1388ntf    on5 8666   3.589   6.582   1.604  0.3448  0.0978  0.3741
 1388ntf    on5 8667   3.698   6.530   1.388  0.3132  0.0167 -0.1776
 1388ntf    fn4 8668   3.675   6.843   1.576 -0.4000  0.1756 -0.3197
 1388ntf    fn4 8669   3.793   6.812   1.396  0.1886 -0.1666  0.2433
 1388ntf    fn4 8670   3.592   6.789   1.384 -0.1742 -0.6585 -0.3050
 1389ntf    cn1 8671   5.198   0.720   0.574  0.1694 -0.1695  0.1607
 1389ntf    sn2 8672   5.362   0.797   0.568  0.0139  0.1595  0.1348
 1389ntf    nn3 8673   5.399   0.797   0.720  1.1647  0.3984 -0.1301
 1389ntf    sn2 8674   5.347   0.890   0.836  0.3611 -0.0519 -0.1254
 1389ntf    cn1 8675   5.501   0.979   0.872  0.1046  0.2031  0.3473
 1389ntf    fn4 8676   5.196   0.602   0.635 -0.4757  0.0883  0.6493
 1389ntf    fn4 8677   5.108   0.793   0.638 -0.0360  0.2813 -0.6372
 1389ntf    fn4 8678   5.151   0.698   0.453 -0.2251 -0.3640  0.3469
 1389ntf    on5 8679   5.454   0.714   0.493 -0.6440  0.1606 -0.6813
 1389ntf    on5 8680   5.349   0.928   0.508 -0.3180  0.0776  0.0266
 1389ntf    on5 8681   5.311   0.811   0.952 -0.2310  0.4241  0.0169
 1389ntf    on5 8682   5.246   0.989   0.807  0.4673  0.1571  0.2163
 1389ntf    fn4 8683   5.520   1.070   0.777 -0.0812 -0.0273  0.0888
 1389ntf    fn4 8684   5.494   1.039   0.990  0.7042  0.1838  0.3911
 1389ntf    fn4 8685   5.610   0.906   0.885 -0.2125 -0.3321  0.0055
 1390ntf    cn1 8686   4.147   6.814   4.651 -0.0027  0.1455 -0.5734
 1390ntf    sn2 8687   4.199   6.641   4.637  0.2655  0.1914 -0.1455
 1390ntf    nn3 8688   4.180   6.596   4.488  0.2817 -0.0893 -0.0652
 1390ntf    sn2 8689   4.299   6.585   4.386  0.0490 -0.0670 -0.3392
 1390ntf    cn1 8690   4.370   6.422   4.423  0.4577  0.2268  0.1845
 1390ntf    fn4 8691   4.203   6.896   4.563  0.4783  0.8248  0.3510
 1390ntf    fn4 8692   4.019   6.836   4.627 -0.0778  0.2486 -0.0815
 1390ntf    fn4 8693   4.164   6.866   4.771  0.5974 -0.0364 -0.5764
 1390ntf    on5 8694   4.335   6.647   4.685  0.0929  0.5290  0.3078
 1390ntf    on5 8695   4.102   6.580   4.724  0.1438  0.2792 -0.2201
 1390ntf    on5 8696   4.406   6.681   4.398 -0.0462  0.0347 -0.2982
 1390ntf    on5 8697   4.251   6.566   4.251 -0.0964 -0.8809 -0.1749
 1390ntf    fn4 8698   4.465   6.387   4.338  0.4685  0.5524  0.0590
 1390ntf    fn4 8699   4.418   6.410   4.546  0.0362  0.5009  0.3771
 1390ntf    fn4 8700   4.291   6.318   4.408  0.5691  0.1642  0.0198
 1391ntf    cn1 8701   4.044   5.669   4.736  0.1098  0.3534 -0.0162
 1391ntf    sn2 8702   3.877   5.697   4.803  0.0635  0.0808 -0.0187
 1391ntf    nn3 8703   3.905   5.708   4.957  0.1283  0.5314 -0.0630
 1391ntf    sn2 8704   3.789   5.681   5.059 -0.0455  0.3002 -0.3202
 1391ntf    cn1 8705   3.839   5.803   5.184  0.3988 -0.1399 -0.0668
 1391ntf    fn4 8706   4.046   5.634   4.608  0.1487  0.4413 -0.0399
 1391ntf    fn4 8707   4.123   5.772   4.759 -0.0982  0.3937  0.5313
 1391ntf    fn4 8708   4.099   5.564   4.794  0.9047  0.4144 -0.6363
 1391ntf    on5 8709   3.837   5.823   4.747  0.6479  0.0122 -0.6080
 1391ntf    on5 8710   3.792   5.588   4.759 -0.5702  0.1516  0.9970
 1391ntf    on5 8711   3.800   5.559   5.134 -0.5097  0.4008 -0.0834
 1391ntf    on5 8712   3.655   5.724   5.026 -0.2670 -0.4366 -0.3846
 1391ntf    fn4 8713   3.860   5.923   5.133 -0.4189  0.0005 -0.0808
 1391ntf    fn4 8714   3.753   5.817   5.284  0.2286  0.2982 -0.2691
 1391ntf    fn4 8715   3.958   5.767   5.230  0.3814  0.2551  0.2955
 1392ntf    cn1 8716   1.450   5.509   6.523 -0.0644 -0.0715  0.3412
 1392ntf    sn2 8717   1.357   5.567   6.377  0.0534 -0.0329  0.2820
 1392ntf    nn3 8718   1.233   5.640   6.439  0.2968 -0.0302  0.7704
 1392ntf    sn2 8719   1.091   5.585   6.477  0.0358  0.3233  0.3077
 1392ntf    cn1 8720   1.007   5.618   6.319  0.3526 -0.2129  0.0201
 1392ntf    fn4 8721   1.487   5.609   6.602 -0.3993  0.1894  0.1712
 1392ntf    fn4 8722   1.384   5.425   6.601  0.0547 -0.4813  0.0040
 1392ntf    fn4 8723   1.564   5.450   6.492 -0.4233 -0.3744 -0.4460
 1392ntf    on5 8724   1.448   5.654   6.306 -0.3061  0.2516  0.1692
 1392ntf    on5 8725   1.325   5.444   6.310 -0.9590  0.4781 -0.1767
 1392ntf    on5 8726   1.028   5.666   6.578  0.1709  0.7770  0.0291
 1392ntf    on5 8727   1.084   5.442   6.495  0.4694  0.2555 -0.0518
 1392ntf    fn4 8728   1.001   5.746   6.285  0.4840 -0.1657  0.1735
 1392ntf    fn4 8729   1.072   5.558   6.221  0.3249 -0.5564  0.2093
 1392ntf    fn4 8730   0.880   5.579   6.325  0.3718 -0.2349  0.2828
 1393ntf    cn1 8731   2.064   1.911   4.750 -0.2135  0.0489  0.0562
 1393ntf    sn2 8732   1.931   1.813   4.673 -0.2510 -0.0239  0.2130
 1393ntf    nn3 8733   1.954   1.678   4.750  0.0468 -0.0669  0.0522
 1393ntf    sn2 8734   1.852   1.558   4.753 -0.0581  0.0269  0.2326
 1393ntf    cn1 8735   1.779   1.586   4.917 -0.0067  0.2039  0.2263
 1393ntf    fn4 8736   2.077   2.021   4.678 -0.4081 -0.0593 -0.1485
 1393ntf    fn4 8737   2.027   1.953   4.870 -0.0434 -0.0774  0.1533
 1393ntf    fn4 8738   2.182   1.852   4.743 -0.2555 -0.0168 -0.1153
 1393ntf    on5 8739   1.816   1.890   4.710  0.1094  0.7999 -0.3487
 1393ntf    on5 8740   1.974   1.809   4.535 -0.8767 -0.3651  0.0222
 1393ntf    on5 8741   1.901   1.424   4.776  0.4165  0.1121 -0.2637
 1393ntf    on5 8742   1.739   1.570   4.666  0.1178  1.1367  0.1337
 1393ntf    fn4 8743   1.715   1.701   4.920 -0.2779  0.0656 -0.2671
 1393ntf    fn4 8744   1.693   1.491   4.951 -0.1450  0.2790  0.0891
 1393ntf    fn4 8745   1.869   1.587   5.015  0.3035  0.1211 -0.0571
 1394ntf    cn1 8746   3.581   3.924   4.726 -0.1403  0.0367 -0.3164
 1394ntf    sn2 8747   3.700   3.786   4.735 -0.2729 -0.0601  0.0028
 1394ntf    nn3 8748   3.617   3.666   4.677 -0.2275 -0.3314  0.4943
 1394ntf    sn2 8749   3.584   3.623   4.529  0.1404  0.1833  0.2581
 1394ntf    cn1 8750   3.404   3.641   4.526  0.1279  0.0592  0.2502
 1394ntf    fn4 8751   3.519   3.920   4.610 -0.1360 -0.7176 -0.2984
 1394ntf    fn4 8752   3.482   3.935   4.813 -0.2053  0.5189 -0.4511
 1394ntf    fn4 8753   3.642   4.041   4.724 -0.0740 -0.0002 -0.4511
 1394ntf    on5 8754   3.815   3.823   4.656 -0.0981 -0.7813 -0.0827
 1394ntf    on5 8755   3.722   3.761   4.875 -0.2794  0.3880  0.0860
 1394ntf    on5 8756   3.612   3.483   4.509  0.1719  0.1856  0.2870
 1394ntf    on5 8757   3.623   3.713   4.423 -0.1786 -0.4182 -0.3758
 1394ntf    fn4 8758   3.356   3.553   4.613  0.3654  0.2379  0.5600
 1394ntf    fn4 8759   3.352   3.758   4.558 -0.7390 -0.0550 -0.6662
 1394ntf    fn4 8760   3.359   3.614   4.404 -0.5964  0.3919  0.4336
 1395ntf    cn1 8761   2.631   1.534   2.473 -0.0118 -0.4549 -0.1043
 1395ntf    sn2 8762   2.460   1.567   2.525  0.1814 -0.1516  0.3402
 1395ntf    nn3 8763   2.413   1.423   2.567  0.0579 -0.0333  0.6109
 1395ntf    sn2 8764   2.270   1.362   2.545  0.0749  0.1249  0.0392
 1395ntf    cn1 8765   2.293   1.217   2.438  0.1211 -0.2199  0.5162
 1395ntf    fn4 8766   2.686   1.432   2.536 -0.1061 -0.5874 -0.2332
 1395ntf    fn4 8767   2.631   1.509   2.343  0.2715 -0.0900 -0.1762
 1395ntf    fn4 8768   2.704   1.643   2.494 -0.4153 -0.1572 -0.2246
 1395ntf    on5 8769   2.471   1.651   2.642  0.1150 -0.3128  0.4623
 1395ntf    on5 8770   2.401   1.628   2.409  0.0767 -0.4758  0.2217
 1395ntf    on5 8771   2.181   1.433   2.456  0.2659 -0.3661 -0.5545
 1395ntf    on5 8772   2.215   1.313   2.669  0.4013  0.5974  0.3764
 1395ntf    fn4 8773   2.391   1.137   2.477  0.2582 -0.1426  0.3318
 1395ntf    fn4 8774   2.181   1.147   2.423  0.4084 -0.4932 -0.3948
 1395ntf    fn4 8775   2.334   1.257   2.319 -0.0067  0.2752  0.6364
 1396ntf    cn1 8776   6.393   4.568   3.372  0.0510  0.2050  0.4840
 1396ntf    sn2 8777   6.396   4.416   3.472  0.5166 -0.0949  0.0208
 1396ntf    nn3 8778   6.496   4.463   3.583  0.5296  0.4900 -0.2334
 1396ntf    sn2 8779   6.643   4.412   3.609  0.3608  0.0040 -0.2311
 1396ntf    cn1 8780   6.736   4.563   3.572  0.3764  0.0230 -0.1153
 1396ntf    fn4 8781   6.505   4.607   3.313 -0.1959  0.0186 -0.1128
 1396ntf    fn4 8782   6.307   4.559   3.272  0.6945  0.3755 -0.0958
 1396ntf    fn4 8783   6.351   4.673   3.440 -0.8003 -0.2274  0.6388
 1396ntf    on5 8784   6.261   4.413   3.522  0.7218 -0.0808  0.5779
 1396ntf    on5 8785   6.438   4.313   3.380 -0.1688  0.0565 -0.4665
 1396ntf    on5 8786   6.695   4.320   3.512  0.2901 -0.0474 -0.2206
 1396ntf    on5 8787   6.660   4.396   3.751 -0.3208 -0.7045 -0.2206
 1396ntf    fn4 8788   6.718   4.605   3.448  0.0134  0.4528  0.0793
 1396ntf    fn4 8789   6.706   4.666   3.649  0.0967 -0.3580  0.2866
 1396ntf    fn4 8790   6.866   4.552   3.597  0.5061  0.6931 -0.4664
 1397ntf    cn1 8791   2.413   5.819   2.227  0.4346  0.1477 -0.1781
 1397ntf    sn2 8792   2.301   5.952   2.281  0.1037 -0.2606  0.1488
 1397ntf    nn3 8793   2.177   5.910   2.193  0.3884 -0.0134 -0.3786
 1397ntf    sn2 8794   2.051   5.825   2.230  0.1120  0.3584 -0.4615
 1397ntf    cn1 8795   1.923   5.953   2.209 -0.0753  0.3233  0.4154
 1397ntf    fn4 8796   2.386   5.706   2.289 -0.0722  0.1449 -0.3976
 1397ntf    fn4 8797   2.395   5.792   2.098  0.0730 -0.5916  0.0234
 1397ntf    fn4 8798   2.542   5.842   2.246  0.4557 -0.3275  0.2448
 1397ntf    on5 8799   2.292   5.938   2.424 -0.5791 -0.0884  0.1241
 1397ntf    on5 8800   2.361   6.069   2.223 -0.0500 -0.3656 -0.2256
 1397ntf    on5 8801   2.039   5.778   2.366  0.2404 -0.5127 -0.7492
 1397ntf    on5 8802   2.028   5.731   2.124  0.2655  0.5223 -0.6389
 1397ntf    fn4 8803   1.920   6.001   2.086  0.2065  0.4977  0.4740
 1397ntf    fn4 8804   1.801   5.911   2.238 -0.2265  0.7926  0.4665
 1397ntf    fn4 8805   1.941   6.057   2.290 -0.5981  0.4213  0.4037
 1398ntf    cn1 8806   1.487   2.010   6.508  0.1090 -0.1012 -0.0395
 1398ntf    sn2 8807   1.458   1.975   6.332 -0.0952 -0.4111  0.0533
 1398ntf    nn3 8808   1.312   2.023   6.297 -0.2702 -0.9182  0.0909
 1398ntf    sn2 8809   1.214   1.948   6.200 -0.4223 -0.2864 -0.2500
 1398ntf    cn1 8810   1.107   2.092   6.173 -0.0302 -0.0127 -0.3574
 1398ntf    fn4 8811   1.580   1.934   6.563  0.3116  0.2848  0.1555
 1398ntf    fn4 8812   1.509   2.137   6.537 -0.0279 -0.1712  0.3726
 1398ntf    fn4 8813   1.375   1.988   6.575 -0.2365  0.0506 -0.5533
 1398ntf    on5 8814   1.558   2.054   6.263 -0.1390  0.0718  0.5385
 1398ntf    on5 8815   1.485   1.834   6.335  0.0529 -0.4069 -0.7299
 1398ntf    on5 8816   1.128   1.846   6.256 -0.0276 -0.4693  0.0296
 1398ntf    on5 8817   1.272   1.919   6.071 -0.0652  0.5960 -0.2922
 1398ntf    fn4 8818   1.016   2.106   6.268  0.7583  0.3239  0.3603
 1398ntf    fn4 8819   1.173   2.206   6.186 -0.1539  0.0096  0.1230
 1398ntf    fn4 8820   1.046   2.090   6.056  0.1420  0.3445 -0.4543
 1399ntf    cn1 8821   3.722   4.888   1.618 -0.2105  0.4247 -0.2756
 1399ntf    sn2 8822   3.594   5.010   1.660 -0.2090  0.3313  0.0038
 1399ntf    nn3 8823   3.578   4.957   1.807 -0.5477 -0.0291 -0.1576
 1399ntf    sn2 8824   3.480   4.854   1.873 -0.1530 -0.2997  0.0124
 1399ntf    cn1 8825   3.447   4.927   2.036 -0.0551  0.0973 -0.1454
 1399ntf    fn4 8826   3.839   4.904   1.679 -0.3306 -0.5679  0.2323
 1399ntf    fn4 8827   3.680   4.764   1.639 -0.0946  0.4136 -0.1069
 1399ntf    fn4 8828   3.749   4.890   1.488  0.2592 -0.5713 -0.2081
 1399ntf    on5 8829   3.659   5.137   1.647  0.2498  0.0573 -0.4173
 1399ntf    on5 8830   3.487   4.982   1.567 -0.5087  0.2629  0.3670
 1399ntf    on5 8831   3.528   4.724   1.911 -0.3838 -0.5297 -0.4677
 1399ntf    on5 8832   3.353   4.856   1.805  0.2088  0.6471 -0.6540
 1399ntf    fn4 8833   3.435   4.831   2.126  0.0824  0.4048  0.2025
 1399ntf    fn4 8834   3.549   4.997   2.083 -0.0339  0.2161 -0.3651
 1399ntf    fn4 8835   3.339   5.003   2.035 -0.0653  0.1079  1.0117
 1400ntf    cn1 8836   1.553   6.502   6.193 -0.0531 -0.4041  0.4986
 1400ntf    sn2 8837   1.627   6.359   6.110  0.0367  0.1771 -0.4396
 1400ntf    nn3 8838   1.669   6.423   5.973 -0.2823  0.8071 -0.2462
 1400ntf    sn2 8839   1.653   6.376   5.824 -0.5391 -0.3578  0.1365
 1400ntf    cn1 8840   1.825   6.333   5.782 -0.4080  0.0764  0.2265
 1400ntf    fn4 8841   1.633   6.608   6.199 -1.1710  0.5440 -0.7641
 1400ntf    fn4 8842   1.448   6.551   6.129  0.4929  0.2691  0.1026
 1400ntf    fn4 8843   1.512   6.463   6.313 -0.5941 -0.5417  0.2735
 1400ntf    on5 8844   1.740   6.344   6.198 -0.1172  0.4839 -0.1885
 1400ntf    on5 8845   1.516   6.267   6.122  0.1919 -0.0132 -0.4563
 1400ntf    on5 8846   1.609   6.485   5.741 -0.2206 -0.4232 -0.1197
 1400ntf    on5 8847   1.580   6.253   5.803  0.0275 -0.7046  0.1490
 1400ntf    fn4 8848   1.907   6.427   5.826 -0.1874 -0.3220  0.6809
 1400ntf    fn4 8849   1.874   6.219   5.830  0.2355  0.1106 -0.3328
 1400ntf    fn4 8850   1.851   6.333   5.653 -0.2349  0.3554  0.2607
 1401ntf    cn1 8851   1.257   3.174   0.536  0.0122  0.1662 -0.1681
 1401ntf    sn2 8852   1.393   3.146   0.654 -0.1008 -0.2701 -0.1400
 1401ntf    nn3 8853   1.390   3.286   0.725 -0.5355 -0.3469 -0.0062
 1401ntf    sn2 8854   1.340   3.336   0.865 -0.1248 -0.0543  0.0354
 1401ntf    cn1 8855   1.464   3.465   0.899 -0.0780 -0.0633 -0.0998
 1401ntf    fn4 8856   1.238   3.059   0.474 -0.6104  0.0331  0.2653
 1401ntf    fn4 8857   1.146   3.208   0.600 -0.0496 -0.4612  0.0672
 1401ntf    fn4 8858   1.274   3.272   0.449 -0.1127  0.2931 -0.0494
 1401ntf    on5 8859   1.346   3.041   0.740  0.2893 -0.2073  0.1509
 1401ntf    on5 8860   1.510   3.128   0.572  0.1254 -0.5187  0.2341
 1401ntf    on5 8861   1.339   3.237   0.970  0.4209 -0.3605 -0.2419
 1401ntf    on5 8862   1.224   3.419   0.845 -0.2413 -0.3293 -0.4408
 1401ntf    fn4 8863   1.462   3.569   0.818  0.3709 -0.0370 -0.0779
 1401ntf    fn4 8864   1.449   3.516   1.021  0.1617  0.5196 -0.3106
 1401ntf    fn4 8865   1.582   3.406   0.891 -0.1427 -0.3218  0.7002
 1402ntf    cn1 8866   6.715   1.337   0.600  0.3135 -0.2193  0.1173
 1402ntf    sn2 8867   6.653   1.503   0.641 -0.0360 -0.2630 -0.2285
 1402ntf    nn3 8868   6.785   1.587   0.627 -0.4158  0.4587  0.4302
 1402ntf    sn2 8869   6.837   1.684   0.515 -0.0830  0.0153  0.1965
 1402ntf    cn1 8870   6.862   1.826   0.626 -0.0705  0.2764 -0.1390
 1402ntf    fn4 8871   6.628   1.239   0.620 -0.2861  0.1976 -0.3936
 1402ntf    fn4 8872   6.756   1.327   0.474  0.0442  0.2565 -0.0110
 1402ntf    fn4 8873   6.824   1.302   0.666  0.6361 -0.2167 -0.4016
 1402ntf    on5 8874   6.547   1.535   0.548  0.2431 -0.0849 -0.4865
 1402ntf    on5 8875   6.617   1.480   0.779 -0.0292  0.1368 -0.1588
 1402ntf    on5 8876   6.738   1.725   0.418  0.2458 -0.1415 -0.2041
 1402ntf    on5 8877   6.964   1.646   0.459  0.0083  0.2380  0.2527
 1402ntf    fn4 8878   6.951   1.814   0.724  0.4437 -0.2869 -0.6613
 1402ntf    fn4 8879   6.890   1.938   0.561  0.4809 -0.0297 -0.4413
 1402ntf    fn4 8880   6.748   1.849   0.689  0.1829  0.4978  0.2433
 1403ntf    cn1 8881   0.670   2.578   6.285 -0.1411 -0.0043 -0.1138
 1403ntf    sn2 8882   0.611   2.643   6.125  0.1193 -0.3859 -0.3664
 1403ntf    nn3 8883   0.469   2.694   6.171  0.0638 -0.2654 -0.6694
 1403ntf    sn2 8884   0.326   2.641   6.136 -0.1974  0.1097 -0.1694
 1403ntf    cn1 8885   0.301   2.722   5.976 -0.0639 -0.0215 -0.2565
 1403ntf    fn4 8886   0.582   2.485   6.316 -0.1114 -0.1649 -0.4966
 1403ntf    fn4 8887   0.789   2.522   6.273  0.0050  0.2996 -0.1027
 1403ntf    fn4 8888   0.674   2.666   6.384 -0.6268  0.3706 -0.4188
 1403ntf    on5 8889   0.701   2.754   6.104 -0.0375 -0.2709 -0.4343
 1403ntf    on5 8890   0.626   2.532   6.035 -0.2798 -0.5336 -0.2530
 1403ntf    on5 8891   0.228   2.691   6.230  0.0881  0.8168 -0.2428
 1403ntf    on5 8892   0.305   2.502   6.103  0.6905  0.0601 -0.5455
 1403ntf    fn4 8893   0.175   2.713   5.936 -0.3284 -0.2279  0.6002
 1403ntf    fn4 8894   0.324   2.852   5.973  0.4831 -0.1083  0.0674
 1403ntf    fn4 8895   0.376   2.673   5.879  0.2196 -0.5935  0.2494
 1404ntf    cn1 8896   2.145   6.268   1.500 -0.2070  0.0801  0.2568
 1404ntf    sn2 8897   2.046   6.187   1.371  0.0128 -0.2474  0.2906
 1404ntf    nn3 8898   2.138   6.062   1.351  0.1954 -0.1404  0.4596
 1404ntf    sn2 8899   2.271   6.044   1.270 -0.2394 -0.0516 -0.2795
 1404ntf    cn1 8900   2.375   5.987   1.408 -0.3880 -0.0838 -0.1805
 1404ntf    fn4 8901   2.265   6.287   1.447 -0.1604 -0.3114  0.2187
 1404ntf    fn4 8902   2.105   6.381   1.555 -0.4359 -0.0036  0.2616
 1404ntf    fn4 8903   2.169   6.190   1.605  0.1920 -0.3745 -0.1640
 1404ntf    on5 8904   1.918   6.153   1.430  0.1016  0.0099  0.6384
 1404ntf    on5 8905   2.039   6.280   1.261 -0.7303  0.0449  0.5744
 1404ntf    on5 8906   2.332   6.168   1.231  0.6049 -0.1906  0.5535
 1404ntf    on5 8907   2.274   5.932   1.179 -0.0130  0.2884 -0.6921
 1404ntf    fn4 8908   2.389   6.093   1.487 -0.2376 -0.5786  0.4600
 1404ntf    fn4 8909   2.326   5.892   1.485 -0.3842  0.0197 -0.0484
 1404ntf    fn4 8910   2.492   5.942   1.367 -0.6402 -0.6765 -0.2564
 1405ntf    cn1 8911   1.345   0.105   0.031 -0.1511 -0.5473 -0.2393
 1405ntf    sn2 8912   1.492   0.064   0.129  0.1070  0.1940 -0.3095
 1405ntf    nn3 8913   1.475  -0.092   0.126  0.5074  0.1490 -0.3122
 1405ntf    sn2 8914   1.565  -0.202   0.059  0.4858 -0.0909  0.0462
 1405ntf    cn1 8915   1.434  -0.322   0.019  0.4198  0.0873 -0.2789
 1405ntf    fn4 8916   1.239   0.036   0.071 -0.3995 -0.0855 -0.0921
 1405ntf    fn4 8917   1.315   0.234   0.036 -0.2145 -0.5679 -0.0663
 1405ntf    fn4 8918   1.362   0.072  -0.095  0.6847  1.1953 -0.6095
 1405ntf    on5 8919   1.602   0.123   0.056 -0.1407  0.4813 -0.4496
 1405ntf    on5 8920   1.450   0.128   0.251  0.0246  0.1728 -0.3270
 1405ntf    on5 8921   1.639  -0.275   0.158  0.5641  0.6037  0.5029
 1405ntf    on5 8922   1.633  -0.173  -0.065  0.2795 -0.0337 -0.0543
 1405ntf    fn4 8923   1.378  -0.364   0.131 -0.5971 -0.0287 -0.8175
 1405ntf    fn4 8924   1.338  -0.260  -0.048  0.3905 -0.1912 -0.4975
 1405ntf    fn4 8925   1.480  -0.425  -0.051  0.1823 -0.2566  0.0666
 1406ntf    cn1 8926   4.858   4.305   3.667  0.2114  0.3344 -0.2588
 1406ntf    sn2 8927   4.737   4.371   3.785  0.3609  0.1290  0.0095
 1406ntf    nn3 8928   4.696   4.243   3.866 -0.4186  0.7648  0.6405
 1406ntf    sn2 8929   4.745   4.188   4.005 -0.0329  0.1786  0.2790
 1406ntf    cn1 8930   4.628   4.273   4.115 -0.2232  0.1838  0.0719
 1406ntf    fn4 8931   4.797   4.218   3.588  0.0713 -0.1180  0.3489
 1406ntf    fn4 8932   4.911   4.398   3.588  0.2384  0.5845  0.0542
 1406ntf    fn4 8933   4.958   4.238   3.721 -0.6557 -0.2264  0.6691
 1406ntf    on5 8934   4.811   4.466   3.863 -0.0886  0.3038  0.2206
 1406ntf    on5 8935   4.630   4.416   3.700  0.3254  0.2755  0.1318
 1406ntf    on5 8936   4.879   4.230   4.038 -0.0317  0.0794  0.4013
 1406ntf    on5 8937   4.712   4.051   4.034  0.3764 -0.0037 -0.1082
 1406ntf    fn4 8938   4.638   4.223   4.237  0.1158 -0.0724 -0.0598
 1406ntf    fn4 8939   4.664   4.400   4.123  0.0796  0.0799  0.3808
 1406ntf    fn4 8940   4.502   4.266   4.074 -0.3365 -0.2643  0.4956
 1407ntf    cn1 8941   0.478   6.821   0.182  0.0437 -0.3270 -0.1129
 1407ntf    sn2 8942   0.420   6.744   0.028 -0.1541 -0.1516 -0.1266
 1407ntf    nn3 8943   0.383   6.599   0.075 -0.5197  0.0294  0.1393
 1407ntf    sn2 8944   0.252   6.535   0.135 -0.2072 -0.3582  0.4095
 1407ntf    cn1 8945   0.329   6.455   0.279  0.0916 -0.1557  0.3626
 1407ntf    fn4 8946   0.494   6.952   0.175  0.6292 -0.3962 -0.1244
 1407ntf    fn4 8947   0.390   6.807   0.280  0.2494 -0.6897  0.0216
 1407ntf    fn4 8948   0.595   6.776   0.225 -0.0269 -0.4319 -0.0287
 1407ntf    on5 8949   0.312   6.825  -0.023  0.2610  0.2083 -0.4456
 1407ntf    on5 8950   0.533   6.738  -0.062  0.1165 -0.7432  0.2427
 1407ntf    on5 8951   0.202   6.423   0.060  0.1342 -0.7734  0.7945
 1407ntf    on5 8952   0.155   6.625   0.191  0.2172  0.3801 -0.0185
 1407ntf    fn4 8953   0.420   6.365   0.245  0.5042  0.3942 -0.0214
 1407ntf    fn4 8954   0.400   6.545   0.346  0.1495 -0.0966  0.2230
 1407ntf    fn4 8955   0.240   6.392   0.353  0.2869 -0.0133  0.7178
 1408ntf    cn1 8956   6.538   4.391   4.578  0.2784 -0.1136  0.0693
 1408ntf    sn2 8957   6.546   4.379   4.759 -0.0446  0.1945  0.1067
 1408ntf    nn3 8958   6.640   4.253   4.763 -0.4495 -0.1277 -0.3736
 1408ntf    sn2 8959   6.614   4.125   4.851  0.2618  0.1424  0.2463
 1408ntf    cn1 8960   6.691   3.999   4.745 -0.8028 -0.2484 -0.0775
 1408ntf    fn4 8961   6.634   4.475   4.542  0.5001 -0.2231  0.4032
 1408ntf    fn4 8962   6.565   4.276   4.519  0.2040  0.0862 -0.3594
 1408ntf    fn4 8963   6.432   4.451   4.526  0.8316  0.5534 -0.3127
 1408ntf    on5 8964   6.613   4.500   4.799  0.7222 -0.1835  0.0010
 1408ntf    on5 8965   6.405   4.360   4.781 -0.0562  0.1966  0.0346
 1408ntf    on5 8966   6.477   4.078   4.852  0.2549  0.1139 -0.8797
 1408ntf    on5 8967   6.692   4.117   4.972  0.2121  0.3683  0.2942
 1408ntf    fn4 8968   6.680   4.024   4.615  0.5214 -0.7488 -0.2969
 1408ntf    fn4 8969   6.820   3.993   4.774 -0.6956  0.3560 -0.4006
 1408ntf    fn4 8970   6.631   3.884   4.766 -0.7051 -0.3749 -0.4713
 1409ntf    cn1 8971   6.291   6.410   4.116 -0.1909 -0.3693  0.2299
 1409ntf    sn2 8972   6.273   6.589   4.093  0.2545 -0.3146  0.2883
 1409ntf    nn3 8973   6.420   6.638   4.069  0.1320  0.0373  0.2420
 1409ntf    sn2 8974   6.524   6.725   4.149  0.1093  0.3134 -0.0282
 1409ntf    cn1 8975   6.520   6.879   4.052  0.2137  0.3277 -0.0091
 1409ntf    fn4 8976   6.352   6.378   4.228 -0.2348 -0.0287  0.3511
 1409ntf    fn4 8977   6.179   6.339   4.109 -0.0399 -0.5728 -0.2051
 1409ntf    fn4 8978   6.365   6.358   4.018 -0.1352 -0.1601  0.1596
 1409ntf    on5 8979   6.184   6.612   3.982  0.2275 -0.0767  0.3599
 1409ntf    on5 8980   6.211   6.632   4.216 -0.8472 -0.3158 -0.2540
 1409ntf    on5 8981   6.654   6.674   4.112  0.4323  0.6011  0.6895
 1409ntf    on5 8982   6.491   6.763   4.284 -0.2608 -0.0175 -0.0226
 1409ntf    fn4 8983   6.404   6.941   4.062 -0.0552 -0.2686  0.7562
 1409ntf    fn4 8984   6.611   6.961   4.101  0.5474  0.1509 -0.3189
 1409ntf    fn4 8985   6.550   6.845   3.928 -0.4269 -0.3645  0.0181
 1410ntf    cn1 8986   3.322   2.047   6.100  0.2823  0.0534  0.0863
 1410ntf    sn2 8987   3.157   2.121   6.078  0.0794 -0.4278 -0.0369
 1410ntf    nn3 8988   3.148   2.195   6.216  0.3808 -0.0682 -0.2083
 1410ntf    sn2 8989   3.169   2.349   6.243  0.0032 -0.1119  0.3626
 1410ntf    cn1 8990   3.287   2.326   6.379 -0.2865 -0.1322  0.6106
 1410ntf    fn4 8991   3.410   2.134   6.147  0.0460 -0.0299  0.6951
 1410ntf    fn4 8992   3.331   1.965   6.204 -0.1913 -0.0923  0.0151
 1410ntf    fn4 8993   3.361   1.983   5.991  0.3655 -0.1492  0.2345
 1410ntf    on5 8994   3.172   2.196   5.956  0.4256 -0.1593  0.1669
 1410ntf    on5 8995   3.085   1.998   6.057  0.1726 -0.4620 -0.1631
 1410ntf    on5 8996   3.057   2.404   6.315  0.1093  0.4142  0.1290
 1410ntf    on5 8997   3.244   2.428   6.148 -0.8308  0.5723  0.2668
 1410ntf    fn4 8998   3.354   2.212   6.367  0.1318  0.2414 -0.8075
 1410ntf    fn4 8999   3.383   2.417   6.372 -0.1478 -0.3546 -0.5207
 1410ntf    fn4 9000   3.230   2.322   6.498 -0.6119  0.4488  0.4745
 1411ntf    cn1 9001   2.642   5.789   3.687  0.1181  0.2484 -0.0886
 1411ntf    sn2 9002   2.504   5.762   3.803  0.0779  0.0300 -0.1865
 1411ntf    nn3 9003   2.504   5.606   3.785  0.3235  0.0110 -0.0186
 1411ntf    sn2 9004   2.384   5.506   3.768  0.1791  0.1392  0.2328
 1411ntf    cn1 9005   2.369   5.497   3.587  0.5735 -0.1654  0.2119
 1411ntf    fn4 9006   2.660   5.918   3.665 -0.5281  0.3337 -0.1362
 1411ntf    fn4 9007   2.758   5.743   3.732 -0.1099  0.0904  0.3446
 1411ntf    fn4 9008   2.625   5.732   3.569 -0.6864 -0.2047  0.2317
 1411ntf    on5 9009   2.561   5.807   3.927 -0.4002 -0.9828  0.4064
 1411ntf    on5 9010   2.401   5.843   3.743  0.3960  0.5659 -0.0206
 1411ntf    on5 9011   2.261   5.564   3.814 -0.1229 -0.0587 -0.3140
 1411ntf    on5 9012   2.418   5.369   3.800 -0.4811 -0.0479  0.1415
 1411ntf    fn4 9013   2.444   5.404   3.531  0.0492 -0.5518  0.1400
 1411ntf    fn4 9014   2.249   5.462   3.544  0.7881  0.4254 -0.9212
 1411ntf    fn4 9015   2.404   5.605   3.519  0.7320  0.0923  0.6995
 1412ntf    cn1 9016   4.209   2.700   3.376  0.2249 -0.2961 -0.4134
 1412ntf    sn2 9017   4.334   2.655   3.499 -0.0802  0.1579  0.0692
 1412ntf    nn3 9018   4.255   2.616   3.629 -0.2377 -0.2097 -0.1350
 1412ntf    sn2 9019   4.301   2.545   3.762  0.0222  0.2767  0.0386
 1412ntf    cn1 9020   4.259   2.371   3.729  0.0978  0.2605  0.0282
 1412ntf    fn4 9021   4.260   2.738   3.260 -0.3510  0.8234 -0.3122
 1412ntf    fn4 9022   4.136   2.598   3.334 -0.0146  0.0191 -0.7784
 1412ntf    fn4 9023   4.135   2.802   3.417  0.4864 -0.1988 -0.1859
 1412ntf    on5 9024   4.396   2.539   3.440  0.1237  0.5594 -0.5099
 1412ntf    on5 9025   4.404   2.781   3.511 -0.3832  0.3820 -0.5135
 1412ntf    on5 9026   4.212   2.587   3.867 -0.3296  0.0804 -0.1786
 1412ntf    on5 9027   4.443   2.540   3.784  0.0796  0.2454 -0.3322
 1412ntf    fn4 9028   4.309   2.338   3.611 -0.0150  0.1381  0.0146
 1412ntf    fn4 9029   4.311   2.285   3.815 -0.0290 -0.0648 -0.2193
 1412ntf    fn4 9030   4.130   2.344   3.725  0.1641 -0.0657  0.0870
 1413ntf    cn1 9031   5.806   5.700   0.059  0.1403  0.1774 -0.1926
 1413ntf    sn2 9032   5.854   5.532   0.109  0.2179  0.1645 -0.3085
 1413ntf    nn3 9033   5.713   5.467   0.086  0.2442 -0.1845  0.4873
 1413ntf    sn2 9034   5.674   5.331   0.016 -0.2474 -0.0003  0.4015
 1413ntf    cn1 9035   5.594   5.242   0.153  0.0812 -0.0395  0.5700
 1413ntf    fn4 9036   5.700   5.747   0.122  0.1779 -0.0533  0.0459
 1413ntf    fn4 9037   5.903   5.787   0.083 -0.0549  0.2787  0.2294
 1413ntf    fn4 9038   5.778   5.712  -0.070  0.0071  0.6080 -0.1230
 1413ntf    on5 9039   5.953   5.509   0.006 -0.2255 -0.3131 -0.6336
 1413ntf    on5 9040   5.901   5.554   0.243 -0.0989  0.6027 -0.2677
 1413ntf    on5 9041   5.785   5.241  -0.003  0.1178  0.3308  0.9142
 1413ntf    on5 9042   5.573   5.329  -0.087  0.0007 -0.2366  0.1637
 1413ntf    fn4 9043   5.503   5.324   0.203  0.3399  0.2148  0.6293
 1413ntf    fn4 9044   5.542   5.126   0.116  0.2983 -0.0763  0.3733
 1413ntf    fn4 9045   5.678   5.199   0.246 -0.0978 -0.5515  0.5003
 1414ntf    cn1 9046   2.808   4.230   6.325 -0.2869  0.2993 -0.3610
 1414ntf    sn2 9047   2.929   4.362   6.356  0.0116  0.0162 -0.3241
 1414ntf    nn3 9048   3.008   4.296   6.475  0.0236 -0.4716 -0.6015
 1414ntf    sn2 9049   3.118   4.352   6.571 -0.5240 -0.0606 -0.2120
 1414ntf    cn1 9050   3.019   4.369   6.723 -0.1610  0.4016 -0.0244
 1414ntf    fn4 9051   2.733   4.247   6.217 -0.5630 -0.8776 -0.3698
 1414ntf    fn4 9052   2.860   4.108   6.320 -0.1836  0.3396 -0.2771
 1414ntf    fn4 9053   2.719   4.228   6.423  0.4444 -0.2110  0.3036
 1414ntf    on5 9054   3.020   4.373   6.245  0.0642 -0.1909 -0.3041
 1414ntf    on5 9055   2.849   4.475   6.393  0.0317  0.1659 -0.7367
 1414ntf    on5 9056   3.166   4.486   6.552 -0.2023 -0.1227  0.1392
 1414ntf    on5 9057   3.218   4.249   6.590 -0.4893 -0.0313 -0.2376
 1414ntf    fn4 9058   2.925   4.462   6.711 -0.4096  0.1814  0.2181
 1414ntf    fn4 9059   2.955   4.260   6.761 -0.3191  0.6692  0.4753
 1414ntf    fn4 9060   3.096   4.405   6.824 -0.0141  0.2965 -0.0983
 1415ntf    cn1 9061   1.231   2.206   4.519 -0.1697 -0.2477  0.2955
 1415ntf    sn2 9062   1.298   2.246   4.684  0.0607 -0.2296  0.1972
 1415ntf    nn3 9063   1.312   2.400   4.658 -0.0692 -0.2185  0.1937
 1415ntf    sn2 9064   1.263   2.527   4.737  0.1672 -0.1408  0.2151
 1415ntf    cn1 9065   1.357   2.655   4.648 -0.5496  0.0587 -0.2668
 1415ntf    fn4 9066   1.203   2.077   4.521  0.0925 -0.3100 -0.0573
 1415ntf    fn4 9067   1.125   2.281   4.493 -0.0225 -0.0951  0.1339
 1415ntf    fn4 9068   1.313   2.237   4.420  0.0314 -0.8234  0.2758
 1415ntf    on5 9069   1.201   2.212   4.785 -0.0969  0.3166  0.2346
 1415ntf    on5 9070   1.424   2.176   4.687  0.1225 -0.1192  0.1759
 1415ntf    on5 9071   1.313   2.525   4.872  0.1635  0.8659  0.2404
 1415ntf    on5 9072   1.127   2.563   4.708  0.3192  0.5120  0.2863
 1415ntf    fn4 9073   1.324   2.653   4.520 -0.4526 -0.0703 -0.2900
 1415ntf    fn4 9074   1.341   2.777   4.698  0.4251  0.0182  0.1753
 1415ntf    fn4 9075   1.487   2.629   4.654 -0.4723  0.3428 -0.6968
 1416ntf    cn1 9076   5.572   6.744   5.290 -0.0831  0.0413  0.2153
 1416ntf    sn2 9077   5.468   6.763   5.142 -0.0769 -0.3226  0.1620
 1416ntf    nn3 9078   5.478   6.615   5.092  0.2233 -0.3097  0.1810
 1416ntf    sn2 9079   5.376   6.495   5.102  0.0807 -0.2080 -0.0485
 1416ntf    cn1 9080   5.491   6.364   5.051  0.0149 -0.2982  0.0351
 1416ntf    fn4 9081   5.528   6.653   5.375 -0.4373  0.1739  0.1738
 1416ntf    fn4 9082   5.703   6.729   5.272  0.0117  0.4659  0.5354
 1416ntf    fn4 9083   5.560   6.857   5.357 -0.2057  0.2110 -0.0922
 1416ntf    on5 9084   5.345   6.806   5.204  0.0273 -0.4320  0.4484
 1416ntf    on5 9085   5.546   6.862   5.071 -0.4777 -0.1289 -0.0113
 1416ntf    on5 9086   5.276   6.498   4.998 -0.1260  0.5411  0.1653
 1416ntf    on5 9087   5.337   6.439   5.229  0.0486  0.2760  0.1587
 1416ntf    fn4 9088   5.563   6.391   4.944 -0.4326 -0.2028 -0.2453
 1416ntf    fn4 9089   5.578   6.336   5.146 -0.0544 -0.4424  0.0568
 1416ntf    fn4 9090   5.430   6.249   5.027 -0.0567 -0.3597  0.5135
 1417ntf    cn1 9091   1.036   5.555   1.234 -0.0111  0.0197  0.2133
 1417ntf    sn2 9092   0.975   5.431   1.116  0.2184 -0.0873  0.2065
 1417ntf    nn3 9093   1.047   5.475   0.983  0.1957  0.1395  0.2691
 1417ntf    sn2 9094   1.191   5.431   0.937  0.0403 -0.2172  0.1228
 1417ntf    cn1 9095   1.166   5.287   0.829  0.4553 -0.0146 -0.2449
 1417ntf    fn4 9096   1.163   5.540   1.271 -0.0319 -0.3950  0.1214
 1417ntf    fn4 9097   1.024   5.675   1.181 -0.1671  0.0700  0.3595
 1417ntf    fn4 9098   0.962   5.552   1.344 -0.1778 -0.2477  0.0937
 1417ntf    on5 9099   1.010   5.303   1.172  0.2696 -0.5269 -0.8029
 1417ntf    on5 9100   0.833   5.454   1.107  0.2913  0.3890  0.2217
 1417ntf    on5 9101   1.275   5.381   1.043  0.3640 -0.2793 -0.1614
 1417ntf    on5 9102   1.254   5.532   0.857 -0.4465  0.0931  0.1237
 1417ntf    fn4 9103   1.274   5.233   0.777  0.5854  0.3295 -0.3380
 1417ntf    fn4 9104   1.107   5.191   0.899  0.0518  0.0874 -0.4374
 1417ntf    fn4 9105   1.087   5.307   0.725  0.0916 -0.6887 -0.1023
 1418ntf    cn1 9106   6.537   4.818   5.629 -0.0219 -0.4274 -0.1688
 1418ntf    sn2 9107   6.533   4.667   5.731  0.0284 -0.2277  0.1318
 1418ntf    nn3 9108   6.573   4.554   5.630  0.1971 -0.1843  0.1501
 1418ntf    sn2 9109   6.482   4.471   5.532 -0.2094  0.1029  0.2831
 1418ntf    cn1 9110   6.600   4.432   5.399 -0.3620  0.2358  0.1078
 1418ntf    fn4 9111   6.522   4.926   5.704 -0.2770 -0.6804  0.1480
 1418ntf    fn4 9112   6.645   4.831   5.554 -0.1542 -0.2673 -0.3319
 1418ntf    fn4 9113   6.431   4.821   5.551  0.2773 -0.0584 -0.5624
 1418ntf    on5 9114   6.631   4.708   5.828  0.8760 -0.0635 -0.7706
 1418ntf    on5 9115   6.395   4.659   5.773 -0.0817  0.2554 -0.1239
 1418ntf    on5 9116   6.381   4.544   5.461  0.0020 -0.4287 -0.5752
 1418ntf    on5 9117   6.448   4.345   5.592 -0.1022 -0.1073 -0.0950
 1418ntf    fn4 9118   6.548   4.369   5.295  0.0969 -0.5333  0.3364
 1418ntf    fn4 9119   6.656   4.540   5.348  0.1336 -0.2603 -0.4016
 1418ntf    fn4 9120   6.697   4.353   5.442 -0.3129  0.4240  0.3448
 1419ntf    cn1 9121   3.927   1.941   6.596 -0.0485  0.1901 -0.0679
 1419ntf    sn2 9122   4.035   1.876   6.464 -0.0389 -0.0029  0.0356
 1419ntf    nn3 9123   3.933   1.832   6.353  0.0412 -0.6983  0.2357
 1419ntf    sn2 9124   3.915   1.881   6.205 -0.3114  0.0813  0.5335
 1419ntf    cn1 9125   3.798   2.018   6.226 -0.1059  0.3042  0.2268
 1419ntf    fn4 9126   3.830   1.857   6.627  0.1783 -0.5173 -1.1859
 1419ntf    fn4 9127   3.996   1.943   6.709  0.2327 -0.2109 -0.2297
 1419ntf    fn4 9128   3.877   2.062   6.574 -0.4336  0.1316  0.4796
 1419ntf    on5 9129   4.119   1.989   6.433 -0.2385  0.0969 -0.1414
 1419ntf    on5 9130   4.108   1.767   6.525  0.0713 -0.1532 -0.3619
 1419ntf    on5 9131   3.845   1.787   6.121 -0.5995  0.4915  0.3133
 1419ntf    on5 9132   4.037   1.932   6.147 -0.2122 -0.6196  0.1132
 1419ntf    fn4 9133   3.740   2.050   6.112  0.3358  0.3149  0.0022
 1419ntf    fn4 9134   3.700   1.999   6.312  0.3303  0.0280  0.6658
 1419ntf    fn4 9135   3.862   2.127   6.268  0.0854  0.2173  0.1619
 1420ntf    cn1 9136   6.471   2.249   6.398 -0.0357  0.1127  0.0693
 1420ntf    sn2 9137   6.439   2.245   6.577  0.2875  0.1376  0.1282
 1420ntf    nn3 9138   6.510   2.377   6.625 -0.4905  0.3951  0.6045
 1420ntf    sn2 9139   6.654   2.385   6.687 -0.0298  0.2930 -0.4149
 1420ntf    cn1 9140   6.620   2.370   6.865  0.2262 -0.5904 -0.4362
 1420ntf    fn4 9141   6.466   2.370   6.344 -0.4626  0.0371 -0.0606
 1420ntf    fn4 9142   6.589   2.203   6.363 -0.2870 -0.1447 -0.4427
 1420ntf    fn4 9143   6.392   2.167   6.332 -0.3488  0.1139  0.4339
 1420ntf    on5 9144   6.295   2.260   6.572  0.2892  0.5700  1.1055
 1420ntf    on5 9145   6.487   2.120   6.629  0.6664  0.4226  0.4687
 1420ntf    on5 9146   6.713   2.516   6.675  0.0950  0.3309  0.5360
 1420ntf    on5 9147   6.728   2.265   6.659 -0.3722 -0.1522  0.5223
 1420ntf    fn4 9148   6.589   2.491   6.910  0.3438 -0.8547  0.3671
 1420ntf    fn4 9149   6.514   2.296   6.891 -0.0286 -0.0049  0.2195
 1420ntf    fn4 9150   6.721   2.320   6.936 -0.0067 -0.0196  0.3164
 1421ntf    cn1 9151   4.497   0.966   0.619  0.2436  0.2802 -0.0461
 1421ntf    sn2 9152   4.606   0.831   0.565  0.1699  0.2270 -0.0635
 1421ntf    nn3 9153   4.689   0.803   0.696 -0.4368  0.6348  0.4135
 1421ntf    sn2 9154   4.648   0.702   0.809  0.0823  0.0152  0.0556
 1421ntf    cn1 9155   4.756   0.560   0.775  0.3373  0.1797  0.1800
 1421ntf    fn4 9156   4.566   1.072   0.659  0.4822  0.2084 -0.2680
 1421ntf    fn4 9157   4.416   1.011   0.525 -0.0205 -0.2206 -0.0596
 1421ntf    fn4 9158   4.427   0.933   0.727 -0.0616  0.1316 -0.2887
 1421ntf    on5 9159   4.522   0.726   0.513 -0.0532  0.6224 -0.5032
 1421ntf    on5 9160   4.691   0.888   0.463  0.1489 -0.1305 -0.2819
 1421ntf    on5 9161   4.517   0.643   0.799  0.0208  0.1348  0.1628
 1421ntf    on5 9162   4.688   0.745   0.940 -0.6119  0.2912  0.1811
 1421ntf    fn4 9163   4.720   0.499   0.664  0.3596  0.2616  0.1278
 1421ntf    fn4 9164   4.880   0.601   0.754  0.2238  0.1065 -0.6749
 1421ntf    fn4 9165   4.755   0.476   0.878  0.0756  0.1694  0.1689
 1422ntf    cn1 9166   1.274   2.779   2.175 -0.2349 -0.3510  0.1736
 1422ntf    sn2 9167   1.154   2.643   2.162 -0.3455 -0.2402  0.0328
 1422ntf    nn3 9168   1.058   2.698   2.051  0.2813  0.2143 -0.2936
 1422ntf    sn2 9169   0.933   2.792   2.063  0.0112 -0.2055  0.2853
 1422ntf    cn1 9170   0.933   2.827   1.884  0.1862 -0.4584  0.2351
 1422ntf    fn4 9171   1.359   2.764   2.276 -0.3749 -0.1298  0.3253
 1422ntf    fn4 9172   1.347   2.786   2.065  0.0108  0.1171  0.3665
 1422ntf    fn4 9173   1.211   2.894   2.192  0.1579 -0.1151  0.0390
 1422ntf    on5 9174   1.229   2.525   2.125 -0.1139  0.2120 -0.9779
 1422ntf    on5 9175   1.081   2.639   2.286 -0.6239  0.2034 -0.1176
 1422ntf    on5 9176   0.959   2.917   2.130  0.3138 -0.0730 -0.0740
 1422ntf    on5 9177   0.807   2.728   2.092 -0.0730 -0.1047  0.1471
 1422ntf    fn4 9178   0.838   2.759   1.821  0.3287 -0.8849  0.4743
 1422ntf    fn4 9179   0.918   2.957   1.865 -0.2921 -0.5690 -0.1738
 1422ntf    fn4 9180   1.047   2.811   1.820  0.0997  0.3241 -0.1227
 1423ntf    cn1 9181   5.828   2.065   1.869  0.0906  0.1362 -0.3421
 1423ntf    sn2 9182   5.920   2.144   2.004 -0.1015  0.0251 -0.1463
 1423ntf    nn3 9183   5.920   2.012   2.090  0.2905  0.1174 -0.0023
 1423ntf    sn2 9184   5.830   1.981   2.214  0.1160 -0.0735 -0.1738
 1423ntf    cn1 9185   5.928   2.069   2.341  0.4021 -0.0289 -0.4249
 1423ntf    fn4 9186   5.749   2.154   1.810 -0.6024 -0.3279 -0.1358
 1423ntf    fn4 9187   5.901   2.009   1.774  0.1351  0.0185 -0.2384
 1423ntf    fn4 9188   5.746   1.975   1.922  0.4324  0.0541  0.0470
 1423ntf    on5 9189   6.043   2.174   1.937  0.4164 -0.9888  0.3154
 1423ntf    on5 9190   5.835   2.250   2.052  0.1564  0.1797 -0.0302
 1423ntf    on5 9191   5.855   1.847   2.259 -0.1519 -0.1741 -0.3227
 1423ntf    on5 9192   5.698   2.038   2.230  0.1605 -0.1508  0.5360
 1423ntf    fn4 9193   6.056   2.038   2.349  0.2164 -0.7547 -0.1850
 1423ntf    fn4 9194   5.931   2.199   2.318 -0.4347  0.1364  0.3282
 1423ntf    fn4 9195   5.882   2.072   2.465  0.5557  0.0530 -0.3714
 1424ntf    cn1 9196   5.757   1.120   2.036  0.3590  0.2291  0.1098
 1424ntf    sn2 9197   5.879   0.985   2.030  0.4444  0.3094  0.0432
 1424ntf    nn3 9198   5.996   1.063   2.100 -0.2789  1.1170  0.3819
 1424ntf    sn2 9199   6.142   1.091   2.049  0.0082 -0.1458  0.4622
 1424ntf    cn1 9200   6.232   1.104   2.207  0.2246  0.1026  0.3191
 1424ntf    fn4 9201   5.789   1.213   2.124  0.4379  0.4422 -0.1417
 1424ntf    fn4 9202   5.744   1.186   1.922 -0.5617  0.3992  0.3039
 1424ntf    fn4 9203   5.639   1.071   2.070  0.4828 -0.1052  0.0665
 1424ntf    on5 9204   5.833   0.878   2.115 -0.1202  0.7164  0.2565
 1424ntf    on5 9205   5.878   0.966   1.887  0.1666 -0.3962  0.1381
 1424ntf    on5 9206   6.152   1.226   2.000 -0.2691 -0.3253 -0.0863
 1424ntf    on5 9207   6.211   0.982   1.986  0.2588  0.0309  0.4289
 1424ntf    fn4 9208   6.171   1.202   2.272 -0.1114  0.2125 -0.1598
 1424ntf    fn4 9209   6.215   0.998   2.284  0.4111 -0.1168  0.0568
 1424ntf    fn4 9210   6.360   1.135   2.191  0.1382  0.5240  0.4322
 1425ntf    cn1 9211   2.607   4.449   3.807  0.0003 -0.0759  0.2646
 1425ntf    sn2 9212   2.468   4.537   3.884 -0.1885  0.1004 -0.2776
 1425ntf    nn3 9213   2.487   4.682   3.828 -0.1699  0.1263 -0.2035
 1425ntf    sn2 9214   2.522   4.808   3.915 -0.0532 -0.0653  0.0271
 1425ntf    cn1 9215   2.557   4.934   3.789 -0.3940 -0.2268 -0.2320
 1425ntf    fn4 9216   2.594   4.435   3.676  0.0601 -0.3775  0.2882
 1425ntf    fn4 9217   2.727   4.498   3.835  0.2079  0.0671 -0.8425
 1425ntf    fn4 9218   2.613   4.327   3.859  0.0666 -0.2171 -0.0748
 1425ntf    on5 9219   2.352   4.471   3.828 -0.2286 -0.0907  0.0299
 1425ntf    on5 9220   2.490   4.510   4.023  0.3748  0.3009 -0.3281
 1425ntf    on5 9221   2.643   4.804   3.994 -0.1120 -0.1356  0.1139
 1425ntf    on5 9222   2.404   4.863   3.976  0.1631  0.1503  0.2551
 1425ntf    fn4 9223   2.628   5.033   3.840  0.0096 -0.6899  0.1183
 1425ntf    fn4 9224   2.615   4.900   3.675  0.1681  0.2659 -0.1007
 1425ntf    fn4 9225   2.446   4.996   3.752 -0.1147  0.3799 -0.0606
 1426ntf    cn1 9226   2.272   5.412   1.481  0.0672 -0.3530 -0.5210
 1426ntf    sn2 9227   2.097   5.459   1.465  0.1885  0.2026 -0.2393
 1426ntf    nn3 9228   2.101   5.571   1.355  0.1427  0.1943 -0.2495
 1426ntf    sn2 9229   2.063   5.573   1.203 -0.1714  0.2832 -0.1705
 1426ntf    cn1 9230   1.884   5.606   1.200 -0.1770  0.3050  0.3134
 1426ntf    fn4 9231   2.343   5.520   1.508 -0.0870 -0.2604 -0.4792
 1426ntf    fn4 9232   2.299   5.330   1.581 -1.2725 -0.1898 -0.0060
 1426ntf    fn4 9233   2.328   5.365   1.371  0.6318 -0.2581 -0.2723
 1426ntf    on5 9234   2.030   5.341   1.416  0.1143 -0.1390  0.6744
 1426ntf    on5 9235   2.062   5.503   1.598  0.5285  0.4374 -0.2290
 1426ntf    on5 9236   2.073   5.449   1.131  0.4958 -0.0308  0.4595
 1426ntf    on5 9237   2.122   5.682   1.128 -0.1481  0.4121  0.0357
 1426ntf    fn4 9238   1.844   5.723   1.248  0.0049  0.3751  0.2970
 1426ntf    fn4 9239   1.835   5.607   1.077 -0.1431  0.0801  0.2969
 1426ntf    fn4 9240   1.825   5.507   1.265  0.1833 -0.0337  0.1310
 1427ntf    cn1 9241   1.342   2.911   6.333 -0.0408 -0.1773 -0.1153
 1427ntf    sn2 9242   1.369   2.805   6.478  0.2913 -0.0941 -0.1150
 1427ntf    nn3 9243   1.244   2.711   6.464  0.0466  0.1730  0.2535
 1427ntf    sn2 9244   1.105   2.717   6.538 -0.1959 -0.0619 -0.1777
 1427ntf    cn1 9245   1.132   2.662   6.709  0.3185 -0.1079 -0.2701
 1427ntf    fn4 9246   1.360   2.836   6.226  0.0402 -0.3088 -0.0109
 1427ntf    fn4 9247   1.222   2.966   6.326 -0.0077 -0.0795  0.0734
 1427ntf    fn4 9248   1.428   3.011   6.323  0.1452 -0.3161  0.0752
 1427ntf    on5 9249   1.490   2.734   6.445  0.6963  0.5241  0.0292
 1427ntf    on5 9250   1.361   2.895   6.591 -0.5296  0.0953 -0.3202
 1427ntf    on5 9251   1.020   2.619   6.475  0.2541 -0.6090  0.0560
 1427ntf    on5 9252   1.054   2.851   6.555  0.0199 -0.0251  0.1873
 1427ntf    fn4 9253   1.166   2.535   6.700  0.5667 -0.0672  0.0847
 1427ntf    fn4 9254   1.237   2.719   6.765  0.3785 -0.2170 -0.2724
 1427ntf    fn4 9255   1.022   2.668   6.783  0.4711  0.0166 -0.0533
 1428ntf    cn1 9256   5.871   2.583   6.529  0.1436 -0.0960 -0.0689
 1428ntf    sn2 9257   5.814   2.718   6.421 -0.1947 -0.0255  0.1935
 1428ntf    nn3 9258   5.756   2.638   6.299  0.0528  0.0570  0.0213
 1428ntf    sn2 9259   5.826   2.604   6.162 -0.2428  0.0150 -0.1193
 1428ntf    cn1 9260   5.763   2.750   6.074  0.1718  0.2723  0.0133
 1428ntf    fn4 9261   5.933   2.616   6.641 -0.0288  0.0464 -0.0153
 1428ntf    fn4 9262   5.787   2.488   6.565  0.3304 -0.5573 -0.8314
 1428ntf    fn4 9263   5.953   2.510   6.456  0.2984 -0.0071  0.0158
 1428ntf    on5 9264   5.712   2.777   6.504 -0.4497  0.6372 -0.5833
 1428ntf    on5 9265   5.929   2.803   6.401  0.1124 -0.4078  0.3008
 1428ntf    on5 9266   5.768   2.490   6.094 -1.0079  0.5892 -0.4367
 1428ntf    on5 9267   5.969   2.609   6.152 -0.2098 -0.4391  0.0680
 1428ntf    fn4 9268   5.806   2.772   5.951  0.1302  0.1343 -0.0255
 1428ntf    fn4 9269   5.633   2.763   6.060  0.1573  0.1073 -0.0032
 1428ntf    fn4 9270   5.795   2.859   6.142 -1.0376  0.4286  0.3570
 1429ntf    cn1 9271   4.477   3.581   5.996  0.1614  0.3249 -0.0531
 1429ntf    sn2 9272   4.307   3.517   5.980  0.2951 -0.0132 -0.1442
 1429ntf    nn3 9273   4.333   3.376   6.044 -0.0966 -0.2059 -0.4057
 1429ntf    sn2 9274   4.261   3.309   6.166  0.0904 -0.1208 -0.2474
 1429ntf    cn1 9275   4.373   3.172   6.205  0.2079  0.0992  0.1911
 1429ntf    fn4 9276   4.482   3.708   5.962  0.5890  0.2867 -0.1383
 1429ntf    fn4 9277   4.526   3.566   6.118 -0.1565  1.0651  0.1718
 1429ntf    fn4 9278   4.564   3.534   5.909  0.3548 -0.5880  0.6130
 1429ntf    on5 9279   4.222   3.620   6.036 -0.6678 -0.4830 -0.7224
 1429ntf    on5 9280   4.304   3.493   5.838 -0.2637 -0.2859 -0.0904
 1429ntf    on5 9281   4.139   3.240   6.129  0.0866 -0.4203  0.3142
 1429ntf    on5 9282   4.257   3.394   6.283  0.1108 -0.0170 -0.3212
 1429ntf    fn4 9283   4.364   3.070   6.122  0.1192  0.1633  0.1234
 1429ntf    fn4 9284   4.501   3.208   6.208  0.0893  0.5686 -0.2552
 1429ntf    fn4 9285   4.351   3.118   6.324 -0.3029 -0.3518 -0.1013
 1430ntf    cn1 9286   1.536   4.308   1.184 -0.2426 -0.5332 -0.1019
 1430ntf    sn2 9287   1.690   4.380   1.117 -0.3067 -0.1374  0.1669
 1430ntf    nn3 9288   1.620   4.487   1.026 -0.1429 -0.3372 -0.1968
 1430ntf    sn2 9289   1.612   4.493   0.869  0.0133  0.2049 -0.1857
 1430ntf    cn1 9290   1.582   4.670   0.838 -0.1027  0.1240 -0.5377
 1430ntf    fn4 9291   1.475   4.392   1.266  0.2941 -0.0146 -0.2183
 1430ntf    fn4 9292   1.470   4.294   1.071  0.3427  0.4670 -0.5816
 1430ntf    fn4 9293   1.562   4.191   1.240 -0.3985 -0.7040 -0.3866
 1430ntf    on5 9294   1.751   4.447   1.229 -0.4225  0.0710  0.1046
 1430ntf    on5 9295   1.754   4.266   1.057  0.3557  0.2344  0.1665
 1430ntf    on5 9296   1.492   4.430   0.822  0.1640  0.0049 -0.3000
 1430ntf    on5 9297   1.733   4.474   0.793  0.0871 -0.2241  0.0378
 1430ntf    fn4 9298   1.457   4.709   0.858 -0.0059  0.4074 -0.4869
 1430ntf    fn4 9299   1.656   4.740   0.922  0.0098 -0.5068 -0.0959
 1430ntf    fn4 9300   1.609   4.709   0.715  0.7594  0.9209 -0.1088
 1431ntf    cn1 9301   2.742   1.594   0.417  0.1312  0.1547  0.1406
 1431ntf    sn2 9302   2.625   1.673   0.302  0.0557 -0.0259  0.0924
 1431ntf    nn3 9303   2.586   1.538   0.232 -0.0716  0.1197 -0.1188
 1431ntf    sn2 9304   2.460   1.449   0.259 -0.1265  0.2019 -0.1050
 1431ntf    cn1 9305   2.353   1.491   0.117 -0.0257  0.4755 -0.0994
 1431ntf    fn4 9306   2.862   1.567   0.368  0.0521 -0.5352  0.3135
 1431ntf    fn4 9307   2.764   1.656   0.531  0.6764  0.1910  0.0194
 1431ntf    fn4 9308   2.686   1.481   0.457  0.1133  0.2474  0.3764
 1431ntf    on5 9309   2.524   1.739   0.381  0.1227 -0.0218  0.1752
 1431ntf    on5 9310   2.713   1.758   0.227  0.4075 -0.4777 -0.0124
 1431ntf    on5 9311   2.388   1.472   0.382  0.1664 -0.2269  0.1506
 1431ntf    on5 9312   2.490   1.311   0.230  0.1314  0.3876 -0.7416
 1431ntf    fn4 9313   2.267   1.394   0.094 -0.1311  0.4678  0.3183
 1431ntf    fn4 9314   2.296   1.608   0.142 -0.3468  0.2418  0.2659
 1431ntf    fn4 9315   2.424   1.505   0.007 -0.2221  0.5264 -0.2191
 1432ntf    cn1 9316   3.863   4.289   5.173 -0.3356 -0.1832  0.3976
 1432ntf    sn2 9317   3.946   4.277   5.334 -0.0135  0.0613  0.2524
 1432ntf    nn3 9318   3.930   4.126   5.377  0.7051 -0.1496 -0.2072
 1432ntf    sn2 9319   4.021   4.042   5.473  0.1993  0.0482  0.4457
 1432ntf    cn1 9320   4.089   3.928   5.349 -0.3665  0.2338 -0.0365
 1432ntf    fn4 9321   3.867   4.404   5.108  0.1975 -0.4733 -0.0888
 1432ntf    fn4 9322   3.919   4.210   5.083  0.2290 -0.1069  0.6798
 1432ntf    fn4 9323   3.743   4.237   5.195 -0.5629  0.1632 -0.0119
 1432ntf    on5 9324   4.079   4.318   5.296  0.1477 -0.6676 -0.0007
 1432ntf    on5 9325   3.866   4.370   5.410 -0.2480 -0.1736  0.2947
 1432ntf    on5 9326   3.955   3.956   5.569 -0.4999  0.1620  0.0729
 1432ntf    on5 9327   4.137   4.109   5.526  0.0170  0.5695  0.1941
 1432ntf    fn4 9328   4.151   3.981   5.245  0.2527  0.1251  0.2759
 1432ntf    fn4 9329   4.180   3.850   5.403 -0.2490  0.2355 -0.2317
 1432ntf    fn4 9330   3.994   3.854   5.294 -0.3096  0.0799  0.0723
 1433ntf    cn1 9331   2.883   0.415   1.834 -0.1835 -0.0844 -0.3536
 1433ntf    sn2 9332   2.860   0.384   1.657  0.1115 -0.4229 -0.3317
 1433ntf    nn3 9333   2.982   0.296   1.612 -0.0735 -0.4593 -0.7724
 1433ntf    sn2 9334   3.123   0.333   1.554  0.1986 -0.3196 -0.0356
 1433ntf    cn1 9335   3.229   0.218   1.647 -0.1015 -0.1489  0.5205
 1433ntf    fn4 9336   2.983   0.500   1.852 -0.4899  0.2811 -0.3578
 1433ntf    fn4 9337   2.780   0.480   1.887 -0.0640 -0.4603  0.3471
 1433ntf    fn4 9338   2.899   0.306   1.906  0.4046  0.3318  0.1543
 1433ntf    on5 9339   2.732   0.319   1.672 -0.1593  0.0203 -0.7179
 1433ntf    on5 9340   2.847   0.511   1.591  0.2931 -0.1754  0.1088
 1433ntf    on5 9341   3.178   0.463   1.584  0.4438 -0.4823  0.2298
 1433ntf    on5 9342   3.125   0.293   1.415 -0.4052  0.1398 -0.1829
 1433ntf    fn4 9343   3.158   0.109   1.671 -0.1873 -0.3259 -0.4956
 1433ntf    fn4 9344   3.339   0.192   1.578 -0.5319  0.1400 -0.2929
 1433ntf    fn4 9345   3.266   0.267   1.764  0.2421 -0.0401  0.3677
 1434ntf    cn1 9346   2.179   6.357   5.679 -0.2711  0.0373 -0.0851
 1434ntf    sn2 9347   2.275   6.511   5.685 -0.1009 -0.0758  0.1024
 1434ntf    nn3 9348   2.340   6.500   5.828  0.1140 -0.4678 -0.0249
 1434ntf    sn2 9349   2.383   6.621   5.917  0.1419 -0.3050 -0.2581
 1434ntf    cn1 9350   2.229   6.668   6.000  0.1469  0.3250 -0.6025
 1434ntf    fn4 9351   2.106   6.361   5.789 -0.3877  0.1973 -0.1676
 1434ntf    fn4 9352   2.090   6.353   5.581 -0.2954  0.3806 -0.0796
 1434ntf    fn4 9353   2.249   6.245   5.689  0.0386  0.2701  0.4021
 1434ntf    on5 9354   2.366   6.495   5.574  0.2214 -0.1828  0.3800
 1434ntf    on5 9355   2.174   6.614   5.685 -0.3995 -0.3650  0.5663
 1434ntf    on5 9356   2.419   6.743   5.849 -0.2792  0.3161  0.6148
 1434ntf    on5 9357   2.464   6.579   6.029  0.0301 -0.1990 -0.1369
 1434ntf    fn4 9358   2.229   6.614   6.121  0.0282  0.1632 -0.6754
 1434ntf    fn4 9359   2.221   6.800   6.008  0.3041  0.3048 -0.0676
 1434ntf    fn4 9360   2.125   6.618   5.934 -0.2198 -0.0737  0.2594
 1435ntf    cn1 9361   3.344   6.521   0.327  0.2347  0.3785  0.3262
 1435ntf    sn2 9362   3.219   6.623   0.411 -0.0317  0.2259  0.1171
 1435ntf    nn3 9363   3.163   6.699   0.286  0.5260 -0.4817 -0.5735
 1435ntf    sn2 9364   3.214   6.840   0.240  0.3698 -0.1978  0.1213
 1435ntf    cn1 9365   3.208   6.808   0.062  0.0239  0.1029  0.0765
 1435ntf    fn4 9366   3.438   6.593   0.268  0.0825 -0.0456 -0.4433
 1435ntf    fn4 9367   3.407   6.439   0.410  0.4094  0.1456 -0.0339
 1435ntf    fn4 9368   3.298   6.452   0.224  0.3284  0.3182  0.3250
 1435ntf    on5 9369   3.118   6.526   0.445 -0.0061  0.1741  0.0449
 1435ntf    on5 9370   3.302   6.684   0.511 -0.3047  0.3453  0.2718
 1435ntf    on5 9371   3.348   6.873   0.279  0.5982 -0.4360 -0.4599
 1435ntf    on5 9372   3.123   6.952   0.251  0.5256 -0.0929  0.3598
 1435ntf    fn4 9373   3.271   6.700   0.017 -0.1368 -0.2256  0.6296
 1435ntf    fn4 9374   3.082   6.789   0.025  0.0188 -0.3874  0.3387
 1435ntf    fn4 9375   3.258   6.904  -0.014 -0.1580  0.4587  0.4039
 1436ntf    cn1 9376   6.825   5.467   3.457  0.1601 -0.1010  0.0617
 1436ntf    sn2 9377   6.924   5.582   3.358  0.3966 -0.3639 -0.0061
 1436ntf    nn3 9378   7.052   5.493   3.335 -0.1596 -1.3390  0.6023
 1436ntf    sn2 9379   7.179   5.489   3.427  0.1609  0.0513  0.2529
 1436ntf    cn1 9380   7.299   5.577   3.323  0.2443  0.0334  0.3352
 1436ntf    fn4 9381   6.878   5.442   3.576 -0.1657  0.2644  0.2889
 1436ntf    fn4 9382   6.703   5.517   3.472  0.2225  0.1857 -0.3883
 1436ntf    fn4 9383   6.806   5.359   3.384  0.1003 -0.3100  0.3810
 1436ntf    on5 9384   6.853   5.585   3.233 -0.1957 -0.1301  0.3354
 1436ntf    on5 9385   6.938   5.703   3.435 -0.6849 -0.0193 -0.3405
 1436ntf    on5 9386   7.237   5.357   3.428  0.6520  0.2524 -0.5143
 1436ntf    on5 9387   7.170   5.553   3.556 -0.2961 -0.0697  0.2821
 1436ntf    fn4 9388   7.299   5.522   3.203 -0.2996 -0.2100  0.4446
 1436ntf    fn4 9389   7.276   5.704   3.297  0.1772 -0.1114 -0.3168
 1436ntf    fn4 9390   7.422   5.574   3.373  0.5385  0.3809 -0.3678
 1437ntf    cn1 9391   2.105   2.315   4.841 -0.3461  0.4775 -0.4743
 1437ntf    sn2 9392   2.046   2.484   4.874 -0.4571  0.3777 -0.1625
 1437ntf    nn3 9393   2.124   2.519   5.006 -0.5776 -0.7735  0.2234
 1437ntf    sn2 9394   2.077   2.617   5.119  0.2099 -0.1700  0.0332
 1437ntf    cn1 9395   1.969   2.507   5.216  0.2870 -0.1722  0.1164
 1437ntf    fn4 9396   2.090   2.241   4.949 -0.3146 -0.0118 -0.8035
 1437ntf    fn4 9397   2.051   2.258   4.734  0.2462 -0.4138 -0.3118
 1437ntf    fn4 9398   2.234   2.307   4.813 -0.2824  0.0094 -0.0352
 1437ntf    on5 9399   2.096   2.550   4.756 -0.3260 -0.1141 -0.3844
 1437ntf    on5 9400   1.903   2.469   4.887 -0.4545 -0.3970 -0.9313
 1437ntf    on5 9401   1.986   2.724   5.086 -0.7372 -0.9565  0.0460
 1437ntf    on5 9402   2.178   2.650   5.217 -0.5497  0.2585  0.6887
 1437ntf    fn4 9403   1.925   2.571   5.323 -0.0665  0.2461 -0.2759
 1437ntf    fn4 9404   1.863   2.471   5.146 -0.0552  0.7896  0.1248
 1437ntf    fn4 9405   2.033   2.398   5.254  0.1966 -0.4431 -0.4866
 1438ntf    cn1 9406   0.827   3.637   5.538 -0.1068 -0.0143 -0.1324
 1438ntf    sn2 9407   0.845   3.815   5.570 -0.1523  0.0473 -0.4451
 1438ntf    nn3 9408   0.693   3.857   5.566 -0.2387 -0.2387 -0.2224
 1438ntf    sn2 9409   0.584   3.850   5.678  0.1487  0.1621  0.1859
 1438ntf    cn1 9410   0.470   3.974   5.607 -0.4211 -0.4586  0.0063
 1438ntf    fn4 9411   0.729   3.606   5.455 -0.5699 -0.1370  0.4479
 1438ntf    fn4 9412   0.935   3.574   5.496 -0.0897 -0.2375  0.2415
 1438ntf    fn4 9413   0.798   3.573   5.650  0.0535  0.3717  0.1317
 1438ntf    on5 9414   0.907   3.825   5.700 -0.6307  0.3222 -0.2359
 1438ntf    on5 9415   0.923   3.855   5.456  0.0801 -0.3238 -0.4183
 1438ntf    on5 9416   0.623   3.898   5.809 -0.1597 -0.8482  0.6584
 1438ntf    on5 9417   0.512   3.725   5.676  0.0316  0.2290  0.1617
 1438ntf    fn4 9418   0.520   4.096   5.610 -0.2943 -0.5240  0.6821
 1438ntf    fn4 9419   0.442   3.941   5.482 -0.0967  0.0323 -0.1967
 1438ntf    fn4 9420   0.353   3.986   5.667 -0.3733  0.0022  0.0062
 1439ntf    cn1 9421   6.334   3.314   6.320  0.1697 -0.4696 -0.1342
 1439ntf    sn2 9422   6.439   3.237   6.447  0.2730 -0.0226  0.0564
 1439ntf    nn3 9423   6.579   3.245   6.377  0.4031 -0.1952  0.2937
 1439ntf    sn2 9424   6.646   3.135   6.286  0.0710  0.0277 -0.2288
 1439ntf    cn1 9425   6.725   3.233   6.156  0.5572 -0.2216 -0.1246
 1439ntf    fn4 9426   6.375   3.439   6.300  0.7742 -0.6032  0.2323
 1439ntf    fn4 9427   6.345   3.262   6.199 -0.0701  0.3770 -0.5314
 1439ntf    fn4 9428   6.204   3.324   6.344  0.2846  0.5714  0.1460
 1439ntf    on5 9429   6.418   3.323   6.561  0.2449  0.2449 -0.1502
 1439ntf    on5 9430   6.374   3.108   6.456  0.4001 -0.0963 -0.0790
 1439ntf    on5 9431   6.549   3.058   6.212 -0.4372  0.2315  0.2088
 1439ntf    on5 9432   6.756   3.068   6.349 -0.0178 -0.0844 -0.1926
 1439ntf    fn4 9433   6.818   3.171   6.085  0.3365 -0.0543 -0.5643
 1439ntf    fn4 9434   6.638   3.281   6.068  0.5309 -0.1654 -0.0679
 1439ntf    fn4 9435   6.790   3.335   6.209 -0.0307 -0.0865  0.3482
 1440ntf    cn1 9436   3.024   5.126   0.064  0.1494 -0.2488 -0.2419
 1440ntf    sn2 9437   2.981   5.050   0.224 -0.0069 -0.0662 -0.1974
 1440ntf    nn3 9438   2.834   5.102   0.237  0.1344  0.3045 -0.0624
 1440ntf    sn2 9439   2.776   5.248   0.229  0.0362  0.2918  0.3791
 1440ntf    cn1 9440   2.693   5.243   0.391 -0.1863  0.1553  0.2618
 1440ntf    fn4 9441   3.080   5.245   0.077 -0.1355 -0.1231 -0.1569
 1440ntf    fn4 9442   3.110   5.054  -0.006  0.4904  0.0125 -0.0937
 1440ntf    fn4 9443   2.921   5.145  -0.016 -0.3347  0.1988  0.4820
 1440ntf    on5 9444   2.976   4.909   0.195  0.3048 -0.2489  0.6200
 1440ntf    on5 9445   3.078   5.097   0.320 -0.2513  0.1709 -0.0648
 1440ntf    on5 9446   2.664   5.262   0.138  0.1809  0.3551  0.2108
 1440ntf    on5 9447   2.874   5.352   0.249  0.2390  0.1400  0.1740
 1440ntf    fn4 9448   2.775   5.226   0.494 -0.0859 -0.0740  0.1451
 1440ntf    fn4 9449   2.630   5.357   0.411  0.0377  0.4411 -0.5942
 1440ntf    fn4 9450   2.601   5.149   0.406  0.4904 -0.5867 -0.1213
 1441ntf    cn1 9451   5.172   5.735   0.189  0.1762 -0.0509 -0.0946
 1441ntf    sn2 9452   5.071   5.815   0.318 -0.0054  0.0367 -0.2923
 1441ntf    nn3 9453   4.924   5.784   0.270 -0.3254  0.3901  0.4524
 1441ntf    sn2 9454   4.830   5.850   0.164  0.0145  0.2911  0.0883
 1441ntf    cn1 9455   4.721   5.927   0.287 -0.2144 -0.0955  0.1287
 1441ntf    fn4 9456   5.302   5.762   0.197  0.0731  0.3896  0.1362
 1441ntf    fn4 9457   5.161   5.603   0.191  0.3515 -0.0674 -0.2173
 1441ntf    fn4 9458   5.133   5.778   0.071  0.4390  0.6208  0.0536
 1441ntf    on5 9459   5.109   5.743   0.437  0.4120  0.0771 -0.4017
 1441ntf    on5 9460   5.114   5.952   0.310  0.7352 -0.1978 -0.4414
 1441ntf    on5 9461   4.754   5.756   0.085 -0.0046  0.0353  0.4082
 1441ntf    on5 9462   4.886   5.965   0.097 -0.1335  0.6447  0.5715
 1441ntf    fn4 9463   4.791   6.010   0.363  0.0963 -0.1280 -0.1177
 1441ntf    fn4 9464   4.618   5.992   0.238  0.0185  0.0092 -0.2256
 1441ntf    fn4 9465   4.672   5.839   0.373  0.0258 -0.0490  0.3151
 1442ntf    cn1 9466   6.300   6.200   4.650  0.0885  0.2462 -0.1781
 1442ntf    sn2 9467   6.281   6.094   4.797 -0.0003  0.1630 -0.2503
 1442ntf    nn3 9468   6.193   6.195   4.878 -0.0035 -0.2693  0.2885
 1442ntf    sn2 9469   6.059   6.170   4.956 -0.3064  0.0158 -0.1393
 1442ntf    cn1 9470   5.977   6.327   4.914 -0.2609  0.0035 -0.2757
 1442ntf    fn4 9471   6.374   6.306   4.681 -0.2765  0.3869  0.2145
 1442ntf    fn4 9472   6.346   6.137   4.543  0.0132  0.2594 -0.2186
 1442ntf    fn4 9473   6.181   6.243   4.612 -0.2254 -0.1247  0.3770
 1442ntf    on5 9474   6.208   5.979   4.750 -0.3039  0.2088  0.1048
 1442ntf    on5 9475   6.413   6.080   4.852 -0.1833  0.1252  0.1782
 1442ntf    on5 9476   6.070   6.177   5.099  0.4025  0.0753 -0.1941
 1442ntf    on5 9477   5.977   6.061   4.908 -0.7737  0.2303  0.1591
 1442ntf    fn4 9478   5.855   6.321   4.963  0.0180  0.2175  0.4547
 1442ntf    fn4 9479   6.026   6.435   4.972  0.0367  0.1591 -0.8088
 1442ntf    fn4 9480   5.978   6.359   4.785 -0.0423 -0.1528 -0.3133
 1443ntf    cn1 9481   4.466   1.038   2.652  0.1643 -0.1884 -0.1038
 1443ntf    sn2 9482   4.482   1.208   2.589  0.2687 -0.1793 -0.0528
 1443ntf    nn3 9483   4.474   1.295   2.720 -0.0304  0.3397 -0.4129
 1443ntf    sn2 9484   4.347   1.366   2.780  0.0091 -0.0423  0.1275
 1443ntf    cn1 9485   4.361   1.526   2.695 -0.3352  0.0402  0.2275
 1443ntf    fn4 9486   4.550   1.018   2.752  0.1374  0.0646 -0.0290
 1443ntf    fn4 9487   4.359   1.007   2.724  0.0873 -0.1805 -0.2150
 1443ntf    fn4 9488   4.476   0.947   2.557 -0.4720  0.1152 -0.4704
 1443ntf    on5 9489   4.613   1.218   2.530  0.2680  0.4884  0.0487
 1443ntf    on5 9490   4.375   1.222   2.494 -0.0030  0.5329  0.3468
 1443ntf    on5 9491   4.360   1.383   2.923  0.6762 -0.0027  0.0657
 1443ntf    on5 9492   4.218   1.310   2.747  0.0652 -0.1714  0.1237
 1443ntf    fn4 9493   4.473   1.581   2.738  0.0861 -0.6136 -0.0089
 1443ntf    fn4 9494   4.367   1.513   2.563 -0.4993 -0.3610  0.2565
 1443ntf    fn4 9495   4.266   1.612   2.729 -0.1470  0.1278  0.5253
 1444ntf    cn1 9496   5.130   2.506   2.291  0.5855  0.3026 -0.1344
 1444ntf    sn2 9497   4.984   2.577   2.375  0.5703  0.2476 -0.1143
 1444ntf    nn3 9498   4.964   2.476   2.493  0.1612  0.2081 -0.2167
 1444ntf    sn2 9499   5.041   2.475   2.630  0.2066 -0.1747 -0.2428
 1444ntf    cn1 9500   4.916   2.560   2.731 -0.1150 -0.2797 -0.5513
 1444ntf    fn4 9501   5.121   2.374   2.287 -0.6504  0.3594  0.3018
 1444ntf    fn4 9502   5.138   2.550   2.167  0.2229  0.5271 -0.0804
 1444ntf    fn4 9503   5.239   2.542   2.357  0.7576 -0.2489 -0.1142
 1444ntf    on5 9504   5.032   2.711   2.396 -0.0272  0.5387 -0.5944
 1444ntf    on5 9505   4.883   2.559   2.273 -0.0650  0.6287  0.4435
 1444ntf    on5 9506   5.164   2.548   2.648  0.1469 -0.2330  0.4052
 1444ntf    on5 9507   5.036   2.344   2.690 -0.1755 -0.3596 -0.6686
 1444ntf    fn4 9508   4.913   2.689   2.704  0.2047 -0.2181 -0.2961
 1444ntf    fn4 9509   4.799   2.510   2.696 -0.0261 -0.4599 -0.5934
 1444ntf    fn4 9510   4.927   2.541   2.861 -0.0999  0.0804 -0.4992
 1445ntf    cn1 9511   5.463   1.370   2.361  0.1470 -0.0960 -0.1334
 1445ntf    sn2 9512   5.334   1.476   2.289  0.2576 -0.0455 -0.2609
 1445ntf    nn3 9513   5.238   1.481   2.414  0.9034 -0.7094  0.2659
 1445ntf    sn2 9514   5.237   1.571   2.542  0.2164 -0.4311  0.0678
 1445ntf    cn1 9515   5.060   1.585   2.580  0.3040 -0.0429  0.3369
 1445ntf    fn4 9516   5.407   1.262   2.411  0.4635 -0.0193  0.3892
 1445ntf    fn4 9517   5.542   1.327   2.264 -0.0343  0.1576 -0.3970
 1445ntf    fn4 9518   5.546   1.416   2.454  0.2719 -0.2435 -0.1714
 1445ntf    on5 9519   5.406   1.595   2.253 -0.2783  0.1764 -0.6012
 1445ntf    on5 9520   5.272   1.395   2.187 -0.2932 -0.4864  0.4127
 1445ntf    on5 9521   5.284   1.706   2.528  0.4669 -0.5408 -0.1521
 1445ntf    on5 9522   5.297   1.499   2.652  0.1971  0.0495  0.3957
 1445ntf    fn4 9523   5.013   1.679   2.661  0.3437  0.2288  0.0433
 1445ntf    fn4 9524   4.990   1.596   2.468 -0.0302  0.3843  0.5822
 1445ntf    fn4 9525   5.011   1.472   2.630 -0.0948 -0.0330 -0.0252
 1446ntf    cn1 9526   4.005   0.840   3.224 -0.0905 -0.1399  0.0946
 1446ntf    sn2 9527   3.849   0.910   3.161 -0.0013  0.0964  0.1398
 1446ntf    nn3 9528   3.852   0.853   3.015  0.4228  0.5100 -0.0190
 1446ntf    sn2 9529   3.733   0.847   2.913  0.2834 -0.0658  0.1698
 1446ntf    cn1 9530   3.664   0.680   2.934 -0.6461  0.3073  0.1560
 1446ntf    fn4 9531   4.008   0.707   3.224 -0.2218 -0.1490 -0.8565
 1446ntf    fn4 9532   4.112   0.865   3.151  0.2822  0.0212  0.6908
 1446ntf    fn4 9533   4.023   0.883   3.348  0.1487 -0.1870  0.0750
 1446ntf    on5 9534   3.746   0.859   3.248 -0.1335 -0.0069 -0.0780
 1446ntf    on5 9535   3.867   1.053   3.166  0.0778  0.0896  0.0672
 1446ntf    on5 9536   3.767   0.863   2.774 -0.0958  0.3007  0.1151
 1446ntf    on5 9537   3.615   0.925   2.945  0.2872 -0.0114  0.0536
 1446ntf    fn4 9538   3.568   0.651   2.847 -0.4706 -0.0792  0.0915
 1446ntf    fn4 9539   3.766   0.597   2.922 -0.4459  0.5045  0.4817
 1446ntf    fn4 9540   3.605   0.659   3.050  0.0666 -0.3637  0.4048
 1447ntf    cn1 9541   6.372   6.046   1.343  0.4902  0.1851  0.3002
 1447ntf    sn2 9542   6.504   5.928   1.383  0.2437 -0.1497  0.1246
 1447ntf    nn3 9543   6.406   5.816   1.434 -0.5889  0.0754 -0.9505
 1447ntf    sn2 9544   6.424   5.712   1.551 -0.0166  0.3901 -0.7560
 1447ntf    cn1 9545   6.405   5.551   1.470  0.2052 -0.0580  0.0807
 1447ntf    fn4 9546   6.284   6.062   1.440  0.1350 -0.0091  0.0110
 1447ntf    fn4 9547   6.416   6.162   1.296  0.2054  0.1002 -0.1763
 1447ntf    fn4 9548   6.309   6.011   1.233  0.9943 -0.1310  0.1098
 1447ntf    on5 9549   6.577   5.912   1.260  0.4022 -0.1489  0.2182
 1447ntf    on5 9550   6.565   6.006   1.488 -0.1199  0.2436  0.0427
 1447ntf    on5 9551   6.322   5.731   1.651  0.8864  0.8376  0.0928
 1447ntf    on5 9552   6.560   5.709   1.597 -0.3109  0.2288  0.1157
 1447ntf    fn4 9553   6.428   5.445   1.546 -0.1216 -0.2303 -0.0595
 1447ntf    fn4 9554   6.281   5.537   1.426  0.1385  0.7031  0.0193
 1447ntf    fn4 9555   6.487   5.552   1.366  0.0098 -0.3207 -0.0773
 1448ntf    cn1 9556   6.548   5.195   1.429 -0.1879 -0.3263  0.1897
 1448ntf    sn2 9557   6.399   5.173   1.327 -0.0942  0.2696 -0.0800
 1448ntf    nn3 9558   6.382   5.018   1.341 -0.0620  0.2848  0.1262
 1448ntf    sn2 9559   6.253   4.929   1.355  0.2481 -0.1622  0.1773
 1448ntf    cn1 9560   6.237   4.938   1.536 -0.0353  0.2678  0.1310
 1448ntf    fn4 9561   6.582   5.323   1.435 -0.3862 -0.2757  0.2481
 1448ntf    fn4 9562   6.526   5.166   1.556  0.2816  0.2827  0.4168
 1448ntf    fn4 9563   6.659   5.134   1.389 -0.5172 -0.5200 -0.4397
 1448ntf    on5 9564   6.303   5.256   1.395  0.0608  0.6774 -0.3544
 1448ntf    on5 9565   6.443   5.213   1.196 -0.1176  0.3496 -0.0633
 1448ntf    on5 9566   6.289   4.793   1.324  0.0041 -0.0816 -0.4600
 1448ntf    on5 9567   6.132   4.994   1.312  0.2235 -0.0209  0.4588
 1448ntf    fn4 9568   6.113   4.923   1.580 -0.0012  0.1597  0.1894
 1448ntf    fn4 9569   6.320   4.853   1.593  0.3343  0.5017 -0.0597
 1448ntf    fn4 9570   6.287   5.054   1.576  0.3280  0.3036 -0.4250
 1449ntf    cn1 9571   2.877   5.239   5.159 -0.3105 -0.3339 -0.1209
 1449ntf    sn2 9572   2.852   5.331   5.004  0.1075  0.2122  0.1304
 1449ntf    nn3 9573   2.977   5.425   5.013 -0.1697  0.6142 -0.1868
 1449ntf    sn2 9574   3.075   5.469   4.899  0.3789 -0.1424 -0.0070
 1449ntf    cn1 9575   3.088   5.642   4.952  0.4706 -0.1705  0.0618
 1449ntf    fn4 9576   2.880   5.317   5.266 -0.7424 -0.0418 -0.3152
 1449ntf    fn4 9577   2.779   5.151   5.169 -0.4187 -0.2106 -0.0756
 1449ntf    fn4 9578   2.990   5.171   5.154 -0.1410 -0.0439 -0.2945
 1449ntf    on5 9579   2.849   5.225   4.907  0.3349  0.6546 -0.3641
 1449ntf    on5 9580   2.722   5.393   5.023 -0.2942 -0.2580 -0.9948
 1449ntf    on5 9581   3.020   5.480   4.766 -0.0441 -0.9878  0.0928
 1449ntf    on5 9582   3.209   5.421   4.922  0.0439 -1.0295  0.1505
 1449ntf    fn4 9583   3.175   5.722   4.892 -0.1669  0.4695 -0.0286
 1449ntf    fn4 9584   2.969   5.699   4.941  0.4853 -0.1511 -0.0015
 1449ntf    fn4 9585   3.121   5.636   5.080  0.3504 -0.2908  0.0862
 1450ntf    cn1 9586   1.204   1.407   2.474 -0.2256 -0.4467  0.3291
 1450ntf    sn2 9587   1.306   1.516   2.578 -0.3729 -0.3700  0.3928
 1450ntf    nn3 9588   1.411   1.568   2.473 -1.0121  0.7096  0.2715
 1450ntf    sn2 9589   1.477   1.710   2.458 -0.0384  0.2392  0.0595
 1450ntf    cn1 9590   1.652   1.660   2.452 -0.0915  0.0466  0.1166
 1450ntf    fn4 9591   1.275   1.298   2.449  0.3818  0.0311 -0.0751
 1450ntf    fn4 9592   1.095   1.359   2.531 -0.4015 -0.2697  0.1391
 1450ntf    fn4 9593   1.180   1.460   2.355  0.2777  0.2983  0.5554
 1450ntf    on5 9594   1.224   1.626   2.623  0.1516 -0.1497  0.8169
 1450ntf    on5 9595   1.360   1.421   2.671  0.4406  0.0485  0.3588
 1450ntf    on5 9596   1.473   1.796   2.573  0.1849 -0.1108  0.3299
 1450ntf    on5 9597   1.459   1.773   2.329  0.5165  0.2479 -0.0162
 1450ntf    fn4 9598   1.735   1.763   2.458  0.1832 -0.1854  0.3286
 1450ntf    fn4 9599   1.669   1.585   2.560  0.1443  0.1144  0.1277
 1450ntf    fn4 9600   1.675   1.580   2.349  0.2517  0.2507  0.0324
 1451ntf    cn1 9601   0.985   1.709   3.323  0.0739  0.1101 -0.1166
 1451ntf    sn2 9602   0.862   1.843   3.315 -0.0491  0.0003 -0.0711
 1451ntf    nn3 9603   0.758   1.792   3.210  0.1393  0.3702 -0.4426
 1451ntf    sn2 9604   0.601   1.783   3.199  0.1471 -0.7244  0.2033
 1451ntf    cn1 9605   0.577   1.754   3.021 -0.0353 -0.2913  0.1575
 1451ntf    fn4 9606   1.067   1.709   3.426  0.0351  0.5423 -0.0835
 1451ntf    fn4 9607   0.918   1.595   3.328  0.1134  0.1019  0.2718
 1451ntf    fn4 9608   1.060   1.703   3.214 -0.1301 -0.1586 -0.2434
 1451ntf    on5 9609   0.810   1.858   3.449  0.0767 -0.5283  0.0385
 1451ntf    on5 9610   0.939   1.955   3.266 -0.1214  0.0408 -0.0929
 1451ntf    on5 9611   0.533   1.908   3.221  0.3999 -0.5368 -0.0687
 1451ntf    on5 9612   0.548   1.661   3.254 -0.7632 -0.2968  0.2803
 1451ntf    fn4 9613   0.452   1.767   2.981  0.0648  0.1125 -0.0286
 1451ntf    fn4 9614   0.642   1.840   2.944 -0.3222 -0.0869  0.1442
 1451ntf    fn4 9615   0.617   1.637   2.974  0.0558 -0.0683 -0.3283
 1452ntf    cn1 9616   5.130   4.649   4.941 -0.1399  0.1713 -0.0651
 1452ntf    sn2 9617   5.304   4.626   4.896 -0.1800 -0.0761 -0.0973
 1452ntf    nn3 9618   5.305   4.664   4.743  0.0759  0.3223  0.0010
 1452ntf    sn2 9619   5.268   4.573   4.621 -0.0472  0.0840  0.2132
 1452ntf    cn1 9620   5.174   4.688   4.516 -0.3087 -0.1380  0.2030
 1452ntf    fn4 9621   5.066   4.540   4.900  0.0784  0.0779 -0.1555
 1452ntf    fn4 9622   5.113   4.638   5.072 -0.9792  0.4074 -0.1482
 1452ntf    fn4 9623   5.070   4.756   4.890 -0.3193  0.1275  0.0501
 1452ntf    on5 9624   5.365   4.726   4.980  0.0417  0.1696 -0.5424
 1452ntf    on5 9625   5.331   4.488   4.927 -0.6817  0.0486  0.9402
 1452ntf    on5 9626   5.159   4.484   4.652  0.0122 -0.0946 -0.0854
 1452ntf    on5 9627   5.381   4.520   4.548  0.1279  0.2800  0.3409
 1452ntf    fn4 9628   5.142   4.639   4.397  0.7227  0.4268 -0.3277
 1452ntf    fn4 9629   5.061   4.725   4.573 -0.1646  0.0699  0.3547
 1452ntf    fn4 9630   5.237   4.801   4.487  0.2371 -0.4881  0.0152
 1453ntf    cn1 9631   0.719   3.213   0.629 -0.0580  0.0530  0.3821
 1453ntf    sn2 9632   0.840   3.321   0.549 -0.0322 -0.0182  0.3249
 1453ntf    nn3 9633   0.749   3.418   0.465  0.0893 -0.6797 -0.5865
 1453ntf    sn2 9634   0.782   3.535   0.366 -0.1759 -0.2430 -0.1634
 1453ntf    cn1 9635   0.724   3.466   0.208 -0.0964 -0.0616 -0.2728
 1453ntf    fn4 9636   0.795   3.141   0.710  0.4830  0.0185 -0.1511
 1453ntf    fn4 9637   0.636   3.282   0.705 -0.0555  0.3680  0.1019
 1453ntf    fn4 9638   0.644   3.139   0.549  0.3445 -0.0503  0.0948
 1453ntf    on5 9639   0.909   3.379   0.662 -0.1193  0.1225  0.3068
 1453ntf    on5 9640   0.912   3.231   0.463  0.4161  0.5404  0.1042
 1453ntf    on5 9641   0.921   3.566   0.344 -0.0809 -0.9792 -0.6504
 1453ntf    on5 9642   0.698   3.649   0.392 -0.1912 -0.3028  0.0544
 1453ntf    fn4 9643   0.781   3.349   0.181  0.0606 -0.0813  0.1293
 1453ntf    fn4 9644   0.592   3.451   0.205 -0.1107 -0.1920  0.5603
 1453ntf    fn4 9645   0.756   3.545   0.108 -0.1638  0.0250 -0.2264
 1454ntf    cn1 9646   5.416   3.420   2.214  0.2413 -0.6099 -0.0738
 1454ntf    sn2 9647   5.366   3.531   2.349  0.5280 -0.2994 -0.2208
 1454ntf    nn3 9648   5.466   3.649   2.322  0.1916  0.1249  0.3551
 1454ntf    sn2 9649   5.541   3.742   2.425 -0.1499 -0.1004  0.8103
 1454ntf    cn1 9650   5.559   3.890   2.322  0.0376 -0.2842  0.5763
 1454ntf    fn4 9651   5.401   3.468   2.091  0.0014 -0.2949  0.0759
 1454ntf    fn4 9652   5.545   3.394   2.230  0.4476  0.1479 -0.4396
 1454ntf    fn4 9653   5.350   3.306   2.212 -0.0334 -0.4550  0.0837
 1454ntf    on5 9654   5.230   3.562   2.311  0.7414  0.8124 -0.1188
 1454ntf    on5 9655   5.391   3.456   2.470  0.0481 -0.1042  0.0028
 1454ntf    on5 9656   5.679   3.706   2.446  0.0071 -0.5500 -0.8502
 1454ntf    on5 9657   5.455   3.791   2.530 -0.7037  0.1069  0.2668
 1454ntf    fn4 9658   5.451   3.938   2.261  0.2931 -0.4391 -0.0053
 1454ntf    fn4 9659   5.624   3.985   2.388 -0.3156 -0.1028  0.6673
 1454ntf    fn4 9660   5.641   3.857   2.224  0.1683 -0.0020  0.5912
 1455ntf    cn1 9661   3.576   4.725   4.251 -0.0838 -0.0593 -0.1424
 1455ntf    sn2 9662   3.540   4.552   4.297  0.0227 -0.0374  0.0250
 1455ntf    nn3 9663   3.511   4.488   4.156 -0.0151 -0.7926  0.3719
 1455ntf    sn2 9664   3.381   4.455   4.075 -0.2288  0.1705  0.3115
 1455ntf    cn1 9665   3.364   4.277   4.105 -0.3017  0.0816 -0.2435
 1455ntf    fn4 9666   3.639   4.732   4.135 -0.5170  0.0640 -0.3733
 1455ntf    fn4 9667   3.473   4.807   4.241  0.0063  0.0640 -0.0436
 1455ntf    fn4 9668   3.659   4.777   4.340 -0.4401  0.6781 -0.2354
 1455ntf    on5 9669   3.666   4.504   4.347  0.3001  0.5853 -0.0636
 1455ntf    on5 9670   3.426   4.557   4.386  0.1162 -0.0477  0.1447
 1455ntf    on5 9671   3.404   4.459   3.932 -0.5853  0.1974  0.2547
 1455ntf    on5 9672   3.259   4.510   4.129 -0.1908  0.5779 -0.0026
 1455ntf    fn4 9673   3.481   4.216   4.099 -0.0184  0.6108 -0.1819
 1455ntf    fn4 9674   3.319   4.247   4.226  0.5647 -0.0794  0.0456
 1455ntf    fn4 9675   3.275   4.218   4.026 -0.8126  0.2445  0.2074
 1456ntf    cn1 9676   1.447   2.946   3.412 -0.3958 -0.2678 -0.0778
 1456ntf    sn2 9677   1.284   2.968   3.334 -0.1955  0.2454 -0.3551
 1456ntf    nn3 9678   1.311   3.079   3.226  0.2816  0.1001 -0.3888
 1456ntf    sn2 9679   1.288   3.233   3.246  0.0900 -0.0306  0.4746
 1456ntf    cn1 9680   1.261   3.271   3.070  0.0281  0.0899  0.5093
 1456ntf    fn4 9681   1.486   3.043   3.493  0.3011  0.0397 -0.7809
 1456ntf    fn4 9682   1.447   2.843   3.496  0.9972 -0.2954 -0.0986
 1456ntf    fn4 9683   1.549   2.930   3.330 -0.1726  0.1848  0.1097
 1456ntf    on5 9684   1.259   2.836   3.280 -0.6291 -0.2081  0.9228
 1456ntf    on5 9685   1.198   3.009   3.442  0.4096  0.0716  0.1989
 1456ntf    on5 9686   1.413   3.299   3.275  0.0442  0.1918  0.1813
 1456ntf    on5 9687   1.165   3.268   3.312 -0.1533  0.3627 -0.1710
 1456ntf    fn4 9688   1.206   3.168   3.006  0.1013  0.6673 -0.5111
 1456ntf    fn4 9689   1.200   3.387   3.051  0.3827  0.2540  0.3595
 1456ntf    fn4 9690   1.379   3.276   3.009  0.0012 -0.4262  0.4052
 1457ntf    cn1 9691   6.080   4.055   3.045  0.4016  0.0327 -0.0756
 1457ntf    sn2 9692   6.051   3.887   2.980 -0.1134  0.0589  0.0809
 1457ntf    nn3 9693   6.001   3.822   3.114 -0.3839  0.1856  0.0403
 1457ntf    sn2 9694   6.070   3.726   3.218 -0.2777 -0.3682 -0.5398
 1457ntf    cn1 9695   5.956   3.749   3.357 -0.1790 -0.1685 -0.4914
 1457ntf    fn4 9696   6.153   4.068   3.154 -0.1309  0.0859  0.2780
 1457ntf    fn4 9697   6.132   4.136   2.955 -0.0314 -0.4956 -0.8150
 1457ntf    fn4 9698   5.969   4.119   3.078  0.2888 -0.2408  0.0781
 1457ntf    on5 9699   5.942   3.899   2.887 -0.4936 -0.0497  0.5059
 1457ntf    on5 9700   6.178   3.845   2.924 -0.0232  0.4522 -0.0128
 1457ntf    on5 9701   6.186   3.782   3.281 -0.4301 -0.5174 -0.1272
 1457ntf    on5 9702   6.051   3.587   3.186 -0.2544 -0.2515 -1.0897
 1457ntf    fn4 9703   5.829   3.739   3.321 -0.3598  0.1998  0.0357
 1457ntf    fn4 9704   5.983   3.652   3.443 -0.0107  0.0563 -0.2867
 1457ntf    fn4 9705   5.969   3.867   3.416 -0.1434 -0.2795 -0.2772
 1458ntf    cn1 9706   1.291   0.218   0.598  0.4994  0.0890 -0.4126
 1458ntf    sn2 9707   1.266   0.109   0.742  0.0692  0.2021 -0.4005
 1458ntf    nn3 9708   1.406   0.036   0.743 -0.3488 -0.6083  0.6646
 1458ntf    sn2 9709   1.532   0.066   0.832  0.1559 -0.1401 -0.2007
 1458ntf    cn1 9710   1.655  -0.034   0.743 -0.3159 -0.2906 -0.6937
 1458ntf    fn4 9711   1.320   0.139   0.496 -0.3403 -0.6939 -0.0611
 1458ntf    fn4 9712   1.193   0.292   0.549  0.0835  0.1023  0.4210
 1458ntf    fn4 9713   1.403   0.288   0.609  0.5261  0.0126 -0.1857
 1458ntf    on5 9714   1.239   0.206   0.845 -0.3500  0.0772 -0.3931
 1458ntf    on5 9715   1.165   0.019   0.693  0.1332 -0.0344 -0.1035
 1458ntf    on5 9716   1.506   0.011   0.962 -0.1413 -0.1149 -0.2471
 1458ntf    on5 9717   1.576   0.204   0.832 -0.4745  0.0673 -0.0188
 1458ntf    fn4 9718   1.644  -0.010   0.614 -0.1022  1.2866 -0.4449
 1458ntf    fn4 9719   1.780  -0.017   0.783 -0.4118 -0.2867 -0.3894
 1458ntf    fn4 9720   1.629  -0.162   0.765  0.2572 -0.2127  0.5423
 1459ntf    cn1 9721   0.345   3.254   4.177  0.3584 -0.1446 -0.1435
 1459ntf    sn2 9722   0.281   3.403   4.259  0.2229 -0.2138 -0.1241
 1459ntf    nn3 9723   0.129   3.367   4.272  0.3070 -0.4338  0.2913
 1459ntf    sn2 9724   0.044   3.335   4.400  0.0312  0.0106  0.2213
 1459ntf    cn1 9725  -0.062   3.198   4.343  0.3110 -0.2054  0.2143
 1459ntf    fn4 9726   0.465   3.282   4.127  0.1673  0.7467 -0.1275
 1459ntf    fn4 9727   0.351   3.155   4.264 -0.2834  0.0621  0.1362
 1459ntf    fn4 9728   0.281   3.201   4.074  0.2121  0.0308 -0.1419
 1459ntf    on5 9729   0.357   3.402   4.382 -0.1378  0.3644  0.1099
 1459ntf    on5 9730   0.306   3.506   4.162 -0.2676 -0.6846 -0.7624
 1459ntf    on5 9731  -0.043   3.445   4.434  0.3688  0.3662 -0.0560
 1459ntf    on5 9732   0.113   3.276   4.512  0.4823 -0.3542 -0.2427
 1459ntf    fn4 9733  -0.128   3.136   4.440 -0.1911 -0.1121 -0.0663
 1459ntf    fn4 9734  -0.158   3.245   4.264  0.4161  0.2839  0.3754
 1459ntf    fn4 9735   0.015   3.109   4.284  0.1602 -0.1975  0.0069
 1460ntf    cn1 9736   6.787   1.316   6.335  0.0529 -0.1456  0.1967
 1460ntf    sn2 9737   6.863   1.210   6.460  0.0358 -0.4093 -0.0163
 1460ntf    nn3 9738   6.737   1.134   6.515 -0.2421 -0.3369 -0.5550
 1460ntf    sn2 9739   6.651   1.190   6.634  0.3031  0.1833 -0.3990
 1460ntf    cn1 9740   6.760   1.131   6.767 -0.3106  0.1673  0.1039
 1460ntf    fn4 9741   6.704   1.407   6.384  0.3690  0.4889 -0.4126
 1460ntf    fn4 9742   6.879   1.377   6.262 -0.2418 -0.3088 -0.3165
 1460ntf    fn4 9743   6.722   1.252   6.239 -0.4548 -0.0968  0.5044
 1460ntf    on5 9744   6.947   1.124   6.380  0.2946 -0.0039 -0.1820
 1460ntf    on5 9745   6.934   1.303   6.545 -0.1244 -0.5184  0.2389
 1460ntf    on5 9746   6.525   1.122   6.655  0.5574 -0.0512  0.4170
 1460ntf    on5 9747   6.645   1.332   6.657  0.3970  0.0680  0.3650
 1460ntf    fn4 9748   6.890   1.154   6.756 -0.3553  0.1787 -0.4157
 1460ntf    fn4 9749   6.727   1.183   6.884 -0.2077  0.3385  0.0583
 1460ntf    fn4 9750   6.755   1.000   6.780 -0.3329  0.2005  0.4369
 1461ntf    cn1 9751   2.980   5.183   4.196  0.0004 -0.3127  0.1585
 1461ntf    sn2 9752   3.068   5.341   4.215  0.1950 -0.3912 -0.0883
 1461ntf    nn3 9753   3.211   5.282   4.242 -0.0352 -0.8493  0.1548
 1461ntf    sn2 9754   3.335   5.290   4.146 -0.0911 -0.0063  0.1468
 1461ntf    cn1 9755   3.320   5.127   4.067  0.1203 -0.0353  0.1642
 1461ntf    fn4 9756   2.848   5.191   4.203 -0.0058 -0.7123  0.5972
 1461ntf    fn4 9757   2.992   5.130   4.075  0.4831 -0.4530  0.2685
 1461ntf    fn4 9758   3.014   5.087   4.280  0.2712 -0.2994  0.0638
 1461ntf    on5 9759   3.048   5.413   4.092  0.8072 -0.1475 -0.0495
 1461ntf    on5 9760   3.006   5.401   4.331  0.3789  0.1671 -0.2758
 1461ntf    on5 9761   3.463   5.270   4.211  0.1378  0.1097 -0.2686
 1461ntf    on5 9762   3.332   5.387   4.040  0.2810  0.0978  0.2283
 1461ntf    fn4 9763   3.407   5.115   3.968 -0.2220 -0.3577 -0.1007
 1461ntf    fn4 9764   3.346   5.027   4.149 -0.2499 -0.2404  0.0338
 1461ntf    fn4 9765   3.199   5.106   4.016  0.1370 -0.1165  0.1590
 1462ntf    cn1 9766   5.514   0.084   3.679 -0.0691 -0.0420 -0.5421
 1462ntf    sn2 9767   5.468   0.105   3.504  0.1585  0.3053 -0.5602
 1462ntf    nn3 9768   5.347   0.203   3.520  0.2352  0.3067  0.0206
 1462ntf    sn2 9769   5.192   0.177   3.511  0.2759  0.1411 -0.1981
 1462ntf    cn1 9770   5.138   0.305   3.628 -0.3284 -0.4143  0.1339
 1462ntf    fn4 9771   5.414   0.033   3.749  0.1319  0.0541 -0.1817
 1462ntf    fn4 9772   5.617   0.006   3.704 -0.5171 -0.3678  0.3120
 1462ntf    fn4 9773   5.535   0.192   3.753  0.3438 -0.4343 -0.0796
 1462ntf    on5 9774   5.582   0.173   3.446  0.9807 -0.3314  0.2749
 1462ntf    on5 9775   5.439  -0.030   3.465 -0.3084  0.3163 -0.2586
 1462ntf    on5 9776   5.138   0.058   3.572  0.4799  0.4375  0.5759
 1462ntf    on5 9777   5.130   0.217   3.387  0.2129  0.9374  0.0832
 1462ntf    fn4 9778   5.166   0.276   3.754 -0.1164 -0.2394  0.1280
 1462ntf    fn4 9779   5.206   0.417   3.611  0.0785 -0.7291 -0.3282
 1462ntf    fn4 9780   5.011   0.341   3.619 -0.3603 -0.6269 -0.2965
 1463ntf    cn1 9781   3.945   5.866   0.105  0.0030 -0.0830  0.1042
 1463ntf    sn2 9782   4.122   5.905   0.122  0.0045  0.0521 -0.1983
 1463ntf    nn3 9783   4.121   6.048   0.058  0.0602  0.3960  0.5588
 1463ntf    sn2 9784   4.109   6.195   0.111 -0.1558  0.5566  0.0651
 1463ntf    cn1 9785   4.067   6.289  -0.039 -0.0683  0.3132 -0.1120
 1463ntf    fn4 9786   3.907   5.836  -0.018  0.0011 -0.3129  0.1612
 1463ntf    fn4 9787   3.899   5.766   0.177 -0.3860  0.0503  0.0406
 1463ntf    fn4 9788   3.866   5.969   0.130 -0.1883 -0.1492 -0.2179
 1463ntf    on5 9789   4.158   5.895   0.261  0.0691 -0.0021 -0.2184
 1463ntf    on5 9790   4.177   5.804   0.034 -0.1660 -0.1814 -0.0388
 1463ntf    on5 9791   4.237   6.252   0.146  0.3038 -0.3336 -0.1362
 1463ntf    on5 9792   3.998   6.212   0.200 -0.3822 -0.3037 -0.0464
 1463ntf    fn4 9793   4.152   6.262  -0.137 -0.3068  0.0658 -0.2526
 1463ntf    fn4 9794   3.951   6.254  -0.092  0.3280  0.0821 -0.8439
 1463ntf    fn4 9795   4.077   6.420  -0.020  0.0611  0.2870 -0.0020
 1464ntf    cn1 9796   5.642   4.055   0.905 -0.5562  0.2253 -0.6812
 1464ntf    sn2 9797   5.708   4.088   0.739  0.3027  0.2808 -0.3343
 1464ntf    nn3 9798   5.856   4.122   0.780  0.4034 -0.2857 -0.2254
 1464ntf    sn2 9799   5.921   4.259   0.820 -0.2710  0.0335 -0.2096
 1464ntf    cn1 9800   5.943   4.346   0.663  0.4221 -0.2288 -0.2622
 1464ntf    fn4 9801   5.732   3.988   0.976 -0.6188  0.2380 -0.5880
 1464ntf    fn4 9802   5.630   4.172   0.966 -0.2309 -0.1355  0.0841
 1464ntf    fn4 9803   5.530   3.986   0.910 -0.4618  0.0999 -0.1902
 1464ntf    on5 9804   5.695   3.955   0.685 -0.2435  0.1272  0.1645
 1464ntf    on5 9805   5.631   4.201   0.692 -0.7472 -0.3676 -0.2133
 1464ntf    on5 9806   6.057   4.244   0.865 -0.1223  0.3913 -0.5322
 1464ntf    on5 9807   5.849   4.344   0.912  0.4630 -0.3691  0.7656
 1464ntf    fn4 9808   6.048   4.307   0.592  0.4881  0.0954 -0.3460
 1464ntf    fn4 9809   5.837   4.341   0.584 -0.0768  0.3443  0.3581
 1464ntf    fn4 9810   5.969   4.475   0.678 -0.3544 -0.1766  0.7252
 1465ntf    cn1 9811   3.870   1.562   4.214 -0.0532 -0.1014 -0.2844
 1465ntf    sn2 9812   3.846   1.408   4.308 -0.2315  0.0453 -0.0889
 1465ntf    nn3 9813   3.834   1.475   4.449  0.1982 -0.1532  0.0431
 1465ntf    sn2 9814   3.927   1.459   4.575 -0.1222 -0.3898  0.2523
 1465ntf    cn1 9815   3.847   1.313   4.648  0.2949 -0.5525  0.3908
 1465ntf    fn4 9816   3.862   1.547   4.083  0.4931 -0.7016 -0.2568
 1465ntf    fn4 9817   3.787   1.660   4.244 -0.0746 -0.3297  0.4279
 1465ntf    fn4 9818   3.991   1.611   4.237 -0.3215  0.0805  0.8026
 1465ntf    on5 9819   3.713   1.370   4.269 -0.2511 -0.2154  0.2265
 1465ntf    on5 9820   3.959   1.320   4.288  0.1953  0.4326  0.5889
 1465ntf    on5 9821   3.916   1.564   4.674 -0.2864 -0.2705  0.1081
 1465ntf    on5 9822   4.059   1.415   4.539 -0.2021 -0.6437  0.2716
 1465ntf    fn4 9823   3.718   1.339   4.665  0.2661  0.1482 -0.7758
 1465ntf    fn4 9824   3.862   1.213   4.563 -0.0658 -0.2163 -0.0802
 1465ntf    fn4 9825   3.887   1.288   4.771  0.0269 -0.2083  0.5476
 1466ntf    cn1 9826   5.191   1.879   0.001  0.1543  0.0896 -0.1246
 1466ntf    sn2 9827   5.343   1.972  -0.033 -0.0816  0.4633 -0.1621
 1466ntf    nn3 9828   5.337   1.993  -0.189  0.4113  0.1277 -0.2276
 1466ntf    sn2 9829   5.278   2.117  -0.265 -0.0473 -0.1051 -0.2600
 1466ntf    cn1 9830   5.412   2.240  -0.252  0.0580 -0.2588  0.1474
 1466ntf    fn4 9831   5.083   1.944  -0.042 -0.2671 -0.6569 -0.2206
 1466ntf    fn4 9832   5.192   1.762  -0.061  0.0304  0.0303 -0.0150
 1466ntf    fn4 9833   5.177   1.856   0.130  0.5026  0.3136 -0.0461
 1466ntf    on5 9834   5.341   2.088   0.053 -0.2791  0.4835 -0.1923
 1466ntf    on5 9835   5.443   1.872  -0.004  0.0111  0.4687 -0.4648
 1466ntf    on5 9836   5.160   2.172  -0.204 -0.0121 -0.4050  0.0814
 1466ntf    on5 9837   5.276   2.084  -0.405  0.6643  0.3187 -0.3755
 1466ntf    fn4 9838   5.391   2.358  -0.308 -0.1266 -0.2024  0.3337
 1466ntf    fn4 9839   5.432   2.255  -0.122 -0.3131 -0.0460  0.1796
 1466ntf    fn4 9840   5.522   2.182  -0.298  0.2398 -0.2711  0.5964
 1467ntf    cn1 9841   6.547   1.713   4.030  0.2542 -0.0926 -0.0330
 1467ntf    sn2 9842   6.655   1.661   3.894  0.1315  0.0424 -0.1822
 1467ntf    nn3 9843   6.736   1.795   3.878 -0.3609  0.3726  0.1012
 1467ntf    sn2 9844   6.881   1.818   3.825 -0.3765 -0.2723 -0.2365
 1467ntf    cn1 9845   6.838   1.940   3.698 -0.9138 -0.1263  0.0835
 1467ntf    fn4 9846   6.489   1.829   4.006  0.4965  0.0803  0.2040
 1467ntf    fn4 9847   6.461   1.618   4.065 -0.1578  0.1337 -0.4247
 1467ntf    fn4 9848   6.616   1.734   4.141 -0.1140 -0.1887  0.2134
 1467ntf    on5 9849   6.737   1.553   3.943 -0.0462 -0.1084 -0.2163
 1467ntf    on5 9850   6.564   1.628   3.787 -0.2483  0.6960 -0.0610
 1467ntf    on5 9851   6.932   1.711   3.743  0.4904 -0.5783  0.6741
 1467ntf    on5 9852   6.964   1.889   3.919 -0.4051 -0.4061 -0.1100
 1467ntf    fn4 9853   6.938   1.959   3.613 -0.3893 -0.4402  0.6241
 1467ntf    fn4 9854   6.732   1.907   3.627 -0.8293  0.3055 -0.2514
 1467ntf    fn4 9855   6.804   2.059   3.746  0.1000  0.2934 -0.2015
 1468ntf    cn1 9856   6.221   1.195   5.292  0.2844 -0.3693 -0.1631
 1468ntf    sn2 9857   6.117   1.047   5.308 -0.1682  0.0156  0.5157
 1468ntf    nn3 9858   6.084   1.051   5.462 -0.3454 -0.3840  0.4900
 1468ntf    sn2 9859   5.940   1.070   5.520 -0.5122 -0.2272  0.0255
 1468ntf    cn1 9860   5.972   1.068   5.699 -0.4058 -0.4735  0.0037
 1468ntf    fn4 9861   6.327   1.200   5.371  0.4949  0.2560 -0.4813
 1468ntf    fn4 9862   6.270   1.212   5.171 -0.0536  0.0228 -0.2481
 1468ntf    fn4 9863   6.145   1.301   5.312  0.3738 -0.2933 -0.2258
 1468ntf    on5 9864   6.010   1.073   5.215  0.0976 -0.1518  0.1632
 1468ntf    on5 9865   6.202   0.936   5.272 -0.7892 -0.2939 -0.0034
 1468ntf    on5 9866   5.844   0.965   5.494 -0.7618 -0.0498  0.2224
 1468ntf    on5 9867   5.897   1.205   5.493  0.1963 -0.0565 -0.2647
 1468ntf    fn4 9868   5.862   1.084   5.770 -0.3203  0.0382  0.0247
 1468ntf    fn4 9869   6.033   0.959   5.742  0.9086  0.3891  0.3750
 1468ntf    fn4 9870   6.052   1.166   5.736 -0.0289 -0.5951 -0.4748
 1469ntf    cn1 9871   3.868   6.764   1.065  0.3118 -0.0104  0.0222
 1469ntf    sn2 9872   3.802   6.696   0.910 -0.1417  0.0370  0.1926
 1469ntf    nn3 9873   3.650   6.729   0.929 -0.3524 -0.7402 -0.1141
 1469ntf    sn2 9874   3.545   6.772   0.821  0.1245 -0.2715 -0.3970
 1469ntf    cn1 9875   3.543   6.952   0.846 -0.0892 -0.3655  0.2906
 1469ntf    fn4 9876   3.817   6.876   1.112  0.5855  0.0031  0.2931
 1469ntf    fn4 9877   3.839   6.674   1.158 -0.1220 -0.1390 -0.2385
 1469ntf    fn4 9878   3.999   6.783   1.068  0.2792  0.3447 -0.6198
 1469ntf    on5 9879   3.860   6.779   0.807  0.9255 -0.6341  0.2292
 1469ntf    on5 9880   3.841   6.557   0.905  0.5629  0.2357 -0.0487
 1469ntf    on5 9881   3.409   6.736   0.855  0.1026  0.7130  0.6066
 1469ntf    on5 9882   3.575   6.758   0.681  0.1772  0.3163 -0.4458
 1469ntf    fn4 9883   3.441   7.014   0.790 -0.0438 -0.6377 -0.1003
 1469ntf    fn4 9884   3.532   6.969   0.976  0.0428  0.3225  0.2125
 1469ntf    fn4 9885   3.651   7.014   0.802 -0.1980 -0.6078 -0.3378
 1470ntf    cn1 9886   6.834   4.765   2.237  0.1309 -0.2516  0.3959
 1470ntf    sn2 9887   6.980   4.659   2.257  0.0531 -0.4460 -0.0591
 1470ntf    nn3 9888   7.016   4.643   2.105 -0.4943  0.1327 -0.2519
 1470ntf    sn2 9889   7.159   4.624   2.045 -0.1868  0.1871  0.4569
 1470ntf    cn1 9890   7.088   4.533   1.904  0.1455  0.2633  0.2378
 1470ntf    fn4 9891   6.805   4.818   2.355  0.0293  0.7897 -0.0881
 1470ntf    fn4 9892   6.853   4.858   2.145  0.5529 -0.5786  0.1517
 1470ntf    fn4 9893   6.730   4.695   2.194 -0.5824  0.5869  0.7223
 1470ntf    on5 9894   7.064   4.746   2.335 -0.2890 -0.5087  0.3846
 1470ntf    on5 9895   6.921   4.545   2.322 -0.7401  0.2484  0.4693
 1470ntf    on5 9896   7.248   4.522   2.095 -0.2385  0.1691  0.5125
 1470ntf    on5 9897   7.214   4.740   1.979 -0.0217 -0.1434  0.0021
 1470ntf    fn4 9898   7.035   4.615   1.815 -0.0519 -0.7309 -0.5802
 1470ntf    fn4 9899   7.180   4.464   1.839 -0.0647 -0.2343  0.4613
 1470ntf    fn4 9900   6.998   4.443   1.939 -0.1893  0.3434 -0.4121
 1471ntf    cn1 9901   2.239   4.242   5.087  0.0436  0.0320 -0.0013
 1471ntf    sn2 9902   2.370   4.301   5.199  0.0069 -0.0522  0.0872
 1471ntf    nn3 9903   2.279   4.418   5.249 -0.4358 -0.0546 -0.6882
 1471ntf    sn2 9904   2.206   4.435   5.388  0.1754 -0.0423 -0.3666
 1471ntf    cn1 9905   2.315   4.546   5.482  0.0648 -0.1378 -0.1263
 1471ntf    fn4 9906   2.279   4.129   5.031 -0.0891  0.0621 -0.1567
 1471ntf    fn4 9907   2.129   4.214   5.154  0.1672 -0.5113 -0.0213
 1471ntf    fn4 9908   2.206   4.322   4.987  0.7148 -0.0070 -0.2599
 1471ntf    on5 9909   2.399   4.201   5.298 -0.0598 -0.2113 -0.0532
 1471ntf    on5 9910   2.478   4.344   5.113 -0.0268 -0.4454 -0.1513
 1471ntf    on5 9911   2.196   4.318   5.471  0.5888  0.1161 -0.0901
 1471ntf    on5 9912   2.086   4.514   5.375 -0.2067 -0.4779  0.4366
 1471ntf    fn4 9913   2.321   4.667   5.430  0.3618 -0.2455 -0.3479
 1471ntf    fn4 9914   2.286   4.563   5.610  0.4837  0.4440 -0.1055
 1471ntf    fn4 9915   2.444   4.515   5.484  0.2742  0.7453  0.4092
 1472ntf    cn1 9916   5.879   3.247   0.388  0.1711  0.7120  0.4515
 1472ntf    sn2 9917   6.006   3.283   0.263 -0.1002  0.0444 -0.0233
 1472ntf    nn3 9918   6.121   3.179   0.287 -0.2830 -0.2961 -0.5941
 1472ntf    sn2 9919   6.125   3.032   0.233  0.1826 -0.3743 -0.3520
 1472ntf    cn1 9920   6.183   3.063   0.064 -0.4017  0.0486 -0.4760
 1472ntf    fn4 9921   5.796   3.350   0.391 -0.2844  0.3745 -0.2089
 1472ntf    fn4 9922   5.806   3.138   0.366  0.8402  0.2149  0.6737
 1472ntf    fn4 9923   5.926   3.233   0.511  0.3479  0.3215  0.3417
 1472ntf    on5 9924   5.940   3.263   0.137  0.7181 -0.3995 -0.3887
 1472ntf    on5 9925   6.059   3.412   0.298 -0.0286 -0.0067  0.0579
 1472ntf    on5 9926   5.995   2.971   0.221  0.2174 -0.3652 -0.7779
 1472ntf    on5 9927   6.229   2.947   0.288 -0.3747 -0.6150  0.3377
 1472ntf    fn4 9928   6.187   2.948  -0.002 -0.9453 -0.0166 -0.4010
 1472ntf    fn4 9929   6.117   3.147  -0.015 -0.0816 -0.0638 -0.8680
 1472ntf    fn4 9930   6.309   3.105   0.061 -0.2459 -0.3673  0.3158
 1473ntf    cn1 9931   4.934   2.241   5.671  0.0044 -0.1154 -0.1665
 1473ntf    sn2 9932   4.936   2.420   5.699 -0.2866 -0.0496 -0.5577
 1473ntf    nn3 9933   5.092   2.435   5.693 -0.2285 -0.1250  0.4927
 1473ntf    sn2 9934   5.205   2.392   5.793  0.2295 -0.0598  0.0076
 1473ntf    cn1 9935   5.244   2.555   5.864  0.0452 -0.1444  0.3020
 1473ntf    fn4 9936   4.981   2.211   5.551 -0.0701 -0.4125 -0.1246
 1473ntf    fn4 9937   5.000   2.156   5.748  0.0702  0.1568  0.0755
 1473ntf    fn4 9938   4.810   2.194   5.672 -0.1329  0.2512  0.1584
 1473ntf    on5 9939   4.871   2.485   5.588 -0.5898  0.1747 -0.2527
 1473ntf    on5 9940   4.882   2.433   5.832  0.8008 -0.0355 -0.1052
 1473ntf    on5 9941   5.327   2.349   5.729  0.2926 -0.3215  0.3020
 1473ntf    on5 9942   5.169   2.314   5.908  0.2679  0.0452  0.0912
 1473ntf    fn4 9943   5.316   2.627   5.780 -0.3768  0.4258  0.4242
 1473ntf    fn4 9944   5.143   2.637   5.888 -0.1456 -0.3235  0.1141
 1473ntf    fn4 9945   5.312   2.551   5.977  0.3262  0.2128  0.1491
 1474ntf    cn1 9946   2.909   2.047   5.424  0.3582 -0.2529  0.2223
 1474ntf    sn2 9947   2.759   2.151   5.419  0.4689 -0.0960  0.1803
 1474ntf    nn3 9948   2.656   2.036   5.393  0.3274  0.0805 -0.0470
 1474ntf    sn2 9949   2.583   1.945   5.498 -0.0642  0.3191 -0.1107
 1474ntf    cn1 9950   2.579   1.785   5.412 -0.5388  0.3024 -0.0603
 1474ntf    fn4 9951   3.009   2.116   5.373  0.0686 -0.0606 -0.0972
 1474ntf    fn4 9952   2.945   2.019   5.548  0.4963  0.6714  0.4033
 1474ntf    fn4 9953   2.904   1.934   5.356 -0.3744  0.1431 -0.4055
 1474ntf    on5 9954   2.758   2.204   5.553 -0.3101 -0.4047  0.3005
 1474ntf    on5 9955   2.779   2.230   5.299 -0.1829 -0.0219  0.1191
 1474ntf    on5 9956   2.445   1.982   5.518 -0.0516 -0.0936  0.7855
 1474ntf    on5 9957   2.662   1.924   5.617  0.1974  0.3098 -0.2850
 1474ntf    fn4 9958   2.702   1.739   5.399 -0.3050  0.8133  0.3038
 1474ntf    fn4 9959   2.507   1.691   5.472  0.1894 -0.3440 -0.1816
 1474ntf    fn4 9960   2.537   1.789   5.287  0.0469  0.1403 -0.2672
 1475ntf    cn1 9961   6.109   2.258   0.230 -0.2712 -0.0451 -0.0191
 1475ntf    sn2 9962   6.103   2.206   0.404  0.0308  0.0554  0.0210
 1475ntf    nn3 9963   5.950   2.214   0.435  0.0751  0.2995  0.1794
 1475ntf    sn2 9964   5.843   2.100   0.452  0.4260 -0.0511  0.0488
 1475ntf    cn1 9965   5.882   2.050   0.623  0.2729 -0.3260  0.0030
 1475ntf    fn4 9966   6.046   2.169   0.155 -0.0237 -0.0700 -0.1978
 1475ntf    fn4 9967   6.066   2.376   0.189 -0.4161 -0.0642  0.0763
 1475ntf    fn4 9968   6.239   2.254   0.205 -0.2088 -0.1747  0.3181
 1475ntf    on5 9969   6.151   2.070   0.404 -0.2199 -0.0334  0.2539
 1475ntf    on5 9970   6.182   2.310   0.466  0.1831  0.0875 -0.2231
 1475ntf    on5 9971   5.875   1.984   0.373 -0.1718 -0.0848 -0.1515
 1475ntf    on5 9972   5.704   2.140   0.454  0.4752  0.1204  0.1989
 1475ntf    fn4 9973   5.817   1.943   0.665  0.0249 -0.3380 -0.3951
 1475ntf    fn4 9974   6.012   2.035   0.640  0.1803 -0.4164  0.6441
 1475ntf    fn4 9975   5.845   2.138   0.714  0.1377  0.0191 -0.3804
 1476ntf    cn1 9976   4.945   3.858   6.023  0.1507 -0.5702  0.0446
 1476ntf    sn2 9977   4.943   4.001   6.136 -0.1591 -0.2481 -0.3680
 1476ntf    nn3 9978   5.093   4.043   6.117 -0.1334 -0.0272  0.3259
 1476ntf    sn2 9979   5.185   4.125   6.215  0.0358 -0.0631  0.1972
 1476ntf    cn1 9980   5.136   4.300   6.207 -0.1871 -0.1313  0.0562
 1476ntf    fn4 9981   5.058   3.789   6.034  0.2981 -0.2901  0.2937
 1476ntf    fn4 9982   4.846   3.771   6.038 -0.0104 -0.4164 -0.1249
 1476ntf    fn4 9983   4.942   3.887   5.894 -0.1073 -0.0643  0.1615
 1476ntf    on5 9984   4.851   4.095   6.077 -0.3217 -0.2333 -0.0889
 1476ntf    on5 9985   4.902   3.948   6.263  0.5664  0.5718  0.2149
 1476ntf    on5 9986   5.315   4.132   6.153 -0.1279  0.5042 -0.0878
 1476ntf    on5 9987   5.189   4.087   6.354 -0.3055 -0.8686 -0.0092
 1476ntf    fn4 9988   5.159   4.352   6.088 -0.1466  0.0229  0.1304
 1476ntf    fn4 9989   5.007   4.322   6.226 -0.1466  0.0748  0.0938
 1476ntf    fn4 9990   5.199   4.371   6.300  0.1444 -0.3363 -0.0107
 1477ntf    cn1 9991   0.566   1.186   1.106 -0.0240 -0.4154 -0.0699
 1477ntf    sn2 9992   0.687   1.236   0.980  0.1291 -0.0577  0.2169
 1477ntf    nn3 9993   0.716   1.090   0.932  0.3180 -0.0637  0.3501
 1477ntf    sn2 9994   0.667   1.020   0.800  0.1903  0.2143  0.2505
 1477ntf    cn1 9995   0.660   0.851   0.865  0.1471 -0.0234 -0.3676
 1477ntf    fn4 9996   0.524   1.290   1.177  0.1117 -0.5212  0.1679
 1477ntf    fn4 9997   0.459   1.131   1.051  0.1269  0.3007 -1.1093
 1477ntf    fn4 9998   0.617   1.100   1.192  0.2602  0.0555  0.2409
 1477ntf    on5 9999   0.619   1.316   0.881 -0.3658 -0.4003  0.2766
 1477ntf    on510000   0.793   1.294   1.058  0.3901 -0.3625  0.0862
 1477ntf    on510001   0.766   1.012   0.695  0.2280  0.1305  0.2933
 1477ntf    on510002   0.528   1.045   0.770  0.1391  0.1120  0.4027
 1477ntf    fn410003   0.783   0.808   0.888 -0.1478 -0.3194  0.7137
 1477ntf    fn410004   0.597   0.855   0.981 -0.0493 -0.3130 -0.4637
 1477ntf    fn410005   0.602   0.767   0.781 -0.2520 -0.1810  0.0631
 1478ntf    cn110006   5.156   3.353   6.420  0.4145 -0.2761  0.0040
 1478ntf    sn210007   5.151   3.239   6.278  0.2291 -0.0400 -0.1809
 1478ntf    nn310008   5.070   3.315   6.167  0.0156  0.0648  0.0482
 1478ntf    sn210009   4.921   3.283   6.127  0.1763 -0.3951 -0.1864
 1478ntf    cn110010   4.914   3.409   5.997 -0.0422 -0.0974  0.1137
 1478ntf    fn410011   5.038   3.371   6.477  0.2155 -0.2364 -0.4094
 1478ntf    fn410012   5.235   3.311   6.517 -0.1382 -0.3943  0.4087
 1478ntf    fn410013   5.197   3.474   6.386  0.7788 -0.3916  0.0288
 1478ntf    on510014   5.291   3.240   6.241  0.3731 -0.5708  0.3379
 1478ntf    on510015   5.102   3.110   6.319  0.4542  0.0756  0.4666
 1478ntf    on510016   4.832   3.341   6.225  0.1155 -0.2612 -0.3221
 1478ntf    on510017   4.895   3.157   6.061  1.0730 -0.2985 -0.7486
 1478ntf    fn410018   5.002   3.382   5.902 -0.0862 -0.3117  0.1337
 1478ntf    fn410019   4.795   3.417   5.938  0.0241 -0.1574 -0.0268
 1478ntf    fn410020   4.926   3.528   6.054 -0.0779 -0.0982  0.1227
 1479ntf    cn110021   1.201   2.307   0.348  0.1886 -0.0831  0.2841
 1479ntf    sn210022   1.308   2.452   0.319 -0.3374  0.2105 -0.2251
 1479ntf    nn310023   1.360   2.419   0.175  0.5211 -0.2297  0.1776
 1479ntf    sn210024   1.484   2.490   0.108  0.2224  0.2245  0.1016
 1479ntf    cn110025   1.597   2.349   0.087 -0.0904 -0.0111 -0.0175
 1479ntf    fn410026   1.118   2.286   0.246  0.2582  0.3080  0.1442
 1479ntf    fn410027   1.277   2.204   0.378 -0.1709 -0.3874  0.1595
 1479ntf    fn410028   1.131   2.327   0.458 -0.2902  0.1259 -0.0542
 1479ntf    on510029   1.219   2.565   0.332 -0.0830  0.3765  0.0902
 1479ntf    on510030   1.412   2.445   0.418  0.1023 -0.3395 -0.7173
 1479ntf    on510031   1.556   2.595   0.176 -0.1593  0.2693  0.4445
 1479ntf    on510032   1.450   2.534  -0.025  0.5432 -0.3156 -0.1619
 1479ntf    fn410033   1.569   2.271  -0.016 -0.1431 -0.1200  0.0791
 1479ntf    fn410034   1.722   2.393   0.079  0.0582 -0.5216 -0.4933
 1479ntf    fn410035   1.608   2.267   0.190 -0.2464  0.2085  0.1750
 1480ntf    cn110036   6.254   1.898   1.282  0.0357  0.3554 -0.0842
 1480ntf    sn210037   6.366   1.991   1.174  0.4968  0.0203  0.1034
 1480ntf    nn310038   6.293   2.130   1.180 -0.0700 -0.2818  0.3077
 1480ntf    sn210039   6.277   2.230   1.301 -0.1532 -0.2041  0.2321
 1480ntf    cn110040   6.406   2.346   1.249 -0.0029 -0.5519 -0.1799
 1480ntf    fn410041   6.129   1.939   1.264 -0.1913 -0.2132  0.1563
 1480ntf    fn410042   6.249   1.767   1.265 -0.0469  0.3034  0.3104
 1480ntf    fn410043   6.285   1.921   1.409 -0.1526 -0.3251  0.0925
 1480ntf    on510044   6.495   1.996   1.239  0.5166  0.3333  0.0415
 1480ntf    on510045   6.355   1.929   1.045  0.2658  0.7797 -0.2475
 1480ntf    on510046   6.314   2.184   1.432  0.1220 -0.5724  0.0284
 1480ntf    on510047   6.155   2.307   1.294  0.0342  0.0725 -0.0110
 1480ntf    fn410048   6.424   2.444   1.336 -0.7377 -0.4453 -0.1416
 1480ntf    fn410049   6.530   2.300   1.248  0.1930 -0.0583  0.6191
 1480ntf    fn410050   6.388   2.412   1.136 -0.5651  0.2152  0.3443
 1481ntf    cn110051   2.541   5.645   0.524 -0.3011  0.3133 -0.3351
 1481ntf    sn210052   2.665   5.646   0.657 -0.1624 -0.0686 -0.4592
 1481ntf    nn310053   2.571   5.693   0.774 -0.0247 -0.0847 -0.3428
 1481ntf    sn210054   2.528   5.617   0.904 -0.4203  0.2233 -0.2925
 1481ntf    cn110055   2.684   5.632   0.996 -0.2778  0.4364 -0.5670
 1481ntf    fn410056   2.498   5.764   0.485 -0.4825  0.1496 -0.6449
 1481ntf    fn410057   2.600   5.590   0.419 -0.0670 -0.2205  0.0760
 1481ntf    fn410058   2.436   5.573   0.559 -0.1471  0.0946 -0.3221
 1481ntf    on510059   2.707   5.509   0.666  0.6811  0.1919 -0.3745
 1481ntf    on510060   2.755   5.754   0.624  0.3000 -0.4657 -0.4993
 1481ntf    on510061   2.503   5.475   0.906  0.7083  0.0215  0.0848
 1481ntf    on510062   2.429   5.700   0.968 -0.0310  0.5194 -0.0691
 1481ntf    fn410063   2.746   5.747   0.977  0.1187  0.3220  0.0018
 1481ntf    fn410064   2.668   5.620   1.127 -0.2079 -0.1040 -0.6089
 1481ntf    fn410065   2.775   5.542   0.964 -0.1327  0.3056  0.1749
 1482ntf    cn110066   0.508   5.240   2.038 -0.0753  0.1070  0.4098
 1482ntf    sn210067   0.380   5.284   1.916 -0.0158 -0.2373  0.2207
 1482ntf    nn310068   0.402   5.181   1.800 -0.2374  0.3395 -0.3384
 1482ntf    sn210069   0.431   5.215   1.649 -0.3401 -0.1764 -0.4767
 1482ntf    cn110070   0.262   5.190   1.587 -0.5433  0.3180 -0.1302
 1482ntf    fn410071   0.469   5.129   2.100  0.2407 -0.1291  0.1877
 1482ntf    fn410072   0.627   5.219   1.985 -0.0129  0.4847  0.3977
 1482ntf    fn410073   0.532   5.330   2.131  0.5324  0.2256  0.1441
 1482ntf    on510074   0.250   5.258   1.973 -0.2832  0.7901  0.0940
 1482ntf    on510075   0.406   5.424   1.895 -0.5221 -0.2333 -0.4007
 1482ntf    on510076   0.517   5.122   1.581  0.0042 -0.0030 -0.2834
 1482ntf    on510077   0.449   5.353   1.613 -0.4498 -0.1087 -0.2744
 1482ntf    fn410078   0.177   5.259   1.662 -0.1304  0.1335  0.5149
 1482ntf    fn410079   0.245   5.231   1.462  0.3867 -0.2511 -0.4523
 1482ntf    fn410080   0.231   5.063   1.606  0.0745  0.1787 -0.0285
 1483ntf    cn110081   0.403   6.438   3.365  0.1745  0.2953  0.2785
 1483ntf    sn210082   0.399   6.460   3.185 -0.1504 -0.1189  0.2323
 1483ntf    nn310083   0.246   6.451   3.152 -0.1171  0.0577  0.0314
 1483ntf    sn210084   0.152   6.329   3.121 -0.0554  0.0208 -0.0101
 1483ntf    cn110085   0.103   6.353   2.948 -0.4551  0.2292  0.1313
 1483ntf    fn410086   0.526   6.418   3.409  0.0073  0.1168  0.6747
 1483ntf    fn410087   0.339   6.540   3.420  0.4810  0.3073  0.6185
 1483ntf    fn410088   0.350   6.319   3.393 -0.1960  0.3491 -0.1949
 1483ntf    on510089   0.454   6.592   3.172 -0.4297  0.0032  0.3008
 1483ntf    on510090   0.479   6.349   3.139  0.0841  0.0146  0.3165
 1483ntf    on510091   0.035   6.336   3.205 -0.2895 -0.3050 -0.3024
 1483ntf    on510092   0.219   6.201   3.116 -0.0511 -0.0021  0.5035
 1483ntf    fn410093   0.043   6.470   2.931 -0.9510 -0.0403  0.0412
 1483ntf    fn410094   0.216   6.356   2.878 -0.2107 -0.0315  0.5112
 1483ntf    fn410095   0.026   6.257   2.901  0.3405 -0.6428  0.5934
 1484ntf    cn110096   6.014   2.639   4.069  0.3946  0.2384  0.2846
 1484ntf    sn210097   6.127   2.583   3.939  0.2869 -0.1573  0.3602
 1484ntf    nn310098   6.218   2.481   4.016  0.1159 -0.4969  0.1131
 1484ntf    sn210099   6.325   2.376   3.970  0.1324 -0.3472 -0.1910
 1484ntf    cn110100   6.472   2.484   3.963 -0.0760 -0.0724 -0.3666
 1484ntf    fn410101   6.077   2.652   4.185  0.4886  0.7760  0.1782
 1484ntf    fn410102   5.965   2.757   4.034 -0.0855 -0.0640 -0.0599
 1484ntf    fn410103   5.913   2.557   4.089  0.1218  0.3998 -0.3961
 1484ntf    on510104   6.034   2.528   3.844  0.1909  0.5211  0.0512
 1484ntf    on510105   6.203   2.700   3.902  0.8454 -0.7190 -0.3113
 1484ntf    on510106   6.308   2.320   3.838 -0.5405 -0.1046 -0.2102
 1484ntf    on510107   6.363   2.283   4.073 -0.1204 -0.5176 -0.2493
 1484ntf    fn410108   6.575   2.402   3.948  0.0460  0.0215 -0.0500
 1484ntf    fn410109   6.460   2.561   3.857 -0.2395  0.0003 -0.2954
 1484ntf    fn410110   6.500   2.556   4.071  0.2431 -0.0145 -0.4897
 1485ntf    cn110111   1.117   5.042   3.633 -0.0102 -0.2968  0.3706
 1485ntf    sn210112   1.240   5.150   3.554 -0.4615  0.0033  0.0735
 1485ntf    nn310113   1.170   5.290   3.567 -0.1763  0.1390  0.1341
 1485ntf    sn210114   1.232   5.435   3.566 -0.1536  0.1281 -0.2108
 1485ntf    cn110115   1.092   5.498   3.469  0.0175  0.2808 -0.3585
 1485ntf    fn410116   1.161   4.917   3.641  0.0159 -0.2924  0.2798
 1485ntf    fn410117   1.083   5.083   3.754 -0.2150  0.3673  0.0904
 1485ntf    fn410118   1.000   5.037   3.571  0.4377  0.1009 -0.5077
 1485ntf    on510119   1.362   5.130   3.627 -0.5227  0.1463  0.2165
 1485ntf    on510120   1.249   5.099   3.420 -0.1558 -0.0170  0.1009
 1485ntf    on510121   1.347   5.451   3.480  0.3048 -0.6535  0.2445
 1485ntf    on510122   1.226   5.512   3.687 -0.4215 -0.3790  0.1035
 1485ntf    fn410123   0.975   5.443   3.500  0.5409 -0.1801  0.8466
 1485ntf    fn410124   1.082   5.630   3.473  0.2927  0.3072 -0.5543
 1485ntf    fn410125   1.112   5.480   3.339 -0.6845  0.1458 -0.4516
 1486ntf    cn110126   0.907   6.542   4.242 -0.0371 -0.0505  0.0575
 1486ntf    sn210127   1.032   6.567   4.372  0.1008 -0.1445 -0.0572
 1486ntf    nn310128   1.163   6.573   4.286  0.1234 -0.2304 -0.0287
 1486ntf    sn210129   1.261   6.691   4.251 -0.3138  0.1347 -0.0343
 1486ntf    cn110130   1.353   6.688   4.408  0.1273 -0.1636 -0.2974
 1486ntf    fn410131   0.785   6.562   4.289  0.0157  0.4720 -0.0222
 1486ntf    fn410132   0.914   6.617   4.133  0.0580  0.0075  0.1027
 1486ntf    fn410133   0.914   6.417   4.200  0.2378  0.1191 -0.4084
 1486ntf    on510134   0.997   6.692   4.435  1.0480  0.2141 -0.2150
 1486ntf    on510135   1.025   6.450   4.455 -0.4060 -0.4017 -0.4647
 1486ntf    on510136   1.188   6.815   4.244  0.1389  0.4124  0.1309
 1486ntf    on510137   1.353   6.659   4.145  0.1075 -0.2847  0.4503
 1486ntf    fn410138   1.462   6.761   4.392 -0.1479  0.2462 -0.3124
 1486ntf    fn410139   1.287   6.734   4.512  0.6418 -0.4001  0.1392
 1486ntf    fn410140   1.392   6.566   4.445  0.0219 -0.1544 -0.1573
 1487ntf    cn110141   3.692   4.616   3.531 -0.2409  0.0682  0.2733
 1487ntf    sn210142   3.779   4.484   3.442 -0.2808 -0.0690  0.4377
 1487ntf    nn310143   3.888   4.571   3.370 -0.5780  0.3914  0.5376
 1487ntf    sn210144   4.031   4.605   3.425 -0.2473 -0.2482  0.0948
 1487ntf    cn110145   4.064   4.775   3.369 -0.5872 -0.3579 -0.4441
 1487ntf    fn410146   3.680   4.587   3.659 -0.2332 -0.0601  0.2449
 1487ntf    fn410147   3.756   4.732   3.521 -0.1523  0.0287  0.3817
 1487ntf    fn410148   3.571   4.636   3.481 -0.0409 -0.1267 -0.2977
 1487ntf    on510149   3.842   4.386   3.526  0.0513 -0.5386 -0.3432
 1487ntf    on510150   3.676   4.437   3.352 -0.4182  0.2898  0.4046
 1487ntf    on510151   4.126   4.514   3.367  0.2843 -0.0216  0.6002
 1487ntf    on510152   4.030   4.628   3.568 -0.1129  0.2171  0.0198
 1487ntf    fn410153   4.038   4.789   3.240 -0.4206  0.4008 -0.3986
 1487ntf    fn410154   3.976   4.858   3.423 -0.0450  0.0243 -0.1417
 1487ntf    fn410155   4.189   4.810   3.394 -0.7692 -0.3386  0.4977
 1488ntf    cn110156   6.035   2.409   3.112 -0.2492  0.1879 -0.2012
 1488ntf    sn210157   5.937   2.307   3.227  0.0655  0.0871 -0.0209
 1488ntf    nn310158   5.968   2.165   3.166 -0.1342  0.0019  0.0766
 1488ntf    sn210159   5.882   2.097   3.054 -0.2640  0.4043 -0.0702
 1488ntf    cn110160   6.006   2.052   2.930 -0.2610 -0.1484  0.1283
 1488ntf    fn410161   6.023   2.538   3.136 -0.4484  0.1641 -0.1692
 1488ntf    fn410162   6.165   2.389   3.129 -0.2183 -0.0333 -0.6760
 1488ntf    fn410163   6.015   2.387   2.983 -0.3434 -0.2735 -0.1100
 1488ntf    on510164   6.004   2.316   3.354 -0.7147 -0.7185  0.4582
 1488ntf    on510165   5.806   2.366   3.218 -0.3784 -0.8389  0.2050
 1488ntf    on510166   5.791   2.176   2.975 -0.6289 -0.1459 -0.2006
 1488ntf    on510167   5.826   1.973   3.103 -0.1317  0.0947 -0.7018
 1488ntf    fn410168   5.968   1.949   2.855  0.4834 -0.4552  0.1645
 1488ntf    fn410169   6.045   2.149   2.848  0.2033 -0.5941 -0.1856
 1488ntf    fn410170   6.115   2.010   2.993  0.0561 -0.4084 -0.5774
 1489ntf    cn110171   0.661   1.307   4.759  0.3125 -0.1635 -0.1323
 1489ntf    sn210172   0.792   1.278   4.636  0.2997  0.0912 -0.2057
 1489ntf    nn310173   0.872   1.410   4.663  0.2327  0.0642  0.1293
 1489ntf    sn210174   0.997   1.429   4.756  0.3299 -0.1471  0.0421
 1489ntf    cn110175   1.121   1.492   4.638  0.1821 -0.3662 -0.2298
 1489ntf    fn410176   0.675   1.242   4.874  0.2304  0.4104  0.2076
 1489ntf    fn410177   0.637   1.433   4.791  0.0771 -0.2140 -0.1068
 1489ntf    fn410178   0.549   1.249   4.721 -0.1449  0.1464  0.7046
 1489ntf    on510179   0.847   1.155   4.686  0.0289 -0.1347 -0.4602
 1489ntf    on510180   0.726   1.283   4.508  0.8548  0.4904 -0.4764
 1489ntf    on510181   1.063   1.313   4.809  0.1815 -0.0073  0.5373
 1489ntf    on510182   0.989   1.539   4.850  0.3022 -0.1321  0.0224
 1489ntf    fn410183   1.132   1.403   4.541 -0.2072 -0.5488 -0.1131
 1489ntf    fn410184   1.080   1.603   4.579  0.5872  0.1492  0.4494
 1489ntf    fn410185   1.240   1.517   4.690  0.0496 -0.2141  0.0016
 1490ntf    cn110186   3.121   3.109   4.160  0.1330 -0.0725  0.3044
 1490ntf    sn210187   3.275   3.184   4.098 -0.1622  0.2648 -0.0184
 1490ntf    nn310188   3.241   3.330   4.051 -0.1354  0.2415 -0.1100
 1490ntf    sn210189   3.217   3.374   3.903  0.3191  0.3406 -0.1540
 1490ntf    cn110190   3.087   3.495   3.941  0.0212  0.0512 -0.2527
 1490ntf    fn410191   3.019   3.156   4.091  0.4831  0.2928  0.0303
 1490ntf    fn410192   3.124   2.977   4.152  0.7909 -0.0663  0.3811
 1490ntf    fn410193   3.093   3.138   4.286 -0.0833 -0.7014  0.4069
 1490ntf    on510194   3.362   3.184   4.213 -0.0271  0.6876 -0.1198
 1490ntf    on510195   3.322   3.098   3.993 -0.0827 -0.1836  0.3831
 1490ntf    on510196   3.155   3.282   3.811  0.0983  0.1517  0.1855
 1490ntf    on510197   3.327   3.457   3.859  0.3422  0.1316 -0.4984
 1490ntf    fn410198   3.053   3.553   3.827  0.1567  0.7662  0.0667
 1490ntf    fn410199   2.975   3.445   3.992 -0.2590  0.7515 -0.1656
 1490ntf    fn410200   3.130   3.597   4.013  0.2358  0.1612 -0.5372
 1491ntf    cn110201   2.813   4.112   2.153  0.0888  0.0343 -0.2772
 1491ntf    sn210202   2.752   3.972   2.252  0.2456  0.0400 -0.1723
 1491ntf    nn310203   2.758   4.037   2.395 -0.0764 -0.2201 -0.0389
 1491ntf    sn210204   2.849   3.999   2.517 -0.1888  0.4595  0.2602
 1491ntf    cn110205   2.743   4.091   2.632 -0.3239  0.0539  0.4588
 1491ntf    fn410206   2.796   4.073   2.027  0.1582 -0.4534 -0.1395
 1491ntf    fn410207   2.742   4.221   2.178 -0.5682 -0.4783  0.1363
 1491ntf    fn410208   2.942   4.132   2.171  0.1875 -0.0357 -0.8787
 1491ntf    on510209   2.621   3.945   2.198  0.0930 -0.0098  0.2221
 1491ntf    on510210   2.850   3.870   2.226 -0.5505 -0.8442  0.2389
 1491ntf    on510211   2.977   4.064   2.533 -0.0022  0.1361  0.0830
 1491ntf    on510212   2.842   3.863   2.563 -0.2958  0.4035  0.0821
 1491ntf    fn410213   2.817   4.121   2.738  0.0271  0.3807  0.1217
 1491ntf    fn410214   2.716   4.212   2.586  0.2902  0.0649  0.1140
 1491ntf    fn410215   2.634   4.032   2.679 -0.4228  0.1282  0.3216
 1492ntf    cn110216   1.033   4.835   2.857  0.3651  0.1658  0.2300
 1492ntf    sn210217   0.909   4.794   2.983 -0.0441  0.2167 -0.1536
 1492ntf    nn310218   0.781   4.859   2.921  0.2393  0.7497 -0.1806
 1492ntf    sn210219   0.658   4.791   2.850  0.1865  0.2011  0.4274
 1492ntf    cn110220   0.568   4.938   2.791 -0.1230 -0.0619  0.2470
 1492ntf    fn410221   1.009   4.773   2.743  0.0714  0.1445  0.3031
 1492ntf    fn410222   1.022   4.965   2.833  0.0592  0.0779 -0.1133
 1492ntf    fn410223   1.156   4.805   2.895  0.4916  0.6853  0.2364
 1492ntf    on510224   0.916   4.650   2.998 -0.9672  0.1726 -0.0425
 1492ntf    on510225   0.967   4.868   3.093 -0.2035  0.6600 -0.3659
 1492ntf    on510226   0.555   4.742   2.938 -0.3355 -0.3828 -0.4888
 1492ntf    on510227   0.684   4.709   2.734  0.1465  0.5307  0.1830
 1492ntf    fn410228   0.498   4.999   2.885  0.0042 -0.0127  0.3095
 1492ntf    fn410229   0.644   5.023   2.724 -0.0770 -0.3762 -0.1037
 1492ntf    fn410230   0.477   4.901   2.701 -0.4052  0.2112  0.4183
 1493ntf    cn110231   6.716   2.434   1.595 -0.0029 -0.2280  0.0776
 1493ntf    sn210232   6.633   2.531   1.724  0.1357 -0.1802  0.1323
 1493ntf    nn310233   6.755   2.544   1.821 -0.2016  0.0068  0.5361
 1493ntf    sn210234   6.872   2.648   1.808  0.0243 -0.2169  0.7570
 1493ntf    cn110235   6.824   2.784   1.918  0.0238  0.2850  0.1469
 1493ntf    fn410236   6.814   2.504   1.541 -0.0124 -0.1208  0.2009
 1493ntf    fn410237   6.772   2.322   1.640  0.5735  0.3030  0.7033
 1493ntf    fn410238   6.635   2.400   1.496  0.1065 -0.2997  0.0117
 1493ntf    on510239   6.592   2.652   1.657  0.1412 -0.0870  0.2967
 1493ntf    on510240   6.533   2.439   1.773  0.2112  0.3872  1.3823
 1493ntf    on510241   6.866   2.713   1.679 -0.9609 -0.6168  0.5904
 1493ntf    on510242   7.003   2.611   1.855  0.2315  0.1689  0.4902
 1493ntf    fn410243   6.704   2.829   1.884 -0.0463  0.2314  0.3142
 1493ntf    fn410244   6.826   2.753   2.047 -0.2066  1.0744  0.3447
 1493ntf    fn410245   6.906   2.886   1.903  0.2938  0.0914  0.3071
 1494ntf    cn110246   5.938   4.806   4.135 -0.2781 -0.0497 -0.0134
 1494ntf    sn210247   6.056   4.925   4.205 -0.2052 -0.0849 -0.0777
 1494ntf    nn310248   6.174   4.822   4.224 -0.1153  0.1086  0.4294
 1494ntf    sn210249   6.215   4.727   4.342 -0.2492  0.0377  0.4199
 1494ntf    cn110250   6.306   4.599   4.251 -0.1488 -0.1033  0.7168
 1494ntf    fn410251   5.829   4.875   4.104 -0.3062 -0.3228 -0.5327
 1494ntf    fn410252   5.978   4.738   4.029 -0.0957 -0.2749  0.2010
 1494ntf    fn410253   5.895   4.715   4.221 -0.4000  0.1080  0.0950
 1494ntf    on510254   6.081   5.019   4.099 -0.0594  0.9432  0.8542
 1494ntf    on510255   5.988   4.974   4.322 -0.1202  0.3925 -0.2291
 1494ntf    on510256   6.101   4.660   4.400 -0.3296 -0.4277 -0.2685
 1494ntf    on510257   6.302   4.795   4.435  0.0014 -0.1894  0.3493
 1494ntf    fn410258   6.377   4.649   4.151 -0.7785  0.1127  0.3711
 1494ntf    fn410259   6.396   4.546   4.331  0.1106 -0.1059  0.4234
 1494ntf    fn410260   6.225   4.510   4.196 -0.3002  0.1136  0.5836
 1495ntf    cn110261   1.311   0.576   2.102  0.0819 -0.6120  0.4233
 1495ntf    sn210262   1.402   0.577   2.259  0.1533  0.1331  0.3831
 1495ntf    nn310263   1.293   0.649   2.346 -0.3109 -0.2259  0.1085
 1495ntf    sn210264   1.286   0.797   2.400 -0.0386 -0.1847  0.0342
 1495ntf    cn110265   1.159   0.779   2.529  0.1122  0.4450  0.2716
 1495ntf    fn410266   1.218   0.484   2.082 -0.5840  0.2585 -0.6149
 1495ntf    fn410267   1.242   0.689   2.099  0.2859 -0.4962 -0.0511
 1495ntf    fn410268   1.385   0.584   1.992 -0.8490  0.4173 -0.1579
 1495ntf    on510269   1.408   0.438   2.300 -0.1706  0.1353  0.4385
 1495ntf    on510270   1.527   0.645   2.235  0.3319 -0.1480  0.5035
 1495ntf    on510271   1.218   0.892   2.315  0.3169  0.2721  0.2569
 1495ntf    on510272   1.404   0.838   2.471 -0.1886 -0.5850  0.5145
 1495ntf    fn410273   1.036   0.769   2.481 -0.2300  1.0949  0.9886
 1495ntf    fn410274   1.189   0.673   2.603 -0.6085  0.2669  0.3098
 1495ntf    fn410275   1.158   0.887   2.605 -0.9271  0.6334  0.0008
 1496ntf    cn110276   0.378   3.446   2.872  0.5155  0.3369 -0.1405
 1496ntf    sn210277   0.524   3.428   2.765  0.3873  0.0782 -0.2725
 1496ntf    nn310278   0.595   3.322   2.856 -0.4955  0.2035  0.5721
 1496ntf    sn210279   0.702   3.354   2.967  0.4175  0.2404 -0.3079
 1496ntf    cn110280   0.857   3.324   2.877  0.1039  0.2194 -0.8453
 1496ntf    fn410281   0.318   3.329   2.885  0.3145  0.4425 -0.1115
 1496ntf    fn410282   0.408   3.494   2.992 -0.7932 -0.1915  0.4175
 1496ntf    fn410283   0.287   3.527   2.821  0.5818  0.4163 -0.1326
 1496ntf    on510284   0.459   3.361   2.655 -0.2234  0.1596  0.0366
 1496ntf    on510285   0.585   3.558   2.750 -0.1226  0.2957 -0.4689
 1496ntf    on510286   0.709   3.249   3.065 -0.4408  0.3806 -0.0882
 1496ntf    on510287   0.722   3.486   3.020  0.7282  0.2221 -0.3807
 1496ntf    fn410288   0.971   3.364   2.929 -0.2214  0.5196 -0.3540
 1496ntf    fn410289   0.876   3.193   2.866 -0.1854  0.1486 -0.5372
 1496ntf    fn410290   0.853   3.373   2.754  0.4348  0.4240 -0.7733
 1497ntf    cn110291   2.183   3.393   4.626 -0.1949  0.3622 -0.3298
 1497ntf    sn210292   2.266   3.454   4.775  0.2880 -0.4160 -0.2726
 1497ntf    nn310293   2.151   3.459   4.882  0.6180 -0.4369  0.0855
 1497ntf    sn210294   2.149   3.460   5.039  0.2042  0.2242  0.0785
 1497ntf    cn110295   2.114   3.634   5.078  0.3249  0.2797 -0.0615
 1497ntf    fn410296   2.112   3.288   4.665  0.3236  0.0841 -0.1205
 1497ntf    fn410297   2.098   3.472   4.562  0.3372  0.7790 -0.5199
 1497ntf    fn410298   2.277   3.358   4.540 -0.0509  0.7514 -0.3333
 1497ntf    on510299   2.363   3.351   4.806  0.7184 -0.0265 -0.3041
 1497ntf    on510300   2.322   3.583   4.743 -0.0607 -0.4451 -0.9991
 1497ntf    on510301   2.272   3.424   5.104  0.0518 -0.1314  0.1725
 1497ntf    on510302   2.034   3.395   5.096  0.3506 -0.5515 -0.5089
 1497ntf    fn410303   1.991   3.666   5.041  0.0328 -0.4427  0.2887
 1497ntf    fn410304   2.125   3.658   5.207 -0.5045 -0.2782  0.1238
 1497ntf    fn410305   2.199   3.717   5.020  0.6908  0.4554  0.7195
 1498ntf    cn110306   4.856   3.523   1.659 -0.3081  0.2335 -0.1276
 1498ntf    sn210307   4.773   3.684   1.660  0.0857  0.4376 -0.0548
 1498ntf    nn310308   4.893   3.777   1.619  0.9738 -0.7364 -0.1566
 1498ntf    sn210309   4.913   3.870   1.494 -0.3019  0.3374  0.4117
 1498ntf    cn110310   4.780   3.986   1.536 -0.3600  0.4077  0.0347
 1498ntf    fn410311   4.761   3.432   1.672 -0.0989  0.0801  0.3631
 1498ntf    fn410312   4.920   3.497   1.547 -0.5258 -0.1764 -0.1603
 1498ntf    fn410313   4.951   3.505   1.750 -0.0663  0.1807 -0.3884
 1498ntf    on510314   4.658   3.675   1.573  0.0552 -0.1971  0.0469
 1498ntf    on510315   4.752   3.690   1.803  1.3078 -0.3316  0.1650
 1498ntf    on510316   4.887   3.809   1.367 -0.2272  0.1491  0.4863
 1498ntf    on510317   5.032   3.947   1.522  0.0533 -0.1011  0.1214
 1498ntf    fn410318   4.657   3.938   1.543 -0.2559  0.1588  0.1496
 1498ntf    fn410319   4.798   4.031   1.660 -0.0740 -0.2362  0.2280
 1498ntf    fn410320   4.778   4.091   1.456 -0.2921  0.2618 -0.1581
 1499ntf    cn110321   5.540   1.503   4.840  0.3277  0.1557  0.2366
 1499ntf    sn210322   5.638   1.373   4.760  0.2133 -0.1149  0.5341
 1499ntf    nn310323   5.789   1.415   4.765  0.2311 -0.0792 -0.1433
 1499ntf    sn210324   5.885   1.497   4.672  0.3632 -0.1269 -0.0501
 1499ntf    cn110325   6.038   1.469   4.766  0.1502 -0.1762  0.2835
 1499ntf    fn410326   5.589   1.526   4.961 -0.2257  0.7066  0.3607
 1499ntf    fn410327   5.541   1.616   4.771  0.0976  0.2011  0.3068
 1499ntf    fn410328   5.412   1.469   4.851  0.3536 -0.0856 -0.1869
 1499ntf    on510329   5.603   1.263   4.847 -0.9492 -0.0725  0.1439
 1499ntf    on510330   5.585   1.361   4.626  0.6835  0.2484  0.3133
 1499ntf    on510331   5.870   1.639   4.693  0.3637 -0.1464  0.0827
 1499ntf    on510332   5.916   1.431   4.547  0.2053  0.1162 -0.2184
 1499ntf    fn410333   6.038   1.541   4.877  0.0474  0.4082 -0.0882
 1499ntf    fn410334   6.039   1.344   4.808 -0.9961 -0.3493 -0.1622
 1499ntf    fn410335   6.149   1.503   4.702 -0.6828  0.4385 -0.8666
 1500ntf    cn110336   3.049   6.485   1.777  0.4843 -0.0886  0.2815
 1500ntf    sn210337   3.128   6.387   1.908  0.4857 -0.0363  0.3196
 1500ntf    nn310338   3.008   6.300   1.959  0.2237  0.1761  0.0678
 1500ntf    sn210339   2.973   6.239   2.099 -0.1316  0.4241  0.0880
 1500ntf    cn110340   2.938   6.072   2.037  0.1702  0.2112  0.4857
 1500ntf    fn410341   2.942   6.550   1.822  0.0212 -0.3546 -0.4264
 1500ntf    fn410342   3.133   6.576   1.731  0.5702 -0.4260 -0.2319
 1500ntf    fn410343   3.015   6.407   1.676  0.6217  0.3156 -0.0794
 1500ntf    on510344   3.222   6.307   1.834  0.0179 -0.1169 -0.1888
 1500ntf    on510345   3.170   6.482   2.008  0.0073 -0.0250  0.5102
 1500ntf    on510346   2.851   6.286   2.162  0.3552  0.6737  0.8604
 1500ntf    on510347   3.084   6.220   2.189  0.3380 -0.4937 -0.6674
 1500ntf    fn410348   2.832   6.067   1.958  0.3826  0.1653  0.2029
 1500ntf    fn410349   3.037   6.023   1.964 -0.0019  0.1941  0.2622
 1500ntf    fn410350   2.913   5.982   2.132  0.0126 -0.7785 -0.4687
 1501ntf    cn110351   1.490   0.208   6.395 -0.7493  0.0821  0.3320
 1501ntf    sn210352   1.502   0.338   6.268 -0.1913  0.0073  0.3039
 1501ntf    nn310353   1.475   0.466   6.354 -0.3544  0.1844 -0.0055
 1501ntf    sn210354   1.428   0.605   6.299  0.1236  0.3400 -0.0258
 1501ntf    cn110355   1.255   0.599   6.353  0.0496 -0.0539 -0.3050
 1501ntf    fn410356   1.554   0.249   6.503  0.0561  0.0543 -0.1267
 1501ntf    fn410357   1.363   0.199   6.428 -0.9305  0.1069 -0.3387
 1501ntf    fn410358   1.536   0.092   6.352  0.5903  0.4624  0.6804
 1501ntf    on510359   1.636   0.333   6.216 -0.3425 -0.0506 -0.0907
 1501ntf    on510360   1.395   0.302   6.177 -0.1375  0.1455  0.1856
 1501ntf    on510361   1.421   0.618   6.155  0.2239  0.3831 -0.0275
 1501ntf    on510362   1.489   0.708   6.379  0.1696 -0.0346  0.4254
 1501ntf    fn410363   1.202   0.485   6.310  0.0700 -0.3919  0.5470
 1501ntf    fn410364   1.241   0.612   6.483 -0.3178 -0.0352 -0.3452
 1501ntf    fn410365   1.176   0.690   6.299 -0.5996 -0.5003 -0.1239
 1502ntf    cn110366   1.762   5.009   6.042  0.1962  0.1019 -0.1661
 1502ntf    sn210367   1.624   4.987   5.925 -0.2378 -0.6370  0.4691
 1502ntf    nn310368   1.577   4.842   5.961 -1.1096 -0.3999  0.3148
 1502ntf    sn210369   1.592   4.717   5.867 -0.0991  0.2126 -0.3537
 1502ntf    cn110370   1.591   4.580   5.986 -0.2492  0.3447 -0.2020
 1502ntf    fn410371   1.850   4.910   6.042  0.0317 -0.0472  0.0488
 1502ntf    fn410372   1.828   5.117   6.006  0.1193  0.2836  0.2238
 1502ntf    fn410373   1.713   5.018   6.165 -0.4304  0.1659 -0.4155
 1502ntf    on510374   1.530   5.086   5.972 -0.3584 -0.3577 -0.3573
 1502ntf    on510375   1.683   5.009   5.795  0.1584 -0.2001  0.7171
 1502ntf    on510376   1.719   4.698   5.801  0.3578 -0.1207  0.6050
 1502ntf    on510377   1.470   4.710   5.791 -0.0070  0.9130 -0.5788
 1502ntf    fn410378   1.710   4.532   6.020 -0.5448 -0.1282  0.1879
 1502ntf    fn410379   1.527   4.599   6.100 -0.6027 -0.2228 -0.2968
 1502ntf    fn410380   1.532   4.474   5.933  0.0781  0.0608  0.0024
 1503ntf    cn110381   1.245   3.724   2.252 -0.0576 -0.1472  0.3497
 1503ntf    sn210382   1.239   3.858   2.374  0.3237  0.0861  0.1126
 1503ntf    nn310383   1.089   3.904   2.385  0.3095  0.0140  0.2123
 1503ntf    sn210384   1.033   4.050   2.397  0.1395 -0.0346  0.0133
 1503ntf    cn110385   1.064   4.114   2.230 -0.7137 -0.5091 -0.3291
 1503ntf    fn410386   1.209   3.604   2.295 -0.2594 -0.2743 -0.1628
 1503ntf    fn410387   1.159   3.753   2.156  0.2157  0.2858  0.2354
 1503ntf    fn410388   1.364   3.719   2.195 -0.0515 -0.7417  0.4020
 1503ntf    on510389   1.279   3.797   2.498  0.4369  0.4257  0.2433
 1503ntf    on510390   1.326   3.959   2.319  0.5009 -0.3453 -0.4112
 1503ntf    on510391   1.117   4.134   2.479  0.2428 -0.5811  0.4766
 1503ntf    on510392   0.890   4.063   2.407  0.1243  0.0501 -0.3056
 1503ntf    fn410393   1.186   4.162   2.213 -0.5344 -0.7087  0.3555
 1503ntf    fn410394   1.041   4.028   2.132  0.5472 -0.3046 -0.8164
 1503ntf    fn410395   0.970   4.205   2.207 -0.0371  0.3081  0.0851
 1504ntf    cn110396   1.876   0.866   1.294 -0.2411 -0.2964  0.0667
 1504ntf    sn210397   2.049   0.812   1.295 -0.1352  0.0416 -0.0133
 1504ntf    nn310398   2.022   0.666   1.243  0.0928  0.0799 -0.2460
 1504ntf    sn210399   2.108   0.573   1.151  0.2231 -0.2441  0.2018
 1504ntf    cn110400   2.133   0.444   1.277  0.1531 -0.5644 -0.1117
 1504ntf    fn410401   1.826   0.891   1.174  0.1569 -0.6924 -0.1860
 1504ntf    fn410402   1.790   0.779   1.345 -0.3517 -0.0872  0.2388
 1504ntf    fn410403   1.856   0.969   1.374 -0.1794 -0.6291  0.5202
 1504ntf    on510404   2.096   0.905   1.195  0.1378  0.1588  0.2227
 1504ntf    on510405   2.094   0.813   1.432  0.1744  0.0845 -0.1130
 1504ntf    on510406   2.242   0.612   1.115 -0.0205 -0.0937 -0.5435
 1504ntf    on510407   2.027   0.502   1.055 -0.9722 -0.1645  1.1199
 1504ntf    fn410408   2.174   0.328   1.228  0.7883 -0.1996 -0.4523
 1504ntf    fn410409   2.230   0.470   1.363 -0.2925  0.2981  0.1351
 1504ntf    fn410410   2.026   0.425   1.352  0.2937  0.2083  0.2929
 1505ntf    cn110411   4.052   2.749   4.359  0.3727 -0.1670 -0.4696
 1505ntf    sn210412   4.026   2.863   4.220  0.1910 -0.0411 -0.3328
 1505ntf    nn310413   4.116   2.981   4.269 -0.0661 -0.2376  0.6393
 1505ntf    sn210414   4.089   3.133   4.296  0.1423 -0.0597 -0.1093
 1505ntf    cn110415   4.120   3.211   4.135  0.0783 -0.1840 -0.1823
 1505ntf    fn410416   3.939   2.694   4.401  0.6126 -0.4728 -0.2218
 1505ntf    fn410417   4.130   2.648   4.324 -0.1823 -0.6115 -0.4534
 1505ntf    fn410418   4.099   2.820   4.460  0.0893  0.1768 -0.5770
 1505ntf    on510419   4.079   2.787   4.109 -0.1487 -0.5349 -0.1632
 1505ntf    on510420   3.883   2.878   4.208  0.2139  0.5011  0.0624
 1505ntf    on510421   4.189   3.195   4.380  0.0363 -0.5385  0.3766
 1505ntf    on510422   3.953   3.177   4.313  0.2821  0.3217  0.0682
 1505ntf    fn410423   4.240   3.181   4.087  0.0097  0.0544 -0.5034
 1505ntf    fn410424   4.046   3.166   4.036  0.2216 -0.0941 -0.3315
 1505ntf    fn410425   4.102   3.342   4.133 -0.1768 -0.2174 -0.0497
 1506ntf    cn110426   6.089   1.449   1.308  0.1110  0.1301  0.0583
 1506ntf    sn210427   6.035   1.508   1.145  0.1642  0.0483  0.0106
 1506ntf    nn310428   5.963   1.374   1.106  0.7510 -0.1715 -0.3224
 1506ntf    sn210429   5.855   1.354   0.994  0.2245 -0.0012  0.1503
 1506ntf    cn110430   5.705   1.339   1.097 -0.0079 -0.0029 -0.1853
 1506ntf    fn410431   6.132   1.546   1.388 -0.5643  0.2145  0.3266
 1506ntf    fn410432   5.997   1.381   1.375 -0.2493  0.2338 -0.3309
 1506ntf    fn410433   6.190   1.366   1.286  0.1585  0.2065 -0.0117
 1506ntf    on510434   5.951   1.617   1.188  0.3992  0.2465 -0.0349
 1506ntf    on510435   6.152   1.534   1.065 -0.2155 -0.3129 -0.6702
 1506ntf    on510436   5.864   1.223   0.933 -0.6508 -0.2869  0.6115
 1506ntf    on510437   5.810   1.465   0.914 -0.9430 -0.3771  0.2579
 1506ntf    fn410438   5.716   1.252   1.196 -0.1010 -0.2263 -0.3705
 1506ntf    fn410439   5.675   1.451   1.160  0.9683  0.1780 -0.0167
 1506ntf    fn410440   5.597   1.307   1.028 -0.0251  0.2320 -0.2679
 1507ntf    cn110441   0.436   5.980   0.491 -0.1275 -0.1714  0.3102
 1507ntf    sn210442   0.362   5.927   0.649  0.3334 -0.0035  0.5869
 1507ntf    nn310443   0.432   5.789   0.678  0.4822 -0.0141  0.1853
 1507ntf    sn210444   0.370   5.664   0.748 -0.1031  0.1854  0.0308
 1507ntf    cn110445   0.375   5.547   0.609 -0.1410  0.1464  0.0621
 1507ntf    fn410446   0.385   6.090   0.439  0.2488 -0.1723 -0.0592
 1507ntf    fn410447   0.565   6.004   0.505 -0.2211  0.2718  0.4346
 1507ntf    fn410448   0.420   5.888   0.398 -0.5854  0.1023  0.1130
 1507ntf    on510449   0.415   6.029   0.735  0.2936  0.5657 -0.0504
 1507ntf    on510450   0.220   5.925   0.621  0.4304  0.5016  0.0358
 1507ntf    on510451   0.228   5.665   0.773 -0.0272 -0.3965  0.5385
 1507ntf    on510452   0.451   5.594   0.845 -0.3615 -0.0950  0.0477
 1507ntf    fn410453   0.496   5.519   0.563 -0.1744  0.5491 -0.2786
 1507ntf    fn410454   0.329   5.427   0.641 -0.0756  0.0007 -0.3817
 1507ntf    fn410455   0.303   5.585   0.504 -0.7562 -0.6862  0.1720
 1508ntf    cn110456   3.932   2.429   5.772  0.0900 -0.0270 -0.2476
 1508ntf    sn210457   3.964   2.593   5.702 -0.0309  0.1432  0.0972
 1508ntf    nn310458   4.056   2.656   5.813  0.1326 -0.2301  0.1721
 1508ntf    sn210459   3.998   2.712   5.948 -0.0441  0.0128 -0.0049
 1508ntf    cn110460   4.142   2.703   6.058  0.0502  0.0254 -0.1271
 1508ntf    fn410461   3.835   2.427   5.862 -0.1748 -0.3815 -0.5325
 1508ntf    fn410462   3.893   2.348   5.674 -0.3112 -0.4297  0.2393
 1508ntf    fn410463   4.037   2.372   5.828 -0.2593  0.2438  0.6956
 1508ntf    on510464   4.045   2.571   5.585  0.5804  0.5388  0.4387
 1508ntf    on510465   3.837   2.657   5.676  0.0011  0.1724  0.0118
 1508ntf    on510466   3.904   2.626   6.015  0.2627 -0.0880  0.2976
 1508ntf    on510467   3.984   2.855   5.942 -0.8772 -0.0678 -0.0948
 1508ntf    fn410468   4.108   2.746   6.179 -0.1913 -0.2936 -0.0812
 1508ntf    fn410469   4.196   2.584   6.077  0.5259  0.2272 -0.1909
 1508ntf    fn410470   4.241   2.789   6.035 -0.3852  0.5451 -0.0744
 1509ntf    cn110471   6.680   3.124   3.359  0.0527 -0.1023  0.0198
 1509ntf    sn210472   6.710   2.987   3.243 -0.1178 -0.2849  0.1895
 1509ntf    nn310473   6.574   2.912   3.263 -0.1977 -0.1214  0.2686
 1509ntf    sn210474   6.434   2.944   3.200  0.0257  0.1877 -0.0798
 1509ntf    cn110475   6.407   2.814   3.075 -0.3569  0.2009 -0.0111
 1509ntf    fn410476   6.641   3.087   3.480 -0.4440 -0.2997 -0.1947
 1509ntf    fn410477   6.777   3.213   3.371  0.0293 -0.1200  0.3458
 1509ntf    fn410478   6.574   3.187   3.311  0.1526  0.3690  0.4090
 1509ntf    on510479   6.723   3.044   3.111  0.3028  0.0959  0.3918
 1509ntf    on510480   6.827   2.922   3.297  0.1352  0.0093  0.0059
 1509ntf    on510481   6.427   3.069   3.129  0.8349 -0.1329 -0.7334
 1509ntf    on510482   6.326   2.915   3.292  0.3313 -0.4737  0.0789
 1509ntf    fn410483   6.288   2.824   3.018 -0.2103  0.2907 -0.3026
 1509ntf    fn410484   6.492   2.819   2.974 -0.6532 -0.1578 -0.2815
 1509ntf    fn410485   6.413   2.696   3.134  0.3624 -0.1875 -0.8421
 1510ntf    cn110486   6.817   6.423   2.431  0.1757 -0.2228  0.2058
 1510ntf    sn210487   6.980   6.342   2.441  0.0975 -0.3896  0.1457
 1510ntf    nn310488   6.955   6.221   2.344 -0.6599 -0.1407  0.0236
 1510ntf    sn210489   7.040   6.176   2.220  0.0166  0.2828  0.3247
 1510ntf    cn110490   6.912   6.080   2.133  0.0160  0.1921  0.4273
 1510ntf    fn410491   6.712   6.366   2.487  0.3287 -0.0763  0.6500
 1510ntf    fn410492   6.829   6.545   2.479  0.0182 -0.2413  0.2904
 1510ntf    fn410493   6.790   6.439   2.303  0.2128 -0.2382  0.1961
 1510ntf    on510494   7.075   6.442   2.398  0.0444 -0.5323 -0.3098
 1510ntf    on510495   6.994   6.307   2.580  0.8694  0.1458  0.2081
 1510ntf    on510496   7.147   6.085   2.251 -0.5872 -0.5556 -0.0184
 1510ntf    on510497   7.064   6.278   2.120  0.0419  0.0213  0.0626
 1510ntf    fn410498   6.792   6.133   2.122 -0.1125 -0.1162  0.3215
 1510ntf    fn410499   6.954   6.068   2.008  0.2575  0.2541  0.5020
 1510ntf    fn410500   6.892   5.957   2.179  0.4956 -0.1048 -0.1404
 1511ntf    cn110501   5.095   2.533   0.654 -0.0164  0.2020  0.1875
 1511ntf    sn210502   4.981   2.642   0.744 -0.3449  0.0829 -0.0825
 1511ntf    nn310503   5.017   2.775   0.670 -0.4789 -0.1837 -0.6315
 1511ntf    sn210504   4.949   2.915   0.651 -0.2894 -0.0024 -0.0017
 1511ntf    cn110505   4.843   2.880   0.508 -0.3372  0.2619 -0.0308
 1511ntf    fn410506   5.127   2.424   0.722  0.0817  0.3303  0.3473
 1511ntf    fn410507   5.045   2.491   0.539  0.6877 -0.2451  0.0358
 1511ntf    fn410508   5.209   2.590   0.619 -0.2094  0.5717  0.1613
 1511ntf    on510509   4.849   2.587   0.722 -0.1233 -0.3105 -0.4427
 1511ntf    on510510   5.034   2.639   0.878 -0.5595  0.1968  0.0058
 1511ntf    on510511   5.040   3.017   0.604 -0.0798 -0.1997 -0.0261
 1511ntf    on510512   4.851   2.963   0.745 -0.0838 -0.1864  0.3070
 1511ntf    fn410513   4.772   2.987   0.475 -0.4278  0.1160 -0.3133
 1511ntf    fn410514   4.911   2.842   0.401 -0.1416 -0.7931  0.4643
 1511ntf    fn410515   4.753   2.785   0.529 -0.4495  0.3049 -0.3021
 1512ntf    cn110516   5.750   6.370   3.600  0.0513  0.0661 -0.1426
 1512ntf    sn210517   5.672   6.280   3.737 -0.2430  0.3913 -0.0942
 1512ntf    nn310518   5.626   6.144   3.674 -0.3020  0.1849  0.3894
 1512ntf    sn210519   5.487   6.103   3.613 -0.0042 -0.2490 -0.0006
 1512ntf    cn110520   5.545   5.982   3.490  0.0414 -0.1486 -0.0775
 1512ntf    fn410521   5.665   6.382   3.499 -0.4633 -0.2406  0.2414
 1512ntf    fn410522   5.781   6.493   3.636  0.2778  0.1117 -0.4915
 1512ntf    fn410523   5.857   6.305   3.559  0.2015  0.3797 -0.2457
 1512ntf    on510524   5.780   6.272   3.833  0.6209  0.0889 -1.0820
 1512ntf    on510525   5.562   6.369   3.766  0.1023  0.6152  0.5543
 1512ntf    on510526   5.426   6.195   3.520  0.7928 -0.0734 -0.3546
 1512ntf    on510527   5.397   6.023   3.692 -0.3840  0.0233 -0.1567
 1512ntf    fn410528   5.591   5.876   3.554  0.1926 -0.2527 -0.3577
 1512ntf    fn410529   5.449   5.939   3.411  0.0734 -0.1803 -0.0985
 1512ntf    fn410530   5.646   6.031   3.419 -0.0497  0.0227 -0.0900
 1513ntf    cn110531   3.705   2.942   0.130  0.3675  0.1913 -0.1866
 1513ntf    sn210532   3.700   3.001  -0.042  0.5720 -0.1720 -0.3188
 1513ntf    nn310533   3.603   2.897  -0.108  0.0544  0.0117  0.1413
 1513ntf    sn210534   3.644   2.766  -0.184  0.3774  0.0535  0.2426
 1513ntf    cn110535   3.577   2.639  -0.073 -0.0629  0.1226  0.0583
 1513ntf    fn410536   3.781   2.835   0.146  0.1263  0.0849  0.2549
 1513ntf    fn410537   3.759   3.036   0.205  0.2039 -0.1482  0.3632
 1513ntf    fn410538   3.588   2.912   0.184  0.3473  0.6750  0.0384
 1513ntf    on510539   3.640   3.129  -0.014  0.5339 -0.2817  0.1186
 1513ntf    on510540   3.835   3.008  -0.091  0.6094  0.6059 -0.1164
 1513ntf    on510541   3.783   2.732  -0.202  0.4053  0.0635  0.4422
 1513ntf    on510542   3.569   2.750  -0.307  0.1533  0.0399  0.3813
 1513ntf    fn410543   3.605   2.656   0.055  0.2735 -0.2910  0.0422
 1513ntf    fn410544   3.445   2.634  -0.085 -0.0364  0.4032 -0.3877
 1513ntf    fn410545   3.611   2.515  -0.107 -0.8759 -0.0051 -0.3224
 1514ntf    cn110546   1.372   5.927   2.703 -0.0829 -0.6519  0.4985
 1514ntf    sn210547   1.288   5.765   2.697 -0.5992 -0.3576 -0.3837
 1514ntf    nn310548   1.207   5.766   2.832 -0.5407  0.5731 -0.3440
 1514ntf    sn210549   1.057   5.722   2.836 -0.3975  0.1378  0.4980
 1514ntf    cn110550   1.026   5.707   3.014  0.4411 -0.4217  0.6001
 1514ntf    fn410551   1.427   5.936   2.823  0.3962  0.3183  0.2076
 1514ntf    fn410552   1.465   5.945   2.611 -0.5422  0.1206  0.1794
 1514ntf    fn410553   1.284   6.024   2.687  0.4505 -0.2456  0.0085
 1514ntf    on510554   1.220   5.789   2.572 -0.1000  0.0724 -0.5765
 1514ntf    on510555   1.402   5.677   2.701 -0.2466  0.1307  1.2489
 1514ntf    on510556   1.034   5.587   2.789  0.8428 -0.2026  0.8308
 1514ntf    on510557   0.963   5.823   2.794 -0.4273 -0.1066 -0.0447
 1514ntf    fn410558   1.049   5.822   3.075  0.2680  0.1099 -0.3228
 1514ntf    fn410559   0.902   5.667   3.039  0.3222 -0.6620 -0.3374
 1514ntf    fn410560   1.113   5.622   3.068  0.6829 -0.4788  0.1221
 1515ntf    cn110561   0.411   0.657   2.725  0.1414 -0.0848  0.2787
 1515ntf    sn210562   0.350   0.828   2.722 -0.1609 -0.1965  0.0183
 1515ntf    nn310563   0.301   0.856   2.869  0.0790  0.1342  0.0368
 1515ntf    sn210564   0.157   0.901   2.911  0.0736 -0.0691  0.2380
 1515ntf    cn110565   0.188   0.955   3.082  0.5788 -0.0952  0.1544
 1515ntf    fn410566   0.414   0.603   2.604 -0.0291 -0.3252  0.3808
 1515ntf    fn410567   0.535   0.649   2.769  0.0328  0.2809  0.6557
 1515ntf    fn410568   0.331   0.588   2.805 -0.4558  0.5238  0.2181
 1515ntf    on510569   0.471   0.900   2.694 -0.4265  0.5596  0.7666
 1515ntf    on510570   0.255   0.818   2.613 -0.0345 -0.1324 -0.0973
 1515ntf    on510571   0.067   0.791   2.935 -0.5076  0.3924  0.2033
 1515ntf    on510572   0.112   1.027   2.856  0.2323  0.0430  0.3634
 1515ntf    fn410573   0.219   0.855   3.164  0.5347  0.2740  0.6250
 1515ntf    fn410574   0.277   1.052   3.085  0.1708  0.2693  0.5968
 1515ntf    fn410575   0.085   1.005   3.148  0.4373 -0.2976  0.0894
 1516ntf    cn110576   1.975   0.324   5.451 -0.1461 -0.0203  0.0460
 1516ntf    sn210577   2.075   0.474   5.430  0.0704 -0.1673  0.0257
 1516ntf    nn310578   1.979   0.554   5.335 -0.1629 -0.0767  0.3364
 1516ntf    sn210579   1.897   0.684   5.369 -0.0265 -0.0165  0.4319
 1516ntf    cn110580   1.770   0.634   5.489 -0.2368 -0.1470  0.1559
 1516ntf    fn410581   1.846   0.353   5.459 -0.2187 -0.5468  0.9730
 1516ntf    fn410582   1.982   0.245   5.345 -0.2007 -0.3054  0.2536
 1516ntf    fn410583   2.011   0.254   5.557 -0.6391  0.0285  0.2505
 1516ntf    on510584   2.090   0.519   5.566  0.3608  0.0365 -0.0724
 1516ntf    on510585   2.195   0.427   5.365  0.5761  0.5578  0.4233
 1516ntf    on510586   1.821   0.728   5.255  0.0875  0.0387  0.3767
 1516ntf    on510587   1.970   0.787   5.440 -0.2373  0.0431  0.5631
 1516ntf    fn410588   1.698   0.742   5.516  0.1798  0.1251  0.1934
 1516ntf    fn410589   1.689   0.540   5.444 -0.6675  0.5224 -0.4871
 1516ntf    fn410590   1.824   0.585   5.599  0.0245 -0.4400 -0.1003
 1517ntf    cn110591   4.079   4.819   4.659  0.0547  0.0272  0.1238
 1517ntf    sn210592   4.200   4.690   4.616  0.0636  0.0856 -0.0266
 1517ntf    nn310593   4.209   4.704   4.460 -0.1765 -0.2905 -0.0736
 1517ntf    sn210594   4.139   4.605   4.360 -0.0364 -0.1701 -0.2907
 1517ntf    cn110595   4.032   4.729   4.282 -0.1449 -0.2125 -0.2084
 1517ntf    fn410596   4.074   4.852   4.787  0.7258  0.1793  0.1132
 1517ntf    fn410597   4.107   4.939   4.611  0.2017 -0.1565 -0.2503
 1517ntf    fn410598   3.960   4.798   4.604  0.2002  0.0262 -0.1895
 1517ntf    on510599   4.321   4.740   4.676  0.1037  0.2930 -0.2810
 1517ntf    on510600   4.134   4.575   4.672  0.3076  0.2117  0.5216
 1517ntf    on510601   4.042   4.510   4.407 -0.1004  0.2723  0.4786
 1517ntf    on510602   4.233   4.575   4.254  0.3381  0.5672 -0.1700
 1517ntf    fn410603   3.942   4.782   4.363 -0.3279  0.4461 -0.8316
 1517ntf    fn410604   4.102   4.830   4.232  0.2224 -0.5392 -0.3599
 1517ntf    fn410605   3.963   4.684   4.179 -0.5223  0.3648 -0.2148
 1518ntf    cn110606   3.830   1.054   6.350 -0.1439  0.0830 -0.1041
 1518ntf    sn210607   4.006   1.050   6.305 -0.1240 -0.0307 -0.0157
 1518ntf    nn310608   4.060   0.943   6.408 -0.0074 -0.2396 -0.2928
 1518ntf    sn210609   4.131   0.974   6.544  0.1982 -0.2332 -0.4012
 1518ntf    cn110610   4.304   0.945   6.495  0.4837  0.2925  0.2715
 1518ntf    fn410611   3.756   1.136   6.277 -0.4537 -0.0118  0.1041
 1518ntf    fn410612   3.779   0.933   6.346  0.6078 -0.2795  0.8390
 1518ntf    fn410613   3.822   1.101   6.474  0.2925  0.4535 -0.2127
 1518ntf    on510614   4.008   0.998   6.171 -0.5878 -0.1387  0.0200
 1518ntf    on510615   4.042   1.189   6.318  0.2843 -0.1889  0.6002
 1518ntf    on510616   4.118   0.870   6.643  0.9089 -0.0662 -0.1259
 1518ntf    on510617   4.140   1.113   6.581 -0.0266 -0.3763  0.2019
 1518ntf    fn410618   4.386   0.963   6.597  0.1851  0.0531  0.5583
 1518ntf    fn410619   4.312   0.816   6.465  0.0032  0.2478  0.3150
 1518ntf    fn410620   4.335   1.019   6.390  0.4007 -0.4857 -0.3105
 1519ntf    cn110621   2.709   1.669   4.662 -0.1216  0.3089  0.2164
 1519ntf    sn210622   2.813   1.685   4.514 -0.1157 -0.0170  0.1838
 1519ntf    nn310623   2.954   1.697   4.582 -0.2272  0.7807  0.2825
 1519ntf    sn210624   3.063   1.809   4.601  0.3704  0.2152  0.2053
 1519ntf    cn110625   3.168   1.717   4.718 -0.2041 -0.2510  0.3597
 1519ntf    fn410626   2.596   1.602   4.644 -0.1399  0.3322  0.2423
 1519ntf    fn410627   2.762   1.584   4.749 -0.2669 -0.4136 -0.3851
 1519ntf    fn410628   2.686   1.783   4.724  0.0271  0.1745  0.5250
 1519ntf    on510629   2.797   1.560   4.444  0.6643 -0.2061  0.3353
 1519ntf    on510630   2.768   1.804   4.445  0.0071 -0.2796 -0.3528
 1519ntf    on510631   3.019   1.927   4.671 -0.3837 -0.0557  0.2064
 1519ntf    on510632   3.143   1.830   4.484  0.2192  0.2332  0.1050
 1519ntf    fn410633   3.277   1.788   4.741 -0.1970 -0.0536 -0.2664
 1519ntf    fn410634   3.116   1.692   4.838 -0.1826 -0.1437  0.3914
 1519ntf    fn410635   3.210   1.598   4.679 -0.4279 -0.4014  0.5702
 1520ntf    cn110636   5.216   5.280   5.210  0.0221 -0.4676  0.2079
 1520ntf    sn210637   5.292   5.401   5.097 -0.2009 -0.2012  0.3419
 1520ntf    nn310638   5.414   5.451   5.182 -0.1071  0.1944 -0.0226
 1520ntf    sn210639   5.534   5.533   5.123  0.3190 -0.2815  0.1752
 1520ntf    cn110640   5.672   5.415   5.118  0.5586  0.0173 -0.3733
 1520ntf    fn410641   5.213   5.312   5.338 -0.0090 -0.1205  0.1228
 1520ntf    fn410642   5.089   5.259   5.180 -0.0305 -0.2075  0.2484
 1520ntf    fn410643   5.272   5.160   5.209 -0.3728 -0.6515 -0.4239
 1520ntf    on510644   5.328   5.320   4.983 -1.1748 -0.0751 -0.0660
 1520ntf    on510645   5.170   5.477   5.086  0.2532  0.4443 -0.3518
 1520ntf    on510646   5.578   5.629   5.221 -0.4535 -0.3254  0.5715
 1520ntf    on510647   5.519   5.582   4.988 -0.0730  0.1294  0.3652
 1520ntf    fn410648   5.638   5.303   5.056 -0.0193 -0.2220  0.3563
 1520ntf    fn410649   5.781   5.471   5.068  0.5975  0.0076 -0.2992
 1520ntf    fn410650   5.705   5.384   5.242 -0.4480 -0.3215 -0.1787
 1521ntf    cn110651   2.864   4.441   2.448 -0.5098  0.3621 -0.0991
 1521ntf    sn210652   2.911   4.611   2.403  0.4474  0.1351  0.0298
 1521ntf    nn310653   2.972   4.608   2.258 -0.1418  0.1858 -0.2191
 1521ntf    sn210654   2.887   4.599   2.126 -0.1633 -0.1558 -0.1825
 1521ntf    cn110655   3.001   4.493   2.032  0.2973  0.0440  0.1498
 1521ntf    fn410656   2.767   4.393   2.371  0.0139  0.1601 -0.6382
 1521ntf    fn410657   2.961   4.355   2.424 -0.6388  0.1350  0.1911
 1521ntf    fn410658   2.822   4.441   2.574  0.4267  0.2174  0.2174
 1521ntf    on510659   2.783   4.675   2.421  0.1651 -0.6127  0.7156
 1521ntf    on510660   3.007   4.650   2.503 -0.3359 -0.4472  1.0267
 1521ntf    on510661   2.886   4.716   2.042 -0.1781  0.0685  0.1309
 1521ntf    on510662   2.766   4.520   2.117  0.1243 -0.6276  0.0683
 1521ntf    fn410663   2.964   4.490   1.905  0.3887  0.0485  0.1225
 1521ntf    fn410664   3.129   4.528   2.037  0.3985 -0.2918 -0.0409
 1521ntf    fn410665   3.005   4.371   2.082  0.0190  0.1295  0.3778
 1522ntf    cn110666   5.459   2.961   5.616 -0.1784  0.1280  0.5542
 1522ntf    sn210667   5.529   2.962   5.448  0.1862  0.1380  0.7059
 1522ntf    nn310668   5.450   2.842   5.383 -0.0117  0.2937  0.6578
 1522ntf    sn210669   5.496   2.694   5.363 -0.4174  0.2610 -0.0755
 1522ntf    cn110670   5.494   2.691   5.182  0.0946 -0.1115 -0.0795
 1522ntf    fn410671   5.327   2.963   5.603 -0.1688  0.9724  0.5734
 1522ntf    fn410672   5.492   2.858   5.693  0.1833 -0.0857  0.1195
 1522ntf    fn410673   5.490   3.071   5.681 -0.0892  0.3946  0.0655
 1522ntf    on510674   5.484   3.091   5.403 -0.0565 -0.2424 -0.1682
 1522ntf    on510675   5.671   2.943   5.468  0.0967 -0.8665  0.4506
 1522ntf    on510676   5.402   2.596   5.410  0.3562 -0.4556  0.0137
 1522ntf    on510677   5.634   2.655   5.380 -0.3505  0.3370 -0.4455
 1522ntf    fn410678   5.509   2.568   5.135 -0.3619 -0.1892 -0.0311
 1522ntf    fn410679   5.383   2.730   5.121  0.4066  0.2172 -0.4442
 1522ntf    fn410680   5.591   2.762   5.127  0.1299 -0.3582 -0.3371
 1523ntf    cn110681   2.626   2.016   1.679  0.1928 -0.2185 -0.0084
 1523ntf    sn210682   2.505   2.150   1.655  0.1203 -0.3123 -0.1656
 1523ntf    nn310683   2.408   2.125   1.776  0.3830 -0.1340  0.0843
 1523ntf    sn210684   2.306   2.211   1.859  0.2268 -0.0408 -0.2005
 1523ntf    cn110685   2.404   2.239   2.010  0.1692  0.4794 -0.2594
 1523ntf    fn410686   2.653   1.991   1.807  0.3988  0.0894  0.0070
 1523ntf    fn410687   2.577   1.902   1.633 -0.6364  0.0130  0.2800
 1523ntf    fn410688   2.740   2.039   1.618  0.1955 -0.0371  0.0659
 1523ntf    on510689   2.594   2.262   1.671  0.0329 -0.2630 -0.0216
 1523ntf    on510690   2.461   2.131   1.519  0.4124 -0.9481 -0.1776
 1523ntf    on510691   2.204   2.124   1.912 -0.2143 -0.0835 -1.0967
 1523ntf    on510692   2.272   2.342   1.811  0.5709  0.3147  0.5001
 1523ntf    fn410693   2.511   2.307   1.973  0.3556  0.2223 -0.1909
 1523ntf    fn410694   2.334   2.309   2.098 -0.5719 -0.4449 -0.0846
 1523ntf    fn410695   2.438   2.124   2.066 -0.3671  0.0159 -0.8542
 1524ntf    cn110696   6.355   5.904   5.806  0.6694  0.2725 -0.2650
 1524ntf    sn210697   6.204   5.835   5.730  0.3019  0.3361  0.4039
 1524ntf    nn310698   6.145   5.746   5.846 -0.5758  0.2411 -0.1086
 1524ntf    sn210699   6.118   5.592   5.848 -0.3508  0.2022  0.0273
 1524ntf    cn110700   5.958   5.583   5.935 -0.1364 -0.6129  0.3441
 1524ntf    fn410701   6.425   5.976   5.719  0.3417  0.3222 -0.4927
 1524ntf    fn410702   6.341   5.982   5.912 -0.1028 -0.1723 -0.0309
 1524ntf    fn410703   6.418   5.799   5.856  0.3986  0.1460 -0.1841
 1524ntf    on510704   6.131   5.954   5.693 -0.2241 -0.1012  0.0217
 1524ntf    on510705   6.251   5.754   5.620  0.2133  0.3034  0.3905
 1524ntf    on510706   6.202   5.522   5.941 -0.3518  0.2093  0.0337
 1524ntf    on510707   6.094   5.527   5.721  1.1153  0.2343 -0.2869
 1524ntf    fn410708   5.937   5.455   5.963  0.3095 -0.6567  0.4930
 1524ntf    fn410709   5.963   5.648   6.050 -0.2251 -0.2680  0.1526
 1524ntf    fn410710   5.861   5.634   5.863 -0.0293 -0.1235  0.5436
 1525ntf    cn110711   6.554   2.171   5.866 -0.2790  0.0474 -0.2658
 1525ntf    sn210712   6.699   2.279   5.846  0.0447 -0.3188  0.0689
 1525ntf    nn310713   6.792   2.200   5.944  0.2946  0.3431  0.3736
 1525ntf    sn210714   6.934   2.137   5.917  0.0951  0.0845 -0.0872
 1525ntf    cn110715   6.894   1.969   5.863  0.4380  0.0200 -0.1425
 1525ntf    fn410716   6.575   2.054   5.806 -0.2941  0.2494 -0.6694
 1525ntf    fn410717   6.525   2.142   5.991 -0.7354  0.1482 -0.3466
 1525ntf    fn410718   6.444   2.220   5.812 -0.3272  0.0706 -0.1461
 1525ntf    on510719   6.737   2.273   5.707 -0.4674 -0.2139 -0.0782
 1525ntf    on510720   6.650   2.402   5.903 -0.3563 -0.5061  0.1299
 1525ntf    on510721   7.004   2.113   6.040  0.3017 -0.0739 -0.2363
 1525ntf    on510722   7.013   2.197   5.812  0.7912  0.0402  0.4065
 1525ntf    fn410723   6.822   1.960   5.752 -0.3023  0.1596  0.3188
 1525ntf    fn410724   7.002   1.898   5.836  0.4451 -0.0747  0.1265
 1525ntf    fn410725   6.829   1.895   5.952  0.4671  0.1093 -0.0480
 1526ntf    cn110726   5.160   4.516   3.696  0.3358 -0.6846  0.0341
 1526ntf    sn210727   5.265   4.664   3.703 -0.0566 -0.3947 -0.1191
 1526ntf    nn310728   5.350   4.645   3.834  0.1417 -0.3438 -0.2388
 1526ntf    sn210729   5.314   4.687   3.981 -0.1479 -0.0468 -0.3909
 1526ntf    cn110730   5.381   4.856   3.980  0.1284 -0.1545 -0.2555
 1526ntf    fn410731   5.086   4.520   3.586  0.0706 -0.0250  0.2278
 1526ntf    fn410732   5.225   4.402   3.684  0.6276 -0.4863 -0.2798
 1526ntf    fn410733   5.071   4.508   3.793 -0.2337  0.0329 -0.4170
 1526ntf    on510734   5.358   4.637   3.596 -0.0753 -0.4144 -0.1303
 1526ntf    on510735   5.187   4.785   3.695  0.8985  0.2179 -0.3948
 1526ntf    on510736   5.401   4.614   4.070  0.0028  0.4042 -0.1631
 1526ntf    on510737   5.175   4.711   4.013  0.0931  0.4162  0.3380
 1526ntf    fn410738   5.362   4.911   3.861 -0.2553  0.3943  0.0572
 1526ntf    fn410739   5.321   4.929   4.072 -0.2025 -0.7244 -0.0160
 1526ntf    fn410740   5.510   4.867   4.004  0.0369  0.0664  0.1341
 1527ntf    cn110741   5.534   6.441   2.628 -0.5156 -0.1660  0.1496
 1527ntf    sn210742   5.414   6.325   2.700 -0.2365 -0.4314  0.1899
 1527ntf    nn310743   5.276   6.399   2.718 -0.1144  0.0003 -0.5679
 1527ntf    sn210744   5.144   6.371   2.638 -0.0421 -0.3596 -0.5659
 1527ntf    cn110745   5.144   6.502   2.512 -0.0880  0.1017 -0.0893
 1527ntf    fn410746   5.531   6.555   2.695  0.4381 -0.1604  0.1952
 1527ntf    fn410747   5.655   6.389   2.641 -0.6887 -0.6948 -0.3148
 1527ntf    fn410748   5.512   6.472   2.501  0.3216  0.5247  0.1637
 1527ntf    on510749   5.418   6.206   2.618 -0.4054 -0.0275 -0.4142
 1527ntf    on510750   5.467   6.303   2.832 -0.6481  0.2324  0.4726
 1527ntf    on510751   5.026   6.397   2.715 -0.1809  0.3021 -0.9905
 1527ntf    on510752   5.136   6.259   2.548 -0.1685 -0.4883 -0.3940
 1527ntf    fn410753   5.085   6.474   2.397  0.0690  0.2939 -0.2181
 1527ntf    fn410754   5.089   6.616   2.553 -0.4537 -0.2976  0.5384
 1527ntf    fn410755   5.268   6.535   2.479 -0.2460  0.4377 -0.3568
 1528ntf    cn110756   2.611   0.005   0.864 -0.1478  0.4754  0.1456
 1528ntf    sn210757   2.765  -0.065   0.929 -0.2025 -0.0549 -0.2871
 1528ntf    nn310758   2.754  -0.011   1.077  0.0364 -0.2608 -0.1928
 1528ntf    sn210759   2.693  -0.078   1.205  0.1401 -0.0021 -0.0066
 1528ntf    cn110760   2.834  -0.088   1.319  0.4370  0.0858 -0.3647
 1528ntf    fn410761   2.588  -0.027   0.738 -0.0575  0.1919  0.2016
 1528ntf    fn410762   2.511  -0.046   0.934 -0.6057  0.1398 -0.7440
 1528ntf    fn410763   2.601   0.135   0.886  0.5670  0.6920 -0.7455
 1528ntf    on510764   2.759  -0.209   0.921  0.0740 -0.0690 -0.2641
 1528ntf    on510765   2.870   0.003   0.857 -0.0766 -0.2874 -0.3241
 1528ntf    on510766   2.647  -0.215   1.191 -0.3891  0.1089  0.5838
 1528ntf    on510767   2.595   0.005   1.271  0.0381 -0.1193 -0.0084
 1528ntf    fn410768   2.949  -0.124   1.265  0.0303 -0.3904 -0.9385
 1528ntf    fn410769   2.868   0.030   1.368 -0.0833  0.0507  0.0932
 1528ntf    fn410770   2.820  -0.168   1.423 -0.1671  0.5391 -0.0906
 1529ntf    cn110771   4.935   6.090   4.082 -0.1931 -0.6906  0.1452
 1529ntf    sn210772   4.846   6.102   3.924  0.5916  0.0990 -0.2480
 1529ntf    nn310773   4.805   6.252   3.902  0.1283 -0.1067 -0.8173
 1529ntf    sn210774   4.904   6.361   3.847  0.2373  0.1147 -0.1961
 1529ntf    cn110775   4.829   6.420   3.692 -0.3401 -0.1481 -0.0172
 1529ntf    fn410776   4.943   5.966   4.129  0.4949 -0.7353 -0.0656
 1529ntf    fn410777   5.056   6.143   4.090 -0.5214  0.0596  0.1497
 1529ntf    fn410778   4.864   6.150   4.176  0.3027  0.5935 -0.2775
 1529ntf    on510779   4.927   6.038   3.824  0.1185 -0.3468 -0.3470
 1529ntf    on510780   4.726   6.035   3.967  0.4314  0.1049 -0.6891
 1529ntf    on510781   5.033   6.323   3.794  0.1534 -0.2921 -0.1084
 1529ntf    on510782   4.907   6.481   3.927  0.0866  0.0479 -0.0897
 1529ntf    fn410783   4.894   6.519   3.634 -0.3169 -0.1809 -0.0461
 1529ntf    fn410784   4.822   6.324   3.601  0.3933 -0.0902 -0.1391
 1529ntf    fn410785   4.703   6.457   3.713 -0.2713 -0.1639  0.4333
 1530ntf    cn110786   4.264   4.816   0.228 -0.1575  0.1501  0.2986
 1530ntf    sn210787   4.426   4.737   0.247 -0.0297  0.3989  0.2483
 1530ntf    nn310788   4.427   4.643   0.122  0.5231  0.0123  0.5379
 1530ntf    sn210789   4.487   4.500   0.099  0.2977  0.0831 -0.5396
 1530ntf    cn110790   4.571   4.505  -0.062  0.0574  0.3453 -0.6568
 1530ntf    fn410791   4.248   4.874   0.110 -0.0396  0.4852  0.4460
 1530ntf    fn410792   4.170   4.723   0.224  0.1116 -0.1062 -0.1417
 1530ntf    fn410793   4.227   4.907   0.316 -0.0667  0.4584  0.0222
 1530ntf    on510794   4.516   4.849   0.237  0.0138  0.3276 -0.1666
 1530ntf    on510795   4.419   4.666   0.372  0.1098  0.2387  0.1650
 1530ntf    on510796   4.376   4.413   0.067 -0.0404  0.3119 -0.0003
 1530ntf    on510797   4.592   4.453   0.186 -0.6129  0.1567  0.6150
 1530ntf    fn410798   4.496   4.498  -0.171  0.1062 -0.7464 -0.6285
 1530ntf    fn410799   4.635   4.621  -0.068 -0.2323  0.5673  0.4079
 1530ntf    fn410800   4.666   4.413  -0.070  0.4273  0.6490  0.1141
 1531ntf    cn110801   6.711   4.246   6.553 -0.2114 -0.0634  0.0279
 1531ntf    sn210802   6.541   4.214   6.497 -0.1992 -0.1196  0.0217
 1531ntf    nn310803   6.497   4.141   6.629  0.2705 -0.2290  0.1216
 1531ntf    sn210804   6.492   3.986   6.654  0.0048 -0.2082  0.2065
 1531ntf    cn110805   6.313   3.970   6.685 -0.2066  0.3831 -0.6660
 1531ntf    fn410806   6.726   4.346   6.638 -0.1547 -0.2988  0.2954
 1531ntf    fn410807   6.759   4.141   6.618 -0.2722 -0.4102 -0.4829
 1531ntf    fn410808   6.780   4.283   6.445  0.0355 -0.3525  0.0847
 1531ntf    on510809   6.473   4.339   6.471  0.0666 -0.0636 -0.4106
 1531ntf    on510810   6.553   4.134   6.378  0.0433 -0.0742  0.0147
 1531ntf    on510811   6.553   3.954   6.780  0.1724 -0.1331  0.1445
 1531ntf    on510812   6.520   3.898   6.543 -0.2239 -0.2273  0.1639
 1531ntf    fn410813   6.273   4.035   6.792  0.3359 -0.1324 -0.1419
 1531ntf    fn410814   6.234   4.023   6.593 -0.3396 -0.2863 -0.9427
 1531ntf    fn410815   6.281   3.842   6.693  0.9026  0.1339  0.0386
 1532ntf    cn110816   1.056   2.004   0.372 -0.1116  0.0895 -0.2572
 1532ntf    sn210817   0.913   1.892   0.380  0.0955 -0.1273  0.5314
 1532ntf    nn310818   0.894   1.871   0.534 -0.8692 -0.5652  0.3608
 1532ntf    sn210819   0.932   1.758   0.637 -0.0365 -0.2738  0.3789
 1532ntf    cn110820   0.989   1.873   0.765  0.0681  0.1950 -0.0833
 1532ntf    fn410821   1.155   1.950   0.441 -0.6227 -0.5868 -0.0377
 1532ntf    fn410822   1.097   2.025   0.248  0.4569  0.4492 -0.0147
 1532ntf    fn410823   1.026   2.125   0.417 -0.0598 -0.0461  0.1465
 1532ntf    on510824   0.810   1.975   0.322  0.3607 -0.0606  0.1534
 1532ntf    on510825   0.945   1.770   0.311 -0.6498  0.0396 -0.1178
 1532ntf    on510826   1.043   1.681   0.583  0.0354 -0.4436  0.7682
 1532ntf    on510827   0.817   1.690   0.690 -0.2395 -0.4394 -0.2570
 1532ntf    fn410828   0.898   1.968   0.783 -0.2288 -0.0795 -0.1293
 1532ntf    fn410829   1.013   1.808   0.878 -0.2212  0.0002 -0.1333
 1532ntf    fn410830   1.099   1.940   0.737 -0.1983  0.7363  0.1261
 1533ntf    cn110831   5.090   4.815   1.893  0.2384  0.5513  0.0223
 1533ntf    sn210832   5.095   4.781   2.071 -0.0990  0.1903 -0.0363
 1533ntf    nn310833   5.103   4.624   2.075 -0.0716  0.2033  0.5778
 1533ntf    sn210834   5.019   4.515   2.150 -0.1548 -0.1105  0.0300
 1533ntf    cn110835   5.122   4.481   2.296  0.0776 -0.1849 -0.1511
 1533ntf    fn410836   5.196   4.801   1.815  0.3671  0.3474  0.2333
 1533ntf    fn410837   4.989   4.743   1.846  0.1587  0.2968  0.5828
 1533ntf    fn410838   5.051   4.941   1.877 -0.2881  0.4439  0.4426
 1533ntf    on510839   5.215   4.841   2.123 -0.0304 -0.5122  0.6317
 1533ntf    on510840   4.972   4.842   2.115 -0.0056  0.2281  0.1749
 1533ntf    on510841   5.027   4.390   2.077 -0.6238 -0.3337  0.3528
 1533ntf    on510842   4.893   4.549   2.212 -0.4308 -0.8548 -0.1023
 1533ntf    fn410843   5.243   4.434   2.271 -0.0563 -0.5139 -0.1874
 1533ntf    fn410844   5.131   4.587   2.373  0.4637 -0.1432 -0.2543
 1533ntf    fn410845   5.075   4.385   2.374  0.0010 -0.1943 -0.2077
 1534ntf    cn110846   4.027   4.108   2.418 -0.1850 -0.1895  0.3613
 1534ntf    sn210847   4.036   4.157   2.243 -0.2290 -0.2818  0.3338
 1534ntf    nn310848   4.155   4.071   2.188 -0.5218 -0.2473 -0.3718
 1534ntf    sn210849   4.155   3.917   2.156  0.1763 -0.2867 -0.2003
 1534ntf    cn110850   4.262   3.857   2.291 -0.4144 -0.3015  0.2701
 1534ntf    fn410851   3.931   4.166   2.487 -0.4535 -0.0570 -0.1150
 1534ntf    fn410852   4.013   3.977   2.427  0.0799 -0.2596 -0.1611
 1534ntf    fn410853   4.139   4.135   2.484 -0.1997 -0.1735  0.3793
 1534ntf    on510854   3.912   4.121   2.177 -0.1890 -0.4215  0.3323
 1534ntf    on510855   4.067   4.298   2.243 -0.1807 -0.2937  0.5131
 1534ntf    on510856   4.223   3.889   2.032  0.2272 -0.3930 -0.1486
 1534ntf    on510857   4.030   3.847   2.175 -0.1010  0.1566 -0.3712
 1534ntf    fn410858   4.203   3.866   2.408 -0.5613  0.2649  0.1566
 1534ntf    fn410859   4.303   3.734   2.264  0.0056 -0.1438  0.1776
 1534ntf    fn410860   4.368   3.937   2.297 -0.1928 -0.6033  0.4295
 1535ntf    cn110861   4.569   3.487   2.826  0.2642  0.1634  0.1878
 1535ntf    sn210862   4.533   3.643   2.740 -0.0445 -0.1079 -0.1788
 1535ntf    nn310863   4.534   3.734   2.868 -0.3305 -0.3808  0.0189
 1535ntf    sn210864   4.433   3.743   2.987  0.1241  0.0194  0.3776
 1535ntf    cn110865   4.363   3.909   2.961  0.6293  0.1730 -0.0194
 1535ntf    fn410866   4.475   3.446   2.910 -0.1093  0.4583 -0.0832
 1535ntf    fn410867   4.571   3.394   2.731 -0.1324 -0.1263  0.4579
 1535ntf    fn410868   4.687   3.488   2.886  0.4142  0.4193 -0.1091
 1535ntf    on510869   4.648   3.671   2.657  0.3004 -0.1202  0.2924
 1535ntf    on510870   4.404   3.628   2.677 -0.0426  0.3855 -0.3009
 1535ntf    on510871   4.493   3.763   3.116  0.8634  0.7900 -0.0806
 1535ntf    on510872   4.319   3.655   2.976  0.2019 -0.0129 -0.1745
 1535ntf    fn410873   4.321   3.932   2.838  0.5488  0.2906  0.0291
 1535ntf    fn410874   4.247   3.915   3.025  0.3749  0.8051 -0.5283
 1535ntf    fn410875   4.440   4.004   3.012 -0.2078  0.5601  0.5551
 1536ntf    cn110876   5.173   5.391   0.941 -0.4303 -0.2447 -0.3961
 1536ntf    sn210877   5.056   5.389   0.801 -0.3903 -0.0405 -0.4317
 1536ntf    nn310878   4.924   5.441   0.869  0.0390  0.5079 -0.0005
 1536ntf    sn210879   4.800   5.511   0.804 -0.1859 -0.1547 -0.2919
 1536ntf    cn110880   4.710   5.374   0.724 -0.2179 -0.4380  0.2281
 1536ntf    fn410881   5.300   5.385   0.907 -0.3194 -0.6125  0.0681
 1536ntf    fn410882   5.151   5.501   1.011  0.0802 -0.4914  0.1559
 1536ntf    fn410883   5.155   5.285   1.018 -0.1479 -0.3447 -0.4659
 1536ntf    on510884   5.119   5.489   0.717  0.1034  0.1937  0.1997
 1536ntf    on510885   5.057   5.257   0.744 -0.0407 -0.2383  0.0215
 1536ntf    on510886   4.829   5.604   0.697  0.1195  0.1044  0.0164
 1536ntf    on510887   4.713   5.555   0.910  0.6237  0.5373  0.0932
 1536ntf    fn410888   4.647   5.290   0.804  0.0614 -0.2249  0.6760
 1536ntf    fn410889   4.619   5.423   0.642  0.5226 -0.5971 -0.7119
 1536ntf    fn410890   4.794   5.306   0.647  0.1326  0.2065  0.0329
 1537ntf    cn110891   3.160   3.959   4.736 -0.1066 -0.4129  0.0844
 1537ntf    sn210892   3.113   3.912   4.906 -0.2060  0.0429  0.1844
 1537ntf    nn310893   3.139   3.758   4.900 -0.3785 -0.0018  0.5971
 1537ntf    sn210894   3.082   3.647   4.997  0.0435 -0.4557  0.3324
 1537ntf    cn110895   3.198   3.653   5.137 -0.0181 -0.0716  0.3672
 1537ntf    fn410896   3.172   4.091   4.734  0.0724 -0.4323 -0.1138
 1537ntf    fn410897   3.278   3.910   4.702 -0.2276 -0.6394 -0.0140
 1537ntf    fn410898   3.071   3.925   4.645 -0.2498  0.5179 -0.1373
 1537ntf    on510899   3.195   3.987   4.998  0.1319 -0.2264  0.1037
 1537ntf    on510900   2.970   3.929   4.915 -0.2165 -0.0378  0.1623
 1537ntf    on510901   3.100   3.516   4.941  0.3578 -0.2703 -0.0083
 1537ntf    on510902   2.957   3.680   5.061  0.1151 -0.1765  0.3316
 1537ntf    fn410903   3.185   3.552   5.221  0.0460 -0.3872 -0.0003
 1537ntf    fn410904   3.325   3.664   5.104 -0.2018  0.7724 -0.0971
 1537ntf    fn410905   3.174   3.754   5.219 -0.5726 -0.0526  0.1883
 1538ntf    cn110906   2.174   2.870   3.296  0.3501 -0.2279 -0.0455
 1538ntf    sn210907   2.052   2.764   3.379  0.0172 -0.2158 -0.5153
 1538ntf    nn310908   2.013   2.871   3.486 -0.3096 -0.2341 -0.6140
 1538ntf    sn210909   1.892   2.970   3.469 -0.3536 -0.1094  0.3348
 1538ntf    cn110910   1.757   2.884   3.555 -0.2182 -0.4548  0.2032
 1538ntf    fn410911   2.262   2.792   3.236  0.2502 -0.3496 -0.0337
 1538ntf    fn410912   2.123   2.957   3.210 -0.0540  0.1020  0.5222
 1538ntf    fn410913   2.242   2.946   3.380 -0.0357 -0.3145  0.3475
 1538ntf    on510914   1.963   2.722   3.273  0.1306  0.0370 -0.7089
 1538ntf    on510915   2.141   2.660   3.424 -0.4692 -0.4327 -0.0501
 1538ntf    on510916   1.838   2.991   3.337  0.3456  0.5396  0.1435
 1538ntf    on510917   1.909   3.091   3.546  0.6409  0.0112 -0.0574
 1538ntf    fn410918   1.681   2.814   3.473 -0.3874 -0.1860  0.1292
 1538ntf    fn410919   1.785   2.800   3.653 -0.3839 -0.2871  0.3939
 1538ntf    fn410920   1.675   2.971   3.611 -0.1057 -0.4061  0.2928
 1539ntf    cn110921   3.947   5.084   0.749  0.0415  0.2312 -0.7237
 1539ntf    sn210922   3.911   5.261   0.762 -0.0877  0.1595 -0.0641
 1539ntf    nn310923   4.053   5.326   0.778  0.0116 -0.1416  0.2735
 1539ntf    sn210924   4.163   5.352   0.669 -0.1936  0.1165  0.1265
 1539ntf    cn110925   4.116   5.526   0.643 -0.0465  0.1464  0.0688
 1539ntf    fn410926   3.837   5.010   0.743  0.1907 -0.0753  0.0792
 1539ntf    fn410927   4.026   5.054   0.648  0.0627 -0.3270 -0.5458
 1539ntf    fn410928   4.012   5.043   0.857 -0.2988 -0.4110 -0.7530
 1539ntf    on510929   3.839   5.296   0.642 -0.1509  0.0809 -0.0493
 1539ntf    on510930   3.844   5.274   0.889 -0.0997  0.7660 -0.1298
 1539ntf    on510931   4.147   5.275   0.548  0.4651  0.2483 -0.0438
 1539ntf    on510932   4.295   5.366   0.726  0.0413 -0.6632 -0.2192
 1539ntf    fn410933   4.129   5.601   0.750  0.3361 -0.0030  0.1314
 1539ntf    fn410934   4.182   5.580   0.542 -0.4540  0.4116 -0.0565
 1539ntf    fn410935   3.988   5.538   0.614 -0.1367 -0.1965  0.3080
 1540ntf    cn110936   2.045   6.470   0.363 -0.1212 -0.2312  0.2155
 1540ntf    sn210937   2.119   6.507   0.526  0.3236 -0.5720  0.0929
 1540ntf    nn310938   2.211   6.627   0.485  0.3461 -0.6577 -0.1084
 1540ntf    sn210939   2.288   6.734   0.570  0.0074 -0.4413 -0.0705
 1540ntf    cn110940   2.178   6.876   0.540  0.3448 -0.1715 -0.0468
 1540ntf    fn410941   2.126   6.486   0.260 -0.3659 -0.7106 -0.0524
 1540ntf    fn410942   2.010   6.343   0.359 -0.0891 -0.2303 -0.0592
 1540ntf    fn410943   1.943   6.548   0.334 -0.0066 -0.4926 -0.9090
 1540ntf    on510944   2.004   6.545   0.605  0.8152  0.4103  0.3435
 1540ntf    on510945   2.191   6.387   0.562  0.6873 -0.2283  0.5178
 1540ntf    on510946   2.411   6.772   0.505 -0.4449  0.7603 -0.2472
 1540ntf    on510947   2.290   6.718   0.713  0.1229 -0.0974 -0.0319
 1540ntf    fn410948   2.052   6.861   0.579  0.3601  0.0575  0.0897
 1540ntf    fn410949   2.225   6.989   0.589  0.7097 -0.4200  0.1849
 1540ntf    fn410950   2.170   6.903   0.411  0.0239 -0.1414 -0.0222
 1541ntf    cn110951   5.806   5.654   1.950  0.1620 -0.2786 -0.0319
 1541ntf    sn210952   5.710   5.500   1.940 -0.0634 -0.1214 -0.2890
 1541ntf    nn310953   5.594   5.529   2.042  0.2519  1.0860 -0.2518
 1541ntf    sn210954   5.590   5.496   2.196  0.0076  0.1876 -0.4419
 1541ntf    cn110955   5.418   5.449   2.230  0.0594  0.1996 -0.1641
 1541ntf    fn410956   5.848   5.691   2.070 -0.1357 -0.1846  0.0454
 1541ntf    fn410957   5.920   5.650   1.882 -0.1345 -0.0875 -0.5488
 1541ntf    fn410958   5.732   5.757   1.910 -0.1011 -0.5526 -0.2524
 1541ntf    on510959   5.670   5.489   1.802 -0.3235 -0.9285 -0.1505
 1541ntf    on510960   5.806   5.400   1.978  0.0988 -0.1422 -0.7475
 1541ntf    on510961   5.616   5.620   2.266  0.3529  0.1258 -0.4592
 1541ntf    on510962   5.661   5.380   2.242 -0.4745  0.2284  0.4136
 1541ntf    fn410963   5.329   5.528   2.172  0.0646  0.5030  0.2379
 1541ntf    fn410964   5.386   5.330   2.183  0.1962 -0.0754  0.4401
 1541ntf    fn410965   5.394   5.452   2.360  0.0489  0.7784 -0.1776
 1542ntf    cn110966   4.071   3.589   1.309 -0.4615  0.2243 -0.0645
 1542ntf    sn210967   4.177   3.716   1.385 -0.1719 -0.1076  0.0923
 1542ntf    nn310968   4.312   3.681   1.315 -0.1875 -0.2207  0.1196
 1542ntf    sn210969   4.387   3.760   1.201  0.0479 -0.0646  0.3832
 1542ntf    cn110970   4.373   3.635   1.070 -0.4031 -0.0765  0.4410
 1542ntf    fn410971   4.121   3.470   1.338  0.2740  0.5995  0.2268
 1542ntf    fn410972   3.949   3.597   1.361 -0.4763  0.0312 -0.0671
 1542ntf    fn410973   4.060   3.583   1.178 -0.2848 -0.1033 -0.0646
 1542ntf    on510974   4.111   3.841   1.354 -0.2330 -0.2330 -0.2883
 1542ntf    on510975   4.169   3.675   1.523 -0.0623 -0.0927  0.1032
 1542ntf    on510976   4.530   3.761   1.221  0.1388 -0.0015 -0.2665
 1542ntf    on510977   4.328   3.881   1.151  0.1379 -0.1763  0.0094
 1542ntf    fn410978   4.468   3.647   0.979 -0.4870  0.4040  0.4170
 1542ntf    fn410979   4.373   3.510   1.113 -0.2302 -0.2456 -0.0430
 1542ntf    fn410980   4.258   3.649   1.005 -0.0999 -0.1044 -0.1093
 1543ntf    cn110981   3.031   1.303   6.000  0.3464 -0.2578  0.2745
 1543ntf    sn210982   3.183   1.311   5.901 -0.0565 -0.1500 -0.3413
 1543ntf    nn310983   3.301   1.294   6.003  0.1467 -0.0098 -0.5492
 1543ntf    sn210984   3.437   1.372   6.004  0.3178 -0.3092  0.0053
 1543ntf    cn110985   3.404   1.522   6.101 -0.6213 -0.3390 -0.2548
 1543ntf    fn410986   2.927   1.294   5.919  0.0955  0.1138  0.5527
 1543ntf    fn410987   3.037   1.193   6.073 -0.2639 -0.4053  0.1072
 1543ntf    fn410988   3.008   1.405   6.081  0.0070 -0.3466  0.2931
 1543ntf    on510989   3.180   1.194   5.816 -0.2349 -0.0437 -0.4823
 1543ntf    on510990   3.175   1.440   5.838 -0.0254 -0.0446 -0.1298
 1543ntf    on510991   3.480   1.409   5.872  0.1236 -0.1686 -0.0191
 1543ntf    on510992   3.540   1.309   6.083  0.4972 -0.1186 -0.0767
 1543ntf    fn410993   3.504   1.609   6.103 -0.6297 -0.3287 -0.2860
 1543ntf    fn410994   3.298   1.588   6.058 -0.3098  0.2872 -0.0819
 1543ntf    fn410995   3.388   1.493   6.229 -0.0200 -0.1865 -0.1414
 1544ntf    cn110996   4.706   5.736   3.277 -0.1870 -0.2451  0.0223
 1544ntf    sn210997   4.526   5.740   3.255 -0.2162 -0.1193  0.2842
 1544ntf    nn310998   4.489   5.597   3.200  0.2234 -0.1205 -0.0106
 1544ntf    sn210999   4.351   5.545   3.147 -0.1318  0.4497  0.3487
 1544ntf    cn111000   4.413   5.472   2.993 -0.2081  0.1784  0.4469
 1544ntf    fn411001   4.751   5.852   3.322 -0.1025 -0.2631 -0.0158
 1544ntf    fn411002   4.760   5.647   3.360  0.2623  0.1337  0.1415
 1544ntf    fn411003   4.758   5.719   3.157 -0.0752  0.1679  0.0115
 1544ntf    on511004   4.477   5.765   3.388  0.0514 -0.6077  0.4768
 1544ntf    on511005   4.516   5.851   3.164  0.3799 -0.0004  0.3590
 1544ntf    on511006   4.257   5.640   3.092 -0.8351  0.0558  0.8446
 1544ntf    on511007   4.301   5.432   3.220  0.0102 -0.0074 -0.2534
 1544ntf    fn411008   4.509   5.382   3.008 -0.0057  0.2819 -0.1862
 1544ntf    fn411009   4.323   5.402   2.926  0.3595  0.2804 -0.4411
 1544ntf    fn411010   4.459   5.558   2.904 -0.5689  0.2702  0.3482
 1545ntf    cn111011   4.972   4.470   0.816  0.1226 -0.1389  0.0825
 1545ntf    sn211012   4.916   4.588   0.689  0.1484  0.0223  0.2209
 1545ntf    nn311013   5.020   4.700   0.724 -0.3415  0.3897  0.5096
 1545ntf    sn211014   5.160   4.747   0.671 -0.3542 -0.1459 -0.0066
 1545ntf    cn111015   5.118   4.911   0.607 -0.2942 -0.0368  0.2325
 1545ntf    fn411016   4.910   4.352   0.821  0.5282 -0.3227  0.8326
 1545ntf    fn411017   5.100   4.444   0.800  0.2663  0.4959  0.2101
 1545ntf    fn411018   4.971   4.522   0.937 -0.0158 -0.1987  0.1080
 1545ntf    on511019   4.938   4.527   0.560  0.1270  0.4245  0.0262
 1545ntf    on511020   4.779   4.625   0.715  0.1344  0.1071  0.0271
 1545ntf    on511021   5.219   4.678   0.559 -0.1541 -0.1546  0.1024
 1545ntf    on511022   5.252   4.782   0.777 -0.1476  0.2431 -0.3142
 1545ntf    fn411023   5.085   4.906   0.479 -0.5273 -0.0074  0.2902
 1545ntf    fn411024   5.011   4.957   0.671 -0.5368 -0.2220 -0.0386
 1545ntf    fn411025   5.218   4.997   0.620 -0.0107 -0.3152 -0.0942
 1546ntf    cn111026   0.121   0.585   5.601 -0.0854 -0.3741 -0.0942
 1546ntf    sn211027   0.165   0.557   5.427  0.1661 -0.0070 -0.0900
 1546ntf    nn311028   0.185   0.402   5.425 -0.0575 -0.0427  0.3470
 1546ntf    sn211029   0.317   0.320   5.451  0.0104 -0.0045  0.1200
 1546ntf    cn111030   0.376   0.286   5.282  0.1018 -0.1150  0.1742
 1546ntf    fn411031   0.127   0.711   5.641 -0.2045 -0.3039 -0.2938
 1546ntf    fn411032  -0.004   0.551   5.631 -0.1684 -0.0111 -0.0251
 1546ntf    fn411033   0.207   0.515   5.673 -0.0119 -0.1959 -0.0069
 1546ntf    on511034   0.039   0.605   5.376  0.3544  0.3788 -0.2011
 1546ntf    on511035   0.281   0.642   5.410  0.2349 -0.1204 -0.1871
 1546ntf    on511036   0.289   0.195   5.516 -0.0026 -0.0090  0.1057
 1546ntf    on511037   0.429   0.396   5.500 -0.0087  0.3680 -0.3998
 1546ntf    fn411038   0.479   0.202   5.280  0.1337 -0.0739  0.0954
 1546ntf    fn411039   0.279   0.234   5.210  0.1920  0.0068 -0.0370
 1546ntf    fn411040   0.415   0.401   5.230  0.4506 -0.3576 -0.1112
 1547ntf    cn111041   1.122   6.829   5.196 -0.1432 -0.3677  0.1716
 1547ntf    sn211042   1.063   6.984   5.122  0.4051 -0.1399  0.2059
 1547ntf    nn311043   0.962   6.926   5.016 -0.0154  0.3375  0.3404
 1547ntf    sn211044   0.823   6.978   4.966 -0.0551  0.0809  0.1855
 1547ntf    cn111045   0.711   6.901   5.087 -0.1615 -0.2160 -0.0973
 1547ntf    fn411046   1.207   6.850   5.295  0.3810  0.2970 -0.4112
 1547ntf    fn411047   1.024   6.753   5.242 -0.4999 -0.1916 -0.2899
 1547ntf    fn411048   1.189   6.763   5.102 -0.1537  0.0305 -0.1192
 1547ntf    on511049   1.004   7.053   5.234 -0.0223 -0.2200  0.0334
 1547ntf    on511050   1.179   7.042   5.059 -0.0016  0.4183 -0.0413
 1547ntf    on511051   0.767   6.917   4.847  0.0324 -0.5179  0.4459
 1547ntf    on511052   0.803   7.120   4.978  0.7527  0.2096  0.0743
 1547ntf    fn411053   0.582   6.920   5.065 -0.1726 -0.4114 -0.1983
 1547ntf    fn411054   0.730   6.771   5.094  0.3694 -0.1357  0.0029
 1547ntf    fn411055   0.732   6.942   5.211 -0.1631  0.0929 -0.1972
 1548ntf    cn111056   6.030   4.822   6.044 -0.1800 -0.1574 -0.3213
 1548ntf    sn211057   6.130   4.842   6.195 -0.3645  0.1227 -0.2343
 1548ntf    nn311058   6.052   4.957   6.267 -0.0379  0.2062 -0.0140
 1548ntf    sn211059   5.944   4.950   6.380 -0.1238  0.0998 -0.1025
 1548ntf    cn111060   6.050   4.961   6.527 -0.3600  0.1534  0.0661
 1548ntf    fn411061   5.904   4.824   6.086  0.1543  0.3131  0.7008
 1548ntf    fn411062   6.053   4.919   5.957  0.0917  0.1842  0.1240
 1548ntf    fn411063   6.049   4.713   5.973  0.0841 -0.1336 -0.2890
 1548ntf    on511064   6.138   4.716   6.265  0.0355  0.0803 -0.3548
 1548ntf    on511065   6.259   4.889   6.150 -0.2660 -0.3261 -0.4321
 1548ntf    on511066   5.871   4.826   6.388  0.1692 -0.0768 -0.1932
 1548ntf    on511067   5.867   5.072   6.380 -0.3188 -0.0220 -0.5381
 1548ntf    fn411068   6.114   5.077   6.516 -0.2737  0.1732  0.7353
 1548ntf    fn411069   5.986   4.952   6.642 -0.2777 -0.6508  0.0523
 1548ntf    fn411070   6.147   4.871   6.531 -0.2379  0.2510 -0.5509
 1549ntf    cn111071   1.421   2.487   3.473 -0.4781 -0.2097  0.6264
 1549ntf    sn211072   1.268   2.410   3.412 -0.3606 -0.1117  0.2061
 1549ntf    nn311073   1.177   2.418   3.540 -0.6204 -0.2700  0.0300
 1549ntf    sn211074   1.176   2.341   3.676  0.1765  0.0227  0.2066
 1549ntf    cn111075   1.030   2.232   3.666  0.1404  0.0671  0.2534
 1549ntf    fn411076   1.508   2.406   3.531  0.1775  0.0550  0.0270
 1549ntf    fn411077   1.492   2.536   3.373 -0.9244  0.1959  0.5059
 1549ntf    fn411078   1.401   2.594   3.548 -0.4899  0.5410 -0.4357
 1549ntf    on511079   1.228   2.504   3.310 -0.5551 -0.5348 -0.1072
 1549ntf    on511080   1.303   2.276   3.373 -0.2261  0.0752 -0.3208
 1549ntf    on511081   1.130   2.429   3.781 -0.7895  0.5444 -0.6426
 1549ntf    on511082   1.288   2.255   3.703  0.0839 -0.3166 -0.4736
 1549ntf    fn411083   0.918   2.300   3.683 -0.0617 -0.1546 -0.1759
 1549ntf    fn411084   1.020   2.176   3.547  0.4297  0.1776  0.1765
 1549ntf    fn411085   1.034   2.140   3.761 -0.4135 -0.2453 -0.0214
 1550ntf    cn111086   6.472   4.090   0.373 -0.0075 -0.2090 -0.0300
 1550ntf    sn211087   6.482   4.163   0.539  0.0629  0.2534 -0.2376
 1550ntf    nn311088   6.634   4.142   0.574  0.0312  0.4172 -0.0002
 1550ntf    sn211089   6.729   4.243   0.647  0.1358  0.2032  0.1596
 1550ntf    cn111090   6.839   4.117   0.719  0.0230  0.2057  0.3367
 1550ntf    fn411091   6.551   4.145   0.282 -0.2740 -0.6030 -0.5039
 1550ntf    fn411092   6.495   3.959   0.374 -0.2829 -0.2582  0.0521
 1550ntf    fn411093   6.349   4.098   0.325 -0.0609 -0.6177  0.0253
 1550ntf    on511094   6.445   4.300   0.511 -0.4670  0.0448 -0.5714
 1550ntf    on511095   6.392   4.083   0.618  0.4252  0.1373  0.0602
 1550ntf    on511096   6.676   4.308   0.764 -0.3400 -0.4969  0.3369
 1550ntf    on511097   6.818   4.317   0.560 -0.2108 -0.0009 -0.3669
 1550ntf    fn411098   6.875   4.035   0.622 -0.3968  0.1250  0.2457
 1550ntf    fn411099   6.951   4.174   0.759  0.0021  0.5978 -0.1559
 1550ntf    fn411100   6.796   4.051   0.825  0.3425  0.2036  0.4672
 1551ntf    cn111101   4.597   1.945   6.007  0.0284  0.4026 -0.0362
 1551ntf    sn211102   4.642   1.810   6.120 -0.0136  0.1993 -0.2627
 1551ntf    nn311103   4.574   1.691   6.043 -0.5890  0.3801 -0.0362
 1551ntf    sn211104   4.641   1.600   5.935 -0.0616  0.3031  0.3546
 1551ntf    cn111105   4.512   1.608   5.808 -0.0121 -0.0991  0.2759
 1551ntf    fn411106   4.468   1.950   5.978 -0.0730 -0.3558  0.2761
 1551ntf    fn411107   4.630   2.066   6.051 -0.2484  0.2621  0.5668
 1551ntf    fn411108   4.655   1.936   5.888 -0.1375 -0.2650 -0.0690
 1551ntf    on511109   4.786   1.803   6.128 -0.0175  0.0021 -0.3493
 1551ntf    on511110   4.578   1.840   6.246 -0.5385 -0.1440 -0.4437
 1551ntf    on511111   4.635   1.460   5.971 -0.2851  0.1228 -0.3745
 1551ntf    on511112   4.758   1.651   5.868  0.2380 -0.1792  0.5005
 1551ntf    fn411113   4.393   1.589   5.864 -0.2311  0.4242  0.0034
 1551ntf    fn411114   4.502   1.725   5.747 -0.4128 -0.1891  0.1634
 1551ntf    fn411115   4.521   1.506   5.724 -0.4249  0.2705 -0.2289
 1552ntf    cn111116   5.589   5.397   0.768 -0.1687  0.0546 -0.3384
 1552ntf    sn211117   5.653   5.313   0.916 -0.1593  0.2577 -0.2270
 1552ntf    nn311118   5.623   5.430   1.016  0.0890  0.3132 -0.2155
 1552ntf    sn211119   5.723   5.537   1.073  0.1945  0.0269  0.1385
 1552ntf    cn111120   5.624   5.686   1.045 -0.2427 -0.2455  0.2225
 1552ntf    fn411121   5.509   5.499   0.796 -0.3428 -0.2617  0.3493
 1552ntf    fn411122   5.689   5.449   0.699  0.0231 -0.0486 -0.1390
 1552ntf    fn411123   5.523   5.330   0.676 -0.0393 -0.2860 -0.1837
 1552ntf    on511124   5.564   5.200   0.929  0.0544  0.1919  0.7718
 1552ntf    on511125   5.791   5.286   0.881  0.0768  0.3946  0.5726
 1552ntf    on511126   5.847   5.557   1.003 -0.1402 -0.2804 -0.5467
 1552ntf    on511127   5.730   5.523   1.217  0.1263 -0.4821  0.0936
 1552ntf    fn411128   5.667   5.797   1.104 -0.1118 -0.2968  0.2250
 1552ntf    fn411129   5.630   5.720   0.917 -0.5945  0.1880  0.3168
 1552ntf    fn411130   5.496   5.671   1.074 -0.3134  0.2903  0.2138
 1553ntf    cn111131   4.810   0.377   5.357 -0.6434  0.3018  0.6027
 1553ntf    sn211132   4.695   0.313   5.231  0.0966 -0.2883  0.2203
 1553ntf    nn311133   4.717   0.406   5.105  1.0236 -0.1957  0.4431
 1553ntf    sn211134   4.727   0.372   4.952 -0.0083 -0.0451  0.3355
 1553ntf    cn111135   4.559   0.423   4.907  0.2078  0.2991 -0.0928
 1553ntf    fn411136   4.802   0.503   5.395 -0.1712  0.5240 -0.0142
 1553ntf    fn411137   4.824   0.306   5.467 -0.2895 -0.3202  0.1630
 1553ntf    fn411138   4.933   0.369   5.309 -0.6453 -0.1533  0.6745
 1553ntf    on511139   4.741   0.178   5.214  0.1786 -0.1544 -0.6913
 1553ntf    on511140   4.568   0.329   5.297 -0.0405 -0.6778  0.0478
 1553ntf    on511141   4.728   0.235   4.909  0.0922  0.2334 -0.5713
 1553ntf    on511142   4.805   0.459   4.868 -0.4953  0.1621  0.0985
 1553ntf    fn411143   4.466   0.345   4.960 -0.2070  0.6206 -0.3396
 1553ntf    fn411144   4.522   0.543   4.950  0.2794  0.4220 -0.3751
 1553ntf    fn411145   4.533   0.415   4.778 -0.8887 -0.4442  0.1561
 1554ntf    cn111146   0.589   1.684   6.739 -0.2677  0.2123 -0.3598
 1554ntf    sn211147   0.638   1.839   6.820 -0.3958  0.0588  0.0152
 1554ntf    nn311148   0.608   1.941   6.705 -0.3840  0.0481  0.0022
 1554ntf    sn211149   0.478   2.026   6.684 -0.1539  0.3274 -0.3285
 1554ntf    cn111150   0.510   2.064   6.510  0.1146  0.2180 -0.3025
 1554ntf    fn411151   0.644   1.665   6.620 -0.0380 -0.0656 -0.2128
 1554ntf    fn411152   0.634   1.580   6.808 -0.2695  0.1977 -0.3805
 1554ntf    fn411153   0.457   1.676   6.733 -0.2870  0.1288  0.1390
 1554ntf    on511154   0.558   1.847   6.940  0.3805 -0.2128  0.5571
 1554ntf    on511155   0.781   1.831   6.841 -0.3287 -0.2019 -0.5108
 1554ntf    on511156   0.470   2.159   6.740  0.5286  0.1947  0.0974
 1554ntf    on511157   0.361   1.941   6.686  0.2686 -0.2615 -0.4616
 1554ntf    fn411158   0.399   2.100   6.448  0.0483  0.0148 -0.3043
 1554ntf    fn411159   0.594   2.164   6.490  0.1640  0.2184 -0.0883
 1554ntf    fn411160   0.563   1.964   6.440 -0.0192 -0.2042  0.1940
 1555ntf    cn111161   5.115   1.404   0.842 -0.4632  0.0194  0.1341
 1555ntf    sn211162   5.069   1.579   0.822 -0.4639 -0.0241 -0.2433
 1555ntf    nn311163   5.196   1.660   0.866 -0.3837 -0.0412 -0.4419
 1555ntf    sn211164   5.298   1.733   0.771 -0.2400 -0.1225 -0.3513
 1555ntf    cn111165   5.433   1.711   0.890 -0.3549  0.1214 -0.1750
 1555ntf    fn411166   5.162   1.388   0.965  0.0623 -0.0236 -0.0692
 1555ntf    fn411167   5.009   1.328   0.824 -0.2315 -0.3495  0.3310
 1555ntf    fn411168   5.205   1.370   0.751  0.1294  0.4879  0.5316
 1555ntf    on511169   5.040   1.585   0.680 -0.5120  0.3497 -0.2189
 1555ntf    on511170   4.959   1.599   0.913 -0.2446 -0.0212  0.0203
 1555ntf    on511171   5.279   1.876   0.763 -0.5014 -0.1434 -0.1036
 1555ntf    on511172   5.337   1.664   0.650 -0.0525  0.0973 -0.4173
 1555ntf    fn411173   5.553   1.705   0.836 -0.2617  0.5718 -0.0205
 1555ntf    fn411174   5.438   1.814   0.972  0.2672  0.1463 -0.2377
 1555ntf    fn411175   5.413   1.602   0.962  0.0607  0.2563  0.1461
 1556ntf    cn111176   6.419   0.158   0.627  0.0804  0.2796 -0.5824
 1556ntf    sn211177   6.324   0.006   0.600  0.1845  0.1634 -0.2996
 1556ntf    nn311178   6.421  -0.083   0.514  0.1322  0.0382 -0.2295
 1556ntf    sn211179   6.445  -0.085   0.359 -0.4233 -0.2258 -0.3139
 1556ntf    cn111180   6.352  -0.233   0.309 -0.3903 -0.3207 -0.0971
 1556ntf    fn411181   6.535   0.134   0.687  0.1245 -0.3321 -0.9073
 1556ntf    fn411182   6.438   0.226   0.515 -0.0308 -0.0846 -0.8214
 1556ntf    fn411183   6.359   0.246   0.706 -0.1617  0.0701 -0.5319
 1556ntf    on511184   6.310  -0.052   0.731  0.4565  0.2523 -0.2295
 1556ntf    on511185   6.202   0.045   0.534  0.0814 -0.0800 -0.2558
 1556ntf    on511186   6.580  -0.128   0.338 -0.2925  0.1050 -0.1626
 1556ntf    on511187   6.403   0.030   0.282  0.6892  0.0184 -0.5762
 1556ntf    fn411188   6.371  -0.278   0.186  0.6540  0.6190 -0.2983
 1556ntf    fn411189   6.372  -0.331   0.395  0.1342 -0.2671 -0.1562
 1556ntf    fn411190   6.225  -0.199   0.328 -0.4010 -0.0017 -0.7059
 1557ntf    cn111191   0.972   6.088   1.109  0.1550 -0.1775  0.0954
 1557ntf    sn211192   1.140   6.133   1.056 -0.0193  0.1498 -0.1801
 1557ntf    nn311193   1.179   6.234   1.170  0.9568 -0.5160  0.0872
 1557ntf    sn211194   1.293   6.341   1.178  0.2600  0.2629 -0.3284
 1557ntf    cn111195   1.342   6.322   1.352 -0.0431 -0.3515 -0.3087
 1557ntf    fn411196   0.902   6.011   1.028  0.4175 -0.0668 -0.2363
 1557ntf    fn411197   0.969   6.017   1.221  0.5716 -0.1319  0.1370
 1557ntf    fn411198   0.897   6.193   1.134  0.1332 -0.1256 -0.1916
 1557ntf    on511199   1.215   6.010   1.060  0.2208  0.2923 -0.2419
 1557ntf    on511200   1.122   6.197   0.928  0.0673  0.0179 -0.2587
 1557ntf    on511201   1.249   6.478   1.187  0.0195  0.1302  0.5746
 1557ntf    on511202   1.413   6.306   1.105  0.7363  0.4886  0.3385
 1557ntf    fn411203   1.434   6.410   1.388 -0.6365  0.1273  0.0478
 1557ntf    fn411204   1.235   6.336   1.428  0.0560  0.1273 -0.2537
 1557ntf    fn411205   1.400   6.205   1.372  0.6609  0.0312 -0.0628
 1558ntf    cn111206   5.402   5.828   6.148 -0.0763  0.0027 -0.0764
 1558ntf    sn211207   5.369   5.650   6.137  0.0480 -0.0511  0.3721
 1558ntf    nn311208   5.235   5.657   6.054  0.0649 -0.0561  0.3434
 1558ntf    sn211209   5.211   5.610   5.906 -0.0451  0.0561  0.3253
 1558ntf    cn111210   5.066   5.705   5.850 -0.0583 -0.0912  0.1135
 1558ntf    fn411211   5.443   5.879   6.033 -0.1750 -0.4030 -0.2935
 1558ntf    fn411212   5.295   5.902   6.172 -0.1888 -0.3377  0.4942
 1558ntf    fn411213   5.494   5.865   6.236 -0.1503 -0.1087  0.0478
 1558ntf    on511214   5.489   5.595   6.080 -0.0832  0.1276 -0.0848
 1558ntf    on511215   5.347   5.608   6.273 -0.7756  0.4254  0.3949
 1558ntf    on511216   5.171   5.472   5.896 -0.1169  0.1112 -0.1540
 1558ntf    on511217   5.306   5.656   5.808 -0.2038 -0.1409  0.0795
 1558ntf    fn411218   4.960   5.687   5.926 -0.0772  0.6237  0.2573
 1558ntf    fn411219   5.078   5.835   5.833 -0.7796 -0.0258  0.1038
 1558ntf    fn411220   5.034   5.667   5.727 -0.4167 -0.2247  0.2472
 1559ntf    cn111221   3.747   3.169   1.105 -0.1523  0.1298  0.1200
 1559ntf    sn211222   3.726   3.224   0.933  0.1994  0.1540  0.0844
 1559ntf    nn311223   3.689   3.376   0.937  0.1559  0.1414  0.1623
 1559ntf    sn211224   3.643   3.463   0.814  0.5019  0.0937 -0.0030
 1559ntf    cn111225   3.532   3.578   0.901  0.2044  0.2846 -0.6356
 1559ntf    fn411226   3.844   3.237   1.165 -0.3810  0.3218  0.2708
 1559ntf    fn411227   3.642   3.191   1.182  0.2634  0.4163  0.6106
 1559ntf    fn411228   3.772   3.039   1.114 -0.9572 -0.0030  0.5260
 1559ntf    on511229   3.857   3.211   0.873  0.1851  0.0523  0.0749
 1559ntf    on511230   3.623   3.141   0.876  0.0155  0.3408  0.1455
 1559ntf    on511231   3.555   3.397   0.721 -0.3326  1.0449  0.0898
 1559ntf    on511232   3.752   3.545   0.770  0.1776 -0.0385 -1.0688
 1559ntf    fn411233   3.593   3.635   1.003 -0.1919  0.5196 -0.5267
 1559ntf    fn411234   3.492   3.676   0.821 -0.5542  0.0194 -0.5862
 1559ntf    fn411235   3.421   3.527   0.951  0.2009  0.5897 -0.3298
 1560ntf    cn111236   6.813   2.723   4.390  0.2561  0.1427  0.0783
 1560ntf    sn211237   6.930   2.787   4.513  0.2094  0.1731  0.1072
 1560ntf    nn311238   6.834   2.791   4.638  0.5128 -0.1449  0.3533
 1560ntf    sn211239   6.751   2.909   4.700 -0.1561 -0.5761  0.2884
 1560ntf    cn111240   6.705   2.843   4.863 -0.3879 -0.2123  0.3713
 1560ntf    fn411241   6.775   2.601   4.426  0.4073  0.1786  0.3606
 1560ntf    fn411242   6.708   2.803   4.378 -0.0457 -0.2720 -0.0944
 1560ntf    fn411243   6.866   2.696   4.272  0.0660  0.3892 -0.0638
 1560ntf    on511244   7.025   2.679   4.518  0.0940  0.0948  0.6743
 1560ntf    on511245   6.977   2.916   4.471  0.2092  0.0274 -0.3409
 1560ntf    on511246   6.624   2.934   4.637  0.1067  0.0659  0.0006
 1560ntf    on511247   6.830   3.027   4.725  0.4320 -0.8650 -0.1622
 1560ntf    fn411248   6.615   2.746   4.848 -0.5937  0.1266 -0.7120
 1560ntf    fn411249   6.808   2.789   4.926 -0.0750  0.3066  0.3120
 1560ntf    fn411250   6.649   2.938   4.936  0.0307  0.0034  0.4103
 1561ntf    cn111251   3.428   0.677   4.268  0.0429  0.7280 -0.0419
 1561ntf    sn211252   3.439   0.831   4.171 -0.0895  0.4683 -0.4718
 1561ntf    nn311253   3.525   0.793   4.045  0.0827 -0.0858 -0.1890
 1561ntf    sn211254   3.673   0.829   4.005  0.0877 -0.1765 -0.2532
 1561ntf    cn111255   3.649   1.002   3.955  0.1314 -0.0864  0.0347
 1561ntf    fn411256   3.411   0.709   4.395  0.0820  0.1095  0.1175
 1561ntf    fn411257   3.324   0.602   4.233  0.2878  0.1777  0.4015
 1561ntf    fn411258   3.536   0.603   4.251 -0.4389 -0.0405  0.1863
 1561ntf    on511259   3.303   0.868   4.144 -0.3586  0.0656  0.2936
 1561ntf    on511260   3.505   0.918   4.265  0.1355  0.3690 -0.5352
 1561ntf    on511261   3.716   0.767   3.882  0.2675 -0.4217 -0.0680
 1561ntf    on511262   3.769   0.836   4.112 -0.0473 -0.3568 -0.1189
 1561ntf    fn411263   3.550   1.006   3.867  0.1679  0.1380  0.0032
 1561ntf    fn411264   3.610   1.078   4.056  0.5890  0.4387 -0.1812
 1561ntf    fn411265   3.756   1.059   3.903 -0.6571  1.0073 -0.4397
 1562ntf    cn111266   3.523   0.715   5.593 -0.0729  0.2671  0.3105
 1562ntf    sn211267   3.637   0.626   5.704 -0.2238 -0.5096 -0.1457
 1562ntf    nn311268   3.737   0.561   5.602 -0.3866 -0.4652 -0.3333
 1562ntf    sn211269   3.791   0.413   5.597  0.5082 -0.1587  0.0611
 1562ntf    cn111270   3.964   0.446   5.552  0.3211  0.0525 -0.5052
 1562ntf    fn411271   3.429   0.790   5.648 -0.1153  0.2147  0.3093
 1562ntf    fn411272   3.596   0.789   5.512 -0.6715 -0.1071 -0.5794
 1562ntf    fn411273   3.462   0.632   5.510  0.3882 -0.0857  0.3172
 1562ntf    on511274   3.710   0.733   5.768  0.0338 -0.5983 -0.2865
 1562ntf    on511275   3.554   0.543   5.786 -0.4582 -0.1630 -0.0287
 1562ntf    on511276   3.757   0.329   5.485 -0.6832  0.5040 -0.0940
 1562ntf    on511277   3.799   0.360   5.731  0.1291 -0.0260  0.1378
 1562ntf    fn411278   3.996   0.554   5.620  0.6291 -0.1818 -0.2752
 1562ntf    fn411279   4.049   0.350   5.584  0.2983  0.2035  0.0079
 1562ntf    fn411280   3.976   0.473   5.423  0.1005  0.3117 -0.4720
 1563ntf    cn111281   2.522   3.402   0.642  0.0176  0.1204 -0.2194
 1563ntf    sn211282   2.364   3.314   0.650 -0.0526  0.2889  0.2583
 1563ntf    nn311283   2.426   3.171   0.666 -0.1969  0.1692 -0.2236
 1563ntf    sn211284   2.444   3.056   0.560 -0.2037 -0.0569  0.0189
 1563ntf    cn111285   2.439   2.910   0.669 -0.4438  0.1928  0.3474
 1563ntf    fn411286   2.575   3.414   0.762  0.4144 -0.2615 -0.3504
 1563ntf    fn411287   2.612   3.342   0.565 -0.1849 -0.3697 -0.0784
 1563ntf    fn411288   2.520   3.529   0.606  0.1421  0.2347  0.1737
 1563ntf    on511289   2.307   3.363   0.773 -0.1533  0.7586  0.0266
 1563ntf    on511290   2.297   3.339   0.524  0.4396  0.2296 -0.0170
 1563ntf    on511291   2.571   3.050   0.494 -0.0940 -0.3228  0.2525
 1563ntf    on511292   2.334   3.030   0.471  0.1051 -0.3736 -0.2708
 1563ntf    fn411293   2.499   2.809   0.607 -0.3584  0.1180  0.5519
 1563ntf    fn411294   2.504   2.927   0.783 -0.2289 -0.0558  0.2649
 1563ntf    fn411295   2.318   2.870   0.704 -0.4020 -0.0238  0.2440
 1564ntf    cn111296   5.729   4.351   1.420 -0.2118 -0.0527  0.6382
 1564ntf    sn211297   5.643   4.493   1.495  0.0919  0.2831  0.3528
 1564ntf    nn311298   5.668   4.590   1.374 -0.2343  0.3968  0.3764
 1564ntf    sn211299   5.689   4.745   1.378  0.0662  0.3612  0.2321
 1564ntf    cn111300   5.867   4.761   1.408  0.1769 -0.2739 -0.0729
 1564ntf    fn411301   5.664   4.300   1.317  0.6248 -0.8805  0.5047
 1564ntf    fn411302   5.846   4.390   1.372 -0.1819 -0.6335  0.2312
 1564ntf    fn411303   5.753   4.256   1.509 -0.0804 -0.6871 -0.0607
 1564ntf    on511304   5.506   4.449   1.505  0.0371  0.5045  0.5638
 1564ntf    on511305   5.719   4.520   1.614 -0.0248  0.6927  0.3342
 1564ntf    on511306   5.617   4.806   1.488 -0.1986 -0.3266  0.4468
 1564ntf    on511307   5.670   4.809   1.250  0.1355 -0.1307 -0.0223
 1564ntf    fn411308   5.921   4.674   1.491 -0.1235 -0.4550 -0.0662
 1564ntf    fn411309   5.930   4.760   1.291 -0.1313  0.3005 -0.2479
 1564ntf    fn411310   5.894   4.882   1.455  0.6252 -0.1900 -0.5252
 1565ntf    cn111311   1.714   6.248   5.220  0.0945  0.0529 -0.3686
 1565ntf    sn211312   1.547   6.215   5.285  0.0894 -0.2414 -0.5339
 1565ntf    nn311313   1.463   6.270   5.164 -0.0697 -0.0578 -0.3399
 1565ntf    sn211314   1.309   6.279   5.135 -0.1153 -0.2817 -0.1780
 1565ntf    cn111315   1.262   6.437   5.212 -0.1183 -0.3602 -0.0194
 1565ntf    fn411316   1.807   6.229   5.312 -0.5806 -0.2657  0.2569
 1565ntf    fn411317   1.745   6.179   5.112 -0.0638 -0.1687 -0.2735
 1565ntf    fn411318   1.722   6.376   5.184 -0.6122  0.0668 -0.4938
 1565ntf    on511319   1.538   6.073   5.312  0.2378 -0.1443  0.0426
 1565ntf    on511320   1.543   6.314   5.389  0.0758 -0.3019 -0.4772
 1565ntf    on511321   1.230   6.178   5.201  0.2738 -0.4808 -0.0191
 1565ntf    on511322   1.286   6.298   4.994  0.5698  0.5616 -0.1825
 1565ntf    fn411323   1.336   6.539   5.171 -0.6493  0.0926  0.1359
 1565ntf    fn411324   1.135   6.473   5.207 -0.0600 -0.0203  0.8037
 1565ntf    fn411325   1.294   6.432   5.341 -0.0515 -0.1917 -0.0288
 1566ntf    cn111326   2.075   0.650   2.345 -0.0600 -0.1529  0.0018
 1566ntf    sn211327   2.119   0.597   2.176 -0.1076 -0.1263 -0.0193
 1566ntf    nn311328   2.253   0.522   2.209  0.0324 -0.0803 -0.4828
 1566ntf    sn211329   2.401   0.558   2.170 -0.0635  0.3525 -0.4473
 1566ntf    cn111330   2.465   0.618   2.330 -0.3277 -0.3567 -0.0716
 1566ntf    fn411331   1.966   0.724   2.351  0.1736  0.1776  0.1566
 1566ntf    fn411332   2.045   0.556   2.433  0.6704 -0.3674  0.0254
 1566ntf    fn411333   2.169   0.715   2.410  0.2604 -0.3728 -0.2392
 1566ntf    on511334   2.016   0.501   2.144 -0.4030  0.2470 -0.1973
 1566ntf    on511335   2.123   0.726   2.111  0.9505 -0.2201 -0.1546
 1566ntf    on511336   2.418   0.666   2.076  0.1510  0.3308 -0.4346
 1566ntf    on511337   2.479   0.443   2.133  0.3064  0.1671  0.8439
 1566ntf    fn411338   2.402   0.730   2.361  0.0768 -0.1067 -0.1458
 1566ntf    fn411339   2.442   0.533   2.428 -0.8480  0.2091  0.3009
 1566ntf    fn411340   2.594   0.646   2.324 -0.4648  0.3735  0.3406
 1567ntf    cn111341   6.682   1.308   1.415  0.1007 -0.0363 -0.2222
 1567ntf    sn211342   6.691   1.135   1.362  0.2615 -0.1044  0.0278
 1567ntf    nn311343   6.742   1.066   1.494 -0.1323  0.3528  0.4232
 1567ntf    sn211344   6.667   0.981   1.602 -0.0852  0.0264  0.2018
 1567ntf    cn111345   6.806   0.951   1.715  0.0809  0.1322  0.0244
 1567ntf    fn411346   6.660   1.394   1.316 -0.0441 -0.3107 -0.4290
 1567ntf    fn411347   6.580   1.325   1.497 -0.2472  0.0667 -0.6752
 1567ntf    fn411348   6.791   1.350   1.478 -0.2293  0.7720 -0.1704
 1567ntf    on511349   6.552   1.111   1.333  0.0514  0.7725  0.3001
 1567ntf    on511350   6.789   1.135   1.256  0.6116 -0.1175  0.3496
 1567ntf    on511351   6.622   0.849   1.564 -0.2738 -0.0809  0.7890
 1567ntf    on511352   6.575   1.061   1.679 -0.0460  0.8565 -0.6019
 1567ntf    fn411353   6.860   0.831   1.702 -0.0144  0.1747 -0.8450
 1567ntf    fn411354   6.911   1.030   1.695  0.1983  0.0765  0.4125
 1567ntf    fn411355   6.762   0.960   1.839 -0.5989  0.2701 -0.2245
 1568ntf    cn111356   0.975   3.127   3.930  0.0199  0.1688  0.1384
 1568ntf    sn211357   0.955   3.082   4.105 -0.1439  0.1271  0.1085
 1568ntf    nn311358   0.822   3.002   4.081  0.0534 -0.0340 -0.4617
 1568ntf    sn211359   0.808   2.849   4.049 -0.0404 -0.0971 -0.1169
 1568ntf    cn111360   0.681   2.853   3.920 -0.0535 -0.2464 -0.1081
 1568ntf    fn411361   0.988   3.024   3.848 -0.2206 -0.1709  0.5212
 1568ntf    fn411362   0.869   3.198   3.896  0.1385  0.1362 -0.3081
 1568ntf    fn411363   1.084   3.197   3.902  0.0384 -0.0226 -0.2779
 1568ntf    on511364   1.069   2.999   4.133 -0.3429 -0.4481 -0.7441
 1568ntf    on511365   0.932   3.206   4.174 -0.9413  0.0287  0.0347
 1568ntf    on511366   0.740   2.778   4.154  0.7294  0.0433  0.4933
 1568ntf    on511367   0.917   2.782   3.983 -0.1641  0.0644 -0.4864
 1568ntf    fn411368   0.724   2.902   3.805 -0.0136 -0.1941 -0.0711
 1568ntf    fn411369   0.644   2.730   3.887  0.3813 -0.4429  0.1208
 1568ntf    fn411370   0.575   2.923   3.956  0.4765  0.5216 -0.0194
 1569ntf    cn111371   4.935   1.735   3.470 -0.2452 -0.3586 -0.1188
 1569ntf    sn211372   5.011   1.690   3.311 -0.0001  0.4297 -0.2286
 1569ntf    nn311373   5.123   1.801   3.318  0.4261 -0.0312  0.2980
 1569ntf    sn211374   5.112   1.957   3.305  0.2705 -0.0119  0.6413
 1569ntf    cn111375   5.239   2.003   3.426  0.7028 -0.1176  0.2330
 1569ntf    fn411376   4.829   1.813   3.454 -0.3113 -0.4857 -0.3033
 1569ntf    fn411377   4.895   1.636   3.547  0.2446  0.1321  0.7763
 1569ntf    fn411378   5.018   1.792   3.557  0.0319 -0.9526  0.0102
 1569ntf    on511379   5.067   1.558   3.318 -0.2433  0.3487  0.1438
 1569ntf    on511380   4.910   1.720   3.213 -0.0213  0.6483 -0.1420
 1569ntf    on511381   4.990   2.019   3.352 -0.2157 -0.1965 -0.3439
 1569ntf    on511382   5.166   1.999   3.178  0.6833 -0.5439  0.6376
 1569ntf    fn411383   5.214   1.942   3.541 -0.1705  0.1394  0.1853
 1569ntf    fn411384   5.358   1.960   3.389  0.6782  0.1864 -0.1985
 1569ntf    fn411385   5.240   2.135   3.437  0.1048 -0.1063  0.1957
 1570ntf    cn111386   4.878   6.342   3.123 -0.0312  0.3317  0.0135
 1570ntf    sn211387   4.699   6.342   3.156 -0.0249  0.3574  0.0507
 1570ntf    nn311388   4.681   6.497   3.171 -0.0793  0.3668 -0.1097
 1570ntf    sn211389   4.590   6.601   3.096  0.0559  0.5181 -0.0643
 1570ntf    cn111390   4.722   6.688   3.005  0.3877 -0.1053 -0.1827
 1570ntf    fn411391   4.932   6.231   3.075 -0.1337  0.3753 -0.2017
 1570ntf    fn411392   4.910   6.432   3.032  0.0011  0.2129 -0.0923
 1570ntf    fn411393   4.945   6.371   3.234 -0.4305  0.4246  0.2340
 1570ntf    on511394   4.646   6.281   3.037  0.3277  0.4341 -0.1485
 1570ntf    on511395   4.690   6.273   3.282  0.4176  0.1860 -0.0083
 1570ntf    on511396   4.545   6.702   3.188 -0.1375 -0.0814  0.5073
 1570ntf    on511397   4.499   6.546   2.998 -0.3310  1.1298 -0.0531
 1570ntf    fn411398   4.685   6.802   2.951 -0.1398 -0.0355  0.3138
 1570ntf    fn411399   4.819   6.727   3.085  0.2270  0.1175 -0.0980
 1570ntf    fn411400   4.774   6.605   2.916  0.6799 -0.4281  0.2864
 1571ntf    cn111401   5.455   1.718   5.732  0.2117  0.1523 -0.3632
 1571ntf    sn211402   5.410   1.632   5.578 -0.2495 -0.2170 -0.0256
 1571ntf    nn311403   5.521   1.682   5.478 -0.2727 -0.1891 -0.0380
 1571ntf    sn211404   5.511   1.809   5.387 -0.1016  0.1199  0.3698
 1571ntf    cn111405   5.681   1.862   5.424  0.1696 -0.2456 -0.3349
 1571ntf    fn411406   5.502   1.837   5.696  0.1391  0.3086  0.0524
 1571ntf    fn411407   5.355   1.743   5.815  0.0935 -0.7760 -0.2129
 1571ntf    fn411408   5.546   1.660   5.808 -0.2041  0.3123  0.2620
 1571ntf    on511409   5.429   1.496   5.621 -0.3222 -0.4895 -0.8377
 1571ntf    on511410   5.274   1.667   5.542  0.0380  0.3975 -0.5468
 1571ntf    on511411   5.434   1.923   5.432 -0.8284 -0.2460  0.0763
 1571ntf    on511412   5.521   1.789   5.244  0.3663 -0.1714  0.4454
 1571ntf    fn411413   5.711   1.987   5.393  0.1916 -0.2162 -0.1926
 1571ntf    fn411414   5.712   1.854   5.552  0.1238  0.1865 -0.2958
 1571ntf    fn411415   5.773   1.791   5.360  0.1059 -0.0721 -0.6205
 1572ntf    cn111416   2.750   1.675   1.483 -0.0096 -0.0546 -0.3910
 1572ntf    sn211417   2.696   1.580   1.337 -0.7264 -0.0876 -0.1066
 1572ntf    nn311418   2.556   1.649   1.316 -0.6496  0.3470  0.7431
 1572ntf    sn211419   2.441   1.619   1.214 -0.2160  0.0787  0.3238
 1572ntf    cn111420   2.452   1.769   1.112 -0.0034 -0.0912  0.0955
 1572ntf    fn411421   2.646   1.691   1.563  0.1320 -0.6423 -0.0894
 1572ntf    fn411422   2.850   1.623   1.553 -0.2900 -0.0003  0.0545
 1572ntf    fn411423   2.774   1.801   1.451 -0.0422  0.0719  0.0750
 1572ntf    on511424   2.808   1.603   1.249 -0.6847  0.6913  0.1387
 1572ntf    on511425   2.676   1.447   1.388 -0.3513  0.1855  0.7893
 1572ntf    on511426   2.315   1.631   1.284 -0.6070 -0.1696 -0.3240
 1572ntf    on511427   2.456   1.510   1.121 -0.7035  0.2546  0.0340
 1572ntf    fn411428   2.412   1.877   1.179  0.0845 -0.3602  0.5902
 1572ntf    fn411429   2.578   1.794   1.081 -0.2982  1.0394 -0.2274
 1572ntf    fn411430   2.379   1.759   1.002  0.3685 -0.5227 -0.1132
 1573ntf    cn111431   2.172   0.650   0.474  0.1512 -0.5323  0.2741
 1573ntf    sn211432   2.057   0.686   0.338  0.1835 -0.1324  0.3494
 1573ntf    nn311433   1.957   0.783   0.409 -0.0841  0.1795 -0.4360
 1573ntf    sn211434   1.969   0.939   0.430  0.0774  0.1701 -0.4554
 1573ntf    cn111435   1.844   0.961   0.560  0.1402  0.3591 -0.4275
 1573ntf    fn411436   2.270   0.739   0.481 -0.0666 -0.2740  0.0688
 1573ntf    fn411437   2.098   0.664   0.583 -0.0416 -0.2734  0.1118
 1573ntf    fn411438   2.221   0.527   0.471 -0.1699 -0.6646  0.4340
 1573ntf    on511439   2.141   0.740   0.234  0.2383 -0.2699  0.3213
 1573ntf    on511440   1.996   0.556   0.319 -0.0570  0.1332 -0.7775
 1573ntf    on511441   1.933   1.025   0.320 -0.2519 -0.4683 -0.8592
 1573ntf    on511442   2.094   0.958   0.498 -0.1440  0.1733 -0.0489
 1573ntf    fn411443   1.720   0.932   0.522  0.0971  0.4602 -0.3651
 1573ntf    fn411444   1.872   0.876   0.657 -0.2600  0.2159 -0.4352
 1573ntf    fn411445   1.846   1.082   0.613 -0.0346 -0.1268  0.7056
 1574ntf    cn111446   0.398   6.672   4.089  0.2040  0.1247 -0.2155
 1574ntf    sn211447   0.269   6.788   4.145  0.1013 -0.1177  0.0554
 1574ntf    nn311448   0.280   6.889   4.025  0.0817 -0.2412 -0.0504
 1574ntf    sn211449   0.337   7.035   4.018 -0.2261 -0.1148  0.0401
 1574ntf    cn111450   0.200   7.109   3.924 -0.0133 -0.0159 -0.1922
 1574ntf    fn411451   0.381   6.555   4.149 -0.6739  0.4479  0.1848
 1574ntf    fn411452   0.414   6.646   3.961  0.7701  0.1701 -0.1530
 1574ntf    fn411453   0.517   6.705   4.136  0.2679  0.3095 -0.5044
 1574ntf    on511454   0.148   6.710   4.133  0.2107 -0.2335 -0.3228
 1574ntf    on511455   0.317   6.833   4.273 -0.5545 -0.0664  0.2841
 1574ntf    on511456   0.448   7.042   3.926 -0.5241  0.0940 -0.3076
 1574ntf    on511457   0.342   7.118   4.136 -0.5702  0.6795 -0.4963
 1574ntf    fn411458   0.218   7.238   3.903  0.2857 -0.0649 -0.2404
 1574ntf    fn411459   0.187   7.046   3.808 -0.0899  0.6031 -0.5202
 1574ntf    fn411460   0.085   7.101   3.988 -0.1668  0.0239 -0.4612
 1575ntf    cn111461   2.833   4.364   4.732  0.7409 -0.3659 -0.1605
 1575ntf    sn211462   2.920   4.485   4.836  0.0259 -0.0308  0.0546
 1575ntf    nn311463   2.860   4.622   4.791  0.4116  0.1495  0.0854
 1575ntf    sn211464   2.899   4.716   4.672  0.0940 -0.1321 -0.2414
 1575ntf    cn111465   2.993   4.847   4.755 -0.0121 -0.0884 -0.1906
 1575ntf    fn411466   2.895   4.354   4.616  0.3734 -0.4010 -0.3568
 1575ntf    fn411467   2.825   4.239   4.776 -0.2556 -0.2099  0.1320
 1575ntf    fn411468   2.708   4.398   4.705  0.4855 -0.5827  0.6960
 1575ntf    on511469   2.884   4.450   4.972 -0.5035  0.1817 -0.0314
 1575ntf    on511470   3.062   4.481   4.814 -0.0747 -0.1261 -0.5908
 1575ntf    on511471   2.782   4.781   4.618 -0.3022 -0.2375  0.4758
 1575ntf    on511472   2.996   4.663   4.578  0.0875 -0.1100 -0.2605
 1575ntf    fn411473   2.931   4.894   4.862  0.4836  0.2594 -0.0528
 1575ntf    fn411474   3.110   4.799   4.793 -0.1500 -0.1496  0.1643
 1575ntf    fn411475   3.012   4.948   4.672  0.0698  0.1395  0.1008
 1576ntf    cn111476   0.739   6.128   0.263  0.0918  0.1106 -0.0691
 1576ntf    sn211477   0.902   6.047   0.251  0.0980  0.0386  0.5037
 1576ntf    nn311478   0.997   6.172   0.261  0.2741 -0.0357 -0.2205
 1576ntf    sn211479   1.073   6.242   0.379  0.3897  0.1475 -0.4045
 1576ntf    cn111480   0.991   6.405   0.377  0.0874  0.0025  0.0390
 1576ntf    fn411481   0.693   6.152   0.384 -0.4588 -0.6478 -0.1195
 1576ntf    fn411482   0.737   6.243   0.198  0.2758  0.3237  0.3016
 1576ntf    fn411483   0.645   6.054   0.206  0.0910  0.4075 -0.4621
 1576ntf    on511484   0.902   5.957   0.364 -0.2370 -0.6402 -0.0293
 1576ntf    on511485   0.902   5.988   0.120  0.9831 -0.0064  0.5214
 1576ntf    on511486   1.209   6.274   0.343  0.3027  0.0614 -0.8212
 1576ntf    on511487   1.056   6.207   0.518  0.8380 -0.2053 -0.4396
 1576ntf    fn411488   0.861   6.388   0.391 -0.0042  0.4399 -0.2792
 1576ntf    fn411489   1.029   6.476   0.482  0.0036  0.4777 -0.2487
 1576ntf    fn411490   1.010   6.464   0.260 -0.4411 -0.2830 -0.1933
 1577ntf    cn111491   3.337   0.265   2.419  0.2172  0.3876 -0.0960
 1577ntf    sn211492   3.396   0.103   2.361 -0.2992  0.0325  0.3563
 1577ntf    nn311493   3.487   0.046   2.476 -0.3213 -0.1925  0.2634
 1577ntf    sn211494   3.473  -0.074   2.576 -0.1070 -0.0870  0.4210
 1577ntf    cn111495   3.555  -0.003   2.722  0.0217  0.2814  0.1715
 1577ntf    fn411496   3.436   0.348   2.448  0.3788  0.1751 -0.0364
 1577ntf    fn411497   3.261   0.326   2.329  0.0006  0.5312  0.1826
 1577ntf    fn411498   3.270   0.268   2.533  0.0857  0.1402 -0.1659
 1577ntf    on511499   3.271   0.033   2.346 -0.4470  0.3847 -0.0749
 1577ntf    on511500   3.472   0.125   2.240  0.7998  0.4160  1.1049
 1577ntf    on511501   3.561  -0.180   2.534 -0.1376  0.1037 -0.1311
 1577ntf    on511502   3.339  -0.101   2.622 -0.0468 -0.9760  0.0891
 1577ntf    fn411503   3.686  -0.001   2.704  0.0738 -0.3049  0.4506
 1577ntf    fn411504   3.506   0.118   2.741 -0.5706 -0.0340  0.6853
 1577ntf    fn411505   3.532  -0.079   2.828 -0.2080 -0.0775 -0.1321
 1578ntf    cn111506   0.758   0.741   4.990  0.0849  0.1903 -0.3885
 1578ntf    sn211507   0.701   0.780   4.822  0.0394  0.2090 -0.3685
 1578ntf    nn311508   0.569   0.857   4.860  0.0302  0.2357 -0.4545
 1578ntf    sn211509   0.421   0.805   4.870  0.0875  0.1917  0.2005
 1578ntf    cn111510   0.343   0.843   4.711  0.3449 -0.2270 -0.0289
 1578ntf    fn411511   0.862   0.659   4.990 -0.0039  0.0761  0.0402
 1578ntf    fn411512   0.792   0.849   5.058 -0.3397 -0.1015  0.3089
 1578ntf    fn411513   0.656   0.690   5.057  0.4043  0.5305  0.3750
 1578ntf    on511514   0.805   0.869   4.777 -0.1553  0.1727 -0.8940
 1578ntf    on511515   0.696   0.651   4.758 -0.8288  0.2095 -0.3171
 1578ntf    on511516   0.335   0.881   4.957  0.0606  0.5011 -0.0923
 1578ntf    on511517   0.406   0.663   4.888 -0.4629  0.3020  0.6432
 1578ntf    fn411518   0.359   0.970   4.675  0.1239 -0.2857 -0.3382
 1578ntf    fn411519   0.408   0.775   4.618 -0.1935 -0.2910 -0.3636
 1578ntf    fn411520   0.214   0.815   4.697  0.2117 -0.0228  0.7610
 1579ntf    cn111521   4.717   1.690   5.204  0.3105 -0.4954  0.1506
 1579ntf    sn211522   4.650   1.769   5.054 -0.1352 -0.0349  0.5871
 1579ntf    nn311523   4.720   1.678   4.947  0.1089  1.0075 -0.1526
 1579ntf    sn211524   4.824   1.712   4.835  0.1257  0.2400 -0.3738
 1579ntf    cn111525   4.855   1.547   4.765  0.5576  0.1767 -0.0428
 1579ntf    fn411526   4.662   1.572   5.226 -0.3280 -0.1683  0.3668
 1579ntf    fn411527   4.846   1.665   5.191  0.4498  0.1263  0.3001
 1579ntf    fn411528   4.711   1.766   5.312  0.0280 -0.1667 -0.0940
 1579ntf    on511529   4.508   1.743   5.055 -0.2412  0.4864 -0.2270
 1579ntf    on511530   4.689   1.905   5.079  1.1899 -0.2726 -0.1132
 1579ntf    on511531   4.955   1.748   4.884 -0.0627  0.1392  0.2080
 1579ntf    on511532   4.759   1.796   4.738 -0.2588  0.6199  0.2088
 1579ntf    fn411533   4.940   1.538   4.664  0.6604 -0.4735  0.0932
 1579ntf    fn411534   4.897   1.455   4.850 -0.5330 -0.2998  0.0052
 1579ntf    fn411535   4.745   1.495   4.712  0.3298 -0.2534  0.8348
 1580ntf    cn111536   4.422   0.635   2.827 -0.4705 -0.1321 -0.3894
 1580ntf    sn211537   4.565   0.570   2.918 -0.6683 -0.1168 -0.0653
 1580ntf    nn311538   4.669   0.682   2.882 -0.2314 -0.4935  0.0061
 1580ntf    sn211539   4.824   0.667   2.901 -0.1386 -0.0392 -0.3938
 1580ntf    cn111540   4.880   0.834   2.946  0.2713 -0.2678 -0.0555
 1580ntf    fn411541   4.434   0.619   2.696  0.2931 -0.0615 -0.3328
 1580ntf    fn411542   4.304   0.584   2.861 -0.3294 -0.1464  0.0902
 1580ntf    fn411543   4.405   0.765   2.843  0.0209 -0.1189  0.0607
 1580ntf    on511544   4.521   0.551   3.054  0.3050 -0.1031  0.2560
 1580ntf    on511545   4.599   0.453   2.840  0.2847  0.2612 -0.2217
 1580ntf    on511546   4.902   0.640   2.783 -0.1399  0.4403 -0.5062
 1580ntf    on511547   4.860   0.587   3.015  0.4300  0.4351 -0.2328
 1580ntf    fn411548   4.852   0.911   2.842  0.0986 -0.2672 -0.0076
 1580ntf    fn411549   4.826   0.901   3.046  0.0635 -0.3328 -0.1238
 1580ntf    fn411550   5.011   0.832   2.963  0.3133  0.8345 -0.2065
 1581ntf    cn111551   0.401   2.563   3.547  0.2951  0.2204 -0.3481
 1581ntf    sn211552   0.336   2.726   3.499  0.4169  0.2740 -0.3330
 1581ntf    nn311553   0.311   2.789   3.641 -0.0842 -0.0911 -0.2541
 1581ntf    sn211554   0.177   2.793   3.722  0.2169  0.2556  0.2330
 1581ntf    cn111555   0.203   2.937   3.830  0.4411  0.5507 -0.2093
 1581ntf    fn411556   0.444   2.503   3.437  0.8241  0.1926 -0.1288
 1581ntf    fn411557   0.500   2.574   3.635 -0.0662 -0.0504  0.0946
 1581ntf    fn411558   0.308   2.481   3.590  0.5696  0.1038  0.0248
 1581ntf    on511559   0.447   2.785   3.430  0.2681  0.2577 -0.5882
 1581ntf    on511560   0.221   2.695   3.418  0.2897  0.2462 -0.1432
 1581ntf    on511561   0.177   2.678   3.809 -0.0801 -0.2066 -0.3657
 1581ntf    on511562   0.066   2.826   3.636  0.1704  0.5070  0.3869
 1581ntf    fn411563   0.167   3.053   3.778 -0.0620  0.5575  0.1369
 1581ntf    fn411564   0.132   2.938   3.942 -0.0690  0.2030 -0.5276
 1581ntf    fn411565   0.331   2.943   3.864  0.4200 -0.1434  0.0047
 1582ntf    cn111566   3.943   6.739   5.204  0.2806 -0.0489  0.1621
 1582ntf    sn211567   4.016   6.579   5.250  0.1072 -0.2145 -0.1365
 1582ntf    nn311568   3.976   6.552   5.399  0.0757  0.0188 -0.1025
 1582ntf    sn211569   3.851   6.469   5.445 -0.0210 -0.0067 -0.4075
 1582ntf    cn111570   3.921   6.302   5.462  0.0353  0.0377 -0.2034
 1582ntf    fn411571   3.976   6.839   5.284 -0.2751 -0.2671  0.6710
 1582ntf    fn411572   3.954   6.780   5.078 -0.2957  0.0578  0.1438
 1582ntf    fn411573   3.812   6.731   5.217  0.3466 -0.4793  0.5643
 1582ntf    on511574   3.960   6.487   5.154 -0.5392  0.2814 -0.2378
 1582ntf    on511575   4.157   6.609   5.234  0.1425 -0.2936  0.0324
 1582ntf    on511576   3.736   6.452   5.361 -0.3561  0.6516 -0.0853
 1582ntf    on511577   3.824   6.510   5.580  0.4660 -0.8695 -0.0356
 1582ntf    fn411578   3.851   6.225   5.544 -0.3237  0.2092 -0.3501
 1582ntf    fn411579   3.933   6.236   5.348  1.0312  0.3261 -0.2758
 1582ntf    fn411580   4.046   6.310   5.505  0.1137 -0.7233 -0.2655
 1583ntf    cn111581   0.074   3.666   3.422 -0.0099  0.1256  0.1866
 1583ntf    sn211582  -0.043   3.706   3.555 -0.0812  0.2120  0.0976
 1583ntf    nn311583   0.008   3.611   3.669  0.2336  0.8566  0.5014
 1583ntf    sn211584  -0.014   3.598   3.824 -0.3483  0.0269  0.3556
 1583ntf    cn111585  -0.044   3.419   3.839  0.1013 -0.1137 -0.3453
 1583ntf    fn411586   0.202   3.689   3.448  0.0246  0.4833 -0.2861
 1583ntf    fn411587   0.064   3.542   3.377  0.1050  0.0350  0.4071
 1583ntf    fn411588   0.054   3.742   3.316  0.5616 -0.3733 -0.2902
 1583ntf    on511589  -0.016   3.846   3.577  0.1845  0.2458 -0.4199
 1583ntf    on511590  -0.174   3.677   3.503 -0.1653 -0.1243  0.4882
 1583ntf    on511591  -0.142   3.644   3.873 -0.3395 -0.2548  0.6489
 1583ntf    on511592   0.103   3.611   3.907 -0.1258  0.2022  0.0180
 1583ntf    fn411593  -0.147   3.384   3.763 -0.2435 -0.9199  0.4702
 1583ntf    fn411594   0.064   3.351   3.804  0.2742 -0.0790  0.1185
 1583ntf    fn411595  -0.075   3.386   3.963 -0.1488  0.1524 -0.3369
 1584ntf    cn111596   3.911   6.607   3.074  0.1778  0.0084  0.2488
 1584ntf    sn211597   4.011   6.458   3.104  0.3051  0.1002  0.2814
 1584ntf    nn311598   3.982   6.384   2.969  0.3825  0.0016  0.3179
 1584ntf    sn211599   4.084   6.365   2.851  0.0359 -0.0617  0.0262
 1584ntf    cn111600   4.040   6.501   2.739 -0.3144 -0.1449  0.0590
 1584ntf    fn411601   3.981   6.710   3.030  0.2089 -0.1402 -0.0530
 1584ntf    fn411602   3.809   6.578   2.995 -0.1872 -0.2339  0.8037
 1584ntf    fn411603   3.854   6.649   3.185  0.1336 -0.8062  0.5363
 1584ntf    on511604   4.145   6.503   3.131  0.4131 -0.2081  0.2690
 1584ntf    on511605   3.939   6.386   3.207  0.2806 -0.4524 -0.1196
 1584ntf    on511606   4.040   6.251   2.774 -0.2537 -0.0559  0.1815
 1584ntf    on511607   4.224   6.374   2.884  0.0216  0.4534 -0.0416
 1584ntf    fn411608   4.114   6.498   2.628 -0.1699  0.1998  0.1430
 1584ntf    fn411609   3.917   6.477   2.697 -0.3359 -0.5704  0.3681
 1584ntf    fn411610   4.049   6.621   2.794 -0.1510  0.0430 -0.3692
 1585ntf    cn111611   1.069   4.542   4.278  0.0543 -0.2184  0.1200
 1585ntf    sn211612   1.131   4.442   4.139 -0.1248 -0.2017  0.0271
 1585ntf    nn311613   1.202   4.556   4.057  0.0195 -0.0415  0.3698
 1585ntf    sn211614   1.145   4.648   3.943  0.3914 -0.2233  0.0325
 1585ntf    cn111615   1.173   4.562   3.786 -0.1668 -0.5609  0.1123
 1585ntf    fn411616   1.019   4.470   4.377  0.4023 -0.3424  0.2072
 1585ntf    fn411617   1.156   4.623   4.337 -0.6436  0.7771 -0.1875
 1585ntf    fn411618   0.971   4.628   4.257  0.0529 -0.2524 -0.0153
 1585ntf    on511619   1.222   4.350   4.202 -0.0070 -0.0586  0.0653
 1585ntf    on511620   1.011   4.392   4.076 -0.2880 -0.0058  0.1795
 1585ntf    on511621   1.215   4.774   3.933 -0.4417  0.2384 -0.0701
 1585ntf    on511622   1.001   4.654   3.940  0.3696 -0.5305  0.3526
 1585ntf    fn411623   1.104   4.610   3.684  0.5032 -0.2178 -0.1919
 1585ntf    fn411624   1.303   4.564   3.759 -0.2260  0.4655 -0.1369
 1585ntf    fn411625   1.143   4.434   3.795 -0.3240 -0.4859  0.6350
 1586ntf    cn111626   0.322   4.642   3.686  0.3745  0.2148 -0.2954
 1586ntf    sn211627   0.420   4.577   3.547  0.2136 -0.1003 -0.2628
 1586ntf    nn311628   0.566   4.588   3.603  0.2058 -0.6533 -0.1302
 1586ntf    sn211629   0.657   4.716   3.606 -0.0014 -0.5050 -0.1116
 1586ntf    cn111630   0.749   4.690   3.451  0.1676 -0.5503 -0.0035
 1586ntf    fn411631   0.194   4.656   3.655  0.2431  0.1884  0.2319
 1586ntf    fn411632   0.315   4.574   3.799 -0.0030  0.1786 -0.3387
 1586ntf    fn411633   0.364   4.765   3.713  0.9071  0.0755 -0.4820
 1586ntf    on511634   0.374   4.441   3.537 -0.5492  0.1508 -0.2999
 1586ntf    on511635   0.385   4.660   3.434 -0.5496  0.2646  0.2243
 1586ntf    on511636   0.761   4.697   3.704  0.1750  0.1265 -0.1734
 1586ntf    on511637   0.602   4.849   3.598  0.3939 -0.3200  0.1681
 1586ntf    fn411638   0.812   4.575   3.438  0.4077 -0.4126 -0.0762
 1586ntf    fn411639   0.671   4.697   3.345 -0.3022  0.6584  0.4060
 1586ntf    fn411640   0.837   4.789   3.441 -0.3986  0.0260  0.6580
 1587ntf    cn111641   1.870   6.646   1.810 -0.0444  0.0114  0.2958
 1587ntf    sn211642   1.885   6.827   1.814  0.0720  0.0239 -0.4556
 1587ntf    nn311643   1.819   6.862   1.677 -0.1185  0.2698 -0.3013
 1587ntf    sn211644   1.881   6.935   1.552  0.1488  0.1029 -0.2665
 1587ntf    cn111645   1.819   7.106   1.568  0.0047  0.0672 -0.4406
 1587ntf    fn411646   1.931   6.580   1.906  0.4726 -0.1369 -0.1303
 1587ntf    fn411647   1.743   6.612   1.822 -0.0060 -0.2666 -0.0628
 1587ntf    fn411648   1.919   6.594   1.699 -0.2160  0.0425  0.2048
 1587ntf    on511649   1.802   6.860   1.927 -0.1124 -0.9175 -0.3128
 1587ntf    on511650   2.027   6.847   1.833  0.0389 -0.2075  0.0520
 1587ntf    on511651   1.808   6.883   1.440 -0.0707  0.9734 -0.5369
 1587ntf    on511652   2.025   6.944   1.548  0.1519  0.4463  0.4090
 1587ntf    fn411653   1.849   7.163   1.683  0.4494 -0.1705 -0.4336
 1587ntf    fn411654   1.868   7.195   1.483  0.6883  0.0030 -0.1255
 1587ntf    fn411655   1.687   7.113   1.561 -0.0080  0.2734 -0.0012
 1588ntf    cn111656   6.688   0.651   4.390  0.9263 -0.2519  0.1773
 1588ntf    sn211657   6.618   0.575   4.539 -0.1607  0.4105  0.0095
 1588ntf    nn311658   6.537   0.462   4.466 -0.5186  0.4070  0.4077
 1588ntf    sn211659   6.388   0.413   4.482 -0.3014 -0.3097  0.2351
 1588ntf    cn111660   6.321   0.499   4.337  0.1940  0.2928  0.3599
 1588ntf    fn411661   6.753   0.764   4.414  0.0611  0.2388  0.2339
 1588ntf    fn411662   6.778   0.580   4.324  0.7006 -0.3249 -0.0519
 1588ntf    fn411663   6.603   0.674   4.292  0.7398  0.1057  0.4183
 1588ntf    on511664   6.727   0.525   4.618 -0.3394 -0.0343 -0.0203
 1588ntf    on511665   6.536   0.683   4.590 -0.1955  0.3731  0.0330
 1588ntf    on511666   6.321   0.474   4.594 -0.1725 -0.0928  0.1941
 1588ntf    on511667   6.359   0.276   4.446  0.1526 -0.3254 -0.0844
 1588ntf    fn411668   6.343   0.629   4.343  0.2086  0.2755  0.6959
 1588ntf    fn411669   6.378   0.465   4.222 -0.3404 -0.5393  0.3358
 1588ntf    fn411670   6.191   0.473   4.331  0.1452  0.5841  0.1339
 1589ntf    cn111671   6.602   1.824   5.145  0.1959  0.1737  0.1530
 1589ntf    sn211672   6.450   1.883   5.064  0.2231  0.2436  0.1537
 1589ntf    nn311673   6.403   2.022   5.121  0.3940  0.2393  0.3057
 1589ntf    sn211674   6.459   2.163   5.082 -0.1542  0.3497 -0.0992
 1589ntf    cn111675   6.323   2.242   4.990 -0.2804 -0.0940 -0.2935
 1589ntf    fn411676   6.605   1.830   5.277  0.3723  0.0387  0.1546
 1589ntf    fn411677   6.612   1.694   5.123  0.0291  0.1690  0.0992
 1589ntf    fn411678   6.718   1.868   5.099 -0.0007  0.7475  0.1982
 1589ntf    on511679   6.477   1.890   4.922 -0.2793  0.5276  0.0700
 1589ntf    on511680   6.354   1.782   5.102  0.0372  0.2611 -0.2568
 1589ntf    on511681   6.578   2.161   5.000 -0.2577 -0.1130 -0.2367
 1589ntf    on511682   6.470   2.243   5.202  0.4690  0.0887  0.0190
 1589ntf    fn411683   6.240   2.284   5.084  0.2224 -0.2778  0.2421
 1589ntf    fn411684   6.360   2.338   4.907 -0.5431  0.1087 -0.1749
 1589ntf    fn411685   6.258   2.155   4.915  0.2203 -0.6369 -0.1036
 1590ntf    cn111686   1.975   4.589   6.270  0.3899  0.1816 -0.2183
 1590ntf    sn211687   2.129   4.652   6.345  0.3752  0.0234 -0.0577
 1590ntf    nn311688   2.228   4.630   6.225 -0.3516 -0.4877 -0.5763
 1590ntf    sn211689   2.324   4.509   6.199 -0.0383 -0.3316 -0.1593
 1590ntf    cn111690   2.349   4.525   6.019 -0.0221  0.0930 -0.1206
 1590ntf    fn411691   1.870   4.635   6.335  0.1765  0.1530 -0.5435
 1590ntf    fn411692   1.967   4.642   6.149  0.2358 -0.0114 -0.2932
 1590ntf    fn411693   1.964   4.458   6.265 -0.6225  0.2373  0.3020
 1590ntf    on511694   2.092   4.791   6.355  0.0355 -0.0466 -0.3106
 1590ntf    on511695   2.139   4.577   6.468  0.2366  0.2808  0.1119
 1590ntf    on511696   2.266   4.379   6.217  0.4217 -0.5837 -0.4653
 1590ntf    on511697   2.456   4.530   6.254  0.0571 -0.6088 -0.2816
 1590ntf    fn411698   2.379   4.406   5.971  0.5670  0.2827 -0.2260
 1590ntf    fn411699   2.230   4.555   5.969 -0.0273  0.5730  0.1709
 1590ntf    fn411700   2.432   4.621   5.981  0.3461 -0.4226 -0.6336
 1591ntf    cn111701   4.787   1.148   4.557 -0.3331 -0.2227 -0.3438
 1591ntf    sn211702   4.841   0.988   4.626 -0.0220 -0.0155 -0.1042
 1591ntf    nn311703   4.724   0.894   4.580  0.1180 -0.4414  0.4068
 1591ntf    sn211704   4.596   0.859   4.664 -0.2718 -0.1300 -0.0505
 1591ntf    cn111705   4.505   0.729   4.574 -0.2231  0.0909 -0.4200
 1591ntf    fn411706   4.679   1.193   4.617 -0.2767 -0.8128  0.2188
 1591ntf    fn411707   4.875   1.245   4.575 -0.7150 -0.0805  0.8696
 1591ntf    fn411708   4.775   1.147   4.425 -0.1433  0.2001 -0.3651
 1591ntf    on511709   4.965   0.965   4.555  0.1235 -0.2393  0.2222
 1591ntf    on511710   4.848   1.024   4.765 -0.3105 -0.2129 -0.0369
 1591ntf    on511711   4.509   0.974   4.667  0.4809  0.4418  0.1442
 1591ntf    on511712   4.629   0.791   4.787 -0.3588 -0.1738 -0.0514
 1591ntf    fn411713   4.454   0.771   4.460  0.2677  0.6121 -0.4544
 1591ntf    fn411714   4.587   0.627   4.551 -0.5561 -0.4268  0.6140
 1591ntf    fn411715   4.410   0.681   4.652 -0.2460  0.7589 -0.0267
 1592ntf    cn111716   2.794   0.608   3.682 -0.3421 -0.0475  0.1369
 1592ntf    sn211717   2.818   0.513   3.836  0.2133 -0.1480 -0.0125
 1592ntf    nn311718   2.703   0.407   3.819  0.1718 -0.1399  0.2219
 1592ntf    sn211719   2.702   0.259   3.768 -0.1184 -0.0698  0.0262
 1592ntf    cn111720   2.523   0.227   3.753 -0.0768 -0.1457 -0.3165
 1592ntf    fn411721   2.849   0.548   3.578  0.1057  0.1596  0.2552
 1592ntf    fn411722   2.668   0.639   3.653 -0.1960  0.4288  0.0153
 1592ntf    fn411723   2.858   0.723   3.685  0.0234 -0.2286 -0.6818
 1592ntf    on511724   2.952   0.463   3.821  0.3075 -0.0532  0.5055
 1592ntf    on511725   2.789   0.595   3.951  0.5168 -0.9656  0.6510
 1592ntf    on511726   2.741   0.176   3.879 -0.0370  0.3424  0.3089
 1592ntf    on511727   2.752   0.241   3.634  0.6875 -0.3068  0.3546
 1592ntf    fn411728   2.467   0.309   3.666 -0.2389  0.1932  0.1050
 1592ntf    fn411729   2.497   0.101   3.720 -0.3899  0.0456 -0.8077
 1592ntf    fn411730   2.448   0.257   3.857  0.2490  0.0560 -0.1389
 1593ntf    cn111731   3.566   1.538   1.706 -0.2191 -0.2231  0.3832
 1593ntf    sn211732   3.628   1.650   1.577  0.0497 -0.7889  0.0126
 1593ntf    nn311733   3.735   1.568   1.496  0.1362 -0.4031 -0.2677
 1593ntf    sn211734   3.839   1.617   1.389  0.1066  0.4665  0.0898
 1593ntf    cn111735   3.777   1.567   1.226 -0.3413  0.4054  0.2763
 1593ntf    fn411736   3.500   1.597   1.804 -0.2316  0.2439  0.0995
 1593ntf    fn411737   3.482   1.447   1.660 -0.4368 -0.2752  0.8818
 1593ntf    fn411738   3.666   1.477   1.768  0.2476  0.2139  0.0753
 1593ntf    on511739   3.505   1.686   1.511  0.3734  0.5764  0.1103
 1593ntf    on511740   3.700   1.757   1.643 -0.8295  0.0508 -0.3590
 1593ntf    on511741   3.965   1.550   1.409 -0.2417 -0.0913  0.4572
 1593ntf    on511742   3.842   1.760   1.374  0.3521  0.4992  0.4370
 1593ntf    fn411743   3.753   1.438   1.215  0.2223  0.3640 -0.5310
 1593ntf    fn411744   3.659   1.622   1.201 -0.5488 -0.1751 -0.0356
 1593ntf    fn411745   3.866   1.598   1.133 -0.5926  0.2030 -0.0306
 1594ntf    cn111746   4.130   2.969   2.324  0.4384  0.1765 -0.0363
 1594ntf    sn211747   4.133   3.125   2.417 -0.1307  0.1365  0.0487
 1594ntf    nn311748   4.280   3.175   2.396 -0.0193 -0.1388  0.1745
 1594ntf    sn211749   4.355   3.238   2.273 -0.0511  0.3094  0.3839
 1594ntf    cn111750   4.321   3.413   2.307 -0.2747  0.2977  0.2164
 1594ntf    fn411751   4.133   2.999   2.195  0.3676  0.3355 -0.0015
 1594ntf    fn411752   4.243   2.902   2.341 -0.0175 -0.5865  0.0272
 1594ntf    fn411753   4.023   2.894   2.346  0.7184 -0.3114 -0.3159
 1594ntf    on511754   4.031   3.203   2.350  0.2237  0.6039  0.0456
 1594ntf    on511755   4.106   3.083   2.552 -0.3382 -0.3523 -0.1432
 1594ntf    on511756   4.305   3.212   2.141 -0.1199 -0.1064  0.4923
 1594ntf    on511757   4.498   3.234   2.294  0.0677  0.1557 -0.4187
 1594ntf    fn411758   4.190   3.429   2.322 -0.3053  0.5503 -0.3008
 1594ntf    fn411759   4.394   3.458   2.407 -0.5076  0.3935  0.3460
 1594ntf    fn411760   4.353   3.491   2.205 -0.1331  0.1869  0.1774
 1595ntf    cn111761   5.335   1.273   1.471  0.5115  0.2669  0.3483
 1595ntf    sn211762   5.414   1.210   1.622  0.6699  0.1440  0.2148
 1595ntf    nn311763   5.355   1.303   1.734  0.1942 -0.1758  0.2309
 1595ntf    sn211764   5.246   1.253   1.836  0.1926 -0.0478  0.2926
 1595ntf    cn111765   5.353   1.165   1.954  0.2671  0.0002  0.2618
 1595ntf    fn411766   5.354   1.200   1.362 -0.9437  0.1013  0.1939
 1595ntf    fn411767   5.205   1.290   1.482  0.3994 -0.5461  0.3430
 1595ntf    fn411768   5.384   1.390   1.433 -0.3398  0.5251  0.0294
 1595ntf    on511769   5.378   1.071   1.627 -0.2635  0.3745  0.0531
 1595ntf    on511770   5.554   1.242   1.605  0.7743 -0.3708  0.0793
 1595ntf    on511771   5.159   1.146   1.795 -0.1269  0.2812  0.1046
 1595ntf    on511772   5.185   1.357   1.915 -0.0875  0.1606 -0.1960
 1595ntf    fn411773   5.419   1.058   1.914  0.0518 -0.0531  0.0438
 1595ntf    fn411774   5.443   1.252   1.997  0.5038 -0.1793  0.1293
 1595ntf    fn411775   5.283   1.116   2.055 -0.2701  0.0897 -0.0619
 1596ntf    cn111776   3.678   4.902   1.050 -0.1446 -0.1248 -0.2593
 1596ntf    sn211777   3.752   4.745   0.995 -0.2257 -0.2089 -0.1275
 1596ntf    nn311778   3.696   4.647   1.104 -0.3598 -0.0947 -0.0926
 1596ntf    sn211779   3.758   4.523   1.178 -0.1941  0.0206 -0.0381
 1596ntf    cn111780   3.811   4.602   1.333  0.0361  0.1522 -0.1842
 1596ntf    fn411781   3.551   4.919   1.018 -0.1972 -0.5752 -0.2961
 1596ntf    fn411782   3.694   4.903   1.181 -0.0356 -0.1435 -0.2717
 1596ntf    fn411783   3.745   5.004   0.997 -0.1441  0.0159  0.0106
 1596ntf    on511784   3.699   4.731   0.862  0.0031  0.2431 -0.2702
 1596ntf    on511785   3.895   4.765   1.002 -0.2132 -0.3561  0.0474
 1596ntf    on511786   3.875   4.462   1.120 -0.4014 -0.3868 -0.0335
 1596ntf    on511787   3.657   4.425   1.211  0.0973 -0.2466  0.0619
 1596ntf    fn411788   3.915   4.683   1.317 -0.2061  0.4526 -0.2507
 1596ntf    fn411789   3.721   4.679   1.391 -0.0199  0.2374 -0.3856
 1596ntf    fn411790   3.864   4.511   1.414  0.1413  0.2415 -0.1515
 1597ntf    cn111791   2.614   2.613   4.023 -0.1349 -0.2074 -0.5087
 1597ntf    sn211792   2.787   2.562   4.047 -0.0179  0.3697 -0.1264
 1597ntf    nn311793   2.787   2.422   3.977  1.0096  0.1989  0.1944
 1597ntf    sn211794   2.818   2.404   3.824  0.2012 -0.0654  0.0550
 1597ntf    cn111795   2.984   2.478   3.814  0.1189  0.1560  0.3341
 1597ntf    fn411796   2.524   2.567   4.109  0.0557 -0.0233 -0.2101
 1597ntf    fn411797   2.620   2.744   4.036 -0.2384 -0.2218 -0.3220
 1597ntf    fn411798   2.557   2.589   3.906 -0.5039 -0.0158 -0.3681
 1597ntf    on511799   2.863   2.670   3.989 -0.1866  0.3990 -0.2919
 1597ntf    on511800   2.793   2.536   4.189  0.1495  0.2570 -0.1535
 1597ntf    on511801   2.743   2.481   3.728  0.4698 -0.3353 -0.3749
 1597ntf    on511802   2.839   2.264   3.796  0.8012  0.1365 -0.5337
 1597ntf    fn411803   3.063   2.415   3.730  0.0609 -0.0970  0.4696
 1597ntf    fn411804   2.974   2.600   3.763  0.5257  0.0095 -0.0986
 1597ntf    fn411805   3.047   2.496   3.929  0.4233 -0.5291  0.2747
 1598ntf    cn111806   4.295   5.473   1.587 -0.1587 -0.1209 -0.5176
 1598ntf    sn211807   4.395   5.328   1.541  0.0879 -0.1541  0.1114
 1598ntf    nn311808   4.531   5.399   1.510 -0.2147  0.3784 -0.0233
 1598ntf    sn211809   4.671   5.359   1.569 -0.3905  0.0121  0.1500
 1598ntf    cn111810   4.660   5.424   1.738  0.1116  0.5398 -0.0192
 1598ntf    fn411811   4.280   5.464   1.718  0.0024 -0.5217 -0.5251
 1598ntf    fn411812   4.354   5.590   1.564 -0.1814 -0.0323 -0.1243
 1598ntf    fn411813   4.171   5.479   1.541 -0.3564 -0.0254  0.0311
 1598ntf    on511814   4.391   5.245   1.658 -0.5222  0.1105  0.2819
 1598ntf    on511815   4.328   5.284   1.421  0.4943  0.0677 -0.1992
 1598ntf    on511816   4.771   5.439   1.502  0.0109 -0.5049  0.1242
 1598ntf    on511817   4.707   5.220   1.585 -0.6326 -0.1099 -0.3184
 1598ntf    fn411818   4.775   5.399   1.797  0.4594  0.1918 -0.8270
 1598ntf    fn411819   4.644   5.556   1.743 -0.0668  0.5095  0.2340
 1598ntf    fn411820   4.565   5.365   1.808  0.2864  0.3443  0.0527
 1599ntf    cn111821   2.589   1.261   3.778 -0.4249  0.2161  0.1286
 1599ntf    sn211822   2.669   1.402   3.861  0.2937 -0.1378  0.0477
 1599ntf    nn311823   2.785   1.418   3.757  0.3513 -0.0855  0.1198
 1599ntf    sn211824   2.859   1.553   3.729 -0.0010 -0.0016 -0.4109
 1599ntf    cn111825   3.021   1.524   3.806 -0.1586 -0.3673 -0.2179
 1599ntf    fn411826   2.514   1.199   3.867 -0.0473 -0.4185  0.0062
 1599ntf    fn411827   2.513   1.303   3.678 -0.2077 -0.1855 -0.2084
 1599ntf    fn411828   2.674   1.174   3.726 -0.4065  0.1809  0.2185
 1599ntf    on511829   2.554   1.489   3.863  0.3470 -0.0649 -0.1044
 1599ntf    on511830   2.721   1.338   3.979 -0.0686  0.2503  0.4232
 1599ntf    on511831   2.809   1.669   3.799 -0.5475 -0.3516 -0.2127
 1599ntf    on511832   2.875   1.575   3.587 -0.0538  0.0788 -0.4046
 1599ntf    fn411833   3.091   1.441   3.732  0.3105  0.0339 -0.2278
 1599ntf    fn411834   3.096   1.633   3.810 -1.2679  0.4002  0.1893
 1599ntf    fn411835   3.017   1.475   3.929 -0.5771 -0.0221 -0.0896
 1600ntf    cn111836   0.230   3.465   6.295  0.5134 -0.0321 -0.1786
 1600ntf    sn211837   0.378   3.453   6.399  0.0219  0.0838  0.5443
 1600ntf    nn311838   0.445   3.587   6.351 -0.4354  0.2171  0.2697
 1600ntf    sn211839   0.534   3.692   6.426  0.0587  0.1059 -0.1569
 1600ntf    cn111840   0.401   3.799   6.486 -0.2536 -0.1892 -0.3217
 1600ntf    fn411841   0.139   3.371   6.315  0.0967  0.3583 -0.2110
 1600ntf    fn411842   0.169   3.581   6.313  0.4076 -0.1007 -0.0915
 1600ntf    fn411843   0.249   3.463   6.164 -1.0766 -0.1240 -0.4272
 1600ntf    on511844   0.326   3.461   6.534  0.0415 -0.3533  0.5775
 1600ntf    on511845   0.449   3.334   6.359  0.0877  0.4063 -0.3006
 1600ntf    on511846   0.610   3.771   6.332  0.0439 -0.0554 -0.3058
 1600ntf    on511847   0.608   3.634   6.535  0.5666  0.2649 -0.4129
 1600ntf    fn411848   0.315   3.820   6.387 -0.3575  0.1044 -0.1721
 1600ntf    fn411849   0.331   3.740   6.581 -0.2880  0.4077  0.0304
 1600ntf    fn411850   0.444   3.917   6.529 -0.1154 -0.1992 -0.4346
 1601ntf    cn111851   3.790   2.570   1.255  0.3114 -0.0674 -0.1977
 1601ntf    sn211852   3.666   2.437   1.258  0.0007  0.2286  0.0713
 1601ntf    nn311853   3.590   2.475   1.126  0.3786  0.0065 -0.2114
 1601ntf    sn211854   3.611   2.429   0.977 -0.1759 -0.4133 -0.1630
 1601ntf    cn111855   3.456   2.337   0.951 -0.4042 -0.0867  0.0281
 1601ntf    fn411856   3.901   2.545   1.323  0.4709  0.8398 -0.1153
 1601ntf    fn411857   3.833   2.586   1.131 -0.0228 -0.2387 -0.3367
 1601ntf    fn411858   3.740   2.688   1.288  0.2376 -0.0237 -0.4658
 1601ntf    on511859   3.727   2.308   1.243  0.4933  0.4849 -0.1422
 1601ntf    on511860   3.581   2.465   1.371 -0.2986 -0.3934  0.0033
 1601ntf    on511861   3.711   2.332   0.943  0.5700  0.0930  0.5393
 1601ntf    on511862   3.604   2.544   0.891 -0.0401 -0.1367  0.1933
 1601ntf    fn411863   3.451   2.233   1.032  0.3335  0.0174  0.2117
 1601ntf    fn411864   3.350   2.413   0.973  0.1218  0.7466 -0.2347
 1601ntf    fn411865   3.445   2.282   0.831 -0.2054  0.5406 -0.2828
 1602ntf    cn111866   2.922   6.116   3.703  0.0357  0.0257 -0.1881
 1602ntf    sn211867   2.957   6.234   3.569 -0.1620  0.0937 -0.1795
 1602ntf    nn311868   3.051   6.339   3.638 -0.0364 -0.3418  0.3215
 1602ntf    sn211869   3.009   6.444   3.748 -0.2496  0.0371 -0.1195
 1602ntf    cn111870   3.157   6.423   3.850 -0.1661  0.2011 -0.2066
 1602ntf    fn411871   2.897   5.995   3.657  0.1452 -0.2425  0.4464
 1602ntf    fn411872   3.025   6.103   3.785  0.3489  0.0180 -0.5838
 1602ntf    fn411873   2.819   6.156   3.776 -0.2966 -0.0574 -0.6103
 1602ntf    on511874   3.030   6.163   3.467 -0.0339 -0.4370  0.2758
 1602ntf    on511875   2.829   6.290   3.532 -0.5269 -0.3216  0.4357
 1602ntf    on511876   2.894   6.414   3.829  0.0026 -0.1260  0.1797
 1602ntf    on511877   3.014   6.580   3.699 -0.3049  0.0364 -0.1278
 1602ntf    fn411878   3.262   6.459   3.778  0.0442  0.8677  0.4158
 1602ntf    fn411879   3.159   6.487   3.966  0.5401 -0.2277  0.0235
 1602ntf    fn411880   3.175   6.298   3.888 -0.1756  0.3724  0.3721
 1603ntf    cn111881   5.889   0.692   1.154  0.3083  0.0743  0.5044
 1603ntf    sn211882   5.997   0.686   1.008  0.0029 -0.0333  0.2825
 1603ntf    nn311883   6.144   0.687   1.063 -0.1214 -0.1860  0.6184
 1603ntf    sn211884   6.248   0.572   1.090  0.1023 -0.0635  0.2880
 1603ntf    cn111885   6.344   0.593   0.937 -0.2454 -0.0537  0.0707
 1603ntf    fn411886   5.763   0.694   1.115  0.5898  0.2847 -0.4132
 1603ntf    fn411887   5.891   0.587   1.234 -0.3894 -0.6843 -0.4552
 1603ntf    fn411888   5.901   0.803   1.225  0.0576  0.0414  0.5985
 1603ntf    on511889   5.966   0.567   0.933  0.0842  0.1063  0.0251
 1603ntf    on511890   5.961   0.810   0.943 -0.6787 -0.3104  0.1285
 1603ntf    on511891   6.200   0.437   1.078  0.2233 -0.0803 -0.0077
 1603ntf    on511892   6.346   0.605   1.191  0.3145  0.0201  0.0553
 1603ntf    fn411893   6.271   0.578   0.828 -0.5165  0.1039  0.2288
 1603ntf    fn411894   6.393   0.716   0.932 -0.0020 -0.1693 -0.4058
 1603ntf    fn411895   6.449   0.514   0.927 -0.1547  0.0695  0.0497
 1604ntf    cn111896   0.391   1.927   4.995  0.2292  0.0201  0.1206
 1604ntf    sn211897   0.269   1.794   4.970  0.2377  0.0729 -0.2041
 1604ntf    nn311898   0.155   1.879   4.904  0.2316  0.4224  0.2499
 1604ntf    sn211899   0.135   1.948   4.765  0.0189 -0.0216  0.0575
 1604ntf    cn111900   0.042   1.820   4.675  0.1715 -0.3112  0.3141
 1604ntf    fn411901   0.465   1.950   4.889 -0.2798 -0.5531 -0.3685
 1604ntf    fn411902   0.326   2.039   5.023 -0.0838 -0.0269 -0.4157
 1604ntf    fn411903   0.467   1.899   5.100  0.0789  0.3766  0.3254
 1604ntf    on511904   0.334   1.706   4.877  0.6842  0.3910 -0.1962
 1604ntf    on511905   0.225   1.745   5.099  0.3626 -0.3955 -0.3364
 1604ntf    on511906   0.259   1.951   4.690  0.1219  0.1619  0.2362
 1604ntf    on511907   0.048   2.063   4.765  0.0753  0.0276 -0.4484
 1604ntf    fn411908  -0.063   1.860   4.605  0.0628 -0.6098  0.3037
 1604ntf    fn411909   0.121   1.749   4.596 -0.2007 -0.0200 -0.3237
 1604ntf    fn411910   0.006   1.727   4.763 -0.0534 -0.7169 -0.2025
 1605ntf    cn111911   1.958   1.548   1.671 -0.0141  0.4833 -0.3936
 1605ntf    sn211912   1.819   1.431   1.687  0.2464  0.2279 -0.0011
 1605ntf    nn311913   1.745   1.507   1.802 -0.2005  0.0780 -0.1899
 1605ntf    sn211914   1.763   1.489   1.957  0.1342 -0.1843 -0.2610
 1605ntf    cn111915   1.630   1.600   2.010  0.0689 -0.2224 -0.3441
 1605ntf    fn411916   2.038   1.503   1.576  0.2730 -0.3389  0.2239
 1605ntf    fn411917   1.916   1.668   1.634 -0.1788  0.1122 -1.4458
 1605ntf    fn411918   2.026   1.554   1.784  0.1053  0.0909 -0.4438
 1605ntf    on511919   1.747   1.439   1.563 -0.1481 -0.7254  0.1529
 1605ntf    on511920   1.882   1.305   1.719 -0.1826  0.1385  0.5132
 1605ntf    on511921   1.878   1.551   2.019 -0.3106 -0.1305  0.5149
 1605ntf    on511922   1.719   1.359   2.002 -0.5597  0.0824 -0.1666
 1605ntf    fn411923   1.654   1.729   1.990  0.3251 -0.2273 -0.0827
 1605ntf    fn411924   1.526   1.566   1.936 -0.2846 -0.0893  0.0845
 1605ntf    fn411925   1.598   1.581   2.137 -0.3581  0.2468 -0.3801
 1606ntf    cn111926   2.234   0.133   3.977 -0.1414 -0.3052  0.1721
 1606ntf    sn211927   2.087   0.104   3.874 -0.0044 -0.0115 -0.1104
 1606ntf    nn311928   2.043  -0.045   3.897  0.0302 -0.0340 -0.1891
 1606ntf    sn211929   2.043  -0.160   3.790  0.0439 -0.0457 -0.1765
 1606ntf    cn111930   1.877  -0.135   3.719 -0.3593  0.2178  0.8468
 1606ntf    fn411931   2.334   0.060   3.930 -0.0522 -0.1045  0.0451
 1606ntf    fn411932   2.271   0.260   3.973  0.3715 -0.4538  0.1303
 1606ntf    fn411933   2.227   0.108   4.106  0.1571  0.2355  0.2954
 1606ntf    on511934   1.993   0.196   3.933 -0.0909 -0.1049 -0.1031
 1606ntf    on511935   2.135   0.132   3.741  0.4491 -0.5337 -0.0597
 1606ntf    on511936   2.037  -0.285   3.860  0.0340  0.1145  0.1123
 1606ntf    on511937   2.134  -0.156   3.678  0.2079  0.1678 -0.0382
 1606ntf    fn411938   1.784  -0.200   3.788 -0.4782  0.0877  0.5641
 1606ntf    fn411939   1.829  -0.012   3.726 -0.2811  0.2905  0.1070
 1606ntf    fn411940   1.873  -0.175   3.593 -0.0912  0.2106  0.8406
 1607ntf    cn111941   2.199   1.595   6.528  0.1955 -0.2069 -0.0437
 1607ntf    sn211942   2.294   1.650   6.383  0.0409 -0.4806 -0.2517
 1607ntf    nn311943   2.429   1.584   6.430 -0.0635  0.0587  0.8491
 1607ntf    sn211944   2.508   1.459   6.378 -0.4382 -0.0562  0.5535
 1607ntf    cn111945   2.635   1.520   6.264 -0.4195 -0.1865  0.5040
 1607ntf    fn411946   2.098   1.678   6.549  0.5230  0.1061  0.2962
 1607ntf    fn411947   2.150   1.472   6.525 -0.6692  0.1359 -0.2058
 1607ntf    fn411948   2.265   1.600   6.642  0.4214  0.5545 -0.2036
 1607ntf    on511949   2.234   1.590   6.267 -0.0232 -0.2078 -0.3609
 1607ntf    on511950   2.290   1.794   6.398 -0.0698 -0.4839 -0.2504
 1607ntf    on511951   2.432   1.373   6.290  0.3789 -0.0836 -0.1374
 1607ntf    on511952   2.592   1.393   6.475  0.0513 -0.2648 -0.0052
 1607ntf    fn411953   2.584   1.587   6.162 -0.2001 -0.3684  0.2742
 1607ntf    fn411954   2.725   1.591   6.329 -0.1245  0.0872 -0.1895
 1607ntf    fn411955   2.713   1.426   6.213 -0.5489 -0.1170  0.1742
 1608ntf    cn111956   2.379   2.946   5.672 -0.1706  0.1281  0.3141
 1608ntf    sn211957   2.445   2.801   5.759 -0.2456 -0.1203 -0.0424
 1608ntf    nn311958   2.535   2.871   5.867 -0.3042  0.0003 -0.0718
 1608ntf    sn211959   2.591   2.824   6.005 -0.1114 -0.4439 -0.3001
 1608ntf    cn111960   2.761   2.809   5.941 -0.0259  0.2441 -0.2428
 1608ntf    fn411961   2.248   2.937   5.661 -0.1457 -0.2857  0.3422
 1608ntf    fn411962   2.398   3.051   5.750  0.6871  0.3782 -0.2165
 1608ntf    fn411963   2.441   2.976   5.559  0.2065  0.5555  0.6293
 1608ntf    on511964   2.331   2.737   5.820 -0.2618  0.6293  0.7287
 1608ntf    on511965   2.519   2.727   5.659 -0.0016 -0.3269  0.2906
 1608ntf    on511966   2.559   2.691   6.051 -0.2645 -0.4608 -0.4568
 1608ntf    on511967   2.602   2.927   6.105 -0.0482  0.1488 -0.9166
 1608ntf    fn411968   2.805   2.908   5.866  0.6133  0.1738  0.0309
 1608ntf    fn411969   2.845   2.792   6.041 -0.2259 -0.0865 -0.1252
 1608ntf    fn411970   2.776   2.701   5.866 -0.3501 -0.4804  0.7035
 1609ntf    cn111971   5.928   0.244   5.796 -0.2453  0.2514  0.0693
 1609ntf    sn211972   5.886   0.379   5.911  0.0722  0.2601  0.1744
 1609ntf    nn311973   6.028   0.444   5.924 -0.0070  0.4634  0.0100
 1609ntf    sn211974   6.135   0.443   6.039 -0.5991  0.1930  0.5613
 1609ntf    cn111975   6.103   0.587   6.146  0.1184  0.5780  0.2661
 1609ntf    fn411976   6.042   0.183   5.822 -0.5036 -0.1750  0.2133
 1609ntf    fn411977   5.840   0.145   5.797  0.3318 -0.2624  0.0663
 1609ntf    fn411978   5.929   0.296   5.675 -0.0808  0.2244  0.0595
 1609ntf    on511979   5.799   0.466   5.837 -0.0592 -0.1313 -0.1319
 1609ntf    on511980   5.821   0.302   6.015 -0.5318  0.1307 -0.2962
 1609ntf    on511981   6.263   0.474   5.980 -0.8004  0.2296  0.1444
 1609ntf    on511982   6.128   0.334   6.133 -0.0202 -0.1933  0.1604
 1609ntf    fn411983   5.975   0.600   6.175  0.0096  0.2061 -0.0477
 1609ntf    fn411984   6.163   0.580   6.264  0.0896  0.1871  0.2616
 1609ntf    fn411985   6.141   0.701   6.092 -0.1722  0.8078  0.5459
 1610ntf    cn111986   2.164   6.077   5.371  0.0824  0.1533 -0.1369
 1610ntf    sn211987   2.220   5.992   5.220  0.1375  0.1469 -0.1132
 1610ntf    nn311988   2.303   6.104   5.148 -0.2759  0.4964 -0.0503
 1610ntf    sn211989   2.457   6.134   5.152 -0.2715  0.4707 -0.0251
 1610ntf    cn111990   2.506   6.072   4.988 -0.4364 -0.3454  0.2285
 1610ntf    fn411991   2.251   6.151   5.439  0.4374 -0.4962  0.1253
 1610ntf    fn411992   2.062   6.156   5.341  0.0016 -0.0617 -0.4330
 1610ntf    fn411993   2.119   5.991   5.462 -0.3649  0.3401 -0.1795
 1610ntf    on511994   2.303   5.886   5.271  0.3049  0.4323  0.2167
 1610ntf    on511995   2.096   5.973   5.150  0.0890  0.6837 -0.1796
 1610ntf    on511996   2.530   6.056   5.250 -0.0840  0.3468 -0.2610
 1610ntf    on511997   2.484   6.275   5.151  0.6165  0.3098 -0.0651
 1610ntf    fn411998   2.426   6.131   4.901 -0.0389 -0.2377 -0.0620
 1610ntf    fn411999   2.630   6.096   4.951 -0.4605 -0.1903  0.2495
 1610ntf    fn412000   2.484   5.942   4.979 -0.0776 -0.3713 -0.2879
 1611ntf    cn112001   6.533   5.592   0.502 -0.2926 -0.1175 -0.1774
 1611ntf    sn212002   6.680   5.634   0.402 -0.2690 -0.0438 -0.1133
 1611ntf    nn312003   6.615   5.685   0.269 -0.1673  0.0659 -0.1211
 1611ntf    sn212004   6.684   5.758   0.149  0.2675  0.1170  0.1581
 1611ntf    cn112005   6.630   5.931   0.165 -0.1734  0.0080 -0.1243
 1611ntf    fn412006   6.571   5.555   0.623 -0.7707 -0.8309 -0.2413
 1611ntf    fn412007   6.453   5.695   0.523 -0.4032 -0.3007  0.3140
 1611ntf    fn412008   6.480   5.486   0.444  0.4526 -0.4714 -0.2204
 1611ntf    on512009   6.742   5.746   0.468  0.7995 -0.5895 -0.1776
 1611ntf    on512010   6.761   5.515   0.388  0.0940  0.2009 -0.1023
 1611ntf    on512011   6.630   5.722   0.020 -0.2728 -0.0827  0.4385
 1611ntf    on512012   6.827   5.774   0.161  0.2970  0.3188 -0.3931
 1611ntf    fn412013   6.606   5.984   0.046 -0.1548  0.1094 -0.0838
 1611ntf    fn412014   6.512   5.939   0.225  0.0834  0.3858  0.3357
 1611ntf    fn412015   6.718   6.003   0.233  0.3113 -0.2312 -0.4999
 1612ntf    cn112016   4.185   2.448   0.330  0.1166  0.0206 -0.2480
 1612ntf    sn212017   4.171   2.328   0.467  0.3878  0.0203 -0.2199
 1612ntf    nn312018   4.079   2.216   0.405 -0.2134  0.4647 -0.1439
 1612ntf    sn212019   4.120   2.090   0.321  0.2106  0.2854  0.3309
 1612ntf    cn112020   3.988   2.089   0.196  0.2756 -0.4197  0.2612
 1612ntf    fn412021   4.264   2.543   0.377 -0.3079  0.2025  0.1111
 1612ntf    fn412022   4.232   2.391   0.220 -0.3131 -0.1501 -0.3464
 1612ntf    fn412023   4.073   2.508   0.295 -0.1131 -0.1476  0.1833
 1612ntf    on512024   4.309   2.295   0.489  0.5348  0.4210 -0.5413
 1612ntf    on512025   4.107   2.402   0.573  0.7791 -0.5086  0.3906
 1612ntf    on512026   4.086   1.967   0.389 -0.1404  0.0204 -0.3193
 1612ntf    on512027   4.237   2.098   0.237 -0.4498 -0.6309 -0.7034
 1612ntf    fn412028   4.006   2.195   0.118 -0.1663  0.0592  0.7968
 1612ntf    fn412029   3.988   1.981   0.120 -0.1682 -0.1413 -0.1378
 1612ntf    fn412030   3.865   2.107   0.241  0.0086 -0.5012 -0.4303
 1613ntf    cn112031   6.656   6.265   3.929  0.1640  0.1142  0.0742
 1613ntf    sn212032   6.817   6.290   4.011 -0.0065  0.4135  0.3207
 1613ntf    nn312033   6.901   6.342   3.889  0.2710 -0.3202  0.1937
 1613ntf    sn212034   6.985   6.261   3.784  0.2931 -0.1622  0.0889
 1613ntf    cn112035   7.155   6.299   3.835  0.2798  0.3847 -0.2733
 1613ntf    fn412036   6.670   6.186   3.825 -0.2747 -0.2545  0.2928
 1613ntf    fn412037   6.567   6.204   4.006  0.0782  0.1678  0.0168
 1613ntf    fn412038   6.599   6.378   3.892 -0.4999 -0.0911  0.4575
 1613ntf    on512039   6.793   6.390   4.112  0.0281  0.2645  0.4772
 1613ntf    on512040   6.847   6.161   4.067 -0.3977  0.0644 -0.2575
 1613ntf    on512041   6.972   6.330   3.659 -0.2925  0.0654  0.2716
 1613ntf    on512042   6.977   6.117   3.784  0.1647 -0.1566  0.4262
 1613ntf    fn412043   7.170   6.260   3.961  0.7450 -0.1645 -0.4924
 1613ntf    fn412044   7.247   6.239   3.761  0.2133 -0.1436  0.0679
 1613ntf    fn412045   7.179   6.429   3.833 -0.2136  0.5019  0.7731
 1614ntf    cn112046   3.226   5.774   0.937  0.1733  0.2332  0.3074
 1614ntf    sn212047   3.353   5.730   0.816 -0.3371 -0.1173 -0.1057
 1614ntf    nn312048   3.361   5.870   0.744 -0.5182 -0.2346 -0.3549
 1614ntf    sn212049   3.411   5.899   0.598 -0.1589 -0.0199 -0.1902
 1614ntf    cn112050   3.258   5.931   0.505 -0.1855  0.0787 -0.1135
 1614ntf    fn412051   3.200   5.668   1.011  0.9027 -0.1925 -0.0377
 1614ntf    fn412052   3.239   5.876   1.021  0.2022  0.0423  0.5360
 1614ntf    fn412053   3.113   5.796   0.872  0.3403  0.0215 -0.0536
 1614ntf    on512054   3.472   5.694   0.888  0.1029 -0.1685 -0.8399
 1614ntf    on512055   3.297   5.625   0.734 -0.6259  0.3091 -0.4608
 1614ntf    on512056   3.479   5.793   0.528 -0.4697 -0.1203 -0.3441
 1614ntf    on512057   3.473   6.029   0.592  0.1399 -0.1824 -0.6568
 1614ntf    fn412058   3.234   6.061   0.497  0.4180  0.2271  0.4845
 1614ntf    fn412059   3.264   5.884   0.381 -0.7156  0.3482 -0.2450
 1614ntf    fn412060   3.154   5.871   0.561  0.3005 -0.4236  0.2580
 1615ntf    cn112061   1.810   5.971   0.580  0.1643 -0.0012 -0.0287
 1615ntf    sn212062   1.829   5.878   0.736 -0.0193 -0.1862 -0.1170
 1615ntf    nn312063   1.972   5.928   0.776  0.0361 -0.1927 -0.3039
 1615ntf    sn212064   2.103   5.844   0.794  0.0925  0.0475  0.4213
 1615ntf    cn112065   2.189   5.912   0.649 -0.0187 -0.2234  0.2285
 1615ntf    fn412066   1.700   5.940   0.514  0.2813  0.3277 -0.3796
 1615ntf    fn412067   1.819   6.102   0.592  0.2937  0.0049 -0.1800
 1615ntf    fn412068   1.910   5.942   0.498 -0.1188 -0.1693 -0.3171
 1615ntf    on512069   1.715   5.921   0.812  0.0421  0.1845 -0.2309
 1615ntf    on512070   1.817   5.739   0.699  0.1454 -0.2670  0.1317
 1615ntf    on512071   2.105   5.702   0.768  0.0028  0.0099  0.6197
 1615ntf    on512072   2.187   5.894   0.901 -0.2819  1.5512  0.0314
 1615ntf    fn412073   2.321   5.904   0.659  0.0950  0.1992 -0.8050
 1615ntf    fn412074   2.142   5.857   0.539 -1.1810  0.3313  0.4345
 1615ntf    fn412075   2.165   6.042   0.643 -0.1373 -0.2536  0.0530
 1616ntf    cn112076   2.321   2.877   6.641  0.0523  0.1458  0.0676
 1616ntf    sn212077   2.211   3.020   6.617 -0.2056 -0.0701 -0.0383
 1616ntf    nn312078   2.237   3.049   6.465  0.2104 -0.3962 -0.0299
 1616ntf    sn212079   2.134   3.082   6.351  0.1243  0.0709  0.1841
 1616ntf    cn112080   2.142   3.263   6.365 -0.1674  0.1164 -0.2282
 1616ntf    fn412081   2.273   2.767   6.585 -0.4258  0.4653 -0.1561
 1616ntf    fn412082   2.444   2.902   6.602  0.0866  0.2755  0.2548
 1616ntf    fn412083   2.326   2.852   6.771  0.0104 -0.0772  0.0278
 1616ntf    on512084   2.076   2.986   6.655 -0.3903  0.0856 -0.5485
 1616ntf    on512085   2.260   3.131   6.694 -0.0491  0.0906 -0.3659
 1616ntf    on512086   1.999   3.038   6.379  0.1465 -0.2194 -0.1654
 1616ntf    on512087   2.176   3.061   6.215 -0.6272  0.0456 -0.0469
 1616ntf    fn412088   2.148   3.304   6.491  0.5108  0.1966 -0.2872
 1616ntf    fn412089   2.253   3.315   6.316  0.5285 -0.5992  0.5660
 1616ntf    fn412090   2.041   3.325   6.305  0.1900  0.7630 -0.1632
 1617ntf    cn112091   4.087   5.188   6.520 -0.5046  0.0348 -0.4705
 1617ntf    sn212092   4.268   5.190   6.543 -0.5607 -0.1170 -0.0120
 1617ntf    nn312093   4.297   5.288   6.424 -0.5517  0.0311  0.1121
 1617ntf    sn212094   4.339   5.250   6.278 -0.2221 -0.3048  0.2932
 1617ntf    cn112095   4.520   5.236   6.288 -0.1329  0.4576 -0.1864
 1617ntf    fn412096   4.022   5.088   6.577 -0.1622  0.0986  0.0377
 1617ntf    fn412097   4.032   5.296   6.573 -0.2838  0.2655 -0.7068
 1617ntf    fn412098   4.053   5.166   6.394 -0.2554  0.5651 -0.6324
 1617ntf    on512099   4.293   5.253   6.670  0.5307  0.2041 -0.3811
 1617ntf    on512100   4.320   5.059   6.514  0.3927  0.2303  0.1230
 1617ntf    on512101   4.307   5.366   6.199  1.2441 -0.1003 -0.0290
 1617ntf    on512102   4.304   5.119   6.229  0.0860 -0.3860  0.2852
 1617ntf    fn412103   4.572   5.144   6.368 -0.2209  0.4449 -0.1441
 1617ntf    fn412104   4.566   5.206   6.167 -0.3906  0.0314 -0.1811
 1617ntf    fn412105   4.577   5.349   6.324  0.1680  0.1002  0.4733
 1618ntf    cn112106   0.648   3.114   1.188  0.3754  0.0157 -0.2495
 1618ntf    sn212107   0.545   3.164   1.329  0.3967  0.1108 -0.2681
 1618ntf    nn312108   0.413   3.099   1.276  0.1104  0.0277  0.5437
 1618ntf    sn212109   0.284   3.177   1.233  0.1008  0.0208  0.5598
 1618ntf    cn112110   0.176   3.038   1.189  0.0283  0.2107  0.1308
 1618ntf    fn412111   0.769   3.168   1.192  0.3481  0.0808 -0.3050
 1618ntf    fn412112   0.677   2.985   1.192  0.1229 -0.0459 -0.3624
 1618ntf    fn412113   0.607   3.151   1.068  0.0868 -0.1558 -0.2047
 1618ntf    on512114   0.604   3.100   1.444 -0.2021 -0.1651 -0.1134
 1618ntf    on512115   0.548   3.308   1.325 -0.0670  0.1326  0.0897
 1618ntf    on512116   0.289   3.250   1.109  0.4736 -0.8429  0.0552
 1618ntf    on512117   0.213   3.245   1.339 -0.3666  0.2168  0.1287
 1618ntf    fn412118   0.049   3.070   1.167  0.0802  0.3121 -0.0186
 1618ntf    fn412119   0.215   2.977   1.078 -0.4064  0.0525  0.0617
 1618ntf    fn412120   0.170   2.942   1.280  0.1245 -0.1199 -0.2081
 1619ntf    cn112121   0.403   4.552   0.920 -0.1019  0.2384 -0.2075
 1619ntf    sn212122   0.508   4.635   1.044 -0.1691  0.0128  0.0007
 1619ntf    nn312123   0.452   4.781   1.043 -0.3788 -0.0570  0.8210
 1619ntf    sn212124   0.312   4.844   1.076 -0.5609  0.0883 -0.1898
 1619ntf    cn112125   0.253   4.905   0.915 -0.3357  0.5502 -0.0986
 1619ntf    fn412126   0.281   4.518   0.957  0.0639  0.3721  0.4866
 1619ntf    fn412127   0.395   4.620   0.807 -0.2880 -0.5122 -0.6519
 1619ntf    fn412128   0.452   4.433   0.888 -0.1619  0.1915 -0.1269
 1619ntf    on512129   0.496   4.568   1.171 -0.2165 -0.8346 -0.4425
 1619ntf    on512130   0.637   4.629   0.979  0.3618 -0.1754  1.0502
 1619ntf    on512131   0.323   4.961   1.160  0.8018 -0.6533  0.6880
 1619ntf    on512132   0.209   4.752   1.119 -0.2543 -0.1586  0.0232
 1619ntf    fn412133   0.138   4.970   0.914 -0.3897  0.4553 -0.1146
 1619ntf    fn412134   0.339   4.994   0.870 -0.0382  0.4608  0.2858
 1619ntf    fn412135   0.249   4.812   0.821 -0.2123  0.5714 -0.1253
 1620ntf    cn112136   3.792   3.135   3.345 -0.1550  0.0210  0.1063
 1620ntf    sn212137   3.646   3.239   3.312 -0.1597  0.0845  0.3261
 1620ntf    nn312138   3.528   3.136   3.319  0.1005 -0.2314  0.1374
 1620ntf    sn212139   3.464   3.060   3.198  0.0401 -0.1210  0.0995
 1620ntf    cn112140   3.289   3.110   3.199  0.0350 -0.1246 -0.2697
 1620ntf    fn412141   3.839   3.077   3.235 -0.4108 -0.0123  0.0126
 1620ntf    fn412142   3.890   3.204   3.401  0.0069  0.1385 -0.3136
 1620ntf    fn412143   3.762   3.038   3.430 -0.4599  0.2379  0.2447
 1620ntf    on512144   3.643   3.317   3.433  0.0450  0.0836  0.3326
 1620ntf    on512145   3.666   3.300   3.183  0.3947 -0.4222  0.1684
 1620ntf    on512146   3.461   2.917   3.222  1.0291 -0.1813 -0.1211
 1620ntf    on512147   3.492   3.097   3.061  0.0921  0.0033  0.1441
 1620ntf    fn412148   3.276   3.242   3.200 -0.0197 -0.1304 -0.2041
 1620ntf    fn412149   3.221   3.065   3.095 -0.1781  0.2037 -0.2726
 1620ntf    fn412150   3.222   3.067   3.305  0.7852 -0.5823  0.0306
 1621ntf    cn112151   0.057   5.443   5.294 -0.1054 -0.1749  0.0875
 1621ntf    sn212152   0.020   5.453   5.117 -0.1585  0.2295  0.1195
 1621ntf    nn312153   0.088   5.325   5.054 -0.2228 -0.0301  0.5767
 1621ntf    sn212154   0.024   5.188   5.014 -0.1495  0.0277  0.2574
 1621ntf    cn112155   0.146   5.137   4.890 -0.1404  0.4047  0.1111
 1621ntf    fn412156   0.186   5.431   5.321 -0.0493  1.0870  0.4715
 1621ntf    fn412157   0.011   5.551   5.355 -0.0200 -0.2933  0.3629
 1621ntf    fn412158  -0.008   5.340   5.345  0.4948 -0.6794 -0.1567
 1621ntf    on512159  -0.124   5.461   5.115 -0.1826 -0.1890  0.0563
 1621ntf    on512160   0.085   5.576   5.078  0.1269  0.2578  0.6818
 1621ntf    on512161  -0.098   5.197   4.938 -0.1272  0.1063  0.2314
 1621ntf    on512162   0.020   5.094   5.123 -0.5318 -0.4163 -0.1345
 1621ntf    fn412163   0.139   5.219   4.786  0.5636 -0.0880 -0.3422
 1621ntf    fn412164   0.270   5.131   4.937 -0.1400  0.5748  0.1335
 1621ntf    fn412165   0.126   5.021   4.829  0.4887  0.0825  0.5095
 1622ntf    cn112166   2.864   0.793   0.469 -0.0937 -0.2093  0.0246
 1622ntf    sn212167   2.829   0.688   0.613  0.0238 -0.3093 -0.0206
 1622ntf    nn312168   2.885   0.780   0.726 -0.4090  0.4777 -0.4436
 1622ntf    sn212169   2.819   0.855   0.848  0.0533  0.0155  0.0912
 1622ntf    cn112170   2.838   1.023   0.782 -0.1536 -0.0246 -0.0716
 1622ntf    fn412171   2.930   0.904   0.497 -0.0524 -0.3342  0.4194
 1622ntf    fn412172   2.933   0.723   0.380 -0.2436 -0.2685 -0.0458
 1622ntf    fn412173   2.750   0.823   0.409 -0.5575 -0.0316  0.9802
 1622ntf    on512174   2.687   0.663   0.621  0.0785 -0.6015  0.0484
 1622ntf    on512175   2.917   0.575   0.591  0.0636 -0.1578 -0.6829
 1622ntf    on512176   2.907   0.848   0.962 -0.6028 -0.3600  0.5847
 1622ntf    on512177   2.678   0.835   0.869  0.0196  0.1365 -0.0267
 1622ntf    fn412178   2.816   1.033   0.652  0.2717  0.0017 -0.1445
 1622ntf    fn412179   2.760   1.107   0.848 -0.0237 -0.2174  0.3289
 1622ntf    fn412180   2.964   1.062   0.795 -0.1873  0.1180 -0.1762
 1623ntf    cn112181   1.539   5.535   4.868  0.2021  0.0951  0.3167
 1623ntf    sn212182   1.378   5.587   4.801  0.2236 -0.1586  0.0651
 1623ntf    nn312183   1.311   5.449   4.767 -0.3836  0.0989  0.1973
 1623ntf    sn212184   1.226   5.361   4.866  0.0834 -0.2086  0.3267
 1623ntf    cn112185   1.193   5.230   4.745 -0.0294  0.0788  0.0451
 1623ntf    fn412186   1.517   5.448   4.965  0.4537 -0.2258  0.0872
 1623ntf    fn412187   1.602   5.462   4.777  0.2842  0.3154  0.1943
 1623ntf    fn412188   1.623   5.625   4.917  0.1349  0.2492  0.1506
 1623ntf    on512189   1.321   5.669   4.906 -0.1019  0.2375 -0.4126
 1623ntf    on512190   1.406   5.659   4.679  0.3972  0.3085  0.3784
 1623ntf    on512191   1.093   5.410   4.893 -0.0669 -0.7875  0.6475
 1623ntf    on512192   1.300   5.287   4.965  0.3719  0.1037  0.3456
 1623ntf    fn412193   1.307   5.178   4.702 -0.2146 -0.4666  0.2049
 1623ntf    fn412194   1.130   5.132   4.809  0.5529 -0.0904  0.3601
 1623ntf    fn412195   1.119   5.274   4.644 -0.0879  0.2123  0.1456
 1624ntf    cn112196   0.360   3.864   0.924  0.0583  0.5389 -0.4671
 1624ntf    sn212197   0.498   3.944   0.837  0.3536  0.3794 -0.1477
 1624ntf    nn312198   0.618   3.883   0.917 -0.1932 -0.1619  0.2682
 1624ntf    sn212199   0.773   3.889   0.890 -0.2717 -0.3147 -0.2164
 1624ntf    cn112200   0.816   4.021   1.007 -0.5023 -0.5384  0.1226
 1624ntf    fn412201   0.362   3.732   0.921  0.4142  0.5274  0.1031
 1624ntf    fn412202   0.358   3.897   1.052 -1.0183 -0.2939 -0.2568
 1624ntf    fn412203   0.246   3.910   0.875 -0.2950 -0.0047 -0.1703
 1624ntf    on512204   0.482   3.893   0.702 -0.4364 -0.2907  0.1889
 1624ntf    on512205   0.469   4.084   0.846  0.0474  0.3815 -1.0130
 1624ntf    on512206   0.803   3.948   0.762  0.2336  0.4828  0.2640
 1624ntf    on512207   0.848   3.778   0.943 -0.1989 -0.3343 -0.3602
 1624ntf    fn412208   0.946   4.016   1.030 -0.5083 -0.2679  0.2287
 1624ntf    fn412209   0.788   4.145   0.968 -0.6018 -0.5582  0.1315
 1624ntf    fn412210   0.767   3.995   1.127 -0.3716  0.1033  0.3192
 1625ntf    cn112211   0.879   5.790   5.426  0.0420  0.1410 -0.1661
 1625ntf    sn212212   0.914   5.800   5.604 -0.1787 -0.2531 -0.0997
 1625ntf    nn312213   0.984   5.660   5.617 -0.0607 -0.2549 -0.6845
 1625ntf    sn212214   1.118   5.624   5.692 -0.4802 -0.2410  0.0907
 1625ntf    cn112215   1.057   5.593   5.860 -0.0882 -0.2657  0.2285
 1625ntf    fn412216   0.792   5.883   5.386 -0.1782  0.3167  0.7026
 1625ntf    fn412217   0.984   5.802   5.346 -0.1141  0.9467 -0.2653
 1625ntf    fn412218   0.827   5.672   5.398 -0.1962  0.2512 -0.1954
 1625ntf    on512219   1.001   5.914   5.622  0.7781 -0.9157 -0.4366
 1625ntf    on512220   0.795   5.802   5.684  0.2381 -0.0622  0.5218
 1625ntf    on512221   1.214   5.730   5.709  0.5693 -1.2234  0.3633
 1625ntf    on512222   1.179   5.501   5.649 -0.3558 -0.1486  0.0011
 1625ntf    fn412223   0.970   5.493   5.866  0.2004 -0.5354 -0.0561
 1625ntf    fn412224   1.156   5.553   5.938 -0.2518 -0.5650  0.2857
 1625ntf    fn412225   0.994   5.692   5.920  0.0310 -0.1717  0.1991
 1626ntf    cn112226   6.383   1.194   3.458 -0.2991 -0.0878  0.0166
 1626ntf    sn212227   6.253   1.319   3.483  0.0498  0.2313  0.2578
 1626ntf    nn312228   6.124   1.230   3.498  0.4605 -0.3333  0.4530
 1626ntf    sn212229   6.017   1.205   3.611  0.0209  0.0640  0.1269
 1626ntf    cn112230   5.892   1.317   3.541  0.0166 -0.0710 -0.0836
 1626ntf    fn412231   6.360   1.102   3.551 -0.2287 -0.0061  0.1156
 1626ntf    fn412232   6.380   1.128   3.343  0.3802  0.0390 -0.0764
 1626ntf    fn412233   6.502   1.250   3.470 -0.3107 -0.0740  0.0680
 1626ntf    on512234   6.297   1.405   3.590 -0.3209  0.6480  0.0790
 1626ntf    on512235   6.251   1.389   3.357  0.0367 -0.9258 -0.4035
 1626ntf    on512236   6.036   1.262   3.742 -0.3123  0.2347  0.1006
 1626ntf    on512237   5.949   1.079   3.599 -0.5226  0.3440  0.2444
 1626ntf    fn412238   5.942   1.432   3.501 -0.7690  0.2038 -0.2864
 1626ntf    fn412239   5.834   1.257   3.439 -0.1416  0.6413 -0.4131
 1626ntf    fn412240   5.795   1.340   3.628  0.2259 -0.0763  0.1541
 1627ntf    cn112241   3.314   3.310   1.800 -0.0282 -0.2510  0.1282
 1627ntf    sn212242   3.332   3.448   1.917 -0.1546 -0.0032 -0.1425
 1627ntf    nn312243   3.479   3.494   1.888  0.1283 -0.8174 -0.0227
 1627ntf    sn212244   3.612   3.450   1.959  0.2079 -0.0153  0.3356
 1627ntf    cn112245   3.700   3.369   1.822 -0.0623 -0.1539  0.2434
 1627ntf    fn412246   3.191   3.262   1.804 -0.3600  0.5993  0.3310
 1627ntf    fn412247   3.347   3.334   1.674  0.2375  0.1011  0.2628
 1627ntf    fn412248   3.401   3.217   1.837  0.1892 -0.2038 -0.2586
 1627ntf    on512249   3.243   3.555   1.881 -0.6204 -0.2235  0.3427
 1627ntf    on512250   3.306   3.387   2.046 -0.0780  0.7600  0.2380
 1627ntf    on512251   3.605   3.340   2.052 -0.0978 -0.0948  0.2199
 1627ntf    on512252   3.688   3.568   1.992  0.1429  0.1146  0.0213
 1627ntf    fn412253   3.813   3.310   1.857  0.5280  0.8274  0.0286
 1627ntf    fn412254   3.635   3.266   1.769 -0.3743  0.4223 -0.5168
 1627ntf    fn412255   3.727   3.463   1.733 -0.1696 -0.2150  0.1449
 1628ntf    cn112256   5.217   0.362   2.167 -0.1921 -0.3423  0.0336
 1628ntf    sn212257   5.215   0.505   2.056  0.0828 -0.3050  0.0771
 1628ntf    nn312258   5.177   0.629   2.145 -0.0897  0.2221 -0.7160
 1628ntf    sn212259   5.043   0.682   2.206  0.1299  0.0183 -0.0467
 1628ntf    cn112260   5.012   0.842   2.124  0.3989  0.1825  0.1703
 1628ntf    fn412261   5.096   0.322   2.205 -0.2813 -0.8018 -0.6905
 1628ntf    fn412262   5.257   0.251   2.107  0.2939  0.0724 -0.4177
 1628ntf    fn412263   5.291   0.376   2.275 -0.0701  0.3364 -0.1362
 1628ntf    on512264   5.351   0.516   2.008 -0.0565  0.0497 -0.2486
 1628ntf    on512265   5.117   0.468   1.957 -0.1061 -0.4373  0.3157
 1628ntf    on512266   5.066   0.725   2.342 -0.0592  0.2956 -0.1003
 1628ntf    on512267   4.930   0.597   2.177  0.0802  0.2597 -0.5735
 1628ntf    fn412268   4.998   0.928   2.223  0.7865 -0.0696  0.4486
 1628ntf    fn412269   5.118   0.882   2.056  0.2666  0.1911 -0.0311
 1628ntf    fn412270   4.904   0.847   2.047  0.4043 -0.1727  0.1360
 1629ntf    cn112271   5.711   2.314   0.979  0.4959  0.2886 -0.2202
 1629ntf    sn212272   5.821   2.446   0.921  0.2750  0.6355  0.1378
 1629ntf    nn312273   5.727   2.570   0.942 -0.4528  0.1832 -0.3913
 1629ntf    sn212274   5.736   2.692   1.040 -0.2503  0.1504 -0.3678
 1629ntf    cn112275   5.744   2.830   0.921  0.0543  0.2332 -0.2535
 1629ntf    fn412276   5.770   2.197   0.991  0.5458  0.3322 -0.0370
 1629ntf    fn412277   5.674   2.338   1.104  0.2840  0.0892 -0.2433
 1629ntf    fn412278   5.594   2.299   0.918  0.3235  0.2205  0.1239
 1629ntf    on512279   5.944   2.450   0.997  0.2910  0.1102  0.1420
 1629ntf    on512280   5.828   2.407   0.782  0.1627  0.0922  0.2827
 1629ntf    on512281   5.865   2.707   1.103 -0.2904 -0.2929 -0.1803
 1629ntf    on512282   5.619   2.720   1.119  0.1308 -0.0003  0.2509
 1629ntf    fn412283   5.845   2.827   0.835  0.1830  0.5714 -0.1166
 1629ntf    fn412284   5.642   2.830   0.837  0.3231  0.0484 -0.5808
 1629ntf    fn412285   5.745   2.945   0.987 -0.1525 -0.3282  0.7451
 1630ntf    cn112286   3.886   0.607   2.190 -0.3378  0.1522 -0.0258
 1630ntf    sn212287   3.890   0.676   2.022  0.1007  0.1519 -0.0170
 1630ntf    nn312288   3.755   0.757   2.025 -0.3183 -0.5579  0.5185
 1630ntf    sn212289   3.740   0.902   2.081  0.1508 -0.3604  0.1408
 1630ntf    cn112290   3.771   0.998   1.930  0.1714 -0.3119  0.1758
 1630ntf    fn412291   3.995   0.544   2.231 -0.3596  0.3682  0.3709
 1630ntf    fn412292   3.884   0.705   2.279 -0.2566  0.3670 -0.2582
 1630ntf    fn412293   3.781   0.531   2.216 -0.4185  0.2126 -0.1756
 1630ntf    on512294   4.013   0.748   2.004  0.8845 -1.3304 -0.7489
 1630ntf    on512295   3.875   0.559   1.939  0.8866  0.0146  0.0346
 1630ntf    on512296   3.846   0.947   2.168 -0.0547 -0.2292  0.3250
 1630ntf    on512297   3.606   0.941   2.118  0.2368  0.1410 -0.0618
 1630ntf    fn412298   3.754   1.127   1.957 -0.3166 -0.3138 -0.1075
 1630ntf    fn412299   3.892   0.978   1.880  0.3302  0.1056  0.3855
 1630ntf    fn412300   3.685   0.967   1.834 -0.0278 -0.7725  0.5005
 1631ntf    cn112301   3.285   3.020   6.602 -0.4594  0.0490 -0.1014
 1631ntf    sn212302   3.359   3.140   6.488 -0.1568  0.0876  0.1326
 1631ntf    nn312303   3.227   3.222   6.466 -0.2864 -0.1347  0.0771
 1631ntf    sn212304   3.130   3.212   6.343  0.2171 -0.3999 -0.3038
 1631ntf    cn112305   3.204   3.314   6.213  0.0637  0.0022 -0.0783
 1631ntf    fn412306   3.165   3.051   6.648 -0.4187  0.3604 -0.2085
 1631ntf    fn412307   3.272   2.903   6.541 -0.0429 -0.0872  0.0646
 1631ntf    fn412308   3.368   3.001   6.704 -0.0537 -0.4563 -0.5179
 1631ntf    on512309   3.457   3.202   6.573  0.4492 -0.0486 -0.4594
 1631ntf    on512310   3.407   3.069   6.373 -0.1924  0.0063  0.1682
 1631ntf    on512311   3.010   3.291   6.356  0.8389  0.4902  0.0588
 1631ntf    on512312   3.114   3.080   6.287 -0.0637 -0.7566  0.5848
 1631ntf    fn412313   3.233   3.434   6.259 -0.6236  0.0464  0.2409
 1631ntf    fn412314   3.315   3.267   6.158  0.1175 -0.1572  0.1666
 1631ntf    fn412315   3.114   3.335   6.117  0.3966  0.5600 -0.2744
 1632ntf    cn112316   6.533   4.798   2.991 -0.2151  0.3413  0.0712
 1632ntf    sn212317   6.587   4.932   2.880 -0.0236  0.0566 -0.1810
 1632ntf    nn312318   6.453   4.948   2.800 -0.2574 -0.4232  0.1065
 1632ntf    sn212319   6.349   5.065   2.796  0.5302  0.2834 -0.0153
 1632ntf    cn112320   6.193   4.973   2.780  0.2948  0.7323 -0.3454
 1632ntf    fn412321   6.456   4.709   2.931  0.3207  0.3957 -0.7056
 1632ntf    fn412322   6.638   4.735   3.041 -0.4655  0.1071  0.3060
 1632ntf    fn412323   6.462   4.855   3.088  0.2727  0.4504  0.3652
 1632ntf    on512324   6.616   5.039   2.972 -0.0273 -0.1438  0.0577
 1632ntf    on512325   6.689   4.877   2.795 -0.2958  0.0124 -0.4816
 1632ntf    on512326   6.354   5.151   2.680  0.3720  0.4816  0.1238
 1632ntf    on512327   6.317   5.134   2.918  0.4272  0.8556 -0.3617
 1632ntf    fn412328   6.094   5.048   2.824 -0.0712 -0.0770  0.2266
 1632ntf    fn412329   6.168   4.924   2.659  0.1453  0.3041 -0.1430
 1632ntf    fn412330   6.192   4.868   2.861 -0.4246  0.7392 -0.3411
 1633ntf    cn112331   4.217   2.640   2.012  0.4511  0.0542 -0.3050
 1633ntf    sn212332   4.261   2.666   1.837  0.2603 -0.2070 -0.3929
 1633ntf    nn312333   4.144   2.584   1.771 -0.5335  0.3507  0.2932
 1633ntf    sn212334   4.140   2.437   1.717  0.3500  0.3172  0.2953
 1633ntf    cn112335   4.105   2.474   1.543 -0.4729 -0.1805  0.3482
 1633ntf    fn412336   4.237   2.512   2.041  0.2929  0.1240  0.1167
 1633ntf    fn412337   4.293   2.709   2.095  0.2540 -0.1385  0.0381
 1633ntf    fn412338   4.092   2.676   2.034  0.5481 -0.2135  0.7220
 1633ntf    on512339   4.251   2.809   1.825  0.1591 -0.1989 -0.2236
 1633ntf    on512340   4.390   2.604   1.824  0.5084  0.2669 -0.2139
 1633ntf    on512341   4.020   2.370   1.761  0.0777  0.6689  0.0916
 1633ntf    on512342   4.264   2.364   1.711 -0.4427 -1.1126  0.8037
 1633ntf    fn412343   4.082   2.361   1.478  0.1019 -0.1807  0.1382
 1633ntf    fn412344   4.006   2.561   1.528 -0.1625  0.2497  0.7550
 1633ntf    fn412345   4.206   2.533   1.481 -0.7263  0.1143  0.2086
 1634ntf    cn112346   0.315   0.016   2.449  0.0764  0.6270  0.0881
 1634ntf    sn212347   0.387   0.147   2.345  0.0766  0.0646 -0.6299
 1634ntf    nn312348   0.521   0.076   2.305  0.1095 -0.1213 -0.1978
 1634ntf    sn212349   0.667   0.094   2.361 -0.0215  0.1339  0.0625
 1634ntf    cn112350   0.772   0.003   2.244  0.0375 -0.1203  0.3111
 1634ntf    fn412351   0.392  -0.009   2.554  0.4396  0.6677 -0.1652
 1634ntf    fn412352   0.199   0.055   2.497  0.0729  0.6043  0.0978
 1634ntf    fn412353   0.292  -0.101   2.393 -0.0952  0.5499  0.3175
 1634ntf    on512354   0.311   0.149   2.223 -0.0898 -0.4359 -0.5364
 1634ntf    on512355   0.400   0.266   2.426  0.9481 -0.1981 -0.3691
 1634ntf    on512356   0.686   0.027   2.487 -0.0402 -0.3708 -0.2008
 1634ntf    on512357   0.719   0.228   2.350 -1.1595  0.5659 -0.2075
 1634ntf    fn412358   0.893   0.010   2.295  0.0813  0.1697  0.1714
 1634ntf    fn412359   0.736  -0.124   2.233 -0.1614 -0.0281 -0.1464
 1634ntf    fn412360   0.775   0.063   2.126  0.2231 -0.0302  0.3617
 1635ntf    cn112361   4.314   0.361   4.054  0.0643  0.1556 -0.0172
 1635ntf    sn212362   4.427   0.321   3.917 -0.0203 -0.0195 -0.0358
 1635ntf    nn312363   4.460   0.467   3.869 -0.0790 -0.1057 -0.3408
 1635ntf    sn212364   4.493   0.501   3.720  0.2793  0.3261 -0.1640
 1635ntf    cn112365   4.621   0.626   3.751  0.5328  0.0591 -0.1372
 1635ntf    fn412366   4.250   0.260   4.111  0.3745  0.1061  0.2462
 1635ntf    fn412367   4.370   0.434   4.149 -0.0923 -0.5130  0.6004
 1635ntf    fn412368   4.220   0.444   4.012 -0.2423 -0.1934 -0.0266
 1635ntf    on512369   4.537   0.264   3.990  0.1352  0.5083  0.1455
 1635ntf    on512370   4.352   0.241   3.823 -0.1571 -0.1790  0.2075
 1635ntf    on512371   4.386   0.569   3.650 -0.0211 -0.5389 -0.5514
 1635ntf    on512372   4.557   0.399   3.641 -0.2117 -0.1432  0.0464
 1635ntf    fn412373   4.730   0.577   3.808  0.4668  0.1761  0.0914
 1635ntf    fn412374   4.659   0.689   3.641  0.0030  1.0404  0.2247
 1635ntf    fn412375   4.579   0.714   3.840  0.2504 -0.0783 -0.1363
 1636ntf    cn112376   1.581   3.670   4.654  0.1774  0.0269  0.2527
 1636ntf    sn212377   1.536   3.580   4.502  0.0330 -0.2354  0.4504
 1636ntf    nn312378   1.663   3.611   4.416  0.0540  0.1067  0.6053
 1636ntf    sn212379   1.681   3.720   4.305  0.5740 -0.2544  0.3305
 1636ntf    cn112380   1.632   3.635   4.152  0.1476  0.0403  0.2999
 1636ntf    fn412381   1.480   3.663   4.740 -0.1779 -0.2238 -0.1766
 1636ntf    fn412382   1.687   3.617   4.711  0.3838  0.1463 -0.0184
 1636ntf    fn412383   1.608   3.799   4.642  0.7331 -0.0705  0.4365
 1636ntf    on512384   1.527   3.445   4.554  0.2111 -0.2093  0.5497
 1636ntf    on512385   1.412   3.642   4.461  0.4218  0.3640  0.1779
 1636ntf    on512386   1.819   3.756   4.283  0.7115 -0.2993  1.1084
 1636ntf    on512387   1.587   3.828   4.323  0.4786 -0.3068  0.1527
 1636ntf    fn412388   1.523   3.560   4.161  0.1663 -0.0008  0.1810
 1636ntf    fn412389   1.626   3.708   4.042  0.4016  0.7794  0.7704
 1636ntf    fn412390   1.718   3.539   4.125  0.4498  0.5479 -0.5708
 1637ntf    cn112391   4.334   1.377   5.515 -0.1740  0.5118 -0.6702
 1637ntf    sn212392   4.253   1.224   5.460  0.2746  0.0005  0.0673
 1637ntf    nn312393   4.104   1.273   5.475  0.3583  0.3511 -0.2497
 1637ntf    sn212394   4.011   1.323   5.359 -0.1598  0.0250  0.0229
 1637ntf    cn112395   3.949   1.166   5.291 -0.2783  0.0215  0.1388
 1637ntf    fn412396   4.297   1.395   5.641  0.2718  0.2109 -0.4925
 1637ntf    fn412397   4.466   1.364   5.522 -0.2494  0.0716  0.0556
 1637ntf    fn412398   4.313   1.490   5.450 -0.1033  0.6464 -0.4588
 1637ntf    on512399   4.307   1.213   5.327  0.3372 -0.2303  0.1105
 1637ntf    on512400   4.291   1.130   5.563 -0.7398 -0.2771  0.1983
 1637ntf    on512401   4.076   1.392   5.250 -0.3398  0.5067  0.2209
 1637ntf    on512402   3.889   1.380   5.410 -0.0614  0.7407 -0.5214
 1637ntf    fn412403   3.835   1.186   5.228 -0.3292  0.4084  0.3512
 1637ntf    fn412404   4.030   1.101   5.208 -0.2965  0.3416 -0.1301
 1637ntf    fn412405   3.919   1.076   5.384  0.2503 -0.0589  0.2401
 1638ntf    cn112406   3.339   4.020   1.190  0.3176  0.0958  0.0747
 1638ntf    sn212407   3.346   3.984   1.368  0.0141  0.2410  0.1180
 1638ntf    nn312408   3.198   4.003   1.415 -0.1417 -0.0489 -0.2467
 1638ntf    sn212409   3.130   4.127   1.484  0.1810 -0.0800  0.1326
 1638ntf    cn112410   2.960   4.063   1.494  0.1326  0.0592  0.2029
 1638ntf    fn412411   3.459   4.024   1.136  0.0548  0.4484 -0.4969
 1638ntf    fn412412   3.261   3.935   1.124  0.4506 -0.0682  0.1276
 1638ntf    fn412413   3.274   4.133   1.165  0.7076  0.2933 -0.0493
 1638ntf    on512414   3.391   3.847   1.382  0.1890  0.3153  0.2921
 1638ntf    on512415   3.443   4.080   1.413 -0.0488  0.2528  0.2297
 1638ntf    on512416   3.117   4.243   1.399  0.5719 -0.0337  0.1356
 1638ntf    on512417   3.159   4.133   1.625  0.0908  0.1408  0.1427
 1638ntf    fn412418   2.952   3.945   1.552  0.4962  0.0605  0.2606
 1638ntf    fn412419   2.880   4.137   1.569 -0.1343  0.1546 -0.1750
 1638ntf    fn412420   2.897   4.052   1.378 -0.0962  0.2955  0.3031
 1639ntf    cn112421   6.342   5.607   3.581 -0.1659  0.0249 -0.0614
 1639ntf    sn212422   6.271   5.747   3.489  0.1025  0.2171  0.0231
 1639ntf    nn312423   6.312   5.703   3.344 -0.0272  0.5095 -0.1042
 1639ntf    sn212424   6.339   5.793   3.218  0.0895  0.8103  0.1351
 1639ntf    cn112425   6.520   5.795   3.234  0.1249 -0.1848 -0.0399
 1639ntf    fn412426   6.297   5.600   3.706 -0.5996  0.0413 -0.2129
 1639ntf    fn412427   6.301   5.493   3.528 -0.3552 -0.0058  0.1470
 1639ntf    fn412428   6.474   5.606   3.583 -0.1675 -0.1566 -0.0378
 1639ntf    on512429   6.130   5.735   3.514  0.0885 -0.1402 -0.2218
 1639ntf    on512430   6.339   5.865   3.536 -0.1972  0.5352 -0.3365
 1639ntf    on512431   6.295   5.930   3.231  0.5222  0.9648 -0.0198
 1639ntf    on512432   6.313   5.725   3.094  0.3926  0.9406 -0.0009
 1639ntf    fn412433   6.558   5.683   3.293 -0.4817 -0.2890  0.1580
 1639ntf    fn412434   6.587   5.791   3.120 -0.3007 -0.0133 -0.2981
 1639ntf    fn412435   6.573   5.881   3.320  0.4451 -0.6891  0.2698
 1640ntf    cn112436   6.378   0.341   5.043 -0.3225  0.1271 -0.0344
 1640ntf    sn212437   6.333   0.186   5.127  0.0012  0.1859  0.2452
 1640ntf    nn312438   6.179   0.192   5.098 -0.0665  0.0100  0.5557
 1640ntf    sn212439   6.069   0.267   5.180 -0.2019  0.0275  0.3596
 1640ntf    cn112440   6.028   0.137   5.300  0.0578 -0.2046  0.1965
 1640ntf    fn412441   6.333   0.440   5.117  0.2369  0.1784  0.2435
 1640ntf    fn412442   6.510   0.343   5.033 -0.3589  0.2132 -0.5265
 1640ntf    fn412443   6.322   0.347   4.923 -0.1306 -0.0754 -0.1349
 1640ntf    on512444   6.404   0.080   5.061 -0.7219 -0.2425  0.1542
 1640ntf    on512445   6.370   0.212   5.265  0.1625 -0.1424  0.2640
 1640ntf    on512446   5.947   0.284   5.105  0.2409  0.0687 -0.3559
 1640ntf    on512447   6.106   0.388   5.249 -0.6225  0.2033  0.2825
 1640ntf    fn412448   6.140   0.079   5.342  0.2841 -0.1924 -0.3837
 1640ntf    fn412449   5.974   0.190   5.408  0.3582 -0.3289  0.4121
 1640ntf    fn412450   5.949   0.038   5.262  0.2181 -0.3397  0.2095
 1641ntf    cn112451   2.914   1.701   3.190  0.0725 -0.1801 -0.1618
 1641ntf    sn212452   2.789   1.711   3.058  0.0359 -0.0127 -0.1138
 1641ntf    nn312453   2.805   1.856   3.000 -0.5934  0.1854  0.1934
 1641ntf    sn212454   2.692   1.953   2.951 -0.1412  0.4845 -0.2724
 1641ntf    cn112455   2.682   2.044   3.109  0.0604  0.2899 -0.1477
 1641ntf    fn412456   3.030   1.751   3.151  0.2579 -0.0769  0.5211
 1641ntf    fn412457   2.882   1.786   3.286 -0.3910 -0.5165 -0.0113
 1641ntf    fn412458   2.926   1.583   3.248  0.2961 -0.1096 -0.0663
 1641ntf    on512459   2.828   1.610   2.963 -0.4351 -0.3627  0.0618
 1641ntf    on512460   2.665   1.695   3.130 -0.1454 -0.2923 -0.4865
 1641ntf    on512461   2.560   1.896   2.937  0.0062  0.1012 -0.0932
 1641ntf    on512462   2.749   2.049   2.859 -0.0065  0.8415  0.1787
 1641ntf    fn412463   2.634   1.973   3.210  0.0616 -0.3555 -0.5945
 1641ntf    fn412464   2.804   2.085   3.138  0.3226 -0.5212 -0.0778
 1641ntf    fn412465   2.612   2.156   3.104 -0.1556  0.1509 -0.2937
 1642ntf    cn112466   2.126   4.204   0.859  0.4326 -0.1840  0.0460
 1642ntf    sn212467   2.247   4.302   0.954  0.1283  0.1130  0.1308
 1642ntf    nn312468   2.307   4.183   1.038  0.5775  0.4130  0.2368
 1642ntf    sn212469   2.331   4.157   1.191 -0.3663  0.3338  0.3751
 1642ntf    cn112470   2.500   4.223   1.205 -0.2763  0.1700  0.0684
 1642ntf    fn412471   2.178   4.168   0.743 -0.7468 -0.4832 -0.3978
 1642ntf    fn412472   2.106   4.091   0.924 -0.4761 -0.0365  0.0287
 1642ntf    fn412473   2.012   4.267   0.835  0.2614 -0.5221 -0.0267
 1642ntf    on512474   2.335   4.351   0.851 -0.1303 -0.0167 -0.1563
 1642ntf    on512475   2.171   4.403   1.024  0.2371  0.3964 -0.1596
 1642ntf    on512476   2.345   4.017   1.220 -0.4191  0.3119  0.2978
 1642ntf    on512477   2.256   4.239   1.283 -0.3374  0.5865  0.1762
 1642ntf    fn412478   2.578   4.146   1.131 -0.5136  0.0111 -0.0211
 1642ntf    fn412479   2.516   4.342   1.149  0.4513 -0.1648 -0.4425
 1642ntf    fn412480   2.550   4.225   1.327  0.0605 -0.8286 -0.0470
 1643ntf    cn112481   3.875   6.035   1.625 -0.2243  0.1227  0.2280
 1643ntf    sn212482   3.787   5.880   1.591  0.1413 -0.0548  0.0875
 1643ntf    nn312483   3.830   5.807   1.723 -0.0182 -0.1339  0.0951
 1643ntf    sn212484   3.769   5.673   1.778 -0.1093 -0.2708 -0.3358
 1643ntf    cn112485   3.917   5.567   1.777  0.0072 -0.1165  0.0961
 1643ntf    fn412486   4.002   6.017   1.657 -0.1059 -0.2944 -0.4643
 1643ntf    fn412487   3.858   6.118   1.523  0.5740 -0.0233 -0.0358
 1643ntf    fn412488   3.826   6.090   1.735 -0.1153 -0.3508  0.5149
 1643ntf    on512489   3.649   5.919   1.587  0.1256 -0.1266 -0.0855
 1643ntf    on512490   3.847   5.822   1.473 -0.1755 -0.3664  0.0798
 1643ntf    on512491   3.676   5.609   1.689  0.1079 -0.1278 -0.6664
 1643ntf    on512492   3.739   5.684   1.919  0.1938 -0.0448 -0.2873
 1643ntf    fn412493   3.992   5.598   1.672 -0.0739 -0.5608 -0.0929
 1643ntf    fn412494   3.992   5.574   1.885  0.1017  0.3120  0.0056
 1643ntf    fn412495   3.883   5.440   1.769 -0.6066  0.0636 -0.1996
 1644ntf    cn112496   3.854   4.257   0.220 -0.1296  0.0968  0.1713
 1644ntf    sn212497   3.875   4.259   0.401  0.1707  0.2760  0.1339
 1644ntf    nn312498   3.729   4.223   0.444  0.3388  0.2554  0.6906
 1644ntf    sn212499   3.673   4.089   0.503  0.3990  0.0354  0.2517
 1644ntf    cn112500   3.502   4.109   0.446  0.4604 -0.0823  0.0266
 1644ntf    fn412501   3.830   4.137   0.171  0.1923 -0.2197  0.7804
 1644ntf    fn412502   3.758   4.338   0.178 -0.0067 -0.0252 -0.3404
 1644ntf    fn412503   3.961   4.302   0.157 -0.2427 -0.1347 -0.1875
 1644ntf    on512504   3.972   4.156   0.426  0.0444  0.0828 -0.1664
 1644ntf    on512505   3.903   4.396   0.436 -0.4240  0.6011 -0.6352
 1644ntf    on512506   3.667   4.086   0.648 -0.2251  0.5765  0.2410
 1644ntf    on512507   3.712   3.967   0.438  0.3558  0.2859 -0.2476
 1644ntf    fn412508   3.492   4.168   0.328  0.4356  0.1406  0.1396
 1644ntf    fn412509   3.445   3.990   0.445 -0.1673  0.2106 -0.1792
 1644ntf    fn412510   3.434   4.185   0.531  0.6677  0.2447 -0.0976
 1645ntf    cn112511   4.615   5.275   5.056  0.3763 -0.1484 -0.0411
 1645ntf    sn212512   4.588   5.252   4.878 -0.1127  0.2531 -0.0193
 1645ntf    nn312513   4.431   5.250   4.875 -0.1003 -0.4910 -0.3173
 1645ntf    sn212514   4.332   5.128   4.876 -0.0340 -0.5410  0.1389
 1645ntf    cn112515   4.175   5.220   4.865 -0.0517 -0.5073  0.6241
 1645ntf    fn412516   4.540   5.196   5.131  0.7882 -0.4803  0.0237
 1645ntf    fn412517   4.742   5.248   5.084  0.3562 -0.5019 -0.2880
 1645ntf    fn412518   4.591   5.400   5.091  0.4961 -0.0959 -0.1451
 1645ntf    on512519   4.649   5.371   4.822  0.8478 -0.1549  0.1433
 1645ntf    on512520   4.647   5.124   4.847 -0.8033 -0.2673  0.7826
 1645ntf    on512521   4.323   5.056   5.001  0.8488 -0.6587  0.1411
 1645ntf    on512522   4.327   5.052   4.754  0.1009 -0.0298 -0.1865
 1645ntf    fn412523   4.158   5.281   4.749 -0.1486 -0.4875  0.6490
 1645ntf    fn412524   4.070   5.144   4.892 -0.3872 -0.1956  0.1918
 1645ntf    fn412525   4.177   5.318   4.953  0.0504 -0.7668  0.9130
 1646ntf    cn112526   1.618   4.958   0.363 -0.2943  0.0032  0.1570
 1646ntf    sn212527   1.579   5.113   0.276 -0.0304 -0.2325 -0.3872
 1646ntf    nn312528   1.424   5.103   0.252 -0.1459 -0.0087  0.2562
 1646ntf    sn212529   1.325   5.216   0.300 -0.1518 -0.0761  0.4020
 1646ntf    cn112530   1.211   5.217   0.159  0.0333  0.5174  0.2518
 1646ntf    fn412531   1.552   4.946   0.477 -0.5798  0.3961  0.0377
 1646ntf    fn412532   1.593   4.849   0.293 -0.3480  0.0170  0.1537
 1646ntf    fn412533   1.747   4.948   0.388 -0.3790 -0.1186  0.5481
 1646ntf    on512534   1.617   5.207   0.379 -0.0791  0.0229 -0.6022
 1646ntf    on512535   1.657   5.102   0.156  0.3316 -0.3155 -0.1450
 1646ntf    on512536   1.379   5.349   0.298 -0.4975  0.0584 -0.8151
 1646ntf    on512537   1.243   5.176   0.412  0.2697 -0.7057  0.4958
 1646ntf    fn412538   1.158   5.096   0.147  0.9434  0.1386 -0.0285
 1646ntf    fn412539   1.105   5.293   0.180 -0.3764  0.1435 -0.4093
 1646ntf    fn412540   1.260   5.244   0.040 -0.1270  0.3988  0.1573
 1647ntf    cn112541   4.315   1.979   4.150  0.1879  0.0612 -0.0987
 1647ntf    sn212542   4.470   1.898   4.202  0.0924  0.0129  0.1103
 1647ntf    nn312543   4.583   1.972   4.122 -0.0143 -0.5540 -0.5755
 1647ntf    sn212544   4.701   1.917   4.034  0.4010  0.3793 -0.6092
 1647ntf    cn112545   4.605   1.904   3.880 -0.1268 -0.1080 -0.2455
 1647ntf    fn412546   4.287   1.989   4.021 -0.5553  0.1176  0.0671
 1647ntf    fn412547   4.215   1.910   4.200  0.2037  0.1156  0.0090
 1647ntf    fn412548   4.310   2.105   4.190 -0.0888 -0.1159  0.4339
 1647ntf    on512549   4.468   1.936   4.341 -0.7112  0.1207  0.0786
 1647ntf    on512550   4.456   1.756   4.182 -0.0259  0.0953 -0.4032
 1647ntf    on512551   4.744   1.782   4.062  0.1685  0.4552  0.1605
 1647ntf    on512552   4.801   2.019   4.012  0.3104  0.6448  0.1551
 1647ntf    fn412553   4.513   1.810   3.873  0.1203 -0.3522 -0.2533
 1647ntf    fn412554   4.545   2.018   3.849  0.0552  0.1206  0.2247
 1647ntf    fn412555   4.695   1.871   3.789  0.0742 -0.0617 -0.0661
 1648ntf    cn112556   5.645   6.197   6.015  0.2361 -0.2961 -0.4023
 1648ntf    sn212557   5.625   6.330   5.893  0.4993  0.3649  0.2641
 1648ntf    nn312558   5.653   6.249   5.762  0.3870  0.2697  0.2977
 1648ntf    sn212559   5.789   6.221   5.687  0.1054  0.1702 -0.1817
 1648ntf    cn112560   5.821   6.052   5.745  0.0133  0.1541 -0.1768
 1648ntf    fn412561   5.619   6.228   6.141  0.3204 -0.0904 -0.4354
 1648ntf    fn412562   5.566   6.096   5.985  0.0514 -0.2928  0.0587
 1648ntf    fn412563   5.771   6.156   6.007  0.3130  0.0036 -0.7437
 1648ntf    on512564   5.490   6.381   5.893  0.4191  0.1667 -0.6580
 1648ntf    on512565   5.725   6.425   5.934  0.2668  0.7327 -0.0129
 1648ntf    on512566   5.896   6.307   5.732  0.5160 -0.2463 -0.3581
 1648ntf    on512567   5.770   6.209   5.545 -0.2055  0.0348 -0.1296
 1648ntf    fn412568   5.913   6.041   5.840  0.3768 -0.2144 -0.5705
 1648ntf    fn412569   5.715   5.989   5.794  0.2572 -0.0284  0.1206
 1648ntf    fn412570   5.854   5.966   5.650 -0.0429 -0.3580  0.2617
 1649ntf    cn112571   1.803   6.109   4.519 -0.4946  0.0751 -0.1130
 1649ntf    sn212572   1.792   6.036   4.352  0.1379 -0.3380  0.0220
 1649ntf    nn312573   1.640   5.998   4.344 -0.0741  0.4255  0.3339
 1649ntf    sn212574   1.525   6.017   4.239 -0.1856 -0.2830  0.3226
 1649ntf    cn112575   1.434   6.168   4.284 -0.1260 -0.1375 -0.0463
 1649ntf    fn412576   1.783   6.017   4.613 -0.0026 -0.0071 -0.0885
 1649ntf    fn412577   1.925   6.155   4.541 -0.4205 -0.1642 -0.0150
 1649ntf    fn412578   1.720   6.207   4.549 -0.1698  0.1859  0.4202
 1649ntf    on512579   1.813   6.156   4.275  0.1013 -0.4865 -0.2200
 1649ntf    on512580   1.886   5.928   4.335  0.2938 -0.1544 -0.2968
 1649ntf    on512581   1.424   5.919   4.269 -0.2895 -0.3607 -0.2722
 1649ntf    on512582   1.555   6.045   4.101  0.5498  0.0590  0.5474
 1649ntf    fn412583   1.393   6.183   4.409 -0.6173  0.0089 -0.2201
 1649ntf    fn412584   1.497   6.282   4.260 -0.0807 -0.2265 -0.3473
 1649ntf    fn412585   1.327   6.179   4.207  0.0083  0.2455 -0.1820
 1650ntf    cn112586   6.386   1.505   4.436 -0.2455 -0.0701 -0.6502
 1650ntf    sn212587   6.453   1.338   4.406  0.0199 -0.1326  0.2503
 1650ntf    nn312588   6.595   1.378   4.354 -0.0428 -0.3369 -0.0800
 1650ntf    sn212589   6.736   1.356   4.420 -0.1368 -0.5908  0.0377
 1650ntf    cn112590   6.795   1.245   4.289 -0.6190 -0.3256 -0.4077
 1650ntf    fn412591   6.263   1.502   4.484 -0.1454 -0.0297 -0.3853
 1650ntf    fn412592   6.444   1.573   4.534 -1.1477 -0.3510  0.0963
 1650ntf    fn412593   6.387   1.588   4.333  0.7377 -0.0756 -0.6623
 1650ntf    on512594   6.440   1.272   4.533 -0.8972  0.4762  0.4852
 1650ntf    on512595   6.368   1.294   4.299  0.0260  0.5388 -0.0375
 1650ntf    on512596   6.734   1.282   4.543  0.1083 -0.1249  0.3226
 1650ntf    on512597   6.821   1.473   4.413  0.3196 -0.8855  0.5946
 1650ntf    fn412598   6.908   1.181   4.314 -0.2890  0.4530  0.1028
 1650ntf    fn412599   6.713   1.148   4.249 -0.3908 -0.4825 -0.4973
 1650ntf    fn412600   6.827   1.308   4.177 -0.0872 -0.1186 -0.1402
 1651ntf    cn112601   0.597   2.966   5.753 -0.2333  0.3364 -0.1603
 1651ntf    sn212602   0.548   2.919   5.584 -0.0410 -0.2285 -0.0631
 1651ntf    nn312603   0.674   2.961   5.501 -0.1862  0.2594 -0.0418
 1651ntf    sn212604   0.803   2.882   5.458 -0.1982  0.1802  0.0658
 1651ntf    cn112605   0.924   3.017   5.440  0.0762 -0.1215 -0.3697
 1651ntf    fn412606   0.494   2.966   5.835  0.2662  0.5442  0.4732
 1651ntf    fn412607   0.693   2.890   5.805  0.4519  0.8077 -0.7125
 1651ntf    fn412608   0.648   3.088   5.760 -0.6066  0.4852  0.0092
 1651ntf    on512609   0.515   2.779   5.587  0.1950 -0.2764  0.4607
 1651ntf    on512610   0.434   3.007   5.569 -0.0622 -0.2302  0.0881
 1651ntf    on512611   0.800   2.817   5.330  0.1590 -0.2827  0.2913
 1651ntf    on512612   0.872   2.800   5.554  0.1099  0.8819  0.4573
 1651ntf    fn412613   0.906   3.088   5.330  0.3151  0.0731 -0.2824
 1651ntf    fn412614   0.929   3.095   5.547  0.0565  0.0665 -0.5073
 1651ntf    fn412615   1.042   2.961   5.421  0.5277  0.6870  0.0133
 1652ntf    cn112616   2.755   4.961   0.925  0.4180  0.7148 -0.2899
 1652ntf    sn212617   2.912   4.933   1.012  0.2103 -0.0078 -0.1369
 1652ntf    nn312618   2.868   4.979   1.156  0.3268 -0.3058 -0.0061
 1652ntf    sn212619   2.884   4.916   1.299  0.1757 -0.3289  0.0010
 1652ntf    cn112620   2.730   4.819   1.302  0.0824 -0.1912 -0.2804
 1652ntf    fn412621   2.661   4.890   0.986  0.6565  0.5237 -0.1443
 1652ntf    fn412622   2.721   5.088   0.931 -0.4088  0.4717  0.3267
 1652ntf    fn412623   2.756   4.923   0.798 -0.2526 -0.0029 -0.0924
 1652ntf    on512624   2.927   4.791   0.994  0.1601 -0.0503  0.1416
 1652ntf    on512625   3.001   5.026   0.948 -0.2691  0.6489  0.1303
 1652ntf    on512626   2.868   5.010   1.407 -0.1308  0.0327 -0.3549
 1652ntf    on512627   2.978   4.808   1.312 -0.0289 -0.5255 -0.1492
 1652ntf    fn412628   2.621   4.879   1.256 -0.0802 -0.2530  0.0179
 1652ntf    fn412629   2.736   4.709   1.229  0.1021 -0.2994 -0.1174
 1652ntf    fn412630   2.699   4.785   1.426  0.0223  0.1611 -0.1958
 1653ntf    cn112631   1.370   3.815   1.114  0.3220 -0.1775 -0.0475
 1653ntf    sn212632   1.209   3.756   1.175  0.2593  0.0278 -0.0114
 1653ntf    nn312633   1.131   3.889   1.206 -0.6062 -0.3988 -0.3156
 1653ntf    sn212634   1.111   3.956   1.346  0.2206 -0.3266 -0.2274
 1653ntf    cn112635   1.188   4.118   1.312  0.0273 -0.1012  0.3980
 1653ntf    fn412636   1.444   3.722   1.058 -0.4131 -0.5921 -0.3462
 1653ntf    fn412637   1.362   3.907   1.019 -0.2326  0.1077  0.2714
 1653ntf    fn412638   1.448   3.864   1.208 -0.4623  0.6821  0.1773
 1653ntf    on512639   1.143   3.685   1.068 -0.4973  0.5247  0.1171
 1653ntf    on512640   1.243   3.671   1.287 -0.4245 -0.2478 -0.0082
 1653ntf    on512641   1.182   3.898   1.458 -0.2810  0.2172  0.3802
 1653ntf    on512642   0.974   3.995   1.368  0.4582  0.2753  0.2387
 1653ntf    fn412643   1.213   4.199   1.414  0.4740  0.1501  0.0920
 1653ntf    fn412644   1.304   4.102   1.251 -0.3226 -0.4340 -0.1827
 1653ntf    fn412645   1.122   4.192   1.225  0.5749  0.1541  0.1992
 1654ntf    cn112646   1.596   0.633   1.653  0.0028 -0.0202  0.2988
 1654ntf    sn212647   1.416   0.647   1.636  0.0031 -0.4161 -0.0327
 1654ntf    nn312648   1.399   0.623   1.482  0.1562 -0.2268 -0.0787
 1654ntf    sn212649   1.272   0.653   1.393  0.2454  0.4773  0.0267
 1654ntf    cn112650   1.344   0.811   1.337  0.5385  0.4074  0.2023
 1654ntf    fn412651   1.644   0.728   1.574  0.0136 -0.4296 -0.1900
 1654ntf    fn412652   1.637   0.647   1.778 -1.0532 -0.3905  0.7008
 1654ntf    fn412653   1.648   0.519   1.611 -0.3561 -0.3254  0.6650
 1654ntf    on512654   1.359   0.543   1.719 -0.2879 -0.0124  0.2774
 1654ntf    on512655   1.397   0.779   1.691  0.4046 -0.6336  0.6426
 1654ntf    on512656   1.150   0.694   1.458  0.2584  0.3962  0.1028
 1654ntf    on512657   1.257   0.578   1.272  0.6171 -0.5435  0.6016
 1654ntf    fn412658   1.386   0.888   1.436  0.2042  0.0259  0.6480
 1654ntf    fn412659   1.446   0.792   1.255  0.2339  0.2540 -0.1474
 1654ntf    fn412660   1.263   0.882   1.262 -0.1515 -0.0232  0.5277
 1655ntf    cn112661   4.646   6.541   5.818 -0.2010 -0.0051 -0.0797
 1655ntf    sn212662   4.714   6.582   5.654  0.1009  0.0265  0.0544
 1655ntf    nn312663   4.794   6.451   5.621 -0.1572 -0.1023 -0.0639
 1655ntf    sn212664   4.780   6.372   5.486 -0.5959 -0.0464 -0.0521
 1655ntf    cn112665   4.950   6.393   5.424 -0.4192 -0.0688  0.4120
 1655ntf    fn412666   4.573   6.640   5.866  0.2218  0.2682  0.0004
 1655ntf    fn412667   4.565   6.436   5.813 -0.1698 -0.0704  0.6695
 1655ntf    fn412668   4.736   6.506   5.908 -0.0106  0.9534  0.1122
 1655ntf    on512669   4.593   6.613   5.582  0.0677  0.5664  0.3372
 1655ntf    on512670   4.809   6.687   5.682  0.2353  0.0301 -0.4148
 1655ntf    on512671   4.704   6.427   5.377 -0.1763 -0.1875 -0.4188
 1655ntf    on512672   4.766   6.230   5.510  0.2408 -0.1650 -0.2182
 1655ntf    fn412673   5.032   6.330   5.507 -0.0798 -0.0388  0.1013
 1655ntf    fn412674   4.959   6.339   5.303  0.3483  0.3913  0.2592
 1655ntf    fn412675   4.991   6.518   5.412 -0.4611 -0.0680  0.2739
 1656ntf    cn112676   3.918   3.635   3.670 -0.0393  0.1184 -0.1106
 1656ntf    sn212677   4.048   3.648   3.797 -0.0668  0.2776 -0.0983
 1656ntf    nn312678   4.002   3.761   3.895  0.6453  0.2858  0.2340
 1656ntf    sn212679   4.017   3.916   3.875 -0.0316  0.3455  0.1388
 1656ntf    cn112680   4.172   3.956   3.962  0.1096  0.1410 -0.0139
 1656ntf    fn412681   3.807   3.579   3.715  0.1009  0.3617  0.5467
 1656ntf    fn412682   3.892   3.758   3.628  0.6552  0.3755  0.1900
 1656ntf    fn412683   3.957   3.580   3.556  0.0975  0.6110 -0.3021
 1656ntf    on512684   4.049   3.515   3.854 -0.2177  0.3057 -0.0281
 1656ntf    on512685   4.164   3.687   3.722  0.3608  0.0436  0.4352
 1656ntf    on512686   3.914   3.970   3.959 -0.4131 -0.1262 -0.0214
 1656ntf    on512687   4.031   3.962   3.739  0.1921  0.2188  0.1178
 1656ntf    fn412688   4.156   3.959   4.093 -0.1496  0.5767 -0.0524
 1656ntf    fn412689   4.270   3.872   3.935  0.0134  0.2746 -0.8042
 1656ntf    fn412690   4.217   4.074   3.921 -0.1078  0.1145 -0.3394
 1657ntf    cn112691   2.474   1.233   2.010  0.2901 -0.2290 -0.1522
 1657ntf    sn212692   2.583   1.290   1.876  0.3306 -0.3718 -0.1796
 1657ntf    nn312693   2.710   1.215   1.930  0.2789 -0.4095 -0.1105
 1657ntf    sn212694   2.834   1.174   1.842  0.2875 -0.0240 -0.2794
 1657ntf    cn112695   2.838   1.312   1.724 -0.3857  0.1958 -0.0528
 1657ntf    fn412696   2.360   1.301   2.011  0.2828 -0.2285 -0.7427
 1657ntf    fn412697   2.436   1.108   1.995 -0.2194 -0.0955 -0.0008
 1657ntf    fn412698   2.526   1.235   2.132  0.0177 -0.3039 -0.0348
 1657ntf    on512699   2.517   1.244   1.757 -0.2015  0.2374 -0.1255
 1657ntf    on512700   2.586   1.431   1.908 -0.0057 -0.3884 -0.0743
 1657ntf    on512701   2.824   1.046   1.777 -0.0030  0.0189 -0.3250
 1657ntf    on512702   2.957   1.198   1.913 -0.1007  0.8367  0.1181
 1657ntf    fn412703   2.729   1.325   1.650 -0.5552  0.1615  0.1889
 1657ntf    fn412704   2.868   1.428   1.781  0.0000  0.0155  0.1113
 1657ntf    fn412705   2.941   1.288   1.645  0.0164 -0.0748  0.5431
 1658ntf    cn112706   5.699   0.368   2.825 -0.1161  0.1465 -0.1127
 1658ntf    sn212707   5.600   0.216   2.814  0.0294  0.0521 -0.1185
 1658ntf    nn312708   5.623   0.178   2.664  0.2171  0.4449 -0.1906
 1658ntf    sn212709   5.527   0.173   2.540  0.1744  0.0387 -0.1413
 1658ntf    cn112710   5.539  -0.003   2.496  0.3937  0.0014  0.0689
 1658ntf    fn412711   5.644   0.463   2.751 -0.0175 -0.2855 -0.7450
 1658ntf    fn412712   5.711   0.416   2.948 -0.6214  1.3221 -0.5049
 1658ntf    fn412713   5.824   0.346   2.788 -0.1818  0.1541 -0.3403
 1658ntf    on512714   5.668   0.125   2.903  0.0204 -0.1020 -0.2692
 1658ntf    on512715   5.465   0.253   2.850 -0.0129 -0.1318 -0.0909
 1658ntf    on512716   5.579   0.240   2.423 -0.7164  0.2700 -0.4169
 1658ntf    on512717   5.387   0.194   2.568  0.1505  0.6274 -0.6645
 1658ntf    fn412718   5.664  -0.046   2.502  0.6762  0.6797 -0.6804
 1658ntf    fn412719   5.471  -0.081   2.579 -0.0049 -0.0980 -0.3506
 1658ntf    fn412720   5.494  -0.030   2.375  0.0420 -0.0672  0.2135
 1659ntf    cn112721   0.285   6.136   1.518  0.2137  0.1170 -0.1115
 1659ntf    sn212722   0.399   6.074   1.391 -0.2720  0.0493 -0.5149
 1659ntf    nn312723   0.514   6.020   1.483  0.1828  0.4386 -0.8533
 1659ntf    sn212724   0.632   6.091   1.559  0.0702 -0.0749 -0.1945
 1659ntf    cn112725   0.772   6.021   1.466  0.1705 -0.2423  0.0798
 1659ntf    fn412726   0.217   6.043   1.582 -0.3652  0.4062 -0.3022
 1659ntf    fn412727   0.340   6.219   1.606 -0.3364  0.3786 -0.0110
 1659ntf    fn412728   0.191   6.209   1.460 -0.0019 -0.3036 -0.2925
 1659ntf    on512729   0.328   5.966   1.326  0.2350 -0.7224  0.1822
 1659ntf    on512730   0.448   6.179   1.306  0.4031 -0.3728 -0.6578
 1659ntf    on512731   0.654   6.032   1.689 -0.2926  0.8711  0.3061
 1659ntf    on512732   0.643   6.233   1.539  0.5871 -0.0284  0.3983
 1659ntf    fn412733   0.884   6.012   1.535  0.3570  0.1885 -0.1643
 1659ntf    fn412734   0.750   5.897   1.424 -0.0202  0.1092 -0.8952
 1659ntf    fn412735   0.796   6.091   1.356 -0.0196  0.7070  0.6272
 1660ntf    cn112736   1.668   1.120   5.733 -0.4109 -0.1943 -0.2798
 1660ntf    sn212737   1.493   1.161   5.758 -0.3222  0.0873 -0.1151
 1660ntf    nn312738   1.467   1.106   5.903  0.0047 -0.1609 -0.1488
 1660ntf    sn212739   1.509   1.178   6.036 -0.2291 -0.2202 -0.0420
 1660ntf    cn112740   1.597   1.042   6.118 -0.0557  0.1298  0.3571
 1660ntf    fn412741   1.741   1.138   5.842 -0.0420  0.1211 -0.5776
 1660ntf    fn412742   1.684   0.991   5.708  0.4152 -0.2040  0.2839
 1660ntf    fn412743   1.723   1.200   5.643 -0.1196  0.2635  0.2965
 1660ntf    on512744   1.492   1.304   5.740 -0.1083  0.1075  0.0416
 1660ntf    on512745   1.425   1.077   5.662 -0.4811  0.1904 -0.0933
 1660ntf    on512746   1.398   1.209   6.122 -0.1439 -0.0952  0.0229
 1660ntf    on512747   1.614   1.276   6.023 -0.9853  0.5843 -0.1343
 1660ntf    fn412748   1.516   0.942   6.150 -0.1004  0.1012  0.1544
 1660ntf    fn412749   1.691   0.994   6.037 -0.3072  0.4965 -0.1561
 1660ntf    fn412750   1.670   1.073   6.224  0.0045 -0.0515  0.3704
 1661ntf    cn112751   1.288   3.640   1.839  0.3162 -0.0901 -0.0833
 1661ntf    sn212752   1.169   3.515   1.784  0.2776 -0.2248  0.3038
 1661ntf    nn312753   1.246   3.382   1.818  0.1081 -0.3421  0.2333
 1661ntf    sn212754   1.231   3.283   1.939 -0.0006 -0.2841  0.2685
 1661ntf    cn112755   1.190   3.137   1.839 -0.0957  0.1359 -0.3106
 1661ntf    fn412756   1.309   3.621   1.968 -0.4062  0.0248  0.0571
 1661ntf    fn412757   1.400   3.637   1.770  0.4984  0.2215  0.1944
 1661ntf    fn412758   1.239   3.762   1.824 -0.4114 -0.4477 -0.6842
 1661ntf    on512759   1.045   3.539   1.855  0.2077 -0.0769  0.1308
 1661ntf    on512760   1.167   3.545   1.643 -0.1876  0.1990  0.3977
 1661ntf    on512761   1.114   3.303   2.019  0.1282 -0.2379  0.4445
 1661ntf    on512762   1.355   3.254   2.008  0.2831 -0.1189 -0.1670
 1661ntf    fn412763   1.180   3.029   1.915 -0.1438 -0.0116 -0.5231
 1661ntf    fn412764   1.080   3.152   1.767 -0.5870  0.1947  0.4407
 1661ntf    fn412765   1.286   3.106   1.754  0.1645  0.0198  0.0249
 1662ntf    cn112766   1.770   4.060   5.960  0.0310 -0.4148  0.2990
 1662ntf    sn212767   1.692   3.897   5.935 -0.3605 -0.1773 -0.0352
 1662ntf    nn312768   1.711   3.867   5.782 -0.2113 -0.5514  0.0569
 1662ntf    sn212769   1.791   3.752   5.711 -0.0106 -0.3284 -0.0806
 1662ntf    cn112770   1.801   3.826   5.545  0.4103  0.1580  0.1618
 1662ntf    fn412771   1.878   4.075   5.884 -0.2504 -0.1003 -0.0418
 1662ntf    fn412772   1.689   4.162   5.937 -0.0420 -0.5435 -0.0300
 1662ntf    fn412773   1.814   4.070   6.084  0.1271  0.3162  0.2062
 1662ntf    on512774   1.762   3.807   6.023 -0.0246  0.1736  0.0605
 1662ntf    on512775   1.554   3.924   5.965 -0.1682 -0.1026  0.7961
 1662ntf    on512776   1.724   3.626   5.686 -0.2520 -0.1577 -0.2993
 1662ntf    on512777   1.928   3.744   5.753  0.0087 -0.0004 -0.0851
 1662ntf    fn412778   1.873   3.937   5.548  1.2624 -0.3928  0.3195
 1662ntf    fn412779   1.853   3.744   5.455 -0.7262  0.2917 -0.6441
 1662ntf    fn412780   1.681   3.858   5.500  0.3833  0.0114  0.1286
 1663ntf    cn112781   6.347   5.953   0.692 -0.0304  0.1526  0.3244
 1663ntf    sn212782   6.475   5.966   0.820  0.0926  0.0886  0.2082
 1663ntf    nn312783   6.534   6.109   0.789 -0.0087  0.0929  0.0385
 1663ntf    sn212784   6.642   6.143   0.680  0.0851  0.1547  0.1517
 1663ntf    cn112785   6.539   6.192   0.539  0.2559 -0.2274 -0.1096
 1663ntf    fn412786   6.292   6.070   0.666  0.5272  0.4048  0.2719
 1663ntf    fn412787   6.397   5.900   0.582 -0.3607  0.1530  0.1746
 1663ntf    fn412788   6.253   5.867   0.726  0.0169  0.0568  0.2145
 1663ntf    on512789   6.396   5.975   0.940 -0.2808  0.1819 -0.0440
 1663ntf    on512790   6.562   5.852   0.809  0.0038  0.0493 -0.0747
 1663ntf    on512791   6.721   6.034   0.627 -0.3944 -0.3427  0.4472
 1663ntf    on512792   6.708   6.267   0.714 -0.3041  0.3164  0.3248
 1663ntf    fn412793   6.463   6.091   0.501 -0.2912  0.1213  0.0388
 1663ntf    fn412794   6.459   6.292   0.574  0.0788 -0.3936 -0.0394
 1663ntf    fn412795   6.603   6.231   0.430  0.0871 -0.5462 -0.3210
 1664ntf    cn112796   3.098   0.993   2.624  0.2723  0.0105 -0.3416
 1664ntf    sn212797   3.115   0.815   2.656  0.1414  0.1808  0.6971
 1664ntf    nn312798   3.115   0.765   2.507 -0.2947  0.1611  0.7024
 1664ntf    sn212799   3.074   0.623   2.455 -0.1876  0.3043  0.2148
 1664ntf    cn112800   2.898   0.666   2.443 -0.3636 -0.4125  0.1828
 1664ntf    fn412801   3.190   1.036   2.539  0.9504  0.4607  0.6140
 1664ntf    fn412802   2.980   1.017   2.568  0.3397  0.1935 -0.4066
 1664ntf    fn412803   3.101   1.081   2.722 -1.1273  0.2291 -0.4720
 1664ntf    on512804   3.242   0.795   2.721  0.1427 -0.1664  0.5924
 1664ntf    on512805   2.992   0.791   2.729  0.1232  0.4954  0.7709
 1664ntf    on512806   3.084   0.507   2.541  0.4783  0.2043  0.0048
 1664ntf    on512807   3.110   0.612   2.316  0.9147  0.1670  0.5022
 1664ntf    fn412808   2.844   0.582   2.356  0.1371 -0.3255 -0.2163
 1664ntf    fn412809   2.836   0.657   2.560 -0.6046  0.7144  0.1539
 1664ntf    fn412810   2.884   0.788   2.394  0.7063 -0.4142 -0.1471
 1665ntf    cn112811   5.759   1.704   3.808  0.0552  0.2176 -0.4065
 1665ntf    sn212812   5.756   1.730   3.988  0.0096 -0.3414 -0.3223
 1665ntf    nn312813   5.695   1.875   3.983  0.0991 -0.2727  0.5329
 1665ntf    sn212814   5.565   1.920   4.059 -0.1381 -0.1152  0.0328
 1665ntf    cn112815   5.423   1.829   3.990 -0.2487 -0.0840  0.2205
 1665ntf    fn412816   5.833   1.600   3.773 -0.0465  0.1058 -0.2934
 1665ntf    fn412817   5.635   1.679   3.766  0.0068 -0.1498 -0.0469
 1665ntf    fn412818   5.805   1.811   3.746  0.5868  0.1941 -0.0591
 1665ntf    on512819   5.658   1.632   4.027 -0.1868 -0.0071  0.0294
 1665ntf    on512820   5.890   1.716   4.041  0.0378  0.6548 -0.1010
 1665ntf    on512821   5.534   2.054   4.015  0.1736 -0.0398  0.0402
 1665ntf    on512822   5.551   1.897   4.200  0.1153  0.1894  0.1054
 1665ntf    fn412823   5.307   1.879   4.031 -0.1312  0.0906  0.3378
 1665ntf    fn412824   5.416   1.831   3.858  0.1381 -0.4906  0.1926
 1665ntf    fn412825   5.419   1.705   4.035  0.1161 -0.2567 -0.2254
 1666ntf    cn112826   3.095   0.080   4.358 -0.0210  0.0769  0.3194
 1666ntf    sn212827   3.215  -0.054   4.385  0.0026  0.0169 -0.0698
 1666ntf    nn312828   3.346   0.018   4.435 -0.0294  0.2293 -0.2892
 1666ntf    sn212829   3.382   0.047   4.585 -0.4473 -0.1961 -0.1023
 1666ntf    cn112830   3.519   0.163   4.555 -0.2572 -0.2894  0.3949
 1666ntf    fn412831   3.147   0.149   4.257  0.1591 -0.2116  0.2133
 1666ntf    fn412832   2.978   0.033   4.319  0.0108  0.2792 -0.0188
 1666ntf    fn412833   3.073   0.163   4.458  0.0490  0.2833  0.1635
 1666ntf    on512834   3.157  -0.147   4.479  0.1055 -0.3122 -0.3320
 1666ntf    on512835   3.240  -0.111   4.255 -0.0946 -0.0075 -0.0775
 1666ntf    on512836   3.455  -0.063   4.644  0.3125  0.2868 -0.1266
 1666ntf    on512837   3.293   0.108   4.680 -0.3030 -0.7864  0.4267
 1666ntf    fn412838   3.583   0.195   4.667  0.0018  0.9074 -0.0752
 1666ntf    fn412839   3.612   0.115   4.476 -0.4693 -0.4741  0.2572
 1666ntf    fn412840   3.481   0.281   4.508  0.0858 -0.5024 -0.4301
 1667ntf    cn112841   4.709   2.894   6.619  0.3102  0.0140  0.2192
 1667ntf    sn212842   4.801   2.751   6.680  0.4598 -0.0767 -0.2109
 1667ntf    nn312843   4.689   2.641   6.685  0.3865  0.0134  0.1887
 1667ntf    sn212844   4.703   2.484   6.690 -0.3502 -0.0674 -0.1359
 1667ntf    cn112845   4.668   2.439   6.517 -0.3121  0.4872 -0.2920
 1667ntf    fn412846   4.780   3.005   6.604  0.7114 -0.3036 -0.3036
 1667ntf    fn412847   4.647   2.866   6.505 -0.6195  0.6775  0.5475
 1667ntf    fn412848   4.609   2.919   6.702 -0.1602 -0.4149 -0.2126
 1667ntf    on512849   4.907   2.738   6.583  0.7570  0.3804  0.0484
 1667ntf    on512850   4.848   2.797   6.809  0.2696  0.3175 -0.2839
 1667ntf    on512851   4.592   2.425   6.759 -0.1825  0.4345  0.5771
 1667ntf    on512852   4.837   2.437   6.716 -0.2920 -0.0607 -0.4141
 1667ntf    fn412853   4.609   2.321   6.509 -0.1436  0.3815  0.0002
 1667ntf    fn412854   4.588   2.524   6.455 -0.2969  0.4275 -0.3937
 1667ntf    fn412855   4.785   2.442   6.456 -0.1192  0.0840  0.0524
 1668ntf    cn112856   3.649   2.615   4.770  0.1921  0.0803  0.0659
 1668ntf    sn212857   3.633   2.480   4.650  0.0261  0.3639 -0.2300
 1668ntf    nn312858   3.516   2.394   4.711  0.1033  0.4568  0.0489
 1668ntf    sn212859   3.368   2.432   4.680 -0.0757 -0.1099  0.1878
 1668ntf    cn112860   3.281   2.334   4.806 -0.1687 -0.2217  0.0365
 1668ntf    fn412861   3.558   2.711   4.762  0.1277 -0.0065 -0.2538
 1668ntf    fn412862   3.633   2.582   4.898  0.4594  0.0138  0.0839
 1668ntf    fn412863   3.766   2.675   4.758  0.4144 -0.2296  0.6253
 1668ntf    on512864   3.602   2.544   4.524  0.4623  0.4768 -0.2787
 1668ntf    on512865   3.755   2.404   4.648  0.0561  0.3864  0.6427
 1668ntf    on512866   3.316   2.383   4.554 -0.3013  0.8104 -0.0936
 1668ntf    on512867   3.327   2.566   4.714  0.0763 -0.0203  0.0196
 1668ntf    fn412868   3.309   2.378   4.927 -0.1467 -0.6332  0.1822
 1668ntf    fn412869   3.149   2.331   4.797 -0.1772  0.2284  0.0009
 1668ntf    fn412870   3.328   2.210   4.795 -0.4197 -0.3354  0.2426
 1669ntf    cn112871   5.673   6.046   0.716 -0.0047  0.2900  0.0041
 1669ntf    sn212872   5.786   6.188   0.713  0.1211  0.1957  0.2266
 1669ntf    nn312873   5.684   6.306   0.732 -0.1123  0.0936 -0.3580
 1669ntf    sn212874   5.574   6.372   0.642 -0.2632  0.1464 -0.1357
 1669ntf    cn112875   5.670   6.500   0.555 -0.2680 -0.1106 -0.5202
 1669ntf    fn412876   5.618   6.011   0.601  0.2933  0.1723 -0.1042
 1669ntf    fn412877   5.733   5.938   0.764  0.1165  0.3950  0.0888
 1669ntf    fn412878   5.563   6.066   0.787 -0.1771 -0.3758 -0.0734
 1669ntf    on512879   5.872   6.170   0.827  0.6100  0.4823 -0.0927
 1669ntf    on512880   5.844   6.182   0.581  0.1515 -0.3897  0.2642
 1669ntf    on512881   5.479   6.457   0.710  0.2919  0.4442  0.2769
 1669ntf    on512882   5.534   6.289   0.532  0.5140  0.5634 -0.7438
 1669ntf    fn412883   5.591   6.590   0.500 -0.3553 -0.1993 -0.5398
 1669ntf    fn412884   5.760   6.561   0.631  0.3132 -0.7264 -0.7028
 1669ntf    fn412885   5.730   6.444   0.451  0.1601 -0.9300  0.1569
 1670ntf    cn112886   4.247   5.316   2.562  0.3377  0.0780 -0.3614
 1670ntf    sn212887   4.289   5.139   2.567  0.0782  0.0190 -0.2408
 1670ntf    nn312888   4.305   5.120   2.412  0.1520  0.1665 -0.2524
 1670ntf    sn212889   4.222   5.041   2.305  0.3075 -0.2127 -0.0950
 1670ntf    cn112890   4.301   4.878   2.286 -0.2520 -0.4730 -0.2314
 1670ntf    fn412891   4.234   5.365   2.684 -0.1105  0.0103 -0.3811
 1670ntf    fn412892   4.345   5.387   2.506  0.1021  0.1288 -0.7135
 1670ntf    fn412893   4.137   5.340   2.493  0.0545  0.4969  0.2268
 1670ntf    on512894   4.413   5.123   2.638 -0.1071 -0.6390 -0.0626
 1670ntf    on512895   4.173   5.076   2.624  0.2007  0.0922  0.0897
 1670ntf    on512896   4.258   5.098   2.178  0.6831  0.0986  0.1509
 1670ntf    on512897   4.079   5.031   2.323  0.2540  0.3726 -0.1961
 1670ntf    fn412898   4.423   4.874   2.236 -0.2320 -0.7125 -0.1625
 1670ntf    fn412899   4.318   4.814   2.401 -0.0400 -0.1219 -0.0649
 1670ntf    fn412900   4.225   4.806   2.206 -0.1583  0.3486 -1.0754
 1671ntf    cn112901   4.604   1.938   1.913  0.0549  0.2102  0.3250
 1671ntf    sn212902   4.507   1.945   2.066 -0.1238 -0.1823  0.2292
 1671ntf    nn312903   4.364   1.963   2.004  0.0362  0.5071  0.0599
 1671ntf    sn212904   4.244   1.865   1.979  0.1673  0.3974 -0.1433
 1671ntf    cn112905   4.159   1.939   1.836 -0.4412  0.0235  0.0197
 1671ntf    fn412906   4.553   1.853   1.826 -0.1733  0.1898  0.4767
 1671ntf    fn412907   4.619   2.052   1.847  0.3995 -0.3868 -0.6376
 1671ntf    fn412908   4.724   1.894   1.949  0.2984  0.2536 -0.4147
 1671ntf    on512909   4.533   1.820   2.134  0.2043 -0.2505 -0.0241
 1671ntf    on512910   4.555   2.066   2.128 -0.3896  0.0246  0.0334
 1671ntf    on512911   4.151   1.858   2.089  0.3983 -0.2221  0.0124
 1671ntf    on512912   4.281   1.745   1.908 -0.0828  0.0549  0.3003
 1671ntf    fn412913   4.091   1.840   1.782  0.2153 -0.2963 -0.2218
 1671ntf    fn412914   4.082   2.045   1.859 -0.4789 -0.0673  0.3205
 1671ntf    fn412915   4.253   1.975   1.750 -0.0502 -1.0130  0.0012
 1672ntf    cn112916   1.161   4.891   5.280 -0.1675 -0.0271 -0.4816
 1672ntf    sn212917   1.019   4.926   5.388  0.1029 -0.3907 -0.0041
 1672ntf    nn312918   0.953   5.040   5.304 -0.3388 -0.4890  0.2081
 1672ntf    sn212919   0.834   5.025   5.202 -0.1053  0.1453 -0.1658
 1672ntf    cn112920   0.694   5.032   5.317  0.0108 -0.0651 -0.0097
 1672ntf    fn412921   1.224   5.001   5.243 -0.1320  0.1116 -0.0081
 1672ntf    fn412922   1.254   4.824   5.346 -0.1446 -0.3718 -0.8604
 1672ntf    fn412923   1.131   4.818   5.174 -0.5032 -0.2483 -0.2367
 1672ntf    on512924   0.936   4.808   5.397 -0.1778 -0.1444  0.6933
 1672ntf    on512925   1.079   4.976   5.509  0.0527  0.1233 -0.1919
 1672ntf    on512926   0.804   4.903   5.130 -0.2748  0.1505 -0.1048
 1672ntf    on512927   0.826   5.149   5.129  0.2027  0.2050 -0.0996
 1672ntf    fn412928   0.666   4.921   5.382  0.7596 -0.0044  0.4190
 1672ntf    fn412929   0.696   5.124   5.412  0.8529  0.3420 -0.4124
 1672ntf    fn412930   0.585   5.058   5.247  0.1300  0.4661 -0.0024
 1673ntf    cn112931   0.850   2.030   1.945  0.1566 -0.2221 -0.1351
 1673ntf    sn212932   0.724   2.145   2.007  0.2713 -0.2016  0.0603
 1673ntf    nn312933   0.714   2.095   2.156  0.2264 -0.1160  0.0858
 1673ntf    sn212934   0.623   1.977   2.205 -0.0909  0.0419 -0.1146
 1673ntf    cn112935   0.556   2.058   2.353  0.1026  0.2759 -0.1544
 1673ntf    fn412936   0.872   2.040   1.815 -0.0476  0.2668 -0.1343
 1673ntf    fn412937   0.962   2.049   2.013  0.0936  0.1837 -0.1433
 1673ntf    fn412938   0.820   1.904   1.974 -0.1593 -0.1674 -0.2160
 1673ntf    on512939   0.782   2.277   1.997  0.2213 -0.1112  0.8563
 1673ntf    on512940   0.613   2.128   1.917 -0.3351 -0.0187  0.7649
 1673ntf    on512941   0.698   1.865   2.256 -0.6105 -0.3248 -0.1495
 1673ntf    on512942   0.518   1.948   2.111  0.0208 -0.1267 -0.1886
 1673ntf    fn412943   0.479   1.977   2.424  0.1289  0.3768 -0.0108
 1673ntf    fn412944   0.652   2.090   2.439 -0.1356 -0.4759  0.4045
 1673ntf    fn412945   0.492   2.169   2.323 -0.1163  0.3090  0.4261
 1674ntf    cn112946   0.292   3.434   2.245  0.0357  0.1573  0.5679
 1674ntf    sn212947   0.389   3.496   2.104 -0.0898 -0.4274  0.2193
 1674ntf    nn312948   0.279   3.482   1.993 -0.0716  0.1345  0.1255
 1674ntf    sn212949   0.286   3.545   1.850 -0.4154  0.1514  0.1147
 1674ntf    cn112950   0.298   3.393   1.751  0.1048 -0.0792  0.5298
 1674ntf    fn412951   0.367   3.407   2.351  0.4972 -0.4477  0.0920
 1674ntf    fn412952   0.198   3.515   2.290 -0.0845  0.3846 -0.0827
 1674ntf    fn412953   0.232   3.320   2.215  0.3656  0.0454  0.3389
 1674ntf    on512954   0.414   3.629   2.153 -0.0404 -0.3297 -0.0686
 1674ntf    on512955   0.500   3.405   2.093  0.1577 -0.2047  0.8279
 1674ntf    on512956   0.412   3.607   1.818 -0.2582 -0.1945  0.0665
 1674ntf    on512957   0.161   3.603   1.806 -0.5986 -0.3823 -0.0775
 1674ntf    fn412958   0.405   3.329   1.795 -0.0504 -0.1191  0.8535
 1674ntf    fn412959   0.193   3.313   1.752 -0.2538  0.3634 -0.3971
 1674ntf    fn412960   0.323   3.407   1.622  0.1592 -0.0743  0.5408
 1675ntf    cn112961   3.878   5.594   3.367 -0.1219 -0.5254  0.5948
 1675ntf    sn212962   3.750   5.602   3.238  0.3111 -0.1044  0.1862
 1675ntf    nn312963   3.702   5.750   3.258 -0.4169 -0.3442  0.2525
 1675ntf    sn212964   3.605   5.805   3.368 -0.1437 -0.0856  0.3619
 1675ntf    cn112965   3.700   5.956   3.407 -0.4011  0.1616  0.0329
 1675ntf    fn412966   3.958   5.491   3.345  0.2395 -0.2972  0.8324
 1675ntf    fn412967   3.947   5.707   3.368 -0.3909 -0.3519 -0.0491
 1675ntf    fn412968   3.826   5.580   3.488 -0.1755 -0.0135  0.6366
 1675ntf    on512969   3.815   5.590   3.110  0.0567 -0.0401  0.0501
 1675ntf    on512970   3.660   5.497   3.280  0.0062  0.1690  0.2171
 1675ntf    on512971   3.597   5.738   3.495 -0.1240 -0.0027  0.4071
 1675ntf    on512972   3.478   5.852   3.319  0.1902  0.0160 -0.4127
 1675ntf    fn412973   3.727   6.021   3.295 -0.7548  0.6076  0.2013
 1675ntf    fn412974   3.627   6.035   3.484 -0.3857  0.4225 -0.2199
 1675ntf    fn412975   3.813   5.926   3.467  0.0372 -0.2185 -0.9614
 1676ntf    cn112976   0.069   0.016   6.373 -0.2944 -0.0075 -0.1056
 1676ntf    sn212977  -0.033   0.162   6.411 -0.1326  0.0480  0.1154
 1676ntf    nn312978   0.082   0.268   6.423  0.2513 -0.3633  0.1229
 1676ntf    sn212979   0.119   0.368   6.539  0.1105 -0.1662 -0.0006
 1676ntf    cn112980   0.268   0.432   6.456  0.0541  0.0521  0.0659
 1676ntf    fn412981   0.176  -0.006   6.448 -0.1994 -0.1132 -0.2714
 1676ntf    fn412982  -0.005  -0.093   6.391  0.3880 -0.3915  0.4210
 1676ntf    fn412983   0.106   0.010   6.247 -0.4614 -0.5823 -0.1319
 1676ntf    on512984  -0.103   0.184   6.287 -0.2713 -0.0480  0.1769
 1676ntf    on512985  -0.108   0.119   6.527 -0.2807 -0.5779 -0.2110
 1676ntf    on512986   0.163   0.313   6.665  0.3544  0.2058  0.0767
 1676ntf    on512987   0.031   0.482   6.550  0.5929  0.1745  0.3264
 1676ntf    fn412988   0.255   0.435   6.325 -0.1463  0.1581  0.0871
 1676ntf    fn412989   0.308   0.551   6.499  0.1407 -0.2074  0.7214
 1676ntf    fn412990   0.374   0.356   6.481 -0.1995 -0.3476 -0.0588
 1677ntf    cn112991   6.548   2.652   5.140  0.3684 -0.0181  0.0968
 1677ntf    sn212992   6.382   2.647   5.214  0.2631 -0.1040 -0.1447
 1677ntf    nn312993   6.391   2.769   5.312  0.4974 -0.2777  0.0526
 1677ntf    sn212994   6.419   2.784   5.466 -0.2308 -0.2891  0.1917
 1677ntf    cn112995   6.558   2.899   5.445 -0.3135 -0.2180  0.0288
 1677ntf    fn412996   6.570   2.782   5.126 -0.1556  0.0034 -0.5967
 1677ntf    fn412997   6.644   2.599   5.214 -0.0755 -0.4460  0.3798
 1677ntf    fn412998   6.554   2.590   5.024  0.5877 -0.0449  0.1226
 1677ntf    on512999   6.285   2.673   5.110 -0.4170 -0.5199  0.3721
 1677ntf    on513000   6.368   2.516   5.273 -0.0651 -0.1458 -0.3116
 1677ntf    on513001   6.465   2.665   5.533  0.7999 -0.1632 -0.2701
 1677ntf    on513002   6.331   2.861   5.551  0.3196  0.8981 -0.2829
 1677ntf    fn413003   6.634   2.898   5.553 -0.5719  0.3252  0.2154
 1677ntf    fn413004   6.636   2.857   5.347  0.2206  0.3944  0.1800
 1677ntf    fn413005   6.529   3.023   5.411  0.4663  0.0336  0.2563
 1678ntf    cn113006   0.430   2.349   2.606 -0.5606 -0.1320 -0.1936
 1678ntf    sn213007   0.292   2.467   2.597 -0.2743  0.2520  0.3538
 1678ntf    nn313008   0.368   2.604   2.588  0.2493 -0.0443  0.1930
 1678ntf    sn213009   0.337   2.735   2.508  0.2304 -0.0843  0.1348
 1678ntf    cn113010   0.427   2.858   2.607 -0.0367  0.2077  0.0171
 1678ntf    fn413011   0.398   2.222   2.591 -0.3743 -0.2122  0.0771
 1678ntf    fn413012   0.520   2.384   2.516  0.0984 -0.6882  0.2337
 1678ntf    fn413013   0.491   2.348   2.724  0.1846  0.5807 -0.5599
 1678ntf    on513014   0.213   2.413   2.489  0.4407  0.2752 -0.1861
 1678ntf    on513015   0.225   2.461   2.725 -0.1194 -0.8051  0.3942
 1678ntf    on513016   0.200   2.782   2.513  0.0797 -0.4986 -0.0632
 1678ntf    on513017   0.397   2.738   2.377 -0.4220 -0.0243 -0.1687
 1678ntf    fn413018   0.365   2.868   2.724 -0.1716 -0.5227  0.0109
 1678ntf    fn413019   0.550   2.814   2.624  0.0530  0.3359 -0.2909
 1678ntf    fn413020   0.430   2.979   2.555  0.3374  0.3916  0.4633
 1679ntf    cn113021   4.730   2.207   2.809 -0.0252 -0.0378 -0.3516
 1679ntf    sn213022   4.630   2.129   2.938 -0.2727  0.0826 -0.4708
 1679ntf    nn313023   4.539   2.038   2.848 -0.4568 -0.5160  0.3078
 1679ntf    sn213024   4.394   1.984   2.879 -0.4171 -0.7485  0.0857
 1679ntf    cn113025   4.443   1.868   3.010 -0.2557 -0.5834  0.1727
 1679ntf    fn413026   4.777   2.111   2.731  0.6542 -0.2044  0.2546
 1679ntf    fn413027   4.665   2.292   2.732  0.5531  0.2196 -0.5677
 1679ntf    fn413028   4.841   2.262   2.858 -0.0846  0.0062 -0.2655
 1679ntf    on513029   4.721   2.046   3.013 -0.4645 -0.4154 -0.7838
 1679ntf    on513030   4.561   2.242   2.997  0.5087  0.2638  0.1038
 1679ntf    on513031   4.347   1.891   2.779 -1.0955 -0.0839 -0.2174
 1679ntf    on513032   4.305   2.077   2.943  0.5504  0.2953 -0.0472
 1679ntf    fn413033   4.547   1.792   2.979 -0.0832 -0.4577  0.4373
 1679ntf    fn413034   4.466   1.937   3.120 -0.8847 -0.2878  0.1242
 1679ntf    fn413035   4.350   1.780   3.043 -0.6491  0.1778  1.1582
 1680ntf    cn113036   4.888   0.923   3.897 -0.0872  0.4857  0.3522
 1680ntf    sn213037   5.069   0.941   3.905 -0.0055 -0.1787  0.0543
 1680ntf    nn313038   5.087   1.097   3.908  0.3705 -0.2248  0.2073
 1680ntf    sn213039   5.089   1.201   4.026  0.1274  0.0682 -0.0449
 1680ntf    cn113040   5.257   1.268   4.010  0.1471 -0.0870 -0.5109
 1680ntf    fn413041   4.838   0.811   3.946  0.1787  0.0217 -0.4262
 1680ntf    fn413042   4.827   1.014   3.971 -0.7897  0.0765  0.2841
 1680ntf    fn413043   4.830   0.939   3.779 -0.1277 -0.0610  0.2971
 1680ntf    on513044   5.112   0.878   4.027 -0.5230 -0.0789  0.2933
 1680ntf    on513045   5.109   0.882   3.780 -0.7861 -0.2179 -0.1839
 1680ntf    on513046   5.077   1.149   4.160 -0.2471  0.4405  0.0653
 1680ntf    on513047   5.007   1.315   3.997  0.4674  0.3105 -0.0603
 1680ntf    fn413048   5.272   1.366   3.922 -0.7276 -0.0614 -0.6424
 1680ntf    fn413049   5.305   1.316   4.123 -0.2455 -0.5612 -0.1405
 1680ntf    fn413050   5.349   1.177   3.981  0.1221 -0.2873  0.0371
 1681ntf    cn113051   3.264   1.617   0.684  0.1326 -0.2905  0.2303
 1681ntf    sn213052   3.100   1.674   0.738  0.1477 -0.0098 -0.0179
 1681ntf    nn313053   3.001   1.562   0.689 -0.1368  0.0827  0.3486
 1681ntf    sn213054   2.978   1.421   0.753 -0.0940 -0.1813 -0.2150
 1681ntf    cn113055   2.858   1.460   0.884 -0.1834 -0.1661 -0.3020
 1681ntf    fn413056   3.357   1.697   0.735  0.3125  0.0108 -0.5582
 1681ntf    fn413057   3.294   1.492   0.715 -0.2875 -0.5790 -0.5034
 1681ntf    fn413058   3.266   1.628   0.552 -0.3342 -0.1892  0.2289
 1681ntf    on513059   3.103   1.678   0.882 -0.7133 -0.3830  0.0152
 1681ntf    on513060   3.077   1.801   0.673 -0.2250 -0.1858 -0.2326
 1681ntf    on513061   3.092   1.359   0.817 -0.2624 -0.5602 -0.2826
 1681ntf    on513062   2.895   1.351   0.659 -0.7967  0.2677  0.0626
 1681ntf    fn413063   2.748   1.509   0.829 -0.1771 -0.3539 -0.4844
 1681ntf    fn413064   2.825   1.350   0.949  0.2910  0.0750  0.3486
 1681ntf    fn413065   2.898   1.545   0.977 -0.5765  0.2772 -0.5308
 1682ntf    cn113066   0.635   6.300   5.138  0.0191  0.2163  0.1071
 1682ntf    sn213067   0.606   6.174   5.010  0.3862  0.0322  0.2038
 1682ntf    nn313068   0.453   6.141   5.024  0.2846  0.1460 -0.5860
 1682ntf    sn213069   0.359   6.043   4.946  0.1633 -0.1655 -0.0490
 1682ntf    cn113070   0.338   5.912   5.071  0.2126  0.1312  0.2694
 1682ntf    fn413071   0.763   6.319   5.166  0.0761  0.8428 -0.5355
 1682ntf    fn413072   0.601   6.420   5.093 -0.1613  0.2009  0.2038
 1682ntf    fn413073   0.581   6.279   5.257  0.0929  1.3650  0.3549
 1682ntf    on513074   0.640   6.244   4.888 -0.1506  0.1021  0.0948
 1682ntf    on513075   0.679   6.060   5.058 -0.0545 -0.0387  0.7152
 1682ntf    on513076   0.421   5.967   4.840  0.2309  0.0540 -0.1665
 1682ntf    on513077   0.222   6.083   4.928  0.1536  0.1107  0.6152
 1682ntf    fn413078   0.448   5.838   5.077  0.1098 -0.0100  0.4187
 1682ntf    fn413079   0.306   5.952   5.193  0.4280  0.0373  0.3569
 1682ntf    fn413080   0.242   5.830   5.033  0.2259  0.2273  0.0274
 1683ntf    cn113081   5.941   3.677   1.652 -0.3848  0.0897 -0.3001
 1683ntf    sn213082   5.882   3.844   1.611  0.1615  0.3609  0.0083
 1683ntf    nn313083   5.970   3.913   1.721  0.8365 -0.4181 -0.0360
 1683ntf    sn213084   6.066   4.036   1.704 -0.0605  0.3372  0.2949
 1683ntf    cn113085   5.946   4.172   1.711 -0.2423  0.2150 -0.3099
 1683ntf    fn413086   5.904   3.654   1.777 -0.4055  0.6911 -0.1894
 1683ntf    fn413087   5.889   3.581   1.578 -0.1376  0.0992 -0.4894
 1683ntf    fn413088   6.073   3.663   1.655 -0.3358  0.4408 -0.6499
 1683ntf    on513089   5.915   3.861   1.471  0.5614  0.3334  0.0973
 1683ntf    on513090   5.742   3.831   1.640  0.3176  0.1900  0.7063
 1683ntf    on513091   6.118   4.060   1.571  0.6680 -0.2480  0.4680
 1683ntf    on513092   6.156   4.058   1.814  0.5836 -0.2161 -0.1105
 1683ntf    fn413093   5.885   4.190   1.828  0.5789  0.7072  0.0522
 1683ntf    fn413094   5.996   4.286   1.666 -0.4361  0.3162 -0.2723
 1683ntf    fn413095   5.847   4.136   1.632 -0.4533  0.6843 -0.2681
 1684ntf    cn113096   1.988   4.368   4.520 -0.3266 -0.0050  0.2099
 1684ntf    sn213097   1.976   4.547   4.495  0.4255  0.0166 -0.0205
 1684ntf    nn313098   1.878   4.569   4.615 -0.0685 -0.4599 -0.3307
 1684ntf    sn213099   1.723   4.573   4.637 -0.0002 -0.6643  0.2047
 1684ntf    cn113100   1.689   4.751   4.617  0.0974 -0.6606  0.0692
 1684ntf    fn413101   2.060   4.315   4.422 -0.4439 -0.0215  0.1336
 1684ntf    fn413102   2.023   4.327   4.641  0.6323  0.9290  0.2714
 1684ntf    fn413103   1.873   4.304   4.511 -0.3229  0.0279 -0.0834
 1684ntf    on513104   2.111   4.588   4.524  0.4352 -0.1842  0.2131
 1684ntf    on513105   1.918   4.575   4.366 -0.0607 -0.1975  0.1529
 1684ntf    on513106   1.678   4.551   4.772  0.1670 -0.5493  0.2796
 1684ntf    on513107   1.645   4.506   4.536  0.2402 -0.0981 -0.3634
 1684ntf    fn413108   1.751   4.804   4.513 -0.3269  0.5780  0.4265
 1684ntf    fn413109   1.565   4.796   4.611  0.1412 -0.5327  0.1161
 1684ntf    fn413110   1.747   4.813   4.718 -0.3961  0.1395 -0.1315
 1685ntf    cn113111   4.635   1.385   6.639  0.0008 -0.0344 -0.0361
 1685ntf    sn213112   4.571   1.387   6.809  0.0397 -0.1209 -0.0206
 1685ntf    nn313113   4.651   1.514   6.856 -0.1290 -0.1508  0.3522
 1685ntf    sn213114   4.789   1.521   6.932  0.1449  0.4486 -0.1927
 1685ntf    cn113115   4.899   1.597   6.809  0.2204 -0.2910 -0.5871
 1685ntf    fn413116   4.752   1.325   6.625 -0.2636 -0.4009 -0.6937
 1685ntf    fn413117   4.551   1.317   6.563  0.0264  0.0866 -0.1738
 1685ntf    fn413118   4.658   1.502   6.582  0.1944 -0.3609 -0.6396
 1685ntf    on513119   4.431   1.411   6.789  0.0171 -0.5588 -0.4183
 1685ntf    on513120   4.614   1.261   6.866  0.4054  0.0258  0.0323
 1685ntf    on513121   4.848   1.395   6.969 -0.1730  0.2103 -0.4901
 1685ntf    on513122   4.780   1.624   7.033  0.0535  0.2850 -0.0323
 1685ntf    fn413123   5.020   1.611   6.861  0.2233  0.4540 -0.7835
 1685ntf    fn413124   4.902   1.538   6.691  0.0101 -0.0755 -0.7025
 1685ntf    fn413125   4.867   1.723   6.784 -0.5542 -0.2066  0.7261
 1686ntf    cn113126   4.801   0.986   1.689  0.4507  0.1146 -0.1499
 1686ntf    sn213127   4.621   1.000   1.712  0.3921 -0.3504 -0.3126
 1686ntf    nn313128   4.568   1.027   1.567  0.4228  0.0938 -0.2410
 1686ntf    sn213129   4.488   1.156   1.526  0.1726 -0.0392 -0.1730
 1686ntf    cn113130   4.570   1.180   1.366 -0.2513 -0.4501 -0.4520
 1686ntf    fn413131   4.848   1.078   1.606 -0.1078  0.6150  0.0837
 1686ntf    fn413132   4.870   1.004   1.800 -0.2490 -0.0702  0.3207
 1686ntf    fn413133   4.838   0.870   1.637 -0.1493  0.0795 -0.5107
 1686ntf    on513134   4.576   0.867   1.747 -0.4660 -0.1270 -0.5588
 1686ntf    on513135   4.606   1.109   1.805 -0.1530  0.2913 -1.1453
 1686ntf    on513136   4.512   1.285   1.587 -0.3029  0.2001 -0.4849
 1686ntf    on513137   4.354   1.129   1.482  0.1678  0.5703 -0.5481
 1686ntf    fn413138   4.590   1.069   1.296 -0.4449 -0.8371  0.1079
 1686ntf    fn413139   4.517   1.274   1.289 -0.4343  0.0794  0.3162
 1686ntf    fn413140   4.691   1.229   1.390 -0.4130 -0.2108 -0.1256
 1687ntf    cn113141   3.219   3.097   5.773 -0.1930 -0.0203  0.0354
 1687ntf    sn213142   3.218   2.989   5.627  0.0086  0.0974 -0.0551
 1687ntf    nn313143   3.189   3.096   5.516  0.0147 -0.2019 -0.3467
 1687ntf    sn213144   3.296   3.174   5.432  0.1845  0.2656  0.2928
 1687ntf    cn113145   3.222   3.340   5.441  0.0470  0.2050  0.2919
 1687ntf    fn413146   3.106   3.157   5.808  0.0237  0.2411  0.2976
 1687ntf    fn413147   3.262   3.025   5.875 -0.3170  0.0920  0.1665
 1687ntf    fn413148   3.299   3.201   5.751 -0.4575  0.1020 -0.3459
 1687ntf    on513149   3.346   2.925   5.641 -0.0989 -0.2014 -0.3957
 1687ntf    on513150   3.105   2.902   5.650 -0.4188  0.5480 -0.4332
 1687ntf    on513151   3.292   3.140   5.291 -0.0894 -0.1489  0.3993
 1687ntf    on513152   3.423   3.192   5.497  0.4519 -0.3840 -0.0405
 1687ntf    fn413153   3.315   3.427   5.404  0.7510 -0.4518  0.4814
 1687ntf    fn413154   3.118   3.357   5.362 -0.0309 -0.1792  0.3123
 1687ntf    fn413155   3.190   3.372   5.565 -0.0168  0.4089  0.2223
 1688ntf    cn113156   5.350   4.439   2.722  0.0234  0.1335 -0.4120
 1688ntf    sn213157   5.518   4.376   2.696 -0.0965 -0.3871  0.0486
 1688ntf    nn313158   5.591   4.492   2.773 -0.3580 -0.2050  0.0230
 1688ntf    sn213159   5.630   4.495   2.925  0.0345  0.0624 -0.0824
 1688ntf    cn113160   5.788   4.405   2.930 -0.0751 -0.1120  0.2206
 1688ntf    fn413161   5.338   4.571   2.717 -0.4555  0.0888 -0.4841
 1688ntf    fn413162   5.262   4.388   2.637 -0.3161 -0.2980  0.1887
 1688ntf    fn413163   5.305   4.432   2.846  0.1336 -0.0707 -0.3825
 1688ntf    on513164   5.514   4.247   2.759 -0.1945 -0.3434  0.1307
 1688ntf    on513165   5.533   4.381   2.552 -0.2240  0.0946  0.0515
 1688ntf    on513166   5.542   4.415   3.006  0.0106  0.0857 -0.0857
 1688ntf    on513167   5.676   4.623   2.972  0.7488 -0.1084 -0.2961
 1688ntf    fn413168   5.895   4.467   2.882 -0.3700 -0.0021 -0.2960
 1688ntf    fn413169   5.819   4.366   3.053  0.5178 -0.2972  0.0158
 1688ntf    fn413170   5.779   4.297   2.854 -0.3278  0.0118  0.0757
 1689ntf    cn113171   4.650   4.871   3.517  0.3162  0.4488  0.4433
 1689ntf    sn213172   4.474   4.870   3.563  0.1595 -0.1114 -0.1544
 1689ntf    nn313173   4.475   4.891   3.719  0.2769  0.5374 -0.2418
 1689ntf    sn213174   4.364   4.845   3.820  0.2663  0.0003 -0.4948
 1689ntf    cn113175   4.267   4.996   3.851  0.2837 -0.0355 -0.2666
 1689ntf    fn413176   4.723   4.779   3.578  0.1912 -0.2126 -0.3914
 1689ntf    fn413177   4.664   4.852   3.387  1.1335 -0.1031  0.6070
 1689ntf    fn413178   4.708   4.985   3.550 -0.2781  0.6435  0.8296
 1689ntf    on513179   4.428   4.988   3.494  0.3598  0.4548  0.6715
 1689ntf    on513180   4.428   4.745   3.507 -0.4651  0.0579 -0.0312
 1689ntf    on513181   4.428   4.822   3.947  0.3765 -0.0775 -0.5645
 1689ntf    on513182   4.269   4.744   3.781 -0.0438  0.1712 -0.1861
 1689ntf    fn413183   4.344   5.104   3.858  0.3868 -0.1162 -0.1451
 1689ntf    fn413184   4.180   5.023   3.755  0.4858  0.5954 -0.2766
 1689ntf    fn413185   4.196   4.988   3.962  0.0563  0.0885 -0.4025
 1690ntf    cn113186   4.379   6.629   0.142  0.4443  0.4474 -0.2212
 1690ntf    sn213187   4.400   6.781   0.240 -0.5049  0.3927  0.0797
 1690ntf    nn313188   4.344   6.887   0.138  0.1090  0.1178 -0.5557
 1690ntf    sn213189   4.195   6.933   0.119  0.0538  0.1148 -0.1463
 1690ntf    cn113190   4.207   7.074   0.233  0.6159 -0.3402  0.3645
 1690ntf    fn413191   4.251   6.628   0.106  0.2867 -0.2277  0.3388
 1690ntf    fn413192   4.459   6.623   0.037  0.6136 -0.4703 -0.0517
 1690ntf    fn413193   4.404   6.523   0.218 -0.1261  0.5905  0.1726
 1690ntf    on513194   4.327   6.744   0.359 -0.1024 -0.1273  0.1694
 1690ntf    on513195   4.541   6.805   0.253 -0.4551  0.3259 -0.3164
 1690ntf    on513196   4.088   6.854   0.175 -0.0083  0.2617 -0.0578
 1690ntf    on513197   4.165   6.996  -0.007 -0.1770 -0.7055 -0.5101
 1690ntf    fn413198   4.087   7.120   0.265  0.4034 -0.6590  0.0332
 1690ntf    fn413199   4.266   7.038   0.346  0.4455 -0.5109  0.4003
 1690ntf    fn413200   4.281   7.177   0.197  0.0564 -0.1034 -0.1301
 1691ntf    cn113201   2.670   3.866   3.552 -0.1043 -0.0145  0.1542
 1691ntf    sn213202   2.814   3.792   3.470 -0.2317  0.0174 -0.0971
 1691ntf    nn313203   2.767   3.785   3.320 -0.1198  0.0281 -0.1328
 1691ntf    sn213204   2.705   3.668   3.235  0.2344 -0.0953 -0.2207
 1691ntf    cn113205   2.599   3.765   3.123  0.0412  0.3736  0.3665
 1691ntf    fn413206   2.710   3.947   3.648 -0.1200 -0.1485  0.2753
 1691ntf    fn413207   2.585   3.932   3.475  0.5699  0.0180 -0.5687
 1691ntf    fn413208   2.594   3.772   3.608 -0.6092  0.1889 -0.1819
 1691ntf    on513209   2.916   3.890   3.492 -0.3438  0.1281 -0.0722
 1691ntf    on513210   2.842   3.664   3.530  0.1784  0.0708 -0.1755
 1691ntf    on513211   2.616   3.584   3.310  0.7096  0.0141  0.4717
 1691ntf    on513212   2.803   3.603   3.151  0.4286 -0.0276 -0.0458
 1691ntf    fn413213   2.526   3.849   3.195 -0.2225  0.4156  0.0510
 1691ntf    fn413214   2.669   3.836   3.037  0.2093 -0.3670 -0.1199
 1691ntf    fn413215   2.518   3.686   3.055  0.2151  0.3110  0.2330
 1692ntf    cn113216   2.823   2.396   3.387 -0.2390 -0.0916  0.3375
 1692ntf    sn213217   2.905   2.539   3.312 -0.1622 -0.3449 -0.0647
 1692ntf    nn313218   2.792   2.589   3.215  0.0688 -0.0262 -0.1728
 1692ntf    sn213219   2.785   2.729   3.144  0.0416  0.1391  0.1541
 1692ntf    cn113220   2.674   2.815   3.260  0.2147  0.4060  0.1205
 1692ntf    fn413221   2.735   2.438   3.476 -0.7088 -0.0550 -0.1376
 1692ntf    fn413222   2.752   2.324   3.301  0.3501 -0.3265  0.0417
 1692ntf    fn413223   2.904   2.316   3.455  0.0931 -0.2375 -0.2283
 1692ntf    on513224   2.923   2.622   3.429  0.1655 -0.2708 -0.1659
 1692ntf    on513225   3.023   2.484   3.250 -0.0317 -0.1713  0.0278
 1692ntf    on513226   2.702   2.716   3.027  0.5733 -0.3734 -0.1752
 1692ntf    on513227   2.900   2.814   3.137  0.1575 -0.0275  0.0316
 1692ntf    fn413228   2.708   2.799   3.387  0.6635 -0.3409 -0.0842
 1692ntf    fn413229   2.681   2.946   3.246  0.6132  0.3467 -0.2554
 1692ntf    fn413230   2.547   2.779   3.255  0.2576  0.2532  0.1169
 1693ntf    cn113231   3.900   5.711   5.749 -0.1657 -0.0589  0.1150
 1693ntf    sn213232   3.837   5.834   5.867  0.2276  0.1390  0.1183
 1693ntf    nn313233   3.939   5.827   5.986  0.3871  0.0622 -0.0223
 1693ntf    sn213234   3.911   5.812   6.140  0.1592 -0.3663 -0.1036
 1693ntf    cn113235   3.903   5.988   6.184  0.6606 -0.4184  0.2059
 1693ntf    fn413236   3.908   5.594   5.810 -0.3094  0.0864  0.4118
 1693ntf    fn413237   3.826   5.702   5.639 -0.6510 -0.0172  0.4334
 1693ntf    fn413238   4.023   5.740   5.711 -0.1436 -0.0097  0.2273
 1693ntf    on513239   3.862   5.954   5.790 -0.3835  0.2716  0.1192
 1693ntf    on513240   3.701   5.795   5.892  0.2306  0.0541  0.0008
 1693ntf    on513241   4.031   5.766   6.205  0.9858  0.6504 -0.8847
 1693ntf    on513242   3.785   5.757   6.184  0.0156 -0.4230 -0.5750
 1693ntf    fn413243   4.012   6.047   6.139 -0.1612  0.7461 -0.3182
 1693ntf    fn413244   3.804   6.047   6.119  0.7040  0.0360  0.5514
 1693ntf    fn413245   3.885   6.008   6.313 -0.5454 -0.2980  0.0341
 1694ntf    cn113246   6.048   3.355   4.686 -0.2005  0.3206  0.2903
 1694ntf    sn213247   6.006   3.225   4.566  0.0003  0.5379 -0.0141
 1694ntf    nn313248   5.878   3.165   4.633  0.2689  0.3050  0.2939
 1694ntf    sn213249   5.874   3.031   4.714 -0.1542  0.0697 -0.1102
 1694ntf    cn113250   5.824   2.913   4.584 -0.5206  0.1962 -0.0869
 1694ntf    fn413251   6.178   3.377   4.679 -0.1210 -0.1529  0.2294
 1694ntf    fn413252   5.990   3.472   4.665 -0.0807  0.3365  0.0559
 1694ntf    fn413253   6.019   3.310   4.807 -0.2679 -0.1121  0.1163
 1694ntf    on513254   5.981   3.299   4.444  0.0491 -0.0495 -0.3825
 1694ntf    on513255   6.122   3.139   4.560 -0.4070  0.0015 -0.2875
 1694ntf    on513256   5.763   3.023   4.805 -0.1101 -0.6771 -0.1163
 1694ntf    on513257   5.995   2.985   4.778 -0.5143  0.6152  0.9670
 1694ntf    fn413258   5.760   2.809   4.635  0.6982 -0.3819  0.3234
 1694ntf    fn413259   5.747   2.972   4.495  0.0589  0.2728 -0.5432
 1694ntf    fn413260   5.931   2.873   4.517 -0.4826  0.0104  0.0824
 1695ntf    cn113261   3.752   1.625   3.436  0.2766 -0.0880  0.1176
 1695ntf    sn213262   3.784   1.804   3.430 -0.2299 -0.0007  0.0064
 1695ntf    nn313263   3.641   1.853   3.386 -0.1565  0.2048 -0.0035
 1695ntf    sn213264   3.585   1.875   3.241  0.1035 -0.0084 -0.1378
 1695ntf    cn113265   3.633   2.050   3.221  0.0353 -0.0579 -0.7466
 1695ntf    fn413266   3.752   1.572   3.314  0.3122 -0.0868  0.1173
 1695ntf    fn413267   3.846   1.555   3.498  0.1235 -0.3653  0.0375
 1695ntf    fn413268   3.635   1.603   3.492  0.0464  0.0520 -0.3016
 1695ntf    on513269   3.818   1.846   3.563 -0.2492 -0.3052  0.1089
 1695ntf    on513270   3.885   1.813   3.327 -0.1731  0.0715  0.0684
 1695ntf    on513271   3.441   1.881   3.244  0.1022 -0.1521  0.0594
 1695ntf    on513272   3.635   1.804   3.126 -0.9152 -0.1856 -0.4787
 1695ntf    fn413273   3.589   2.104   3.108 -0.9778 -0.0698 -0.3713
 1695ntf    fn413274   3.600   2.129   3.322  0.4673  0.0989 -0.7285
 1695ntf    fn413275   3.764   2.063   3.218  0.1186 -0.8259 -0.7798
 1696ntf    cn113276   5.658   5.007   4.985  0.3787 -0.2375 -0.0121
 1696ntf    sn213277   5.836   5.038   5.004  0.2788  0.1653  0.2793
 1696ntf    nn313278   5.851   5.086   5.153 -0.4285  0.3031  0.3090
 1696ntf    sn213279   5.947   5.044   5.270 -0.1711 -0.1170 -0.0516
 1696ntf    cn113280   5.977   5.210   5.337  0.0247 -0.0424 -0.3205
 1696ntf    fn413281   5.638   4.904   4.905  0.2053 -0.2760  0.0798
 1696ntf    fn413282   5.593   4.980   5.097  0.1707  0.2353 -0.0130
 1696ntf    fn413283   5.589   5.109   4.935  0.1870 -0.1873  0.3531
 1696ntf    on513284   5.880   4.904   4.977 -0.1959  0.1173 -0.2692
 1696ntf    on513285   5.862   5.145   4.911  0.4034 -0.2873 -0.2108
 1696ntf    on513286   6.080   5.009   5.225 -0.3164 -0.0692 -0.5260
 1696ntf    on513287   5.878   4.968   5.371  0.0372 -0.0751  0.1218
 1696ntf    fn413288   6.072   5.202   5.429  0.1216  0.2017 -0.3966
 1696ntf    fn413289   6.013   5.306   5.254  0.1105 -0.4115 -0.7108
 1696ntf    fn413290   5.868   5.262   5.391  0.1495 -0.3401  0.2303
 1697ntf    cn113291   0.049   5.634   2.438  0.0098 -0.1239 -0.1005
 1697ntf    sn213292   0.061   5.494   2.552  0.2889  0.0754  0.1169
 1697ntf    nn313293   0.210   5.457   2.519  0.1896  0.0052 -0.2584
 1697ntf    sn213294   0.338   5.510   2.594  0.2120  0.1282 -0.3835
 1697ntf    cn113295   0.334   5.409   2.745  0.1629  0.4866 -0.1455
 1697ntf    fn413296  -0.070   5.681   2.406  0.2632  0.5081 -0.1357
 1697ntf    fn413297   0.104   5.738   2.499 -0.1988 -0.3516  0.4806
 1697ntf    fn413298   0.116   5.612   2.325 -0.5270 -0.4403 -0.3583
 1697ntf    on513299   0.033   5.555   2.680  0.0993 -0.4687  0.3378
 1697ntf    on513300  -0.036   5.402   2.498  0.0528  0.1477  0.4136
 1697ntf    on513301   0.327   5.645   2.642  0.6116  0.1187 -0.2631
 1697ntf    on513302   0.462   5.473   2.531  0.3057  0.3747 -0.3445
 1697ntf    fn413303   0.442   5.423   2.820 -0.2135  0.6162  0.3848
 1697ntf    fn413304   0.233   5.439   2.825  0.0131  0.2866 -0.2592
 1697ntf    fn413305   0.334   5.282   2.707  0.2590  0.4144  0.0935
 1698ntf    cn113306   2.169   4.121   3.601 -0.1188 -0.3380  0.1431
 1698ntf    sn213307   2.000   4.109   3.666 -0.2198 -0.1670 -0.0869
 1698ntf    nn313308   1.968   4.262   3.651 -0.1348 -0.1650 -0.2601
 1698ntf    sn213309   1.857   4.334   3.736  0.2119  0.2068 -0.1211
 1698ntf    cn113310   1.956   4.426   3.857  0.1735  0.2696 -0.1369
 1698ntf    fn413311   2.248   4.217   3.646  0.3002 -0.5191 -0.1884
 1698ntf    fn413312   2.242   4.010   3.599  0.8338  0.2855 -0.2600
 1698ntf    fn413313   2.167   4.140   3.470  0.0574  0.6518  0.2785
 1698ntf    on513314   1.942   4.019   3.569  0.4109 -0.5900 -0.0778
 1698ntf    on513315   2.016   4.063   3.801 -0.2622  0.0998  0.0097
 1698ntf    on513316   1.767   4.255   3.816  0.6061 -0.1541 -0.0298
 1698ntf    on513317   1.794   4.433   3.652 -0.1760  0.0601 -0.0021
 1698ntf    fn413318   1.985   4.348   3.960  0.1551  0.0971 -0.2621
 1698ntf    fn413319   2.073   4.465   3.810  0.3387 -0.5233 -0.3871
 1698ntf    fn413320   1.888   4.531   3.902 -0.6151 -0.2236 -0.1601
 1699ntf    cn113321   5.495   2.562   1.813 -0.0384 -0.1192  0.1723
 1699ntf    sn213322   5.476   2.726   1.887 -0.3633 -0.0577 -0.0492
 1699ntf    nn313323   5.496   2.690   2.039 -0.3820  0.0679 -0.0164
 1699ntf    sn213324   5.462   2.765   2.172  0.0640  0.0029  0.1346
 1699ntf    cn113325   5.595   2.888   2.165 -0.0274  0.0705 -0.3727
 1699ntf    fn413326   5.478   2.570   1.682  0.0629  0.1537  0.1754
 1699ntf    fn413327   5.616   2.512   1.835  0.1320  0.0063 -0.4688
 1699ntf    fn413328   5.410   2.472   1.860  0.2816 -0.4406  0.1398
 1699ntf    on513329   5.592   2.797   1.839 -0.0528 -0.2385  0.4208
 1699ntf    on513330   5.343   2.769   1.850 -0.2729  0.2523 -0.0183
 1699ntf    on513331   5.495   2.693   2.293  0.2019 -0.4128 -0.1473
 1699ntf    on513332   5.334   2.829   2.181 -0.0216 -0.1430 -0.0544
 1699ntf    fn413333   5.703   2.812   2.159 -0.1344 -0.1436  0.3771
 1699ntf    fn413334   5.593   2.968   2.059 -0.0630  0.1734 -0.2949
 1699ntf    fn413335   5.605   2.962   2.274  0.3490 -0.4850 -0.0270
 1700ntf    cn113336   0.240   0.895   3.491  0.4149  0.0875  0.0986
 1700ntf    sn213337   0.108   0.848   3.606  0.1845  0.0651 -0.1736
 1700ntf    nn313338   0.191   0.793   3.727 -0.2281 -0.2169 -0.0141
 1700ntf    sn213339   0.218   0.868   3.863 -0.1260  0.1828 -0.2531
 1700ntf    cn113340   0.336   0.746   3.926 -0.1052  0.1805 -0.2961
 1700ntf    fn413341   0.301   0.793   3.432 -0.0158 -0.3731  0.4409
 1700ntf    fn413342   0.191   0.958   3.385 -0.0181 -0.2544  0.0901
 1700ntf    fn413343   0.335   0.970   3.544  0.1891  0.0844  0.5053
 1700ntf    on513344   0.044   0.976   3.624  0.0593  0.0923 -0.7861
 1700ntf    on513345   0.034   0.746   3.536  0.5898 -0.4033  0.0738
 1700ntf    on513346   0.112   0.858   3.960 -0.0192 -0.2606 -0.1801
 1700ntf    on513347   0.293   0.991   3.858  0.0132  0.1152  0.1709
 1700ntf    fn413348   0.436   0.725   3.842 -0.0731 -0.1208 -0.1843
 1700ntf    fn413349   0.387   0.782   4.043 -0.4908 -0.1337 -0.0263
 1700ntf    fn413350   0.271   0.632   3.947 -0.4037  0.4487  0.2492
 1701ntf    cn113351   2.047   5.415   5.289  0.3868 -0.4852 -0.1180
 1701ntf    sn213352   1.956   5.333   5.423 -0.1495  0.2246 -0.0472
 1701ntf    nn313353   1.922   5.450   5.522 -0.6363  0.2395 -0.2252
 1701ntf    sn213354   1.954   5.463   5.675  0.1386  0.4405 -0.3974
 1701ntf    cn113355   2.120   5.538   5.681  0.0832  0.5406 -0.0652
 1701ntf    fn413356   2.036   5.342   5.179 -1.0708 -0.8515  0.2485
 1701ntf    fn413357   2.008   5.538   5.264 -0.1858 -0.5402  0.4809
 1701ntf    fn413358   2.176   5.428   5.317  0.3485  0.0084 -0.1701
 1701ntf    on513359   1.846   5.272   5.351  0.5522 -0.8649 -0.2133
 1701ntf    on513360   2.058   5.246   5.475  0.1561  0.8363  0.3938
 1701ntf    on513361   1.967   5.338   5.745  0.8615  1.0184  0.5371
 1701ntf    on513362   1.867   5.560   5.739  0.1023 -0.2344  0.6015
 1701ntf    fn413363   2.111   5.667   5.651 -0.2342  0.5587  0.1052
 1701ntf    fn413364   2.168   5.531   5.804 -1.1324  0.7454  0.4360
 1701ntf    fn413365   2.199   5.482   5.591 -0.1692  0.3709 -0.1846
 1702ntf    cn113366   0.248   1.806   2.656 -0.0746  0.2418  0.0770
 1702ntf    sn213367   0.219   1.718   2.500  0.0890  0.0234  0.1693
 1702ntf    nn313368   0.103   1.621   2.542  0.2759  0.0151  0.6677
 1702ntf    sn213369   0.104   1.465   2.524 -0.0008  0.0730  0.1236
 1702ntf    cn113370  -0.073   1.430   2.547  0.0159 -0.0064  0.1325
 1702ntf    fn413371   0.313   1.733   2.745  0.4778  0.0633 -0.4623
 1702ntf    fn413372   0.325   1.913   2.637  0.0996  0.0285 -0.4521
 1702ntf    fn413373   0.140   1.846   2.721 -0.2141 -0.1492  0.0830
 1702ntf    on513374   0.179   1.821   2.407 -0.0544  0.3348  0.5736
 1702ntf    on513375   0.344   1.648   2.482 -0.1498 -0.4467  0.3245
 1702ntf    on513376   0.172   1.393   2.629 -0.1899 -0.7930 -0.3407
 1702ntf    on513377   0.122   1.426   2.386  0.4322  0.5107  0.0540
 1702ntf    fn413378  -0.153   1.522   2.496 -0.6568 -0.6391  0.0297
 1702ntf    fn413379  -0.102   1.311   2.497 -0.4115 -0.3159  1.0869
 1702ntf    fn413380  -0.108   1.427   2.675 -0.8174  0.2071 -0.0849
 1703ntf    cn113381   3.869   1.040   1.242 -0.2285  0.2737 -0.6140
 1703ntf    sn213382   3.756   0.969   1.366  0.2020  0.3916 -0.1479
 1703ntf    nn313383   3.627   1.042   1.314  0.0220 -0.0806 -0.3748
 1703ntf    sn213384   3.493   1.048   1.395 -0.0308  0.4752 -0.5008
 1703ntf    cn113385   3.515   1.206   1.483  0.6036  0.1119  0.0096
 1703ntf    fn413386   3.985   0.976   1.241 -0.2185  0.2895 -0.5276
 1703ntf    fn413387   3.809   1.018   1.126 -0.2675  0.6993 -0.6747
 1703ntf    fn413388   3.882   1.171   1.243  1.0116  0.1627 -0.0161
 1703ntf    on513389   3.755   0.830   1.326 -0.6493  0.2972  0.1767
 1703ntf    on513390   3.805   1.009   1.495  0.1044 -0.2808  0.1020
 1703ntf    on513391   3.482   0.951   1.501 -0.2544  0.5637 -0.4423
 1703ntf    on513392   3.377   1.081   1.316  0.0388  0.5474 -0.5727
 1703ntf    fn413393   3.581   1.281   1.396  0.2197 -0.1583 -0.5197
 1703ntf    fn413394   3.402   1.267   1.515  0.5819  0.2690 -0.3512
 1703ntf    fn413395   3.581   1.199   1.597  0.4291  0.3270  0.1246
 1704ntf    cn113396   1.843   2.276   5.885  0.3124  0.0214  0.0880
 1704ntf    sn213397   1.975   2.325   6.001  0.1943  0.0351  0.2171
 1704ntf    nn313398   2.008   2.183   6.059 -0.1034 -0.0697  0.1336
 1704ntf    sn213399   2.141   2.100   6.062 -0.0542  0.0111  0.1778
 1704ntf    cn113400   2.195   2.135   6.232 -0.0283  0.0382  0.1638
 1704ntf    fn413401   1.858   2.154   5.837  0.0328  0.1093 -0.2215
 1704ntf    fn413402   1.722   2.286   5.938  0.1255 -0.0718 -0.3153
 1704ntf    fn413403   1.849   2.362   5.785  0.6505  0.2185  0.2762
 1704ntf    on513404   2.070   2.386   5.911 -0.0920  0.0918 -0.0516
 1704ntf    on513405   1.916   2.415   6.096 -0.0958 -0.4795  0.5283
 1704ntf    on513406   2.246   2.153   5.979 -0.2338  0.0330 -0.0367
 1704ntf    on513407   2.125   1.957   6.051 -0.3078  0.0645 -0.1688
 1704ntf    fn413408   2.248   2.255   6.249 -0.3048  0.3233 -0.9507
 1704ntf    fn413409   2.091   2.133   6.314  0.2442  0.0096  0.5129
 1704ntf    fn413410   2.282   2.050   6.284  0.2213 -0.0551 -0.4049
 1705ntf    cn113411   0.348   1.729   1.052 -0.5578 -0.2460 -0.4519
 1705ntf    sn213412   0.356   1.900   1.112  0.0942 -0.4098 -0.0633
 1705ntf    nn313413   0.335   1.870   1.264  0.2133  0.2343  0.0855
 1705ntf    sn213414   0.202   1.885   1.347  0.0651 -0.2972 -0.0515
 1705ntf    cn113415   0.224   1.738   1.452  0.1864 -0.1537  0.1242
 1705ntf    fn413416   0.431   1.697   0.954 -0.0081 -0.2356  0.0056
 1705ntf    fn413417   0.372   1.636   1.143 -0.7932  0.5384  0.4271
 1705ntf    fn413418   0.226   1.700   1.010 -0.8249  0.2729 -0.0354
 1705ntf    on513419   0.493   1.931   1.078 -0.0287  0.6289  0.3653
 1705ntf    on513420   0.247   1.959   1.038 -0.2979 -0.0112  0.8137
 1705ntf    on513421   0.086   1.848   1.270 -0.0261 -0.1344  0.0068
 1705ntf    on513422   0.199   1.998   1.436  0.3701 -0.0339 -0.3741
 1705ntf    fn413423   0.311   1.649   1.408 -0.4882 -0.4240 -0.6889
 1705ntf    fn413424   0.267   1.772   1.573  0.4114 -0.3936  0.1120
 1705ntf    fn413425   0.110   1.670   1.458  0.0729  0.0371  0.1384
 1706ntf    cn113426   2.335   0.039   6.405  0.2235 -0.0489  0.3832
 1706ntf    sn213427   2.414  -0.056   6.538  0.1388 -0.3999  0.1822
 1706ntf    nn313428   2.559   0.004   6.543 -0.2754  0.6434 -0.1952
 1706ntf    sn213429   2.612   0.119   6.637 -0.2194  0.4850 -0.0317
 1706ntf    cn113430   2.728   0.187   6.515 -0.1151 -0.1521 -0.2923
 1706ntf    fn413431   2.202   0.035   6.407  0.2115  0.1407  0.0792
 1706ntf    fn413432   2.362   0.168   6.409 -0.8909  0.1784  0.8644
 1706ntf    fn413433   2.382   0.002   6.287 -0.1007 -0.3288  0.3400
 1706ntf    on513434   2.326  -0.028   6.648 -0.2127  0.2323 -0.2554
 1706ntf    on513435   2.418  -0.191   6.485 -0.3428 -0.2909 -0.1352
 1706ntf    on513436   2.701   0.073   6.741 -0.3215  0.0213 -0.1467
 1706ntf    on513437   2.514   0.222   6.662 -0.1655  0.6785 -0.6067
 1706ntf    fn413438   2.794   0.284   6.577  0.1771 -0.2392 -0.4608
 1706ntf    fn413439   2.823   0.105   6.471  0.0978 -0.0833  0.0333
 1706ntf    fn413440   2.673   0.239   6.407  0.0926  0.2003 -0.2294
 1707ntf    cn113441   1.984   5.228   4.587 -0.1038 -0.3266 -0.0435
 1707ntf    sn213442   2.144   5.313   4.602 -0.2673 -0.0797  0.3242
 1707ntf    nn313443   2.108   5.441   4.518  0.3171  0.2646  0.5880
 1707ntf    sn213444   2.190   5.520   4.411 -0.1207  0.0532  0.0897
 1707ntf    cn113445   2.132   5.451   4.253  0.4108 -0.0875 -0.0447
 1707ntf    fn413446   1.885   5.287   4.653 -0.0190  0.0199 -0.2256
 1707ntf    fn413447   1.954   5.227   4.458 -0.2381  0.3974 -0.0199
 1707ntf    fn413448   1.990   5.103   4.629  0.6423 -0.0964  0.5552
 1707ntf    on513449   2.168   5.342   4.741 -0.3087 -0.0649  0.3283
 1707ntf    on513450   2.232   5.233   4.520 -0.7495 -0.2104 -0.0684
 1707ntf    on513451   2.333   5.503   4.408 -0.2218 -0.7926 -0.0875
 1707ntf    on513452   2.141   5.656   4.399 -0.3956 -0.1089 -0.7011
 1707ntf    fn413453   2.123   5.319   4.259  0.4342 -0.0760  0.3075
 1707ntf    fn413454   2.013   5.501   4.227  0.5836  0.0673 -0.5427
 1707ntf    fn413455   2.212   5.473   4.150  0.3315  0.2271 -0.0387
 1708ntf    cn113456   6.150   2.390   5.814 -0.1607 -0.1023 -0.1057
 1708ntf    sn213457   6.033   2.273   5.739 -0.2952 -0.0320 -0.0068
 1708ntf    nn313458   6.143   2.178   5.679  0.2922  0.7805 -0.2390
 1708ntf    sn213459   6.175   2.122   5.536  0.2752  0.1274  0.0069
 1708ntf    cn113460   6.239   1.957   5.578 -0.1402  0.0388  0.2980
 1708ntf    fn413461   6.087   2.483   5.884 -0.3512 -0.1124 -0.2640
 1708ntf    fn413462   6.227   2.327   5.901 -0.3290  0.3267  0.3574
 1708ntf    fn413463   6.240   2.439   5.731 -0.3367  0.1426 -0.1538
 1708ntf    on513464   5.961   2.226   5.855  0.0809  0.8454  0.5900
 1708ntf    on513465   5.970   2.363   5.645  0.3393  0.3496 -0.0751
 1708ntf    on513466   6.281   2.194   5.470  0.5705  0.2205  0.5807
 1708ntf    on513467   6.058   2.088   5.458 -0.0046  0.1413  0.4203
 1708ntf    fn413468   6.277   1.890   5.470  0.1903  0.0657  0.3973
 1708ntf    fn413469   6.344   1.962   5.657 -0.1773  0.7027  0.3102
 1708ntf    fn413470   6.145   1.888   5.640  0.0314 -0.4887 -0.0191
 1709ntf    cn113471   0.808   2.312   5.308  0.1486 -0.0035 -0.4711
 1709ntf    sn213472   0.670   2.205   5.261  0.0289  0.0014 -0.1380
 1709ntf    nn313473   0.723   2.057   5.262 -0.0557 -0.0298 -0.1880
 1709ntf    sn213474   0.853   2.004   5.192  0.1219  0.1906 -0.0265
 1709ntf    cn113475   0.951   1.952   5.336  0.2341  0.0470 -0.1536
 1709ntf    fn413476   0.886   2.266   5.405 -0.2048  0.2679 -0.0564
 1709ntf    fn413477   0.890   2.352   5.212 -0.2487  0.0218 -0.8033
 1709ntf    fn413478   0.769   2.429   5.357 -0.1845 -0.3314  0.0488
 1709ntf    on513479   0.575   2.218   5.369 -0.1052 -0.5271 -0.1864
 1709ntf    on513480   0.632   2.265   5.135 -0.1625 -0.1792 -0.1670
 1709ntf    on513481   0.943   2.102   5.135 -0.2427  0.3336 -0.3607
 1709ntf    on513482   0.827   1.885   5.114  0.0285  0.3772 -0.2799
 1709ntf    fn413483   1.067   1.895   5.308  0.1065 -0.3573  0.1421
 1709ntf    fn413484   0.985   2.058   5.407 -0.4803 -0.0122  0.2862
 1709ntf    fn413485   0.886   1.869   5.416 -0.0214  0.3600 -0.0310
 1710ntf    cn113486   2.150   0.649   6.020  0.2612  0.0250 -0.0225
 1710ntf    sn213487   2.167   0.606   6.196  0.2432 -0.0256 -0.0331
 1710ntf    nn313488   2.134   0.737   6.276  0.0717 -0.2729  0.3018
 1710ntf    sn213489   2.021   0.774   6.379  0.0433  0.0921  0.1396
 1710ntf    cn113490   1.901   0.861   6.274  0.2462  0.0004 -0.1705
 1710ntf    fn413491   2.027   0.674   5.977  0.3850  0.4615 -0.1281
 1710ntf    fn413492   2.219   0.758   5.991 -0.5500  0.4774 -0.2954
 1710ntf    fn413493   2.200   0.553   5.945 -0.2561 -0.2971  0.0388
 1710ntf    on513494   2.072   0.500   6.224 -0.1868  0.1814 -0.6807
 1710ntf    on513495   2.303   0.561   6.212  0.1248 -0.1391  0.7015
 1710ntf    on513496   2.072   0.871   6.473 -0.1022 -0.3728  0.7017
 1710ntf    on513497   1.946   0.666   6.438  0.0546 -0.2375 -0.4449
 1710ntf    fn413498   1.801   0.920   6.337  0.1707 -0.1892 -0.1111
 1710ntf    fn413499   1.956   0.966   6.215 -0.1952  0.4721  0.2457
 1710ntf    fn413500   1.849   0.777   6.186  0.3571 -0.3906  0.1341
 1711ntf    cn113501   2.840   0.426   6.036  0.5549 -0.1855 -0.0095
 1711ntf    sn213502   2.790   0.439   5.862  0.2035 -0.2350  0.0882
 1711ntf    nn313503   2.908   0.356   5.800 -0.2805 -0.2570 -0.8261
 1711ntf    sn213504   3.056   0.407   5.794 -0.3990  0.1809 -0.0997
 1711ntf    cn113505   3.108   0.350   5.630  0.1774  0.2983  0.0384
 1711ntf    fn413506   2.861   0.304   6.082  0.3000 -0.0842  0.3830
 1711ntf    fn413507   2.945   0.498   6.071  0.3409  0.1168  0.0232
 1711ntf    fn413508   2.738   0.476   6.105  0.3787 -0.1477 -0.2926
 1711ntf    on513509   2.665   0.366   5.865  0.1288 -0.1309 -0.3252
 1711ntf    on513510   2.785   0.579   5.829 -0.4303 -0.4659 -0.8466
 1711ntf    on513511   3.149   0.355   5.891 -0.6038 -0.2005 -0.1087
 1711ntf    on513512   3.057   0.551   5.777 -0.1229  0.2203  0.2397
 1711ntf    fn413513   3.084   0.220   5.624 -0.2524  0.3496  0.5742
 1711ntf    fn413514   3.036   0.394   5.528 -0.0051  0.0981  0.0782
 1711ntf    fn413515   3.235   0.358   5.594 -0.0246 -0.2799 -0.8510
 1712ntf    cn113516   2.966   2.594   2.312  0.1232  0.4135 -0.2740
 1712ntf    sn213517   2.974   2.532   2.141  0.0087 -0.0125 -0.1262
 1712ntf    nn313518   3.081   2.631   2.083  0.3574 -0.0385  0.4631
 1712ntf    sn213519   3.215   2.593   2.009  0.1055  0.2073 -0.1197
 1712ntf    cn113520   3.317   2.552   2.154 -0.0176 -0.0681 -0.1114
 1712ntf    fn413521   3.081   2.579   2.377  0.0950 -0.3130 -0.3771
 1712ntf    fn413522   2.932   2.721   2.314  0.0434  0.3836  0.4682
 1712ntf    fn413523   2.881   2.529   2.391  0.6303  0.0156 -0.0439
 1712ntf    on513524   3.025   2.398   2.162  0.3906  0.1745  0.1746
 1712ntf    on513525   2.845   2.553   2.083 -0.4982 -0.8588  0.6642
 1712ntf    on513526   3.275   2.711   1.951 -0.0117  0.2826 -0.0880
 1712ntf    on513527   3.225   2.478   1.922  0.1050  0.0894  0.0360
 1712ntf    fn413528   3.445   2.562   2.123 -0.0201  0.2979 -0.0028
 1712ntf    fn413529   3.294   2.637   2.252 -0.3093 -0.1489 -0.1083
 1712ntf    fn413530   3.279   2.433   2.199 -0.2468 -0.0620 -0.2846
 1713ntf    cn113531   3.518   4.860   6.418  0.1198 -0.6432  0.1257
 1713ntf    sn213532   3.542   5.006   6.312  0.0148 -0.6647  0.0722
 1713ntf    nn313533   3.582   4.944   6.173 -0.5326  0.0750 -0.4171
 1713ntf    sn213534   3.481   4.888   6.066 -0.3465 -0.7388 -0.1738
 1713ntf    cn113535   3.471   5.039   5.964  0.3102 -0.6727 -0.1452
 1713ntf    fn413536   3.438   4.763   6.379  0.3190 -0.5403 -0.5654
 1713ntf    fn413537   3.635   4.800   6.435  0.3450 -0.1737  0.2401
 1713ntf    fn413538   3.473   4.900   6.535 -0.0872 -0.4163 -0.0316
 1713ntf    on513539   3.420   5.081   6.325  0.2782 -0.3021  0.4678
 1713ntf    on513540   3.654   5.072   6.374 -0.0612 -0.3524 -0.1219
 1713ntf    on513541   3.344   4.872   6.106 -0.4276 -0.4593 -0.3343
 1713ntf    on513542   3.542   4.795   5.974  0.0909 -0.4266 -0.2068
 1713ntf    fn413543   3.395   5.029   5.857 -0.5607 -0.1539  0.4179
 1713ntf    fn413544   3.436   5.144   6.036  0.5201 -0.6110 -0.1320
 1713ntf    fn413545   3.593   5.059   5.916  0.2200 -0.4572 -0.2843
 1714ntf    cn113546   2.564   6.336   0.277  0.0799 -0.0360  0.0288
 1714ntf    sn213547   2.625   6.219   0.152 -0.1799  0.0624 -0.1907
 1714ntf    nn313548   2.718   6.321   0.077  0.4244 -0.3175  0.0374
 1714ntf    sn213549   2.767   6.311  -0.072 -0.2835 -0.5819 -0.1832
 1714ntf    cn113550   2.647   6.417  -0.158  0.1427  0.0282 -0.0371
 1714ntf    fn413551   2.665   6.386   0.347 -0.1887  0.3098  0.1734
 1714ntf    fn413552   2.504   6.444   0.229  0.1293  0.0911  0.2507
 1714ntf    fn413553   2.483   6.277   0.363 -0.3269 -0.3675 -0.5750
 1714ntf    on513554   2.703   6.133   0.237 -0.2202  0.0719 -0.1441
 1714ntf    on513555   2.506   6.171   0.086 -0.3559  0.0730  0.1148
 1714ntf    on513556   2.754   6.181  -0.133 -0.5827 -0.5637 -0.1606
 1714ntf    on513557   2.888   6.390  -0.083 -0.6436 -0.0000 -0.0153
 1714ntf    fn413558   2.647   6.535  -0.098  0.1969  0.0674 -0.1147
 1714ntf    fn413559   2.676   6.446  -0.284 -0.2057 -0.1993 -0.1718
 1714ntf    fn413560   2.522   6.373  -0.147  0.1667  0.0842  0.4967
 1715ntf    cn113561   1.441   0.755   4.269 -0.5665  0.3024 -0.0768
 1715ntf    sn213562   1.378   0.584   4.274  0.2214  0.0156  0.1651
 1715ntf    nn313563   1.222   0.599   4.264  0.2987  0.4612 -0.4628
 1715ntf    sn213564   1.140   0.723   4.315  0.3164  0.2977 -0.0355
 1715ntf    cn113565   0.979   0.692   4.237  0.3077 -0.0908  0.1339
 1715ntf    fn413566   1.416   0.808   4.150  0.3441  0.1933 -0.3224
 1715ntf    fn413567   1.392   0.827   4.369 -0.0821  0.3475  0.1322
 1715ntf    fn413568   1.571   0.758   4.292 -0.5087 -0.0834 -0.3505
 1715ntf    on513569   1.438   0.523   4.157 -0.4629  0.3744 -0.3821
 1715ntf    on513570   1.418   0.538   4.404  0.2469  0.2068  0.2250
 1715ntf    on513571   1.175   0.845   4.249 -0.1735  0.4297 -0.0581
 1715ntf    on513572   1.099   0.734   4.453  0.0417  0.7878 -0.1551
 1715ntf    fn413573   0.967   0.706   4.106 -0.4261  0.1721  0.2227
 1715ntf    fn413574   0.935   0.571   4.271  0.9755 -0.3695  0.0158
 1715ntf    fn413575   0.892   0.781   4.282  0.2976 -0.0466  0.0260
 1716ntf    cn113576   4.299   5.701   5.479  0.0498  0.1419 -0.1534
 1716ntf    sn213577   4.469   5.753   5.515  0.0317  0.0490  0.0653
 1716ntf    nn313578   4.538   5.622   5.463  0.1817  0.1306  0.0585
 1716ntf    sn213579   4.669   5.556   5.518 -0.0340  0.0032  0.4229
 1716ntf    cn113580   4.748   5.483   5.371 -0.4626 -0.1929  0.2854
 1716ntf    fn413581   4.265   5.696   5.351 -0.4276 -0.4356 -0.0112
 1716ntf    fn413582   4.279   5.578   5.523  0.4865  0.0683 -0.1632
 1716ntf    fn413583   4.209   5.771   5.547  0.2037  0.0773  0.1133
 1716ntf    on513584   4.480   5.861   5.421 -0.1222 -0.0945 -0.1186
 1716ntf    on513585   4.464   5.776   5.657 -0.3608 -0.0880  0.0749
 1716ntf    on513586   4.643   5.441   5.601  0.4079 -0.7803 -0.5035
 1716ntf    on513587   4.772   5.650   5.555 -0.3738  0.4350  0.2818
 1716ntf    fn413588   4.879   5.472   5.390 -0.5008 -0.2207  0.5386
 1716ntf    fn413589   4.693   5.367   5.341  0.2646 -0.3124 -0.6320
 1716ntf    fn413590   4.732   5.565   5.269  0.3114 -0.4310 -0.0370
 1717ntf    cn113591   5.287   4.422   5.817  0.0131 -0.6634 -0.3578
 1717ntf    sn213592   5.341   4.437   5.644 -0.0016 -0.2514 -0.3287
 1717ntf    nn313593   5.443   4.320   5.618 -0.1126 -0.3649 -0.2560
 1717ntf    sn213594   5.600   4.320   5.632 -0.1310  0.2196 -0.0028
 1717ntf    cn113595   5.658   4.338   5.461 -0.0201  0.0906  0.0203
 1717ntf    fn413596   5.263   4.299   5.861  0.8738 -0.6692  0.1059
 1717ntf    fn413597   5.380   4.470   5.897  0.0754 -0.1986 -0.7071
 1717ntf    fn413598   5.182   4.499   5.841  0.8399  0.5568 -0.5744
 1717ntf    on513599   5.219   4.418   5.570  0.3031 -0.1741 -0.8578
 1717ntf    on513600   5.399   4.569   5.635 -0.5729  0.0131 -0.1342
 1717ntf    on513601   5.652   4.190   5.667 -0.2657  0.1115 -0.2045
 1717ntf    on513602   5.662   4.422   5.712 -0.6718  0.2633  0.3681
 1717ntf    fn413603   5.608   4.249   5.377 -0.0874  0.2270 -0.0833
 1717ntf    fn413604   5.620   4.454   5.411 -0.8074 -0.2017 -0.0668
 1717ntf    fn413605   5.789   4.344   5.443 -0.0508  0.4382 -0.0882
 1718ntf    cn113606   2.018   5.900   6.606 -0.4084 -0.2086  0.2379
 1718ntf    sn213607   1.913   5.849   6.746 -0.2505 -0.1908  0.3638
 1718ntf    nn313608   1.928   5.694   6.727 -0.3230 -0.1856  0.2578
 1718ntf    sn213609   2.032   5.593   6.788 -0.0456  0.0790  0.2234
 1718ntf    cn113610   1.940   5.566   6.942 -0.1227 -0.3514  0.1024
 1718ntf    fn413611   1.959   5.869   6.492  0.2372  0.1233 -0.1953
 1718ntf    fn413612   2.043   6.030   6.600 -0.0004 -0.2780  0.4061
 1718ntf    fn413613   2.130   5.831   6.601  0.0854  0.6040 -0.0225
 1718ntf    on513614   1.967   5.901   6.869  0.3627 -0.3592  0.1681
 1718ntf    on513615   1.785   5.902   6.706  0.1237  0.1988 -0.3474
 1718ntf    on513616   2.162   5.644   6.824 -0.2785  0.6851  0.2157
 1718ntf    on513617   2.032   5.462   6.727  0.5506  0.2881 -0.2384
 1718ntf    fn413618   1.911   5.676   7.009 -0.2687 -0.2110 -0.1939
 1718ntf    fn413619   1.825   5.507   6.914 -0.2763  0.0869 -0.1948
 1718ntf    fn413620   2.010   5.488   7.024  0.4656 -0.0105 -0.0657
 1719ntf    cn113621   4.179   0.181   1.970 -0.0257  0.7041  0.0097
 1719ntf    sn213622   4.315   0.159   2.089 -0.0856  0.0997 -0.0341
 1719ntf    nn313623   4.270   0.267   2.193  0.7475  0.0699  0.3642
 1719ntf    sn213624   4.217   0.257   2.341 -0.0707 -0.0976  0.0678
 1719ntf    cn113625   4.370   0.319   2.416  0.0648 -0.4102  0.0538
 1719ntf    fn413626   4.070   0.163   2.043  0.2532 -0.0304  0.2454
 1719ntf    fn413627   4.177   0.300   1.912  0.1797  0.6065 -0.1963
 1719ntf    fn413628   4.176   0.101   1.865 -0.0856  0.6952  0.0179
 1719ntf    on513629   4.299   0.026   2.142 -0.3012  0.1915  0.1318
 1719ntf    on513630   4.434   0.195   2.016  0.0914 -0.6066 -0.1012
 1719ntf    on513631   4.211   0.126   2.402 -0.7129 -0.1488 -0.1002
 1719ntf    on513632   4.116   0.355   2.372  0.3335  0.1844  0.4980
 1719ntf    fn413633   4.384   0.451   2.406 -0.0232 -0.3970  0.1110
 1719ntf    fn413634   4.371   0.285   2.544 -0.0235 -0.1123  0.1355
 1719ntf    fn413635   4.478   0.263   2.363 -0.4465 -0.7406 -0.6471
 1720ntf    cn113636   6.462   2.728   2.037  0.3152  0.7043  0.1498
 1720ntf    sn213637   6.367   2.645   2.168  0.3654  0.0320 -0.2340
 1720ntf    nn313638   6.275   2.763   2.216  0.1868 -0.1353 -0.1679
 1720ntf    sn213639   6.132   2.807   2.169  0.1844  0.2605  0.1996
 1720ntf    cn113640   6.131   2.987   2.193  0.4234  0.3484 -0.4120
 1720ntf    fn413641   6.563   2.656   1.992  0.0341 -0.0568  0.7257
 1720ntf    fn413642   6.386   2.754   1.932 -0.1713 -0.0519  0.3062
 1720ntf    fn413643   6.511   2.842   2.084  0.1104  0.6404  0.5256
 1720ntf    on513644   6.317   2.527   2.104  0.9471 -0.1116 -0.4311
 1720ntf    on513645   6.466   2.623   2.271 -0.1708  0.2233  0.3274
 1720ntf    on513646   6.033   2.762   2.263  0.6444 -0.0305  0.5486
 1720ntf    on513647   6.099   2.808   2.028 -0.5140  0.5130  0.3595
 1720ntf    fn413648   6.219   3.041   2.111  0.8411  0.1505 -0.0985
 1720ntf    fn413649   6.016   3.048   2.167  0.1485  0.0228  0.0030
 1720ntf    fn413650   6.160   3.031   2.315  0.2550  0.6008 -0.4614
 1721ntf    cn113651   3.013   5.729   5.961 -0.1547 -0.1069  0.1606
 1721ntf    sn213652   3.170   5.717   5.869 -0.1174 -0.0075  0.2109
 1721ntf    nn313653   3.125   5.619   5.755 -0.1108  0.0766  0.1357
 1721ntf    sn213654   3.087   5.648   5.605 -0.2499 -0.2383  0.1104
 1721ntf    cn113655   2.931   5.557   5.588 -0.1966 -0.2263 -0.4388
 1721ntf    fn413656   2.921   5.799   5.898 -0.0109 -0.4210 -0.4033
 1721ntf    fn413657   2.957   5.612   5.987  0.6509 -0.4711  0.3149
 1721ntf    fn413658   3.021   5.792   6.078 -0.2466 -0.0709  0.1473
 1721ntf    on513659   3.221   5.846   5.829 -0.5207  0.2394  0.4828
 1721ntf    on513660   3.254   5.646   5.961  0.4749  0.4344  0.0169
 1721ntf    on513661   3.186   5.585   5.521  0.0017 -0.0261  0.2460
 1721ntf    on513662   3.053   5.786   5.586 -0.3745 -0.2888 -0.0346
 1721ntf    fn413663   2.879   5.567   5.466 -0.3214  0.0581 -0.3641
 1721ntf    fn413664   2.950   5.428   5.610 -0.0450 -0.1055  0.1479
 1721ntf    fn413665   2.843   5.593   5.679  0.3875  0.0469  0.0203
 1722ntf    cn113666   1.666   1.554   5.480 -0.1157 -0.4566  0.1087
 1722ntf    sn213667   1.726   1.711   5.411 -0.0590 -0.3976  0.2946
 1722ntf    nn313668   1.669   1.821   5.508 -0.3630 -0.3571  0.0691
 1722ntf    sn213669   1.538   1.907   5.503 -0.1929 -0.1008  0.0436
 1722ntf    cn113670   1.616   2.072   5.509 -0.3094 -0.0502  0.1840
 1722ntf    fn413671   1.715   1.525   5.600  0.3012 -0.6617 -0.1065
 1722ntf    fn413672   1.536   1.559   5.503 -0.1915  0.0477 -0.4035
 1722ntf    fn413673   1.690   1.453   5.397 -0.0465 -0.2668 -0.1051
 1722ntf    on513674   1.869   1.706   5.429  0.0002  0.8351  0.2604
 1722ntf    on513675   1.671   1.713   5.278 -0.3289  0.6704  0.4120
 1722ntf    on513676   1.471   1.895   5.630 -0.0398 -0.1975  0.1146
 1722ntf    on513677   1.450   1.895   5.390 -0.3892 -0.3433  0.2214
 1722ntf    fn413678   1.720   2.078   5.427  0.0728 -0.0733  0.6653
 1722ntf    fn413679   1.536   2.172   5.475 -0.4585 -0.0861  0.4287
 1722ntf    fn413680   1.666   2.097   5.628  1.0281 -0.1715 -0.3382
 1723ntf    cn113681   4.114   0.438   6.158 -0.2187 -0.1385 -0.3443
 1723ntf    sn213682   4.283   0.422   6.093 -0.1210  0.1191 -0.1579
 1723ntf    nn313683   4.320   0.272   6.120  0.0120  0.2674  0.5004
 1723ntf    sn213684   4.458   0.198   6.108 -0.1717  0.0153 -0.1211
 1723ntf    cn113685   4.398   0.051   6.020  0.0066 -0.0398 -0.1512
 1723ntf    fn413686   4.026   0.362   6.095  0.2096 -0.4442 -0.5779
 1723ntf    fn413687   4.105   0.402   6.285  0.2070 -0.4629 -0.4043
 1723ntf    fn413688   4.062   0.559   6.143 -0.1325 -0.1018 -0.3527
 1723ntf    on513689   4.273   0.462   5.954 -0.7014  0.1527 -0.1093
 1723ntf    on513690   4.348   0.505   6.191  0.2738 -0.0543 -0.2691
 1723ntf    on513691   4.518   0.139   6.224  0.0277 -0.1642 -0.3155
 1723ntf    on513692   4.546   0.269   6.018  0.2346  0.0224  0.2817
 1723ntf    fn413693   4.318   0.082   5.919  0.2383 -0.1747 -0.3775
 1723ntf    fn413694   4.499  -0.004   5.954  0.0350 -0.1135 -0.0457
 1723ntf    fn413695   4.337  -0.041   6.092  0.5169 -0.1743  0.1145
 1724ntf    cn113696   0.771   0.057   1.444 -0.4486 -0.1624 -0.0875
 1724ntf    sn213697   0.738   0.042   1.622 -0.2148 -0.1670 -0.0446
 1724ntf    nn313698   0.889   0.022   1.661 -0.2081 -0.1791 -0.0772
 1724ntf    sn213699   0.980   0.084   1.773 -0.1394 -0.2229 -0.1083
 1724ntf    cn113700   0.988  -0.059   1.884 -0.1795 -0.0436  0.1270
 1724ntf    fn413701   0.676   0.118   1.374 -0.0784 -0.0893 -0.5334
 1724ntf    fn413702   0.883   0.124   1.422 -0.1973 -0.4002  0.4558
 1724ntf    fn413703   0.791  -0.062   1.390  0.6449 -0.2110  0.4016
 1724ntf    on513704   0.680   0.171   1.648  0.3419  0.1854 -0.5266
 1724ntf    on513705   0.653  -0.073   1.641  0.3343 -0.6131 -0.2460
 1724ntf    on513706   0.920   0.189   1.852  0.8533  0.3401 -0.0963
 1724ntf    on513707   1.119   0.092   1.738 -0.1921  0.2803 -0.2111
 1724ntf    fn413708   0.868  -0.097   1.925 -0.2262 -0.3227 -0.2585
 1724ntf    fn413709   1.042  -0.167   1.829 -0.7174  0.0247 -0.5453
 1724ntf    fn413710   1.065  -0.028   1.987  0.3415 -0.2114 -0.2048
 1725ntf    cn113711   0.438   4.544   5.975 -0.1170  0.1222  0.5787
 1725ntf    sn213712   0.358   4.402   6.055  0.0346 -0.4884 -0.3390
 1725ntf    nn313713   0.395   4.420   6.206  0.0742 -0.2379 -0.3773
 1725ntf    sn213714   0.337   4.524   6.308  0.3369 -0.2731 -0.1916
 1725ntf    cn113715   0.245   4.431   6.435 -0.0273  0.1613 -0.1346
 1725ntf    fn413716   0.567   4.522   5.957 -0.1820  0.3357 -0.1934
 1725ntf    fn413717   0.383   4.572   5.858  0.3328  0.4763  0.4444
 1725ntf    fn413718   0.436   4.653   6.049 -0.7008  0.1057  0.5895
 1725ntf    on513719   0.217   4.413   6.028  0.0105  0.4230  0.1268
 1725ntf    on513720   0.430   4.295   5.991  0.6510 -0.1692 -0.1832
 1725ntf    on513721   0.239   4.617   6.259  0.3398  0.0317  0.3682
 1725ntf    on513722   0.448   4.582   6.379  0.0016  0.0343  0.0874
 1725ntf    fn413723   0.174   4.503   6.521  0.3102  0.1449  0.1630
 1725ntf    fn413724   0.176   4.334   6.379 -0.1798  0.3671 -0.3039
 1725ntf    fn413725   0.324   4.361   6.515 -0.4763 -0.0324  0.1380
 1726ntf    cn113726   3.377   5.486   2.343 -0.2937  0.0872 -0.4346
 1726ntf    sn213727   3.249   5.357   2.354  0.0539 -0.2237 -0.0354
 1726ntf    nn313728   3.188   5.392   2.494  0.2999 -0.2701  0.0846
 1726ntf    sn213729   3.240   5.348   2.636  0.1284 -0.1511  0.1855
 1726ntf    cn113730   3.096   5.250   2.688 -0.1949  0.0596 -0.3066
 1726ntf    fn413731   3.327   5.607   2.322 -0.0420  0.2491 -0.1072
 1726ntf    fn413732   3.461   5.489   2.446 -0.6891 -0.0790 -0.1045
 1726ntf    fn413733   3.456   5.478   2.238 -0.4128  0.3486 -0.5478
 1726ntf    on513734   3.153   5.392   2.252  0.1367  0.3140  0.0654
 1726ntf    on513735   3.316   5.229   2.349  0.6371  0.0457  0.6124
 1726ntf    on513736   3.228   5.452   2.734  0.2928 -0.1472  0.2016
 1726ntf    on513737   3.356   5.262   2.638 -0.0001 -0.3392 -0.2246
 1726ntf    fn413738   3.080   5.127   2.642  0.5519 -0.0975 -0.1579
 1726ntf    fn413739   3.103   5.237   2.819  0.2750 -0.2751 -0.3630
 1726ntf    fn413740   2.979   5.308   2.663 -0.1357  0.3716  0.1427
 1727ntf    cn113741   6.620   3.592   5.949 -0.3681  0.1213 -0.0102
 1727ntf    sn213742   6.634   3.547   5.773 -0.0632  0.1487  0.0069
 1727ntf    nn313743   6.755   3.643   5.743  0.1359 -0.0920  0.0299
 1727ntf    sn213744   6.795   3.737   5.624  0.1729  0.0639  0.1666
 1727ntf    cn113745   6.750   3.891   5.709  0.0818  0.2974 -0.3016
 1727ntf    fn413746   6.516   3.535   6.007 -0.0694 -0.4954 -0.0659
 1727ntf    fn413747   6.729   3.570   6.021 -0.3489 -0.2271 -0.1432
 1727ntf    fn413748   6.603   3.722   5.957 -0.6299  0.0777  0.1596
 1727ntf    on513749   6.674   3.408   5.771 -0.2245  0.1039 -0.1273
 1727ntf    on513750   6.508   3.588   5.718 -0.1723  0.1123  0.2313
 1727ntf    on513751   6.719   3.733   5.502 -0.2923  0.4389  0.4407
 1727ntf    on513752   6.938   3.754   5.612  0.1890 -0.2160 -0.0432
 1727ntf    fn413753   6.631   3.883   5.768  0.3092 -0.2317  0.0966
 1727ntf    fn413754   6.835   3.917   5.807  0.3544  0.0314 -0.4650
 1727ntf    fn413755   6.749   3.994   5.626  0.3480  0.5233 -0.0316
 1728ntf    cn113756   1.076   1.350   1.534 -0.2902  0.3980  0.6193
 1728ntf    sn213757   1.137   1.494   1.441 -0.3139  0.1537  0.2229
 1728ntf    nn313758   1.064   1.600   1.531 -0.4512 -0.0147  0.3104
 1728ntf    sn213759   1.058   1.755   1.511 -0.0498  0.0120  0.3989
 1728ntf    cn113760   1.067   1.804   1.686 -0.4414  0.1372  0.3836
 1728ntf    fn413761   1.098   1.364   1.663 -0.1258  0.0310  0.6337
 1728ntf    fn413762   0.947   1.329   1.516 -0.2166 -0.0442  0.5830
 1728ntf    fn413763   1.141   1.238   1.505  0.0126  0.6189  0.4293
 1728ntf    on513764   1.277   1.469   1.460 -0.2818 -0.3772 -0.6316
 1728ntf    on513765   1.075   1.480   1.311  0.9304  0.2041 -0.3894
 1728ntf    on513766   0.930   1.808   1.470  0.1697 -0.1083 -0.4573
 1728ntf    on513767   1.173   1.823   1.455 -0.3712 -0.0949 -0.3964
 1728ntf    fn413768   0.982   1.743   1.767 -0.6296  0.1319  0.1854
 1728ntf    fn413769   1.188   1.787   1.737 -0.2225 -0.0076 -0.1793
 1728ntf    fn413770   1.041   1.934   1.689 -0.1140  0.2174 -0.1386
 1729ntf    cn113771   6.439   3.875   2.641  0.8166 -0.1455  0.3651
 1729ntf    sn213772   6.483   3.966   2.490 -0.6194  0.1785  0.1170
 1729ntf    nn313773   6.348   4.037   2.455 -0.6828  0.2209  0.4451
 1729ntf    sn213774   6.315   4.190   2.474 -0.2415  0.3648  0.0746
 1729ntf    cn113775   6.364   4.259   2.313 -0.5916  0.1369 -0.1336
 1729ntf    fn413776   6.338   3.791   2.623  0.3758  0.4327  0.1154
 1729ntf    fn413777   6.540   3.796   2.673  0.5950 -0.4764  0.2517
 1729ntf    fn413778   6.406   3.957   2.740  0.2105 -0.1455  0.1710
 1729ntf    on513779   6.594   4.045   2.538 -0.0359 -0.5900  0.0678
 1729ntf    on513780   6.512   3.869   2.387 -0.2762 -0.0891  0.4574
 1729ntf    on513781   6.384   4.260   2.579 -0.2201  0.7142 -0.1705
 1729ntf    on513782   6.172   4.207   2.480 -0.4384 -1.0842  0.0385
 1729ntf    fn413783   6.494   4.249   2.287 -0.6360 -0.3901 -0.1656
 1729ntf    fn413784   6.294   4.215   2.211  0.2546  0.0310 -0.6797
 1729ntf    fn413785   6.349   4.390   2.321 -0.1466  0.1457  0.7394
 1730ntf    cn113786   0.734   1.282   6.681  0.2571  0.1743 -0.0501
 1730ntf    sn213787   0.903   1.326   6.632  0.3425 -0.0731  0.0203
 1730ntf    nn313788   0.986   1.197   6.670 -0.5948 -0.8077 -0.3831
 1730ntf    sn213789   1.101   1.126   6.591 -0.0998 -0.2018 -0.2183
 1730ntf    cn113790   1.020   0.976   6.527  0.0075 -0.3031 -0.1187
 1730ntf    fn413791   0.725   1.254   6.810 -0.0222  0.2862 -0.0458
 1730ntf    fn413792   0.644   1.376   6.659 -0.1383 -0.0945  0.3884
 1730ntf    fn413793   0.697   1.173   6.615  0.3734 -0.0466  0.2450
 1730ntf    on513794   0.879   1.361   6.494 -0.0214  0.4213  0.2061
 1730ntf    on513795   0.930   1.433   6.723 -0.0556 -0.1766  0.2585
 1730ntf    on513796   1.193   1.067   6.685 -0.0417 -0.1762 -0.2587
 1730ntf    on513797   1.151   1.180   6.467  0.2463 -0.1759 -0.0688
 1730ntf    fn413798   0.965   0.995   6.408  0.6737 -0.6652 -0.4918
 1730ntf    fn413799   1.109   0.879   6.512 -0.2902 -0.6104  0.1028
 1730ntf    fn413800   0.922   0.926   6.600 -0.3845 -0.0360 -0.4534
 1731ntf    cn113801   1.557   3.026   5.585 -0.1060 -0.1256 -0.1393
 1731ntf    sn213802   1.559   2.913   5.727  0.2518 -0.0269 -0.0647
 1731ntf    nn313803   1.413   2.857   5.710  0.1647  0.2600 -0.2612
 1731ntf    sn213804   1.363   2.709   5.727 -0.1108  0.3661 -0.1470
 1731ntf    cn113805   1.347   2.670   5.551 -0.1639 -0.1929 -0.0190
 1731ntf    fn413806   1.466   3.122   5.591  0.5232  0.4735 -0.1681
 1731ntf    fn413807   1.672   3.084   5.555 -0.1464  0.0882  0.1195
 1731ntf    fn413808   1.535   2.961   5.471 -0.0693  0.1382 -0.2977
 1731ntf    on513809   1.668   2.824   5.696  0.0935 -0.2498  0.0090
 1731ntf    on513810   1.578   2.996   5.843  0.1450  0.1730 -0.1903
 1731ntf    on513811   1.231   2.694   5.783 -0.0282 -0.1465 -0.0881
 1731ntf    on513812   1.456   2.609   5.773 -0.2440  0.1858 -0.2698
 1731ntf    fn413813   1.271   2.751   5.479 -0.0138  0.4780  0.5718
 1731ntf    fn413814   1.461   2.664   5.485 -0.1148  0.0183  0.0473
 1731ntf    fn413815   1.288   2.551   5.544 -0.0305 -0.2492 -0.1938
 1732ntf    cn113816   6.372   1.714   1.687 -0.0760 -0.1346 -0.0475
 1732ntf    sn213817   6.240   1.721   1.811 -0.0646  0.1684 -0.0520
 1732ntf    nn313818   6.321   1.762   1.939  0.2641 -0.2204 -0.1370
 1732ntf    sn213819   6.387   1.899   1.976  0.3465 -0.2903 -0.0215
 1732ntf    cn113820   6.408   1.877   2.155  0.3298  0.3416  0.0637
 1732ntf    fn413821   6.423   1.830   1.649  0.0774 -0.1512  0.1063
 1732ntf    fn413822   6.472   1.648   1.743  0.0824  0.3081  0.1942
 1732ntf    fn413823   6.342   1.652   1.574  0.4244 -0.5348  0.0326
 1732ntf    on513824   6.160   1.825   1.750 -0.3226 -0.1459 -0.2513
 1732ntf    on513825   6.188   1.587   1.822  0.0959  0.1577  0.5905
 1732ntf    on513826   6.308   2.020   1.968  0.6604 -0.0980 -0.2462
 1732ntf    on513827   6.524   1.911   1.932  0.2854 -0.0382 -0.1496
 1732ntf    fn413828   6.495   1.962   2.205  0.2043  0.1472  0.6215
 1732ntf    fn413829   6.296   1.886   2.224  0.0277  0.7109 -0.4677
 1732ntf    fn413830   6.466   1.761   2.184  0.0293  0.3336  0.6487
 1733ntf    cn113831   2.875   5.728   3.143 -0.3404 -0.0305 -0.0642
 1733ntf    sn213832   2.867   5.691   2.965 -0.0340  0.1429 -0.1147
 1733ntf    nn313833   2.741   5.597   2.962 -0.2979  0.4686  0.5246
 1733ntf    sn213834   2.597   5.609   2.900 -0.0695 -0.1322 -0.1252
 1733ntf    cn113835   2.623   5.471   2.784  0.1230  0.0993 -0.3604
 1733ntf    fn413836   2.773   5.802   3.184  0.0402  0.3046  0.2843
 1733ntf    fn413837   2.880   5.622   3.222 -0.6634  0.1602  0.2166
 1733ntf    fn413838   2.986   5.793   3.174 -0.4586 -0.0196  0.3441
 1733ntf    on513839   2.854   5.821   2.904 -0.5397 -0.0741 -0.4733
 1733ntf    on513840   2.990   5.620   2.942 -0.3051 -0.4975  0.3497
 1733ntf    on513841   2.570   5.724   2.816  0.2104 -0.2210 -0.3387
 1733ntf    on513842   2.495   5.563   2.990 -0.0805  0.0666 -0.0353
 1733ntf    fn413843   2.525   5.457   2.695 -0.3232  0.1940  0.1095
 1733ntf    fn413844   2.732   5.480   2.710  0.1667 -0.2940 -0.3473
 1733ntf    fn413845   2.624   5.354   2.845 -0.1750  0.1484 -0.2561
 1734ntf    cn113846   4.432   6.174   2.309 -0.3428  0.5320 -0.4799
 1734ntf    sn213847   4.436   6.000   2.359 -0.1659  0.5099 -0.5693
 1734ntf    nn313848   4.359   5.999   2.496 -0.7483  0.5666 -0.8942
 1734ntf    sn213849   4.223   5.932   2.537 -0.3471  0.3113  0.0523
 1734ntf    cn113850   4.293   5.797   2.636 -0.1082  0.4112  0.0204
 1734ntf    fn413851   4.501   6.195   2.198  0.2746  0.4362 -0.1201
 1734ntf    fn413852   4.309   6.218   2.289 -0.4763  0.4056  0.0666
 1734ntf    fn413853   4.482   6.260   2.397  0.9552 -0.2037 -0.4774
 1734ntf    on513854   4.385   5.935   2.240  0.1255 -0.1354 -0.3478
 1734ntf    on513855   4.579   5.990   2.370 -0.2300 -0.0100 -0.1645
 1734ntf    on513856   4.141   5.869   2.436 -0.3144  0.4708 -0.0744
 1734ntf    on513857   4.146   6.002   2.637 -0.2269  0.2627  0.1773
 1734ntf    fn413858   4.332   5.694   2.563 -0.8620 -0.0249  0.2290
 1734ntf    fn413859   4.389   5.845   2.713  0.2495 -0.1425 -0.0737
 1734ntf    fn413860   4.202   5.750   2.720  0.4382  0.5115  0.6803
 1735ntf    cn113861   5.110   5.279   2.082  0.1358  0.0279 -0.3647
 1735ntf    sn213862   4.961   5.288   2.185  0.4141  0.1038  0.0321
 1735ntf    nn313863   5.002   5.371   2.312 -0.0199  0.0417  0.2185
 1735ntf    sn213864   4.940   5.511   2.346  0.0509  0.1001  0.1077
 1735ntf    cn113865   5.079   5.617   2.295  0.2694 -0.2664 -0.0685
 1735ntf    fn413866   5.212   5.213   2.134 -0.2967 -0.2422  0.1512
 1735ntf    fn413867   5.103   5.225   1.961 -0.0667  0.2559 -0.4557
 1735ntf    fn413868   5.160   5.400   2.058 -0.3989  0.3846  0.2826
 1735ntf    on513869   4.865   5.349   2.096  0.0356  0.7803  0.8896
 1735ntf    on513870   4.940   5.147   2.209 -0.3781  0.1872 -0.1225
 1735ntf    on513871   4.943   5.533   2.488 -0.6414  0.7396  0.0277
 1735ntf    on513872   4.827   5.566   2.276  0.1301 -0.0660 -0.1550
 1735ntf    fn413873   5.055   5.731   2.359 -0.2770 -0.3896 -0.0492
 1735ntf    fn413874   5.199   5.583   2.339  0.1653 -0.2816  0.2087
 1735ntf    fn413875   5.081   5.635   2.164 -0.1389 -0.1002 -0.0518
 1736ntf    cn113876   2.042   2.434   0.021  0.0069 -0.0363  0.1824
 1736ntf    sn213877   2.176   2.342   0.103 -0.0094 -0.2154  0.0105
 1736ntf    nn313878   2.258   2.467   0.152  0.3083 -0.4100 -0.0203
 1736ntf    sn213879   2.242   2.541   0.289  0.0065 -0.3787 -0.0714
 1736ntf    cn113880   2.357   2.438   0.385 -0.2823 -0.3525  0.3053
 1736ntf    fn413881   1.961   2.355  -0.048 -0.3333 -0.0611  0.6043
 1736ntf    fn413882   1.971   2.497   0.114  0.2626 -0.0532  0.3895
 1736ntf    fn413883   2.083   2.529  -0.061 -0.4469  0.5773  0.6604
 1736ntf    on513884   2.109   2.259   0.199  0.0584 -0.0595  0.1946
 1736ntf    on513885   2.230   2.271  -0.010 -0.1307  0.3375 -0.3993
 1736ntf    on513886   2.111   2.528   0.348 -0.0072  0.4336  0.0994
 1736ntf    on513887   2.296   2.674   0.306 -0.3666 -0.2315 -0.0022
 1736ntf    fn413888   2.354   2.465   0.515 -0.1701 -0.0736  0.2507
 1736ntf    fn413889   2.341   2.308   0.374 -0.3897 -0.3466  0.3816
 1736ntf    fn413890   2.481   2.463   0.346 -0.0438 -0.6523  0.8633
 1737ntf    cn113891   5.955   6.364   3.108 -0.1000 -0.1126 -0.0615
 1737ntf    sn213892   6.133   6.385   3.139 -0.1231 -0.1780  0.1185
 1737ntf    nn313893   6.179   6.460   3.009 -0.1100 -0.1680  0.1286
 1737ntf    sn213894   6.216   6.612   2.994  0.2470 -0.2545  0.1213
 1737ntf    cn113895   6.394   6.616   3.033  0.2190 -0.0958  0.2359
 1737ntf    fn413896   5.900   6.298   3.209 -0.2760  0.1210 -0.0057
 1737ntf    fn413897   5.885   6.475   3.097  0.2240  0.0244 -0.7811
 1737ntf    fn413898   5.920   6.301   2.997 -0.3908  0.1911 -0.1427
 1737ntf    on513899   6.147   6.456   3.263 -0.0654  0.5474 -0.2986
 1737ntf    on513900   6.174   6.247   3.139  0.3237 -0.0481 -0.3175
 1737ntf    on513901   6.165   6.699   3.098  0.0641  0.2930 -0.4211
 1737ntf    on513902   6.195   6.664   2.862 -0.2608 -0.1229  0.2501
 1737ntf    fn413903   6.416   6.608   3.163  0.0009 -0.4007  0.2556
 1737ntf    fn413904   6.453   6.520   2.964  0.2619 -0.0492  0.2070
 1737ntf    fn413905   6.446   6.732   2.994 -0.4082  0.2516  0.4088
 1738ntf    cn113906   5.494   4.702   6.806  0.0421  0.0618  0.0322
 1738ntf    sn213907   5.523   4.522   6.804  0.2490  0.0925  0.2450
 1738ntf    nn313908   5.600   4.497   6.939  0.0152  0.4442  0.4456
 1738ntf    sn213909   5.754   4.520   6.963  0.2724 -0.5478 -0.1804
 1738ntf    cn113910   5.826   4.358   6.925  0.3014 -0.5672 -0.0406
 1738ntf    fn413911   5.429   4.748   6.701  0.7674 -0.1926 -0.5430
 1738ntf    fn413912   5.420   4.731   6.911 -0.1911  0.3062 -0.1987
 1738ntf    fn413913   5.601   4.777   6.823  0.2244 -0.0709 -0.4870
 1738ntf    on513914   5.390   4.467   6.810  0.3742 -0.2946 -0.4299
 1738ntf    on513915   5.595   4.496   6.682 -0.4792 -0.8838  0.0155
 1738ntf    on513916   5.775   4.548   7.103  0.3019  0.6874 -0.4159
 1738ntf    on513917   5.815   4.618   6.876 -0.6670  0.1684 -0.0516
 1738ntf    fn413918   5.790   4.307   6.808  0.4304 -0.0047 -0.3304
 1738ntf    fn413919   5.959   4.358   6.927  0.3037  0.4018 -0.0710
 1738ntf    fn413920   5.790   4.260   7.006 -0.0473 -0.1504  0.3136
 1739ntf    cn113921   6.423   4.910   0.635 -0.4831 -0.0261 -0.2244
 1739ntf    sn213922   6.417   5.034   0.502 -0.1667  0.1930 -0.0357
 1739ntf    nn313923   6.506   4.961   0.395 -0.5410  0.2044 -0.3577
 1739ntf    sn213924   6.503   4.951   0.238  0.0776 -0.0342 -0.3590
 1739ntf    cn113925   6.677   4.907   0.215  0.1472  0.1391 -0.1667
 1739ntf    fn413926   6.377   4.789   0.606  0.2325 -0.5089  0.6111
 1739ntf    fn413927   6.551   4.894   0.663 -0.4025 -0.0396 -0.5900
 1739ntf    fn413928   6.360   4.934   0.748 -0.0983 -0.5995  0.1191
 1739ntf    on513929   6.274   5.038   0.480 -0.3674  0.0565  1.1601
 1739ntf    on513930   6.478   5.149   0.563  0.0382 -0.0511  0.2241
 1739ntf    on513931   6.496   5.078   0.170  0.2394  0.4037  0.4255
 1739ntf    on513932   6.435   4.835   0.186  0.6112 -0.0927 -0.9375
 1739ntf    fn413933   6.758   4.957   0.307 -0.1270 -0.4024  0.3782
 1739ntf    fn413934   6.696   4.776   0.206  0.5917  0.2194 -0.4313
 1739ntf    fn413935   6.710   4.951   0.095 -0.4112 -0.6963 -0.6404
 1740ntf    cn113936   6.081   1.561   2.891 -0.0322  0.3354  0.0016
 1740ntf    sn213937   6.075   1.401   2.806 -0.0420  0.1798  0.2956
 1740ntf    nn313938   6.159   1.421   2.674  0.0954 -0.6246  0.2558
 1740ntf    sn213939   6.314   1.436   2.664 -0.0118  0.4430  0.1614
 1740ntf    cn113940   6.376   1.269   2.631  0.3130  0.5425  0.2539
 1740ntf    fn413941   6.192   1.582   2.958  0.0373  0.1909 -0.0689
 1740ntf    fn413942   6.066   1.661   2.805  0.5387  0.2326 -0.2221
 1740ntf    fn413943   5.984   1.582   2.979  0.2524 -0.1850  0.4358
 1740ntf    on513944   6.135   1.306   2.896 -0.0953  0.0349  0.1791
 1740ntf    on513945   5.936   1.371   2.779 -0.0182  0.2150  0.1293
 1740ntf    on513946   6.376   1.481   2.787  0.1450  0.5263  0.0524
 1740ntf    on513947   6.343   1.505   2.541 -0.2574  1.2911  0.5640
 1740ntf    fn413948   6.500   1.260   2.587  0.3811  1.0845  0.3315
 1740ntf    fn413949   6.362   1.192   2.738 -0.4268  0.3920  0.0551
 1740ntf    fn413950   6.304   1.205   2.539 -0.2689  0.5502  0.6963
 1741ntf    cn113951   2.669   2.793   5.021  0.1485 -0.0100 -0.3363
 1741ntf    sn213952   2.802   2.682   4.966  0.0614 -0.3391  0.1132
 1741ntf    nn313953   2.917   2.782   4.930 -0.0368 -0.3420 -0.2141
 1741ntf    sn213954   2.923   2.892   4.818 -0.4889 -0.2075 -0.1076
 1741ntf    cn113955   2.987   3.038   4.904 -0.1335 -0.1449 -0.4743
 1741ntf    fn413956   2.715   2.894   5.094  0.1147 -0.0385 -0.2755
 1741ntf    fn413957   2.603   2.848   4.921  0.9570  0.9398 -0.3645
 1741ntf    fn413958   2.574   2.719   5.076  0.1971  0.1492 -0.0381
 1741ntf    on513959   2.836   2.608   5.085 -0.5205 -0.2880  0.3152
 1741ntf    on513960   2.747   2.609   4.854  0.0473  0.0623 -0.1432
 1741ntf    on513961   2.796   2.937   4.766 -0.4958 -0.0400  0.0531
 1741ntf    on513962   3.022   2.873   4.714 -0.6515 -0.3981 -0.2288
 1741ntf    fn413963   2.936   3.154   4.864 -0.4472 -0.0849  0.0918
 1741ntf    fn413964   2.958   3.034   5.033  0.2396  0.3585 -0.3697
 1741ntf    fn413965   3.117   3.060   4.894 -0.0752 -0.3413 -0.1390
 1742ntf    cn113966   0.602   4.018   6.837 -0.0943 -0.1972 -0.3720
 1742ntf    sn213967   0.532   4.097   6.985  0.1822 -0.2012 -0.2390
 1742ntf    nn313968   0.524   4.246   6.935 -0.0823 -0.2930 -0.4705
 1742ntf    sn213969   0.409   4.349   6.966  0.5708  0.2608  0.1524
 1742ntf    cn113970   0.308   4.323   6.817  0.7900 -0.3095  0.0987
 1742ntf    fn413971   0.716   4.075   6.803 -0.1763  0.2193  0.0394
 1742ntf    fn413972   0.627   3.888   6.843 -0.0312 -0.1806 -0.2778
 1742ntf    fn413973   0.521   4.024   6.732 -0.4535 -0.2391 -0.0996
 1742ntf    on513974   0.403   4.036   7.000 -0.3622  1.0570  0.3341
 1742ntf    on513975   0.629   4.076   7.090  0.0365 -0.2570 -0.1151
 1742ntf    on513976   0.460   4.483   6.949 -0.3847  0.7122  0.7886
 1742ntf    on513977   0.324   4.311   7.075  0.4097  0.6217  0.1521
 1742ntf    fn413978   0.190   4.380   6.840  0.5172 -0.7311 -0.2357
 1742ntf    fn413979   0.357   4.385   6.711  0.3954 -0.1495  0.0082
 1742ntf    fn413980   0.271   4.200   6.787  0.0813  0.1582 -1.0144
 1743ntf    cn113981   5.253   3.639   5.294 -0.1235  0.1716 -0.2353
 1743ntf    sn213982   5.231   3.474   5.220  0.1675  0.0666 -0.0871
 1743ntf    nn313983   5.086   3.442   5.273  0.1956  0.4603  0.2345
 1743ntf    sn213984   4.957   3.405   5.192  0.2987  0.3147  0.1387
 1743ntf    cn113985   4.907   3.556   5.105 -0.0400  0.3978  0.4724
 1743ntf    fn413986   5.283   3.622   5.422  0.3103  0.3726 -0.3086
 1743ntf    fn413987   5.360   3.699   5.245  0.4701 -0.4403  0.2888
 1743ntf    fn413988   5.145   3.716   5.293  0.0701  0.4464  0.1905
 1743ntf    on513989   5.258   3.508   5.083  0.4043 -0.1883 -0.1042
 1743ntf    on513990   5.330   3.397   5.292  0.0201 -0.2028 -0.1703
 1743ntf    on513991   4.840   3.373   5.271  0.2388  0.8771  0.2772
 1743ntf    on513992   4.987   3.320   5.079  0.6537  0.0876  0.4001
 1743ntf    fn413993   5.012   3.628   5.069  0.4726 -0.5256  0.0768
 1743ntf    fn413994   4.842   3.521   4.995  0.8188 -0.4535  0.2202
 1743ntf    fn413995   4.827   3.634   5.175 -0.2662  0.3063  0.3151
 1744ntf    cn113996   4.573   4.100   4.515 -0.2739 -0.3163 -0.1659
 1744ntf    sn213997   4.562   4.037   4.685 -0.1014  0.0362 -0.0224
 1744ntf    nn313998   4.650   3.907   4.673  0.0368  0.1140  0.1280
 1744ntf    sn213999   4.600   3.768   4.618 -0.2992  0.1856  0.2507
 1744ntf    cn114000   4.572   3.687   4.778  0.4496 -0.0469  0.2633
 1744ntf    fn414001   4.691   4.153   4.488 -0.1137 -0.2944  0.5496
 1744ntf    fn414002   4.554   4.003   4.427  0.0667 -0.2862 -0.2740
 1744ntf    fn414003   4.495   4.204   4.488  0.0078 -0.1194 -0.2182
 1744ntf    on514004   4.639   4.129   4.765  0.2748 -0.1907 -0.1185
 1744ntf    on514005   4.422   4.021   4.717 -0.1058 -0.0295 -0.0732
 1744ntf    on514006   4.707   3.690   4.562 -0.5308 -0.0616  0.1481
 1744ntf    on514007   4.477   3.761   4.541 -0.0900 -0.2979 -0.0433
 1744ntf    fn414008   4.663   3.689   4.874 -0.0042 -0.8844  0.7248
 1744ntf    fn414009   4.472   3.745   4.841  0.2559 -0.1109  0.0177
 1744ntf    fn414010   4.553   3.556   4.771  0.0427  0.0253  0.0219
 1745ntf    cn114011   0.781   0.728   6.327 -0.2445  0.3909 -0.2473
 1745ntf    sn214012   0.759   0.658   6.161 -0.1688 -0.2985  0.0294
 1745ntf    nn314013   0.845   0.760   6.079 -0.6947 -0.0758 -0.2466
 1745ntf    sn214014   0.829   0.813   5.931  0.1078  0.1442 -0.2605
 1745ntf    cn114015   0.708   0.947   5.952 -0.1996 -0.1328 -0.2465
 1745ntf    fn414016   0.901   0.742   6.380  0.0246  0.3180 -0.8311
 1745ntf    fn414017   0.727   0.849   6.329  0.7300  0.8350 -0.3626
 1745ntf    fn414018   0.716   0.661   6.421  0.1228 -0.3565 -0.5195
 1745ntf    on514019   0.824   0.530   6.174  0.1413 -0.2144 -0.6480
 1745ntf    on514020   0.617   0.665   6.136 -0.2167 -0.2681  0.3031
 1745ntf    on514021   0.768   0.730   5.830  0.0693  0.0724 -0.1783
 1745ntf    on514022   0.948   0.884   5.894  0.2892  0.2457  0.5014
 1745ntf    fn414023   0.691   1.003   5.833 -0.5300 -0.3546 -0.3046
 1745ntf    fn414024   0.592   0.898   5.991 -0.1683 -0.1693 -0.2000
 1745ntf    fn414025   0.745   1.034   6.044 -0.6435  0.0426 -0.2320
 1746ntf    cn114026   5.911   0.132   2.099 -0.0626  0.2659  0.4443
 1746ntf    sn214027   5.885  -0.047   2.096 -0.0250  0.2624  0.3246
 1746ntf    nn314028   5.962  -0.078   2.230 -0.4060 -0.3507  0.4085
 1746ntf    sn214029   6.079  -0.181   2.247 -0.2238 -0.2608 -0.2636
 1746ntf    cn114030   5.973  -0.325   2.277 -0.3043 -0.1407  0.0277
 1746ntf    fn414031   6.034   0.169   2.132  0.0763  0.5470 -0.3623
 1746ntf    fn414032   5.898   0.195   1.983  0.0524  0.0193  0.2981
 1746ntf    fn414033   5.842   0.205   2.186  0.4204  0.6648  0.5028
 1746ntf    on514034   5.743  -0.058   2.119 -0.0817  0.3387  0.0071
 1746ntf    on514035   5.943  -0.091   1.971 -0.2304 -0.1383  0.3663
 1746ntf    on514036   6.141  -0.172   2.377 -0.8897 -0.6719  0.0875
 1746ntf    on514037   6.159  -0.227   2.137 -0.0313 -0.3359 -0.0926
 1746ntf    fn414038   5.926  -0.318   2.401  0.1632 -0.2001  0.2103
 1746ntf    fn414039   5.883  -0.342   2.181 -0.1478  0.2536 -0.1889
 1746ntf    fn414040   6.048  -0.434   2.274  0.2911  0.2650 -0.0070
 1747ntf    cn114041   1.254   3.258   5.389  0.1287  0.1800  0.3619
 1747ntf    sn214042   1.198   3.381   5.267 -0.1569 -0.1973  0.1066
 1747ntf    nn314043   1.338   3.388   5.196 -0.5278  0.2972 -0.5800
 1747ntf    sn214044   1.403   3.292   5.090  0.0519 -0.0039  0.0427
 1747ntf    cn114045   1.554   3.253   5.183  0.0640 -0.0473  0.0051
 1747ntf    fn414046   1.157   3.212   5.467 -0.1852  0.0860 -0.0752
 1747ntf    fn414047   1.306   3.147   5.338 -0.1881 -0.0567  0.5418
 1747ntf    fn414048   1.349   3.303   5.468  0.0984  0.5800  0.1692
 1747ntf    on514049   1.079   3.322   5.211  0.0076 -0.4471  0.0184
 1747ntf    on514050   1.174   3.502   5.342 -0.1857 -0.1558  0.0302
 1747ntf    on514051   1.461   3.358   4.976  0.3759 -0.2519  0.0645
 1747ntf    on514052   1.345   3.164   5.058  0.2199  0.0706 -0.5810
 1747ntf    fn414053   1.642   3.172   5.128 -0.3046 -0.5531  0.1494
 1747ntf    fn414054   1.625   3.359   5.220 -0.6344  0.4240  0.0130
 1747ntf    fn414055   1.522   3.195   5.298 -0.0353  0.2058  0.1061
 1748ntf    cn114056   0.947   4.355   6.315 -0.3380 -0.2667  0.0889
 1748ntf    sn214057   0.916   4.515   6.234  0.0740 -0.1844  0.0939
 1748ntf    nn314058   1.053   4.587   6.263 -0.1253  0.0564  0.4549
 1748ntf    sn214059   1.101   4.736   6.255 -0.0828  0.0284  0.1707
 1748ntf    cn114060   1.213   4.726   6.112 -0.0477 -0.0221  0.2011
 1748ntf    fn414061   0.855   4.263   6.294 -0.2038 -0.2726 -0.4766
 1748ntf    fn414062   1.058   4.298   6.272 -0.2874 -0.1968  0.1262
 1748ntf    fn414063   0.959   4.375   6.446 -0.0222 -0.4803  0.0917
 1748ntf    on514064   0.890   4.488   6.095  0.4537  0.7833 -0.1792
 1748ntf    on514065   0.806   4.564   6.314  0.1472 -0.4057  0.3320
 1748ntf    on514066   1.191   4.777   6.360 -0.2605  0.3985  0.1792
 1748ntf    on514067   0.996   4.825   6.211  0.4951  0.6458  0.0284
 1748ntf    fn414068   1.261   4.848   6.096 -0.2423  0.0291  0.0040
 1748ntf    fn414069   1.315   4.647   6.139 -0.0765 -0.0540  0.2145
 1748ntf    fn414070   1.173   4.688   5.992  0.3636 -0.0481  0.0708
 1749ntf    cn114071   6.436   0.400   3.057  0.2970 -0.5937  0.4341
 1749ntf    sn214072   6.530   0.261   3.126  0.2189 -0.7180  0.2915
 1749ntf    nn314073   6.571   0.331   3.261 -0.9288  0.5991 -0.0278
 1749ntf    sn214074   6.535   0.312   3.412 -0.4989  0.0507  0.0080
 1749ntf    cn114075   6.662   0.186   3.446 -0.1666  0.4072  0.0848
 1749ntf    fn414076   6.388   0.380   2.935  0.2666 -0.2287  0.3855
 1749ntf    fn414077   6.332   0.433   3.132  0.5851  1.0467  0.1493
 1749ntf    fn414078   6.519   0.502   3.052 -0.3059 -0.1024  0.3150
 1749ntf    on514079   6.437   0.151   3.136  0.1064 -0.6622 -0.1408
 1749ntf    on514080   6.641   0.251   3.034  0.3066  0.1723  0.2953
 1749ntf    on514081   6.412   0.241   3.440 -0.5539  0.0393 -0.2639
 1749ntf    on514082   6.565   0.422   3.500  0.5114 -0.4387  0.2925
 1749ntf    fn414083   6.661   0.149   3.573  0.1715 -0.0905 -0.0557
 1749ntf    fn414084   6.660   0.083   3.364  0.6676  0.5649 -0.1454
 1749ntf    fn414085   6.787   0.226   3.428  0.0653 -0.2228  0.2891
 1750ntf    cn114086   2.517   4.228   4.427 -0.0738 -0.0575  0.0799
 1750ntf    sn214087   2.608   4.074   4.395 -0.2408 -0.1553  0.0767
 1750ntf    nn314088   2.709   4.121   4.284 -0.6601  0.0150 -0.2346
 1750ntf    sn214089   2.819   4.045   4.202  0.0268  0.1016  0.6016
 1750ntf    cn114090   2.964   4.116   4.287  0.0205  0.2591  0.4821
 1750ntf    fn414091   2.597   4.318   4.482 -0.0815 -0.0398  0.0635
 1750ntf    fn414092   2.461   4.282   4.320  0.2141  0.2814  0.0988
 1750ntf    fn414093   2.420   4.207   4.514 -0.3017 -0.0661 -0.1740
 1750ntf    on514094   2.663   4.043   4.524  0.2189 -0.3892 -0.1716
 1750ntf    on514095   2.511   3.980   4.344  0.0469 -0.6778  0.4913
 1750ntf    on514096   2.826   4.096   4.067 -0.4890 -0.6389  0.2917
 1750ntf    on514097   2.822   3.902   4.217 -0.0903 -0.0046 -0.3377
 1750ntf    fn414098   2.940   4.117   4.417  0.0902  0.2148  0.4945
 1750ntf    fn414099   3.064   4.035   4.257 -0.4221 -0.4154  0.8052
 1750ntf    fn414100   2.995   4.235   4.239 -0.0996  0.0609 -0.0898
 1751ntf    cn114101   1.158   6.385   2.051 -0.1177  0.2066  0.5780
 1751ntf    sn214102   1.067   6.278   2.167  0.1050 -0.0952  0.4771
 1751ntf    nn314103   0.986   6.187   2.068  0.3745 -0.4804  0.6082
 1751ntf    sn214104   1.037   6.078   1.968 -0.0325 -0.1284  0.0075
 1751ntf    cn114105   0.940   5.933   2.019 -0.2919  0.0676  0.0681
 1751ntf    fn414106   1.082   6.466   1.980 -0.0977  0.1091  0.4445
 1751ntf    fn414107   1.248   6.463   2.108  0.0679  0.3198  0.1310
 1751ntf    fn414108   1.231   6.312   1.967 -0.7754 -0.2725  0.4149
 1751ntf    on514109   1.165   6.208   2.245  0.5594  0.3132  0.2809
 1751ntf    on514110   0.983   6.367   2.244 -0.3918 -0.8278  0.7873
 1751ntf    on514111   1.177   6.042   1.975 -0.0436 -0.2321 -0.2675
 1751ntf    on514112   0.997   6.108   1.833  0.0455  0.0354  0.0205
 1751ntf    fn414113   0.813   5.944   1.984 -0.4185 -0.3769  0.3733
 1751ntf    fn414114   0.984   5.823   1.961 -0.0502  0.0508  0.2802
 1751ntf    fn414115   0.951   5.908   2.149 -0.3888 -0.3263  0.0000
 1752ntf    cn114116   5.651   0.711   3.025 -0.0063 -0.0531  0.2364
 1752ntf    sn214117   5.722   0.865   3.088  0.2942 -0.0498 -0.1077
 1752ntf    nn314118   5.606   0.968   3.065 -0.2874 -0.5923  0.3767
 1752ntf    sn214119   5.483   1.004   3.156 -0.0899  0.2075  0.3292
 1752ntf    cn114120   5.355   0.966   3.034  0.1598  0.3587  0.0191
 1752ntf    fn414121   5.566   0.743   2.928 -0.1726  0.4330  0.5377
 1752ntf    fn414122   5.738   0.624   2.976  0.3738  0.1830  0.4842
 1752ntf    fn414123   5.587   0.635   3.112 -0.4309 -0.5999 -0.5396
 1752ntf    on514124   5.749   0.838   3.227  1.0142  1.0581 -0.0115
 1752ntf    on514125   5.838   0.890   3.006  0.2195 -0.5681 -0.3753
 1752ntf    on514126   5.462   1.147   3.170 -0.6891  0.1406  0.1448
 1752ntf    on514127   5.448   0.913   3.262 -0.1878 -0.1859 -0.0382
 1752ntf    fn414128   5.344   1.035   2.921 -0.4938  0.0134 -0.1341
 1752ntf    fn414129   5.370   0.839   2.999  0.1631  0.2780  0.3128
 1752ntf    fn414130   5.232   0.982   3.081  0.1949  0.6392  0.0208
 1753ntf    cn114131   0.380   3.904   3.728  0.2596  0.3782  0.1187
 1753ntf    sn214132   0.457   3.772   3.826  0.0411  0.1684  0.0098
 1753ntf    nn314133   0.589   3.846   3.869 -0.0583  0.3192  0.0588
 1753ntf    sn214134   0.736   3.790   3.867 -0.1984 -0.0742  0.4368
 1753ntf    cn114135   0.805   3.928   3.771 -0.3356 -0.2685  0.0559
 1753ntf    fn414136   0.253   3.879   3.700  0.2770  0.5951 -0.1662
 1753ntf    fn414137   0.388   4.022   3.787  0.3245  0.5148 -0.1629
 1753ntf    fn414138   0.439   3.912   3.610  0.0818 -0.3997 -0.0275
 1753ntf    on514139   0.373   3.746   3.940  0.3911  0.3324  0.3076
 1753ntf    on514140   0.469   3.667   3.728 -0.5076 -0.0700  0.1987
 1753ntf    on514141   0.765   3.684   3.774  0.0384  0.3236  0.0513
 1753ntf    on514142   0.807   3.799   3.992  0.7048 -0.4620 -0.0374
 1753ntf    fn414143   0.934   3.916   3.743 -0.3841 -0.3694 -0.1235
 1753ntf    fn414144   0.746   3.931   3.653  0.0386  0.3805 -0.1260
 1753ntf    fn414145   0.791   4.050   3.822 -0.1567  0.0199 -0.5642
 1754ntf    cn114146   1.787   1.932   0.171 -0.1015 -0.0155 -0.4973
 1754ntf    sn214147   1.684   1.792   0.226  0.0603  0.0617  0.0051
 1754ntf    nn314148   1.689   1.692   0.105 -0.0669  0.0866 -0.0205
 1754ntf    sn214149   1.774   1.563   0.079  0.1722  0.1944  0.2196
 1754ntf    cn114150   1.724   1.540  -0.094 -0.0148  0.1415  0.2802
 1754ntf    fn414151   1.775   2.033   0.256 -0.1605 -0.6201  0.2254
 1754ntf    fn414152   1.911   1.890   0.155  0.0347  0.4675 -0.7067
 1754ntf    fn414153   1.736   1.983   0.060 -0.1978 -0.3269 -0.5995
 1754ntf    on514154   1.738   1.742   0.350 -0.1389 -0.1873 -0.0084
 1754ntf    on514155   1.555   1.856   0.235  0.0890  0.1497 -0.1983
 1754ntf    on514156   1.735   1.439   0.141  0.2668  0.0037 -0.0976
 1754ntf    on514157   1.915   1.589   0.065  0.2126 -0.2210 -0.1725
 1754ntf    fn414158   1.593   1.528  -0.107 -0.0255  0.1836  0.3505
 1754ntf    fn414159   1.757   1.649  -0.162  0.2376 -0.1897 -0.1312
 1754ntf    fn414160   1.779   1.435  -0.151 -0.0034 -0.0263  0.5999
 1755ntf    cn114161   4.464   4.706   3.076 -0.1015  0.3920 -0.1983
 1755ntf    sn214162   4.421   4.532   3.047 -0.0742  0.3157  0.2119
 1755ntf    nn314163   4.553   4.469   2.990 -0.1097  0.3291  0.1138
 1755ntf    sn214164   4.611   4.483   2.845  0.0295 -0.1150  0.1235
 1755ntf    cn114165   4.776   4.553   2.881 -0.1077  0.2383  0.0687
 1755ntf    fn414166   4.558   4.721   3.169 -0.3974 -0.0758  0.1788
 1755ntf    fn414167   4.515   4.768   2.971  0.1946  0.2173 -0.1584
 1755ntf    fn414168   4.363   4.780   3.119 -0.3286 -0.1069  0.1308
 1755ntf    on514169   4.389   4.491   3.182  0.4320 -0.2209  0.1736
 1755ntf    on514170   4.304   4.535   2.963 -0.4616 -1.1057  0.6756
 1755ntf    on514171   4.539   4.578   2.764  0.1777  0.1017  0.2444
 1755ntf    on514172   4.646   4.356   2.787 -0.0723 -0.1673  0.1763
 1755ntf    fn414173   4.833   4.489   2.982 -0.2350 -0.2392 -0.1585
 1755ntf    fn414174   4.870   4.552   2.788 -0.3368  0.0572 -0.1619
 1755ntf    fn414175   4.770   4.680   2.917 -0.6304  0.1633  0.2637
 1756ntf    cn114176   4.440   3.079   0.198  0.1160  0.2705  0.1140
 1756ntf    sn214177   4.394   3.015   0.362  0.2450  0.1134  0.0892
 1756ntf    nn314178   4.239   3.002   0.341  0.3399 -0.3885 -0.3438
 1756ntf    sn214179   4.154   2.883   0.398  0.0482 -0.1610 -0.3022
 1756ntf    cn114180   4.011   2.973   0.465  0.2536  0.4268 -0.6386
 1756ntf    fn414181   4.384   3.188   0.148 -0.0960  0.0167 -0.2096
 1756ntf    fn414182   4.569   3.109   0.209  0.2592 -0.0367 -0.6333
 1756ntf    fn414183   4.444   2.985   0.104  0.2931 -0.1905  0.5758
 1756ntf    on514184   4.469   2.892   0.369 -0.2679 -0.2274 -0.3130
 1756ntf    on514185   4.412   3.123   0.455 -0.0141  0.5063 -0.3107
 1756ntf    on514186   4.198   2.816   0.517 -0.0387 -0.1591 -0.2694
 1756ntf    on514187   4.099   2.797   0.296 -0.0628 -0.6458  0.1655
 1756ntf    fn414188   3.964   3.046   0.365  0.1708  0.7113 -0.3926
 1756ntf    fn414189   3.918   2.905   0.530  0.9424  0.1063  0.0255
 1756ntf    fn414190   4.055   3.051   0.563  0.0414 -0.0442 -0.1604
 1757ntf    cn114191   5.096   2.711   4.459  0.0745 -0.1914 -0.0287
 1757ntf    sn214192   5.117   2.887   4.416 -0.1712 -0.1224  0.1330
 1757ntf    nn314193   4.983   2.945   4.360 -0.1812 -0.1797  0.0953
 1757ntf    sn214194   4.843   2.959   4.432 -0.2726  0.6811 -0.2292
 1757ntf    cn114195   4.724   2.897   4.309 -0.3059  0.3407 -0.0249
 1757ntf    fn414196   5.211   2.662   4.500 -0.0235 -0.1112  0.3497
 1757ntf    fn414197   5.012   2.680   4.557 -0.2337  0.1178 -0.1915
 1757ntf    fn414198   5.054   2.650   4.350 -0.4023  0.3380 -0.1466
 1757ntf    on514199   5.166   2.939   4.542  0.2747  0.2834 -0.2073
 1757ntf    on514200   5.213   2.886   4.309 -0.1054 -0.5411  0.1932
 1757ntf    on514201   4.801   3.092   4.466 -0.7748  0.3320  0.5351
 1757ntf    on514202   4.816   2.858   4.531 -0.0022  0.1526 -0.6869
 1757ntf    fn414203   4.712   2.766   4.328  0.1284  0.3416  0.2793
 1757ntf    fn414204   4.603   2.947   4.330 -0.4663 -0.2327  0.4858
 1757ntf    fn414205   4.754   2.925   4.184 -0.2008 -0.0788 -0.0974
 1758ntf    cn114206   1.399   3.764   3.181 -0.4749  0.1027 -0.3081
 1758ntf    sn214207   1.386   3.945   3.191  0.0254  0.1036  0.3999
 1758ntf    nn314208   1.237   3.962   3.238 -0.1459  0.3029 -0.1981
 1758ntf    sn214209   1.129   4.074   3.225 -0.0241  0.4019 -0.3665
 1758ntf    cn114210   1.068   4.080   3.396 -0.0437 -0.1846 -0.3515
 1758ntf    fn414211   1.331   3.711   3.080 -0.0289  0.3463 -0.7412
 1758ntf    fn414212   1.522   3.719   3.166 -0.5664 -0.1558 -0.2823
 1758ntf    fn414213   1.350   3.699   3.285  0.4385 -0.0230  0.0481
 1758ntf    on514214   1.476   3.967   3.301  0.0376 -1.0504  0.6288
 1758ntf    on514215   1.406   3.998   3.058  0.5441 -0.1960  0.3556
 1758ntf    on514216   1.009   4.026   3.161 -0.2235 -0.0206  0.3139
 1758ntf    on514217   1.181   4.205   3.193  0.0743  0.2671 -0.7657
 1758ntf    fn414218   1.021   3.961   3.429 -0.1385 -0.0194  0.1266
 1758ntf    fn414219   1.167   4.115   3.477 -0.3391 -0.3336  0.0798
 1758ntf    fn414220   0.970   4.168   3.410  0.1219 -0.1162  0.4353
 1759ntf    cn114221   3.130   3.960   5.974  0.0677 -0.0094  0.1978
 1759ntf    sn214222   3.267   3.959   5.855 -0.1548  0.1312 -0.0622
 1759ntf    nn314223   3.344   3.829   5.900 -0.1583  0.1735  0.0680
 1759ntf    sn214224   3.487   3.815   5.962 -0.2477 -0.0430  0.2273
 1759ntf    cn114225   3.469   3.667   6.066  0.1205 -0.3695 -0.1656
 1759ntf    fn414226   3.166   3.999   6.095  0.0721  0.6107 -0.0014
 1759ntf    fn414227   3.032   4.038   5.932 -0.0303 -0.0314  0.3828
 1759ntf    fn414228   3.072   3.841   5.987  0.2512 -0.0717  0.4547
 1759ntf    on514229   3.201   3.946   5.728  0.0292 -0.2923 -0.1176
 1759ntf    on514230   3.337   4.082   5.884  0.0083  0.0317 -0.0340
 1759ntf    on514231   3.527   3.917   6.055 -0.0397  0.2751 -0.2043
 1759ntf    on514232   3.584   3.767   5.866 -0.2092  0.0430  0.2227
 1759ntf    fn414233   3.584   3.630   6.121  0.3210  0.5937  0.0947
 1759ntf    fn414234   3.375   3.681   6.159 -0.3166 -0.5598 -0.5786
 1759ntf    fn414235   3.430   3.567   5.989  0.2172 -0.0504 -0.6325
 1760ntf    cn114236   0.783   5.366   4.075  0.1597 -0.0204 -0.1038
 1760ntf    sn214237   0.725   5.532   4.032 -0.2345 -0.1612 -0.1183
 1760ntf    nn314238   0.689   5.589   4.174 -0.2143 -0.4455  0.0007
 1760ntf    sn214239   0.653   5.734   4.222  0.4924 -0.2690  0.0114
 1760ntf    cn114240   0.801   5.789   4.312  0.2357  0.1240  0.1949
 1760ntf    fn414241   0.818   5.299   3.966 -0.0784 -0.2533 -0.0386
 1760ntf    fn414242   0.887   5.367   4.157 -0.2685  0.2534  0.4406
 1760ntf    fn414243   0.688   5.291   4.128  0.1932  0.0068 -0.0040
 1760ntf    on514244   0.837   5.594   3.965  0.2195 -0.1275  0.6636
 1760ntf    on514245   0.611   5.512   3.947  0.0314 -0.3196 -0.4385
 1760ntf    on514246   0.557   5.734   4.330 -0.3899  0.0192 -0.7561
 1760ntf    on514247   0.630   5.830   4.116  0.1687 -0.1650  0.1745
 1760ntf    fn414248   0.810   5.915   4.351  0.4632  0.1575  0.0335
 1760ntf    fn414249   0.821   5.705   4.413 -0.3273  0.1273  0.3167
 1760ntf    fn414250   0.907   5.766   4.238  0.8793  0.4392  0.9976
 1761ntf    cn114251   5.912   3.640   6.423  0.0223 -0.1239  0.1309
 1761ntf    sn214252   5.841   3.596   6.261  0.2801  0.1193 -0.0501
 1761ntf    nn314253   5.973   3.589   6.177  0.1618 -0.5274 -0.1876
 1761ntf    sn214254   6.022   3.675   6.055  0.1345 -0.2918 -0.0321
 1761ntf    cn114255   6.151   3.570   5.981  0.0649 -0.2504 -0.2125
 1761ntf    fn414256   6.034   3.591   6.436 -0.1907 -0.6247  0.2679
 1761ntf    fn414257   5.922   3.767   6.458 -0.6193 -0.1863  0.5599
 1761ntf    fn414258   5.840   3.587   6.520 -0.2314  0.0351  0.0311
 1761ntf    on514259   5.776   3.470   6.291  0.1136  0.1532 -0.2722
 1761ntf    on514260   5.754   3.706   6.231  0.2105  0.1126  0.1264
 1761ntf    on514261   6.087   3.797   6.093 -0.1140  0.0386 -0.6580
 1761ntf    on514262   5.923   3.685   5.951 -0.2486  0.3062  0.3828
 1761ntf    fn414263   6.270   3.589   6.034 -0.2696  0.1768  0.4015
 1761ntf    fn414264   6.122   3.444   6.008 -0.6321 -0.1186 -0.3105
 1761ntf    fn414265   6.161   3.579   5.849 -0.4602 -0.1551 -0.2498
 1762ntf    cn114266   2.904   6.150   5.079  0.1324 -0.2675 -0.0819
 1762ntf    sn214267   3.076   6.173   5.024  0.1384 -0.3759 -0.1085
 1762ntf    nn314268   3.065   6.114   4.879 -0.4148  0.4556 -0.4142
 1762ntf    sn214269   3.165   6.130   4.760  0.1360 -0.1226 -0.0378
 1762ntf    cn114270   3.076   6.254   4.661  0.0518 -0.0245  0.1601
 1762ntf    fn414271   2.824   6.250   5.045  0.5409  0.1794  0.2545
 1762ntf    fn414272   2.855   6.035   5.037 -0.0713 -0.1252 -0.2347
 1762ntf    fn414273   2.900   6.137   5.211 -0.5747  0.2459 -0.0463
 1762ntf    on514274   3.086   6.317   5.032 -0.0804 -0.3999  0.6148
 1762ntf    on514275   3.141   6.091   5.123  0.2961  0.2112  0.2826
 1762ntf    on514276   3.177   6.020   4.668  0.2722  0.1378 -0.3368
 1762ntf    on514277   3.284   6.202   4.799 -0.2738  0.5257  0.0438
 1762ntf    fn414278   3.154   6.331   4.587 -0.0972  0.4108  0.4554
 1762ntf    fn414279   2.990   6.201   4.576  0.0254  0.6086 -0.2146
 1762ntf    fn414280   3.008   6.334   4.741 -0.0028 -0.1610  0.2506
 1763ntf    cn114281   6.010   3.629   5.052  0.0988  0.1953  0.6426
 1763ntf    sn214282   5.938   3.688   5.209 -0.3099 -0.0977  0.5681
 1763ntf    nn314283   6.008   3.827   5.232 -0.2580  0.0295 -0.3159
 1763ntf    sn214284   5.978   3.962   5.158 -0.0741  0.0490 -0.3538
 1763ntf    cn114285   5.880   4.051   5.282  0.2583 -0.2794  0.1463
 1763ntf    fn414286   5.963   3.694   4.947  0.0215 -0.2362  0.4051
 1763ntf    fn414287   6.141   3.628   5.036 -0.0089  0.9934 -0.3139
 1763ntf    fn414288   5.975   3.502   5.040 -0.0575  0.2587  0.4324
 1763ntf    on514289   5.798   3.696   5.178 -0.2774  0.3835  0.5441
 1763ntf    on514290   5.980   3.587   5.303  0.3006 -0.0024  0.4034
 1763ntf    on514291   5.903   3.957   5.035 -0.2389 -0.7368 -0.2273
 1763ntf    on514292   6.100   4.040   5.152  0.0195 -0.0697  0.0280
 1763ntf    fn414293   5.849   4.170   5.232 -0.0140 -0.1198  0.6801
 1763ntf    fn414294   5.769   3.992   5.321  0.2169 -0.2871  0.0176
 1763ntf    fn414295   5.948   4.076   5.393  0.6878  0.2220 -0.2200
 1764ntf    cn114296   4.336   3.623   6.801  0.3242 -0.4499  0.1137
 1764ntf    sn214297   4.489   3.634   6.898  0.2327  0.2551  0.1808
 1764ntf    nn314298   4.483   3.789   6.921 -0.1896  0.3568 -0.6065
 1764ntf    sn214299   4.615   3.866   6.957  0.0731 -0.3519 -0.0405
 1764ntf    cn114300   4.626   3.837   7.136 -0.0853  0.0827  0.0408
 1764ntf    fn414301   4.334   3.725   6.717  0.1368 -0.4583  0.1097
 1764ntf    fn414302   4.318   3.521   6.719  0.4190 -0.1570 -0.2718
 1764ntf    fn414303   4.232   3.632   6.882  0.1167 -0.0044 -0.1963
 1764ntf    on514304   4.450   3.553   7.011  0.1810 -0.0745 -0.0742
 1764ntf    on514305   4.588   3.588   6.804  0.4814  0.4013  0.3685
 1764ntf    on514306   4.596   4.008   6.942  0.1559 -0.4255 -0.9215
 1764ntf    on514307   4.737   3.811   6.903  0.3506  0.1488  0.0701
 1764ntf    fn414308   4.514   3.867   7.199 -0.3599 -0.3772 -0.2223
 1764ntf    fn414309   4.670   3.715   7.164 -0.3956 -0.0173  0.1026
 1764ntf    fn414310   4.722   3.916   7.182  0.4380 -0.4670 -0.0897
 1765ntf    cn114311   2.361   0.703   4.774 -0.1927 -0.3632  0.3238
 1765ntf    sn214312   2.232   0.828   4.747  0.1182 -0.0177  0.4357
 1765ntf    nn314313   2.219   0.791   4.595 -0.3108 -0.0099  0.4698
 1765ntf    sn214314   2.088   0.731   4.533 -0.1806  0.3500 -0.1557
 1765ntf    cn114315   2.018   0.883   4.461  0.0642  0.4774 -0.1256
 1765ntf    fn414316   2.326   0.583   4.730  0.2082 -0.4508  0.2397
 1765ntf    fn414317   2.475   0.723   4.709 -0.3407  0.3543  0.2818
 1765ntf    fn414318   2.402   0.692   4.899  0.0415 -0.4393  0.2425
 1765ntf    on514319   2.125   0.794   4.837 -0.4053 -0.0995 -0.2099
 1765ntf    on514320   2.289   0.959   4.769 -0.4765  0.2312  0.5096
 1765ntf    on514321   1.980   0.699   4.623 -0.1676  0.2722 -0.1678
 1765ntf    on514322   2.117   0.640   4.425 -0.0119  0.0370  0.1545
 1765ntf    fn414323   1.898   0.862   4.410  0.0654 -0.3902  0.2030
 1765ntf    fn414324   2.015   0.993   4.535 -0.0267 -0.0570  0.6724
 1765ntf    fn414325   2.095   0.911   4.357  0.4680 -0.2856 -0.0399
 1766ntf    cn114326   6.201   3.301   2.260 -0.2029 -0.1910  0.3085
 1766ntf    sn214327   6.292   3.457   2.274  0.0791 -0.3128 -0.1479
 1766ntf    nn314328   6.346   3.445   2.421 -0.3107  0.3539  0.0572
 1766ntf    sn214329   6.470   3.367   2.478 -0.3439  0.2821  0.0320
 1766ntf    cn114330   6.574   3.505   2.536  0.0382 -0.2641  0.6626
 1766ntf    fn414331   6.110   3.292   2.356 -0.6641  0.0826 -0.0986
 1766ntf    fn414332   6.141   3.298   2.143 -0.1310 -0.6730  0.2822
 1766ntf    fn414333   6.284   3.198   2.268 -0.2491 -0.2485  0.0227
 1766ntf    on514334   6.392   3.466   2.171 -0.2117 -0.3080 -0.4291
 1766ntf    on514335   6.189   3.558   2.278  0.4808  0.0812  0.4782
 1766ntf    on514336   6.561   3.295   2.392  0.0749 -0.1617  0.8330
 1766ntf    on514337   6.439   3.299   2.601 -0.2983 -0.2529 -0.2489
 1766ntf    fn414338   6.516   3.604   2.603 -0.4199  0.2864 -0.5115
 1766ntf    fn414339   6.672   3.455   2.609  0.0822 -0.3522  0.5431
 1766ntf    fn414340   6.622   3.561   2.426  0.3663 -0.5512  0.6565
 1767ntf    cn114341   2.111   5.997   3.435 -0.4928 -0.0605  0.0197
 1767ntf    sn214342   1.937   5.973   3.482 -0.3327  0.0656  0.6890
 1767ntf    nn314343   1.886   6.018   3.340 -0.0803 -0.4906  0.4171
 1767ntf    sn214344   1.771   5.960   3.250 -0.2157  0.1550  0.1700
 1767ntf    cn114345   1.863   5.928   3.096 -0.4392 -0.2429  0.1191
 1767ntf    fn414346   2.193   5.964   3.534 -0.1955 -0.5322 -0.3780
 1767ntf    fn414347   2.144   5.933   3.324 -0.0696  0.2049 -0.0106
 1767ntf    fn414348   2.138   6.123   3.404 -0.0585 -0.0278  0.5175
 1767ntf    on514349   1.929   5.832   3.514  0.0071 -0.2313 -0.4877
 1767ntf    on514350   1.924   6.074   3.584 -0.0622  0.3570  0.4337
 1767ntf    on514351   1.663   6.047   3.211 -0.4185 -0.3583 -0.4368
 1767ntf    on514352   1.723   5.832   3.295 -0.1835  0.3293  0.7010
 1767ntf    fn414353   1.934   6.030   3.051 -0.6344 -0.2504 -0.2065
 1767ntf    fn414354   1.937   5.819   3.110 -0.0823  0.0454  0.5066
 1767ntf    fn414355   1.779   5.896   2.999  0.1498 -0.8767 -0.1901
 1768ntf    cn114356   5.527   3.031   3.898 -0.1347  0.0293  0.2767
 1768ntf    sn214357   5.579   3.205   3.908  0.1670 -0.0198 -0.3501
 1768ntf    nn314358   5.728   3.179   3.948  0.0719  0.2148  0.1594
 1768ntf    sn214359   5.847   3.167   3.847  0.0281 -0.0648  0.1419
 1768ntf    cn114360   5.902   3.339   3.827  0.0526 -0.0081  0.6803
 1768ntf    fn414361   5.395   3.028   3.885 -0.1537 -0.6614  0.6142
 1768ntf    fn414362   5.576   2.969   3.791  0.3303  0.3562  0.2981
 1768ntf    fn414363   5.566   2.961   4.002  0.4340 -0.7338 -0.4347
 1768ntf    on514364   5.553   3.259   3.777  0.2882  0.7902 -0.0466
 1768ntf    on514365   5.495   3.252   4.015  0.3727 -0.9797  0.2438
 1768ntf    on514366   5.813   3.135   3.711  0.0180 -0.2392  0.1853
 1768ntf    on514367   5.951   3.090   3.911  0.3446  0.3999  0.1879
 1768ntf    fn414368   5.807   3.408   3.767 -0.2134 -0.6430  0.3613
 1768ntf    fn414369   5.927   3.401   3.941 -0.3873  1.2713  0.0923
 1768ntf    fn414370   6.016   3.344   3.760 -0.0798 -0.0781  0.4483
 1769ntf    cn114371   3.272   5.406   6.652  0.0540  0.0365 -0.2004
 1769ntf    sn214372   3.381   5.482   6.775  0.0429 -0.4123  0.0898
 1769ntf    nn314373   3.294   5.599   6.834  0.3807 -0.0943 -0.0364
 1769ntf    sn214374   3.305   5.749   6.788 -0.0366 -0.0472  0.0184
 1769ntf    cn114375   3.461   5.789   6.871  0.0588  0.3323 -0.3387
 1769ntf    fn414376   3.163   5.353   6.704 -0.0493  0.0596 -0.3930
 1769ntf    fn414377   3.243   5.493   6.556 -0.1300 -0.3366 -0.4881
 1769ntf    fn414378   3.333   5.306   6.589 -0.0973  0.1425 -0.5157
 1769ntf    on514379   3.406   5.381   6.875 -0.0635 -0.2419  0.2910
 1769ntf    on514380   3.493   5.520   6.692 -0.5291  0.3149 -0.3658
 1769ntf    on514381   3.203   5.824   6.857  0.4049 -0.0289  0.6599
 1769ntf    on514382   3.342   5.780   6.652 -0.3039 -0.4356 -0.1463
 1769ntf    fn414383   3.468   5.737   6.993 -0.3016 -0.6842 -0.7359
 1769ntf    fn414384   3.570   5.746   6.810 -0.2957 -0.5242 -0.3906
 1769ntf    fn414385   3.491   5.916   6.890  0.6668  0.1399  0.0258
 1770ntf    cn114386   6.636   5.655   4.143  0.0774 -0.1595 -0.3836
 1770ntf    sn214387   6.679   5.543   4.280  0.0141  0.2678 -0.0117
 1770ntf    nn314388   6.549   5.460   4.307  0.1064  0.1541  0.0840
 1770ntf    sn214389   6.475   5.377   4.197 -0.0234 -0.0443  0.3192
 1770ntf    cn114390   6.374   5.279   4.313 -0.4601  0.0482  0.0210
 1770ntf    fn414391   6.524   5.721   4.167  0.3694  0.2004  0.0001
 1770ntf    fn414392   6.727   5.747   4.114 -0.0169 -0.0597 -0.3647
 1770ntf    fn414393   6.610   5.588   4.032 -0.5185 -0.3204 -0.1493
 1770ntf    on514394   6.786   5.466   4.222 -0.0220  0.1826  0.0358
 1770ntf    on514395   6.711   5.632   4.389  0.5820  0.0258  0.0203
 1770ntf    on514396   6.555   5.281   4.124 -0.2495  0.2759 -0.3545
 1770ntf    on514397   6.376   5.449   4.121  0.1879  0.6003  0.6525
 1770ntf    fn414398   6.433   5.173   4.366  0.0167  0.1705 -0.2550
 1770ntf    fn414399   6.331   5.354   4.413  0.6349  0.1582  0.4254
 1770ntf    fn414400   6.267   5.235   4.250  0.1029 -0.6965 -0.4439
 1771ntf    cn114401   4.821   6.178   6.430 -0.5487  0.4151 -0.0483
 1771ntf    sn214402   4.721   6.170   6.278 -0.3969 -0.2191 -0.1144
 1771ntf    nn314403   4.750   6.017   6.254  0.3944 -0.1676  0.4643
 1771ntf    sn214404   4.648   5.898   6.244  0.2380 -0.0379  0.4919
 1771ntf    cn114405   4.747   5.745   6.257  0.1639 -0.1299 -0.0079
 1771ntf    fn414406   4.952   6.185   6.414 -0.4122 -0.8351  0.4271
 1771ntf    fn414407   4.795   6.281   6.509  0.2319  0.5373  0.0577
 1771ntf    fn414408   4.809   6.068   6.502 -0.0543  0.1023 -0.4386
 1771ntf    on514409   4.591   6.208   6.326 -0.3933  0.5235 -0.6714
 1771ntf    on514410   4.786   6.250   6.177 -0.5805 -0.6100 -0.5427
 1771ntf    on514411   4.589   5.893   6.113 -0.0850  0.4896  0.6162
 1771ntf    on514412   4.561   5.888   6.359 -0.4964 -0.1796 -0.0720
 1771ntf    fn414413   4.817   5.756   6.369 -0.7967 -0.0153  0.5965
 1771ntf    fn414414   4.672   5.637   6.262  0.1629 -0.1568 -0.5262
 1771ntf    fn414415   4.832   5.726   6.158  0.5789  0.2236  0.2744
 1772ntf    cn114416   0.580   6.509   5.966 -0.0041  0.2831  0.1398
 1772ntf    sn214417   0.606   6.657   5.864  0.4899 -0.0934 -0.2869
 1772ntf    nn314418   0.740   6.613   5.796  0.2623  0.2500 -0.9724
 1772ntf    sn214419   0.884   6.617   5.859  0.0193  0.0007 -0.4003
 1772ntf    cn114420   0.957   6.759   5.772  0.3515  0.5245  0.7038
 1772ntf    fn414421   0.558   6.411   5.879 -0.5878  0.3258  0.2351
 1772ntf    fn414422   0.672   6.462   6.048  0.3243 -0.4011 -0.6013
 1772ntf    fn414423   0.472   6.518   6.042  0.0398  0.1261  0.2200
 1772ntf    on514424   0.496   6.644   5.771  0.2408  0.4339 -0.0711
 1772ntf    on514425   0.594   6.775   5.946 -0.3349 -0.1008 -0.3884
 1772ntf    on514426   0.962   6.501   5.827 -0.0855 -0.2961  0.3959
 1772ntf    on514427   0.896   6.671   5.993 -0.3720  0.1608 -0.4252
 1772ntf    fn414428   0.893   6.872   5.794  0.0600  0.5290 -0.1315
 1772ntf    fn414429   1.086   6.782   5.790  0.5525 -0.1288  0.1634
 1772ntf    fn414430   0.933   6.737   5.643 -0.7212  0.1924  0.9507
 1773ntf    cn114431   5.979   3.638   4.293  0.0799 -0.0039  0.3754
 1773ntf    sn214432   6.144   3.704   4.331  0.1156  0.1501 -0.0372
 1773ntf    nn314433   6.195   3.765   4.196  0.6284  0.1331  0.1454
 1773ntf    sn214434   6.161   3.899   4.121 -0.1453 -0.0035  0.2435
 1773ntf    cn114435   6.076   3.836   3.974 -0.2064  0.4619  0.0769
 1773ntf    fn414436   5.903   3.741   4.257 -0.3385 -0.2692  0.4931
 1773ntf    fn414437   5.980   3.553   4.192 -0.1560  0.3052  0.1085
 1773ntf    fn414438   5.924   3.575   4.395  0.3368 -0.0269  0.5010
 1773ntf    on514439   6.098   3.794   4.434  0.0246 -0.1727  0.2047
 1773ntf    on514440   6.218   3.589   4.379 -0.5347 -0.0936  0.3952
 1773ntf    on514441   6.274   3.955   4.051 -0.3362 -0.2724 -0.2823
 1773ntf    on514442   6.067   3.981   4.194  0.1840  0.3004  0.3317
 1773ntf    fn414443   5.961   3.776   4.003  0.0270  0.1002  0.2597
 1773ntf    fn414444   6.051   3.935   3.890  0.0555  0.5389  0.0912
 1773ntf    fn414445   6.147   3.749   3.904  0.2117  0.5554  0.3823
 1774ntf    cn114446   6.459   0.482   2.537  0.3252  0.5403  0.5242
 1774ntf    sn214447   6.402   0.532   2.371  0.3423 -0.1208  0.3157
 1774ntf    nn314448   6.475   0.666   2.335  0.3749 -0.2196  0.0195
 1774ntf    sn214449   6.614   0.687   2.263  0.5144  0.0934  0.3817
 1774ntf    cn114450   6.587   0.831   2.155  0.0640 -0.0909  0.2466
 1774ntf    fn414451   6.585   0.444   2.549  0.2419  0.3134  0.6829
 1774ntf    fn414452   6.448   0.568   2.637 -0.4643  0.3601  0.6043
 1774ntf    fn414453   6.375   0.383   2.564  0.7577 -0.1500 -0.5946
 1774ntf    on514454   6.437   0.420   2.287  0.1620 -0.1012  0.2146
 1774ntf    on514455   6.262   0.556   2.396  0.4188  0.0555  0.5809
 1774ntf    on514456   6.647   0.584   2.168  0.0248 -0.2266  0.5526
 1774ntf    on514457   6.717   0.732   2.354  1.0896  0.1988 -0.3139
 1774ntf    fn414458   6.700   0.853   2.090  0.0909 -0.3492  0.2031
 1774ntf    fn414459   6.503   0.794   2.060  0.1379 -0.5930  0.3730
 1774ntf    fn414460   6.532   0.943   2.198 -0.1764 -0.0004 -0.2962
 1775ntf    cn114461   6.118   5.161   3.595 -0.3369 -0.1238 -0.1021
 1775ntf    sn214462   5.943   5.118   3.571 -0.3457  0.0789 -0.4109
 1775ntf    nn314463   5.958   5.025   3.446  0.4456 -0.1599 -0.1425
 1775ntf    sn214464   6.002   4.874   3.436  0.3486 -0.1929 -0.0667
 1775ntf    cn114465   6.090   4.869   3.277  0.5371 -0.4314  0.0456
 1775ntf    fn414466   6.171   5.228   3.494  0.1735 -0.5359 -0.1075
 1775ntf    fn414467   6.133   5.236   3.704  0.1547 -0.2117 -0.1053
 1775ntf    fn414468   6.188   5.051   3.616 -0.3953 -0.1526 -0.0601
 1775ntf    on514469   5.890   5.059   3.691  0.4296 -0.0051 -0.1056
 1775ntf    on514470   5.880   5.243   3.538  0.1820  0.1043 -1.3431
 1775ntf    on514471   5.889   4.787   3.414  0.3193 -0.1400 -0.1256
 1775ntf    on514472   6.103   4.832   3.529  0.0774  0.0185  0.3277
 1775ntf    fn414473   6.146   4.750   3.264  0.4954 -0.4615  0.1344
 1775ntf    fn414474   6.009   4.877   3.173  0.9527 -0.2482 -0.2651
 1775ntf    fn414475   6.177   4.968   3.273  0.1425 -0.0930 -0.3870
 1776ntf    cn114476   5.065   3.737   0.364  0.0560 -0.0598 -0.3481
 1776ntf    sn214477   5.135   3.575   0.404 -0.0546 -0.0481 -0.1067
 1776ntf    nn314478   5.290   3.604   0.403 -0.1292  0.3478 -0.2751
 1776ntf    sn214479   5.385   3.596   0.279  0.1556  0.1453 -0.0451
 1776ntf    cn114480   5.435   3.421   0.275  0.1428  0.1441 -0.1752
 1776ntf    fn414481   4.933   3.731   0.373  0.1132 -0.1060  0.4645
 1776ntf    fn414482   5.109   3.838   0.437 -0.1750 -0.0653 -0.2015
 1776ntf    fn414483   5.090   3.789   0.244 -0.1306  0.8002 -0.0252
 1776ntf    on514484   5.087   3.557   0.538  0.0234  0.5333  0.0006
 1776ntf    on514485   5.090   3.484   0.301  0.2799  0.0803 -0.3677
 1776ntf    on514486   5.507   3.668   0.307  0.4398 -0.2305 -0.2929
 1776ntf    on514487   5.330   3.628   0.150  0.8071 -0.7813 -0.5674
 1776ntf    fn414488   5.547   3.389   0.213 -0.0744 -0.8506 -0.0637
 1776ntf    fn414489   5.463   3.371   0.395  0.3380 -0.3624 -0.4316
 1776ntf    fn414490   5.338   3.341   0.235 -0.0842  0.3623 -0.0667
 1777ntf    cn114491   1.227   6.513   3.836  0.2100  0.3330  0.1557
 1777ntf    sn214492   1.135   6.452   3.692  0.1604  0.2986  0.2026
 1777ntf    nn314493   1.141   6.299   3.727  0.3303  0.2846  0.1165
 1777ntf    sn214494   1.171   6.173   3.638 -0.1781  0.3576 -0.1644
 1777ntf    cn114495   1.345   6.146   3.682 -0.2460  0.0708 -0.0703
 1777ntf    fn414496   1.359   6.508   3.829  0.1735 -0.0888 -0.2666
 1777ntf    fn414497   1.208   6.643   3.851 -0.8360  0.2700 -0.4931
 1777ntf    fn414498   1.183   6.454   3.946  0.2504  0.6477  0.3412
 1777ntf    on514499   1.006   6.514   3.707  0.0254 -0.1250  0.8310
 1777ntf    on514500   1.213   6.488   3.576 -0.1032 -0.0323 -0.0831
 1777ntf    on514501   1.172   6.209   3.498 -0.0174 -0.6015 -0.4141
 1777ntf    on514502   1.098   6.063   3.695 -0.4355  0.6765  0.1273
 1777ntf    fn414503   1.385   6.228   3.779  0.0509  0.2348 -0.3276
 1777ntf    fn414504   1.372   6.024   3.725  0.0075  0.2864  0.3912
 1777ntf    fn414505   1.432   6.171   3.586  0.2637 -0.4738  0.2426
 1778ntf    cn114506   0.168   3.919   4.448  0.3828 -0.2043 -0.0324
 1778ntf    sn214507   0.116   3.918   4.274  0.0699 -0.1657  0.0596
 1778ntf    nn314508   0.202   4.033   4.212 -0.1511 -0.0050  0.0485
 1778ntf    sn214509   0.159   4.183   4.193 -0.1326  0.0106  0.1290
 1778ntf    cn114510   0.310   4.244   4.112 -0.0639 -0.2782  0.0384
 1778ntf    fn414511   0.297   3.905   4.472  0.3636  0.0996  0.2591
 1778ntf    fn414512   0.138   4.032   4.512 -0.0026 -0.0541 -0.4690
 1778ntf    fn414513   0.106   3.823   4.515 -0.4386  0.1884 -0.2025
 1778ntf    on514514   0.153   3.789   4.221  0.7279  0.1072 -0.1525
 1778ntf    on514515  -0.025   3.951   4.276  0.0149 -0.3809 -0.2620
 1778ntf    on514516   0.148   4.265   4.311 -0.1966 -0.1052  0.2041
 1778ntf    on514517   0.062   4.189   4.086  0.3269  0.8613 -0.2457
 1778ntf    fn414518   0.398   4.280   4.205 -0.0624  0.2261 -0.1571
 1778ntf    fn414519   0.368   4.157   4.031  0.4662  0.3100 -0.2225
 1778ntf    fn414520   0.269   4.344   4.036  0.0379 -0.2779 -0.0162
 1779ntf    cn114521   5.583   6.792   0.857 -0.3728 -0.5013 -0.8007
 1779ntf    sn214522   5.518   6.921   0.746 -0.1870  0.1692 -0.1391
 1779ntf    nn314523   5.554   6.852   0.610  0.2584 -0.3401  0.2327
 1779ntf    sn214524   5.492   6.888   0.470  0.1997 -0.0209  0.3383
 1779ntf    cn114525   5.625   6.867   0.348 -0.6564 -0.4027 -0.5355
 1779ntf    fn414526   5.595   6.828   0.984  0.1511  0.4734 -1.1119
 1779ntf    fn414527   5.503   6.687   0.861 -0.5107 -0.3735 -0.0790
 1779ntf    fn414528   5.705   6.759   0.815  0.1064 -0.2509  0.3573
 1779ntf    on514529   5.378   6.925   0.783 -0.2524  0.3573 -0.4080
 1779ntf    on514530   5.597   7.039   0.772  0.0892  0.0316 -0.3569
 1779ntf    on514531   5.443   7.022   0.457 -0.3148 -0.2202  0.1921
 1779ntf    on514532   5.398   6.785   0.431 -0.2510  0.6722 -0.4178
 1779ntf    fn414533   5.606   6.929   0.232 -0.0349  0.1112 -0.3682
 1779ntf    fn414534   5.738   6.912   0.400 -0.4732 -0.6363 -0.7231
 1779ntf    fn414535   5.639   6.737   0.322 -0.3770 -0.4653 -0.0838
 1780ntf    cn114536   4.446   2.500   5.097 -0.0662  0.1195 -0.0111
 1780ntf    sn214537   4.478   2.465   4.922 -0.1232  0.0844 -0.0145
 1780ntf    nn314538   4.621   2.530   4.918  0.0480 -0.2700  0.2563
 1780ntf    sn214539   4.767   2.474   4.914  0.1830  0.0615  0.4382
 1780ntf    cn114540   4.798   2.505   4.737  0.1744  0.3824  0.4934
 1780ntf    fn414541   4.331   2.448   5.137 -0.0658 -0.2491 -0.4855
 1780ntf    fn414542   4.540   2.446   5.173  0.1693 -0.1985 -0.5193
 1780ntf    fn414543   4.447   2.629   5.127  0.0618  0.0553  0.2670
 1780ntf    on514544   4.470   2.323   4.902 -0.5893  0.1095 -0.0086
 1780ntf    on514545   4.381   2.535   4.841 -0.5039 -0.5168 -0.0839
 1780ntf    on514546   4.789   2.333   4.937 -0.3549 -0.1171 -0.1045
 1780ntf    on514547   4.859   2.569   4.971  0.7322  0.2349 -0.6939
 1780ntf    fn414548   4.738   2.417   4.659  0.5605  0.3363  0.2502
 1780ntf    fn414549   4.769   2.626   4.691 -0.2451  0.0915 -0.0222
 1780ntf    fn414550   4.928   2.492   4.719  0.0044 -0.1720 -0.3591
 1781ntf    cn114551   2.223   2.008   3.101 -0.0569  0.0960 -0.3317
 1781ntf    sn214552   2.249   1.891   3.238  0.2034  0.1120 -0.3662
 1781ntf    nn314553   2.239   1.979   3.368 -0.2607 -0.4468 -0.0191
 1781ntf    sn214554   2.120   1.982   3.470 -0.1638 -0.1718  0.0877
 1781ntf    cn114555   2.157   1.836   3.572 -0.1321  0.0083  0.3350
 1781ntf    fn414556   2.197   1.953   2.983 -0.0839  1.2653 -0.8873
 1781ntf    fn414557   2.121   2.085   3.134  0.4733  0.6526  0.0190
 1781ntf    fn414558   2.316   2.100   3.083  0.0746  0.0302  0.0068
 1781ntf    on514559   2.149   1.788   3.225 -0.0653  0.3583 -0.2748
 1781ntf    on514560   2.387   1.853   3.223  0.0911 -0.5772  0.2777
 1781ntf    on514561   1.988   1.965   3.415  0.1039 -0.2980 -0.5162
 1781ntf    on514562   2.127   2.086   3.570  0.3939 -0.8403  0.7593
 1781ntf    fn414563   2.152   1.714   3.521 -0.2561  0.2170 -0.1559
 1781ntf    fn414564   2.277   1.848   3.625 -0.0024  0.0681  0.0283
 1781ntf    fn414565   2.077   1.831   3.678 -0.4262  0.2728  0.1249
 1782ntf    cn114566   3.532   4.992   5.157 -0.1163 -0.2974  0.2923
 1782ntf    sn214567   3.403   4.943   5.039  0.0339  0.2614 -0.1056
 1782ntf    nn314568   3.429   4.789   5.032  0.0023  0.2727 -0.4733
 1782ntf    sn214569   3.504   4.709   4.920 -0.5391 -0.1112 -0.5673
 1782ntf    cn114570   3.611   4.601   5.020 -0.1295  0.2524 -0.6093
 1782ntf    fn414571   3.492   4.985   5.283  0.5259  0.1528  0.5250
 1782ntf    fn414572   3.646   4.926   5.144  0.0626  0.0806 -0.0748
 1782ntf    fn414573   3.574   5.117   5.142 -0.1726 -0.3124 -0.0007
 1782ntf    on514574   3.283   4.979   5.111  0.2223  0.2660  0.2094
 1782ntf    on514575   3.433   5.024   4.924 -0.0410  0.3630 -0.0546
 1782ntf    on514576   3.601   4.784   4.844  0.1747 -0.3558  0.0850
 1782ntf    on514577   3.414   4.618   4.853 -0.3381 -0.3124 -0.5644
 1782ntf    fn414578   3.536   4.540   5.110  0.2269  0.5102 -0.1351
 1782ntf    fn414579   3.677   4.507   4.954 -0.1646 -0.5210  0.4306
 1782ntf    fn414580   3.701   4.677   5.080  0.0205 -0.2276 -0.2188
 1783ntf    cn114581   4.874   2.048   1.493 -0.1646  0.4707 -0.0023
 1783ntf    sn214582   4.991   1.979   1.615 -0.2961  0.3781  0.0717
 1783ntf    nn314583   5.095   2.096   1.609  0.5522 -0.3651  0.1925
 1783ntf    sn214584   5.223   2.097   1.518  0.3329  0.0767 -0.1139
 1783ntf    cn114585   5.324   2.209   1.621  0.0532  0.1911  0.0363
 1783ntf    fn414586   4.766   1.974   1.470  0.2371 -0.1830  0.1626
 1783ntf    fn414587   4.837   2.165   1.541 -0.4816  0.0936  0.6980
 1783ntf    fn414588   4.939   2.068   1.379  0.0601 -0.1606  0.0100
 1783ntf    on514589   4.915   1.978   1.738 -0.4538  0.4248 -0.0246
 1783ntf    on514590   5.040   1.855   1.561  0.1034  0.7157 -0.3486
 1783ntf    on514591   5.207   2.168   1.393  0.3405 -0.0587 -0.1915
 1783ntf    on514592   5.299   1.975   1.506 -0.3382 -0.3962  0.4030
 1783ntf    fn414593   5.359   2.154   1.735 -0.1269 -0.6533 -0.3083
 1783ntf    fn414594   5.437   2.244   1.563  0.3224 -0.3905  0.2031
 1783ntf    fn414595   5.259   2.319   1.656  0.5365  0.3084  0.5680
 1784ntf    cn114596   1.456   0.927   3.336  0.1852 -0.0829  0.0460
 1784ntf    sn214597   1.571   0.973   3.202 -0.0032  0.1484 -0.0352
 1784ntf    nn314598   1.599   0.827   3.153  0.0186  0.2165 -0.2258
 1784ntf    sn214599   1.571   0.756   3.016 -0.1257  0.3964 -0.2891
 1784ntf    cn114600   1.683   0.614   3.032 -0.5397  0.1508  0.4892
 1784ntf    fn414601   1.365   0.840   3.295 -0.0764  0.1534  0.1273
 1784ntf    fn414602   1.503   0.877   3.449  0.3014  0.2260  0.1336
 1784ntf    fn414603   1.381   1.031   3.365  0.0914 -0.1373 -0.0027
 1784ntf    on514604   1.479   1.047   3.119 -0.5063  0.5162  0.8298
 1784ntf    on514605   1.676   1.048   3.266 -0.3156  0.1719  0.4595
 1784ntf    on514606   1.630   0.820   2.901  0.4234  0.1905 -0.1233
 1784ntf    on514607   1.442   0.692   3.004 -0.0140 -0.1064  1.0051
 1784ntf    fn414608   1.729   0.575   2.914  0.1105  0.0387  0.7728
 1784ntf    fn414609   1.793   0.637   3.102 -0.2431 -0.5017  0.2432
 1784ntf    fn414610   1.621   0.512   3.088  0.2385 -0.7027 -0.1767
 1785ntf    cn114611   3.171   6.625   5.937 -0.1651 -0.1869  0.0937
 1785ntf    sn214612   3.212   6.448   5.921 -0.0494 -0.1431 -0.1009
 1785ntf    nn314613   3.071   6.388   5.885 -0.2775  0.3902 -0.1022
 1785ntf    sn214614   3.044   6.280   5.774  0.0277  0.1357  0.0727
 1785ntf    cn114615   3.017   6.367   5.617 -0.1156 -0.0341  0.0036
 1785ntf    fn414616   3.279   6.702   5.931 -0.1229 -0.2312  0.2626
 1785ntf    fn414617   3.084   6.668   5.848 -0.1005  0.0400  0.1399
 1785ntf    fn414618   3.122   6.664   6.053  0.3214  0.2185  0.1688
 1785ntf    on514619   3.303   6.444   5.809 -0.0213  0.3157 -0.0984
 1785ntf    on514620   3.269   6.417   6.049 -1.2064 -0.3062  0.3901
 1785ntf    on514621   2.908   6.236   5.791 -0.0946  0.3801 -0.2634
 1785ntf    on514622   3.135   6.168   5.768 -0.9032 -0.6558  0.5060
 1785ntf    fn414623   2.994   6.281   5.519 -0.0826  0.3508 -0.3466
 1785ntf    fn414624   2.925   6.462   5.616 -0.1400 -0.0614 -0.3190
 1785ntf    fn414625   3.126   6.431   5.580  0.0110 -0.1457  0.1829
 1786ntf    cn114626   3.797   2.226   2.711  0.0262  0.4712 -0.0964
 1786ntf    sn214627   3.748   2.276   2.543 -0.0922  0.4060 -0.0817
 1786ntf    nn314628   3.597   2.232   2.542 -0.0841  0.3794 -0.1290
 1786ntf    sn214629   3.487   2.237   2.430 -0.0265  0.1699 -0.1947
 1786ntf    cn114630   3.397   2.380   2.498 -0.0809  0.0579 -0.0308
 1786ntf    fn414631   3.909   2.290   2.741  0.1897  0.2609 -0.2538
 1786ntf    fn414632   3.706   2.258   2.800  0.4553 -0.2533  0.6172
 1786ntf    fn414633   3.825   2.096   2.712 -0.2191  0.4192  0.0656
 1786ntf    on514634   3.765   2.419   2.544 -0.5483  0.4650  1.2102
 1786ntf    on514635   3.833   2.190   2.465 -0.4690 -0.1016  0.0610
 1786ntf    on514636   3.390   2.131   2.442 -0.7243  0.8214  0.0401
 1786ntf    on514637   3.534   2.280   2.301 -0.4076 -0.1108 -0.4257
 1786ntf    fn414638   3.278   2.390   2.442 -0.0479 -0.3670 -0.1845
 1786ntf    fn414639   3.364   2.368   2.626  0.4323 -0.1041  0.0906
 1786ntf    fn414640   3.456   2.495   2.469  0.2947 -0.2914 -0.6861
 1787ntf    cn114641   0.414   0.017   0.603  0.3885  0.0304 -0.1386
 1787ntf    sn214642   0.418   0.102   0.764  0.2605  0.2926 -0.2738
 1787ntf    nn314643   0.297   0.031   0.835  0.7952 -0.6146 -0.2520
 1787ntf    sn214644   0.291  -0.062   0.961  0.1076 -0.1975  0.0300
 1787ntf    cn114645   0.333   0.060   1.089  0.1800 -0.3020  0.1059
 1787ntf    fn414646   0.419  -0.114   0.625 -0.6460  0.0385  0.2033
 1787ntf    fn414647   0.293   0.031   0.551  0.5330 -0.1497 -0.5232
 1787ntf    fn414648   0.507   0.055   0.517  0.5392 -0.1151 -0.0404
 1787ntf    on514649   0.550   0.079   0.817  0.1635 -0.4247 -0.3297
 1787ntf    on514650   0.385   0.239   0.732 -0.3473  0.2745  0.2599
 1787ntf    on514651   0.393  -0.163   0.971  0.2904 -0.0194 -0.0172
 1787ntf    on514652   0.159  -0.111   0.990  0.0193  0.1058  0.1432
 1787ntf    fn414653   0.450   0.122   1.081 -0.0577  0.1916  0.4401
 1787ntf    fn414654   0.245   0.157   1.109 -0.2767 -0.6713 -0.0956
 1787ntf    fn414655   0.337  -0.011   1.200 -0.5016 -0.2044  0.1967
 1788ntf    cn114656   1.325   6.823   5.983  0.0933  0.2534 -0.0352
 1788ntf    sn214657   1.451   6.896   5.874  0.1874 -0.0564 -0.1351
 1788ntf    nn314658   1.361   6.964   5.766  0.3216 -0.2362 -0.3611
 1788ntf    sn214659   1.361   7.111   5.711  0.1640  0.0198  0.3191
 1788ntf    cn114660   1.496   7.093   5.591  0.5848  0.2244  0.7587
 1788ntf    fn414661   1.236   6.907   6.033 -0.5236 -0.7376  0.5696
 1788ntf    fn414662   1.254   6.729   5.923  0.0094 -0.1957  0.7481
 1788ntf    fn414663   1.389   6.756   6.078  0.0156  0.0058 -0.1559
 1788ntf    on514664   1.529   6.980   5.962 -0.2150  0.0500  0.1193
 1788ntf    on514665   1.516   6.780   5.817 -0.0951 -0.2682 -0.0300
 1788ntf    on514666   1.410   7.211   5.803 -0.8393  0.7964  0.0308
 1788ntf    on514667   1.249   7.148   5.628  0.2875  0.0972  0.1873
 1788ntf    fn414668   1.546   7.213   5.570  0.0711  0.3526  0.2609
 1788ntf    fn414669   1.595   7.021   5.641  0.3705 -0.3330  0.3871
 1788ntf    fn414670   1.472   7.039   5.473  0.3678  0.1244  0.8483
 1789ntf    cn114671   1.337   4.229   5.008 -0.0193 -0.3136 -0.1084
 1789ntf    sn214672   1.424   4.277   5.160 -0.0292 -0.0236 -0.1930
 1789ntf    nn314673   1.325   4.222   5.269  0.1196  0.1515  0.0321
 1789ntf    sn214674   1.361   4.146   5.401 -0.0699 -0.2764 -0.1611
 1789ntf    cn114675   1.362   3.972   5.349 -0.3220 -0.2264 -0.3361
 1789ntf    fn414676   1.214   4.276   5.014  0.1214  0.0429  0.0680
 1789ntf    fn414677   1.379   4.287   4.896  0.3124  0.1379  0.2415
 1789ntf    fn414678   1.338   4.099   4.988 -0.2395 -0.3659  0.2167
 1789ntf    on514679   1.540   4.190   5.159 -0.5167 -0.6802 -0.3913
 1789ntf    on514680   1.435   4.419   5.139  0.7391 -0.0589 -0.0769
 1789ntf    on514681   1.255   4.143   5.498 -0.1281  0.2763 -0.2018
 1789ntf    on514682   1.491   4.171   5.460 -0.2576  0.4499 -0.0496
 1789ntf    fn414683   1.240   3.923   5.332 -0.3533 -0.1803 -0.2479
 1789ntf    fn414684   1.422   3.968   5.232  0.1245  0.4470 -0.1362
 1789ntf    fn414685   1.423   3.897   5.440 -0.1176 -0.4357 -0.6445
 1790ntf    cn114686   4.990   3.518   3.749 -0.0385  0.5142 -0.0212
 1790ntf    sn214687   4.817   3.498   3.804  0.1500  0.3210  0.5022
 1790ntf    nn314688   4.796   3.344   3.782 -0.6409  0.5447 -0.3140
 1790ntf    sn214689   4.689   3.268   3.869  0.2556 -0.3332  0.0395
 1790ntf    cn114690   4.787   3.224   4.016  0.1586 -0.1814  0.1501
 1790ntf    fn414691   5.001   3.464   3.629 -0.6637  0.2386  0.0365
 1790ntf    fn414692   5.030   3.643   3.746  0.5013  0.3377 -0.2553
 1790ntf    fn414693   5.078   3.456   3.826 -0.0207  0.2615 -0.2416
 1790ntf    on514694   4.835   3.549   3.938  0.4038  0.0972  0.5541
 1790ntf    on514695   4.747   3.583   3.712  0.0924  0.5460  0.7514
 1790ntf    on514696   4.665   3.136   3.817  0.1704 -0.3135  0.0284
 1790ntf    on514697   4.580   3.351   3.915  0.4628 -0.0216 -0.0232
 1790ntf    fn414698   4.895   3.153   3.991 -0.2964 -0.7038 -0.3611
 1790ntf    fn414699   4.831   3.328   4.085  0.1877  0.0308 -0.1876
 1790ntf    fn414700   4.710   3.154   4.097 -0.2720  0.5761  0.4108
 1791ntf    cn114701   6.416   4.655   2.060 -0.0289 -0.0285  0.1872
 1791ntf    sn214702   6.276   4.761   2.107 -0.0622 -0.0012  0.0323
 1791ntf    nn314703   6.157   4.674   2.052 -0.2257  0.0293  0.3336
 1791ntf    sn214704   6.006   4.718   2.051 -0.1643  0.2376 -0.2211
 1791ntf    cn114705   5.953   4.690   1.880  0.0534  0.3635 -0.3096
 1791ntf    fn414706   6.433   4.545   2.131  0.3303 -0.0903  0.0098
 1791ntf    fn414707   6.409   4.602   1.939  0.4737  0.0629  0.1161
 1791ntf    fn414708   6.532   4.717   2.069 -0.0194  0.0920 -0.6155
 1791ntf    on514709   6.283   4.763   2.251 -0.5644  0.2251  0.0573
 1791ntf    on514710   6.310   4.878   2.030  0.5570 -0.0683  0.2028
 1791ntf    on514711   5.977   4.858   2.070 -0.0204  0.2683 -0.2204
 1791ntf    on514712   5.921   4.629   2.126 -0.0332  0.3280  0.0383
 1791ntf    fn414713   5.825   4.713   1.861 -0.0796 -0.0292  0.1024
 1791ntf    fn414714   6.012   4.778   1.801  0.6889  0.0979 -0.1378
 1791ntf    fn414715   5.967   4.564   1.842  0.4549  0.3830 -0.2342
 1792ntf    cn114716   1.644   1.053   0.961  0.0748  0.3807 -0.1526
 1792ntf    sn214717   1.547   1.020   0.811  0.2259 -0.4726 -0.0656
 1792ntf    nn314718   1.621   1.131   0.729 -0.3214 -0.1502 -0.1240
 1792ntf    sn214719   1.550   1.257   0.667  0.2061  0.1399 -0.1478
 1792ntf    cn114720   1.701   1.338   0.608  0.3929  0.0324  0.1843
 1792ntf    fn414721   1.660   1.182   0.986  0.1682  0.3312  0.0474
 1792ntf    fn414722   1.583   1.000   1.066 -0.1365 -0.2860 -0.6049
 1792ntf    fn414723   1.768   1.007   0.950 -0.1480 -0.1950 -0.2803
 1792ntf    on514724   1.592   0.890   0.769 -0.6164 -0.7418 -0.1405
 1792ntf    on514725   1.410   1.038   0.850  0.3386 -0.2209  0.2166
 1792ntf    on514726   1.491   1.350   0.760 -0.6785 -0.0345 -0.5241
 1792ntf    on514727   1.477   1.227   0.546  0.0287  0.6234 -0.1612
 1792ntf    fn414728   1.792   1.349   0.705  0.5999 -0.7650  0.0818
 1792ntf    fn414729   1.752   1.278   0.502 -0.4000 -0.1399 -0.1029
 1792ntf    fn414730   1.670   1.461   0.569 -0.0724 -0.0957  0.1556
 1793ntf    cn114731   4.932   0.390   1.517  0.0491 -0.0969 -0.1515
 1793ntf    sn214732   5.072   0.275   1.536  0.0856 -0.0499 -0.1346
 1793ntf    nn314733   5.197   0.369   1.529 -0.1028  0.1969 -0.2058
 1793ntf    sn214734   5.342   0.340   1.475 -0.1137 -0.1767 -0.0402
 1793ntf    cn114735   5.443   0.327   1.626 -0.1614  0.0125  0.0083
 1793ntf    fn414736   4.936   0.491   1.603 -0.9109 -0.2762  0.1095
 1793ntf    fn414737   4.937   0.440   1.394 -0.5054 -0.4250 -0.3092
 1793ntf    fn414738   4.812   0.335   1.525 -0.0120  0.0330 -0.1685
 1793ntf    on514739   5.054   0.204   1.661  0.6978 -0.2945 -0.1814
 1793ntf    on514740   5.062   0.196   1.416  0.7475  0.2260 -0.3719
 1793ntf    on514741   5.391   0.457   1.406 -0.3997 -0.2679 -0.4024
 1793ntf    on514742   5.357   0.214   1.408  0.1825  0.0178 -0.3409
 1793ntf    fn414743   5.572   0.356   1.616 -0.0331 -0.4638  0.2631
 1793ntf    fn414744   5.388   0.417   1.706  0.0540  0.2417 -0.0973
 1793ntf    fn414745   5.434   0.210   1.686 -0.2144  0.0121 -0.0011
 1794ntf    cn114746   3.611   0.844   0.392  0.0785 -0.3608  0.2430
 1794ntf    sn214747   3.703   0.872   0.546 -0.1762  0.0492  0.3238
 1794ntf    nn314748   3.733   0.726   0.595 -0.1217 -0.1693 -0.3501
 1794ntf    sn214749   3.658   0.635   0.699  0.0579 -0.0467 -0.1141
 1794ntf    cn114750   3.788   0.512   0.732  0.4844  0.4469  0.0553
 1794ntf    fn414751   3.600   0.952   0.316 -0.1855 -0.6999 -0.2071
 1794ntf    fn414752   3.661   0.746   0.318 -0.3316 -0.1040 -0.3904
 1794ntf    fn414753   3.488   0.808   0.424 -0.0262  0.0498  0.3125
 1794ntf    on514754   3.816   0.943   0.492  0.0557  0.1506  0.9426
 1794ntf    on514755   3.613   0.949   0.627 -0.5292  0.3851 -0.3886
 1794ntf    on514756   3.556   0.558   0.633  0.5029 -0.2063 -0.6236
 1794ntf    on514757   3.628   0.690   0.829  0.7549  0.2434 -0.0681
 1794ntf    fn414758   3.873   0.562   0.820  0.2638  0.6061  0.1774
 1794ntf    fn414759   3.737   0.398   0.775 -0.0631  0.3429 -0.8530
 1794ntf    fn414760   3.852   0.477   0.621  0.1199 -0.3110  0.0784
 1795ntf    cn114761   5.877   2.265   4.884 -0.0036  0.2919  0.0001
 1795ntf    sn214762   5.836   2.235   4.710  0.0037  0.2704  0.0019
 1795ntf    nn314763   5.935   2.334   4.638  0.0354  0.2636  0.0371
 1795ntf    sn214764   5.914   2.417   4.507 -0.1711  0.0569 -0.0614
 1795ntf    cn114765   6.012   2.310   4.397 -0.1154  0.0132  0.0301
 1795ntf    fn414766   6.005   2.245   4.912 -0.0359  0.5856  0.3645
 1795ntf    fn414767   5.850   2.390   4.916  0.0027  0.2541  0.1576
 1795ntf    fn414768   5.793   2.208   4.969  0.1508 -0.0051 -0.0419
 1795ntf    on514769   5.859   2.094   4.692  0.4677  0.3212  0.2003
 1795ntf    on514770   5.697   2.274   4.699 -0.1245 -0.2770 -0.3608
 1795ntf    on514771   5.994   2.536   4.489 -0.6935  0.3694 -0.3558
 1795ntf    on514772   5.784   2.421   4.444 -0.2452  0.4619  0.1110
 1795ntf    fn414773   5.964   2.187   4.407  0.3269 -0.1741 -0.1334
 1795ntf    fn414774   5.988   2.354   4.274  0.1061  0.1985  0.0539
 1795ntf    fn414775   6.140   2.297   4.426 -0.2721 -1.0317  0.2710
 1796ntf    cn114776   0.583   5.043   0.299 -0.0109  0.0594  0.0210
 1796ntf    sn214777   0.705   5.176   0.281  0.1745 -0.0896  0.1667
 1796ntf    nn314778   0.794   5.120   0.164  0.0996  0.5418 -0.2003
 1796ntf    sn214779   0.784   5.113   0.008  0.0685 -0.1030 -0.1700
 1796ntf    cn114780   0.884   5.259  -0.034  0.0310  0.0384  0.2369
 1796ntf    fn414781   0.523   5.035   0.417  0.0286  0.1702  0.0484
 1796ntf    fn414782   0.484   5.068   0.215 -0.0239  0.1389  0.0592
 1796ntf    fn414783   0.622   4.922   0.263  0.0785  0.0816  0.0457
 1796ntf    on514784   0.636   5.299   0.250  0.0758 -0.1147  0.2878
 1796ntf    on514785   0.770   5.178   0.409  0.0671  0.3217  0.2156
 1796ntf    on514786   0.655   5.139  -0.051  0.1043  0.1625 -0.1322
 1796ntf    on514787   0.863   5.004  -0.044 -0.3572 -0.5424  0.0930
 1796ntf    fn414788   0.874   5.281  -0.164  0.0643 -0.0597  0.2166
 1796ntf    fn414789   0.850   5.372   0.025 -0.3107 -0.0289  0.1711
 1796ntf    fn414790   1.012   5.243  -0.008  0.0671 -0.4289 -0.2219
 1797ntf    cn114791   3.624   4.816   2.758  0.2433 -0.1389 -0.4481
 1797ntf    sn214792   3.577   4.648   2.809  0.2385 -0.0859 -0.2776
 1797ntf    nn314793   3.707   4.572   2.765  0.2992 -0.3109  0.2884
 1797ntf    sn214794   3.742   4.511   2.625  0.2472 -0.0080  0.1432
 1797ntf    cn114795   3.666   4.346   2.639  0.2119  0.0019  0.0715
 1797ntf    fn414796   3.684   4.823   2.640  0.2208  0.2898 -0.4351
 1797ntf    fn414797   3.517   4.893   2.749 -0.1614 -0.7381 -0.8516
 1797ntf    fn414798   3.706   4.878   2.841  0.1128 -0.3360 -0.1696
 1797ntf    on514799   3.556   4.667   2.950  0.1935 -0.0052 -0.2949
 1797ntf    on514800   3.459   4.618   2.731  0.2591 -0.3705 -0.2000
 1797ntf    on514801   3.881   4.477   2.610  0.3122  0.1337  0.4349
 1797ntf    on514802   3.677   4.565   2.508  0.2679 -0.8882 -0.2845
 1797ntf    fn414803   3.681   4.289   2.758 -0.4533  0.3194  0.3111
 1797ntf    fn414804   3.535   4.361   2.633  0.2277 -0.0202 -0.3396
 1797ntf    fn414805   3.710   4.261   2.547 -0.1380  0.2342 -0.3135
 1798ntf    cn114806   2.717   5.719   2.060  0.0502 -0.2269 -0.0706
 1798ntf    sn214807   2.803   5.610   1.943  0.5484  0.1300 -0.0435
 1798ntf    nn314808   2.826   5.711   1.826 -0.2164  0.0587 -0.2658
 1798ntf    sn214809   2.887   5.699   1.681  0.2723  0.3431 -0.0871
 1798ntf    cn114810   2.731   5.729   1.593  0.0044  0.1718  0.3246
 1798ntf    fn414811   2.650   5.816   1.999 -0.3322 -0.4449 -0.0018
 1798ntf    fn414812   2.631   5.643   2.126 -0.1129 -0.1807 -0.2288
 1798ntf    fn414813   2.799   5.776   2.146  0.1470 -0.2986 -0.1151
 1798ntf    on514814   2.922   5.582   2.019  0.4378  0.5770  0.2984
 1798ntf    on514815   2.701   5.510   1.918 -0.2077  1.0415 -0.6540
 1798ntf    on514816   2.938   5.569   1.646 -0.2465  0.2481 -0.4923
 1798ntf    on514817   2.959   5.817   1.641  0.5305  0.3062  0.2642
 1798ntf    fn414818   2.737   5.692   1.466  0.3292  0.4670  0.2522
 1798ntf    fn414819   2.621   5.686   1.652  0.2635 -0.0287  0.6631
 1798ntf    fn414820   2.709   5.859   1.587 -0.4836  0.0660 -0.2715
 1799ntf    cn114821   3.359   1.067   0.060 -0.3206 -0.3467 -0.1988
 1799ntf    sn214822   3.200   1.149   0.030 -0.2700 -0.1836 -0.0260
 1799ntf    nn314823   3.116   1.018   0.009 -0.4182 -0.1341  0.2531
 1799ntf    sn214824   3.070   0.958  -0.129 -0.0746  0.0112  0.0748
 1799ntf    cn114825   2.989   0.802  -0.085  0.0674  0.0167  0.3585
 1799ntf    fn414826   3.346   0.984   0.163 -0.3318  0.1302  0.1862
 1799ntf    fn414827   3.400   0.992  -0.041  0.8860 -0.2323  0.1855
 1799ntf    fn414828   3.455   1.153   0.088 -0.8265 -0.0810  0.7496
 1799ntf    on514829   3.163   1.205   0.157  0.4354  0.1905  0.0174
 1799ntf    on514830   3.224   1.229  -0.087  0.6224 -0.1989  0.1389
 1799ntf    on514831   3.176   0.909  -0.214  0.2458 -0.5161  0.7725
 1799ntf    on514832   2.967   1.032  -0.198 -0.0698  0.1943  0.2637
 1799ntf    fn414833   3.088   0.716  -0.065  0.3495  0.2186 -0.1754
 1799ntf    fn414834   2.917   0.816   0.025 -0.0764 -0.5603  0.3416
 1799ntf    fn414835   2.912   0.752  -0.180 -0.0477  0.7273  0.0739
 1800ntf    cn114836   1.854   6.828   3.155  0.0302  0.2395 -0.0366
 1800ntf    sn214837   2.025   6.860   3.102  0.1504  0.3684  0.4272
 1800ntf    nn314838   1.979   6.901   2.957 -0.3328  0.3382  0.5688
 1800ntf    sn214839   1.989   7.041   2.887 -0.1731 -0.0093 -0.1095
 1800ntf    cn114840   2.154   7.038   2.812  0.0540  0.2173  0.3789
 1800ntf    fn414841   1.762   6.920   3.129  0.0061  0.2693  0.1566
 1800ntf    fn414842   1.812   6.712   3.106 -0.3497  0.4540 -0.2176
 1800ntf    fn414843   1.853   6.824   3.287 -0.1762  0.2323 -0.0383
 1800ntf    on514844   2.070   6.964   3.191 -0.2769  1.1105 -0.1975
 1800ntf    on514845   2.090   6.732   3.106  0.1223  0.3278 -0.2389
 1800ntf    on514846   1.994   7.159   2.969 -0.0131 -0.3129  0.3181
 1800ntf    on514847   1.902   7.049   2.772 -0.1169 -0.6403 -0.2024
 1800ntf    fn414848   2.162   6.969   2.699  0.0439  0.0679  0.4692
 1800ntf    fn414849   2.188   7.165   2.792 -0.1339  0.2510  0.2704
 1800ntf    fn414850   2.245   6.983   2.891  0.0903  0.0757  0.2398
 1801ntf    cn114851   5.025   0.425   5.834  0.2558 -0.1482 -0.3658
 1801ntf    sn214852   5.081   0.581   5.759  0.0246  0.1050 -0.0153
 1801ntf    nn314853   5.082   0.678   5.883  0.0109 -0.2388  0.2552
 1801ntf    sn214854   5.210   0.739   5.950 -0.0225  0.0766  0.0312
 1801ntf    cn114855   5.145   0.900   6.006 -0.4566 -0.0186 -0.1969
 1801ntf    fn414856   4.924   0.439   5.917  0.7654  0.3604  0.1778
 1801ntf    fn414857   4.992   0.328   5.751 -0.6875 -0.0640 -0.0930
 1801ntf    fn414858   5.126   0.367   5.898 -0.0024  0.0101  0.1891
 1801ntf    on514859   5.209   0.548   5.701 -0.0972 -0.5439  0.0737
 1801ntf    on514860   4.972   0.613   5.670 -0.3907  0.5043  0.6314
 1801ntf    on514861   5.309   0.791   5.859  0.0470 -0.1227 -0.0054
 1801ntf    on514862   5.245   0.686   6.080 -0.1200 -0.0823 -0.0077
 1801ntf    fn414863   5.101   0.973   5.905 -0.4201  0.0956 -0.1298
 1801ntf    fn414864   5.041   0.895   6.087 -0.0787 -0.3177  0.2735
 1801ntf    fn414865   5.240   0.977   6.057 -0.0505 -0.4278 -0.3270
 1802ntf    cn114866   4.685   4.009   0.894  0.0644  0.4809  0.1112
 1802ntf    sn214867   4.815   3.883   0.912 -0.3133  0.0906  0.0967
 1802ntf    nn314868   4.937   3.981   0.921  0.3691 -0.7984  0.6442
 1802ntf    sn214869   5.085   3.957   0.872  0.1312  0.0497 -0.5340
 1802ntf    cn114870   5.175   4.031   1.011 -0.2807 -0.0947 -0.1868
 1802ntf    fn414871   4.665   4.090   0.997  0.6524  0.5366  0.1836
 1802ntf    fn414872   4.705   4.090   0.791 -0.7355  0.1589 -0.3051
 1802ntf    fn414873   4.566   3.959   0.864  0.2989 -0.2210  0.3383
 1802ntf    on514874   4.798   3.810   1.035 -0.2123  0.3720  0.2786
 1802ntf    on514875   4.810   3.806   0.790  0.1803  0.4619 -0.1590
 1802ntf    on514876   5.116   4.042   0.759 -1.0471  0.6876 -0.3960
 1802ntf    on514877   5.137   3.823   0.872 -0.0701 -0.0287 -0.6336
 1802ntf    fn414878   5.298   3.985   1.002 -0.2397  0.0838 -0.5197
 1802ntf    fn414879   5.189   4.162   1.001 -0.1810 -0.0679  0.2609
 1802ntf    fn414880   5.130   4.009   1.134  0.0016  0.0324 -0.0584
 1803ntf    cn114881   4.573   0.179   1.154 -0.0696  0.0511 -0.2370
 1803ntf    sn214882   4.392   0.192   1.158 -0.0826 -0.2497  0.2909
 1803ntf    nn314883   4.367   0.209   1.312  0.1502  0.3682  0.2628
 1803ntf    sn214884   4.312   0.329   1.397 -0.1271  0.3756  0.0752
 1803ntf    cn114885   4.473   0.407   1.429  0.0865 -0.0346  0.0120
 1803ntf    fn414886   4.605   0.069   1.221  0.1070 -0.0342 -0.4634
 1803ntf    fn414887   4.618   0.172   1.030  0.0578  0.9536 -0.2515
 1803ntf    fn414888   4.642   0.273   1.218 -0.1726  0.5497 -0.8483
 1803ntf    on514889   4.375   0.308   1.074  0.3012 -0.2297  0.2378
 1803ntf    on514890   4.344   0.063   1.114 -0.3828 -0.0276 -0.0472
 1803ntf    on514891   4.264   0.281   1.524  0.7742  0.3128  0.3953
 1803ntf    on514892   4.237   0.429   1.326  0.3953  0.3830 -0.4731
 1803ntf    fn414893   4.519   0.455   1.315 -0.1226  0.1126 -0.0103
 1803ntf    fn414894   4.479   0.510   1.512 -0.2080  0.2438 -0.3107
 1803ntf    fn414895   4.568   0.324   1.470  0.2899  0.2368  0.0865
 1804ntf    cn114896   1.751   6.763   5.018 -0.0603 -0.0724 -0.3104
 1804ntf    sn214897   1.915   6.803   4.951 -0.0276  0.2582 -0.0348
 1804ntf    nn314898   1.890   6.741   4.809 -0.2200 -0.4112  0.2878
 1804ntf    sn214899   1.857   6.799   4.667  0.5422 -0.3969  0.1096
 1804ntf    cn114900   2.021   6.787   4.590  0.1995 -0.2091 -0.6526
 1804ntf    fn414901   1.739   6.639   5.063  0.2072 -0.1662 -0.4947
 1804ntf    fn414902   1.713   6.850   5.110  0.0790  0.2853 -0.5937
 1804ntf    fn414903   1.664   6.774   4.920 -0.4694 -0.0060  0.0604
 1804ntf    on514904   1.916   6.947   4.964  0.0494  0.2735 -0.2131
 1804ntf    on514905   2.011   6.730   5.031 -0.6521 -0.0019  0.4871
 1804ntf    on514906   1.829   6.940   4.661 -0.2815 -0.5561  0.0728
 1804ntf    on514907   1.778   6.715   4.580 -0.0055  0.1597  0.0630
 1804ntf    fn414908   2.045   6.670   4.532 -0.4016 -0.5769 -0.1677
 1804ntf    fn414909   2.050   6.873   4.494  0.0704  0.2297 -0.2978
 1804ntf    fn414910   2.109   6.807   4.686  0.0435 -0.1815 -0.5154
 1805ntf    cn114911   5.004   2.851   2.986  0.2228  0.1931 -0.0793
 1805ntf    sn214912   4.966   3.021   2.932  0.0931 -0.0595 -0.7808
 1805ntf    nn314913   4.905   3.072   3.066  0.4957 -0.2565 -0.5191
 1805ntf    sn214914   4.750   3.079   3.093  0.5870  0.4970 -0.1525
 1805ntf    cn114915   4.706   3.234   3.008 -0.2095  0.3234 -0.0628
 1805ntf    fn414916   5.067   2.853   3.103  0.0467 -0.0484  0.0190
 1805ntf    fn414917   4.901   2.770   2.999  0.5372 -0.1662  0.2115
 1805ntf    fn414918   5.083   2.789   2.900  0.2054 -0.0392  0.0716
 1805ntf    on514919   5.097   3.068   2.895  0.3702 -0.5287 -0.4106
 1805ntf    on514920   4.878   2.997   2.820 -0.0725 -0.1448 -0.6326
 1805ntf    on514921   4.728   3.121   3.229 -0.4146  0.0197 -0.1598
 1805ntf    on514922   4.659   2.986   3.031  0.8378  0.0487  0.1496
 1805ntf    fn414923   4.575   3.253   3.004 -0.2402  0.0905 -0.1774
 1805ntf    fn414924   4.753   3.345   3.062  0.2049  0.0547  0.1327
 1805ntf    fn414925   4.741   3.235   2.880 -0.9011 -0.2762 -0.2650
 1806ntf    cn114926   3.755   6.350   6.411  0.3020  0.7449 -0.0876
 1806ntf    sn214927   3.878   6.437   6.309  0.3761  0.3910 -0.3028
 1806ntf    nn314928   3.785   6.538   6.233  0.6784  0.5248 -0.4975
 1806ntf    sn214929   3.732   6.678   6.279 -0.1612  0.0572 -0.0113
 1806ntf    cn114930   3.850   6.794   6.203  0.0625  0.1029  0.4039
 1806ntf    fn414931   3.808   6.260   6.493 -0.3486  0.4263 -0.0138
 1806ntf    fn414932   3.684   6.427   6.491 -0.2738 -0.0800  0.2025
 1806ntf    fn414933   3.671   6.276   6.340 -0.1567  0.3567  0.8454
 1806ntf    on514934   3.977   6.494   6.397  1.0242 -0.5352 -0.4087
 1806ntf    on514935   3.923   6.324   6.231  0.6059  0.2027  0.0981
 1806ntf    on514936   3.727   6.706   6.420 -0.2587  0.2161 -0.0451
 1806ntf    on514937   3.610   6.714   6.211 -0.5008 -0.6766  0.2024
 1806ntf    fn414938   3.814   6.809   6.077 -0.4550  0.4724  0.5916
 1806ntf    fn414939   3.843   6.912   6.263 -0.4636  0.0639  0.4217
 1806ntf    fn414940   3.976   6.755   6.210  0.0657 -0.0647 -0.5006
 1807ntf    cn114941   1.442   6.334   2.532 -0.1891 -0.1414  0.0034
 1807ntf    sn214942   1.518   6.456   2.420  0.0059  0.0158  0.3062
 1807ntf    nn314943   1.635   6.375   2.353 -0.0787  0.1432  0.0061
 1807ntf    sn214944   1.784   6.356   2.396  0.0502  0.2611 -0.3781
 1807ntf    cn114945   1.853   6.524   2.398  0.1293  0.2266  0.1218
 1807ntf    fn414946   1.330   6.375   2.588  0.0358  0.3058  0.1321
 1807ntf    fn414947   1.419   6.217   2.475  0.0966 -0.0153 -0.3748
 1807ntf    fn414948   1.523   6.306   2.633  0.3129  0.3627 -0.2541
 1807ntf    on514949   1.416   6.487   2.324  0.1980  0.4718  0.2483
 1807ntf    on514950   1.563   6.561   2.508 -0.7178  0.8702 -0.3303
 1807ntf    on514951   1.863   6.296   2.291  0.3424 -0.1235  0.0557
 1807ntf    on514952   1.804   6.313   2.533 -0.3048 -0.9535 -0.6908
 1807ntf    fn414953   1.813   6.598   2.295  0.3710  0.5859  0.2867
 1807ntf    fn414954   1.817   6.579   2.512 -0.5397  0.1458 -0.0427
 1807ntf    fn414955   1.984   6.512   2.392  0.1171  0.2533 -0.2599
 1808ntf    cn114956   2.351   3.461   5.956  0.2484  0.1061  0.1744
 1808ntf    sn214957   2.384   3.602   5.846  0.0624  0.0052 -0.0107
 1808ntf    nn314958   2.344   3.521   5.718  0.2427 -0.0833 -0.0112
 1808ntf    sn214959   2.412   3.494   5.579  0.3583 -0.2355  0.0756
 1808ntf    cn114960   2.305   3.360   5.519 -0.2548  0.2786  0.0126
 1808ntf    fn414961   2.427   3.362   5.912  0.6636  0.3837  0.2612
 1808ntf    fn414962   2.401   3.490   6.075  0.0621 -0.1564  0.3158
 1808ntf    fn414963   2.222   3.434   5.967  0.2752  0.0563  0.3671
 1808ntf    on514964   2.300   3.712   5.889 -0.3403 -0.0746 -0.5738
 1808ntf    on514965   2.523   3.625   5.878  0.1503 -0.4805 -0.0436
 1808ntf    on514966   2.539   3.426   5.585  0.1821 -0.6099 -0.3457
 1808ntf    on514967   2.394   3.607   5.491  0.3472  0.0836  0.4861
 1808ntf    fn414968   2.180   3.401   5.505 -0.2477  0.2996  0.0076
 1808ntf    fn414969   2.355   3.301   5.412  0.4226  0.2333  0.3501
 1808ntf    fn414970   2.304   3.257   5.601 -0.0661 -0.0235 -0.3610
 1809ntf    cn114971   6.692   2.639   0.891 -0.1877  0.3859  0.3332
 1809ntf    sn214972   6.830   2.647   0.773  0.0122 -0.0739  0.5349
 1809ntf    nn314973   6.776   2.542   0.669  0.4234  0.1246  0.1170
 1809ntf    sn214974   6.857   2.435   0.587  0.1427 -0.1852  0.2450
 1809ntf    cn114975   6.822   2.274   0.665 -0.1563 -0.1990  0.0844
 1809ntf    fn414976   6.704   2.544   0.982 -0.7050 -0.1757 -0.1763
 1809ntf    fn414977   6.678   2.754   0.956  0.4550  0.3222  0.5925
 1809ntf    fn414978   6.582   2.617   0.820 -0.2651 -0.0632  0.5887
 1809ntf    on514979   6.825   2.782   0.722  0.1697  0.0309  0.7949
 1809ntf    on514980   6.938   2.596   0.854  0.1826  0.3366  0.5692
 1809ntf    on514981   7.001   2.432   0.586  0.1360 -0.5132 -0.0516
 1809ntf    on514982   6.798   2.415   0.457 -0.0647  0.4350  0.2390
 1809ntf    fn414983   6.849   2.264   0.794 -0.5302 -0.0472  0.1769
 1809ntf    fn414984   6.699   2.229   0.645 -0.1105 -0.2034 -0.1857
 1809ntf    fn414985   6.901   2.181   0.615 -0.0092 -0.1802  0.2792
 1810ntf    cn114986   0.428   4.249   5.026 -0.1196  0.0554 -0.4940
 1810ntf    sn214987   0.506   4.413   5.021 -0.1191  0.0690 -0.0808
 1810ntf    nn314988   0.426   4.483   5.137  0.2087 -0.2927  0.3662
 1810ntf    sn214989   0.458   4.487   5.291 -0.0632  0.2809  0.4088
 1810ntf    cn114990   0.570   4.630   5.305  0.3804 -0.0404  0.1743
 1810ntf    fn414991   0.321   4.246   4.949 -0.4224 -0.1564 -0.0712
 1810ntf    fn414992   0.504   4.161   4.962  0.0770  0.2187 -0.4870
 1810ntf    fn414993   0.397   4.197   5.144  1.0953  0.3313 -0.0387
 1810ntf    on514994   0.645   4.381   5.039 -0.3510 -0.2066  1.3388
 1810ntf    on514995   0.459   4.452   4.891 -0.0078 -0.4586 -0.2791
 1810ntf    on514996   0.534   4.372   5.333 -0.7293  0.0113  0.8947
 1810ntf    on514997   0.332   4.521   5.352 -0.3579 -0.2660  0.1125
 1810ntf    fn414998   0.684   4.605   5.243  0.4626  0.2353  0.2128
 1810ntf    fn414999   0.511   4.736   5.252  0.5257 -0.0513 -0.0106
 1810ntf    fn415000   0.597   4.661   5.431  0.4138  0.0821  0.1374
 1811ntf    cn115001   3.385   2.261   3.706 -0.0600  0.2509  0.1719
 1811ntf    sn215002   3.527   2.355   3.770  0.2544 -0.1922  0.1336
 1811ntf    nn315003   3.639   2.245   3.775  0.1736 -0.2819 -0.0100
 1811ntf    sn215004   3.709   2.196   3.906  0.0246 -0.4241  0.0156
 1811ntf    cn115005   3.825   2.334   3.928  0.0985 -0.5161  0.2107
 1811ntf    fn415006   3.270   2.320   3.679 -0.1002 -0.0032 -0.2298
 1811ntf    fn415007   3.418   2.210   3.588 -0.5488  0.2899  0.0176
 1811ntf    fn415008   3.358   2.160   3.787  0.5346 -0.0840 -0.0381
 1811ntf    on515009   3.551   2.451   3.666  0.0690 -0.3785 -0.0828
 1811ntf    on515010   3.477   2.407   3.895 -0.6640 -0.4355 -0.1224
 1811ntf    on515011   3.796   2.085   3.875  0.4792  0.0516 -0.4263
 1811ntf    on515012   3.634   2.183   4.029  0.0450 -0.2133  0.0500
 1811ntf    fn415013   3.900   2.329   4.037  0.0198  0.5085  0.3185
 1811ntf    fn415014   3.914   2.346   3.831 -0.0126 -0.3035  0.1347
 1811ntf    fn415015   3.768   2.453   3.926 -0.4766 -0.7968 -0.8647
 1812ntf    cn115016   6.796   1.241   5.280  0.1655 -0.1824  0.2665
 1812ntf    sn215017   6.713   1.113   5.379 -0.2012 -0.2220 -0.0859
 1812ntf    nn315018   6.634   1.214   5.471  0.2700  0.1842 -0.1205
 1812ntf    sn215019   6.642   1.235   5.626  0.0051 -0.0865 -0.0703
 1812ntf    cn115020   6.473   1.211   5.689  0.0841 -0.1390  0.1236
 1812ntf    fn415021   6.870   1.327   5.348  0.0048  0.2665 -0.1162
 1812ntf    fn415022   6.873   1.194   5.183  0.1618  0.3313  0.0127
 1812ntf    fn415023   6.704   1.312   5.216  0.6818  0.1849 -0.0776
 1812ntf    on515024   6.633   1.043   5.282 -0.4513  0.1995 -0.1853
 1812ntf    on515025   6.819   1.038   5.443 -0.1454  0.2683  0.4048
 1812ntf    on515026   6.674   1.369   5.668 -0.1484 -0.2850  0.7078
 1812ntf    on515027   6.713   1.132   5.698  0.1678 -0.3486 -0.6039
 1812ntf    fn415028   6.429   1.087   5.676 -0.5662  0.1103 -0.1050
 1812ntf    fn415029   6.467   1.243   5.817 -0.7174 -0.6362  0.2138
 1812ntf    fn415030   6.394   1.297   5.626  0.5201  0.3282  0.2035
 1813ntf    cn115031   5.890   0.765   4.156 -0.2595 -0.0174  0.4067
 1813ntf    sn215032   5.728   0.694   4.195 -0.1454 -0.4329  0.1264
 1813ntf    nn315033   5.741   0.647   4.345  0.0326 -0.0404  0.2339
 1813ntf    sn215034   5.724   0.726   4.479 -0.1402 -0.2397  0.3289
 1813ntf    cn115035   5.620   0.617   4.581  0.1160 -0.5436  0.2698
 1813ntf    fn415036   5.905   0.832   4.043  0.3533 -0.4900  0.2049
 1813ntf    fn415037   5.917   0.849   4.255 -0.2421  0.1908  0.2265
 1813ntf    fn415038   5.986   0.676   4.173  0.0856  0.2481 -0.1162
 1813ntf    on515039   5.644   0.807   4.166 -0.3080 -0.6201 -0.1420
 1813ntf    on515040   5.732   0.587   4.099 -0.4584 -0.0152 -0.3566
 1813ntf    on515041   5.654   0.851   4.468  0.5493  0.1087 -0.1228
 1813ntf    on515042   5.851   0.737   4.547  0.1404 -0.4474 -0.1584
 1813ntf    fn415043   5.589   0.663   4.702 -0.2682 -0.0310 -0.0173
 1813ntf    fn415044   5.507   0.590   4.517 -0.3483  0.2501  0.7255
 1813ntf    fn415045   5.676   0.499   4.600  0.6865 -0.3458 -0.1578
 1814ntf    cn115046   0.630   3.089   0.168  0.0730 -0.0228 -0.0086
 1814ntf    sn215047   0.574   2.926   0.109 -0.3232  0.0429  0.1799
 1814ntf    nn315048   0.534   2.857   0.244  0.5865  0.2267  0.5533
 1814ntf    sn215049   0.435   2.739   0.275  0.5211  0.1322 -0.0028
 1814ntf    cn115050   0.301   2.843   0.339  0.2709 -0.0292 -0.2604
 1814ntf    fn415051   0.672   3.158   0.064 -0.2685  0.4164  0.1425
 1814ntf    fn415052   0.531   3.158   0.222  0.0971 -0.3803  0.5023
 1814ntf    fn415053   0.726   3.091   0.259 -0.2666 -0.1174  0.3565
 1814ntf    on515054   0.468   2.958   0.017  0.0224  0.5580 -0.0420
 1814ntf    on515055   0.689   2.859   0.052 -0.5306  0.0770 -0.2847
 1814ntf    on515056   0.477   2.654   0.383  0.8527 -0.4426 -0.5770
 1814ntf    on515057   0.381   2.673   0.159  0.5176  0.2870 -0.0896
 1814ntf    fn415058   0.187   2.779   0.358  0.1958  0.3345  0.6196
 1814ntf    fn415059   0.342   2.904   0.450 -0.1388 -0.0516 -0.0922
 1814ntf    fn415060   0.268   2.931   0.246  0.4554 -0.3170 -0.5991
 1815ntf    cn115061   6.352   1.417   5.986  0.2608  0.3547 -0.0803
 1815ntf    sn215062   6.276   1.547   6.088 -0.2205  0.1464 -0.1662
 1815ntf    nn315063   6.377   1.550   6.208 -0.2041  0.6981 -0.1930
 1815ntf    sn215064   6.459   1.672   6.264  0.2722  0.0868  0.4634
 1815ntf    cn115065   6.408   1.658   6.438 -0.2134  0.6657  0.3745
 1815ntf    fn415066   6.448   1.445   5.900  0.3705 -0.4153 -0.2186
 1815ntf    fn415067   6.388   1.314   6.061 -0.1011  0.0424 -0.3290
 1815ntf    fn415068   6.257   1.371   5.906 -0.0243  0.4548  0.1957
 1815ntf    on515069   6.273   1.669   6.010  0.0204  0.2342 -0.0430
 1815ntf    on515070   6.148   1.500   6.134 -0.2461  0.4186  0.0429
 1815ntf    on515071   6.408   1.801   6.222 -0.5049 -0.3772 -0.0443
 1815ntf    on515072   6.601   1.650   6.271  0.3022  0.2723  0.4330
 1815ntf    fn415073   6.279   1.685   6.435 -0.2617  0.4071  0.0593
 1815ntf    fn415074   6.412   1.538   6.496 -0.3717  0.5823  0.2124
 1815ntf    fn415075   6.453   1.749   6.523  0.7275  0.1328  0.4605
 1816ntf    cn115076   3.042   4.821   5.774 -0.2735 -0.1563 -0.2059
 1816ntf    sn215077   3.063   4.757   5.605  0.5080 -0.2083 -0.0963
 1816ntf    nn315078   2.977   4.629   5.636 -0.1076  0.2655  0.1880
 1816ntf    sn215079   2.825   4.602   5.610 -0.0425  0.0586  0.0234
 1816ntf    cn115080   2.798   4.471   5.734  0.0019  0.0800  0.0557
 1816ntf    fn415081   3.102   4.937   5.796  0.5187 -0.6090  0.0836
 1816ntf    fn415082   2.917   4.845   5.810 -0.2246 -0.3707  0.1117
 1816ntf    fn415083   3.085   4.730   5.860 -0.1077 -0.3820 -0.5221
 1816ntf    on515084   3.000   4.848   5.513  0.1927  0.3142  0.6248
 1816ntf    on515085   3.202   4.723   5.595  0.5035 -0.1376 -0.4117
 1816ntf    on515086   2.797   4.535   5.485  0.6809  0.2393 -0.2390
 1816ntf    on515087   2.741   4.705   5.665 -0.5676 -0.2296 -0.2296
 1816ntf    fn415088   2.669   4.443   5.747  0.0278 -0.2471 -0.3659
 1816ntf    fn415089   2.856   4.355   5.707  0.2481  0.4043 -0.8691
 1816ntf    fn415090   2.842   4.494   5.856 -0.1699 -0.0537  0.1424
 1817ntf    cn115091   2.828   0.830   4.377 -0.2726 -0.2975 -0.6858
 1817ntf    sn215092   2.689   0.776   4.481  0.0980  0.0522 -0.0021
 1817ntf    nn315093   2.720   0.834   4.624  0.6312  0.5928 -0.3358
 1817ntf    sn215094   2.821   0.775   4.728 -0.4341 -0.2467  0.2313
 1817ntf    cn115095   2.714   0.729   4.869 -0.3292 -0.2525  0.3097
 1817ntf    fn415096   2.824   0.770   4.260 -0.1779 -0.0826 -0.7994
 1817ntf    fn415097   2.837   0.961   4.361  0.1193 -0.2911 -0.4204
 1817ntf    fn415098   2.942   0.785   4.427 -0.3890  0.3277  0.1670
 1817ntf    on515099   2.575   0.844   4.426  0.2842  0.1388 -0.2783
 1817ntf    on515100   2.696   0.632   4.466 -0.3205 -0.0773  0.9407
 1817ntf    on515101   2.909   0.878   4.777 -0.3098 -0.2224 -0.0468
 1817ntf    on515102   2.883   0.648   4.698  0.1980  0.0761  0.1659
 1817ntf    fn415103   2.639   0.624   4.844 -0.0908 -0.4289  0.3313
 1817ntf    fn415104   2.794   0.683   4.963 -0.2066 -0.4620  0.1034
 1817ntf    fn415105   2.639   0.823   4.924 -0.7072 -0.2220 -0.2501
 1818ntf    cn115106   0.026   6.690   1.705  0.2041 -0.1998  0.3255
 1818ntf    sn215107  -0.041   6.835   1.792  0.2557 -0.0440  0.1058
 1818ntf    nn315108  -0.068   6.918   1.662 -0.2070 -0.0864  0.1745
 1818ntf    sn215109  -0.199   6.948   1.580 -0.0865  0.2571  0.1028
 1818ntf    cn115110  -0.127   7.071   1.468  0.0404 -0.0729 -0.1818
 1818ntf    fn415111  -0.049   6.651   1.604  0.1824  0.0542  0.2430
 1818ntf    fn415112   0.146   6.713   1.656 -0.0626 -0.1160 -0.3042
 1818ntf    fn415113   0.033   6.591   1.793  0.1304  0.0657  0.6338
 1818ntf    on515114  -0.159   6.793   1.863  0.1762  0.1373  0.0822
 1818ntf    on515115   0.078   6.877   1.863  0.7893 -0.2271 -0.6736
 1818ntf    on515116  -0.296   7.018   1.661 -0.2500 -0.1410  0.2552
 1818ntf    on515117  -0.246   6.846   1.489 -0.9562  0.5853  0.1732
 1818ntf    fn415118  -0.220   7.122   1.390  0.0116 -0.2570 -0.2676
 1818ntf    fn415119  -0.071   7.175   1.529  0.6665 -0.1111 -0.6877
 1818ntf    fn415120  -0.031   7.025   1.390 -0.0815  0.6435 -0.7626
 1819ntf    cn115121   2.236   3.577   6.745  0.1594  0.0801  0.1849
 1819ntf    sn215122   2.404   3.577   6.674 -0.0520  0.1332 -0.3182
 1819ntf    nn315123   2.409   3.727   6.631 -0.4351  0.3028  0.2115
 1819ntf    sn215124   2.432   3.854   6.720  0.0442  0.0476  0.4569
 1819ntf    cn115125   2.542   3.955   6.617 -0.0227 -0.3591 -0.0154
 1819ntf    fn415126   2.224   3.664   6.845  0.1122  0.2920 -0.0030
 1819ntf    fn415127   2.154   3.612   6.647 -0.3679 -0.2460  0.5100
 1819ntf    fn415128   2.191   3.461   6.789  0.2635  0.0956  0.3354
 1819ntf    on515129   2.499   3.532   6.773 -0.2365  0.5374  0.0432
 1819ntf    on515130   2.394   3.501   6.552 -0.0231  0.1855 -0.3528
 1819ntf    on515131   2.495   3.842   6.849  0.0016  0.2600  0.4979
 1819ntf    on515132   2.310   3.932   6.726 -0.1891 -0.2829  0.0393
 1819ntf    fn415133   2.631   3.884   6.550  0.1388 -0.0565 -0.1234
 1819ntf    fn415134   2.475   4.028   6.529  0.3057  0.1315  0.1359
 1819ntf    fn415135   2.605   4.042   6.694 -0.6049  0.0065  0.0522
 1820ntf    cn115136   3.695   2.290   5.398 -0.4587  0.1807  0.5192
 1820ntf    sn215137   3.650   2.175   5.264 -0.1303  0.5584  0.0775
 1820ntf    nn315138   3.574   2.068   5.350  0.1753  0.5912  0.3897
 1820ntf    sn215139   3.418   2.046   5.353  0.2779 -0.2407 -0.0039
 1820ntf    cn115140   3.362   2.172   5.471 -0.3633 -0.2951 -0.2510
 1820ntf    fn415141   3.588   2.320   5.469 -0.5818  0.5464  0.1876
 1820ntf    fn415142   3.776   2.236   5.487 -0.2840 -0.1405  0.1656
 1820ntf    fn415143   3.747   2.405   5.358  0.4681 -0.3299  0.2298
 1820ntf    on515144   3.565   2.253   5.178 -0.0231 -0.1454 -0.6734
 1820ntf    on515145   3.774   2.123   5.215  0.0122  0.7209  0.2608
 1820ntf    on515146   3.382   1.932   5.434  0.3428  0.0021  0.3688
 1820ntf    on515147   3.348   2.061   5.228  0.1881 -0.5060  0.0138
 1820ntf    fn415148   3.376   2.288   5.409  0.7416 -0.2350  0.0994
 1820ntf    fn415149   3.233   2.156   5.498 -0.5046  0.5885 -0.3761
 1820ntf    fn415150   3.440   2.176   5.578 -0.1233  0.1424 -0.4393
 1821ntf    cn115151   1.947   3.732   1.892  0.1745  0.1381  0.4374
 1821ntf    sn215152   1.783   3.806   1.864  0.2859 -0.0220 -0.6593
 1821ntf    nn315153   1.787   3.933   1.957 -0.1805  0.1672 -0.8948
 1821ntf    sn215154   1.848   4.073   1.920  0.1207  0.1972 -0.2985
 1821ntf    cn115155   1.906   4.138   2.079  0.0620 -0.4874  0.0067
 1821ntf    fn415156   1.962   3.616   1.831  0.0730  0.2230  0.2531
 1821ntf    fn415157   2.041   3.806   1.836 -0.4423 -0.1072 -0.9574
 1821ntf    fn415158   1.977   3.714   2.020 -0.3261  0.3723  0.5936
 1821ntf    on515159   1.780   3.823   1.721  0.2530  0.6312 -0.5841
 1821ntf    on515160   1.706   3.702   1.927 -0.0247  0.6074  0.0082
 1821ntf    on515161   1.741   4.162   1.883  0.2906  0.3474 -0.4281
 1821ntf    on515162   1.966   4.057   1.839  0.5383  0.0435  0.3335
 1821ntf    fn415163   1.810   4.198   2.147  0.2128 -0.2550  0.0156
 1821ntf    fn415164   1.960   4.045   2.156  0.4328 -0.4278 -0.1816
 1821ntf    fn415165   1.993   4.232   2.046 -0.1797 -0.3313 -0.1883
 1822ntf    cn115166   0.111   4.151   1.661 -0.1407 -0.1279  0.0593
 1822ntf    sn215167  -0.023   4.088   1.556 -0.1596 -0.2705  0.1686
 1822ntf    nn315168  -0.051   4.217   1.471  0.1742  0.0970  0.6175
 1822ntf    sn215169  -0.175   4.313   1.473  0.0046 -0.1025 -0.2600
 1822ntf    cn115170  -0.294   4.227   1.364 -0.1973 -0.3157  0.1258
 1822ntf    fn415171   0.204   4.207   1.586 -0.0100 -0.0941  0.2458
 1822ntf    fn415172   0.074   4.244   1.748 -0.6503 -0.3732  0.1106
 1822ntf    fn415173   0.168   4.048   1.721  0.1600  0.5073  0.8854
 1822ntf    on515174   0.042   3.983   1.481 -0.2662 -0.4446  0.3209
 1822ntf    on515175  -0.124   4.051   1.652 -0.0147 -0.1468  0.3688
 1822ntf    on515176  -0.150   4.433   1.398  0.2099  0.0842  0.1104
 1822ntf    on515177  -0.231   4.335   1.604 -0.4805  0.1208 -0.5020
 1822ntf    fn415178  -0.419   4.265   1.379 -0.0369  0.3703 -0.2345
 1822ntf    fn415179  -0.268   4.233   1.234 -0.3472  0.0066  0.1105
 1822ntf    fn415180  -0.288   4.096   1.380  0.3266 -0.2805  0.2539
 1823ntf    cn115181   3.181   0.446   6.479 -0.2486 -0.1798 -0.0603
 1823ntf    sn215182   3.330   0.530   6.418 -0.0021 -0.0580  0.6890
 1823ntf    nn315183   3.427   0.502   6.538  0.0031  0.2169  0.7501
 1823ntf    sn215184   3.531   0.388   6.570  0.1309  0.1125  0.0029
 1823ntf    cn115185   3.622   0.472   6.704 -0.4562  0.2371  0.3303
 1823ntf    fn415186   3.202   0.324   6.527 -0.6838 -0.2461 -0.0414
 1823ntf    fn415187   3.121   0.519   6.571  0.2807 -0.1573  0.2745
 1823ntf    fn415188   3.095   0.440   6.379  0.0915 -0.3698 -0.3434
 1823ntf    on515189   3.363   0.463   6.294 -0.4528  0.1710  0.4431
 1823ntf    on515190   3.288   0.668   6.410 -0.2236 -0.1916 -0.8508
 1823ntf    on515191   3.617   0.380   6.455  0.4685 -0.0493  0.2679
 1823ntf    on515192   3.479   0.268   6.631 -1.1919  0.8201  0.3107
 1823ntf    fn415193   3.716   0.559   6.672 -0.1556 -0.4021 -0.5916
 1823ntf    fn415194   3.549   0.533   6.796 -0.5854 -0.0347  0.4106
 1823ntf    fn415195   3.690   0.381   6.772 -0.1275 -0.0973 -0.4304
 1824ntf    cn115196   6.581   5.919   2.345  0.0105 -0.1194  0.1553
 1824ntf    sn215197   6.437   5.809   2.366  0.0280 -0.1961 -0.1151
 1824ntf    nn315198   6.347   5.891   2.465 -0.8542 -0.9225 -0.3143
 1824ntf    sn215199   6.235   5.998   2.436 -0.1636 -0.1304 -0.0867
 1824ntf    cn115200   6.313   6.157   2.476  0.1404 -0.1707 -0.5140
 1824ntf    fn415201   6.641   5.956   2.457 -0.5308 -0.1189  0.4486
 1824ntf    fn415202   6.680   5.856   2.283  0.1468  0.4130 -0.1757
 1824ntf    fn415203   6.557   6.024   2.269  0.0361 -0.3057 -0.1126
 1824ntf    on515204   6.395   5.797   2.229 -0.4509  0.4165 -0.0299
 1824ntf    on515205   6.482   5.682   2.415  0.0506  0.0392  0.4841
 1824ntf    on515206   6.133   5.997   2.537  0.1798 -0.0095  0.2622
 1824ntf    on515207   6.190   6.000   2.299 -0.2177  0.1638 -0.0632
 1824ntf    fn415208   6.433   6.156   2.419  0.5912 -0.8295  0.4064
 1824ntf    fn415209   6.253   6.258   2.417  0.3572 -0.0007 -0.4428
 1824ntf    fn415210   6.334   6.182   2.604  0.3641  0.2338 -0.6293
 1825ntf    cn115211   0.620   5.939   6.248  0.0185 -0.4891 -0.0664
 1825ntf    sn215212   0.517   6.081   6.198  0.1291 -0.3157  0.1914
 1825ntf    nn315213   0.386   6.006   6.242  0.3156 -0.4281  0.5534
 1825ntf    sn215214   0.263   6.084   6.302  0.1543 -0.0339 -0.2796
 1825ntf    cn115215   0.246   6.217   6.180 -0.0720  0.0017 -0.2099
 1825ntf    fn415216   0.574   5.822   6.208 -0.2637 -0.5182  0.3386
 1825ntf    fn415217   0.740   5.939   6.193  0.4821 -0.5387  0.9289
 1825ntf    fn415218   0.637   5.931   6.379 -0.0421  0.1474 -0.0171
 1825ntf    on515219   0.565   6.193   6.275 -1.0359 -0.0684  0.5693
 1825ntf    on515220   0.540   6.078   6.055  0.1670 -0.1593  0.1942
 1825ntf    on515221   0.292   6.146   6.428 -0.3867  0.1525 -0.2448
 1825ntf    on515222   0.140   6.011   6.286 -0.2169  0.4986  0.1483
 1825ntf    fn415223   0.128   6.264   6.144  0.0579  0.0053 -0.6390
 1825ntf    fn415224   0.327   6.316   6.216  0.3349 -0.4506  0.1337
 1825ntf    fn415225   0.297   6.169   6.067 -0.1745  0.0245 -0.2661
 1826ntf    cn115226   1.103   0.048   2.667  0.2470 -0.0756  0.0271
 1826ntf    sn215227   1.093   0.036   2.848  0.7303 -0.2069  0.0473
 1826ntf    nn315228   1.165  -0.099   2.882  0.0728 -0.4784  0.3959
 1826ntf    sn215229   1.081  -0.230   2.901 -0.2327 -0.3507 -0.0879
 1826ntf    cn115230   1.192  -0.350   2.822  0.1369 -0.0647 -0.0011
 1826ntf    fn415231   1.028  -0.028   2.590  0.0115  0.0086  0.1723
 1826ntf    fn415232   1.070   0.170   2.627  0.0420 -0.0750  0.1976
 1826ntf    fn415233   1.228   0.032   2.625  0.1735  0.1698 -0.2897
 1826ntf    on515234   1.176   0.147   2.888  0.1565  0.2791 -0.0993
 1826ntf    on515235   0.951   0.048   2.871  0.6381  0.0088 -0.6325
 1826ntf    on515236   0.957  -0.242   2.828 -0.0809 -0.4475 -0.3306
 1826ntf    on515237   1.079  -0.279   3.036 -0.2958 -0.8418 -0.2647
 1826ntf    fn415238   1.148  -0.471   2.851  0.2765 -0.3278 -0.8647
 1826ntf    fn415239   1.197  -0.348   2.690  0.4727 -0.1486  0.0084
 1826ntf    fn415240   1.319  -0.343   2.860  0.0294 -0.3467  0.4066
 1827ntf    cn115241   2.100   2.936   1.140 -0.2066  0.0784  0.0739
 1827ntf    sn215242   1.920   2.919   1.160 -0.2564  0.1705 -0.2943
 1827ntf    nn315243   1.887   3.049   1.241 -0.7724  0.1035 -0.3941
 1827ntf    sn215244   1.776   3.061   1.351 -0.2991  0.1352  0.0783
 1827ntf    cn115245   1.780   3.239   1.387 -0.1608  0.2419 -0.4579
 1827ntf    fn415246   2.160   2.954   1.257  0.3497 -0.3952 -0.1323
 1827ntf    fn415247   2.154   2.825   1.091 -0.1732  0.2275 -0.2283
 1827ntf    fn415248   2.134   3.037   1.062 -0.1830 -0.2021 -0.2847
 1827ntf    on515249   1.868   2.921   1.025  0.3560  0.1896 -0.5364
 1827ntf    on515250   1.901   2.793   1.227  0.2680  0.3734  0.2414
 1827ntf    on515251   1.804   2.995   1.477  0.5660  0.0164 -0.1670
 1827ntf    on515252   1.640   3.041   1.310 -0.0139 -0.2060 -0.7250
 1827ntf    fn415253   1.735   3.314   1.288 -0.0960  0.2132 -0.5087
 1827ntf    fn415254   1.704   3.262   1.493  0.7357 -0.3376  0.3253
 1827ntf    fn415255   1.905   3.270   1.417 -0.3808  0.3842  0.3293
 1828ntf    cn115256   0.879   0.382   0.212 -0.1800 -0.1379  0.0356
 1828ntf    sn215257   0.856   0.481   0.363 -0.1690 -0.2331  0.0995
 1828ntf    nn315258   0.740   0.575   0.315 -0.3622 -0.7026 -0.3605
 1828ntf    sn215259   0.743   0.694   0.212 -0.0162 -0.4488 -0.0607
 1828ntf    cn115260   0.741   0.836   0.325 -0.0997 -0.1450 -0.4416
 1828ntf    fn415261   0.939   0.270   0.248 -0.5659 -0.2152  0.4481
 1828ntf    fn415262   0.763   0.341   0.164 -0.5035  0.6852  0.1083
 1828ntf    fn415263   0.946   0.439   0.114  0.2292  0.2824  0.5517
 1828ntf    on515264   0.810   0.388   0.464 -0.3882 -0.0491  0.1705
 1828ntf    on515265   0.986   0.537   0.390 -0.3105  0.0138  0.2717
 1828ntf    on515266   0.616   0.705   0.144 -0.2272 -0.4904  0.3193
 1828ntf    on515267   0.861   0.715   0.133 -0.5085  0.2126 -0.6381
 1828ntf    fn415268   0.652   0.830   0.423 -0.1863 -0.5307 -0.5433
 1828ntf    fn415269   0.854   0.848   0.393 -0.1797  0.8837 -0.4779
 1828ntf    fn415270   0.712   0.942   0.252 -0.1771 -0.2518 -0.5648
 1829ntf    cn115271   5.172   1.931   4.330 -0.3311 -0.2852 -0.0175
 1829ntf    sn215272   5.069   1.926   4.480 -0.2254  0.2494  0.0770
 1829ntf    nn315273   5.145   2.042   4.553 -0.3542  0.8061 -0.6704
 1829ntf    sn215274   5.096   2.135   4.669  0.0492  0.1503  0.0310
 1829ntf    cn115275   5.223   2.106   4.796  0.2013  0.0879 -0.1354
 1829ntf    fn415276   5.287   1.873   4.362 -0.1306 -0.0926 -0.3707
 1829ntf    fn415277   5.118   1.879   4.222  0.5737 -0.3383 -0.4507
 1829ntf    fn415278   5.212   2.054   4.299 -0.5400 -0.3366 -0.4945
 1829ntf    on515279   4.939   1.965   4.434 -0.2812  0.3194  0.2939
 1829ntf    on515280   5.084   1.793   4.534  0.0672  0.1660 -0.2051
 1829ntf    on515281   4.974   2.092   4.734  0.0766  0.2027  0.1173
 1829ntf    on515282   5.112   2.273   4.633 -0.4981  0.2481  0.1479
 1829ntf    fn415283   5.194   2.182   4.901  0.2944  0.2900 -0.2544
 1829ntf    fn415284   5.241   1.984   4.843  0.2389  0.1818  0.0943
 1829ntf    fn415285   5.343   2.148   4.760  0.2545  0.3090  0.2898
 1830ntf    cn115286   3.325   4.080   2.782 -0.4942  0.0699  0.2352
 1830ntf    sn215287   3.377   3.909   2.817 -0.3501  0.0929  0.1323
 1830ntf    nn315288   3.526   3.925   2.866 -0.0722 -0.6864 -0.4278
 1830ntf    sn215289   3.649   3.839   2.820  0.3558 -0.2135 -0.1671
 1830ntf    cn115290   3.713   3.943   2.685 -0.2816  0.3136 -0.0680
 1830ntf    fn415291   3.199   4.093   2.747 -0.3187  0.0183 -0.4317
 1830ntf    fn415292   3.341   4.164   2.883  0.1100  0.0619  0.1518
 1830ntf    fn415293   3.381   4.131   2.673 -0.0654 -0.2957  0.2806
 1830ntf    on515294   3.287   3.876   2.924 -0.4508  0.0961  0.0486
 1830ntf    on515295   3.349   3.844   2.691  0.0243 -0.0004  0.0950
 1830ntf    on515296   3.615   3.716   2.754  0.8475 -0.1252 -0.5898
 1830ntf    on515297   3.755   3.821   2.916  0.1368  0.4762  0.2108
 1830ntf    fn415298   3.618   3.998   2.612 -0.0995 -0.0682 -0.5962
 1830ntf    fn415299   3.788   4.042   2.730 -0.1333 -0.0296  0.4544
 1830ntf    fn415300   3.803   3.890   2.605 -0.6775 -0.5460  0.0456
 1831ntf    cn115301   2.131   4.428   1.675 -0.1588 -0.0726 -0.0683
 1831ntf    sn215302   2.034   4.549   1.580  0.1076  0.1426 -0.0661
 1831ntf    nn315303   2.130   4.671   1.605  0.8232 -0.4006 -0.1465
 1831ntf    sn215304   2.139   4.813   1.539  0.0103 -0.2960 -0.0480
 1831ntf    cn115305   2.107   4.916   1.685  0.1566 -0.1068 -0.1493
 1831ntf    fn415306   2.255   4.418   1.631 -0.0881 -0.0596  0.1281
 1831ntf    fn415307   2.137   4.464   1.802  0.6199 -0.2698 -0.0498
 1831ntf    fn415308   2.085   4.304   1.673 -0.0967 -0.0969  0.0111
 1831ntf    on515309   2.031   4.493   1.447  0.1860  0.2503 -0.1138
 1831ntf    on515310   1.916   4.564   1.661  0.1892  0.3827  0.0101
 1831ntf    on515311   2.046   4.853   1.437 -0.4176 -0.8334  0.1275
 1831ntf    on515312   2.277   4.847   1.511  0.2023 -0.3622  0.7871
 1831ntf    fn415313   2.184   4.889   1.789  0.2369  0.2187 -0.1231
 1831ntf    fn415314   2.109   5.045   1.655  0.2905  0.1034  0.7319
 1831ntf    fn415315   1.984   4.884   1.721  0.1748 -0.0300 -0.0161
 1832ntf    cn115316   1.459   1.118   4.920  0.2061 -0.1854  0.1326
 1832ntf    sn215317   1.366   0.962   4.926 -0.0461 -0.0277  0.3294
 1832ntf    nn315318   1.272   0.997   5.047 -0.0445  0.0364  0.3116
 1832ntf    sn215319   1.117   0.975   5.059 -0.0244 -0.2803 -0.0013
 1832ntf    cn115320   1.068   1.104   5.177  0.0583 -0.1608 -0.0980
 1832ntf    fn415321   1.544   1.121   4.819 -0.0395 -0.3022 -0.0765
 1832ntf    fn415322   1.390   1.230   4.911  0.3809 -0.1226 -0.4423
 1832ntf    fn415323   1.543   1.129   5.022  0.0380  0.6551  0.1854
 1832ntf    on515324   1.313   0.949   4.793 -0.6931  0.3169  0.5496
 1832ntf    on515325   1.467   0.867   4.964 -0.0853 -0.1727  0.0699
 1832ntf    on515326   1.086   0.855   5.132  0.5730 -0.3479  0.1445
 1832ntf    on515327   1.037   0.994   4.941 -0.5501 -0.0493  0.3888
 1832ntf    fn415328   1.123   1.222   5.151 -0.0498  0.0051  0.4088
 1832ntf    fn415329   0.938   1.126   5.188  0.1398  0.2716  0.0553
 1832ntf    fn415330   1.112   1.079   5.299  0.2317  0.0963 -0.1069
 1833ntf    cn115331   5.500   1.445   6.040 -0.6657 -0.3477  0.1039
 1833ntf    sn215332   5.603   1.395   6.181 -0.3070  0.0443 -0.0187
 1833ntf    nn315333   5.514   1.446   6.300  0.4890  0.1809  0.5286
 1833ntf    sn215334   5.494   1.395   6.447 -0.2732  0.0057  0.3670
 1833ntf    cn115335   5.374   1.260   6.424 -0.1862  0.0074 -0.0931
 1833ntf    fn415336   5.372   1.460   6.070 -0.4864  0.6571  0.3967
 1833ntf    fn415337   5.543   1.566   6.008 -0.3905 -0.3548  0.4405
 1833ntf    fn415338   5.514   1.368   5.934  0.0749 -0.0513 -0.0195
 1833ntf    on515339   5.600   1.255   6.148  0.5057 -0.0713  0.3642
 1833ntf    on515340   5.726   1.468   6.163 -0.2172 -0.0593  0.1776
 1833ntf    on515341   5.432   1.488   6.538 -0.1604  0.4417 -0.0009
 1833ntf    on515342   5.617   1.332   6.488 -0.0127  0.2180 -0.0913
 1833ntf    fn415343   5.437   1.160   6.363  0.1880  0.3487 -0.2714
 1833ntf    fn415344   5.341   1.214   6.544 -0.2169 -0.3335 -0.2296
 1833ntf    fn415345   5.266   1.299   6.358 -0.1552  0.5433  0.1735
 1834ntf    cn115346   6.164   3.471   1.342 -0.3187  0.6557  0.5251
 1834ntf    sn215347   6.313   3.367   1.330 -0.2745  0.7765  0.0029
 1834ntf    nn315348   6.273   3.277   1.209  0.6778  0.1623  0.1357
 1834ntf    sn215349   6.316   3.300   1.059  0.1219 -0.1326 -0.0715
 1834ntf    cn115350   6.467   3.200   1.041  0.4012  0.3600 -0.4579
 1834ntf    fn415351   6.055   3.395   1.341  0.2041 -0.1100  0.1009
 1834ntf    fn415352   6.155   3.544   1.452  0.1590  0.4085  0.7336
 1834ntf    fn415353   6.146   3.548   1.237 -0.0589  0.3342  0.2416
 1834ntf    on515354   6.423   3.458   1.307  0.0169  0.3680 -0.2313
 1834ntf    on515355   6.320   3.286   1.449 -0.1420  0.0965 -0.4617
 1834ntf    on515356   6.363   3.432   1.025 -0.4340  0.1288  0.1568
 1834ntf    on515357   6.222   3.237   0.970  0.0925 -0.6246  0.2965
 1834ntf    fn415358   6.564   3.251   1.116 -0.0090 -0.0542  0.3749
 1834ntf    fn415359   6.455   3.076   1.084  0.0945  0.3585 -0.5489
 1834ntf    fn415360   6.516   3.194   0.918  0.1870  0.2251 -0.5368
 1835ntf    cn115361   6.657   6.631   4.788  0.0043  0.2734 -0.1347
 1835ntf    sn215362   6.835   6.656   4.766  0.0687  0.0566  0.1363
 1835ntf    nn315363   6.837   6.670   4.609 -0.4999 -0.4146  0.0849
 1835ntf    sn215364   6.868   6.549   4.514  0.2656 -0.0362 -0.1553
 1835ntf    cn115365   7.045   6.512   4.534  0.2598 -0.1296 -0.2739
 1835ntf    fn415366   6.620   6.506   4.768 -0.1218  0.3008 -0.0772
 1835ntf    fn415367   6.625   6.667   4.911  0.0682  0.6352 -0.2223
 1835ntf    fn415368   6.580   6.704   4.709 -0.2091 -0.1704 -0.3406
 1835ntf    on515369   6.867   6.775   4.842  0.2280 -0.2132  0.4916
 1835ntf    on515370   6.897   6.537   4.818  0.4655  0.0587 -0.3153
 1835ntf    on515371   6.851   6.596   4.379  0.4349  0.4482 -0.0120
 1835ntf    on515372   6.804   6.425   4.550 -0.1306  0.1281 -0.2861
 1835ntf    fn415373   7.110   6.626   4.513  0.5112 -0.2882 -0.3624
 1835ntf    fn415374   7.077   6.459   4.651 -0.5452 -0.5577 -0.2398
 1835ntf    fn415375   7.087   6.427   4.442 -0.1310 -0.2792 -0.3154
 1836ntf    cn115376   4.125   5.554   3.988  0.1034  0.1037 -0.0490
 1836ntf    sn215377   4.194   5.571   4.156  0.1610  0.2362 -0.0852
 1836ntf    nn315378   4.280   5.440   4.155  0.0678  0.1759 -0.4425
 1836ntf    sn215379   4.436   5.419   4.145  0.1002  0.1381  0.0885
 1836ntf    cn115380   4.473   5.446   4.320  0.0824  0.3053  0.0673
 1836ntf    fn415381   4.048   5.447   3.975 -0.0638  0.1981  0.1619
 1836ntf    fn415382   4.048   5.658   3.961  0.4066  0.3748  0.1274
 1836ntf    fn415383   4.218   5.550   3.895  0.0970  0.0043 -0.0505
 1836ntf    on515384   4.257   5.700   4.167 -0.1841  0.4068 -0.0674
 1836ntf    on515385   4.080   5.548   4.241  0.3394  0.6786  0.2725
 1836ntf    on515386   4.516   5.519   4.077  0.5789  0.0066  0.4574
 1836ntf    on515387   4.478   5.285   4.112  0.2056  0.2536 -0.2484
 1836ntf    fn415388   4.388   5.381   4.399 -0.1207  0.0015 -0.3992
 1836ntf    fn415389   4.593   5.426   4.372  0.1151  0.2005 -0.0484
 1836ntf    fn415390   4.451   5.575   4.340 -0.5052  0.1822  0.2217
 1837ntf    cn115391   5.461   3.286   0.918  0.2666 -0.0551 -0.2664
 1837ntf    sn215392   5.331   3.309   1.042  0.4582 -0.0177 -0.0707
 1837ntf    nn315393   5.401   3.242   1.166  0.0111 -0.1313  0.1242
 1837ntf    sn215394   5.428   3.298   1.310  0.1335  0.0955  0.0132
 1837ntf    cn115395   5.588   3.214   1.331  0.0808 -0.1208 -0.4384
 1837ntf    fn415396   5.488   3.157   0.900 -0.2944 -0.1896 -0.1707
 1837ntf    fn415397   5.432   3.334   0.799 -0.2579  0.2482 -0.0163
 1837ntf    fn415398   5.577   3.338   0.955  0.2596 -0.0803 -0.2091
 1837ntf    on515399   5.311   3.451   1.047 -0.5682 -0.1744  0.8655
 1837ntf    on515400   5.219   3.228   0.998  0.5219 -0.0682 -0.1389
 1837ntf    on515401   5.355   3.251   1.425  1.0052  0.5705  0.7791
 1837ntf    on515402   5.475   3.434   1.325  0.3300 -0.0094  0.3681
 1837ntf    fn415403   5.687   3.276   1.269  0.4659  0.0222  0.2981
 1837ntf    fn415404   5.627   3.215   1.458  0.2163 -0.0411 -0.4806
 1837ntf    fn415405   5.594   3.087   1.294 -0.5096 -0.0130 -0.9120
 1838ntf    cn115406   5.844   5.562   4.676 -0.0595 -0.2899 -0.0280
 1838ntf    sn215407   5.990   5.649   4.740  0.0634 -0.2288 -0.3888
 1838ntf    nn315408   6.078   5.626   4.612 -0.2578 -0.3940 -0.5803
 1838ntf    sn215409   6.124   5.726   4.501 -0.0693  0.2757  0.0907
 1838ntf    cn115410   6.304   5.723   4.525 -0.0583 -0.3415 -0.0291
 1838ntf    fn415411   5.869   5.439   4.636  0.2097 -0.1871 -0.1757
 1838ntf    fn415412   5.741   5.563   4.759 -0.0843  0.0658 -0.0610
 1838ntf    fn415413   5.805   5.621   4.564  0.5238 -0.0200 -0.0881
 1838ntf    on515414   5.945   5.785   4.761 -0.7232 -0.4203 -0.7892
 1838ntf    on515415   6.040   5.577   4.854 -0.2213  0.3053  0.0838
 1838ntf    on515416   6.090   5.864   4.519 -0.3205  0.2163  0.0675
 1838ntf    on515417   6.099   5.673   4.369 -0.2645  0.8497 -0.1055
 1838ntf    fn415418   6.332   5.745   4.652 -0.0784  0.0474 -0.0877
 1838ntf    fn415419   6.355   5.603   4.508  0.4501 -0.0971 -0.2630
 1838ntf    fn415420   6.371   5.812   4.452 -0.2930  0.1848  0.3895
 1839ntf    cn115421   1.176   2.446   1.138 -0.2120 -0.0075  0.0105
 1839ntf    sn215422   1.026   2.480   1.041 -0.2535  0.2402  0.1611
 1839ntf    nn315423   0.957   2.586   1.134 -0.7927  0.1672 -0.1532
 1839ntf    sn215424   0.876   2.553   1.264 -0.1244 -0.2864  0.1506
 1839ntf    cn115425   0.712   2.548   1.185  0.0838 -0.1496 -0.2932
 1839ntf    fn415426   1.286   2.421   1.069 -0.3626  0.5475 -0.4345
 1839ntf    fn415427   1.197   2.558   1.205 -0.0333 -0.0321 -0.0048
 1839ntf    fn415428   1.164   2.342   1.219  0.0571  0.1548  0.2617
 1839ntf    on515429   1.071   2.541   0.918 -0.1943 -0.2072 -0.0397
 1839ntf    on515430   0.967   2.349   1.034 -0.1266  0.2176 -0.5997
 1839ntf    on515431   0.862   2.668   1.349  0.3892  0.0424 -0.2046
 1839ntf    on515432   0.880   2.421   1.323  0.6289 -0.1406  0.4338
 1839ntf    fn415433   0.699   2.447   1.101 -0.1823 -0.6376  0.3253
 1839ntf    fn415434   0.618   2.539   1.277  0.2315 -0.5106 -0.1726
 1839ntf    fn415435   0.684   2.660   1.120 -0.5493 -0.1496 -0.0227
 1840ntf    cn115436   0.525   2.739   4.744 -0.0157  0.2938 -0.2402
 1840ntf    sn215437   0.491   2.889   4.841 -0.3439  0.0263  0.0635
 1840ntf    nn315438   0.634   2.910   4.903 -0.1470 -0.0087 -0.3741
 1840ntf    sn215439   0.756   3.004   4.871 -0.3021  0.2662 -0.1656
 1840ntf    cn115440   0.897   2.895   4.908 -0.0725  0.7427  0.3828
 1840ntf    fn415441   0.511   2.628   4.815 -0.5300  0.4723 -0.0511
 1840ntf    fn415442   0.440   2.733   4.643 -0.1252  1.0179 -0.1963
 1840ntf    fn415443   0.645   2.736   4.689  0.1267 -1.2279  0.1182
 1840ntf    on515444   0.457   2.985   4.740  0.1703  0.2514  0.0989
 1840ntf    on515445   0.387   2.846   4.931 -0.2459  0.2319  0.2753
 1840ntf    on515446   0.776   3.114   4.963 -0.2642  0.0487  0.0896
 1840ntf    on515447   0.782   3.036   4.733  0.1381 -0.1600 -0.1850
 1840ntf    fn415448   0.917   2.894   5.038  0.2571 -0.1953  0.3317
 1840ntf    fn415449   0.895   2.770   4.865  0.6735  0.7676  0.2577
 1840ntf    fn415450   1.010   2.939   4.854  0.1510 -0.6162 -0.2847
 1841ntf    cn115451   4.808   6.269   2.013  0.3067 -0.2812 -0.3058
 1841ntf    sn215452   4.902   6.311   1.863 -0.0779  0.4532 -0.3420
 1841ntf    nn315453   4.784   6.308   1.759 -0.5303 -0.2568  0.1831
 1841ntf    sn215454   4.722   6.178   1.697 -0.1595 -0.2000 -0.3143
 1841ntf    cn115455   4.841   6.149   1.563  0.1651 -0.0360 -0.0633
 1841ntf    fn415456   4.701   6.343   2.038  0.3005 -0.4242  0.0872
 1841ntf    fn415457   4.772   6.141   2.018 -0.4292 -0.0934 -0.5994
 1841ntf    fn415458   4.884   6.281   2.120 -0.2050 -0.9314  0.1408
 1841ntf    on515459   4.949   6.444   1.893 -0.2318  0.4095  0.0962
 1841ntf    on515460   5.000   6.207   1.848 -0.5819 -0.0300 -0.3461
 1841ntf    on515461   4.595   6.197   1.631 -0.1537 -0.3318 -0.3646
 1841ntf    on515462   4.724   6.062   1.784  0.3576 -0.2150 -0.3444
 1841ntf    fn415463   4.885   6.262   1.512 -0.3329  0.1448 -0.0992
 1841ntf    fn415464   4.940   6.075   1.611 -0.2725 -0.6996 -0.1596
 1841ntf    fn415465   4.786   6.079   1.465 -0.3275 -0.6142  0.6146
 1842ntf    cn115466   0.914   2.824   2.933 -0.1623  0.3941  0.1320
 1842ntf    sn215467   0.948   2.656   2.993  0.0437  0.3258 -0.1698
 1842ntf    nn315468   0.948   2.576   2.858 -0.5120  0.0588 -0.0167
 1842ntf    sn215469   1.038   2.467   2.791  0.0620  0.3460  0.2811
 1842ntf    cn115470   0.928   2.323   2.776  0.0582  0.3981 -0.2266
 1842ntf    fn415471   0.804   2.839   2.861 -0.1785 -0.1553  0.0392
 1842ntf    fn415472   0.893   2.911   3.030  0.1762  0.5248  0.0926
 1842ntf    fn415473   1.014   2.871   2.860  0.4617 -0.4159  0.4388
 1842ntf    on515474   1.072   2.659   3.067  0.0773 -0.6977 -0.1698
 1842ntf    on515475   0.827   2.635   3.070  0.2807  0.1965  0.1695
 1842ntf    on515476   1.146   2.417   2.873  0.4287 -0.4925 -0.6800
 1842ntf    on515477   1.070   2.503   2.655 -0.6704  0.0365  0.0238
 1842ntf    fn415478   0.974   2.231   2.693 -0.1304  0.0441  0.0597
 1842ntf    fn415479   0.915   2.259   2.891  0.6352 -0.2696 -0.5243
 1842ntf    fn415480   0.802   2.346   2.742 -0.0260  0.3958  0.0765
 1843ntf    cn115481   5.359   0.192   4.089 -0.0402 -0.5999 -0.6499
 1843ntf    sn215482   5.318   0.063   4.211  0.2855 -0.1906 -0.1002
 1843ntf    nn315483   5.197   0.131   4.284  0.6578  0.2280  0.1290
 1843ntf    sn215484   5.145   0.100   4.429 -0.0195 -0.2611 -0.2113
 1843ntf    cn115485   5.185   0.253   4.519  0.2395 -0.2336 -0.3730
 1843ntf    fn415486   5.394   0.309   4.140 -0.1272 -0.8588  0.0228
 1843ntf    fn415487   5.457   0.151   4.011 -0.0365  0.0485 -0.9869
 1843ntf    fn415488   5.255   0.213   4.010 -0.3241 -0.0960 -0.1549
 1843ntf    on515489   5.282  -0.050   4.129 -0.2340 -0.3567  0.3491
 1843ntf    on515490   5.431   0.054   4.299 -0.0200  0.0058  0.3156
 1843ntf    on515491   5.213  -0.001   4.506  0.1253 -0.1528 -0.1951
 1843ntf    on515492   5.001   0.104   4.434 -0.0005  0.1576  0.0511
 1843ntf    fn415493   5.308   0.299   4.499  0.1175  0.3620  0.2133
 1843ntf    fn415494   5.104   0.355   4.492  0.1906 -0.1742 -0.0006
 1843ntf    fn415495   5.176   0.236   4.649  0.1969 -0.1480 -0.3648
 1844ntf    cn115496   4.894   4.984   3.016  0.3397 -0.1512  0.0488
 1844ntf    sn215497   5.037   5.070   3.088  0.2594 -0.3026  0.3918
 1844ntf    nn315498   4.952   5.176   3.168  0.1836 -0.0894  0.0298
 1844ntf    sn215499   5.011   5.299   3.247  0.1483 -0.0308 -0.0351
 1844ntf    cn115500   5.025   5.233   3.415 -0.5518  0.0540  0.0603
 1844ntf    fn415501   4.797   4.972   3.106  0.0710  0.2862 -0.1759
 1844ntf    fn415502   4.830   5.046   2.918 -0.1834  0.1005  0.5398
 1844ntf    fn415503   4.916   4.858   2.982  0.8057 -0.1196  0.2326
 1844ntf    on515504   5.099   4.970   3.171  0.2667 -0.4352  0.2278
 1844ntf    on515505   5.096   5.128   2.970 -0.3808  0.1878  0.3036
 1844ntf    on515506   4.916   5.407   3.253 -0.1130 -0.2514 -0.1543
 1844ntf    on515507   5.147   5.331   3.214 -0.0333  0.4181 -0.3679
 1844ntf    fn415508   4.913   5.180   3.462 -0.4129 -0.1550  0.1598
 1844ntf    fn415509   5.118   5.139   3.425 -0.5008  0.0370 -0.5465
 1844ntf    fn415510   5.059   5.328   3.500 -0.0575 -0.1572  0.1043
 1845ntf    cn115511   1.652   3.653   6.657  0.0739 -0.2297 -0.0444
 1845ntf    sn215512   1.476   3.611   6.648  0.0718 -0.2788  0.2021
 1845ntf    nn315513   1.482   3.463   6.595  0.6708 -0.1860  0.0068
 1845ntf    sn215514   1.489   3.414   6.446 -0.1466 -0.0104 -0.0905
 1845ntf    cn115515   1.316   3.435   6.391 -0.1258 -0.2058 -0.2308
 1845ntf    fn415516   1.711   3.629   6.541  0.3272 -0.5516  0.1475
 1845ntf    fn415517   1.661   3.782   6.685  0.1467 -0.4054  0.7867
 1845ntf    fn415518   1.715   3.590   6.755 -0.0030  0.1170  0.2284
 1845ntf    on515519   1.429   3.601   6.784  0.4228 -0.2749  0.3228
 1845ntf    on515520   1.404   3.710   6.571 -0.3141  0.2460  1.2241
 1845ntf    on515521   1.520   3.275   6.429 -0.2796 -0.0249 -0.2221
 1845ntf    on515522   1.566   3.509   6.370  0.6242 -0.1755  0.4805
 1845ntf    fn415523   1.237   3.422   6.497 -0.3032  0.1994 -0.3120
 1845ntf    fn415524   1.290   3.555   6.344  0.3663  0.1333  0.3432
 1845ntf    fn415525   1.279   3.348   6.299 -0.0857  0.0336 -0.4740
 1846ntf    cn115526   6.071   5.953   6.674 -0.2817 -0.3088  0.2326
 1846ntf    sn215527   6.251   5.958   6.701 -0.2443 -0.3231 -0.0058
 1846ntf    nn315528   6.292   6.109   6.685 -0.0101 -0.4005 -0.1366
 1846ntf    sn215529   6.419   6.167   6.614 -0.0830 -0.0994 -0.0199
 1846ntf    cn115530   6.328   6.273   6.498 -0.2581 -0.1805  0.0430
 1846ntf    fn415531   6.009   6.049   6.740  0.3678  0.0885  0.2746
 1846ntf    fn415532   6.048   5.973   6.545 -0.4874 -0.5052  0.2385
 1846ntf    fn415533   6.026   5.835   6.712 -0.1636 -0.5780 -0.4472
 1846ntf    on515534   6.256   5.911   6.838  0.6305 -0.6588 -0.1476
 1846ntf    on515535   6.299   5.870   6.598 -0.1923 -0.3260  0.0212
 1846ntf    on515536   6.494   6.080   6.527 -0.2787 -0.2854 -0.0013
 1846ntf    on515537   6.496   6.255   6.700 -0.0509 -1.1725  1.0801
 1846ntf    fn415538   6.395   6.318   6.393 -0.2971  0.4825  0.2966
 1846ntf    fn415539   6.223   6.212   6.446 -0.2308  0.4229 -0.7292
 1846ntf    fn415540   6.280   6.384   6.552 -0.2999 -0.3623  0.3845
 1847ntf    cn115541   2.150   4.979   2.601  0.2840  0.1133 -0.1177
 1847ntf    sn215542   2.234   5.053   2.458  0.3858 -0.0393 -0.1367
 1847ntf    nn315543   2.105   5.070   2.369  0.1749  0.1718  0.2061
 1847ntf    sn215544   2.078   5.043   2.217  0.0851 -0.2254  0.2904
 1847ntf    cn115545   1.988   4.886   2.230  0.4649 -0.4127  0.6434
 1847ntf    fn415546   2.051   5.058   2.639  0.3524  0.0423  0.2125
 1847ntf    fn415547   2.086   4.870   2.563  0.1260 -0.0720  0.6490
 1847ntf    fn415548   2.224   4.949   2.707  0.4841  0.3614 -0.1837
 1847ntf    on515549   2.287   5.172   2.519  0.5023 -0.4633  0.5985
 1847ntf    on515550   2.329   4.953   2.417  0.3675  0.0712 -0.4568
 1847ntf    on515551   2.189   5.004   2.134 -0.3004 -0.3116 -0.1973
 1847ntf    on515552   1.982   5.136   2.161  0.1541 -0.2630  0.1087
 1847ntf    fn415553   1.872   4.892   2.293  0.0227 -0.5804 -0.1409
 1847ntf    fn415554   1.967   4.817   2.119  0.4898 -0.5281  0.7099
 1847ntf    fn415555   2.062   4.810   2.309  0.3827 -0.4551  0.6799
 1848ntf    cn115556   5.466   5.674   3.107  0.1651  0.0109  0.2715
 1848ntf    sn215557   5.620   5.650   3.015 -0.0668 -0.0702 -0.0988
 1848ntf    nn315558   5.562   5.638   2.869  0.1473 -0.0718 -0.1854
 1848ntf    sn215559   5.586   5.516   2.774 -0.1659 -0.0773 -0.2598
 1848ntf    cn115560   5.534   5.581   2.613 -0.0497  0.1647 -0.1996
 1848ntf    fn415561   5.390   5.566   3.106  0.2641 -0.0563  0.1113
 1848ntf    fn415562   5.481   5.698   3.236  0.5823  0.5087  0.1344
 1848ntf    fn415563   5.386   5.772   3.066 -0.4263 -0.6554 -0.2011
 1848ntf    on515564   5.682   5.779   3.027 -0.4763  0.1897 -0.7337
 1848ntf    on515565   5.692   5.540   3.074  0.0454  0.0390 -0.0328
 1848ntf    on515566   5.484   5.417   2.800  0.5652 -0.5271  0.9843
 1848ntf    on515567   5.722   5.468   2.762 -0.2702 -0.3242 -0.4723
 1848ntf    fn415568   5.418   5.646   2.610  0.0178  0.2981  0.0737
 1848ntf    fn415569   5.613   5.675   2.563 -0.3632  0.6056  0.1207
 1848ntf    fn415570   5.529   5.482   2.525 -0.4436  0.1119 -0.1216
 1849ntf    cn115571   3.862   3.650   0.000 -0.1005 -0.2353  0.4068
 1849ntf    sn215572   3.807   3.644  -0.173  0.5284 -0.1988  0.2048
 1849ntf    nn315573   3.695   3.535  -0.161  0.0686  0.2667  0.1334
 1849ntf    sn215574   3.543   3.564  -0.134 -0.0570 -0.0124 -0.2666
 1849ntf    cn115575   3.474   3.596  -0.299 -0.1170 -0.0272 -0.2444
 1849ntf    fn415576   3.887   3.526   0.039  0.2796 -0.3724 -0.2713
 1849ntf    fn415577   3.974   3.719   0.012 -0.4630  0.5025 -0.3938
 1849ntf    fn415578   3.771   3.703   0.080  0.0843  0.1579  0.3586
 1849ntf    on515579   3.761   3.774  -0.213 -0.3890 -0.3086  0.8900
 1849ntf    on515580   3.920   3.587  -0.242  0.0728 -0.6307 -0.1888
 1849ntf    on515581   3.511   3.686  -0.063  0.2945 -0.1421  0.1185
 1849ntf    on515582   3.472   3.450  -0.082  0.7409 -0.4634 -0.1500
 1849ntf    fn415583   3.355   3.653  -0.295 -0.1630 -0.1557  0.2711
 1849ntf    fn415584   3.540   3.675  -0.383 -0.7252  0.3612 -0.3651
 1849ntf    fn415585   3.449   3.482  -0.360  0.1697 -0.0213 -0.3787
 1850ntf    cn115586   4.558   1.016   3.585  0.3558 -0.0174  0.3276
 1850ntf    sn215587   4.411   1.117   3.548  0.3991  0.0095  0.2292
 1850ntf    nn315588   4.479   1.258   3.537 -0.2417  0.3268  0.3070
 1850ntf    sn215589   4.497   1.359   3.418 -0.4700 -0.1893 -0.1703
 1850ntf    cn115590   4.386   1.488   3.481 -0.4016 -0.0132 -0.4090
 1850ntf    fn415591   4.638   0.994   3.482 -0.0611 -0.5057  0.1012
 1850ntf    fn415592   4.634   1.071   3.678  0.7404  0.0380 -0.0169
 1850ntf    fn415593   4.524   0.898   3.634  0.4526 -0.1807  0.0077
 1850ntf    on515594   4.367   1.066   3.420 -0.0568  0.4582  0.2078
 1850ntf    on515595   4.328   1.105   3.666 -0.5399 -0.1290 -0.4322
 1850ntf    on515596   4.443   1.320   3.290  0.1686  0.4251 -0.6355
 1850ntf    on515597   4.627   1.419   3.426 -0.4013 -0.2791 -0.5918
 1850ntf    fn415598   4.380   1.589   3.395  0.2208  0.0600 -0.3674
 1850ntf    fn415599   4.262   1.444   3.501 -0.2500 -0.1471  0.2684
 1850ntf    fn415600   4.432   1.539   3.594  0.2978 -0.4499 -0.4908
 1851ntf    cn115601   5.896   2.892   3.214 -0.4037  0.1430 -0.1666
 1851ntf    sn215602   5.802   2.974   3.081 -0.2092  0.0875 -0.3377
 1851ntf    nn315603   5.756   3.104   3.155  0.2054  0.1264 -0.1441
 1851ntf    sn215604   5.643   3.205   3.113 -0.0605 -0.0430  0.1537
 1851ntf    cn115605   5.751   3.349   3.084  0.1080 -0.1751  0.1205
 1851ntf    fn415606   5.944   2.772   3.184 -0.7050 -0.0518  0.1117
 1851ntf    fn415607   5.999   2.964   3.253 -0.5936  0.5609 -0.4213
 1851ntf    fn415608   5.819   2.874   3.320 -0.2924 -0.4321 -0.1772
 1851ntf    on515609   5.900   3.000   2.977  0.0814  0.3914  0.0091
 1851ntf    on515610   5.703   2.873   3.050 -0.3877 -0.0834  0.7583
 1851ntf    on515611   5.551   3.240   3.218 -0.1721  0.2756 -0.0477
 1851ntf    on515612   5.589   3.181   2.981  0.1230 -0.0869  0.0856
 1851ntf    fn415613   5.810   3.341   2.966 -0.4513  0.7280 -0.2283
 1851ntf    fn415614   5.690   3.467   3.089  0.5641  0.0583  0.1594
 1851ntf    fn415615   5.849   3.346   3.173  0.1862  0.5915  0.0657
 1852ntf    cn115616   2.951   3.979   0.545 -0.0281 -0.5605  0.2898
 1852ntf    sn215617   3.107   4.069   0.525  0.0094 -0.7315 -0.2039
 1852ntf    nn315618   3.063   4.219   0.541  1.2492 -0.3590 -0.1329
 1852ntf    sn215619   3.037   4.332   0.437 -0.2087 -0.3530  0.2132
 1852ntf    cn115620   3.193   4.426   0.437 -0.1588 -0.4282 -0.4742
 1852ntf    fn415621   2.875   4.032   0.640 -0.0192 -0.1758  0.0845
 1852ntf    fn415622   2.880   3.990   0.434  0.3678  0.0674  0.0939
 1852ntf    fn415623   2.964   3.848   0.558 -0.1288 -0.5380  0.6360
 1852ntf    on515624   3.185   4.019   0.636 -0.5698  0.0277  0.5630
 1852ntf    on515625   3.154   4.039   0.392  0.0164  0.4054 -0.4652
 1852ntf    on515626   2.946   4.434   0.484  0.2400 -0.0626  0.4591
 1852ntf    on515627   3.011   4.294   0.300 -0.2506 -0.5550  0.2777
 1852ntf    fn415628   3.302   4.359   0.405  0.1301 -0.1557 -0.0731
 1852ntf    fn415629   3.189   4.531   0.357  0.6602 -0.2161 -0.2482
 1852ntf    fn415630   3.212   4.482   0.556 -0.6090 -0.4514 -0.3886
 1853ntf    cn115631   2.133   3.611   2.977  0.5975 -0.1799 -0.0899
 1853ntf    sn215632   2.041   3.670   2.832  0.4470  0.1052  0.1200
 1853ntf    nn315633   1.995   3.529   2.779 -0.2669  0.0957  0.7397
 1853ntf    sn215634   1.855   3.484   2.724  0.2226  0.1368 -0.5922
 1853ntf    cn115635   1.771   3.456   2.883  0.7113  0.3043 -0.3005
 1853ntf    fn415636   2.047   3.549   3.057  0.0800  0.3091 -0.2593
 1853ntf    fn415637   2.230   3.526   2.947  0.6825  0.0177 -0.3776
 1853ntf    fn415638   2.181   3.716   3.040 -0.0009  0.4894 -0.7235
 1853ntf    on515639   1.939   3.752   2.893  0.4721  0.2686 -0.0578
 1853ntf    on515640   2.141   3.733   2.750  0.2199  0.3898  0.0617
 1853ntf    on515641   1.875   3.358   2.657 -0.1091 -0.5872  0.6296
 1853ntf    on515642   1.767   3.575   2.656 -0.0753  1.0481  0.9743
 1853ntf    fn415643   1.653   3.398   2.865  0.6009  0.5401 -0.3441
 1853ntf    fn415644   1.850   3.379   2.955  0.3308  0.0883 -0.1120
 1853ntf    fn415645   1.749   3.567   2.951 -0.1275  0.0237 -0.0969
 1854ntf    cn115646   1.779   2.687   3.981 -0.1248  0.0630  0.0544
 1854ntf    sn215647   1.803   2.825   4.098 -0.1920  0.2294 -0.1267
 1854ntf    nn315648   1.829   2.740   4.228 -0.7977 -0.2032 -0.2819
 1854ntf    sn215649   1.747   2.739   4.361 -0.5367 -0.2631 -0.1190
 1854ntf    cn115650   1.597   2.656   4.301 -0.4299 -0.4543 -0.1190
 1854ntf    fn415651   1.879   2.601   3.987 -0.3391 -0.2006 -0.1832
 1854ntf    fn415652   1.669   2.618   4.005 -0.0800  0.0677  0.2778
 1854ntf    fn415653   1.773   2.714   3.852  0.4976 -0.5039 -0.0959
 1854ntf    on515654   1.923   2.890   4.053 -0.0639 -0.0260 -0.1614
 1854ntf    on515655   1.675   2.890   4.083 -0.3402 -0.1509 -0.5372
 1854ntf    on515656   1.702   2.867   4.411  0.3138 -0.0078  0.0051
 1854ntf    on515657   1.795   2.647   4.461 -0.4691 -0.0748  0.0236
 1854ntf    fn415658   1.520   2.730   4.223  0.4313  0.4194 -0.1590
 1854ntf    fn415659   1.633   2.556   4.222  0.6259  0.5674 -0.9680
 1854ntf    fn415660   1.522   2.602   4.395  0.0035 -0.1580  0.3995
 1855ntf    cn115661   1.898   0.966   4.045 -0.1365  0.1893 -0.2225
 1855ntf    sn215662   1.861   0.937   3.870 -0.0936 -0.0191 -0.1972
 1855ntf    nn315663   1.860   1.085   3.817  0.1291 -0.0303 -0.2355
 1855ntf    sn215664   1.735   1.177   3.791  0.1174  0.0376  0.0521
 1855ntf    cn115665   1.663   1.111   3.637  0.0584  0.0512  0.0742
 1855ntf    fn415666   1.825   1.051   4.117 -0.3822 -0.1121 -0.1158
 1855ntf    fn415667   1.911   0.853   4.112 -0.1506  0.2577 -0.1019
 1855ntf    fn415668   2.019   1.019   4.057 -0.1046  0.0575  0.0474
 1855ntf    on515669   1.977   0.865   3.824 -0.2763 -0.1281 -0.4960
 1855ntf    on515670   1.734   0.869   3.864 -0.0904 -0.0083 -0.3924
 1855ntf    on515671   1.771   1.315   3.765  0.0603  0.0378 -0.0258
 1855ntf    on515672   1.625   1.164   3.883 -0.2385 -0.6077 -0.4529
 1855ntf    fn415673   1.624   0.986   3.659 -0.1779  0.0075 -0.5788
 1855ntf    fn415674   1.561   1.186   3.598  0.1459  0.3520  0.4166
 1855ntf    fn415675   1.756   1.097   3.544 -0.0502  0.4377 -0.0943
 1856ntf    cn115676   3.900   0.166   3.830 -0.1193 -0.0363 -0.1423
 1856ntf    sn215677   3.789   0.036   3.769 -0.3528  0.0019  0.1944
 1856ntf    nn315678   3.668   0.130   3.735 -0.5829 -0.3118  0.1411
 1856ntf    sn215679   3.559   0.127   3.622 -0.4068 -0.1348 -0.0330
 1856ntf    cn115680   3.635   0.236   3.498  0.1718 -0.4704  0.0205
 1856ntf    fn415681   3.938   0.247   3.733  0.1678 -0.4160 -0.3494
 1856ntf    fn415682   3.841   0.241   3.922 -0.7692  0.1698 -0.7138
 1856ntf    fn415683   4.008   0.106   3.878 -0.4518 -0.7903 -0.3237
 1856ntf    on515684   3.852  -0.032   3.658  0.0466  0.3138  0.2281
 1856ntf    on515685   3.760  -0.048   3.882 -0.3098 -0.6947 -0.3015
 1856ntf    on515686   3.437   0.187   3.670 -0.1413 -0.0891  0.5997
 1856ntf    on515687   3.545   0.001   3.552 -0.8378  0.3110 -0.7586
 1856ntf    fn415688   3.630   0.363   3.535  0.4565 -0.3931 -0.2035
 1856ntf    fn415689   3.764   0.213   3.483  0.1838 -0.4681  0.1166
 1856ntf    fn415690   3.585   0.226   3.376 -0.3250  0.5058  0.1311
 1857ntf    cn115691   0.686   1.969   3.939  0.4010  0.1029 -0.3076
 1857ntf    sn215692   0.738   2.042   4.097 -0.0692 -0.3030  0.0353
 1857ntf    nn315693   0.761   1.913   4.184  1.3200 -0.1118 -0.0282
 1857ntf    sn215694   0.728   1.905   4.337  0.1199 -0.2473 -0.2868
 1857ntf    cn115695   0.885   1.970   4.401  0.1110 -0.2404 -0.2719
 1857ntf    fn415696   0.563   1.922   3.944  0.2941  0.3565 -0.5073
 1857ntf    fn415697   0.687   2.066   3.848  0.2556  0.0920 -0.3212
 1857ntf    fn415698   0.774   1.874   3.912  0.2476 -0.1488  0.0685
 1857ntf    on515699   0.857   2.115   4.060 -0.3063  0.3449  0.5330
 1857ntf    on515700   0.616   2.116   4.121  0.0891  0.2211 -0.7438
 1857ntf    on515701   0.724   1.776   4.402 -0.4701 -0.1634 -0.1465
 1857ntf    on515702   0.641   2.007   4.390  0.4497  0.0273 -0.2715
 1857ntf    fn415703   0.874   1.990   4.531  0.5048 -0.1164 -0.2572
 1857ntf    fn415704   0.995   1.897   4.388  0.1143 -0.2629 -0.1139
 1857ntf    fn415705   0.913   2.087   4.347  0.5744 -0.0308  0.4176
 1858ntf    cn115706   2.314   5.726   6.106  0.5566  0.5633  0.1879
 1858ntf    sn215707   2.332   5.739   6.286  0.1451 -0.3267  0.2941
 1858ntf    nn315708   2.488   5.732   6.300  0.2056  0.2980 -0.0466
 1858ntf    sn215709   2.581   5.606   6.306  0.1988  0.3041  0.2018
 1858ntf    cn115710   2.725   5.671   6.215  0.5944 -0.5226  0.2280
 1858ntf    fn415711   2.374   5.829   6.047  0.2887  0.5473 -0.1160
 1858ntf    fn415712   2.375   5.616   6.065 -0.3201  0.3911 -0.7064
 1858ntf    fn415713   2.187   5.720   6.069  0.7073  0.4875 -0.3282
 1858ntf    on515714   2.276   5.869   6.313  0.3840 -0.1581 -0.0225
 1858ntf    on515715   2.266   5.624   6.343 -0.1260 -0.7098 -0.7717
 1858ntf    on515716   2.541   5.487   6.235  0.5753  0.1337  0.2711
 1858ntf    on515717   2.635   5.579   6.437  0.4850 -0.3105 -0.0419
 1858ntf    fn415718   2.801   5.750   6.289 -0.1149  0.3149  0.0798
 1858ntf    fn415719   2.807   5.579   6.168  0.2616 -0.5098 -0.3941
 1858ntf    fn415720   2.687   5.742   6.110  0.0356  0.0094  0.7743
 1859ntf    cn115721   1.090   0.717   3.498 -0.3203  0.1603 -0.5155
 1859ntf    sn215722   1.156   0.585   3.392  0.1062  0.2305 -0.3416
 1859ntf    nn315723   1.310   0.580   3.420  0.0746 -0.0489 -0.2123
 1859ntf    sn215724   1.402   0.459   3.460  0.2083  0.0672 -0.1655
 1859ntf    cn115725   1.550   0.558   3.496  0.3823 -0.1044 -0.4132
 1859ntf    fn415726   1.162   0.825   3.473 -0.2477  0.3660  0.5193
 1859ntf    fn415727   0.961   0.740   3.479 -0.3854 -0.1794 -0.5032
 1859ntf    fn415728   1.102   0.696   3.629  0.2902  0.0008 -0.5921
 1859ntf    on515729   1.092   0.466   3.442 -0.1450  0.2337 -0.6528
 1859ntf    on515730   1.118   0.626   3.259  0.3362  0.1840 -0.4216
 1859ntf    on515731   1.434   0.369   3.352 -0.1584  0.1623 -0.3576
 1859ntf    on515732   1.375   0.407   3.592 -0.3515  0.3611 -0.1605
 1859ntf    fn415733   1.570   0.662   3.417  0.4274  0.2015  0.0036
 1859ntf    fn415734   1.532   0.620   3.611  0.3779 -0.2255 -0.3479
 1859ntf    fn415735   1.664   0.492   3.513  0.6133  0.5124  0.4568
 1860ntf    cn115736   2.079   2.068   3.982  0.0139 -0.3671  0.0614
 1860ntf    sn215737   1.941   1.976   4.057 -0.4007  0.1157 -0.1042
 1860ntf    nn315738   1.829   2.002   3.950  0.1395 -0.1182 -0.7402
 1860ntf    sn215739   1.701   1.912   3.932 -0.0289 -0.0201 -0.0701
 1860ntf    cn115740   1.755   1.812   3.790  0.1099  0.0668 -0.0790
 1860ntf    fn415741   2.041   2.193   3.962 -0.3354 -0.5539 -0.4668
 1860ntf    fn415742   2.192   2.065   4.050 -0.2084 -0.7935  0.4169
 1860ntf    fn415743   2.096   2.012   3.863 -0.5313 -0.0615 -0.1647
 1860ntf    on515744   1.989   1.840   4.054  0.3855  0.3891 -0.0669
 1860ntf    on515745   1.928   2.045   4.183  0.1776 -0.1484  0.1051
 1860ntf    on515746   1.588   1.994   3.895 -0.3882 -0.1599  0.6941
 1860ntf    on515747   1.682   1.817   4.039  0.6255  0.0609  0.1264
 1860ntf    fn415748   1.877   1.765   3.808  0.1103 -0.1623 -0.6569
 1860ntf    fn415749   1.677   1.707   3.772  0.0623  0.0788  0.0516
 1860ntf    fn415750   1.763   1.879   3.676  0.4430 -0.0196 -0.1067
 1861ntf    cn115751   3.143   3.356   0.111 -0.4013 -0.1242 -0.0245
 1861ntf    sn215752   3.246   3.213   0.160  0.0654  0.1267 -0.2668
 1861ntf    nn315753   3.155   3.092   0.118 -0.3483  0.3025  0.1118
 1861ntf    sn215754   3.095   2.982   0.213 -0.0626  0.0914  0.0508
 1861ntf    cn115755   3.091   2.831   0.113 -0.1206  0.1067  0.0302
 1861ntf    fn415756   3.048   3.371   0.202 -0.3312 -0.1512  0.0540
 1861ntf    fn415757   3.217   3.466   0.108 -0.1004 -0.3037  0.6020
 1861ntf    fn415758   3.090   3.343  -0.009 -0.1794  0.1871 -0.1565
 1861ntf    on515759   3.363   3.226   0.077  0.4128 -0.9719  0.0433
 1861ntf    on515760   3.258   3.231   0.302  0.0006 -0.4122 -0.1911
 1861ntf    on515761   2.952   2.996   0.223 -0.0477  0.7265 -0.4985
 1861ntf    on515762   3.167   2.933   0.328 -0.0565  0.3504  0.1587
 1861ntf    fn415763   3.093   2.724   0.191 -0.1362 -0.1005 -0.2515
 1861ntf    fn415764   2.988   2.838   0.029  0.3408 -0.3141 -0.5824
 1861ntf    fn415765   3.197   2.822   0.035 -0.2415 -0.4343 -0.0822
 1862ntf    cn115766   6.672   6.245   5.662  0.0966  0.7580  0.2501
 1862ntf    sn215767   6.593   6.372   5.559 -0.5487 -0.1222 -0.3603
 1862ntf    nn315768   6.494   6.444   5.658 -0.0854  0.5467 -0.3775
 1862ntf    sn215769   6.509   6.559   5.764  0.2225 -0.1419  0.3400
 1862ntf    cn115770   6.539   6.470   5.919  0.5344 -0.4825  0.0878
 1862ntf    fn415771   6.596   6.146   5.706  0.0094  0.6461 -0.1525
 1862ntf    fn415772   6.766   6.182   5.593 -0.7084 -0.2820  0.0694
 1862ntf    fn415773   6.727   6.288   5.775  0.4094  0.2155  0.3104
 1862ntf    on515774   6.700   6.450   5.502 -0.6151 -0.0848 -0.4334
 1862ntf    on515775   6.513   6.295   5.467 -0.3380 -0.9219  0.1097
 1862ntf    on515776   6.382   6.627   5.778  0.3644  0.1860  0.0422
 1862ntf    on515777   6.631   6.635   5.750  0.0625  0.1288  0.4139
 1862ntf    fn415778   6.496   6.530   6.029  0.5443 -0.2125 -0.0535
 1862ntf    fn415779   6.483   6.350   5.921 -0.4185 -0.0471  0.1515
 1862ntf    fn415780   6.664   6.449   5.956  0.6395 -0.6425 -0.3665
 1863ntf    cn115781   2.654   6.319   4.512 -0.0055  0.3334 -0.3829
 1863ntf    sn215782   2.528   6.398   4.407 -0.4606 -0.0683 -0.1434
 1863ntf    nn315783   2.559   6.551   4.423  0.1229 -0.1663 -0.3121
 1863ntf    sn215784   2.482   6.659   4.508  0.3636 -0.1403 -0.1252
 1863ntf    cn115785   2.363   6.709   4.380  0.4436  0.4227  0.0205
 1863ntf    fn415786   2.771   6.332   4.452 -0.0014 -0.1468 -0.4840
 1863ntf    fn415787   2.660   6.376   4.632  0.1017 -0.1539 -0.1538
 1863ntf    fn415788   2.631   6.192   4.539  0.4719  0.2818 -0.2206
 1863ntf    on515789   2.560   6.355   4.273  0.0039  1.0087 -0.3835
 1863ntf    on515790   2.404   6.350   4.463 -0.6261 -0.3155 -0.7174
 1863ntf    on515791   2.564   6.775   4.527  0.2743 -0.0828 -0.0925
 1863ntf    on515792   2.401   6.616   4.619  0.1748  0.2171 -0.1256
 1863ntf    fn415793   2.307   6.611   4.311  0.5960  0.1354  0.3069
 1863ntf    fn415794   2.264   6.775   4.438  0.1458 -0.2954  0.3346
 1863ntf    fn415795   2.421   6.786   4.289  0.0922  0.6976  0.0286
 1864ntf    cn115796   5.441   2.616   3.748  0.0589  0.0524  0.0987
 1864ntf    sn215797   5.298   2.505   3.731  0.2399 -0.0936 -0.4822
 1864ntf    nn315798   5.241   2.537   3.588  0.5558  0.4943 -0.4820
 1864ntf    sn215799   5.116   2.623   3.546  0.1919  0.0963 -0.2311
 1864ntf    cn115800   4.980   2.504   3.569  0.1237  0.1971 -0.1153
 1864ntf    fn415801   5.415   2.727   3.815  0.3451  0.2571 -0.1289
 1864ntf    fn415802   5.541   2.551   3.806 -0.0492 -0.3757 -0.1907
 1864ntf    fn415803   5.479   2.656   3.628  0.6621  0.1018  0.3022
 1864ntf    on515804   5.359   2.375   3.732  0.5537  0.0505  0.2897
 1864ntf    on515805   5.215   2.538   3.844  0.3641  0.7059 -0.6183
 1864ntf    on515806   5.113   2.654   3.405  0.2019  0.2737 -0.1914
 1864ntf    on515807   5.074   2.726   3.638 -0.1404  0.1053 -0.3911
 1864ntf    fn415808   4.936   2.523   3.692  0.6115 -0.0756  0.1031
 1864ntf    fn415809   4.873   2.519   3.493  0.0687  0.3095 -0.0152
 1864ntf    fn415810   5.009   2.375   3.568  0.2984  0.2373 -0.7079
 1865ntf    cn115811   0.364   5.577   5.461  0.0377  0.1351  0.3870
 1865ntf    sn215812   0.340   5.543   5.639 -0.1268 -0.1513  0.3111
 1865ntf    nn315813   0.211   5.456   5.619  0.0242 -0.2904 -0.0937
 1865ntf    sn215814   0.126   5.387   5.732 -0.0165  0.0741  0.0991
 1865ntf    cn115815   0.186   5.216   5.739  0.0155  0.0593 -0.5716
 1865ntf    fn415816   0.271   5.649   5.400  0.2143  0.1124  0.0921
 1865ntf    fn415817   0.475   5.647   5.448  0.0882  0.0116  0.1571
 1865ntf    fn415818   0.384   5.464   5.396 -0.2521  0.3211 -0.0255
 1865ntf    on515819   0.461   5.468   5.661  0.2268  0.4374  0.3905
 1865ntf    on515820   0.321   5.675   5.693  0.4965  0.2469 -0.4079
 1865ntf    on515821  -0.015   5.371   5.707 -0.1067  0.9494  0.0030
 1865ntf    on515822   0.155   5.427   5.868 -0.5862  0.3452  0.1443
 1865ntf    fn415823   0.312   5.208   5.777 -0.2673  0.6158  0.5189
 1865ntf    fn415824   0.122   5.129   5.816 -0.2428  0.4310 -0.3685
 1865ntf    fn415825   0.175   5.164   5.617 -0.6366 -0.2008 -0.4073
 1866ntf    cn115826   0.636   3.930   4.639  0.1860 -0.0719 -0.7956
 1866ntf    sn215827   0.814   3.908   4.665  0.0426 -0.0571  0.2785
 1866ntf    nn315828   0.849   4.012   4.777  0.6580 -0.4113  0.4191
 1866ntf    sn215829   0.937   4.143   4.772  0.3293 -0.2031  0.0793
 1866ntf    cn115830   1.108   4.085   4.788  0.3549 -0.1517 -0.0109
 1866ntf    fn415831   0.606   4.052   4.597  0.2061 -0.0468 -0.7387
 1866ntf    fn415832   0.595   3.850   4.542 -0.1751 -0.2112 -0.5336
 1866ntf    fn415833   0.557   3.916   4.745  0.3466  0.2306 -0.6340
 1866ntf    on515834   0.826   3.769   4.701  0.8584  0.0984  0.6372
 1866ntf    on515835   0.858   3.940   4.531 -0.1357 -0.0603  0.2198
 1866ntf    on515836   0.920   4.219   4.893  0.1779  0.1966 -0.1924
 1866ntf    on515837   0.928   4.226   4.654 -0.2178 -0.3825 -0.0136
 1866ntf    fn415838   1.159   4.010   4.691 -0.0061 -0.1483 -0.2025
 1866ntf    fn415839   1.181   4.195   4.788  0.3668 -0.1593 -0.2442
 1866ntf    fn415840   1.127   4.028   4.905 -0.1889 -0.7181 -0.1965
 1867ntf    cn115841   4.593   4.956   1.413  0.1558  0.3555 -0.0229
 1867ntf    sn215842   4.609   4.809   1.307  0.2814  0.2373  0.1597
 1867ntf    nn315843   4.710   4.721   1.389  0.0838 -0.2819 -0.1526
 1867ntf    sn215844   4.865   4.703   1.372  0.1517  0.0639  0.0961
 1867ntf    cn115845   4.859   4.543   1.285 -0.2140  0.2245 -0.1744
 1867ntf    fn415846   4.690   5.041   1.381  0.0531  0.7530  0.7112
 1867ntf    fn415847   4.484   5.022   1.377 -0.0901 -0.2453 -0.3873
 1867ntf    fn415848   4.588   4.926   1.542  0.1524  0.4385 -0.0036
 1867ntf    on515849   4.471   4.766   1.307  0.3622 -0.0231  0.4291
 1867ntf    on515850   4.668   4.853   1.183 -0.2907  0.5514 -0.0038
 1867ntf    on515851   4.939   4.667   1.491  0.6299 -0.2976 -0.3064
 1867ntf    on515852   4.935   4.794   1.285 -0.1987 -0.0678 -0.3265
 1867ntf    fn415853   4.983   4.511   1.251 -0.4521 -0.2979 -0.5588
 1867ntf    fn415854   4.798   4.451   1.358  0.0847 -0.3229 -0.6130
 1867ntf    fn415855   4.796   4.549   1.169  0.0998  0.6340 -0.3278
 1868ntf    cn115856   5.137   5.517   4.313  0.5043 -0.1295  0.3294
 1868ntf    sn215857   5.205   5.388   4.204  0.2764  0.0262 -0.0014
 1868ntf    nn315858   5.199   5.470   4.071 -0.1148 -0.4381 -0.2692
 1868ntf    sn215859   5.314   5.556   4.007 -0.1979  0.1389  0.3497
 1868ntf    cn115860   5.384   5.437   3.888  0.0000  0.2407  0.3664
 1868ntf    fn415861   5.238   5.579   4.372  0.4831  0.7208 -0.5060
 1868ntf    fn415862   5.071   5.611   4.247  0.1839 -0.6891 -0.1596
 1868ntf    fn415863   5.060   5.472   4.410 -0.0203  0.1071  0.0232
 1868ntf    on515864   5.335   5.361   4.262  0.1782  0.0258  0.2188
 1868ntf    on515865   5.105   5.284   4.213 -0.2202  0.4612 -0.4675
 1868ntf    on515866   5.422   5.607   4.087  0.0028  0.2293  0.0267
 1868ntf    on515867   5.257   5.660   3.924 -0.3756 -0.3985 -0.2149
 1868ntf    fn415868   5.481   5.491   3.816  0.1151 -0.0511  0.3038
 1868ntf    fn415869   5.443   5.331   3.941 -0.4292 -0.3743 -0.3745
 1868ntf    fn415870   5.298   5.390   3.799  0.2273  0.0943  0.2227
 1869ntf    cn115871   3.955   3.408   5.135 -0.2899 -0.1213  0.4037
 1869ntf    sn215872   4.075   3.293   5.210  0.2240  0.0615 -0.1242
 1869ntf    nn315873   4.203   3.351   5.141  0.0991  0.1601 -0.2708
 1869ntf    sn215874   4.261   3.327   4.997  0.0794 -0.4287 -0.1838
 1869ntf    cn115875   4.328   3.495   4.975 -0.0055 -0.3603  0.0791
 1869ntf    fn415876   3.832   3.388   5.179 -0.4556 -0.5658 -0.2506
 1869ntf    fn415877   3.987   3.534   5.161 -0.2909  0.2296 -1.1997
 1869ntf    fn415878   3.952   3.398   5.003  0.2262  0.5055  0.3392
 1869ntf    on515879   4.062   3.328   5.350  0.4823  0.3547 -0.1719
 1869ntf    on515880   4.037   3.159   5.175 -0.0579  0.0192  0.3263
 1869ntf    on515881   4.171   3.307   4.886  0.1562  0.1543 -0.3598
 1869ntf    on515882   4.384   3.251   4.996  0.2658 -0.1358  0.2519
 1869ntf    fn415883   4.430   3.519   5.056  0.1049 -0.0844 -0.1370
 1869ntf    fn415884   4.369   3.523   4.852 -0.0329 -0.3929  0.0629
 1869ntf    fn415885   4.231   3.578   5.012 -0.2302 -0.5419 -0.1017
 1870ntf    cn115886   0.066   4.804   4.460  0.1059 -0.2062 -0.4966
 1870ntf    sn215887   0.241   4.793   4.413  0.3740  0.2554  0.3673
 1870ntf    nn315888   0.295   4.925   4.480 -0.0159  0.4608  0.2818
 1870ntf    sn215889   0.357   5.048   4.405 -0.3366  0.4180 -0.0571
 1870ntf    cn115890   0.527   4.985   4.394 -0.4091  0.1430  0.3885
 1870ntf    fn415891  -0.003   4.695   4.434  0.0209 -0.2372 -0.1424
 1870ntf    fn415892   0.061   4.828   4.590  0.1566  0.2793 -0.5809
 1870ntf    fn415893  -0.005   4.897   4.397  0.2391  0.0697 -0.2407
 1870ntf    on515894   0.287   4.669   4.469 -0.1181 -0.3838 -0.6059
 1870ntf    on515895   0.229   4.802   4.269  0.7094  0.8352  0.3706
 1870ntf    on515896   0.370   5.166   4.488  0.1793  0.0152  0.4362
 1870ntf    on515897   0.318   5.059   4.267 -0.2222 -0.4113 -0.1581
 1870ntf    fn415898   0.593   5.061   4.308 -0.5161  0.1667  0.3265
 1870ntf    fn415899   0.590   5.007   4.509  0.2979 -0.1228  0.0561
 1870ntf    fn415900   0.534   4.858   4.357  0.3181  0.4526 -0.5606
 1871ntf    cn115901   0.462   0.400   3.600 -0.5611 -0.4369 -0.0694
 1871ntf    sn215902   0.525   0.303   3.459  0.1405 -0.1430  0.0374
 1871ntf    nn315903   0.408   0.339   3.359  0.2684  0.5889  0.1459
 1871ntf    sn215904   0.414   0.314   3.205  0.0035 -0.1320  0.2509
 1871ntf    cn115905   0.434   0.480   3.134  0.1214  0.0752  0.7678
 1871ntf    fn415906   0.555   0.400   3.694 -0.2124  0.2523 -0.4052
 1871ntf    fn415907   0.439   0.524   3.560  0.1199 -0.3763 -0.2984
 1871ntf    fn415908   0.347   0.351   3.644 -0.7505  0.3269  0.3005
 1871ntf    on515909   0.650   0.370   3.434  0.3253 -0.3581  0.3938
 1871ntf    on515910   0.538   0.167   3.504  0.0047 -0.1809 -0.0378
 1871ntf    on515911   0.283   0.273   3.162  0.0314  0.3418 -0.3083
 1871ntf    on515912   0.526   0.240   3.151 -0.2495 -0.1684 -0.2354
 1871ntf    fn415913   0.549   0.532   3.174  0.2401 -0.2041  0.7905
 1871ntf    fn415914   0.458   0.468   3.004 -0.1249 -0.1244  0.7416
 1871ntf    fn415915   0.333   0.565   3.143 -0.5478 -0.6364  0.0830
 1872ntf    cn115916   3.609   6.057   3.828  0.4263  0.1044  0.1376
 1872ntf    sn215917   3.700   5.953   3.946  0.1333 -0.1716  0.1212
 1872ntf    nn315918   3.700   6.041   4.076  0.0789  0.0754 -0.0457
 1872ntf    sn215919   3.812   6.142   4.119  0.2776  0.0778 -0.5586
 1872ntf    cn115920   3.902   6.034   4.234 -0.1125  0.2587 -0.0765
 1872ntf    fn415921   3.675   6.171   3.816 -0.4848  0.5693 -0.5134
 1872ntf    fn415922   3.598   6.002   3.708 -0.3215 -0.0174  0.2598
 1872ntf    fn415923   3.490   6.104   3.859  0.1090 -0.2966 -0.4387
 1872ntf    on515924   3.610   5.841   3.955  0.2207 -0.2762 -0.2875
 1872ntf    on515925   3.821   5.927   3.871 -0.0955 -0.6267 -0.0976
 1872ntf    on515926   3.765   6.247   4.206 -0.1907 -0.9605  0.4706
 1872ntf    on515927   3.908   6.175   4.017 -0.0345  0.0222 -0.8749
 1872ntf    fn415928   3.826   5.962   4.314 -0.3231  0.3560 -0.1870
 1872ntf    fn415929   3.961   5.940   4.162  0.0052  0.1083  0.2148
 1872ntf    fn415930   3.987   6.098   4.313 -0.1922  0.4460 -0.1420
 1873ntf    cn115931   3.082   3.632   0.963 -0.2842  0.1436  0.0506
 1873ntf    sn215932   2.938   3.538   1.021  0.0186 -0.1518  0.3298
 1873ntf    nn315933   2.844   3.642   1.091 -0.0954 -0.3970  0.5450
 1873ntf    sn215934   2.722   3.622   1.188 -0.2277 -0.1043  0.4398
 1873ntf    cn115935   2.760   3.746   1.315  0.0782  0.1726  0.0787
 1873ntf    fn415936   3.167   3.565   0.887 -0.3897  0.3054 -0.2085
 1873ntf    fn415937   3.054   3.741   0.894  0.2140  0.4839  0.3764
 1873ntf    fn415938   3.152   3.676   1.067 -0.1501 -0.4037  0.1972
 1873ntf    on515939   2.877   3.492   0.899 -0.0628  0.3256  0.1903
 1873ntf    on515940   2.987   3.449   1.123 -0.4667  0.0890  0.7810
 1873ntf    on515941   2.724   3.501   1.266  0.5436 -0.3263  0.0776
 1873ntf    on515942   2.596   3.665   1.132  0.4531  0.6011 -0.5803
 1873ntf    fn415943   2.696   3.731   1.430  0.3938 -0.3861  0.1822
 1873ntf    fn415944   2.890   3.737   1.339  0.0544  0.0209  0.1459
 1873ntf    fn415945   2.731   3.869   1.274  0.1147 -0.0590 -0.6495
 1874ntf    cn115946   0.277   5.052   6.450  0.1535 -0.3560  0.1647
 1874ntf    sn215947   0.210   5.212   6.506  0.3958 -0.3134  0.3330
 1874ntf    nn315948   0.134   5.258   6.377  0.1973 -0.2080  0.4884
 1874ntf    sn215949  -0.008   5.325   6.364  0.1910 -0.2567  0.3047
 1874ntf    cn115950   0.030   5.484   6.287  0.5469 -0.1696  0.6565
 1874ntf    fn415951   0.326   5.073   6.329 -0.0734 -0.0567  0.1238
 1874ntf    fn415952   0.373   5.002   6.525  0.2137 -0.5454 -0.0382
 1874ntf    fn415953   0.179   4.964   6.438 -0.0985 -0.1176  0.4572
 1874ntf    on515954   0.123   5.167   6.611 -0.1028 -0.4416 -0.1325
 1874ntf    on515955   0.327   5.292   6.534 -0.1142  0.5553 -0.0007
 1874ntf    on515956  -0.069   5.360   6.489  0.3687 -0.1812  0.3705
 1874ntf    on515957  -0.093   5.256   6.270 -0.2024  0.3139  0.2406
 1874ntf    fn415958   0.080   5.473   6.164 -0.3462  0.2009  0.2505
 1874ntf    fn415959  -0.075   5.564   6.288  0.4677 -0.2770  0.8334
 1874ntf    fn415960   0.117   5.554   6.358  0.2158  0.4716  0.4409
 1875ntf    cn115961   2.391   0.912   2.933  0.3325 -0.5281  0.1804
 1875ntf    sn215962   2.326   0.942   3.101  0.1771 -0.4505  0.1067
 1875ntf    nn315963   2.448   0.902   3.192  0.2726 -0.4174 -0.0053
 1875ntf    sn215964   2.577   0.990   3.209 -0.0436  0.0299  0.0982
 1875ntf    cn115965   2.577   1.005   3.390 -0.0074  0.2858  0.0773
 1875ntf    fn415966   2.500   0.980   2.903 -0.0333 -0.3760 -0.8237
 1875ntf    fn415967   2.427   0.786   2.915 -0.3892 -0.7258  0.0802
 1875ntf    fn415968   2.297   0.936   2.843  0.4208  0.5637  0.3677
 1875ntf    on515969   2.281   1.079   3.101 -0.3205 -0.6125  0.0052
 1875ntf    on515970   2.224   0.841   3.109  0.0420 -0.3324 -0.0886
 1875ntf    on515971   2.566   1.126   3.162 -0.3848 -0.4198 -1.1486
 1875ntf    on515972   2.698   0.918   3.181 -0.1747 -0.0921 -0.1587
 1875ntf    fn415973   2.620   0.895   3.450 -0.1610  0.0093 -0.3162
 1875ntf    fn415974   2.653   1.104   3.435 -0.2090  0.2300  0.5465
 1875ntf    fn415975   2.454   1.035   3.429 -0.1326  0.4980 -0.4716
 1876ntf    cn115976   4.662   6.493   0.945  0.2648 -0.2481 -0.3011
 1876ntf    sn215977   4.635   6.333   0.864  0.0070 -0.3071 -0.1034
 1876ntf    nn315978   4.621   6.233   0.984  0.2789  0.4219  0.5417
 1876ntf    sn215979   4.486   6.191   1.053  0.0178 -0.0130 -0.2171
 1876ntf    cn115980   4.528   6.164   1.228  0.3354 -0.6433 -0.3867
 1876ntf    fn415981   4.735   6.574   0.870  0.0805  0.8475  0.6667
 1876ntf    fn415982   4.550   6.553   0.982  0.5479  0.1952 -0.1523
 1876ntf    fn415983   4.742   6.481   1.050 -0.1065  0.3373  0.0588
 1876ntf    on515984   4.512   6.355   0.793 -0.1105  0.7094  0.3944
 1876ntf    on515985   4.759   6.330   0.789  0.1448 -0.4443  0.1290
 1876ntf    on515986   4.446   6.057   1.020  0.3689 -0.2258  0.2106
 1876ntf    on515987   4.382   6.291   1.050  0.2825  0.2569 -0.4446
 1876ntf    fn415988   4.579   6.272   1.286 -0.7310 -0.0778 -0.4701
 1876ntf    fn415989   4.423   6.143   1.306  0.1633 -0.1590 -0.4871
 1876ntf    fn415990   4.607   6.060   1.248  0.0273 -0.6656  0.7646
 1877ntf    cn115991   4.629   1.780   0.756  0.3403  0.6729 -0.0992
 1877ntf    sn215992   4.572   1.952   0.777 -0.1520  0.5001 -0.0259
 1877ntf    nn315993   4.658   1.986   0.904  0.0306 -0.4618  0.1206
 1877ntf    sn215994   4.618   1.962   1.054 -0.0782 -0.2801  0.1217
 1877ntf    cn115995   4.544   2.123   1.094  0.2891 -0.1037  0.1019
 1877ntf    fn415996   4.524   1.702   0.741  0.4051  0.6204 -0.2830
 1877ntf    fn415997   4.711   1.768   0.652 -0.2070  0.1043 -0.4683
 1877ntf    fn415998   4.696   1.736   0.861 -0.7094 -0.6410  0.0380
 1877ntf    on515999   4.619   2.019   0.658 -0.4345  0.0787 -0.3781
 1877ntf    on516000   4.430   1.940   0.801 -0.2559  0.3941 -0.6723
 1877ntf    on516001   4.736   1.972   1.137  0.0093 -0.0348 -0.0307
 1877ntf    on516002   4.527   1.856   1.088 -0.2038 -0.1891  0.0669
 1877ntf    fn416003   4.635   2.216   1.114  0.3430 -0.2148  0.3902
 1877ntf    fn416004   4.456   2.162   1.004  0.1062  0.2561  0.4338
 1877ntf    fn416005   4.470   2.119   1.204 -0.0441  0.5705 -0.0916
 1878ntf    cn116006   6.236   0.688   6.594 -0.2173  0.2343  0.3054
 1878ntf    sn216007   6.166   0.549   6.688 -0.2113  0.2522  0.3358
 1878ntf    nn316008   6.047   0.619   6.762 -0.2274  0.1185  0.4359
 1878ntf    sn216009   5.901   0.570   6.795 -0.2838  0.0507  0.0876
 1878ntf    cn116010   5.848   0.669   6.938 -0.0226 -0.2632  0.4053
 1878ntf    fn416011   6.159   0.727   6.494 -0.2746 -0.4941  0.0627
 1878ntf    fn416012   6.253   0.796   6.670  0.3393  0.1263  0.3391
 1878ntf    fn416013   6.351   0.668   6.531 -0.2687  0.2128  0.2181
 1878ntf    on516014   6.126   0.458   6.583 -0.1567  0.5746  0.0332
 1878ntf    on516015   6.281   0.523   6.771 -0.2665 -0.1179  0.2969
 1878ntf    on516016   5.894   0.433   6.839 -0.7802 -0.1751 -0.6816
 1878ntf    on516017   5.811   0.613   6.692 -0.1374 -0.5132 -0.2815
 1878ntf    fn416018   5.830   0.795   6.904 -0.0235 -0.4267 -0.2156
 1878ntf    fn416019   5.734   0.618   6.983 -0.3918  0.1589 -0.0504
 1878ntf    fn416020   5.940   0.661   7.032  0.2003 -0.5356  0.1668
 1879ntf    cn116021   4.389   4.659   5.359 -0.0181  0.8105 -0.5850
 1879ntf    sn216022   4.487   4.705   5.505  0.0075 -0.0035 -0.3413
 1879ntf    nn316023   4.584   4.803   5.429 -0.4342  0.5372 -0.2180
 1879ntf    sn216024   4.728   4.842   5.478 -0.2138 -0.1649 -0.2941
 1879ntf    cn116025   4.733   5.022   5.453  0.6828 -0.1365  0.0585
 1879ntf    fn416026   4.356   4.760   5.279 -0.5797  0.7564 -0.4240
 1879ntf    fn416027   4.454   4.579   5.276  0.0238  0.1597  0.0671
 1879ntf    fn416028   4.277   4.600   5.395  0.3090  0.4418 -0.1569
 1879ntf    on516029   4.396   4.767   5.599  0.5258  0.4174 -0.1134
 1879ntf    on516030   4.541   4.577   5.543 -0.2163 -0.1134 -0.3883
 1879ntf    on516031   4.833   4.784   5.398 -0.1603  0.0783 -0.3998
 1879ntf    on516032   4.746   4.837   5.621  1.1311  0.1981 -0.4361
 1879ntf    fn416033   4.743   5.055   5.326  0.0342 -0.3804 -0.0577
 1879ntf    fn416034   4.632   5.091   5.506  0.7096 -0.1958  0.1888
 1879ntf    fn416035   4.843   5.076   5.503  0.3252  0.1049  0.5978
 1880ntf    cn116036   2.051   4.312   2.520 -0.1532  0.4372 -0.1573
 1880ntf    sn216037   2.056   4.410   2.673 -0.0233  0.3552 -0.1099
 1880ntf    nn316038   1.903   4.416   2.706 -0.1066 -0.7280 -0.2795
 1880ntf    sn216039   1.830   4.407   2.845 -0.1646  0.0254 -0.2589
 1880ntf    cn116040   1.758   4.240   2.837 -0.2048  0.0373 -0.1533
 1880ntf    fn416041   1.982   4.358   2.417 -0.2209  0.0249 -0.2945
 1880ntf    fn416042   2.172   4.291   2.473  0.0268 -0.7551  0.7848
 1880ntf    fn416043   1.998   4.194   2.549 -0.6480  0.6524 -0.1691
 1880ntf    on516044   2.141   4.322   2.750 -0.2328 -0.0443 -0.3385
 1880ntf    on516045   2.112   4.533   2.622  0.3159  0.0714 -0.4211
 1880ntf    on516046   1.709   4.485   2.849 -0.3737 -0.3009 -0.2628
 1880ntf    on516047   1.918   4.403   2.960 -0.7559  0.6082  0.2192
 1880ntf    fn416048   1.670   4.225   2.935 -0.3587  0.7129 -0.1779
 1880ntf    fn416049   1.698   4.222   2.721 -0.1470  0.5127 -0.2625
 1880ntf    fn416050   1.853   4.151   2.860 -0.3900 -0.2165 -0.3825
 1881ntf    cn116051   5.328   3.969   4.230  0.1963  0.0034 -0.2059
 1881ntf    sn216052   5.406   3.956   4.394  0.0283  0.0921 -0.1200
 1881ntf    nn316053   5.438   3.803   4.402 -0.0063  0.1134  0.5309
 1881ntf    sn216054   5.345   3.686   4.447  0.0172 -0.1322 -0.0471
 1881ntf    cn116055   5.400   3.674   4.620  0.1665  0.2040 -0.0710
 1881ntf    fn416056   5.399   3.924   4.128  0.3521  0.0882 -0.1363
 1881ntf    fn416057   5.212   3.907   4.221  0.3690 -0.3038 -0.3329
 1881ntf    fn416058   5.316   4.101   4.221  0.2241  0.0056 -0.2152
 1881ntf    on516059   5.529   4.029   4.379  0.1284 -0.0650 -0.0616
 1881ntf    on516060   5.316   4.010   4.494  0.4119 -0.6462  0.6418
 1881ntf    on516061   5.369   3.559   4.383 -0.0952 -0.6754  0.9563
 1881ntf    on516062   5.204   3.711   4.461  0.1029 -0.0961  0.8008
 1881ntf    fn416063   5.305   3.628   4.701  0.3625  0.3837  0.2620
 1881ntf    fn416064   5.516   3.613   4.638 -0.0041 -0.0660  0.1318
 1881ntf    fn416065   5.417   3.798   4.664  0.3082  0.1334  0.0745
 1882ntf    cn116066   4.560   6.051   4.533  0.3591 -0.0493  0.0322
 1882ntf    sn216067   4.586   6.051   4.713  0.1257  0.0486  0.0663
 1882ntf    nn316068   4.676   5.925   4.740 -0.0764  0.0479  0.7576
 1882ntf    sn216069   4.828   5.895   4.716 -0.1300  0.2916  0.1025
 1882ntf    cn116070   4.805   5.732   4.640 -0.1562  0.3677 -0.0543
 1882ntf    fn416071   4.481   6.150   4.493  0.3417  0.1163  0.4641
 1882ntf    fn416072   4.672   6.068   4.466  0.7288 -1.3734  0.2886
 1882ntf    fn416073   4.510   5.933   4.502 -0.0206  0.0581  0.2162
 1882ntf    on516074   4.652   6.176   4.745  0.1101 -0.0586  0.5295
 1882ntf    on516075   4.453   6.031   4.767  0.3559 -0.4469  0.4614
 1882ntf    on516076   4.891   5.864   4.842 -0.1681  0.1233  0.0801
 1882ntf    on516077   4.899   5.971   4.616 -0.1077  0.4910  0.2676
 1882ntf    fn416078   4.712   5.710   4.548 -0.0831  0.1978 -0.0892
 1882ntf    fn416079   4.912   5.682   4.580 -0.6116 -0.7610  0.0437
 1882ntf    fn416080   4.778   5.640   4.732  0.1935  0.0921 -0.2241
 1883ntf    cn116081   5.288   1.138   5.013 -0.2639 -0.1764 -0.3024
 1883ntf    sn216082   5.137   1.067   5.085 -0.0324 -0.2909  0.0717
 1883ntf    nn316083   5.137   0.915   5.048 -0.2211 -0.3595  0.3448
 1883ntf    sn216084   5.212   0.791   5.109  0.1021 -0.2569  0.1602
 1883ntf    cn116085   5.266   0.702   4.960 -0.4101 -0.4613  0.0974
 1883ntf    fn416086   5.405   1.086   5.047 -0.1016  0.2634 -0.1929
 1883ntf    fn416087   5.289   1.136   4.880  0.0546  0.1535 -0.3061
 1883ntf    fn416088   5.303   1.262   5.054 -0.2937 -0.2126 -0.1820
 1883ntf    on516089   5.143   1.093   5.227  0.2534 -0.1566  0.0367
 1883ntf    on516090   5.021   1.122   5.020  0.3381  0.1532 -0.2164
 1883ntf    on516091   5.127   0.694   5.173 -0.1894  0.2450  0.5406
 1883ntf    on516092   5.336   0.827   5.174  0.0923  0.8564 -0.4041
 1883ntf    fn416093   5.163   0.662   4.886 -0.3602 -0.1331 -0.1536
 1883ntf    fn416094   5.353   0.777   4.895 -0.1500 -0.5655  0.3253
 1883ntf    fn416095   5.328   0.588   4.986  0.4989 -0.1045 -0.4481
 1884ntf    cn116096   5.111   3.939   3.480 -0.2508 -0.1505  0.2922
 1884ntf    sn216097   5.265   3.950   3.384 -0.4210  0.2140  0.0580
 1884ntf    nn316098   5.358   3.936   3.509  0.1909  0.2229 -0.3927
 1884ntf    sn216099   5.499   3.997   3.543  0.2497 -0.1750  0.0909
 1884ntf    cn116100   5.583   3.854   3.619  0.1245 -0.1483  0.2776
 1884ntf    fn416101   5.110   3.817   3.531  0.5064 -0.3545 -0.1687
 1884ntf    fn416102   5.092   4.030   3.575 -0.2417 -0.4168  0.5528
 1884ntf    fn416103   5.000   3.945   3.409 -0.2042  0.3479  0.2567
 1884ntf    on516104   5.256   3.836   3.295 -0.0004 -0.4501  0.8495
 1884ntf    on516105   5.274   4.079   3.321 -0.0199  0.0525 -0.2229
 1884ntf    on516106   5.502   4.090   3.653  0.2200 -0.1456  0.0667
 1884ntf    on516107   5.586   4.031   3.433  0.3390  0.1660  0.2659
 1884ntf    fn416108   5.630   3.764   3.535 -0.7363 -0.3304 -0.0166
 1884ntf    fn416109   5.681   3.900   3.696  0.3689 -0.1589 -0.0278
 1884ntf    fn416110   5.501   3.790   3.700  0.1468  0.0725  0.4775
 1885ntf    cn116111   0.582   1.190   1.853  0.3630 -0.0663  0.2087
 1885ntf    sn216112   0.525   1.108   1.701  0.2676  0.3870 -0.0025
 1885ntf    nn316113   0.442   0.996   1.773  0.5150 -0.1539 -0.5568
 1885ntf    sn216114   0.478   0.853   1.829  0.0246 -0.1929 -0.3374
 1885ntf    cn116115   0.309   0.788   1.843  0.1063 -0.3888 -0.2684
 1885ntf    fn416116   0.663   1.106   1.915  0.5777 -0.3736 -0.4770
 1885ntf    fn416117   0.652   1.298   1.822 -0.6153  0.4683 -0.2175
 1885ntf    fn416118   0.483   1.218   1.936  0.2322  0.4158 -0.1035
 1885ntf    on516119   0.432   1.194   1.631 -0.7446 -0.8432 -0.2144
 1885ntf    on516120   0.649   1.075   1.636  0.2658 -0.3041  0.3352
 1885ntf    on516121   0.535   0.850   1.961  0.1647  0.0453 -0.3916
 1885ntf    on516122   0.537   0.759   1.737  0.6629 -0.1941  0.0688
 1885ntf    fn416123   0.305   0.672   1.907  0.0413  0.2237  0.8692
 1885ntf    fn416124   0.235   0.870   1.916  0.0397 -0.0209 -0.7486
 1885ntf    fn416125   0.246   0.777   1.727  0.0227  0.4212 -0.3024
 1886ntf    cn116126   2.716   0.146   5.006  0.4330  0.4222  0.2475
 1886ntf    sn216127   2.761   0.168   5.181  0.1605  0.2901  0.3349
 1886ntf    nn316128   2.863   0.050   5.198  0.1595  0.2211 -0.1306
 1886ntf    sn216129   3.020   0.056   5.191  0.1713 -0.0383 -0.0888
 1886ntf    cn116130   3.075   0.066   5.364 -0.0574  0.1153 -0.0240
 1886ntf    fn416131   2.616   0.223   4.967  0.1386  0.0880  0.3274
 1886ntf    fn416132   2.815   0.170   4.922  0.2137  0.2786 -0.0513
 1886ntf    fn416133   2.688   0.020   4.977 -0.0122  0.3681  0.8921
 1886ntf    on516134   2.819   0.299   5.197  0.5441  0.0849  0.6393
 1886ntf    on516135   2.631   0.144   5.237  0.2161 -0.3439  0.1947
 1886ntf    on516136   3.089   0.169   5.134  0.1726  0.1314  0.2468
 1886ntf    on516137   3.075  -0.073   5.159  0.5663  0.1596 -0.2188
 1886ntf    fn416138   2.995   0.139   5.439 -0.7777 -0.6088 -0.0784
 1886ntf    fn416139   3.068  -0.053   5.420  0.4065 -0.0581 -0.3269
 1886ntf    fn416140   3.189   0.132   5.379 -0.0320  0.2285 -0.6647
 1887ntf    cn116141   0.973   1.509   3.670 -0.7809  0.4394  0.2835
 1887ntf    sn216142   0.945   1.383   3.799  0.0185 -0.0538 -0.0198
 1887ntf    nn316143   0.864   1.280   3.713 -0.4210  0.2270  0.0530
 1887ntf    sn216144   0.758   1.175   3.762  0.0209 -0.1232  0.2698
 1887ntf    cn116145   0.866   1.036   3.806  0.1240 -0.3457 -0.6620
 1887ntf    fn416146   1.013   1.621   3.729 -0.0447  0.5257 -0.3650
 1887ntf    fn416147   1.071   1.474   3.588 -0.6988 -0.1853  0.6356
 1887ntf    fn416148   0.871   1.533   3.590 -0.1074  0.6618 -0.5230
 1887ntf    on516149   1.078   1.340   3.836  0.4210  0.8818 -0.3255
 1887ntf    on516150   0.872   1.464   3.894  0.3437  0.3142 -0.0778
 1887ntf    on516151   0.674   1.121   3.658  0.0572  0.7676 -0.2310
 1887ntf    on516152   0.691   1.215   3.883  0.8490  0.5368  0.5269
 1887ntf    fn416153   0.818   0.920   3.766 -0.3238 -0.4389  0.1181
 1887ntf    fn416154   0.985   1.050   3.749  0.1194  0.6109 -0.4498
 1887ntf    fn416155   0.885   1.028   3.937 -0.5518  0.4981 -0.5055
 1888ntf    cn116156   2.196   3.328   4.165 -0.2037 -0.0798  0.1632
 1888ntf    sn216157   2.252   3.364   3.996 -0.1142 -0.3585  0.1318
 1888ntf    nn316158   2.357   3.248   3.989  0.3058 -0.0043  0.5567
 1888ntf    sn216159   2.511   3.244   4.021  0.3405  0.0203  0.3917
 1888ntf    cn116160   2.501   3.111   4.145  0.0407 -0.0139  0.3321
 1888ntf    fn416161   2.158   3.202   4.179 -0.2294 -0.1213 -0.2686
 1888ntf    fn416162   2.288   3.351   4.258 -0.2180 -0.1964  0.2073
 1888ntf    fn416163   2.093   3.406   4.192  0.2931  0.3935  0.7083
 1888ntf    on516164   2.138   3.340   3.911  0.3602 -0.5720 -0.4533
 1888ntf    on516165   2.301   3.498   4.013  0.2502 -0.4133 -0.4894
 1888ntf    on516166   2.561   3.355   4.098 -0.0538  0.5070 -0.0429
 1888ntf    on516167   2.589   3.188   3.913 -0.7763  0.0531 -0.4469
 1888ntf    fn416168   2.407   3.137   4.234 -0.0961  0.2608  0.1080
 1888ntf    fn416169   2.473   2.995   4.090 -0.0148  0.1993 -0.0949
 1888ntf    fn416170   2.612   3.097   4.216  0.2372 -0.0109  0.0292
 1889ntf    cn116171   3.286   0.919   5.126 -0.0123  0.3032  0.0337
 1889ntf    sn216172   3.338   1.082   5.187  0.0914  0.1287  0.4174
 1889ntf    nn316173   3.292   1.180   5.074 -0.2040 -0.2574  0.1992
 1889ntf    sn216174   3.281   1.335   5.098 -0.0215 -0.2112 -0.0004
 1889ntf    cn116175   3.323   1.391   4.931 -0.2530 -0.2020 -0.0554
 1889ntf    fn416176   3.360   0.896   5.019  0.3535 -0.2170  0.3887
 1889ntf    fn416177   3.316   0.819   5.208  0.8587  0.4696 -0.0671
 1889ntf    fn416178   3.157   0.903   5.100 -0.0089  0.4891 -0.0965
 1889ntf    on516179   3.261   1.101   5.308 -0.5737 -0.2347  0.0577
 1889ntf    on516180   3.481   1.078   5.201  0.1610  1.3252  0.1230
 1889ntf    on516181   3.378   1.393   5.188  0.3792 -0.2954 -0.3770
 1889ntf    on516182   3.146   1.381   5.120  0.2898  0.5714  0.3211
 1889ntf    fn416183   3.420   1.311   4.892 -0.1153  0.0417 -0.2130
 1889ntf    fn416184   3.228   1.381   4.838  0.0413 -0.3258 -0.3438
 1889ntf    fn416185   3.368   1.515   4.918  0.7259 -0.5629 -0.1757
 1890ntf    cn116186   2.568   6.812   2.588 -0.2141  0.0487  0.2283
 1890ntf    sn216187   2.505   6.642   2.576  0.1296 -0.0558 -0.1399
 1890ntf    nn316188   2.498   6.589   2.724  0.3936  0.6503  0.1272
 1890ntf    sn216189   2.596   6.498   2.806  0.2459  0.3099 -0.0754
 1890ntf    cn116190   2.680   6.627   2.901  0.3633 -0.0384  0.2950
 1890ntf    fn416191   2.588   6.868   2.470  0.3684 -0.1865  0.2156
 1890ntf    fn416192   2.490   6.887   2.664 -0.5960 -0.3472  0.2344
 1890ntf    fn416193   2.689   6.814   2.639  0.0150 -0.0114 -0.3074
 1890ntf    on516194   2.373   6.668   2.523 -0.1185  0.2796  0.6275
 1890ntf    on516195   2.602   6.578   2.491  0.1354 -0.1900 -0.0335
 1890ntf    on516196   2.698   6.432   2.727 -0.4313  0.0316 -0.7359
 1890ntf    on516197   2.518   6.414   2.894  0.4626  0.1411 -0.0433
 1890ntf    fn416198   2.768   6.707   2.844 -0.0727  0.0052 -0.3191
 1890ntf    fn416199   2.584   6.703   2.951  0.5612  0.2980  0.1668
 1890ntf    fn416200   2.744   6.579   3.007  0.2993 -0.1797  0.2704
   6.83744   6.83744   6.83744
