Converted from moscito
19440
    1SOL     ow    1   3.182   2.248   5.969  0.0989  0.3305 -0.2144
    1SOL     hw    2   3.242   2.187   6.012  0.6282  0.7495 -0.3523
    1SOL     hw    3   3.097   2.202   5.969  0.1668  0.1697  0.9452
    1SOL     vw    4   3.178   2.234   5.975  0.1777  0.3645 -0.0796
    2SOL     ow    5   1.422   3.188   5.152  0.2576  0.0543  0.1726
    2SOL     hw    6   1.512   3.157   5.160 -0.4499 -1.7038  2.2622
    2SOL     hw    7   1.386   3.138   5.079  0.4650 -0.5957  0.5098
    2SOL     vw    8   1.429   3.178   5.143  0.1916 -0.2633  0.4928
    3SOL     ow    9   4.698   6.373   5.593 -0.4505  0.0542  0.2473
    3SOL     hw   10   4.677   6.325   5.673  0.1940 -0.2053  0.2681
    3SOL     hw   11   4.657   6.322   5.523  0.7295 -0.8726  0.2076
    3SOL     vw   12   4.690   6.360   5.594 -0.2096 -0.1023  0.2449
    4SOL     ow   13   5.037   2.676   2.144  0.3650  0.1716 -0.5702
    4SOL     hw   14   5.088   2.599   2.120 -0.4230 -0.0172 -1.6877
    4SOL     hw   15   5.045   2.734   2.069 -0.0950  0.6477 -0.2551
    4SOL     vw   16   5.045   2.674   2.131  0.2003  0.2095 -0.6760
    5SOL     ow   17   2.330   0.012   5.484 -0.0369  0.3629 -1.1451
    5SOL     hw   18   2.420   0.043   5.471 -0.5716  2.2134 -0.7535
    5SOL     hw   19   2.277   0.091   5.478 -1.3033 -0.0825  2.3977
    5SOL     vw   20   2.335   0.027   5.481 -0.2745  0.5484 -0.6263
    6SOL     ow   21   1.769   4.696   6.120 -0.4853  0.5386  0.1255
    6SOL     hw   22   1.818   4.634   6.066 -0.3684  0.6501  0.0997
    6SOL     hw   23   1.764   4.655   6.206  1.6442  1.4793  0.7831
    6SOL     vw   24   1.775   4.683   6.124 -0.1889  0.6773  0.2086
    7SOL     ow   25   1.111   6.400   1.805 -0.1492 -0.4683  0.7127
    7SOL     hw   26   1.125   6.417   1.712  0.1985  1.6281  1.0884
    7SOL     hw   27   1.194   6.365   1.836  0.0842 -0.1763  0.4286
    7SOL     vw   28   1.123   6.398   1.797 -0.0725 -0.1533  0.7248
    8SOL     ow   29   3.785   5.530   4.984 -0.1506 -0.2143 -0.3737
    8SOL     hw   30   3.788   5.446   5.031 -1.2138  0.2557  0.5611
    8SOL     hw   31   3.863   5.528   4.928 -0.1052 -1.7838 -0.3032
    8SOL     vw   32   3.796   5.519   4.983 -0.2850 -0.3591 -0.2413
    9SOL     ow   33   6.918   1.051   6.499  0.0684  0.3921  0.2809
    9SOL     hw   34   6.895   0.979   6.440  1.5523 -0.9656  1.2406
    9SOL     hw   35   6.839   1.067   6.550 -0.9551  0.9804 -1.4299
    9SOL     vw   36   6.905   1.043   6.498  0.1292  0.2906  0.1817
   10SOL     ow   37   6.020   5.777   6.020 -0.1031  0.3953  0.7546
   10SOL     hw   38   6.062   5.695   6.048  1.7485  1.4785  1.3350
   10SOL     hw   39   5.967   5.803   6.095  0.6965  0.6058  1.2573
   10SOL     vw   40   6.018   5.769   6.034  0.2465  0.5658  0.8976
   11SOL     ow   41   1.176   4.663   2.745  0.1381 -0.3929 -0.1891
   11SOL     hw   42   1.167   4.657   2.650  0.5418  0.1446 -0.2620
   11SOL     hw   43   1.087   4.646   2.778 -0.0864 -0.1854 -0.6769
   11SOL     vw   44   1.163   4.660   2.737  0.1617 -0.2947 -0.2631
   12SOL     ow   45   6.687   3.943   2.666 -0.7329  0.2422 -0.3546
   12SOL     hw   46   6.638   3.975   2.742 -1.1171  0.4660 -0.6967
   12SOL     hw   47   6.753   4.011   2.651  1.2314 -1.1125  1.5249
   12SOL     vw   48   6.689   3.956   2.674 -0.5240  0.0930 -0.1519
   13SOL     ow   49   5.879   0.765   0.886  0.2786  0.1964  0.3468
   13SOL     hw   50   5.896   0.707   0.960  2.3105  1.8097  1.2803
   13SOL     hw   51   5.956   0.822   0.882 -0.6948  1.5211 -1.7429
   13SOL     vw   52   5.891   0.765   0.895  0.4184  0.5840  0.1943
   14SOL     ow   53   4.020   2.314   3.840 -0.1394  0.4062  0.4201
   14SOL     hw   54   3.996   2.406   3.841  0.6920  0.6368  1.6441
   14SOL     hw   55   4.010   2.286   3.931  0.5133 -0.4715  0.2324
   14SOL     vw   56   4.015   2.322   3.852  0.0563  0.3207  0.5568
   15SOL     ow   57   4.845   5.133   0.396  0.7758 -0.8943 -0.1552
   15SOL     hw   58   4.872   5.083   0.474 -0.0713  1.5937  1.8605
   15SOL     hw   59   4.928   5.164   0.358  1.1803 -1.7684 -0.0232
   15SOL     vw   60   4.860   5.130   0.402  0.7176 -0.6814  0.1281
   16SOL     ow   61   6.770   3.903   6.371  0.2899 -1.0283 -0.6700
   16SOL     hw   62   6.687   3.920   6.326 -0.3107 -0.6783  0.5198
   16SOL     hw   63   6.836   3.951   6.320 -0.8579  2.2378  0.6607
   16SOL     vw   64   6.768   3.911   6.358  0.0594 -0.5512 -0.3374
   17SOL     ow   65   5.428   2.934   1.593  0.8317  0.6313  0.1588
   17SOL     hw   66   5.499   2.977   1.545  2.6650 -1.3355  0.9240
   17SOL     hw   67   5.445   2.956   1.685  0.3090  0.3561  0.3233
   17SOL     vw   68   5.440   2.943   1.599  1.0045  0.3356  0.2815
   18SOL     ow   69   5.916   2.271   5.079 -0.0155  1.0961  0.5335
   18SOL     hw   70   5.823   2.253   5.096  0.5320 -0.7579  1.9674
   18SOL     hw   71   5.959   2.186   5.089  1.8158  1.8527 -0.4083
   18SOL     vw   72   5.909   2.257   5.083  0.2985  0.9512  0.5987
   19SOL     ow   73   4.600   5.680   2.319 -0.1871  0.3761 -0.1566
   19SOL     hw   74   4.662   5.669   2.390 -0.1081 -0.6681 -0.3777
   19SOL     hw   75   4.576   5.591   2.293 -2.7414  0.7367  0.7457
   19SOL     vw   76   4.605   5.667   2.325 -0.5136  0.2859 -0.0666
   20SOL     ow   77   3.887   4.449   1.600  0.3151 -0.1594  0.2872
   20SOL     hw   78   3.854   4.529   1.560  1.6066 -0.4178 -1.4025
   20SOL     hw   79   3.898   4.470   1.692 -0.0982  1.3595  0.0049
   20SOL     vw   80   3.884   4.462   1.606  0.4309  0.0069  0.0271
   21SOL     ow   81   4.168   3.838   6.116  0.2119 -0.1735  0.2706
   21SOL     hw   82   4.195   3.820   6.025 -0.3036  2.9797 -0.6281
   21SOL     hw   83   4.107   3.767   6.137  0.6961 -1.2584 -1.6679
   21SOL     vw   84   4.164   3.826   6.107  0.2079  0.0995 -0.1035
   22SOL     ow   85   4.572   1.614   0.597  0.6994 -0.5366 -0.3924
   22SOL     hw   86   4.483   1.634   0.566 -0.2390 -3.5147  0.0251
   22SOL     hw   87   4.603   1.697   0.634 -2.3770  0.3737  0.5129
   22SOL     vw   88   4.564   1.628   0.598  0.1698 -0.8094 -0.2178
   23SOL     ow   89   2.210   3.414   6.674  0.0300  0.0516  0.4110
   23SOL     hw   90   2.204   3.389   6.582 -0.9728 -0.4943  0.6120
   23SOL     hw   91   2.129   3.461   6.691  0.5178  0.7418  0.8461
   23SOL     vw   92   2.198   3.417   6.664 -0.0380  0.0706  0.4952
   24SOL     ow   93   0.849   5.189   5.637  0.2802 -0.3035  0.7509
   24SOL     hw   94   0.793   5.120   5.603 -2.3858  1.2617  1.6613
   24SOL     hw   95   0.803   5.223   5.714  2.4362  1.2109  1.5055
   24SOL     vw   96   0.836   5.184   5.643  0.2128  0.1030  0.9706
   25SOL     ow   97   0.827   5.939   3.629 -0.1460 -0.5407 -0.2274
   25SOL     hw   98   0.909   5.985   3.610  1.3966 -2.5866  1.0451
   25SOL     hw   99   0.798   5.976   3.712  0.1353 -0.6368 -0.0852
   25SOL     vw  100   0.834   5.950   3.637  0.0946 -0.8235 -0.0407
   26SOL     ow  101   1.071   0.740   4.749 -0.2991 -0.3365 -0.6676
   26SOL     hw  102   1.131   0.815   4.756  1.5637 -1.7770 -0.5955
   26SOL     hw  103   0.984   0.780   4.742  0.7087  1.8558 -1.5967
   26SOL     vw  104   1.068   0.755   4.749  0.0797 -0.2373 -0.7808
   27SOL     ow  105   5.856   3.864   3.503 -0.8782  0.4451 -0.1820
   27SOL     hw  106   5.776   3.848   3.552 -1.0690 -0.6230 -0.7898
   27SOL     hw  107   5.922   3.811   3.547 -1.1872 -1.0205 -1.3721
   27SOL     vw  108   5.854   3.855   3.515 -0.9444  0.1107 -0.4191
   28SOL     ow  109   3.012   3.626   2.984 -0.3739 -0.0919 -0.6298
   28SOL     hw  110   3.099   3.663   2.969 -0.3083  1.0444  2.0459
   28SOL     hw  111   2.952   3.695   2.957 -0.3848 -0.0163 -0.4132
   28SOL     vw  112   3.015   3.640   2.978 -0.3666  0.0681 -0.2483
   29SOL     ow  113   2.121   6.341   3.688 -0.6162  0.0247 -0.2704
   29SOL     hw  114   2.064   6.296   3.750  0.9723 -0.5475  0.8321
   29SOL     hw  115   2.117   6.433   3.715  2.5310 -0.5640  2.9319
   29SOL     vw  116   2.113   6.348   3.700  0.0087 -0.1285  0.2975
   30SOL     ow  117   4.942   3.319   5.984 -0.1741  0.1466  0.1517
   30SOL     hw  118   4.979   3.331   5.897 -1.5418  0.8309 -0.3649
   30SOL     hw  119   5.012   3.345   6.044  0.8141 -0.4255 -0.7256
   30SOL     vw  120   4.956   3.324   5.980 -0.2241  0.1614 -0.0324
   31SOL     ow  121   6.584   6.362   4.136 -0.6717 -0.2349 -0.1317
   31SOL     hw  122   6.591   6.295   4.203  2.1892  0.6681  0.5819
   31SOL     hw  123   6.639   6.434   4.167 -0.6929  0.9630 -2.6047
   31SOL     vw  124   6.592   6.363   4.149 -0.2968  0.0422 -0.3638
   32SOL     ow  125   0.611   2.556   3.929 -0.1876 -0.1576 -0.7059
   32SOL     hw  126   0.684   2.565   3.868 -0.2331 -0.3778 -0.7947
   32SOL     hw  127   0.648   2.577   4.014 -0.2834  0.8283 -0.8941
   32SOL     vw  128   0.626   2.560   3.932 -0.2062 -0.0565 -0.7424
   33SOL     ow  129   0.364   2.686   0.520 -0.0630 -0.0521  0.1326
   33SOL     hw  130   0.282   2.640   0.538 -0.6723  1.6249  1.9348
   33SOL     hw  131   0.338   2.764   0.472  0.3921  0.8141  1.2695
   33SOL     vw  132   0.350   2.690   0.516 -0.0833  0.2834  0.5203
   34SOL     ow  133   2.144   4.328   5.558  0.1243 -0.9567 -0.3527
   34SOL     hw  134   2.213   4.275   5.598  1.0577  1.1387  1.0268
   34SOL     hw  135   2.173   4.339   5.467  1.3219 -0.6428  0.0390
   34SOL     vw  136   2.157   4.322   5.551  0.4054 -0.6387 -0.1190
   35SOL     ow  137   6.114   4.014   6.525 -0.3961 -0.1358 -0.2222
   35SOL     hw  138   6.103   4.077   6.596  1.2872  0.7280 -0.6906
   35SOL     hw  139   6.153   3.937   6.568 -1.2226 -0.3884  0.1078
   35SOL     vw  140   6.118   4.012   6.540 -0.2828 -0.0553 -0.2406
   36SOL     ow  141   4.556   1.674   2.056  0.0693 -0.2233 -0.0637
   36SOL     hw  142   4.601   1.604   2.104 -1.0291  1.2284  3.4419
   36SOL     hw  143   4.605   1.753   2.077 -1.4485  0.7178  0.0994
   36SOL     vw  144   4.568   1.675   2.065 -0.2761  0.0924  0.4201
   37SOL     ow  145   6.489   5.975   1.738 -0.3556 -0.5400 -0.3822
   37SOL     hw  146   6.543   6.051   1.761 -0.4249 -0.4728 -0.4427
   37SOL     hw  147   6.400   6.009   1.736 -0.3984 -0.6476 -0.3031
   37SOL     vw  148   6.485   5.990   1.741 -0.3705 -0.5455 -0.3797
   38SOL     ow  149   1.523   1.938   4.293  0.6514  0.4062  0.1525
   38SOL     hw  150   1.435   1.926   4.258  1.4287 -0.4091 -1.6335
   38SOL     hw  151   1.547   1.853   4.329  1.1036  0.3043 -0.3659
   38SOL     vw  152   1.515   1.926   4.293  0.8136  0.2853 -0.1516
   39SOL     ow  153   4.193   4.394   3.181  0.4662  0.0499 -0.0889
   39SOL     hw  154   4.120   4.363   3.128  1.2906  1.0189 -1.8801
   39SOL     hw  155   4.265   4.334   3.162  0.2119 -0.8365  1.5801
   39SOL     vw  156   4.193   4.382   3.172  0.5414  0.0606 -0.1051
   40SOL     ow  157   5.355   6.415   3.395  0.7126 -0.1926  0.1977
   40SOL     hw  158   5.310   6.431   3.477  0.2475  0.2798 -0.1440
   40SOL     hw  159   5.446   6.400   3.420  0.9066  1.5397  0.6854
   40SOL     vw  160   5.361   6.415   3.409  0.6769  0.0982  0.2168
   41SOL     ow  161   3.871   4.963   0.086  0.6651  0.4984  0.0105
   41SOL     hw  162   3.805   5.001   0.028  0.6426 -1.9134 -1.7134
   41SOL     hw  163   3.862   5.011   0.168 -4.1294 -0.4988  0.3301
   41SOL     vw  164   3.861   4.974   0.089  0.0296  0.0486 -0.1748
   42SOL     ow  165   4.815   2.182   1.329 -0.2327  0.2814  0.1619
   42SOL     hw  166   4.784   2.252   1.387 -0.2261 -1.0609  1.8539
   42SOL     hw  167   4.735   2.148   1.289 -0.2074  1.4313 -0.9299
   42SOL     vw  168   4.800   2.187   1.332 -0.2284  0.2562  0.2411
   43SOL     ow  169   5.246   0.724   0.403 -0.1807 -0.5971  0.1399
   43SOL     hw  170   5.259   0.630   0.415 -0.1022 -0.4134  1.7440
   43SOL     hw  171   5.183   0.748   0.472 -1.3925  0.2728 -1.2002
   43SOL     vw  172   5.239   0.715   0.414 -0.3297 -0.4581  0.1747
   44SOL     ow  173   6.007   5.877   4.722 -0.1779 -0.2331 -0.4932
   44SOL     hw  174   6.077   5.939   4.745  0.0584  0.4789 -2.8634
   44SOL     hw  175   5.939   5.931   4.682 -1.3359 -1.1522  0.1671
   44SOL     vw  176   6.007   5.892   4.720 -0.2992 -0.2606 -0.7188
   45SOL     ow  177   0.389   5.312   3.254 -0.3781  0.4898  0.2437
   45SOL     hw  178   0.481   5.334   3.240 -0.6553  0.4060 -2.0541
   45SOL     hw  179   0.386   5.282   3.345  1.6382  1.5124  0.7257
   45SOL     vw  180   0.401   5.311   3.264 -0.1486  0.6135  0.0042
   46SOL     ow  181   2.166   3.439   5.157  0.8340 -0.3384 -0.0864
   46SOL     hw  182   2.244   3.473   5.200 -0.0138  0.4467  0.8829
   46SOL     hw  183   2.106   3.513   5.153 -0.2181 -1.1534  0.0503
   46SOL     vw  184   2.169   3.453   5.162  0.5832 -0.3424  0.0596
   47SOL     ow  185   4.252   1.596   4.438  0.4044 -0.1774 -0.0506
   47SOL     hw  186   4.259   1.626   4.348  0.3387  0.2778  0.0931
   47SOL     hw  187   4.171   1.636   4.470  0.1647 -0.7429  0.0577
   47SOL     vw  188   4.243   1.605   4.430  0.3643 -0.1920 -0.0174
   48SOL     ow  189   0.111   3.247   1.124  0.3902  0.7872 -0.0495
   48SOL     hw  190   0.035   3.224   1.177  0.2835  1.7259  0.2261
   48SOL     hw  191   0.158   3.164   1.111 -1.6147 -0.1726 -1.7566
   48SOL     vw  192   0.108   3.233   1.129  0.1116  0.7844 -0.2384
   49SOL     ow  193   3.718   0.478   0.219 -0.2294  0.5584 -0.3511
   49SOL     hw  194   3.804   0.440   0.200 -0.0946  1.0248 -0.6626
   49SOL     hw  195   3.672   0.409   0.268 -0.8523 -0.9727 -2.9315
   49SOL     vw  196   3.723   0.464   0.223 -0.2937  0.4179 -0.7327
   50SOL     ow  197   5.620   1.620   6.668  0.2398  0.3186  0.4292
   50SOL     hw  198   5.552   1.630   6.734 -0.4738  0.7511 -0.3449
   50SOL     hw  199   5.572   1.620   6.585  1.0938 -0.4373 -0.0786
   50SOL     vw  200   5.605   1.621   6.666  0.2584  0.2760  0.2601
   51SOL     ow  201   0.950   1.835   4.855  0.3162  0.0059 -0.0035
   51SOL     hw  202   0.935   1.895   4.928 -1.8062 -0.7957  0.2773
   51SOL     hw  203   0.933   1.887   4.777 -0.4868  0.0514  0.1970
   51SOL     vw  204   0.946   1.850   4.854 -0.0698 -0.0939  0.0598
   52SOL     ow  205   2.310   0.697   6.842 -0.3179  0.3792 -0.3336
   52SOL     hw  206   2.396   0.696   6.800 -0.1400  0.9735  0.0091
   52SOL     hw  207   2.293   0.605   6.863  0.3310  0.2808 -0.2136
   52SOL     vw  208   2.319   0.685   6.840 -0.2089  0.4447 -0.2725
   53SOL     ow  209   4.738   6.655   5.592 -0.1309 -0.0351  0.2852
   53SOL     hw  210   4.726   6.561   5.606 -1.4252 -0.0140 -0.4942
   53SOL     hw  211   4.653   6.685   5.560  0.5673  1.2053 -0.4831
   53SOL     vw  212   4.726   6.646   5.590 -0.2096  0.1314  0.0808
   54SOL     ow  213   1.215   3.504   3.542 -0.4412  0.4463 -0.1240
   54SOL     hw  214   1.226   3.441   3.613  0.1903  0.8730  0.1676
   54SOL     hw  215   1.128   3.486   3.507 -0.3111 -0.5158  0.0252
   54SOL     vw  216   1.205   3.493   3.547 -0.3407  0.3756 -0.0659
   55SOL     ow  217   4.456   3.045   0.157 -0.0140 -0.6833  0.0178
   55SOL     hw  218   4.496   2.986   0.221  0.1572 -0.2097  0.3548
   55SOL     hw  219   4.410   3.111   0.210  1.8437  0.9343 -0.2391
   55SOL     vw  220   4.456   3.046   0.172  0.2537 -0.4075  0.0283
   56SOL     ow  221   2.146   5.470   4.729 -0.5304 -0.2017  0.1198
   56SOL     hw  222   2.076   5.406   4.720 -1.4509  0.7652  0.2742
   56SOL     hw  223   2.103   5.555   4.719  0.5830  0.4171  0.4044
   56SOL     vw  224   2.131   5.473   4.726 -0.5050  0.0076  0.1776
   57SOL     ow  225   5.310   0.731   0.081  0.0798 -0.5403 -0.0089
   57SOL     hw  226   5.300   0.656   0.022 -0.6285 -0.5967  0.1708
   57SOL     hw  227   5.384   0.780   0.046  0.0449 -0.8962 -0.5910
   57SOL     vw  228   5.318   0.727   0.069 -0.0181 -0.5947 -0.0620
   58SOL     ow  229   0.556   6.620   3.558  0.0034  0.3072  0.3253
   58SOL     hw  230   0.528   6.704   3.520 -1.0634 -1.0113 -1.9888
   58SOL     hw  231   0.599   6.645   3.640 -2.6778  2.9140  1.1120
   58SOL     vw  232   0.558   6.635   3.563 -0.4911  0.4773  0.1239
   59SOL     ow  233   5.599   1.024   2.756 -0.0101  0.0738 -0.2286
   59SOL     hw  234   5.591   1.096   2.818 -1.9850 -0.6367  0.4103
   59SOL     hw  235   5.651   0.958   2.801  2.3614  1.2541 -1.0502
   59SOL     vw  236   5.605   1.025   2.770  0.0422  0.1358 -0.2526
   60SOL     ow  237   0.762   3.876   4.430  0.3286 -0.1407  0.0444
   60SOL     hw  238   0.813   3.861   4.509  0.4201 -2.5727 -0.3999
   60SOL     hw  239   0.799   3.956   4.392  4.1759 -1.9488 -0.4851
   60SOL     vw  240   0.773   3.885   4.436  0.8483 -0.7002 -0.0842
   61SOL     ow  241   4.439   6.740   3.679  0.3093  0.1719  0.0326
   61SOL     hw  242   4.470   6.744   3.588 -0.9547 -0.9432 -0.4698
   61SOL     hw  243   4.483   6.814   3.722  2.7975 -0.6888 -0.8806
   61SOL     vw  244   4.449   6.750   3.673  0.4709 -0.0889 -0.1540
   62SOL     ow  245   5.989   0.840   5.149  0.2138 -0.2234 -0.4781
   62SOL     hw  246   6.076   0.821   5.114  1.3682  1.7063  1.1493
   62SOL     hw  247   5.969   0.928   5.118 -0.8849 -0.4118 -0.3240
   62SOL     vw  248   5.998   0.849   5.141  0.2213  0.0063 -0.2432
   63SOL     ow  249   3.882   0.991   2.696 -0.7530 -0.5409  0.0877
   63SOL     hw  250   3.932   1.057   2.648 -2.8956  0.3159 -1.1400
   63SOL     hw  251   3.939   0.914   2.698  0.9145  0.6261 -0.4600
   63SOL     vw  252   3.896   0.990   2.690 -0.8155 -0.2738 -0.1466
   64SOL     ow  253   0.182   5.568   3.228 -0.5374 -0.0991 -0.4477
   64SOL     hw  254   0.156   5.629   3.296  0.8930  1.0644 -0.9030
   64SOL     hw  255   0.122   5.585   3.156 -0.4087  0.4947 -0.4186
   64SOL     vw  256   0.171   5.578   3.227 -0.3317  0.1323 -0.5040
   65SOL     ow  257   1.907   0.619   3.015  0.4836 -0.0144 -0.1906
   65SOL     hw  258   1.940   0.578   2.935 -0.7154  0.2421 -0.8489
   65SOL     hw  259   1.851   0.690   2.983 -1.0007 -0.6764  0.8483
   65SOL     vw  260   1.904   0.623   3.000  0.1295 -0.0679 -0.1404
   66SOL     ow  261   1.929   1.293   3.390 -0.1055 -1.3437  0.1896
   66SOL     hw  262   1.851   1.271   3.440 -0.7432 -1.5852 -0.8809
   66SOL     hw  263   1.958   1.377   3.426 -0.2746 -1.7252  1.2545
   66SOL     vw  264   1.923   1.301   3.401 -0.2120 -1.4259  0.1888
   67SOL     ow  265   4.721   6.243   5.847 -0.1620 -0.5654 -0.3050
   67SOL     hw  266   4.641   6.253   5.898  0.8761 -2.2744  1.8113
   67SOL     hw  267   4.770   6.324   5.864 -1.0960  0.1740 -1.0420
   67SOL     vw  268   4.717   6.255   5.856 -0.1485 -0.6938 -0.1233
   68SOL     ow  269   5.276   5.837   6.112 -0.0971  0.4315  0.2818
   68SOL     hw  270   5.236   5.779   6.047 -1.4945  1.0209  0.5700
   68SOL     hw  271   5.308   5.911   6.061 -0.4140  0.4879  0.1598
   68SOL     vw  272   5.275   5.839   6.097 -0.3233  0.5164  0.3037
   69SOL     ow  273   3.257   0.980   3.699  0.4557 -0.3868 -0.0711
   69SOL     hw  274   3.248   0.886   3.683 -0.5399 -0.4632  0.8405
   69SOL     hw  275   3.270   0.988   3.793  1.6460  0.3355 -0.2769
   69SOL     vw  276   3.258   0.969   3.709  0.4814 -0.3016  0.0219
   70SOL     ow  277   3.961   0.636   4.460  0.7596 -0.1690  0.7992
   70SOL     hw  278   3.990   0.556   4.417 -0.8671  0.4446 -1.5987
   70SOL     hw  279   3.987   0.706   4.401  0.2527  0.9164  1.8164
   70SOL     vw  280   3.969   0.634   4.447  0.4781  0.0551  0.6170
   71SOL     ow  281   4.644   5.654   6.477 -0.1062  0.1961 -0.2584
   71SOL     hw  282   4.695   5.657   6.558 -1.5021 -1.5423  0.7611
   71SOL     hw  283   4.706   5.680   6.408  1.1379  1.6207  1.3344
   71SOL     vw  284   4.659   5.657   6.478 -0.1259  0.1545  0.0861
   72SOL     ow  285   3.316   4.749   0.616 -0.5721 -0.2746 -0.2049
   72SOL     hw  286   3.267   4.679   0.573 -0.9977  0.1872 -0.4877
   72SOL     hw  287   3.248   4.807   0.652 -0.2816 -1.6664  2.8534
   72SOL     vw  288   3.300   4.748   0.615 -0.5900 -0.3972  0.1613
   73SOL     ow  289   1.106   5.267   4.483 -0.3010  0.0141 -0.0010
   73SOL     hw  290   1.059   5.326   4.424 -0.7407  0.9562  1.2440
   73SOL     hw  291   1.105   5.312   4.567  0.1207 -1.3976  0.7841
   73SOL     vw  292   1.100   5.281   4.486 -0.3034 -0.0479  0.2668
   74SOL     ow  293   3.769   3.395   0.547 -0.4665 -0.2166 -0.1408
   74SOL     hw  294   3.780   3.331   0.476  1.6778  0.6781 -0.7103
   74SOL     hw  295   3.716   3.465   0.508 -2.1676 -1.2370  0.2472
   74SOL     vw  296   3.764   3.396   0.532 -0.4079 -0.2332 -0.1648
   75SOL     ow  297   1.989   2.048   6.276  0.1829 -0.2698  0.4137
   75SOL     hw  298   1.949   2.109   6.213  0.8938  0.4280  0.6191
   75SOL     hw  299   1.916   1.995   6.308 -0.2311 -0.4731 -0.8140
   75SOL     vw  300   1.974   2.049   6.272  0.2220 -0.2046  0.2789
   76SOL     ow  301   3.848   3.418   0.827 -0.1613 -0.2637  0.0657
   76SOL     hw  302   3.842   3.333   0.871  0.0645  0.0210  0.6618
   76SOL     hw  303   3.770   3.466   0.856  1.1662  0.8001  2.0969
   76SOL     vw  304   3.837   3.414   0.837  0.0436 -0.0858  0.4123
   77SOL     ow  305   2.104   6.029   5.504  0.0320 -0.3814 -0.1419
   77SOL     hw  306   2.174   6.078   5.548 -1.5164  0.4824  1.4383
   77SOL     hw  307   2.147   5.991   5.427  2.1650  0.3623  0.6120
   77SOL     vw  308   2.119   6.030   5.499  0.1092 -0.1693  0.1659
   78SOL     ow  309   0.364   1.446   2.619  0.4755 -0.1011  0.0284
   78SOL     hw  310   0.278   1.489   2.617  0.5498  0.0300 -0.4150
   78SOL     hw  311   0.369   1.408   2.706 -0.9877 -2.0714 -0.6616
   78SOL     vw  312   0.353   1.447   2.630  0.2922 -0.3438 -0.1211
   79SOL     ow  313   6.501   1.447   5.554 -0.2473  0.0707  0.2554
   79SOL     hw  314   6.597   1.445   5.562 -0.3351  0.4265  1.6342
   79SOL     hw  315   6.470   1.447   5.644 -1.5400  0.6103 -0.1721
   79SOL     vw  316   6.510   1.447   5.567 -0.4294  0.1888  0.3808
   80SOL     ow  317   3.671   4.265   1.674  0.6267 -0.7028  0.0375
   80SOL     hw  318   3.744   4.317   1.642 -0.0151  2.1520  2.6954
   80SOL     hw  319   3.596   4.325   1.672 -0.6750 -2.1911  1.2268
   80SOL     vw  320   3.671   4.280   1.670  0.3703 -0.5226  0.5451
   81SOL     ow  321   2.702   5.290   0.848 -0.1545 -0.5283 -0.5395
   81SOL     hw  322   2.775   5.233   0.873 -0.2333  0.1273  1.2680
   81SOL     hw  323   2.743   5.371   0.819 -0.1291 -0.7508 -1.1574
   81SOL     vw  324   2.717   5.293   0.847 -0.1615 -0.4711 -0.3825
   82SOL     ow  325   1.744   2.917   1.098 -0.0518 -0.0412 -0.2796
   82SOL     hw  326   1.804   2.988   1.121 -0.1779 -0.2147  0.6552
   82SOL     hw  327   1.682   2.956   1.036  0.6207  0.3174 -0.7332
   82SOL     vw  328   1.744   2.932   1.093  0.0203 -0.0168 -0.2161
   83SOL     ow  329   5.658   1.891   6.649 -0.3703 -0.2632 -0.5607
   83SOL     hw  330   5.661   1.795   6.641  0.7142 -0.1549 -1.8865
   83SOL     hw  331   5.750   1.917   6.657 -0.7490  0.5462  2.1316
   83SOL     vw  332   5.671   1.882   6.649 -0.2770 -0.1422 -0.3805
   84SOL     ow  333   4.394   0.627   3.580 -0.0273  0.5004 -1.0577
   84SOL     hw  334   4.373   0.586   3.496  0.0735 -2.5833  0.2848
   84SOL     hw  335   4.326   0.596   3.640  1.5554  0.1241  0.6484
   84SOL     vw  336   4.383   0.617   3.577  0.1948  0.0439 -0.6555
   85SOL     ow  337   4.649   0.832   5.555  0.0425 -0.6384  0.0055
   85SOL     hw  338   4.602   0.904   5.596  1.4953 -0.4936  1.5209
   85SOL     hw  339   4.622   0.755   5.604  0.6721 -0.6907  0.2723
   85SOL     vw  340   4.639   0.831   5.567  0.3171 -0.6262  0.2408
   86SOL     ow  341   6.218   3.024   4.543 -0.0183 -0.2037  0.3402
   86SOL     hw  342   6.166   3.101   4.565 -1.8145 -1.4238  0.6495
   86SOL     hw  343   6.160   2.971   4.489  1.0039 -1.5283  0.4905
   86SOL     vw  344   6.203   3.027   4.539 -0.1204 -0.5394  0.4013
   87SOL     ow  345   6.508   5.286   2.495  0.2106 -0.4682  0.1727
   87SOL     hw  346   6.515   5.322   2.583 -1.1917 -2.0448  0.9781
   87SOL     hw  347   6.559   5.205   2.498 -1.6063 -1.6490  0.2158
   87SOL     vw  348   6.516   5.280   2.507 -0.2143 -0.8321  0.2846
   88SOL     ow  349   1.887   0.828   1.068 -0.1558 -1.1150  0.0705
   88SOL     hw  350   1.966   0.773   1.076 -0.1284 -1.1275 -0.2893
   88SOL     hw  351   1.917   0.905   1.020 -0.2127 -0.8133  0.5063
   88SOL     vw  352   1.902   0.831   1.063 -0.1597 -1.0769  0.0805
   89SOL     ow  353   4.412   0.887   1.488 -0.7077  0.1792 -0.0096
   89SOL     hw  354   4.503   0.904   1.464 -0.7665  1.8222  0.7892
   89SOL     hw  355   4.415   0.808   1.541  0.2630  0.2188  0.0031
   89SOL     vw  356   4.424   0.879   1.492 -0.5875  0.4011  0.0975
   90SOL     ow  357   2.736   1.668   6.922  0.2773  0.1020 -0.1683
   90SOL     hw  358   2.658   1.619   6.948  0.4525  0.5923  1.3861
   90SOL     hw  359   2.724   1.755   6.960  2.1431 -0.1874  1.2636
   90SOL     vw  360   2.724   1.673   6.930  0.5466  0.1286  0.2255
   91SOL     ow  361   3.393   1.868   4.810  0.3792  0.2903 -0.3801
   91SOL     hw  362   3.359   1.854   4.898 -1.6167  3.1785 -0.5368
   91SOL     hw  363   3.315   1.888   4.758  1.7795  1.4234 -2.1537
   91SOL     vw  364   3.378   1.869   4.814  0.3005  0.8209 -0.6349
   92SOL     ow  365   5.317   4.420   6.025 -0.0518 -0.7020  0.0485
   92SOL     hw  366   5.223   4.432   6.010 -0.2481 -1.0549  0.9338
   92SOL     hw  367   5.352   4.508   6.029 -0.5292 -0.5371  0.7903
   92SOL     vw  368   5.309   4.433   6.024 -0.1404 -0.7269  0.2635
   93SOL     ow  369   4.252   5.032   3.353  0.2886  0.3656 -0.8824
   93SOL     hw  370   4.278   5.022   3.261  0.0432  0.3401 -0.9493
   93SOL     hw  371   4.325   4.994   3.403  0.0160 -0.4502 -1.0885
   93SOL     vw  372   4.265   5.026   3.348  0.2203  0.2544 -0.9184
   94SOL     ow  373   0.439   0.112   0.184  0.3322  0.4035  0.3398
   94SOL     hw  374   0.361   0.167   0.193  0.0625 -0.0095  0.5315
   94SOL     hw  375   0.415   0.029   0.224  1.0638  0.4566  0.9157
   94SOL     vw  376   0.426   0.108   0.191  0.3931  0.3561  0.4411
   95SOL     ow  377   4.560   4.876   4.750  0.4337  0.0012 -0.2264
   95SOL     hw  378   4.589   4.825   4.826 -2.7656 -0.0614  1.1069
   95SOL     hw  379   4.634   4.873   4.689  1.9780 -2.5588  1.5890
   95SOL     vw  380   4.574   4.869   4.752  0.2155 -0.3445  0.1891
   96SOL     ow  381   3.609   4.603   0.603 -0.2923  0.4935 -0.1646
   96SOL     hw  382   3.636   4.526   0.552 -3.0394 -0.7713  0.0926
   96SOL     hw  383   3.623   4.578   0.694 -0.3945  0.6356 -0.1098
   96SOL     vw  384   3.614   4.589   0.608 -0.6683  0.3455 -0.1234
   97SOL     ow  385   4.598   3.354   2.584 -0.4266 -0.4411 -0.4318
   97SOL     hw  386   4.594   3.258   2.586 -0.6086 -0.4515  2.1224
   97SOL     hw  387   4.610   3.379   2.676 -1.0403  2.0217 -0.9599
   97SOL     vw  388   4.599   3.345   2.597 -0.5319 -0.1177 -0.1645
   98SOL     ow  389   2.860   3.169   5.039 -0.2851 -0.2487  0.2578
   98SOL     hw  390   2.876   3.109   5.112  0.5770  0.5502  0.7545
   98SOL     hw  391   2.812   3.117   4.975  2.3633 -2.1760 -0.3238
   98SOL     vw  392   2.856   3.154   5.040  0.1780 -0.3976  0.2465
   99SOL     ow  393   3.474   3.208   2.583 -0.3915 -0.6339  0.1041
   99SOL     hw  394   3.539   3.217   2.653 -0.3996 -2.7277  0.4474
   99SOL     hw  395   3.526   3.205   2.503  0.0963 -3.0046  0.4262
   99SOL     vw  396   3.490   3.209   2.582 -0.3282 -1.2230  0.1919
  100SOL     ow  397   5.834   2.928   0.242  0.5454  0.0758  0.2138
  100SOL     hw  398   5.809   2.987   0.313 -1.7245 -0.2660 -0.2116
  100SOL     hw  399   5.865   2.849   0.285 -0.5254 -0.0194  0.8494
  100SOL     vw  400   5.834   2.926   0.257  0.1049  0.0182  0.2415
  101SOL     ow  401   6.770   3.899   4.359  0.2522 -0.2105  0.7088
  101SOL     hw  402   6.857   3.861   4.368  0.1277 -0.7211 -0.1571
  101SOL     hw  403   6.713   3.824   4.339  0.3994  0.6097 -3.6680
  101SOL     vw  404   6.774   3.884   4.357  0.2553 -0.1696  0.0169
  102SOL     ow  405   0.051   6.045   2.969 -0.3398 -0.1426 -0.4044
  102SOL     hw  406   0.133   6.069   3.012  0.0466 -0.8497 -0.7185
  102SOL     hw  407   0.077   6.011   2.884 -0.8101 -1.7376  0.0331
  102SOL     vw  408   0.065   6.044   2.964 -0.3509 -0.4463 -0.3880
  103SOL     ow  409   5.647   6.593   2.197  0.1662  0.0033 -0.2364
  103SOL     hw  410   5.557   6.566   2.212 -0.9169  1.5514 -3.2171
  103SOL     hw  411   5.650   6.685   2.225  0.6629  0.1092 -0.6213
  103SOL     vw  412   5.636   6.602   2.203  0.0889  0.2217 -0.6804
  104SOL     ow  413   3.609   4.042   1.479  0.2654  0.3702 -0.3135
  104SOL     hw  414   3.612   3.958   1.433  1.2051  1.1804 -1.8314
  104SOL     hw  415   3.639   4.106   1.414 -2.4665  2.2350  0.0550
  104SOL     vw  416   3.613   4.040   1.464  0.0291  0.7231 -0.4651
  105SOL     ow  417   1.991   4.857   3.693 -0.3596  0.9715  0.1261
  105SOL     hw  418   2.047   4.894   3.761  0.2906  0.1940  0.0354
  105SOL     hw  419   1.902   4.877   3.721 -0.1947 -0.6495  2.0461
  105SOL     vw  420   1.987   4.864   3.706 -0.2520  0.6552  0.3673
  106SOL     ow  421   5.745   1.304   0.991 -0.1944 -0.2620 -0.0006
  106SOL     hw  422   5.657   1.342   0.993 -1.1246 -2.2543 -0.3962
  106SOL     hw  423   5.804   1.380   0.992 -1.9060  1.2541 -2.1923
  106SOL     vw  424   5.741   1.319   0.991 -0.5431 -0.3248 -0.3419
  107SOL     ow  425   6.469   5.695   4.873  0.2758  0.7095  0.3279
  107SOL     hw  426   6.548   5.641   4.877  0.4792  0.8896 -0.9094
  107SOL     hw  427   6.464   5.736   4.959 -0.4170 -1.9863  1.6684
  107SOL     vw  428   6.479   5.693   4.885  0.2115  0.3774  0.3414
  108SOL     ow  429   2.843   5.019   5.593  0.0502 -0.0168  0.1175
  108SOL     hw  430   2.807   4.935   5.621  2.3506 -0.2783  2.7763
  108SOL     hw  431   2.789   5.045   5.518 -0.9141 -3.7000 -0.6617
  108SOL     vw  432   2.831   5.011   5.587  0.2265 -0.5374  0.3655
  109SOL     ow  433   6.108   6.000   0.070 -0.5680 -0.0814 -0.1404
  109SOL     hw  434   6.121   6.064   0.140 -0.9868 -1.2366  1.0302
  109SOL     hw  435   6.195   5.965   0.052 -0.6467 -0.8415  0.8723
  109SOL     vw  436   6.121   6.004   0.077 -0.6332 -0.3345  0.1477
  110SOL     ow  437   2.069   2.768   3.935 -0.6131 -0.0737 -0.2085
  110SOL     hw  438   2.018   2.843   3.965 -2.9816 -0.5371 -2.6311
  110SOL     hw  439   2.036   2.695   3.987 -0.2889  0.1009  0.2485
  110SOL     vw  440   2.058   2.768   3.946 -0.8827 -0.1118 -0.4679
  111SOL     ow  441   1.563   3.015   0.099  0.2403  0.1391  0.2189
  111SOL     hw  442   1.548   2.921   0.088 -0.0661 -0.0448  1.9345
  111SOL     hw  443   1.476   3.054   0.092  0.3521  0.2894 -0.3704
  111SOL     vw  444   1.549   3.008   0.097  0.2146  0.1347  0.3675
  112SOL     ow  445   4.406   6.273   1.443  0.1344 -0.1821  0.1915
  112SOL     hw  446   4.458   6.328   1.501  0.1853  0.1394 -0.1507
  112SOL     hw  447   4.432   6.183   1.464 -0.0966 -0.0850  0.8927
  112SOL     vw  448   4.416   6.268   1.453  0.1104 -0.1268  0.2389
  113SOL     ow  449   0.629   1.521   3.923  0.3165  0.2453 -0.7510
  113SOL     hw  450   0.626   1.457   3.852  1.3923  1.0585 -1.5615
  113SOL     hw  451   0.585   1.598   3.889 -0.6943  0.0642  0.1063
  113SOL     vw  452   0.623   1.522   3.909  0.3251  0.3287 -0.7448
  114SOL     ow  453   6.482   1.874   0.254  0.3703  0.1360  0.2294
  114SOL     hw  454   6.506   1.916   0.336  0.0890 -0.6307  0.7200
  114SOL     hw  455   6.412   1.929   0.218  1.6967  1.4809 -0.4101
  114SOL     vw  456   6.476   1.887   0.260  0.5083  0.2123  0.2097
  115SOL     ow  457   4.487   5.066   4.985 -0.5481 -0.2385  0.2900
  115SOL     hw  458   4.578   5.094   4.976 -1.3926  2.7816  0.1977
  115SOL     hw  459   4.489   5.000   5.054  1.7390 -0.5463  0.0199
  115SOL     vw  460   4.499   5.061   4.993 -0.3576  0.1192  0.2420
  116SOL     ow  461   1.330   6.741   5.752  0.0757 -0.2542  0.2345
  116SOL     hw  462   1.309   6.648   5.746 -1.2887 -0.1437  2.3994
  116SOL     hw  463   1.393   6.747   5.824 -1.6749  0.6842  1.7759
  116SOL     vw  464   1.336   6.729   5.761 -0.3352 -0.1156  0.7234
  117SOL     ow  465   3.926   6.290   0.595  0.0822 -0.0825  0.4735
  117SOL     hw  466   3.861   6.232   0.635  0.3942 -2.2715 -1.9195
  117SOL     hw  467   4.009   6.242   0.602  1.2285  1.9500  2.0257
  117SOL     vw  468   3.928   6.276   0.601  0.2745 -0.1035  0.3626
  118SOL     ow  469   1.997   4.694   2.688 -0.4096  0.1429  0.2349
  118SOL     hw  470   2.062   4.730   2.748 -0.8775 -1.0703  1.5154
  118SOL     hw  471   1.959   4.620   2.735 -1.9053  0.1127 -0.9427
  118SOL     vw  472   2.000   4.689   2.702 -0.6688 -0.0212  0.2486
  119SOL     ow  473   5.943   3.986   2.636 -0.0358  0.2902  0.8412
  119SOL     hw  474   5.957   4.079   2.656  0.2828  0.4645 -0.1217
  119SOL     hw  475   5.860   3.964   2.679 -2.0513  2.0088 -1.8378
  119SOL     vw  476   5.934   3.995   2.644 -0.2599  0.5399  0.3607
  120SOL     ow  477   6.068   2.896   0.560 -0.2478  0.3253  0.0181
  120SOL     hw  478   6.090   2.833   0.492  0.1732  0.9827 -0.4624
  120SOL     hw  479   5.973   2.910   0.550 -0.4636 -0.6737  0.5242
  120SOL     vw  480   6.058   2.889   0.550 -0.2208  0.2803  0.0215
  121SOL     ow  481   4.162   1.194   3.509 -0.1833 -0.1058 -0.1518
  121SOL     hw  482   4.194   1.137   3.439  1.5949 -2.2944  2.2282
  121SOL     hw  483   4.078   1.156   3.534 -2.0349  2.0949 -2.4723
  121SOL     vw  484   4.155   1.181   3.503 -0.1931 -0.1042 -0.1439
  122SOL     ow  485   1.447   5.138   1.636 -0.2169  0.7022  0.3548
  122SOL     hw  486   1.453   5.189   1.556  1.6304  0.5801  0.3752
  122SOL     hw  487   1.393   5.062   1.612 -0.6076  1.2228 -0.4451
  122SOL     vw  488   1.441   5.135   1.622 -0.0247  0.7548  0.2520
  123SOL     ow  489   1.595   0.182   1.974  0.5813  0.1820  0.2500
  123SOL     hw  490   1.593   0.183   2.069 -0.1871  2.4759  0.2633
  123SOL     hw  491   1.588   0.274   1.948  1.3566 -0.3253 -2.0218
  123SOL     vw  492   1.594   0.194   1.983  0.5822  0.4177 -0.0480
  124SOL     ow  493   3.421   4.468   2.781  0.0930  0.1718 -0.0751
  124SOL     hw  494   3.422   4.553   2.736  0.4743 -1.1842 -2.9036
  124SOL     hw  495   3.513   4.448   2.797  0.1204 -0.3142 -0.7734
  124SOL     vw  496   3.433   4.477   2.777  0.1469 -0.0710 -0.5405
  125SOL     ow  497   6.745   4.090   5.316 -0.0499  0.1790  0.4543
  125SOL     hw  498   6.696   4.016   5.353  2.5137 -1.0238  1.7060
  125SOL     hw  499   6.712   4.167   5.362 -0.8846 -0.5536  1.1126
  125SOL     vw  500   6.734   4.090   5.327  0.1781 -0.0763  0.7060
  126SOL     ow  501   2.145   6.255   0.829  0.0441 -0.0195 -0.2814
  126SOL     hw  502   2.162   6.160   0.832  0.4138  0.0252  2.6591
  126SOL     hw  503   2.070   6.264   0.770  0.0863 -2.1239 -0.7549
  126SOL     vw  504   2.138   6.243   0.822  0.0985 -0.2913  0.0441
  127SOL     ow  505   5.454   3.824   1.560 -0.6451 -0.0793 -0.1194
  127SOL     hw  506   5.489   3.778   1.635 -0.8963 -0.4230 -0.2117
  127SOL     hw  507   5.441   3.914   1.590  0.2612  0.0459 -0.0689
  127SOL     vw  508   5.457   3.830   1.574 -0.5586 -0.1081 -0.1248
  128SOL     ow  509   1.048   1.544   4.929 -0.1966  0.2584 -0.0390
  128SOL     hw  510   1.035   1.478   4.997 -0.1677 -0.7755 -1.0170
  128SOL     hw  511   1.143   1.544   4.913  0.2940  2.7841  2.1172
  128SOL     vw  512   1.059   1.535   4.936 -0.1281  0.4552  0.1166
  129SOL     ow  513   2.736   5.054   4.142  0.0509 -0.2028  0.1181
  129SOL     hw  514   2.672   5.124   4.127  0.7201  0.3229 -0.3586
  129SOL     hw  515   2.757   5.059   4.235  1.2304  1.2621 -0.1884
  129SOL     vw  516   2.730   5.064   4.152  0.2948  0.0596  0.0150
  130SOL     ow  517   5.554   5.911   1.547  0.0118 -0.2844 -0.1362
  130SOL     hw  518   5.572   5.886   1.637 -0.4311  1.6925  0.5593
  130SOL     hw  519   5.627   5.875   1.496 -0.5597 -2.7998  0.7269
  130SOL     vw  520   5.566   5.903   1.552 -0.1218 -0.3555  0.0695
  131SOL     ow  521   3.938   0.877   1.199 -0.1098  0.5485 -0.8096
  131SOL     hw  522   3.867   0.930   1.235 -0.8587 -0.6828 -0.4063
  131SOL     hw  523   3.983   0.843   1.276 -0.7784 -0.8751 -1.0257
  131SOL     vw  524   3.935   0.880   1.214 -0.2968  0.1982 -0.7849
  132SOL     ow  525   5.531   0.885   6.481 -0.3127  0.5530  0.5174
  132SOL     hw  526   5.622   0.869   6.456 -0.0742  1.2417  0.9029
  132SOL     hw  527   5.495   0.938   6.409 -0.6671 -0.4357 -0.0461
  132SOL     vw  528   5.538   0.890   6.468 -0.3281  0.5134  0.4942
  133SOL     ow  529   0.765   4.444   6.617 -0.0755  0.6777 -1.1437
  133SOL     hw  530   0.677   4.407   6.624  0.2686 -0.0118 -0.1508
  133SOL     hw  531   0.755   4.535   6.643 -0.0755 -0.0599  1.7107
  133SOL     vw  532   0.752   4.451   6.621 -0.0301  0.4897 -0.6361
  134SOL     ow  533   1.254   6.239   0.623  0.0571  0.2279  0.3955
  134SOL     hw  534   1.272   6.331   0.642  1.8825  0.1753 -0.8165
  134SOL     hw  535   1.316   6.190   0.677 -1.5508 -0.3845  1.7734
  134SOL     vw  536   1.265   6.244   0.632  0.0858  0.1402  0.4174
  135SOL     ow  537   4.191   0.733   5.452  0.6385 -0.4033  0.0771
  135SOL     hw  538   4.235   0.702   5.531 -1.1146 -2.8475  0.2278
  135SOL     hw  539   4.142   0.810   5.481  1.8433  0.1359  0.7628
  135SOL     vw  540   4.190   0.739   5.466  0.5660 -0.6546  0.1874
  136SOL     ow  541   5.920   4.170   6.086  0.6064  0.3371  0.3795
  136SOL     hw  542   5.976   4.224   6.031 -1.3834  0.6891 -1.4060
  136SOL     hw  543   5.907   4.089   6.036 -1.3353  0.7092  0.1845
  136SOL     vw  544   5.925   4.166   6.073  0.0875  0.4327  0.1180
  137SOL     ow  545   0.561   4.794   5.947 -0.3144  0.3526  0.7849
  137SOL     hw  546   0.587   4.883   5.972 -0.3396  0.0237  2.0613
  137SOL     hw  547   0.642   4.742   5.954  0.2095  0.6308 -2.0218
  137SOL     vw  548   0.575   4.799   5.951 -0.2486  0.3462  0.5829
  138SOL     ow  549   5.952   5.122   0.824 -0.1342 -0.9414  0.0645
  138SOL     hw  550   5.941   5.071   0.904 -0.4739 -1.9791 -0.6255
  138SOL     hw  551   5.952   5.057   0.753  0.3945 -0.0664 -0.7638
  138SOL     vw  552   5.950   5.107   0.825 -0.1092 -0.9627 -0.1358
  139SOL     ow  553   4.827   3.533   2.385 -0.7240 -0.1094 -0.0372
  139SOL     hw  554   4.874   3.503   2.307  0.1874  1.3221 -0.0715
  139SOL     hw  555   4.867   3.617   2.406 -0.6375 -0.6668  2.2645
  139SOL     vw  556   4.839   3.540   2.378 -0.5925  0.0061  0.2620
  140SOL     ow  557   4.947   2.706   5.718  0.2548 -0.2239  0.2079
  140SOL     hw  558   4.957   2.797   5.746  0.0891 -0.6842  1.9255
  140SOL     hw  559   4.857   2.684   5.742 -0.6996 -0.0256 -2.8592
  140SOL     vw  560   4.937   2.715   5.725  0.1070 -0.2584  0.0300
  141SOL     ow  561   0.223   1.665   1.299 -0.4837 -0.2172  0.5547
  141SOL     hw  562   0.178   1.712   1.369 -0.3640  0.0885  0.4326
  141SOL     hw  563   0.195   1.710   1.219  2.3308  2.0242  0.6513
  141SOL     vw  564   0.214   1.677   1.297 -0.0965  0.1188  0.5514
  142SOL     ow  565   2.641   1.914   3.916  0.8706 -0.1859 -0.1218
  142SOL     hw  566   2.675   1.963   3.841 -0.6886 -1.5201 -1.7892
  142SOL     hw  567   2.646   1.822   3.889 -1.9394 -0.5804  0.3392
  142SOL     vw  568   2.646   1.908   3.902  0.2943 -0.4139 -0.2810
  143SOL     ow  569   0.554   3.652   4.498  0.6852  0.3985  0.2174
  143SOL     hw  570   0.605   3.579   4.462  0.7108 -0.1404  1.3035
  143SOL     hw  571   0.470   3.613   4.522  0.9320  0.5641  1.4118
  143SOL     vw  572   0.550   3.638   4.496  0.7211  0.3493  0.5181
  144SOL     ow  573   6.275   1.178   2.619 -0.1064  0.2088  0.0967
  144SOL     hw  574   6.190   1.173   2.662  0.9255  2.3724  2.6255
  144SOL     hw  575   6.310   1.089   2.626 -0.9831 -0.0489  1.6508
  144SOL     vw  576   6.268   1.165   2.625 -0.0861  0.4603  0.6355
  145SOL     ow  577   4.884   4.597   0.414 -0.1315 -0.0808  0.2768
  145SOL     hw  578   4.963   4.632   0.373 -0.5937 -1.0111 -1.4735
  145SOL     hw  579   4.866   4.657   0.487  0.1307  2.2360 -1.4768
  145SOL     vw  580   4.892   4.609   0.418 -0.1578  0.1020 -0.1855
  146SOL     ow  581   0.377   4.659   3.302  0.5718  0.3352 -0.0919
  146SOL     hw  582   0.403   4.736   3.352 -0.0409  0.2516  0.3754
  146SOL     hw  583   0.359   4.692   3.214 -1.2173  1.0461  0.4884
  146SOL     vw  584   0.378   4.673   3.297  0.2549  0.4179  0.0464
  147SOL     ow  585   4.324   6.293   6.521 -0.4997 -0.2714 -0.4100
  147SOL     hw  586   4.267   6.367   6.543  1.3607  0.7899  1.1574
  147SOL     hw  587   4.291   6.263   6.436 -1.9007  1.7723 -0.6891
  147SOL     vw  588   4.312   6.299   6.513 -0.4392  0.1383 -0.2403
  148SOL     ow  589   4.478   0.868   6.448  0.5884 -0.0186  0.2381
  148SOL     hw  590   4.523   0.910   6.521  0.0584 -0.1431  0.6426
  148SOL     hw  591   4.386   0.888   6.462  0.6025  1.2512 -1.2327
  148SOL     vw  592   4.472   0.876   6.460  0.5202  0.1325  0.0973
  149SOL     ow  593   6.428   0.181   3.245  0.1591  0.0440 -0.6531
  149SOL     hw  594   6.448   0.121   3.316  2.3207  0.6973 -0.6569
  149SOL     hw  595   6.359   0.238   3.280  1.6107  0.7614  1.1826
  149SOL     vw  596   6.422   0.181   3.259  0.6361  0.2249 -0.4114
  150SOL     ow  597   1.196   5.144   4.729  0.0280 -0.4095 -0.3130
  150SOL     hw  598   1.160   5.202   4.795 -0.8159 -0.2426 -0.8967
  150SOL     hw  599   1.276   5.110   4.767 -0.8554 -0.9681  1.1362
  150SOL     vw  600   1.201   5.147   4.742 -0.1999 -0.4613 -0.1986
  151SOL     ow  601   6.647   5.432   5.866  0.0423 -0.8645 -0.5359
  151SOL     hw  602   6.554   5.455   5.874 -0.1118 -1.8049  0.6331
  151SOL     hw  603   6.682   5.496   5.803 -0.8388  1.1072  0.8480
  151SOL     vw  604   6.639   5.444   5.859 -0.0939 -0.7281 -0.1991
  152SOL     ow  605   6.719   1.791   3.496  0.0655  0.1960 -0.1535
  152SOL     hw  606   6.801   1.821   3.537  0.2291 -1.5839  0.9464
  152SOL     hw  607   6.682   1.729   3.559 -1.2134 -0.4052 -1.4366
  152SOL     vw  608   6.725   1.787   3.510 -0.0818 -0.1181 -0.1776
  153SOL     ow  609   3.355   5.617   2.974 -0.0961 -0.0308  0.0226
  153SOL     hw  610   3.368   5.711   2.988  1.2589 -0.0714 -0.7961
  153SOL     hw  611   3.391   5.575   3.053 -1.3223  0.1472  0.6968
  153SOL     vw  612   3.361   5.624   2.986 -0.0790 -0.0131  0.0035
  154SOL     ow  613   6.269   0.694   3.597  0.1245  0.0349 -0.2212
  154SOL     hw  614   6.291   0.696   3.690 -3.3471 -0.0406  0.7315
  154SOL     hw  615   6.188   0.643   3.592  0.2355 -0.0358 -3.3198
  154SOL     vw  616   6.261   0.688   3.608 -0.3190  0.0156 -0.5043
  155SOL     ow  617   3.690   4.902   1.195  0.5883 -0.3850  0.4083
  155SOL     hw  618   3.674   4.817   1.154 -0.0567 -0.8664  1.6038
  155SOL     hw  619   3.684   4.885   1.289 -2.0009  1.3707  0.6927
  155SOL     vw  620   3.687   4.889   1.202  0.1616 -0.2170  0.6036
  156SOL     ow  621   3.847   0.130   0.620  0.4763  0.5714 -0.2773
  156SOL     hw  622   3.761   0.173   0.616 -0.5296 -1.4317 -2.2021
  156SOL     hw  623   3.850   0.075   0.542  3.0246 -0.3810  0.4002
  156SOL     vw  624   3.836   0.128   0.610  0.6797  0.1815 -0.4418
  157SOL     ow  625   1.244   6.278   5.988 -0.7695  0.4694 -0.7568
  157SOL     hw  626   1.209   6.208   5.933 -0.0415 -1.3799  0.9803
  157SOL     hw  627   1.313   6.236   6.040 -0.6185  2.3644  0.7205
  157SOL     vw  628   1.249   6.263   5.988 -0.6536  0.4752 -0.3328
  158SOL     ow  629   3.886   0.375   3.939  0.1182 -1.0407  0.5033
  158SOL     hw  630   3.870   0.463   3.974 -0.6084 -1.5946  1.6096
  158SOL     hw  631   3.966   0.346   3.981  0.2913 -0.9591  0.2315
  158SOL     vw  632   3.894   0.383   3.949  0.0452 -1.1030  0.6135
  159SOL     ow  633   4.426   6.472   3.828  0.1260 -0.0985 -0.1005
  159SOL     hw  634   4.486   6.462   3.902  0.1077  0.1057 -0.0578
  159SOL     hw  635   4.466   6.421   3.758  0.1614 -0.2644  0.0387
  159SOL     vw  636   4.439   6.464   3.829  0.1283 -0.0935 -0.0765
  160SOL     ow  637   2.183   1.157   5.611  0.0628 -0.5390 -0.3322
  160SOL     hw  638   2.243   1.137   5.539 -0.5786 -0.1994 -0.9775
  160SOL     hw  639   2.105   1.192   5.567  0.5205  1.8265  0.6153
  160SOL     vw  640   2.180   1.159   5.595  0.0385 -0.1820 -0.2921
  161SOL     ow  641   1.691   1.160   0.534  0.1934  0.4956 -0.0536
  161SOL     hw  642   1.779   1.124   0.535 -0.0756 -0.1788 -0.3056
  161SOL     hw  643   1.633   1.084   0.540 -0.3677  0.9991  1.2889
  161SOL     vw  644   1.695   1.146   0.535  0.0839  0.4731  0.0903
  162SOL     ow  645   6.252   0.293   4.808  0.0619  0.3740 -0.5813
  162SOL     hw  646   6.181   0.239   4.774 -0.5626  0.2569  0.8603
  162SOL     hw  647   6.245   0.375   4.760 -2.9717  1.5213  1.5663
  162SOL     vw  648   6.242   0.297   4.797 -0.4206  0.5099 -0.1075
  163SOL     ow  649   6.705   2.209   1.442  0.8797  0.0258 -0.2696
  163SOL     hw  650   6.693   2.121   1.478  0.1029  0.6913  1.1948
  163SOL     hw  651   6.628   2.257   1.471  0.1864  0.6514 -2.8893
  163SOL     vw  652   6.694   2.204   1.451  0.6857  0.1960 -0.4220
  164SOL     ow  653   6.718   6.661   2.687 -0.0178  0.1505  0.2870
  164SOL     hw  654   6.722   6.706   2.771  1.1480  0.7442 -0.0590
  164SOL     hw  655   6.734   6.729   2.622 -0.0369 -0.4437 -0.3603
  164SOL     vw  656   6.721   6.676   2.689  0.1335  0.1502  0.1559
  165SOL     ow  657   2.427   3.419   0.881  0.0818 -0.0157 -0.4589
  165SOL     hw  658   2.466   3.481   0.943 -0.9076  0.7682 -0.5952
  165SOL     hw  659   2.426   3.466   0.798 -0.3283 -0.3616 -0.6485
  165SOL     vw  660   2.432   3.434   0.878 -0.1029  0.0421 -0.5019
  166SOL     ow  661   6.092   1.231   1.493  0.2425 -0.2459 -0.5001
  166SOL     hw  662   6.065   1.142   1.516  0.4164 -0.5544 -1.4554
  166SOL     hw  663   6.011   1.278   1.479  0.1417 -0.1690  0.2656
  166SOL     vw  664   6.078   1.225   1.494  0.2522 -0.2765 -0.5251
  167SOL     ow  665   5.183   5.217   2.082  0.5843 -0.6010 -1.1342
  167SOL     hw  666   5.143   5.139   2.041  1.4018 -1.1262 -0.9481
  167SOL     hw  667   5.159   5.210   2.174 -0.0663 -0.1655 -1.2626
  167SOL     vw  668   5.174   5.205   2.088  0.6063 -0.6130 -1.1265
  168SOL     ow  669   3.019   5.581   5.869 -0.5362  0.0620  0.2384
  168SOL     hw  670   3.083   5.620   5.928  0.4346  0.2714 -0.9182
  168SOL     hw  671   3.072   5.534   5.804 -1.6103 -1.4759  0.4185
  168SOL     vw  672   3.034   5.580   5.868 -0.5499 -0.1135  0.1097
  169SOL     ow  673   4.187   6.379   5.110 -0.1508  0.3411  0.3212
  169SOL     hw  674   4.271   6.341   5.133  0.3878  2.0727  1.3310
  169SOL     hw  675   4.123   6.329   5.161  0.4522  0.2313  0.9804
  169SOL     vw  676   4.190   6.367   5.119  0.0000  0.5550  0.5414
  170SOL     ow  677   6.472   5.068   4.821  0.1674 -0.6493 -0.4396
  170SOL     hw  678   6.395   5.097   4.869  0.4512 -2.6306  1.3569
  170SOL     hw  679   6.545   5.115   4.862  0.2576 -1.3081  0.1745
  170SOL     vw  680   6.472   5.078   4.832  0.2167 -0.9975 -0.1216
  171SOL     ow  681   1.772   0.419   5.895 -0.2182  0.0619 -0.4765
  171SOL     hw  682   1.830   0.385   5.827  1.6196  0.2189  0.9268
  171SOL     hw  683   1.735   0.341   5.936 -1.9738 -0.0253 -2.1084
  171SOL     vw  684   1.775   0.404   5.892 -0.2074  0.0711 -0.5066
  172SOL     ow  685   5.327   5.473   1.944 -0.1223 -0.5507  0.5534
  172SOL     hw  686   5.270   5.523   2.001 -2.5619  0.7573 -2.6959
  172SOL     hw  687   5.411   5.520   1.945 -1.3476  1.7716  0.0780
  172SOL     vw  688   5.331   5.486   1.951 -0.6058 -0.0718  0.0619
  173SOL     ow  689   2.713   1.342   1.701 -0.3196 -0.1210 -0.4173
  173SOL     hw  690   2.758   1.402   1.760  0.6281  0.4557 -1.6585
  173SOL     hw  691   2.642   1.305   1.753 -0.5371  1.5812  0.5865
  173SOL     vw  692   2.710   1.345   1.716 -0.2233  0.1797 -0.4486
  174SOL     ow  693   4.444   3.198   5.138 -0.4845  0.3851  0.2180
  174SOL     hw  694   4.391   3.124   5.107  1.2612 -1.1736  0.7507
  174SOL     hw  695   4.529   3.159   5.160 -0.3857  2.0139  3.2622
  174SOL     vw  696   4.448   3.183   5.137 -0.2413  0.3943  0.6897
  175SOL     ow  697   5.233   3.377   4.334 -0.6502  0.0201 -0.2804
  175SOL     hw  698   5.296   3.307   4.323  0.0019  0.2316  1.8140
  175SOL     hw  699   5.174   3.347   4.403  0.1864  1.8506  1.3161
  175SOL     vw  700   5.233   3.364   4.342 -0.4537  0.2896  0.2067
  176SOL     ow  701   3.406   6.546   2.567 -0.1983 -0.4464  0.0834
  176SOL     hw  702   3.432   6.543   2.660 -1.2597  0.0294  0.4110
  176SOL     hw  703   3.311   6.554   2.569 -0.6171 -3.6901 -1.0807
  176SOL     vw  704   3.397   6.547   2.580 -0.3936 -0.8113 -0.0269
  177SOL     ow  705   4.860   0.769   5.314 -0.0889  0.2039 -0.0865
  177SOL     hw  706   4.901   0.722   5.386 -1.0369 -1.1265 -0.3832
  177SOL     hw  707   4.930   0.781   5.250  0.8148  1.6047  1.1246
  177SOL     vw  708   4.875   0.764   5.315 -0.0947  0.2132  0.0339
  178SOL     ow  709   5.680   6.909   2.720 -0.6835 -0.0474  0.0870
  178SOL     hw  710   5.754   6.946   2.673 -0.8608 -0.6782 -0.7162
  178SOL     hw  711   5.641   6.984   2.766 -0.4746  0.5808 -0.7310
  178SOL     vw  712   5.685   6.924   2.720 -0.6795 -0.0477 -0.1268
  179SOL     ow  713   1.451   3.751   3.994 -0.2928  0.1782 -0.5831
  179SOL     hw  714   1.358   3.749   4.017 -0.5130 -0.4223 -1.4587
  179SOL     hw  715   1.488   3.672   4.034  0.2340  1.2851  1.2240
  179SOL     vw  716   1.444   3.740   4.002 -0.2523  0.2451 -0.4604
  180SOL     ow  717   4.218   6.295   1.213 -0.2527  0.5889  0.1132
  180SOL     hw  718   4.177   6.378   1.186  1.1989  1.9607  1.8222
  180SOL     hw  719   4.275   6.271   1.140 -1.7914  0.2677 -1.0158
  180SOL     vw  720   4.220   6.303   1.200 -0.2644  0.7274  0.1898
  181SOL     ow  721   2.231   1.020   6.904  0.0933  0.0156 -0.5332
  181SOL     hw  722   2.296   1.024   6.974 -1.4704  1.8669  0.9259
  181SOL     hw  723   2.203   1.111   6.892 -2.9646 -0.7660 -0.2895
  181SOL     vw  724   2.236   1.033   6.912 -0.5165  0.1567 -0.3083
  182SOL     ow  725   1.210   4.359   5.049  0.0749  0.2520 -0.0879
  182SOL     hw  726   1.262   4.373   4.969  1.9722 -1.5801  0.7301
  182SOL     hw  727   1.212   4.444   5.094  0.9536  0.6818 -0.8914
  182SOL     vw  728   1.217   4.372   5.044  0.4411  0.0670 -0.0861
  183SOL     ow  729   1.619   1.624   6.022  0.1993 -0.1092  0.2898
  183SOL     hw  730   1.526   1.637   6.041  0.1987 -0.0910  0.2743
  183SOL     hw  731   1.631   1.529   6.027  0.3329 -0.0588  1.0060
  183SOL     vw  732   1.608   1.613   6.025  0.2169 -0.1002  0.3822
  184SOL     ow  733   4.094   0.712   4.712  0.0271 -0.2742  0.2157
  184SOL     hw  734   4.158   0.642   4.700 -0.1166 -0.2943 -0.4245
  184SOL     hw  735   4.138   0.773   4.772  1.3655  0.5924 -1.5668
  184SOL     vw  736   4.109   0.711   4.718  0.1845 -0.1625 -0.1040
  185SOL     ow  737   1.893   3.540   4.775  0.2456 -0.1991 -0.3298
  185SOL     hw  738   1.853   3.570   4.694 -2.5173 -1.2467  0.5476
  185SOL     hw  739   1.874   3.609   4.839 -0.7920 -1.0114  0.2596
  185SOL     vw  740   1.885   3.553   4.773 -0.2558 -0.4445 -0.1361
  186SOL     ow  741   3.902   1.131   2.988 -0.0389  0.3528 -0.3976
  186SOL     hw  742   3.981   1.083   3.015  1.0066  1.0584 -2.0813
  186SOL     hw  743   3.919   1.221   3.015 -2.0359 -0.0466  2.8420
  186SOL     vw  744   3.915   1.136   2.995 -0.1644  0.3932 -0.1924
  187SOL     ow  745   4.664   2.642   3.870  0.2952 -0.3849  0.2362
  187SOL     hw  746   4.714   2.715   3.835  0.5306 -0.0675  1.2047
  187SOL     hw  747   4.729   2.573   3.886  0.2695 -0.3463  0.5156
  187SOL     vw  748   4.679   2.643   3.868  0.3228 -0.3380  0.4009
  188SOL     ow  749   2.679   6.799   1.395 -0.1517  0.2309 -0.3996
  188SOL     hw  750   2.591   6.824   1.365 -0.7594 -0.7154  0.5525
  188SOL     hw  751   2.693   6.853   1.473 -0.4916 -0.6537  0.2830
  188SOL     vw  752   2.669   6.810   1.401 -0.2767 -0.0107 -0.1840
  189SOL     ow  753   4.491   0.279   0.336 -0.0608 -0.1103 -0.2954
  189SOL     hw  754   4.462   0.213   0.399 -0.8184  2.1267  1.8870
  189SOL     hw  755   4.419   0.286   0.273 -0.0529 -1.1831 -0.4329
  189SOL     vw  756   4.477   0.272   0.336 -0.1597  0.0433 -0.0256
  190SOL     ow  757   1.209   1.876   1.149 -0.2741 -0.5698  0.1577
  190SOL     hw  758   1.203   1.791   1.192  0.6788 -1.0950 -0.7238
  190SOL     hw  759   1.209   1.857   1.056 -0.5323  0.4390 -0.0648
  190SOL     vw  760   1.208   1.862   1.142 -0.1824 -0.5060  0.0121
  191SOL     ow  761   2.660   2.652   6.741 -0.2040  0.1071 -0.4045
  191SOL     hw  762   2.735   2.620   6.691 -0.2315  1.1039 -1.1226
  191SOL     hw  763   2.606   2.697   6.676 -0.2360  1.4377  0.5128
  191SOL     vw  764   2.663   2.654   6.726 -0.2118  0.4141 -0.3781
  192SOL     ow  765   3.099   0.299   6.835  0.1539 -0.1011  0.7052
  192SOL     hw  766   3.097   0.388   6.869  2.6675 -0.0482  0.8597
  192SOL     hw  767   3.086   0.308   6.741 -0.6875  0.2932  0.8470
  192SOL     vw  768   3.097   0.312   6.827  0.3744 -0.0421  0.7443
  193SOL     ow  769   3.248   1.322   3.348 -0.0633  0.2152 -0.4707
  193SOL     hw  770   3.186   1.391   3.372 -0.2481  0.1676 -0.8074
  193SOL     hw  771   3.214   1.286   3.266 -1.2158 -1.7597  0.7928
  193SOL     vw  772   3.235   1.326   3.340 -0.2398 -0.0516 -0.3484
  194SOL     ow  773   6.864   2.073   4.181 -0.3718  0.0526  0.6342
  194SOL     hw  774   6.874   2.169   4.186  0.1376 -0.0425  1.7171
  194SOL     hw  775   6.953   2.040   4.175 -0.6079 -0.2892 -1.9821
  194SOL     vw  776   6.877   2.082   4.181 -0.3357 -0.0050  0.4318
  195SOL     ow  777   3.205   6.154   0.847 -0.2554  0.1611  0.0058
  195SOL     hw  778   3.185   6.246   0.860 -1.4939  0.2688 -2.2104
  195SOL     hw  779   3.288   6.154   0.799  1.4319 -0.0674  2.6846
  195SOL     vw  780   3.213   6.166   0.843 -0.1963  0.1452  0.0668
  196SOL     ow  781   6.130   3.199   5.743  0.2634  0.0936 -0.5084
  196SOL     hw  782   6.166   3.194   5.831 -0.5834 -2.9371 -0.2388
  196SOL     hw  783   6.179   3.135   5.692 -0.7722  0.1545 -1.6603
  196SOL     vw  784   6.141   3.190   5.748  0.0150 -0.2983 -0.6249
  197SOL     ow  785   1.062   6.882   2.503 -0.8364 -0.0256 -0.0118
  197SOL     hw  786   1.061   6.823   2.579 -1.5236  0.3238  0.2572
  197SOL     hw  787   1.129   6.845   2.446  3.7740  2.5760  3.0293
  197SOL     vw  788   1.071   6.869   2.506 -0.3188  0.3636  0.4249
  198SOL     ow  789   0.003   6.247   1.535  0.1410 -0.2341 -0.1726
  198SOL     hw  790   0.036   6.266   1.447  3.2359 -2.0356  0.4281
  198SOL     hw  791   0.057   6.300   1.593 -3.4542  2.8240  0.7225
  198SOL     vw  792   0.014   6.256   1.531  0.0750 -0.0684  0.0247
  199SOL     ow  793   3.992   5.186   3.361  0.0383 -0.3597 -0.4359
  199SOL     hw  794   3.964   5.185   3.270  1.4810 -0.2753 -0.9180
  199SOL     hw  795   3.911   5.191   3.412 -0.8097 -0.8939 -1.6925
  199SOL     vw  796   3.978   5.187   3.356  0.1167 -0.4189 -0.6654
  200SOL     ow  797   4.098   1.985   3.780 -0.0154 -0.3601 -0.2222
  200SOL     hw  798   4.081   1.925   3.853 -1.1128 -0.1056 -0.2467
  200SOL     hw  799   4.190   1.970   3.757  0.2622 -0.6633  1.0103
  200SOL     vw  800   4.108   1.975   3.787 -0.1237 -0.3665 -0.0628
  201SOL     ow  801   4.832   0.008   6.448 -0.3676 -0.0426 -0.4225
  201SOL     hw  802   4.870  -0.074   6.414  0.9063  0.3849 -0.0926
  201SOL     hw  803   4.890   0.032   6.521  0.2479  1.9947 -1.5181
  201SOL     vw  804   4.845   0.000   6.453 -0.1183  0.2828 -0.5238
  202SOL     ow  805   4.487   4.517   4.136  0.0476  0.0820 -0.0158
  202SOL     hw  806   4.464   4.607   4.115  1.0365  0.8357  1.9247
  202SOL     hw  807   4.452   4.502   4.223 -1.7045 -2.0864 -0.9817
  202SOL     vw  808   4.480   4.527   4.145 -0.0534 -0.1047  0.1128
  203SOL     ow  809   5.202   4.535   2.255  0.0774  0.1558  0.6700
  203SOL     hw  810   5.270   4.467   2.255 -0.1850 -0.1386 -0.6276
  203SOL     hw  811   5.120   4.486   2.258 -0.1001  0.4598  0.7833
  203SOL     vw  812   5.200   4.519   2.256  0.0193  0.1569  0.5138
  204SOL     ow  813   0.455   4.626   5.733 -0.1945 -0.4262  0.3109
  204SOL     hw  814   0.501   4.543   5.720 -3.8272 -2.8777  1.6290
  204SOL     hw  815   0.386   4.626   5.667 -1.5629  0.5409  1.6914
  204SOL     vw  816   0.452   4.615   5.722 -0.8543 -0.6218  0.6671
  205SOL     ow  817   3.160   6.229   5.456  0.1553  0.1998  0.1022
  205SOL     hw  818   3.145   6.202   5.547  0.2143  1.5500  0.5406
  205SOL     hw  819   3.072   6.237   5.418  0.0879  0.4359  0.3010
  205SOL     vw  820   3.146   6.227   5.463  0.1541  0.4091  0.1862
  206SOL     ow  821   2.020   3.403   5.815  0.0386  0.4723  0.4181
  206SOL     hw  822   1.979   3.316   5.818 -1.4394  1.1856  2.8207
  206SOL     hw  823   2.045   3.421   5.905 -0.3832  2.8779  0.1061
  206SOL     vw  824   2.018   3.394   5.827 -0.2122  0.8838  0.6940
  207SOL     ow  825   6.473   1.839   3.300 -0.8889 -0.0687  0.2308
  207SOL     hw  826   6.410   1.793   3.244 -1.6491  0.2003  0.8574
  207SOL     hw  827   6.438   1.927   3.310  0.2474  0.4816 -0.4470
  207SOL     vw  828   6.460   1.844   3.294 -0.8392  0.0393  0.2239
  208SOL     ow  829   1.711   0.084   1.780 -0.3749  0.4554 -0.0995
  208SOL     hw  830   1.662   0.108   1.859 -1.3532 -3.3424  0.6553
  208SOL     hw  831   1.799   0.066   1.810 -0.8287 -1.3131  0.2857
  208SOL     vw  832   1.716   0.085   1.794 -0.5639 -0.2790  0.0508
  209SOL     ow  833   6.605   5.024   2.536  0.0913 -0.2836  0.0024
  209SOL     hw  834   6.698   5.017   2.559 -0.1667  0.3755  1.2854
  209SOL     hw  835   6.604   5.013   2.440  1.3904 -1.1385  0.0525
  209SOL     vw  836   6.617   5.022   2.526  0.2286 -0.3095  0.1782
  210SOL     ow  837   3.459   2.252   0.601 -0.8272 -0.0738  0.1559
  210SOL     hw  838   3.464   2.213   0.688 -0.6491 -0.1213  0.1258
  210SOL     hw  839   3.366   2.258   0.583 -0.8606 -1.0155 -0.0742
  210SOL     vw  840   3.448   2.247   0.610 -0.8081 -0.2044  0.1216
  211SOL     ow  841   5.251   3.059   6.520 -0.0566  0.3247  0.1789
  211SOL     hw  842   5.160   3.083   6.537  0.7570  3.8099  0.4038
  211SOL     hw  843   5.266   2.981   6.573 -2.6850  0.1051  0.7047
  211SOL     vw  844   5.241   3.052   6.529 -0.2961  0.7555  0.2778
  212SOL     ow  845   4.242   0.906   3.812  0.0877  0.1478  0.0711
  212SOL     hw  846   4.258   0.854   3.733  0.9780  0.8778 -0.2608
  212SOL     hw  847   4.181   0.854   3.864 -0.2107 -0.5249 -0.9239
  212SOL     vw  848   4.236   0.892   3.808  0.1659  0.1553 -0.1038
  213SOL     ow  849   3.666   4.863   5.972  0.3808  0.1591 -0.0006
  213SOL     hw  850   3.693   4.772   5.964 -2.5591 -0.7669 -0.3227
  213SOL     hw  851   3.599   4.863   6.040 -0.1401  1.9741 -0.4619
  213SOL     vw  852   3.661   4.851   5.980 -0.0759  0.2766 -0.1042
  214SOL     ow  853   3.443   6.104   6.674 -0.0765  0.0890  0.3607
  214SOL     hw  854   3.536   6.100   6.699 -0.6082 -2.0499  2.4539
  214SOL     hw  855   3.402   6.038   6.729 -2.5184 -0.6208 -2.1131
  214SOL     vw  856   3.450   6.095   6.685 -0.4689 -0.2868  0.3107
  215SOL     ow  857   6.434   3.107   4.743 -0.1816  0.1353 -0.2403
  215SOL     hw  858   6.363   3.105   4.807 -0.0313 -0.2728 -0.0848
  215SOL     hw  859   6.514   3.100   4.796 -0.0079  0.8519 -0.3901
  215SOL     vw  860   6.435   3.106   4.759 -0.1388  0.1760 -0.2396
  216SOL     ow  861   0.959   3.828   1.026 -0.4983  0.4686  0.0373
  216SOL     hw  862   0.967   3.738   1.057 -0.2743 -0.1032 -1.6124
  216SOL     hw  863   0.886   3.827   0.965 -1.7956  1.8699  1.4624
  216SOL     vw  864   0.951   3.816   1.022 -0.6399  0.5780  0.0076
  217SOL     ow  865   6.447   4.139   1.107  0.1959  0.3301 -0.0525
  217SOL     hw  866   6.501   4.145   1.185 -0.7192 -0.3362  0.6566
  217SOL     hw  867   6.393   4.218   1.108  2.0474  1.6787 -1.4872
  217SOL     vw  868   6.447   4.150   1.117  0.3197  0.4201 -0.1483
  218SOL     ow  869   2.140   6.162   0.207 -0.4145 -0.3454  0.1391
  218SOL     hw  870   2.053   6.160   0.168 -0.2750  1.1120 -0.2753
  218SOL     hw  871   2.129   6.213   0.287  0.0294 -0.3028  0.1748
  218SOL     vw  872   2.127   6.168   0.213 -0.3376 -0.1473  0.0891
  219SOL     ow  873   5.907   4.005   4.106  0.2731  0.2537 -0.2194
  219SOL     hw  874   5.973   4.039   4.046  0.9905 -0.2328  0.2805
  219SOL     hw  875   5.841   3.965   4.049  1.0330 -0.3629 -0.6850
  219SOL     vw  876   5.907   4.004   4.091  0.4683  0.1082 -0.2151
  220SOL     ow  877   0.824   3.334   0.250  0.3734 -0.3685  0.0140
  220SOL     hw  878   0.825   3.290   0.335 -0.0665 -1.6806 -0.6323
  220SOL     hw  879   0.892   3.290   0.199  0.3467  0.1225 -0.4543
  220SOL     vw  880   0.833   3.323   0.255  0.3118 -0.4768 -0.1331
  221SOL     ow  881   4.221   3.917   2.771  0.0292  0.7480  0.9230
  221SOL     hw  882   4.288   3.868   2.819  0.4557  0.4492  0.0306
  221SOL     hw  883   4.172   3.964   2.839  0.6567  0.3676  1.6422
  221SOL     vw  884   4.223   3.917   2.786  0.1686  0.6584  0.9001
  222SOL     ow  885   0.363   4.401   0.431  0.4714 -0.9595 -0.1551
  222SOL     hw  886   0.401   4.313   0.423  1.0991 -0.6258 -0.9730
  222SOL     hw  887   0.426   4.458   0.387 -0.9389 -0.3888 -1.5214
  222SOL     vw  888   0.376   4.397   0.424  0.3682 -0.8402 -0.4433
  223SOL     ow  889   0.799   4.603   2.144 -0.5103 -0.4319 -0.6636
  223SOL     hw  890   0.735   4.534   2.165  0.1117 -0.9063 -0.3007
  223SOL     hw  891   0.815   4.592   2.050 -0.6596 -0.5641 -0.6753
  223SOL     vw  892   0.793   4.592   2.134 -0.4480 -0.5119 -0.6174
  224SOL     ow  893   5.083   3.649   4.316 -0.2312 -0.5711 -0.0485
  224SOL     hw  894   4.989   3.643   4.328 -0.4104  0.0869 -1.0275
  224SOL     hw  895   5.099   3.741   4.294  0.5435 -0.8196 -0.5968
  224SOL     vw  896   5.073   3.661   4.315 -0.1531 -0.5171 -0.2501
  225SOL     ow  897   3.026   1.022   1.169  0.0113  0.3806  0.0845
  225SOL     hw  898   3.102   1.046   1.117  0.2354 -2.0623 -0.8423
  225SOL     hw  899   3.062   1.001   1.255  0.1675  0.7225  0.1039
  225SOL     vw  900   3.041   1.023   1.174  0.0616  0.1034 -0.0353
  226SOL     ow  901   2.512   6.516   5.247  0.3618  1.0491  0.3952
  226SOL     hw  902   2.595   6.470   5.259  0.2600  0.8862  0.4753
  226SOL     hw  903   2.511   6.540   5.154 -0.5239 -0.9573 -0.1782
  226SOL     vw  904   2.523   6.513   5.236  0.2314  0.7629  0.3300
  227SOL     ow  905   1.938   5.091   6.735 -0.6102 -0.7617  0.2212
  227SOL     hw  906   1.858   5.125   6.776 -0.4063  0.6723 -0.5381
  227SOL     hw  907   2.004   5.159   6.750 -0.8140  0.4187 -3.4284
  227SOL     vw  908   1.936   5.104   6.743 -0.6102 -0.4168 -0.3603
  228SOL     ow  909   4.010   3.617   1.623 -0.2027 -0.0887 -0.4108
  228SOL     hw  910   4.077   3.684   1.609  1.9979 -2.4736 -2.2947
  228SOL     hw  911   3.949   3.629   1.550 -0.3897  0.4824 -0.1641
  228SOL     vw  912   4.011   3.628   1.612  0.0629 -0.3281 -0.6268
  229SOL     ow  913   6.472   0.867   6.559  0.4814 -0.3976  0.1743
  229SOL     hw  914   6.538   0.817   6.510 -0.0940 -0.9429 -0.0582
  229SOL     hw  915   6.441   0.933   6.497  1.7092  0.7080  0.6856
  229SOL     vw  916   6.477   0.869   6.544  0.5677 -0.3237  0.2110
  230SOL     ow  917   2.483   1.266   2.384  0.0826 -0.7051 -0.0958
  230SOL     hw  918   2.413   1.205   2.361  0.5597 -1.6500  0.8687
  230SOL     hw  919   2.563   1.213   2.384  0.6099  0.0641  0.1379
  230SOL     vw  920   2.485   1.251   2.381  0.2152 -0.7283  0.0623
  231SOL     ow  921   1.928   2.256   4.747  0.1671  0.5879  0.6253
  231SOL     hw  922   1.945   2.342   4.709  1.6868  0.2202  0.4355
  231SOL     hw  923   2.006   2.204   4.727  0.0941 -0.2698  2.3728
  231SOL     vw  924   1.940   2.260   4.740  0.3579  0.4262  0.8309
  232SOL     ow  925   6.024   2.788   0.876  0.0536  0.7108 -0.1734
  232SOL     hw  926   5.967   2.839   0.934 -0.4471  0.9324 -0.8536
  232SOL     hw  927   6.079   2.737   0.936  0.4107  1.8619  0.5282
  232SOL     vw  928   6.024   2.788   0.892  0.0350  0.8918 -0.1706
  233SOL     ow  929   3.901   3.331   1.530 -0.2860 -0.0986  0.3869
  233SOL     hw  930   3.889   3.236   1.524  0.4091 -0.1936  0.3683
  233SOL     hw  931   3.945   3.354   1.448 -1.2587  0.3805 -0.0109
  233SOL     vw  932   3.905   3.322   1.518 -0.3226 -0.0480  0.3320
  234SOL     ow  933   2.454   1.308   4.973  0.3379 -0.1026 -0.5613
  234SOL     hw  934   2.490   1.314   5.061  0.4797  0.1290 -0.6340
  234SOL     hw  935   2.508   1.367   4.921 -0.5232  0.7025 -0.5532
  234SOL     vw  936   2.466   1.316   4.978  0.2431  0.0342 -0.5698
  235SOL     ow  937   1.954   5.264   5.412 -0.3667  0.7228  0.8582
  235SOL     hw  938   1.872   5.253   5.460 -0.6750  2.5027  0.8065
  235SOL     hw  939   2.023   5.247   5.476 -0.6761 -2.4342  0.5191
  235SOL     vw  940   1.952   5.260   5.426 -0.4482  0.5412  0.8066
  236SOL     ow  941   2.553   2.027   4.957 -0.5363 -0.5240 -0.0886
  236SOL     hw  942   2.477   2.052   4.904 -0.1546  1.3792  0.2057
  236SOL     hw  943   2.526   2.044   5.047 -0.0980 -0.7877  0.0939
  236SOL     vw  944   2.539   2.033   4.962 -0.4281 -0.3077 -0.0257
  237SOL     ow  945   5.513   5.844   3.012  0.1120  0.5900  0.9147
  237SOL     hw  946   5.444   5.911   3.007  0.3258  0.6910 -1.7633
  237SOL     hw  947   5.468   5.767   3.048 -0.7319  1.4062  1.6976
  237SOL     vw  948   5.498   5.843   3.016  0.0288  0.7112  0.6646
  238SOL     ow  949   0.928   0.568   1.277 -0.7264  0.2073  0.4004
  238SOL     hw  950   0.934   0.663   1.291 -0.1951  0.3275 -0.5532
  238SOL     hw  951   0.935   0.558   1.182 -0.9376 -0.7818  0.4842
  238SOL     vw  952   0.930   0.579   1.267 -0.6842  0.0927  0.2857
  239SOL     ow  953   3.042   0.712   1.088 -0.3335  0.0108  0.0220
  239SOL     hw  954   3.067   0.637   1.142  0.2663 -0.3066 -0.6758
  239SOL     hw  955   3.121   0.765   1.081 -0.6060  0.4310  0.0562
  239SOL     vw  956   3.055   0.709   1.094 -0.2903  0.0244 -0.0656
  240SOL     ow  957   4.625   5.976   2.179  0.4247  0.4528 -0.1205
  240SOL     hw  958   4.721   5.971   2.177  0.3557 -0.7930 -1.2779
  240SOL     hw  959   4.606   6.069   2.163  1.4177  0.4812 -1.3375
  240SOL     vw  960   4.635   5.988   2.177  0.5465  0.2923 -0.4338
  241SOL     ow  961   4.492   2.397   3.776  0.6342 -0.2232 -0.4708
  241SOL     hw  962   4.484   2.306   3.806 -2.2643 -0.3351 -1.2065
  241SOL     hw  963   4.500   2.389   3.680  0.0855  0.2914 -0.5630
  241SOL     vw  964   4.492   2.384   3.767  0.1795 -0.1700 -0.5801
  242SOL     ow  965   2.445   4.087   2.344 -0.2394  0.5715  0.8199
  242SOL     hw  966   2.358   4.046   2.347 -0.7676  1.6684  1.5542
  242SOL     hw  967   2.459   4.117   2.434  1.3718 -0.4936  0.9595
  242SOL     vw  968   2.435   4.085   2.357 -0.0966  0.5755  0.9353
  243SOL     ow  969   1.272   4.799   3.750  0.0588  0.1661 -0.4963
  243SOL     hw  970   1.286   4.890   3.776  0.4595 -0.1113  0.2838
  243SOL     hw  971   1.202   4.804   3.685  0.6468  1.1137 -1.0813
  243SOL     vw  972   1.264   4.812   3.745  0.1892  0.2544 -0.4706
  244SOL     ow  973   6.078   5.876   6.727 -0.2098  0.0337  0.2665
  244SOL     hw  974   6.004   5.868   6.667 -0.0686  0.3794  0.0497
  244SOL     hw  975   6.135   5.942   6.688 -0.7905  1.2964  1.4801
  244SOL     vw  976   6.076   5.883   6.714 -0.2677  0.2460  0.3979
  245SOL     ow  977   1.547   5.906   3.445  0.0140  0.6797  0.3022
  245SOL     hw  978   1.527   5.885   3.536 -1.6553  0.5234 -0.0596
  245SOL     hw  979   1.472   5.872   3.396  1.3347 -0.0934 -1.2447
  245SOL     vw  980   1.534   5.899   3.450 -0.0320  0.5572  0.0504
  246SOL     ow  981   0.239   0.740   4.316 -0.3142 -0.3562 -0.3366
  246SOL     hw  982   0.268   0.811   4.260  0.4211  0.4023  0.9561
  246SOL     hw  983   0.318   0.708   4.359 -0.9757 -0.1174  1.1422
  246SOL     vw  984   0.253   0.745   4.314 -0.3045 -0.2246  0.0288
  247SOL     ow  985   0.138   2.386   3.006  0.3441 -0.0922  0.0259
  247SOL     hw  986   0.082   2.430   3.071  0.6111 -1.3408  1.1338
  247SOL     hw  987   0.099   2.410   2.922 -1.6500 -0.5766  0.7445
  247SOL     vw  988   0.125   2.395   3.004  0.1162 -0.3208  0.2670
  248SOL     ow  989   4.257   2.525   4.920  0.1988  0.6939  0.0788
  248SOL     hw  990   4.220   2.612   4.909 -0.0854  0.4658 -0.8703
  248SOL     hw  991   4.314   2.513   4.844  1.5325  0.6856  1.0514
  248SOL     vw  992   4.260   2.535   4.908  0.3374  0.6627  0.0820
  249SOL     ow  993   1.939   5.393   3.204  0.0104  0.0148 -0.0142
  249SOL     hw  994   2.028   5.361   3.214 -0.4044 -1.0228  0.4529
  249SOL     hw  995   1.934   5.469   3.263  0.6579  0.2619 -0.2697
  249SOL     vw  996   1.950   5.399   3.213  0.0411 -0.0896  0.0137
  250SOL     ow  997   0.463   1.450   2.326  0.1888 -0.4126  0.7708
  250SOL     hw  998   0.383   1.410   2.292  0.3300 -0.8426  0.9324
  250SOL     hw  999   0.530   1.383   2.314  1.1521  0.8776 -1.8260
  250SOL     vw 1000   0.461   1.436   2.320  0.3345 -0.2991  0.4495
  251SOL     ow 1001   3.020   3.062   4.495 -0.2465  0.2199  0.1643
  251SOL     hw 1002   3.086   3.078   4.562  0.1306 -2.5231  0.5829
  251SOL     hw 1003   2.937   3.067   4.542 -0.0799 -0.0775  0.5023
  251SOL     vw 1004   3.018   3.065   4.510 -0.1746 -0.1813  0.2639
  252SOL     ow 1005   1.556   3.935   4.193  0.2629 -0.7165  0.2004
  252SOL     hw 1006   1.603   3.887   4.261  1.0600 -1.2496 -0.7056
  252SOL     hw 1007   1.557   4.026   4.223  0.3299 -0.9869  1.0473
  252SOL     vw 1008   1.563   3.941   4.206  0.3769 -0.8225  0.1924
  253SOL     ow 1009   0.046   4.366   1.628  0.2579 -0.0145  0.4044
  253SOL     hw 1010   0.013   4.316   1.553  2.2746 -0.3235 -0.3442
  253SOL     hw 1011   0.075   4.449   1.590  0.7483  0.0602  0.9301
  253SOL     vw 1012   0.045   4.370   1.613  0.5887 -0.0455  0.3750
  254SOL     ow 1013   0.554   4.138   2.522 -0.2654 -0.4034  0.2219
  254SOL     hw 1014   0.564   4.076   2.450 -0.0778 -0.9206  0.6793
  254SOL     hw 1015   0.532   4.221   2.480 -0.2065 -0.7067 -0.4227
  254SOL     vw 1016   0.553   4.140   2.507 -0.2328 -0.5114  0.1972
  255SOL     ow 1017   4.043   3.310   0.621 -0.2395 -0.3282  0.0466
  255SOL     hw 1018   4.049   3.214   0.617  2.6750 -0.1967 -2.0620
  255SOL     hw 1019   4.114   3.335   0.680 -0.4467  0.5754 -0.0856
  255SOL     vw 1020   4.053   3.300   0.628  0.1178 -0.1917 -0.2491
  256SOL     ow 1021   1.106   0.269   6.865 -0.6104 -0.1712 -0.1080
  256SOL     hw 1022   1.096   0.230   6.952  0.0583  1.5114  0.7606
  256SOL     hw 1023   1.121   0.194   6.808  1.1767 -1.2021  1.5798
  256SOL     vw 1024   1.107   0.254   6.869 -0.2863 -0.0852  0.2294
  257SOL     ow 1025   4.420   0.926   2.672  0.5527  0.8461  0.3323
  257SOL     hw 1026   4.352   0.867   2.704  0.9273 -0.6630 -1.4913
  257SOL     hw 1027   4.376   1.010   2.663 -0.3646  0.5391  1.6891
  257SOL     vw 1028   4.406   0.929   2.675  0.4811  0.6065  0.2707
  258SOL     ow 1029   2.790   5.935   4.807  0.4523 -0.3007  0.0172
  258SOL     hw 1030   2.855   6.000   4.832 -1.8472  2.2482 -0.1286
  258SOL     hw 1031   2.749   5.910   4.890 -0.4743  0.5521 -0.1646
  258SOL     vw 1032   2.793   5.940   4.821  0.0267  0.1481 -0.0260
  259SOL     ow 1033   5.095   2.007   1.243  0.5370  0.5872  0.0361
  259SOL     hw 1034   5.112   1.920   1.279  0.9407 -0.1619 -1.8381
  259SOL     hw 1035   5.178   2.033   1.203 -0.7348 -0.3498 -3.6707
  259SOL     vw 1036   5.108   1.999   1.242  0.4225  0.3647 -0.7003
  260SOL     ow 1037   2.338   6.818   6.908  0.1623 -0.2183  0.2638
  260SOL     hw 1038   2.294   6.757   6.966  0.0434  0.5325  0.9759
  260SOL     hw 1039   2.311   6.904   6.938  0.6146  0.2026 -0.4959
  260SOL     vw 1040   2.329   6.821   6.919  0.2064 -0.0637  0.2575
  261SOL     ow 1041   2.059   1.164   1.410 -0.0597 -0.2559 -0.0145
  261SOL     hw 1042   2.131   1.104   1.390  1.2915  2.2305 -3.9461
  261SOL     hw 1043   2.027   1.192   1.324 -1.6394  3.3255  1.5225
  261SOL     vw 1044   2.064   1.160   1.396 -0.0898  0.5447 -0.3304
  262SOL     ow 1045   6.036   2.161   3.456  0.0162  0.9057 -0.1578
  262SOL     hw 1046   5.959   2.218   3.450  1.3631  2.6487 -1.9680
  262SOL     hw 1047   6.110   2.221   3.459  1.4249 -0.7515 -0.4877
  262SOL     vw 1048   6.036   2.177   3.456  0.3798  0.9171 -0.4401
  263SOL     ow 1049   0.293   4.235   0.688  0.3302  0.6922 -0.4404
  263SOL     hw 1050   0.340   4.260   0.768 -1.7838  2.1225  0.4514
  263SOL     hw 1051   0.248   4.154   0.711  0.4264  0.6277 -0.4796
  263SOL     vw 1052   0.294   4.228   0.701  0.0640  0.8721 -0.3279
  264SOL     ow 1053   0.733   5.002   2.290 -0.8176 -0.4153  0.5043
  264SOL     hw 1054   0.666   5.069   2.307 -0.6983 -0.0299 -0.4859
  264SOL     hw 1055   0.803   5.049   2.245  0.0024 -0.8769  1.2857
  264SOL     vw 1056   0.733   5.017   2.286 -0.6937 -0.4256  0.4768
  265SOL     ow 1057   3.575   0.119   1.353  0.0596 -0.0291 -0.0813
  265SOL     hw 1058   3.644   0.077   1.406 -1.2367 -0.3228  1.4568
  265SOL     hw 1059   3.499   0.061   1.363 -0.5839  0.5717 -1.2990
  265SOL     vw 1060   3.574   0.106   1.361 -0.1962  0.0115 -0.0390
  266SOL     ow 1061   2.708   3.891   0.468 -0.2005  0.2049  0.8988
  266SOL     hw 1062   2.688   3.814   0.520  0.9286 -0.4267  0.4317
  266SOL     hw 1063   2.799   3.879   0.441 -0.3475  1.1629 -0.0973
  266SOL     vw 1064   2.717   3.879   0.471 -0.0710  0.2480  0.7058
  267SOL     ow 1065   1.977   2.041   1.348 -0.0490  0.2663  0.0973
  267SOL     hw 1066   1.887   2.043   1.379  0.0775 -0.4269  0.5211
  267SOL     hw 1067   2.029   2.070   1.423  0.0738  0.8708 -0.2111
  267SOL     vw 1068   1.972   2.045   1.362 -0.0160  0.2545  0.1125
  268SOL     ow 1069   0.727   0.513   6.053  0.5461 -0.3801  0.1727
  268SOL     hw 1070   0.784   0.589   6.070  2.5784 -1.2699 -2.0722
  268SOL     hw 1071   0.702   0.482   6.140 -2.3083  4.0759  1.2621
  268SOL     vw 1072   0.732   0.519   6.067  0.4376  0.0904  0.0203
  269SOL     ow 1073   3.363   2.021   6.573 -0.2843  0.2101  0.7512
  269SOL     hw 1074   3.268   2.024   6.585 -0.3084 -0.5247  0.7934
  269SOL     hw 1075   3.375   1.988   6.484 -0.0691  0.0673  0.8329
  269SOL     vw 1076   3.352   2.017   6.563 -0.2590  0.0944  0.7675
  270SOL     ow 1077   0.476   5.886   0.991 -0.0418  0.0306 -0.3398
  270SOL     hw 1078   0.456   5.876   0.898  0.5111  2.0292 -0.7226
  270SOL     hw 1079   0.409   5.946   1.023  0.2563 -0.0074  0.3588
  270SOL     vw 1080   0.464   5.892   0.983  0.0705  0.2892 -0.2981
  271SOL     ow 1081   2.584   2.849   3.096  0.0386  0.5233  0.2373
  271SOL     hw 1082   2.585   2.920   3.032 -0.4832 -1.0985 -1.6781
  271SOL     hw 1083   2.675   2.841   3.125  0.1935  1.6052  0.1088
  271SOL     vw 1084   2.596   2.857   3.092 -0.0097  0.4523 -0.0324
  272SOL     ow 1085   6.692   6.201   1.776  0.5203 -0.0019  0.0582
  272SOL     hw 1086   6.629   6.254   1.825  0.8276  1.2539 -0.8538
  272SOL     hw 1087   6.743   6.156   1.843  1.8932  2.7644  0.9953
  272SOL     vw 1088   6.690   6.202   1.791  0.7420  0.5286  0.0616
  273SOL     ow 1089   4.682   4.971   5.698  0.7370 -0.2186 -0.3516
  273SOL     hw 1090   4.660   4.942   5.609 -0.4621  2.9258 -1.1957
  273SOL     hw 1091   4.600   4.965   5.746  0.6359  1.0071 -0.3527
  273SOL     vw 1092   4.669   4.966   5.693  0.5653  0.3581 -0.4628
  274SOL     ow 1093   0.339   4.388   3.356 -0.0585 -0.1313 -0.7227
  274SOL     hw 1094   0.374   4.322   3.416 -0.9142 -0.0848 -0.1596
  274SOL     hw 1095   0.245   4.372   3.355 -0.3057  1.1921 -0.4157
  274SOL     vw 1096   0.332   4.377   3.364 -0.2040  0.0491 -0.6078
  275SOL     ow 1097   3.311   0.282   3.214  0.4994  0.4430 -0.4582
  275SOL     hw 1098   3.371   0.348   3.179  3.6300 -1.1501  1.4551
  275SOL     hw 1099   3.329   0.203   3.163  0.7334 -0.3059  0.7447
  275SOL     vw 1100   3.321   0.280   3.202  0.9433  0.1340 -0.0470
  276SOL     ow 1101   2.604   6.897   4.202  0.6446  0.0915 -0.6457
  276SOL     hw 1102   2.543   6.870   4.133 -0.0056 -2.0643  0.6963
  276SOL     hw 1103   2.551   6.901   4.281  1.7457  0.7880  0.0881
  276SOL     vw 1104   2.589   6.894   4.203  0.7042 -0.1009 -0.3715
  277SOL     ow 1105   0.780   0.046   2.588 -0.1082 -0.4052 -0.3949
  277SOL     hw 1106   0.744   0.079   2.670 -0.7635 -1.2365 -0.3352
  277SOL     hw 1107   0.771  -0.049   2.594 -0.7039 -0.4530 -1.6711
  277SOL     vw 1108   0.774   0.038   2.600 -0.2733 -0.5212 -0.5554
  278SOL     ow 1109   2.367   1.565   2.317  0.0708  1.0241  0.1573
  278SOL     hw 1110   2.277   1.537   2.301  0.6676 -0.9346 -0.1090
  278SOL     hw 1111   2.381   1.639   2.258 -1.1410  0.9033 -0.3051
  278SOL     vw 1112   2.357   1.571   2.307 -0.0103  0.7497  0.0612
  279SOL     ow 1113   0.869   4.762   2.415  0.1302  0.7705  0.2496
  279SOL     hw 1114   0.862   4.694   2.482 -1.4310  1.3801  0.7548
  279SOL     hw 1115   0.889   4.714   2.335  2.5125  0.0746  1.1861
  279SOL     vw 1116   0.871   4.747   2.413  0.2385  0.7589  0.4396
  280SOL     ow 1117   5.448   4.060   0.760 -0.4595 -0.4017 -0.8476
  280SOL     hw 1118   5.379   4.123   0.738  0.0142  0.4061 -0.0817
  280SOL     hw 1119   5.439   4.047   0.855  0.2419 -0.5314 -0.7945
  280SOL     vw 1120   5.438   4.066   0.770 -0.3045 -0.3123 -0.7395
  281SOL     ow 1121   3.154   5.974   3.724 -0.0020 -0.2314  0.8633
  281SOL     hw 1122   3.127   5.884   3.739  3.4880 -1.8557 -1.1813
  281SOL     hw 1123   3.134   5.990   3.631  0.4447  0.6691  0.9044
  281SOL     vw 1124   3.148   5.964   3.713  0.5174 -0.3269  0.5988
  282SOL     ow 1125   0.868   6.518   2.009  0.2125 -0.1124  1.1225
  282SOL     hw 1126   0.778   6.523   2.041  0.3642  0.4878  1.4859
  282SOL     hw 1127   0.914   6.466   2.075 -0.2394 -2.0393  0.0072
  282SOL     vw 1128   0.862   6.512   2.022  0.1729 -0.2873  1.0233
  283SOL     ow 1129   6.309   1.192   3.355  0.2537  0.2308  0.2156
  283SOL     hw 1130   6.400   1.163   3.357 -0.2143 -1.4358 -0.6439
  283SOL     hw 1131   6.314   1.286   3.337  1.7962  0.2600  0.6412
  283SOL     vw 1132   6.322   1.200   3.353  0.3953  0.0148  0.1584
  284SOL     ow 1133   0.914   1.518   6.914 -0.0354 -0.1807  0.8468
  284SOL     hw 1134   0.984   1.472   6.960 -1.3849 -1.2239  1.9772
  284SOL     hw 1135   0.849   1.451   6.895 -0.8350  0.7839  0.0364
  284SOL     vw 1136   0.914   1.503   6.918 -0.3189 -0.1910  0.8890
  285SOL     ow 1137   2.718   4.761   2.885  0.1627 -0.1594 -0.2256
  285SOL     hw 1138   2.646   4.702   2.865  0.1240 -0.3677  0.4997
  285SOL     hw 1139   2.740   4.801   2.801 -0.7920 -0.0958 -0.4653
  285SOL     vw 1140   2.711   4.759   2.871  0.0316 -0.1783 -0.1615
  286SOL     ow 1141   5.178   3.764   5.492 -0.0794  0.2470  0.7561
  286SOL     hw 1142   5.122   3.699   5.448  1.4155 -0.6275  0.0656
  286SOL     hw 1143   5.141   3.771   5.580 -1.8573  0.4511  0.0489
  286SOL     vw 1144   5.166   3.756   5.498 -0.1168  0.1584  0.5717
  287SOL     ow 1145   3.600   0.669   6.004  0.2218  0.1601 -0.4738
  287SOL     hw 1146   3.613   0.762   5.987  0.1453  0.2511 -0.0558
  287SOL     hw 1147   3.597   0.628   5.917 -0.1088  0.5950 -0.6681
  287SOL     vw 1148   3.602   0.676   5.990  0.1681  0.2295 -0.4444
  288SOL     ow 1149   4.712   4.139   1.992  0.3603 -0.5065  0.0622
  288SOL     hw 1150   4.704   4.233   2.003  0.5049 -0.1517 -2.3948
  288SOL     hw 1151   4.646   4.102   2.051  0.4115  1.0888  1.1757
  288SOL     vw 1152   4.702   4.146   2.001  0.3860 -0.2491 -0.1150
  289SOL     ow 1153   3.650   6.361   0.457  0.2810 -0.0109  0.6305
  289SOL     hw 1154   3.664   6.277   0.412  1.8732  0.1092  0.8566
  289SOL     hw 1155   3.620   6.336   0.544  2.2783 -0.4459  1.2411
  289SOL     vw 1156   3.648   6.346   0.462  0.7546 -0.0522  0.7409
  290SOL     ow 1157   1.951   4.866   5.038  0.0702 -0.0756 -0.1612
  290SOL     hw 1158   1.972   4.927   4.968  0.5726  0.2456  0.2634
  290SOL     hw 1159   1.918   4.788   4.993  1.1797 -0.1936 -0.7950
  290SOL     vw 1160   1.949   4.864   5.023  0.2829 -0.0486 -0.1886
  291SOL     ow 1161   5.662   1.804   0.448 -0.0660 -0.2285 -0.1176
  291SOL     hw 1162   5.626   1.718   0.425 -0.2807 -0.1182 -0.2018
  291SOL     hw 1163   5.588   1.864   0.436  0.0622 -0.0448  0.0174
  291SOL     vw 1164   5.647   1.801   0.443 -0.0775 -0.1897 -0.1109
  292SOL     ow 1165   6.524   0.614   3.604 -0.0772  0.4765 -0.7379
  292SOL     hw 1166   6.436   0.642   3.581 -0.8720  0.0314  1.4775
  292SOL     hw 1167   6.514   0.522   3.629  0.3140  1.1914  2.5169
  292SOL     vw 1168   6.511   0.606   3.604 -0.1302  0.5121 -0.0162
  293SOL     ow 1169   5.331   6.799   5.234  0.1753  0.6874  0.1156
  293SOL     hw 1170   5.400   6.853   5.274 -0.2708  1.2901  0.0802
  293SOL     hw 1171   5.379   6.725   5.195  0.6171  0.0135  1.8384
  293SOL     vw 1172   5.347   6.796   5.234  0.1748  0.6783  0.3381
  294SOL     ow 1173   6.837   5.376   6.128  0.5056 -0.4269  0.1071
  294SOL     hw 1174   6.785   5.421   6.195  1.1675 -0.3236  0.5567
  294SOL     hw 1175   6.913   5.342   6.175  0.6204 -0.9671 -0.4620
  294SOL     vw 1176   6.840   5.378   6.143  0.6082 -0.4847  0.0911
  295SOL     ow 1177   2.403   6.647   5.455  0.6363  0.5447 -0.0020
  295SOL     hw 1178   2.399   6.577   5.520  0.2601  0.4994 -0.0693
  295SOL     hw 1179   2.458   6.612   5.385 -0.2852 -0.0388 -0.4463
  295SOL     vw 1180   2.410   6.633   5.454  0.4652  0.4616 -0.0694
  296SOL     ow 1181   1.117   5.055   5.791  0.0961 -0.2856  0.4439
  296SOL     hw 1182   1.158   5.096   5.867 -0.4461  1.0220  0.0642
  296SOL     hw 1183   1.089   4.969   5.822  0.5105 -0.0439  1.5209
  296SOL     vw 1184   1.119   5.049   5.805  0.0793 -0.0815  0.5360
  297SOL     ow 1185   6.668   4.147   3.830  0.3982  0.3725 -0.0617
  297SOL     hw 1186   6.725   4.208   3.784  0.0486  0.5808 -0.2185
  297SOL     hw 1187   6.630   4.092   3.762 -2.4113  2.5338 -0.4524
  297SOL     vw 1188   6.670   4.148   3.815 -0.0184  0.6855 -0.1341
  298SOL     ow 1189   5.146   4.421   3.184  0.1398  0.2995  0.2220
  298SOL     hw 1190   5.083   4.382   3.244  1.2100 -1.1905  0.4400
  298SOL     hw 1191   5.211   4.463   3.241  1.5301 -1.7086  0.1881
  298SOL     vw 1192   5.146   4.422   3.200  0.4644 -0.1624  0.2463
  299SOL     ow 1193   0.660   2.483   3.548 -0.0175  0.0142  0.2180
  299SOL     hw 1194   0.750   2.453   3.562 -0.2543 -1.4025 -1.0659
  299SOL     hw 1195   0.660   2.521   3.461 -0.4401  1.0170  0.6384
  299SOL     vw 1196   0.672   2.484   3.539 -0.1045 -0.0404  0.1040
  300SOL     ow 1197   5.954   4.567   6.822 -0.3845 -0.3732 -0.5588
  300SOL     hw 1198   6.019   4.535   6.759  0.7543 -2.6867  1.5848
  300SOL     hw 1199   5.886   4.500   6.823 -0.3342 -0.4381  0.6595
  300SOL     vw 1200   5.954   4.554   6.814 -0.2277 -0.6871 -0.1152
  301SOL     ow 1201   2.394   6.145   0.085  0.0113 -0.3419 -0.6868
  301SOL     hw 1202   2.315   6.157   0.138  1.1613 -1.4049  1.4254
  301SOL     hw 1203   2.461   6.196   0.130  0.6320  0.2642 -2.2474
  301SOL     vw 1204   2.392   6.153   0.098  0.2450 -0.4020 -0.6140
  302SOL     ow 1205   3.215   5.664   2.077 -0.1931  0.2083  0.2116
  302SOL     hw 1206   3.165   5.638   2.000 -1.6964 -0.9303  1.5097
  302SOL     hw 1207   3.178   5.613   2.149  2.8322 -0.6811  1.3097
  302SOL     vw 1208   3.204   5.654   2.076  0.0076 -0.0591  0.5277
  303SOL     ow 1209   4.741   6.674   1.483 -0.4588 -0.3509  0.4954
  303SOL     hw 1210   4.728   6.608   1.551 -2.8663  0.5028  0.9654
  303SOL     hw 1211   4.682   6.745   1.508  1.3722  1.5961 -0.4978
  303SOL     vw 1212   4.731   6.675   1.496 -0.5350  0.0184  0.4263
  304SOL     ow 1213   4.554   6.367   4.054 -0.0755 -0.1522 -0.1955
  304SOL     hw 1214   4.485   6.377   4.119 -0.8700  0.5888 -1.1119
  304SOL     hw 1215   4.614   6.440   4.069  0.8601 -1.1184  0.9688
  304SOL     vw 1216   4.553   6.378   4.064 -0.0570 -0.1822 -0.1628
  305SOL     ow 1217   1.126   0.808   0.481  0.0762 -0.6375  0.3401
  305SOL     hw 1218   1.209   0.759   0.483 -0.9742 -2.5309 -0.0436
  305SOL     hw 1219   1.120   0.841   0.392 -0.2140 -1.7019 -0.0504
  305SOL     vw 1220   1.136   0.806   0.470 -0.1006 -1.0278  0.2379
  306SOL     ow 1221   6.785   2.981   1.967 -0.1106 -0.1077 -0.1805
  306SOL     hw 1222   6.872   2.981   1.927 -0.1128  0.1747 -0.1902
  306SOL     hw 1223   6.743   2.902   1.935 -0.8008  1.0268 -2.2456
  306SOL     vw 1224   6.791   2.971   1.958 -0.2022  0.0794 -0.4542
  307SOL     ow 1225   2.012   4.542   6.727  0.5117  0.3084  0.1293
  307SOL     hw 1226   2.070   4.468   6.742  0.5697 -0.2859 -2.4849
  307SOL     hw 1227   1.954   4.513   6.656 -2.0224  1.4064  1.6171
  307SOL     vw 1228   2.012   4.529   6.719  0.1850  0.3750 -0.0196
  308SOL     ow 1229   1.912   5.746   5.990 -0.0591 -0.2699  0.5482
  308SOL     hw 1230   1.818   5.730   5.981 -0.0675 -0.0832  0.2986
  308SOL     hw 1231   1.922   5.777   6.080 -0.3888  0.7954  0.2271
  308SOL     vw 1232   1.901   5.748   6.001 -0.1038 -0.1047  0.4728
  309SOL     ow 1233   6.365   4.585   1.494 -0.1700  0.6199 -0.6372
  309SOL     hw 1234   6.357   4.623   1.407 -2.2186 -1.5002 -1.4803
  309SOL     hw 1235   6.275   4.582   1.527  0.0904 -1.9264  0.0329
  309SOL     vw 1236   6.352   4.590   1.487 -0.4060  0.0043 -0.6601
  310SOL     ow 1237   5.904   5.120   0.211 -0.1086  0.2396  0.2030
  310SOL     hw 1238   5.833   5.144   0.151  0.3365 -0.4350 -0.6231
  310SOL     hw 1239   5.949   5.203   0.229 -0.9323  0.6277  0.5144
  310SOL     vw 1240   5.900   5.134   0.205 -0.1585  0.2017  0.1351
  311SOL     ow 1241   4.209   2.050   2.901 -0.0307 -0.8693 -0.5785
  311SOL     hw 1242   4.276   2.042   2.968 -0.8357  0.5273  0.4473
  311SOL     hw 1243   4.250   2.103   2.832  0.2130 -0.7703 -0.3590
  311SOL     vw 1244   4.223   2.056   2.900 -0.1047 -0.6719 -0.4141
  312SOL     ow 1245   0.088   3.402   0.837 -0.2558 -0.1661 -0.5753
  312SOL     hw 1246   0.003   3.446   0.836 -0.0382  0.3843  1.2934
  312SOL     hw 1247   0.144   3.457   0.783 -0.2529  1.3556  0.9001
  312SOL     vw 1248   0.084   3.415   0.830 -0.2267  0.1073 -0.1341
  313SOL     ow 1249   1.651   3.286   3.191 -0.4861  0.2496  0.1384
  313SOL     hw 1250   1.672   3.372   3.156  0.9517 -0.6401 -1.3518
  313SOL     hw 1251   1.733   3.254   3.227 -1.1424 -0.2738  1.2271
  313SOL     vw 1252   1.664   3.293   3.191 -0.3830  0.0631  0.0854
  314SOL     ow 1253   2.493   6.504   4.665  0.5688 -0.1746  0.2532
  314SOL     hw 1254   2.438   6.427   4.677  0.9042 -0.1045  2.9094
  314SOL     hw 1255   2.516   6.503   4.572 -0.7599 -2.3323 -0.1283
  314SOL     vw 1256   2.489   6.494   4.654  0.4377 -0.4499  0.5536
  315SOL     ow 1257   5.853   6.141   3.572 -0.0015  0.1345  0.2766
  315SOL     hw 1258   5.855   6.235   3.591 -2.6383  0.4821 -0.8269
  315SOL     hw 1259   5.846   6.100   3.658  1.7084  0.8708  0.8117
  315SOL     vw 1260   5.852   6.148   3.586 -0.1235  0.2775  0.2017
  316SOL     ow 1261   0.267   1.070   4.916  0.0412 -0.0245  0.8123
  316SOL     hw 1262   0.227   1.148   4.878 -0.6043 -1.0184 -0.6404
  316SOL     hw 1263   0.361   1.084   4.907 -0.0302 -1.0479 -3.1424
  316SOL     vw 1264   0.274   1.082   4.910 -0.0534 -0.2906  0.0987
  317SOL     ow 1265   5.685   5.302   0.844  0.4914  0.2788  0.4338
  317SOL     hw 1266   5.674   5.312   0.939  0.4916  1.8336  0.3080
  317SOL     hw 1267   5.615   5.357   0.807 -0.3321 -1.3322 -0.4942
  317SOL     vw 1268   5.674   5.311   0.851  0.3827  0.2713  0.2947
  318SOL     ow 1269   6.307   1.474   1.370 -0.2364  0.3506  1.1649
  318SOL     hw 1270   6.271   1.442   1.287 -1.2706  1.4074  1.1834
  318SOL     hw 1271   6.396   1.503   1.348 -0.6376  0.9751  0.3418
  318SOL     vw 1272   6.314   1.474   1.356 -0.4261  0.5724  1.0587
  319SOL     ow 1273   3.852   1.432   5.157  0.1110  0.1885  0.1697
  319SOL     hw 1274   3.908   1.486   5.101  2.1084 -0.1072  1.7829
  319SOL     hw 1275   3.841   1.350   5.109 -1.9481  1.4567 -1.7487
  319SOL     vw 1276   3.858   1.428   5.143  0.1029  0.3168  0.1295
  320SOL     ow 1277   5.750   0.635   5.098  0.1898 -0.7625 -0.1034
  320SOL     hw 1278   5.670   0.591   5.128  0.2177 -0.1686  0.8925
  320SOL     hw 1279   5.772   0.591   5.016  1.0242 -3.6298  1.5132
  320SOL     vw 1280   5.743   0.623   5.091  0.3035 -1.0624  0.2413
  321SOL     ow 1281   1.014   2.145   5.281  0.0685 -0.3726  0.0792
  321SOL     hw 1282   1.057   2.229   5.298  1.8015 -1.1080 -0.4807
  321SOL     hw 1283   0.999   2.108   5.368  0.3793 -0.0061  0.2924
  321SOL     vw 1284   1.017   2.151   5.295  0.3381 -0.4213  0.0336
  322SOL     ow 1285   6.617   0.661   3.905  0.2382  0.6370 -0.2955
  322SOL     hw 1286   6.640   0.598   3.973  2.4829  0.8448 -0.7829
  322SOL     hw 1287   6.549   0.716   3.944  0.0360 -0.4961  1.0188
  322SOL     vw 1288   6.611   0.660   3.919  0.5078  0.5150 -0.1864
  323SOL     ow 1289   6.434   6.103   6.237 -0.2330 -0.3782 -0.5413
  323SOL     hw 1290   6.396   6.153   6.166 -0.0127 -0.3329 -0.6284
  323SOL     hw 1291   6.499   6.162   6.276 -0.5061 -0.3238 -0.1659
  323SOL     vw 1292   6.438   6.117   6.233 -0.2401 -0.3650 -0.5033
  324SOL     ow 1293   5.432   0.633   6.656 -0.6091 -0.1951 -0.0922
  324SOL     hw 1294   5.494   0.570   6.693  0.7380  1.4130  0.4945
  324SOL     hw 1295   5.357   0.630   6.716  0.2639  0.1581  1.0568
  324SOL     vw 1296   5.430   0.624   6.669 -0.3161  0.0637  0.1371
  325SOL     ow 1297   6.088   0.048   5.732  0.3252  0.2331 -0.5486
  325SOL     hw 1298   6.005   0.045   5.685  0.2081  0.1555 -0.3370
  325SOL     hw 1299   6.133   0.124   5.696 -0.0403  0.5598 -0.3257
  325SOL     vw 1300   6.083   0.057   5.721  0.2613  0.2660 -0.4911
  326SOL     ow 1301   5.775   1.956   5.812  0.3405  0.6277 -0.7129
  326SOL     hw 1302   5.706   1.986   5.871 -0.8459 -0.7710 -1.3219
  326SOL     hw 1303   5.817   2.036   5.781  2.2971  1.4351  3.3914
  326SOL     vw 1304   5.771   1.970   5.816  0.4420  0.5497 -0.2518
  327SOL     ow 1305   0.611   2.056   6.373  0.0111  0.1865  0.7015
  327SOL     hw 1306   0.525   2.080   6.407 -0.2048  1.0970 -0.4248
  327SOL     hw 1307   0.594   1.989   6.307  0.2555 -0.2768  1.1051
  327SOL     vw 1308   0.598   2.050   6.369  0.0148  0.2456  0.6061
  328SOL     ow 1309   4.258   4.034   6.910  0.3107 -0.5307 -0.0784
  328SOL     hw 1310   4.354   4.037   6.911  0.2930  0.8465 -0.4949
  328SOL     hw 1311   4.233   4.091   6.837 -0.8503  0.8029  1.2743
  328SOL     vw 1312   4.268   4.042   6.900  0.1552 -0.1731  0.0453
  329SOL     ow 1313   6.573   0.476   5.766 -0.3681  0.9041 -0.2749
  329SOL     hw 1314   6.528   0.411   5.711  0.7918 -0.1886  0.0132
  329SOL     hw 1315   6.503   0.524   5.809 -1.2679 -0.1829 -0.4868
  329SOL     vw 1316   6.558   0.474   5.764 -0.3335  0.6165 -0.2651
  330SOL     ow 1317   5.900   4.134   6.345  0.3543  0.5851  0.1324
  330SOL     hw 1318   5.951   4.203   6.388  0.0358  0.8272  0.1322
  330SOL     hw 1319   5.904   4.156   6.252  1.5742 -0.2996 -0.0436
  330SOL     vw 1320   5.907   4.146   6.338  0.4733  0.5004  0.1092
  331SOL     ow 1321   2.532   3.579   4.500  0.5276 -0.3650 -0.1448
  331SOL     hw 1322   2.512   3.487   4.485  3.0563 -0.6448 -2.6871
  331SOL     hw 1323   2.505   3.624   4.419  2.3757  0.4760 -0.3710
  331SOL     vw 1324   2.526   3.573   4.487  1.1052 -0.2910 -0.5100
  332SOL     ow 1325   3.991   4.210   4.268  0.5638 -0.4624 -0.3834
  332SOL     hw 1326   4.064   4.257   4.308 -0.1488 -1.2919  2.0270
  332SOL     hw 1327   4.020   4.119   4.263  1.1159 -0.2377 -3.0723
  332SOL     vw 1328   4.004   4.204   4.272  0.5424 -0.5424 -0.4201
  333SOL     ow 1329   5.735   4.931   6.563  0.8379 -0.5565  0.4532
  333SOL     hw 1330   5.686   4.869   6.617  0.1923 -0.4963 -0.0461
  333SOL     hw 1331   5.779   4.877   6.498 -0.0857 -0.4801 -0.2631
  333SOL     vw 1332   5.735   4.916   6.562  0.6311 -0.5386  0.2928
  334SOL     ow 1333   2.358   0.116   6.251 -0.5504 -0.3695 -0.1451
  334SOL     hw 1334   2.339   0.025   6.226  0.6929 -0.6936  0.0017
  334SOL     hw 1335   2.393   0.156   6.172 -0.4428 -0.2188 -0.0211
  334SOL     vw 1336   2.360   0.109   6.237 -0.3722 -0.3924 -0.1092
  335SOL     ow 1337   0.257   2.778   0.851 -0.3782 -0.7073 -0.2659
  335SOL     hw 1338   0.336   2.747   0.807 -0.3146  0.7682 -1.2545
  335SOL     hw 1339   0.209   2.698   0.874  0.8657 -1.5858 -0.6123
  335SOL     vw 1340   0.261   2.763   0.848 -0.2057 -0.6284 -0.4420
  336SOL     ow 1341   4.567   0.465   1.079  0.3515  0.5779 -0.3527
  336SOL     hw 1342   4.497   0.525   1.053  0.8343  1.1904 -0.2681
  336SOL     hw 1343   4.615   0.512   1.148  0.3193 -0.1902  0.2092
  336SOL     vw 1344   4.564   0.479   1.085  0.4108  0.5573 -0.2674
  337SOL     ow 1345   3.249   2.848   1.531 -0.5956 -0.0391  0.2712
  337SOL     hw 1346   3.324   2.799   1.498 -0.6061  1.1012 -1.5372
  337SOL     hw 1347   3.238   2.817   1.621 -0.0288 -2.6524 -0.4832
  337SOL     vw 1348   3.257   2.837   1.539 -0.5223 -0.2337 -0.0669
  338SOL     ow 1349   5.994   2.352   6.134  0.4402 -0.4992  0.4734
  338SOL     hw 1350   5.951   2.438   6.139  0.8860 -0.1672 -0.9684
  338SOL     hw 1351   6.056   2.361   6.061  0.2403 -2.1612  0.0793
  338SOL     vw 1352   5.997   2.365   6.125  0.4728 -0.6747  0.2313
  339SOL     ow 1353   4.612   5.163   2.446 -0.0381 -0.1447 -0.2512
  339SOL     hw 1354   4.609   5.135   2.355  0.6687  1.1423 -0.6935
  339SOL     hw 1355   4.696   5.130   2.479  0.2585  0.4233 -0.4284
  339SOL     vw 1356   4.623   5.155   2.438  0.0942  0.1001 -0.3331
  340SOL     ow 1357   2.174   4.865   6.737 -0.0108  0.2083 -0.1362
  340SOL     hw 1358   2.186   4.797   6.802 -1.1674  1.4700  1.4828
  340SOL     hw 1359   2.253   4.920   6.745  0.7808 -0.7150 -1.2366
  340SOL     vw 1360   2.186   4.864   6.747 -0.0591  0.2530 -0.0679
  341SOL     ow 1361   6.348   5.161   6.639 -0.0864 -0.0201  0.3704
  341SOL     hw 1362   6.334   5.183   6.731 -0.5469  1.1014  0.0531
  341SOL     hw 1363   6.385   5.240   6.601  1.7380 -1.0355 -0.0676
  341SOL     vw 1364   6.351   5.174   6.646  0.0932 -0.0060  0.2708
  342SOL     ow 1365   3.586   5.601   0.395 -0.1738  0.3720 -0.4482
  342SOL     hw 1366   3.585   5.652   0.475 -0.7150 -0.4754  0.0993
  342SOL     hw 1367   3.566   5.512   0.423  2.6307 -0.5659 -1.0937
  342SOL     vw 1368   3.583   5.596   0.409  0.1247  0.1364 -0.4611
  343SOL     ow 1369   3.997   1.466   0.760  0.1008 -0.2638 -0.4490
  343SOL     hw 1370   4.008   1.433   0.671 -1.0544 -0.3561 -0.5741
  343SOL     hw 1371   3.906   1.445   0.782  0.4660 -0.5305  0.8762
  343SOL     vw 1372   3.986   1.459   0.751 -0.0035 -0.3112 -0.2907
  344SOL     ow 1373   2.776   0.526   3.455 -0.0176  0.1196 -0.3207
  344SOL     hw 1374   2.720   0.453   3.429  0.8852 -0.5238 -0.5292
  344SOL     hw 1375   2.853   0.519   3.398  1.8164 -1.0408  2.0947
  344SOL     vw 1376   2.779   0.515   3.444  0.3436 -0.1184 -0.0293
  345SOL     ow 1377   5.274   0.530   1.942 -0.9524 -0.6862 -0.2925
  345SOL     hw 1378   5.255   0.622   1.959 -2.6549 -0.9970 -0.3498
  345SOL     hw 1379   5.298   0.527   1.849 -1.7119 -0.3908 -0.5106
  345SOL     vw 1380   5.275   0.542   1.932 -1.2772 -0.6882 -0.3289
  346SOL     ow 1381   5.960   0.280   1.599  0.0993  0.3960  0.2708
  346SOL     hw 1382   5.986   0.363   1.561  0.7464 -0.0258 -0.2365
  346SOL     hw 1383   6.043   0.234   1.615 -0.1827  0.3434  1.6911
  346SOL     vw 1384   5.974   0.285   1.596  0.1473  0.3334  0.3913
  347SOL     ow 1385   0.321   2.547   3.828  0.7373 -1.1349 -0.0637
  347SOL     hw 1386   0.306   2.619   3.767  1.4762 -0.6866  0.2755
  347SOL     hw 1387   0.236   2.532   3.869 -0.2592 -2.6730 -2.5019
  347SOL     vw 1388   0.308   2.554   3.825  0.7033 -1.2786 -0.3407
  348SOL     ow 1389   2.081   6.754   5.488 -0.6735  0.2787 -0.3603
  348SOL     hw 1390   2.032   6.705   5.554 -1.2663  0.2476 -0.8159
  348SOL     hw 1391   2.021   6.762   5.414 -0.3787  1.2030 -0.5098
  348SOL     vw 1392   2.067   6.749   5.487 -0.7129  0.3965 -0.4401
  349SOL     ow 1393   4.162   4.889   0.047  0.1728 -0.4567  0.7242
  349SOL     hw 1394   4.166   4.967   0.103 -0.3800 -0.2309  0.4555
  349SOL     hw 1395   4.231   4.902  -0.017 -2.5647  1.9837 -2.0750
  349SOL     vw 1396   4.172   4.901   0.046 -0.2611 -0.1051  0.3195
  350SOL     ow 1397   5.306   5.963   4.848 -0.3955  0.7166  0.5126
  350SOL     hw 1398   5.358   6.039   4.822  0.4826 -0.7420 -2.4625
  350SOL     hw 1399   5.368   5.906   4.893 -0.6916  1.0647  1.3914
  350SOL     vw 1400   5.321   5.966   4.851 -0.3188  0.5701  0.2360
  351SOL     ow 1401   3.978   1.401   6.871 -0.1868 -0.0425 -0.4008
  351SOL     hw 1402   3.973   1.305   6.872 -1.0895 -0.0387 -1.8580
  351SOL     hw 1403   3.994   1.425   6.962  2.1636 -1.6614 -0.3022
  351SOL     vw 1404   3.980   1.391   6.883  0.0043 -0.2556 -0.5801
  352SOL     ow 1405   1.274   5.933   4.245  0.4872 -0.1106  0.2462
  352SOL     hw 1406   1.224   6.012   4.225 -0.9044 -1.0699 -0.2232
  352SOL     hw 1407   1.361   5.965   4.270  0.1519  1.5266 -0.5461
  352SOL     vw 1408   1.279   5.947   4.245  0.2594 -0.0215  0.0796
  353SOL     ow 1409   1.200   2.199   1.102  0.3614 -0.1924 -0.8760
  353SOL     hw 1410   1.228   2.180   1.012 -0.9093 -1.6967 -0.9855
  353SOL     hw 1411   1.162   2.287   1.096 -0.4597 -0.5932 -2.0170
  353SOL     vw 1412   1.199   2.208   1.089  0.0854 -0.4437 -1.0410
  354SOL     ow 1413   6.402   0.960   6.864  0.1727 -0.2084 -0.2986
  354SOL     hw 1414   6.454   1.040   6.868  0.2971 -0.3560  1.9970
  354SOL     hw 1415   6.313   0.988   6.884  0.3225 -0.6886  1.1577
  354SOL     vw 1416   6.397   0.974   6.867  0.2089 -0.2912  0.1965
  355SOL     ow 1417   3.087   1.876   3.214 -0.5485  0.0801 -0.3593
  355SOL     hw 1418   3.005   1.877   3.262 -0.0940  0.9571  0.4281
  355SOL     hw 1419   3.109   1.968   3.201  1.1796 -0.0757  0.9937
  355SOL     vw 1420   3.079   1.888   3.218 -0.2607  0.1753 -0.0770
  356SOL     ow 1421   1.428   1.339   2.758 -0.2079  0.1296  0.0028
  356SOL     hw 1422   1.420   1.294   2.842  1.0928 -0.0615  0.0416
  356SOL     hw 1423   1.460   1.426   2.781 -2.3966  1.0437 -0.0989
  356SOL     vw 1424   1.431   1.345   2.772 -0.3251  0.2250 -0.0054
  357SOL     ow 1425   5.663   5.819   2.754 -0.3411  0.8239  0.1447
  357SOL     hw 1426   5.642   5.903   2.714 -1.6005 -0.1964 -1.4677
  357SOL     hw 1427   5.583   5.767   2.745  0.6162 -0.7852  0.4921
  357SOL     vw 1428   5.650   5.823   2.748 -0.3810  0.4768 -0.0222
  358SOL     ow 1429   2.206   5.889   4.692 -0.1190  0.4198  0.1666
  358SOL     hw 1430   2.248   5.842   4.764 -0.0218 -0.0343 -0.1835
  358SOL     hw 1431   2.274   5.895   4.624 -1.3904 -2.8914 -1.6016
  358SOL     vw 1432   2.221   5.884   4.692 -0.2741 -0.0768 -0.1130
  359SOL     ow 1433   5.702   2.539   4.269 -0.5906 -0.6619  0.3925
  359SOL     hw 1434   5.712   2.448   4.240 -1.6757 -0.5644 -0.3509
  359SOL     hw 1435   5.779   2.555   4.324 -0.6077 -2.1627  0.8994
  359SOL     vw 1436   5.714   2.529   4.273 -0.7360 -0.8471  0.3612
  360SOL     ow 1437   2.808   2.937   4.344 -0.1648 -0.2333  0.3690
  360SOL     hw 1438   2.725   2.985   4.344  0.7015  1.7303 -3.7508
  360SOL     hw 1439   2.784   2.848   4.316 -0.9732  0.3151 -0.8126
  360SOL     vw 1440   2.794   2.931   4.340 -0.1572  0.0980 -0.3302
  361SOL     ow 1441   3.226   3.823   1.072  0.1644 -0.3186 -0.3157
  361SOL     hw 1442   3.170   3.746   1.089 -0.3652 -0.2724 -1.6920
  361SOL     hw 1443   3.315   3.791   1.085  0.0208 -1.5129 -1.9690
  361SOL     vw 1444   3.230   3.808   1.076  0.0757 -0.4700 -0.7154
  362SOL     ow 1445   0.831   5.622   3.603 -0.1125 -0.0838  0.2902
  362SOL     hw 1446   0.885   5.558   3.556 -0.8884 -1.9197  1.7854
  362SOL     hw 1447   0.817   5.583   3.689 -1.6254  1.5715  0.8512
  362SOL     vw 1448   0.836   5.608   3.608 -0.4145 -0.1075  0.5616
  363SOL     ow 1449   6.609   2.909   2.253  0.6250  0.2493 -0.3080
  363SOL     hw 1450   6.516   2.911   2.275  0.6779  1.9955 -0.0471
  363SOL     hw 1451   6.654   2.907   2.338  0.8204  0.5673 -0.4024
  363SOL     vw 1452   6.602   2.909   2.267  0.6578  0.5218 -0.2861
  364SOL     ow 1453   3.058   0.179   3.302  0.2924 -0.0433 -0.2477
  364SOL     hw 1454   3.029   0.095   3.337  1.6264 -0.5625 -0.3196
  364SOL     hw 1455   3.008   0.191   3.221  1.5769 -1.8265 -1.3750
  364SOL     vw 1456   3.048   0.170   3.296  0.6378 -0.3471 -0.4059
  365SOL     ow 1457   1.702   6.660   6.620 -0.1539  0.2431  0.2226
  365SOL     hw 1458   1.710   6.592   6.553 -2.8564 -2.5871  2.4367
  365SOL     hw 1459   1.788   6.662   6.662  0.5330 -0.4205 -1.0860
  365SOL     vw 1460   1.714   6.651   6.617 -0.4199 -0.2179  0.3419
  366SOL     ow 1461   1.403   6.181   3.342 -0.5061 -0.0349 -0.4841
  366SOL     hw 1462   1.398   6.224   3.256  1.7922 -0.7403 -1.0526
  366SOL     hw 1463   1.393   6.253   3.405  0.3248  0.9140 -1.3912
  366SOL     vw 1464   1.401   6.196   3.339 -0.0933 -0.0029 -0.6788
  367SOL     ow 1465   4.514   4.517   3.847 -0.1025  0.1747  0.5915
  367SOL     hw 1466   4.511   4.608   3.816  1.1419 -0.2708 -0.9541
  367SOL     hw 1467   4.424   4.500   3.877 -0.6622  1.5372 -0.1749
  367SOL     vw 1468   4.501   4.527   3.847 -0.0122  0.2956  0.2867
  368SOL     ow 1469   1.181   1.797   3.344 -0.2185 -0.5066  0.0201
  368SOL     hw 1470   1.252   1.818   3.283  0.1093  1.3871  0.9736
  368SOL     hw 1471   1.108   1.772   3.288  0.0611  1.1716 -1.1879
  368SOL     vw 1472   1.181   1.796   3.329 -0.1384 -0.0353 -0.0135
  369SOL     ow 1473   5.917   4.176   3.449  0.0221 -0.0703  0.4229
  369SOL     hw 1474   5.955   4.262   3.433  1.0484 -1.0281 -3.5156
  369SOL     hw 1475   5.886   4.179   3.539 -0.0708  4.4068  0.4445
  369SOL     vw 1476   5.918   4.187   3.459  0.1450  0.3941 -0.0939
  370SOL     ow 1477   6.771   3.751   2.879 -0.3919  0.0347 -0.0663
  370SOL     hw 1478   6.847   3.776   2.931 -1.0350 -0.7668  1.3110
  370SOL     hw 1479   6.697   3.760   2.939 -1.1581 -0.9737 -0.8249
  370SOL     vw 1480   6.771   3.756   2.894 -0.5777 -0.2041  0.0151
  371SOL     ow 1481   6.449   3.621   4.879 -0.0174 -0.5251  0.2160
  371SOL     hw 1482   6.354   3.606   4.886  0.1134 -0.9117  1.3971
  371SOL     hw 1483   6.465   3.698   4.933  0.2983 -0.2560 -0.2600
  371SOL     vw 1484   6.438   3.629   4.887  0.0412 -0.5405  0.3092
  372SOL     ow 1485   2.856   5.826   5.804 -0.3377 -0.4956 -0.0101
  372SOL     hw 1486   2.921   5.764   5.838  1.0544  1.1136  0.4490
  372SOL     hw 1487   2.786   5.824   5.869  0.9457  0.3610  1.4982
  372SOL     vw 1488   2.856   5.818   5.817  0.0154 -0.1705  0.2496
  373SOL     ow 1489   1.379   2.910   0.326 -0.1652  0.0546 -0.0892
  373SOL     hw 1490   1.463   2.954   0.336  0.7817 -1.4512 -1.0793
  373SOL     hw 1491   1.350   2.933   0.238 -0.5341  0.1098  0.0428
  373SOL     vw 1492   1.386   2.919   0.316 -0.0889 -0.1367 -0.2024
  374SOL     ow 1493   1.428   3.478   5.213  0.2099 -0.2902  0.0060
  374SOL     hw 1494   1.434   3.475   5.118 -1.3244 -2.2741 -0.1213
  374SOL     hw 1495   1.516   3.500   5.243  1.3681 -2.0673 -1.8309
  374SOL     vw 1496   1.440   3.480   5.204  0.1603 -0.7863 -0.2532
  375SOL     ow 1497   1.969   5.947   4.479  0.4467  0.6864  0.4186
  375SOL     hw 1498   1.991   5.913   4.392  0.3632 -3.9155  1.9152
  375SOL     hw 1499   2.000   6.038   4.478  2.4295  0.1912 -3.6360
  375SOL     vw 1500   1.976   5.955   4.467  0.6973  0.0141  0.0811
  376SOL     ow 1501   5.053   2.532   6.256 -0.7340 -0.0138  0.3498
  376SOL     hw 1502   5.117   2.463   6.239 -0.7053 -0.0545  0.6208
  376SOL     hw 1503   5.089   2.609   6.212  0.9228  0.7139  2.7577
  376SOL     vw 1504   5.066   2.533   6.248 -0.5114  0.0770  0.7033
  377SOL     ow 1505   3.997   5.787   3.001  0.5847 -0.7048 -0.0088
  377SOL     hw 1506   3.928   5.726   3.028 -0.1225  0.2355  0.3594
  377SOL     hw 1507   3.997   5.782   2.906 -0.1855 -0.5242 -0.0261
  377SOL     vw 1508   3.988   5.778   2.992  0.3897 -0.5572  0.0374
  378SOL     ow 1509   6.541   6.400   2.708 -0.0478 -0.3417  0.3781
  378SOL     hw 1510   6.504   6.417   2.794 -0.5240  1.1804 -0.0896
  378SOL     hw 1511   6.466   6.390   2.650  0.2680 -0.9432  0.0546
  378SOL     vw 1512   6.527   6.401   2.712 -0.0689 -0.2201  0.2738
  379SOL     ow 1513   5.725   1.354   6.871  0.4918  0.4436 -0.2263
  379SOL     hw 1514   5.767   1.268   6.876 -0.4017  0.0257  0.4362
  379SOL     hw 1515   5.777   1.411   6.928 -0.0757 -0.1800  0.9541
  379SOL     vw 1516   5.737   1.350   6.879  0.2990  0.3061  0.0169
  380SOL     ow 1517   3.788   6.316   3.536 -0.2202  0.1444  0.7677
  380SOL     hw 1518   3.863   6.261   3.560  0.0733  0.9255  1.6720
  380SOL     hw 1519   3.824   6.383   3.478 -0.0448  0.9906  1.8227
  380SOL     vw 1520   3.803   6.317   3.532 -0.1583  0.3591  1.0262
  381SOL     ow 1521   6.705   5.608   4.258 -0.1252 -0.0786  0.8164
  381SOL     hw 1522   6.613   5.619   4.282 -1.0471  0.0592 -2.2828
  381SOL     hw 1523   6.706   5.530   4.202  1.7329 -0.3525  1.1716
  381SOL     vw 1524   6.693   5.599   4.254 -0.0017 -0.0963  0.4542
  382SOL     ow 1525   5.488   0.783   0.936 -0.2480 -0.5542 -0.4338
  382SOL     hw 1526   5.460   0.719   1.000 -0.3057 -0.2678 -0.1684
  382SOL     hw 1527   5.408   0.807   0.888 -0.9131  1.6557  1.5576
  382SOL     vw 1528   5.474   0.778   0.938 -0.3436 -0.2249 -0.1360
  383SOL     ow 1529   3.599   4.844   6.368  0.7320 -0.2034 -0.4660
  383SOL     hw 1530   3.677   4.797   6.339  1.2667  1.3237 -1.6419
  383SOL     hw 1531   3.633   4.915   6.422 -0.0271 -0.7778  0.8143
  383SOL     vw 1532   3.614   4.847   6.371  0.7023 -0.0775 -0.4523
  384SOL     ow 1533   5.346   5.437   5.359 -0.4155  0.6115 -0.2699
  384SOL     hw 1534   5.253   5.454   5.374 -0.7775 -1.3216 -0.1558
  384SOL     hw 1535   5.348   5.381   5.281  0.5172 -0.7516  0.6908
  384SOL     vw 1536   5.334   5.432   5.351 -0.3405  0.1764 -0.1283
  385SOL     ow 1537   3.835   2.116   3.713 -0.0869  0.1417  0.4525
  385SOL     hw 1538   3.799   2.029   3.695  1.0311 -0.2719  0.1089
  385SOL     hw 1539   3.778   2.176   3.666 -1.3650 -0.3156  1.3647
  385SOL     vw 1540   3.823   2.113   3.704 -0.1080  0.0268  0.5274
  386SOL     ow 1541   4.837   1.811   2.707  0.0713  0.2372  0.5452
  386SOL     hw 1542   4.761   1.811   2.766 -1.7838  1.0392 -1.6804
  386SOL     hw 1543   4.861   1.903   2.698 -0.1942  0.2266 -0.4974
  386SOL     vw 1544   4.830   1.823   2.713 -0.2084  0.3417  0.1138
  387SOL     ow 1545   4.132   1.549   6.733 -0.0819  0.1788 -0.0111
  387SOL     hw 1546   4.129   1.632   6.780  0.2927 -0.0732  0.4629
  387SOL     hw 1547   4.062   1.497   6.771 -0.6900  0.4717 -0.6971
  387SOL     vw 1548   4.123   1.553   6.744 -0.1128  0.1842 -0.0391
  388SOL     ow 1549   0.071   1.856   1.838 -0.5844  0.1067  0.3784
  388SOL     hw 1550   0.137   1.850   1.768 -0.9057 -1.3303  0.1699
  388SOL     hw 1551  -0.012   1.868   1.791 -0.7838 -0.7254  0.5039
  388SOL     vw 1552   0.069   1.856   1.822 -0.6531 -0.1926  0.3675
  389SOL     ow 1553   5.046   3.728   0.101 -0.1478  0.0312 -0.0827
  389SOL     hw 1554   5.127   3.773   0.126 -1.5369  2.1888  0.7600
  389SOL     hw 1555   5.058   3.639   0.134  2.4462 -0.1581 -1.2611
  389SOL     vw 1556   5.058   3.722   0.109  0.0114  0.2909 -0.1270
  390SOL     ow 1557   5.289   0.775   5.860 -0.1269 -1.0332 -0.2772
  390SOL     hw 1558   5.285   0.837   5.932  0.0558 -2.5861  1.1431
  390SOL     hw 1559   5.216   0.716   5.875 -0.1973 -1.2825 -1.4837
  390SOL     vw 1560   5.279   0.775   5.871 -0.1121 -1.2709 -0.2491
  391SOL     ow 1561   5.389   2.724   3.796  0.3514 -0.5799 -0.2845
  391SOL     hw 1562   5.311   2.720   3.852  1.5850 -2.0778  1.4789
  391SOL     hw 1563   5.394   2.637   3.756  0.7081 -0.2517 -0.9614
  391SOL     vw 1564   5.380   2.712   3.798  0.5615 -0.7342 -0.1411
  392SOL     ow 1565   2.009   4.554   1.303  0.4726 -0.0224  0.2680
  392SOL     hw 1566   1.928   4.506   1.317  0.7761 -0.3420  0.9779
  392SOL     hw 1567   2.008   4.623   1.370  1.3261 -0.7466  1.0507
  392SOL     vw 1568   1.998   4.557   1.314  0.6253 -0.1602  0.4650
  393SOL     ow 1569   5.229   5.531   1.234 -0.2294 -0.4724 -0.2359
  393SOL     hw 1570   5.192   5.618   1.247 -0.4528 -0.5154 -0.5750
  393SOL     hw 1571   5.214   5.511   1.142 -0.6139 -1.0614 -0.0572
  393SOL     vw 1572   5.222   5.540   1.224 -0.3097 -0.5558 -0.2570
  394SOL     ow 1573   6.684   6.016   0.745 -0.5895 -0.3588  0.1842
  394SOL     hw 1574   6.618   5.960   0.786 -1.6903  0.2858 -0.6645
  394SOL     hw 1575   6.720   6.067   0.817 -3.2624  1.5470  0.2989
  394SOL     vw 1576   6.680   6.015   0.760 -1.0872 -0.0222  0.0874
  395SOL     ow 1577   2.076   6.297   1.121 -0.0897  0.1496  0.4759
  395SOL     hw 1578   2.021   6.219   1.115 -0.7865  0.6506  0.3402
  395SOL     hw 1579   2.096   6.319   1.030 -0.1054  0.2897  0.5075
  395SOL     vw 1580   2.072   6.289   1.108 -0.1836  0.2341  0.4622
  396SOL     ow 1581   2.006   5.849   5.695 -0.4585 -0.0566 -0.3987
  396SOL     hw 1582   1.950   5.926   5.681 -2.1693 -1.4294 -1.4178
  396SOL     hw 1583   2.073   5.857   5.627 -0.6580  0.4943 -0.5438
  396SOL     vw 1584   2.007   5.860   5.684 -0.7105 -0.1650 -0.5522
  397SOL     ow 1585   1.212   1.555   1.308  0.2493 -0.4232 -0.2100
  397SOL     hw 1586   1.225   1.488   1.242  1.0851 -0.1737 -0.3148
  397SOL     hw 1587   1.291   1.610   1.303 -0.7382  1.0155 -0.6520
  397SOL     vw 1588   1.224   1.553   1.299  0.2293 -0.2005 -0.2822
  398SOL     ow 1589   2.198   6.836   5.244 -0.6270  0.3087 -0.0571
  398SOL     hw 1590   2.261   6.811   5.177 -1.2298 -0.0987 -0.4845
  398SOL     hw 1591   2.114   6.843   5.198 -0.8106  1.3532  0.4020
  398SOL     vw 1592   2.195   6.834   5.229 -0.7306  0.3929 -0.0532
  399SOL     ow 1593   4.396   6.654   2.610 -0.1366 -0.3869 -0.5440
  399SOL     hw 1594   4.425   6.605   2.687 -0.1888  0.8009  0.2514
  399SOL     hw 1595   4.435   6.741   2.620 -0.5858 -0.0425 -1.5915
  399SOL     vw 1596   4.405   6.659   2.621 -0.2024 -0.1848 -0.5772
  400SOL     ow 1597   6.154   1.877   4.123  0.3504  0.4669  0.3853
  400SOL     hw 1598   6.131   1.914   4.208  0.8918  1.0573  0.2917
  400SOL     hw 1599   6.204   1.798   4.143  0.9279  0.8855  0.6381
  400SOL     vw 1600   6.158   1.872   4.137  0.4976  0.6000  0.4063
  401SOL     ow 1601   6.760   0.686   5.892  0.2876 -0.1159 -0.0876
  401SOL     hw 1602   6.789   0.706   5.981 -1.4479  2.4545  0.0115
  401SOL     hw 1603   6.677   0.734   5.883  0.0285 -0.9395 -2.8342
  401SOL     vw 1604   6.753   0.695   5.903  0.0248  0.1146 -0.4370
  402SOL     ow 1605   6.849   0.634   1.994 -0.3655 -0.4427  0.1009
  402SOL     hw 1606   6.915   0.689   2.037 -0.1136 -0.7511  0.1133
  402SOL     hw 1607   6.843   0.669   1.905  0.0137 -0.5863  0.0182
  402SOL     vw 1608   6.857   0.646   1.988 -0.2820 -0.5023  0.0916
  403SOL     ow 1609   6.211   1.995   3.623  0.7008 -0.5718  0.0882
  403SOL     hw 1610   6.195   1.963   3.711  1.4834 -0.2479  0.3618
  403SOL     hw 1611   6.306   2.004   3.618  0.5312  3.0964  0.5584
  403SOL     vw 1612   6.222   1.992   3.634  0.7818 -0.0451  0.1864
  404SOL     ow 1613   0.086   3.632   3.453  0.0121 -0.0905 -0.6284
  404SOL     hw 1614   0.038   3.715   3.465 -1.2991 -0.7285 -1.2390
  404SOL     hw 1615   0.018   3.565   3.455  0.9959 -1.1100 -0.7273
  404SOL     vw 1616   0.070   3.634   3.455 -0.0311 -0.3092 -0.7222
  405SOL     ow 1617   4.138   6.706   6.068 -0.3717 -0.5882  0.0815
  405SOL     hw 1618   4.072   6.667   6.010  0.9831 -2.1335 -0.4985
  405SOL     hw 1619   4.105   6.689   6.156  0.4019 -3.7074 -0.1072
  405SOL     vw 1620   4.125   6.698   6.072 -0.0908 -1.2035 -0.0200
  406SOL     ow 1621   3.869   2.726   6.302  0.3747  0.0808 -0.7292
  406SOL     hw 1622   3.775   2.710   6.318  0.8694 -1.2689  1.3446
  406SOL     hw 1623   3.872   2.809   6.256 -1.8073  0.8189  0.3118
  406SOL     vw 1624   3.857   2.735   6.298  0.1521  0.0001 -0.3183
  407SOL     ow 1625   4.390   3.998   1.086  0.0340 -0.5057  0.2345
  407SOL     hw 1626   4.314   3.950   1.120  0.5582  0.3946  2.8206
  407SOL     hw 1627   4.466   3.955   1.125  1.0524 -1.8132 -2.8263
  407SOL     vw 1628   4.390   3.986   1.095  0.2375 -0.5593  0.1719
  408SOL     ow 1629   3.481   6.359   2.343 -0.1239  0.6030 -0.2364
  408SOL     hw 1630   3.533   6.290   2.385 -0.0152 -0.7286 -2.3766
  408SOL     hw 1631   3.394   6.320   2.333 -0.0871  0.7630 -1.3926
  408SOL     vw 1632   3.476   6.345   2.347 -0.1047  0.4485 -0.6713
  409SOL     ow 1633   6.196   1.981   3.298 -0.1205 -0.1542  0.6550
  409SOL     hw 1634   6.196   1.893   3.261 -0.2811  0.0045  0.2724
  409SOL     hw 1635   6.218   2.038   3.224  0.1201  0.1112  0.9322
  409SOL     vw 1636   6.199   1.977   3.283 -0.1099 -0.0983  0.6410
  410SOL     ow 1637   3.816   1.760   0.699  0.7855 -0.2342 -0.2426
  410SOL     hw 1638   3.734   1.808   0.714 -0.1617 -1.5849 -0.9948
  410SOL     hw 1639   3.814   1.735   0.607  0.6581 -2.7721  0.3767
  410SOL     vw 1640   3.805   1.763   0.689  0.6436 -0.7473 -0.2601
  411SOL     ow 1641   1.578   1.137   6.779  0.3927  0.0143  0.3049
  411SOL     hw 1642   1.600   1.226   6.808  3.4358 -0.2314 -0.8596
  411SOL     hw 1643   1.625   1.080   6.840  0.5012 -0.6884 -0.4209
  411SOL     vw 1644   1.587   1.142   6.791  0.8085 -0.1109  0.0553
  412SOL     ow 1645   2.942   1.892   2.873  0.4259  0.3505  0.0654
  412SOL     hw 1646   2.880   1.964   2.879 -0.5239 -0.4905  0.7050
  412SOL     hw 1647   2.910   1.827   2.936  1.5442 -0.4118 -0.1210
  412SOL     vw 1648   2.930   1.893   2.882  0.4482  0.1390  0.1251
  413SOL     ow 1649   2.994   6.123   3.966 -0.1593  0.5305 -0.1338
  413SOL     hw 1650   2.943   6.049   3.998  3.6312 -1.7509  1.3871
  413SOL     hw 1651   2.966   6.197   4.019 -1.8918 -0.5344  0.5300
  413SOL     vw 1652   2.984   6.123   3.977  0.1122  0.0892  0.1545
  414SOL     ow 1653   2.414   5.385   4.922  0.5427 -0.1713 -0.3329
  414SOL     hw 1654   2.445   5.409   5.009 -0.6351 -1.6164  0.5429
  414SOL     hw 1655   2.454   5.299   4.905 -0.3510 -0.5589 -0.5779
  414SOL     vw 1656   2.423   5.377   4.931  0.2693 -0.4127 -0.2496
  415SOL     ow 1657   2.396   4.016   4.494  0.3544 -0.1892  0.1061
  415SOL     hw 1658   2.401   4.070   4.415 -0.4350 -0.2391  0.0167
  415SOL     hw 1659   2.307   3.980   4.493  0.9443 -1.7203  0.0238
  415SOL     vw 1660   2.385   4.018   4.483  0.3281 -0.3979  0.0837
  416SOL     ow 1661   0.005   0.584   3.192 -0.5753  0.4395 -0.1154
  416SOL     hw 1662  -0.025   0.656   3.136  0.9787 -0.9170 -2.9391
  416SOL     hw 1663   0.100   0.597   3.198 -0.0439 -1.9922 -1.8472
  416SOL     vw 1664   0.014   0.596   3.185 -0.3002 -0.0603 -0.7166
  417SOL     ow 1665   2.767   0.309   6.804 -0.4631  0.9463 -0.6265
  417SOL     hw 1666   2.680   0.321   6.844  0.0706  3.9283 -0.1541
  417SOL     hw 1667   2.755   0.334   6.712 -0.1002  1.4477 -0.5399
  417SOL     vw 1668   2.754   0.314   6.797 -0.3448  1.4059 -0.5527
  418SOL     ow 1669   2.490   3.958   2.071 -0.1861  0.4863  0.3941
  418SOL     hw 1670   2.406   3.914   2.061 -0.5759  1.1620  0.6344
  418SOL     hw 1671   2.555   3.887   2.070 -0.7954 -0.0855  0.7322
  418SOL     vw 1672   2.488   3.943   2.070 -0.3179  0.5000  0.4705
  419SOL     ow 1673   1.950   4.578   5.648  0.1683  0.1680 -0.3624
  419SOL     hw 1674   1.873   4.526   5.672 -1.0937  0.7177 -2.8604
  419SOL     hw 1675   1.947   4.583   5.553  3.2438  0.3964 -0.5556
  419SOL     vw 1676   1.939   4.572   5.639  0.4075  0.2706 -0.7176
  420SOL     ow 1677   1.855   1.943   0.136  0.3525  0.4795  0.3235
  420SOL     hw 1678   1.884   1.939   0.227  3.0820 -0.1003 -0.4865
  420SOL     hw 1679   1.900   1.870   0.093 -0.7374  0.8420 -1.5400
  420SOL     vw 1680   1.865   1.933   0.142  0.5689  0.4508 -0.0292
  421SOL     ow 1681   0.582   1.291   3.039 -0.5481  0.2233 -0.4496
  421SOL     hw 1682   0.624   1.347   2.975 -1.6887  1.9271  0.2252
  421SOL     hw 1683   0.643   1.287   3.113 -0.9801  1.6518  0.0114
  421SOL     vw 1684   0.596   1.298   3.041 -0.7556  0.6365 -0.2997
  422SOL     ow 1685   0.493   5.030   4.213 -0.3593  0.0081  0.0636
  422SOL     hw 1686   0.459   5.078   4.288 -2.6473  1.1341 -1.5546
  422SOL     hw 1687   0.514   5.099   4.149  1.0701 -0.9318 -0.5175
  422SOL     vw 1688   0.491   5.046   4.214 -0.4725  0.0324 -0.2265
  423SOL     ow 1689   5.314   4.097   6.100  0.4409 -0.1002  0.1200
  423SOL     hw 1690   5.343   4.106   6.191  2.9558 -1.0224 -0.5002
  423SOL     hw 1691   5.234   4.045   6.105  0.4231  0.0410  1.7990
  423SOL     vw 1692   5.307   4.092   6.113  0.7703 -0.2034  0.2596
  424SOL     ow 1693   4.753   3.577   5.913  0.2580 -0.4193  0.0870
  424SOL     hw 1694   4.669   3.621   5.897 -0.9834 -2.4336  0.7250
  424SOL     hw 1695   4.782   3.611   5.998 -0.3555 -0.3298  0.2651
  424SOL     vw 1696   4.746   3.587   5.922  0.0129 -0.6733  0.1950
  425SOL     ow 1697   2.779   4.376   1.436 -0.3031  0.7000 -0.0826
  425SOL     hw 1698   2.850   4.371   1.372 -0.9363  1.6565 -0.8733
  425SOL     hw 1699   2.736   4.291   1.430  1.1992 -0.1830  0.9435
  425SOL     vw 1700   2.782   4.364   1.427 -0.1884  0.7095 -0.0515
  426SOL     ow 1701   0.259   1.594   6.808 -0.6339  0.2839 -0.5034
  426SOL     hw 1702   0.173   1.582   6.848 -1.3217 -1.8794 -2.4190
  426SOL     hw 1703   0.260   1.685   6.781 -2.3706  0.3262 -0.5428
  426SOL     vw 1704   0.248   1.604   6.810 -0.9538  0.0041 -0.7615
  427SOL     ow 1705   1.775   5.616   3.024 -0.3379 -0.5219  0.5390
  427SOL     hw 1706   1.824   5.692   2.992 -1.0373 -1.0419 -1.9614
  427SOL     hw 1707   1.693   5.652   3.056 -0.0964 -0.0873  0.6770
  427SOL     vw 1708   1.771   5.631   3.024 -0.3983 -0.5329  0.2273
  428SOL     ow 1709   0.170   1.940   2.147 -0.0281 -0.2634  0.1682
  428SOL     hw 1710   0.170   1.951   2.243 -2.9208  1.0787  0.1124
  428SOL     hw 1711   0.188   2.028   2.114 -0.7029 -0.3637 -0.4876
  428SOL     vw 1712   0.173   1.953   2.156 -0.4988 -0.0995  0.0743
  429SOL     ow 1713   1.576   5.045   5.113  0.0709 -0.1224  0.0205
  429SOL     hw 1714   1.569   5.085   5.026 -0.6131 -2.6946 -1.2057
  429SOL     hw 1715   1.580   4.951   5.095  0.7523 -0.6832  2.7678
  429SOL     vw 1716   1.576   5.038   5.099  0.0705 -0.5355  0.2215
  430SOL     ow 1717   5.415   0.777   5.558  0.5554 -0.6341  0.4053
  430SOL     hw 1718   5.418   0.683   5.538  0.2543 -0.1920 -1.9799
  430SOL     hw 1719   5.420   0.820   5.473  0.3500  1.5335  1.4227
  430SOL     vw 1720   5.416   0.770   5.544  0.4885 -0.2897  0.2248
  431SOL     ow 1721   1.549   3.496   2.374 -0.3091 -0.2427 -0.4351
  431SOL     hw 1722   1.607   3.494   2.450  1.5446  2.7209 -1.6097
  431SOL     hw 1723   1.463   3.521   2.409  0.5386  1.2023  0.6969
  431SOL     vw 1724   1.545   3.499   2.389  0.0474  0.3389 -0.4407
  432SOL     ow 1725   5.268   4.619   1.395  0.0066 -0.1748  0.4941
  432SOL     hw 1726   5.292   4.645   1.306  0.8908 -0.5560  0.6107
  432SOL     hw 1727   5.190   4.671   1.415  0.2674  0.5037 -0.2041
  432SOL     vw 1728   5.261   4.629   1.386  0.1576 -0.1357  0.4174
  433SOL     ow 1729   6.528   3.353   1.734  0.0965  0.8633  0.1290
  433SOL     hw 1730   6.553   3.265   1.709 -0.0997  0.7236  0.4127
  433SOL     hw 1731   6.450   3.372   1.682 -0.6579  0.3510  1.0284
  433SOL     vw 1732   6.521   3.344   1.724 -0.0291  0.7772  0.2851
  434SOL     ow 1733   6.285   5.584   2.067 -0.1899 -0.3240  0.1174
  434SOL     hw 1734   6.219   5.586   1.998 -1.4025 -0.5069  1.2302
  434SOL     hw 1735   6.326   5.498   2.059  0.7915  0.2308 -1.3329
  434SOL     vw 1736   6.282   5.573   2.057 -0.2205 -0.2749  0.0727
  435SOL     ow 1737   5.480   6.137   1.347 -0.1772 -0.0961 -0.3134
  435SOL     hw 1738   5.396   6.124   1.304  0.4638 -1.0359 -1.3594
  435SOL     hw 1739   5.528   6.196   1.288 -0.4168  1.1807  0.7345
  435SOL     vw 1740   5.475   6.143   1.333 -0.1242 -0.0517 -0.3132
  436SOL     ow 1741   5.724   0.309   3.650 -0.1108  0.1854  0.9152
  436SOL     hw 1742   5.630   0.326   3.654 -0.3025 -0.2220 -1.0726
  436SOL     hw 1743   5.760   0.383   3.602  0.0860 -1.1617 -1.1474
  436SOL     vw 1744   5.716   0.321   3.644 -0.1099 -0.0461  0.3809
  437SOL     ow 1745   6.139   0.883   2.252  0.5732  0.0466  0.8980
  437SOL     hw 1746   6.181   0.964   2.224  0.5310 -0.3172 -0.2778
  437SOL     hw 1747   6.055   0.883   2.206  1.4999 -1.7129 -0.9288
  437SOL     vw 1748   6.133   0.894   2.242  0.6897 -0.2336  0.5019
  438SOL     ow 1749   4.617   5.244   0.236 -0.2824 -0.0503 -0.7636
  438SOL     hw 1750   4.547   5.255   0.299  0.6344  1.9340  0.0052
  438SOL     hw 1751   4.612   5.322   0.181  1.8532  0.6501 -0.0769
  438SOL     vw 1752   4.607   5.256   0.237  0.1202  0.3037 -0.5715
  439SOL     ow 1753   4.884   6.855   1.283 -0.0456  0.0190  0.7186
  439SOL     hw 1754   4.967   6.868   1.237 -0.9874 -0.7764 -1.3208
  439SOL     hw 1755   4.877   6.930   1.342  1.2892  1.0388 -0.3621
  439SOL     vw 1756   4.894   6.866   1.285  0.0064  0.0489  0.3070
  440SOL     ow 1757   4.537   4.477   6.214 -0.3234 -0.2109 -0.2573
  440SOL     hw 1758   4.490   4.542   6.161 -0.4547  1.3420  1.6527
  440SOL     hw 1759   4.566   4.411   6.151 -1.4837  0.9281 -2.0703
  440SOL     vw 1760   4.534   4.477   6.199 -0.4940  0.1440 -0.2444
  441SOL     ow 1761   2.572   0.723   3.564 -0.1087  0.4214  0.5334
  441SOL     hw 1762   2.510   0.794   3.547 -0.3986 -0.0331 -0.3882
  441SOL     hw 1763   2.527   0.644   3.534  0.8152  0.0461  0.0921
  441SOL     vw 1764   2.558   0.722   3.558 -0.0250  0.3119  0.3535
  442SOL     ow 1765   4.312   3.011   4.375  0.4733 -0.1996  0.1395
  442SOL     hw 1766   4.234   3.004   4.320  0.8476 -2.2238 -0.2319
  442SOL     hw 1767   4.297   2.949   4.446  0.8914  0.8912  1.2099
  442SOL     vw 1768   4.300   3.002   4.377  0.5779 -0.3226  0.2320
  443SOL     ow 1769   1.471   0.264   1.558 -0.0717 -0.2296  0.5707
  443SOL     hw 1770   1.409   0.268   1.630  0.6103 -2.0307  1.3372
  443SOL     hw 1771   1.417   0.264   1.479 -0.9391 -0.1125  1.1545
  443SOL     vw 1772   1.456   0.264   1.557 -0.0961 -0.4518  0.7488
  444SOL     ow 1773   3.070   2.519   0.974  0.2798  0.3655 -0.1408
  444SOL     hw 1774   3.115   2.564   1.046  0.2238  0.9826 -0.4776
  444SOL     hw 1775   3.124   2.537   0.897  0.6534 -0.7802 -0.1645
  444SOL     vw 1776   3.083   2.528   0.974  0.3216  0.2958 -0.1884
  445SOL     ow 1777   5.990   0.585   0.666  0.3214 -0.3854  0.2537
  445SOL     hw 1778   6.025   0.581   0.577  0.1843  0.1151  0.1716
  445SOL     hw 1779   6.040   0.521   0.715  0.3290 -0.7399 -0.2113
  445SOL     vw 1780   6.001   0.576   0.661  0.3042 -0.3662  0.1815
  446SOL     ow 1781   2.712   6.583   1.205  0.2824  0.1661  0.4494
  446SOL     hw 1782   2.720   6.496   1.167 -0.0354  0.5443 -0.5412
  446SOL     hw 1783   2.632   6.619   1.166  1.4286  1.6243 -0.7235
  446SOL     vw 1784   2.702   6.577   1.195  0.3918  0.4084  0.1639
  447SOL     ow 1785   2.290   0.629   4.958  0.1298 -0.1453 -0.2346
  447SOL     hw 1786   2.228   0.693   4.994 -1.4611 -1.2650 -0.8557
  447SOL     hw 1787   2.297   0.651   4.866  0.1160 -0.4134 -0.3027
  447SOL     vw 1788   2.283   0.640   4.951 -0.0819 -0.3284 -0.3252
  448SOL     ow 1789   5.728   1.237   4.604  0.4504  0.4289 -0.3506
  448SOL     hw 1790   5.708   1.322   4.566  0.5016  1.0682  0.9814
  448SOL     hw 1791   5.821   1.242   4.626  0.3969  0.1167 -0.0428
  448SOL     vw 1792   5.738   1.249   4.602  0.4499  0.4721 -0.1340
  449SOL     ow 1793   4.887   6.773   2.233 -0.1847 -0.2111  0.0103
  449SOL     hw 1794   4.896   6.804   2.323  0.5810 -0.2227 -0.0589
  449SOL     hw 1795   4.977   6.759   2.203 -0.4361 -0.2768 -0.7329
  449SOL     vw 1796   4.900   6.775   2.241 -0.1171 -0.2215 -0.0970
  450SOL     ow 1797   3.161   2.231   3.585 -0.3763  0.0828 -0.6637
  450SOL     hw 1798   3.069   2.207   3.587 -0.6932  1.1906 -1.3710
  450SOL     hw 1799   3.199   2.176   3.517  0.0707 -2.1985  1.2665
  450SOL     vw 1800   3.154   2.221   3.576 -0.3592 -0.0720 -0.5023
  451SOL     ow 1801   4.970   4.094   1.899 -0.1757 -0.4789  0.3733
  451SOL     hw 1802   4.982   4.187   1.881 -0.5916 -0.6858 -1.0947
  451SOL     hw 1803   5.057   4.062   1.921  0.1988  0.0160 -0.3529
  451SOL     vw 1804   4.983   4.102   1.900 -0.1810 -0.4411  0.0838
  452SOL     ow 1805   2.562   6.643   6.838  0.3636 -0.4801 -0.0315
  452SOL     hw 1806   2.583   6.576   6.904 -0.8244 -2.3877 -1.5003
  452SOL     hw 1807   2.621   6.624   6.765 -0.4115 -0.3391 -0.7091
  452SOL     vw 1808   2.573   6.632   6.837  0.1045 -0.7129 -0.3147
  453SOL     ow 1809   6.645   0.605   0.921 -0.1099  0.2887  0.7576
  453SOL     hw 1810   6.568   0.566   0.961  0.2467 -0.1082  1.0749
  453SOL     hw 1811   6.669   0.544   0.851 -0.6289  0.8915  0.0406
  453SOL     vw 1812   6.638   0.592   0.917 -0.1311  0.3158  0.7049
  454SOL     ow 1813   3.010   4.914   3.031  0.3869 -0.5146 -0.2954
  454SOL     hw 1814   3.098   4.904   2.994  0.7336  1.6714 -0.1634
  454SOL     hw 1815   3.024   4.913   3.125  0.5392  1.5140 -0.2616
  454SOL     vw 1816   3.023   4.913   3.038  0.4529  0.0415 -0.2735
  455SOL     ow 1817   5.693   0.970   0.888 -0.1286  0.1013 -0.4987
  455SOL     hw 1818   5.617   0.916   0.907  0.7088 -0.6664  0.8888
  455SOL     hw 1819   5.766   0.907   0.882  0.6024  0.9257 -0.4813
  455SOL     vw 1820   5.693   0.954   0.890  0.0782  0.1088 -0.3133
  456SOL     ow 1821   2.950   3.539   3.292  0.3311 -0.3243 -0.1872
  456SOL     hw 1822   2.928   3.627   3.323  0.0064 -0.7745  0.9101
  456SOL     hw 1823   2.982   3.493   3.369  0.6018 -1.1515 -0.7687
  456SOL     vw 1824   2.951   3.545   3.306  0.3238 -0.4928 -0.1192
  457SOL     ow 1825   5.733   3.282   4.910 -0.5562 -0.0137 -0.6721
  457SOL     hw 1826   5.772   3.328   4.835  3.0313 -2.5109 -0.6220
  457SOL     hw 1827   5.733   3.347   4.980  2.0105  0.7276 -1.2449
  457SOL     vw 1828   5.738   3.297   4.909  0.2561 -0.2452 -0.7410
  458SOL     ow 1829   6.137   3.129   3.519 -0.4184 -0.1758 -0.0449
  458SOL     hw 1830   6.231   3.134   3.502 -0.5138 -0.1355 -0.5544
  458SOL     hw 1831   6.126   3.047   3.567 -0.6458 -2.3555 -3.5042
  458SOL     vw 1832   6.148   3.119   3.523 -0.4611 -0.4581 -0.5685
  459SOL     ow 1833   0.748   2.561   4.171 -0.2423  0.4157 -0.1899
  459SOL     hw 1834   0.778   2.471   4.184 -1.8909 -0.3238 -1.1270
  459SOL     hw 1835   0.676   2.571   4.234  0.9954  1.6995  1.1033
  459SOL     vw 1836   0.743   2.550   4.181 -0.2965  0.4877 -0.1431
  460SOL     ow 1837   3.633   4.247   5.793  0.1889  0.5784  0.2032
  460SOL     hw 1838   3.579   4.296   5.732  1.1496  0.6658 -0.5988
  460SOL     hw 1839   3.688   4.314   5.835  0.6954  0.3336 -0.0582
  460SOL     vw 1840   3.633   4.262   5.791  0.3824  0.5577  0.0632
  461SOL     ow 1841   1.369   0.789   2.547  0.3377  0.2289 -0.4484
  461SOL     hw 1842   1.374   0.876   2.586 -1.1410 -0.9279  2.6192
  461SOL     hw 1843   1.284   0.786   2.504  0.2821  0.2190 -0.3375
  461SOL     vw 1844   1.359   0.800   2.547  0.1352  0.0750 -0.0290
  462SOL     ow 1845   5.609   0.072   0.601  0.8328  0.2140  0.0578
  462SOL     hw 1846   5.587   0.075   0.694  0.1812  0.9558 -0.1205
  462SOL     hw 1847   5.533   0.109   0.557  0.2620 -1.9771 -0.9281
  462SOL     vw 1848   5.596   0.077   0.608  0.6714  0.0228 -0.0958
  463SOL     ow 1849   1.630   0.731   5.983 -0.5148  0.0530  0.5573
  463SOL     hw 1850   1.539   0.759   5.989 -0.8662 -0.9263  0.0093
  463SOL     hw 1851   1.677   0.789   6.043 -1.5545  0.3250  1.1307
  463SOL     vw 1852   1.624   0.742   5.992 -0.6983 -0.0403  0.5605
  464SOL     ow 1853   0.989   6.290   0.417 -0.8457 -0.1760  0.0869
  464SOL     hw 1854   0.927   6.287   0.490 -0.0952  2.3296  0.9244
  464SOL     hw 1855   0.958   6.362   0.362  1.5882  1.5957  0.8666
  464SOL     vw 1856   0.977   6.299   0.419 -0.4256  0.3884  0.3003
  465SOL     ow 1857   5.487   1.349   6.645 -0.2385  0.2647  0.1172
  465SOL     hw 1858   5.431   1.307   6.710 -1.2841  2.4557  0.7446
  465SOL     hw 1859   5.452   1.321   6.560 -0.1624 -0.9970  0.4914
  465SOL     vw 1860   5.475   1.340   6.642 -0.3667  0.3873  0.2491
  466SOL     ow 1861   6.645   2.266   6.743  0.0383  0.5625 -0.2537
  466SOL     hw 1862   6.585   2.241   6.673  0.6284 -1.4053 -0.1159
  466SOL     hw 1863   6.721   2.302   6.698  0.1120 -0.0250 -0.6090
  466SOL     vw 1864   6.647   2.267   6.728  0.1261  0.2254 -0.2823
  467SOL     ow 1865   5.615   1.207   4.915  0.0866 -0.0504  0.2140
  467SOL     hw 1866   5.688   1.241   4.967  0.9973 -1.3957 -0.1160
  467SOL     hw 1867   5.551   1.177   4.979  0.6775 -0.6058  0.5481
  467SOL     vw 1868   5.616   1.207   4.930  0.2849 -0.3012  0.2146
  468SOL     ow 1869   2.359   2.891   3.757 -0.3684  0.2915  0.3144
  468SOL     hw 1870   2.281   2.926   3.714  0.0851  0.1790 -0.6157
  468SOL     hw 1871   2.429   2.951   3.732 -0.3256  1.0181  2.0127
  468SOL     vw 1872   2.358   2.904   3.748 -0.3028  0.3726  0.4157
  469SOL     ow 1873   0.837   0.546   1.552 -0.3386  0.6651  0.3484
  469SOL     hw 1874   0.880   0.629   1.533 -1.1352  1.0884  0.3336
  469SOL     hw 1875   0.849   0.533   1.646  0.1135  0.6067  0.2819
  469SOL     vw 1876   0.844   0.555   1.562 -0.3840  0.7133  0.3377
  470SOL     ow 1877   5.029   0.666   0.194 -0.1134  0.2000 -0.1464
  470SOL     hw 1878   5.032   0.588   0.140  0.6979 -0.0258  0.2034
  470SOL     hw 1879   4.937   0.695   0.190 -0.3966 -0.6971 -0.3691
  470SOL     vw 1880   5.017   0.660   0.187 -0.0436  0.0519 -0.1296
  471SOL     ow 1881   1.659   0.014   6.832 -0.5083  0.2858  0.3901
  471SOL     hw 1882   1.677   0.084   6.769  0.5075 -1.7420 -1.7038
  471SOL     hw 1883   1.674   0.055   6.918  1.0240  2.3497 -0.7642
  471SOL     vw 1884   1.663   0.029   6.835 -0.1721  0.2906 -0.0386
  472SOL     ow 1885   6.234   1.543   5.441  1.0607 -0.2524  0.1168
  472SOL     hw 1886   6.152   1.497   5.458  0.8734  0.5191  1.4759
  472SOL     hw 1887   6.209   1.612   5.378  0.9360 -0.7915 -0.4289
  472SOL     vw 1888   6.220   1.546   5.435  1.0195 -0.2218  0.2241
  473SOL     ow 1889   4.170   3.901   2.473 -0.1094 -0.2666 -0.8335
  473SOL     hw 1890   4.130   3.903   2.386  0.2497  0.3777 -0.9952
  473SOL     hw 1891   4.167   3.809   2.499  0.9578 -0.6824 -2.0874
  473SOL     vw 1892   4.164   3.889   2.465  0.0784 -0.2365 -1.0203
  474SOL     ow 1893   6.098   4.477   0.174 -0.3852  0.0228  0.1924
  474SOL     hw 1894   6.192   4.471   0.185 -0.2011 -0.2942 -1.2704
  474SOL     hw 1895   6.061   4.421   0.243  0.4806  0.2359  0.8362
  474SOL     vw 1896   6.105   4.469   0.184 -0.2465  0.0091  0.0844
  475SOL     ow 1897   0.491   5.198   6.874  0.2982 -0.4290  0.2026
  475SOL     hw 1898   0.482   5.128   6.809  0.4999 -1.5068  1.3041
  475SOL     hw 1899   0.483   5.154   6.958  1.9377  0.6416  0.9675
  475SOL     vw 1900   0.488   5.183   6.876  0.5411 -0.4301  0.4489
  476SOL     ow 1901   1.427   4.912   0.876  0.0343 -0.1878 -0.0555
  476SOL     hw 1902   1.500   4.933   0.817 -0.1980 -1.8944 -1.0148
  476SOL     hw 1903   1.374   4.992   0.876  0.5953  0.2270 -1.3431
  476SOL     vw 1904   1.429   4.926   0.868  0.0777 -0.3581 -0.3520
  477SOL     ow 1905   4.731   2.979   0.827 -0.5933 -0.2068  0.4765
  477SOL     hw 1906   4.791   2.909   0.802 -0.2963  0.1793  0.0885
  477SOL     hw 1907   4.771   3.058   0.791 -1.7562 -0.0429 -0.4912
  477SOL     vw 1908   4.744   2.980   0.819 -0.7074 -0.1342  0.2977
  478SOL     ow 1909   6.802   1.820   4.010 -0.5881 -0.0965  0.0804
  478SOL     hw 1910   6.799   1.840   3.917 -2.0209  0.2377  0.1760
  478SOL     hw 1911   6.839   1.732   4.014 -1.3124 -0.4656 -0.8700
  478SOL     vw 1912   6.807   1.811   3.998 -0.8729 -0.1010 -0.0325
  479SOL     ow 1913   2.378   3.077   1.553 -0.9395  0.5417 -0.1015
  479SOL     hw 1914   2.435   3.006   1.524  0.0344  0.9863  0.6620
  479SOL     hw 1915   2.314   3.087   1.483 -0.2523 -0.1725 -0.8463
  479SOL     vw 1916   2.377   3.069   1.540 -0.7203  0.5060 -0.0991
  480SOL     ow 1917   3.939   2.823   2.129  0.4936 -0.4347  0.2098
  480SOL     hw 1918   3.907   2.905   2.166  0.7221  0.1486 -0.8463
  480SOL     hw 1919   3.933   2.835   2.034 -0.7418 -2.1402  0.0260
  480SOL     vw 1920   3.934   2.835   2.121  0.3608 -0.5827  0.0463
  481SOL     ow 1921   3.078   5.502   6.693  0.3835 -0.3334 -0.3309
  481SOL     hw 1922   3.084   5.567   6.763  2.7165 -0.1786 -0.6101
  481SOL     hw 1923   3.158   5.451   6.700 -0.2884 -1.6337 -1.6374
  481SOL     vw 1924   3.089   5.504   6.703  0.6026 -0.4845 -0.5400
  482SOL     ow 1925   0.985   0.585   0.638 -0.2994  0.0964 -0.7945
  482SOL     hw 1926   1.040   0.518   0.597 -0.5883  0.3211 -1.5524
  482SOL     hw 1927   0.921   0.535   0.689  0.5629 -0.1717  0.0640
  482SOL     vw 1928   0.984   0.569   0.639 -0.2238  0.0907 -0.7812
  483SOL     ow 1929   5.112   4.309   4.548  0.1165 -0.3322 -0.1783
  483SOL     hw 1930   5.101   4.312   4.453 -1.1664 -1.3353 -0.0738
  483SOL     hw 1931   5.025   4.328   4.583 -0.2595 -3.2878  0.7428
  483SOL     vw 1932   5.099   4.312   4.540 -0.1023 -0.8547 -0.0434
  484SOL     ow 1933   1.707   4.977   5.988 -0.1245  0.0568 -0.1796
  484SOL     hw 1934   1.792   5.021   5.987 -0.0451 -0.0867  0.2286
  484SOL     hw 1935   1.644   5.046   6.011 -0.2448  0.3655 -1.3215
  484SOL     vw 1936   1.710   4.992   5.991 -0.1299  0.0784 -0.2763
  485SOL     ow 1937   3.085   1.543   3.367  0.0775  0.5374  0.5850
  485SOL     hw 1938   3.078   1.553   3.462 -1.8038 -1.9243  0.8062
  485SOL     hw 1939   2.994   1.539   3.338  0.6407  0.4319 -1.2411
  485SOL     vw 1940   3.072   1.544   3.376 -0.0963  0.1987  0.3732
  486SOL     ow 1941   2.223   6.074   3.227 -0.1845  0.2839 -0.3317
  486SOL     hw 1942   2.260   5.990   3.253 -0.1185  0.3178 -0.3135
  486SOL     hw 1943   2.248   6.083   3.135 -0.9025 -0.0929 -0.5677
  486SOL     vw 1944   2.231   6.064   3.218 -0.2704  0.2389 -0.3604
  487SOL     ow 1945   2.477   0.406   5.115 -0.1375 -0.7355  1.0550
  487SOL     hw 1946   2.504   0.447   5.197  0.8414  0.7718  0.0254
  487SOL     hw 1947   2.488   0.312   5.131  1.3120 -0.4091  2.2250
  487SOL     vw 1948   2.482   0.399   5.128  0.1830 -0.4935  1.0736
  488SOL     ow 1949   3.161   5.955   1.984  0.0650 -0.0697 -0.2638
  488SOL     hw 1950   3.151   5.983   1.892 -0.7575 -1.6625 -0.6856
  488SOL     hw 1951   3.080   5.984   2.026 -0.9677 -2.0477 -0.7925
  488SOL     vw 1952   3.149   5.963   1.977 -0.1798 -0.5410 -0.3892
  489SOL     ow 1953   4.455   5.619   0.827 -0.2605  0.2719 -0.1625
  489SOL     hw 1954   4.383   5.633   0.766  0.0590  0.4564 -0.5033
  489SOL     hw 1955   4.416   5.571   0.900 -0.5025 -0.5460 -0.8160
  489SOL     vw 1956   4.441   5.615   0.829 -0.2503  0.1881 -0.2937
  490SOL     ow 1957   5.007   2.400   3.452 -0.7108  0.4408 -0.4838
  490SOL     hw 1958   4.914   2.400   3.429 -0.4852  0.1190 -1.4160
  490SOL     hw 1959   5.033   2.492   3.447 -1.1181  0.6096  0.3815
  490SOL     vw 1960   4.998   2.412   3.448 -0.7348  0.4207 -0.4926
  491SOL     ow 1961   1.024   6.091   5.259 -0.2041 -0.2704 -0.5317
  491SOL     hw 1962   1.083   6.069   5.331 -0.3555 -0.0811 -0.3479
  491SOL     hw 1963   1.074   6.152   5.204 -0.8395  1.3308  0.5854
  491SOL     vw 1964   1.038   6.097   5.261 -0.3078 -0.0341 -0.3600
  492SOL     ow 1965   4.612   6.367   6.554 -0.9130 -0.6719  0.0458
  492SOL     hw 1966   4.618   6.441   6.613  3.5214 -1.9821  1.6763
  492SOL     hw 1967   4.676   6.387   6.485 -2.4008 -1.3674 -1.5946
  492SOL     vw 1968   4.622   6.379   6.552 -0.5240 -0.9363  0.0443
  493SOL     ow 1969   6.218   5.023   0.647  0.0877  0.2172  0.0761
  493SOL     hw 1970   6.173   5.084   0.588 -0.3519 -0.2800 -0.1148
  493SOL     hw 1971   6.259   4.960   0.588  1.1480  0.7388  0.2481
  493SOL     vw 1972   6.217   5.023   0.631  0.1698  0.2203  0.0736
  494SOL     ow 1973   5.296   4.646   3.966  0.1945 -0.2841 -0.4501
  494SOL     hw 1974   5.296   4.551   3.964  0.8164 -0.2977 -0.1246
  494SOL     hw 1975   5.270   4.669   4.055  0.0240 -0.1532 -0.5341
  494SOL     vw 1976   5.293   4.637   3.977  0.2539 -0.2685 -0.4182
  495SOL     ow 1977   2.151   0.134   6.454  0.0500  0.0478  0.2733
  495SOL     hw 1978   2.212   0.157   6.524  1.3608 -1.9735 -0.1252
  495SOL     hw 1979   2.067   0.168   6.483  1.0312  1.4459  1.6308
  495SOL     vw 1980   2.148   0.142   6.467  0.3524 -0.0344  0.4001
  496SOL     ow 1981   3.631   3.502   6.059 -0.1064  0.1358 -0.6862
  496SOL     hw 1982   3.594   3.524   6.145  2.3026 -0.9606  0.7628
  496SOL     hw 1983   3.723   3.484   6.078  0.3404 -0.8269 -3.4290
  496SOL     vw 1984   3.638   3.502   6.073  0.2704 -0.1358 -0.8571
  497SOL     ow 1985   6.113   2.272   6.399  0.5366 -0.0646 -0.3328
  497SOL     hw 1986   6.110   2.257   6.494 -1.0336 -0.2645 -0.3920
  497SOL     hw 1987   6.109   2.367   6.390  0.6760 -0.0458 -0.1930
  497SOL     vw 1988   6.112   2.283   6.410  0.3479 -0.0883 -0.3221
  498SOL     ow 1989   0.218   5.182   0.638  0.3359  0.2279  0.3510
  498SOL     hw 1990   0.289   5.118   0.647  1.5304  1.6107  1.3674
  498SOL     hw 1991   0.144   5.132   0.604  1.2894 -1.6239  0.8692
  498SOL     vw 1992   0.218   5.167   0.635  0.6193  0.1662  0.5535
  499SOL     ow 1993   0.929   2.310   2.857 -0.1663 -0.2147 -0.5207
  499SOL     hw 1994   0.860   2.328   2.921 -0.4360  0.2354 -0.9405
  499SOL     hw 1995   0.882   2.289   2.776  0.1663 -1.1547 -0.4879
  499SOL     vw 1996   0.913   2.309   2.855 -0.1580 -0.2794 -0.5718
  500SOL     ow 1997   5.504   3.895   5.476 -0.0211  0.4165  0.2873
  500SOL     hw 1998   5.590   3.857   5.461 -0.1692  0.2493 -0.1358
  500SOL     hw 1999   5.511   3.984   5.442 -0.4968 -0.1074 -1.2544
  500SOL     vw 2000   5.516   3.902   5.470 -0.1035  0.3252  0.0281
  501SOL     ow 2001   5.763   6.489   1.929  0.0909  0.0394 -0.3049
  501SOL     hw 2002   5.836   6.508   1.870  0.7138 -0.4380  0.2904
  501SOL     hw 2003   5.691   6.543   1.897  0.2142 -0.6801 -1.8719
  501SOL     vw 2004   5.763   6.499   1.917  0.1891 -0.1185 -0.4331
  502SOL     ow 2005   0.664   4.783   4.396 -0.0935 -0.3056  0.5278
  502SOL     hw 2006   0.629   4.733   4.470 -1.0904 -2.2628 -1.1680
  502SOL     hw 2007   0.726   4.723   4.354 -0.9310  0.0106 -1.2677
  502SOL     vw 2008   0.668   4.768   4.400 -0.3355 -0.5221  0.0670
  503SOL     ow 2009   5.464   1.495   5.110 -0.0887  0.1152  0.0975
  503SOL     hw 2010   5.419   1.451   5.182  0.9963  0.0720  0.7800
  503SOL     hw 2011   5.557   1.486   5.131  0.2462  0.3164 -1.1932
  503SOL     vw 2012   5.471   1.488   5.122  0.0987  0.1360  0.0174
  504SOL     ow 2013   4.710   0.309   0.094  0.0640 -0.3535  0.7557
  504SOL     hw 2014   4.787   0.275   0.049 -0.3091 -0.3165  0.0723
  504SOL     hw 2015   4.648   0.329   0.024  0.3377  1.9252  1.0749
  504SOL     vw 2016   4.712   0.307   0.079  0.0510 -0.0480  0.7077
  505SOL     ow 2017   5.125   0.956   0.278  0.2513  0.2389  0.1742
  505SOL     hw 2018   5.061   1.010   0.232  2.0626  1.3890 -1.1556
  505SOL     hw 2019   5.121   0.986   0.369 -0.0052  1.4027 -0.2027
  505SOL     vw 2020   5.116   0.967   0.284  0.4566  0.5442 -0.0509
  506SOL     ow 2021   4.429   0.683   6.167 -0.2143  0.0934 -0.0391
  506SOL     hw 2022   4.421   0.655   6.076 -0.5149 -0.3092  0.1084
  506SOL     hw 2023   4.449   0.603   6.215  0.6895  0.4253  0.1526
  506SOL     vw 2024   4.430   0.669   6.162 -0.1347  0.0840  0.0055
  507SOL     ow 2025   3.528   3.023   6.564  0.0430 -0.3766  0.2473
  507SOL     hw 2026   3.513   3.007   6.471 -1.2063  1.1533  0.1382
  507SOL     hw 2027   3.452   2.985   6.607  1.4432 -2.6659  0.8859
  507SOL     vw 2028   3.516   3.016   6.557  0.0629 -0.4767  0.3173
  508SOL     ow 2029   0.845   6.221   6.686 -0.7088  0.5616  0.1744
  508SOL     hw 2030   0.823   6.169   6.608 -1.6793 -1.3468  1.6441
  508SOL     hw 2031   0.779   6.290   6.688 -0.6554  0.6525 -0.6952
  508SOL     vw 2032   0.834   6.223   6.676 -0.8298  0.3219  0.2537
  509SOL     ow 2033   1.944   2.582   2.322  0.4281 -0.2791  0.1201
  509SOL     hw 2034   1.944   2.678   2.327  1.8912 -0.2452 -0.0658
  509SOL     hw 2035   2.027   2.561   2.279 -0.7889 -1.5461 -1.7291
  509SOL     vw 2036   1.955   2.592   2.317  0.4606 -0.4418 -0.1482
  510SOL     ow 2037   2.295   4.448   1.422  0.4632  0.1645  0.0312
  510SOL     hw 2038   2.298   4.476   1.513 -0.6497  1.2325 -0.2326
  510SOL     hw 2039   2.340   4.364   1.421  0.2863  0.0241  1.6085
  510SOL     vw 2040   2.301   4.440   1.433  0.2930  0.2866  0.2045
  511SOL     ow 2041   1.398   4.943   1.189 -0.5919  0.2000  0.4561
  511SOL     hw 2042   1.441   4.944   1.275  0.6414  0.9758 -0.1516
  511SOL     hw 2043   1.392   5.035   1.164  1.4432 -0.1279 -1.4343
  511SOL     vw 2044   1.403   4.955   1.197 -0.1607  0.2592  0.1265
  512SOL     ow 2045   2.954   3.375   3.033  0.3608  0.4054  0.0363
  512SOL     hw 2046   2.881   3.417   2.988  0.0978 -0.5961 -0.4788
  512SOL     hw 2047   2.914   3.305   3.085  1.0696 -1.1490 -1.4203
  512SOL     vw 2048   2.939   3.372   3.034  0.4196  0.0682 -0.2238
  513SOL     ow 2049   1.337   6.544   5.985  0.0868 -0.2076  0.0455
  513SOL     hw 2050   1.384   6.499   5.916 -2.1877  1.4440 -2.8229
  513SOL     hw 2051   1.387   6.624   6.001  0.5373 -0.5183  0.1880
  513SOL     vw 2052   1.350   6.549   5.978 -0.1538 -0.0308 -0.3140
  514SOL     ow 2053   6.818   3.006   3.157 -0.8922 -0.0862 -0.3092
  514SOL     hw 2054   6.785   3.028   3.244 -1.1833 -0.5624 -0.2917
  514SOL     hw 2055   6.893   2.949   3.174  1.6415  2.9936 -0.2664
  514SOL     vw 2056   6.824   3.001   3.171 -0.5963  0.2574 -0.3012
  515SOL     ow 2057   0.252   0.887   6.410 -0.1630  0.9025 -0.4035
  515SOL     hw 2058   0.246   0.915   6.319  0.2358  0.2957 -0.6248
  515SOL     hw 2059   0.301   0.805   6.407 -0.8436  0.4528  0.2811
  515SOL     vw 2060   0.258   0.880   6.398 -0.2002  0.7631 -0.3424
  516SOL     ow 2061   0.286   6.871   4.752  0.2766 -0.7113  0.0373
  516SOL     hw 2062   0.334   6.954   4.749  0.6550 -0.9508 -0.6618
  516SOL     hw 2063   0.352   6.804   4.742  0.1601 -1.1986  2.0801
  516SOL     vw 2064   0.301   6.873   4.750  0.3111 -0.8075  0.2146
  517SOL     ow 2065   3.031   1.562   5.702 -0.4082  0.2895  0.4148
  517SOL     hw 2066   3.056   1.495   5.765 -0.7018  0.9135  1.2149
  517SOL     hw 2067   3.086   1.545   5.625 -0.7267 -1.0762  0.4535
  517SOL     vw 2068   3.041   1.551   5.700 -0.4890  0.1917  0.5252
  518SOL     ow 2069   2.908   5.061   5.873 -0.1684  0.5313  0.0560
  518SOL     hw 2070   2.942   5.038   5.786 -2.2072 -0.1215 -0.6458
  518SOL     hw 2071   2.947   4.996   5.932  1.1311  0.8910 -0.3763
  518SOL     vw 2072   2.917   5.049   5.869 -0.2660  0.4928 -0.0935
  519SOL     ow 2073   5.521   2.535   4.564  0.1125  0.0025 -0.0364
  519SOL     hw 2074   5.530   2.453   4.611  1.8531 -0.4117 -0.9904
  519SOL     hw 2075   5.453   2.584   4.611 -0.4650 -1.6851  0.9380
  519SOL     vw 2076   5.513   2.531   4.576  0.2663 -0.2748 -0.0336
  520SOL     ow 2077   3.962   0.474   5.472 -0.2430 -0.3380  0.2334
  520SOL     hw 2078   3.868   0.493   5.480 -0.2203 -0.8273  2.4131
  520SOL     hw 2079   3.964   0.384   5.439 -0.4803  0.1376 -1.1584
  520SOL     vw 2080   3.950   0.464   5.469 -0.2713 -0.3398  0.3376
  521SOL     ow 2081   0.561   5.302   4.799 -0.5458  0.5185 -0.1662
  521SOL     hw 2082   0.652   5.316   4.771 -0.5398  1.8400  0.4340
  521SOL     hw 2083   0.515   5.381   4.770 -1.5700 -0.2466 -0.6870
  521SOL     vw 2084   0.567   5.314   4.791 -0.6801  0.5920 -0.1559
  522SOL     ow 2085   4.961   3.921   6.752 -0.5696 -0.2560 -0.2549
  522SOL     hw 2086   4.902   3.971   6.808 -0.4488 -0.2265 -0.1530
  522SOL     hw 2087   4.964   3.970   6.670  0.0305  0.2407  0.0578
  522SOL     vw 2088   4.953   3.934   6.748 -0.4745 -0.1866 -0.2003
  523SOL     ow 2089   3.165   4.528   6.239 -0.5883 -0.1128 -0.0587
  523SOL     hw 2090   3.150   4.451   6.294 -0.2382  0.4326  0.8282
  523SOL     hw 2091   3.191   4.492   6.154 -0.2511 -0.9750  0.3944
  523SOL     vw 2092   3.167   4.513   6.235 -0.4977 -0.1547  0.1183
  524SOL     ow 2093   0.293   2.404   3.250 -0.0306  0.1591 -0.1696
  524SOL     hw 2094   0.222   2.453   3.292 -0.0117  0.0234  0.0209
  524SOL     hw 2095   0.299   2.323   3.301  0.1376  0.0903 -0.3008
  524SOL     vw 2096   0.284   2.400   3.262 -0.0059  0.1322 -0.1618
  525SOL     ow 2097   0.171   4.801   6.819  0.0214 -0.1211  0.0385
  525SOL     hw 2098   0.236   4.742   6.857 -1.0481 -1.9457 -0.7829
  525SOL     hw 2099   0.198   4.811   6.728 -0.5394 -0.4673 -0.1729
  525SOL     vw 2100   0.183   4.794   6.812 -0.1937 -0.4075 -0.0978
  526SOL     ow 2101   2.516   0.234   1.871 -0.1376 -0.2663  0.1314
  526SOL     hw 2102   2.447   0.186   1.916 -0.4164  2.1817  2.5501
  526SOL     hw 2103   2.597   0.186   1.891 -0.8424 -2.1614 -1.2835
  526SOL     vw 2104   2.518   0.221   1.879 -0.2674 -0.1934  0.2639
  527SOL     ow 2105   1.505   3.189   2.977  0.3363 -0.1498  0.8759
  527SOL     hw 2106   1.420   3.232   2.980  0.8651  1.0762 -0.4736
  527SOL     hw 2107   1.552   3.225   3.052 -0.4240 -1.1145  1.8516
  527SOL     vw 2108   1.500   3.200   2.987  0.3057 -0.1154  0.8266
  528SOL     ow 2109   1.168   3.841   2.768 -0.6241 -0.7558 -0.5159
  528SOL     hw 2110   1.144   3.769   2.710  1.4931 -3.3548  1.5908
  528SOL     hw 2111   1.129   3.819   2.852  0.2989  0.3952  0.2544
  528SOL     vw 2112   1.160   3.829   2.772 -0.2229 -0.9469 -0.1364
  529SOL     ow 2113   1.381   4.498   3.774  0.5258  0.4928  0.4583
  529SOL     hw 2114   1.450   4.489   3.839  0.7456 -0.3403  0.1290
  529SOL     hw 2115   1.427   4.517   3.692  0.3008  0.8887  0.4248
  529SOL     vw 2116   1.396   4.499   3.772  0.5252  0.4354  0.4104
  530SOL     ow 2117   1.172   1.300   1.494  0.2263  0.0386  0.0041
  530SOL     hw 2118   1.125   1.283   1.576  2.0899 -0.0151  1.1173
  530SOL     hw 2119   1.171   1.217   1.447  0.2097 -0.2703  0.5520
  530SOL     vw 2120   1.166   1.287   1.499  0.4700 -0.0093  0.2232
  531SOL     ow 2121   5.822   5.886   3.414 -0.1615  0.7489 -0.2404
  531SOL     hw 2122   5.827   5.793   3.394  1.3445  0.5383  0.8994
  531SOL     hw 2123   5.736   5.897   3.455  0.2161 -0.4540  0.9665
  531SOL     vw 2124   5.812   5.875   3.417  0.0873  0.5622  0.0691
  532SOL     ow 2125   4.308   5.177   2.610 -0.1380  0.2264 -0.0079
  532SOL     hw 2126   4.222   5.134   2.609 -0.7017  1.3331 -0.2805
  532SOL     hw 2127   4.307   5.232   2.688  0.3359  0.2485 -0.0118
  532SOL     vw 2128   4.297   5.179   2.620 -0.1497  0.3750 -0.0442
  533SOL     ow 2129   5.847   2.117   2.970 -0.1941 -0.0016  0.1163
  533SOL     hw 2130   5.875   2.060   3.041 -1.9563 -0.9014  0.1551
  533SOL     hw 2131   5.753   2.099   2.961 -0.2528  0.9697 -1.6447
  533SOL     vw 2132   5.838   2.107   2.978 -0.4342  0.0079 -0.1109
  534SOL     ow 2133   1.409   6.321   3.109 -0.1028  0.6061 -0.7638
  534SOL     hw 2134   1.326   6.366   3.095 -0.8206 -0.4325  0.0213
  534SOL     hw 2135   1.467   6.388   3.146 -1.1507  0.9197  0.3843
  534SOL     vw 2136   1.406   6.336   3.112 -0.3359  0.5105 -0.5088
  535SOL     ow 2137   3.086   6.064   5.694  0.3996  0.0190 -0.7822
  535SOL     hw 2138   3.069   6.132   5.759  0.3987 -0.6242 -0.0969
  535SOL     hw 2139   3.167   6.022   5.724 -0.0992 -0.8963 -0.6588
  535SOL     vw 2140   3.094   6.067   5.707  0.3335 -0.1867 -0.6754
  536SOL     ow 2141   3.102   3.131   1.576  0.3746  0.2226  0.2094
  536SOL     hw 2142   3.058   3.131   1.491  0.0445  1.5704  0.3551
  536SOL     hw 2143   3.069   3.209   1.620 -0.9277 -1.4270  2.3667
  536SOL     vw 2144   3.092   3.141   1.571  0.1593  0.1827  0.5133
  537SOL     ow 2145   1.127   0.732   4.469 -0.9699 -0.6160 -0.2312
  537SOL     hw 2146   1.109   0.755   4.560 -1.5801 -1.0683 -0.2294
  537SOL     hw 2147   1.112   0.638   4.464  2.2393 -1.2431 -0.0683
  537SOL     vw 2148   1.123   0.723   4.480 -0.6270 -0.7584 -0.2096
  538SOL     ow 2149   3.594   1.270   4.426  0.2120  0.1172 -0.0325
  538SOL     hw 2150   3.513   1.224   4.449 -0.2350  1.1731  0.6079
  538SOL     hw 2151   3.649   1.261   4.504 -0.0369  0.9829  0.2540
  538SOL     vw 2152   3.590   1.263   4.440  0.1202  0.3707  0.0896
  539SOL     ow 2153   0.417   5.451   0.114  0.2077  0.0048 -0.0274
  539SOL     hw 2154   0.382   5.539   0.127  0.1173 -0.3000  2.1655
  539SOL     hw 2155   0.507   5.465   0.086  0.0066  0.8051 -0.2852
  539SOL     vw 2156   0.424   5.464   0.112  0.1693  0.0701  0.2279
  540SOL     ow 2157   4.637   5.985   3.035  0.1316  0.2990  0.1047
  540SOL     hw 2158   4.633   6.080   3.029  0.6662  0.3477  0.4178
  540SOL     hw 2159   4.722   5.962   2.996 -0.7491 -0.2090 -1.6099
  540SOL     vw 2160   4.648   5.994   3.029  0.0861  0.2384 -0.0802
  541SOL     ow 2161   5.036   6.482   0.286  0.2568 -0.0110  0.0225
  541SOL     hw 2162   5.122   6.455   0.253  0.1762  0.9312 -1.0268
  541SOL     hw 2163   5.048   6.486   0.381  2.1886  2.5274 -0.1947
  541SOL     vw 2164   5.049   6.479   0.295  0.5009  0.4482 -0.1446
  542SOL     ow 2165   4.445   2.153   0.106 -0.2209  0.1283  0.7326
  542SOL     hw 2166   4.401   2.201   0.176 -1.3957  1.4794 -0.8589
  542SOL     hw 2167   4.444   2.213   0.031  1.5675 -1.0121 -0.2769
  542SOL     vw 2168   4.439   2.168   0.105 -0.1397  0.1562  0.3895
  543SOL     ow 2169   2.104   2.352   5.429 -0.4268 -0.4415 -0.5013
  543SOL     hw 2170   2.170   2.283   5.435 -0.9838 -0.8225  2.5192
  543SOL     hw 2171   2.148   2.424   5.382  1.6052 -1.2468  0.0877
  543SOL     vw 2172   2.118   2.353   5.423 -0.2321 -0.5980 -0.0253
  544SOL     ow 2173   1.322   0.578   0.263  0.5329  0.4432 -0.6163
  544SOL     hw 2174   1.402   0.614   0.302  0.6720 -0.4617 -0.0308
  544SOL     hw 2175   1.274   0.542   0.337  0.0680  0.0665 -1.0956
  544SOL     vw 2176   1.326   0.578   0.278  0.4899  0.2741 -0.6023
  545SOL     ow 2177   6.542   0.526   1.889  0.3075  0.6496  0.1724
  545SOL     hw 2178   6.567   0.547   1.799  1.7215  2.1707  0.8542
  545SOL     hw 2179   6.446   0.536   1.890  0.1743 -0.1825 -1.3224
  545SOL     vw 2180   6.532   0.530   1.877  0.4768  0.7405  0.0651
  546SOL     ow 2181   0.847   5.939   5.480  0.3288 -0.8829  0.1274
  546SOL     hw 2182   0.921   5.942   5.541  2.4953  1.0212 -2.2939
  546SOL     hw 2183   0.849   5.851   5.444  0.3473 -1.3698  1.2920
  546SOL     vw 2184   0.857   5.928   5.483  0.6171 -0.6959 -0.0381
  547SOL     ow 2185   4.294   1.378   4.628  0.1422  0.0198  1.1755
  547SOL     hw 2186   4.254   1.298   4.662 -0.0814 -0.4120 -0.0560
  547SOL     hw 2187   4.246   1.449   4.671 -1.9331 -0.4795 -0.1616
  547SOL     vw 2188   4.283   1.377   4.638 -0.1609 -0.1031  0.8364
  548SOL     ow 2189   3.827   3.698   2.329 -0.4193 -0.4880  0.2898
  548SOL     hw 2190   3.910   3.733   2.296 -0.7235 -1.7894 -2.0536
  548SOL     hw 2191   3.826   3.607   2.299 -2.8310 -0.4215 -0.0237
  548SOL     vw 2192   3.838   3.691   2.321 -0.7776 -0.6510 -0.0608
  549SOL     ow 2193   3.439   4.887   6.115 -0.3438  0.4651  0.6355
  549SOL     hw 2194   3.393   4.844   6.042  0.2707 -0.7789  0.9566
  549SOL     hw 2195   3.432   4.981   6.095 -0.9350  0.1951 -0.5687
  549SOL     vw 2196   3.432   4.894   6.103 -0.3408  0.2656  0.5193
  550SOL     ow 2197   2.315   4.855   0.443 -0.1445  0.3662  0.0997
  550SOL     hw 2198   2.280   4.903   0.368 -0.7935 -1.2611 -0.6741
  550SOL     hw 2199   2.256   4.877   0.515  1.6358  3.5726  0.7597
  550SOL     vw 2200   2.303   4.864   0.443  0.0048  0.5746  0.0847
  551SOL     ow 2201   5.210   3.717   6.778  0.0476 -0.0051  0.2276
  551SOL     hw 2202   5.293   3.731   6.825  0.7823 -2.3231 -0.2362
  551SOL     hw 2203   5.235   3.713   6.686 -0.8821  1.0136 -0.0944
  551SOL     vw 2204   5.224   3.718   6.772  0.0219 -0.1764  0.1242
  552SOL     ow 2205   6.266   5.436   2.504 -0.6357 -0.1294  0.2694
  552SOL     hw 2206   6.281   5.480   2.588 -0.5016 -1.0375  0.7315
  552SOL     hw 2207   6.343   5.381   2.492 -0.2719  0.6039 -0.8595
  552SOL     vw 2208   6.278   5.435   2.514 -0.5703 -0.1521  0.1816
  553SOL     ow 2209   4.475   3.105   0.902  0.2638 -0.4192 -0.0617
  553SOL     hw 2210   4.469   3.200   0.888 -1.2831 -0.3057  1.0277
  553SOL     hw 2211   4.390   3.082   0.938  0.5506 -2.2820 -0.5168
  553SOL     vw 2212   4.463   3.115   0.905  0.0975 -0.6499  0.0220
  554SOL     ow 2213   5.630   0.695   4.003  0.6689  0.0326 -0.1677
  554SOL     hw 2214   5.586   0.772   3.966  2.0223  0.3805 -1.1469
  554SOL     hw 2215   5.560   0.646   4.047 -0.5203  0.9926 -0.9147
  554SOL     vw 2216   5.615   0.699   4.004  0.6905  0.2052 -0.3955
  555SOL     ow 2217   6.447   5.760   1.961 -0.5327  0.3684  0.2423
  555SOL     hw 2218   6.392   5.692   1.998  1.2009 -0.4208  1.5069
  555SOL     hw 2219   6.460   5.822   2.033 -0.4811  0.9892 -0.2964
  555SOL     vw 2220   6.441   5.759   1.976 -0.2973  0.3462  0.3381
  556SOL     ow 2221   3.991   3.630   0.610 -0.1500  0.1983  0.7992
  556SOL     hw 2222   4.074   3.663   0.646  0.7460 -1.1034  0.0001
  556SOL     hw 2223   3.940   3.709   0.594  1.1302  1.0774  0.8450
  556SOL     vw 2224   3.995   3.645   0.613  0.1372  0.1423  0.6998
  557SOL     ow 2225   6.400   4.852   2.546 -0.2150 -0.5068 -0.0917
  557SOL     hw 2226   6.471   4.912   2.566 -0.8101 -0.4250  2.0004
  557SOL     hw 2227   6.330   4.877   2.606 -1.5462 -1.4214 -1.2035
  557SOL     vw 2228   6.400   4.863   2.556 -0.4692 -0.6168  0.0377
  558SOL     ow 2229   1.561   0.533   4.916 -0.0106 -0.4583 -0.1709
  558SOL     hw 2230   1.581   0.619   4.953 -1.5388  0.5647 -1.5340
  558SOL     hw 2231   1.628   0.518   4.850 -0.3057  0.1837 -0.6272
  558SOL     vw 2232   1.572   0.543   4.912 -0.2511 -0.2386 -0.4108
  559SOL     ow 2233   2.302   1.858   2.962 -0.4385 -0.0328  0.0499
  559SOL     hw 2234   2.295   1.773   2.919 -1.3389  0.7167 -1.3675
  559SOL     hw 2235   2.376   1.901   2.919 -2.2323  1.2971 -1.9607
  559SOL     vw 2236   2.311   1.853   2.950 -0.7941  0.2415 -0.4025
  560SOL     ow 2237   1.009   3.028   3.374 -0.1269  0.0629  0.0575
  560SOL     hw 2238   0.992   3.068   3.460 -0.5893  3.0879 -1.3332
  560SOL     hw 2239   0.926   2.989   3.348 -0.7764  1.5384 -0.1560
  560SOL     vw 2240   0.996   3.028   3.382 -0.2736  0.6567 -0.1541
  561SOL     ow 2241   2.219   3.261   5.600 -0.7108 -0.4302 -0.2515
  561SOL     hw 2242   2.188   3.219   5.520 -0.0174 -0.7072 -0.3771
  561SOL     hw 2243   2.230   3.190   5.662 -0.7828 -0.2740 -0.0587
  561SOL     vw 2244   2.216   3.246   5.598 -0.6289 -0.4463 -0.2427
  562SOL     ow 2245   2.920   6.829   1.202 -0.0114  0.1622  0.1146
  562SOL     hw 2246   2.978   6.813   1.127 -0.9278  2.1142 -1.0887
  562SOL     hw 2247   2.895   6.920   1.194 -3.3458 -0.5943  0.5107
  562SOL     vw 2248   2.924   6.839   1.191 -0.5723  0.3197  0.0082
  563SOL     ow 2249   1.456   1.081   2.642 -0.0436  0.0809 -0.0622
  563SOL     hw 2250   1.408   1.049   2.718  0.8051  0.9862  0.8802
  563SOL     hw 2251   1.546   1.052   2.656  0.3051  1.0312 -0.2602
  563SOL     vw 2252   1.461   1.073   2.654  0.1144  0.3257  0.0359
  564SOL     ow 2253   6.081   3.126   2.821  0.1662 -0.7040  0.0198
  564SOL     hw 2254   6.013   3.092   2.879 -0.0343 -0.9128 -0.3320
  564SOL     hw 2255   6.137   3.051   2.803 -0.4014 -0.9275 -0.9337
  564SOL     vw 2256   6.079   3.112   2.826  0.0648 -0.7609 -0.1525
  565SOL     ow 2257   4.091   4.586   6.736  0.0963 -0.4538  0.1801
  565SOL     hw 2258   4.183   4.607   6.752 -0.5509  2.2067  0.9581
  565SOL     hw 2259   4.090   4.543   6.651  2.0553 -0.5544  0.1757
  565SOL     vw 2260   4.103   4.583   6.727  0.2694 -0.1161  0.2823
  566SOL     ow 2261   4.679   0.222   3.222  0.2527 -0.3568  0.4649
  566SOL     hw 2262   4.620   0.181   3.285  0.6989  1.1417  1.9254
  566SOL     hw 2263   4.766   0.210   3.260  0.7241 -0.8506 -0.7112
  566SOL     vw 2264   4.683   0.215   3.235  0.3736 -0.2242  0.5023
  567SOL     ow 2265   0.962   1.599   2.027  0.0515  1.0292 -0.5303
  567SOL     hw 2266   0.875   1.592   1.987 -0.2013  1.3923 -0.0621
  567SOL     hw 2267   1.003   1.514   2.011 -0.4373  0.8127 -0.6509
  567SOL     vw 2268   0.956   1.587   2.020 -0.0464  1.0485 -0.4845
  568SOL     ow 2269   1.598   3.195   2.696 -0.2676  0.5028 -0.0006
  568SOL     hw 2270   1.551   3.278   2.684 -1.9275 -0.3074  0.6215
  568SOL     hw 2271   1.681   3.208   2.650 -0.8241  2.2295 -0.5976
  568SOL     vw 2272   1.603   3.208   2.688 -0.5600  0.6237  0.0027
  569SOL     ow 2273   1.300   1.227   2.425 -0.9235 -0.6835  0.1703
  569SOL     hw 2274   1.356   1.222   2.348  0.1479 -0.1674  0.8990
  569SOL     hw 2275   1.253   1.143   2.426 -0.6761 -0.8453 -0.8208
  569SOL     vw 2276   1.301   1.215   2.415 -0.7495 -0.6368  0.1357
  570SOL     ow 2277   4.958   5.899   0.376  0.0041 -0.2344 -0.1689
  570SOL     hw 2278   4.895   5.968   0.396 -0.1738 -0.8184  1.4835
  570SOL     hw 2279   4.906   5.833   0.330  0.3442  1.0042 -2.4696
  570SOL     vw 2280   4.942   5.899   0.373  0.0255 -0.1481 -0.2544
  571SOL     ow 2281   1.706   1.849   6.222 -0.6380 -0.5203 -0.8416
  571SOL     hw 2282   1.659   1.928   6.251  1.5959  1.3639 -1.9689
  571SOL     hw 2283   1.753   1.819   6.300 -0.7651 -0.1703 -0.6251
  571SOL     vw 2284   1.706   1.856   6.236 -0.3600 -0.2255 -0.9615
  572SOL     ow 2285   5.813   0.004   1.668 -0.7970 -0.4573  0.2518
  572SOL     hw 2286   5.744  -0.001   1.735  0.1641 -1.0221  1.2267
  572SOL     hw 2287   5.872  -0.068   1.690  0.1672  0.0974 -0.4966
  572SOL     vw 2288   5.811  -0.006   1.680 -0.5429 -0.4587  0.2817
  573SOL     ow 2289   0.298   6.840   4.459  0.1601 -0.2283  0.2417
  573SOL     hw 2290   0.288   6.870   4.369 -0.3141  1.9023  0.9662
  573SOL     hw 2291   0.393   6.832   4.471  0.2214 -0.6800 -0.4580
  573SOL     vw 2292   0.310   6.843   4.449  0.1056 -0.0069  0.2446
  574SOL     ow 2293   5.257   1.556   3.773  0.0720  0.4505  0.4389
  574SOL     hw 2294   5.346   1.521   3.769  0.3328  1.0950  0.5632
  574SOL     hw 2295   5.257   1.615   3.848 -0.3059  0.8712  0.1191
  574SOL     vw 2296   5.269   1.559   3.782  0.0567  0.5910  0.4132
  575SOL     ow 2297   1.444   6.827   4.409 -0.4232 -0.0813  0.6429
  575SOL     hw 2298   1.416   6.903   4.358  1.6353 -0.5359 -1.3321
  575SOL     hw 2299   1.384   6.825   4.483 -1.0174  3.0090  0.3892
  575SOL     vw 2300   1.432   6.837   4.412 -0.2300  0.2668  0.3490
  576SOL     ow 2301   2.482   3.858   6.446 -0.1669 -0.2262 -0.2257
  576SOL     hw 2302   2.487   3.952   6.426  0.9145 -0.7405 -2.7434
  576SOL     hw 2303   2.448   3.818   6.366 -0.1183 -2.0696  0.6223
  576SOL     vw 2304   2.478   3.865   6.433 -0.0178 -0.5373 -0.4458
  577SOL     ow 2305   3.607   3.347   5.770 -0.0305 -0.1966 -0.3451
  577SOL     hw 2306   3.564   3.362   5.686 -0.6440  1.0609  0.1586
  577SOL     hw 2307   3.695   3.383   5.759  0.5514 -1.7381 -1.0158
  577SOL     vw 2308   3.613   3.354   5.757 -0.0347 -0.2341 -0.3672
  578SOL     ow 2309   2.517   3.476   6.805 -0.2601  0.0919  0.1562
  578SOL     hw 2310   2.609   3.478   6.832 -0.1580  1.6470 -0.2241
  578SOL     hw 2311   2.506   3.553   6.750 -1.8042 -0.0488  0.2174
  578SOL     vw 2312   2.528   3.487   6.802 -0.4504  0.2784  0.1140
  579SOL     ow 2313   1.946   6.250   5.668  0.4166  0.1296  0.4970
  579SOL     hw 2314   1.908   6.191   5.733 -0.3273  1.1949  1.0783
  579SOL     hw 2315   2.017   6.294   5.715  2.3353 -1.7359 -0.5379
  579SOL     vw 2316   1.950   6.248   5.683  0.5716  0.0238  0.4373
  580SOL     ow 2317   3.659   4.514   3.674 -0.2239  0.7992 -0.6552
  580SOL     hw 2318   3.735   4.572   3.668 -0.2946  0.8636 -0.9594
  580SOL     hw 2319   3.599   4.559   3.733  0.5627  0.0768  0.7575
  580SOL     vw 2320   3.661   4.528   3.681 -0.1295  0.7124 -0.5089
  581SOL     ow 2321   6.898   5.309   0.768 -0.3554  1.2471 -0.0466
  581SOL     hw 2322   6.837   5.356   0.712 -0.9045 -0.7263 -1.1968
  581SOL     hw 2323   6.847   5.238   0.806  0.5197  1.3252  1.4022
  581SOL     vw 2324   6.883   5.306   0.766 -0.3123  0.9968 -0.0073
  582SOL     ow 2325   0.914   5.915   2.354 -0.6480  0.0961  0.0663
  582SOL     hw 2326   1.006   5.931   2.332 -1.1403  1.4222 -1.2490
  582SOL     hw 2327   0.875   5.884   2.272 -1.6426  0.9068  0.2103
  582SOL     vw 2328   0.921   5.913   2.340 -0.8441  0.3781 -0.0883
  583SOL     ow 2329   1.129   0.389   0.499 -0.0028 -0.2187 -0.2402
  583SOL     hw 2330   1.132   0.333   0.421 -2.2767  0.0246 -0.5480
  583SOL     hw 2331   1.214   0.373   0.541  0.2037 -2.4651 -1.2985
  583SOL     vw 2332   1.141   0.379   0.494 -0.2756 -0.4830 -0.4204
  584SOL     ow 2333   1.564   4.382   0.313 -0.9926  0.3261  0.1623
  584SOL     hw 2334   1.616   4.376   0.233 -0.1161  0.6581  0.6920
  584SOL     hw 2335   1.578   4.298   0.358 -1.0719  0.3338  0.2012
  584SOL     vw 2336   1.573   4.370   0.309 -0.8874  0.3710  0.2373
  585SOL     ow 2337   4.313   5.402   4.253 -0.1617  0.4608  0.0312
  585SOL     hw 2338   4.234   5.428   4.302 -0.3631  0.4612 -0.2942
  585SOL     hw 2339   4.385   5.433   4.308 -0.3611 -0.4240  0.8256
  585SOL     vw 2340   4.312   5.410   4.267 -0.2146  0.3440  0.0930
  586SOL     ow 2341   2.767   5.100   0.484 -0.1690  0.0882 -0.5194
  586SOL     hw 2342   2.822   5.108   0.562  0.3267 -2.7574 -0.4667
  586SOL     hw 2343   2.689   5.152   0.504 -0.4742 -1.2712  2.3353
  586SOL     vw 2344   2.764   5.108   0.497 -0.1439 -0.4668 -0.1358
  587SOL     ow 2345   4.019   2.787   5.628 -0.5655  0.5246  0.1397
  587SOL     hw 2346   4.084   2.746   5.684  0.1407  1.6326  0.1593
  587SOL     hw 2347   3.964   2.715   5.598  0.4191 -0.3738  0.4507
  587SOL     vw 2348   4.020   2.772   5.631 -0.3426  0.5522  0.1833
  588SOL     ow 2349   1.293   3.786   0.565 -0.3265  0.3903  0.7658
  588SOL     hw 2350   1.377   3.828   0.584  1.4856 -2.4315 -0.2847
  588SOL     hw 2351   1.273   3.736   0.644 -2.0651  2.4391  1.7134
  588SOL     vw 2352   1.302   3.785   0.578 -0.3167  0.2884  0.7522
  589SOL     ow 2353   6.495   3.374   4.648  0.2091  0.4606 -0.3821
  589SOL     hw 2354   6.465   3.285   4.667 -0.9357  0.8808 -0.1026
  589SOL     hw 2355   6.455   3.395   4.564 -0.8598  1.2658  0.2980
  589SOL     vw 2356   6.485   3.365   4.639 -0.0832  0.6222 -0.2556
  590SOL     ow 2357   3.957   4.874   5.868  0.1258 -0.1739 -0.0056
  590SOL     hw 2358   4.038   4.902   5.911  0.0688 -4.0423  3.1536
  590SOL     hw 2359   3.986   4.825   5.791  0.7174 -0.1697  0.2107
  590SOL     vw 2360   3.971   4.871   5.863  0.1962 -0.6838  0.4399
  591SOL     ow 2361   4.198   0.591   3.792  0.3807  0.1785  0.2425
  591SOL     hw 2362   4.234   0.534   3.861 -0.6836  1.5742  2.0340
  591SOL     hw 2363   4.124   0.635   3.834  0.0146  1.4793 -1.6663
  591SOL     vw 2364   4.193   0.589   3.807  0.1919  0.5342  0.2271
  592SOL     ow 2365   1.295   1.057   6.764  0.3569 -0.2699  0.4954
  592SOL     hw 2366   1.328   1.133   6.812 -0.4657  0.9645 -0.8186
  592SOL     hw 2367   1.200   1.058   6.779  0.4543 -1.7746  1.4439
  592SOL     vw 2368   1.287   1.067   6.772  0.2612 -0.3055  0.4470
  593SOL     ow 2369   1.132   2.143   2.677 -0.6165  0.2970 -0.1023
  593SOL     hw 2370   1.103   2.165   2.589  2.4343  0.3525 -1.2342
  593SOL     hw 2371   1.219   2.183   2.684  1.2049 -3.3841  1.2262
  593SOL     vw 2372   1.140   2.151   2.667  0.0262 -0.1813 -0.0764
  594SOL     ow 2373   0.526   2.337   3.718 -0.0555 -0.7517  0.7788
  594SOL     hw 2374   0.578   2.379   3.649  1.0891  0.1321  2.1265
  594SOL     hw 2375   0.492   2.258   3.677  0.5146 -0.2114 -0.8301
  594SOL     vw 2376   0.529   2.332   3.704  0.1707 -0.5639  0.7442
  595SOL     ow 2377   2.861   2.583   5.391 -0.6080 -0.3012 -0.6734
  595SOL     hw 2378   2.895   2.550   5.308 -0.2318  0.2743 -0.7507
  595SOL     hw 2379   2.911   2.663   5.408 -0.5060 -0.5485  0.2309
  595SOL     vw 2380   2.872   2.589   5.382 -0.5450 -0.2578 -0.5643
  596SOL     ow 2381   2.069   1.267   5.909 -0.3347 -0.0258  0.0852
  596SOL     hw 2382   1.998   1.202   5.901 -1.2833  1.0774 -0.6988
  596SOL     hw 2383   2.070   1.289   6.002 -1.0396 -0.0531  0.1086
  596SOL     vw 2384   2.060   1.261   5.920 -0.5529  0.1161 -0.0153
  597SOL     ow 2385   3.114   2.486   3.733  0.1928 -0.1454 -0.2224
  597SOL     hw 2386   3.074   2.556   3.682 -0.2036 -0.3482 -0.1953
  597SOL     hw 2387   3.044   2.455   3.790  0.6058  0.0233  0.3879
  597SOL     vw 2388   3.100   2.491   3.734  0.1949 -0.1498 -0.1384
  598SOL     ow 2389   6.765   4.161   6.578 -0.3525  0.2597  0.7720
  598SOL     hw 2390   6.723   4.201   6.654 -2.2242  0.3419 -0.2255
  598SOL     hw 2391   6.796   4.236   6.527 -0.5802  0.2935  0.6781
  598SOL     vw 2392   6.763   4.176   6.581 -0.6292  0.2751  0.6280
  599SOL     ow 2393   4.176   2.702   6.191  0.1353  0.1852  0.1548
  599SOL     hw 2394   4.228   2.730   6.267  0.3342 -0.6693  0.3393
  599SOL     hw 2395   4.239   2.697   6.119 -0.4564  3.4714 -0.7637
  599SOL     vw 2396   4.191   2.705   6.192  0.0834  0.5060  0.0582
  600SOL     ow 2397   5.141   6.798   5.012 -0.3419 -0.5974 -0.0313
  600SOL     hw 2398   5.137   6.728   4.947 -0.3602 -1.6957  1.1177
  600SOL     hw 2399   5.050   6.814   5.036 -0.4048  0.4145 -0.8814
  600SOL     vw 2400   5.129   6.791   5.007 -0.3529 -0.6087  0.0079
  601SOL     ow 2401   6.063   2.565   1.716  0.7344  0.3604 -0.1113
  601SOL     hw 2402   6.155   2.556   1.738  1.0037  1.8582 -0.4926
  601SOL     hw 2403   6.018   2.502   1.772  2.0501 -0.9652 -0.5085
  601SOL     vw 2404   6.069   2.556   1.726  0.9437  0.3831 -0.2140
  602SOL     ow 2405   1.455   0.080   3.165 -0.6278 -0.6060 -0.5113
  602SOL     hw 2406   1.496   0.059   3.081 -0.2373  1.8728 -1.0154
  602SOL     hw 2407   1.497   0.020   3.228  0.7355 -0.9613 -1.7004
  602SOL     vw 2408   1.466   0.069   3.163 -0.3964 -0.3258 -0.7347
  603SOL     ow 2409   5.103   2.900   1.569  0.0042  0.1940 -0.1165
  603SOL     hw 2410   5.067   2.841   1.636 -0.3406 -1.6333 -1.8024
  603SOL     hw 2411   5.050   2.979   1.576 -2.5906 -1.3666 -0.6540
  603SOL     vw 2412   5.091   2.902   1.579 -0.3836 -0.2530 -0.4099
  604SOL     ow 2413   3.414   4.673   4.628  0.2159 -0.0555  0.0503
  604SOL     hw 2414   3.369   4.646   4.548 -0.9758 -1.7232  1.2044
  604SOL     hw 2415   3.430   4.766   4.616  0.0767 -0.2588 -2.1136
  604SOL     vw 2416   3.410   4.682   4.616  0.0404 -0.3023 -0.0827
  605SOL     ow 2417   1.354   5.247   0.257  0.1936 -0.1380  0.4539
  605SOL     hw 2418   1.414   5.284   0.193 -1.1946  1.5566  0.0677
  605SOL     hw 2419   1.277   5.304   0.254 -0.5946 -1.0058  2.4236
  605SOL     vw 2420   1.352   5.259   0.248 -0.0936 -0.0288  0.6628
  606SOL     ow 2421   2.618   2.107   4.206 -0.5205  0.1771  0.0146
  606SOL     hw 2422   2.690   2.084   4.264 -1.2175 -2.6133 -0.0599
  606SOL     hw 2423   2.571   2.176   4.252  1.6214  1.4325  0.4779
  606SOL     vw 2424   2.621   2.113   4.220 -0.3300 -0.0254  0.0656
  607SOL     ow 2425   1.095   4.767   0.163 -0.0771  0.4396  0.5396
  607SOL     hw 2426   1.124   4.723   0.084  1.1584  0.5938  0.8827
  607SOL     hw 2427   1.034   4.706   0.205  1.0281 -0.6185  0.6269
  607SOL     vw 2428   1.091   4.753   0.158  0.2317  0.3202  0.5964
  608SOL     ow 2429   0.158   5.386   2.243 -0.5505 -0.2508 -0.1455
  608SOL     hw 2430   0.105   5.318   2.284  2.2718 -1.3090  2.1088
  608SOL     hw 2431   0.203   5.341   2.171  1.3145 -0.9199  1.3443
  608SOL     vw 2432   0.157   5.371   2.238  0.0680 -0.4787  0.3486
  609SOL     ow 2433   2.350   2.955   3.336  0.0354  0.4426  0.0578
  609SOL     hw 2434   2.268   3.003   3.346 -0.8197 -0.6464 -1.2631
  609SOL     hw 2435   2.373   2.928   3.425 -0.2434  1.9828  0.6237
  609SOL     vw 2436   2.342   2.958   3.349 -0.1142  0.5022 -0.0417
  610SOL     ow 2437   0.131   6.607   4.636 -0.7833  0.3509 -0.2425
  610SOL     hw 2438   0.142   6.613   4.731  1.0190 -0.1141 -0.3850
  610SOL     hw 2439   0.163   6.519   4.614  1.1745  1.3302 -1.5358
  610SOL     vw 2440   0.136   6.596   4.646 -0.2872  0.4184 -0.4315
  611SOL     ow 2441   0.475   6.907   1.163 -0.6804 -0.4224  0.8182
  611SOL     hw 2442   0.410   6.908   1.233  1.0999  0.5583  2.5559
  611SOL     hw 2443   0.475   6.997   1.130 -0.3700 -0.4849  0.6465
  611SOL     vw 2444   0.466   6.919   1.168 -0.4046 -0.3011  1.0248
  612SOL     ow 2445   4.380   1.599   6.575 -0.4658 -0.5765  0.1858
  612SOL     hw 2446   4.332   1.678   6.551 -0.8312 -1.3437 -1.9097
  612SOL     hw 2447   4.454   1.630   6.627  0.0119  1.2959 -1.4724
  612SOL     vw 2448   4.383   1.613   6.579 -0.4508 -0.4307 -0.3092
  613SOL     ow 2449   2.792   3.403   5.192  0.0862  0.7076 -0.0570
  613SOL     hw 2450   2.738   3.326   5.208  0.4110  0.1312 -1.6340
  613SOL     hw 2451   2.729   3.475   5.185 -0.2040  0.6620  1.6318
  613SOL     vw 2452   2.776   3.403   5.193  0.0907  0.6256 -0.0422
  614SOL     ow 2453   4.127   4.553   1.510 -0.4363  0.1233 -0.7518
  614SOL     hw 2454   4.046   4.510   1.538 -0.7802  0.3580 -1.3672
  614SOL     hw 2455   4.120   4.643   1.543 -0.3246  0.0779 -0.6066
  614SOL     vw 2456   4.115   4.559   1.518 -0.4671  0.1481 -0.8138
  615SOL     ow 2457   0.299   5.110   4.901 -0.2261 -0.4229 -0.4367
  615SOL     hw 2458   0.230   5.145   4.844 -0.8587 -0.5645  0.2317
  615SOL     hw 2459   0.296   5.015   4.887 -0.2813 -0.4446 -0.2787
  615SOL     vw 2460   0.290   5.102   4.892 -0.3169 -0.4447 -0.3276
  616SOL     ow 2461   1.567   4.043   6.317  0.0357 -0.8010 -0.3664
  616SOL     hw 2462   1.521   4.088   6.246  1.4388 -0.0431 -0.8421
  616SOL     hw 2463   1.605   4.114   6.369  0.8619 -1.3967 -0.1357
  616SOL     vw 2464   1.566   4.058   6.314  0.3299 -0.7796 -0.3989
  617SOL     ow 2465   4.382   1.965   3.094 -0.0398 -0.5083  0.2195
  617SOL     hw 2466   4.378   1.967   3.190 -0.0211  0.8982  0.2085
  617SOL     hw 2467   4.469   1.999   3.073 -0.5384  0.4874 -0.3136
  617SOL     vw 2468   4.393   1.970   3.104 -0.1028 -0.1913  0.1476
  618SOL     ow 2469   4.763   0.797   2.697  0.1727 -0.4751 -0.0597
  618SOL     hw 2470   4.776   0.883   2.739  0.4099  0.9680 -2.8621
  618SOL     hw 2471   4.846   0.779   2.653 -1.3654  0.3756 -3.6404
  618SOL     vw 2472   4.776   0.806   2.697  0.0010 -0.1725 -0.9019
  619SOL     ow 2473   4.796   6.515   2.065 -0.2562 -0.2063 -0.0423
  619SOL     hw 2474   4.778   6.445   2.003  1.7314 -0.7231 -0.0958
  619SOL     hw 2475   4.819   6.471   2.147 -0.0213  0.4039  0.2298
  619SOL     vw 2476   4.796   6.500   2.068  0.0370 -0.1941 -0.0134
  620SOL     ow 2477   0.389   2.646   2.473  0.3907 -0.6894  0.4140
  620SOL     hw 2478   0.331   2.574   2.497  0.6118 -1.0651 -0.1480
  620SOL     hw 2479   0.404   2.694   2.555 -1.4093 -0.0585  0.4266
  620SOL     vw 2480   0.383   2.643   2.487  0.1824 -0.6558  0.3414
  621SOL     ow 2481   1.812   2.330   5.639 -0.3925 -0.1908 -0.1937
  621SOL     hw 2482   1.757   2.385   5.584 -0.8003 -0.7385 -0.3419
  621SOL     hw 2483   1.752   2.291   5.703 -0.0439 -0.1364  0.1766
  621SOL     vw 2484   1.797   2.332   5.640 -0.4004 -0.2558 -0.1645
  622SOL     ow 2485   0.174   3.051   6.623  0.2606  0.6539  0.1982
  622SOL     hw 2486   0.192   3.111   6.695  0.6175 -0.2077  0.8488
  622SOL     hw 2487   0.255   3.002   6.611 -0.4348 -0.6849  0.6623
  622SOL     vw 2488   0.187   3.052   6.631  0.2159  0.3635  0.3452
  623SOL     ow 2489   5.983   0.102   6.030 -0.0938  0.2428  0.5213
  623SOL     hw 2490   5.939   0.096   6.114 -2.5449 -0.7957 -0.7404
  623SOL     hw 2491   5.950   0.183   5.991  0.1791  0.1589  0.1088
  623SOL     vw 2492   5.973   0.112   6.036 -0.3815  0.0947  0.3006
  624SOL     ow 2493   2.362   0.338   0.523  0.4789 -0.0117 -0.0459
  624SOL     hw 2494   2.267   0.348   0.535  0.2073 -1.5839 -0.6564
  624SOL     hw 2495   2.380   0.382   0.440 -0.0152 -1.0218 -0.7210
  624SOL     vw 2496   2.352   0.345   0.514  0.3779 -0.3524 -0.2155
  625SOL     ow 2497   3.358   5.905   2.230  0.1261  0.5591  0.0276
  625SOL     hw 2498   3.438   5.923   2.279 -0.0410  1.7543 -0.1117
  625SOL     hw 2499   3.288   5.914   2.294 -0.0667  1.7960 -0.3498
  625SOL     vw 2500   3.360   5.908   2.245  0.0788  0.8800 -0.0405
  626SOL     ow 2501   1.814   2.022   2.474  0.4413 -0.3965 -0.3552
  626SOL     hw 2502   1.784   1.942   2.431  0.0258 -0.7304  0.5214
  626SOL     hw 2503   1.902   2.037   2.439  1.2214 -2.1918  0.6797
  626SOL     vw 2504   1.821   2.014   2.464  0.4894 -0.6775 -0.1031
  627SOL     ow 2505   5.811   3.212   3.458  0.3592  0.1799  0.8424
  627SOL     hw 2506   5.741   3.266   3.422 -0.0678 -1.0570 -0.2710
  627SOL     hw 2507   5.774   3.123   3.459  1.2892 -0.2188  1.9274
  627SOL     vw 2508   5.797   3.207   3.453  0.4256 -0.0359  0.8388
  628SOL     ow 2509   6.875   5.613   2.172  0.0665 -0.7998 -0.0626
  628SOL     hw 2510   6.840   5.601   2.260  2.1688 -0.9339  0.8091
  628SOL     hw 2511   6.855   5.705   2.151  0.0856 -0.5803  0.8289
  628SOL     vw 2512   6.868   5.624   2.181  0.3467 -0.7885  0.1700
  629SOL     ow 2513   2.854   1.472   6.644  0.3851 -0.2100  0.1361
  629SOL     hw 2514   2.833   1.476   6.551  1.1831  1.6733  0.0080
  629SOL     hw 2515   2.917   1.400   6.651  0.5162 -0.1974 -0.8143
  629SOL     vw 2516   2.860   1.463   6.633  0.5077  0.0401 -0.0062
  630SOL     ow 2517   3.596   3.796   4.768  0.4304 -0.6682 -0.1415
  630SOL     hw 2518   3.671   3.764   4.718  1.4980 -0.1195  1.0573
  630SOL     hw 2519   3.567   3.875   4.722 -0.2656 -1.5785 -1.3414
  630SOL     vw 2520   3.602   3.802   4.755  0.4795 -0.7160 -0.1416
  631SOL     ow 2521   2.256   6.528   0.916 -0.7924 -0.3926  0.7167
  631SOL     hw 2522   2.299   6.603   0.955 -1.0831  0.2021 -0.0796
  631SOL     hw 2523   2.175   6.563   0.880  0.2473 -0.5181 -1.9628
  631SOL     vw 2524   2.251   6.542   0.916 -0.6936 -0.3307  0.2581
  632SOL     ow 2525   5.638   4.135   4.177 -0.2138 -0.5875  0.4591
  632SOL     hw 2526   5.634   4.194   4.102  2.0520 -1.1974 -0.2273
  632SOL     hw 2527   5.565   4.074   4.165 -0.3309 -0.2004 -0.8292
  632SOL     vw 2528   5.628   4.135   4.166  0.0696 -0.6170  0.1984
  633SOL     ow 2529   1.804   4.819   2.479  0.0413 -0.0237  0.2927
  633SOL     hw 2530   1.718   4.778   2.479  0.0727 -0.1307  1.7471
  633SOL     hw 2531   1.786   4.911   2.461 -0.2611 -0.2299 -0.5001
  633SOL     vw 2532   1.791   4.826   2.477  0.0054 -0.0651  0.3799
  634SOL     ow 2533   0.029   4.698   0.164  0.1508 -0.2977 -0.1546
  634SOL     hw 2534   0.116   4.660   0.175 -1.1473 -3.6087 -0.1661
  634SOL     hw 2535   0.015   4.751   0.242  2.1897  0.4627 -0.2541
  634SOL     vw 2536   0.039   4.700   0.175  0.2485 -0.6342 -0.1692
  635SOL     ow 2537   1.402   4.001   2.892 -0.0637  0.1599  0.2886
  635SOL     hw 2538   1.415   4.070   2.957 -0.5364 -0.2552  0.8387
  635SOL     hw 2539   1.481   3.947   2.900 -0.1806  0.0331  0.6238
  635SOL     vw 2540   1.414   4.003   2.902 -0.1414  0.0885  0.4053
  636SOL     ow 2541   2.225   2.098   2.498  0.1434  0.1943 -0.0756
  636SOL     hw 2542   2.297   2.137   2.549  0.1760 -0.0687  0.0829
  636SOL     hw 2543   2.263   2.084   2.411 -0.2713  1.7590 -0.5399
  636SOL     vw 2544   2.240   2.101   2.494  0.0930  0.3661 -0.1160
  637SOL     ow 2545   4.630   0.206   6.275 -0.1887  0.3220 -0.4619
  637SOL     hw 2546   4.556   0.184   6.332 -1.0241 -0.2431 -1.7263
  637SOL     hw 2547   4.597   0.276   6.219  0.4533  0.5044 -0.6241
  637SOL     vw 2548   4.616   0.212   6.275 -0.2139  0.2715 -0.6502
  638SOL     ow 2549   4.339   5.086   1.032 -0.3868 -0.2183 -0.2625
  638SOL     hw 2550   4.411   5.108   0.973  1.7033 -1.5534  1.6332
  638SOL     hw 2551   4.306   5.171   1.062  0.9078  0.4278 -0.5904
  638SOL     vw 2552   4.344   5.100   1.028  0.0596 -0.3090 -0.0557
  639SOL     ow 2553   2.538   3.766   2.387  0.6607  0.2623 -0.2609
  639SOL     hw 2554   2.524   3.855   2.356  2.6182  0.6095 -0.2895
  639SOL     hw 2555   2.561   3.717   2.308 -1.4212 -0.5664 -0.4215
  639SOL     vw 2556   2.539   3.771   2.373  0.6443  0.1988 -0.2859
  640SOL     ow 2557   4.011   3.912   3.517 -0.0376 -0.0957  0.2766
  640SOL     hw 2558   3.936   3.880   3.467  1.7488 -0.0963 -2.6763
  640SOL     hw 2559   3.994   3.885   3.607 -2.9661 -1.1198 -0.4811
  640SOL     vw 2560   3.999   3.904   3.522 -0.1885 -0.2309 -0.2129
  641SOL     ow 2561   2.983   0.313   5.150 -0.0591 -0.3513  0.4680
  641SOL     hw 2562   2.923   0.268   5.210 -0.5649  0.5653  0.6691
  641SOL     hw 2563   3.002   0.249   5.083 -3.3130  0.0577 -1.0490
  641SOL     vw 2564   2.978   0.299   5.149 -0.5552 -0.1764  0.2944
  642SOL     ow 2565   6.730   3.488   4.851 -0.1264  0.1416 -0.1017
  642SOL     hw 2566   6.787   3.565   4.855 -0.8139  0.6453  0.5070
  642SOL     hw 2567   6.750   3.439   4.931 -1.4064  0.9870  0.7912
  642SOL     vw 2568   6.740   3.492   4.862 -0.3858  0.3195  0.0966
  643SOL     ow 2569   4.936   1.669   1.239  0.1084  0.0650 -0.1826
  643SOL     hw 2570   4.866   1.635   1.295 -0.7729  0.5938 -0.9296
  643SOL     hw 2571   4.899   1.747   1.199  0.0039 -1.2774 -2.9440
  643SOL     vw 2572   4.922   1.675   1.241 -0.0219 -0.0423 -0.6455
  644SOL     ow 2573   4.371   5.423   2.459 -0.0562  0.3380 -0.4960
  644SOL     hw 2574   4.315   5.481   2.511  1.4146  0.9512  0.4742
  644SOL     hw 2575   4.349   5.444   2.368 -0.3211  1.6627 -0.1522
  644SOL     vw 2576   4.361   5.433   2.454  0.1028  0.5934 -0.3227
  645SOL     ow 2577   2.804   6.566   6.001  0.5978 -0.3344  0.1317
  645SOL     hw 2578   2.858   6.593   6.075 -0.7105  0.7553  0.7052
  645SOL     hw 2579   2.714   6.579   6.030  0.0549  0.8987 -1.9172
  645SOL     vw 2580   2.799   6.571   6.014  0.3537 -0.0277 -0.0632
  646SOL     ow 2581   6.875   5.782   4.056  0.4759 -0.0131 -0.0978
  646SOL     hw 2582   6.829   5.770   3.973 -0.8753 -1.6431  0.8198
  646SOL     hw 2583   6.967   5.785   4.032  0.1125 -0.2629 -1.6735
  646SOL     vw 2584   6.881   5.781   4.042  0.2496 -0.2611 -0.1848
  647SOL     ow 2585   0.538   4.892   1.035 -0.4608  0.0077 -0.0122
  647SOL     hw 2586   0.496   4.811   1.065 -0.1040 -0.4359 -0.7046
  647SOL     hw 2587   0.561   4.875   0.944  2.1762 -0.1512  0.6178
  647SOL     vw 2588   0.535   4.879   1.027 -0.0657 -0.0720 -0.0204
  648SOL     ow 2589   6.667   0.505   2.194  0.1870  0.1922  0.8317
  648SOL     hw 2590   6.705   0.417   2.189  0.2127  0.2551 -0.3476
  648SOL     hw 2591   6.663   0.524   2.288  2.8589  0.1110  1.0243
  648SOL     vw 2592   6.671   0.496   2.206  0.5429  0.1898  0.7014
  649SOL     ow 2593   1.674   2.105   4.920  0.0240 -0.7045 -0.5410
  649SOL     hw 2594   1.703   2.024   4.879  0.7420  0.2131 -1.9323
  649SOL     hw 2595   1.641   2.078   5.006 -0.7121 -2.5892 -1.3597
  649SOL     vw 2596   1.673   2.091   4.926  0.0216 -0.8321 -0.8326
  650SOL     ow 2597   1.275   5.711   1.337 -0.2465 -0.1649 -0.2156
  650SOL     hw 2598   1.268   5.752   1.251 -2.1291  0.7169  0.3094
  650SOL     hw 2599   1.293   5.619   1.318  0.5102  0.2225 -1.5038
  650SOL     vw 2600   1.277   5.704   1.323 -0.3951  0.0026 -0.3163
  651SOL     ow 2601   3.531   5.547   1.817  0.1041  0.0124  0.6697
  651SOL     hw 2602   3.444   5.563   1.780 -0.4265 -0.2146  1.7781
  651SOL     hw 2603   3.587   5.612   1.776 -0.6714  0.4181  0.2324
  651SOL     vw 2604   3.527   5.558   1.807 -0.0683  0.0362  0.7582
  652SOL     ow 2605   1.315   0.911   4.254  0.1685  0.2601  0.1629
  652SOL     hw 2606   1.381   0.865   4.305  0.5042 -1.3913 -1.6291
  652SOL     hw 2607   1.343   0.900   4.163 -1.5609  1.1707 -0.5302
  652SOL     vw 2608   1.327   0.904   4.248 -0.0154  0.1624 -0.1647
  653SOL     ow 2609   4.925   3.641   6.737  0.5552  0.5863 -0.1912
  653SOL     hw 2610   4.873   3.578   6.787  0.1573  0.3623 -0.8759
  653SOL     hw 2611   4.862   3.706   6.707  0.7047  0.4573 -0.8074
  653SOL     vw 2612   4.910   3.642   6.740  0.5224  0.5397 -0.3629
  654SOL     ow 2613   4.575   4.083   0.872 -0.0663  0.0597  0.1692
  654SOL     hw 2614   4.647   4.020   0.870  2.1295  2.3933 -0.7364
  654SOL     hw 2615   4.618   4.167   0.889 -2.2586  1.9183 -2.6049
  654SOL     vw 2616   4.590   4.086   0.874 -0.0658  0.6130 -0.3163
  655SOL     ow 2617   2.975   0.141   2.506  0.0212  0.1726 -0.0534
  655SOL     hw 2618   2.985   0.048   2.525  3.8839 -0.1764 -2.6357
  655SOL     hw 2619   3.037   0.185   2.566  1.5236  0.4906 -1.7371
  655SOL     vw 2620   2.985   0.135   2.517  0.7291  0.1685 -0.6161
  656SOL     ow 2621   6.182   4.652   2.428 -0.2046  0.1613 -0.2552
  656SOL     hw 2622   6.114   4.680   2.489 -0.9142 -0.6138 -0.6689
  656SOL     hw 2623   6.136   4.643   2.344  0.9554  2.2795 -1.1953
  656SOL     vw 2624   6.167   4.654   2.425 -0.1454  0.3383 -0.4338
  657SOL     ow 2625   4.390   1.180   1.645  0.5925 -0.4704 -0.3945
  657SOL     hw 2626   4.468   1.232   1.627 -0.2925  0.9031 -0.4045
  657SOL     hw 2627   4.318   1.232   1.610 -0.3816 -1.5013  0.0088
  657SOL     vw 2628   4.391   1.193   1.638  0.3474 -0.4252 -0.3426
  658SOL     ow 2629   5.715   1.920   1.714  0.4035  0.7999  0.4447
  658SOL     hw 2630   5.678   2.008   1.724 -4.0406 -0.7788  0.4496
  658SOL     hw 2631   5.712   1.903   1.620 -1.5607 -0.2325  0.6331
  658SOL     vw 2632   5.709   1.929   1.703 -0.4420  0.4554  0.4702
  659SOL     ow 2633   3.325   4.995   6.348  0.3986  0.1328 -0.0034
  659SOL     hw 2634   3.343   5.078   6.392 -2.9670  1.2930 -0.6049
  659SOL     hw 2635   3.245   4.963   6.388  1.2339 -2.5722 -0.2637
  659SOL     vw 2636   3.317   5.002   6.359  0.0646 -0.0710 -0.1171
  660SOL     ow 2637   0.386   6.717   2.413 -0.6085  0.1520  0.1881
  660SOL     hw 2638   0.392   6.685   2.504 -2.2620 -1.7245 -0.2951
  660SOL     hw 2639   0.376   6.637   2.361 -0.2371  1.2369 -1.6138
  660SOL     vw 2640   0.386   6.702   2.418 -0.7776  0.0477 -0.1134
  661SOL     ow 2641   1.988   5.694   4.695 -0.0522 -0.0809 -0.0747
  661SOL     hw 2642   1.956   5.632   4.629 -0.7094  0.1081  0.0580
  661SOL     hw 2643   1.924   5.688   4.766  0.4327  0.0109  0.3761
  661SOL     vw 2644   1.975   5.685   4.696 -0.0749 -0.0439  0.0024
  662SOL     ow 2645   3.697   4.853   2.376 -0.5285  0.1983  0.1616
  662SOL     hw 2646   3.619   4.834   2.429 -1.2174 -0.1598 -0.9465
  662SOL     hw 2647   3.761   4.886   2.439 -1.9185  1.4965  0.9470
  662SOL     vw 2648   3.695   4.855   2.391 -0.8028  0.3223  0.1189
  663SOL     ow 2649   1.887   4.799   6.759  0.5412 -0.0922 -0.3191
  663SOL     hw 2650   1.912   4.707   6.745  0.4607 -0.4450  1.5998
  663SOL     hw 2651   1.797   4.804   6.727  0.9258 -0.3658 -1.5061
  663SOL     vw 2652   1.878   4.787   6.753  0.5813 -0.1748 -0.2224
  664SOL     ow 2653   3.031   1.101   3.920 -0.3267  0.9497 -0.0406
  664SOL     hw 2654   3.063   1.025   3.871 -1.7515  0.2452  0.0430
  664SOL     hw 2655   3.010   1.166   3.852 -0.9389  0.5159 -0.2843
  664SOL     vw 2656   3.032   1.099   3.904 -0.5955  0.7995 -0.0619
  665SOL     ow 2657   4.050   0.265   0.818  0.2655 -0.3768  0.0670
  665SOL     hw 2658   4.055   0.356   0.845  0.3061  0.0428 -1.2876
  665SOL     hw 2659   4.022   0.218   0.897  0.7307  0.7236  0.9130
  665SOL     vw 2660   4.047   0.271   0.832  0.3326 -0.1763 -0.0001
  666SOL     ow 2661   2.821   2.159   4.908 -0.3557 -0.4068  0.1964
  666SOL     hw 2662   2.777   2.216   4.971 -1.1297  0.1719 -0.8381
  666SOL     hw 2663   2.819   2.207   4.826  2.8080 -0.0629  0.1838
  666SOL     vw 2664   2.815   2.173   4.906 -0.0403 -0.2851  0.0582
  667SOL     ow 2665   1.519   6.747   0.702  0.3262 -0.3786  0.0134
  667SOL     hw 2666   1.594   6.688   0.704  0.5228 -0.1242  0.3914
  667SOL     hw 2667   1.526   6.791   0.617  0.1471 -0.9337 -0.2915
  667SOL     vw 2668   1.530   6.745   0.691  0.3285 -0.4184  0.0230
  668SOL     ow 2669   3.614   5.743   5.106 -0.0143 -0.8070 -0.2005
  668SOL     hw 2670   3.664   5.821   5.131 -2.0657  0.8657 -1.0116
  668SOL     hw 2671   3.563   5.721   5.185 -0.0585 -0.7916 -0.2245
  668SOL     vw 2672   3.614   5.750   5.120 -0.2906 -0.5844 -0.3107
  669SOL     ow 2673   5.487   5.845   4.166  0.1922 -0.4345 -0.6455
  669SOL     hw 2674   5.504   5.882   4.253 -0.2186 -1.5737 -0.0515
  669SOL     hw 2675   5.574   5.830   4.129  0.3819 -0.5057 -0.1778
  669SOL     vw 2676   5.501   5.848   4.173  0.1628 -0.5939 -0.5054
  670SOL     ow 2677   0.917   0.781   1.450 -0.3507  0.3147  0.1883
  670SOL     hw 2678   0.828   0.819   1.448 -1.1385 -1.4930 -1.1827
  670SOL     hw 2679   0.975   0.858   1.450 -1.7472  1.8730 -5.4837
  670SOL     vw 2680   0.913   0.796   1.450 -0.6389  0.2818 -0.7409
  671SOL     ow 2681   4.667   5.523   1.628  0.1490 -0.2063  0.5270
  671SOL     hw 2682   4.672   5.616   1.653 -1.3187  0.1828 -0.4581
  671SOL     hw 2683   4.640   5.525   1.536 -1.6410 -1.5922  0.9618
  671SOL     vw 2684   4.664   5.536   1.619 -0.2809 -0.3378  0.4544
  672SOL     ow 2685   4.660   5.839   0.719  0.1841  0.4814 -0.5028
  672SOL     hw 2686   4.737   5.858   0.772  0.0402  0.6344 -0.3493
  672SOL     hw 2687   4.597   5.907   0.742 -0.6224 -0.6016  0.6324
  672SOL     vw 2688   4.662   5.850   0.729  0.0584  0.3586 -0.3328
  673SOL     ow 2689   0.278   4.305   1.830  0.1199  0.3290  0.1307
  673SOL     hw 2690   0.329   4.307   1.912  0.3845 -1.9711  0.0792
  673SOL     hw 2691   0.331   4.253   1.770 -0.2151  1.7298 -1.4529
  673SOL     vw 2692   0.292   4.298   1.833  0.1106  0.2103 -0.0851
  674SOL     ow 2693   4.181   2.687   0.453  0.0226  0.5226 -0.1620
  674SOL     hw 2694   4.125   2.712   0.528 -0.3299 -1.1696  0.1716
  674SOL     hw 2695   4.217   2.602   0.477  0.3992  0.2297 -1.6735
  674SOL     vw 2696   4.178   2.679   0.466  0.0257  0.2607 -0.3174
  675SOL     ow 2697   5.179   5.835   0.546 -0.3972  0.1723 -0.3749
  675SOL     hw 2698   5.242   5.763   0.557 -0.6672 -0.2037 -1.2022
  675SOL     hw 2699   5.130   5.836   0.628  0.0350 -0.1716 -0.1053
  675SOL     vw 2700   5.181   5.825   0.558 -0.3757  0.0770 -0.4485
  676SOL     ow 2701   5.872   3.025   5.637 -0.6775 -0.0568  0.2005
  676SOL     hw 2702   5.914   2.961   5.695  0.9870  1.7800  1.1756
  676SOL     hw 2703   5.778   3.015   5.654 -0.3369 -0.8113  1.9190
  676SOL     vw 2704   5.865   3.015   5.647 -0.4129  0.0859  0.5558
  677SOL     ow 2705   0.067   3.258   6.400 -0.1140  0.1687 -0.0153
  677SOL     hw 2706   0.153   3.290   6.427 -0.1652 -0.6859  1.2523
  677SOL     hw 2707   0.064   3.274   6.306  0.9597  1.2730  0.1153
  677SOL     vw 2708   0.078   3.264   6.391  0.0209  0.2016  0.1695
  678SOL     ow 2709   1.127   2.857   6.527 -0.3534  0.3194 -0.0141
  678SOL     hw 2710   1.162   2.771   6.552 -3.4255 -0.7244  1.1595
  678SOL     hw 2711   1.164   2.917   6.592 -0.5188 -0.6738  1.0351
  678SOL     vw 2712   1.136   2.853   6.539 -0.7805  0.0505  0.2789
  679SOL     ow 2713   6.810   2.314   1.192 -0.7636 -0.3860  0.0415
  679SOL     hw 2714   6.817   2.243   1.129 -2.1047 -1.8140  1.4263
  679SOL     hw 2715   6.768   2.385   1.144 -2.8712 -1.8537 -0.4171
  679SOL     vw 2716   6.805   2.314   1.178 -1.2186 -0.7682  0.1637
  680SOL     ow 2717   4.483   3.295   4.439 -0.5094  0.1164 -0.4631
  680SOL     hw 2718   4.530   3.378   4.434 -0.2799 -0.0698 -2.2529
  680SOL     hw 2719   4.391   3.320   4.439 -0.4448  0.4008  0.5184
  680SOL     vw 2720   4.477   3.309   4.438 -0.4706  0.1295 -0.5701
  681SOL     ow 2721   6.463   3.497   0.417  0.5401 -0.0545 -0.7224
  681SOL     hw 2722   6.494   3.470   0.503 -0.4406  1.3631  0.1108
  681SOL     hw 2723   6.509   3.580   0.400  1.1328 -0.5831 -1.8289
  681SOL     vw 2724   6.474   3.504   0.426  0.4890  0.0628 -0.7584
  682SOL     ow 2725   3.964   4.811   6.750  0.1505  0.5569 -0.0250
  682SOL     hw 2726   3.978   4.853   6.665 -1.3231  0.5199 -0.3195
  682SOL     hw 2727   4.004   4.724   6.741 -0.0802  0.5204 -0.7211
  682SOL     vw 2728   3.971   4.805   6.738 -0.0744  0.5474 -0.1557
  683SOL     ow 2729   2.324   4.305   3.333 -0.3630 -0.2423  0.3307
  683SOL     hw 2730   2.409   4.296   3.377 -0.0842 -0.5837 -0.2546
  683SOL     hw 2731   2.329   4.390   3.289 -0.6124  0.0645  0.8824
  683SOL     vw 2732   2.336   4.315   3.333 -0.3591 -0.2468  0.3263
  684SOL     ow 2733   4.576   4.193   5.136  0.1698  0.4166  0.1231
  684SOL     hw 2734   4.670   4.179   5.129  0.0035 -0.1665 -1.3595
  684SOL     hw 2735   4.566   4.288   5.139  0.7354  0.5541 -1.4505
  684SOL     vw 2736   4.587   4.203   5.136  0.2224  0.3581 -0.2801
  685SOL     ow 2737   0.950   2.678   4.325  0.0418  0.1738 -0.2949
  685SOL     hw 2738   0.881   2.655   4.264  0.2532 -1.2519 -0.0198
  685SOL     hw 2739   0.943   2.614   4.396  0.9364  0.6906  0.2910
  685SOL     vw 2740   0.940   2.667   4.326  0.1877  0.0539 -0.1817
  686SOL     ow 2741   6.113   6.857   0.430 -0.1370 -0.0229 -0.0725
  686SOL     hw 2742   6.174   6.784   0.421 -0.7385 -0.5032 -0.2489
  686SOL     hw 2743   6.094   6.884   0.341 -0.4468 -0.0929 -0.0276
  686SOL     vw 2744   6.119   6.851   0.417 -0.2568 -0.0954 -0.0899
  687SOL     ow 2745   3.359   3.359   0.411 -0.1547  0.0084 -0.1237
  687SOL     hw 2746   3.410   3.301   0.355 -0.7160  0.3588 -1.0237
  687SOL     hw 2747   3.356   3.314   0.496 -0.1990 -1.0650 -0.6703
  687SOL     vw 2748   3.365   3.345   0.415 -0.2346 -0.0870 -0.3146
  688SOL     ow 2749   4.724   1.366   0.730 -0.3484  0.3044 -0.4583
  688SOL     hw 2750   4.780   1.291   0.752 -2.0823 -0.9579 -0.1064
  688SOL     hw 2751   4.654   1.363   0.796 -0.5278  2.1851 -0.5192
  688SOL     vw 2752   4.722   1.356   0.742 -0.6011  0.3860 -0.4199
  689SOL     ow 2753   6.377   3.180   6.244  0.7089  0.4120 -0.0250
  689SOL     hw 2754   6.338   3.093   6.234  1.8679 -0.2668  1.0859
  689SOL     hw 2755   6.331   3.218   6.319 -1.5747  1.8435 -1.9814
  689SOL     vw 2756   6.366   3.173   6.253  0.5603  0.5114 -0.1364
  690SOL     ow 2757   0.226   3.250   5.079  0.0518 -0.3592 -0.6536
  690SOL     hw 2758   0.306   3.257   5.132 -0.0340  0.2403 -0.6047
  690SOL     hw 2759   0.231   3.162   5.041 -0.3236 -1.1525  1.0528
  690SOL     vw 2760   0.237   3.239   5.081 -0.0090 -0.3847 -0.4222
  691SOL     ow 2761   6.494   2.093   5.848  0.1020 -0.3261  0.0591
  691SOL     hw 2762   6.567   2.050   5.893 -0.5472 -1.6528 -0.1046
  691SOL     hw 2763   6.528   2.180   5.825  1.5620 -0.8441  0.1357
  691SOL     vw 2764   6.508   2.099   5.851  0.2089 -0.5695  0.0472
  692SOL     ow 2765   2.861   4.794   4.113  0.2475  0.6672  0.5314
  692SOL     hw 2766   2.943   4.780   4.067 -0.5612 -0.3337 -0.6423
  692SOL     hw 2767   2.881   4.770   4.204  0.6372 -2.0971 -0.1844
  692SOL     vw 2768   2.874   4.789   4.119  0.1923  0.1702  0.2818
  693SOL     ow 2769   2.417   5.001   1.791 -0.3319  0.1936 -0.0869
  693SOL     hw 2770   2.476   4.943   1.838  0.2757 -0.1631 -1.2272
  693SOL     hw 2771   2.454   5.005   1.702 -4.2646 -3.4566 -2.2385
  693SOL     vw 2772   2.430   4.994   1.785 -0.7707 -0.3350 -0.5212
  694SOL     ow 2773   0.772   1.816   0.045  0.2535 -0.0997  0.4462
  694SOL     hw 2774   0.804   1.840   0.131 -0.3550 -1.0435  0.9542
  694SOL     hw 2775   0.701   1.877   0.027  0.6419  0.3543  0.4245
  694SOL     vw 2776   0.767   1.827   0.054  0.2245 -0.1643  0.5104
  695SOL     ow 2777   1.554   3.927   5.732 -0.0815  1.0127  0.4708
  695SOL     hw 2778   1.629   3.986   5.731  0.4446  0.3889  1.5533
  695SOL     hw 2779   1.589   3.844   5.762 -1.2798  0.8278  1.4458
  695SOL     vw 2780   1.568   3.924   5.736 -0.1701  0.9061  0.7422
  696SOL     ow 2781   1.436   4.542   2.809 -0.5612  0.1331 -0.1952
  696SOL     hw 2782   1.436   4.496   2.725  0.8577  1.3314 -0.9115
  696SOL     hw 2783   1.465   4.476   2.872 -1.1262 -0.6454 -0.7246
  696SOL     vw 2784   1.440   4.527   2.806 -0.4486  0.1884 -0.3595
  697SOL     ow 2785   4.526   1.532   4.396  0.6370 -0.1596 -0.1671
  697SOL     hw 2786   4.552   1.492   4.313 -0.1828  0.5807 -0.8095
  697SOL     hw 2787   4.538   1.626   4.382  3.2626 -0.1414  1.5619
  697SOL     vw 2788   4.531   1.540   4.383  0.8752 -0.0596 -0.0238
  698SOL     ow 2789   4.252   2.738   2.740  0.5082 -0.3580 -0.2929
  698SOL     hw 2790   4.332   2.769   2.698  1.0297 -0.9487  0.2343
  698SOL     hw 2791   4.203   2.818   2.760  0.0677 -0.0795 -2.2971
  698SOL     vw 2792   4.256   2.753   2.737  0.5188 -0.3992 -0.4879
  699SOL     ow 2793   4.667   0.540   0.810 -0.2767  0.2907 -0.0629
  699SOL     hw 2794   4.744   0.589   0.780 -0.7363  1.9761  1.3569
  699SOL     hw 2795   4.593   0.596   0.788 -0.7287  0.9249  2.7271
  699SOL     vw 2796   4.667   0.554   0.803 -0.3970  0.5967  0.4925
  700SOL     ow 2797   0.648   1.512   0.596 -0.2341 -0.4045  0.6484
  700SOL     hw 2798   0.626   1.534   0.687 -1.4032  0.7170  0.1309
  700SOL     hw 2799   0.636   1.594   0.548 -1.6708 -1.4362 -0.8595
  700SOL     vw 2800   0.643   1.526   0.602 -0.5778 -0.3927  0.3812
  701SOL     ow 2801   1.000   4.090   5.087 -0.5346 -0.5551  0.2955
  701SOL     hw 2802   1.076   4.036   5.066 -0.2832 -0.0926 -0.0010
  701SOL     hw 2803   0.936   4.028   5.123  0.8997 -0.5997  3.0364
  701SOL     vw 2804   1.002   4.075   5.089 -0.3122 -0.5000  0.6180
  702SOL     ow 2805   6.116   0.594   2.384 -0.1807 -0.4754  0.3575
  702SOL     hw 2806   6.156   0.509   2.397 -0.7649 -0.6596  1.0461
  702SOL     hw 2807   6.024   0.575   2.366 -0.3829  0.0194  0.8290
  702SOL     vw 2808   6.109   0.581   2.383 -0.2844 -0.4344  0.5107
  703SOL     ow 2809   6.539   1.583   0.122 -0.9010 -0.2150 -0.4009
  703SOL     hw 2810   6.608   1.521   0.098 -0.5737 -0.4054  0.9564
  703SOL     hw 2811   6.474   1.574   0.053  0.0542 -0.6217 -1.2792
  703SOL     vw 2812   6.540   1.574   0.110 -0.7317 -0.2937 -0.3377
  704SOL     ow 2813   2.825   0.777   3.687  0.0304  0.0383  0.7331
  704SOL     hw 2814   2.808   0.862   3.648  1.0845 -0.4392 -0.8675
  704SOL     hw 2815   2.891   0.793   3.754  3.9326 -0.0010 -2.6889
  704SOL     vw 2816   2.831   0.790   3.691  0.6844 -0.0299  0.0705
  705SOL     ow 2817   5.114   5.038   3.381  0.0145 -0.6019 -0.3222
  705SOL     hw 2818   5.135   4.983   3.306 -2.1341 -0.6441 -0.9475
  705SOL     hw 2819   5.018   5.042   3.383 -0.0226  3.6215 -0.6926
  705SOL     vw 2820   5.104   5.031   3.372 -0.2739 -0.0498 -0.4536
  706SOL     ow 2821   1.809   2.298   2.265 -0.4770 -0.2798 -0.1276
  706SOL     hw 2822   1.727   2.260   2.299  0.3859 -0.8138  1.4718
  706SOL     hw 2823   1.877   2.236   2.293  0.6865  1.1390  0.2822
  706SOL     vw 2824   1.807   2.285   2.274 -0.2097 -0.1630  0.1376
  707SOL     ow 2825   6.686   4.315   5.436 -0.1479 -0.1216 -0.2318
  707SOL     hw 2826   6.747   4.386   5.457  2.3300 -1.9327 -0.7870
  707SOL     hw 2827   6.622   4.316   5.507  0.6645  1.7096  0.5509
  707SOL     vw 2828   6.686   4.324   5.448  0.2863 -0.1190 -0.2019
  708SOL     ow 2829   3.523   4.202   6.722 -0.3134  0.1146  0.4334
  708SOL     hw 2830   3.510   4.230   6.631 -3.5131  0.9505  1.0360
  708SOL     hw 2831   3.492   4.112   6.724  2.8631 -1.1125  0.1185
  708SOL     vw 2832   3.517   4.194   6.710 -0.3166  0.0632  0.4714
  709SOL     ow 2833   2.644   3.082   6.323 -0.0011 -0.1967 -0.1531
  709SOL     hw 2834   2.584   3.008   6.321 -1.2401  0.6280  2.4165
  709SOL     hw 2835   2.592   3.157   6.294  0.4510  0.1645 -0.0530
  709SOL     vw 2836   2.629   3.082   6.319 -0.1050 -0.0402  0.1993
  710SOL     ow 2837   5.954   6.215   0.713 -0.5949  0.6322 -0.0775
  710SOL     hw 2838   6.003   6.245   0.637  1.7784 -0.1276  1.0418
  710SOL     hw 2839   5.867   6.252   0.702  0.4623  2.8341 -1.7436
  710SOL     vw 2840   5.949   6.224   0.702 -0.1423  0.8225 -0.1496
  711SOL     ow 2841   5.188   4.137   4.816  0.7266 -0.4204 -0.1228
  711SOL     hw 2842   5.144   4.056   4.842  0.3428 -0.0708  0.3258
  711SOL     hw 2843   5.247   4.156   4.890  1.1973 -0.5627 -0.4542
  711SOL     vw 2844   5.190   4.129   4.829  0.7377 -0.3932 -0.1073
  712SOL     ow 2845   3.421   2.008   1.449  0.1343 -0.1269 -0.3494
  712SOL     hw 2846   3.484   1.939   1.428  1.1209  0.3781  0.8079
  712SOL     hw 2847   3.469   2.068   1.506 -1.2598  0.5416  0.1719
  712SOL     vw 2848   3.435   2.007   1.454  0.0805  0.0279 -0.1280
  713SOL     ow 2849   6.606   3.663   2.594  0.3395  0.6089 -0.5287
  713SOL     hw 2850   6.605   3.676   2.499  0.3056 -1.8312 -0.9396
  713SOL     hw 2851   6.516   3.676   2.621  0.7517  3.9874 -0.2910
  713SOL     vw 2852   6.594   3.666   2.585  0.3893  0.7327 -0.5516
  714SOL     ow 2853   3.009   4.866   5.454  0.0127 -0.1839 -1.1240
  714SOL     hw 2854   2.970   4.779   5.448  0.9798 -0.6706 -0.5239
  714SOL     hw 2855   2.948   4.916   5.508  0.0873 -0.8617 -0.4010
  714SOL     vw 2856   2.996   4.861   5.460  0.1502 -0.3376 -0.9494
  715SOL     ow 2857   5.180   1.762   1.386  0.2872 -0.4018 -0.4008
  715SOL     hw 2858   5.147   1.755   1.475  0.4983  0.2076 -0.2673
  715SOL     hw 2859   5.266   1.803   1.396  0.2732 -0.2481 -0.8895
  715SOL     vw 2860   5.187   1.766   1.399  0.3133 -0.3012 -0.4477
  716SOL     ow 2861   6.540   1.999   0.935  0.4322  0.4906 -0.3322
  716SOL     hw 2862   6.563   1.912   0.968  1.4078  0.4724 -1.0110
  716SOL     hw 2863   6.587   2.006   0.852  2.2195  2.5615  0.7565
  716SOL     vw 2864   6.549   1.988   0.928  0.7968  0.7614 -0.2781
  717SOL     ow 2865   2.423   3.758   4.715  0.9078  0.1015  0.2522
  717SOL     hw 2866   2.403   3.703   4.791 -1.6514 -1.2305 -1.2552
  717SOL     hw 2867   2.448   3.696   4.647 -1.2264  0.7898 -1.2500
  717SOL     vw 2868   2.424   3.742   4.716  0.2885  0.0166 -0.1447
  718SOL     ow 2869   4.686   6.486   0.225  0.1848  0.0038  0.0447
  718SOL     hw 2870   4.624   6.477   0.298  0.6678  1.3709  0.6661
  718SOL     hw 2871   4.696   6.397   0.190 -0.4074 -0.6058  1.3571
  718SOL     vw 2872   4.679   6.473   0.230  0.1702  0.1035  0.2998
  719SOL     ow 2873   3.101   2.922   4.256  0.7248 -0.3828 -0.0773
  719SOL     hw 2874   3.115   2.883   4.342 -0.6577 -2.3270 -0.6513
  719SOL     hw 2875   3.084   2.847   4.198 -0.9729  0.9863 -1.4891
  719SOL     vw 2876   3.100   2.907   4.259  0.3185 -0.4587 -0.3393
  720SOL     ow 2877   3.075   0.485   5.364  0.4592  0.7317 -0.0916
  720SOL     hw 2878   3.118   0.564   5.394  0.3930  0.3156  1.1401
  720SOL     hw 2879   3.053   0.437   5.444  1.8797 -1.2776 -0.8380
  720SOL     vw 2880   3.078   0.489   5.378  0.6378  0.4117 -0.0277
  721SOL     ow 2881   1.132   2.782   3.472 -0.2898  0.0179 -0.3082
  721SOL     hw 2882   1.119   2.785   3.567  2.4093 -1.0954  0.1731
  721SOL     hw 2883   1.098   2.697   3.445  1.0982 -0.6898  0.0942
  721SOL     vw 2884   1.126   2.771   3.481  0.2495 -0.2223 -0.1915
  722SOL     ow 2885   5.710   2.787   6.900 -0.4486  0.3079  0.5151
  722SOL     hw 2886   5.625   2.753   6.871 -0.6615  0.8182  0.5244
  722SOL     hw 2887   5.771   2.715   6.886 -0.7366  0.1976 -0.2428
  722SOL     vw 2888   5.707   2.773   6.894 -0.5147  0.3607  0.4163
  723SOL     ow 2889   5.585   2.689   2.467 -0.3735  0.5135  0.3938
  723SOL     hw 2890   5.633   2.771   2.474  0.0206  0.1942  1.9339
  723SOL     hw 2891   5.528   2.689   2.544 -0.7193 -0.4300  0.1480
  723SOL     vw 2892   5.584   2.700   2.478 -0.3672  0.3470  0.5645
  724SOL     ow 2893   3.800   4.624   2.169  0.0935  0.6134  0.6652
  724SOL     hw 2894   3.889   4.619   2.133 -0.4146  0.1234 -0.5597
  724SOL     hw 2895   3.799   4.559   2.239  0.1309 -0.8422 -0.6315
  724SOL     vw 2896   3.812   4.615   2.174  0.0314  0.3567  0.3326
  725SOL     ow 2897   0.812   3.418   2.064  0.1418 -0.4801  0.2804
  725SOL     hw 2898   0.816   3.445   1.972  1.1197 -0.9925  0.1601
  725SOL     hw 2899   0.835   3.497   2.113  0.5581 -0.4408  0.0311
  725SOL     vw 2900   0.816   3.432   2.058  0.3257 -0.5425  0.2316
  726SOL     ow 2901   2.009   2.133   2.342  0.2727  0.5517  0.2743
  726SOL     hw 2902   2.030   2.061   2.283 -2.4571 -0.8867  0.8874
  726SOL     hw 2903   2.079   2.132   2.407  0.2371 -1.6450  0.3364
  726SOL     vw 2904   2.021   2.124   2.343 -0.0921  0.0720  0.3633
  727SOL     ow 2905   1.039   5.765   1.556 -0.3064  0.3660  0.5802
  727SOL     hw 2906   0.967   5.700   1.555 -0.3405  0.4079  0.3600
  727SOL     hw 2907   0.994   5.849   1.561 -0.2914  0.4196 -0.0661
  727SOL     vw 2908   1.023   5.767   1.557 -0.3090  0.3786  0.4658
  728SOL     ow 2909   2.993   6.747   5.741 -0.5034 -0.4163  0.6905
  728SOL     hw 2910   3.089   6.744   5.739 -0.5134 -1.8683  1.6204
  728SOL     hw 2911   2.968   6.753   5.649  0.4809  0.7029  0.4709
  728SOL     vw 2912   3.003   6.747   5.728 -0.3748 -0.4601  0.7842
  729SOL     ow 2913   2.581   5.938   6.843 -0.0829 -0.1677 -0.0409
  729SOL     hw 2914   2.659   5.893   6.875 -0.0084  0.4384  0.6483
  729SOL     hw 2915   2.615   6.013   6.794 -0.2237  0.7577  1.2293
  729SOL     vw 2916   2.596   5.942   6.841 -0.0916  0.0343  0.2176
  730SOL     ow 2917   3.289   1.847   1.676  0.1589  0.5226 -0.3123
  730SOL     hw 2918   3.360   1.841   1.740  0.1218 -1.5800 -0.4010
  730SOL     hw 2919   3.224   1.783   1.706 -0.1446 -0.0572 -2.0921
  730SOL     vw 2920   3.289   1.838   1.689  0.1140  0.1687 -0.5589
  731SOL     ow 2921   2.965   2.998   6.268 -0.1805 -0.1516 -0.0222
  731SOL     hw 2922   2.959   3.016   6.174 -1.3927  0.6697  0.1968
  731SOL     hw 2923   3.059   2.988   6.284  0.2450  1.7962 -0.9489
  731SOL     vw 2924   2.976   2.999   6.257 -0.2843  0.2139 -0.1154
  732SOL     ow 2925   0.662   2.632   0.572 -0.2596 -0.6873  0.7944
  732SOL     hw 2926   0.653   2.701   0.637 -0.0927  0.6604 -0.5783
  732SOL     hw 2927   0.723   2.569   0.612 -0.2824  0.0325  1.9861
  732SOL     vw 2928   0.669   2.633   0.586 -0.2406 -0.4145  0.7705
  733SOL     ow 2929   6.405   2.422   6.843 -0.3434  0.6793  0.2230
  733SOL     hw 2930   6.389   2.447   6.934  0.0578 -0.5277  0.6493
  733SOL     hw 2931   6.359   2.339   6.833 -1.3427  1.3552 -1.0300
  733SOL     vw 2932   6.397   2.414   6.854 -0.4222  0.6093  0.1140
  734SOL     ow 2933   5.196   2.427   2.089  0.0260  0.4678 -0.7364
  734SOL     hw 2934   5.263   2.396   2.028  2.8633  1.3329  1.6614
  734SOL     hw 2935   5.162   2.347   2.130  1.5911  0.0693 -0.1342
  734SOL     vw 2936   5.200   2.412   2.087  0.6068  0.5293 -0.3405
  735SOL     ow 2937   1.266   0.540   6.915  0.0074  0.1604  0.0135
  735SOL     hw 2938   1.288   0.572   7.003 -1.1383  3.1395 -0.7007
  735SOL     hw 2939   1.344   0.491   6.888  0.7825  0.0223  2.2644
  735SOL     vw 2940   1.279   0.538   6.923 -0.0415  0.5352  0.2165
  736SOL     ow 2941   0.386   3.444   3.384  0.5437  0.2644  0.2018
  736SOL     hw 2942   0.430   3.443   3.299 -0.2854  1.1382 -0.2581
  736SOL     hw 2943   0.326   3.369   3.380  0.4266  0.3704 -0.0217
  736SOL     vw 2944   0.384   3.434   3.372  0.4189  0.3935  0.1117
  737SOL     ow 2945   4.399   4.612   1.411  0.0223  0.0021  0.1840
  737SOL     hw 2946   4.455   4.549   1.366 -1.6487 -0.2467 -1.7496
  737SOL     hw 2947   4.455   4.655   1.475  2.2766 -0.5362 -1.3296
  737SOL     vw 2948   4.414   4.610   1.413  0.0994 -0.1016 -0.2708
  738SOL     ow 2949   2.749   1.576   1.477  0.2828  0.7246  0.2462
  738SOL     hw 2950   2.791   1.589   1.391  0.0423 -2.8132 -0.5547
  738SOL     hw 2951   2.667   1.625   1.471 -0.7955 -1.1779 -2.4972
  738SOL     vw 2952   2.744   1.584   1.465  0.1087  0.0068 -0.2214
  739SOL     ow 2953   3.966   0.422   1.813 -0.1359  0.0861 -0.2316
  739SOL     hw 2954   4.049   0.459   1.786 -1.9024  3.0355 -2.1636
  739SOL     hw 2955   3.938   0.368   1.739 -1.3127  1.6997 -1.0297
  739SOL     vw 2956   3.973   0.420   1.800 -0.5243  0.6881 -0.5918
  740SOL     ow 2957   0.995   2.899   4.563 -0.4901  0.4172 -0.1761
  740SOL     hw 2958   1.064   2.884   4.628 -1.3248 -0.0264  0.6172
  740SOL     hw 2959   0.974   2.992   4.571  1.0207  0.9213 -1.4564
  740SOL     vw 2960   1.001   2.909   4.572 -0.4010  0.4252 -0.2406
  741SOL     ow 2961   5.243   3.420   0.563 -0.1674 -0.4294 -0.2462
  741SOL     hw 2962   5.177   3.376   0.510  0.4446 -0.9443 -0.5971
  741SOL     hw 2963   5.326   3.379   0.538  0.0127 -1.7057  2.1418
  741SOL     vw 2964   5.245   3.409   0.553 -0.0629 -0.6657  0.0225
  742SOL     ow 2965   3.283   4.138   4.093 -0.3524 -0.1130 -0.0740
  742SOL     hw 2966   3.293   4.143   4.188 -0.6976  2.0222 -0.0973
  742SOL     hw 2967   3.284   4.229   4.064 -3.1587 -0.5101 -1.8028
  742SOL     vw 2968   3.284   4.151   4.101 -0.7683  0.1161 -0.3049
  743SOL     ow 2969   2.918   5.994   4.396 -0.2409 -0.4101 -0.1995
  743SOL     hw 2970   2.830   5.984   4.358 -0.6964  0.5738  0.5571
  743SOL     hw 2971   2.957   6.067   4.348 -0.0605 -0.4522 -0.1187
  743SOL     vw 2972   2.911   6.002   4.385 -0.2773 -0.2856 -0.0889
  744SOL     ow 2973   6.849   0.515   5.674 -0.5042  0.1909 -0.3179
  744SOL     hw 2974   6.811   0.561   5.599 -0.6520 -1.0461 -1.0351
  744SOL     hw 2975   6.929   0.476   5.640  0.5685  1.3799  0.7562
  744SOL     vw 2976   6.854   0.516   5.659 -0.3824  0.1846 -0.2706
  745SOL     ow 2977   5.802   1.597   2.378  0.7947 -0.3520 -0.3144
  745SOL     hw 2978   5.897   1.596   2.373  0.8153  1.4684 -0.9076
  745SOL     hw 2979   5.783   1.644   2.459  0.3618 -1.5844  0.3395
  745SOL     vw 2980   5.812   1.603   2.388  0.7398 -0.2744 -0.3062
  746SOL     ow 2981   4.006   4.135   0.177  0.7044  0.5306  0.4438
  746SOL     hw 2982   3.925   4.119   0.227  1.5061 -1.3963  1.2351
  746SOL     hw 2983   4.019   4.230   0.182  0.2484  0.5396  3.1522
  746SOL     vw 2984   3.997   4.145   0.184  0.7501  0.2773  0.9055
  747SOL     ow 2985   0.391   1.415   1.155  0.6147  0.5018 -0.0037
  747SOL     hw 2986   0.468   1.468   1.132  0.1980  0.6083 -1.2129
  747SOL     hw 2987   0.426   1.326   1.165  0.7555  0.3403 -1.6485
  747SOL     vw 2988   0.406   1.410   1.153  0.5784  0.4945 -0.3803
  748SOL     ow 2989   6.167   5.712   5.753 -0.5812 -0.2277  0.8503
  748SOL     hw 2990   6.210   5.745   5.674 -0.9923  1.2544  1.2108
  748SOL     hw 2991   6.157   5.618   5.737 -0.9954  0.0871 -1.0347
  748SOL     vw 2992   6.171   5.704   5.740 -0.6897  0.0093  0.6492
  749SOL     ow 2993   0.945   5.562   6.541  0.1233  0.5977  0.7929
  749SOL     hw 2994   0.870   5.553   6.483 -0.6051  1.0127  1.6591
  749SOL     hw 2995   0.911   5.541   6.628  0.9430  1.0774  1.2373
  749SOL     vw 2996   0.931   5.558   6.544  0.1353  0.7157  0.9658
  750SOL     ow 2997   6.903   2.371   6.683  0.5117  0.4470  0.0936
  750SOL     hw 2998   6.950   2.454   6.688 -0.1144  0.8578 -0.8205
  750SOL     hw 2999   6.954   2.318   6.622  1.7396 -0.4176  1.7632
  750SOL     vw 3000   6.916   2.375   6.676  0.5911  0.3872  0.1934
  751SOL     ow 3001   3.663   0.473   1.918 -0.1892 -0.4954  0.2391
  751SOL     hw 3002   3.635   0.403   1.859 -0.5369  2.3150 -3.3091
  751SOL     hw 3003   3.582   0.502   1.961 -0.4976 -0.5603 -0.2938
  751SOL     vw 3004   3.648   0.468   1.916 -0.2757 -0.1332 -0.2994
  752SOL     ow 3005   2.084   6.189   1.419 -0.9054  0.1952  0.1348
  752SOL     hw 3006   2.113   6.112   1.371 -0.8098  0.4104 -0.1611
  752SOL     hw 3007   2.063   6.157   1.506  2.3509  0.3594  1.1161
  752SOL     vw 3008   2.085   6.175   1.424 -0.4631  0.2453  0.2252
  753SOL     ow 3009   1.203   5.425   6.540  0.1273 -0.3376  0.1285
  753SOL     hw 3010   1.198   5.388   6.629 -1.2041  0.8160  0.5613
  753SOL     hw 3011   1.248   5.509   6.552 -0.0083 -0.2020 -0.3104
  753SOL     vw 3012   1.209   5.431   6.554 -0.0663 -0.1678  0.1278
  754SOL     ow 3013   4.150   6.714   2.388  0.1054  0.6105 -0.2508
  754SOL     hw 3014   4.155   6.809   2.384  0.9382  0.5637 -0.5185
  754SOL     hw 3015   4.114   6.688   2.303 -0.1824  0.6934 -0.1525
  754SOL     vw 3016   4.146   6.723   2.376  0.1774  0.6154 -0.2731
  755SOL     ow 3017   5.222   1.452   4.474  0.1811  0.2923 -0.0279
  755SOL     hw 3018   5.169   1.386   4.517  0.9467 -1.1888 -1.2687
  755SOL     hw 3019   5.169   1.532   4.478 -0.0973  0.0850  2.9365
  755SOL     vw 3020   5.208   1.454   4.480  0.2456  0.0696  0.1993
  756SOL     ow 3021   4.037   5.496   6.075  0.2718 -0.0607 -0.5964
  756SOL     hw 3022   4.075   5.425   6.022  1.4732 -0.0925  0.2802
  756SOL     hw 3023   4.034   5.461   6.164 -1.0163  0.2819 -0.4792
  756SOL     vw 3024   4.042   5.482   6.079  0.2604 -0.0196 -0.4652
  757SOL     ow 3025   6.165   5.240   6.414 -0.6618  0.7950 -0.3833
  757SOL     hw 3026   6.137   5.255   6.324  1.1795  1.2316 -0.9309
  757SOL     hw 3027   6.186   5.328   6.447 -0.6140  0.5655  0.2027
  757SOL     vw 3028   6.164   5.254   6.407 -0.4127  0.8225 -0.3781
  758SOL     ow 3029   1.331   4.997   0.202  0.7682 -0.3243 -0.1882
  758SOL     hw 3030   1.343   5.088   0.231 -1.1454  0.4934 -1.7672
  758SOL     hw 3031   1.385   4.990   0.123 -0.1820 -0.1067 -0.8671
  758SOL     vw 3032   1.340   5.008   0.196  0.3904 -0.1876 -0.4861
  759SOL     ow 3033   1.504   2.479   1.660 -0.2317  0.4019 -0.4855
  759SOL     hw 3034   1.560   2.485   1.583  0.8547 -0.1675  0.2346
  759SOL     hw 3035   1.470   2.567   1.672 -0.7182  0.4204 -1.8143
  759SOL     vw 3036   1.507   2.491   1.651 -0.1526  0.3293 -0.5658
  760SOL     ow 3037   5.073   3.578   0.797 -0.4806  0.0359 -0.0719
  760SOL     hw 3038   5.035   3.632   0.866 -0.9386 -0.1077 -0.2102
  760SOL     hw 3039   4.998   3.548   0.746 -0.0724  1.5224 -1.6717
  760SOL     vw 3040   5.058   3.581   0.799 -0.4869  0.2131 -0.3012
  761SOL     ow 3041   2.963   1.689   2.624  0.0196  0.4476  0.6260
  761SOL     hw 3042   2.929   1.616   2.676  1.0366  0.0734  0.7815
  761SOL     hw 3043   3.051   1.662   2.598  0.2050  1.3836  0.2168
  761SOL     vw 3044   2.970   1.676   2.628  0.1783  0.5217  0.5926
  762SOL     ow 3045   4.794   5.838   3.309  0.2034  0.1161 -0.0337
  762SOL     hw 3046   4.780   5.844   3.403  1.3727 -0.6326  0.2142
  762SOL     hw 3047   4.880   5.797   3.301 -0.6877 -1.5934 -1.4492
  762SOL     vw 3048   4.804   5.833   3.320  0.2401 -0.2081 -0.1878
  763SOL     ow 3049   0.273   6.468   3.845  0.2662 -0.2552  0.2857
  763SOL     hw 3050   0.355   6.421   3.856  0.2385 -0.5054 -0.4896
  763SOL     hw 3051   0.291   6.557   3.877  0.9550 -0.2048 -0.2226
  763SOL     vw 3052   0.286   6.474   3.851  0.3534 -0.2816  0.1163
  764SOL     ow 3053   5.785   1.859   0.743 -0.1783  0.1881 -0.5248
  764SOL     hw 3054   5.754   1.949   0.751  1.7750  1.2303 -3.1373
  764SOL     hw 3055   5.847   1.848   0.815  0.7318  1.5508 -1.0436
  764SOL     vw 3056   5.789   1.870   0.753  0.1993  0.5053 -0.9379
  765SOL     ow 3057   6.072   0.943   1.563 -0.3186 -0.1535 -0.4436
  765SOL     hw 3058   6.074   0.868   1.504 -1.5824 -0.8489  0.3496
  765SOL     hw 3059   6.012   0.917   1.633  1.2743  0.5479  1.2725
  765SOL     vw 3060   6.064   0.930   1.565 -0.2754 -0.1526 -0.1126
  766SOL     ow 3061   1.665   0.597   1.044  0.2543 -0.8061  0.8225
  766SOL     hw 3062   1.598   0.565   0.984  0.3279  0.7375 -0.1259
  766SOL     hw 3063   1.729   0.526   1.048 -0.3898 -1.4505  0.0830
  766SOL     vw 3064   1.665   0.583   1.037  0.1791 -0.6875  0.5998
  767SOL     ow 3065   6.913   5.331   5.834 -0.7659  0.5386 -0.0207
  767SOL     hw 3066   6.891   5.337   5.741 -1.5157  0.5310  0.1543
  767SOL     hw 3067   6.994   5.381   5.842 -0.1846 -0.2294 -0.8400
  767SOL     vw 3068   6.921   5.338   5.823 -0.7880  0.4363 -0.1059
  768SOL     ow 3069   3.019   5.669   4.375  0.0775  0.6665  0.8432
  768SOL     hw 3070   3.061   5.584   4.385 -0.4042  0.3632  0.4004
  768SOL     hw 3071   2.963   5.659   4.298 -2.2246  0.4484  2.4410
  768SOL     vw 3072   3.017   5.657   4.366 -0.2898  0.5977  0.9956
  769SOL     ow 3073   3.392   6.301   1.536 -0.1125  0.3429  0.2839
  769SOL     hw 3074   3.425   6.229   1.483  0.7404 -0.4097  1.7774
  769SOL     hw 3075   3.326   6.343   1.481  0.3563 -0.7235 -1.1447
  769SOL     vw 3076   3.388   6.297   1.522  0.0619  0.1028  0.2925
  770SOL     ow 3077   0.182   5.758   3.992  0.4920  0.0268 -0.1799
  770SOL     hw 3078   0.178   5.745   3.898  0.4633  1.5175 -0.4042
  770SOL     hw 3079   0.230   5.840   4.003  1.3964 -0.6408  1.1520
  770SOL     vw 3080   0.188   5.767   3.981  0.6076  0.1354 -0.0339
  771SOL     ow 3081   3.153   6.691   0.287 -0.2955  0.1695  0.3832
  771SOL     hw 3082   3.063   6.689   0.320 -0.3525 -0.8997  0.2036
  771SOL     hw 3083   3.197   6.758   0.341 -1.2540  0.9046  0.2784
  771SOL     vw 3084   3.147   6.700   0.299 -0.4295  0.1256  0.3457
  772SOL     ow 3085   6.389   3.430   0.084 -0.3801 -0.6042 -0.0009
  772SOL     hw 3086   6.333   3.464   0.014 -0.0996 -0.8630 -0.3532
  772SOL     hw 3087   6.434   3.355   0.045 -0.2236 -0.7520  0.4579
  772SOL     vw 3088   6.388   3.425   0.069 -0.3221 -0.6578  0.0132
  773SOL     ow 3089   6.650   6.565   0.459  0.3611 -0.2636 -0.4676
  773SOL     hw 3090   6.718   6.588   0.396 -0.4314 -1.1084 -1.6849
  773SOL     hw 3091   6.585   6.517   0.407 -2.2246  2.3178  0.1423
  773SOL     vw 3092   6.650   6.562   0.444 -0.0846 -0.0343 -0.5477
  774SOL     ow 3093   6.170   3.935   2.455 -0.8915  0.1626  0.0686
  774SOL     hw 3094   6.226   3.939   2.532 -0.4365  1.0127 -0.2924
  774SOL     hw 3095   6.208   3.999   2.394 -1.0287 -0.7503 -1.0053
  774SOL     vw 3096   6.182   3.944   2.457 -0.8495  0.1543 -0.1209
  775SOL     ow 3097   5.492   2.146   6.550  0.0584  0.4966 -0.3080
  775SOL     hw 3098   5.470   2.221   6.604 -0.9208  0.5334 -0.7476
  775SOL     hw 3099   5.482   2.177   6.460 -0.9539 -0.3131 -0.4934
  775SOL     vw 3100   5.488   2.160   6.545 -0.2046  0.3947 -0.3905
  776SOL     ow 3101   2.398   4.155   3.080 -0.0828 -0.3425 -0.2762
  776SOL     hw 3102   2.425   4.213   3.009  1.3636 -0.3263  0.2637
  776SOL     hw 3103   2.479   4.119   3.114 -0.8517 -1.4361  0.4722
  776SOL     vw 3104   2.412   4.158   3.075  0.0066 -0.4847 -0.1062
  777SOL     ow 3105   2.712   5.905   3.131  0.2268  0.2691 -0.3682
  777SOL     hw 3106   2.637   5.853   3.158 -0.6547  1.0726 -1.1638
  777SOL     hw 3107   2.775   5.842   3.098 -0.8979 -0.3016 -1.5123
  777SOL     vw 3108   2.710   5.890   3.130 -0.0379  0.2997 -0.6241
  778SOL     ow 3109   2.016   5.819   6.229 -0.1631  0.6643 -0.5552
  778SOL     hw 3110   2.037   5.911   6.247  2.4659 -0.1739  1.2745
  778SOL     hw 3111   2.101   5.776   6.221 -1.1346 -2.2063  2.1890
  778SOL     vw 3112   2.030   5.826   6.230  0.0556  0.1748  0.0482
  779SOL     ow 3113   3.204   3.950   3.859 -0.6263 -0.0729  0.1079
  779SOL     hw 3114   3.294   3.953   3.826 -1.1068  1.0928 -1.2085
  779SOL     hw 3115   3.183   3.856   3.860  0.1711 -0.2888 -0.8438
  779SOL     vw 3116   3.213   3.938   3.854 -0.5844  0.0525 -0.1913
  780SOL     ow 3117   6.256   4.790   1.318 -0.5958 -0.3153  0.6742
  780SOL     hw 3118   6.215   4.831   1.395 -0.3645  0.4677  0.3881
  780SOL     hw 3119   6.330   4.846   1.298  0.1772 -1.3039  0.7162
  780SOL     vw 3120   6.260   4.803   1.326 -0.4635 -0.3426  0.6419
  781SOL     ow 3121   3.327   1.065   2.237  0.1994 -0.1524  0.2807
  781SOL     hw 3122   3.361   1.131   2.298 -0.7864  1.7408 -1.0785
  781SOL     hw 3123   3.375   1.080   2.155  1.8381 -2.9558  0.6055
  781SOL     vw 3124   3.337   1.076   2.234  0.2855 -0.2725  0.1442
  782SOL     ow 3125   3.501   6.024   6.342 -0.1188  0.2205  0.0808
  782SOL     hw 3126   3.506   6.091   6.273  1.0445 -0.4981 -0.5638
  782SOL     hw 3127   3.470   5.945   6.296  0.3681 -0.1858  0.4394
  782SOL     vw 3128   3.498   6.022   6.327  0.0988  0.0720  0.0432
  783SOL     ow 3129   5.452   5.108   6.510 -0.0460 -0.0166  0.6486
  783SOL     hw 3130   5.357   5.097   6.517  0.0769 -0.8367  1.2478
  783SOL     hw 3131   5.474   5.169   6.580 -0.1805  0.5109  0.2340
  783SOL     vw 3132   5.442   5.115   6.521 -0.0474 -0.0551  0.6733
  784SOL     ow 3133   2.269   6.274   3.402 -0.5036  0.0837  0.0860
  784SOL     hw 3134   2.236   6.218   3.331 -0.2102  1.7513 -1.4076
  784SOL     hw 3135   2.251   6.363   3.373  0.6366  0.8556  1.6305
  784SOL     vw 3136   2.262   6.278   3.389 -0.3145  0.4055  0.0929
  785SOL     ow 3137   6.347   4.487   4.480 -0.2314 -0.6501  0.8531
  785SOL     hw 3138   6.304   4.470   4.563  0.1387 -1.2794  0.9251
  785SOL     hw 3139   6.285   4.540   4.431  0.8556  2.7155  2.7812
  785SOL     vw 3140   6.333   4.492   4.484 -0.0391 -0.2890  1.1170
  786SOL     ow 3141   0.151   6.381   6.801  0.6450  0.0697 -0.4582
  786SOL     hw 3142   0.143   6.425   6.885 -0.2442  0.2561 -0.6286
  786SOL     hw 3143   0.123   6.291   6.818 -1.0002  0.4709 -0.8437
  786SOL     vw 3144   0.146   6.375   6.814  0.3106  0.1471 -0.5314
  787SOL     ow 3145   3.504   2.468   4.615 -0.2591 -0.0043  0.3658
  787SOL     hw 3146   3.445   2.541   4.632 -0.7657 -0.8303  2.3913
  787SOL     hw 3147   3.452   2.405   4.565 -0.4363  0.1780  0.3230
  787SOL     vw 3148   3.490   2.469   4.610 -0.3493 -0.0893  0.6275
  788SOL     ow 3149   6.853   6.511   3.832 -0.3111  0.0070 -0.1599
  788SOL     hw 3150   6.823   6.587   3.881 -2.6568 -0.3364 -0.9592
  788SOL     hw 3151   6.795   6.505   3.757  0.5913 -1.8654 -0.7999
  788SOL     vw 3152   6.842   6.520   3.829 -0.5016 -0.2851 -0.3496
  789SOL     ow 3153   2.608   1.818   0.766 -0.3895  0.0605  0.2752
  789SOL     hw 3154   2.659   1.859   0.836 -1.8923  0.7334  1.0354
  789SOL     hw 3155   2.633   1.725   0.769  0.4769  0.3052  0.8771
  789SOL     vw 3156   2.618   1.811   0.776 -0.4736  0.1816  0.4549
  790SOL     ow 3157   3.016   0.733   5.696  0.5092  0.3839 -0.1016
  790SOL     hw 3158   2.974   0.715   5.780  0.0581  1.6866 -0.0266
  790SOL     hw 3159   3.109   0.714   5.712  0.1950 -0.9895  0.1897
  790SOL     vw 3160   3.023   0.728   5.709  0.4083  0.3746 -0.0534
  791SOL     ow 3161   1.030   6.253   4.474 -0.0944 -0.5096 -0.1796
  791SOL     hw 3162   1.066   6.272   4.387 -1.4571  1.2893 -0.4100
  791SOL     hw 3163   1.106   6.227   4.526  0.9693 -0.2788 -1.5541
  791SOL     vw 3164   1.045   6.252   4.470 -0.1339 -0.2418 -0.3912
  792SOL     ow 3165   0.736   0.146   0.038 -0.1645  0.1856  0.1454
  792SOL     hw 3166   0.691   0.184  -0.037 -1.8351  0.6081  1.3171
  792SOL     hw 3167   0.774   0.064   0.005 -0.6074  0.5147 -1.2160
  792SOL     vw 3168   0.735   0.140   0.024 -0.4434  0.2848  0.1204
  793SOL     ow 3169   6.044   2.537   5.157  0.5556  0.2625  0.2959
  793SOL     hw 3170   5.993   2.496   5.228  2.4184 -1.2798  0.8169
  793SOL     hw 3171   6.132   2.547   5.193  1.0170  1.4553 -1.0866
  793SOL     vw 3172   6.049   2.533   5.171  0.8624  0.2164  0.1822
  794SOL     ow 3173   6.084   5.523   2.284  0.0429  0.3103  0.4100
  794SOL     hw 3174   6.110   5.537   2.193 -0.9305 -0.6652 -0.0451
  794SOL     hw 3175   6.102   5.606   2.327  0.7759  0.7048 -0.6087
  794SOL     vw 3176   6.090   5.536   2.277  0.0114  0.2337  0.2156
  795SOL     ow 3177   6.666   6.732   0.750 -0.7219  0.5783 -0.1252
  795SOL     hw 3178   6.656   6.693   0.836 -0.5399 -0.9940 -0.7870
  795SOL     hw 3179   6.739   6.794   0.759 -0.6270  0.3354  0.8030
  795SOL     vw 3180   6.674   6.735   0.762 -0.6852  0.3386 -0.0900
  796SOL     ow 3181   3.014   4.072   1.132  0.5219 -0.3216  0.0589
  796SOL     hw 3182   2.960   4.150   1.114 -0.9116 -1.3609 -0.3489
  796SOL     hw 3183   3.020   4.070   1.227  0.7362  0.3930  0.0693
  796SOL     vw 3184   3.008   4.082   1.142  0.3611 -0.3645  0.0065
  797SOL     ow 3185   5.423   6.727   4.475  0.2634 -0.3641  0.3303
  797SOL     hw 3186   5.349   6.669   4.492 -0.5455  0.5847  0.1292
  797SOL     hw 3187   5.391   6.815   4.496  1.4476  0.0315  0.5764
  797SOL     vw 3188   5.409   6.731   4.480  0.3128 -0.1869  0.3362
  798SOL     ow 3189   5.919   3.297   2.592 -0.7796  0.2679 -0.6399
  798SOL     hw 3190   5.949   3.302   2.501  0.0167  2.2806 -0.3135
  798SOL     hw 3191   5.825   3.312   2.587 -0.4949  2.2871 -1.0447
  798SOL     vw 3192   5.911   3.300   2.579 -0.6368  0.7998 -0.6503
  799SOL     ow 3193   5.096   1.745   2.612 -0.5441  0.6304 -0.2068
  799SOL     hw 3194   5.121   1.812   2.676  1.8054 -0.7373  0.4332
  799SOL     hw 3195   5.172   1.687   2.608 -1.5333 -0.6163 -2.5779
  799SOL     vw 3196   5.109   1.746   2.620 -0.3648  0.2855 -0.4352
  800SOL     ow 3197   5.291   6.045   3.040 -0.1208  0.7699  0.1506
  800SOL     hw 3198   5.257   6.037   2.951  0.2661  0.5015  0.0228
  800SOL     hw 3199   5.223   6.008   3.096  0.2826 -0.5312 -0.1681
  800SOL     vw 3200   5.278   6.039   3.036 -0.0165  0.5627  0.0917
  801SOL     ow 3201   6.800   5.813   3.105  0.0227 -0.4769  0.0680
  801SOL     hw 3202   6.822   5.811   3.198 -0.7488  0.2905  0.2850
  801SOL     hw 3203   6.756   5.730   3.089 -2.7190  0.6215  1.1893
  801SOL     vw 3204   6.797   5.802   3.115 -0.4408 -0.2308  0.2445
  802SOL     ow 3205   6.381   6.920   3.075 -0.3589 -0.3457  0.2474
  802SOL     hw 3206   6.394   6.960   2.990  0.9838 -1.5703 -0.1481
  802SOL     hw 3207   6.418   6.983   3.137  1.8688 -0.9916 -0.3730
  802SOL     vw 3208   6.387   6.934   3.072  0.1121 -0.5925  0.1134
  803SOL     ow 3209   4.903   0.294   6.350 -0.2795  0.3020 -0.0230
  803SOL     hw 3210   4.945   0.293   6.435 -1.3216 -0.6478  0.5134
  803SOL     hw 3211   4.933   0.376   6.309 -1.3587  1.8614  2.0771
  803SOL     vw 3212   4.912   0.305   6.356 -0.5596  0.3824  0.3250
  804SOL     ow 3213   0.285   3.072   0.994 -0.2978  0.8634  0.3846
  804SOL     hw 3214   0.284   3.024   1.078  0.3850  0.8329  0.3848
  804SOL     hw 3215   0.378   3.077   0.971 -0.5605 -0.5801 -1.2030
  804SOL     vw 3216   0.297   3.066   1.002 -0.2424  0.6689  0.1751
  805SOL     ow 3217   4.563   1.620   6.006 -0.1925 -0.3695  0.6953
  805SOL     hw 3218   4.588   1.692   5.948 -2.7038  0.0564  0.0434
  805SOL     hw 3219   4.580   1.541   5.955  0.2777 -0.1369  0.4821
  805SOL     vw 3220   4.569   1.619   5.992 -0.4618 -0.2826  0.5810
  806SOL     ow 3221   3.011   0.187   2.216 -0.2707 -0.3250 -0.3481
  806SOL     hw 3222   3.010   0.177   2.121  1.7676  1.2187 -0.6078
  806SOL     hw 3223   3.104   0.195   2.238 -0.8169  2.6217  1.3594
  806SOL     vw 3224   3.023   0.187   2.207 -0.0737  0.2675 -0.1571
  807SOL     ow 3225   0.933   6.181   0.045  0.3539  0.1513  0.3218
  807SOL     hw 3226   0.983   6.263   0.045 -1.2178  1.1723  1.2887
  807SOL     hw 3227   0.870   6.192   0.116 -0.2090 -1.7272  0.1537
  807SOL     vw 3228   0.931   6.193   0.054  0.0723  0.0381  0.4272
  808SOL     ow 3229   1.215   6.804   3.179  0.0573  0.2626 -0.1258
  808SOL     hw 3230   1.206   6.742   3.107 -0.8655 -1.1340  1.1303
  808SOL     hw 3231   1.232   6.749   3.256 -1.5341  1.4829  1.1655
  808SOL     vw 3232   1.216   6.789   3.180 -0.2744  0.2391  0.2103
  809SOL     ow 3233   1.644   2.073   2.747 -0.2527  0.6847 -0.6483
  809SOL     hw 3234   1.557   2.066   2.706 -0.4746 -0.4698  0.0025
  809SOL     hw 3235   1.626   2.109   2.834  0.1274  2.2085 -1.1635
  809SOL     vw 3236   1.630   2.077   2.753 -0.2317  0.7335 -0.6304
  810SOL     ow 3237   5.809   4.068   1.476 -0.0968  0.2579 -0.1564
  810SOL     hw 3238   5.781   4.160   1.472 -0.6726  0.0661 -0.7988
  810SOL     hw 3239   5.755   4.024   1.410  0.2359 -0.5281  0.0849
  810SOL     vw 3240   5.798   4.075   1.466 -0.1287  0.1290 -0.2093
  811SOL     ow 3241   2.005   1.347   1.650 -0.6924 -0.3022  0.8248
  811SOL     hw 3242   1.991   1.400   1.571 -0.5040 -0.1239  0.9109
  811SOL     hw 3243   1.938   1.378   1.711  0.0060  0.4798  1.2005
  811SOL     vw 3244   1.994   1.358   1.647 -0.5755 -0.1755  0.8858
  812SOL     ow 3245   0.831   2.639   4.935  0.7415 -0.4961  0.4345
  812SOL     hw 3246   0.832   2.576   5.007 -1.2076  1.1059  1.9722
  812SOL     hw 3247   0.921   2.672   4.931  1.3888 -2.0987  0.6718
  812SOL     vw 3248   0.843   2.635   4.944  0.5697 -0.4961  0.6688
  813SOL     ow 3249   1.313   1.225   5.760 -0.1951  0.1427 -1.1941
  813SOL     hw 3250   1.312   1.149   5.818  3.6764 -0.2324 -1.3280
  813SOL     hw 3251   1.373   1.200   5.690  2.0434  3.5473 -0.7261
  813SOL     vw 3252   1.321   1.212   5.759  0.6110  0.5424 -1.1501
  814SOL     ow 3253   3.677   1.623   5.365 -0.2182 -0.1029 -0.3058
  814SOL     hw 3254   3.588   1.657   5.379  0.1748  0.3416  1.3748
  814SOL     hw 3255   3.732   1.702   5.362  0.8343 -0.3857  4.5480
  814SOL     vw 3256   3.672   1.638   5.366 -0.0275 -0.0815  0.5565
  815SOL     ow 3257   0.103   6.743   5.780  0.2954  0.1632 -0.1197
  815SOL     hw 3258   0.050   6.670   5.749 -1.7586  0.7696  1.7354
  815SOL     hw 3259   0.193   6.716   5.761 -0.3830 -2.7813  0.3416
  815SOL     vw 3260   0.108   6.730   5.773 -0.0651 -0.1454  0.1862
  816SOL     ow 3261   4.246   1.703   5.615  0.3534 -0.1819 -0.6835
  816SOL     hw 3262   4.316   1.638   5.604  0.1317 -0.8871  1.5813
  816SOL     hw 3263   4.255   1.761   5.540  1.2643 -2.1824 -2.1911
  816SOL     vw 3264   4.257   1.702   5.604  0.4444 -0.5389 -0.5834
  817SOL     ow 3265   6.444   6.575   3.902  0.3643 -0.3252 -0.0770
  817SOL     hw 3266   6.442   6.645   3.967  0.4938 -0.3366 -0.0601
  817SOL     hw 3267   6.478   6.616   3.823 -2.7449  0.5053 -1.1245
  817SOL     vw 3268   6.449   6.589   3.900 -0.0288 -0.2167 -0.2129
  818SOL     ow 3269   5.825   2.717   1.558  0.4553 -0.0704 -0.1211
  818SOL     hw 3270   5.797   2.729   1.467 -0.5545 -2.3158 -0.2039
  818SOL     hw 3271   5.780   2.786   1.607 -0.1077  0.3240 -1.1674
  818SOL     vw 3272   5.815   2.727   1.552  0.2477 -0.3146 -0.2701
  819SOL     ow 3273   5.852   1.775   5.550  0.2164  0.1726 -0.3976
  819SOL     hw 3274   5.870   1.682   5.533  0.8515  0.4090 -1.0691
  819SOL     hw 3275   5.878   1.819   5.470 -1.4848  0.7910 -0.6509
  819SOL     vw 3276   5.858   1.768   5.537  0.0761  0.2854 -0.5193
  820SOL     ow 3277   3.287   5.487   3.872 -0.3057  0.4538  0.1979
  820SOL     hw 3278   3.352   5.517   3.808  0.9468 -2.2468  0.0552
  820SOL     hw 3279   3.331   5.492   3.956 -1.0339  1.5106  0.5338
  820SOL     vw 3280   3.302   5.492   3.874 -0.2365  0.2370  0.2234
  821SOL     ow 3281   1.732   0.282   5.099  0.7199 -0.7037 -0.6549
  821SOL     hw 3282   1.762   0.208   5.046  0.4411 -1.7190  0.5665
  821SOL     hw 3283   1.763   0.264   5.187 -0.5619 -0.0879 -0.0353
  821SOL     vw 3284   1.740   0.270   5.103  0.5140 -0.7564 -0.4120
  822SOL     ow 3285   6.337   1.650   4.511 -0.2192 -0.0098 -0.1494
  822SOL     hw 3286   6.281   1.597   4.454  0.4101 -0.5103 -0.3205
  822SOL     hw 3287   6.322   1.740   4.482  0.7493 -0.3213 -1.7382
  822SOL     vw 3288   6.328   1.655   4.500 -0.0083 -0.1169 -0.3817
  823SOL     ow 3289   4.814   4.347   0.186 -0.2581  0.5119 -0.0171
  823SOL     hw 3290   4.741   4.288   0.166 -1.1243  1.3457  0.5798
  823SOL     hw 3291   4.878   4.330   0.118 -0.0459 -1.8102  0.6996
  823SOL     vw 3292   4.813   4.337   0.174 -0.3443  0.3157  0.1562
  824SOL     ow 3293   1.705   3.490   2.566  0.4100  0.0383  0.0878
  824SOL     hw 3294   1.779   3.434   2.544  0.3161 -0.4592  0.9808
  824SOL     hw 3295   1.730   3.532   2.648  0.2911  0.9719 -0.3446
  824SOL     vw 3296   1.718   3.488   2.574  0.3819  0.0957  0.1487
  825SOL     ow 3297   4.501   5.345   6.374 -0.0566 -0.1692  0.1414
  825SOL     hw 3298   4.483   5.338   6.280  1.1327  2.0549 -0.3324
  825SOL     hw 3299   4.578   5.290   6.389  0.1706  0.0133 -0.3413
  825SOL     vw 3300   4.509   5.337   6.364  0.1307  0.1485  0.0155
  826SOL     ow 3301   5.089   2.244   1.422  0.3071 -0.5535 -0.3926
  826SOL     hw 3302   5.045   2.329   1.432  0.5695 -0.3435 -0.9815
  826SOL     hw 3303   5.148   2.238   1.497  0.7782  0.0865 -0.7086
  826SOL     vw 3304   5.091   2.254   1.433  0.4041 -0.4414 -0.5121
  827SOL     ow 3305   5.356   1.810   5.125 -0.5041  0.0089 -0.1254
  827SOL     hw 3306   5.274   1.827   5.171  0.6641  0.9704  1.7211
  827SOL     hw 3307   5.399   1.895   5.119  0.5452 -0.5335 -0.6848
  827SOL     vw 3308   5.351   1.823   5.131 -0.2115  0.0642  0.0446
  828SOL     ow 3309   4.632   1.761   6.264  0.2440  0.0797 -0.4294
  828SOL     hw 3310   4.680   1.769   6.346 -0.1462  0.2795 -0.2158
  828SOL     hw 3311   4.546   1.800   6.283  1.3877  3.7853 -2.0499
  828SOL     vw 3312   4.627   1.767   6.278  0.3436  0.5950 -0.6149
  829SOL     ow 3313   6.546   4.763   3.365 -0.5760 -0.3055 -0.4704
  829SOL     hw 3314   6.484   4.752   3.437 -2.6240  1.4104 -1.8500
  829SOL     hw 3315   6.632   4.748   3.405 -1.7423 -1.4430  1.8324
  829SOL     vw 3316   6.549   4.760   3.380 -1.0004 -0.2296 -0.3487
  830SOL     ow 3317   6.510   2.271   2.294  0.1196 -0.1942  0.8486
  830SOL     hw 3318   6.467   2.337   2.238  0.4637 -1.5611 -1.1336
  830SOL     hw 3319   6.598   2.306   2.307  0.3268 -0.2374 -0.2599
  830SOL     vw 3320   6.516   2.285   2.288  0.1919 -0.3802  0.4408
  831SOL     ow 3321   1.423   3.551   0.383  0.1867 -0.3387 -0.2223
  831SOL     hw 3322   1.437   3.470   0.434 -3.0778 -1.5334 -1.0102
  831SOL     hw 3323   1.493   3.550   0.317  0.7279 -2.0592  0.3165
  831SOL     vw 3324   1.434   3.540   0.381 -0.1726 -0.7234 -0.2551
  832SOL     ow 3325   1.251   5.015   4.408 -0.6796  0.2321  0.0480
  832SOL     hw 3326   1.308   4.939   4.419 -1.6774 -0.5564 -0.2083
  832SOL     hw 3327   1.312   5.088   4.393  0.2807 -0.5066  0.2952
  832SOL     vw 3328   1.267   5.015   4.407 -0.6846  0.0308  0.0467
  833SOL     ow 3329   4.844   6.756   5.322 -0.1493  0.1611 -0.6757
  833SOL     hw 3330   4.854   6.669   5.282 -1.2870  0.2477 -1.2135
  833SOL     hw 3331   4.867   6.817   5.252  0.8396  0.3059 -0.2380
  833SOL     vw 3332   4.848   6.752   5.307 -0.1690  0.1917 -0.6888
  834SOL     ow 3333   6.402   0.981   0.576  0.4501 -1.0332 -0.4850
  834SOL     hw 3334   6.443   1.004   0.660 -0.6628 -0.6115 -0.0419
  834SOL     hw 3335   6.410   1.060   0.523  2.2588 -1.6810 -1.2584
  834SOL     vw 3336   6.409   0.994   0.580  0.5422 -1.0630 -0.5286
  835SOL     ow 3337   6.316   1.517   2.582 -0.6397 -0.3321 -0.2280
  835SOL     hw 3338   6.290   1.576   2.511 -0.7743  0.7809  0.7215
  835SOL     hw 3339   6.305   1.569   2.661  0.6057 -1.1709  0.5272
  835SOL     vw 3340   6.311   1.532   2.583 -0.4933 -0.2958 -0.0031
  836SOL     ow 3341   5.636   6.865   4.313  0.0094 -0.0465  0.2290
  836SOL     hw 3342   5.617   6.957   4.333 -1.2667  0.6664 -3.4797
  836SOL     hw 3343   5.727   6.866   4.283  0.0768 -0.0450  0.4319
  836SOL     vw 3344   5.646   6.877   4.312 -0.1497  0.0479 -0.2337
  837SOL     ow 3345   0.992   5.762   1.855  0.1503  0.0285 -0.4193
  837SOL     hw 3346   1.056   5.819   1.898  1.4255 -1.0833 -0.7935
  837SOL     hw 3347   0.918   5.760   1.915  2.0019 -1.7869  2.0389
  837SOL     vw 3348   0.991   5.769   1.868  0.5628 -0.3576 -0.1443
  838SOL     ow 3349   2.998   1.329   0.549 -0.2703 -0.1423  0.1847
  838SOL     hw 3350   2.927   1.265   0.543 -0.7331  0.3212  0.7593
  838SOL     hw 3351   3.015   1.338   0.643  0.9610 -0.7001  0.0404
  838SOL     vw 3352   2.991   1.321   0.560 -0.1690 -0.1547  0.2415
  839SOL     ow 3353   2.190   0.506   3.047  0.0370  0.3997 -0.1955
  839SOL     hw 3354   2.262   0.567   3.064  0.2658  0.3251 -0.8656
  839SOL     hw 3355   2.230   0.419   3.053 -0.2143  0.3199  0.4113
  839SOL     vw 3356   2.205   0.502   3.050  0.0341  0.3794 -0.2038
  840SOL     ow 3357   5.267   3.248   3.003 -0.4050  0.0904  0.5518
  840SOL     hw 3358   5.345   3.302   3.014 -0.9664  0.7952  1.2055
  840SOL     hw 3359   5.299   3.166   2.966  0.5210  0.7019 -0.0263
  840SOL     vw 3360   5.281   3.244   3.000 -0.3572  0.2640  0.5617
  841SOL     ow 3361   6.667   5.906   6.290  0.5853  0.9920 -0.4243
  841SOL     hw 3362   6.742   5.962   6.270  0.9480 -0.0170 -2.0115
  841SOL     hw 3363   6.691   5.862   6.371  1.6274  0.8635 -0.7823
  841SOL     vw 3364   6.680   5.908   6.298  0.7708  0.8421 -0.6809
  842SOL     ow 3365   4.144   3.921   6.400  0.1152  0.0832  0.0193
  842SOL     hw 3366   4.133   3.844   6.456 -0.2514 -1.5450 -2.1722
  842SOL     hw 3367   4.055   3.952   6.384  0.1951  0.3328  0.0585
  842SOL     vw 3368   4.131   3.915   6.405  0.0772 -0.0988 -0.2649
  843SOL     ow 3369   1.216   2.919   5.956 -0.1065 -0.5238 -0.1243
  843SOL     hw 3370   1.140   2.976   5.944 -0.1117 -0.6037 -0.4938
  843SOL     hw 3371   1.289   2.979   5.969 -0.2683 -0.4504  0.4476
  843SOL     vw 3372   1.215   2.934   5.956 -0.1284 -0.5248 -0.0978
  844SOL     ow 3373   5.091   2.095   4.677  0.0992  1.1018  0.4447
  844SOL     hw 3374   5.113   2.047   4.597  0.4665  0.5416  0.8786
  844SOL     hw 3375   5.176   2.118   4.715 -0.0375  0.0125  1.4793
  844SOL     vw 3376   5.105   2.092   4.671  0.1295  0.8841  0.6387
  845SOL     ow 3377   1.617   3.907   6.583 -0.4184  0.2998  0.2962
  845SOL     hw 3378   1.674   3.973   6.623 -1.0263 -0.5799  2.8528
  845SOL     hw 3379   1.655   3.824   6.611 -0.9244 -0.3935 -1.0192
  845SOL     vw 3380   1.630   3.905   6.592 -0.5654  0.0923  0.4599
  846SOL     ow 3381   3.297   2.480   3.505 -0.0102 -0.4066  0.5005
  846SOL     hw 3382   3.387   2.459   3.480 -0.8806 -0.3938 -3.3915
  846SOL     hw 3383   3.282   2.567   3.467 -2.1606 -1.1950 -0.6111
  846SOL     vw 3384   3.307   2.489   3.496 -0.4088 -0.5090 -0.1597
  847SOL     ow 3385   0.149   1.248   2.983  0.0606 -0.1133  0.2644
  847SOL     hw 3386   0.134   1.336   3.017  0.4298 -0.0924  0.3804
  847SOL     hw 3387   0.066   1.202   2.998  0.0485  0.0498  0.7091
  847SOL     vw 3388   0.136   1.254   2.989  0.1078 -0.0890  0.3384
  848SOL     ow 3389   5.296   0.475   2.252  0.2574  1.0609  0.1467
  848SOL     hw 3390   5.391   0.487   2.263  0.1397  2.9021 -0.4499
  848SOL     hw 3391   5.258   0.517   2.329 -0.0912 -0.6015  0.9326
  848SOL     vw 3392   5.304   0.482   2.264  0.1957  1.0845  0.1717
  849SOL     ow 3393   5.074   2.405   0.600 -0.2401 -0.3352 -0.4092
  849SOL     hw 3394   5.026   2.459   0.539  1.0514 -1.5342 -2.6233
  849SOL     hw 3395   5.154   2.380   0.553  0.7417 -1.4978  1.7012
  849SOL     vw 3396   5.078   2.408   0.586  0.0596 -0.6467 -0.4229
  850SOL     ow 3397   1.824   0.031   3.961  0.0955  0.2560 -0.2757
  850SOL     hw 3398   1.872  -0.024   3.899 -2.3201 -1.8396 -0.4316
  850SOL     hw 3399   1.861   0.008   4.047  2.1965  1.8255 -0.6977
  850SOL     vw 3400   1.835   0.021   3.964  0.0541  0.1866 -0.3520
  851SOL     ow 3401   1.225   2.865   6.238 -0.0898 -0.5758 -0.5360
  851SOL     hw 3402   1.311   2.867   6.279 -0.6175 -0.4056  0.6020
  851SOL     hw 3403   1.240   2.897   6.149  1.3016 -2.2318 -0.9367
  851SOL     vw 3404   1.238   2.870   6.231  0.0241 -0.7719 -0.4387
  852SOL     ow 3405   4.884   0.034   6.153  0.7815  0.2054 -0.2455
  852SOL     hw 3406   4.980   0.036   6.154  0.8292  1.4705 -2.1473
  852SOL     hw 3407   4.862  -0.052   6.117  1.2272  0.1952 -0.5009
  852SOL     vw 3408   4.894   0.023   6.149  0.8466  0.3710 -0.5305
  853SOL     ow 3409   2.790   2.546   2.598  0.2501  0.5705  0.1448
  853SOL     hw 3410   2.708   2.497   2.612  0.3832  0.3078  0.0145
  853SOL     hw 3411   2.841   2.530   2.677  0.7477 -0.4107 -0.3507
  853SOL     vw 3412   2.786   2.537   2.610  0.3335  0.4065  0.0622
  854SOL     ow 3413   3.328   3.774   4.965  0.0788 -0.0253  0.5222
  854SOL     hw 3414   3.328   3.855   5.016  1.8232  0.4447 -0.1556
  854SOL     hw 3415   3.246   3.777   4.916 -0.6201  0.5477  1.6808
  854SOL     vw 3416   3.317   3.785   4.966  0.2168  0.1122  0.5856
  855SOL     ow 3417   6.569   1.965   5.581  0.1825  0.1316 -0.7953
  855SOL     hw 3418   6.651   2.013   5.589  0.3430  0.5379 -3.6644
  855SOL     hw 3419   6.515   2.020   5.524 -0.8632 -1.5575 -1.5124
  855SOL     vw 3420   6.573   1.979   5.574  0.0660 -0.0377 -1.2684
  856SOL     ow 3421   1.343   3.443   2.135  0.2160  0.0835 -0.0459
  856SOL     hw 3422   1.289   3.368   2.158  0.2448  0.5282  1.5629
  856SOL     hw 3423   1.282   3.516   2.127  0.0624 -0.2185 -2.4976
  856SOL     vw 3424   1.328   3.443   2.137  0.1996  0.1023 -0.1571
  857SOL     ow 3425   2.843   2.076   4.349  0.3250  0.0962 -0.2433
  857SOL     hw 3426   2.911   2.128   4.393 -0.9185  1.8925 -0.3394
  857SOL     hw 3427   2.892   2.017   4.292  1.8284  2.0910 -1.1591
  857SOL     vw 3428   2.859   2.075   4.348  0.3593  0.5964 -0.3767
  858SOL     ow 3429   6.814   2.110   1.013 -0.0625  0.0103 -0.2744
  858SOL     hw 3430   6.724   2.082   0.993  0.2414  0.3512 -2.4066
  858SOL     hw 3431   6.861   2.100   0.930  1.9376 -0.3061  0.8328
  858SOL     vw 3432   6.808   2.105   0.999  0.2415  0.0136 -0.4097
  859SOL     ow 3433   5.549   2.900   3.623  0.0009 -0.1223 -0.6353
  859SOL     hw 3434   5.479   2.960   3.596 -0.3301 -0.6739 -1.0169
  859SOL     hw 3435   5.603   2.889   3.544 -0.0439 -0.4693 -0.6172
  859SOL     vw 3436   5.547   2.907   3.609 -0.0486 -0.2409 -0.6834
  860SOL     ow 3437   6.553   6.089   5.177 -0.8631  0.4553  0.5896
  860SOL     hw 3438   6.507   6.171   5.194  0.5827  1.1155  1.5241
  860SOL     hw 3439   6.506   6.024   5.229 -1.4925  0.8495  0.5273
  860SOL     vw 3440   6.541   6.091   5.186 -0.7553  0.5944  0.7048
  861SOL     ow 3441   0.277   0.595   3.231  0.0773 -0.2506 -0.3847
  861SOL     hw 3442   0.335   0.551   3.169 -2.0643 -4.6695  0.3353
  861SOL     hw 3443   0.331   0.611   3.308  1.1762 -1.0770 -0.9582
  861SOL     vw 3444   0.292   0.591   3.233 -0.0602 -0.9427 -0.3653
  862SOL     ow 3445   4.247   1.733   2.955  0.5364  0.2190  0.1776
  862SOL     hw 3446   4.187   1.659   2.958  3.0953 -2.2394 -2.6599
  862SOL     hw 3447   4.259   1.758   3.047 -1.2558 -2.1270  1.1625
  862SOL     vw 3448   4.240   1.727   2.967  0.6373 -0.4148 -0.0669
  863SOL     ow 3449   4.845   2.655   6.435 -0.4861 -0.2955 -0.0059
  863SOL     hw 3450   4.911   2.688   6.496 -1.0108  0.8740 -0.0416
  863SOL     hw 3451   4.798   2.733   6.407 -2.1933 -1.1470  0.3681
  863SOL     vw 3452   4.848   2.670   6.439 -0.7806 -0.2536  0.0389
  864SOL     ow 3453   4.569   3.482   5.175 -0.7265  0.3055 -0.3931
  864SOL     hw 3454   4.655   3.520   5.156 -0.7777  0.9732  0.6051
  864SOL     hw 3455   4.560   3.489   5.270 -0.0808 -3.6612  0.1256
  864SOL     vw 3456   4.579   3.488   5.185 -0.6483 -0.1299 -0.1931
  865SOL     ow 3457   0.614   4.532   3.436 -0.1942 -0.1501 -0.8273
  865SOL     hw 3458   0.577   4.588   3.504  2.0111  0.2927  0.1100
  865SOL     hw 3459   0.666   4.467   3.484  1.9500  0.5669 -2.0032
  865SOL     vw 3460   0.616   4.531   3.451  0.3797  0.0029 -0.8588
  866SOL     ow 3461   3.482   6.288   5.406 -0.1874 -0.3683  0.2052
  866SOL     hw 3462   3.490   6.383   5.397 -1.6655 -0.1699  0.6921
  866SOL     hw 3463   3.569   6.255   5.383  0.7185  1.1737  1.1778
  866SOL     vw 3464   3.494   6.297   5.402 -0.2631 -0.1385  0.3977
  867SOL     ow 3465   2.733   0.950   4.620  0.1342 -0.5260  0.2712
  867SOL     hw 3466   2.710   1.032   4.576  0.6180  0.0711  1.0960
  867SOL     hw 3467   2.663   0.889   4.596 -1.0544  0.5644  0.8628
  867SOL     vw 3468   2.721   0.953   4.611  0.0411 -0.3034  0.4580
  868SOL     ow 3469   0.331   2.769   5.457 -0.7147 -0.2437  0.4436
  868SOL     hw 3470   0.384   2.694   5.485 -0.6449 -0.3817 -0.0563
  868SOL     hw 3471   0.395   2.829   5.417 -0.6213  0.4908  1.6375
  868SOL     vw 3472   0.347   2.767   5.456 -0.6932 -0.1651  0.5352
  869SOL     ow 3473   2.677   3.737   0.710 -0.0254 -0.0177  0.7331
  869SOL     hw 3474   2.727   3.672   0.760 -0.0461  0.1028  0.9144
  869SOL     hw 3475   2.587   3.725   0.739 -0.0465  0.0121  0.6795
  869SOL     vw 3476   2.672   3.727   0.721 -0.0309  0.0023  0.7499
  870SOL     ow 3477   1.613   0.733   2.336  0.0782 -0.0923 -0.3975
  870SOL     hw 3478   1.625   0.821   2.300  0.2664 -1.0581 -2.9111
  870SOL     hw 3479   1.656   0.676   2.273  1.8563 -1.8928  2.2581
  870SOL     vw 3480   1.620   0.737   2.323  0.3376 -0.4573 -0.3787
  871SOL     ow 3481   0.021   6.364   6.534 -0.9745  0.2721  0.0785
  871SOL     hw 3482  -0.021   6.281   6.555 -0.1103 -1.4380 -4.0695
  871SOL     hw 3483  -0.050   6.419   6.499 -0.8028 -0.6807 -1.9169
  871SOL     vw 3484   0.006   6.361   6.532 -0.8378 -0.0794 -0.7319
  872SOL     ow 3485   3.207   6.288   2.319  0.0920 -0.4231  0.0531
  872SOL     hw 3486   3.140   6.354   2.301 -1.6074 -2.1371 -0.2511
  872SOL     hw 3487   3.172   6.238   2.392  1.3112 -1.0536  0.2287
  872SOL     vw 3488   3.194   6.290   2.326  0.0286 -0.7324  0.0360
  873SOL     ow 3489   6.884   3.399   5.070  0.4780  0.0340 -0.1591
  873SOL     hw 3490   6.867   3.310   5.039 -1.1122  1.1292 -2.6532
  873SOL     hw 3491   6.848   3.401   5.159 -0.5114 -1.4747 -0.5004
  873SOL     vw 3492   6.877   3.387   5.078  0.1376 -0.0205 -0.5333
  874SOL     ow 3493   2.984   5.340   5.963 -0.6614  0.1540  0.8793
  874SOL     hw 3494   2.997   5.431   5.938  0.6928 -0.3388 -0.3666
  874SOL     hw 3495   3.065   5.316   6.009 -0.9815 -0.4437  1.1442
  874SOL     vw 3496   2.997   5.349   5.966 -0.5249  0.0100  0.7496
  875SOL     ow 3497   4.057   2.511   2.744 -0.3213  0.0069  0.1450
  875SOL     hw 3498   3.986   2.453   2.771 -0.4982  0.7573  1.3878
  875SOL     hw 3499   4.077   2.486   2.654 -0.8080 -1.5551  0.4470
  875SOL     vw 3500   4.051   2.500   2.736 -0.4086 -0.1001  0.3489
  876SOL     ow 3501   3.433   1.818   2.251  0.3550 -0.5956 -0.3901
  876SOL     hw 3502   3.377   1.785   2.181 -0.8196 -1.0268  0.7051
  876SOL     hw 3503   3.483   1.741   2.280 -1.5498 -1.2630  1.3911
  876SOL     vw 3504   3.432   1.803   2.246 -0.0514 -0.7405 -0.0106
  877SOL     ow 3505   1.001   3.368   1.472  0.5962  0.0474 -0.5117
  877SOL     hw 3506   0.914   3.405   1.454  0.5648 -1.3326 -3.9261
  877SOL     hw 3507   1.043   3.433   1.528 -1.8610  1.8243 -0.5559
  877SOL     vw 3508   0.995   3.382   1.477  0.2679  0.0997 -0.9681
  878SOL     ow 3509   4.842   6.876   4.251  0.4716 -0.7773 -0.0590
  878SOL     hw 3510   4.905   6.881   4.323  0.0807  0.0740  0.2355
  878SOL     hw 3511   4.769   6.826   4.287  0.4383 -0.6817  0.0048
  878SOL     vw 3512   4.841   6.870   4.265  0.4160 -0.6523 -0.0117
  879SOL     ow 3513   5.713   6.636   6.715 -0.2890  0.2773  0.4510
  879SOL     hw 3514   5.673   6.562   6.760  0.1951 -1.0810 -1.2215
  879SOL     hw 3515   5.804   6.610   6.704  0.4055  2.0528  1.6225
  879SOL     vw 3516   5.720   6.623   6.719 -0.1333  0.3324  0.3850
  880SOL     ow 3517   1.577   1.335   2.487 -0.0109  0.3423 -0.0072
  880SOL     hw 3518   1.658   1.307   2.531 -1.1227 -0.2441  1.8154
  880SOL     hw 3519   1.596   1.327   2.394  1.1116 -2.6311  0.3648
  880SOL     vw 3520   1.590   1.330   2.481 -0.0095 -0.1274  0.2824
  881SOL     ow 3521   2.248   5.908   2.542  0.3150 -0.2740 -0.0030
  881SOL     hw 3522   2.333   5.881   2.574  0.2128  0.5077  0.9604
  881SOL     hw 3523   2.206   5.950   2.616  0.0771  1.6222 -1.1399
  881SOL     vw 3524   2.253   5.910   2.556  0.2700  0.0792 -0.0259
  882SOL     ow 3525   5.341   4.962   3.970 -0.7116 -0.0442  0.5543
  882SOL     hw 3526   5.360   5.031   4.034 -0.3806  0.8929 -0.5151
  882SOL     hw 3527   5.254   4.985   3.936 -1.0421 -0.7413  0.9137
  882SOL     vw 3528   5.332   4.974   3.974 -0.7114 -0.0124  0.4606
  883SOL     ow 3529   4.799   6.218   3.874 -0.3898 -0.0994 -0.3692
  883SOL     hw 3530   4.886   6.259   3.872  0.0963 -0.9480  1.5246
  883SOL     hw 3531   4.813   6.130   3.840 -0.1636 -0.7634  1.3676
  883SOL     vw 3532   4.813   6.212   3.869 -0.2956 -0.2987  0.1098
  884SOL     ow 3533   6.567   0.758   2.088  0.2426 -0.1963 -0.8067
  884SOL     hw 3534   6.533   0.827   2.030 -0.1532 -0.1697 -0.5432
  884SOL     hw 3535   6.579   0.802   2.172  0.6978 -0.2682 -0.8337
  884SOL     vw 3536   6.564   0.773   2.091  0.2503 -0.2023 -0.7755
  885SOL     ow 3537   2.188   4.553   4.194 -0.3337  0.3417  0.2766
  885SOL     hw 3538   2.209   4.634   4.147 -0.9338  0.3008 -0.0704
  885SOL     hw 3539   2.158   4.493   4.126  1.0258 -0.5013  0.3994
  885SOL     vw 3540   2.187   4.556   4.179 -0.2335  0.2253  0.2468
  886SOL     ow 3541   2.566   6.452   4.957 -0.5889 -0.3550 -0.3080
  886SOL     hw 3542   2.474   6.478   4.954 -1.0699 -1.9417 -0.1107
  886SOL     hw 3543   2.564   6.357   4.970  1.0641 -0.6466 -1.8306
  886SOL     vw 3544   2.554   6.443   4.959 -0.4340 -0.6030 -0.4826
  887SOL     ow 3545   1.774   2.915   0.305 -0.0230 -0.3473  0.3590
  887SOL     hw 3546   1.847   2.858   0.329  1.5094  0.4631 -1.9869
  887SOL     hw 3547   1.730   2.935   0.388  2.4142 -0.8816  1.8803
  887SOL     vw 3548   1.778   2.910   0.319  0.5007 -0.3108  0.2502
  888SOL     ow 3549   6.838   6.238   5.124 -0.3045 -0.5128  0.4064
  888SOL     hw 3550   6.853   6.220   5.217 -0.7079  1.6879  0.9640
  888SOL     hw 3551   6.925   6.233   5.084  0.1346  0.1731  1.2464
  888SOL     vw 3552   6.851   6.235   5.131 -0.2999 -0.1321  0.5908
  889SOL     ow 3553   6.845   0.706   4.279 -0.0420 -0.4998  0.4256
  889SOL     hw 3554   6.772   0.765   4.257  1.0726  0.7661  0.0005
  889SOL     hw 3555   6.810   0.619   4.262 -0.6822  0.1810 -2.2414
  889SOL     vw 3556   6.831   0.703   4.274  0.0207 -0.2429  0.0176
  890SOL     ow 3557   3.781   0.688   0.007 -0.1755  0.5259 -0.3636
  890SOL     hw 3558   3.850   0.754   0.011 -0.7552  1.1041  0.3842
  890SOL     hw 3559   3.799   0.640  -0.075  1.9346 -0.2703  0.4785
  890SOL     vw 3560   3.793   0.691  -0.004  0.0263  0.4971 -0.1538
  891SOL     ow 3561   2.753   6.073   1.768 -0.3603  0.4906  0.3249
  891SOL     hw 3562   2.820   6.128   1.808 -0.0326  0.0369  0.4106
  891SOL     hw 3563   2.789   5.984   1.773 -0.0867  0.4671 -1.4191
  891SOL     vw 3564   2.767   6.068   1.774 -0.2810  0.4277  0.1061
  892SOL     ow 3565   3.352   0.052   4.401  0.5609  0.3823  0.7989
  892SOL     hw 3566   3.342   0.019   4.312  0.3039 -0.2494  1.0578
  892SOL     hw 3567   3.374   0.145   4.390 -0.4531  0.5577  0.0954
  892SOL     vw 3568   3.353   0.060   4.388  0.3932  0.3221  0.7403
  893SOL     ow 3569   4.194   2.367   5.178 -0.1593  0.8334 -0.0169
  893SOL     hw 3570   4.139   2.416   5.240  0.4855 -0.8864  2.0103
  893SOL     hw 3571   4.136   2.298   5.145  0.7968 -1.4169  2.6496
  893SOL     vw 3572   4.179   2.365   5.182  0.0517  0.3096  0.6022
  894SOL     ow 3573   3.666   3.896   2.185 -0.2601 -0.2128  0.0970
  894SOL     hw 3574   3.746   3.946   2.204  1.2948 -2.2962 -0.5050
  894SOL     hw 3575   3.599   3.962   2.171  1.4738  1.6618  0.1255
  894SOL     vw 3576   3.668   3.911   2.186  0.1739 -0.2403  0.0212
  895SOL     ow 3577   1.199   1.930   3.643 -0.2392 -0.2099 -0.4757
  895SOL     hw 3578   1.233   1.939   3.731  0.2942  0.7792 -0.7707
  895SOL     hw 3579   1.145   2.008   3.629  0.0245 -0.1369 -1.1662
  895SOL     vw 3580   1.196   1.942   3.652 -0.1340 -0.0697 -0.6057
  896SOL     ow 3581   0.972   0.426   5.893  0.5041 -0.0487  0.1970
  896SOL     hw 3582   1.017   0.404   5.974  1.8527 -0.4682 -0.6337
  896SOL     hw 3583   1.036   0.408   5.824 -0.1713  1.4801 -0.8888
  896SOL     vw 3584   0.986   0.420   5.894  0.5929  0.0976 -0.0558
  897SOL     ow 3585   3.512   5.123   1.187  0.0177  0.1101  0.0803
  897SOL     hw 3586   3.537   5.205   1.145 -0.7480 -0.3965 -1.4383
  897SOL     hw 3587   3.588   5.065   1.173 -0.3750 -0.1739 -0.9947
  897SOL     vw 3588   3.525   5.126   1.180 -0.1351  0.0060 -0.2620
  898SOL     ow 3589   6.049   6.273   5.385  0.1086  0.2652  0.5452
  898SOL     hw 3590   5.991   6.207   5.346  1.3280  0.6253 -2.1354
  898SOL     hw 3591   6.068   6.240   5.472 -0.0353 -2.5050 -0.3769
  898SOL     vw 3592   6.044   6.260   5.391  0.2503 -0.0527  0.0699
  899SOL     ow 3593   2.068   3.273   4.955  0.5547 -0.3213 -0.2847
  899SOL     hw 3594   2.125   3.314   5.019 -0.4843 -0.2369  0.6116
  899SOL     hw 3595   2.052   3.185   4.990  3.3014 -1.8588 -2.5060
  899SOL     vw 3596   2.073   3.266   4.968  0.7801 -0.5131 -0.4594
  900SOL     ow 3597   0.670   4.105   2.843  0.3196  0.1191  0.5235
  900SOL     hw 3598   0.594   4.071   2.889 -0.8740  2.2595  0.2744
  900SOL     hw 3599   0.690   4.188   2.887  2.1617 -0.1011  0.2113
  900SOL     vw 3600   0.663   4.111   2.855  0.4052  0.3724  0.4495
  901SOL     ow 3601   4.332   1.151   3.804 -0.2842  0.7839 -0.4693
  901SOL     hw 3602   4.359   1.175   3.893 -1.3422  0.0074  0.0806
  901SOL     hw 3603   4.291   1.065   3.813 -0.0830  0.5230 -1.7766
  901SOL     vw 3604   4.330   1.143   3.817 -0.3974  0.6470 -0.5691
  902SOL     ow 3605   0.133   6.885   4.981 -0.0479  0.1632  0.0214
  902SOL     hw 3606   0.173   6.879   4.894 -0.0490 -0.7723  0.0668
  902SOL     hw 3607   0.072   6.810   4.984 -0.8833  0.8399  0.4130
  902SOL     vw 3608   0.130   6.874   4.970 -0.1582  0.1290  0.0792
  903SOL     ow 3609   4.166   3.247   3.320 -0.0327  0.1585 -0.4748
  903SOL     hw 3610   4.187   3.266   3.412  1.4742 -1.6011 -0.4066
  903SOL     hw 3611   4.075   3.217   3.322  0.6520 -2.1166  0.8731
  903SOL     vw 3612   4.156   3.246   3.333  0.2563 -0.3738 -0.2880
  904SOL     ow 3613   5.271   4.650   2.547  0.4492 -0.1419 -0.6983
  904SOL     hw 3614   5.349   4.705   2.557  0.0293  0.2740  0.5221
  904SOL     hw 3615   5.198   4.708   2.570 -0.0536 -1.0223  0.0047
  904SOL     vw 3616   5.272   4.665   2.551  0.3276 -0.2034 -0.4445
  905SOL     ow 3617   0.764   1.031   5.803 -0.4107 -0.4688  0.2256
  905SOL     hw 3618   0.836   0.992   5.852  1.4218  1.9035 -0.4198
  905SOL     hw 3619   0.797   1.040   5.714 -2.2972 -1.2130 -0.5962
  905SOL     vw 3620   0.778   1.027   5.798 -0.4178 -0.2539  0.0319
  906SOL     ow 3621   4.866   5.903   5.875  0.0943 -0.7746 -0.3987
  906SOL     hw 3622   4.870   5.815   5.838 -0.3241 -0.2973 -1.6214
  906SOL     hw 3623   4.954   5.919   5.909  0.8228 -0.8434 -2.1545
  906SOL     vw 3624   4.878   5.893   5.875  0.1352 -0.7207 -0.7918
  907SOL     ow 3625   6.655   1.699   4.576 -0.3348 -0.5308 -0.2629
  907SOL     hw 3626   6.715   1.718   4.648  1.1719 -1.0185 -1.3556
  907SOL     hw 3627   6.711   1.679   4.501 -1.7779  2.1244 -2.2569
  907SOL     vw 3628   6.670   1.699   4.576 -0.3264 -0.2448 -0.6702
  908SOL     ow 3629   2.488   4.011   6.744 -0.0693  0.2875  0.5174
  908SOL     hw 3630   2.435   4.089   6.764 -1.4702 -0.0750 -1.4113
  908SOL     hw 3631   2.533   4.034   6.662 -3.3021 -2.0024 -2.2235
  908SOL     vw 3632   2.487   4.025   6.736 -0.6807 -0.0622 -0.0985
  909SOL     ow 3633   3.522   1.449   6.653 -0.0619 -0.1029 -0.6384
  909SOL     hw 3634   3.514   1.471   6.746  1.7462 -3.2896  0.4302
  909SOL     hw 3635   3.438   1.476   6.615 -1.4362  0.0554  2.2057
  909SOL     vw 3636   3.510   1.456   6.661 -0.0046 -0.5024 -0.1221
  910SOL     ow 3637   5.860   5.823   5.762 -0.4079  0.8395  0.0906
  910SOL     hw 3638   5.814   5.887   5.707  0.2718  2.1260  0.9640
  910SOL     hw 3639   5.806   5.814   5.840 -2.4496 -2.5249 -1.4896
  910SOL     vw 3640   5.847   5.830   5.765 -0.5877  0.5655 -0.0026
  911SOL     ow 3641   3.365   4.450   6.869 -0.0188  0.5658 -0.3659
  911SOL     hw 3642   3.295   4.395   6.905 -0.2418  0.2050 -1.3271
  911SOL     hw 3643   3.322   4.532   6.847 -0.0548  0.4880 -0.5848
  911SOL     vw 3644   3.350   4.454   6.871 -0.0530  0.5081 -0.5219
  912SOL     ow 3645   4.657   0.172   4.043  0.4491 -0.5820 -0.5519
  912SOL     hw 3646   4.572   0.199   4.076  1.1853  0.9514  0.1710
  912SOL     hw 3647   4.652   0.187   3.949 -0.1871 -0.8718 -0.5739
  912SOL     vw 3648   4.645   0.177   4.035  0.4621 -0.4179 -0.4594
  913SOL     ow 3649   3.671   0.197   3.778 -0.3285  0.2484  0.2806
  913SOL     hw 3650   3.610   0.232   3.843 -1.4652 -0.5091 -0.3527
  913SOL     hw 3651   3.695   0.111   3.813 -2.1475 -0.8349 -1.0007
  913SOL     vw 3652   3.666   0.190   3.791 -0.7186  0.0055  0.0280
  914SOL     ow 3653   4.424   4.618   3.215 -0.1394 -0.0251 -0.0613
  914SOL     hw 3654   4.435   4.635   3.121  0.2140 -0.4913 -0.1040
  914SOL     hw 3655   4.493   4.668   3.257 -0.4964  0.4433 -0.0220
  914SOL     vw 3656   4.434   4.627   3.208 -0.1395 -0.0248 -0.0618
  915SOL     ow 3657   2.344   5.817   2.238  0.0103 -0.8663 -0.4216
  915SOL     hw 3658   2.323   5.729   2.270  1.9815 -1.5490 -0.8453
  915SOL     hw 3659   2.404   5.802   2.164 -0.7288  0.8090 -1.4232
  915SOL     vw 3660   2.349   5.803   2.232  0.1730 -0.7353 -0.6095
  916SOL     ow 3661   3.646   6.382   3.812  0.0207  0.2515 -0.1046
  916SOL     hw 3662   3.664   6.467   3.853 -1.3096  0.1227  0.7973
  916SOL     hw 3663   3.640   6.321   3.885 -2.3891  0.0065 -0.4348
  916SOL     vw 3664   3.648   6.385   3.827 -0.4725  0.2024 -0.0292
  917SOL     ow 3665   2.945   6.624   1.410 -0.3528  0.5224 -0.6589
  917SOL     hw 3666   2.991   6.674   1.477  0.9274  0.9392 -1.7820
  917SOL     hw 3667   3.015   6.592   1.353 -1.4133  0.5438 -2.0192
  917SOL     vw 3668   2.961   6.627   1.411 -0.3238  0.5803 -0.9865
  918SOL     ow 3669   2.505   3.689   6.654 -0.6146  0.2261  0.0388
  918SOL     hw 3670   2.493   3.724   6.565  0.2448  1.0060  0.2211
  918SOL     hw 3671   2.599   3.696   6.671 -0.7717  0.0970  1.0266
  918SOL     vw 3672   2.516   3.694   6.644 -0.5219  0.3121  0.1931
  919SOL     ow 3673   2.104   1.985   3.179 -0.3258 -0.6499 -0.4536
  919SOL     hw 3674   2.072   1.975   3.269  0.0722  0.8044 -0.1235
  919SOL     hw 3675   2.035   2.035   3.135  0.7578  1.2092 -0.1348
  919SOL     vw 3676   2.091   1.990   3.185 -0.1303 -0.2127 -0.3680
  920SOL     ow 3677   3.637   0.950   2.842  0.8464 -0.3170  0.1768
  920SOL     hw 3678   3.606   0.864   2.869 -0.6506 -0.1207 -0.7853
  920SOL     hw 3679   3.564   0.987   2.792  2.1695  0.7505 -1.0345
  920SOL     vw 3680   3.623   0.944   2.839  0.8234 -0.1503 -0.1100
  921SOL     ow 3681   1.830   5.060   5.203  0.7272  0.1739  0.3778
  921SOL     hw 3682   1.859   4.986   5.149 -1.2186  0.3215 -0.9397
  921SOL     hw 3683   1.735   5.060   5.195  0.4703  1.0578  2.7535
  921SOL     vw 3684   1.822   5.050   5.195  0.4365  0.3102  0.5174
  922SOL     ow 3685   0.444   4.657   1.946 -0.1788  0.3283 -0.4216
  922SOL     hw 3686   0.421   4.578   1.996 -0.1224  0.7280  0.2455
  922SOL     hw 3687   0.426   4.633   1.855  0.9323 -0.8625 -0.3659
  922SOL     vw 3688   0.439   4.643   1.940 -0.0248  0.2239 -0.3263
  923SOL     ow 3689   0.512   1.234   0.460  0.1508  0.1630  0.1178
  923SOL     hw 3690   0.478   1.144   0.458  1.5479 -0.4538  1.4383
  923SOL     hw 3691   0.581   1.235   0.393 -1.7509  1.1665 -1.9654
  923SOL     vw 3692   0.517   1.222   0.451  0.0843  0.2140  0.0172
  924SOL     ow 3693   0.637   5.836   2.476  0.0343 -0.0940 -0.9002
  924SOL     hw 3694   0.574   5.894   2.431 -1.0445 -0.5794 -0.0641
  924SOL     hw 3695   0.591   5.752   2.483  1.1551 -0.7346 -1.1001
  924SOL     vw 3696   0.622   5.833   2.471  0.0398 -0.2427 -0.8162
  925SOL     ow 3697   4.562   5.304   2.725 -0.0872 -0.5969 -0.2242
  925SOL     hw 3698   4.552   5.259   2.809 -1.6538  0.4533  0.1971
  925SOL     hw 3699   4.652   5.336   2.726  0.4536 -2.0505  0.2798
  925SOL     vw 3700   4.573   5.302   2.736 -0.2224 -0.6499 -0.1020
  926SOL     ow 3701   6.029   1.778   3.849  0.4993 -0.1225  0.2285
  926SOL     hw 3702   5.967   1.736   3.789  0.1568 -1.3816  1.4090
  926SOL     hw 3703   6.090   1.708   3.873  0.8318  0.4373  1.0684
  926SOL     vw 3704   6.029   1.763   3.844  0.4978 -0.2148  0.4952
  927SOL     ow 3705   0.671   4.798   1.298 -0.3604  0.8198  0.1695
  927SOL     hw 3706   0.726   4.727   1.332  0.0525  0.7002 -0.7074
  927SOL     hw 3707   0.595   4.801   1.356 -1.0960 -1.3064 -0.6182
  927SOL     vw 3708   0.669   4.789   1.310 -0.4030  0.5236 -0.0501
  928SOL     ow 3709   5.758   2.408   3.073  0.2223 -0.9299  0.0851
  928SOL     hw 3710   5.755   2.503   3.083  3.1295 -0.7964  0.6759
  928SOL     hw 3711   5.695   2.374   3.136  1.4437  0.5624  2.2247
  928SOL     vw 3712   5.749   2.416   3.082  0.7668 -0.7155  0.4454
  929SOL     ow 3713   2.010   0.206   3.779 -0.0172  0.1144  0.0058
  929SOL     hw 3714   2.095   0.172   3.806  0.8181  1.5916 -0.6423
  929SOL     hw 3715   2.000   0.175   3.689  0.7207  1.4612 -0.5671
  929SOL     vw 3716   2.020   0.197   3.771  0.1903  0.4870 -0.1552
  930SOL     ow 3717   6.770   0.407   5.989 -0.3283  0.1523 -0.6058
  930SOL     hw 3718   6.714   0.401   6.066 -1.1067 -1.7305 -1.2706
  930SOL     hw 3719   6.858   0.393   6.022 -0.6287 -0.4018 -0.0245
  930SOL     vw 3720   6.774   0.405   6.003 -0.4704 -0.1692 -0.6170
  931SOL     ow 3721   0.038   6.919   4.648  0.3349  0.0418  0.5287
  931SOL     hw 3722   0.023   6.978   4.574  0.5859  1.5000  1.5984
  931SOL     hw 3723  -0.048   6.881   4.667 -0.3068  1.7150  1.1414
  931SOL     vw 3724   0.025   6.921   4.641  0.2834  0.4551  0.7508
  932SOL     ow 3725   0.543   5.690   1.187  0.4493 -0.5636 -0.0835
  932SOL     hw 3726   0.457   5.728   1.205  1.3593  1.3208  0.5001
  932SOL     hw 3727   0.560   5.634   1.263  0.3116  0.1141  0.4532
  932SOL     vw 3728   0.534   5.688   1.199  0.5512 -0.2255  0.0644
  933SOL     ow 3729   3.220   2.993   2.546 -0.2815 -0.0158  0.9223
  933SOL     hw 3730   3.221   3.030   2.458  0.1560  1.7299  1.6297
  933SOL     hw 3731   3.244   2.901   2.533  1.1886  0.5346 -0.6173
  933SOL     vw 3732   3.223   2.986   2.533 -0.0297  0.2872  0.8124
  934SOL     ow 3733   2.537   3.673   3.711 -0.0899 -0.1272  0.0490
  934SOL     hw 3734   2.444   3.685   3.693 -0.2177  0.9184  1.2906
  934SOL     hw 3735   2.542   3.593   3.763 -0.2174 -0.5182 -0.5308
  934SOL     vw 3736   2.525   3.664   3.715 -0.1235 -0.0409  0.1364
  935SOL     ow 3737   3.684   6.290   1.658  0.2772  0.6574  0.0104
  935SOL     hw 3738   3.702   6.196   1.646  0.0789  0.6779 -0.4512
  935SOL     hw 3739   3.736   6.314   1.735 -0.4555 -0.0595  0.7484
  935SOL     vw 3740   3.693   6.281   1.667  0.1543  0.5658  0.0470
  936SOL     ow 3741   2.281   3.351   0.038 -0.2346 -1.0529  0.6625
  936SOL     hw 3742   2.305   3.274   0.089  1.7642  0.6512  2.4686
  936SOL     hw 3743   2.228   3.404   0.098  0.7617  0.2374  0.4417
  936SOL     vw 3744   2.277   3.348   0.053  0.1607 -0.6578  0.8717
  937SOL     ow 3745   2.428   3.982   0.489 -0.3665 -0.0745 -0.1004
  937SOL     hw 3746   2.350   4.022   0.526 -0.7673 -2.1163  1.4065
  937SOL     hw 3747   2.404   3.890   0.477  1.8865 -0.8270  0.7116
  937SOL     vw 3748   2.415   3.975   0.492 -0.1221 -0.4432  0.2056
  938SOL     ow 3749   2.784   5.339   6.565 -0.1887 -0.0762  0.2704
  938SOL     hw 3750   2.789   5.246   6.587  0.0815  0.3296  2.0650
  938SOL     hw 3751   2.706   5.370   6.611  0.0774  0.7023  0.2075
  938SOL     vw 3752   2.775   5.330   6.574 -0.1179  0.0799  0.4988
  939SOL     ow 3753   0.826   1.347   4.124 -0.3806  0.0300  0.1486
  939SOL     hw 3754   0.914   1.385   4.113 -0.0653 -0.7628 -0.1449
  939SOL     hw 3755   0.818   1.285   4.052 -0.4783 -1.1930  1.1729
  939SOL     vw 3756   0.837   1.344   4.113 -0.3519 -0.2360  0.2451
  940SOL     ow 3757   6.249   4.364   5.536  0.0560 -0.0069  0.4041
  940SOL     hw 3758   6.307   4.401   5.603  0.3732 -0.9471  0.6589
  940SOL     hw 3759   6.204   4.440   5.499  0.9354  0.6693  0.6874
  940SOL     vw 3760   6.250   4.379   5.540  0.2141 -0.0417  0.4752
  941SOL     ow 3761   5.145   3.466   3.154  0.3565 -0.1756 -0.2649
  941SOL     hw 3762   5.108   3.526   3.219  0.1145  1.0816 -1.5130
  941SOL     hw 3763   5.240   3.477   3.162  0.2947  1.2391 -1.2361
  941SOL     vw 3764   5.152   3.475   3.164  0.3164  0.1768 -0.5577
  942SOL     ow 3765   3.734   1.683   0.457  0.7501  0.3108 -0.3506
  942SOL     hw 3766   3.787   1.621   0.406  0.2268  1.2825 -2.1481
  942SOL     hw 3767   3.646   1.646   0.455  0.4918  0.9272 -1.1972
  942SOL     vw 3768   3.730   1.670   0.450  0.6469  0.5203 -0.6995
  943SOL     ow 3769   3.381   2.335   6.674  0.1437  0.3600  0.2004
  943SOL     hw 3770   3.387   2.414   6.620 -1.7325  0.1686 -0.3879
  943SOL     hw 3771   3.415   2.361   6.759  1.2097  1.2699 -0.4727
  943SOL     vw 3772   3.386   2.349   6.678  0.0367  0.4547  0.0341
  944SOL     ow 3773   1.600   2.442   3.797  0.0037 -0.5649 -0.0772
  944SOL     hw 3774   1.567   2.378   3.859  1.7463 -1.2490  0.1924
  944SOL     hw 3775   1.666   2.395   3.747 -0.7751  0.2142 -1.9103
  944SOL     vw 3776   1.604   2.428   3.799  0.1309 -0.5524 -0.2835
  945SOL     ow 3777   5.325   1.527   4.186 -0.2597  0.0222 -0.1846
  945SOL     hw 3778   5.396   1.512   4.124 -0.3662  0.6143 -0.4646
  945SOL     hw 3779   5.297   1.617   4.168 -0.2545  0.2275  0.7646
  945SOL     vw 3780   5.331   1.537   4.176 -0.2730  0.1274 -0.0963
  946SOL     ow 3781   3.969   0.271   6.233 -0.4955  0.0088 -0.6603
  946SOL     hw 3782   4.007   0.219   6.304  1.6731 -0.6880 -2.2335
  946SOL     hw 3783   3.889   0.224   6.210 -0.1500 -0.9058 -0.0602
  946SOL     vw 3784   3.964   0.258   6.240 -0.1638 -0.2038 -0.7889
  947SOL     ow 3785   3.433   5.821   1.921 -0.0850 -0.0201 -0.6020
  947SOL     hw 3786   3.491   5.896   1.932  0.4886 -0.3066 -1.5673
  947SOL     hw 3787   3.491   5.750   1.895 -0.4903 -1.0388  1.0738
  947SOL     vw 3788   3.448   5.821   1.919 -0.0628 -0.1922 -0.5082
  948SOL     ow 3789   0.846   0.292   3.814  0.1816  0.0396 -0.1744
  948SOL     hw 3790   0.838   0.201   3.842  1.1723  0.1702  0.5506
  948SOL     hw 3791   0.931   0.321   3.847 -0.7768  1.7082  0.9918
  948SOL     vw 3792   0.856   0.284   3.822  0.1859  0.2770  0.0752
  949SOL     ow 3793   0.437   2.364   4.037 -0.1484  0.2466 -0.1133
  949SOL     hw 3794   0.398   2.279   4.020  1.0929 -0.1217 -1.3347
  949SOL     hw 3795   0.506   2.347   4.101 -0.6799  0.5645  0.5642
  949SOL     vw 3796   0.441   2.351   4.043 -0.0547  0.2398 -0.1855
  950SOL     ow 3797   1.710   5.045   1.823 -0.2247 -0.1336  0.7477
  950SOL     hw 3798   1.671   4.966   1.860  2.0979 -1.1204  1.2834
  950SOL     hw 3799   1.785   5.013   1.772  0.1630  1.6577  0.1240
  950SOL     vw 3800   1.715   5.030   1.821  0.1329 -0.0274  0.7361
  951SOL     ow 3801   4.417   5.268   5.319  0.0055  0.3293 -0.5264
  951SOL     hw 3802   4.479   5.209   5.360  1.1937  0.0391 -2.5832
  951SOL     hw 3803   4.471   5.338   5.281 -1.3400  2.8605  1.8537
  951SOL     vw 3804   4.432   5.269   5.319 -0.0153  0.6254 -0.4838
  952SOL     ow 3805   6.482   4.834   4.964 -0.1954  0.3202  0.2063
  952SOL     hw 3806   6.425   4.776   4.914 -1.2376  1.0378  0.5189
  952SOL     hw 3807   6.476   4.919   4.919  0.7409  0.3736  0.1676
  952SOL     vw 3808   6.473   4.838   4.952 -0.2089  0.4220  0.2422
  953SOL     ow 3809   1.336   0.124   5.686 -0.0823  0.3777 -0.2426
  953SOL     hw 3810   1.328   0.173   5.604  2.2622 -0.6136 -1.1628
  953SOL     hw 3811   1.396   0.177   5.739 -0.6008  0.3862  0.3499
  953SOL     vw 3812   1.343   0.137   5.682  0.1586  0.2480 -0.2861
  954SOL     ow 3813   2.965   4.944   5.122 -0.4095  0.3917 -0.2665
  954SOL     hw 3814   2.885   4.901   5.091 -1.7262  1.0934  1.9862
  954SOL     hw 3815   2.977   5.019   5.064 -1.2045  0.1100 -0.8022
  954SOL     vw 3816   2.956   4.948   5.110 -0.6882  0.4473 -0.0398
  955SOL     ow 3817   2.309   0.165   2.431  0.9021  0.1998 -0.2478
  955SOL     hw 3818   2.291   0.082   2.387  0.6551 -0.0186  0.2585
  955SOL     hw 3819   2.240   0.224   2.400  1.8422  0.6095 -1.6300
  955SOL     vw 3820   2.297   0.162   2.421  0.9934  0.2251 -0.3633
  956SOL     ow 3821   6.269   5.082   3.577  0.6573  0.0973 -0.4679
  956SOL     hw 3822   6.244   5.169   3.545  0.1569 -0.0847 -0.5851
  956SOL     hw 3823   6.365   5.080   3.569  0.8393  1.1812  0.9368
  956SOL     vw 3824   6.279   5.093   3.572  0.6154  0.2162 -0.2980
  957SOL     ow 3825   2.693   0.498   3.747 -0.7926 -0.1769  0.5507
  957SOL     hw 3826   2.723   0.513   3.836 -1.5904  0.8524  0.6726
  957SOL     hw 3827   2.600   0.478   3.756 -1.3403  1.8211 -0.1437
  957SOL     vw 3828   2.685   0.498   3.760 -0.9701  0.2225  0.4752
  958SOL     ow 3829   4.033   0.365   0.535 -0.8552  0.4000  0.2273
  958SOL     hw 3830   3.998   0.360   0.445  1.2902 -0.7042 -0.6047
  958SOL     hw 3831   4.090   0.442   0.534  0.7330 -0.7419  0.0135
  958SOL     vw 3832   4.036   0.374   0.523 -0.3629  0.1037  0.0893
  959SOL     ow 3833   5.218   1.469   1.249 -0.1429 -0.5691  0.4353
  959SOL     hw 3834   5.172   1.414   1.186 -2.6507  0.2159  1.4546
  959SOL     hw 3835   5.217   1.419   1.330  2.5180 -1.3063  0.1056
  959SOL     vw 3836   5.212   1.455   1.251 -0.1225 -0.5627  0.5262
  960SOL     ow 3837   2.950   0.793   4.814 -0.6067  0.8078 -0.4836
  960SOL     hw 3838   2.986   0.711   4.778  1.2136  1.7340 -0.8723
  960SOL     hw 3839   2.894   0.764   4.886 -0.7749 -0.8399 -1.2178
  960SOL     vw 3840   2.947   0.778   4.818 -0.3887  0.7126 -0.6316
  961SOL     ow 3841   0.657   2.714   2.253  0.2454 -0.6631 -0.2201
  961SOL     hw 3842   0.714   2.687   2.182  0.3179 -3.1493  0.7128
  961SOL     hw 3843   0.714   2.721   2.329 -0.3577 -1.3210  0.3083
  961SOL     vw 3844   0.672   2.712   2.253  0.1754 -1.0778 -0.0274
  962SOL     ow 3845   1.733   2.741   3.836  0.3771 -0.4860  0.1768
  962SOL     hw 3846   1.795   2.720   3.905 -1.5706 -0.3092  2.0613
  962SOL     hw 3847   1.780   2.803   3.779  1.3371  1.0281  2.4904
  962SOL     vw 3848   1.748   2.746   3.837  0.2468 -0.2629  0.7306
  963SOL     ow 3849   2.277   1.925   6.216 -0.1823  0.1447 -0.3996
  963SOL     hw 3850   2.308   1.958   6.132  2.0855 -0.6468  0.0647
  963SOL     hw 3851   2.336   1.852   6.237 -2.0974 -1.1730  0.8237
  963SOL     vw 3852   2.289   1.919   6.208 -0.1359 -0.1335 -0.1769
  964SOL     ow 3853   6.033   3.893   1.664 -0.0134  0.1568 -0.1140
  964SOL     hw 3854   6.028   3.802   1.634 -0.7718  0.1871 -0.1133
  964SOL     hw 3855   6.104   3.893   1.727 -0.1592 -0.4966  0.0674
  964SOL     vw 3856   6.041   3.881   1.668 -0.1323  0.0745 -0.0899
  965SOL     ow 3857   3.876   3.077   5.640  0.0825  0.0637 -0.8077
  965SOL     hw 3858   3.806   3.012   5.644  0.0527 -0.0257 -2.3656
  965SOL     hw 3859   3.834   3.155   5.603  0.8931 -0.1598 -2.2693
  965SOL     vw 3860   3.861   3.079   5.636  0.1855  0.0224 -1.2064
  966SOL     ow 3861   4.953   1.508   2.769 -0.1033  0.2469  0.3781
  966SOL     hw 3862   4.880   1.529   2.828  0.4455 -0.4720  1.3490
  966SOL     hw 3863   5.028   1.499   2.827 -0.0370 -3.1451 -0.0309
  966SOL     vw 3864   4.953   1.510   2.785 -0.0222 -0.2955  0.4522
  967SOL     ow 3865   5.995   6.397   5.124 -0.3308  0.3398 -0.4298
  967SOL     hw 3866   6.025   6.480   5.086 -0.6646  0.5526 -0.2363
  967SOL     hw 3867   5.943   6.356   5.055  0.4507 -0.0603 -0.7884
  967SOL     vw 3868   5.992   6.403   5.110 -0.2718  0.3154 -0.4516
  968SOL     ow 3869   4.044   5.792   6.174  0.1916 -0.5577 -0.6377
  968SOL     hw 3870   3.986   5.823   6.243  0.4064 -1.2454 -0.1347
  968SOL     hw 3871   4.096   5.868   6.149 -0.9202  0.0734 -1.1001
  968SOL     vw 3872   4.043   5.806   6.180  0.0732 -0.5653 -0.6325
  969SOL     ow 3873   4.353   5.330   3.930  0.2597 -0.5862 -0.7381
  969SOL     hw 3874   4.367   5.422   3.905 -0.0751 -0.4486 -0.4392
  969SOL     hw 3875   4.440   5.297   3.951  0.2483  0.0412  0.4018
  969SOL     vw 3876   4.366   5.338   3.929  0.2143 -0.4854 -0.5482
  970SOL     ow 3877   4.443   2.794   0.320 -0.2042  1.9061 -0.1087
  970SOL     hw 3878   4.483   2.708   0.331  0.9050  2.2983 -0.8569
  970SOL     hw 3879   4.496   2.853   0.374 -0.1318  2.3392 -0.6417
  970SOL     vw 3880   4.455   2.791   0.328 -0.0484  2.0148 -0.2777
  971SOL     ow 3881   0.398   1.274   2.847 -0.1032  0.0850  0.4351
  971SOL     hw 3882   0.362   1.201   2.798  0.6753 -0.5853  0.8318
  971SOL     hw 3883   0.493   1.262   2.843  0.0238  0.8310  0.8689
  971SOL     vw 3884   0.405   1.263   2.840  0.0162  0.0950  0.5447
  972SOL     ow 3885   0.321   3.187   3.964 -0.1903  0.2690 -0.9402
  972SOL     hw 3886   0.268   3.121   4.009  1.3611 -0.2156  0.2678
  972SOL     hw 3887   0.284   3.271   3.992  0.4875 -0.0326  0.9562
  972SOL     vw 3888   0.309   3.190   3.974  0.1038  0.1652 -0.5306
  973SOL     ow 3889   4.908   1.972   1.509 -0.2285 -0.0977 -0.3352
  973SOL     hw 3890   4.814   1.955   1.516 -0.2074  0.2400  0.8975
  973SOL     hw 3891   4.938   1.978   1.599  0.5175  2.3182 -0.6896
  973SOL     vw 3892   4.899   1.970   1.522 -0.1271  0.2657 -0.2194
  974SOL     ow 3893   4.133   2.579   2.176  0.6544 -0.1608  0.3022
  974SOL     hw 3894   4.157   2.493   2.210 -1.0421 -1.6710 -2.0216
  974SOL     hw 3895   4.177   2.584   2.091 -1.8411 -0.2086 -1.0641
  974SOL     vw 3896   4.142   2.568   2.169  0.1016 -0.3663 -0.1847
  975SOL     ow 3897   3.676   3.983   5.600 -0.7450 -0.0718  0.3513
  975SOL     hw 3898   3.759   4.014   5.562  0.0204 -1.7447  0.5614
  975SOL     hw 3899   3.609   4.021   5.545  0.2607 -0.4552 -1.2018
  975SOL     vw 3900   3.678   3.992   5.588 -0.5113 -0.3431  0.1738
  976SOL     ow 3901   2.568   5.412   1.128 -0.2019  0.2976  0.0433
  976SOL     hw 3902   2.546   5.483   1.189  1.2060 -1.1124  2.3061
  976SOL     hw 3903   2.635   5.361   1.173 -0.0095 -1.5739 -2.1926
  976SOL     vw 3904   2.574   5.415   1.142  0.0093 -0.1354  0.0468
  977SOL     ow 3905   1.683   4.517   5.125  0.3040  0.0542 -0.1726
  977SOL     hw 3906   1.690   4.585   5.058 -1.6022 -1.2966 -1.8573
  977SOL     hw 3907   1.616   4.550   5.185 -0.6796 -0.3359 -1.0327
  977SOL     vw 3908   1.675   4.531   5.125 -0.0774 -0.1755 -0.5083
  978SOL     ow 3909   0.929   6.473   4.633  0.1910  0.0779 -0.3074
  978SOL     hw 3910   0.966   6.507   4.715 -1.6644  0.5787  0.3847
  978SOL     hw 3911   0.972   6.524   4.565  3.2105 -1.6622  0.1394
  978SOL     vw 3912   0.940   6.484   4.635  0.3446 -0.0856 -0.1569
  979SOL     ow 3913   2.042   0.966   4.137  0.2303  0.6745 -0.2751
  979SOL     hw 3914   2.032   0.906   4.063  0.3213  0.5830 -0.2132
  979SOL     hw 3915   1.952   0.985   4.164  0.2125  0.0533  0.1182
  979SOL     vw 3916   2.028   0.960   4.131  0.2401  0.5805 -0.2153
  980SOL     ow 3917   0.786   3.544   0.071 -0.6088  0.0083 -0.8129
  980SOL     hw 3918   0.744   3.621   0.033  0.0051  0.7994  0.0726
  980SOL     hw 3919   0.843   3.511   0.001 -2.0812 -0.6146 -1.7521
  980SOL     vw 3920   0.788   3.550   0.057 -0.7221  0.0305 -0.8200
  981SOL     ow 3921   4.128   2.187   3.582 -0.5172  0.7756  0.3717
  981SOL     hw 3922   4.134   2.281   3.564  1.5859  0.4383 -1.0664
  981SOL     hw 3923   4.095   2.149   3.501 -1.7157  0.2684  1.0699
  981SOL     vw 3924   4.125   2.194   3.569 -0.3982  0.6641  0.2739
  982SOL     ow 3925   0.335   0.486   2.055  0.9179  0.2696 -0.0732
  982SOL     hw 3926   0.293   0.476   2.140 -1.7833 -1.0575 -1.4228
  982SOL     hw 3927   0.419   0.442   2.064  0.9579  0.7007  2.0619
  982SOL     vw 3928   0.340   0.479   2.067  0.5668  0.1514  0.0306
  983SOL     ow 3929   6.218   5.693   4.744 -0.3481 -0.3505 -0.3113
  983SOL     hw 3930   6.299   5.687   4.795 -0.5263  1.3535  0.2120
  983SOL     hw 3931   6.247   5.680   4.653  0.0936 -2.4789  0.0733
  983SOL     vw 3932   6.232   5.690   4.738 -0.3133 -0.4065 -0.1912
  984SOL     ow 3933   1.728   5.750   6.257 -0.0987  0.4292  0.0760
  984SOL     hw 3934   1.671   5.690   6.208 -0.7506  0.5797  0.6397
  984SOL     hw 3935   1.682   5.834   6.254  0.7817  0.9051 -0.6630
  984SOL     vw 3936   1.715   5.753   6.250 -0.0685  0.5116  0.0529
  985SOL     ow 3937   0.177   6.915   6.049 -0.5459 -0.5063 -0.0962
  985SOL     hw 3938   0.152   6.895   6.140 -0.0086 -2.2561 -0.3039
  985SOL     hw 3939   0.236   6.990   6.057 -2.6950  1.2106  0.7269
  985SOL     vw 3940   0.181   6.922   6.062 -0.7586 -0.5107 -0.0153
  986SOL     ow 3941   4.617   3.945   4.930  0.4603  0.0421 -0.0411
  986SOL     hw 3942   4.565   3.903   4.862  1.7079  1.8122 -2.2461
  986SOL     hw 3943   4.689   3.884   4.946 -2.1779 -2.5663  3.2612
  986SOL     vw 3944   4.620   3.932   4.923  0.2768 -0.0685  0.1037
  987SOL     ow 3945   6.717   4.151   0.902 -0.0023  0.1095 -0.7115
  987SOL     hw 3946   6.772   4.192   0.968  0.4757 -1.2570 -0.2137
  987SOL     hw 3947   6.772   4.082   0.865 -1.2384 -1.0699 -0.4323
  987SOL     vw 3948   6.731   4.147   0.906 -0.1023 -0.2265 -0.6090
  988SOL     ow 3949   0.444   6.119   6.071  0.3714  0.5594 -0.0436
  988SOL     hw 3950   0.411   6.209   6.075  0.4224  0.5262  1.2633
  988SOL     hw 3951   0.512   6.115   6.138  0.0469 -0.5841  0.2344
  988SOL     vw 3952   0.449   6.131   6.080  0.3353  0.4041  0.1655
  989SOL     ow 3953   2.778   4.790   5.036 -0.5172  0.0501 -0.1644
  989SOL     hw 3954   2.769   4.732   4.961 -1.0326  0.2163 -0.2341
  989SOL     hw 3955   2.723   4.751   5.104  0.4008 -0.4185  0.3285
  989SOL     vw 3956   2.770   4.777   5.035 -0.4640  0.0103 -0.1087
  990SOL     ow 3957   5.016   5.025   5.734 -1.1836  0.5573 -0.3993
  990SOL     hw 3958   5.007   5.057   5.823 -3.6061  0.6724 -0.6000
  990SOL     hw 3959   5.060   4.941   5.742 -0.5285  1.0060  0.7956
  990SOL     vw 3960   5.020   5.018   5.747 -1.4164  0.6320 -0.2682
  991SOL     ow 3961   6.678   2.828   4.107 -0.3885 -0.2350  1.2453
  991SOL     hw 3962   6.765   2.789   4.098 -0.2660  0.1691  0.5539
  991SOL     hw 3963   6.617   2.755   4.095 -0.2190  0.0142 -2.0168
  991SOL     vw 3964   6.681   2.813   4.104 -0.3498 -0.1487  0.7238
  992SOL     ow 3965   6.695   3.613   1.866 -0.1392 -0.4118 -0.3930
  992SOL     hw 3966   6.622   3.674   1.869 -1.6224 -2.1349  0.3387
  992SOL     hw 3967   6.741   3.626   1.949 -1.0978 -1.0055  0.2550
  992SOL     vw 3968   6.691   3.622   1.877 -0.4613 -0.7175 -0.2110
  993SOL     ow 3969   0.869   2.005   5.039 -0.0740 -0.4600 -0.1809
  993SOL     hw 3970   0.802   2.060   4.998 -0.6099  0.2248  1.5419
  993SOL     hw 3971   0.825   1.962   5.112  0.8125 -1.7710 -0.3894
  993SOL     vw 3972   0.854   2.007   5.043 -0.0277 -0.5426  0.0188
  994SOL     ow 3973   5.853   0.121   0.497 -0.6482  0.1501  0.0209
  994SOL     hw 3974   5.853   0.207   0.456 -1.8596 -0.3607 -1.1444
  994SOL     hw 3975   5.766   0.113   0.536 -0.1234 -0.0833  1.2019
  994SOL     vw 3976   5.841   0.131   0.497 -0.7391  0.0519  0.0230
  995SOL     ow 3977   0.620   3.174   4.098 -0.3802  0.0277  0.3127
  995SOL     hw 3978   0.703   3.222   4.101 -0.0521 -0.5010 -0.0374
  995SOL     hw 3979   0.588   3.177   4.188 -1.8922  3.4502 -0.2135
  995SOL     vw 3980   0.627   3.180   4.110 -0.5364  0.4096  0.1972
  996SOL     ow 3981   6.881   5.852   0.550  0.7149 -0.2600  0.5928
  996SOL     hw 3982   6.926   5.858   0.634  0.6165  1.8163  0.5438
  996SOL     hw 3983   6.952   5.852   0.485  0.7297  1.4482  0.5768
  996SOL     vw 3984   6.896   5.853   0.553  0.7041  0.2394  0.5842
  997SOL     ow 3985   1.893   3.811   1.220 -0.8744  0.5789 -0.3647
  997SOL     hw 3986   1.812   3.830   1.268 -1.3129  0.1169 -0.8924
  997SOL     hw 3987   1.867   3.815   1.128 -0.7403 -1.3925 -0.5259
  997SOL     vw 3988   1.879   3.814   1.214 -0.9146  0.2578 -0.4555
  998SOL     ow 3989   5.624   5.305   5.340 -0.3034  0.0069 -0.4047
  998SOL     hw 3990   5.717   5.330   5.345  0.1796 -1.7011 -0.1701
  998SOL     hw 3991   5.603   5.311   5.247  0.2741 -0.2745 -0.5654
  998SOL     vw 3992   5.634   5.309   5.328 -0.1636 -0.2553 -0.3951
  999SOL     ow 3993   4.030   2.182   1.053  0.0659  0.3237  0.2802
  999SOL     hw 3994   4.070   2.124   0.988  1.8081  1.3295  0.3648
  999SOL     hw 3995   3.942   2.148   1.065  0.5207 -1.3720 -0.7749
  999SOL     vw 3996   4.024   2.170   1.046  0.3557  0.2327  0.1521
 1000SOL     ow 3997   6.360   0.263   6.571 -0.4364 -0.7982 -0.4112
 1000SOL     hw 3998   6.385   0.330   6.507 -0.4001 -1.7815 -1.4662
 1000SOL     hw 3999   6.265   0.265   6.572 -0.4283 -0.1343  0.2389
 1000SOL     vw 4000   6.351   0.272   6.562 -0.4306 -0.8403 -0.4644
 1001SOL     ow 4001   2.641   3.637   3.444  0.5425  0.0317 -0.0850
 1001SOL     hw 4002   2.703   3.638   3.371  0.0984  0.9905 -0.4738
 1001SOL     hw 4003   2.575   3.573   3.419  1.8898 -1.8100  0.8157
 1001SOL     vw 4004   2.641   3.629   3.431  0.6615 -0.0846 -0.0174
 1002SOL     ow 4005   3.579   1.730   4.598 -0.0777 -0.3257 -0.0721
 1002SOL     hw 4006   3.658   1.784   4.596 -1.1714  1.4598  1.4072
 1002SOL     hw 4007   3.521   1.771   4.534 -0.3725 -0.6937 -0.0399
 1002SOL     vw 4008   3.582   1.743   4.589 -0.2608 -0.1387  0.1273
 1003SOL     ow 4009   2.472   3.122   0.722  0.5449 -0.6007 -0.1273
 1003SOL     hw 4010   2.562   3.100   0.700  0.4218 -1.2598  0.0245
 1003SOL     hw 4011   2.423   3.042   0.709 -0.3872  0.2326 -2.0770
 1003SOL     vw 4012   2.477   3.109   0.718  0.4057 -0.5778 -0.3645
 1004SOL     ow 4013   5.150   1.691   3.512 -0.1630 -0.0232  0.5934
 1004SOL     hw 4014   5.245   1.701   3.510  0.0507 -1.8996 -0.3752
 1004SOL     hw 4015   5.124   1.698   3.420 -1.1835  1.9748  0.9772
 1004SOL     vw 4016   5.159   1.693   3.499 -0.2692 -0.0071  0.5163
 1005SOL     ow 4017   3.313   3.034   3.565  0.1712 -0.1790  0.0118
 1005SOL     hw 4018   3.240   3.093   3.586  0.7342  0.4570  0.2424
 1005SOL     hw 4019   3.308   3.023   3.470  0.7253  1.1820 -0.2024
 1005SOL     vw 4020   3.303   3.041   3.555  0.3186  0.0844  0.0139
 1006SOL     ow 4021   6.501   6.346   1.918  0.7909  0.5598 -0.5089
 1006SOL     hw 4022   6.436   6.417   1.922  1.0407  0.8619 -1.4648
 1006SOL     hw 4023   6.531   6.336   2.008  0.1859  1.1408 -0.2295
 1006SOL     vw 4024   6.496   6.354   1.931  0.7439  0.6766 -0.5982
 1007SOL     ow 4025   4.281   5.229   5.046 -0.0257  0.1403  0.2809
 1007SOL     hw 4026   4.354   5.178   5.011 -1.8420 -1.1444 -1.9063
 1007SOL     hw 4027   4.275   5.305   4.988 -0.6537  0.0491  0.2271
 1007SOL     vw 4028   4.290   5.233   5.034 -0.3483 -0.0412 -0.0148
 1008SOL     ow 4029   5.319   5.228   1.384  0.1574  0.5675  0.2884
 1008SOL     hw 4030   5.267   5.157   1.422 -1.0166 -1.4923 -4.4726
 1008SOL     hw 4031   5.404   5.187   1.365  0.0442  0.9076 -0.9987
 1008SOL     vw 4032   5.323   5.213   1.387 -0.0126  0.3405 -0.5095
 1009SOL     ow 4033   1.341   4.790   2.982  0.2487 -0.3125  0.1634
 1009SOL     hw 4034   1.330   4.876   3.022  2.3378 -0.2826  0.7664
 1009SOL     hw 4035   1.361   4.732   3.056  2.7883 -0.5184 -0.5963
 1009SOL     vw 4036   1.342   4.794   2.997  0.8594 -0.3357  0.1427
 1010SOL     ow 4037   3.819   2.835   4.520 -0.4407 -0.0892 -0.6041
 1010SOL     hw 4038   3.886   2.775   4.486  0.0430  0.5105 -0.7337
 1010SOL     hw 4039   3.866   2.889   4.585 -0.1331  2.0073 -2.4377
 1010SOL     vw 4040   3.834   2.834   4.524 -0.3362  0.2666 -0.8631
 1011SOL     ow 4041   4.340   3.478   3.256  0.3158 -0.0316  0.6968
 1011SOL     hw 4042   4.353   3.547   3.321 -1.6368  0.2757  0.8396
 1011SOL     hw 4043   4.363   3.518   3.172 -0.4373  0.6979  0.8254
 1011SOL     vw 4044   4.345   3.492   3.254 -0.0408  0.1051  0.7327
 1012SOL     ow 4045   6.336   4.635   3.165  0.7187 -0.9659  0.4866
 1012SOL     hw 4046   6.370   4.560   3.213 -0.2845 -1.8072 -0.0688
 1012SOL     hw 4047   6.241   4.633   3.181  0.7132  0.3853  0.7267
 1012SOL     vw 4048   6.328   4.625   3.173  0.5856 -0.8988  0.4448
 1013SOL     ow 4049   5.896   5.903   0.844  0.0373  0.1569 -0.3310
 1013SOL     hw 4050   5.819   5.917   0.789  0.2981  1.5884 -0.3739
 1013SOL     hw 4051   5.891   5.811   0.870 -2.6647  0.6226  1.1634
 1013SOL     vw 4052   5.885   5.892   0.840 -0.2847  0.4070 -0.1395
 1014SOL     ow 4053   6.040   3.417   2.855  0.9222 -0.3889  0.5591
 1014SOL     hw 4054   6.057   3.510   2.844  2.8447 -0.7093  0.4378
 1014SOL     hw 4055   5.945   3.410   2.862  0.6880  1.4869 -0.2146
 1014SOL     vw 4056   6.030   3.428   2.854  1.1446 -0.1837  0.4411
 1015SOL     ow 4057   1.589   6.438   2.172  0.7803  0.1578 -0.2368
 1015SOL     hw 4058   1.513   6.493   2.188 -0.7685 -1.2460 -2.2486
 1015SOL     hw 4059   1.564   6.352   2.205  0.9011 -0.6459 -2.0924
 1015SOL     vw 4060   1.576   6.434   2.179  0.5919 -0.1335 -0.7471
 1016SOL     ow 4061   4.797   0.645   4.543  0.0137  0.4591 -0.0717
 1016SOL     hw 4062   4.771   0.702   4.471 -0.6294  0.4080  0.1119
 1016SOL     hw 4063   4.892   0.636   4.534 -0.0735  0.3382 -0.9984
 1016SOL     vw 4064   4.806   0.651   4.533 -0.0827  0.4364 -0.1698
 1017SOL     ow 4065   0.942   4.171   6.651 -0.1682  0.1184 -0.2158
 1017SOL     hw 4066   0.883   4.096   6.652  0.0292 -0.0635 -1.2166
 1017SOL     hw 4067   1.020   4.140   6.698 -0.4662  0.0324  0.2323
 1017SOL     vw 4068   0.945   4.157   6.658 -0.1815  0.0830 -0.2887
 1018SOL     ow 4069   5.561   3.026   4.792 -0.3446 -0.0323 -0.2325
 1018SOL     hw 4070   5.571   3.081   4.715 -0.8023 -0.4491 -0.5925
 1018SOL     hw 4071   5.473   2.988   4.784 -0.2389 -0.3987  0.2766
 1018SOL     vw 4072   5.551   3.028   4.781 -0.3908 -0.1358 -0.2129
 1019SOL     ow 4073   6.122   0.952   3.489 -0.6349  0.0175 -0.5818
 1019SOL     hw 4074   6.187   0.893   3.527 -0.9839  0.0121  0.0209
 1019SOL     hw 4075   6.096   1.010   3.562 -0.0971  1.1003 -1.2205
 1019SOL     vw 4076   6.127   0.952   3.504 -0.6099  0.1596 -0.5866
 1020SOL     ow 4077   2.280   4.430   4.494  0.5015 -0.0579  0.2458
 1020SOL     hw 4078   2.335   4.442   4.571  0.2747 -1.1603  0.5985
 1020SOL     hw 4079   2.294   4.339   4.468 -0.4774 -0.0969 -0.1961
 1020SOL     vw 4080   2.290   4.420   4.500  0.3426 -0.2084  0.2339
 1021SOL     ow 4081   5.398   2.829   2.257 -0.2179 -0.0232 -0.4183
 1021SOL     hw 4082   5.322   2.850   2.311  0.3162 -0.3611  0.5018
 1021SOL     hw 4083   5.409   2.904   2.199  0.4192  1.3343  1.3833
 1021SOL     vw 4084   5.389   2.841   2.257 -0.0634  0.1115 -0.0592
 1022SOL     ow 4085   4.346   1.748   5.921  0.2681  0.4483  0.0631
 1022SOL     hw 4086   4.316   1.805   5.992 -0.1055  0.4486 -0.0921
 1022SOL     hw 4087   4.414   1.694   5.961  0.9653  1.3197  0.0961
 1022SOL     vw 4088   4.351   1.749   5.936  0.3109  0.5632  0.0470
 1023SOL     ow 4089   4.354   5.980   4.621  0.9043  0.1379  0.0595
 1023SOL     hw 4090   4.422   5.917   4.595  1.0279 -0.2482  1.2433
 1023SOL     hw 4091   4.401   6.050   4.665  0.7069  0.8074 -0.7733
 1023SOL     vw 4092   4.369   5.981   4.623  0.8950  0.1752  0.1059
 1024SOL     ow 4093   5.809   6.521   5.360  0.0810 -0.2338 -0.1290
 1024SOL     hw 4094   5.730   6.470   5.342 -0.5858  0.6845  0.1212
 1024SOL     hw 4095   5.777   6.611   5.372  1.2855  0.3723 -1.1943
 1024SOL     vw 4096   5.794   6.526   5.359  0.1521 -0.0329 -0.2367
 1025SOL     ow 4097   0.348   6.150   5.763  0.1745  0.4231  0.6606
 1025SOL     hw 4098   0.335   6.240   5.792 -0.9932  0.0848  1.2517
 1025SOL     hw 4099   0.301   6.144   5.680 -2.7856 -0.4764  2.2208
 1025SOL     vw 4100   0.340   6.161   5.756 -0.3701  0.2596  0.9444
 1026SOL     ow 4101   3.537   5.238   1.777 -0.0493  0.6480 -0.0713
 1026SOL     hw 4102   3.600   5.254   1.707  0.0390  1.3374  0.1555
 1026SOL     hw 4103   3.510   5.148   1.765  0.2418  0.6485 -0.7718
 1026SOL     vw 4104   3.542   5.229   1.767  0.0010  0.7386 -0.1338
 1027SOL     ow 4105   0.882   4.107   1.015 -0.1041  0.3374 -0.2768
 1027SOL     hw 4106   0.822   4.080   1.084 -0.5625  0.9486 -0.4256
 1027SOL     hw 4107   0.843   4.071   0.935  0.0381  0.2492 -0.3065
 1027SOL     vw 4108   0.869   4.098   1.014 -0.1458  0.4063 -0.3003
 1028SOL     ow 4109   6.659   3.304   6.253  0.0720 -0.3308  0.0486
 1028SOL     hw 4110   6.719   3.352   6.197  0.8349 -0.6120  0.6113
 1028SOL     hw 4111   6.634   3.367   6.321 -0.8768  0.0201 -0.6056
 1028SOL     vw 4112   6.664   3.319   6.255  0.0474 -0.3214  0.0362
 1029SOL     ow 4113   3.325   5.279   3.664  0.0449 -0.1399  0.5180
 1029SOL     hw 4114   3.298   5.223   3.591  0.0996  1.0229 -0.4317
 1029SOL     hw 4115   3.421   5.271   3.666 -0.0247 -1.0041  1.1824
 1029SOL     vw 4116   3.334   5.270   3.654  0.0429 -0.1004  0.4804
 1030SOL     ow 4117   2.227   1.478   4.808  0.3392 -0.2208 -0.3043
 1030SOL     hw 4118   2.244   1.561   4.853  0.2170 -0.7518  0.7642
 1030SOL     hw 4119   2.191   1.503   4.723  0.6792  0.8205 -0.1580
 1030SOL     vw 4120   2.225   1.492   4.803  0.3680 -0.1535 -0.1440
 1031SOL     ow 4121   5.198   6.140   5.048 -0.3928  0.0663 -0.0161
 1031SOL     hw 4122   5.259   6.161   5.119 -0.5949  1.3206 -0.1818
 1031SOL     hw 4123   5.116   6.184   5.073 -0.6875 -0.0979 -0.6695
 1031SOL     vw 4124   5.195   6.149   5.061 -0.4585  0.2100 -0.1245
 1032SOL     ow 4125   2.729   0.792   5.629  0.1442 -0.4767 -0.1030
 1032SOL     hw 4126   2.698   0.718   5.681  0.9165 -1.5916 -1.1682
 1032SOL     hw 4127   2.655   0.852   5.626 -1.0499 -1.8929 -0.4518
 1032SOL     vw 4128   2.715   0.790   5.635  0.0886 -0.8107 -0.2894
 1033SOL     ow 4129   3.563   4.229   3.584  0.0854  0.2444  0.1847
 1033SOL     hw 4130   3.572   4.146   3.538  1.0539  0.0974  0.6188
 1033SOL     hw 4131   3.477   4.223   3.627  0.2179 -0.6081  0.3569
 1033SOL     vw 4132   3.553   4.217   3.584  0.2307  0.1128  0.2646
 1034SOL     ow 4133   0.119   3.958   5.280  0.4236  0.7132 -0.0280
 1034SOL     hw 4134   0.204   4.002   5.277  0.5158  0.4875 -0.8390
 1034SOL     hw 4135   0.109   3.917   5.195  0.6938 -1.5662  0.9736
 1034SOL     vw 4136   0.129   3.959   5.269  0.4715  0.3827 -0.0026
 1035SOL     ow 4137   0.763   5.910   1.064  0.2685 -0.0946  0.2596
 1035SOL     hw 4138   0.848   5.879   1.033  0.0811 -0.3196 -0.0389
 1035SOL     hw 4139   0.752   5.995   1.023 -0.0901 -0.4999 -0.5151
 1035SOL     vw 4140   0.773   5.917   1.054  0.1965 -0.1779  0.1181
 1036SOL     ow 4141   6.051   2.068   3.952 -0.0641  0.3682  0.0766
 1036SOL     hw 4142   5.976   2.113   3.912  0.9995  1.2146 -1.0302
 1036SOL     hw 4143   6.125   2.126   3.936  0.8064 -0.3361  1.3760
 1036SOL     vw 4144   6.051   2.081   3.944  0.1912  0.3868  0.1019
 1037SOL     ow 4145   4.339   4.741   1.191 -0.0426  0.2184  0.7159
 1037SOL     hw 4146   4.372   4.699   1.271  0.1197 -1.3077 -0.1026
 1037SOL     hw 4147   4.384   4.695   1.120 -0.6715  1.0945 -0.2733
 1037SOL     vw 4148   4.349   4.729   1.192 -0.1042  0.1326  0.4774
 1038SOL     ow 4149   4.817   3.233   2.456 -0.0226  0.0128 -0.0025
 1038SOL     hw 4150   4.784   3.177   2.386  0.3660  0.8516 -0.8755
 1038SOL     hw 4151   4.894   3.187   2.489  1.0152  0.5703 -1.5311
 1038SOL     vw 4152   4.823   3.219   2.451  0.1659  0.1971 -0.3192
 1039SOL     ow 4153   1.564   5.624   0.890  0.7084 -0.0938 -0.0779
 1039SOL     hw 4154   1.528   5.708   0.918 -0.3647 -0.3953 -0.4941
 1039SOL     hw 4155   1.527   5.561   0.951  2.7213 -0.1105  1.1900
 1039SOL     vw 4156   1.554   5.627   0.902  0.8324 -0.1359  0.0345
 1040SOL     ow 4157   3.014   1.846   5.867 -0.0394  1.0740  0.3725
 1040SOL     hw 4158   3.105   1.844   5.898 -0.2836 -2.3127  1.2086
 1040SOL     hw 4159   2.965   1.887   5.938  0.5729  1.0967  0.7886
 1040SOL     vw 4160   3.020   1.851   5.881  0.0092  0.6301  0.5376
 1041SOL     ow 4161   2.789   2.398   1.088 -0.4340 -0.0908 -0.6192
 1041SOL     hw 4162   2.742   2.319   1.115  1.6397 -1.0153  0.5375
 1041SOL     hw 4163   2.802   2.447   1.169  0.7274  0.0396 -0.8724
 1041SOL     vw 4164   2.784   2.394   1.102 -0.0072 -0.1956 -0.5000
 1042SOL     ow 4165   2.342   0.458   1.718 -0.1102 -0.0586  0.1899
 1042SOL     hw 4166   2.328   0.441   1.625  1.8568 -0.2583 -0.1191
 1042SOL     hw 4167   2.255   0.450   1.758 -1.4710  2.3424 -1.9492
 1042SOL     vw 4168   2.329   0.455   1.711 -0.0302  0.2318 -0.1332
 1043SOL     ow 4169   6.321   0.798   0.317  0.3587 -0.1584 -0.1684
 1043SOL     hw 4170   6.263   0.834   0.250  1.4508  2.1519  0.0323
 1043SOL     hw 4171   6.309   0.703   0.311 -2.4693  0.1639 -0.9462
 1043SOL     vw 4172   6.312   0.790   0.307  0.1297  0.1889 -0.2445
 1044SOL     ow 4173   2.408   0.387   0.843  0.5126 -0.3396  0.2970
 1044SOL     hw 4174   2.435   0.308   0.890  1.8637 -0.1263 -0.0706
 1044SOL     hw 4175   2.406   0.455   0.910 -1.1663 -0.7539  0.7184
 1044SOL     vw 4176   2.411   0.386   0.858  0.4694 -0.3661  0.3041
 1045SOL     ow 4177   1.663   4.519   0.576  0.0878  0.2249  0.3402
 1045SOL     hw 4178   1.704   4.591   0.623  0.4720 -0.7157  1.4777
 1045SOL     hw 4179   1.664   4.446   0.637  0.3892 -0.9804 -1.0426
 1045SOL     vw 4180   1.668   4.519   0.590  0.1783 -0.0584  0.3078
 1046SOL     ow 4181   3.543   5.368   2.876 -0.3095 -0.3556 -0.3123
 1046SOL     hw 4182   3.616   5.340   2.822 -0.4566  0.1922 -0.8074
 1046SOL     hw 4183   3.498   5.287   2.901 -0.6955 -0.5771 -1.6578
 1046SOL     vw 4184   3.547   5.354   2.872 -0.3799 -0.3126 -0.5552
 1047SOL     ow 4185   5.370   6.285   3.090 -0.5528 -0.8423  0.1831
 1047SOL     hw 4186   5.362   6.327   3.005  1.7593  0.6517  0.5833
 1047SOL     hw 4187   5.345   6.194   3.075  1.5821 -1.1116 -2.5818
 1047SOL     vw 4188   5.366   6.278   3.077  0.0339 -0.6807 -0.1289
 1048SOL     ow 4189   1.810   5.661   0.714  0.0081  0.3113  0.3353
 1048SOL     hw 4190   1.854   5.633   0.634 -3.8908 -0.1640 -1.8802
 1048SOL     hw 4191   1.861   5.621   0.785  2.6946 -0.6029 -1.9274
 1048SOL     vw 4192   1.823   5.652   0.713 -0.1518  0.1278 -0.2555
 1049SOL     ow 4193   0.656   3.751   5.990  0.0005 -0.1287 -0.6281
 1049SOL     hw 4194   0.711   3.676   6.013 -1.3420 -0.6625  1.0804
 1049SOL     hw 4195   0.713   3.827   6.001  0.6579 -0.7242  0.2856
 1049SOL     vw 4196   0.671   3.751   5.995 -0.0899 -0.2778 -0.2823
 1050SOL     ow 4197   6.707   4.095   4.145  0.0359  1.1602 -0.1449
 1050SOL     hw 4198   6.773   4.164   4.148 -0.6698  1.8790 -0.6185
 1050SOL     hw 4199   6.731   4.035   4.215  1.2837  1.3112 -0.4247
 1050SOL     vw 4200   6.719   4.096   4.154  0.1075  1.2751 -0.2444
 1051SOL     ow 4201   3.605   1.310   4.091  0.5486  0.1331 -0.4780
 1051SOL     hw 4202   3.628   1.365   4.016  2.2260 -1.6853 -1.3729
 1051SOL     hw 4203   3.590   1.223   4.054  2.0941 -0.9830  1.3463
 1051SOL     vw 4204   3.606   1.306   4.077  0.9739 -0.2540 -0.3552
 1052SOL     ow 4205   3.482   4.655   4.948  0.3562  0.7704 -0.1974
 1052SOL     hw 4206   3.506   4.596   5.020 -3.8978  0.7526  1.4941
 1052SOL     hw 4207   3.530   4.735   4.965 -0.0303  0.5250  2.3236
 1052SOL     vw 4208   3.492   4.658   4.959 -0.2561  0.7358  0.3583
 1053SOL     ow 4209   3.365   1.067   3.466 -0.3378 -0.6638 -0.2535
 1053SOL     hw 4210   3.397   0.989   3.421 -0.3926 -1.0094  0.2965
 1053SOL     hw 4211   3.338   1.036   3.552 -1.6529 -0.2931 -0.5074
 1053SOL     vw 4212   3.366   1.053   3.471 -0.5187 -0.6605 -0.2143
 1054SOL     ow 4213   2.125   1.151   4.368 -0.4343  0.0535 -0.2900
 1054SOL     hw 4214   2.069   1.213   4.414  0.2891  0.0371  0.6433
 1054SOL     hw 4215   2.124   1.072   4.421 -1.7042 -0.9345 -1.6988
 1054SOL     vw 4216   2.118   1.149   4.381 -0.5063 -0.0790 -0.3529
 1055SOL     ow 4217   3.315   4.701   6.357  0.1502  1.0891 -0.3112
 1055SOL     hw 4218   3.295   4.688   6.449  1.4137 -0.9460 -0.2633
 1055SOL     hw 4219   3.260   4.637   6.311  0.5374  1.1293 -0.8446
 1055SOL     vw 4220   3.305   4.691   6.363  0.3679  0.8261 -0.3750
 1056SOL     ow 4221   1.410   3.636   3.726  0.1417  0.4869  0.1236
 1056SOL     hw 4222   1.436   3.653   3.817 -0.3081 -0.2247  0.3961
 1056SOL     hw 4223   1.487   3.596   3.686  0.0436 -0.0403  0.4521
 1056SOL     vw 4224   1.423   3.633   3.733  0.0695  0.3234  0.2029
 1057SOL     ow 4225   1.778   2.245   0.171  0.3317 -0.2388 -0.3104
 1057SOL     hw 4226   1.870   2.247   0.147  0.2669  1.8542 -0.6444
 1057SOL     hw 4227   1.775   2.283   0.259 -0.2824  0.9787 -0.8199
 1057SOL     vw 4228   1.790   2.250   0.179  0.2422  0.1979 -0.4217
 1058SOL     ow 4229   2.729   3.917   3.623  0.5491  0.3439 -0.7508
 1058SOL     hw 4230   2.794   3.978   3.586  2.0320  0.2082  1.4528
 1058SOL     hw 4231   2.681   3.969   3.687  0.7654 -0.3917  0.0249
 1058SOL     vw 4232   2.732   3.932   3.626  0.7733  0.2288 -0.3577
 1059SOL     ow 4233   2.827   1.223   4.073 -0.1839  1.1177  1.1870
 1059SOL     hw 4234   2.793   1.266   4.151 -2.7909  0.5402  0.4816
 1059SOL     hw 4235   2.773   1.256   4.002  0.2860 -0.4068  0.0565
 1059SOL     vw 4236   2.815   1.233   4.074 -0.4659  0.8404  0.9446
 1060SOL     ow 4237   5.783   6.916   3.515 -0.1673  0.0350 -0.4230
 1060SOL     hw 4238   5.798   6.837   3.567  1.2315  0.4113 -0.1929
 1060SOL     hw 4239   5.741   6.885   3.435 -0.3268 -0.8379 -0.0185
 1060SOL     vw 4240   5.780   6.902   3.512 -0.0041 -0.0305 -0.3392
 1061SOL     ow 4241   0.609   4.807   2.163 -0.7818 -0.4770  0.2196
 1061SOL     hw 4242   0.693   4.763   2.155 -1.1729 -1.7542  2.3996
 1061SOL     hw 4243   0.629   4.888   2.212 -0.7968 -0.7582  0.6975
 1061SOL     vw 4244   0.623   4.812   2.169 -0.8354 -0.6828  0.5703
 1062SOL     ow 4245   2.893   4.512   1.727 -0.3717  0.0406 -0.3007
 1062SOL     hw 4246   2.908   4.578   1.794  0.7848 -1.0995  0.6083
 1062SOL     hw 4247   2.859   4.436   1.774  0.1863 -0.6814 -1.0226
 1062SOL     vw 4248   2.890   4.511   1.742 -0.1453 -0.2048 -0.2760
 1063SOL     ow 4249   4.897   0.881   4.737  0.3276  0.2151  0.1492
 1063SOL     hw 4250   4.889   0.975   4.718  1.0443  0.2630  0.0355
 1063SOL     hw 4251   4.989   0.870   4.762 -0.1443 -0.1466  1.8926
 1063SOL     vw 4252   4.908   0.892   4.738  0.3603  0.1737  0.3645
 1064SOL     ow 4253   2.636   1.030   2.438  0.3464 -0.2699  0.0860
 1064SOL     hw 4254   2.640   1.005   2.346 -0.5850 -3.6792  0.8305
 1064SOL     hw 4255   2.722   1.066   2.458  1.1173 -1.0317 -1.7230
 1064SOL     vw 4256   2.648   1.031   2.429  0.3252 -0.8203 -0.0545
 1065SOL     ow 4257   0.495   1.228   5.837 -0.5454  0.6434 -0.5369
 1065SOL     hw 4258   0.486   1.306   5.893 -2.3113 -1.1950  1.9637
 1065SOL     hw 4259   0.436   1.246   5.763 -2.2858  1.0702  0.8579
 1065SOL     vw 4260   0.486   1.241   5.835 -1.0080  0.4572 -0.0231
 1066SOL     ow 4261   2.255   4.631   5.693 -0.0220  0.1671  0.2586
 1066SOL     hw 4262   2.245   4.726   5.702 -0.7799  0.2593 -1.2721
 1066SOL     hw 4263   2.349   4.617   5.696  0.1024  0.9674  0.4300
 1066SOL     vw 4264   2.266   4.642   5.695 -0.1055  0.2849  0.0792
 1067SOL     ow 4265   6.326   0.675   2.170  0.7049  0.1113  0.2106
 1067SOL     hw 4266   6.312   0.586   2.136  0.9858  0.8013 -1.8225
 1067SOL     hw 4267   6.378   0.719   2.103 -0.9607  2.3645  0.2776
 1067SOL     vw 4268   6.331   0.669   2.156  0.5221  0.4996 -0.0489
 1068SOL     ow 4269   0.842   3.330   4.156  0.2579 -0.0899  0.2716
 1068SOL     hw 4270   0.847   3.363   4.246  1.2090 -2.4642  1.1723
 1068SOL     hw 4271   0.917   3.371   4.112  0.9814 -0.4206  1.1461
 1068SOL     vw 4272   0.853   3.340   4.162  0.4788 -0.4469  0.5059
 1069SOL     ow 4273   1.699   5.976   2.606  0.1045  0.1372  0.3037
 1069SOL     hw 4274   1.757   5.904   2.630  0.5786  0.3443 -0.2036
 1069SOL     hw 4275   1.734   6.051   2.654  1.2505  0.6278 -1.2175
 1069SOL     vw 4276   1.711   5.976   2.616  0.3183  0.2291  0.0361
 1070SOL     ow 4277   4.773   2.057   4.711 -0.5970  0.0616 -0.0672
 1070SOL     hw 4278   4.730   1.986   4.759  0.5086  0.5503  1.7362
 1070SOL     hw 4279   4.702   2.103   4.667 -1.8570  0.3798  2.1852
 1070SOL     vw 4280   4.758   2.054   4.711 -0.6173  0.1682  0.4678
 1071SOL     ow 4281   5.462   5.386   4.585  0.5741  0.3876  0.0660
 1071SOL     hw 4282   5.484   5.340   4.665  0.9566  1.9247  0.8900
 1071SOL     hw 4283   5.473   5.479   4.607 -1.2317  0.9451 -1.1854
 1071SOL     vw 4284   5.466   5.392   4.598  0.3860  0.6640  0.0098
 1072SOL     ow 4285   2.206   0.087   2.695  0.3241  0.1634  0.3039
 1072SOL     hw 4286   2.157   0.027   2.639  0.1733 -0.2175  0.8367
 1072SOL     hw 4287   2.159   0.085   2.778 -2.0247  3.9099 -0.6959
 1072SOL     vw 4288   2.194   0.079   2.698 -0.0057  0.6075  0.2424
 1073SOL     ow 4289   6.647   4.431   1.514 -0.0150 -0.3483 -0.4391
 1073SOL     hw 4290   6.700   4.379   1.453 -0.2025 -0.6214 -0.3703
 1073SOL     hw 4291   6.628   4.371   1.586 -1.4986 -0.6614 -1.0544
 1073SOL     vw 4292   6.652   4.416   1.516 -0.2353 -0.4258 -0.5112
 1074SOL     ow 4293   1.564   2.237   4.181 -0.0918 -0.1981  0.1418
 1074SOL     hw 4294   1.501   2.244   4.109 -0.3332  0.0968  0.3808
 1074SOL     hw 4295   1.585   2.328   4.203  0.7545 -0.2953 -0.2282
 1074SOL     vw 4296   1.559   2.250   4.174 -0.0119 -0.1720  0.1249
 1075SOL     ow 4297   1.434   5.763   4.067 -0.2544  0.7020  0.1721
 1075SOL     hw 4298   1.516   5.797   4.102 -0.2806  0.9543 -0.0056
 1075SOL     hw 4299   1.460   5.698   4.003 -0.1297  2.1214 -1.2851
 1075SOL     vw 4300   1.448   5.759   4.063 -0.2414  0.9229 -0.0434
 1076SOL     ow 4301   2.848   5.779   4.605 -0.1514 -0.1080 -0.3390
 1076SOL     hw 4302   2.820   5.847   4.667  0.1032  0.9348 -1.3414
 1076SOL     hw 4303   2.878   5.708   4.661 -1.7650  0.0081  0.7564
 1076SOL     vw 4304   2.848   5.779   4.621 -0.3307  0.0448 -0.3266
 1077SOL     ow 4305   1.064   3.097   6.353 -0.2605  0.2651  0.4766
 1077SOL     hw 4306   1.106   3.140   6.428 -0.2689 -0.5384  0.9587
 1077SOL     hw 4307   1.006   3.163   6.316 -1.6026  0.1494  2.2581
 1077SOL     vw 4308   1.062   3.111   6.358 -0.4387  0.1439  0.7751
 1078SOL     ow 4309   6.599   3.666   4.638 -0.1188 -0.2718 -0.6745
 1078SOL     hw 4310   6.525   3.681   4.580 -0.1848 -0.3556 -0.6102
 1078SOL     hw 4311   6.643   3.751   4.642 -1.6997  0.5238  1.3992
 1078SOL     vw 4312   6.595   3.680   4.631 -0.3362 -0.1779 -0.3924
 1079SOL     ow 4313   0.164   0.788   2.114 -1.1838 -0.2675 -0.2041
 1079SOL     hw 4314   0.202   0.793   2.202 -1.0266 -1.3379 -0.1930
 1079SOL     hw 4315   0.176   0.875   2.077 -0.2065 -0.1342  0.4079
 1079SOL     vw 4316   0.170   0.800   2.121 -1.0341 -0.3911 -0.1220
 1080SOL     ow 4317   0.280   1.829   5.737 -0.0265  0.0922 -0.2016
 1080SOL     hw 4318   0.233   1.757   5.695  1.0091 -0.5315 -0.3121
 1080SOL     hw 4319   0.283   1.899   5.671 -0.2178 -0.1076 -0.4217
 1080SOL     vw 4320   0.274   1.829   5.723  0.0849 -0.0164 -0.2453
 1081poe    c31 4321   2.974   1.166   4.882  0.4548 -0.3454 -0.4501
 1081poe     o2 4322   2.857   1.099   4.840 -0.1082  0.2105  0.2046
 1081poe    c23 4323   2.753   1.126   4.931 -0.2471  0.1598  0.0626
 1081poe    c23 4324   2.642   1.021   4.910 -0.1195  0.0626 -0.1298
 1081poe     o2 4325   2.686   0.888   4.899  0.3658  0.2074  0.0064
 1081poe    c23 4326   2.664   0.813   5.016 -0.3216 -0.4108 -0.5084
 1081poe    c23 4327   2.670   0.662   4.985  0.2724 -0.5663  0.3131
 1081poe     o2 4328   2.806   0.626   4.974  0.5026  0.3585  0.0165
 1081poe    c23 4329   2.818   0.497   4.917 -0.2470  0.0651  0.5155
 1081poe    c23 4330   2.806   0.483   4.765  0.3018 -0.0113  0.4789
 1081poe     o2 4331   2.923   0.532   4.702 -0.2568  0.6190 -0.0830
 1081poe    c31 4332   2.954   0.466   4.581  0.6878 -0.3715  0.6828
 1082poe    c31 4333   5.404   5.222   1.746  0.2347 -0.1109 -0.3734
 1082poe     o2 4334   5.425   5.207   1.884 -0.2886  0.5548 -0.2170
 1082poe    c23 4335   5.511   5.098   1.906 -0.5760  0.4469  0.4195
 1082poe    c23 4336   5.589   5.130   2.034 -0.1754 -0.0811  0.3129
 1082poe     o2 4337   5.489   5.195   2.110 -0.5887 -0.2473 -0.0861
 1082poe    c23 4338   5.551   5.254   2.223  0.1719 -0.6424 -0.2854
 1082poe    c23 4339   5.446   5.318   2.316  0.2711 -0.1538 -0.5065
 1082poe     o2 4340   5.367   5.401   2.234  0.1536  0.5244  0.2812
 1082poe    c23 4341   5.308   5.501   2.315 -0.6527 -0.2702  0.6941
 1082poe    c23 4342   5.173   5.538   2.250 -0.2581 -0.4545 -0.2500
 1082poe     o2 4343   5.175   5.570   2.113 -0.2891 -0.7271 -0.3145
 1082poe    c31 4344   5.049   5.610   2.066  0.2020  1.1213 -0.1284
 1083poe    c31 4345   1.564   0.910   0.871 -0.1269  0.1871 -0.3218
 1083poe     o2 4346   1.628   0.914   0.997  0.0794  0.4890 -0.4356
 1083poe    c23 4347   1.582   1.017   1.080  0.3949  0.3123 -0.0365
 1083poe    c23 4348   1.652   1.002   1.216  0.3523 -0.0259 -0.0526
 1083poe     o2 4349   1.660   0.865   1.250  0.3476  0.0824  0.3843
 1083poe    c23 4350   1.733   0.846   1.370 -0.3394 -0.3399  0.7456
 1083poe    c23 4351   1.764   0.696   1.383 -0.0728 -0.3870 -0.3292
 1083poe     o2 4352   1.837   0.642   1.275  0.0706 -0.2027 -0.3254
 1083poe    c23 4353   1.923   0.534   1.303  0.0953 -0.0972  0.0006
 1083poe    c23 4354   1.976   0.471   1.173 -0.4232 -0.0513 -0.2335
 1083poe     o2 4355   1.865   0.456   1.088 -0.7323  0.2135  0.1161
 1083poe    c31 4356   1.899   0.390   0.968 -0.1465  0.2039  0.2862
 1084poe    c31 4357   6.194   0.914   0.913 -0.3571  0.2192  0.6417
 1084poe     o2 4358   6.070   0.941   0.851  0.0868 -0.0922 -0.4221
 1084poe    c23 4359   6.094   0.953   0.713  0.3622 -0.0249 -0.3688
 1084poe    c23 4360   5.977   0.975   0.615  0.0641  0.8050  0.1640
 1084poe     o2 4361   5.885   0.869   0.630  0.1399  0.6718 -0.2923
 1084poe    c23 4362   5.790   0.880   0.526  0.3138 -0.1991 -0.5546
 1084poe    c23 4363   5.658   0.806   0.553  0.1492  0.3509  0.2034
 1084poe     o2 4364   5.686   0.696   0.638 -0.0045 -0.1010 -0.3245
 1084poe    c23 4365   5.598   0.586   0.641 -0.0387 -0.0616  0.2692
 1084poe    c23 4366   5.675   0.459   0.684 -0.4687 -0.3031  0.3252
 1084poe     o2 4367   5.756   0.494   0.794 -0.5464  0.0813  0.2632
 1084poe    c31 4368   5.797   0.384   0.873  0.2669 -0.0506 -0.3318
 1085poe    c31 4369   5.128   3.976   1.461  0.0933 -0.2261  0.4031
 1085poe     o2 4370   5.176   3.874   1.547  0.2574 -0.5796 -0.1037
 1085poe    c23 4371   5.085   3.824   1.642 -0.0129  0.7117  0.3495
 1085poe    c23 4372   5.146   3.729   1.747  0.1132  0.6236  0.1980
 1085poe     o2 4373   5.215   3.641   1.661 -0.4699 -0.2543  0.6108
 1085poe    c23 4374   5.291   3.547   1.734  0.6456  0.1352 -0.0205
 1085poe    c23 4375   5.353   3.469   1.617  0.0743 -0.1957 -0.1060
 1085poe     o2 4376   5.379   3.563   1.516 -0.7384 -0.0602 -0.1897
 1085poe    c23 4377   5.416   3.500   1.396 -0.4477  0.0780 -0.1720
 1085poe    c23 4378   5.414   3.621   1.301  0.1815  0.1624 -0.0845
 1085poe     o2 4379   5.297   3.694   1.329 -0.3781 -0.8348  0.2185
 1085poe    c31 4380   5.202   3.690   1.225 -0.4087  0.5370  0.1728
 1086poe    c31 4381   6.229   4.194   6.807  0.4022  0.2995 -0.7557
 1086poe     o2 4382   6.119   4.125   6.753  0.4555 -0.1563 -0.2870
 1086poe    c23 4383   6.016   4.122   6.850  0.2609 -0.5243 -0.5021
 1086poe    c23 4384   5.912   4.016   6.810  0.2438 -0.5914 -0.2779
 1086poe     o2 4385   5.852   4.035   6.684 -0.1220  0.6073  0.0732
 1086poe    c23 4386   5.740   3.949   6.683  0.4004 -0.0710  0.0958
 1086poe    c23 4387   5.708   3.922   6.535 -0.0022 -0.1319  0.1940
 1086poe     o2 4388   5.818   3.864   6.469  0.2152  0.7367 -0.2250
 1086poe    c23 4389   5.775   3.804   6.349  0.2058 -1.0796  0.6540
 1086poe    c23 4390   5.903   3.777   6.266  0.1481 -0.1142  0.2432
 1086poe     o2 4391   5.990   3.884   6.294  0.2368 -0.1737  0.1915
 1086poe    c31 4392   6.112   3.890   6.223  0.2116  0.4953  0.2010
 1087poe    c31 4393   2.972   0.882   5.341  0.3419 -0.1360  0.0510
 1087poe     o2 4394   2.929   0.936   5.463  0.3292  0.3257 -0.1560
 1087poe    c23 4395   2.968   1.071   5.476  0.1579  0.3371  0.2742
 1087poe    c23 4396   2.897   1.143   5.592 -0.2130  0.3785  0.0247
 1087poe     o2 4397   2.917   1.047   5.693  0.5749  0.0307 -0.4528
 1087poe    c23 4398   2.911   1.104   5.821 -0.5742  0.2111 -0.5695
 1087poe    c23 4399   2.901   0.995   5.929 -0.4942  0.6843 -0.0764
 1087poe     o2 4400   2.791   0.908   5.919  0.0598  0.0215 -0.4945
 1087poe    c23 4401   2.801   0.814   6.024 -0.9523  0.0376 -0.3701
 1087poe    c23 4402   2.805   0.663   5.992  0.3426 -0.1696  0.6919
 1087poe     o2 4403   2.933   0.626   5.947 -0.1213  0.1552 -0.9463
 1087poe    c31 4404   2.968   0.506   6.012  0.0066  1.0302  0.6478
 1088poe    c31 4405   5.859   2.276   4.121 -0.4683  0.2205 -0.7207
 1088poe     o2 4406   5.730   2.310   4.167 -0.1468  0.3425  0.0966
 1088poe    c23 4407   5.672   2.194   4.224  0.0572  0.3865  0.3973
 1088poe    c23 4408   5.568   2.227   4.332 -0.5045 -0.0995  0.0062
 1088poe     o2 4409   5.498   2.345   4.300 -0.1082  0.0877 -0.1657
 1088poe    c23 4410   5.365   2.314   4.266  0.0345 -0.3857 -0.2941
 1088poe    c23 4411   5.316   2.447   4.207  0.1015 -0.1217  0.2445
 1088poe     o2 4412   5.373   2.548   4.287 -0.2837 -0.0603  0.4435
 1088poe    c23 4413   5.317   2.676   4.263 -0.4624 -0.1153  0.5673
 1088poe    c23 4414   5.382   2.785   4.350 -0.2153  0.0349  0.1979
 1088poe     o2 4415   5.516   2.751   4.379 -0.4146 -0.5583  0.4379
 1088poe    c31 4416   5.600   2.830   4.459 -0.2747  0.3878 -0.6238
 1089poe    c31 4417   2.203   2.875   3.025  0.3611 -0.1697 -0.0611
 1089poe     o2 4418   2.279   2.784   3.101  0.8214  0.0063 -0.3042
 1089poe    c23 4419   2.284   2.650   3.057  0.6295 -0.1659  0.1864
 1089poe    c23 4420   2.325   2.575   3.185  0.3562  0.5219  0.6860
 1089poe     o2 4421   2.422   2.652   3.252  1.0067  0.4112 -0.1055
 1089poe    c23 4422   2.438   2.586   3.376  0.4808  0.3397 -0.0726
 1089poe    c23 4423   2.558   2.652   3.446  0.4204  0.4835 -0.1057
 1089poe     o2 4424   2.532   2.790   3.464  0.2893  0.4722 -0.2086
 1089poe    c23 4425   2.649   2.851   3.513  0.2284  0.0314  0.4906
 1089poe    c23 4426   2.626   2.996   3.561 -0.2663  0.2133 -0.2782
 1089poe     o2 4427   2.555   3.010   3.682 -0.1570  0.1285 -0.2044
 1089poe    c31 4428   2.554   3.142   3.731  0.4904  0.1733 -0.3087
 1090poe    c31 4429   1.100   3.549   1.200  0.3752 -0.0291  0.0916
 1090poe     o2 4430   0.977   3.610   1.166  0.4003  0.1962  0.4025
 1090poe    c23 4431   0.882   3.506   1.163  0.1919  0.3827  0.4977
 1090poe    c23 4432   0.738   3.559   1.151  0.1767  0.2988  0.3109
 1090poe     o2 4433   0.714   3.650   1.046  0.5846  0.1061  0.0482
 1090poe    c23 4434   0.707   3.583   0.922 -0.2208  0.1458  0.0659
 1090poe    c23 4435   0.681   3.678   0.803 -0.1885 -0.2044 -0.2235
 1090poe     o2 4436   0.768   3.789   0.807 -0.3727 -0.0689 -0.0020
 1090poe    c23 4437   0.742   3.846   0.681 -0.4133  0.4400  0.2326
 1090poe    c23 4438   0.811   3.982   0.661  0.1288  0.1236 -0.0591
 1090poe     o2 4439   0.784   4.071   0.767 -0.2290  0.2016 -0.2152
 1090poe    c31 4440   0.672   4.150   0.734 -0.1624  0.3475 -0.0928
 1091poe    c31 4441   0.881   5.234   6.600 -0.5184  0.1219 -0.3709
 1091poe     o2 4442   0.979   5.265   6.503  0.1725 -0.0659  0.2611
 1091poe    c23 4443   0.938   5.223   6.375  0.2673  0.4772  0.0487
 1091poe    c23 4444   1.044   5.257   6.269  0.3833 -0.1595 -0.0460
 1091poe     o2 4445   1.054   5.398   6.268 -0.1523 -0.1223 -0.1643
 1091poe    c23 4446   1.146   5.436   6.168 -0.0728 -0.0086 -0.0482
 1091poe    c23 4447   1.196   5.581   6.182  0.3603 -0.1511 -0.1150
 1091poe     o2 4448   1.202   5.607   6.321 -0.1251  0.0295 -0.1261
 1091poe    c23 4449   1.266   5.728   6.353 -0.3699  0.1800 -0.2012
 1091poe    c23 4450   1.356   5.729   6.478  0.0535 -0.2610 -0.4999
 1091poe     o2 4451   1.295   5.660   6.585 -0.4409  0.9286  0.0117
 1091poe    c31 4452   1.386   5.653   6.692 -0.5766 -0.3731  0.0586
 1092poe    c31 4453   5.049   0.083   5.334  0.5672 -0.0359  0.2804
 1092poe     o2 4454   5.144   0.082   5.230 -0.1102  0.1521 -0.3396
 1092poe    c23 4455   5.197   0.212   5.213  0.2334  0.0701  0.1233
 1092poe    c23 4456   5.248   0.229   5.069  0.0636  0.2579  0.0852
 1092poe     o2 4457   5.353   0.140   5.037 -0.0563  0.0600  0.2371
 1092poe    c23 4458   5.384   0.140   4.899 -0.9697 -0.1892  0.0275
 1092poe    c23 4459   5.480   0.021   4.885 -0.4288  0.2083  0.3109
 1092poe     o2 4460   5.421  -0.086   4.955 -0.2124 -0.3928 -0.4054
 1092poe    c23 4461   5.524  -0.180   4.972 -0.5556 -0.6018  0.6106
 1092poe    c23 4462   5.467  -0.321   4.991 -0.4618 -0.6968  0.1901
 1092poe     o2 4463   5.413  -0.336   5.120 -0.3698 -0.0206  0.3116
 1092poe    c31 4464   5.359  -0.467   5.124  0.4274 -0.3619  0.2056
 1093poe    c31 4465   4.956   3.582   6.222 -0.0306  0.1964  0.3967
 1093poe     o2 4466   4.839   3.517   6.176  0.1870 -0.4058  0.6863
 1093poe    c23 4467   4.787   3.424   6.269 -0.4110  0.3811  1.1446
 1093poe    c23 4468   4.654   3.371   6.213 -0.0353  0.5658  0.0462
 1093poe     o2 4469   4.668   3.342   6.076 -0.1328  0.3297  0.0860
 1093poe    c23 4470   4.565   3.257   6.029  0.2076  0.0211 -0.1117
 1093poe    c23 4471   4.591   3.196   5.890  0.2192  0.8511 -0.4854
 1093poe     o2 4472   4.695   3.274   5.835  0.6239  0.0274 -0.9108
 1093poe    c23 4473   4.733   3.229   5.708  0.4823 -0.7563 -0.6852
 1093poe    c23 4474   4.835   3.330   5.652 -0.2895  0.4836  0.1103
 1093poe     o2 4475   4.963   3.324   5.711 -0.1442 -0.5252 -0.2845
 1093poe    c31 4476   5.053   3.408   5.643  0.3953 -0.6496  0.2660
 1094poe    c31 4477   5.787   1.542   0.653 -0.5331  0.6918  0.3068
 1094poe     o2 4478   5.855   1.629   0.565  0.1318 -0.3905 -0.2878
 1094poe    c23 4479   5.987   1.589   0.540  0.3759 -0.2690  0.7344
 1094poe    c23 4480   6.063   1.695   0.457 -0.1303 -0.5568 -0.1116
 1094poe     o2 4481   6.010   1.818   0.503  0.9784 -0.1118  0.0049
 1094poe    c23 4482   6.045   1.929   0.423  0.4146 -0.0049 -0.0952
 1094poe    c23 4483   5.966   2.054   0.465 -0.0911 -0.3737  0.0708
 1094poe     o2 4484   5.835   2.018   0.502 -0.2016 -0.0017  0.0411
 1094poe    c23 4485   5.744   2.126   0.512 -0.4233 -0.2318  0.5300
 1094poe    c23 4486   5.755   2.195   0.649  0.6557  0.2261  0.2288
 1094poe     o2 4487   5.747   2.113   0.764 -0.3525  0.5964  0.4305
 1094poe    c31 4488   5.757   2.181   0.887 -0.2137 -0.3780  0.9666
 1095poe    c31 4489   5.323   0.472   5.428  0.3763  0.0117 -0.2705
 1095poe     o2 4490   5.408   0.529   5.524  0.6187  0.0022 -0.4789
 1095poe    c23 4491   5.480   0.442   5.609 -0.2298 -0.4247 -0.1841
 1095poe    c23 4492   5.482   0.491   5.755 -0.9471  0.4158 -0.4435
 1095poe     o2 4493   5.561   0.607   5.756 -0.2714 -0.0389 -0.2374
 1095poe    c23 4494   5.625   0.624   5.881 -0.2454  0.2559 -0.2907
 1095poe    c23 4495   5.683   0.766   5.897  0.6720 -0.1495  0.0224
 1095poe     o2 4496   5.588   0.854   5.841  0.5455  0.2763  0.8865
 1095poe    c23 4497   5.653   0.962   5.779 -0.1345  0.0863 -0.2041
 1095poe    c23 4498   5.543   1.069   5.763 -0.2521 -0.0349 -0.2061
 1095poe     o2 4499   5.433   1.000   5.709 -0.1804 -0.3974  0.1033
 1095poe    c31 4500   5.312   1.073   5.708 -0.1258 -0.3042  0.2570
 1096poe    c31 4501   4.387   0.483   4.675 -0.3312 -0.0231 -0.2934
 1096poe     o2 4502   4.255   0.511   4.717 -0.1736  0.1215  0.1092
 1096poe    c23 4503   4.196   0.399   4.777 -0.4004  0.3106  0.2402
 1096poe    c23 4504   4.053   0.361   4.732 -0.4202  0.2340  0.3647
 1096poe     o2 4505   3.957   0.447   4.790 -0.3055  0.2639  0.5128
 1096poe    c23 4506   3.828   0.402   4.753  0.0968 -0.5764  0.1039
 1096poe    c23 4507   3.734   0.517   4.794  0.4535 -0.0589 -0.5030
 1096poe     o2 4508   3.761   0.629   4.712 -0.1912 -0.0297 -0.6810
 1096poe    c23 4509   3.706   0.744   4.772  0.3895 -0.2853  0.3758
 1096poe    c23 4510   3.709   0.866   4.679  0.1251 -0.0667  0.6513
 1096poe     o2 4511   3.834   0.857   4.615 -0.3717 -0.2584 -0.3212
 1096poe    c31 4512   3.826   0.944   4.505 -0.2009  0.4915  0.2510
 1097poe    c31 4513   6.576   0.319   0.759  0.0708 -0.0760 -0.5063
 1097poe     o2 4514   6.688   0.404   0.769 -0.0787  0.0675 -0.0399
 1097poe    c23 4515   6.813   0.358   0.723 -0.1784 -0.6184  0.3683
 1097poe    c23 4516   6.905   0.481   0.726 -0.2556 -0.5604  0.3659
 1097poe     o2 4517   6.908   0.532   0.857  0.3621 -0.2098  0.2197
 1097poe    c23 4518   7.030   0.595   0.893  0.5944 -0.4410 -0.1563
 1097poe    c23 4519   7.039   0.648   1.037 -0.0780 -0.5143 -0.0830
 1097poe     o2 4520   6.928   0.733   1.056 -0.2733 -0.8510  0.2872
 1097poe    c23 4521   6.920   0.783   1.188 -0.4062  0.1499 -0.0931
 1097poe    c23 4522   6.797   0.874   1.178 -0.5539  0.0575  0.8400
 1097poe     o2 4523   6.694   0.812   1.105 -0.1025  0.2437  0.0439
 1097poe    c31 4524   6.574   0.885   1.106  0.0145  0.4345  0.4302
 1098poe    c31 4525   6.404   6.343   5.405 -0.1069 -0.3192 -0.5210
 1098poe     o2 4526   6.464   6.326   5.279  0.1017  0.1994 -0.4917
 1098poe    c23 4527   6.558   6.430   5.256 -0.0241  0.3721 -0.2282
 1098poe    c23 4528   6.557   6.461   5.105  0.0669  0.0187 -0.3037
 1098poe     o2 4529   6.589   6.355   5.019  0.1872  0.0447 -0.2915
 1098poe    c23 4530   6.537   6.373   4.889  0.0488 -0.2261 -0.2759
 1098poe    c23 4531   6.630   6.301   4.790  0.1599  0.0498 -0.3758
 1098poe     o2 4532   6.638   6.173   4.850 -0.5838  0.1099 -0.1352
 1098poe    c23 4533   6.698   6.075   4.769  0.1735  0.1176  0.4022
 1098poe    c23 4534   6.700   5.947   4.856  0.0983 -0.3143 -0.2251
 1098poe     o2 4535   6.741   5.989   4.984 -0.2818 -0.1210 -0.1633
 1098poe    c31 4536   6.771   5.878   5.066 -0.1022 -0.0203 -0.0920
 1099poe    c31 4537   6.647   6.022   1.457  0.1214 -0.4030 -0.0354
 1099poe     o2 4538   6.663   6.160   1.478  0.1158 -0.4304  0.1467
 1099poe    c23 4539   6.536   6.218   1.459  0.1833 -0.2676  0.1896
 1099poe    c23 4540   6.555   6.370   1.481 -0.5179 -0.0838 -0.4256
 1099poe     o2 4541   6.662   6.400   1.569 -0.8863 -0.6039  0.2074
 1099poe    c23 4542   6.647   6.530   1.620 -0.1979 -0.6811  0.6147
 1099poe    c23 4543   6.743   6.554   1.738  0.0418  0.0147  0.2908
 1099poe     o2 4544   6.863   6.488   1.704 -0.0617  0.0917 -0.2240
 1099poe    c23 4545   6.957   6.507   1.807 -0.2004  0.0782 -0.0942
 1099poe    c23 4546   7.105   6.478   1.773 -0.2383  0.3095 -0.4696
 1099poe     o2 4547   7.122   6.350   1.716 -0.5012 -0.1903  0.5315
 1099poe    c31 4548   7.258   6.324   1.689 -0.3262  0.9454  0.2623
 1100poe    c31 4549   4.385   3.374   0.342 -0.2231  0.2341  0.2393
 1100poe     o2 4550   4.357   3.289   0.233  0.1622  0.0476  0.2841
 1100poe    c23 4551   4.313   3.373   0.129 -0.1631 -0.1100  0.2913
 1100poe    c23 4552   4.294   3.293  -0.002  0.3174  0.0265  0.1346
 1100poe     o2 4553   4.406   3.223  -0.051  0.0696 -0.0578 -0.3200
 1100poe    c23 4554   4.414   3.255  -0.188 -0.6097  0.3034 -0.2781
 1100poe    c23 4555   4.549   3.206  -0.244 -0.2409  0.1757  0.7089
 1100poe     o2 4556   4.591   3.096  -0.165 -0.4847 -0.1857  0.3401
 1100poe    c23 4557   4.710   3.033  -0.208 -0.5413  0.0942 -0.2559
 1100poe    c23 4558   4.714   2.891  -0.148 -0.0011  0.1305 -0.2053
 1100poe     o2 4559   4.676   2.910  -0.013  0.0689 -0.1970 -0.1374
 1100poe    c31 4560   4.747   2.818   0.067  0.6406  0.6480  0.3374
 1101poe    c31 4561   5.211   2.845   6.164 -0.3399 -0.2076  0.5540
 1101poe     o2 4562   5.100   2.759   6.151 -0.3796 -0.0533 -0.1735
 1101poe    c23 4563   4.985   2.839   6.145 -0.3134  0.1158  0.6769
 1101poe    c23 4564   4.861   2.775   6.080  0.4298 -0.1972 -0.4590
 1101poe     o2 4565   4.824   2.654   6.142  0.2295  0.0769 -0.0428
 1101poe    c23 4566   4.696   2.604   6.108  0.1087  0.2080  0.2131
 1101poe    c23 4567   4.691   2.455   6.145  0.0166  0.1202 -0.1450
 1101poe     o2 4568   4.726   2.444   6.282  0.0282 -0.3003 -0.1787
 1101poe    c23 4569   4.737   2.305   6.304  0.3414 -0.1642  0.5318
 1101poe    c23 4570   4.828   2.269   6.423  0.0459 -0.6395  0.6152
 1101poe     o2 4571   4.946   2.343   6.401 -0.5188  0.1198  0.0750
 1101poe    c31 4572   5.027   2.333   6.516  0.5275  0.9327 -0.5713
 1102poe    c31 4573   6.260   2.474   5.900  0.0418 -0.2493 -0.4530
 1102poe     o2 4574   6.207   2.378   5.989  0.2374 -0.0776 -0.1507
 1102poe    c23 4575   6.302   2.321   6.077 -0.1273  0.1727  0.4125
 1102poe    c23 4576   6.284   2.168   6.073  0.3088  0.1086  0.8991
 1102poe     o2 4577   6.166   2.127   6.138 -0.0936 -0.4001 -0.1420
 1102poe    c23 4578   6.142   1.990   6.114  0.0717 -0.3825 -0.4142
 1102poe    c23 4579   6.042   1.942   6.221  0.0564  0.0409 -0.2365
 1102poe     o2 4580   5.933   2.031   6.225  0.1585  0.1681 -0.2650
 1102poe    c23 4581   5.838   1.974   6.313  0.3047  0.0586 -0.1776
 1102poe    c23 4582   5.753   2.100   6.337  0.1577 -0.2107  0.7402
 1102poe     o2 4583   5.844   2.206   6.357  0.0441  0.3051 -1.2314
 1102poe    c31 4584   5.777   2.327   6.385  0.4562  0.3586 -0.4363
 1103poe    c31 4585   5.802   6.166   6.881 -0.3983 -0.1105  0.3636
 1103poe     o2 4586   5.826   6.027   6.872 -0.3614 -0.0863  0.0944
 1103poe    c23 4587   5.708   5.966   6.918 -0.0214 -0.3841  0.5843
 1103poe    c23 4588   5.730   5.814   6.905 -0.5959 -0.4262  0.0323
 1103poe     o2 4589   5.854   5.785   6.965 -0.8427 -0.4848  0.5170
 1103poe    c23 4590   5.873   5.646   6.971  0.2203 -0.3954 -0.5416
 1103poe    c23 4591   6.013   5.626   7.033 -0.0617  0.5110  0.4041
 1103poe     o2 4592   6.100   5.711   6.960 -0.2932  0.2050 -0.2356
 1103poe    c23 4593   6.234   5.681   6.992 -0.3651  0.3926  0.2529
 1103poe    c23 4594   6.350   5.755   6.922  0.0718 -0.0944  0.4554
 1103poe     o2 4595   6.335   5.893   6.949  0.3034 -0.0113  0.1623
 1103poe    c31 4596   6.462   5.952   6.957  0.4971 -0.3596 -0.3007
 1104poe    c31 4597   4.742   4.445   5.586 -0.4511 -0.0905 -0.1186
 1104poe     o2 4598   4.632   4.373   5.535 -0.5046  0.0588 -0.2152
 1104poe    c23 4599   4.526   4.370   5.628 -0.3662  0.0416 -0.0594
 1104poe    c23 4600   4.396   4.295   5.595 -0.4374 -0.0707  0.4728
 1104poe     o2 4601   4.320   4.362   5.497 -0.1071  0.6064  0.6688
 1104poe    c23 4602   4.334   4.316   5.364  0.2505  0.4417  0.7615
 1104poe    c23 4603   4.251   4.393   5.259 -0.0383 -0.1057  0.5865
 1104poe     o2 4604   4.115   4.360   5.277 -0.3033  0.9642  0.5977
 1104poe    c23 4605   4.020   4.406   5.183 -0.2446  0.4938  0.3033
 1104poe    c23 4606   4.027   4.330   5.049  0.4219 -0.1348  0.6843
 1104poe     o2 4607   3.955   4.210   5.061  0.3107 -0.1616 -0.1869
 1104poe    c31 4608   3.865   4.198   4.953 -0.1094  0.0726  0.1291
 1105poe    c31 4609   5.781   3.183   2.999  0.2590  0.7564  0.0534
 1105poe     o2 4610   5.764   3.274   2.893 -0.1442  0.0253 -0.5145
 1105poe    c23 4611   5.629   3.293   2.861 -0.1390  0.3267 -0.3564
 1105poe    c23 4612   5.612   3.404   2.754  0.2431  0.7716  0.0408
 1105poe     o2 4613   5.645   3.349   2.629 -1.2932 -0.4000  0.1124
 1105poe    c23 4614   5.559   3.396   2.527 -0.6503  0.5678  0.0047
 1105poe    c23 4615   5.588   3.348   2.383 -0.0631  0.1790  0.2466
 1105poe     o2 4616   5.714   3.381   2.328 -0.0686  0.4490  0.3915
 1105poe    c23 4617   5.776   3.281   2.250 -0.1390  0.6494  0.0775
 1105poe    c23 4618   5.924   3.312   2.224 -0.2157  0.5154 -0.5329
 1105poe     o2 4619   5.999   3.317   2.343 -0.1786  0.0455 -0.5341
 1105poe    c31 4620   6.113   3.397   2.319  0.0940 -0.3326 -0.5183
 1106poe    c31 4621   5.981   5.261   5.251  0.6246  0.1872 -0.3297
 1106poe     o2 4622   5.908   5.375   5.292 -0.2355 -0.5845  0.3262
 1106poe    c23 4623   5.959   5.437   5.408 -0.0460  0.1887 -0.1639
 1106poe    c23 4624   5.857   5.538   5.463  0.1508  0.2023  0.1808
 1106poe     o2 4625   5.745   5.488   5.534  0.2134  0.1772  0.2617
 1106poe    c23 4626   5.675   5.592   5.598  0.1322  0.5423 -0.4022
 1106poe    c23 4627   5.564   5.551   5.697  0.7386 -0.4838 -0.1294
 1106poe     o2 4628   5.480   5.456   5.637 -0.3932 -0.0012  0.6585
 1106poe    c23 4629   5.425   5.365   5.730 -0.5213 -0.3431  0.2539
 1106poe    c23 4630   5.359   5.252   5.649  0.1878 -0.6461  0.0873
 1106poe     o2 4631   5.450   5.222   5.546  1.1803 -0.1890  0.8138
 1106poe    c31 4632   5.439   5.086   5.508 -0.0445 -0.0347  0.5707
 1107poe    c31 4633   6.251   6.743   3.356  0.0218 -0.0460  0.1726
 1107poe     o2 4634   6.178   6.819   3.263 -0.0397  0.2947  0.5019
 1107poe    c23 4635   6.043   6.827   3.303 -0.1945 -0.4317  0.1453
 1107poe    c23 4636   5.977   6.927   3.206 -0.8010 -0.6992  0.2799
 1107poe     o2 4637   6.029   6.892   3.079  0.1098  0.5053  0.3076
 1107poe    c23 4638   5.982   6.973   2.973 -0.2010 -0.0860 -0.0098
 1107poe    c23 4639   6.042   6.911   2.846 -0.0754 -0.4871  0.2409
 1107poe     o2 4640   6.182   6.909   2.863 -0.0335 -0.6724 -0.1139
 1107poe    c23 4641   6.250   6.849   2.755 -0.0042 -0.1103 -0.4135
 1107poe    c23 4642   6.346   6.956   2.700 -0.1097  0.2860  0.1656
 1107poe     o2 4643   6.443   6.996   2.794 -0.1644 -0.0474  0.3660
 1107poe    c31 4644   6.489   7.125   2.762  0.1573 -0.3112 -0.2534
 1108poe    c31 4645   6.215   3.342   1.588  0.4980 -0.2276 -0.6001
 1108poe     o2 4646   6.321   3.430   1.618 -0.2866  0.4793  0.1432
 1108poe    c23 4647   6.294   3.561   1.573  0.1023  0.4908 -0.0611
 1108poe    c23 4648   6.395   3.659   1.635  0.3322  0.2603 -0.0688
 1108poe     o2 4649   6.524   3.608   1.611  0.1538 -0.2482  0.0407
 1108poe    c23 4650   6.614   3.712   1.580  0.0177 -0.3978 -0.8926
 1108poe    c23 4651   6.733   3.645   1.507  0.3016 -0.3156 -0.5060
 1108poe     o2 4652   6.796   3.553   1.593 -0.3615 -0.4155 -0.1164
 1108poe    c23 4653   6.896   3.474   1.533  0.2705  0.0252  0.3318
 1108poe    c23 4654   6.958   3.411   1.659  0.2025  0.4178  0.5616
 1108poe     o2 4655   6.844   3.368   1.730  0.0124  0.0137  0.0135
 1108poe    c31 4656   6.863   3.262   1.820  0.5441 -0.0481 -0.1671
 1109poe    c31 4657   3.070   0.647   6.856 -0.2303  0.4146  0.5124
 1109poe     o2 4658   3.080   0.547   6.955  0.2220 -0.1603 -0.1074
 1109poe    c23 4659   3.027   0.578   7.082 -0.1007 -0.1944 -0.2357
 1109poe    c23 4660   3.032   0.451   7.167  0.3711 -0.1433 -0.1853
 1109poe     o2 4661   2.950   0.348   7.117  0.8057 -0.3871 -0.4001
 1109poe    c23 4662   2.975   0.231   7.192 -0.1113  0.2303  0.9112
 1109poe    c23 4663   2.890   0.114   7.137 -0.1626  0.5041  0.4044
 1109poe     o2 4664   2.864   0.113   6.998 -0.3008 -0.1111  0.4330
 1109poe    c23 4665   2.795  -0.005   6.963 -0.0943 -0.3312  0.7637
 1109poe    c23 4666   2.880  -0.052   6.842 -0.4649  0.4101  0.2113
 1109poe     o2 4667   2.895   0.069   6.771 -0.4408  0.4212  0.2358
 1109poe    c31 4668   2.961   0.046   6.649 -0.5522 -0.6874  0.3751
 1110poe    c31 4669   4.477   3.769   6.367 -0.2498 -0.5412 -0.0391
 1110poe     o2 4670   4.419   3.865   6.283  0.2247 -0.2039  0.0114
 1110poe    c23 4671   4.519   3.935   6.214  0.1995  0.0746  0.2556
 1110poe    c23 4672   4.452   4.036   6.118 -0.5120 -0.7684 -0.1470
 1110poe     o2 4673   4.358   4.097   6.203 -0.1107 -0.0658 -0.1927
 1110poe    c23 4674   4.316   4.227   6.169  0.0521  0.0643  0.1067
 1110poe    c23 4675   4.222   4.289   6.274  0.3631 -0.0908  0.4822
 1110poe     o2 4676   4.104   4.213   6.264  0.2276  0.1224  0.4564
 1110poe    c23 4677   4.004   4.256   6.354 -0.4075  0.0448 -0.1943
 1110poe    c23 4678   3.878   4.170   6.331 -0.4821 -0.0464  0.5099
 1110poe     o2 4679   3.905   4.035   6.361  0.3492 -0.0374 -0.1434
 1110poe    c31 4680   3.790   3.959   6.391  0.4809 -0.3662 -0.4740
 1111poe    c31 4681   4.823   4.247   3.729 -0.2260  0.5710 -0.2802
 1111poe     o2 4682   4.799   4.263   3.591  0.5383 -0.0485 -0.4929
 1111poe    c23 4683   4.862   4.382   3.547  0.3526 -0.0123 -0.6653
 1111poe    c23 4684   4.877   4.389   3.394 -0.0733  0.6868 -0.6776
 1111poe     o2 4685   4.978   4.313   3.331 -0.1764  0.2565 -0.3284
 1111poe    c23 4686   4.944   4.176   3.335 -0.1717  0.2508 -0.4937
 1111poe    c23 4687   5.054   4.098   3.260  0.0207  0.1172 -0.0766
 1111poe     o2 4688   5.074   4.148   3.130 -0.3084 -0.1389 -0.2270
 1111poe    c23 4689   5.175   4.086   3.054 -0.2823 -0.0939 -0.2289
 1111poe    c23 4690   5.151   4.135   2.910 -0.0077  0.1925 -0.1789
 1111poe     o2 4691   5.140   4.273   2.887 -0.1850  0.1594 -0.2954
 1111poe    c31 4692   5.080   4.284   2.760  0.1976 -0.5967 -0.5452
 1112poe    c31 4693   2.289   0.955   5.870 -0.4515 -0.5792  0.8279
 1112poe     o2 4694   2.294   1.096   5.872  0.0048 -0.5568 -0.4739
 1112poe    c23 4695   2.430   1.129   5.883 -0.1179 -0.1144 -0.2205
 1112poe    c23 4696   2.450   1.281   5.872 -0.4318 -0.0199  0.4711
 1112poe     o2 4697   2.371   1.321   5.762  0.0987 -0.1468  0.0354
 1112poe    c23 4698   2.361   1.461   5.752  0.3264 -0.1764 -0.6647
 1112poe    c23 4699   2.253   1.487   5.645 -0.3584 -0.1888  0.0086
 1112poe     o2 4700   2.136   1.423   5.691 -0.4428  0.0983  0.1942
 1112poe    c23 4701   2.020   1.484   5.640 -0.1320  0.5845  0.0517
 1112poe    c23 4702   1.899   1.388   5.648  0.3007  0.0465  0.2116
 1112poe     o2 4703   1.920   1.280   5.560  0.4491  0.1581  0.1087
 1112poe    c31 4704   1.842   1.169   5.600  0.0096  0.3270 -0.2700
 1113poe    c31 4705   2.646   2.614   4.393  0.2730 -0.3305  0.2806
 1113poe     o2 4706   2.744   2.659   4.302  0.1169 -0.0163  0.2672
 1113poe    c23 4707   2.855   2.574   4.287 -0.3295 -0.5720  0.0886
 1113poe    c23 4708   2.933   2.597   4.157 -0.2737 -0.2969  0.1697
 1113poe     o2 4709   2.968   2.732   4.139 -0.3631 -0.3248 -0.2315
 1113poe    c23 4710   2.973   2.766   4.002  0.3526 -0.2521 -0.1920
 1113poe    c23 4711   2.890   2.893   3.975  0.2927 -0.1817  0.3039
 1113poe     o2 4712   2.933   3.006   4.047  0.4218 -0.0080 -0.0422
 1113poe    c23 4713   2.834   3.105   4.054  0.0560 -0.4356  1.1008
 1113poe    c23 4714   2.900   3.228   4.119  0.1146 -0.0229  0.2799
 1113poe     o2 4715   2.959   3.199   4.244  0.3807 -0.1489  0.1260
 1113poe    c31 4716   2.958   3.321   4.313 -0.7145 -0.2842  0.3813
 1114poe    c31 4717   6.250   5.074   5.062  0.3250 -0.2746  0.2676
 1114poe     o2 4718   6.307   5.165   4.971  0.7005 -0.0683  0.7046
 1114poe    c23 4719   6.238   5.286   4.948  0.8105 -0.0891  0.2641
 1114poe    c23 4720   6.315   5.382   4.856 -0.1060  0.0499 -0.3792
 1114poe     o2 4721   6.347   5.315   4.736 -0.5799 -0.0843 -0.4307
 1114poe    c23 4722   6.419   5.406   4.656 -0.1016  0.1819  0.2985
 1114poe    c23 4723   6.461   5.354   4.518  0.2000  0.4186  0.3002
 1114poe     o2 4724   6.495   5.218   4.536  0.4787  0.4494  0.0202
 1114poe    c23 4725   6.545   5.167   4.414 -0.0003  0.4544 -0.1818
 1114poe    c23 4726   6.594   5.025   4.445  0.3053  0.5516 -0.2170
 1114poe     o2 4727   6.516   4.955   4.540  0.2868 -0.1673 -0.7520
 1114poe    c31 4728   6.586   4.838   4.574  0.4502  0.1963  0.1899
 1115poe    c31 4729   1.607   0.547   5.266  0.0587  0.1758 -0.0304
 1115poe     o2 4730   1.520   0.464   5.192 -0.1622 -0.1401  0.5797
 1115poe    c23 4731   1.436   0.385   5.274 -0.2852 -0.3071  0.2914
 1115poe    c23 4732   1.339   0.321   5.173 -0.0097  0.3340 -0.3912
 1115poe     o2 4733   1.413   0.288   5.058  0.1851  0.4710 -0.3043
 1115poe    c23 4734   1.377   0.168   4.993  0.7407  0.0088  0.2315
 1115poe    c23 4735   1.430   0.157   4.849  0.3818 -0.1640  0.1101
 1115poe     o2 4736   1.561   0.209   4.844  0.3158  0.0093  0.1545
 1115poe    c23 4737   1.610   0.237   4.715 -0.0510 -0.2500 -0.0440
 1115poe    c23 4738   1.754   0.291   4.705  0.1329 -0.7074  0.1008
 1115poe     o2 4739   1.753   0.420   4.762  0.5285 -0.5440 -0.2583
 1115poe    c31 4740   1.873   0.490   4.734  0.0846  0.4177  0.1897
 1116poe    c31 4741   6.260   5.189   2.259  0.3236 -0.4184  0.1049
 1116poe     o2 4742   6.158   5.234   2.344  0.3809 -0.2823  0.1009
 1116poe    c23 4743   6.063   5.130   2.348 -0.0853  0.1236 -0.2902
 1116poe    c23 4744   5.982   5.158   2.476 -0.2700 -0.0927 -0.3590
 1116poe     o2 4745   5.953   5.296   2.472 -0.1283 -0.0559 -0.1760
 1116poe    c23 4746   5.838   5.341   2.540 -0.2244  0.0566 -0.4109
 1116poe    c23 4747   5.817   5.492   2.517 -0.3153  0.0939 -0.0906
 1116poe     o2 4748   5.932   5.563   2.555 -0.4815  0.1119  0.3766
 1116poe    c23 4749   5.912   5.702   2.548  0.3593  0.2080 -0.2841
 1116poe    c23 4750   6.053   5.762   2.535  0.5675 -0.2049  0.0661
 1116poe     o2 4751   6.118   5.738   2.412  0.2309  0.0571 -0.1627
 1116poe    c31 4752   6.251   5.783   2.418 -0.0484  0.8749  0.0721
 1117poe    c31 4753   3.272   6.681   2.197 -0.0886 -0.5077  0.4074
 1117poe     o2 4754   3.394   6.638   2.254  0.4636 -0.3317 -0.6115
 1117poe    c23 4755   3.469   6.758   2.245  0.5257 -0.3120  0.1107
 1117poe    c23 4756   3.616   6.738   2.285  0.4585 -0.5595  0.2363
 1117poe     o2 4757   3.619   6.664   2.406  0.0064 -0.4080  0.3421
 1117poe    c23 4758   3.747   6.676   2.463 -0.0069  0.2093  0.2558
 1117poe    c23 4759   3.759   6.591   2.591  0.2608  0.5601  0.4643
 1117poe     o2 4760   3.669   6.640   2.689 -0.3391 -0.4104  0.4095
 1117poe    c23 4761   3.671   6.549   2.797  0.0156 -0.9543 -0.0491
 1117poe    c23 4762   3.543   6.551   2.883 -0.1086  0.9828 -0.2375
 1117poe     o2 4763   3.430   6.494   2.822  0.2410  0.0020  0.0035
 1117poe    c31 4764   3.331   6.459   2.916  0.5886 -0.1105  0.3268
 1118poe    c31 4765   0.525   2.382   6.284 -0.0767 -0.4850 -0.2920
 1118poe     o2 4766   0.596   2.317   6.387  0.2515  0.3030 -0.0163
 1118poe    c23 4767   0.558   2.359   6.516 -0.2504 -0.4449  0.0842
 1118poe    c23 4768   0.619   2.277   6.631 -0.3488 -0.6091  0.0194
 1118poe     o2 4769   0.747   2.241   6.583 -0.1046 -0.0017  0.2113
 1118poe    c23 4770   0.810   2.166   6.685  0.3948  0.1247 -0.0022
 1118poe    c23 4771   0.935   2.114   6.611  0.4714  0.5065 -0.1435
 1118poe     o2 4772   0.912   2.100   6.473  0.3272  0.2666 -0.0948
 1118poe    c23 4773   1.019   2.154   6.400 -0.0700  0.3867 -0.5973
 1118poe    c23 4774   0.978   2.167   6.252  0.4216  0.5000 -0.7267
 1118poe     o2 4775   0.853   2.233   6.252  0.0655 -0.1574 -0.0965
 1118poe    c31 4776   0.838   2.303   6.130 -0.5415  0.2460  0.2063
 1119poe    c31 4777   0.616   1.687   1.932  0.3103 -0.1602  0.1232
 1119poe     o2 4778   0.713   1.599   1.984  0.6968 -0.3681 -0.9121
 1119poe    c23 4779   0.650   1.474   2.004  0.6172 -0.1656  0.1656
 1119poe    c23 4780   0.659   1.377   1.886  0.4246 -0.0488  0.0552
 1119poe     o2 4781   0.776   1.298   1.885 -0.0107 -0.7050  0.2894
 1119poe    c23 4782   0.813   1.236   1.764 -0.1118 -0.2621  0.0291
 1119poe    c23 4783   0.949   1.163   1.768  0.0183 -0.0050  0.3248
 1119poe     o2 4784   1.062   1.243   1.742  0.1430 -0.1696  0.3643
 1119poe    c23 4785   1.176   1.216   1.821  0.0583 -0.3688  0.4201
 1119poe    c23 4786   1.219   1.321   1.924 -0.2639  0.6915 -0.4994
 1119poe     o2 4787   1.133   1.341   2.035 -0.4930 -0.5781 -0.4414
 1119poe    c31 4788   1.144   1.245   2.138  0.8530  0.2015  0.1605
 1120poe    c31 4789   3.197   6.885   3.107  0.2776 -0.0106  0.3044
 1120poe     o2 4790   3.311   6.967   3.115  0.1857  0.1966 -0.3734
 1120poe    c23 4791   3.429   6.890   3.100  0.2015  0.1803 -0.1756
 1120poe    c23 4792   3.552   6.978   3.129  0.2495  0.1836 -0.3885
 1120poe     o2 4793   3.571   7.066   3.021 -0.3819 -0.0326 -0.6784
 1120poe    c23 4794   3.710   7.086   3.006 -0.5110  0.9633 -0.6000
 1120poe    c23 4795   3.771   7.182   2.902 -0.0977  0.6614 -0.6383
 1120poe     o2 4796   3.789   7.120   2.776  0.2354  0.2121 -0.3725
 1120poe    c23 4797   3.672   7.126   2.698 -0.2865  0.1612  0.3931
 1120poe    c23 4798   3.606   6.991   2.663  0.3708  0.0713 -0.5277
 1120poe     o2 4799   3.486   7.009   2.590  0.2435  0.3389 -0.2529
 1120poe    c31 4800   3.415   6.888   2.577  0.1675  0.3356  0.1676
 1121poe    c31 4801   2.200   2.298   6.190  0.4058 -0.3103  0.0488
 1121poe     o2 4802   2.218   2.207   6.296 -0.3653 -0.1113  0.3589
 1121poe    c23 4803   2.317   2.266   6.377 -0.0097  0.0742 -0.2038
 1121poe    c23 4804   2.307   2.195   6.513  0.6904 -0.0116 -0.1909
 1121poe     o2 4805   2.295   2.058   6.485 -0.1111 -0.0058  0.0757
 1121poe    c23 4806   2.255   1.987   6.600 -0.5709 -0.3755 -0.3063
 1121poe    c23 4807   2.189   1.851   6.570 -0.5855 -0.5707  0.5911
 1121poe     o2 4808   2.089   1.882   6.475  0.0229 -0.4209 -0.0017
 1121poe    c23 4809   2.018   1.762   6.463 -0.1136 -0.3103 -0.3019
 1121poe    c23 4810   1.885   1.758   6.540 -0.0571  0.3010 -0.1715
 1121poe     o2 4811   1.801   1.854   6.479 -0.4653 -0.0870 -0.2245
 1121poe    c31 4812   1.683   1.877   6.553 -0.1532  0.3137  0.1544
 1122poe    c31 4813   5.332   4.392   0.713 -0.7419 -0.1437  0.2000
 1122poe     o2 4814   5.379   4.280   0.641 -0.3232  0.0297  0.2023
 1122poe    c23 4815   5.473   4.322   0.544  0.1791 -0.2646  0.5592
 1122poe    c23 4816   5.487   4.214   0.435  0.4590  0.1383  0.1926
 1122poe     o2 4817   5.570   4.116   0.491  0.1480 -0.0986  0.2443
 1122poe    c23 4818   5.586   3.996   0.418  0.8608  0.1883 -0.0799
 1122poe    c23 4819   5.707   3.926   0.482  0.3797 -0.2512  0.3578
 1122poe     o2 4820   5.688   3.926   0.622 -0.3146 -0.0446  0.2630
 1122poe    c23 4821   5.789   3.851   0.685 -0.2163 -0.0525  0.0965
 1122poe    c23 4822   5.783   3.867   0.838  0.3468 -0.2061  0.1368
 1122poe     o2 4823   5.686   3.787   0.902  0.2910  0.2757  0.6629
 1122poe    c31 4824   5.709   3.769   1.040  0.5535 -0.7469  0.4869
 1123poe    c31 4825   5.901   4.815   0.665 -0.3531  0.2097  0.1113
 1123poe     o2 4826   5.887   4.948   0.618  0.1276  0.0447 -0.4980
 1123poe    c23 4827   5.759   4.969   0.562  0.0103 -0.1842 -0.3204
 1123poe    c23 4828   5.762   5.109   0.498  0.4077  0.0644  0.2406
 1123poe     o2 4829   5.804   5.213   0.584  0.0705  0.0456  0.4313
 1123poe    c23 4830   5.848   5.323   0.507  0.0838  0.0086  0.3866
 1123poe    c23 4831   5.894   5.432   0.606  0.3190  0.3288 -0.0683
 1123poe     o2 4832   5.952   5.380   0.724 -0.8045 -0.0214  0.3473
 1123poe    c23 4833   6.039   5.461   0.800 -0.2660 -0.0053 -0.2727
 1123poe    c23 4834   5.997   5.605   0.834  0.3671  0.1229 -0.0232
 1123poe     o2 4835   5.879   5.630   0.907  0.3475 -0.0743  0.0138
 1123poe    c31 4836   5.873   5.568   1.033  0.7742  0.2168  0.1797
 1124poe    c31 4837   4.269   2.562   0.132  0.1369 -0.0509  0.1144
 1124poe     o2 4838   4.224   2.689   0.174 -0.3630 -0.3019  0.3460
 1124poe    c23 4839   4.108   2.739   0.113 -0.0659 -0.0664 -0.0259
 1124poe    c23 4840   4.075   2.888   0.133 -0.5927 -0.2241  0.2962
 1124poe     o2 4841   4.120   2.926   0.261  0.3653 -0.1979 -0.0433
 1124poe    c23 4842   4.096   3.059   0.302  0.0779 -0.3406  0.2557
 1124poe    c23 4843   4.180   3.084   0.428  0.0762  0.3397  0.1237
 1124poe     o2 4844   4.319   3.064   0.419  0.1809  1.0505  0.0740
 1124poe    c23 4845   4.395   3.062   0.538 -0.0298  0.5062  0.2021
 1124poe    c23 4846   4.546   3.087   0.521  0.0465 -0.0092  0.1021
 1124poe     o2 4847   4.591   2.996   0.423  0.1470  0.1064  0.0408
 1124poe    c31 4848   4.722   3.042   0.400 -0.0860  0.6840 -0.1503
 1125poe    c31 4849   2.113   6.555   3.306  0.2218 -0.3081 -0.1039
 1125poe     o2 4850   2.236   6.518   3.364  0.1936 -0.1675  0.0487
 1125poe    c23 4851   2.283   6.619   3.450  0.2402 -0.2940  0.1729
 1125poe    c23 4852   2.406   6.564   3.524  0.0735  0.2742  0.8804
 1125poe     o2 4853   2.383   6.457   3.613 -0.1748 -0.3792  0.0455
 1125poe    c23 4854   2.510   6.412   3.654 -0.0688 -0.2950 -0.1906
 1125poe    c23 4855   2.477   6.296   3.750 -0.2434  0.1815  0.3310
 1125poe     o2 4856   2.379   6.211   3.693 -0.0990 -0.2154  0.6697
 1125poe    c23 4857   2.350   6.104   3.780  0.3795 -0.6639  0.2777
 1125poe    c23 4858   2.257   6.006   3.706 -0.2609  0.1677 -0.0286
 1125poe     o2 4859   2.174   6.081   3.619  0.0862  0.1279 -0.3955
 1125poe    c31 4860   2.116   5.988   3.530 -0.4655 -0.1930  0.2846
 1126poe    c31 4861   3.219   0.994   1.470 -0.0634 -0.0897 -0.0625
 1126poe     o2 4862   3.111   0.941   1.398 -0.0265  0.2455 -0.3705
 1126poe    c23 4863   3.069   0.818   1.453 -0.0802  0.4942  0.1467
 1126poe    c23 4864   2.916   0.803   1.448 -0.0561  0.3998 -0.3737
 1126poe     o2 4865   2.861   0.772   1.322 -0.0696  0.4715 -0.3849
 1126poe    c23 4866   2.721   0.757   1.316 -0.0912  0.5809 -0.1801
 1126poe    c23 4867   2.683   0.727   1.170 -0.1198  0.1071 -0.0781
 1126poe     o2 4868   2.746   0.823   1.089 -0.2668  0.0159 -0.3010
 1126poe    c23 4869   2.708   0.822   0.953 -0.3713  0.6936 -0.2809
 1126poe    c23 4870   2.791   0.931   0.882  0.2019 -0.1696 -0.9625
 1126poe     o2 4871   2.925   0.915   0.922  0.0366 -0.4481 -0.5050
 1126poe    c31 4872   3.008   1.003   0.848 -0.7520  0.4914 -0.2976
 1127poe    c31 4873   4.142   1.465   5.858 -0.8549 -0.3847  0.3239
 1127poe     o2 4874   4.114   1.603   5.860 -0.0756 -0.2230  0.2680
 1127poe    c23 4875   3.982   1.626   5.905 -0.1279 -0.0961  0.0512
 1127poe    c23 4876   3.941   1.770   5.866 -0.2697 -0.0097  0.5173
 1127poe     o2 4877   4.058   1.838   5.827 -0.4134 -0.2539 -0.3647
 1127poe    c23 4878   4.020   1.971   5.803 -0.3825 -0.2430 -0.3543
 1127poe    c23 4879   4.138   2.052   5.746  0.1434 -0.2297  0.7197
 1127poe     o2 4880   4.179   1.991   5.625  0.2852  0.0215  0.6401
 1127poe    c23 4881   4.271   2.071   5.555  0.3557 -0.2109  0.4693
 1127poe    c23 4882   4.313   2.019   5.416 -0.1997  0.2392  0.1323
 1127poe     o2 4883   4.349   1.883   5.415  0.1037  0.3199  0.1020
 1127poe    c31 4884   4.393   1.851   5.284 -0.6684 -0.3031 -0.0143
 1128poe    c31 4885   2.938   2.187   5.728 -0.1296 -0.3342  1.1158
 1128poe     o2 4886   3.078   2.181   5.745  0.0811  0.1579 -0.2835
 1128poe    c23 4887   3.142   2.126   5.632  0.2314 -0.2039 -0.0249
 1128poe    c23 4888   3.291   2.098   5.657  0.3328  0.1498 -0.2348
 1128poe     o2 4889   3.340   2.221   5.706  0.3294  0.1276 -0.1745
 1128poe    c23 4890   3.475   2.212   5.744  0.3594 -0.0913 -0.3346
 1128poe    c23 4891   3.517   2.354   5.785 -0.7619  0.2102 -0.2151
 1128poe     o2 4892   3.420   2.404   5.874 -0.7095 -0.1994  0.0714
 1128poe    c23 4893   3.384   2.537   5.846 -0.7351 -0.1725  0.2293
 1128poe    c23 4894   3.274   2.546   5.739  0.0002 -0.3103 -0.5450
 1128poe     o2 4895   3.159   2.470   5.767 -0.0964  0.1681  0.3796
 1128poe    c31 4896   3.051   2.535   5.830 -0.4848 -0.1124  0.0124
 1129poe    c31 4897   4.341   1.398   1.995  0.8246 -0.3391 -0.3723
 1129poe     o2 4898   4.308   1.523   1.938 -0.0048 -0.3421  0.0770
 1129poe    c23 4899   4.203   1.578   2.014 -0.0365 -0.0183 -0.2018
 1129poe    c23 4900   4.162   1.704   1.935  0.4039  0.4137  0.2475
 1129poe     o2 4901   4.283   1.776   1.922  0.3582  0.4813  0.1978
 1129poe    c23 4902   4.275   1.884   1.832  0.0345  0.2928 -0.0010
 1129poe    c23 4903   4.410   1.957   1.843  0.2639 -0.1587  0.2208
 1129poe     o2 4904   4.516   1.865   1.835 -0.0780 -0.5513  0.1596
 1129poe    c23 4905   4.641   1.921   1.871 -0.3175 -0.1626  0.4021
 1129poe    c23 4906   4.675   1.984   2.007 -0.0154  0.0408  0.2338
 1129poe     o2 4907   4.682   1.886   2.108  0.9298 -0.1927 -0.0548
 1129poe    c31 4908   4.683   1.944   2.236 -0.0953 -0.3927  0.0494
 1130poe    c31 4909   5.715   1.563   4.508 -0.2074 -0.0904 -0.1284
 1130poe     o2 4910   5.658   1.437   4.481  0.6094 -0.3522 -0.6555
 1130poe    c23 4911   5.609   1.419   4.350  0.4493 -0.0546 -0.6375
 1130poe    c23 4912   5.559   1.274   4.340 -0.2969  0.1019  0.5970
 1130poe     o2 4913   5.418   1.269   4.339 -0.2953  0.0731  0.2218
 1130poe    c23 4914   5.386   1.132   4.334 -0.2269  0.0841 -0.5600
 1130poe    c23 4915   5.237   1.118   4.368  0.0989 -0.3841  0.7275
 1130poe     o2 4916   5.178   1.224   4.295 -0.0572 -0.6196  0.5104
 1130poe    c23 4917   5.098   1.179   4.188 -0.0541  0.1393  0.1800
 1130poe    c23 4918   4.975   1.263   4.149 -0.2471  0.1759  0.8442
 1130poe     o2 4919   5.025   1.392   4.124  0.0149  0.1096  1.0190
 1130poe    c31 4920   4.930   1.495   4.108  0.4256  0.3212 -0.1919
 1131poe    c31 4921   6.779   4.952   0.010  0.1919  0.1512 -0.1152
 1131poe     o2 4922   6.817   4.837  -0.062  0.1138  0.1211 -0.1082
 1131poe    c23 4923   6.701   4.794  -0.130 -0.3721  0.3371  0.5677
 1131poe    c23 4924   6.763   4.691  -0.226 -0.5850  0.1810  0.5971
 1131poe     o2 4925   6.860   4.619  -0.154 -0.2073  0.0294 -0.0483
 1131poe    c23 4926   6.917   4.513  -0.226 -0.4112 -0.2103  0.1391
 1131poe    c23 4927   7.007   4.434  -0.130  0.3540  0.3974 -0.0655
 1131poe     o2 4928   7.083   4.527  -0.055 -0.0383  0.3217  0.4318
 1131poe    c23 4929   7.173   4.454   0.025  0.4288  0.0653 -0.3213
 1131poe    c23 4930   7.260   4.559   0.095  0.0960 -0.0257  0.2282
 1131poe     o2 4931   7.200   4.651   0.185  0.1741  0.1692  0.0824
 1131poe    c31 4932   7.306   4.717   0.249  0.6283 -0.3176 -0.1508
 1132poe    c31 4933   2.363   3.028   1.898  0.1540 -0.4770 -0.6779
 1132poe     o2 4934   2.420   3.156   1.877 -0.3422 -0.1653 -0.1581
 1132poe    c23 4935   2.329   3.261   1.902 -0.2949 -0.0422 -0.4994
 1132poe    c23 4936   2.402   3.384   1.845  0.0609  0.0438  0.1234
 1132poe     o2 4937   2.426   3.353   1.709  0.0824  0.2395  0.0819
 1132poe    c23 4938   2.494   3.461   1.651 -0.0511  0.1811 -0.1831
 1132poe    c23 4939   2.525   3.409   1.509  0.5130 -0.4815  0.1803
 1132poe     o2 4940   2.572   3.276   1.514  0.3835 -0.5315  0.0627
 1132poe    c23 4941   2.708   3.260   1.548  0.6432 -0.1818 -0.7712
 1132poe    c23 4942   2.742   3.116   1.590  0.1452 -0.2240 -0.5047
 1132poe     o2 4943   2.633   3.083   1.673  0.1628 -0.2007 -0.4725
 1132poe    c31 4944   2.673   2.963   1.737 -0.6038 -0.0509  0.3124
 1133poe    c31 4945   3.905   2.195   5.074  0.9894  0.2681  0.0989
 1133poe     o2 4946   4.043   2.164   5.083  0.8886 -0.1388  0.2952
 1133poe    c23 4947   4.084   2.144   4.949 -0.4004 -0.0018 -0.1391
 1133poe    c23 4948   4.229   2.092   4.945 -0.2345  0.4749 -0.3694
 1133poe     o2 4949   4.314   2.191   4.998  0.2190  0.2617 -0.6949
 1133poe    c23 4950   4.448   2.152   4.980  0.3668  0.4642 -0.0851
 1133poe    c23 4951   4.544   2.238   5.063  0.2162  0.4667  0.0859
 1133poe     o2 4952   4.517   2.371   5.022 -0.0533  0.1756 -0.6967
 1133poe    c23 4953   4.591   2.465   5.096  0.1013 -0.3853 -0.1251
 1133poe    c23 4954   4.525   2.603   5.106  0.3054 -0.2957 -0.0015
 1133poe     o2 4955   4.399   2.557   5.147  0.1416  0.2560  0.1267
 1133poe    c31 4956   4.321   2.653   5.216  0.0140 -0.2328  0.6768
 1134poe    c31 4957   2.042   5.566   0.942  0.4213 -0.2915 -0.5046
 1134poe     o2 4958   1.911   5.529   0.905  0.1994  0.2695 -0.2864
 1134poe    c23 4959   1.905   5.391   0.930  0.0083  0.2393 -0.5025
 1134poe    c23 4960   1.761   5.343   0.899 -0.0823  0.0919  0.1282
 1134poe     o2 4961   1.739   5.340   0.760  0.1175  0.5407  0.0841
 1134poe    c23 4962   1.607   5.301   0.729  0.1942  0.0891  0.3094
 1134poe    c23 4963   1.554   5.368   0.601  0.7455  0.0244  0.0468
 1134poe     o2 4964   1.566   5.508   0.609 -0.1211  0.1236 -0.2219
 1134poe    c23 4965   1.475   5.568   0.520 -0.4574  0.0846  0.0947
 1134poe    c23 4966   1.530   5.707   0.483  0.0641 -0.0020  0.5280
 1134poe     o2 4967   1.554   5.775   0.604 -0.0927 -0.1455  0.6412
 1134poe    c31 4968   1.596   5.908   0.582 -0.6272 -0.0488  0.1871
 1135poe    c31 4969   1.716   2.995   5.204  0.0519  0.0896 -0.1203
 1135poe     o2 4970   1.662   3.117   5.156 -0.0491  0.0645 -0.0704
 1135poe    c23 4971   1.736   3.235   5.176  0.0262 -0.0475  0.3361
 1135poe    c23 4972   1.737   3.324   5.050  0.2302  0.0697  0.4182
 1135poe     o2 4973   1.794   3.264   4.935 -0.3403  0.3001  0.0097
 1135poe    c23 4974   1.695   3.238   4.838 -0.0412  0.3200 -0.3029
 1135poe    c23 4975   1.763   3.162   4.723  0.4887  0.1489  0.1173
 1135poe     o2 4976   1.860   3.251   4.674 -0.0254  0.1987 -0.8473
 1135poe    c23 4977   1.943   3.182   4.583  0.4355 -0.4709  0.0660
 1135poe    c23 4978   2.036   3.296   4.536 -0.0895 -0.0786 -0.0290
 1135poe     o2 4979   2.065   3.365   4.655 -0.2124 -0.3916  0.1837
 1135poe    c31 4980   2.172   3.454   4.635 -0.7576  0.1394 -0.4303
 1136poe    c31 4981   6.166   0.605   4.666  0.0520  0.4940  0.1712
 1136poe     o2 4982   6.261   0.501   4.664 -0.5850 -0.0856 -0.2413
 1136poe    c23 4983   6.356   0.514   4.561 -0.0319  0.0021  0.2739
 1136poe    c23 4984   6.424   0.377   4.540 -0.2811 -0.1465  0.4303
 1136poe     o2 4985   6.486   0.336   4.659  0.3193 -0.4838  0.0029
 1136poe    c23 4986   6.627   0.344   4.647  0.2721 -0.0543 -0.2894
 1136poe    c23 4987   6.691   0.248   4.750 -0.0137 -0.0268 -0.0832
 1136poe     o2 4988   6.615   0.259   4.868  0.1370  0.3528 -0.0186
 1136poe    c23 4989   6.651   0.152   4.952  0.0346  0.1733 -0.2023
 1136poe    c23 4990   6.534   0.131   5.050  0.1088 -0.2249 -0.1953
 1136poe     o2 4991   6.411   0.124   4.981 -0.0619 -0.1326  0.0993
 1136poe    c31 4992   6.343   0.002   5.005  0.1540 -0.2453  0.1348
 1137poe    c31 4993   2.415   4.131   5.729 -0.1398 -0.3684  0.4845
 1137poe     o2 4994   2.332   4.170   5.622 -0.1986 -0.3878  0.5221
 1137poe    c23 4995   2.342   4.096   5.502 -0.1101  0.6338 -0.1128
 1137poe    c23 4996   2.416   4.165   5.386  0.5948 -0.0863 -0.0999
 1137poe     o2 4997   2.337   4.281   5.372  0.2403 -0.3618 -0.3995
 1137poe    c23 4998   2.395   4.385   5.296  0.6866 -0.4242 -0.1469
 1137poe    c23 4999   2.350   4.521   5.353  0.5738 -0.2406 -0.6689
 1137poe     o2 5000   2.216   4.555   5.325  0.4346  0.0541  0.3395
 1137poe    c23 5001   2.197   4.692   5.350 -0.0434  0.1296 -0.4044
 1137poe    c23 5002   2.050   4.727   5.321 -0.1978  0.0799  0.2902
 1137poe     o2 5003   1.952   4.660   5.397 -0.0294 -0.1547  0.2992
 1137poe    c31 5004   1.823   4.676   5.343  0.3196 -0.0373 -0.5193
 1138poe    c31 5005   1.066   6.204   3.734 -0.2055  0.3284  0.0967
 1138poe     o2 5006   1.052   6.098   3.642 -0.1132  0.0454  0.4058
 1138poe    c23 5007   1.108   6.124   3.515  0.3710 -0.1035  0.5853
 1138poe    c23 5008   1.121   5.993   3.435  0.0169 -0.0518  0.4416
 1138poe     o2 5009   0.995   5.952   3.386  0.3900 -0.0964 -0.5088
 1138poe    c23 5010   1.013   5.827   3.325  0.0962 -0.2797 -0.2265
 1138poe    c23 5011   0.872   5.795   3.270 -0.1089 -0.1727  0.2351
 1138poe     o2 5012   0.770   5.781   3.366 -0.0921  0.5359  0.3597
 1138poe    c23 5013   0.641   5.794   3.311 -0.0992 -0.3594  0.1594
 1138poe    c23 5014   0.537   5.849   3.411 -0.5216  0.1656 -0.5584
 1138poe     o2 5015   0.568   5.784   3.533 -0.4535  0.4471 -0.4253
 1138poe    c31 5016   0.479   5.812   3.639  0.3883  0.4375  0.2902
 1139poe    c31 5017   5.946   5.563   4.564  0.3047 -0.2605  0.0665
 1139poe     o2 5018   5.983   5.579   4.699  0.4583  0.0234 -0.0070
 1139poe    c23 5019   5.973   5.454   4.765  0.7145  0.1535  0.2792
 1139poe    c23 5020   5.945   5.483   4.914  0.1564  0.0260  0.2028
 1139poe     o2 5021   6.005   5.607   4.945  0.0695 -0.0047  0.4936
 1139poe    c23 5022   5.968   5.642   5.076  0.1702  0.1615  0.4771
 1139poe    c23 5023   6.018   5.785   5.105  0.4939  0.2169 -0.3492
 1139poe     o2 5024   5.968   5.876   5.009  0.4350 -0.1110 -0.6330
 1139poe    c23 5025   6.024   6.005   5.010  0.0480  0.0554 -0.3294
 1139poe    c23 5026   6.173   6.028   4.980  0.1913 -0.3974  0.0226
 1139poe     o2 5027   6.195   6.000   4.843 -0.3762  0.3839 -0.2366
 1139poe    c31 5028   6.331   6.026   4.815 -0.1264  0.1942  0.7457
 1140poe    c31 5029   2.243   6.774   0.278 -0.0558 -0.6287  0.4173
 1140poe     o2 5030   2.228   6.700   0.158 -0.2270 -0.1035  0.1119
 1140poe    c23 5031   2.288   6.573   0.173 -0.7783 -0.3613  0.1713
 1140poe    c23 5032   2.248   6.490   0.050  0.5722 -0.5129 -0.1771
 1140poe     o2 5033   2.293   6.552  -0.068 -0.1425  0.1778 -0.0952
 1140poe    c23 5034   2.200   6.514  -0.167  0.6600 -0.7418 -0.5111
 1140poe    c23 5035   2.248   6.556  -0.308  0.0884 -0.5657 -0.6544
 1140poe     o2 5036   2.288   6.691  -0.299 -0.6619 -0.3417 -0.5685
 1140poe    c23 5037   2.331   6.737  -0.425  0.1436 -0.7095 -0.4325
 1140poe    c23 5038   2.406   6.869  -0.399 -0.2716 -0.6829  0.6970
 1140poe     o2 5039   2.490   6.852  -0.288 -0.0217  0.0479  0.6225
 1140poe    c31 5040   2.565   6.969  -0.262  0.3846 -0.1528  0.3546
 1141poe    c31 5041   3.364   4.290   3.152  0.5936 -0.1467 -0.5497
 1141poe     o2 5042   3.315   4.367   3.044 -0.1552  0.1045 -0.0348
 1141poe    c23 5043   3.214   4.443   3.107 -0.0116  0.1539  0.1341
 1141poe    c23 5044   3.147   4.524   2.995  0.1253  0.4986  0.3004
 1141poe     o2 5045   3.100   4.428   2.904  0.8091  0.5093 -0.0734
 1141poe    c23 5046   3.037   4.482   2.790 -0.2781  0.0745  0.3016
 1141poe    c23 5047   3.047   4.367   2.688  0.0943 -0.2289  0.6775
 1141poe     o2 5048   3.180   4.321   2.691 -0.0801 -0.8002 -0.1780
 1141poe    c23 5049   3.182   4.185   2.654  0.3501 -0.7809 -0.2255
 1141poe    c23 5050   3.325   4.140   2.692  0.5383 -0.0291 -0.0317
 1141poe     o2 5051   3.354   4.168   2.827  0.6551  0.1310 -0.0899
 1141poe    c31 5052   3.444   4.072   2.876 -0.1404 -0.6409 -0.1073
 1142poe    c31 5053   5.052   0.577   5.576 -0.3197  0.4472  0.6011
 1142poe     o2 5054   5.011   0.704   5.529 -0.0132  0.2640 -0.1677
 1142poe    c23 5055   5.077   0.817   5.580  0.2004 -0.1799  0.5523
 1142poe    c23 5056   4.974   0.922   5.627  0.1297  0.0688 -0.1523
 1142poe     o2 5057   4.892   0.968   5.521 -0.3319 -0.6020 -0.0962
 1142poe    c23 5058   4.838   1.097   5.542 -0.0223 -0.4176 -0.4255
 1142poe    c23 5059   4.766   1.147   5.416  0.0357 -0.0525 -0.3138
 1142poe     o2 5060   4.679   1.043   5.378 -0.1829 -0.1364  0.4048
 1142poe    c23 5061   4.598   1.078   5.267  0.0832 -0.1657  0.2008
 1142poe    c23 5062   4.502   0.958   5.254 -0.2828  0.1595 -0.0687
 1142poe     o2 5063   4.569   0.835   5.262 -0.2677  0.1711 -0.0175
 1142poe    c31 5064   4.470   0.736   5.275  0.3218 -0.4454 -0.1017
 1143poe    c31 5065   5.902   0.758   3.762  0.0895 -0.4781  0.2870
 1143poe     o2 5066   5.874   0.810   3.891  0.1751 -0.5030  0.3158
 1143poe    c23 5067   5.837   0.946   3.876 -0.2602 -0.6519 -0.0059
 1143poe    c23 5068   5.850   1.002   4.019 -0.2280  0.1774 -0.3280
 1143poe     o2 5069   5.810   0.904   4.113 -0.3714  0.4426 -0.1143
 1143poe    c23 5070   5.822   0.937   4.250  0.3667 -0.2082 -0.0164
 1143poe    c23 5071   5.920   0.828   4.296  0.3431 -0.1388  0.1946
 1143poe     o2 5072   5.865   0.706   4.253  0.0049  0.1740 -0.2649
 1143poe    c23 5073   5.954   0.599   4.273  0.0631  0.2962  0.1458
 1143poe    c23 5074   5.898   0.495   4.174 -0.0222  0.3795  0.1063
 1143poe     o2 5075   5.862   0.555   4.051  0.3146 -0.5415 -0.4491
 1143poe    c31 5076   5.835   0.450   3.960 -0.3909 -0.3578 -0.4538
 1144poe    c31 5077   4.951   3.196   0.689 -0.2403 -0.1148 -0.3324
 1144poe     o2 5078   4.850   3.201   0.788 -0.0588  0.0545 -0.1566
 1144poe    c23 5079   4.906   3.242   0.911 -0.4401  0.3743 -0.0910
 1144poe    c23 5080   4.791   3.279   1.007 -0.3282 -0.1464  0.2497
 1144poe     o2 5081   4.702   3.175   1.038 -0.6917 -0.0796 -0.5436
 1144poe    c23 5082   4.670   3.181   1.175  0.3012 -0.4341 -0.2926
 1144poe    c23 5083   4.665   3.042   1.241 -0.5529 -0.1663  0.2180
 1144poe     o2 5084   4.562   2.972   1.174  0.0859 -0.3545 -0.5810
 1144poe    c23 5085   4.579   2.837   1.210  0.1073 -0.2792 -0.3053
 1144poe    c23 5086   4.501   2.754   1.107 -0.1680 -0.4679  0.0520
 1144poe     o2 5087   4.537   2.810   0.982 -0.2745 -0.1263  0.1759
 1144poe    c31 5088   4.475   2.750   0.871  0.1833 -0.4322  0.0840
 1145poe    c31 5089   1.953   6.511   2.280 -0.1076  0.6527  0.5107
 1145poe     o2 5090   1.857   6.570   2.195 -0.0400  0.1312  0.0677
 1145poe    c23 5091   1.894   6.703   2.166  0.0756  0.1772  0.4192
 1145poe    c23 5092   1.766   6.748   2.092  0.2547 -0.0620 -0.0418
 1145poe     o2 5093   1.733   6.653   1.994  0.2915 -0.1849  0.0629
 1145poe    c23 5094   1.629   6.703   1.912  0.0219 -0.2529  0.3611
 1145poe    c23 5095   1.586   6.607   1.800 -0.3146 -0.0772  0.3401
 1145poe     o2 5096   1.545   6.480   1.847  0.0008 -0.2065  0.2694
 1145poe    c23 5097   1.529   6.382   1.746  0.5886 -0.0637  0.0354
 1145poe    c23 5098   1.478   6.246   1.796  0.1332  0.0977  0.0115
 1145poe     o2 5099   1.349   6.265   1.850  0.1142 -0.3236  0.1167
 1145poe    c31 5100   1.293   6.145   1.900 -0.4702  0.1780  0.6839
 1146poe    c31 5101   5.888   6.225   3.242 -0.2856  0.7705 -0.1820
 1146poe     o2 5102   5.980   6.140   3.306 -0.4627  0.6157 -0.1305
 1146poe    c23 5103   6.099   6.201   3.352  0.2899 -0.6815 -0.3299
 1146poe    c23 5104   6.183   6.090   3.419  0.4509 -0.6805 -0.5308
 1146poe     o2 5105   6.102   6.016   3.508  0.2783  0.2273  0.0821
 1146poe    c23 5106   6.177   5.920   3.579 -0.0410 -0.0801  0.0082
 1146poe    c23 5107   6.114   5.878   3.713  0.1025  0.4044  0.2310
 1146poe     o2 5108   6.073   5.990   3.788 -0.2159  0.4470 -0.0040
 1146poe    c23 5109   6.010   5.946   3.906  0.2044  0.3865  0.1998
 1146poe    c23 5110   5.929   6.064   3.966 -0.2690  0.1458  0.0405
 1146poe     o2 5111   5.833   6.090   3.866 -0.3339 -0.2439 -0.0037
 1146poe    c31 5112   5.749   6.190   3.921  0.3812  0.2490  0.2140
 1147poe    c31 5113   6.372   2.757   3.896 -0.0906 -0.1559 -0.0047
 1147poe     o2 5114   6.512   2.770   3.885 -0.1009 -0.1436 -0.1228
 1147poe    c23 5115   6.550   2.688   3.777  0.2647  0.0246 -0.1252
 1147poe    c23 5116   6.704   2.697   3.769  0.2652  0.4050  0.2941
 1147poe     o2 5117   6.739   2.828   3.807 -0.7490  0.8579 -0.2647
 1147poe    c23 5118   6.878   2.848   3.794 -0.5412 -0.3115  0.0189
 1147poe    c23 5119   6.900   2.996   3.833 -0.0224 -0.2581 -0.4669
 1147poe     o2 5120   6.805   3.022   3.934  0.5876 -0.1522  0.0877
 1147poe    c23 5121   6.768   3.158   3.942 -0.5887 -0.4561  0.0222
 1147poe    c23 5122   6.636   3.147   4.020 -0.3865  0.1747  0.4652
 1147poe     o2 5123   6.555   3.054   3.951  0.0978  0.4725 -0.5159
 1147poe    c31 5124   6.432   3.063   4.019  0.2388  0.0096 -0.1978
 1148poe    c31 5125   6.552   0.104   6.858 -0.5571 -0.1818  0.3655
 1148poe     o2 5126   6.475   0.047   6.754  0.4089 -0.2839 -0.3058
 1148poe    c23 5127   6.376  -0.035   6.812  0.4781 -0.2598 -0.1520
 1148poe    c23 5128   6.316  -0.112   6.692  0.0286 -0.1589  0.0042
 1148poe     o2 5129   6.312  -0.021   6.584  0.3069 -0.4874 -0.2822
 1148poe    c23 5130   6.297  -0.093   6.464  0.2241 -0.2765 -0.3983
 1148poe    c23 5131   6.302  -0.005   6.337  0.0115 -0.2224 -0.3679
 1148poe     o2 5132   6.420   0.072   6.344 -0.5492  0.6050  0.1530
 1148poe    c23 5133   6.544   0.010   6.323 -0.6842  0.4149 -0.0775
 1148poe    c23 5134   6.648   0.113   6.370  0.0946 -0.3492 -0.0893
 1148poe     o2 5135   6.619   0.137   6.506  0.1139  0.0392 -0.1518
 1148poe    c31 5136   6.727   0.211   6.558 -0.3265  0.1257  0.6543
 1149poe    c31 5137   2.873   4.715   0.354  0.2800 -0.2288 -0.8145
 1149poe     o2 5138   2.918   4.849   0.356 -0.3176 -0.0304  0.3322
 1149poe    c23 5139   3.057   4.861   0.334 -0.4776 -0.1374 -0.7886
 1149poe    c23 5140   3.101   5.009   0.343 -0.4421 -0.1816 -0.2362
 1149poe     o2 5141   3.011   5.094   0.276  0.0492  0.1731 -0.4455
 1149poe    c23 5142   3.033   5.231   0.303  0.2602  0.1603 -0.5510
 1149poe    c23 5143   2.917   5.293   0.223 -0.1469  0.1651  0.0396
 1149poe     o2 5144   2.813   5.200   0.242  0.0281  0.0292  0.3452
 1149poe    c23 5145   2.714   5.217   0.143  0.0845 -0.0664  0.2727
 1149poe    c23 5146   2.634   5.086   0.153 -0.1474  0.0982  0.5863
 1149poe     o2 5147   2.720   4.977   0.177  0.0701  0.1737  0.1656
 1149poe    c31 5148   2.757   4.926   0.051 -0.8800  0.1295 -0.1068
 1150poe    c31 5149   0.087   1.849   6.064 -0.3604  0.9519  0.4214
 1150poe     o2 5150   0.184   1.934   6.006  0.1625  0.2463  0.2556
 1150poe    c23 5151   0.246   2.029   6.090 -0.1586  0.7854 -0.1133
 1150poe    c23 5152   0.353   2.102   6.007  0.3356 -0.1256 -0.2911
 1150poe     o2 5153   0.442   2.006   5.954  0.3109 -0.3246  0.0259
 1150poe    c23 5154   0.559   2.058   5.895 -0.0904  0.2611 -0.2658
 1150poe    c23 5155   0.647   1.932   5.879 -0.3806  0.1343 -0.8914
 1150poe     o2 5156   0.573   1.835   5.807  0.0273 -0.6757 -0.2291
 1150poe    c23 5157   0.660   1.734   5.760  0.4635 -0.4480  0.0764
 1150poe    c23 5158   0.594   1.656   5.645  0.3228  0.1429 -0.2490
 1150poe     o2 5159   0.541   1.721   5.532  0.1401  0.0985 -0.1906
 1150poe    c31 5160   0.481   1.629   5.443 -0.5392 -0.2448  0.6098
 1151poe    c31 5161   5.404   3.653   4.248  0.1585  0.0240 -0.0089
 1151poe     o2 5162   5.299   3.609   4.166 -0.1306  0.6343  0.0275
 1151poe    c23 5163   5.337   3.568   4.036 -0.1743 -0.2903  0.2983
 1151poe    c23 5164   5.224   3.509   3.949  0.1793 -0.6228  0.0640
 1151poe     o2 5165   5.139   3.455   4.047 -0.1920  0.0361  0.1052
 1151poe    c23 5166   5.012   3.414   4.001  0.0271  0.0302 -0.5064
 1151poe    c23 5167   4.941   3.333   4.112  0.7412 -0.0701 -0.1169
 1151poe     o2 5168   4.948   3.396   4.238  0.3601 -0.0592 -0.1018
 1151poe    c23 5169   4.890   3.316   4.339  0.3984 -0.0195 -0.0496
 1151poe    c23 5170   4.935   3.346   4.483  0.3668  0.2473 -0.0937
 1151poe     o2 5171   5.070   3.305   4.491  0.2454 -0.3273 -0.8838
 1151poe    c31 5172   5.091   3.252   4.620 -0.0383 -0.3685 -0.8536
 1152poe    c31 5173   5.559   6.044   3.289  0.3061 -0.3567 -0.4271
 1152poe     o2 5174   5.549   5.997   3.421 -0.0487  0.1537 -0.2702
 1152poe    c23 5175   5.467   6.082   3.499 -0.2487 -0.2288 -0.0586
 1152poe    c23 5176   5.315   6.074   3.477 -0.2243 -1.1455  0.0606
 1152poe     o2 5177   5.268   6.110   3.349  0.1034  0.2321  0.3129
 1152poe    c23 5178   5.128   6.095   3.338  0.1611 -0.1748  0.1332
 1152poe    c23 5179   5.048   6.223   3.368 -0.3581 -0.5135  0.1982
 1152poe     o2 5180   5.086   6.316   3.270  0.1075 -0.6658  0.2319
 1152poe    c23 5181   5.001   6.429   3.266  0.5601 -0.3434 -0.6693
 1152poe    c23 5182   5.036   6.507   3.138  0.2235  0.1944 -0.4335
 1152poe     o2 5183   5.177   6.514   3.141  0.2335 -0.1568 -0.0466
 1152poe    c31 5184   5.225   6.584   3.029 -0.1885 -0.2499 -0.2902
 1153poe    c31 5185   3.407   4.378   1.509 -0.4269 -0.2731  0.3281
 1153poe     o2 5186   3.441   4.373   1.646 -0.1150 -0.1142  0.2582
 1153poe    c23 5187   3.352   4.320   1.742 -0.3128  0.4899  0.4095
 1153poe    c23 5188   3.322   4.169   1.746  0.2794  0.3432 -0.3733
 1153poe     o2 5189   3.437   4.089   1.743  0.0410 -0.0029 -0.2751
 1153poe    c23 5190   3.399   3.959   1.784  0.4611  0.2419  0.9392
 1153poe    c23 5191   3.532   3.917   1.850  0.1404 -0.0349  1.4129
 1153poe     o2 5192   3.639   3.930   1.759 -0.3078 -0.0450  0.8782
 1153poe    c23 5193   3.758   3.885   1.819  0.2417  0.4669  0.1724
 1153poe    c23 5194   3.870   3.918   1.718  0.3169 -0.1283  0.0615
 1153poe     o2 5195   3.839   4.046   1.667 -0.6331 -0.3037  0.1766
 1153poe    c31 5196   3.931   4.093   1.571 -0.2983 -0.0277  0.6311
 1154poe    c31 5197   4.500   5.977   5.882  0.4916 -0.3477  0.0517
 1154poe     o2 5198   4.615   5.986   5.800  0.2202  0.2927 -0.2653
 1154poe    c23 5199   4.578   5.930   5.676 -0.2196  0.0645 -0.0361
 1154poe    c23 5200   4.642   6.015   5.564 -0.2895 -0.2718 -0.3322
 1154poe     o2 5201   4.772   6.042   5.610 -0.5733 -0.0303  0.3367
 1154poe    c23 5202   4.868   6.106   5.529 -0.1924  0.1729  0.9411
 1154poe    c23 5203   5.005   6.101   5.600  0.3512 -0.0063 -0.1012
 1154poe     o2 5204   4.977   6.130   5.735  0.4699 -0.0991 -0.0563
 1154poe    c23 5205   5.095   6.151   5.809  0.4268 -0.2606  0.0558
 1154poe    c23 5206   5.081   6.176   5.960  0.8104 -0.2539  0.0920
 1154poe     o2 5207   5.039   6.060   6.027 -0.0038  0.0035  0.0451
 1154poe    c31 5208   4.983   6.084   6.154 -0.0757  0.2811 -0.0385
 1155poe    c31 5209   2.131   0.690   0.163 -0.2555 -0.6629 -0.4472
 1155poe     o2 5210   2.100   0.798   0.078  0.4717 -0.6734 -0.7308
 1155poe    c23 5211   1.973   0.764   0.028 -0.0777  0.0269  0.1760
 1155poe    c23 5212   1.940   0.848  -0.097 -0.3139 -0.2526  0.0486
 1155poe     o2 5213   2.039   0.822  -0.194 -0.3051  0.7490 -0.2267
 1155poe    c23 5214   2.050   0.912  -0.302  0.3964  0.8280 -0.0952
 1155poe    c23 5215   2.187   0.894  -0.370  0.1830 -0.8492 -0.1139
 1155poe     o2 5216   2.296   0.924  -0.287 -0.1518  0.3359 -0.0931
 1155poe    c23 5217   2.420   0.900  -0.351 -0.0163  0.0067  0.2890
 1155poe    c23 5218   2.533   0.848  -0.261 -0.1218  0.1259  0.4933
 1155poe     o2 5219   2.522   0.710  -0.230  0.2340 -0.0762 -0.2620
 1155poe    c31 5220   2.643   0.662  -0.177  0.2367  0.0465 -0.1579
 1156poe    c31 5221   4.148   4.550   3.916 -0.0802 -0.1455 -0.0701
 1156poe     o2 5222   4.247   4.459   3.874  0.1892 -0.0891  0.4424
 1156poe    c23 5223   4.216   4.323   3.892 -0.2442 -0.0811 -0.2027
 1156poe    c23 5224   4.332   4.224   3.875  0.0289  0.1543  0.2626
 1156poe     o2 5225   4.432   4.250   3.972  0.3382 -0.0466  0.0017
 1156poe    c23 5226   4.526   4.146   3.973  0.4864  0.0799 -0.4105
 1156poe    c23 5227   4.618   4.163   4.095 -0.0069 -0.2398  0.0089
 1156poe     o2 5228   4.682   4.287   4.072 -0.4663  0.0420  0.2269
 1156poe    c23 5229   4.757   4.336   4.181 -0.4488  0.0221  0.2241
 1156poe    c23 5230   4.853   4.439   4.119 -0.6940 -0.1729 -0.5022
 1156poe     o2 5231   4.780   4.519   4.029  0.1244  1.0208 -0.1308
 1156poe    c31 5232   4.854   4.634   3.996  0.1383  1.0186 -0.1077
 1157poe    c31 5233   5.488   0.365   6.844  0.5370 -0.1150  0.2756
 1157poe     o2 5234   5.542   0.495   6.830  0.0514  0.0586  0.0031
 1157poe    c23 5235   5.628   0.521   6.939 -0.3492 -0.1118  0.3645
 1157poe    c23 5236   5.674   0.668   6.936 -0.5537 -0.0418  0.5943
 1157poe     o2 5237   5.587   0.772   6.977 -0.3231  0.5033 -0.2686
 1157poe    c23 5238   5.630   0.906   6.977 -0.2473  0.4802 -0.6676
 1157poe    c23 5239   5.534   1.013   7.031 -0.2243  0.2983 -0.2637
 1157poe     o2 5240   5.420   1.021   6.948 -0.4503 -0.3673 -0.0209
 1157poe    c23 5241   5.363   1.148   6.967 -0.0771 -0.2149  0.0751
 1157poe    c23 5242   5.238   1.175   6.881  0.2880 -0.0578 -0.4098
 1157poe     o2 5243   5.271   1.227   6.755  0.0556  0.3231 -0.3157
 1157poe    c31 5244   5.160   1.272   6.681 -0.3103 -0.4463 -0.2399
 1158poe    c31 5245   5.949   4.997   3.587 -0.4035 -0.2740 -0.0606
 1158poe     o2 5246   6.012   5.016   3.711 -0.1214 -0.1404 -0.2232
 1158poe    c23 5247   5.949   5.113   3.791  0.1185 -0.1020 -0.0791
 1158poe    c23 5248   6.053   5.181   3.882 -0.0365  0.1094 -0.0575
 1158poe     o2 5249   6.163   5.092   3.884 -0.1288 -0.0093 -0.2887
 1158poe    c23 5250   6.260   5.136   3.976  0.1219 -0.0812 -0.5169
 1158poe    c23 5251   6.394   5.061   3.964  0.1246 -0.1591 -0.0192
 1158poe     o2 5252   6.405   5.038   3.825  0.3375 -0.1550 -0.0036
 1158poe    c23 5253   6.540   5.010   3.794  0.4097 -0.0834  0.2399
 1158poe    c23 5254   6.600   5.099   3.684 -0.5318  0.2504 -0.0166
 1158poe     o2 5255   6.530   5.094   3.561  0.4066 -1.0536 -0.5232
 1158poe    c31 5256   6.619   5.110   3.453 -0.0946  0.0689 -0.7933
 1159poe    c31 5257   6.691   6.864   2.994 -0.7062 -0.2696  0.8665
 1159poe     o2 5258   6.725   6.739   2.938  0.1002  0.0407  0.6504
 1159poe    c23 5259   6.736   6.643   3.041  0.2068 -0.3413  0.2811
 1159poe    c23 5260   6.682   6.502   3.012 -0.7023  0.0907 -0.1793
 1159poe     o2 5261   6.739   6.444   2.897  0.2832 -0.5121  0.5973
 1159poe    c23 5262   6.876   6.411   2.903  0.5931  0.5134 -0.5631
 1159poe    c23 5263   6.930   6.321   2.789  0.3223  0.4172 -0.6157
 1159poe     o2 5264   6.864   6.388   2.684 -0.2704  0.2295 -0.3656
 1159poe    c23 5265   6.882   6.327   2.558 -0.1605 -0.6205  0.0564
 1159poe    c23 5266   6.838   6.426   2.449 -0.0509  0.0787  0.6437
 1159poe     o2 5267   6.708   6.469   2.484 -0.1166  0.0648  0.4167
 1159poe    c31 5268   6.660   6.545   2.375 -0.1729 -0.4993  0.0459
 1160poe    c31 5269   2.413   5.364   2.601  0.5250 -0.0320 -0.1111
 1160poe     o2 5270   2.351   5.329   2.480  0.0064  1.0497 -0.1755
 1160poe    c23 5271   2.214   5.361   2.467 -0.1604  0.4086 -0.0312
 1160poe    c23 5272   2.177   5.506   2.432 -0.3356  0.3932  0.0879
 1160poe     o2 5273   2.210   5.556   2.304 -0.1113 -0.0591 -0.0324
 1160poe    c23 5274   2.132   5.494   2.204 -0.5854  0.2133  0.1636
 1160poe    c23 5275   2.129   5.586   2.081 -0.1917 -0.7216 -0.5614
 1160poe     o2 5276   2.259   5.592   2.028  0.0761 -0.0143  0.1571
 1160poe    c23 5277   2.276   5.696   1.934 -0.0375 -0.0144  0.1371
 1160poe    c23 5278   2.426   5.718   1.907 -0.1969  0.3982 -0.4178
 1160poe     o2 5279   2.488   5.762   2.025  0.0404  0.2845 -0.5009
 1160poe    c31 5280   2.602   5.686   2.060 -0.6920 -0.5897  0.0087
 1161poe    c31 5281   3.330   3.516   0.068 -0.1112 -0.2385  0.0510
 1161poe     o2 5282   3.304   3.572   0.195  0.3210  0.0355  0.0195
 1161poe    c23 5283   3.254   3.703   0.183 -0.2924 -0.2015 -0.0116
 1161poe    c23 5284   3.139   3.707   0.285  0.1458  0.3411  0.4629
 1161poe     o2 5285   3.182   3.671   0.415 -0.0068  0.1000  0.4464
 1161poe    c23 5286   3.071   3.669   0.502 -0.1768 -0.1940  0.2258
 1161poe    c23 5287   3.122   3.620   0.639  0.2096  0.1815  0.2180
 1161poe     o2 5288   3.173   3.489   0.640 -0.0607  0.0714 -0.3302
 1161poe    c23 5289   3.193   3.422   0.763 -0.1745 -0.3577 -0.5418
 1161poe    c23 5290   3.311   3.324   0.764  0.3739  0.3017 -0.3154
 1161poe     o2 5291   3.319   3.235   0.655 -0.7238  0.2082 -0.3310
 1161poe    c31 5292   3.426   3.144   0.662 -0.5629  0.4213  0.0311
 1162poe    c31 5293   6.613   2.996   6.040  0.0976 -0.1119  0.3700
 1162poe     o2 5294   6.564   3.127   6.020 -0.2323 -0.2346  0.3562
 1162poe    c23 5295   6.494   3.129   5.898 -0.2481 -0.2328  0.3646
 1162poe    c23 5296   6.484   3.280   5.865 -0.2621 -0.2595  0.2463
 1162poe     o2 5297   6.438   3.332   5.987 -0.4077  0.2395 -0.0201
 1162poe    c23 5298   6.396   3.465   5.970 -0.5317  0.1450 -0.4491
 1162poe    c23 5299   6.327   3.506   6.101  0.1058 -0.0425 -0.0546
 1162poe     o2 5300   6.429   3.499   6.199  0.4375 -0.4170 -0.4232
 1162poe    c23 5301   6.392   3.576   6.311  0.7944 -0.2177 -0.4411
 1162poe    c23 5302   6.522   3.619   6.382  0.5710 -0.2301 -0.0200
 1162poe     o2 5303   6.596   3.510   6.431  0.3073 -0.5682 -0.3656
 1162poe    c31 5304   6.557   3.447   6.551  0.1892 -0.0042 -0.1051
 1163poe    c31 5305   4.519   2.562   2.819  0.0057  0.1669 -0.2923
 1163poe     o2 5306   4.391   2.510   2.846  0.2579 -0.2609  0.1155
 1163poe    c23 5307   4.380   2.437   2.966 -0.3561  0.1266  0.3059
 1163poe    c23 5308   4.309   2.515   3.078  0.3274  1.5432 -0.2217
 1163poe     o2 5309   4.192   2.557   3.012 -0.2776 -0.0818 -0.2294
 1163poe    c23 5310   4.093   2.612   3.097  0.0955  0.4852 -0.1559
 1163poe    c23 5311   3.965   2.663   3.028 -0.4464 -0.2618  0.2833
 1163poe     o2 5312   3.991   2.791   2.975  0.0185 -0.4105  0.1466
 1163poe    c23 5313   3.937   2.800   2.845 -0.1438 -0.0577  0.2368
 1163poe    c23 5314   3.967   2.928   2.764 -0.0279 -0.2494 -0.0251
 1163poe     o2 5315   4.105   2.948   2.742 -0.1050  0.1524 -0.1475
 1163poe    c31 5316   4.125   3.065   2.666 -0.0193  0.3149  0.1228
 1164poe    c31 5317   2.362   6.406   1.279 -0.1078  0.5369 -0.3911
 1164poe     o2 5318   2.229   6.440   1.314 -0.2774  0.0724 -0.5874
 1164poe    c23 5319   2.222   6.512   1.434  0.0906  0.2242 -0.6547
 1164poe    c23 5320   2.082   6.577   1.436  0.1275  0.3048 -0.6328
 1164poe     o2 5321   1.999   6.473   1.387  0.1016  0.0734 -0.1140
 1164poe    c23 5322   1.865   6.515   1.372  0.0014 -0.3498 -0.4208
 1164poe    c23 5323   1.774   6.392   1.355  0.2442 -0.6217  0.2247
 1164poe     o2 5324   1.817   6.309   1.250 -0.1458 -0.6033  0.0485
 1164poe    c23 5325   1.763   6.183   1.283  0.4114 -0.7144  0.5709
 1164poe    c23 5326   1.775   6.085   1.164 -0.3355  0.4693 -0.5023
 1164poe     o2 5327   1.900   6.097   1.100 -0.3079  0.5703 -0.4302
 1164poe    c31 5328   1.911   6.018   0.983  0.0362 -0.6037  0.3807
 1165poe    c31 5329   1.519   4.890   2.673 -0.2225 -0.2558  0.1264
 1165poe     o2 5330   1.392   4.837   2.702 -0.0685 -0.5765  0.2317
 1165poe    c23 5331   1.295   4.924   2.647  0.3002 -0.2382  0.1121
 1165poe    c23 5332   1.274   5.052   2.731 -0.3033 -0.1185 -0.2128
 1165poe     o2 5333   1.229   5.037   2.864 -0.1249 -0.5849 -0.2026
 1165poe    c23 5334   1.220   5.152   2.945 -0.0592 -0.7122 -0.0140
 1165poe    c23 5335   1.183   5.116   3.090 -0.0640 -0.1676  0.1222
 1165poe     o2 5336   1.289   5.036   3.138 -0.0076 -0.1390  0.0456
 1165poe    c23 5337   1.254   5.015   3.273 -0.1069 -0.2637 -0.0000
 1165poe    c23 5338   1.368   4.966   3.364 -0.0355  0.1861  0.1536
 1165poe     o2 5339   1.449   5.077   3.398  0.4885 -0.3243  0.5815
 1165poe    c31 5340   1.393   5.158   3.498  0.2638  0.1005  0.1129
 1166poe    c31 5341   4.650   4.254   6.496  0.2282  0.1235  0.0818
 1166poe     o2 5342   4.700   4.362   6.420  0.2943  0.0267 -0.0113
 1166poe    c23 5343   4.829   4.401   6.460  0.3363 -0.2088  0.0888
 1166poe    c23 5344   4.871   4.525   6.378 -0.0832  0.1153  0.3606
 1166poe     o2 5345   4.759   4.611   6.383 -0.3995 -0.1880 -1.1336
 1166poe    c23 5346   4.793   4.738   6.331 -0.2039  0.0822 -0.3469
 1166poe    c23 5347   4.669   4.829   6.326  0.3319  0.8207 -0.2233
 1166poe     o2 5348   4.582   4.769   6.233  0.2867  0.3952  0.0934
 1166poe    c23 5349   4.456   4.831   6.224 -0.1177 -0.4474 -0.1249
 1166poe    c23 5350   4.403   4.803   6.082  0.1845  0.1181 -0.3517
 1166poe     o2 5351   4.419   4.665   6.058 -0.5426  0.0200 -0.3059
 1166poe    c31 5352   4.379   4.602   5.939 -0.0786 -1.3633  0.2484
 1167poe    c31 5353   4.694   0.930   3.002  0.0869  0.8416  0.1176
 1167poe     o2 5354   4.753   0.967   2.879  0.0684 -0.2927 -0.2489
 1167poe    c23 5355   4.766   1.106   2.861 -0.4181 -0.1762  0.2681
 1167poe    c23 5356   4.801   1.153   2.719  0.0472 -0.0209  0.4310
 1167poe     o2 5357   4.720   1.095   2.619  0.1567  0.1385  0.2501
 1167poe    c23 5358   4.781   1.093   2.492 -0.1308 -0.1171  0.1140
 1167poe    c23 5359   4.677   1.038   2.393 -0.0071  0.4905 -0.3605
 1167poe     o2 5360   4.637   0.913   2.445  0.0383  0.5178 -0.2598
 1167poe    c23 5361   4.574   0.836   2.345  0.1686 -0.1755  0.1850
 1167poe    c23 5362   4.578   0.692   2.401 -0.0647 -0.0095  0.6384
 1167poe     o2 5363   4.543   0.684   2.537 -0.0808 -0.1780  0.6239
 1167poe    c31 5364   4.526   0.547   2.568 -0.1874 -0.0685  1.0572
 1168poe    c31 5365   6.114   1.966   1.560  0.0657 -0.4850  0.3072
 1168poe     o2 5366   6.078   2.073   1.474  0.0515 -1.0008 -0.3400
 1168poe    c23 5367   5.958   2.134   1.516  0.3009 -0.3199 -0.6037
 1168poe    c23 5368   5.919   2.231   1.403 -0.0264 -0.0302 -0.2463
 1168poe     o2 5369   6.002   2.345   1.393 -0.2400  0.1618  0.1376
 1168poe    c23 5370   5.932   2.442   1.317  0.5805  0.3163 -0.4318
 1168poe    c23 5371   6.032   2.553   1.281  0.8508  0.0828 -0.4101
 1168poe     o2 5372   6.048   2.638   1.392 -0.6018  0.1687 -0.2528
 1168poe    c23 5373   6.165   2.715   1.378 -0.4586  0.0386  0.2169
 1168poe    c23 5374   6.176   2.846   1.460  0.2433  0.2002 -0.1296
 1168poe     o2 5375   6.146   2.814   1.594  0.0812 -0.0443 -0.2226
 1168poe    c31 5376   6.185   2.910   1.689  0.4414 -0.7671  0.3612
 1169poe    c31 5377   3.907   1.302   1.873 -0.1050  0.0280 -0.2207
 1169poe     o2 5378   3.908   1.209   1.767  0.3034  0.1602 -0.3386
 1169poe    c23 5379   3.790   1.218   1.690  0.3733  0.3232 -0.4254
 1169poe    c23 5380   3.756   1.076   1.643 -0.3851  0.3117  0.1363
 1169poe     o2 5381   3.713   0.985   1.742  0.3338 -0.1201  0.0562
 1169poe    c23 5382   3.653   0.879   1.670 -0.1229  0.4619 -0.4277
 1169poe    c23 5383   3.719   0.742   1.645 -0.1121  0.3100  0.3910
 1169poe     o2 5384   3.849   0.746   1.591 -0.4079  0.1950 -0.3468
 1169poe    c23 5385   3.888   0.626   1.529 -0.3483  0.5286 -0.9634
 1169poe    c23 5386   4.029   0.622   1.466  0.1411  0.0958  0.1231
 1169poe     o2 5387   4.040   0.713   1.358 -0.3383 -0.1102 -0.1019
 1169poe    c31 5388   4.179   0.724   1.337 -0.3288  0.2859  0.1735
 1170poe    c31 5389   0.351   0.007   3.490 -0.5625 -0.1675  0.3178
 1170poe     o2 5390   0.471  -0.058   3.454 -0.1867  0.6265  0.1064
 1170poe    c23 5391   0.513  -0.019   3.325  0.5118  0.2354  0.2131
 1170poe    c23 5392   0.661  -0.051   3.295  0.2541 -0.3098 -0.5165
 1170poe     o2 5393   0.695  -0.182   3.333 -0.4211 -0.1808  0.5882
 1170poe    c23 5394   0.836  -0.194   3.334 -0.4255 -0.4981 -0.6875
 1170poe    c23 5395   0.864  -0.336   3.282  0.0695 -0.5921 -0.1767
 1170poe     o2 5396   0.811  -0.428   3.376  0.4969  0.2734  0.9282
 1170poe    c23 5397   0.832  -0.563   3.341 -0.3750  0.3855 -0.0704
 1170poe    c23 5398   0.754  -0.657   3.435  0.1178  0.0344 -0.0090
 1170poe     o2 5399   0.627  -0.595   3.439 -0.0913 -0.3891 -0.1146
 1170poe    c31 5400   0.544  -0.677   3.518  0.4865 -0.4826  0.4026
 1171poe    c31 5401   3.835   4.332   4.548 -0.0403  0.6307 -0.3676
 1171poe     o2 5402   3.763   4.355   4.429 -0.1168  0.6600 -0.3159
 1171poe    c23 5403   3.755   4.494   4.409 -0.6251  0.6809  0.0057
 1171poe    c23 5404   3.685   4.504   4.272 -0.0098 -0.4037 -0.4018
 1171poe     o2 5405   3.750   4.426   4.175  0.2696 -0.4764 -0.1556
 1171poe    c23 5406   3.717   4.447   4.040 -0.0087 -0.0486 -0.0217
 1171poe    c23 5407   3.802   4.340   3.968  0.0746 -0.3479  0.5137
 1171poe     o2 5408   3.785   4.217   4.034 -0.2776 -0.4812  0.1783
 1171poe    c23 5409   3.661   4.152   4.013 -0.2253 -0.3348 -0.6306
 1171poe    c23 5410   3.635   4.071   4.142 -0.4240  0.2112 -0.3254
 1171poe     o2 5411   3.657   4.159   4.250 -0.1278 -0.1386 -0.0990
 1171poe    c31 5412   3.598   4.101   4.364  0.4653 -0.0079  0.2746
 1172poe    c31 5413   4.423   0.009   1.090 -0.2568  0.2655 -0.0022
 1172poe     o2 5414   4.477  -0.116   1.125  0.4157  0.4525 -0.3516
 1172poe    c23 5415   4.531  -0.176   1.009 -0.2735  0.0827 -0.4876
 1172poe    c23 5416   4.562  -0.325   1.027  0.5073  0.2717 -0.2280
 1172poe     o2 5417   4.683  -0.346   1.098  0.0131 -0.5645  0.3886
 1172poe    c23 5418   4.673  -0.469   1.166 -0.4264 -0.7075  0.0715
 1172poe    c23 5419   4.813  -0.523   1.199 -0.2127 -0.1373  0.1144
 1172poe     o2 5420   4.879  -0.434   1.286  0.1542 -0.3273  0.0347
 1172poe    c23 5421   5.019  -0.444   1.274  0.1494 -0.1765 -0.1478
 1172poe    c23 5422   5.074  -0.403   1.412  0.4786  0.1204 -0.3657
 1172poe     o2 5423   5.018  -0.279   1.448 -0.3450 -0.3589  0.0207
 1172poe    c31 5424   5.064  -0.227   1.571  0.2223  0.1689 -0.4154
 1173poe    c31 5425   0.564   5.190   0.256  0.3540 -0.2117 -0.2829
 1173poe     o2 5426   0.451   5.141   0.189 -0.0759  0.6736 -0.2174
 1173poe    c23 5427   0.338   5.171   0.267 -0.1140 -0.1690  0.0591
 1173poe    c23 5428   0.204   5.165   0.191 -0.1471 -0.2478  0.1233
 1173poe     o2 5429   0.218   5.245   0.075 -0.1630 -0.0382  0.2658
 1173poe    c23 5430   0.105   5.247  -0.009 -0.3882 -0.1221  0.5643
 1173poe    c23 5431   0.128   5.357  -0.114  0.4624 -0.6861  0.1431
 1173poe     o2 5432   0.258   5.358  -0.169  0.0894  0.2156 -0.7497
 1173poe    c23 5433   0.270   5.417  -0.296 -0.2817  0.7778 -0.5317
 1173poe    c23 5434   0.422   5.422  -0.319 -0.1773  0.7365  0.1278
 1173poe     o2 5435   0.480   5.476  -0.203 -0.0917  0.0179  0.4248
 1173poe    c31 5436   0.605   5.536  -0.229 -0.2155 -0.0233 -0.2808
 1174poe    c31 5437   0.567   3.970   1.051  0.0149  0.0525  0.1429
 1174poe     o2 5438   0.669   4.017   1.136 -0.1154  0.6379 -0.0204
 1174poe    c23 5439   0.673   3.942   1.255  0.1002 -0.0661 -0.4628
 1174poe    c23 5440   0.786   3.989   1.349  0.3048 -0.0954 -0.6931
 1174poe     o2 5441   0.910   3.998   1.284  0.6779 -0.3919 -0.0312
 1174poe    c23 5442   1.021   3.969   1.367  0.3484  0.3545  0.6863
 1174poe    c23 5443   1.140   4.058   1.327 -0.1060  0.5099 -0.3630
 1174poe     o2 5444   1.150   4.041   1.188  0.2779 -0.7002 -0.1972
 1174poe    c23 5445   1.256   4.116   1.134 -0.5587  0.3314 -0.4457
 1174poe    c23 5446   1.279   4.061   0.992 -0.2388  0.4648 -0.4471
 1174poe     o2 5447   1.154   4.046   0.928 -0.4000  0.2141 -0.0794
 1174poe    c31 5448   1.184   4.027   0.791 -0.7359 -0.4379 -0.0620
 1175poe    c31 5449   2.969   2.352   5.135 -0.5060 -0.0154  0.1543
 1175poe     o2 5450   2.952   2.492   5.148 -0.4563  0.0547 -0.4654
 1175poe    c23 5451   2.916   2.563   5.032 -0.2653 -0.0510 -0.5906
 1175poe    c23 5452   2.864   2.702   5.073 -0.4883 -0.2347 -0.2372
 1175poe     o2 5453   2.755   2.711   5.161 -0.3218  0.0448 -0.0570
 1175poe    c23 5454   2.693   2.837   5.148  0.2979  0.3817  0.2414
 1175poe    c23 5455   2.556   2.823   5.218  0.2656  0.1210  0.1244
 1175poe     o2 5456   2.582   2.782   5.350  0.2269 -0.3517 -0.0101
 1175poe    c23 5457   2.478   2.805   5.442  0.4245  0.2253  0.0745
 1175poe    c23 5458   2.523   2.732   5.569 -0.8783 -0.5096  0.1346
 1175poe     o2 5459   2.568   2.608   5.517 -0.1562 -0.2600  0.1446
 1175poe    c31 5460   2.608   2.529   5.627 -0.8156 -0.4513  0.2507
 1176poe    c31 5461   0.127   0.745   6.709  0.3970  0.4165 -0.2862
 1176poe     o2 5462   0.177   0.876   6.691  0.4393  0.5464  0.7281
 1176poe    c23 5463   0.276   0.901   6.789  0.5825 -0.0671  0.7420
 1176poe    c23 5464   0.304   1.052   6.781  0.3585 -0.0634 -0.0171
 1176poe     o2 5465   0.293   1.096   6.647 -0.7000 -0.1072  0.0476
 1176poe    c23 5466   0.279   1.235   6.633 -0.0638 -0.0519 -0.0577
 1176poe    c23 5467   0.300   1.258   6.482 -0.0739  0.3983  0.0080
 1176poe     o2 5468   0.240   1.158   6.403 -0.0930  0.2458  0.2157
 1176poe    c23 5469   0.248   1.198   6.268 -0.6155  0.0564  0.1253
 1176poe    c23 5470   0.182   1.099   6.170 -0.2157 -0.2073  0.1167
 1176poe     o2 5471   0.224   0.965   6.175  0.4801 -0.0171 -0.4348
 1176poe    c31 5472   0.142   0.882   6.097 -0.4584  0.4165  0.0810
 1177poe    c31 5473   4.400   1.453   6.253  0.2681 -0.3559  0.2170
 1177poe     o2 5474   4.538   1.483   6.241  0.1177  0.3335  0.1600
 1177poe    c23 5475   4.606   1.398   6.332 -0.5088 -0.4804 -0.1158
 1177poe    c23 5476   4.749   1.378   6.279 -0.1605  0.4748  0.4343
 1177poe     o2 5477   4.794   1.507   6.242 -0.1678  0.2319 -0.4428
 1177poe    c23 5478   4.926   1.521   6.195 -0.0375 -0.0577 -0.1641
 1177poe    c23 5479   4.952   1.657   6.129  0.5133 -0.1069 -0.0507
 1177poe     o2 5480   4.860   1.676   6.024  0.2465 -0.3553  0.1377
 1177poe    c23 5481   4.882   1.781   5.933  0.3950  0.0918  0.6821
 1177poe    c23 5482   4.773   1.888   5.914  0.2713 -0.0351  0.6802
 1177poe     o2 5483   4.652   1.838   5.861  0.3633  0.4008  0.0512
 1177poe    c31 5484   4.580   1.946   5.806 -0.5771 -0.3134 -0.1424
 1178poe    c31 5485   6.908   3.150   2.282  0.0329  0.0419  0.5607
 1178poe     o2 5486   6.780   3.134   2.224  0.1808  0.0761  0.2240
 1178poe    c23 5487   6.700   3.231   2.288  0.4041  0.1758  0.3533
 1178poe    c23 5488   6.599   3.276   2.182  0.9324  0.3224 -0.0935
 1178poe     o2 5489   6.562   3.157   2.116 -0.1986  0.2731  0.5919
 1178poe    c23 5490   6.426   3.157   2.079  0.0019  0.1429 -0.1815
 1178poe    c23 5491   6.420   3.059   1.960  0.4780 -0.0074 -0.0844
 1178poe     o2 5492   6.488   2.939   1.988 -0.1527 -0.2467  0.4240
 1178poe    c23 5493   6.474   2.839   1.889 -0.7755  0.1874  0.0626
 1178poe    c23 5494   6.558   2.715   1.927  0.0122  0.5885 -0.3330
 1178poe     o2 5495   6.697   2.737   1.921  0.1409 -0.1904 -0.2533
 1178poe    c31 5496   6.764   2.614   1.938 -0.0606 -0.3271 -0.4350
 1179poe    c31 5497   5.885   2.282   5.807 -0.3783  0.1324 -0.2877
 1179poe     o2 5498   5.863   2.173   5.721 -0.1686  0.0286 -0.2096
 1179poe    c23 5499   5.824   2.216   5.592 -0.3203 -0.0620 -0.1947
 1179poe    c23 5500   5.809   2.106   5.486 -0.6740 -0.2275  0.0254
 1179poe     o2 5501   5.716   2.001   5.503 -0.3477 -0.5986 -0.4252
 1179poe    c23 5502   5.582   2.042   5.515 -0.0892  0.1496  0.0480
 1179poe    c23 5503   5.487   1.921   5.534 -0.1467  0.1649 -0.1433
 1179poe     o2 5504   5.546   1.853   5.642 -0.6420  0.0729  0.0693
 1179poe    c23 5505   5.462   1.747   5.682  0.0258 -0.3039  0.4906
 1179poe    c23 5506   5.537   1.690   5.804  0.3236 -0.2511  0.3319
 1179poe     o2 5507   5.675   1.694   5.774  0.3060  0.2280  0.3000
 1179poe    c31 5508   5.747   1.642   5.883  0.7300  0.1662 -0.0059
 1180poe    c31 5509   2.827   5.393   1.323  0.2330 -0.2833  0.0384
 1180poe     o2 5510   2.747   5.290   1.273  0.1246 -0.1545 -0.0540
 1180poe    c23 5511   2.831   5.194   1.213  0.2427 -0.1231  0.0607
 1180poe    c23 5512   2.753   5.069   1.168  0.2544 -0.1405  0.0895
 1180poe     o2 5513   2.662   5.097   1.064 -0.2094 -0.2622  0.4574
 1180poe    c23 5514   2.552   5.009   1.053 -0.1480 -0.2367 -0.5313
 1180poe    c23 5515   2.483   5.040   0.919 -0.4617  0.0657 -0.3014
 1180poe     o2 5516   2.454   5.178   0.908 -0.0639  0.1707 -0.0659
 1180poe    c23 5517   2.391   5.204   0.785  0.1525 -0.2447 -0.2645
 1180poe    c23 5518   2.341   5.349   0.787  0.0885 -0.2726  0.3372
 1180poe     o2 5519   2.429   5.441   0.848  0.3399 -0.0302 -0.3854
 1180poe    c31 5520   2.373   5.570   0.838 -0.0900 -0.1606  0.2991
 1181poe    c31 5521   5.061   3.041   5.796  0.7476 -0.2447 -0.2610
 1181poe     o2 5522   5.007   2.946   5.707  0.3287 -0.0222 -0.2450
 1181poe    c23 5523   5.047   2.995   5.581 -0.0007  1.1664  0.1041
 1181poe    c23 5524   5.009   2.901   5.466 -0.7028  0.1667  1.1248
 1181poe     o2 5525   5.059   2.770   5.475 -0.2757  0.2229 -0.1151
 1181poe    c23 5526   5.008   2.699   5.364 -0.9174  0.2624  0.1472
 1181poe    c23 5527   5.051   2.551   5.364 -1.2967  0.1505  0.0822
 1181poe     o2 5528   5.047   2.518   5.501 -0.3315  0.0927  0.1079
 1181poe    c23 5529   5.096   2.390   5.532  0.3413  0.4010  0.3406
 1181poe    c23 5530   5.085   2.376   5.685  0.3792 -0.8268  0.2411
 1181poe     o2 5531   5.120   2.493   5.755  0.6851 -0.7889  0.0247
 1181poe    c31 5532   5.101   2.472   5.893  0.1320 -0.2248  0.0379
 1182poe    c31 5533   2.737   1.507   0.657  0.2728  0.0311 -0.3604
 1182poe     o2 5534   2.626   1.574   0.712  0.5535 -0.3413  0.6759
 1182poe    c23 5535   2.531   1.502   0.787 -0.0344 -0.2683  0.0099
 1182poe    c23 5536   2.431   1.564   0.886  0.2119 -0.3971  0.3407
 1182poe     o2 5537   2.345   1.659   0.828  0.4141 -0.2642  0.2587
 1182poe    c23 5538   2.238   1.610   0.750 -0.2475  1.0442  0.3236
 1182poe    c23 5539   2.174   1.722   0.666 -0.4843  0.3628 -0.4141
 1182poe     o2 5540   2.290   1.792   0.627 -0.3611  0.3592 -0.0589
 1182poe    c23 5541   2.242   1.911   0.569  0.2149  0.7156  0.1862
 1182poe    c23 5542   2.360   2.009   0.581  0.2002  0.7436  0.1073
 1182poe     o2 5543   2.403   2.011   0.715 -0.3400  0.3231  0.2886
 1182poe    c31 5544   2.432   2.137   0.771  0.1262  0.3331  0.0256
 1183poe    c31 5545   3.514   3.545   4.419 -0.1555  0.2928  0.2815
 1183poe     o2 5546   3.423   3.583   4.318 -0.3916 -0.1941  0.3088
 1183poe    c23 5547   3.483   3.700   4.267 -0.5352 -0.2363  0.0457
 1183poe    c23 5548   3.432   3.749   4.130  0.1194  0.2799 -0.0186
 1183poe     o2 5549   3.306   3.811   4.130  0.0268  0.0938  0.2877
 1183poe    c23 5550   3.201   3.717   4.139  0.0629  0.0407  0.1639
 1183poe    c23 5551   3.066   3.784   4.173  0.0951  0.0395  0.2969
 1183poe     o2 5552   3.032   3.882   4.077 -0.1263 -0.1586  0.1710
 1183poe    c23 5553   2.911   3.947   4.110  0.4309  0.7923  0.4053
 1183poe    c23 5554   2.881   4.063   4.013 -0.0173  0.3741  0.0353
 1183poe     o2 5555   3.001   4.136   4.025  0.1450  0.0850  0.1702
 1183poe    c31 5556   2.958   4.267   3.995  0.0794 -0.0734 -0.4333
 1184poe    c31 5557   4.038   0.131   3.797 -0.6239 -0.6673 -0.1241
 1184poe     o2 5558   3.978   0.234   3.721 -0.0078  0.1008  0.4160
 1184poe    c23 5559   4.072   0.294   3.635 -0.6723  0.0320 -0.3728
 1184poe    c23 5560   3.984   0.392   3.556 -0.1822  0.1023 -0.8394
 1184poe     o2 5561   3.877   0.425   3.642  0.6412  0.8786 -0.0956
 1184poe    c23 5562   3.787   0.507   3.571 -0.0479 -0.3889 -0.7095
 1184poe    c23 5563   3.639   0.487   3.608  0.0674 -0.5949 -0.3494
 1184poe     o2 5564   3.622   0.492   3.748  0.2197  0.4147 -0.3543
 1184poe    c23 5565   3.488   0.494   3.794  0.1653  0.5529 -0.5178
 1184poe    c23 5566   3.469   0.431   3.934 -0.0189 -0.0308 -0.8026
 1184poe     o2 5567   3.509   0.296   3.936  0.8002  0.2038 -0.5494
 1184poe    c31 5568   3.511   0.244   4.067  0.6736  0.4314 -0.4566
 1185poe    c31 5569   1.320   4.512   0.062  0.0446  0.4716 -0.0433
 1185poe     o2 5570   1.248   4.624   0.013 -0.4740 -0.0582 -0.5109
 1185poe    c23 5571   1.323   4.717  -0.062 -0.2678  0.3239  0.1608
 1185poe    c23 5572   1.241   4.829  -0.128 -0.2539  0.3175  0.1335
 1185poe     o2 5573   1.196   4.929  -0.040  0.1962  0.3846  0.2877
 1185poe    c23 5574   1.092   4.998  -0.104 -0.2184 -0.5590 -0.0763
 1185poe    c23 5575   1.031   5.099  -0.004 -0.0460 -0.5096 -0.0215
 1185poe     o2 5576   1.024   5.032   0.119 -0.3153  0.1709  0.3380
 1185poe    c23 5577   0.940   5.100   0.210 -0.4889  0.3631  0.0328
 1185poe    c23 5578   0.972   5.044   0.349  0.3021 -0.2259 -0.3754
 1185poe     o2 5579   1.112   5.031   0.356  0.3392  0.2869 -0.0849
 1185poe    c31 5580   1.146   5.027   0.493 -0.2636  0.4339  0.0700
 1186poe    c31 5581   4.464   3.358   2.273  0.0315  0.2691 -0.1908
 1186poe     o2 5582   4.603   3.335   2.269  0.0121 -0.0361  0.6618
 1186poe    c23 5583   4.656   3.334   2.138 -0.2041  0.1307  0.5718
 1186poe    c23 5584   4.804   3.296   2.118 -0.2544  0.1778  0.1030
 1186poe     o2 5585   4.893   3.389   2.174  0.3139 -0.6186  0.5339
 1186poe    c23 5586   5.021   3.385   2.115  0.1360 -0.8896  0.1648
 1186poe    c23 5587   5.116   3.476   2.195 -0.3510 -0.0633 -0.1864
 1186poe     o2 5588   5.059   3.600   2.231  0.2673  0.1251  0.1540
 1186poe    c23 5589   5.152   3.679   2.302  0.2512  0.1454  0.1530
 1186poe    c23 5590   5.076   3.808   2.338 -0.1592  0.0186 -0.2596
 1186poe     o2 5591   4.960   3.781   2.414 -0.1262  0.5395 -0.0265
 1186poe    c31 5592   4.916   3.891   2.490  0.1425  0.3482  0.4099
 1187poe    c31 5593   6.708   0.532   5.353  0.0409  0.0174 -0.3577
 1187poe     o2 5594   6.745   0.622   5.455 -0.5873 -0.1150 -0.0116
 1187poe    c23 5595   6.698   0.754   5.438  0.2809  0.1785 -0.1576
 1187poe    c23 5596   6.745   0.850   5.549  0.2136 -0.0785  0.0931
 1187poe     o2 5597   6.880   0.881   5.520  0.1798  0.1469  0.1698
 1187poe    c23 5598   6.912   1.000   5.588  0.0629  0.2001  0.1329
 1187poe    c23 5599   7.059   1.046   5.580  0.0164  0.3114 -0.0883
 1187poe     o2 5600   7.098   1.074   5.448  0.7693 -0.3238 -0.0052
 1187poe    c23 5601   7.203   1.167   5.430  0.6623 -0.2027  0.0003
 1187poe    c23 5602   7.278   1.138   5.299  0.3657 -0.1294 -0.1881
 1187poe     o2 5603   7.214   1.157   5.175  0.0541 -0.7500 -0.1231
 1187poe    c31 5604   7.180   1.291   5.147  0.3865 -0.6249  0.0616
 1188poe    c31 5605   4.270   0.365   5.445 -0.4692  0.8733  0.0013
 1188poe     o2 5606   4.217   0.462   5.359 -0.1221  1.1474  0.0952
 1188poe    c23 5607   4.221   0.410   5.228  0.1905  0.0988  0.5154
 1188poe    c23 5608   4.162   0.518   5.136  0.3501 -0.2015  0.0569
 1188poe     o2 5609   4.051   0.573   5.203  0.5484  0.5567 -0.2201
 1188poe    c23 5610   3.974   0.668   5.133  0.4115  0.7474  0.1853
 1188poe    c23 5611   3.860   0.703   5.230  0.2164  0.0765  0.2061
 1188poe     o2 5612   3.923   0.723   5.355  0.3116  0.0033  0.1700
 1188poe    c23 5613   3.835   0.795   5.438  0.2522  0.1488 -0.0185
 1188poe    c23 5614   3.879   0.811   5.585  0.1907 -0.2111  0.0381
 1188poe     o2 5615   4.006   0.872   5.587 -0.0065  0.1991  0.1539
 1188poe    c31 5616   4.050   0.864   5.720 -0.4969 -0.0914  0.3017
 1189poe    c31 5617   2.173   4.762   4.424  0.2294 -0.2458  0.3541
 1189poe     o2 5618   2.111   4.640   4.456  0.0256 -0.1443  0.3530
 1189poe    c23 5619   1.974   4.638   4.488 -0.1060  0.0413 -0.1813
 1189poe    c23 5620   1.917   4.495   4.486  0.1214 -0.0651  0.5289
 1189poe     o2 5621   1.972   4.425   4.377  0.7963  0.2486  0.6650
 1189poe    c23 5622   1.968   4.290   4.419 -0.5318  0.0335 -0.1067
 1189poe    c23 5623   2.058   4.216   4.319  0.4810  0.1987  0.6633
 1189poe     o2 5624   2.186   4.274   4.306  0.3339  0.3514 -0.1817
 1189poe    c23 5625   2.258   4.205   4.206 -0.1928  0.4418 -0.6283
 1189poe    c23 5626   2.408   4.238   4.207 -0.0331 -0.2608  0.3525
 1189poe     o2 5627   2.469   4.198   4.327 -0.1747  0.4288  0.6595
 1189poe    c31 5628   2.608   4.221   4.334 -0.0700  0.0311 -0.0496
 1190poe    c31 5629   4.047   0.672   0.306  0.8586  0.0861 -0.4389
 1190poe     o2 5630   3.923   0.720   0.259  0.4762 -0.1290  0.3393
 1190poe    c23 5631   3.857   0.776   0.371 -0.2053 -0.0881 -0.0781
 1190poe    c23 5632   3.738   0.859   0.321 -0.3049 -0.1025  0.1348
 1190poe     o2 5633   3.644   0.773   0.259 -0.5070  0.0476  0.2334
 1190poe    c23 5634   3.526   0.840   0.219 -0.4903  0.2061  0.4462
 1190poe    c23 5635   3.421   0.729   0.198 -0.2185 -0.0289  0.3286
 1190poe     o2 5636   3.494   0.633   0.125 -0.1059  0.3766 -0.0995
 1190poe    c23 5637   3.418   0.576   0.021  0.4533  0.9627 -0.8451
 1190poe    c23 5638   3.467   0.442  -0.039 -0.1244  0.3150  0.0959
 1190poe     o2 5639   3.591   0.451  -0.105  0.0371 -0.3735  0.2958
 1190poe    c31 5640   3.619   0.330  -0.171  0.6641 -0.2711  0.3637
 1191poe    c31 5641   6.635   1.992   2.572  0.2770  0.8549  0.0104
 1191poe     o2 5642   6.508   2.019   2.517  0.2530  0.3923 -0.1704
 1191poe    c23 5643   6.426   1.906   2.498  0.2872  0.4327 -0.5657
 1191poe    c23 5644   6.285   1.967   2.485  0.2130  0.4085  0.0811
 1191poe     o2 5645   6.283   2.085   2.407 -0.1611  0.3465 -0.0024
 1191poe    c23 5646   6.157   2.140   2.377 -0.0966  0.3212 -0.3206
 1191poe    c23 5647   6.144   2.266   2.464 -0.2230  0.5025 -0.5978
 1191poe     o2 5648   6.275   2.311   2.488 -0.0829 -0.0211 -0.3517
 1191poe    c23 5649   6.272   2.440   2.545 -0.2615 -0.0850 -0.2161
 1191poe    c23 5650   6.414   2.487   2.582 -0.2077  0.0259 -0.5598
 1191poe     o2 5651   6.492   2.384   2.638 -0.1574  0.2741 -0.1662
 1191poe    c31 5652   6.609   2.435   2.696  0.0740 -0.1304 -0.2715
 1192poe    c31 5653   1.827   3.828   3.973  0.3213 -0.3201 -0.1495
 1192poe     o2 5654   1.711   3.896   3.932  0.3898  0.1802  0.4812
 1192poe    c23 5655   1.698   3.923   3.795  0.3653  0.1192  0.4716
 1192poe    c23 5656   1.595   4.038   3.790  0.2166 -0.0265  0.1592
 1192poe     o2 5657   1.477   4.014   3.863 -0.0377 -0.0792 -0.2673
 1192poe    c23 5658   1.374   4.110   3.849 -0.0599 -0.0571  0.0405
 1192poe    c23 5659   1.302   4.098   3.984  0.1320  0.4298  0.1882
 1192poe     o2 5660   1.282   3.963   4.019  0.1462  0.4132  0.1325
 1192poe    c23 5661   1.170   3.938   4.101 -0.0712  0.0375 -0.2743
 1192poe    c23 5662   1.196   3.813   4.186 -0.0796 -0.0544 -0.4048
 1192poe     o2 5663   1.223   3.705   4.099 -0.0196 -0.3279 -0.0506
 1192poe    c31 5664   1.239   3.589   4.177 -1.0314 -0.5618 -0.1764
 1193poe    c31 5665   4.663   6.451   3.601  0.0575  0.0901  0.1398
 1193poe     o2 5666   4.556   6.364   3.630 -0.1326  0.4250  0.4483
 1193poe    c23 5667   4.584   6.226   3.625 -0.2395  0.4131  0.1251
 1193poe    c23 5668   4.488   6.151   3.719 -0.2051  0.2558  0.0342
 1193poe     o2 5669   4.502   6.166   3.858 -0.0412 -0.3102  0.0814
 1193poe    c23 5670   4.415   6.087   3.936 -0.4210 -0.1211 -0.1537
 1193poe    c23 5671   4.501   5.991   4.020 -0.0011  0.0003 -0.4417
 1193poe     o2 5672   4.599   6.071   4.081  0.0796  0.0574 -0.6482
 1193poe    c23 5673   4.663   5.992   4.178  0.1083  0.6684 -0.1649
 1193poe    c23 5674   4.745   6.082   4.273  0.2340 -0.2646  0.6304
 1193poe     o2 5675   4.839   6.160   4.202 -0.1364  0.0480  0.4801
 1193poe    c31 5676   4.919   6.233   4.292 -0.3045  0.4138  0.3343
 1194poe    c31 5677   3.422   6.366   1.867  0.3445 -0.1402  0.7270
 1194poe     o2 5678   3.493   6.449   1.778  0.2265 -0.0525  0.7152
 1194poe    c23 5679   3.465   6.587   1.794 -0.6114 -0.0870 -0.2862
 1194poe    c23 5680   3.566   6.654   1.699 -0.5445 -0.3154 -0.3776
 1194poe     o2 5681   3.560   6.591   1.572 -0.0414 -0.6245 -0.2487
 1194poe    c23 5682   3.663   6.634   1.486  0.3234 -0.3885  0.2964
 1194poe    c23 5683   3.643   6.548   1.360  0.6413  0.1741 -0.1445
 1194poe     o2 5684   3.635   6.412   1.396 -0.4812  0.1990 -0.2578
 1194poe    c23 5685   3.631   6.344   1.272 -0.1173 -0.0732 -0.1218
 1194poe    c23 5686   3.621   6.191   1.281  0.0592 -0.0675  0.1847
 1194poe     o2 5687   3.515   6.134   1.355  0.4561 -0.3342  0.5545
 1194poe    c31 5688   3.487   6.000   1.319 -0.3787 -0.0129  0.0005
 1195poe    c31 5689   2.043   1.057   0.567  0.1008  0.0102  0.0271
 1195poe     o2 5690   1.958   1.138   0.489  0.2606  0.3993  0.2528
 1195poe    c23 5691   2.030   1.222   0.401  0.3790 -0.0896 -0.1217
 1195poe    c23 5692   1.933   1.316   0.327  0.4260  0.2032  0.1867
 1195poe     o2 5693   1.860   1.398   0.416  0.2862 -0.2038  0.4462
 1195poe    c23 5694   1.799   1.493   0.332  0.0125 -0.6331  0.1485
 1195poe    c23 5695   1.728   1.595   0.424  0.6056  0.0509 -0.1325
 1195poe     o2 5696   1.645   1.511   0.502  0.4059  0.3304 -0.0443
 1195poe    c23 5697   1.537   1.571   0.570  0.5753  0.2250  0.3261
 1195poe    c23 5698   1.453   1.457   0.631  0.3622  0.4244  0.4051
 1195poe     o2 5699   1.538   1.355   0.679  0.0206 -0.2062 -0.3059
 1195poe    c31 5700   1.473   1.250   0.746 -0.0060 -0.2028 -0.3263
 1196poe    c31 5701   0.159   3.280   3.195  0.7332 -0.1574  0.0791
 1196poe     o2 5702   0.177   3.300   3.334 -0.0772 -0.3234  0.2137
 1196poe    c23 5703   0.079   3.228   3.406 -0.0427 -0.1943  0.3889
 1196poe    c23 5704   0.115   3.238   3.556  0.1571  0.2079  0.3174
 1196poe     o2 5705   0.151   3.371   3.586 -0.3432  0.2443  0.7729
 1196poe    c23 5706   0.174   3.400   3.722 -0.0989  0.1001  0.7635
 1196poe    c23 5707   0.199   3.551   3.737 -0.4298  0.1991  0.3665
 1196poe     o2 5708   0.310   3.588   3.659 -0.2732 -0.5961  0.2047
 1196poe    c23 5709   0.341   3.726   3.671 -0.4669 -0.5163 -0.2214
 1196poe    c23 5710   0.423   3.787   3.556  0.8606 -1.0596  0.4255
 1196poe     o2 5711   0.370   3.741   3.434  0.0121 -0.3460  0.5188
 1196poe    c31 5712   0.441   3.814   3.336  0.0089 -0.2614  0.5793
 1197poe    c31 5713   2.590   4.796   6.118  0.0533 -0.4203 -0.1773
 1197poe     o2 5714   2.523   4.727   6.221  0.3088  0.5397  0.6553
 1197poe    c23 5715   2.395   4.784   6.224 -0.1003 -0.2914 -0.3506
 1197poe    c23 5716   2.303   4.674   6.280  0.2090 -0.1685  0.4124
 1197poe     o2 5717   2.380   4.611   6.379  0.1286 -0.6574  0.1702
 1197poe    c23 5718   2.308   4.517   6.455 -0.3567 -0.0668  0.4488
 1197poe    c23 5719   2.404   4.479   6.569  0.3690  0.3282 -0.0206
 1197poe     o2 5720   2.521   4.423   6.514  0.1147 -0.1561 -0.0824
 1197poe    c23 5721   2.600   4.358   6.611  0.3940 -0.1578 -0.3101
 1197poe    c23 5722   2.716   4.273   6.556  0.3715  0.0449 -0.6736
 1197poe     o2 5723   2.665   4.147   6.518  0.0117 -0.1306  0.3637
 1197poe    c31 5724   2.740   4.087   6.415 -0.0490  0.0908  0.1893
 1198poe    c31 5725   4.179   4.744   5.658 -0.4289 -0.3770  0.5352
 1198poe     o2 5726   4.039   4.756   5.655 -0.3616  0.4026  0.3985
 1198poe    c23 5727   3.990   4.784   5.525  0.1483  0.6054  0.2485
 1198poe    c23 5728   3.838   4.807   5.520  0.0818  0.0965 -0.0862
 1198poe     o2 5729   3.816   4.931   5.583  0.0036  0.1026 -0.1251
 1198poe    c23 5730   3.689   4.968   5.632  0.1180  0.3995 -0.0483
 1198poe    c23 5731   3.694   5.107   5.698 -0.0767  0.3870 -0.0048
 1198poe     o2 5732   3.764   5.097   5.820  0.0782 -0.3012 -0.1433
 1198poe    c23 5733   3.797   5.220   5.881 -0.7147 -0.2361  0.1566
 1198poe    c23 5734   3.906   5.193   5.987 -0.2254  0.1079 -0.2545
 1198poe     o2 5735   3.864   5.083   6.065 -0.0631 -0.3029 -0.7351
 1198poe    c31 5736   3.942   5.059   6.180  0.0202 -0.1611 -0.7610
 1199poe    c31 5737   1.527   6.895   6.498  0.0561 -0.4726 -0.1579
 1199poe     o2 5738   1.500   6.853   6.630 -0.2513  0.5857  0.1187
 1199poe    c23 5739   1.362   6.830   6.645 -0.1326 -0.0711  0.2284
 1199poe    c23 5740   1.354   6.809   6.798  0.0758 -0.3356  0.2031
 1199poe     o2 5741   1.463   6.727   6.831 -0.1178 -0.6245  0.1348
 1199poe    c23 5742   1.465   6.677   6.963 -0.3619 -0.4244  0.2135
 1199poe    c23 5743   1.586   6.583   6.977  0.1606  0.3249  0.8388
 1199poe     o2 5744   1.702   6.657   6.944 -0.0511  0.2865 -0.0126
 1199poe    c23 5745   1.820   6.581   6.951 -0.1487  0.1411  0.0727
 1199poe    c23 5746   1.925   6.680   6.896  0.0583 -0.1127  0.0089
 1199poe     o2 5747   1.906   6.717   6.762  0.5536  0.0299 -0.0234
 1199poe    c31 5748   1.962   6.844   6.739  0.0639  0.1326 -0.6826
 1200poe    c31 5749   2.860   0.412   5.641 -0.3550 -0.1850  0.0631
 1200poe     o2 5750   2.940   0.335   5.553 -0.0933  0.0231  0.1180
 1200poe    c23 5751   3.025   0.249   5.624  0.3679  0.6921  0.3877
 1200poe    c23 5752   3.103   0.150   5.536 -0.8253  0.3553 -0.3052
 1200poe     o2 5753   3.199   0.212   5.453 -0.4723  0.2853  0.0530
 1200poe    c23 5754   3.254   0.114   5.367  0.4871  0.7357  0.1328
 1200poe    c23 5755   3.343   0.194   5.271  0.5723 -0.3295 -0.6946
 1200poe     o2 5756   3.297   0.304   5.195  0.1036  0.2110  0.3550
 1200poe    c23 5757   3.409   0.378   5.151  0.0424 -0.2329 -0.5611
 1200poe    c23 5758   3.358   0.512   5.095  0.0195 -0.1085 -0.2439
 1200poe     o2 5759   3.233   0.553   5.147  0.2166 -0.2078  0.3194
 1200poe    c31 5760   3.204   0.689   5.119  0.0037 -0.3552 -0.1872
 1201poe    c31 5761   1.576   5.157   4.223 -0.0599  0.0082  0.7247
 1201poe     o2 5762   1.511   5.074   4.318 -0.2098  0.3218  0.8972
 1201poe    c23 5763   1.592   4.961   4.341 -0.0922  0.2900  0.3412
 1201poe    c23 5764   1.536   4.848   4.430 -0.1121 -0.0281 -0.0695
 1201poe     o2 5765   1.400   4.823   4.406 -0.0898 -0.2420  0.0296
 1201poe    c23 5766   1.352   4.704   4.466 -0.1091 -0.3104 -0.1197
 1201poe    c23 5767   1.261   4.723   4.588 -0.6116 -0.9442 -0.3929
 1201poe     o2 5768   1.164   4.823   4.566  0.1174 -0.0943  0.2053
 1201poe    c23 5769   1.050   4.817   4.649 -0.0476  0.4025  0.0164
 1201poe    c23 5770   0.930   4.881   4.577 -0.0222  0.2944 -0.1227
 1201poe     o2 5771   0.960   5.014   4.541  0.2931  0.2206 -0.1293
 1201poe    c31 5772   0.844   5.094   4.543 -0.1416 -0.4120  0.3180
 1202poe    c31 5773   4.138   3.276   4.521 -0.4087  0.0086  0.0006
 1202poe     o2 5774   4.229   3.305   4.416 -0.4401 -1.0826 -0.3337
 1202poe    c23 5775   4.161   3.324   4.295 -0.7053  0.4862  0.0376
 1202poe    c23 5776   4.261   3.344   4.180 -0.8133 -0.3405 -0.2116
 1202poe     o2 5777   4.338   3.226   4.167 -0.2567 -0.0092  0.0341
 1202poe    c23 5778   4.429   3.235   4.060 -0.1578  0.3274  0.1441
 1202poe    c23 5779   4.500   3.098   4.063 -0.0266  0.3852 -0.3030
 1202poe     o2 5780   4.542   3.079   4.196 -0.0359  0.2365 -0.3202
 1202poe    c23 5781   4.616   2.961   4.218  0.0263  0.3902  0.3025
 1202poe    c23 5782   4.687   2.967   4.355  0.1318  0.0410  0.2627
 1202poe     o2 5783   4.599   3.025   4.448 -0.4610  0.0250 -0.2826
 1202poe    c31 5784   4.665   3.065   4.566 -0.4090 -0.4668 -0.1422
 1203poe    c31 5785   3.561   1.485   2.268  0.2422  0.1728 -0.2707
 1203poe     o2 5786   3.580   1.618   2.310 -0.4611  0.1479  0.1307
 1203poe    c23 5787   3.713   1.649   2.342 -0.2899  0.0292 -0.4565
 1203poe    c23 5788   3.720   1.771   2.436  0.0378  0.1104 -0.5825
 1203poe     o2 5789   3.711   1.894   2.367  0.0649  0.0407 -0.7106
 1203poe    c23 5790   3.729   1.999   2.460  0.8782 -0.3658 -0.3961
 1203poe    c23 5791   3.675   2.125   2.390  0.3623 -0.1115  0.4472
 1203poe     o2 5792   3.555   2.106   2.319  0.6141 -0.1011  0.0116
 1203poe    c23 5793   3.507   2.229   2.269  0.2079 -0.2344  0.0706
 1203poe    c23 5794   3.391   2.185   2.178  0.0322 -0.1686  0.2612
 1203poe     o2 5795   3.436   2.083   2.092 -0.1847 -0.2379  0.2284
 1203poe    c31 5796   3.335   2.058   1.997 -0.1853 -0.3693  0.2629
 1204poe    c31 5797   2.617   3.210   5.427  0.7648  0.0693 -0.2186
 1204poe     o2 5798   2.619   3.218   5.286  0.7131  0.1420 -0.2150
 1204poe    c23 5799   2.497   3.264   5.231  0.3700 -0.5865 -0.0765
 1204poe    c23 5800   2.494   3.258   5.078 -0.2202 -0.7194 -0.0619
 1204poe     o2 5801   2.590   3.340   5.015 -0.4449 -0.2285  0.2299
 1204poe    c23 5802   2.572   3.329   4.875 -0.1754  0.0295  0.1744
 1204poe    c23 5803   2.668   3.421   4.797 -0.0202  0.0088  0.3400
 1204poe     o2 5804   2.793   3.408   4.860  0.0467  0.1111  0.2295
 1204poe    c23 5805   2.900   3.468   4.790  0.0043 -0.6751 -0.5312
 1204poe    c23 5806   3.027   3.417   4.861  0.1277 -0.0345 -0.2812
 1204poe     o2 5807   3.006   3.420   5.000 -0.0329 -1.0712 -0.2751
 1204poe    c31 5808   3.112   3.352   5.064 -0.0396 -0.6417  0.2015
 1205poe    c31 5809   5.845   2.509   6.760  0.6803  0.2517 -0.5031
 1205poe     o2 5810   5.893   2.613   6.842  0.0217  0.1392  0.0308
 1205poe    c23 5811   6.034   2.605   6.842  0.0204  0.0858  0.3316
 1205poe    c23 5812   6.070   2.721   6.936 -0.2553  0.3383  0.1281
 1205poe     o2 5813   5.993   2.837   6.913 -0.3648  0.3235  0.4254
 1205poe    c23 5814   6.042   2.913   6.805 -0.7516  0.1447  0.1185
 1205poe    c23 5815   5.992   3.056   6.835  0.1046  0.3663  0.5445
 1205poe     o2 5816   5.856   3.058   6.872  0.0350 -0.1657  0.3187
 1205poe    c23 5817   5.813   3.186   6.911  0.3735 -0.1473  0.6296
 1205poe    c23 5818   5.663   3.176   6.942  0.2465  0.2983  0.1735
 1205poe     o2 5819   5.639   3.085   7.047  0.1594  0.0705 -0.0427
 1205poe    c31 5820   5.506   3.055   7.084 -0.1112 -0.1210 -1.1474
 1206poe    c31 5821   5.826   0.300   5.761 -0.3552 -0.2198  0.5404
 1206poe     o2 5822   5.923   0.310   5.862  0.2331  0.3756 -0.0752
 1206poe    c23 5823   5.976   0.440   5.870 -0.0720  0.4729  0.3641
 1206poe    c23 5824   6.113   0.412   5.934  0.0653  0.3758  0.0251
 1206poe     o2 5825   6.202   0.323   5.870  0.6995  1.2789 -0.3705
 1206poe    c23 5826   6.311   0.285   5.951  0.4149 -0.1148 -0.6288
 1206poe    c23 5827   6.387   0.157   5.911  0.6021 -0.1574 -0.1461
 1206poe     o2 5828   6.304   0.047   5.944 -0.0155  0.1600 -0.6124
 1206poe    c23 5829   6.349  -0.078   5.897 -0.0149 -0.0896  0.0469
 1206poe    c23 5830   6.266  -0.196   5.953 -0.1724  0.0110  0.0248
 1206poe     o2 5831   6.135  -0.147   5.939 -0.1857 -0.1828 -0.5491
 1206poe    c31 5832   6.033  -0.223   6.000  0.0507 -0.6044 -0.6746
 1207poe    c31 5833   3.311   6.207   2.602 -0.2883  0.2557  0.1893
 1207poe     o2 5834   3.199   6.142   2.547  0.0683  0.3822 -0.7060
 1207poe    c23 5835   3.214   6.006   2.579  0.1926  0.5651  0.0315
 1207poe    c23 5836   3.117   5.919   2.497  0.0251  0.6172  0.1756
 1207poe     o2 5837   3.133   5.935   2.358  0.6794 -0.7568  0.0730
 1207poe    c23 5838   3.044   5.853   2.286  0.0755  0.3042 -0.4121
 1207poe    c23 5839   2.924   5.924   2.220 -0.1219 -0.2046 -0.5998
 1207poe     o2 5840   2.971   6.017   2.126 -0.1722  0.3411 -0.0863
 1207poe    c23 5841   2.871   6.116   2.114 -0.1928  0.2965 -0.2921
 1207poe    c23 5842   2.939   6.227   2.031  0.2305 -0.1167 -0.5014
 1207poe     o2 5843   2.963   6.208   1.894  0.5190 -0.2593 -0.4320
 1207poe    c31 5844   3.068   6.300   1.870  0.2568  0.0873 -0.2573
 1208poe    c31 5845   2.415   2.018   3.300 -0.0119  0.6523 -0.6757
 1208poe     o2 5846   2.358   1.896   3.257 -0.7363  0.6627  0.2198
 1208poe    c23 5847   2.383   1.795   3.352  0.4230  0.0345 -0.7279
 1208poe    c23 5848   2.307   1.672   3.297 -0.1043  0.4631 -0.9651
 1208poe     o2 5849   2.183   1.726   3.258 -0.4112  0.3613 -0.1460
 1208poe    c23 5850   2.071   1.648   3.221 -0.1576 -0.0910  0.0312
 1208poe    c23 5851   2.089   1.535   3.119 -0.2677  0.1038 -0.2056
 1208poe     o2 5852   2.123   1.594   2.996 -0.2889  0.4032 -0.0691
 1208poe    c23 5853   2.175   1.497   2.907  0.0710 -0.1665  0.7418
 1208poe    c23 5854   2.214   1.564   2.774 -0.3409  0.0870  0.7452
 1208poe     o2 5855   2.310   1.666   2.790 -0.2890  0.1444  0.1004
 1208poe    c31 5856   2.333   1.745   2.675  0.0795 -0.2655 -0.1081
 1209poe    c31 5857   2.478   4.580   3.157  0.5994 -0.3212 -0.3988
 1209poe     o2 5858   2.351   4.526   3.184  0.3540  0.3514 -0.1807
 1209poe    c23 5859   2.268   4.557   3.074 -0.1828 -0.1056  0.0875
 1209poe    c23 5860   2.132   4.488   3.096 -0.0715 -0.2514  0.3181
 1209poe     o2 5861   2.157   4.350   3.090  0.4413 -0.1713  0.5702
 1209poe    c23 5862   2.033   4.286   3.072  0.2427  0.3390  0.0901
 1209poe    c23 5863   2.061   4.135   3.061  0.4777  0.3872  0.0097
 1209poe     o2 5864   2.132   4.087   3.173  0.2533 -0.1173 -0.0586
 1209poe    c23 5865   2.143   3.946   3.168  0.7970 -0.0648 -0.5124
 1209poe    c23 5866   2.234   3.908   3.287  0.1179 -0.4164 -0.1021
 1209poe     o2 5867   2.331   4.009   3.308  0.1863 -0.2418 -1.2005
 1209poe    c31 5868   2.441   3.954   3.376 -0.5677 -0.2991  0.0063
 1210poe    c31 5869   1.981   5.415   0.517  0.2965 -0.0577  0.5083
 1210poe     o2 5870   1.921   5.541   0.497  1.0471  0.2572  0.1729
 1210poe    c23 5871   1.962   5.619   0.388 -0.0930  0.0674 -0.4124
 1210poe    c23 5872   1.969   5.768   0.426  0.5363  0.1566 -0.8530
 1210poe     o2 5873   2.084   5.797   0.503  0.2286  0.5677 -0.5379
 1210poe    c23 5874   2.085   5.937   0.520 -0.1256  0.5537 -0.4097
 1210poe    c23 5875   2.198   5.978   0.615 -0.0829  0.0581 -0.2460
 1210poe     o2 5876   2.244   6.105   0.576 -0.0905  0.0083 -0.4223
 1210poe    c23 5877   2.380   6.136   0.599 -0.1123 -0.0410 -0.2273
 1210poe    c23 5878   2.399   6.281   0.551  0.2026 -0.0000  0.0205
 1210poe     o2 5879   2.346   6.383   0.633  0.3103  0.1796 -0.1337
 1210poe    c31 5880   2.345   6.499   0.553 -0.3297  0.5234  0.3708
 1211poe    c31 5881   2.560   5.056   4.929  0.5107 -0.0998  0.4627
 1211poe     o2 5882   2.474   5.144   4.860  0.5858 -0.1493  0.3046
 1211poe    c23 5883   2.372   5.075   4.793  0.4287 -0.0224  0.4108
 1211poe    c23 5884   2.384   5.108   4.643 -0.1640 -0.2421  0.3100
 1211poe     o2 5885   2.380   5.249   4.632  0.5614 -0.2569 -0.2251
 1211poe    c23 5886   2.494   5.304   4.569  0.6699 -0.1999  0.0210
 1211poe    c23 5887   2.477   5.454   4.539 -0.6889 -0.3985 -0.2562
 1211poe     o2 5888   2.432   5.527   4.651  0.5295  0.1730 -0.1337
 1211poe    c23 5889   2.502   5.650   4.656  0.4596  0.1926  0.4245
 1211poe    c23 5890   2.494   5.706   4.799  0.5714  0.1225  0.4580
 1211poe     o2 5891   2.363   5.729   4.845  0.2313 -0.1980 -0.3480
 1211poe    c31 5892   2.369   5.729   4.985  0.5657 -0.3937 -0.3602
 1212poe    c31 5893   5.265   4.548   4.733  0.5764 -0.7082 -0.2116
 1212poe     o2 5894   5.303   4.573   4.866 -0.2309 -0.5352 -0.0071
 1212poe    c23 5895   5.192   4.624   4.936 -0.0586  0.2303 -0.2825
 1212poe    c23 5896   5.248   4.695   5.060  0.4467  0.0019 -0.3798
 1212poe     o2 5897   5.347   4.613   5.120  0.6401  0.4568 -0.0705
 1212poe    c23 5898   5.401   4.663   5.240 -0.2578 -0.1256  0.5910
 1212poe    c23 5899   5.552   4.653   5.214 -0.1355  0.5390  1.0262
 1212poe     o2 5900   5.566   4.694   5.080 -0.4757 -1.0249  0.4923
 1212poe    c23 5901   5.698   4.659   5.046 -0.4072 -0.1750 -0.1628
 1212poe    c23 5902   5.712   4.680   4.894 -0.1486 -0.3888 -0.1704
 1212poe     o2 5903   5.603   4.628   4.821 -0.1280  0.2832 -0.6950
 1212poe    c31 5904   5.636   4.632   4.684  0.3099  0.2964 -0.5894
 1213poe    c31 5905   6.415   1.337   5.882  0.7095  0.6328 -0.6175
 1213poe     o2 5906   6.357   1.395   5.767  0.0855  0.4018 -0.4242
 1213poe    c23 5907   6.218   1.376   5.757  0.1011  0.2503 -0.3626
 1213poe    c23 5908   6.177   1.249   5.679  0.1663  0.0196 -0.0240
 1213poe     o2 5909   6.216   1.260   5.544  0.7173 -0.3826  0.0976
 1213poe    c23 5910   6.233   1.134   5.483  0.0294 -0.7328  0.6216
 1213poe    c23 5911   6.285   1.154   5.339 -0.3722  0.1880  0.5959
 1213poe     o2 5912   6.380   1.258   5.341  0.2259 -0.3350 -0.1837
 1213poe    c23 5913   6.432   1.274   5.211 -0.5948  0.1557 -0.4616
 1213poe    c23 5914   6.537   1.387   5.208 -0.0618 -0.3434 -0.9079
 1213poe     o2 5915   6.470   1.485   5.284  0.4810 -0.1332 -0.6957
 1213poe    c31 5916   6.532   1.612   5.283  0.0447  0.0865 -0.2804
 1214poe    c31 5917   1.353   1.482   6.171  0.2980 -0.1123 -0.0545
 1214poe     o2 5918   1.368   1.606   6.105 -0.1354 -0.2020 -0.3285
 1214poe    c23 5919   1.352   1.717   6.191  0.6077 -0.0945 -0.3192
 1214poe    c23 5920   1.351   1.847   6.107  0.2048  0.1096 -0.0031
 1214poe     o2 5921   1.476   1.848   6.042  0.4145 -0.2358  0.3870
 1214poe    c23 5922   1.488   1.941   5.936 -0.2065 -0.2125  0.3298
 1214poe    c23 5923   1.609   1.916   5.844 -0.1584  0.6452  0.1556
 1214poe     o2 5924   1.726   1.916   5.923  0.0458 -0.3239 -0.1360
 1214poe    c23 5925   1.843   1.912   5.843  0.0325  0.0332 -0.1755
 1214poe    c23 5926   1.944   1.850   5.941  0.2138  0.0782 -0.3341
 1214poe     o2 5927   1.880   1.746   6.011 -0.4096  0.3083 -0.5589
 1214poe    c31 5928   1.968   1.659   6.079 -0.1514  0.3737 -0.8090
 1215poe    c31 5929   5.297   3.098   1.301 -0.0947 -0.5327 -0.3539
 1215poe     o2 5930   5.306   2.964   1.344 -0.1930 -0.5394 -0.3554
 1215poe    c23 5931   5.281   2.883   1.231  0.3583 -0.2141 -0.7160
 1215poe    c23 5932   5.337   2.745   1.269  0.1632 -0.1388 -0.1421
 1215poe     o2 5933   5.292   2.712   1.398  0.2102 -0.1340 -0.1243
 1215poe    c23 5934   5.377   2.620   1.462 -0.2096 -0.1325  0.4452
 1215poe    c23 5935   5.301   2.575   1.588  0.0463 -0.2496  0.5596
 1215poe     o2 5936   5.271   2.692   1.660  0.7250 -0.1326  0.6554
 1215poe    c23 5937   5.274   2.672   1.799 -0.0426  0.1341  0.7139
 1215poe    c23 5938   5.406   2.673   1.878  0.5197 -0.3520 -0.2011
 1215poe     o2 5939   5.488   2.559   1.863  0.3114 -0.5390  0.0493
 1215poe    c31 5940   5.598   2.590   1.779  0.2478 -0.2271  0.0792
 1216poe    c31 5941   4.206   6.026   2.803 -0.2823  0.1869  0.0409
 1216poe     o2 5942   4.144   6.020   2.930  0.1591 -0.4189  0.2305
 1216poe    c23 5943   4.171   6.134   3.007 -0.0478 -0.5270  0.4641
 1216poe    c23 5944   4.114   6.129   3.150 -0.0811  0.3976  0.4888
 1216poe     o2 5945   3.977   6.102   3.131 -0.0553  0.8152 -0.3254
 1216poe    c23 5946   3.914   6.106   3.257  0.3026 -0.0377 -0.1094
 1216poe    c23 5947   3.771   6.054   3.236  0.3337 -0.1774  0.0299
 1216poe     o2 5948   3.791   5.945   3.148 -0.3039  0.0519 -0.4092
 1216poe    c23 5949   3.672   5.871   3.132 -0.2556 -0.2805  0.6658
 1216poe    c23 5950   3.694   5.721   3.156 -0.1442 -0.3358  0.2316
 1216poe     o2 5951   3.789   5.672   3.065 -0.0950 -0.1283  0.1719
 1216poe    c31 5952   3.813   5.533   3.068  0.1073 -0.0871  0.5505
 1217poe    c31 5953   5.260   5.610   0.898 -0.4296  0.0866 -0.1999
 1217poe     o2 5954   5.217   5.504   0.979  0.0307 -0.1943 -0.3248
 1217poe    c23 5955   5.239   5.379   0.917 -0.7884  0.0058 -1.0287
 1217poe    c23 5956   5.125   5.288   0.964 -0.7073  0.2430 -0.3611
 1217poe     o2 5957   5.143   5.268   1.103 -0.1893 -0.5680 -0.5364
 1217poe    c23 5958   5.050   5.181   1.162 -0.7572 -0.0026 -0.5860
 1217poe    c23 5959   4.978   5.243   1.283  0.3816  0.2355 -0.0203
 1217poe     o2 5960   5.059   5.323   1.367  0.4529  0.6899 -0.5157
 1217poe    c23 5961   4.981   5.377   1.471  0.4910 -0.5159  0.1589
 1217poe    c23 5962   5.066   5.405   1.597  0.0886  0.3822  0.2439
 1217poe     o2 5963   5.179   5.463   1.536 -0.1046  0.3931 -0.1068
 1217poe    c31 5964   5.252   5.525   1.640 -0.9661  0.1912  0.6285
 1218poe    c31 5965   2.664   4.986   3.789 -0.0672  0.4288  0.5386
 1218poe     o2 5966   2.667   4.874   3.874 -0.4928  0.1315  0.1663
 1218poe    c23 5967   2.551   4.795   3.861 -0.3103 -0.1237  0.0898
 1218poe    c23 5968   2.543   4.692   3.975 -0.0681 -0.5333 -0.2568
 1218poe     o2 5969   2.559   4.764   4.096 -0.6626 -0.4794 -0.2075
 1218poe    c23 5970   2.541   4.677   4.205  0.7713  0.1136  0.5293
 1218poe    c23 5971   2.559   4.733   4.347  0.0228 -0.4691  0.8635
 1218poe     o2 5972   2.678   4.807   4.331 -0.5483  0.2617 -0.0402
 1218poe    c23 5973   2.713   4.857   4.457  0.2234  0.1948 -0.2242
 1218poe    c23 5974   2.831   4.956   4.464  0.0477  0.3976 -0.1205
 1218poe     o2 5975   2.809   5.073   4.389 -0.4069  0.3465 -0.0700
 1218poe    c31 5976   2.919   5.161   4.400 -0.3195  0.3020 -0.5596
 1219poe    c31 5977   6.301   2.670   0.687  0.6220  0.0708 -0.1722
 1219poe     o2 5978   6.271   2.803   0.725 -0.1843  0.0280 -0.6298
 1219poe    c23 5979   6.384   2.886   0.709 -0.5079  0.5353 -0.2846
 1219poe    c23 5980   6.368   3.000   0.811  0.6633  0.0399  0.4775
 1219poe     o2 5981   6.232   3.036   0.798  0.4404 -0.7795  0.4832
 1219poe    c23 5982   6.169   3.102   0.906  0.2165  0.0708 -0.1548
 1219poe    c23 5983   6.043   3.159   0.837 -0.4898 -0.2692  0.8314
 1219poe     o2 5984   5.975   3.051   0.777 -0.3285  0.2173 -0.2377
 1219poe    c23 5985   5.862   3.103   0.711 -0.4995 -0.3041 -0.3547
 1219poe    c23 5986   5.762   2.992   0.673 -0.8125  0.0720 -0.6395
 1219poe     o2 5987   5.808   2.910   0.568  0.5614 -0.1753  0.1321
 1219poe    c31 5988   5.718   2.805   0.541 -0.1182  0.2435  0.6993
 1220poe    c31 5989   0.029   1.702   4.342 -0.1481  0.2805 -0.3896
 1220poe     o2 5990  -0.104   1.661   4.363  0.1452 -0.4319  0.1127
 1220poe    c23 5991  -0.136   1.561   4.269 -0.0094  0.4503 -0.7890
 1220poe    c23 5992  -0.285   1.528   4.287  0.1748  0.2586  0.4987
 1220poe     o2 5993  -0.320   1.484   4.416 -0.1776  0.4537  0.4724
 1220poe    c23 5994  -0.420   1.385   4.406  0.0787  0.1972  0.4234
 1220poe    c23 5995  -0.444   1.321   4.544  0.5826 -0.0301  0.4106
 1220poe     o2 5996  -0.471   1.425   4.636 -0.4304  0.1467 -0.0672
 1220poe    c23 5997  -0.414   1.383   4.758  0.1874 -0.0284 -0.4123
 1220poe    c23 5998  -0.468   1.490   4.855 -0.2188 -0.3878 -0.2425
 1220poe     o2 5999  -0.447   1.619   4.802 -0.2653 -0.2618  0.0438
 1220poe    c31 6000  -0.481   1.729   4.883 -0.2521  0.3240 -0.7443
 1221poe    c31 6001   1.322   4.370   0.575  0.1276  0.2205  0.0923
 1221poe     o2 6002   1.353   4.480   0.492  0.3275  0.2491  0.2058
 1221poe    c23 6003   1.270   4.590   0.464  0.1186  0.1532  0.4512
 1221poe    c23 6004   1.367   4.702   0.424 -0.0273  0.1814  0.1773
 1221poe     o2 6005   1.470   4.654   0.340  0.0928  0.0351  0.4064
 1221poe    c23 6006   1.552   4.758   0.291 -0.4449  0.3715  0.1990
 1221poe    c23 6007   1.624   4.732   0.157  0.2319  0.1714  0.5928
 1221poe     o2 6008   1.693   4.610   0.166 -0.1978 -0.0887  0.3891
 1221poe    c23 6009   1.734   4.567   0.038 -0.5519  0.0430  0.2309
 1221poe    c23 6010   1.813   4.435   0.050 -0.2043  0.2352  0.0716
 1221poe     o2 6011   1.736   4.342   0.123 -0.0203  0.3537  0.4228
 1221poe    c31 6012   1.807   4.220   0.119  0.6617  0.7663 -0.4283
 1222poe    c31 6013   3.256   0.775   6.000  0.0166 -0.4183 -0.2425
 1222poe     o2 6014   3.350   0.736   6.097 -0.2002 -0.8149 -0.1886
 1222poe    c23 6015   3.337   0.831   6.200 -0.3567 -0.6320 -0.3772
 1222poe    c23 6016   3.388   0.776   6.335  0.2848 -0.1975 -0.4392
 1222poe     o2 6017   3.521   0.737   6.311  0.4940  0.2998 -0.1187
 1222poe    c23 6018   3.587   0.655   6.405  0.0143  0.2387  0.1683
 1222poe    c23 6019   3.664   0.558   6.312 -0.4182  0.2202 -0.1713
 1222poe     o2 6020   3.563   0.484   6.247 -0.1909 -0.4478  0.2372
 1222poe    c23 6021   3.604   0.373   6.170  0.1722 -0.0954 -0.0786
 1222poe    c23 6022   3.472   0.324   6.106 -0.0234  0.1489  0.1358
 1222poe     o2 6023   3.414   0.442   6.056 -0.0239  0.2212  0.3038
 1222poe    c31 6024   3.315   0.401   5.965 -0.2959  0.3636  0.5351
 1223poe    c31 6025   2.763   1.867   3.324 -0.1462  0.0153  0.1944
 1223poe     o2 6026   2.897   1.871   3.368  0.0330 -0.3392 -0.3122
 1223poe    c23 6027   2.905   1.822   3.500  0.1722  0.6516  0.0576
 1223poe    c23 6028   3.044   1.827   3.566  0.4153 -0.6122 -0.3304
 1223poe     o2 6029   3.131   1.774   3.469  0.2686 -0.5639 -0.4870
 1223poe    c23 6030   3.262   1.780   3.520  0.1047 -0.9688 -0.0165
 1223poe    c23 6031   3.357   1.678   3.455  0.4311 -0.3653 -0.4960
 1223poe     o2 6032   3.338   1.718   3.321 -0.6835 -0.3951 -0.3516
 1223poe    c23 6033   3.427   1.644   3.241  0.4857  0.6010  0.0055
 1223poe    c23 6034   3.368   1.640   3.099  0.4495  0.4458  0.0255
 1223poe     o2 6035   3.228   1.628   3.117  0.3960  0.3318 -0.4450
 1223poe    c31 6036   3.165   1.597   2.995 -0.5614 -0.0076  0.1294
 1224poe    c31 6037   3.187   4.637   5.273  0.8231  0.3355  1.1986
 1224poe     o2 6038   3.207   4.773   5.243  0.1751  0.1673 -0.0750
 1224poe    c23 6039   3.338   4.824   5.245  0.1113  0.3486 -0.4386
 1224poe    c23 6040   3.331   4.977   5.229  0.3438  0.3705 -0.3327
 1224poe     o2 6041   3.206   5.023   5.274  0.2894 -0.0616 -0.0287
 1224poe    c23 6042   3.181   5.158   5.240  0.7531 -0.0346 -0.2733
 1224poe    c23 6043   3.065   5.221   5.320  0.0858 -0.5326 -0.8389
 1224poe     o2 6044   2.943   5.162   5.278 -0.2758  0.3181 -1.0111
 1224poe    c23 6045   2.834   5.243   5.316 -0.0729  0.1815 -0.1087
 1224poe    c23 6046   2.699   5.170   5.310  0.1853 -0.3587  0.5816
 1224poe     o2 6047   2.681   5.066   5.404 -0.2402 -0.1544  0.7301
 1224poe    c31 6048   2.576   4.978   5.373  0.0589 -0.1863 -0.2386
 1225poe    c31 6049   6.344   0.837   3.236 -0.8573 -0.4254 -0.3825
 1225poe     o2 6050   6.236   0.927   3.234  0.1058  0.7688 -0.1069
 1225poe    c23 6051   6.235   0.958   3.097  0.0766 -1.0283 -0.5376
 1225poe    c23 6052   6.102   1.023   3.054  0.7592  0.3152 -0.6848
 1225poe     o2 6053   6.086   1.131   3.143 -0.0926  0.1917 -0.6807
 1225poe    c23 6054   5.953   1.175   3.164  0.1450  0.5852  0.0162
 1225poe    c23 6055   5.946   1.249   3.299  0.4987 -0.0491  0.3889
 1225poe     o2 6056   5.998   1.181   3.411  0.2768 -0.3064  0.3358
 1225poe    c23 6057   5.990   1.253   3.533  0.0791  0.0110  0.1386
 1225poe    c23 6058   6.100   1.229   3.638  0.1869  0.3532  0.1058
 1225poe     o2 6059   6.098   1.103   3.701  0.3151  0.2236 -0.1471
 1225poe    c31 6060   6.192   1.104   3.806  0.2311  0.0508 -0.0702
 1226poe    c31 6061   2.743   3.162   0.523 -0.5987  0.1597 -0.3518
 1226poe     o2 6062   2.719   3.135   0.659 -0.0677  0.5552 -0.1761
 1226poe    c23 6063   2.781   3.228   0.745  0.2642  0.4520 -0.3005
 1226poe    c23 6064   2.767   3.190   0.893  0.3772  0.2787 -0.3338
 1226poe     o2 6065   2.638   3.207   0.947  0.3915 -0.0771 -0.1865
 1226poe    c23 6066   2.637   3.160   1.080 -0.0521  0.1962 -0.0920
 1226poe    c23 6067   2.498   3.174   1.145 -0.0930 -0.0131 -0.1350
 1226poe     o2 6068   2.410   3.137   1.040  0.0429 -0.0650 -0.2321
 1226poe    c23 6069   2.275   3.165   1.071  0.1254  0.1650 -0.0715
 1226poe    c23 6070   2.186   3.135   0.949 -0.0102  0.0935  0.0432
 1226poe     o2 6071   2.232   3.189   0.827  0.2762  0.1818  0.1886
 1226poe    c31 6072   2.119   3.201   0.743  0.1104 -1.2401  0.1699
 1227poe    c31 6073   4.182   5.767   5.841  0.7359 -0.2255  0.2288
 1227poe     o2 6074   4.056   5.762   5.905  0.4125  0.0087 -0.3697
 1227poe    c23 6075   3.961   5.814   5.816 -0.2501  0.0805  0.3691
 1227poe    c23 6076   3.841   5.852   5.905  0.1375 -0.0269  0.9466
 1227poe     o2 6077   3.804   5.738   5.979  0.0703 -0.5376  0.1440
 1227poe    c23 6078   3.715   5.763   6.085  0.1495  0.0513  0.0733
 1227poe    c23 6079   3.687   5.639   6.172  0.1516  0.2114  0.3036
 1227poe     o2 6080   3.800   5.584   6.237  0.1683  0.0935  0.1755
 1227poe    c23 6081   3.786   5.453   6.287 -0.5754  0.0771 -0.0542
 1227poe    c23 6082   3.912   5.408   6.365 -0.4372  0.1820 -0.2162
 1227poe     o2 6083   4.027   5.384   6.287 -0.1994  0.0328  0.1781
 1227poe    c31 6084   4.133   5.330   6.361  0.0950  0.5765  0.1603
 1228poe    c31 6085   2.059   5.432   2.853  0.3463  0.2240 -0.1297
 1228poe     o2 6086   1.926   5.401   2.885  0.4050 -0.0508 -0.1533
 1228poe    c23 6087   1.904   5.271   2.834 -0.1910 -0.2209  0.5074
 1228poe    c23 6088   1.756   5.240   2.864 -0.2285 -0.6497 -0.0946
 1228poe     o2 6089   1.743   5.276   3.000 -0.1535  0.1851 -0.3023
 1228poe    c23 6090   1.607   5.283   3.035 -0.0956  0.9843 -0.2188
 1228poe    c23 6091   1.628   5.294   3.187  0.5044 -0.2243 -0.2012
 1228poe     o2 6092   1.668   5.428   3.200  0.3843 -0.1598 -0.4833
 1228poe    c23 6093   1.657   5.478   3.331  0.9703 -0.7318 -0.2074
 1228poe    c23 6094   1.737   5.603   3.374  0.1798 -0.4889  0.5997
 1228poe     o2 6095   1.876   5.590   3.356  0.1135  0.1082 -0.4168
 1228poe    c31 6096   1.923   5.698   3.433  0.2371 -0.3354  0.1298
 1229poe    c31 6097   0.127   2.572   5.136 -0.6223 -0.0930  0.0724
 1229poe     o2 6098   0.017   2.496   5.094 -0.0846 -0.6790 -0.2839
 1229poe    c23 6099  -0.103   2.550   5.145  0.4132  0.0384  0.1413
 1229poe    c23 6100  -0.206   2.437   5.125 -0.1553  0.4982  0.4566
 1229poe     o2 6101  -0.192   2.379   4.997  0.4311 -0.0156  0.7527
 1229poe    c23 6102  -0.278   2.269   4.981  0.2238  0.2360  0.1188
 1229poe    c23 6103  -0.263   2.200   4.844  0.2267  0.1666  0.1540
 1229poe     o2 6104  -0.130   2.160   4.820  0.5240  1.1837  0.0575
 1229poe    c23 6105  -0.121   2.110   4.688 -0.2308  0.1892  0.3701
 1229poe    c23 6106  -0.001   2.021   4.652 -0.3662  0.1691 -0.0405
 1229poe     o2 6107   0.114   2.102   4.637 -0.0229 -0.4089 -0.5475
 1229poe    c31 6108   0.225   2.021   4.604  0.4810  0.1074 -0.1335
 1230poe    c31 6109   3.052   1.021   4.270  0.2549  0.0385 -0.6369
 1230poe     o2 6110   2.957   0.958   4.188 -0.0292 -0.6301  0.1966
 1230poe    c23 6111   2.846   0.915   4.264 -0.6763  0.6170 -0.0098
 1230poe    c23 6112   2.757   0.838   4.164 -0.1105  0.1160 -0.1346
 1230poe     o2 6113   2.728   0.929   4.060 -0.6342  0.0131 -0.0816
 1230poe    c23 6114   2.657   0.858   3.960 -0.4516 -0.7955  0.3560
 1230poe    c23 6115   2.606   0.959   3.856 -0.2927 -0.9765  0.1010
 1230poe     o2 6116   2.698   1.034   3.781 -0.5633 -0.1301  0.5964
 1230poe    c23 6117   2.650   1.066   3.652  0.0532  0.4148  0.4985
 1230poe    c23 6118   2.766   1.104   3.558  0.0065 -0.1143  0.2274
 1230poe     o2 6119   2.844   0.987   3.550 -0.4077 -0.3606 -0.3051
 1230poe    c31 6120   2.966   1.008   3.483 -0.4819  0.6972 -0.1222
 1231poe    c31 6121   1.406   3.952   0.299 -0.1240 -0.5060  0.4911
 1231poe     o2 6122   1.341   3.829   0.274 -0.0047 -0.5246  0.2672
 1231poe    c23 6123   1.255   3.841   0.163 -0.0426  0.1145  0.3635
 1231poe    c23 6124   1.176   3.712   0.134 -0.2039  0.2255  0.3051
 1231poe     o2 6125   1.146   3.678   0.267  0.3018 -0.2929  0.2915
 1231poe    c23 6126   1.058   3.568   0.262 -0.4094  0.2748  0.1072
 1231poe    c23 6127   1.027   3.563   0.413 -0.2159  0.3852  0.1511
 1231poe     o2 6128   1.136   3.557   0.502 -0.1034  0.0681 -0.0055
 1231poe    c23 6129   1.073   3.535   0.626 -0.3788 -0.7058 -0.2790
 1231poe    c23 6130   1.184   3.484   0.719 -0.2610  0.0939  0.0276
 1231poe     o2 6131   1.262   3.596   0.754  0.0511 -0.0571 -0.1766
 1231poe    c31 6132   1.369   3.550   0.833 -0.3414 -0.4999  0.0950
 1232poe    c31 6133   6.105   0.168   3.584  0.3323 -0.0807  0.3711
 1232poe     o2 6134   5.990   0.130   3.657  0.4338 -0.6235  0.2476
 1232poe    c23 6135   6.027   0.050   3.766 -0.0114 -0.5517  0.4550
 1232poe    c23 6136   5.909   0.035   3.863 -0.0543  0.1785  0.5207
 1232poe     o2 6137   5.790   0.020   3.788  0.0328  0.3402  0.3502
 1232poe    c23 6138   5.697  -0.040   3.876  0.0177 -0.2641 -0.0717
 1232poe    c23 6139   5.556   0.006   3.832  0.0278 -0.1717 -0.0060
 1232poe     o2 6140   5.555   0.146   3.849  0.1843 -0.1442 -0.2261
 1232poe    c23 6141   5.426   0.195   3.822  0.1272 -0.0880  0.1407
 1232poe    c23 6142   5.413   0.349   3.826  0.3222 -0.0754  0.2908
 1232poe     o2 6143   5.474   0.409   3.714 -0.3068  0.1476  0.0654
 1232poe    c31 6144   5.464   0.549   3.732 -0.1016  0.2382 -0.5167
 1233poe    c31 6145   3.342   5.807   6.572 -0.5840 -0.2382 -0.2204
 1233poe     o2 6146   3.312   5.935   6.522  0.0368  0.2608  0.6740
 1233poe    c23 6147   3.181   5.931   6.468  0.2335  0.8274  0.1434
 1233poe    c23 6148   3.140   6.080   6.468 -0.9247  0.5163 -0.5236
 1233poe     o2 6149   3.253   6.158   6.437 -0.5143  0.0626 -0.1824
 1233poe    c23 6150   3.246   6.294   6.473 -0.1682  0.0009  0.1326
 1233poe    c23 6151   3.375   6.364   6.426  0.1712  0.1419  1.2405
 1233poe     o2 6152   3.478   6.271   6.449  0.1414 -0.2195 -0.0015
 1233poe    c23 6153   3.602   6.328   6.414  0.2853  0.0787  0.9715
 1233poe    c23 6154   3.617   6.331   6.261 -0.6474 -0.7142  0.8598
 1233poe     o2 6155   3.571   6.219   6.188  0.0454 -0.5410  0.1410
 1233poe    c31 6156   3.608   6.233   6.053 -0.0939  0.7693  0.2259
 1234poe    c31 6157   1.683   4.425   1.320  0.1277  0.1308 -0.5881
 1234poe     o2 6158   1.817   4.384   1.338 -0.0419 -0.1494  0.0484
 1234poe    c23 6159   1.827   4.247   1.369 -0.1540 -0.0799  0.3984
 1234poe    c23 6160   1.974   4.220   1.406 -0.0505  0.2864  0.2589
 1234poe     o2 6161   2.079   4.266   1.324 -0.3287  0.6136  0.0846
 1234poe    c23 6162   2.094   4.185   1.209  0.1135  0.3938  0.2962
 1234poe    c23 6163   2.203   4.241   1.116  0.0792 -0.2531 -0.1433
 1234poe     o2 6164   2.196   4.381   1.129  0.2510 -0.2666  0.1165
 1234poe    c23 6165   2.283   4.449   1.041  0.3928 -0.1971  0.3111
 1234poe    c23 6166   2.275   4.602   1.062  0.3773 -0.2350  0.5881
 1234poe     o2 6167   2.288   4.621   1.201  0.8421 -0.0425  0.5217
 1234poe    c31 6168   2.292   4.757   1.239 -0.3343  0.1348  0.0560
 1235poe    c31 6169   0.858   4.448   1.865 -0.3222  0.2669 -0.2012
 1235poe     o2 6170   0.834   4.585   1.884 -0.1299  0.2807 -0.0552
 1235poe    c23 6171   0.820   4.644   1.757 -0.4621  0.4510  0.0577
 1235poe    c23 6172   0.785   4.792   1.781  0.0818  0.4646  0.8066
 1235poe     o2 6173   0.652   4.815   1.822 -0.2534 -0.2342  0.1349
 1235poe    c23 6174   0.623   4.951   1.798 -0.3029 -0.3112 -0.2533
 1235poe    c23 6175   0.473   4.984   1.797 -0.3802 -0.6626 -0.3232
 1235poe     o2 6176   0.421   4.951   1.924 -0.4308  0.3655 -0.0692
 1235poe    c23 6177   0.281   4.952   1.912 -0.4515  0.2159  0.1477
 1235poe    c23 6178   0.222   4.930   2.052 -0.3726  0.0348  0.1518
 1235poe     o2 6179   0.295   4.826   2.115 -0.4256 -0.1030 -0.0123
 1235poe    c31 6180   0.239   4.798   2.242  0.3010  0.3415  0.4180
 1236poe    c31 6181   6.519   4.015   6.140 -0.5716  0.0559 -0.1947
 1236poe     o2 6182   6.565   3.998   6.272  0.0755 -0.0980 -0.4360
 1236poe    c23 6183   6.484   4.066   6.365 -0.5537 -0.8618 -0.4156
 1236poe    c23 6184   6.456   3.996   6.499 -0.0056 -1.0293 -0.3852
 1236poe     o2 6185   6.565   3.945   6.572  0.4070  0.4720  0.0842
 1236poe    c23 6186   6.542   3.898   6.703  0.4960 -0.3499 -0.1900
 1236poe    c23 6187   6.649   3.797   6.749  0.2685 -0.4692  0.0833
 1236poe     o2 6188   6.769   3.860   6.710 -0.1489  0.0070 -0.4265
 1236poe    c23 6189   6.874   3.767   6.711 -0.2471 -0.1001 -0.2413
 1236poe    c23 6190   6.998   3.853   6.683 -0.1360  0.0153  0.5932
 1236poe     o2 6191   6.965   3.940   6.577  0.4913 -0.4156  0.0388
 1236poe    c31 6192   7.085   3.982   6.516  0.0975  0.2343 -0.2976
 1237poe    c31 6193   5.155   2.705   3.495 -0.1558  0.0295  0.0220
 1237poe     o2 6194   5.120   2.625   3.384 -0.1611 -0.1386  0.1448
 1237poe    c23 6195   5.205   2.648   3.274 -0.0631 -0.3922  0.1644
 1237poe    c23 6196   5.189   2.532   3.175 -0.0303 -0.2089 -0.0555
 1237poe     o2 6197   5.209   2.399   3.218  0.4351 -0.2911 -0.5130
 1237poe    c23 6198   5.181   2.316   3.108  0.2877 -0.4110 -0.3849
 1237poe    c23 6199   5.226   2.180   3.164  0.0867 -0.2320  0.2216
 1237poe     o2 6200   5.141   2.173   3.276 -0.1179  0.2767  0.1030
 1237poe    c23 6201   5.139   2.040   3.322 -0.0422  0.1088 -0.3785
 1237poe    c23 6202   5.031   2.044   3.431 -0.1129  0.3185 -0.4564
 1237poe     o2 6203   5.061   2.142   3.529 -0.3018  0.2001 -0.2791
 1237poe    c31 6204   4.978   2.120   3.641  0.0966  0.6358  0.1048
 1238poe    c31 6205   0.017   5.879   4.388  0.1320 -0.0567  0.2561
 1238poe     o2 6206   0.068   5.774   4.309  0.6602 -0.3023  0.9106
 1238poe    c23 6207   0.155   5.695   4.387  0.7162 -0.1663  0.9867
 1238poe    c23 6208   0.200   5.589   4.284  0.3613  0.0945  0.5593
 1238poe     o2 6209   0.081   5.533   4.232  0.3911 -0.2358  0.8416
 1238poe    c23 6210   0.111   5.439   4.131 -0.3933  0.0370  0.3448
 1238poe    c23 6211  -0.005   5.338   4.126  0.1416 -0.5515 -0.3079
 1238poe     o2 6212  -0.116   5.408   4.076  0.3342 -0.2323 -0.2958
 1238poe    c23 6213  -0.220   5.315   4.051  0.0514 -0.2587  0.8923
 1238poe    c23 6214  -0.349   5.362   3.981  0.1865  0.1494  0.9168
 1238poe     o2 6215  -0.425   5.421   4.084 -0.1311 -0.0235  0.7830
 1238poe    c31 6216  -0.548   5.464   4.032  0.2159 -0.0564 -0.0880
 1239poe    c31 6217   1.502   6.257   2.564 -0.0056 -0.3716  0.2878
 1239poe     o2 6218   1.456   6.127   2.596 -0.3418 -0.2964  0.1125
 1239poe    c23 6219   1.323   6.138   2.642 -0.5163 -0.0752 -0.4425
 1239poe    c23 6220   1.289   5.994   2.686  0.3609 -0.2571 -0.3448
 1239poe     o2 6221   1.348   5.898   2.602  0.0968 -0.6991 -0.0250
 1239poe    c23 6222   1.311   5.765   2.633 -0.2757 -0.5243  0.2830
 1239poe    c23 6223   1.425   5.674   2.584 -0.2451 -0.1165 -0.4215
 1239poe     o2 6224   1.550   5.726   2.624 -0.4207  0.2517 -0.3465
 1239poe    c23 6225   1.657   5.640   2.592 -0.2938  0.2241  0.1399
 1239poe    c23 6226   1.785   5.653   2.675  0.5419 -0.7360 -0.9559
 1239poe     o2 6227   1.850   5.778   2.674 -0.4816 -0.1813 -0.0976
 1239poe    c31 6228   1.969   5.783   2.750 -0.6802  0.3520  0.1859
 1240poe    c31 6229   4.026   3.623   2.617  0.2063 -0.0197 -0.0673
 1240poe     o2 6230   4.156   3.653   2.571  0.2450 -0.6782 -0.4091
 1240poe    c23 6231   4.259   3.608   2.656  0.2331 -0.9384 -0.5318
 1240poe    c23 6232   4.399   3.640   2.599  0.0747 -0.1220 -0.4749
 1240poe     o2 6233   4.409   3.780   2.590  0.1131 -0.0478  0.5866
 1240poe    c23 6234   4.514   3.826   2.508 -0.0046 -0.0303  0.4445
 1240poe    c23 6235   4.552   3.953   2.587  0.0697  0.3311 -0.1598
 1240poe     o2 6236   4.448   4.047   2.569 -0.2301  0.0031 -0.1501
 1240poe    c23 6237   4.488   4.175   2.610 -0.1716 -0.1968  0.4294
 1240poe    c23 6238   4.358   4.250   2.574 -0.2655 -0.4560  0.2205
 1240poe     o2 6239   4.254   4.180   2.638  0.0279 -0.0898  1.1240
 1240poe    c31 6240   4.139   4.258   2.662 -0.2002  0.1090 -0.4842
 1241poe    c31 6241   2.131   4.993   2.555  0.6514  0.0979 -0.2969
 1241poe     o2 6242   2.069   4.902   2.467 -0.0407  0.5588 -0.2931
 1241poe    c23 6243   2.158   4.872   2.362 -0.0919  0.1230 -0.2139
 1241poe    c23 6244   2.118   4.743   2.288  0.6821  0.0626 -0.5340
 1241poe     o2 6245   2.061   4.656   2.383  1.0928 -0.0848 -0.4186
 1241poe    c23 6246   2.004   4.555   2.302  0.5577 -0.4954  0.4536
 1241poe    c23 6247   1.961   4.437   2.391 -0.5298 -0.3294  0.1684
 1241poe     o2 6248   1.868   4.468   2.492 -0.4230  0.0622  0.1515
 1241poe    c23 6249   1.866   4.370   2.594  0.5305  0.5485  0.6514
 1241poe    c23 6250   1.789   4.405   2.722  0.0206 -0.1544  0.5435
 1241poe     o2 6251   1.843   4.519   2.785  0.2877  0.0284 -0.0127
 1241poe    c31 6252   1.786   4.561   2.907  0.5612 -0.3162  0.2337
 1242poe    c31 6253   3.293   1.017   0.562 -0.3552 -0.1559  0.2890
 1242poe     o2 6254   3.234   1.095   0.460  0.6400 -0.3652 -0.4670
 1242poe    c23 6255   3.149   1.015   0.380  0.4344 -0.2752 -0.3410
 1242poe    c23 6256   3.112   1.099   0.256  0.6381 -0.2814 -0.4068
 1242poe     o2 6257   3.043   1.218   0.289  0.4087 -0.3186 -0.7469
 1242poe    c23 6258   2.988   1.265   0.169 -0.6729 -0.1962 -0.2143
 1242poe    c23 6259   2.928   1.402   0.205 -0.0335 -0.0989  0.4970
 1242poe     o2 6260   3.020   1.468   0.290  0.5987  0.3104 -0.4904
 1242poe    c23 6261   2.984   1.604   0.306  0.2560  0.1568  0.0604
 1242poe    c23 6262   3.072   1.677   0.409  0.3827  0.0806  0.0068
 1242poe     o2 6263   3.086   1.593   0.521 -0.1854  0.1300  0.1157
 1242poe    c31 6264   3.189   1.633   0.608 -0.2255 -0.3132  0.3729
 1243poe    c31 6265   4.170   4.995   5.260 -0.9647  0.1322  0.1525
 1243poe     o2 6266   4.168   5.128   5.307  0.2612  0.2890 -0.1981
 1243poe    c23 6267   4.034   5.162   5.336  0.2721  0.2462 -0.0935
 1243poe    c23 6268   4.027   5.310   5.380  0.3443 -0.0612  0.9875
 1243poe     o2 6269   4.107   5.388   5.293 -0.5113 -0.0913  0.1574
 1243poe    c23 6270   4.089   5.526   5.312  0.2774  0.0488 -0.0894
 1243poe    c23 6271   4.178   5.615   5.223  0.4355  0.1304  0.1494
 1243poe     o2 6272   4.310   5.582   5.259  0.4458 -0.2400 -0.2202
 1243poe    c23 6273   4.418   5.617   5.175  0.4878  0.4062  0.0947
 1243poe    c23 6274   4.552   5.562   5.228  0.1059 -0.2219  0.4257
 1243poe     o2 6275   4.569   5.424   5.205 -0.6552 -0.2284 -0.1042
 1243poe    c31 6276   4.632   5.401   5.081  0.3385  0.1626  0.3218
 1244poe    c31 6277   3.644   2.237   6.508 -0.2121  0.2018  0.2684
 1244poe     o2 6278   3.606   2.152   6.614 -0.5213 -0.2791 -0.2246
 1244poe    c23 6279   3.715   2.070   6.649 -0.3229 -0.0083 -0.2059
 1244poe    c23 6280   3.637   1.972   6.738 -0.3556 -0.3256 -0.5829
 1244poe     o2 6281   3.558   2.047   6.828  0.1362 -0.6607  0.1384
 1244poe    c23 6282   3.463   1.966   6.894 -0.4376 -0.3746 -0.3235
 1244poe    c23 6283   3.349   2.053   6.949  0.2758  0.3547  0.0288
 1244poe     o2 6284   3.301   2.125   6.838  0.1824 -0.0794 -0.2132
 1244poe    c23 6285   3.160   2.123   6.844  0.1929  0.3403  0.2101
 1244poe    c23 6286   3.094   2.176   6.716  0.3460 -0.0976 -0.0510
 1244poe     o2 6287   3.115   2.087   6.609  0.0719 -0.3816  0.1281
 1244poe    c31 6288   3.085   2.160   6.492  0.4033 -0.1504  0.1839
 1245poe    c31 6289   1.503   4.179   5.180 -0.3827 -0.0882 -0.1024
 1245poe     o2 6290   1.619   4.244   5.227 -0.6637  0.0482  0.4091
 1245poe    c23 6291   1.681   4.168   5.329  0.0320  0.4468  0.2880
 1245poe    c23 6292   1.807   4.247   5.366  0.1619  0.1588  0.4637
 1245poe     o2 6293   1.873   4.268   5.243  0.3056  0.3664  0.5748
 1245poe    c23 6294   2.001   4.322   5.266  0.2953  0.9036 -0.5365
 1245poe    c23 6295   2.050   4.359   5.125  0.4991  0.1795 -0.6602
 1245poe     o2 6296   1.935   4.401   5.054  0.1300 -0.0358 -0.1976
 1245poe    c23 6297   1.987   4.479   4.948  0.2786 -0.4797 -0.4505
 1245poe    c23 6298   1.884   4.551   4.859  0.0441 -0.4613 -0.1698
 1245poe     o2 6299   1.823   4.670   4.903  0.2389 -0.5295  0.2910
 1245poe    c31 6300   1.770   4.743   4.795  0.0833  0.0529  0.7600
 1246poe    c31 6301   2.060   6.291   4.535 -0.1928 -0.2598 -0.1297
 1246poe     o2 6302   2.115   6.173   4.481  0.3070  0.1413 -0.4950
 1246poe    c23 6303   2.231   6.206   4.407  0.4390  0.0308 -0.3387
 1246poe    c23 6304   2.309   6.091   4.341 -1.0227 -0.9095 -0.4677
 1246poe     o2 6305   2.336   5.985   4.430  0.6291 -0.0957  0.0175
 1246poe    c23 6306   2.382   5.865   4.371 -0.2268 -0.5531  0.2790
 1246poe    c23 6307   2.272   5.781   4.303 -0.5463  0.3067 -0.2857
 1246poe     o2 6308   2.193   5.708   4.394  0.2135 -0.4881 -0.2508
 1246poe    c23 6309   2.136   5.598   4.326 -0.5263 -0.3259  0.1018
 1246poe    c23 6310   2.035   5.529   4.420 -0.4722 -0.7758 -0.1697
 1246poe     o2 6311   1.932   5.620   4.452  0.7872  0.8828 -0.6809
 1246poe    c31 6312   1.825   5.613   4.360 -0.0692 -0.4297  0.3761
 1247poe    c31 6313   5.730   6.207   5.014  0.1941  0.4088 -0.4564
 1247poe     o2 6314   5.823   6.296   4.957  0.4793  0.2378 -0.2629
 1247poe    c23 6315   5.807   6.314   4.818 -0.3551  0.5356 -0.1301
 1247poe    c23 6316   5.920   6.403   4.761 -0.1402  0.2270 -0.1844
 1247poe     o2 6317   5.892   6.521   4.832 -0.3314  0.0429  0.0506
 1247poe    c23 6318   5.985   6.626   4.818  0.0577 -0.2646  0.3133
 1247poe    c23 6319   5.984   6.714   4.945 -0.0830  0.0128  0.1220
 1247poe     o2 6320   6.035   6.647   5.058 -0.2494  0.0352  0.2099
 1247poe    c23 6321   6.031   6.727   5.174 -0.0951  0.4766 -0.0892
 1247poe    c23 6322   6.126   6.688   5.289  0.0033  0.0465 -0.3139
 1247poe     o2 6323   6.085   6.575   5.363  0.1495  0.0134 -0.2833
 1247poe    c31 6324   6.125   6.587   5.498 -0.3433  0.5226 -0.1781
 1248poe    c31 6325   0.046   1.992   1.285 -0.7398 -0.2238  0.4178
 1248poe     o2 6326   0.053   2.117   1.351 -0.2010  0.0601 -0.1707
 1248poe    c23 6327   0.190   2.148   1.364 -0.2665  0.0812  0.4775
 1248poe    c23 6328   0.187   2.275   1.452  0.1380  0.4075  0.0251
 1248poe     o2 6329   0.073   2.354   1.428 -0.1132  0.0958  0.1822
 1248poe    c23 6330   0.078   2.480   1.490 -0.4721 -0.0318  0.4679
 1248poe    c23 6331  -0.055   2.545   1.447 -0.3529 -0.0595  0.0606
 1248poe     o2 6332  -0.163   2.482   1.512 -0.5060  0.0734 -0.0642
 1248poe    c23 6333  -0.289   2.532   1.471 -0.5155  0.5953  0.5736
 1248poe    c23 6334  -0.403   2.485   1.563 -0.2573  0.0460  0.6198
 1248poe     o2 6335  -0.438   2.350   1.541  0.0353 -0.0458  0.7101
 1248poe    c31 6336  -0.550   2.315   1.620 -0.3509 -0.3303  0.0446
 1249poe    c31 6337   0.502   1.844   0.564  0.2182  0.1703  0.0311
 1249poe     o2 6338   0.514   1.721   0.495  0.4995  0.2796 -0.1142
 1249poe    c23 6339   0.437   1.717   0.377  0.2349 -0.1005  0.0693
 1249poe    c23 6340   0.420   1.570   0.336 -0.2187 -0.0676  0.1396
 1249poe     o2 6341   0.379   1.501   0.452 -0.1912  0.2974  0.3663
 1249poe    c23 6342   0.242   1.465   0.447  0.1009 -0.7915 -0.0060
 1249poe    c23 6343   0.185   1.456   0.590 -0.3907 -0.3492 -0.1712
 1249poe     o2 6344   0.277   1.374   0.660 -0.1837 -0.2251 -0.2948
 1249poe    c23 6345   0.284   1.400   0.798 -0.3259  0.3204 -0.3870
 1249poe    c23 6346   0.390   1.297   0.844 -0.3474  0.2039 -0.5988
 1249poe     o2 6347   0.499   1.321   0.757  0.0790 -0.1879 -0.1773
 1249poe    c31 6348   0.611   1.250   0.803  0.0111  0.1457  0.5224
 1250poe    c31 6349   0.440   4.520   0.746 -0.2636  0.5888  0.3156
 1250poe     o2 6350   0.309   4.529   0.693  0.1452 -0.5427 -0.9397
 1250poe    c23 6351   0.258   4.657   0.666  0.1451 -0.3208  0.0622
 1250poe    c23 6352   0.109   4.623   0.646 -0.0978  0.4568  0.5121
 1250poe     o2 6353   0.106   4.512   0.560 -0.0430  0.8592 -0.0136
 1250poe    c23 6354  -0.021   4.456   0.535  0.2734  0.0124  0.2143
 1250poe    c23 6355  -0.004   4.355   0.420 -0.1019  0.2316 -0.0384
 1250poe     o2 6356   0.096   4.268   0.468 -0.0796  0.2971  0.0355
 1250poe    c23 6357   0.117   4.157   0.383  0.0519  0.0721  0.3583
 1250poe    c23 6358   0.244   4.071   0.400  0.2144  0.0597 -0.8306
 1250poe     o2 6359   0.361   4.149   0.388  0.2577  0.1190 -0.0748
 1250poe    c31 6360   0.471   4.064   0.408  0.1920  0.0063 -0.1897
 1251poe    c31 6361   3.732   1.964   5.331  0.7806  0.0788 -0.3662
 1251poe     o2 6362   3.808   1.848   5.305  0.2310 -0.2094 -0.7059
 1251poe    c23 6363   3.940   1.861   5.352  0.0027  0.5149 -0.2431
 1251poe    c23 6364   4.006   1.723   5.331 -0.3256  0.3342 -0.0964
 1251poe     o2 6365   3.967   1.638   5.436 -0.2785  0.4214 -0.0077
 1251poe    c23 6366   4.044   1.520   5.424 -0.1590  0.5275 -0.2833
 1251poe    c23 6367   3.975   1.406   5.501  0.5736 -0.0476 -0.4636
 1251poe     o2 6368   3.849   1.375   5.447  0.4565 -0.5618  0.0984
 1251poe    c23 6369   3.778   1.281   5.525  0.0224 -0.2152  0.1289
 1251poe    c23 6370   3.633   1.270   5.476 -0.1535  0.7243  0.4233
 1251poe     o2 6371   3.634   1.340   5.353 -0.0807 -0.2297 -0.1245
 1251poe    c31 6372   3.523   1.311   5.271  0.0584 -0.0509 -0.3780
 1252poe    c31 6373   4.357   4.217   4.895 -0.0192 -0.0049  0.1590
 1252poe     o2 6374   4.362   4.108   4.985  0.1934 -0.0162  0.1351
 1252poe    c23 6375   4.244   4.033   4.970  0.0236  0.2604  0.0856
 1252poe    c23 6376   4.260   3.931   5.084  0.7755 -0.3468 -0.5515
 1252poe     o2 6377   4.394   3.894   5.109  0.8645  0.1535 -0.2579
 1252poe    c23 6378   4.411   3.821   5.228  0.6458  0.2481 -0.1697
 1252poe    c23 6379   4.564   3.804   5.226  0.5880 -0.4359  0.5735
 1252poe     o2 6380   4.621   3.933   5.219  0.0727 -0.2407 -0.1903
 1252poe    c23 6381   4.757   3.933   5.256  0.2005 -0.0401 -0.6550
 1252poe    c23 6382   4.830   4.068   5.257 -0.3122  0.2418  0.6024
 1252poe     o2 6383   4.820   4.130   5.131  0.0478 -0.1224  0.3922
 1252poe    c31 6384   4.948   4.139   5.072 -0.3991  0.4090 -0.5284
 1253poe    c31 6385   3.106   4.469   0.583 -0.1249  0.0090  0.2800
 1253poe     o2 6386   3.175   4.557   0.497  0.1712  0.2812  0.7875
 1253poe    c23 6387   3.244   4.477   0.403 -0.4244  0.4834  0.1655
 1253poe    c23 6388   3.309   4.551   0.285 -0.1908  0.0502  0.0215
 1253poe     o2 6389   3.419   4.626   0.331 -0.0976 -0.3670  0.4801
 1253poe    c23 6390   3.439   4.745   0.259  0.2777 -0.4027  0.5219
 1253poe    c23 6391   3.566   4.818   0.305  0.2166 -0.1224  0.2498
 1253poe     o2 6392   3.548   4.870   0.435  0.1726 -0.0509  0.2155
 1253poe    c23 6393   3.638   4.967   0.484 -0.5033  0.7120 -0.0370
 1253poe    c23 6394   3.637   4.979   0.638 -0.5306  0.4044 -0.0123
 1253poe     o2 6395   3.600   4.855   0.694  0.0020  0.2453 -0.0089
 1253poe    c31 6396   3.586   4.875   0.833 -0.3512 -0.2102  0.0211
 1254poe    c31 6397   3.709   3.439   1.784  0.0269  0.1027  0.1523
 1254poe     o2 6398   3.846   3.471   1.786 -0.0368  0.4065 -0.2585
 1254poe    c23 6399   3.896   3.441   1.914 -0.3152  0.5755 -0.1085
 1254poe    c23 6400   4.050   3.440   1.913 -0.3166 -0.2454 -0.2174
 1254poe     o2 6401   4.081   3.361   1.800  0.2223 -0.1633 -0.1297
 1254poe    c23 6402   4.216   3.320   1.802  0.2406 -0.0911  0.2202
 1254poe    c23 6403   4.227   3.280   1.654 -0.3415 -0.0994  0.1776
 1254poe     o2 6404   4.190   3.378   1.558  0.1350 -0.3848 -0.3056
 1254poe    c23 6405   4.222   3.326   1.431  0.1134 -0.4610 -0.2802
 1254poe    c23 6406   4.159   3.403   1.314 -0.2761 -0.2309  0.0756
 1254poe     o2 6407   4.019   3.392   1.321 -0.3205  0.4881  0.3489
 1254poe    c31 6408   3.969   3.454   1.204 -0.4925 -0.4167 -0.0635
 1255poe    c31 6409   0.869   2.006   3.527  0.3745 -0.1544 -0.4801
 1255poe     o2 6410   0.935   1.907   3.602 -0.4059 -0.4230 -0.1371
 1255poe    c23 6411   0.870   1.782   3.604 -0.5013 -0.3795 -0.3929
 1255poe    c23 6412   0.950   1.690   3.698  0.0753  0.3628 -0.1560
 1255poe     o2 6413   1.078   1.660   3.648  0.0410 -0.2922  0.1435
 1255poe    c23 6414   1.134   1.552   3.721  0.0002 -0.0444  0.5450
 1255poe    c23 6415   1.261   1.506   3.647 -0.2484  0.0181  0.0734
 1255poe     o2 6416   1.347   1.617   3.637  0.2427 -0.3534  0.1299
 1255poe    c23 6417   1.474   1.597   3.580 -0.0050 -0.3050 -0.4513
 1255poe    c23 6418   1.523   1.742   3.564 -0.1584 -0.2171 -0.1230
 1255poe     o2 6419   1.423   1.821   3.504  0.3524  0.3874 -0.1825
 1255poe    c31 6420   1.467   1.954   3.483  0.0188  0.4920 -0.2139
 1256poe    c31 6421   0.996   3.639   3.757  0.0177  0.3943 -0.4434
 1256poe     o2 6422   1.105   3.699   3.691  0.0612  0.7458 -0.0540
 1256poe    c23 6423   1.074   3.837   3.697  0.2431  0.7620  0.5815
 1256poe    c23 6424   1.132   3.913   3.576  0.0026  0.3189  0.1863
 1256poe     o2 6425   1.252   3.842   3.556 -0.6792 -0.6449 -0.6062
 1256poe    c23 6426   1.318   3.879   3.437  0.3211 -0.5207 -0.0278
 1256poe    c23 6427   1.465   3.833   3.431  0.6201  0.3465  0.4985
 1256poe     o2 6428   1.466   3.693   3.448 -0.3068  0.2920  0.1555
 1256poe    c23 6429   1.599   3.648   3.433 -0.4519  0.0054 -0.2851
 1256poe    c23 6430   1.637   3.511   3.493  0.8503  0.6334  0.3516
 1256poe     o2 6431   1.607   3.517   3.631  0.3072  0.4241  0.2450
 1256poe    c31 6432   1.632   3.390   3.688 -0.5760  0.2244  0.1954
 1257poe    c31 6433   2.195   5.127   5.184  0.0799 -0.2537 -0.6950
 1257poe     o2 6434   2.074   5.192   5.152 -0.3624 -0.8884 -0.3329
 1257poe    c23 6435   2.102   5.308   5.077 -0.2554 -0.1164  0.8657
 1257poe    c23 6436   1.973   5.369   5.018  0.1373 -0.0567  0.0557
 1257poe     o2 6437   1.885   5.368   5.128 -0.3213 -0.4000 -0.3053
 1257poe    c23 6438   1.768   5.438   5.093  0.1500  0.3906 -0.3370
 1257poe    c23 6439   1.670   5.444   5.212  0.3945  0.2823 -0.1278
 1257poe     o2 6440   1.693   5.335   5.298 -0.1155  0.4067  0.1716
 1257poe    c23 6441   1.597   5.313   5.399 -0.3237 -0.3521 -0.1812
 1257poe    c23 6442   1.623   5.189   5.485 -0.2761 -0.3761 -0.2300
 1257poe     o2 6443   1.749   5.187   5.548 -0.0354 -0.1665 -0.6997
 1257poe    c31 6444   1.759   5.058   5.606 -0.0033  0.1171 -0.0567
 1258poe    c31 6445   5.272   4.130   6.460 -0.2026 -0.1499  0.0799
 1258poe     o2 6446   5.377   4.131   6.366  0.1037  0.5874  0.4299
 1258poe    c23 6447   5.450   4.252   6.378  0.0012  0.6601  0.3167
 1258poe    c23 6448   5.582   4.271   6.300 -0.1366 -0.1446 -0.1298
 1258poe     o2 6449   5.549   4.264   6.163  0.3268 -0.3802 -0.2311
 1258poe    c23 6450   5.649   4.319   6.082  0.5832  0.0413  0.3656
 1258poe    c23 6451   5.638   4.230   5.957  0.1661  0.2135  0.2809
 1258poe     o2 6452   5.514   4.246   5.892 -0.0550 -0.4605  0.5339
 1258poe    c23 6453   5.518   4.168   5.774  0.1140  0.4019 -0.0360
 1258poe    c23 6454   5.383   4.183   5.702  0.0001 -0.7699 -0.0838
 1258poe     o2 6455   5.282   4.166   5.799 -0.2778  0.2450 -0.1743
 1258poe    c31 6456   5.166   4.148   5.721 -0.0132  0.3744 -0.6021
 1259poe    c31 6457   6.251   2.387   4.922  0.2740 -0.7115 -0.4901
 1259poe     o2 6458   6.120   2.435   4.902  0.0656 -0.7080  0.8164
 1259poe    c23 6459   6.071   2.410   4.772  0.1264 -0.0334  0.6605
 1259poe    c23 6460   5.933   2.478   4.759  0.2714  0.0580 -0.4983
 1259poe     o2 6461   5.859   2.469   4.879  0.2617  0.6816 -0.4519
 1259poe    c23 6462   5.748   2.554   4.872 -0.0993  0.2721  0.2176
 1259poe    c23 6463   5.686   2.548   5.013  0.2537 -0.2188  0.3512
 1259poe     o2 6464   5.754   2.620   5.114  0.0741  0.6446 -0.1360
 1259poe    c23 6465   5.684   2.580   5.229  0.2199  0.3167 -0.1593
 1259poe    c23 6466   5.755   2.611   5.362  0.1027 -0.1009  0.0034
 1259poe     o2 6467   5.879   2.545   5.372  0.3334  0.2905 -0.2472
 1259poe    c31 6468   5.942   2.586   5.491 -0.2189 -0.1313  0.1943
 1260poe    c31 6469   5.128   4.980   3.065 -0.2094  0.1453 -0.2976
 1260poe     o2 6470   5.233   4.965   3.158 -0.2563  0.4712 -0.1900
 1260poe    c23 6471   5.346   5.033   3.109  0.0171 -0.4246 -0.8168
 1260poe    c23 6472   5.451   5.027   3.222 -0.3565 -0.4055 -0.4658
 1260poe     o2 6473   5.413   5.071   3.350  0.5421  0.3049 -0.4258
 1260poe    c23 6474   5.525   5.101   3.430  0.2364  0.6177 -0.1121
 1260poe    c23 6475   5.474   5.130   3.573  0.4410 -0.1113  0.1098
 1260poe     o2 6476   5.350   5.196   3.563  0.3462 -0.2032  0.6572
 1260poe    c23 6477   5.316   5.273   3.676  0.3196 -0.3509  0.7508
 1260poe    c23 6478   5.194   5.361   3.638  0.4572 -0.6074 -0.3352
 1260poe     o2 6479   5.091   5.286   3.580 -0.0557  0.2675 -0.5697
 1260poe    c31 6480   4.967   5.351   3.563 -0.2991 -0.0216  0.0594
 1261poe    c31 6481   6.076   3.256   5.375 -0.2348  0.6046  0.2599
 1261poe     o2 6482   5.991   3.270   5.487 -0.5794 -0.1413  0.0995
 1261poe    c23 6483   5.976   3.408   5.510  0.1128 -0.1392  0.5627
 1261poe    c23 6484   5.852   3.430   5.598 -0.1803 -0.0196  0.1234
 1261poe     o2 6485   5.875   3.337   5.701 -0.2630  0.2002  0.3408
 1261poe    c23 6486   5.832   3.391   5.824 -0.4083  0.1251  0.3237
 1261poe    c23 6487   5.798   3.278   5.922 -0.2998 -0.0212  0.1926
 1261poe     o2 6488   5.909   3.190   5.927 -0.4035 -0.1533  0.1639
 1261poe    c23 6489   5.891   3.073   6.004 -0.1728 -0.0381  0.3967
 1261poe    c23 6490   5.999   2.968   5.973 -0.0478  0.1547  0.1723
 1261poe     o2 6491   6.003   2.910   5.845 -0.2259 -0.0908  0.2770
 1261poe    c31 6492   6.083   2.795   5.829 -0.2908 -0.0863 -0.0802
 1262poe    c31 6493   2.937   5.651   3.763 -0.3914  0.1482  0.3228
 1262poe     o2 6494   3.055   5.717   3.802  0.0474 -0.4099 -0.0550
 1262poe    c23 6495   3.073   5.701   3.941 -0.1369 -0.0063  0.0147
 1262poe    c23 6496   3.200   5.776   3.985 -0.1421 -0.0865  0.1669
 1262poe     o2 6497   3.182   5.916   3.981  0.6418 -0.0026 -1.1072
 1262poe    c23 6498   3.272   5.960   4.081 -0.0911  0.7715 -0.7763
 1262poe    c23 6499   3.277   6.110   4.114  0.4725  0.5535  0.1672
 1262poe     o2 6500   3.285   6.161   3.983  0.2377  0.1877  0.0100
 1262poe    c23 6501   3.295   6.301   3.981  0.0263  0.2029  0.0044
 1262poe    c23 6502   3.259   6.348   3.839 -0.2924  0.1917  0.0808
 1262poe     o2 6503   3.161   6.265   3.781 -0.1775 -0.1037  0.3038
 1262poe    c31 6504   3.124   6.306   3.651  0.0842 -0.2762  0.1747
 1263poe    c31 6505   4.906   2.318   4.511 -0.2291 -0.5413 -0.1196
 1263poe     o2 6506   4.907   2.317   4.652 -0.3988  0.1945 -0.1108
 1263poe    c23 6507   4.989   2.421   4.702 -0.7730  0.3496  0.1903
 1263poe    c23 6508   4.960   2.421   4.853 -0.1350  0.5447  0.3134
 1263poe     o2 6509   4.984   2.288   4.892  0.2795  0.4695 -0.1826
 1263poe    c23 6510   5.001   2.259   5.029 -0.4065 -0.0728 -0.2100
 1263poe    c23 6511   5.006   2.105   5.043 -0.3785 -0.0517  0.0196
 1263poe     o2 6512   4.875   2.069   5.006 -0.3942  0.1626 -0.1410
 1263poe    c23 6513   4.854   1.932   5.032 -0.1065  0.0666 -0.4130
 1263poe    c23 6514   4.715   1.874   5.000  0.0074 -0.6859  0.3933
 1263poe     o2 6515   4.704   1.856   4.860 -0.2126 -0.1054  0.3295
 1263poe    c31 6516   4.619   1.751   4.821 -0.1037 -0.3264  0.6780
 1264poe    c31 6517   3.319   2.719   1.178  0.3700  0.1540  0.4933
 1264poe     o2 6518   3.233   2.608   1.181  0.0513  0.3729 -0.2689
 1264poe    c23 6519   3.293   2.500   1.250 -0.0082  0.0648 -0.6992
 1264poe    c23 6520   3.202   2.380   1.281  0.3463 -0.0333 -0.0303
 1264poe     o2 6521   3.177   2.300   1.167  0.3905 -0.1757  0.0604
 1264poe    c23 6522   3.118   2.174   1.192  0.1403 -0.1811 -0.5571
 1264poe    c23 6523   3.072   2.112   1.058  0.4666 -0.2775 -0.6269
 1264poe     o2 6524   2.970   2.193   1.003  0.5824  0.5180  0.2907
 1264poe    c23 6525   2.938   2.132   0.880  0.1586  0.4588  0.4290
 1264poe    c23 6526   2.835   2.211   0.798 -0.2135  0.1482  0.5961
 1264poe     o2 6527   2.871   2.344   0.826 -0.0576  0.2644 -0.1531
 1264poe    c31 6528   2.805   2.436   0.741 -0.1447  0.1309 -0.2299
 1265poe    c31 6529   6.567   1.711   3.829 -0.6936 -0.5505 -0.4040
 1265poe     o2 6530   6.626   1.665   3.710  0.2585 -0.2342 -0.0596
 1265poe    c23 6531   6.665   1.530   3.720 -0.0026 -0.2942  0.1433
 1265poe    c23 6532   6.761   1.499   3.604 -0.0406 -0.4220  0.1460
 1265poe     o2 6533   6.689   1.519   3.485  0.0854 -0.0591  0.1290
 1265poe    c23 6534   6.766   1.474   3.376  0.0297 -0.4384  0.2450
 1265poe    c23 6535   6.715   1.515   3.236  1.1527  0.2249  0.0154
 1265poe     o2 6536   6.724   1.655   3.225 -0.0910  0.2694 -0.5639
 1265poe    c23 6537   6.677   1.694   3.098 -0.1057 -0.1908 -0.7024
 1265poe    c23 6538   6.755   1.825   3.074 -0.2344  0.0237  0.0233
 1265poe     o2 6539   6.730   1.897   3.193 -0.6891 -0.2513  0.0939
 1265poe    c31 6540   6.776   2.026   3.162  0.2123 -0.4834  0.4594
 1266poe    c31 6541   2.085   2.276   0.278  0.4426  0.1280 -0.1118
 1266poe     o2 6542   2.020   2.231   0.161  0.0956 -0.0667  0.1528
 1266poe    c23 6543   2.109   2.223   0.052 -0.4044 -1.0908 -0.1993
 1266poe    c23 6544   2.043   2.216  -0.087 -0.5478  0.0713 -0.1993
 1266poe     o2 6545   1.918   2.150  -0.092 -0.3123 -0.3683 -0.2927
 1266poe    c23 6546   1.844   2.171  -0.210  0.1040 -0.0698 -0.5042
 1266poe    c23 6547   1.712   2.233  -0.159  0.4863  0.0210  0.3929
 1266poe     o2 6548   1.642   2.141  -0.079  0.0477 -0.0726 -0.1012
 1266poe    c23 6549   1.516   2.189  -0.039  0.0917 -0.0067 -0.0434
 1266poe    c23 6550   1.452   2.073   0.040  0.0062 -0.1127 -0.2666
 1266poe     o2 6551   1.559   2.028   0.121 -0.1358  0.0533  0.0151
 1266poe    c31 6552   1.497   1.976   0.237 -0.5489 -0.1107 -0.2773
 1267poe    c31 6553   4.918   0.837   4.182  0.0671  0.1920  0.3204
 1267poe     o2 6554   4.854   0.839   4.307 -0.3656 -0.7404  0.1249
 1267poe    c23 6555   4.762   0.946   4.313  0.6489  0.1483  0.1750
 1267poe    c23 6556   4.631   0.904   4.383  0.3815  0.6687 -0.0144
 1267poe     o2 6557   4.646   0.887   4.522  0.2026 -0.7370 -0.1593
 1267poe    c23 6558   4.521   0.856   4.579 -0.0839  0.2380 -0.2477
 1267poe    c23 6559   4.547   0.870   4.730  0.0543 -0.4678 -0.2012
 1267poe     o2 6560   4.615   0.759   4.783  0.2396 -0.2731 -0.0252
 1267poe    c23 6561   4.628   0.761   4.923 -0.0965 -0.2925  0.0079
 1267poe    c23 6562   4.723   0.642   4.945  0.3463  0.0935  0.2192
 1267poe     o2 6563   4.816   0.640   4.840 -0.2036 -0.2875 -0.2653
 1267poe    c31 6564   4.899   0.526   4.833 -0.4604 -0.4731 -0.3127
 1268poe    c31 6565   0.481   2.648   4.386 -0.0717 -0.0884  0.6604
 1268poe     o2 6566   0.577   2.546   4.369 -0.2343 -0.1179 -0.0985
 1268poe    c23 6567   0.510   2.423   4.387  0.2202 -0.2796  0.5007
 1268poe    c23 6568   0.604   2.303   4.367  0.0634 -0.2540 -0.4141
 1268poe     o2 6569   0.637   2.309   4.230  0.1963 -0.2403 -0.3813
 1268poe    c23 6570   0.731   2.205   4.210  0.1189 -0.4403  0.2831
 1268poe    c23 6571   0.793   2.227   4.071  0.1708 -0.2226  0.3401
 1268poe     o2 6572   0.871   2.344   4.058  0.4870 -0.4517  0.1397
 1268poe    c23 6573   0.943   2.339   3.937  0.2359  0.3447 -0.0541
 1268poe    c23 6574   0.971   2.470   3.861  0.1615  0.0649 -0.5639
 1268poe     o2 6575   0.857   2.540   3.817 -0.0498  0.0156 -0.1054
 1268poe    c31 6576   0.896   2.654   3.744  0.4201  0.1127  0.2952
 1269poe    c31 6577   1.411   6.421   6.721 -0.1913 -0.4781 -0.4042
 1269poe     o2 6578   1.287   6.463   6.774  0.1518  0.1718 -0.1012
 1269poe    c23 6579   1.170   6.418   6.710  0.0992 -0.1948  0.2443
 1269poe    c23 6580   1.046   6.480   6.778  0.5100  0.5898  0.2955
 1269poe     o2 6581   1.019   6.434   6.908 -0.3019  0.3074  0.0379
 1269poe    c23 6582   0.913   6.513   6.956 -0.1109  0.5997 -0.0155
 1269poe    c23 6583   0.889   6.536   7.107  0.1737  0.1349  0.1044
 1269poe     o2 6584   0.846   6.430   7.188 -0.2969 -0.2536 -0.6369
 1269poe    c23 6585   0.705   6.425   7.173 -0.4531  0.4483  0.4203
 1269poe    c23 6586   0.672   6.289   7.237 -0.1099  0.0329 -0.2663
 1269poe     o2 6587   0.709   6.178   7.158 -0.2382 -0.0652 -0.1886
 1269poe    c31 6588   0.690   6.056   7.225 -0.4193  0.3104  0.4531
 1270poe    c31 6589   0.047   3.116   2.855  0.2832  0.2044  0.2210
 1270poe     o2 6590  -0.073   3.044   2.843  0.0428  0.7067 -0.4539
 1270poe    c23 6591  -0.051   2.921   2.778  0.3254  0.3231  0.3588
 1270poe    c23 6592  -0.173   2.827   2.786  0.1288  0.5974  0.5819
 1270poe     o2 6593  -0.237   2.856   2.908 -0.0630  0.2375  0.5680
 1270poe    c23 6594  -0.373   2.817   2.899  0.0990 -0.2575  0.2218
 1270poe    c23 6595  -0.438   2.824   3.038 -0.1665 -0.3596  0.1024
 1270poe     o2 6596  -0.396   2.948   3.091 -0.5977 -0.0412 -0.2959
 1270poe    c23 6597  -0.485   3.052   3.054 -0.4999 -0.1649 -0.8936
 1270poe    c23 6598  -0.407   3.185   3.057 -0.2229 -0.3326 -0.3887
 1270poe     o2 6599  -0.277   3.174   3.005 -0.0372  0.1064 -0.0207
 1270poe    c31 6600  -0.204   3.293   3.024  0.3698 -0.1096 -0.2089
 1271poe    c31 6601   3.588   2.884   3.655  0.1935 -0.3544 -0.4800
 1271poe     o2 6602   3.569   3.023   3.663  0.1399 -0.3552 -0.6024
 1271poe    c23 6603   3.670   3.090   3.591  0.1176  0.2789 -0.0541
 1271poe    c23 6604   3.646   3.242   3.582  0.0485  0.2735  0.0390
 1271poe     o2 6605   3.506   3.254   3.572 -0.0468 -0.1826  0.7407
 1271poe    c23 6606   3.454   3.375   3.621 -0.1345  0.0858  0.0041
 1271poe    c23 6607   3.430   3.372   3.773 -0.2868 -0.2002 -0.0252
 1271poe     o2 6608   3.387   3.242   3.806 -0.1933 -0.2855 -0.2464
 1271poe    c23 6609   3.378   3.221   3.945 -0.2115 -0.4141 -0.2670
 1271poe    c23 6610   3.307   3.085   3.961  0.0667 -0.5339 -0.0546
 1271poe     o2 6611   3.380   3.002   3.874  0.5511 -0.2888  0.1116
 1271poe    c31 6612   3.363   2.875   3.934 -0.5850  0.0115  0.4473
 1272poe    c31 6613   6.091   0.115   0.718  0.6211 -0.2699  0.1807
 1272poe     o2 6614   6.041  -0.014   0.689  0.1285 -0.0632  0.1019
 1272poe    c23 6615   5.983  -0.077   0.800  0.2538  0.0837  0.2514
 1272poe    c23 6616   5.904  -0.197   0.745 -0.0608  0.4082 -0.0057
 1272poe     o2 6617   5.855  -0.156   0.619  0.4911  0.3157 -0.2538
 1272poe    c23 6618   5.783  -0.263   0.561 -0.3504  0.8697 -0.2442
 1272poe    c23 6619   5.721  -0.223   0.426 -0.5609  0.3194 -0.3139
 1272poe     o2 6620   5.830  -0.162   0.360  0.1863 -0.6795 -0.0201
 1272poe    c23 6621   5.813  -0.131   0.223 -0.0797 -0.8796 -0.0327
 1272poe    c23 6622   5.948  -0.123   0.150 -0.1856 -0.2799 -0.1638
 1272poe     o2 6623   6.031  -0.019   0.199 -0.1541 -0.4585  0.1687
 1272poe    c31 6624   6.033   0.098   0.120 -1.0686 -0.3316  0.3229
 1273poe    c31 6625   3.350   4.009   5.769 -0.1016 -0.3127  0.3104
 1273poe     o2 6626   3.480   3.998   5.822  0.2098  0.1602 -0.3522
 1273poe    c23 6627   3.478   3.963   5.959 -0.2451 -0.6259 -0.5553
 1273poe    c23 6628   3.611   3.890   5.982 -0.1343 -0.4176 -0.5366
 1273poe     o2 6629   3.703   3.980   5.924 -0.0819 -0.1410 -0.0246
 1273poe    c23 6630   3.833   3.966   5.977  0.1347 -0.4191 -0.6185
 1273poe    c23 6631   3.919   4.067   5.900 -0.2398  0.3305 -0.0606
 1273poe     o2 6632   3.888   4.062   5.763  0.1824  0.0981 -0.1476
 1273poe    c23 6633   3.998   4.099   5.683  0.3773 -0.1925 -0.0141
 1273poe    c23 6634   3.975   4.127   5.534 -0.2213 -0.1979  0.0763
 1273poe     o2 6635   3.892   4.036   5.465 -0.3731 -0.0288  0.0326
 1273poe    c31 6636   3.964   4.016   5.346 -0.0825 -0.2332  0.2396
 1274poe    c31 6637   5.172   5.954   4.304  0.2059 -0.4464  0.1906
 1274poe     o2 6638   5.180   5.865   4.195 -0.8150 -1.1269  0.6619
 1274poe    c23 6639   5.069   5.889   4.111 -0.4057  0.2972  0.5036
 1274poe    c23 6640   5.093   5.797   3.990 -0.1302  0.1068  0.7017
 1274poe     o2 6641   5.228   5.803   3.949 -0.3164 -0.1462  0.0457
 1274poe    c23 6642   5.241   5.751   3.818 -0.0417  0.4952 -0.1832
 1274poe    c23 6643   5.390   5.755   3.779 -0.0282 -0.2001 -0.2052
 1274poe     o2 6644   5.469   5.718   3.889 -0.1621 -0.3559 -0.1611
 1274poe    c23 6645   5.602   5.698   3.845 -0.1230 -0.4192 -0.0151
 1274poe    c23 6646   5.704   5.673   3.958  0.3115 -0.0771 -0.3275
 1274poe     o2 6647   5.712   5.789   4.038  0.0403  0.0092 -0.4217
 1274poe    c31 6648   5.814   5.756   4.130 -0.0792 -0.4944 -0.4617
 1275poe    c31 6649   5.193   6.116   1.558  0.6573 -0.1647 -0.2807
 1275poe     o2 6650   5.324   6.148   1.597  0.5306  0.0476 -0.0240
 1275poe    c23 6651   5.321   6.269   1.670  0.1633  0.0017  0.0390
 1275poe    c23 6652   5.467   6.298   1.713  0.0768  0.0536  0.2985
 1275poe     o2 6653   5.546   6.251   1.606 -0.4513  0.0353 -0.0875
 1275poe    c23 6654   5.678   6.295   1.624 -0.3267 -0.2195 -0.3844
 1275poe    c23 6655   5.772   6.251   1.510  0.3821  0.5508 -0.1101
 1275poe     o2 6656   5.800   6.113   1.511 -0.2874  0.4091 -0.4647
 1275poe    c23 6657   5.855   6.071   1.388 -0.7716 -0.1295 -0.5054
 1275poe    c23 6658   5.877   5.919   1.397  0.0457  0.0036 -0.0739
 1275poe     o2 6659   5.754   5.852   1.417  0.1058 -0.0963 -0.0373
 1275poe    c31 6660   5.756   5.711   1.411  0.0300 -0.1748  1.4285
 1276poe    c31 6661   5.171   5.285   0.475 -0.1575 -0.9837  0.4387
 1276poe     o2 6662   5.095   5.257   0.360 -0.1199  0.2618  0.1010
 1276poe    c23 6663   5.175   5.262   0.243  0.1486 -0.7202  0.2320
 1276poe    c23 6664   5.089   5.268   0.116 -0.0281  0.2246  0.3853
 1276poe     o2 6665   4.995   5.163   0.128  0.1168 -0.0545 -0.7746
 1276poe    c23 6666   5.015   5.071   0.023 -0.0767  0.0132 -0.8705
 1276poe    c23 6667   4.879   5.002   0.000 -0.2255 -0.0293  0.1098
 1276poe     o2 6668   4.804   4.979   0.117 -0.6945 -0.1034 -0.2015
 1276poe    c23 6669   4.669   4.949   0.092 -0.7337  0.2830 -0.4571
 1276poe    c23 6670   4.599   4.895   0.218  0.4726  0.0902  0.1414
 1276poe     o2 6671   4.615   4.993   0.317 -0.0947  0.4491 -0.1216
 1276poe    c31 6672   4.572   4.949   0.444  0.3203 -0.3057 -0.2394
 1277poe    c31 6673   3.987   2.128   0.751 -0.5795 -0.5222 -0.3030
 1277poe     o2 6674   4.080   2.058   0.831 -0.0846  0.3260 -0.1253
 1277poe    c23 6675   4.158   1.972   0.752 -0.2590 -0.0463  0.1069
 1277poe    c23 6676   4.198   1.848   0.834 -0.4082 -0.5997 -0.6383
 1277poe     o2 6677   4.084   1.777   0.876 -0.4703  0.2897  0.7682
 1277poe    c23 6678   4.101   1.712   1.001  0.1621  0.1331  0.6008
 1277poe    c23 6679   3.962   1.688   1.061  0.2668 -0.4177  0.6284
 1277poe     o2 6680   3.882   1.630   0.960 -0.0566  0.0783  0.5907
 1277poe    c23 6681   3.753   1.599   1.005 -0.1022 -0.2156  0.2652
 1277poe    c23 6682   3.679   1.537   0.885 -0.3332  0.5479  0.0085
 1277poe     o2 6683   3.755   1.435   0.825 -0.3510  0.3090  0.3908
 1277poe    c31 6684   3.651   1.349   0.786  0.1584 -0.1557  0.0306
 1278poe    c31 6685   4.409   0.057   3.000  0.2195 -0.6083 -0.0552
 1278poe     o2 6686   4.549   0.053   3.018  0.2316  0.1301  0.0170
 1278poe    c23 6687   4.600  -0.069   2.970  0.0119 -0.0439  0.2272
 1278poe    c23 6688   4.727  -0.091   3.054  0.1241 -0.1688  0.0260
 1278poe     o2 6689   4.799   0.029   3.041 -0.2329  0.0233 -0.1756
 1278poe    c23 6690   4.929   0.007   3.089 -0.4676 -0.2843  0.3308
 1278poe    c23 6691   5.004   0.134   3.043 -0.4473 -0.5158 -0.2823
 1278poe     o2 6692   4.908   0.236   3.058  0.5678  0.4471 -0.1945
 1278poe    c23 6693   4.929   0.349   2.978  0.4406 -0.2387 -1.2158
 1278poe    c23 6694   4.806   0.441   2.992  0.4864 -0.3335 -0.1157
 1278poe     o2 6695   4.702   0.347   2.974  0.2017 -0.0216 -0.1106
 1278poe    c31 6696   4.589   0.408   2.915  0.2653  0.3246  0.1228
 1279poe    c31 6697   5.634   6.264   2.118 -0.2699  0.2255 -0.4714
 1279poe     o2 6698   5.748   6.337   2.157 -0.2631 -0.3313  0.5550
 1279poe    c23 6699   5.857   6.247   2.152 -0.1456 -0.1281 -0.6530
 1279poe    c23 6700   5.965   6.306   2.245  0.1153 -0.3498 -0.8119
 1279poe     o2 6701   5.943   6.445   2.230  0.1973 -0.1490  0.7314
 1279poe    c23 6702   6.051   6.521   2.277  0.4860 -0.0825 -0.0225
 1279poe    c23 6703   5.988   6.661   2.291  0.7834  0.0285  0.2390
 1279poe     o2 6704   5.915   6.693   2.175  0.2106  0.4292  0.6987
 1279poe    c23 6705   5.885   6.829   2.155  0.1722  0.3543  0.2163
 1279poe    c23 6706   5.795   6.911   2.250  0.0117  0.0229  0.3518
 1279poe     o2 6707   5.673   6.841   2.251 -0.1945  0.3475 -0.8730
 1279poe    c31 6708   5.573   6.905   2.327  0.3354 -0.2682  0.3725
 1280poe    c31 6709   0.481   3.952   5.704 -0.3712  0.2097  0.3017
 1280poe     o2 6710   0.468   3.893   5.831 -0.5657 -0.3060  0.0460
 1280poe    c23 6711   0.416   3.994   5.915 -0.2303 -0.1212  0.0301
 1280poe    c23 6712   0.413   3.939   6.059 -0.1004  0.1502  0.1379
 1280poe     o2 6713   0.377   3.803   6.053 -0.4780  0.2516  0.0870
 1280poe    c23 6714   0.379   3.743   6.181 -0.2456  0.2779  0.0948
 1280poe    c23 6715   0.362   3.595   6.141 -0.0232  0.2493  0.1024
 1280poe     o2 6716   0.455   3.555   6.042  0.1287 -0.0523  0.3660
 1280poe    c23 6717   0.399   3.465   5.949  0.1411  0.1365  0.1736
 1280poe    c23 6718   0.513   3.460   5.845 -0.3631  0.0074 -0.3730
 1280poe     o2 6719   0.534   3.588   5.789 -0.1594  0.1199 -0.0406
 1280poe    c31 6720   0.652   3.582   5.713  0.3641  0.4762  0.7326
 1281poe    c31 6721   0.360   3.381   6.524  0.3293  0.7458 -0.7253
 1281poe     o2 6722   0.316   3.303   6.415 -0.0768 -0.3077  0.1644
 1281poe    c23 6723   0.428   3.225   6.382 -0.1920 -0.2438 -0.4050
 1281poe    c23 6724   0.405   3.126   6.267 -0.0498 -1.2929  0.4509
 1281poe     o2 6725   0.301   3.036   6.298 -1.0027 -0.4715 -0.3042
 1281poe    c23 6726   0.262   2.951   6.193 -0.1742 -0.8428 -0.3203
 1281poe    c23 6727   0.138   2.874   6.242 -0.5001 -0.2639 -0.2210
 1281poe     o2 6728   0.049   2.965   6.302  0.1212 -0.1893  0.6049
 1281poe    c23 6729  -0.060   2.887   6.345 -0.3091 -0.0630 -0.2330
 1281poe    c23 6730  -0.163   2.982   6.409 -0.4560 -0.0911 -0.4246
 1281poe     o2 6731  -0.089   3.049   6.509 -0.0585 -0.7181 -0.2970
 1281poe    c31 6732  -0.165   3.107   6.612  0.4523 -0.3655 -0.1123
 1282poe    c31 6733   4.921   2.609   2.463  0.0445 -0.0240 -0.0262
 1282poe     o2 6734   4.838   2.567   2.357  0.3357 -0.5732 -0.0393
 1282poe    c23 6735   4.817   2.428   2.339 -0.4406 -0.4544 -0.0883
 1282poe    c23 6736   4.733   2.396   2.214  0.0344 -0.1458 -0.4946
 1282poe     o2 6737   4.798   2.480   2.122 -0.1443  0.3335 -0.1901
 1282poe    c23 6738   4.742   2.466   1.993  0.4770  0.3278 -0.4640
 1282poe    c23 6739   4.846   2.538   1.905  0.0592  0.9198 -0.4736
 1282poe     o2 6740   4.864   2.664   1.965  0.4099  0.6910 -0.0957
 1282poe    c23 6741   4.872   2.755   1.858 -0.0444 -0.0213 -0.7405
 1282poe    c23 6742   4.900   2.899   1.905  0.3532 -0.1665 -0.5251
 1282poe     o2 6743   5.019   2.894   1.980  0.3592 -0.0203 -0.5240
 1282poe    c31 6744   5.048   3.011   2.053 -0.3660  0.0776 -0.3897
 1283poe    c31 6745   6.201   4.181   4.360  0.3777 -0.4300  0.0138
 1283poe     o2 6746   6.339   4.208   4.368  0.3440 -0.1939 -0.1901
 1283poe    c23 6747   6.391   4.157   4.489  0.0386 -0.1254 -0.0303
 1283poe    c23 6748   6.540   4.186   4.513  0.0233  0.0238 -0.1140
 1283poe     o2 6749   6.563   4.316   4.464  0.0014  0.0197 -0.1354
 1283poe    c23 6750   6.700   4.346   4.451 -0.1075  0.6139  0.0562
 1283poe    c23 6751   6.690   4.484   4.382  0.1276  0.4494 -0.3074
 1283poe     o2 6752   6.623   4.463   4.260 -0.1352  0.0548 -0.0989
 1283poe    c23 6753   6.577   4.584   4.203 -0.5255  0.1313  0.3727
 1283poe    c23 6754   6.452   4.539   4.126 -0.4702  0.2720  0.2008
 1283poe     o2 6755   6.366   4.453   4.196 -0.4557  0.1208  0.0346
 1283poe    c31 6756   6.279   4.409   4.094 -0.3786 -0.1392  0.0798
 1284poe    c31 6757   0.629   4.490   1.116  0.3515 -0.2056  0.2505
 1284poe     o2 6758   0.662   4.606   1.041 -0.2167  0.0288  0.3590
 1284poe    c23 6759   0.791   4.600   0.987 -0.6886 -0.0245 -0.7856
 1284poe    c23 6760   0.824   4.744   0.946 -0.2926  0.0142 -0.3341
 1284poe     o2 6761   0.814   4.833   1.056  0.2450  0.3949 -0.5845
 1284poe    c23 6762   0.921   4.924   1.051  0.3215  0.3625  0.2629
 1284poe    c23 6763   0.918   5.014   1.176  0.1778  0.3643  0.2587
 1284poe     o2 6764   0.782   5.039   1.201 -0.0567 -0.2073 -0.3969
 1284poe    c23 6765   0.772   5.099   1.329 -0.6096 -1.2033  0.0327
 1284poe    c23 6766   0.624   5.129   1.362 -0.4865 -0.2117 -0.3002
 1284poe     o2 6767   0.533   5.029   1.322 -0.2087 -0.5586 -0.0747
 1284poe    c31 6768   0.399   5.054   1.359 -0.3261 -0.4885 -0.5387
 1285poe    c31 6769   4.421   1.922   2.649  0.3759 -0.3386 -0.2509
 1285poe     o2 6770   4.300   1.859   2.681  0.0760  0.5401  0.3942
 1285poe    c23 6771   4.205   1.859   2.577  0.1263  0.1226  0.3431
 1285poe    c23 6772   4.091   1.768   2.625 -0.6738  0.6637 -0.4933
 1285poe     o2 6773   4.052   1.823   2.749  0.1073  0.1229 -0.0018
 1285poe    c23 6774   3.937   1.766   2.808  0.4032 -0.5341 -0.0520
 1285poe    c23 6775   3.905   1.857   2.927  0.3161 -0.4660 -0.1271
 1285poe     o2 6776   4.000   1.876   3.030  0.2762 -0.1417 -0.1480
 1285poe    c23 6777   3.956   1.973   3.123 -0.2150 -0.3491 -0.1602
 1285poe    c23 6778   4.055   1.998   3.238 -0.1628  0.9550 -0.4727
 1285poe     o2 6779   4.002   2.078   3.342 -0.2723 -0.3347  0.4914
 1285poe    c31 6780   3.961   2.207   3.303  0.5025 -0.1937  0.1196
 1286poe    c31 6781   0.297   1.602   3.026  0.3217 -0.5043 -0.4214
 1286poe     o2 6782   0.282   1.485   3.104 -0.0178  0.1355  0.4818
 1286poe    c23 6783   0.361   1.481   3.220  0.1406  0.0523  0.3700
 1286poe    c23 6784   0.312   1.357   3.297  0.4936 -0.0403  0.4506
 1286poe     o2 6785   0.340   1.249   3.211 -0.2278 -0.1867  0.3937
 1286poe    c23 6786   0.321   1.130   3.284 -0.2357 -0.4818 -0.0841
 1286poe    c23 6787   0.365   1.024   3.181  0.3309 -0.4144  0.0858
 1286poe     o2 6788   0.314   1.050   3.052 -0.2771 -0.2037  0.3672
 1286poe    c23 6789   0.352   0.956   2.954 -0.4518 -0.4981  0.5810
 1286poe    c23 6790   0.256   0.951   2.834 -0.3177  0.2662  0.4385
 1286poe     o2 6791   0.253   1.065   2.751  0.2082 -0.0030  0.0437
 1286poe    c31 6792   0.135   1.068   2.674  0.0017  0.3407  0.3725
 1287poe    c31 6793   6.819   6.228   6.235 -0.4402  0.1190 -0.6477
 1287poe     o2 6794   6.840   6.089   6.219 -0.0528  0.0616  0.3072
 1287poe    c23 6795   6.914   6.061   6.103 -0.1224  0.0602  0.2635
 1287poe    c23 6796   7.005   5.937   6.096 -0.1214  0.0908 -0.4298
 1287poe     o2 6797   7.082   5.913   5.981  0.2362  0.2634 -0.2266
 1287poe    c23 6798   7.156   5.795   6.005 -0.4862 -0.0932  0.2852
 1287poe    c23 6799   7.256   5.771   5.890 -0.3052  0.0545  0.4116
 1287poe     o2 6800   7.355   5.869   5.871 -0.1203 -0.1986  0.0394
 1287poe    c23 6801   7.440   5.828   5.767  0.5021 -0.3029  0.5834
 1287poe    c23 6802   7.564   5.919   5.759  0.4444 -0.2465  0.3144
 1287poe     o2 6803   7.529   6.047   5.807  0.3769 -0.0060 -0.3676
 1287poe    c31 6804   7.634   6.140   5.819  0.0881  0.3406 -0.5173
 1288poe    c31 6805   4.353   0.381   3.266  0.0826  0.4981  0.5539
 1288poe     o2 6806   4.380   0.499   3.339 -0.3259  0.7502  0.3028
 1288poe    c23 6807   4.456   0.575   3.248 -0.1041 -0.0459 -0.1848
 1288poe    c23 6808   4.460   0.725   3.280  0.1190 -0.0795 -0.0541
 1288poe     o2 6809   4.524   0.772   3.397 -0.0329  0.0128 -0.0086
 1288poe    c23 6810   4.493   0.909   3.411  0.0114  0.0448 -0.2158
 1288poe    c23 6811   4.591   0.976   3.510 -0.2153  0.1855 -0.0866
 1288poe     o2 6812   4.565   0.893   3.621  0.9645 -0.4078 -0.2429
 1288poe    c23 6813   4.641   0.936   3.731 -0.0963 -0.1739  0.4150
 1288poe    c23 6814   4.629   0.829   3.841 -0.0861 -0.2824  0.3106
 1288poe     o2 6815   4.625   0.705   3.774 -0.2279 -0.1885  0.1412
 1288poe    c31 6816   4.617   0.600   3.868 -0.0107 -0.1130  0.2461
 1289poe    c31 6817   3.784   5.848   4.794  0.2862 -0.1338  0.4717
 1289poe     o2 6818   3.700   5.737   4.813  0.2066 -0.1476  0.0484
 1289poe    c23 6819   3.675   5.683   4.685 -0.2132 -0.0465  0.0867
 1289poe    c23 6820   3.614   5.544   4.712 -0.4332 -0.0398 -0.3733
 1289poe     o2 6821   3.524   5.568   4.818  0.1825  0.9020 -0.0471
 1289poe    c23 6822   3.442   5.457   4.850  0.7476  0.4738 -0.0830
 1289poe    c23 6823   3.361   5.476   4.979  0.2061  0.0323 -0.3536
 1289poe     o2 6824   3.455   5.500   5.082  0.3464 -0.3041 -0.4030
 1289poe    c23 6825   3.411   5.477   5.214  0.1028  0.4223 -0.3532
 1289poe    c23 6826   3.516   5.486   5.326  0.1493 -0.6264 -0.2986
 1289poe     o2 6827   3.571   5.615   5.341  0.5156 -0.7551 -0.5272
 1289poe    c31 6828   3.663   5.626   5.447 -0.1292  0.3852 -0.0671
 1290poe    c31 6829   3.731   0.030   6.289 -0.4128  0.2853 -0.0386
 1290poe     o2 6830   3.764   0.114   6.181  0.3541 -0.1766 -0.1689
 1290poe    c23 6831   3.731   0.061   6.055 -0.1127  0.0552 -0.1447
 1290poe    c23 6832   3.838   0.106   5.954  0.2864 -0.2100  0.1585
 1290poe     o2 6833   3.849   0.246   5.948  0.4894 -0.2439 -0.2802
 1290poe    c23 6834   3.909   0.284   5.826 -0.0335 -0.0371 -0.4741
 1290poe    c23 6835   3.921   0.438   5.827  0.2869 -0.0644 -0.2036
 1290poe     o2 6836   3.977   0.490   5.945 -0.7857 -0.1264  0.3493
 1290poe    c23 6837   3.944   0.626   5.968 -0.1935  0.0996 -0.1205
 1290poe    c23 6838   4.030   0.670   6.088 -0.0617 -0.0548 -0.1574
 1290poe     o2 6839   4.011   0.569   6.185 -0.0744 -0.1655 -0.2747
 1290poe    c31 6840   4.087   0.599   6.299 -0.2125 -0.4740 -0.1007
 1291poe    c31 6841   5.527   1.942   3.071  0.8984 -0.0081 -0.0193
 1291poe     o2 6842   5.575   2.050   2.994 -0.0240  0.6831  0.3435
 1291poe    c23 6843   5.492   2.069   2.882  0.2582 -0.2940 -0.0467
 1291poe    c23 6844   5.503   2.221   2.856 -0.2945 -0.1738  0.4094
 1291poe     o2 6845   5.627   2.259   2.801 -0.5440  0.5462  0.3292
 1291poe    c23 6846   5.622   2.392   2.756 -0.0379  0.3811 -0.2276
 1291poe    c23 6847   5.763   2.425   2.703  0.3443 -0.1705  0.4286
 1291poe     o2 6848   5.854   2.407   2.809  0.5144 -0.2121  0.2773
 1291poe    c23 6849   5.983   2.451   2.773  0.2764 -0.1774 -0.5567
 1291poe    c23 6850   6.067   2.485   2.897  0.2201 -0.1469 -0.5262
 1291poe     o2 6851   6.051   2.377   2.986  0.2193 -0.1916 -0.5806
 1291poe    c31 6852   6.137   2.385   3.098  0.0282 -0.1034 -0.4394
 1292poe    c31 6853   5.336   4.298   2.412  0.4441 -0.5057 -0.5468
 1292poe     o2 6854   5.386   4.391   2.319  0.3064  0.0819 -0.0368
 1292poe    c23 6855   5.511   4.443   2.359  0.0992  0.2650  0.3785
 1292poe    c23 6856   5.550   4.557   2.263 -0.1410 -0.3452 -0.4594
 1292poe     o2 6857   5.470   4.672   2.285  0.3564 -0.0731 -0.0464
 1292poe    c23 6858   5.464   4.771   2.185 -0.2491  0.0835  0.1443
 1292poe    c23 6859   5.383   4.890   2.240  0.4239  0.3895  0.4771
 1292poe     o2 6860   5.277   4.830   2.311  0.0418 -0.1124 -0.4982
 1292poe    c23 6861   5.171   4.920   2.337  0.5506  0.2640  0.2959
 1292poe    c23 6862   5.052   4.849   2.403  0.3927  0.5830  0.3545
 1292poe     o2 6863   5.065   4.816   2.540  0.0557 -0.0555  0.2328
 1292poe    c31 6864   4.947   4.842   2.612  0.1494  0.5213  0.1823
 1293poe    c31 6865   4.734   5.782   1.045  0.5311 -0.1958 -0.2234
 1293poe     o2 6866   4.738   5.684   0.944 -0.0582  0.0804 -0.5182
 1293poe    c23 6867   4.841   5.592   0.971  0.4738  0.5375 -0.9627
 1293poe    c23 6868   4.807   5.474   0.879 -0.6709  0.0227  0.0845
 1293poe     o2 6869   4.753   5.515   0.755 -0.9726  0.2575  0.2942
 1293poe    c23 6870   4.756   5.419   0.653  0.4251  0.2850  0.2905
 1293poe    c23 6871   4.687   5.485   0.532  0.1848 -0.4656  0.0089
 1293poe     o2 6872   4.578   5.557   0.584  0.2925 -0.3258  0.0403
 1293poe    c23 6873   4.492   5.594   0.478 -0.0744  0.5520  0.6315
 1293poe    c23 6874   4.398   5.712   0.510 -0.6135  0.2102  0.3303
 1293poe     o2 6875   4.317   5.700   0.624 -0.4208  0.0542  0.4511
 1293poe    c31 6876   4.207   5.788   0.622 -0.0214  0.5508  0.2028
 1294poe    c31 6877   0.830   6.703   1.652  0.4785 -0.4291  0.3813
 1294poe     o2 6878   0.869   6.569   1.669  0.4691 -0.5539 -0.5399
 1294poe    c23 6879   0.767   6.493   1.609 -0.1930 -0.1060  0.0043
 1294poe    c23 6880   0.819   6.348   1.601  0.9297  0.2917 -0.0394
 1294poe     o2 6881   0.835   6.306   1.735 -0.4389 -0.7452 -0.1784
 1294poe    c23 6882   0.859   6.168   1.754  0.6958 -0.5121  0.2011
 1294poe    c23 6883   0.838   6.132   1.902  0.5981  0.1361  0.3500
 1294poe     o2 6884   0.910   6.230   1.973  0.7808  0.2772 -0.0273
 1294poe    c23 6885   0.862   6.216   2.105 -0.1708 -0.2544 -0.4229
 1294poe    c23 6886   0.971   6.272   2.198 -0.6551  0.2954 -0.1796
 1294poe     o2 6887   1.009   6.405   2.173 -0.0730  0.1556 -0.0569
 1294poe    c31 6888   1.078   6.441   2.290  0.2326  0.4595 -0.3284
 1295poe    c31 6889   5.803   6.579   2.788  0.1161 -0.3102  0.6426
 1295poe     o2 6890   5.675   6.603   2.736  0.1257  0.0640  0.7854
 1295poe    c23 6891   5.657   6.545   2.608  0.1140  0.0466  0.7949
 1295poe    c23 6892   5.504   6.543   2.591  0.1098 -0.3943  0.8812
 1295poe     o2 6893   5.479   6.681   2.603  0.4301 -0.2021 -0.4519
 1295poe    c23 6894   5.343   6.719   2.605  0.4999  0.0355 -0.1301
 1295poe    c23 6895   5.330   6.869   2.640  0.7291  0.0065  0.0811
 1295poe     o2 6896   5.395   6.884   2.764  0.9330  0.4517 -0.0796
 1295poe    c23 6897   5.363   7.006   2.828  0.3193  0.4482 -0.3750
 1295poe    c23 6898   5.456   7.056   2.940  0.0857 -0.5412  0.2845
 1295poe     o2 6899   5.586   7.083   2.890  0.1702 -0.7282  0.4020
 1295poe    c31 6900   5.656   7.125   3.005 -0.1088  0.5249  0.1303
 1296poe    c31 6901   0.988   6.010   0.642 -0.4465 -0.4460 -0.1328
 1296poe     o2 6902   1.055   6.043   0.522  0.1182 -0.4913  0.1673
 1296poe    c23 6903   1.120   5.924   0.483 -0.0268 -0.5054 -0.0298
 1296poe    c23 6904   1.175   5.939   0.340 -0.3872 -0.3872 -0.1555
 1296poe     o2 6905   1.244   6.061   0.352 -0.6375 -0.2722  0.1359
 1296poe    c23 6906   1.272   6.123   0.228 -0.1092  0.2600  0.5123
 1296poe    c23 6907   1.335   6.263   0.238  0.6441 -0.0505  0.1166
 1296poe     o2 6908   1.269   6.332   0.341  0.1709 -0.5306  0.1370
 1296poe    c23 6909   1.344   6.447   0.373 -0.4786 -0.0090 -0.1884
 1296poe    c23 6910   1.264   6.544   0.462  0.0932  0.3709 -0.0838
 1296poe     o2 6911   1.233   6.508   0.594 -0.1086 -0.2074 -0.2872
 1296poe    c31 6912   1.155   6.613   0.647  0.2528 -0.1159  0.0684
 1297poe    c31 6913   4.885   1.559   0.484 -0.6718  0.6336  0.0409
 1297poe     o2 6914   4.785   1.459   0.471  0.0533 -0.0568 -0.3007
 1297poe    c23 6915   4.773   1.432   0.333  0.1275 -0.2827 -0.2636
 1297poe    c23 6916   4.667   1.321   0.320  0.2662 -0.4306 -0.1255
 1297poe     o2 6917   4.576   1.356   0.422 -0.3185 -0.2889 -0.6921
 1297poe    c23 6918   4.482   1.252   0.437 -0.5859  0.0422 -0.0430
 1297poe    c23 6919   4.395   1.314   0.548 -0.2721 -0.2550  0.3690
 1297poe     o2 6920   4.469   1.357   0.661 -0.1857  0.0502  0.1960
 1297poe    c23 6921   4.393   1.349   0.779 -0.4394 -0.0990  0.0224
 1297poe    c23 6922   4.421   1.450   0.891  0.3235 -0.3281  0.0424
 1297poe     o2 6923   4.547   1.408   0.939  0.5601 -0.0257 -0.3097
 1297poe    c31 6924   4.576   1.449   1.071  0.1466 -0.0806 -0.1981
 1298poe    c31 6925   4.435   6.828   1.534  0.0548  0.4680  0.5397
 1298poe     o2 6926   4.568   6.875   1.527  0.2856 -0.2012  0.2826
 1298poe    c23 6927   4.559   7.003   1.469  0.3178 -0.0710  0.5614
 1298poe    c23 6928   4.675   7.097   1.506  0.4845 -0.0487 -0.0093
 1298poe     o2 6929   4.802   7.050   1.468  0.4321  0.1076 -0.3827
 1298poe    c23 6930   4.899   7.152   1.477  0.7128 -0.1495 -0.4560
 1298poe    c23 6931   5.039   7.094   1.454  0.6643 -0.6834  0.5284
 1298poe     o2 6932   5.056   7.061   1.318  0.5164 -0.2481  0.4046
 1298poe    c23 6933   5.165   6.973   1.311  0.7139  0.0454 -0.2970
 1298poe    c23 6934   5.196   6.948   1.162 -0.1201  0.6233 -0.5678
 1298poe     o2 6935   5.123   6.834   1.121  0.0011  0.4723 -0.3589
 1298poe    c31 6936   5.180   6.804   0.996  0.2174 -0.1898 -0.1078
 1299poe    c31 6937   5.809   5.243   6.441  0.4269 -0.1513  0.0522
 1299poe     o2 6938   5.704   5.174   6.377 -0.0139 -0.2377  0.8574
 1299poe    c23 6939   5.712   5.176   6.237  0.0612 -0.2157  0.8617
 1299poe    c23 6940   5.597   5.083   6.193  0.0809  0.1860 -0.0636
 1299poe     o2 6941   5.594   4.969   6.276 -0.4179  0.3530  0.1506
 1299poe    c23 6942   5.499   4.877   6.226 -0.0962  0.2266 -0.2346
 1299poe    c23 6943   5.461   4.763   6.321  0.0608  0.3165 -0.0630
 1299poe     o2 6944   5.456   4.809   6.454  0.2096  0.0963  0.0201
 1299poe    c23 6945   5.465   4.697   6.539  0.7180  0.3368  0.2838
 1299poe    c23 6946   5.438   4.738   6.685 -0.4594  0.0590  0.1541
 1299poe     o2 6947   5.557   4.795   6.734 -0.5184  0.4319 -0.1273
 1299poe    c31 6948   5.568   4.791   6.875 -0.7312  0.1989 -0.1170
 1300poe    c31 6949   0.693   1.611   5.000 -0.4069 -0.8029  0.0458
 1300poe     o2 6950   0.771   1.587   4.885  0.2666  0.3921  0.2369
 1300poe    c23 6951   0.688   1.555   4.776  0.3853  0.5173  0.1091
 1300poe    c23 6952   0.789   1.510   4.669  0.6438 -0.2911  0.6845
 1300poe     o2 6953   0.894   1.603   4.666  0.4042 -0.0330 -0.0621
 1300poe    c23 6954   0.965   1.590   4.545 -0.1926 -0.5965 -0.3572
 1300poe    c23 6955   1.104   1.643   4.585 -0.2184 -0.3513 -0.5828
 1300poe     o2 6956   1.165   1.580   4.696  0.2767  0.0681 -0.6147
 1300poe    c23 6957   1.290   1.642   4.714 -0.0866  0.4469  0.7516
 1300poe    c23 6958   1.375   1.552   4.807  0.9453  0.4867 -0.1389
 1300poe     o2 6959   1.317   1.539   4.935  0.4208 -0.4893 -0.4676
 1300poe    c31 6960   1.400   1.498   5.041  0.0516  0.5823  0.2535
 1301poe    c31 6961   6.043   3.346   4.651  0.3771  0.5147  0.5656
 1301poe     o2 6962   6.032   3.208   4.626  0.3623  0.6143 -0.0130
 1301poe    c23 6963   5.906   3.147   4.643  0.6343  0.0760  0.0893
 1301poe    c23 6964   5.912   3.009   4.711 -0.1419 -0.0809 -0.1531
 1301poe     o2 6965   5.904   3.035   4.850  0.6366  0.2589 -0.1702
 1301poe    c23 6966   5.867   2.918   4.918 -0.0002  0.3011 -0.4396
 1301poe    c23 6967   5.822   2.952   5.062  0.3118  0.0036 -0.2691
 1301poe     o2 6968   5.702   3.026   5.058 -0.1560 -0.6923  0.6394
 1301poe    c23 6969   5.661   3.051   5.191 -0.1729 -0.0020  0.5108
 1301poe    c23 6970   5.518   3.106   5.178 -0.2146 -0.3058 -0.4304
 1301poe     o2 6971   5.515   3.191   5.066  0.0301  0.1843 -0.0740
 1301poe    c31 6972   5.397   3.262   5.033 -0.1745  0.2523  0.7965
 1302poe    c31 6973   4.669   1.813   4.454 -0.4256 -0.2898  0.3069
 1302poe     o2 6974   4.554   1.779   4.381 -0.7038 -0.1494  0.6755
 1302poe    c23 6975   4.466   1.887   4.359  0.1487  0.3752 -0.2801
 1302poe    c23 6976   4.385   1.871   4.229 -0.1036  0.4551 -0.1345
 1302poe     o2 6977   4.311   1.751   4.227 -0.2357  0.5344 -0.0295
 1302poe    c23 6978   4.272   1.717   4.096  0.0868  0.1881 -0.0377
 1302poe    c23 6979   4.133   1.762   4.047 -0.1783 -0.2149  0.3417
 1302poe     o2 6980   4.112   1.900   4.031  0.4627 -0.1578 -0.0264
 1302poe    c23 6981   4.008   1.952   4.111  0.1797  0.0781 -0.5386
 1302poe    c23 6982   3.953   2.093   4.083  0.0046  0.1893  0.3255
 1302poe     o2 6983   4.041   2.203   4.088  0.1843  0.0655 -0.0387
 1302poe    c31 6984   4.090   2.241   4.215 -0.6406  0.3470  0.2023
 1303poe    c31 6985   5.590   5.737   4.917 -0.3050  0.2241  0.4037
 1303poe     o2 6986   5.468   5.787   4.968 -0.2779  0.4104  0.2870
 1303poe    c23 6987   5.418   5.705   5.070  0.1506 -0.1395  0.0603
 1303poe    c23 6988   5.326   5.784   5.165 -0.1410 -0.5521  0.1258
 1303poe     o2 6989   5.214   5.840   5.100  0.1473  0.1024  0.1877
 1303poe    c23 6990   5.105   5.751   5.095 -0.0520  0.3346  0.3873
 1303poe    c23 6991   4.978   5.834   5.067  0.1824  0.4663 -0.2852
 1303poe     o2 6992   4.996   5.915   4.953  0.0700 -0.1473 -0.7397
 1303poe    c23 6993   4.889   5.997   4.913  0.1118  0.4771  0.4073
 1303poe    c23 6994   4.931   6.057   4.777 -0.3214 -0.0020  0.0629
 1303poe     o2 6995   5.057   6.116   4.796 -0.1301 -0.1739 -0.6371
 1303poe    c31 6996   5.105   6.171   4.675  0.8322  0.9299  0.2253
 1304poe    c31 6997   5.696   2.545   3.875 -0.4495 -0.3958 -0.0314
 1304poe     o2 6998   5.658   2.681   3.881  0.5990 -0.1073  0.3184
 1304poe    c23 6999   5.746   2.753   3.964  0.4771  0.8861 -0.3931
 1304poe    c23 7000   5.657   2.859   4.032  0.2519  0.4207  0.0531
 1304poe     o2 7001   5.570   2.929   3.945  0.0465  0.0134 -0.0709
 1304poe    c23 7002   5.495   3.027   4.011 -0.0610 -0.1307  0.0208
 1304poe    c23 7003   5.440   3.129   3.910 -0.1995 -0.4240 -0.2007
 1304poe     o2 7004   5.339   3.068   3.833 -0.6015 -0.1678  0.1229
 1304poe    c23 7005   5.257   3.148   3.752  0.4591  0.6888 -0.1306
 1304poe    c23 7006   5.307   3.199   3.615  0.0827  0.1444 -0.4798
 1304poe     o2 7007   5.351   3.093   3.533  0.5732 -0.1607  0.1634
 1304poe    c31 7008   5.385   3.156   3.411 -0.1953  0.2328  0.1479
 1305poe    c31 7009   0.630   1.942   5.272  0.1152  0.2174 -0.4320
 1305poe     o2 7010   0.742   1.872   5.220  0.1648 -0.1434  0.1487
 1305poe    c23 7011   0.808   1.812   5.329  0.0030 -0.2075  0.2127
 1305poe    c23 7012   0.943   1.757   5.281  0.1887  0.4006  0.0249
 1305poe     o2 7013   1.025   1.849   5.211  0.2543  0.0160 -0.4118
 1305poe    c23 7014   1.145   1.791   5.166  0.1202 -0.0958 -0.6303
 1305poe    c23 7015   1.256   1.893   5.136  0.2407 -0.1015 -0.2212
 1305poe     o2 7016   1.191   1.980   5.046  0.1424  0.1083  0.0517
 1305poe    c23 7017   1.271   2.090   5.010 -0.0569  0.4953  0.7727
 1305poe    c23 7018   1.184   2.184   4.923 -1.0003 -1.0697 -0.0156
 1305poe     o2 7019   1.076   2.207   5.010 -0.3894 -0.0878  0.4898
 1305poe    c31 7020   1.017   2.332   4.980 -0.3888 -0.1515  0.2246
 1306poe    c31 7021   0.397   4.150   3.089  0.4658 -0.0872  0.2865
 1306poe     o2 7022   0.433   4.063   2.984 -0.2269  0.3780 -0.3456
 1306poe    c23 7023   0.336   4.073   2.882 -0.1667  0.5963 -0.3806
 1306poe    c23 7024   0.348   3.949   2.791  0.0637  0.3801 -0.0599
 1306poe     o2 7025   0.478   3.917   2.749 -0.0359 -0.2423  0.1003
 1306poe    c23 7026   0.499   3.786   2.700 -0.2022 -0.3903  0.4230
 1306poe    c23 7027   0.653   3.784   2.700 -0.1990 -0.2815  0.1164
 1306poe     o2 7028   0.703   3.887   2.619 -0.1655 -0.2534  0.1722
 1306poe    c23 7029   0.842   3.873   2.601 -0.1841 -0.1293 -0.0760
 1306poe    c23 7030   0.884   3.997   2.519 -0.3833  0.1663  0.2660
 1306poe     o2 7031   0.835   4.114   2.581 -0.0698  0.2471  0.3614
 1306poe    c31 7032   0.863   4.231   2.507  0.2426  0.1067  0.2520
 1307poe    c31 7033   0.745   0.542   5.695 -0.0028 -0.0039 -0.3469
 1307poe     o2 7034   0.698   0.443   5.783 -0.0014  0.3911  0.1053
 1307poe    c23 7035   0.606   0.356   5.721 -0.5035  0.7398  0.3586
 1307poe    c23 7036   0.555   0.259   5.830 -0.4850  0.6479  0.2859
 1307poe     o2 7037   0.671   0.240   5.907 -0.5664 -0.0483  0.2427
 1307poe    c23 7038   0.644   0.178   6.031 -0.3399 -0.3821  0.1256
 1307poe    c23 7039   0.779   0.157   6.103 -0.0600  0.1080 -0.2481
 1307poe     o2 7040   0.848   0.278   6.122  0.2610 -0.0374 -0.4857
 1307poe    c23 7041   0.962   0.241   6.195 -0.3560 -0.7082  0.1514
 1307poe    c23 7042   1.051   0.361   6.232 -0.0422 -0.8743 -0.0556
 1307poe     o2 7043   1.113   0.417   6.119  0.0186 -0.2209  0.2925
 1307poe    c31 7044   1.200   0.520   6.159  1.0414 -0.8649 -0.2280
 1308poe    c31 7045   3.486   5.386   3.260  0.0662 -0.2172  0.1378
 1308poe     o2 7046   3.394   5.442   3.170  0.1381  0.3026  0.3865
 1308poe    c23 7047   3.280   5.361   3.180  0.2209  0.2173  0.6474
 1308poe    c23 7048   3.171   5.397   3.077  0.2597 -0.1819  0.4675
 1308poe     o2 7049   3.215   5.384   2.944  0.0232 -0.4346  0.4107
 1308poe    c23 7050   3.108   5.395   2.853 -0.1842  0.3214  0.7341
 1308poe    c23 7051   3.180   5.372   2.719 -0.2775  0.1194  0.7182
 1308poe     o2 7052   3.292   5.457   2.711 -0.2969  0.0922  0.1066
 1308poe    c23 7053   3.360   5.452   2.588 -0.0292  0.2123  0.2496
 1308poe    c23 7054   3.443   5.582   2.593  0.0276  0.1794  0.1591
 1308poe     o2 7055   3.516   5.587   2.714  0.0660  0.0950  0.1398
 1308poe    c31 7056   3.585   5.709   2.724 -0.4923  0.4245  0.0400
 1309poe    c31 7057   2.769   0.199   3.107 -0.0752 -0.4324 -0.0640
 1309poe     o2 7058   2.891   0.265   3.130 -0.3007  0.0398 -0.2250
 1309poe    c23 7059   2.862   0.396   3.087 -0.3730  0.2540  0.4626
 1309poe    c23 7060   2.967   0.499   3.132  0.3493 -0.3145  0.0895
 1309poe     o2 7061   2.978   0.511   3.272 -0.2196  0.4339  0.0769
 1309poe    c23 7062   3.098   0.581   3.299  0.2115 -0.2707  0.0025
 1309poe    c23 7063   3.120   0.554   3.449 -0.1744  0.8200  0.2617
 1309poe     o2 7064   3.188   0.434   3.477 -0.1969  0.8380  0.3914
 1309poe    c23 7065   3.139   0.390   3.602 -0.3703 -0.5520 -0.1504
 1309poe    c23 7066   3.231   0.270   3.635 -0.2825 -0.2997  0.5241
 1309poe     o2 7067   3.232   0.194   3.517 -0.1095 -0.0506  0.3659
 1309poe    c31 7068   3.319   0.084   3.530  0.3081  0.2744  0.3562
 1310poe    c31 7069   0.927   1.231   3.796  0.0627  0.1660 -0.0674
 1310poe     o2 7070   0.833   1.219   3.901  0.0716 -0.1536 -0.0952
 1310poe    c23 7071   0.710   1.208   3.834  0.1925 -0.2475 -0.3054
 1310poe    c23 7072   0.607   1.150   3.933  0.2049  0.2452 -0.0037
 1310poe     o2 7073   0.592   1.246   4.036  0.2701  0.1680  0.0777
 1310poe    c23 7074   0.515   1.196   4.143  0.1389 -0.0673 -0.1241
 1310poe    c23 7075   0.433   1.315   4.197  0.1193 -0.0413 -0.2118
 1310poe     o2 7076   0.528   1.416   4.223 -0.3891  0.4318 -0.1899
 1310poe    c23 7077   0.472   1.531   4.284 -0.3177  0.1980  0.3126
 1310poe    c23 7078   0.589   1.631   4.290  0.3377 -0.5338 -0.0944
 1310poe     o2 7079   0.670   1.625   4.174 -0.4602 -0.0659 -0.6857
 1310poe    c31 7080   0.780   1.712   4.192 -0.2385 -0.3217 -0.8080
 1311poe    c31 7081   1.074   4.541   6.631 -0.3582 -0.0964  0.2383
 1311poe     o2 7082   1.079   4.413   6.572 -0.2076  0.0551 -0.0793
 1311poe    c23 7083   1.152   4.426   6.452  0.0210 -0.2892  0.0214
 1311poe    c23 7084   1.101   4.313   6.360 -0.1595  0.2740 -0.5793
 1311poe     o2 7085   0.962   4.299   6.380 -0.1200  0.7231  0.0266
 1311poe    c23 7086   0.912   4.205   6.288  0.1702  0.1660  0.4350
 1311poe    c23 7087   0.760   4.227   6.290  0.1517  0.0575  0.2332
 1311poe     o2 7088   0.703   4.223   6.419  0.2375 -0.2667  0.2617
 1311poe    c23 7089   0.565   4.251   6.416  0.2472 -0.2198  0.2510
 1311poe    c23 7090   0.509   4.229   6.557  0.0658  0.0626  0.2232
 1311poe     o2 7091   0.516   4.341   6.643 -0.3520 -0.1492  0.5427
 1311poe    c31 7092   0.487   4.283   6.767 -0.3458 -0.1748  0.5319
 1312poe    c31 7093   0.089   6.867   0.731  0.0828  0.1190 -0.0107
 1312poe     o2 7094  -0.043   6.885   0.685 -0.0700 -0.4762  0.1811
 1312poe    c23 7095  -0.029   6.909   0.547 -0.4631  0.8234  0.3558
 1312poe    c23 7096  -0.150   6.967   0.472 -0.2398 -0.2571 -0.8644
 1312poe     o2 7097  -0.256   6.875   0.482 -0.1894 -0.2002  0.2631
 1312poe    c23 7098  -0.378   6.925   0.431  0.2003  0.1936 -0.2911
 1312poe    c23 7099  -0.487   6.883   0.532  0.2145 -0.3473 -0.4939
 1312poe     o2 7100  -0.493   6.747   0.567 -0.2805 -0.1841  0.0729
 1312poe    c23 7101  -0.586   6.716   0.668 -0.3041 -0.0406  0.0957
 1312poe    c23 7102  -0.581   6.565   0.696 -0.1147 -0.0482  0.0264
 1312poe     o2 7103  -0.444   6.534   0.707 -0.0391  0.1508 -0.3413
 1312poe    c31 7104  -0.444   6.405   0.764 -0.3276  0.4023  0.2331
 1313poe    c31 7105   3.431   3.450   4.797  0.6341 -0.4384  0.2020
 1313poe     o2 7106   3.500   3.545   4.875 -0.5537  0.2411  0.4475
 1313poe    c23 7107   3.597   3.471   4.946 -0.3873 -0.5207 -0.5535
 1313poe    c23 7108   3.707   3.574   4.977 -0.7732 -0.2630 -0.0237
 1313poe     o2 7109   3.635   3.680   5.036 -0.0787  0.3601 -0.2708
 1313poe    c23 7110   3.709   3.783   5.098  0.2375 -0.6122  1.0156
 1313poe    c23 7111   3.618   3.896   5.148  0.3754  0.0912 -0.2895
 1313poe     o2 7112   3.547   3.961   5.044  0.0685  0.1301 -0.0577
 1313poe    c23 7113   3.487   4.082   5.086  0.1204  0.1174  0.0541
 1313poe    c23 7114   3.355   4.120   5.016 -0.0242  0.0244  0.2728
 1313poe     o2 7115   3.255   4.025   5.047  0.2177 -0.1610  0.4908
 1313poe    c31 7116   3.125   4.067   5.016  0.5013  0.2618 -0.1549
 1314poe    c31 7117   5.853   4.287   2.793 -0.1213 -0.5667  0.1309
 1314poe     o2 7118   5.958   4.242   2.709  0.7079  0.2599  0.7052
 1314poe    c23 7119   5.986   4.334   2.606  0.1889 -0.0912  0.2506
 1314poe    c23 7120   6.049   4.279   2.476  0.0852 -0.1186  0.2120
 1314poe     o2 7121   5.960   4.207   2.394  0.4929 -0.3311 -0.0440
 1314poe    c23 7122   5.988   4.184   2.258  0.3622  0.2774 -0.1745
 1314poe    c23 7123   5.886   4.073   2.226  0.6835 -0.2459  0.5933
 1314poe     o2 7124   5.923   3.952   2.289  0.3049 -0.6474  0.0598
 1314poe    c23 7125   5.818   3.861   2.264 -0.0066 -0.1945 -0.2990
 1314poe    c23 7126   5.836   3.730   2.343 -0.7090 -0.2700 -0.2620
 1314poe     o2 7127   5.877   3.760   2.475 -0.1596 -0.1384 -0.4609
 1314poe    c31 7128   5.853   3.651   2.561 -0.6365  0.3714  0.0639
 1315poe    c31 7129   2.633   1.484   2.531 -0.1043 -0.4121  0.4184
 1315poe     o2 7130   2.612   1.504   2.393 -0.0240  0.2663  0.5033
 1315poe    c23 7131   2.732   1.559   2.343 -0.2058  0.6939  0.5267
 1315poe    c23 7132   2.692   1.596   2.199  0.5206 -0.2625  0.0619
 1315poe     o2 7133   2.617   1.492   2.141  0.2943 -0.1692  0.1868
 1315poe    c23 7134   2.569   1.538   2.017 -0.3995  0.2271  0.5946
 1315poe    c23 7135   2.478   1.415   1.997  0.5724 -0.3852 -0.1604
 1315poe     o2 7136   2.401   1.372   2.107 -0.0509  0.1767 -0.3716
 1315poe    c23 7137   2.285   1.309   2.059  0.0513  0.1026 -0.5247
 1315poe    c23 7138   2.224   1.249   2.188  0.2097 -0.0411 -0.5173
 1315poe     o2 7139   2.304   1.157   2.258 -0.5025 -0.1432  0.1787
 1315poe    c31 7140   2.335   1.037   2.190  0.0409  0.1512 -0.0989
 1316poe    c31 7141   3.487   0.222   1.686  0.3146 -0.0507 -0.3348
 1316poe     o2 7142   3.593   0.262   1.770  0.0200  0.0868 -0.0282
 1316poe    c23 7143   3.652   0.145   1.820  0.3419 -0.0586 -0.7326
 1316poe    c23 7144   3.805   0.160   1.837  0.3427 -0.5744 -0.2109
 1316poe     o2 7145   3.840   0.250   1.939  0.1588 -0.4041 -0.2965
 1316poe    c23 7146   3.818   0.202   2.070  0.6280  0.2084  0.0185
 1316poe    c23 7147   3.886   0.294   2.172  0.0720  0.2719  0.3346
 1316poe     o2 7148   3.878   0.425   2.121  0.0291  0.2246  0.2190
 1316poe    c23 7149   3.947   0.525   2.192  0.2911  0.4566 -0.3582
 1316poe    c23 7150   3.912   0.667   2.143 -0.3326  0.4223 -0.0260
 1316poe     o2 7151   3.887   0.643   2.006 -0.1199 -0.1711  0.0355
 1316poe    c31 7152   3.871   0.776   1.961  0.7501  0.2643  0.9744
 1317poe    c31 7153   4.245   5.950   1.359  0.0975  0.2905 -0.3310
 1317poe     o2 7154   4.216   6.064   1.437  0.1570  0.0682  0.0204
 1317poe    c23 7155   4.123   6.030   1.537  0.4629 -0.6177  0.0733
 1317poe    c23 7156   4.092   6.154   1.622  0.0607 -0.5723 -0.1347
 1317poe     o2 7157   4.104   6.267   1.538 -0.3752 -0.0007  0.5640
 1317poe    c23 7158   4.107   6.386   1.614  0.0254  0.0625  0.4504
 1317poe    c23 7159   4.082   6.503   1.517  0.3384 -0.4191 -0.2223
 1317poe     o2 7160   4.178   6.482   1.416  0.2718  0.0628 -0.3888
 1317poe    c23 7161   4.209   6.594   1.337  0.6338  0.3992  0.2326
 1317poe    c23 7162   4.123   6.625   1.213  0.8459  0.5062  0.1114
 1317poe     o2 7163   4.111   6.518   1.122 -0.1323  0.3911  0.3697
 1317poe    c31 7164   4.062   6.573   1.002 -0.1080 -0.4054 -0.0069
 1318poe    c31 7165   0.546   4.357   5.561  0.4993  0.1370 -0.3797
 1318poe     o2 7166   0.579   4.414   5.686 -0.2967 -0.9293  0.3323
 1318poe    c23 7167   0.650   4.324   5.768  0.0295 -0.5595  0.4548
 1318poe    c23 7168   0.647   4.369   5.916 -0.3664 -0.4644  0.4188
 1318poe     o2 7169   0.522   4.414   5.962 -0.2028  0.4505 -0.0119
 1318poe    c23 7170   0.525   4.446   6.099  0.2190 -0.3838  0.1809
 1318poe    c23 7171   0.392   4.502   6.153  0.2333  0.0362 -0.2166
 1318poe     o2 7172   0.364   4.614   6.071 -0.2638 -0.0540 -0.1753
 1318poe    c23 7173   0.260   4.682   6.138  0.3922  0.0886  0.7253
 1318poe    c23 7174   0.263   4.823   6.074 -0.1471 -0.1117  0.2472
 1318poe     o2 7175   0.278   4.808   5.935  0.1369  0.1659  0.2453
 1318poe    c31 7176   0.263   4.922   5.853  0.6031  0.0331 -0.0299
 1319poe    c31 7177   1.614   2.171   4.537  0.4863 -0.0767 -0.2421
 1319poe     o2 7178   1.676   2.123   4.420  0.2605  0.1793 -0.4684
 1319poe    c23 7179   1.805   2.084   4.461  0.0285  0.2071  0.3143
 1319poe    c23 7180   1.894   2.064   4.337  0.3872 -0.1773  0.6291
 1319poe     o2 7181   1.806   2.013   4.239  0.2624  0.5504  0.3535
 1319poe    c23 7182   1.867   1.947   4.130 -0.1586  0.3026  0.2638
 1319poe    c23 7183   1.757   1.896   4.036  0.0899 -0.2532  0.2717
 1319poe     o2 7184   1.661   1.997   4.014 -0.1581 -0.5251  0.1041
 1319poe    c23 7185   1.652   2.051   3.884 -0.0615  0.0565  0.3359
 1319poe    c23 7186   1.516   2.118   3.858 -0.1383 -0.3647 -0.3935
 1319poe     o2 7187   1.471   2.219   3.945  0.0268 -0.7619  0.1595
 1319poe    c31 7188   1.337   2.253   3.918  0.3926  0.4575 -0.2181
 1320poe    c31 7189   0.209   2.940   0.276 -0.2908  0.1191 -0.5615
 1320poe     o2 7190   0.325   2.887   0.337 -0.0607  0.3839 -0.7689
 1320poe    c23 7191   0.427   2.908   0.242  0.0716 -0.5628 -0.8430
 1320poe    c23 7192   0.557   2.843   0.292 -0.1342 -0.4093 -0.1011
 1320poe     o2 7193   0.573   2.703   0.299  0.0395 -0.3890 -0.0820
 1320poe    c23 7194   0.557   2.627   0.181  0.0471  0.1564 -0.4397
 1320poe    c23 7195   0.602   2.488   0.230  0.2556  0.5512  0.5073
 1320poe     o2 7196   0.531   2.464   0.350 -0.5545 -0.4775 -0.1588
 1320poe    c23 7197   0.580   2.342   0.400 -0.2380 -0.2999 -0.0322
 1320poe    c23 7198   0.497   2.300   0.522  0.1046 -0.2299  0.2281
 1320poe     o2 7199   0.495   2.410   0.609  0.0973 -0.0413 -0.0082
 1320poe    c31 7200   0.469   2.363   0.740 -0.0904  0.1089  0.0092
 1321poe    c31 7201   1.291   0.497   4.762  0.7134  0.3231  0.5885
 1321poe     o2 7202   1.166   0.486   4.826  0.3951 -0.1978 -0.1156
 1321poe    c23 7203   1.107   0.362   4.794 -0.0204 -0.0035 -0.1083
 1321poe    c23 7204   0.953   0.365   4.783  0.0040  0.1341 -0.4095
 1321poe     o2 7205   0.920   0.460   4.882 -0.4037  0.3070 -0.7091
 1321poe    c23 7206   0.796   0.517   4.847 -0.6110  0.1073 -0.3197
 1321poe    c23 7207   0.786   0.628   4.954  0.8751 -0.3724  0.3488
 1321poe     o2 7208   0.912   0.690   4.956  0.7326 -0.0183 -0.6682
 1321poe    c23 7209   0.932   0.733   5.089  0.0417  0.2039 -0.6354
 1321poe    c23 7210   1.065   0.804   5.120 -0.1375  0.0842  0.4641
 1321poe     o2 7211   1.150   0.714   5.051  0.1691  0.7498 -0.0408
 1321poe    c31 7212   1.279   0.770   5.041  0.5974 -0.2817 -0.3490
 1322poe    c31 7213   2.247   5.102   0.225  0.3355 -0.3552 -0.0021
 1322poe     o2 7214   2.181   4.982   0.260 -0.1928  0.0011  0.2464
 1322poe    c23 7215   2.136   4.919   0.142 -0.0491  0.4352 -0.0425
 1322poe    c23 7216   2.041   4.799   0.158  0.5940 -0.0483  0.1869
 1322poe     o2 7217   2.105   4.709   0.245  0.2729 -0.5450 -0.0880
 1322poe    c23 7218   2.013   4.650   0.335 -0.1302  0.0166 -0.1284
 1322poe    c23 7219   2.067   4.533   0.419  0.0718 -0.1104 -0.4343
 1322poe     o2 7220   2.187   4.563   0.486 -0.3709 -0.1492  0.3884
 1322poe    c23 7221   2.244   4.452   0.551 -0.0414 -0.1339  0.1245
 1322poe    c23 7222   2.370   4.512   0.616 -0.0785 -0.1509  0.2111
 1322poe     o2 7223   2.433   4.592   0.518  0.5232 -0.5238  0.2926
 1322poe    c31 7224   2.555   4.645   0.564  0.2920 -0.3836  0.7540
 1323poe    c31 7225   1.141   3.172   2.081 -0.1482  0.3983 -0.2860
 1323poe     o2 7226   1.244   3.211   2.169 -0.3671 -0.2511  0.2689
 1323poe    c23 7227   1.341   3.116   2.206  0.0273  0.0231 -0.0541
 1323poe    c23 7228   1.461   3.171   2.284  0.0105 -0.1443  0.0894
 1323poe     o2 7229   1.548   3.263   2.221  0.0038 -0.5717 -0.5490
 1323poe    c23 7230   1.636   3.209   2.126  0.2553  0.1367 -0.7255
 1323poe    c23 7231   1.744   3.315   2.099  0.2977  0.1600 -0.4624
 1323poe     o2 7232   1.679   3.440   2.092 -0.2793 -0.1467 -0.5963
 1323poe    c23 7233   1.768   3.546   2.117 -0.2297 -0.4266  0.4465
 1323poe    c23 7234   1.681   3.672   2.098  0.2139 -0.1627  0.1574
 1323poe     o2 7235   1.551   3.643   2.142  0.1924 -0.0224  0.1849
 1323poe    c31 7236   1.462   3.750   2.115 -0.0349 -0.3662 -0.4508
 1324poe    c31 7237   4.281   3.993   0.340 -0.5784  0.6792 -0.1912
 1324poe     o2 7238   4.189   3.923   0.260  0.0656 -0.3668 -0.0320
 1324poe    c23 7239   4.184   3.784   0.283 -0.5564 -0.1801  1.0355
 1324poe    c23 7240   4.072   3.714   0.202 -0.1714  0.5734 -0.1806
 1324poe     o2 7241   4.081   3.787   0.082  0.7005  0.1704 -0.3705
 1324poe    c23 7242   3.963   3.761   0.008  0.4742 -0.4684  0.2019
 1324poe    c23 7243   3.964   3.860  -0.110 -0.0835 -0.0374  0.5585
 1324poe     o2 7244   3.984   3.995  -0.075  0.0384  0.1373 -0.1702
 1324poe    c23 7245   3.944   4.091  -0.171  0.0305  0.3799  0.0752
 1324poe    c23 7246   4.030   4.219  -0.165 -0.4288  0.7088 -0.2722
 1324poe     o2 7247   4.163   4.182  -0.193 -0.5424  0.1205 -0.0668
 1324poe    c31 7248   4.243   4.288  -0.242  0.0413 -0.0011  0.6111
 1325poe    c31 7249   5.303   1.745   1.083  0.3061  0.2475  0.0583
 1325poe     o2 7250   5.179   1.679   1.076  0.3368  0.2403 -0.4551
 1325poe    c23 7251   5.148   1.633   0.946 -0.3213 -0.0860 -0.1893
 1325poe    c23 7252   5.046   1.518   0.948 -0.4007 -0.0181 -0.3039
 1325poe     o2 7253   5.081   1.392   1.001 -0.2637  0.1097 -0.0869
 1325poe    c23 7254   4.966   1.311   1.015 -0.0186 -0.1216  0.6141
 1325poe    c23 7255   5.025   1.189   1.088 -0.8748 -0.6354  0.4571
 1325poe     o2 7256   5.074   1.245   1.208  0.0018  0.4183 -0.3677
 1325poe    c23 7257   5.125   1.160   1.308 -0.4371  0.3497 -0.1983
 1325poe    c23 7258   5.109   1.219   1.449 -0.0342 -0.0272  0.0066
 1325poe     o2 7259   5.170   1.345   1.459  0.1517 -0.0924 -0.3099
 1325poe    c31 7260   5.129   1.394   1.585 -0.1397  0.6462 -0.6857
 1326poe    c31 7261   2.814   3.729   6.510 -0.1318 -0.3422 -0.0189
 1326poe     o2 7262   2.747   3.728   6.633  0.2095  0.0296  0.1713
 1326poe    c23 7263   2.803   3.823   6.722  1.0235 -0.4034  0.1315
 1326poe    c23 7264   2.760   3.784   6.865 -0.0819  0.2362 -0.0108
 1326poe     o2 7265   2.622   3.792   6.892 -0.2181 -0.7585 -0.3598
 1326poe    c23 7266   2.590   3.757   7.025 -0.2821 -0.1831 -0.2216
 1326poe    c23 7267   2.452   3.817   7.059 -0.0541  0.1090  0.1956
 1326poe     o2 7268   2.369   3.794   6.947  0.1466 -0.6314  0.1910
 1326poe    c23 7269   2.234   3.827   6.972  0.4040  0.5555  0.1044
 1326poe    c23 7270   2.166   3.799   6.837  0.5520 -0.5532  0.2459
 1326poe     o2 7271   2.252   3.850   6.737 -0.0378 -0.2045 -0.0915
 1326poe    c31 7272   2.181   3.811   6.622 -0.1577  0.0309 -0.0983
 1327poe    c31 7273   4.470   1.369   3.467 -0.4224  0.6992  0.4243
 1327poe     o2 7274   4.368   1.365   3.563 -0.5127  0.1994  0.3099
 1327poe    c23 7275   4.355   1.495   3.617  0.0361  0.2741  0.2681
 1327poe    c23 7276   4.218   1.512   3.687  0.1088  0.3080  0.4025
 1327poe     o2 7277   4.174   1.388   3.738  0.4232  0.0347  0.0170
 1327poe    c23 7278   4.044   1.393   3.792  0.2582 -0.5467 -0.3107
 1327poe    c23 7279   3.988   1.254   3.826  0.1040 -0.3561  0.2327
 1327poe     o2 7280   3.934   1.204   3.706  0.3363 -0.2440  0.0805
 1327poe    c23 7281   3.852   1.089   3.717 -0.1707  0.0450 -0.5962
 1327poe    c23 7282   3.891   0.983   3.612  0.4102  0.0173 -0.3572
 1327poe     o2 7283   3.893   1.025   3.478 -0.2017  0.3033 -0.2821
 1327poe    c31 7284   3.936   0.915   3.401 -0.4455  0.0576 -0.0670
 1328poe    c31 7285   0.667   3.764   4.155 -0.2694  0.2297 -0.4806
 1328poe     o2 7286   0.566   3.810   4.242 -0.0488  0.1874 -0.2028
 1328poe    c23 7287   0.470   3.888   4.175 -0.5811 -0.2344  0.0685
 1328poe    c23 7288   0.368   3.922   4.286 -0.4041  0.3358  0.0594
 1328poe     o2 7289   0.440   3.939   4.407 -0.0002  0.6953 -0.2303
 1328poe    c23 7290   0.366   3.977   4.521  0.6778  0.5714  0.2570
 1328poe    c23 7291   0.472   4.015   4.625 -0.1772 -0.0509  1.3747
 1328poe     o2 7292   0.563   3.908   4.638 -0.3489 -0.3589  0.1171
 1328poe    c23 7293   0.634   3.905   4.760  0.7135  0.4560 -0.4617
 1328poe    c23 7294   0.764   3.823   4.765  0.2270 -0.2773  0.4231
 1328poe     o2 7295   0.864   3.863   4.674 -0.2952  0.0670 -0.0040
 1328poe    c31 7296   0.955   3.757   4.659  0.5526  0.7825 -0.0238
 1329poe    c31 7297   5.784   6.593   4.480  0.6240 -0.5630 -0.2690
 1329poe     o2 7298   5.699   6.598   4.367 -0.0307  0.0993  0.2435
 1329poe    c23 7299   5.698   6.480   4.291 -0.8067  0.0725  0.2878
 1329poe    c23 7300   5.594   6.497   4.180 -0.1781  0.4845 -0.2429
 1329poe     o2 7301   5.486   6.572   4.232 -0.6918 -0.5047  0.1334
 1329poe    c23 7302   5.399   6.590   4.123  0.2144 -0.0480 -0.5244
 1329poe    c23 7303   5.307   6.711   4.148  0.6211  0.2448 -0.4403
 1329poe     o2 7304   5.372   6.836   4.152  0.2463  0.4360 -0.2772
 1329poe    c23 7305   5.285   6.933   4.206 -0.0385  0.3061 -0.5060
 1329poe    c23 7306   5.350   7.069   4.234 -0.2242  0.2927 -0.0073
 1329poe     o2 7307   5.449   7.043   4.331 -0.6206  0.1644  0.3657
 1329poe    c31 7308   5.467   7.148   4.423 -0.0877  0.4704 -0.0836
 1330poe    c31 7309   3.537   2.702   4.967 -0.7791 -0.1030  0.1680
 1330poe     o2 7310   3.598   2.598   4.893  0.1613  0.2986  0.3566
 1330poe    c23 7311   3.717   2.647   4.837  0.5478 -0.5068  0.4619
 1330poe    c23 7312   3.828   2.543   4.813  0.7258 -0.0535 -0.7533
 1330poe     o2 7313   3.756   2.451   4.733 -0.6535  0.1725  0.1965
 1330poe    c23 7314   3.833   2.336   4.705 -0.2391  0.6712 -0.7563
 1330poe    c23 7315   3.734   2.228   4.659 -0.2704  0.6109 -0.5485
 1330poe     o2 7316   3.655   2.214   4.776  0.3213  0.5352 -0.1563
 1330poe    c23 7317   3.530   2.155   4.750  0.3751  0.1603  0.4357
 1330poe    c23 7318   3.426   2.203   4.854 -0.1601  0.1025 -0.0700
 1330poe     o2 7319   3.426   2.344   4.863 -0.0415  0.0702  0.4510
 1330poe    c31 7320   3.303   2.399   4.905 -0.2673 -0.4292  0.4559
 1331poe    c31 7321   5.816   0.914   6.309  0.1315  0.0008 -0.0368
 1331poe     o2 7322   5.755   0.819   6.394  0.3658  0.0552  0.1945
 1331poe    c23 7323   5.777   0.689   6.344  0.2008  0.0501  0.1328
 1331poe    c23 7324   5.691   0.573   6.397 -0.1439  0.4618  0.4751
 1331poe     o2 7325   5.555   0.603   6.375 -0.1990 -0.0083  0.1595
 1331poe    c23 7326   5.491   0.481   6.344 -0.2677 -0.0787  0.5649
 1331poe    c23 7327   5.353   0.527   6.294  0.3683  0.3700 -0.8293
 1331poe     o2 7328   5.313   0.631   6.380 -0.1022 -0.6467  0.2039
 1331poe    c23 7329   5.199   0.695   6.326  0.1760 -0.1984  0.1399
 1331poe    c23 7330   5.147   0.789   6.435 -0.1257 -0.1382 -0.0537
 1331poe     o2 7331   5.257   0.839   6.509 -0.2869  0.6043 -0.3064
 1331poe    c31 7332   5.210   0.893   6.631  0.0175  0.2596 -0.0336
 1332poe    c31 7333   3.099   0.877   2.528 -0.3403  0.1286 -0.5192
 1332poe     o2 7334   3.226   0.850   2.474 -0.2377 -0.1790 -0.1250
 1332poe    c23 7335   3.303   0.787   2.574 -0.0205  0.0601 -0.1396
 1332poe    c23 7336   3.434   0.730   2.517  0.0213 -0.1683  0.1798
 1332poe     o2 7337   3.473   0.834   2.430  0.4841 -0.1574  0.3950
 1332poe    c23 7338   3.612   0.834   2.405  0.4047 -0.1199 -0.0635
 1332poe    c23 7339   3.665   0.960   2.335 -0.3888  0.7831  0.9064
 1332poe     o2 7340   3.598   0.990   2.215  0.0440  0.1124  0.4886
 1332poe    c23 7341   3.676   1.073   2.132  0.3395 -0.3561  0.2888
 1332poe    c23 7342   3.593   1.123   2.012  0.2362  0.7673  0.8145
 1332poe     o2 7343   3.480   1.196   2.055 -0.4550  0.2099 -0.0227
 1332poe    c31 7344   3.401   1.232   1.943  0.1035  0.0453 -0.4760
 1333poe    c31 7345   3.307   1.341   4.220 -0.3019  0.3674  0.2830
 1333poe     o2 7346   3.419   1.412   4.268 -0.1095  0.2960 -0.0594
 1333poe    c23 7347   3.378   1.546   4.253 -0.0332  0.2808 -0.3988
 1333poe    c23 7348   3.486   1.645   4.299 -0.2374  0.4015 -0.1809
 1333poe     o2 7349   3.608   1.585   4.263 -0.0316  0.9528 -0.4192
 1333poe    c23 7350   3.722   1.642   4.324  0.1649  0.4912 -0.3516
 1333poe    c23 7351   3.842   1.545   4.314  0.2687  0.5956 -0.1172
 1333poe     o2 7352   3.787   1.416   4.329  0.2439  0.5629 -0.4847
 1333poe    c23 7353   3.888   1.318   4.327 -0.3618 -0.0731 -0.3064
 1333poe    c23 7354   3.957   1.306   4.464 -0.4947  0.1838 -0.2162
 1333poe     o2 7355   3.856   1.282   4.560  0.0525 -0.5945  0.1813
 1333poe    c31 7356   3.910   1.312   4.686  0.1206  0.3054 -0.0508
 1334poe    c31 7357   4.145   2.719   4.414 -0.2596 -0.0571 -0.0446
 1334poe     o2 7358   4.006   2.694   4.411 -0.3519  0.4263  0.1442
 1334poe    c23 7359   3.983   2.603   4.305 -0.0638 -0.3382  0.7242
 1334poe    c23 7360   3.843   2.542   4.322 -0.3019 -0.0709 -0.2448
 1334poe     o2 7361   3.751   2.642   4.283 -0.0760  0.3173  0.2098
 1334poe    c23 7362   3.622   2.586   4.294  0.0206 -0.0039 -0.2680
 1334poe    c23 7363   3.523   2.698   4.256  0.4373  0.5148  0.1563
 1334poe     o2 7364   3.546   2.812   4.336  0.4109  0.4453  0.2629
 1334poe    c23 7365   3.445   2.907   4.309 -0.1310 -0.1223  0.2785
 1334poe    c23 7366   3.466   3.027   4.402  0.3624 -0.5816  0.7621
 1334poe     o2 7367   3.607   3.031   4.409  0.3772  0.1549  0.2077
 1334poe    c31 7368   3.648   3.149   4.473  0.4603  0.2373  0.0024
 1335poe    c31 7369   0.187   2.306   3.539 -0.2389  0.5126 -0.6898
 1335poe     o2 7370   0.273   2.237   3.450 -0.0456  0.1862 -0.2559
 1335poe    c23 7371   0.237   2.103   3.425  0.1368  0.0796  0.0469
 1335poe    c23 7372   0.324   2.035   3.318 -0.3196  0.1399 -0.3664
 1335poe     o2 7373   0.317   2.090   3.188  0.4318  0.1630 -0.4025
 1335poe    c23 7374   0.417   2.041   3.102  0.6815  0.2828 -0.1840
 1335poe    c23 7375   0.421   2.116   2.968  0.4057  0.1664 -0.2586
 1335poe     o2 7376   0.423   2.257   2.979  0.2836  0.1563 -0.1061
 1335poe    c23 7377   0.455   2.326   2.860 -0.1331  0.3063 -0.1313
 1335poe    c23 7378   0.487   2.473   2.891 -0.0841  0.2450  0.1101
 1335poe     o2 7379   0.401   2.511   2.996 -0.4316  0.7414 -0.3466
 1335poe    c31 7380   0.465   2.622   3.055  0.1625 -0.0133  0.4559
 1336poe    c31 7381   1.728   6.118   3.146 -0.3638 -0.0342  0.2778
 1336poe     o2 7382   1.685   6.123   3.280 -0.4720 -0.0065  0.2425
 1336poe    c23 7383   1.783   6.201   3.345 -0.5038 -0.2936  0.6343
 1336poe    c23 7384   1.771   6.189   3.498  0.2962  0.2886  0.7504
 1336poe     o2 7385   1.637   6.172   3.538  0.1835 -0.6453  0.0172
 1336poe    c23 7386   1.620   6.212   3.672  0.2200 -0.0713 -0.1432
 1336poe    c23 7387   1.483   6.153   3.712  0.1450  0.2839  0.1285
 1336poe     o2 7388   1.482   6.012   3.703 -0.1070  0.2735  0.2917
 1336poe    c23 7389   1.385   5.955   3.787  0.1730 -0.1609  0.3251
 1336poe    c23 7390   1.369   5.811   3.733 -0.1259  0.0181 -0.0752
 1336poe     o2 7391   1.333   5.809   3.597 -0.4183  0.1698 -0.0006
 1336poe    c31 7392   1.285   5.680   3.565 -0.3267  0.3812 -1.0205
 1337poe    c31 7393   6.628   6.265   3.806  0.4966 -0.7437 -0.1847
 1337poe     o2 7394   6.503   6.279   3.870  0.5410 -0.1841 -0.2178
 1337poe    c23 7395   6.423   6.163   3.870 -0.5678  0.5598 -0.3652
 1337poe    c23 7396   6.279   6.210   3.895 -0.5469  0.3487  0.1541
 1337poe     o2 7397   6.284   6.287   4.013  0.4746  0.4696  0.0369
 1337poe    c23 7398   6.159   6.333   4.060  0.2409  0.0275 -0.1488
 1337poe    c23 7399   6.203   6.423   4.177  0.2761 -0.4719  0.2244
 1337poe     o2 7400   6.316   6.497   4.137 -0.1440 -0.2497 -0.5839
 1337poe    c23 7401   6.349   6.591   4.237  0.0668 -0.2669 -0.6375
 1337poe    c23 7402   6.334   6.735   4.185 -0.2177 -0.2073 -0.3905
 1337poe     o2 7403   6.427   6.758   4.082  0.3610  0.4504  0.2727
 1337poe    c31 7404   6.432   6.889   4.029 -0.2679  0.1773 -0.4800
 1338poe    c31 7405   3.733   2.489   0.487 -0.0145  0.1496 -0.0691
 1338poe     o2 7406   3.704   2.357   0.445 -0.3148  0.2684 -0.2415
 1338poe    c23 7407   3.815   2.272   0.427 -0.4255  0.1693 -0.4467
 1338poe    c23 7408   3.771   2.149   0.344 -0.4056 -0.0989 -0.0648
 1338poe     o2 7409   3.651   2.099   0.396 -0.4637 -0.0989 -0.1968
 1338poe    c23 7410   3.613   1.970   0.352 -0.0023 -0.3529  0.1358
 1338poe    c23 7411   3.477   1.934   0.414 -0.3923 -0.4429 -0.7546
 1338poe     o2 7412   3.385   2.040   0.397  0.0615  0.1017  0.1277
 1338poe    c23 7413   3.261   1.997   0.447  0.0250  0.3543  0.2568
 1338poe    c23 7414   3.168   2.119   0.438 -0.3616  0.0734  0.3887
 1338poe     o2 7415   3.218   2.230   0.510  0.5336 -0.0275 -0.0719
 1338poe    c31 7416   3.147   2.348   0.482 -0.5241 -0.6460 -0.0322
 1339poe    c31 7417   0.391   3.131   5.606  0.4488  0.2810 -0.0841
 1339poe     o2 7418   0.347   3.001   5.640  0.4412  0.3290  0.0894
 1339poe    c23 7419   0.376   2.959   5.771 -0.2655 -0.3271  0.0396
 1339poe    c23 7420   0.325   2.815   5.790 -0.8495 -0.1148  0.1246
 1339poe     o2 7421   0.194   2.816   5.739 -0.8019  0.1563  0.0038
 1339poe    c23 7422   0.133   2.688   5.735  0.2764 -0.3475 -0.6090
 1339poe    c23 7423  -0.001   2.727   5.670  0.1411  0.3450  0.0745
 1339poe     o2 7424   0.042   2.805   5.560 -0.3554 -0.2469 -0.5441
 1339poe    c23 7425  -0.070   2.860   5.494 -0.2523  0.8712  0.1832
 1339poe    c23 7426  -0.018   2.998   5.451 -0.1113  0.6959 -0.2180
 1339poe     o2 7427   0.120   2.982   5.429 -0.3187 -0.8118 -0.4994
 1339poe    c31 7428   0.145   3.041   5.303  0.0089  0.5486  0.1871
 1340poe    c31 7429   4.861   4.446   4.724  0.6575  0.1062  0.4674
 1340poe     o2 7430   4.889   4.319   4.668 -0.0202  0.2861 -0.2903
 1340poe    c23 7431   4.830   4.206   4.728  0.1826  0.1139 -0.4133
 1340poe    c23 7432   4.856   4.096   4.624  0.0820 -0.4448  0.1477
 1340poe     o2 7433   4.988   4.045   4.619  0.2557  0.0250 -0.1033
 1340poe    c23 7434   4.990   3.934   4.533 -0.0852  0.0820 -0.1887
 1340poe    c23 7435   5.129   3.886   4.580 -0.3194  0.0444  0.4788
 1340poe     o2 7436   5.231   3.984   4.579 -0.4164  0.1450  0.4295
 1340poe    c23 7437   5.348   3.952   4.650  0.1930 -0.4114 -0.7833
 1340poe    c23 7438   5.455   4.052   4.602  0.0755  0.1137  0.0215
 1340poe     o2 7439   5.392   4.178   4.605 -0.3374 -0.0890 -0.0780
 1340poe    c31 7440   5.478   4.280   4.560 -0.4824 -0.0906 -0.3648
 1341poe    c31 7441   4.703   0.608   1.353  0.1620 -0.2193  0.1952
 1341poe     o2 7442   4.701   0.612   1.212  0.4322 -0.0148  0.1947
 1341poe    c23 7443   4.802   0.669   1.132  0.3778  0.0528  0.1741
 1341poe    c23 7444   4.907   0.557   1.116 -0.0771 -0.3785  0.1794
 1341poe     o2 7445   4.852   0.454   1.037  0.1096 -0.1467 -0.2582
 1341poe    c23 7446   4.951   0.358   1.009  0.4681 -0.2004  1.1272
 1341poe    c23 7447   4.879   0.235   0.951 -0.2314  0.7299 -0.0164
 1341poe     o2 7448   4.767   0.271   0.874 -0.4998  0.0685  0.0599
 1341poe    c23 7449   4.706   0.154   0.824 -0.3593  0.2123 -0.4491
 1341poe    c23 7450   4.566   0.196   0.776 -0.6192 -0.1160  0.0118
 1341poe     o2 7451   4.518   0.299   0.860 -0.0343 -0.0148  0.2276
 1341poe    c31 7452   4.383   0.325   0.831 -0.2953 -0.6748  0.8133
 1342poe    c31 7453   4.234   0.143   2.326 -0.1150  0.1031 -0.5060
 1342poe     o2 7454   4.150   0.064   2.408 -0.0072  0.3175 -0.1882
 1342poe    c23 7455   4.141   0.136   2.529  0.1839 -0.5532  0.3465
 1342poe    c23 7456   4.028   0.072   2.613 -0.0863  0.2838  0.6312
 1342poe     o2 7457   4.092  -0.045   2.658  0.0767  0.1423  0.0404
 1342poe    c23 7458   4.002  -0.108   2.746  0.0462 -0.1456 -0.1912
 1342poe    c23 7459   4.065  -0.241   2.792  0.2906 -0.1232 -0.4632
 1342poe     o2 7460   4.093  -0.314   2.675 -0.3999 -0.0468 -0.6837
 1342poe    c23 7461   4.079  -0.451   2.705  0.5166  0.0110  0.0475
 1342poe    c23 7462   4.080  -0.519   2.567  0.1650  0.0046  0.0479
 1342poe     o2 7463   4.200  -0.471   2.511 -0.0429  0.6966  0.1928
 1342poe    c31 7464   4.252  -0.552   2.408 -0.2219  0.5181  0.2423
 1343poe    c31 7465   1.810   3.753   5.879 -0.1714 -0.4804  0.3601
 1343poe     o2 7466   1.674   3.719   5.866 -0.2968 -0.0322  0.4548
 1343poe    c23 7467   1.658   3.590   5.810 -0.4463  0.1671  0.0370
 1343poe    c23 7468   1.510   3.549   5.805 -0.4486  0.1290  0.4125
 1343poe     o2 7469   1.448   3.620   5.700  0.1510  0.0199 -0.0168
 1343poe    c23 7470   1.316   3.625   5.749  0.2256 -0.1077  0.1986
 1343poe    c23 7471   1.226   3.698   5.648 -0.3223 -0.4597  0.4285
 1343poe     o2 7472   1.262   3.833   5.630 -0.5146 -0.4457  0.1308
 1343poe    c23 7473   1.204   3.889   5.515  0.1485 -0.5314 -0.2503
 1343poe    c23 7474   1.199   4.041   5.543 -0.1216 -0.5136 -0.3910
 1343poe     o2 7475   1.328   4.077   5.586 -0.0445 -0.5160 -0.6190
 1343poe    c31 7476   1.359   4.214   5.581 -0.2537 -0.4387  0.0831
 1344poe    c31 7477   0.192   6.746   2.140 -0.0648  0.5257  0.3058
 1344poe     o2 7478   0.247   6.853   2.213  0.4048  0.1981  0.4373
 1344poe    c23 7479   0.354   6.916   2.146  0.4065 -0.1700  0.0930
 1344poe    c23 7480   0.375   7.048   2.223  0.1165 -0.0025 -0.1137
 1344poe     o2 7481   0.392   7.014   2.359 -0.2184 -0.4241 -0.1739
 1344poe    c23 7482   0.407   7.124   2.446 -0.0545 -0.6741  0.1147
 1344poe    c23 7483   0.434   7.064   2.585 -0.0267  0.0527  0.4294
 1344poe     o2 7484   0.356   6.947   2.597  0.6690 -0.4882 -0.1725
 1344poe    c23 7485   0.393   6.896   2.723  0.2896  0.2859  0.2609
 1344poe    c23 7486   0.320   6.765   2.759  0.5795 -0.0875 -0.4950
 1344poe     o2 7487   0.339   6.670   2.657 -0.0289 -0.5782 -0.1630
 1344poe    c31 7488   0.326   6.536   2.698  0.0982 -0.3698  0.5784
 1345poe    c31 7489   0.795   3.081   1.523  0.3894 -0.3219  0.0437
 1345poe     o2 7490   0.918   3.098   1.455  0.1712  0.0592 -0.2564
 1345poe    c23 7491   0.905   3.033   1.331 -0.1458  0.2051 -0.3012
 1345poe    c23 7492   1.048   3.006   1.282  0.0478  0.0836  0.3286
 1345poe     o2 7493   1.126   3.116   1.324 -0.2151  0.4238 -0.0701
 1345poe    c23 7494   1.263   3.083   1.319 -0.2277  0.4130 -0.4001
 1345poe    c23 7495   1.348   3.194   1.386  0.3665 -0.6097  0.5705
 1345poe     o2 7496   1.277   3.239   1.499  0.0943  0.2697  0.0552
 1345poe    c23 7497   1.345   3.342   1.568 -0.1533  0.5902 -0.1799
 1345poe    c23 7498   1.281   3.375   1.704  0.0527 -0.0256  0.0678
 1345poe     o2 7499   1.153   3.435   1.701  0.0208 -0.0627  0.6312
 1345poe    c31 7500   1.123   3.512   1.815 -0.7298  0.8625 -0.1702
 1346poe    c31 7501   1.236   0.189   1.819 -0.2236 -0.7849  0.1949
 1346poe     o2 7502   1.307   0.297   1.762 -0.1116 -0.8806  0.1527
 1346poe    c23 7503   1.337   0.390   1.863 -0.7212  0.3319 -0.7635
 1346poe    c23 7504   1.453   0.476   1.807 -0.1137 -0.2299 -0.3827
 1346poe     o2 7505   1.579   0.413   1.813 -0.1084 -0.1675  0.1936
 1346poe    c23 7506   1.681   0.495   1.762 -0.3951 -0.2467 -0.5140
 1346poe    c23 7507   1.801   0.403   1.729  0.1110  0.1586  0.1687
 1346poe     o2 7508   1.775   0.332   1.610 -0.3674  0.0667  0.3255
 1346poe    c23 7509   1.877   0.246   1.566  0.1669  0.5730  0.5719
 1346poe    c23 7510   1.835   0.175   1.437  0.0306  0.4245  0.6987
 1346poe     o2 7511   1.714   0.105   1.457 -0.1536  0.5264 -0.0266
 1346poe    c31 7512   1.714  -0.003   1.366 -0.7932  0.6535 -0.1820
 1347poe    c31 7513   6.465   1.257   2.390 -0.0214 -0.2283 -0.4338
 1347poe     o2 7514   6.498   1.295   2.522 -0.3298 -0.0025 -0.4204
 1347poe    c23 7515   6.631   1.341   2.522 -0.1009 -0.6338  0.1702
 1347poe    c23 7516   6.668   1.345   2.671  0.4410  0.3313  0.0180
 1347poe     o2 7517   6.552   1.398   2.730  0.3495 -0.0567  0.1889
 1347poe    c23 7518   6.547   1.351   2.863  0.2884 -0.3016  0.1004
 1347poe    c23 7519   6.408   1.388   2.920 -0.0015 -0.6087 -0.4069
 1347poe     o2 7520   6.310   1.355   2.824 -0.6566  0.5220 -0.1355
 1347poe    c23 7521   6.191   1.357   2.901 -0.2365  0.1903  0.5307
 1347poe    c23 7522   6.063   1.317   2.826  0.0318  0.2493  0.0402
 1347poe     o2 7523   6.069   1.185   2.775 -0.2250  0.3371 -0.2244
 1347poe    c31 7524   5.939   1.149   2.737 -0.5242  1.0217  0.1280
 1348poe    c31 7525   0.028   6.086   3.324 -0.5802  0.3200  0.0090
 1348poe     o2 7526  -0.093   6.047   3.261 -0.5583 -0.0241  0.1732
 1348poe    c23 7527  -0.196   6.139   3.288 -0.5677 -0.1098  0.4306
 1348poe    c23 7528  -0.308   6.096   3.191 -0.0912  0.0426 -0.1965
 1348poe     o2 7529  -0.265   6.109   3.057  0.8050  0.1408  0.0940
 1348poe    c23 7530  -0.378   6.088   2.975  0.8951 -0.0643  0.0227
 1348poe    c23 7531  -0.327   6.044   2.837  0.4778 -0.6360  0.0451
 1348poe     o2 7532  -0.202   5.978   2.841  0.3707 -0.8294  0.1992
 1348poe    c23 7533  -0.171   5.954   2.705 -0.0682  0.1856 -0.0884
 1348poe    c23 7534  -0.037   5.881   2.691  0.0309  0.1852  0.7927
 1348poe     o2 7535   0.074   5.962   2.722  0.3293 -0.0768  0.4268
 1348poe    c31 7536   0.199   5.907   2.686  0.1063 -0.0041 -0.4775
 1349poe    c31 7537   1.140   6.013   6.741 -0.3167 -0.0530 -0.3374
 1349poe     o2 7538   1.011   5.963   6.771 -0.1640 -0.1353  0.2008
 1349poe    c23 7539   0.964   5.851   6.700 -0.2808  0.1627 -0.2023
 1349poe    c23 7540   0.833   5.816   6.774  0.1754 -0.2085  0.4393
 1349poe     o2 7541   0.761   5.930   6.812  0.2087  0.0634 -0.2978
 1349poe    c23 7542   0.624   5.902   6.827  0.0844  0.6640 -0.2719
 1349poe    c23 7543   0.550   6.029   6.873 -1.0528 -0.1847  0.2852
 1349poe     o2 7544   0.580   6.140   6.792  0.4495 -0.3722  0.5564
 1349poe    c23 7545   0.494   6.245   6.832 -0.0994 -0.4623 -0.3494
 1349poe    c23 7546   0.516   6.382   6.766  0.0335 -0.4185 -0.2148
 1349poe     o2 7547   0.655   6.402   6.759  0.0197 -0.1919  0.1148
 1349poe    c31 7548   0.673   6.530   6.701  0.1740 -0.1140  0.3326
 1350poe    c31 7549   1.025   5.417   5.821  0.2740 -0.0973  0.0832
 1350poe     o2 7550   1.071   5.335   5.715  0.1658  0.2396 -0.2243
 1350poe    c23 7551   1.132   5.403   5.607  0.1411 -0.0919 -0.4485
 1350poe    c23 7552   1.209   5.297   5.527  0.2629 -0.4469  0.1335
 1350poe     o2 7553   1.122   5.187   5.519 -0.0919 -0.1910  0.4318
 1350poe    c23 7554   1.190   5.087   5.447 -0.5253  0.3381 -0.7254
 1350poe    c23 7555   1.093   4.977   5.400  0.6666 -0.9053 -0.3766
 1350poe     o2 7556   1.003   4.940   5.502  0.1559  0.0465 -0.4640
 1350poe    c23 7557   0.916   4.839   5.456  0.2821 -0.2055 -0.1510
 1350poe    c23 7558   0.802   4.835   5.559  0.0838 -0.1056 -0.3661
 1350poe     o2 7559   0.725   4.954   5.564  0.0622 -0.1159 -0.4481
 1350poe    c31 7560   0.590   4.923   5.590 -0.0223  0.0746 -0.6625
 1351poe    c31 7561   1.420   2.674   4.056  0.1158  0.4895  0.0118
 1351poe     o2 7562   1.441   2.677   3.917 -0.0457 -0.2784 -0.0333
 1351poe    c23 7563   1.341   2.748   3.848  0.0975  0.2327  0.2795
 1351poe    c23 7564   1.418   2.815   3.732 -0.2872 -0.2680 -0.2755
 1351poe     o2 7565   1.501   2.719   3.671  0.0891 -0.1542  0.0522
 1351poe    c23 7566   1.589   2.765   3.572 -0.2112 -0.3790 -0.3200
 1351poe    c23 7567   1.637   2.648   3.483  0.0895 -0.1098 -0.5157
 1351poe     o2 7568   1.727   2.564   3.552  0.4529  0.3398 -0.4396
 1351poe    c23 7569   1.744   2.445   3.479 -0.6159  0.0584 -0.2387
 1351poe    c23 7570   1.847   2.358   3.553 -0.1497  0.4436 -0.4323
 1351poe     o2 7571   1.801   2.339   3.685  0.5869 -0.1583 -0.2546
 1351poe    c31 7572   1.901   2.316   3.782  0.6828  0.0607 -0.3000
 1352poe    c31 7573   0.581   1.591   6.816 -0.3156  0.1284 -0.3270
 1352poe     o2 7574   0.715   1.614   6.777 -0.1794 -0.0012  0.0578
 1352poe    c23 7575   0.720   1.678   6.652  0.6564 -0.6703 -0.2584
 1352poe    c23 7576   0.865   1.698   6.603  0.6021 -0.7155 -0.4377
 1352poe     o2 7577   0.931   1.771   6.703 -0.4819  0.3672 -0.4902
 1352poe    c23 7578   1.072   1.766   6.695 -0.4850 -0.1717 -0.2497
 1352poe    c23 7579   1.134   1.827   6.822 -0.0290 -0.2498 -0.4348
 1352poe     o2 7580   1.071   1.773   6.936  0.2953 -0.0056 -0.1421
 1352poe    c23 7581   1.116   1.822   7.061  0.5582 -0.3886 -0.0863
 1352poe    c23 7582   1.045   1.759   7.182 -0.1021 -0.1062 -0.3238
 1352poe     o2 7583   0.910   1.795   7.204 -0.0412 -0.4238  0.5899
 1352poe    c31 7584   0.871   1.744   7.330 -0.3475 -0.2297  0.5719
 1353poe    c31 7585   3.764   5.317   1.474  0.4865  0.1259 -0.2082
 1353poe     o2 7586   3.720   5.347   1.604 -0.5678  0.5240 -0.6479
 1353poe    c23 7587   3.817   5.420   1.675 -0.0499 -0.4502 -0.3428
 1353poe    c23 7588   3.853   5.379   1.819  0.0453 -0.2984 -0.3233
 1353poe     o2 7589   3.746   5.395   1.910  0.3243 -0.3323  0.0153
 1353poe    c23 7590   3.792   5.348   2.034  0.2354 -0.2843  0.0667
 1353poe    c23 7591   3.690   5.405   2.135  0.1851  0.5289 -0.4381
 1353poe     o2 7592   3.568   5.355   2.084  0.3128  0.1757 -0.3997
 1353poe    c23 7593   3.459   5.413   2.151  0.4369 -0.1553  0.0965
 1353poe    c23 7594   3.326   5.362   2.093  0.2579  0.6531 -0.2080
 1353poe     o2 7595   3.356   5.370   1.955 -0.0356 -0.1415 -0.3209
 1353poe    c31 7596   3.247   5.318   1.883 -0.1439 -0.0972 -0.1883
 1354poe    c31 7597   5.896   3.561   1.739  0.1342 -0.0642 -0.3584
 1354poe     o2 7598   5.956   3.637   1.637 -0.3120  0.6218 -0.1162
 1354poe    c23 7599   5.903   3.591   1.515 -0.9455 -0.0519  0.4032
 1354poe    c23 7600   5.881   3.698   1.406  0.4284 -0.2776 -0.1138
 1354poe     o2 7601   5.997   3.779   1.408  0.4455 -0.3066  0.0775
 1354poe    c23 7602   6.025   3.838   1.283  0.0520 -0.4746 -0.0926
 1354poe    c23 7603   6.146   3.933   1.299  0.1499 -0.6657  0.3361
 1354poe     o2 7604   6.106   4.030   1.393  0.0925  0.1909 -0.5590
 1354poe    c23 7605   6.221   4.094   1.445 -0.2452  0.3267  0.0242
 1354poe    c23 7606   6.171   4.213   1.529  0.1576  0.5163 -0.0028
 1354poe     o2 7607   6.057   4.176   1.604 -0.2268  0.1092 -0.7678
 1354poe    c31 7608   6.001   4.278   1.685 -0.0740 -0.0422 -0.4682
 1355poe    c31 7609   3.248   6.681   4.533 -0.0309  0.2113 -1.4747
 1355poe     o2 7610   3.382   6.722   4.519  0.0923  0.4697  0.2605
 1355poe    c23 7611   3.469   6.631   4.457 -0.7463 -0.5190  0.5184
 1355poe    c23 7612   3.610   6.667   4.509 -0.4157  0.0608 -0.7477
 1355poe     o2 7613   3.633   6.806   4.501 -0.5619  0.1847  0.7368
 1355poe    c23 7614   3.747   6.857   4.567  0.4260 -0.8206 -0.1466
 1355poe    c23 7615   3.776   6.992   4.499 -0.5789 -0.3613  0.3124
 1355poe     o2 7616   3.657   7.067   4.506 -0.4355 -0.1437  0.4468
 1355poe    c23 7617   3.670   7.178   4.420  0.4550 -0.6261 -0.0596
 1355poe    c23 7618   3.559   7.276   4.463  0.5282 -0.1761 -0.8703
 1355poe     o2 7619   3.432   7.225   4.428  0.2087 -0.1786  0.2355
 1355poe    c31 7620   3.326   7.313   4.456 -0.0221 -0.4952  0.3578
 1356poe    c31 7621   6.017   4.572   1.471  0.2441 -0.6752  0.1081
 1356poe     o2 7622   6.122   4.624   1.550 -0.1980  0.3742  0.0221
 1356poe    c23 7623   6.069   4.740   1.610  0.0825  0.7354 -0.4266
 1356poe    c23 7624   6.172   4.846   1.654  0.6137 -0.1133  0.4048
 1356poe     o2 7625   6.219   4.931   1.552 -0.1537  0.5104  0.5659
 1356poe    c23 7626   6.272   5.054   1.596  0.1993  0.3688  0.5338
 1356poe    c23 7627   6.310   5.162   1.494 -0.4661  0.1601  0.0608
 1356poe     o2 7628   6.425   5.135   1.416 -0.4037  0.0074  0.2066
 1356poe    c23 7629   6.482   5.246   1.351 -0.6004  0.0464  0.0996
 1356poe    c23 7630   6.621   5.225   1.288 -0.5428  0.1354  0.1959
 1356poe     o2 7631   6.601   5.146   1.173  0.0289  0.1299  0.0975
 1356poe    c31 7632   6.723   5.101   1.118  0.0176  0.2668 -0.0395
 1357poe    c31 7633   0.231   0.599   1.784  0.3236 -0.5630  0.2982
 1357poe     o2 7634   0.300   0.700   1.854  0.2616 -0.3584  0.0650
 1357poe    c23 7635   0.432   0.715   1.808  0.2055  0.0139  0.0162
 1357poe    c23 7636   0.504   0.808   1.907  0.3698  0.3072 -0.3750
 1357poe     o2 7637   0.509   0.736   2.029 -0.1404  0.0902 -0.4814
 1357poe    c23 7638   0.537   0.821   2.138 -0.4915 -0.5123  0.0863
 1357poe    c23 7639   0.494   0.763   2.274  0.0787 -0.3617  0.3340
 1357poe     o2 7640   0.371   0.696   2.257  0.4213 -0.7844 -0.5047
 1357poe    c23 7641   0.329   0.656   2.385  0.5247  0.4342 -0.0750
 1357poe    c23 7642   0.196   0.580   2.367  0.4053  0.6788 -0.2312
 1357poe     o2 7643   0.197   0.477   2.270 -0.3074  0.3165  0.1432
 1357poe    c31 7644   0.078   0.406   2.296  0.1353 -0.3939  0.2624
 1358poe    c31 7645   1.027   5.828   4.055  0.0374 -0.2348 -0.0765
 1358poe     o2 7646   1.112   5.741   4.126 -0.4592  0.0749  0.9107
 1358poe    c23 7647   1.040   5.641   4.197 -0.0166 -0.5611  0.4761
 1358poe    c23 7648   1.139   5.525   4.221  0.3567 -0.2162  0.6270
 1358poe     o2 7649   1.251   5.590   4.276  0.4667  0.2843 -0.1556
 1358poe    c23 7650   1.322   5.503   4.363  0.0021  0.1727  0.1137
 1358poe    c23 7651   1.387   5.609   4.455  0.0429  0.0056  0.2764
 1358poe     o2 7652   1.457   5.711   4.387  0.3470 -0.2881  0.1438
 1358poe    c23 7653   1.548   5.779   4.470  0.8383 -0.8882  0.1058
 1358poe    c23 7654   1.611   5.896   4.392 -0.3637 -0.5435 -0.3698
 1358poe     o2 7655   1.513   5.992   4.358 -0.1174 -0.2217 -0.1794
 1358poe    c31 7656   1.561   6.077   4.256  0.3170  0.1402  0.3170
 1359poe    c31 7657   0.941   3.811   3.018  0.2283  0.2803  0.5812
 1359poe     o2 7658   1.078   3.839   2.999  0.2075 -0.1847 -0.3162
 1359poe    c23 7659   1.115   3.954   3.071  0.4993 -0.1774 -0.4788
 1359poe    c23 7660   1.092   4.096   3.016  0.1890 -0.2087 -0.4286
 1359poe     o2 7661   1.153   4.125   2.893 -0.1560  0.3888 -0.4643
 1359poe    c23 7662   1.070   4.215   2.822 -0.1370  0.5876 -0.2360
 1359poe    c23 7663   1.141   4.268   2.696 -0.3846  0.2103 -0.5377
 1359poe     o2 7664   1.201   4.151   2.647  0.2248  0.3895 -0.2256
 1359poe    c23 7665   1.284   4.175   2.536  0.3519  0.7152 -0.0603
 1359poe    c23 7666   1.356   4.046   2.494  0.4260  0.6522  0.2594
 1359poe     o2 7667   1.409   3.990   2.612 -0.0884 -0.3840  0.0112
 1359poe    c31 7668   1.541   3.951   2.580  0.0005 -0.1930  0.1415
 1360poe    c31 7669   2.721   0.007   2.291 -0.1472 -0.5671  1.1405
 1360poe     o2 7670   2.738   0.143   2.321 -0.1269 -0.2134 -0.4035
 1360poe    c23 7671   2.664   0.220   2.229  0.6134  0.4154 -0.4927
 1360poe    c23 7672   2.674   0.369   2.266  0.2660  0.3679 -0.2001
 1360poe     o2 7673   2.803   0.377   2.323  0.1926 -0.0584  0.0337
 1360poe    c23 7674   2.825   0.513   2.352 -0.3042  0.1032 -0.3378
 1360poe    c23 7675   2.970   0.533   2.401 -0.3316 -0.6009  0.0431
 1360poe     o2 7676   3.001   0.454   2.513  0.1132 -0.4989 -0.0055
 1360poe    c23 7677   3.134   0.461   2.558  0.1364 -0.1937 -0.1183
 1360poe    c23 7678   3.168   0.386   2.689 -0.1227 -0.0682  0.0214
 1360poe     o2 7679   3.138   0.249   2.672  0.0093 -0.1217  0.2236
 1360poe    c31 7680   3.172   0.181   2.791  0.1596  0.2097  0.3712
 1361poe    c31 7681   2.608   3.757   5.574 -0.0791 -0.3264  0.3668
 1361poe     o2 7682   2.736   3.702   5.557  0.0966  0.2542 -0.2256
 1361poe    c23 7683   2.728   3.564   5.582 -0.1311  0.3463  0.2141
 1361poe    c23 7684   2.861   3.495   5.545 -0.3647 -0.1253  0.2413
 1361poe     o2 7685   2.923   3.594   5.466 -0.2324 -0.3514  0.0603
 1361poe    c23 7686   3.055   3.560   5.434 -0.2196 -0.3204  0.0809
 1361poe    c23 7687   3.128   3.677   5.366 -0.4852 -0.2346 -0.0570
 1361poe     o2 7688   3.074   3.781   5.443 -0.2742 -0.3065  0.1899
 1361poe    c23 7689   3.108   3.912   5.402  0.2692 -0.2793  0.7168
 1361poe    c23 7690   3.026   4.002   5.496 -0.3317 -0.3136  0.2306
 1361poe     o2 7691   2.900   3.938   5.498 -0.3229 -0.3176  0.8354
 1361poe    c31 7692   2.809   4.039   5.536 -0.3760  0.0575 -0.2459
 1362poe    c31 7693   2.544   1.790   1.691 -0.0538  0.1405  0.1255
 1362poe     o2 7694   2.523   1.654   1.661  0.4387  0.0112  0.3725
 1362poe    c23 7695   2.391   1.624   1.624  0.3033 -0.2083  1.0122
 1362poe    c23 7696   2.395   1.472   1.601 -0.4361 -0.0585 -0.2093
 1362poe     o2 7697   2.478   1.446   1.490 -0.5847  0.6151 -0.4848
 1362poe    c23 7698   2.458   1.310   1.456  0.9433  0.1454  0.3801
 1362poe    c23 7699   2.562   1.261   1.354  0.1961 -0.6434 -0.0077
 1362poe     o2 7700   2.680   1.254   1.431 -0.1740 -0.3646  0.5923
 1362poe    c23 7701   2.783   1.204   1.349 -0.4295  0.2227 -0.1077
 1362poe    c23 7702   2.921   1.223   1.415 -0.4152 -0.3300  0.0269
 1362poe     o2 7703   2.912   1.347   1.481  0.0842 -0.1543 -0.2228
 1362poe    c31 7704   3.036   1.413   1.487 -0.2303  0.5001 -0.6640
 1363poe    c31 7705   2.435   5.055   1.438 -0.7308  0.0203 -0.0028
 1363poe     o2 7706   2.523   5.069   1.547 -0.6430  0.2060 -0.0970
 1363poe    c23 7707   2.584   5.194   1.524 -0.3292  0.1252  0.2737
 1363poe    c23 7708   2.686   5.228   1.634  0.1347 -0.1803 -0.0591
 1363poe     o2 7709   2.622   5.260   1.755 -0.0638  0.3771 -0.3122
 1363poe    c23 7710   2.703   5.230   1.866 -0.7414  0.5834  0.2455
 1363poe    c23 7711   2.643   5.260   2.005 -0.0037  0.5574  0.5746
 1363poe     o2 7712   2.516   5.200   2.021  0.2662 -0.2475 -0.2347
 1363poe    c23 7713   2.451   5.257   2.132  0.3826  0.2694 -0.4292
 1363poe    c23 7714   2.318   5.183   2.153  0.4815  0.1396 -0.2560
 1363poe     o2 7715   2.266   5.168   2.023 -0.0942 -0.0106 -0.0086
 1363poe    c31 7716   2.127   5.147   2.035 -0.0152 -0.4544  0.1418
 1364poe    c31 7717   4.665   5.043   0.973  0.0955 -0.2087 -0.0644
 1364poe     o2 7718   4.548   5.003   0.904 -0.0221  0.3517 -0.1977
 1364poe    c23 7719   4.568   4.874   0.851  0.2365  0.2795  0.0696
 1364poe    c23 7720   4.428   4.825   0.808  0.1112  0.6137  0.0920
 1364poe     o2 7721   4.334   4.812   0.913  0.2430 -0.6474  0.0707
 1364poe    c23 7722   4.207   4.837   0.856  0.3660  0.3887  0.2341
 1364poe    c23 7723   4.096   4.817   0.961  0.3466 -0.7769  0.0060
 1364poe     o2 7724   4.118   4.907   1.067 -0.5292 -0.7273  0.1513
 1364poe    c23 7725   4.015   4.929   1.161 -0.1014  0.0669  0.4407
 1364poe    c23 7726   4.088   5.017   1.264  0.3162  0.2003  0.0353
 1364poe     o2 7727   4.222   4.975   1.281  0.2478 -0.2369 -0.4797
 1364poe    c31 7728   4.278   5.050   1.387 -0.6797  0.4531 -0.4684
 1365poe    c31 7729   6.514   3.804   1.067 -0.8190 -0.2340 -0.0563
 1365poe     o2 7730   6.506   3.901   0.965  0.0801 -0.0253  0.0601
 1365poe    c23 7731   6.544   3.852   0.839 -0.2288 -0.1264  0.0037
 1365poe    c23 7732   6.460   3.921   0.730  0.1075  0.0446 -0.1511
 1365poe     o2 7733   6.520   4.048   0.729 -0.4262  0.2987 -0.3071
 1365poe    c23 7734   6.453   4.140   0.645 -0.1483  0.6466 -0.1520
 1365poe    c23 7735   6.451   4.281   0.708 -0.5014  0.4851  0.2043
 1365poe     o2 7736   6.448   4.286   0.849  0.0670  0.1961  0.2299
 1365poe    c23 7737   6.450   4.408   0.920  0.1293  0.1066  0.3804
 1365poe    c23 7738   6.317   4.424   0.996 -0.2534  0.0718 -0.2803
 1365poe     o2 7739   6.307   4.338   1.106  0.2503  0.9894  0.4987
 1365poe    c31 7740   6.199   4.366   1.193 -0.2779 -0.1305  0.2281
 1366poe    c31 7741   2.760   3.819   4.561  0.3758 -0.6205  0.4085
 1366poe     o2 7742   2.676   3.894   4.645  0.2182 -0.3079 -0.0242
 1366poe    c23 7743   2.755   3.997   4.701 -0.6218  0.4855 -0.2611
 1366poe    c23 7744   2.671   4.048   4.819 -0.0068  0.1079  0.3499
 1366poe     o2 7745   2.533   4.050   4.789 -0.0390  0.3560  0.5095
 1366poe    c23 7746   2.442   4.050   4.896  0.0686  0.0001  0.6009
 1366poe    c23 7747   2.306   4.104   4.848  0.0534  0.0528  0.7016
 1366poe     o2 7748   2.258   4.023   4.743 -0.0339  0.4583  0.4227
 1366poe    c23 7749   2.122   4.041   4.712  0.0318 -0.1551 -0.2360
 1366poe    c23 7750   2.083   3.919   4.626  0.0352 -0.1792 -0.2034
 1366poe     o2 7751   2.181   3.912   4.525  0.4864 -0.1872  0.2275
 1366poe    c31 7752   2.159   3.802   4.439  0.2509  0.2278 -0.2475
 1367poe    c31 7753   3.533   3.549   2.139  0.1562  0.8808 -0.6828
 1367poe     o2 7754   3.575   3.594   2.266  0.2744 -0.5268 -0.2090
 1367poe    c23 7755   3.522   3.510   2.366  0.3429 -0.2662  0.0454
 1367poe    c23 7756   3.585   3.559   2.498 -0.4139 -0.1359  0.3649
 1367poe     o2 7757   3.588   3.699   2.485 -0.1838 -0.1828 -0.0815
 1367poe    c23 7758   3.628   3.767   2.602 -0.2868  0.1277 -0.2263
 1367poe    c23 7759   3.643   3.919   2.586  0.0496  0.1489  0.2801
 1367poe     o2 7760   3.735   3.947   2.482  0.0082 -0.2541  0.1332
 1367poe    c23 7761   3.744   4.086   2.458 -0.0203 -0.3459 -0.4063
 1367poe    c23 7762   3.858   4.125   2.361  0.0493  0.5359  0.0209
 1367poe     o2 7763   3.828   4.107   2.224  0.1617  0.5111 -0.0003
 1367poe    c31 7764   3.777   4.225   2.167  0.4365  0.8996  0.5390
 1368poe    c31 7765   5.539   2.988   6.312 -0.5937  0.0096 -0.5953
 1368poe     o2 7766   5.518   3.083   6.415  0.4862 -0.2977 -0.0774
 1368poe    c23 7767   5.642   3.126   6.467  0.1481 -0.0962  0.5705
 1368poe    c23 7768   5.611   3.255   6.545  0.1958  0.1535  0.1792
 1368poe     o2 7769   5.478   3.258   6.591  0.3614 -0.3774  0.7061
 1368poe    c23 7770   5.440   3.385   6.640  1.0656 -0.0476  0.4094
 1368poe    c23 7771   5.297   3.379   6.698  0.4578  1.2084 -0.8763
 1368poe     o2 7772   5.225   3.318   6.594  0.1073 -0.2717  0.2116
 1368poe    c23 7773   5.091   3.333   6.637  0.0853  0.1873 -0.0120
 1368poe    c23 7774   4.974   3.276   6.555  0.0313  0.1474  0.0922
 1368poe     o2 7775   4.970   3.135   6.554 -0.0273  0.1480  0.1877
 1368poe    c31 7776   4.937   3.078   6.429  0.5041 -0.3760  0.2853
 1369poe    c31 7777   1.627   4.737   2.012  0.2722  0.1734 -0.1189
 1369poe     o2 7778   1.593   4.855   1.943 -0.2014 -0.1272 -0.4071
 1369poe    c23 7779   1.456   4.879   1.965 -0.1304 -0.1613  0.0896
 1369poe    c23 7780   1.436   5.020   2.023  0.3075 -0.1700  0.2622
 1369poe     o2 7781   1.459   5.127   1.934 -0.3367  0.4339  0.8104
 1369poe    c23 7782   1.424   5.251   1.991 -0.2269  0.5322  0.6648
 1369poe    c23 7783   1.557   5.329   1.978  0.3209 -0.5032 -0.0917
 1369poe     o2 7784   1.605   5.317   1.846  0.3567 -0.5971 -0.0704
 1369poe    c23 7785   1.722   5.385   1.805 -0.2317  0.7315  0.3787
 1369poe    c23 7786   1.736   5.371   1.652 -0.4625 -0.1209  0.4312
 1369poe     o2 7787   1.715   5.235   1.619 -0.0437 -0.0475 -0.1546
 1369poe    c31 7788   1.797   5.200   1.510 -0.0352 -0.5304  0.0021
 1370poe    c31 7789   4.444   6.564   5.466  0.1639 -0.3144  0.1967
 1370poe     o2 7790   4.502   6.689   5.495 -0.1281 -0.0519 -0.3512
 1370poe    c23 7791   4.482   6.796   5.404 -0.2806  0.4411  0.2554
 1370poe    c23 7792   4.540   6.932   5.448  0.1717  0.4046 -0.2276
 1370poe     o2 7793   4.673   6.919   5.492  0.1807 -0.7326 -0.5466
 1370poe    c23 7794   4.724   7.026   5.569  0.3581 -0.7125 -0.6910
 1370poe    c23 7795   4.827   6.983   5.675  0.6260 -0.0349 -0.6715
 1370poe     o2 7796   4.935   6.937   5.598  0.0241 -0.7630 -1.0950
 1370poe    c23 7797   5.034   6.883   5.684 -0.2360  0.2177 -0.1624
 1370poe    c23 7798   5.112   6.777   5.604  0.0934  0.2317  0.1422
 1370poe     o2 7799   5.020   6.690   5.543  0.3897  0.3667 -0.5011
 1370poe    c31 7800   5.086   6.590   5.468  0.3069  0.0187 -0.1096
 1371poe    c31 7801   0.589   0.060   4.449 -0.2301 -0.4554 -0.1336
 1371poe     o2 7802   0.534  -0.043   4.528  0.2461 -0.1054  0.6668
 1371poe    c23 7803   0.638  -0.106   4.600  0.3669 -0.2836  0.3369
 1371poe    c23 7804   0.599  -0.248   4.641  0.0209 -0.2581  0.0990
 1371poe     o2 7805   0.499  -0.242   4.741  0.1175  0.0845  0.1764
 1371poe    c23 7806   0.517  -0.362   4.813 -0.0353 -0.1507 -0.1726
 1371poe    c23 7807   0.453  -0.362   4.953  0.5484  0.9049  0.1083
 1371poe     o2 7808   0.313  -0.352   4.948  0.4438 -0.4348 -0.1605
 1371poe    c23 7809   0.256  -0.372   5.076  0.0675  0.1873 -0.2252
 1371poe    c23 7810   0.106  -0.394   5.049  0.0743 -0.1091 -0.0250
 1371poe     o2 7811   0.046  -0.281   4.990 -0.1940 -0.4475 -0.4146
 1371poe    c31 7812  -0.080  -0.315   4.938 -0.2932  0.0270 -0.4912
 1372poe    c31 7813   1.247   3.864   5.136  0.0677  0.2416 -0.3915
 1372poe     o2 7814   1.198   3.961   5.046 -0.4820  0.3396  0.0061
 1372poe    c23 7815   1.274   3.960   4.927 -0.1127  0.4414  0.2377
 1372poe    c23 7816   1.188   4.030   4.820 -0.0614 -0.1690 -0.2120
 1372poe     o2 7817   1.138   4.158   4.851  0.4605  0.2478 -1.0569
 1372poe    c23 7818   1.092   4.220   4.733 -0.3259 -0.1672 -0.9708
 1372poe    c23 7819   1.052   4.365   4.761  0.0834 -0.2518  0.0968
 1372poe     o2 7820   0.968   4.353   4.874  0.3143  0.4802  0.3537
 1372poe    c23 7821   0.905   4.479   4.887  0.4144  0.4990  0.6541
 1372poe    c23 7822   0.816   4.469   5.013  0.0105  0.0439  0.3370
 1372poe     o2 7823   0.882   4.427   5.130 -0.2290 -0.1484  0.4023
 1372poe    c31 7824   0.776   4.434   5.223 -0.7054  0.5373 -0.1837
 1373poe    c31 7825   1.074   1.042   2.572 -0.2207 -0.1213  0.3486
 1373poe     o2 7826   1.159   0.990   2.472 -0.0929  1.0101 -0.1544
 1373poe    c23 7827   1.078   0.951   2.364  0.3677 -0.0672 -0.1276
 1373poe    c23 7828   1.174   0.884   2.264  0.0937 -0.5094 -0.0940
 1373poe     o2 7829   1.221   0.769   2.332 -0.6245 -0.5681  0.3216
 1373poe    c23 7830   1.303   0.692   2.246  0.1253  0.6579 -0.0911
 1373poe    c23 7831   1.317   0.550   2.303 -0.4831  0.6235 -0.0228
 1373poe     o2 7832   1.409   0.550   2.409 -0.4916 -0.3225 -0.0015
 1373poe    c23 7833   1.441   0.427   2.470  0.1294 -0.1104  0.1099
 1373poe    c23 7834   1.488   0.458   2.613  0.1193 -0.3138  0.1570
 1373poe     o2 7835   1.566   0.575   2.602 -0.2872 -0.0517  0.0323
 1373poe    c31 7836   1.628   0.586   2.728  0.2330  0.1851 -0.2413
 1374poe    c31 7837   5.885   4.382   4.223  0.3502  0.2425  0.0312
 1374poe     o2 7838   5.874   4.255   4.282 -0.7021  0.4538  0.3144
 1374poe    c23 7839   5.832   4.270   4.416 -0.3896  0.3607  0.4252
 1374poe    c23 7840   5.833   4.135   4.489 -0.3011 -0.2013 -0.6022
 1374poe     o2 7841   5.789   4.033   4.401 -0.2103 -0.7022 -0.0711
 1374poe    c23 7842   5.774   3.915   4.477  0.0621 -0.3475  0.5389
 1374poe    c23 7843   5.838   3.806   4.389 -0.2197 -0.4028  0.4025
 1374poe     o2 7844   5.754   3.793   4.277 -0.0072 -0.4606  0.2479
 1374poe    c23 7845   5.784   3.687   4.189 -0.3022 -0.1261 -0.2611
 1374poe    c23 7846   5.701   3.723   4.065  0.2644  0.0400 -0.5944
 1374poe     o2 7847   5.740   3.846   4.008  0.2407  0.4251  0.2142
 1374poe    c31 7848   5.656   3.880   3.901  0.4527 -0.5044 -0.2572
 1375poe    c31 7849   6.735   5.556   2.509  0.0705 -0.3618  0.3487
 1375poe     o2 7850   6.842   5.633   2.460 -0.1650 -0.2412  0.0187
 1375poe    c23 7851   6.970   5.576   2.478 -0.0815  0.0070  0.2004
 1375poe    c23 7852   7.085   5.664   2.425  0.1277 -0.2733  0.1861
 1375poe     o2 7853   7.115   5.660   2.287  0.3159 -0.4660  0.2325
 1375poe    c23 7854   7.235   5.729   2.265  0.1414  0.0490  0.8658
 1375poe    c23 7855   7.239   5.754   2.113  0.2834 -0.0202  0.8577
 1375poe     o2 7856   7.195   5.628   2.068 -0.5041  0.4026  0.4193
 1375poe    c23 7857   7.182   5.637   1.928 -1.2617  0.2481  0.4772
 1375poe    c23 7858   7.155   5.495   1.877 -0.0210  0.0075  0.4717
 1375poe     o2 7859   7.045   5.445   1.949 -0.3441 -0.1571 -0.1334
 1375poe    c31 7860   7.002   5.321   1.897 -0.7222  0.1327 -0.5243
 1376poe    c31 7861   0.093   1.749   3.634 -0.0474  0.4401 -0.0722
 1376poe     o2 7862   0.002   1.856   3.634 -0.4611  0.0960 -0.5445
 1376poe    c23 7863   0.058   1.942   3.731 -0.5798 -0.5507  0.1033
 1376poe    c23 7864  -0.032   2.062   3.763 -0.1802 -0.2721  0.1949
 1376poe     o2 7865  -0.152   2.021   3.826 -0.4185  0.2415  0.0802
 1376poe    c23 7866  -0.219   2.144   3.839 -0.1819  0.4130 -0.2732
 1376poe    c23 7867  -0.363   2.118   3.888 -0.1311 -0.0704 -0.3816
 1376poe     o2 7868  -0.348   2.040   4.005 -0.7976  0.0465 -0.2137
 1376poe    c23 7869  -0.470   1.998   4.061 -0.4848 -0.5914 -0.0004
 1376poe    c23 7870  -0.454   1.991   4.214  0.2495  0.0466 -0.0416
 1376poe     o2 7871  -0.325   1.937   4.233  0.3080  0.1838 -0.0524
 1376poe    c31 7872  -0.284   1.945   4.367 -0.4514  0.0740  0.1900
 1377poe    c31 7873   0.378   0.267   4.743 -0.0713 -0.2847 -0.0128
 1377poe     o2 7874   0.451   0.149   4.773  0.5409  0.0595 -0.1230
 1377poe    c23 7875   0.559   0.175   4.859  0.4625  0.3118 -0.1001
 1377poe    c23 7876   0.601   0.064   4.958 -0.0765 -0.2117 -0.4518
 1377poe     o2 7877   0.503   0.055   5.059  0.2564  0.0670 -0.1025
 1377poe    c23 7878   0.537  -0.051   5.146  0.4407  0.1068 -0.1241
 1377poe    c23 7879   0.459  -0.036   5.278  0.7468 -0.0621  0.0774
 1377poe     o2 7880   0.321  -0.048   5.248  0.8144 -0.3013 -0.1405
 1377poe    c23 7881   0.256  -0.104   5.360  0.1981 -0.6353 -0.6633
 1377poe    c23 7882   0.121  -0.032   5.383  0.5708 -0.0585 -0.2518
 1377poe     o2 7883   0.072  -0.002   5.254  0.2560 -0.2860 -0.1867
 1377poe    c31 7884  -0.031   0.093   5.274  0.4509 -0.1177  0.0235
 1378poe    c31 7885   0.524   4.132   1.641 -0.0225 -0.2240 -0.2184
 1378poe     o2 7886   0.390   4.172   1.657  0.0591 -0.0983  0.1776
 1378poe    c23 7887   0.308   4.077   1.592  0.6315 -0.2239 -0.3646
 1378poe    c23 7888   0.218   3.999   1.689  0.1649 -0.2731 -0.8317
 1378poe     o2 7889   0.112   4.075   1.743  0.8086 -0.0294  0.1171
 1378poe    c23 7890   0.067   4.003   1.855 -0.4258  0.4384 -0.0716
 1378poe    c23 7891  -0.058   4.066   1.919  0.2080  0.7403  0.8951
 1378poe     o2 7892  -0.033   4.205   1.924  0.3100  0.7856 -0.4495
 1378poe    c23 7893  -0.146   4.283   1.954 -0.0727 -0.1778  0.7342
 1378poe    c23 7894  -0.091   4.420   1.997  0.0939 -0.0149  0.0141
 1378poe     o2 7895   0.008   4.446   1.899 -0.0961 -0.4635 -0.3007
 1378poe    c31 7896   0.071   4.567   1.933 -0.4998 -0.3823  0.1818
 1379poe    c31 7897   4.640   5.351   4.093 -0.1554  0.4809 -0.1451
 1379poe     o2 7898   4.553   5.242   4.070  0.0463  0.2444  0.1963
 1379poe    c23 7899   4.536   5.171   4.190 -0.4270  0.2086  0.1134
 1379poe    c23 7900   4.416   5.075   4.180 -0.4564  0.2043  0.5057
 1379poe     o2 7901   4.295   5.144   4.163 -0.1490  0.5177 -0.4744
 1379poe    c23 7902   4.193   5.056   4.121 -0.0836 -0.2732  0.9502
 1379poe    c23 7903   4.061   5.135   4.136 -0.1352 -0.1005 -0.2914
 1379poe     o2 7904   4.084   5.261   4.078  0.1521  0.1678  0.4006
 1379poe    c23 7905   3.966   5.326   4.037  0.3116  0.2767  0.1127
 1379poe    c23 7906   3.988   5.477   4.014  0.1168  0.2582 -0.2039
 1379poe     o2 7907   4.069   5.510   3.904  0.1058  0.1615 -0.2410
 1379poe    c31 7908   4.137   5.633   3.912  0.1178  0.1141  0.4560
 1380poe    c31 7909   1.469   0.990   5.556 -0.4201  0.1007  0.3662
 1380poe     o2 7910   1.469   1.129   5.577  0.6230  0.1372  0.1683
 1380poe    c23 7911   1.451   1.200   5.456  0.0824  0.2354  0.3030
 1380poe    c23 7912   1.521   1.336   5.474  0.0902  0.2385  0.2468
 1380poe     o2 7913   1.442   1.407   5.567 -0.4354 -0.1459  0.1012
 1380poe    c23 7914   1.510   1.528   5.593 -0.5506 -0.2668  0.9839
 1380poe    c23 7915   1.404   1.638   5.615 -0.2368  0.1990  0.2252
 1380poe     o2 7916   1.314   1.580   5.707 -0.1469 -0.3755 -0.0470
 1380poe    c23 7917   1.195   1.655   5.722  0.4611  0.4983  0.4427
 1380poe    c23 7918   1.096   1.586   5.818 -0.0539 -0.3058 -0.6523
 1380poe     o2 7919   1.102   1.450   5.781  0.7044 -0.4209 -0.1278
 1380poe    c31 7920   1.009   1.380   5.861  0.2198  0.1119 -0.2215
 1381poe    c31 7921   3.525   4.085   0.129 -0.0516 -0.1865  0.1423
 1381poe     o2 7922   3.554   4.218   0.091 -0.2071 -0.1302  0.2204
 1381poe    c23 7923   3.600   4.295   0.200 -0.3531  0.2744 -0.0023
 1381poe    c23 7924   3.709   4.386   0.140 -0.3468  0.2920  0.0368
 1381poe     o2 7925   3.656   4.438   0.020  0.1208 -0.4229 -0.4911
 1381poe    c23 7926   3.757   4.507  -0.049  0.2825  0.2420  0.3939
 1381poe    c23 7927   3.680   4.566  -0.168  0.5070 -0.3703 -0.0652
 1381poe     o2 7928   3.616   4.460  -0.234 -0.0290  0.2482 -0.5573
 1381poe    c23 7929   3.558   4.502  -0.356 -0.1449  0.3738 -0.4588
 1381poe    c23 7930   3.552   4.402  -0.473 -0.0095  0.2269 -0.3415
 1381poe     o2 7931   3.478   4.283  -0.459 -0.3110  0.4082 -0.3776
 1381poe    c31 7932   3.492   4.214  -0.581  0.4222  0.4023 -0.2949
 1382poe    c31 7933   3.321   4.841   1.178 -0.0732  0.0865 -0.0456
 1382poe     o2 7934   3.324   4.940   1.279 -0.5422 -0.0308  0.0874
 1382poe    c23 7935   3.297   4.889   1.408 -0.7507 -0.4901 -0.1363
 1382poe    c23 7936   3.297   5.013   1.498  0.0953 -0.2156 -0.5087
 1382poe     o2 7937   3.264   5.128   1.424 -0.2247  0.0637  0.0559
 1382poe    c23 7938   3.278   5.251   1.492 -0.8245  0.0956  0.1276
 1382poe    c23 7939   3.267   5.366   1.390 -0.1993 -0.0311 -0.0869
 1382poe     o2 7940   3.380   5.355   1.306 -0.1998 -0.1611 -0.0709
 1382poe    c23 7941   3.383   5.479   1.239  0.2442 -0.2449 -0.2096
 1382poe    c23 7942   3.521   5.506   1.176  0.4577 -0.1862  0.2851
 1382poe     o2 7943   3.570   5.403   1.094 -0.1479 -0.4517  0.2553
 1382poe    c31 7944   3.709   5.420   1.080 -0.1092 -0.6907  0.3349
 1383poe    c31 7945   5.377   1.324   4.704  0.1303  0.0646 -0.5344
 1383poe     o2 7946   5.443   1.200   4.719  0.0489  0.0955  0.1488
 1383poe    c23 7947   5.352   1.097   4.752  0.0271  0.2271  0.4957
 1383poe    c23 7948   5.429   0.969   4.715 -0.0733  0.3966 -0.3002
 1383poe     o2 7949   5.561   0.977   4.763 -0.0759 -0.6163 -0.1134
 1383poe    c23 7950   5.647   0.865   4.754 -0.1295 -0.7124  0.5074
 1383poe    c23 7951   5.788   0.903   4.804 -0.4819  0.7974  0.4267
 1383poe     o2 7952   5.829   1.025   4.747 -0.1264  0.4452 -0.0875
 1383poe    c23 7953   5.964   1.043   4.784 -0.0477 -0.3107  0.0012
 1383poe    c23 7954   6.029   1.143   4.686  0.2035 -0.3400  0.1379
 1383poe     o2 7955   5.973   1.272   4.675  0.3727 -0.2425  0.3984
 1383poe    c31 7956   6.059   1.384   4.672  0.2183 -0.1269  0.2662
 1384poe    c31 7957   6.584   1.658   0.966  0.3744  0.6924 -0.4550
 1384poe     o2 7958   6.580   1.777   1.042 -0.2469  0.1506  0.3750
 1384poe    c23 7959   6.535   1.755   1.174 -0.4447  0.1695  0.3112
 1384poe    c23 7960   6.523   1.888   1.250  0.0017  0.2653  0.2164
 1384poe     o2 7961   6.445   1.988   1.189  0.0468  0.1392 -0.0510
 1384poe    c23 7962   6.438   2.090   1.286  0.3210  0.2886 -0.1875
 1384poe    c23 7963   6.321   2.181   1.243  0.4851  0.6958  0.2236
 1384poe     o2 7964   6.328   2.189   1.103 -0.0398 -0.1529  0.1447
 1384poe    c23 7965   6.241   2.285   1.047  0.1868 -0.1416 -0.1943
 1384poe    c23 7966   6.251   2.262   0.895  0.6814  0.3072 -0.2300
 1384poe     o2 7967   6.257   2.123   0.873 -0.2833  0.2046  0.1139
 1384poe    c31 7968   6.293   2.105   0.737  0.0307  0.4221  0.1673
 1385poe    c31 7969   1.642   6.468   5.736 -0.3898  0.6501 -0.2955
 1385poe     o2 7970   1.514   6.409   5.748 -0.1830  0.3290  0.4069
 1385poe    c23 7971   1.451   6.435   5.624  0.2091  0.3443  0.2107
 1385poe    c23 7972   1.303   6.396   5.634  0.3264 -0.1150  0.1834
 1385poe     o2 7973   1.231   6.486   5.715  0.4686  0.5176 -0.3831
 1385poe    c23 7974   1.098   6.438   5.717  0.6012  0.1670  0.4738
 1385poe    c23 7975   1.004   6.504   5.819  0.5379  0.3538  0.2937
 1385poe     o2 7976   1.025   6.468   5.954 -0.1993 -0.4831  0.1971
 1385poe    c23 7977   0.923   6.516   6.040  0.3070  0.7891  0.1132
 1385poe    c23 7978   0.957   6.475   6.184  0.2771 -0.1303 -0.1358
 1385poe     o2 7979   1.097   6.483   6.203  0.1974  0.1551  0.3614
 1385poe    c31 7980   1.136   6.443   6.332  0.0053 -0.0852  0.3464
 1386poe    c31 7981   4.978   0.056   3.943 -0.1728  0.6680  0.1685
 1386poe     o2 7982   4.954   0.125   4.063 -0.5091  0.5839  0.1510
 1386poe    c23 7983   4.982   0.261   4.041 -0.6769  0.6183  0.1473
 1386poe    c23 7984   4.954   0.342   4.169  0.1330  0.5498  0.3729
 1386poe     o2 7985   4.843   0.283   4.233  0.3234 -0.3700 -0.1120
 1386poe    c23 7986   4.825   0.355   4.354  0.3262  0.3036 -0.5061
 1386poe    c23 7987   4.708   0.293   4.432  0.3391  0.2636 -0.5192
 1386poe     o2 7988   4.700   0.162   4.380  0.3137 -0.0587  0.2754
 1386poe    c23 7989   4.598   0.085   4.440 -0.2647  0.3994 -0.1019
 1386poe    c23 7990   4.572  -0.047   4.366 -0.1558  0.1761  0.2536
 1386poe     o2 7991   4.670  -0.142   4.401 -0.1354  0.1367  0.0905
 1386poe    c31 7992   4.597  -0.255   4.443  0.1448 -0.2734 -0.5006
 1387poe    c31 7993   1.636   4.684   5.754 -0.2217  0.0347 -0.1302
 1387poe     o2 7994   1.587   4.687   5.887  0.0644 -0.3395 -0.0142
 1387poe    c23 7995   1.450   4.719   5.874  0.1621  0.2223  0.3065
 1387poe    c23 7996   1.406   4.714   6.021 -0.8536 -0.0952 -0.0030
 1387poe     o2 7997   1.499   4.789   6.096 -0.4922 -0.4362 -0.1078
 1387poe    c23 7998   1.457   4.803   6.230  0.3288 -0.1781  0.1278
 1387poe    c23 7999   1.543   4.905   6.307  0.0195 -0.6159  1.0594
 1387poe     o2 8000   1.680   4.886   6.332  0.3608  0.2223 -0.0919
 1387poe    c23 8001   1.739   4.989   6.408 -0.2927  0.4614  0.1008
 1387poe    c23 8002   1.893   4.995   6.400 -0.3000  0.1552 -0.3244
 1387poe     o2 8003   1.971   4.918   6.488 -0.9360 -0.0479  0.0679
 1387poe    c31 8004   1.987   4.793   6.425 -0.3481  0.1200 -0.1185
 1388poe    c31 8005   1.317   2.411   2.725  0.1238 -0.4842 -0.3875
 1388poe     o2 8006   1.297   2.298   2.807 -0.5420 -0.0587  0.0529
 1388poe    c23 8007   1.320   2.338   2.940  0.0590 -0.3347  0.0375
 1388poe    c23 8008   1.288   2.220   3.033  0.5318 -0.3841  0.1372
 1388poe     o2 8009   1.157   2.174   3.010  0.5309 -0.1538 -0.3158
 1388poe    c23 8010   1.129   2.057   3.083  0.1953 -0.1862 -0.4956
 1388poe    c23 8011   0.981   2.033   3.047 -0.0478  0.2738  0.1890
 1388poe     o2 8012   0.974   2.036   2.906 -0.2769 -0.6964  0.1709
 1388poe    c23 8013   0.843   2.009   2.860 -0.2600 -0.4503 -0.0295
 1388poe    c23 8014   0.820   2.028   2.709 -0.0141 -0.0749 -0.0203
 1388poe     o2 8015   0.810   2.164   2.672 -0.2589 -0.0300  0.2040
 1388poe    c31 8016   0.759   2.192   2.543  0.1310  0.7852  0.2224
 1389poe    c31 8017   3.125   5.314   6.388 -0.2932  0.2301 -0.8578
 1389poe     o2 8018   3.029   5.409   6.427  0.2285  0.1927  0.5663
 1389poe    c23 8019   2.979   5.487   6.321  0.5390  0.0419  0.3068
 1389poe    c23 8020   2.936   5.624   6.377  0.0304  0.0369 -0.0530
 1389poe     o2 8021   2.869   5.601   6.499  0.1092  0.3941  0.0581
 1389poe    c23 8022   2.797   5.716   6.538  0.0405  0.3032  0.2018
 1389poe    c23 8023   2.711   5.688   6.662 -0.2417 -0.3846 -0.1449
 1389poe     o2 8024   2.791   5.649   6.772 -0.2750  0.4497  0.1778
 1389poe    c23 8025   2.714   5.631   6.888  0.0862  0.2032  0.3808
 1389poe    c23 8026   2.766   5.710   7.009  0.4290  0.3602  0.1314
 1389poe     o2 8027   2.727   5.845   6.999 -0.3843  0.1116 -0.1256
 1389poe    c31 8028   2.767   5.923   7.110  0.3875 -0.2307 -0.1632
 1390poe    c31 8029   0.310   1.909   1.032  0.0067 -0.2586 -0.0091
 1390poe     o2 8030   0.222   1.810   1.078 -0.1459  0.0013  0.2642
 1390poe    c23 8031   0.167   1.738   0.969 -0.2327  0.4723 -0.0062
 1390poe    c23 8032   0.062   1.632   1.006  0.2947 -0.0054  0.1390
 1390poe     o2 8033   0.113   1.520   1.075 -0.4057 -0.1810  0.3837
 1390poe    c23 8034   0.021   1.416   1.048 -0.5755  0.2261 -0.6523
 1390poe    c23 8035   0.010   1.328   1.174 -0.2011  0.5199 -0.4112
 1390poe     o2 8036   0.131   1.312   1.244 -0.3540  0.1316 -0.2327
 1390poe    c23 8037   0.110   1.281   1.380 -0.1689 -0.0034 -0.2350
 1390poe    c23 8038   0.244   1.305   1.452  0.1265 -0.1282 -0.7320
 1390poe     o2 8039   0.306   1.423   1.406 -0.1179  0.4447  0.3551
 1390poe    c31 8040   0.400   1.459   1.505  0.3217  0.4520 -0.0619
 1391poe    c31 8041   6.149   1.895   5.701  0.4986 -0.2698 -0.2956
 1391poe     o2 8042   6.277   1.887   5.757  0.0843  0.2986  0.7654
 1391poe    c23 8043   6.288   1.758   5.813 -0.7765  0.0922  0.4605
 1391poe    c23 8044   6.399   1.768   5.919  0.1521  0.0332 -0.4823
 1391poe     o2 8045   6.511   1.799   5.840  0.6128 -0.2789  0.0431
 1391poe    c23 8046   6.630   1.776   5.912  0.7011  0.5612  0.1807
 1391poe    c23 8047   6.755   1.806   5.827  0.4304  0.1185 -0.3770
 1391poe     o2 8048   6.759   1.946   5.812  0.1948  0.1651 -0.0031
 1391poe    c23 8049   6.876   1.984   5.744  0.2379  0.4500  0.2269
 1391poe    c23 8050   6.866   2.116   5.666  0.1351  0.3079 -0.0021
 1391poe     o2 8051   6.778   2.103   5.556 -0.2730  0.1200  0.3433
 1391poe    c31 8052   6.746   2.224   5.490  0.0258 -0.1094 -0.2278
 1392poe    c31 8053   2.319   0.618   2.063  0.0430 -0.2667 -0.3303
 1392poe     o2 8054   2.422   0.553   1.992  0.5222 -0.2288  0.3246
 1392poe    c23 8055   2.534   0.638   2.011 -0.0951  0.5518  0.5257
 1392poe    c23 8056   2.659   0.568   1.956 -0.6558 -0.2363  0.2280
 1392poe     o2 8057   2.638   0.520   1.825  0.4277  0.3099 -0.1652
 1392poe    c23 8058   2.751   0.498   1.744  0.5068 -0.2873  0.0966
 1392poe    c23 8059   2.705   0.478   1.598 -0.2334  0.0722  0.2734
 1392poe     o2 8060   2.608   0.375   1.604 -0.0325 -0.1588 -0.3969
 1392poe    c23 8061   2.592   0.317   1.477 -0.0872  0.3427 -0.6217
 1392poe    c23 8062   2.450   0.259   1.459 -0.0044  0.1485 -0.6527
 1392poe     o2 8063   2.348   0.349   1.494  0.0820  0.0933 -0.2490
 1392poe    c31 8064   2.228   0.291   1.448 -0.4646  0.6099  0.5013
 1393poe    c31 8065   4.323   2.740   1.897 -0.0537  0.0211  0.1588
 1393poe     o2 8066   4.225   2.642   1.924  0.1592 -0.3531 -0.4233
 1393poe    c23 8067   4.123   2.672   1.830  0.0953 -0.0540 -0.2587
 1393poe    c23 8068   4.002   2.580   1.851  0.7201 -0.8022  0.1103
 1393poe     o2 8069   3.923   2.582   1.968  0.2143  0.0066 -0.2336
 1393poe    c23 8070   3.863   2.454   1.975 -0.1242  0.1467 -0.5850
 1393poe    c23 8071   3.779   2.461   2.104 -0.0403  0.6058 -0.5503
 1393poe     o2 8072   3.853   2.496   2.219 -0.2788  0.2809 -0.2936
 1393poe    c23 8073   3.767   2.530   2.325  0.2113 -0.5861  0.3886
 1393poe    c23 8074   3.837   2.609   2.437 -0.6589  0.3099  0.3188
 1393poe     o2 8075   3.946   2.684   2.390 -0.4780 -0.1354  0.0180
 1393poe    c31 8076   4.013   2.736   2.503 -0.5029 -0.5561  0.2247
 1394poe    c31 8077   5.317   2.486   0.177  0.0506 -0.1949  0.0223
 1394poe     o2 8078   5.367   2.452   0.305  0.1915 -0.5272 -0.1187
 1394poe    c23 8079   5.379   2.564   0.390  0.1234 -0.3158 -0.3849
 1394poe    c23 8080   5.439   2.523   0.526  0.4212  0.3485 -0.3143
 1394poe     o2 8081   5.355   2.447   0.609  0.0529  1.1072  0.0090
 1394poe    c23 8082   5.416   2.428   0.735  0.0703  0.3145 -0.1174
 1394poe    c23 8083   5.342   2.340   0.837  0.2042  0.1754 -0.1396
 1394poe     o2 8084   5.214   2.392   0.865  0.0146 -0.4266  0.1421
 1394poe    c23 8085   5.151   2.296   0.946 -0.1622 -0.5018 -0.0836
 1394poe    c23 8086   5.025   2.359   1.009 -0.0718 -0.2333 -0.1720
 1394poe     o2 8087   4.958   2.433   0.910 -0.1835 -0.8321 -0.5475
 1394poe    c31 8088   4.846   2.494   0.970  0.3306 -0.2176 -0.2077
 1395poe    c31 8089   0.470   3.609   2.082 -0.2396 -0.1262 -0.1122
 1395poe     o2 8090   0.514   3.475   2.073  0.0597  0.0280 -0.9528
 1395poe    c23 8091   0.404   3.391   2.047 -0.1539  0.0922 -0.2681
 1395poe    c23 8092   0.468   3.274   1.970 -0.7174 -0.3717 -0.0373
 1395poe     o2 8093   0.560   3.212   2.058 -0.0397 -0.3167 -0.7007
 1395poe    c23 8094   0.637   3.117   1.988  0.3268  0.1407 -0.9274
 1395poe    c23 8095   0.724   3.045   2.092 -0.9335  0.1902  0.1879
 1395poe     o2 8096   0.773   3.156   2.165 -0.0155 -0.1717  0.1387
 1395poe    c23 8097   0.771   3.119   2.301 -0.2630 -0.1863  0.1315
 1395poe    c23 8098   0.762   3.241   2.394  0.0045 -0.4622  0.5234
 1395poe     o2 8099   0.680   3.332   2.323  0.1054 -0.3222  0.5860
 1395poe    c31 8100   0.593   3.417   2.396  0.0224 -0.1439  0.2782
 1396poe    c31 8101   3.623   1.715   1.443  0.2310  0.5770  0.0505
 1396poe     o2 8102   3.498   1.771   1.408  0.0117  0.0619  0.0051
 1396poe    c23 8103   3.406   1.668   1.380 -0.4445  0.3723  0.3524
 1396poe    c23 8104   3.281   1.728   1.312 -0.1820  0.7056  0.1609
 1396poe     o2 8105   3.204   1.795   1.408  0.0011  0.7304  0.2900
 1396poe    c23 8106   3.080   1.849   1.369 -0.2596 -0.3833 -0.4511
 1396poe    c23 8107   3.021   1.929   1.487  0.3274  0.3123 -0.6249
 1396poe     o2 8108   3.102   2.038   1.527  0.6912 -0.1632 -0.0474
 1396poe    c23 8109   3.050   2.107   1.638 -0.5959  0.0284 -0.7431
 1396poe    c23 8110   3.133   2.229   1.682  0.0975 -0.5724 -0.3476
 1396poe     o2 8111   3.267   2.196   1.711  0.2651  0.1176 -0.3239
 1396poe    c31 8112   3.343   2.310   1.743  0.2349  0.0167  0.1077
 1397poe    c31 8113   1.405   2.723   0.026  0.0594  0.5894 -0.5142
 1397poe     o2 8114   1.535   2.760   0.065  0.1921 -0.6449  0.2812
 1397poe    c23 8115   1.614   2.649   0.099  0.3938 -0.4860  0.3332
 1397poe    c23 8116   1.733   2.644   0.001 -0.2394 -0.1094 -0.4610
 1397poe     o2 8117   1.808   2.763   0.014  0.4568 -0.6175  0.2397
 1397poe    c23 8118   1.895   2.797  -0.091 -0.2056 -0.2718 -0.2038
 1397poe    c23 8119   1.970   2.923  -0.044 -0.3716 -0.1973 -0.1383
 1397poe     o2 8120   1.886   3.023   0.008 -0.2401 -0.0534 -0.2001
 1397poe    c23 8121   1.967   3.133   0.042 -0.5687  0.2044 -0.2441
 1397poe    c23 8122   1.866   3.242   0.083 -0.9847 -0.1565 -0.3036
 1397poe     o2 8123   1.772   3.180   0.168  0.0966 -0.9558  0.3270
 1397poe    c31 8124   1.709   3.288   0.233  0.2939 -0.9299  0.4792
 1398poe    c31 8125   4.593   6.063   6.369  0.1027  0.0378  0.3450
 1398poe     o2 8126   4.576   6.086   6.507 -0.2566  0.4861  0.2261
 1398poe    c23 8127   4.512   5.981   6.575  0.1829 -0.1234 -0.2989
 1398poe    c23 8128   4.504   6.004   6.727  0.6231  0.0635 -0.3014
 1398poe     o2 8129   4.475   6.141   6.747  0.1009 -0.0725 -0.0910
 1398poe    c23 8130   4.453   6.171   6.883  0.5849 -0.0890 -0.0049
 1398poe    c23 8131   4.377   6.304   6.874  0.5943  0.0029  1.1585
 1398poe     o2 8132   4.455   6.390   6.794 -0.2387 -0.0960  0.2090
 1398poe    c23 8133   4.403   6.521   6.786  0.2619  0.0452 -0.8878
 1398poe    c23 8134   4.514   6.628   6.776  0.1725  0.2924  0.5019
 1398poe     o2 8135   4.601   6.600   6.669 -0.2001  0.3397  0.1827
 1398poe    c31 8136   4.654   6.726   6.635 -0.1468  0.3706  0.3778
 1399poe    c31 8137   0.355   5.643   2.944  0.0274  0.1258  0.8602
 1399poe     o2 8138   0.248   5.552   2.946 -0.0221  0.1491 -0.3761
 1399poe    c23 8139   0.304   5.428   2.908 -0.4978 -0.2482  0.2098
 1399poe    c23 8140   0.208   5.311   2.937 -0.6995 -0.1446 -0.0407
 1399poe     o2 8141   0.162   5.327   3.069  0.2326 -0.6320  0.3518
 1399poe    c23 8142   0.070   5.224   3.097 -0.6377  0.1247  0.3617
 1399poe    c23 8143   0.023   5.233   3.243 -0.0607 -0.2242  0.5747
 1399poe     o2 8144   0.135   5.270   3.320  0.5486 -0.2692 -0.2757
 1399poe    c23 8145   0.125   5.224   3.453 -0.3751 -0.4922 -0.4163
 1399poe    c23 8146   0.233   5.263   3.556 -0.2675 -1.0872 -0.3009
 1399poe     o2 8147   0.358   5.230   3.500  0.0191  0.0883 -0.3663
 1399poe    c31 8148   0.457   5.234   3.600 -0.3856  0.6045  0.0161
 1400poe    c31 8149   3.295   6.401   0.340 -1.3057  0.0371 -0.0143
 1400poe     o2 8150   3.349   6.466   0.227  0.3424 -0.2167  0.6099
 1400poe    c23 8151   3.412   6.366   0.149 -0.5567  0.0553 -0.4860
 1400poe    c23 8152   3.550   6.422   0.109 -0.2939 -0.4018 -0.2217
 1400poe     o2 8153   3.539   6.529   0.019  0.5430 -0.1985 -0.0912
 1400poe    c23 8154   3.649   6.535  -0.068  0.5525 -0.3263 -0.0878
 1400poe    c23 8155   3.674   6.645  -0.173  0.1305  0.0060  0.1553
 1400poe     o2 8156   3.569   6.660  -0.265  0.1331 -0.4383  0.0773
 1400poe    c23 8157   3.584   6.758  -0.365  0.1686 -0.0122  0.4964
 1400poe    c23 8158   3.445   6.787  -0.426  0.4227  0.1564 -0.0073
 1400poe     o2 8159   3.369   6.876  -0.348 -0.3711 -0.0378 -0.5498
 1400poe    c31 8160   3.407   7.011  -0.367 -0.4725  0.0689 -0.0082
 1401poe    c31 8161   2.015   0.341   0.537  0.2983 -0.3201  0.1055
 1401poe     o2 8162   2.120   0.435   0.535 -0.4757  0.5707  0.4813
 1401poe    c23 8163   2.113   0.531   0.638  0.1500  0.2469  0.8317
 1401poe    c23 8164   2.218   0.640   0.613  0.3697 -0.1957 -0.2358
 1401poe     o2 8165   2.348   0.585   0.607  0.4876  0.0523 -0.0106
 1401poe    c23 8166   2.439   0.691   0.624  0.2468  0.2266  0.1942
 1401poe    c23 8167   2.578   0.651   0.572 -0.2346 -0.5995 -0.4866
 1401poe     o2 8168   2.608   0.535   0.646  0.2107 -0.0033  0.2828
 1401poe    c23 8169   2.719   0.472   0.587 -0.0617 -0.4441  0.2375
 1401poe    c23 8170   2.727   0.326   0.637 -0.3656 -0.5238  0.0544
 1401poe     o2 8171   2.593   0.284   0.650 -0.2688 -0.7672  0.2742
 1401poe    c31 8172   2.584   0.144   0.640 -0.3128 -0.7219 -0.3659
 1402poe    c31 8173   1.591   2.473   5.376  0.3664 -0.5442 -0.4072
 1402poe     o2 8174   1.693   2.496   5.470 -0.2026  0.2870  0.0162
 1402poe    c23 8175   1.796   2.582   5.426 -0.0802  0.1215 -0.0182
 1402poe    c23 8176   1.889   2.637   5.535  0.3914 -0.3567 -0.1716
 1402poe     o2 8177   1.975   2.543   5.597  0.0165 -0.6023 -0.0207
 1402poe    c23 8178   2.063   2.607   5.687 -0.2968 -0.4695  0.1959
 1402poe    c23 8179   2.101   2.513   5.803 -0.6382 -0.0177  0.6774
 1402poe     o2 8180   2.115   2.388   5.739  0.3496  0.1548  0.5393
 1402poe    c23 8181   2.201   2.295   5.802  0.2392 -0.5144 -0.2820
 1402poe    c23 8182   2.206   2.181   5.698  0.4533 -0.7444 -0.0217
 1402poe     o2 8183   2.086   2.176   5.623  0.1225 -0.5218  0.4831
 1402poe    c31 8184   2.055   2.045   5.581  0.1860 -0.3207 -0.2061
 1403poe    c31 8185   4.363   2.339   1.023 -0.2910 -0.6347  0.7019
 1403poe     o2 8186   4.266   2.275   1.103 -0.7120 -0.4889  0.3118
 1403poe    c23 8187   4.344   2.252   1.218 -0.1280  1.2271  0.2907
 1403poe    c23 8188   4.247   2.200   1.326  0.1911  0.2930  0.1373
 1403poe     o2 8189   4.140   2.291   1.325 -0.2570 -0.2316  0.0012
 1403poe    c23 8190   4.033   2.260   1.411 -0.2340 -0.3024  0.0040
 1403poe    c23 8191   3.928   2.366   1.374 -0.3630 -0.4689 -0.1087
 1403poe     o2 8192   3.936   2.390   1.236 -0.3764  0.0125 -0.0283
 1403poe    c23 8193   3.877   2.512   1.197 -0.1000  0.1775  0.0659
 1403poe    c23 8194   3.915   2.526   1.048 -0.1001  0.6600  0.1096
 1403poe     o2 8195   4.049   2.484   1.037 -0.1566  0.4053  0.3606
 1403poe    c31 8196   4.082   2.494   0.900  0.3685 -0.4460  0.4183
 1404poe    c31 8197   0.564   3.462   3.915  0.5896 -0.0995  0.2381
 1404poe     o2 8198   0.545   3.336   3.855 -0.0319  0.0091  0.2025
 1404poe    c23 8199   0.655   3.312   3.770  0.0660 -0.7383  0.5380
 1404poe    c23 8200   0.634   3.176   3.699  0.4804 -0.4754 -0.0989
 1404poe     o2 8201   0.611   3.073   3.792  0.1177  0.0488  0.4030
 1404poe    c23 8202   0.549   2.967   3.722 -0.3683  0.4290  0.2548
 1404poe    c23 8203   0.475   2.868   3.814 -0.1541 -0.2520 -0.3040
 1404poe     o2 8204   0.421   2.946   3.918 -0.5390 -0.4588 -0.3455
 1404poe    c23 8205   0.369   2.864   4.020  0.0978 -0.1548  0.2351
 1404poe    c23 8206   0.324   2.937   4.148  0.3617  0.5978 -0.1011
 1404poe     o2 8207   0.218   3.028   4.126 -0.0416  0.2601  0.4257
 1404poe    c31 8208   0.160   3.069   4.247  0.3727  0.7017  0.4774
 1405poe    c31 8209   2.381   2.158   3.905  0.0778 -0.8152 -0.5644
 1405poe     o2 8210   2.408   2.062   4.006 -0.0962  0.2686  0.5378
 1405poe    c23 8211   2.295   1.978   4.017 -0.0578  0.1868  0.3095
 1405poe    c23 8212   2.322   1.910   4.152 -0.2804 -0.3851  0.0705
 1405poe     o2 8213   2.455   1.865   4.158 -0.2325 -0.2477  0.0592
 1405poe    c23 8214   2.480   1.812   4.286 -0.1855 -0.5032 -0.0537
 1405poe    c23 8215   2.619   1.746   4.288  0.0255 -0.0797 -0.5734
 1405poe     o2 8216   2.697   1.822   4.198  0.3057  0.5610  0.1916
 1405poe    c23 8217   2.817   1.755   4.170 -0.2703 -0.2156 -0.4727
 1405poe    c23 8218   2.932   1.830   4.100 -0.2741  0.7347  0.5179
 1405poe     o2 8219   3.012   1.913   4.180  0.2649  0.6489  0.0695
 1405poe    c31 8220   3.129   1.957   4.113 -0.0455  0.3401 -0.6829
 1406poe    c31 8221   4.267   0.980   6.197  0.3358 -0.1142  0.1808
 1406poe     o2 8222   4.408   0.971   6.192  0.3109 -0.0714 -0.6456
 1406poe    c23 8223   4.471   1.076   6.122 -0.5116  0.8174 -0.0793
 1406poe    c23 8224   4.594   1.015   6.052 -0.4474  0.5788  0.2400
 1406poe     o2 8225   4.641   0.922   6.147 -0.3783  0.2874 -0.0778
 1406poe    c23 8226   4.758   0.857   6.104 -0.5082  0.0842 -0.1262
 1406poe    c23 8227   4.805   0.781   6.229 -0.2995 -0.2796 -0.4226
 1406poe     o2 8228   4.685   0.719   6.273 -0.5735  0.5705  0.0499
 1406poe    c23 8229   4.720   0.598   6.335  0.4988  0.5549 -0.5471
 1406poe    c23 8230   4.609   0.531   6.418  0.6631  0.4645 -0.3981
 1406poe     o2 8231   4.516   0.468   6.332  0.2200  0.2882  0.2062
 1406poe    c31 8232   4.411   0.416   6.412  0.0857  0.2713  0.0206
 1407poe    c31 8233   4.236   4.053   3.262  0.5156 -0.0207 -0.5933
 1407poe     o2 8234   4.227   3.912   3.264 -0.3795  0.0419  0.0469
 1407poe    c23 8235   4.143   3.872   3.158 -0.1977  0.2665 -0.1809
 1407poe    c23 8236   4.123   3.722   3.186  0.1202  0.2713  0.0866
 1407poe     o2 8237   4.061   3.706   3.312 -0.2176  0.0182 -0.1075
 1407poe    c23 8238   4.037   3.571   3.344 -0.1359 -0.0218 -0.2114
 1407poe    c23 8239   3.980   3.554   3.486  0.3549 -0.2511 -0.0422
 1407poe     o2 8240   4.057   3.631   3.577  0.4474  0.0579 -0.3800
 1407poe    c23 8241   4.013   3.605   3.708  0.7833  0.2353 -0.2337
 1407poe    c23 8242   4.091   3.694   3.807  0.3527 -0.0445  0.3675
 1407poe     o2 8243   4.066   3.832   3.792 -0.1260 -0.1600  0.1202
 1407poe    c31 8244   4.132   3.886   3.903 -0.3797 -0.2640  0.3224
 1408poe    c31 8245   0.260   3.064   0.632  0.6166 -0.3658 -0.2931
 1408poe     o2 8246   0.163   3.038   0.730 -0.0519 -0.2828 -0.9222
 1408poe    c23 8247   0.032   3.038   0.678 -0.2824 -1.2973 -0.3873
 1408poe    c23 8248  -0.069   3.031   0.794  0.0120 -0.6620 -0.0865
 1408poe     o2 8249  -0.002   2.952   0.890  0.2776 -0.1159  0.1829
 1408poe    c23 8250  -0.088   2.924   0.998  0.3259 -0.1036  0.2248
 1408poe    c23 8251  -0.010   2.838   1.100 -0.0505 -0.8351 -0.0939
 1408poe     o2 8252   0.117   2.896   1.121 -0.1565 -0.6675  0.0912
 1408poe    c23 8253   0.145   2.879   1.258 -0.1071 -0.2836  0.1299
 1408poe    c23 8254   0.296   2.851   1.273  0.0353  0.1061 -0.5273
 1408poe     o2 8255   0.375   2.960   1.231  0.4035  0.0853  0.0908
 1408poe    c31 8256   0.508   2.944   1.272  0.5555  0.3165 -0.3017
 1409poe    c31 8257   3.387   1.332   3.695 -0.3102 -0.8424 -0.2273
 1409poe     o2 8258   3.459   1.330   3.573 -0.1496  0.2869 -0.1612
 1409poe    c23 8259   3.596   1.331   3.605 -0.0845  0.0965 -0.4349
 1409poe    c23 8260   3.671   1.312   3.472  0.0612 -0.0019 -0.3389
 1409poe     o2 8261   3.585   1.230   3.395 -0.1024 -0.1756  0.0292
 1409poe    c23 8262   3.637   1.234   3.264 -0.2174  0.1087 -0.0099
 1409poe    c23 8263   3.561   1.142   3.166 -0.0843  0.1911 -0.1897
 1409poe     o2 8264   3.423   1.168   3.181 -0.1733 -0.5341  0.3062
 1409poe    c23 8265   3.354   1.105   3.075  0.4307 -0.9917  0.1825
 1409poe    c23 8266   3.201   1.103   3.092  0.2944  0.3844 -0.7546
 1409poe     o2 8267   3.156   1.232   3.128  0.4149  0.1186  0.4092
 1409poe    c31 8268   3.020   1.237   3.091  0.3807 -0.8656  0.3659
 1410poe    c31 8269   2.725   0.527   5.300  0.3576 -0.1891  0.7067
 1410poe     o2 8270   2.591   0.569   5.285  0.3458 -0.4112  0.1840
 1410poe    c23 8271   2.540   0.621   5.406  0.0988 -0.5777  0.1528
 1410poe    c23 8272   2.387   0.618   5.424  0.0223 -0.0035 -0.3897
 1410poe     o2 8273   2.333   0.503   5.363  0.1815 -0.3722  0.1635
 1410poe    c23 8274   2.192   0.508   5.362  0.1846 -0.4147 -0.6373
 1410poe    c23 8275   2.142   0.399   5.265 -0.4968 -0.4377 -0.2625
 1410poe     o2 8276   2.180   0.411   5.130 -0.5036  0.3885 -0.1955
 1410poe    c23 8277   2.115   0.310   5.055  0.1210 -0.1174 -0.0612
 1410poe    c23 8278   2.149   0.331   4.907  0.3382  0.1188  0.0209
 1410poe     o2 8279   2.288   0.342   4.884  0.3672 -0.1904  0.0455
 1410poe    c31 8280   2.324   0.316   4.751  0.2775  0.1553 -0.0480
 1411poe    c31 8281   5.078   4.435   1.938  0.8285  0.1579 -0.4748
 1411poe     o2 8282   5.007   4.348   1.853  0.3898 -0.2111  0.2620
 1411poe    c23 8283   4.895   4.417   1.801  0.3977 -0.4584 -0.0835
 1411poe    c23 8284   4.836   4.345   1.678  0.2792  0.1142 -0.3671
 1411poe     o2 8285   4.794   4.212   1.702 -0.5850  0.3727 -0.4482
 1411poe    c23 8286   4.811   4.127   1.591 -0.0108 -0.6244  0.3920
 1411poe    c23 8287   4.743   3.989   1.603 -0.5783 -0.4102 -0.2956
 1411poe     o2 8288   4.768   3.936   1.731 -0.1525  0.2896 -0.0807
 1411poe    c23 8289   4.703   3.811   1.738  0.1253  0.1573  0.1480
 1411poe    c23 8290   4.749   3.745   1.870 -0.1824  0.0993  0.2273
 1411poe     o2 8291   4.752   3.842   1.971  0.0278 -0.1129  0.4273
 1411poe    c31 8292   4.801   3.796   2.095  0.5847 -0.1125  0.2106
 1412poe    c31 8293   4.262   4.428   1.183  0.2395 -0.2584 -0.1642
 1412poe     o2 8294   4.310   4.394   1.311 -0.3789  0.7191  0.3325
 1412poe    c23 8295   4.365   4.265   1.303 -0.4832  0.6901  0.0500
 1412poe    c23 8296   4.439   4.256   1.438 -0.3826  0.1704 -0.0385
 1412poe     o2 8297   4.357   4.318   1.534 -0.3439  0.6645 -0.3217
 1412poe    c23 8298   4.421   4.305   1.659 -0.4054 -0.1554 -0.3694
 1412poe    c23 8299   4.368   4.416   1.752  0.5163  0.0534 -0.0817
 1412poe     o2 8300   4.383   4.547   1.701  0.4310  0.0873 -0.0192
 1412poe    c23 8301   4.454   4.630   1.790  0.2807  0.0378  0.1458
 1412poe    c23 8302   4.483   4.759   1.712  0.7894  0.1569  0.5310
 1412poe     o2 8303   4.542   4.730   1.587  0.2074  0.1439  0.2574
 1412poe    c31 8304   4.683   4.727   1.585  0.1991 -0.2638  0.2391
 1413poe    c31 8305   0.598   0.514   1.323 -0.6362 -0.6163  0.1352
 1413poe     o2 8306   0.680   0.409   1.368 -0.0355 -0.2324 -0.0435
 1413poe    c23 8307   0.604   0.303   1.423 -0.1375 -0.2723 -0.2590
 1413poe    c23 8308   0.718   0.201   1.409  0.0790 -0.1802  0.7950
 1413poe     o2 8309   0.827   0.262   1.475  0.7085  0.2579 -0.6110
 1413poe    c23 8310   0.939   0.184   1.442  0.2670 -0.4999 -0.3461
 1413poe    c23 8311   1.065   0.260   1.489 -0.3617  0.0243  0.5119
 1413poe     o2 8312   1.056   0.392   1.439  0.3364 -0.1131  0.0111
 1413poe    c23 8313   1.177   0.464   1.434  0.4996 -0.4064 -0.3261
 1413poe    c23 8314   1.251   0.440   1.302 -0.0592 -0.0081 -0.7177
 1413poe     o2 8315   1.298   0.308   1.286 -0.2560 -0.1696  0.0366
 1413poe    c31 8316   1.322   0.271   1.152  0.8810 -0.3518  0.2750
 1414poe    c31 8317   5.104   4.819   0.246 -0.1680  0.2759 -0.0064
 1414poe     o2 8318   5.091   4.682   0.278 -0.3644  0.3683  0.3197
 1414poe    c23 8319   5.209   4.621   0.327 -0.3676  0.1251  0.0227
 1414poe    c23 8320   5.204   4.469   0.302  0.1975  0.1202 -0.0685
 1414poe     o2 8321   5.115   4.425   0.402 -0.1147 -0.0081 -0.4021
 1414poe    c23 8322   5.074   4.290   0.397 -0.0570 -0.0229 -0.4772
 1414poe    c23 8323   4.973   4.260   0.509  0.5242  0.0356  0.0690
 1414poe     o2 8324   4.852   4.327   0.480  0.4541 -0.1916 -0.1705
 1414poe    c23 8325   4.742   4.278   0.553  0.1476  0.0995 -0.4339
 1414poe    c23 8326   4.630   4.382   0.540 -0.9876 -1.0278  0.0645
 1414poe     o2 8327   4.630   4.427   0.406  0.5663 -0.6111  0.1777
 1414poe    c31 8328   4.500   4.427   0.351  0.4693  0.9113  0.3842
 1415poe    c31 8329   5.621   0.321   1.701 -0.9302 -0.4376  0.1804
 1415poe     o2 8330   5.658   0.219   1.611  0.1819  0.1225 -0.0110
 1415poe    c23 8331   5.562   0.198   1.510  0.2297  0.0596 -0.0432
 1415poe    c23 8332   5.622   0.086   1.424 -0.2116  0.0594 -0.3560
 1415poe     o2 8333   5.761   0.112   1.414 -0.2295  0.2502 -0.1062
 1415poe    c23 8334   5.813   0.010   1.332  0.2073 -0.1891  0.7019
 1415poe    c23 8335   5.951   0.053   1.279 -0.3208  0.2572 -0.3403
 1415poe     o2 8336   6.036   0.052   1.391 -0.1662 -0.0374 -0.4587
 1415poe    c23 8337   6.166   0.106   1.377 -0.1627  0.2710  0.6236
 1415poe    c23 8338   6.252   0.093   1.504  0.2342  0.6003  0.3913
 1415poe     o2 8339   6.205   0.165   1.616 -0.5413  0.5110  0.1317
 1415poe    c31 8340   6.295   0.144   1.722 -0.2788  0.0855 -0.1706
 1416poe    c31 8341   2.305   4.898   3.548 -0.2023  0.0697 -0.2341
 1416poe     o2 8342   2.197   4.812   3.520 -0.0993 -0.2206  0.2442
 1416poe    c23 8343   2.242   4.710   3.434 -0.1803  0.2959 -0.4159
 1416poe    c23 8344   2.165   4.580   3.461 -0.0079  0.3203  0.1976
 1416poe     o2 8345   2.031   4.624   3.453 -0.2136 -0.2653  0.3295
 1416poe    c23 8346   1.943   4.531   3.511 -0.4878 -0.2762 -0.1013
 1416poe    c23 8347   1.807   4.600   3.489 -0.2730  0.0867 -0.2798
 1416poe     o2 8348   1.809   4.737   3.523  0.4367 -0.0023  0.0511
 1416poe    c23 8349   1.681   4.795   3.534  0.4296 -0.0828  0.3886
 1416poe    c23 8350   1.672   4.937   3.593 -0.3841 -0.0002  0.0727
 1416poe     o2 8351   1.742   4.941   3.716 -0.0167 -0.3995 -0.1235
 1416poe    c31 8352   1.732   5.075   3.759 -0.5163 -0.6861  0.6854
 1417poe    c31 8353   4.565   0.207   6.769  0.6788  0.0996 -0.3957
 1417poe     o2 8354   4.547   0.342   6.806 -0.2812  0.0603 -0.7152
 1417poe    c23 8355   4.421   0.363   6.865 -0.1220 -0.0868 -0.3221
 1417poe    c23 8356   4.409   0.495   6.944 -0.2089 -0.5334  0.4192
 1417poe     o2 8357   4.468   0.495   7.072  0.5675  0.4631  0.0666
 1417poe    c23 8358   4.486   0.626   7.121 -0.6464  0.7948 -0.3474
 1417poe    c23 8359   4.564   0.624   7.254 -0.0622  0.4455 -0.6968
 1417poe     o2 8360   4.682   0.545   7.249 -0.6442 -0.5001  0.1457
 1417poe    c23 8361   4.757   0.553   7.369  0.1848  0.3285 -0.4170
 1417poe    c23 8362   4.865   0.444   7.364 -0.2397 -0.1085 -0.1118
 1417poe     o2 8363   4.796   0.326   7.330 -0.6547 -0.0077  0.3765
 1417poe    c31 8364   4.864   0.204   7.346 -0.6529 -0.0475  0.0655
 1418poe    c31 8365   6.291   1.316   0.541  0.7916  0.3193  0.2143
 1418poe     o2 8366   6.383   1.229   0.478  0.1735  0.0528 -0.3367
 1418poe    c23 8367   6.371   1.229   0.338  0.4154 -0.4239 -0.3572
 1418poe    c23 8368   6.501   1.167   0.281  0.7921  0.0816 -0.0572
 1418poe     o2 8369   6.520   1.031   0.313  0.2410  0.0133 -0.0132
 1418poe    c23 8370   6.657   1.001   0.316  0.2113 -0.1454 -0.2424
 1418poe    c23 8371   6.675   0.851   0.284 -0.6730 -0.3074  0.0023
 1418poe     o2 8372   6.628   0.792   0.403 -0.0049  0.0898  0.4707
 1418poe    c23 8373   6.608   0.652   0.394  0.1440  0.1186 -0.3839
 1418poe    c23 8374   6.525   0.616   0.519 -0.1853  0.0977 -0.6053
 1418poe     o2 8375   6.412   0.699   0.532 -0.0094  0.3299 -0.5496
 1418poe    c31 8376   6.326   0.643   0.628 -0.2229  0.0674 -0.8920
 1419poe    c31 8377   6.225   6.194   1.720 -0.1926 -0.0860 -0.3398
 1419poe     o2 8378   6.232   6.060   1.763  0.4576  0.0396 -0.0325
 1419poe    c23 8379   6.122   5.987   1.714  0.2417  0.0792  0.3925
 1419poe    c23 8380   6.105   5.840   1.756  0.0496  0.1564  0.5896
 1419poe     o2 8381   6.198   5.772   1.675 -0.4429 -0.2847  0.3890
 1419poe    c23 8382   6.221   5.635   1.701 -0.0876 -0.4323 -0.6223
 1419poe    c23 8383   6.353   5.583   1.643  0.1437  0.1811 -0.6582
 1419poe     o2 8384   6.468   5.646   1.695  0.1707 -0.3077 -0.1121
 1419poe    c23 8385   6.573   5.630   1.601  0.1052  0.5212 -0.3360
 1419poe    c23 8386   6.708   5.657   1.669  0.2289  0.5722 -0.6019
 1419poe     o2 8387   6.688   5.757   1.767 -0.3130 -0.2023  0.0979
 1419poe    c31 8388   6.806   5.775   1.842 -0.0603 -0.5424 -0.2105
 1420poe    c31 8389   1.057   1.298   3.016  0.0046  0.7378 -0.0289
 1420poe     o2 8390   1.086   1.228   3.135 -0.4233  0.2435 -0.2081
 1420poe    c23 8391   1.188   1.283   3.216 -0.3524 -0.2758  0.0584
 1420poe    c23 8392   1.180   1.212   3.352  0.0834  0.3580  0.4201
 1420poe     o2 8393   1.142   1.078   3.326  0.2722  0.4346 -0.2859
 1420poe    c23 8394   1.128   0.994   3.439  0.8096  0.2143 -0.3804
 1420poe    c23 8395   1.044   0.878   3.381  0.3775  0.2191  0.2286
 1420poe     o2 8396   0.949   0.942   3.298 -0.0961 -0.4733  0.2327
 1420poe    c23 8397   0.838   0.867   3.255 -0.9710  0.6579  0.5043
 1420poe    c23 8398   0.763   0.961   3.159 -1.0127  0.7393  0.6159
 1420poe     o2 8399   0.858   1.028   3.079 -0.7390 -0.1656  0.1732
 1420poe    c31 8400   0.806   1.034   2.948 -0.2800 -0.0900 -0.0078
 1421poe    c31 8401   6.545   5.966   5.922 -0.6812  0.0939 -0.0816
 1421poe     o2 8402   6.497   5.903   6.039 -0.2866  0.1622  0.1172
 1421poe    c23 8403   6.425   5.788   6.002 -0.0184  0.3177 -0.9238
 1421poe    c23 8404   6.429   5.691   6.121 -0.1683  1.0926 -0.2825
 1421poe     o2 8405   6.384   5.775   6.225 -0.5592  0.4841  0.0525
 1421poe    c23 8406   6.349   5.706   6.342  0.0314 -0.0056 -0.0576
 1421poe    c23 8407   6.313   5.808   6.452  0.7566 -0.4419  0.5981
 1421poe     o2 8408   6.422   5.898   6.458  0.2483  0.2479 -0.3102
 1421poe    c23 8409   6.434   5.987   6.566 -0.0525  0.2392 -0.2684
 1421poe    c23 8410   6.329   6.100   6.563  0.0848  0.3999  0.5600
 1421poe     o2 8411   6.198   6.060   6.597 -0.0236  0.3616  0.1065
 1421poe    c31 8412   6.104   6.162   6.572  0.0011  0.2942 -0.2719
 1422poe    c31 8413   2.608   4.228   0.256 -0.1910 -0.1490  0.1369
 1422poe     o2 8414   2.629   4.194   0.391 -0.1625 -0.2954  0.0958
 1422poe    c23 8415   2.675   4.305   0.465 -0.5277 -0.2167  0.2052
 1422poe    c23 8416   2.736   4.263   0.600 -0.9565  0.6990  0.6924
 1422poe     o2 8417   2.669   4.146   0.640 -0.5324  0.1346 -0.2264
 1422poe    c23 8418   2.661   4.150   0.781  0.3278  0.3503 -0.1788
 1422poe    c23 8419   2.536   4.085   0.844  0.3912  0.1224 -0.2846
 1422poe     o2 8420   2.417   4.143   0.797 -0.0567 -0.1954  0.4486
 1422poe    c23 8421   2.296   4.077   0.826  0.0673 -0.4955  0.2784
 1422poe    c23 8422   2.174   4.097   0.734 -0.1144  0.0553  0.6396
 1422poe     o2 8423   2.211   4.059   0.604 -0.0246 -0.2707  0.7599
 1422poe    c31 8424   2.108   4.097   0.515  0.3912  0.2542  0.4951
 1423poe    c31 8425   0.968   1.200   0.601 -0.3731 -0.8109  0.0891
 1423poe     o2 8426   0.872   1.195   0.499 -0.0460 -0.0159 -0.2701
 1423poe    c23 8427   0.868   1.306   0.412 -0.9189  0.0395 -0.1746
 1423poe    c23 8428   0.817   1.276   0.270 -0.4821 -0.0477 -0.3165
 1423poe     o2 8429   0.679   1.247   0.262 -0.4702 -0.0856 -0.3918
 1423poe    c23 8430   0.638   1.179   0.146 -0.5486 -0.5740 -0.0816
 1423poe    c23 8431   0.498   1.116   0.164 -0.4917 -0.7004 -0.0818
 1423poe     o2 8432   0.493   1.006   0.253  0.2324 -0.3848  0.3672
 1423poe    c23 8433   0.359   0.965   0.269  0.0737 -0.0037  0.0520
 1423poe    c23 8434   0.327   0.865   0.382  0.7729  0.0875  0.3364
 1423poe     o2 8435   0.375   0.922   0.501 -0.0427  0.9272  0.2722
 1423poe    c31 8436   0.338   0.848   0.615 -0.4151  0.1379 -0.3514
 1424poe    c31 8437   1.356   0.114   0.758  0.0102 -0.0626 -0.1945
 1424poe     o2 8438   1.349   0.029   0.871  0.4031 -0.1110 -0.2076
 1424poe    c23 8439   1.217   0.007   0.913  0.4411  0.3101  0.1397
 1424poe    c23 8440   1.201  -0.127   0.986  0.6634  0.1041 -0.1854
 1424poe     o2 8441   1.311  -0.202   0.939  1.0299  0.5180  0.0066
 1424poe    c23 8442   1.323  -0.312   1.026  0.5375  0.4552 -0.0025
 1424poe    c23 8443   1.457  -0.385   1.002 -0.0268 -0.3367 -0.8442
 1424poe     o2 8444   1.547  -0.285   0.962  0.1199  0.0184  0.3228
 1424poe    c23 8445   1.665  -0.264   1.037  0.2009 -0.1523  0.2446
 1424poe    c23 8446   1.729  -0.131   0.993 -0.2110  0.0510  0.2496
 1424poe     o2 8447   1.617  -0.047   0.975 -0.5045 -0.2769  0.5324
 1424poe    c31 8448   1.637   0.092   0.976  0.9304 -0.4540 -0.2383
 1425poe    c31 8449   5.621   1.538   6.357  0.1890 -1.0541  0.9505
 1425poe     o2 8450   5.511   1.583   6.433  0.0512  0.4658 -0.0922
 1425poe    c23 8451   5.440   1.686   6.368 -0.3173  0.0219 -0.3997
 1425poe    c23 8452   5.319   1.737   6.449 -0.1016 -0.2569  0.1065
 1425poe     o2 8453   5.343   1.795   6.575 -0.1375 -0.3129  0.1389
 1425poe    c23 8454   5.233   1.875   6.611 -0.1332 -0.4629  0.4855
 1425poe    c23 8455   5.248   1.921   6.757 -0.4269  0.2363  0.2974
 1425poe     o2 8456   5.355   2.012   6.770 -0.1620 -0.0564  0.1639
 1425poe    c23 8457   5.355   2.061   6.902 -0.3867  0.0983  0.1057
 1425poe    c23 8458   5.474   2.158   6.904 -0.4001  0.1357 -0.6591
 1425poe     o2 8459   5.581   2.101   6.832  0.0098 -0.2774  0.2665
 1425poe    c31 8460   5.685   2.187   6.873  0.4331 -0.5554 -0.2224
 1426poe    c31 8461   1.755   1.780   2.192 -0.1836  0.4920  0.3010
 1426poe     o2 8462   1.752   1.811   2.329  0.1822  0.2294  0.3689
 1426poe    c23 8463   1.715   1.692   2.396 -0.3403  0.1444 -0.0622
 1426poe    c23 8464   1.708   1.708   2.549 -0.1693 -0.1362 -0.0268
 1426poe     o2 8465   1.834   1.734   2.608 -0.3448  0.3520  0.1382
 1426poe    c23 8466   1.818   1.734   2.748  0.1809 -0.0824  0.2049
 1426poe    c23 8467   1.935   1.811   2.810  0.0036  0.4662 -0.1299
 1426poe     o2 8468   1.923   1.947   2.774 -0.5199  0.2797 -0.6675
 1426poe    c23 8469   2.056   1.992   2.773 -0.3838 -0.1153 -0.6268
 1426poe    c23 8470   2.059   2.146   2.763 -0.0414 -0.0614  0.1487
 1426poe     o2 8471   1.954   2.179   2.675  0.2518  0.2445 -0.0884
 1426poe    c31 8472   1.944   2.317   2.646 -0.2607  0.1813 -0.2381
 1427poe    c31 8473   6.304   0.389   3.739  0.3349 -0.5411  0.1837
 1427poe     o2 8474   6.437   0.391   3.693  0.1207 -0.3088 -0.4318
 1427poe    c23 8475   6.527   0.328   3.781 -0.0006  0.1860  0.0474
 1427poe    c23 8476   6.672   0.311   3.732 -0.0230  0.2261 -0.0309
 1427poe     o2 8477   6.709   0.433   3.672  0.1226  0.0879 -0.2241
 1427poe    c23 8478   6.842   0.474   3.693  0.1413  0.0657 -0.3025
 1427poe    c23 8479   6.879   0.596   3.606  0.0895  0.1686 -0.1818
 1427poe     o2 8480   6.793   0.701   3.642 -0.3000  0.1141 -0.9206
 1427poe    c23 8481   6.848   0.820   3.591  0.4041  0.1049 -0.2173
 1427poe    c23 8482   6.774   0.940   3.655  0.4047 -0.0501  0.0735
 1427poe     o2 8483   6.647   0.888   3.690  0.4444 -0.0723  0.1855
 1427poe    c31 8484   6.568   1.000   3.720  0.3919 -0.0577 -0.0064
 1428poe    c31 8485   0.223   1.864   5.269  0.0212  0.3060 -0.1314
 1428poe     o2 8486   0.136   1.948   5.197 -0.6133 -0.0161  0.2455
 1428poe    c23 8487   0.116   2.066   5.271  0.0177  0.1057  0.2290
 1428poe    c23 8488   0.037   2.167   5.187  0.1637  0.0087 -0.0271
 1428poe     o2 8489   0.110   2.240   5.091 -0.2412  0.4815  0.0190
 1428poe    c23 8490   0.168   2.172   4.982 -0.2131  0.0094  0.3269
 1428poe    c23 8491   0.247   2.277   4.901 -0.2155 -0.2058  0.0465
 1428poe     o2 8492   0.148   2.367   4.857 -0.1669 -0.1376  0.0770
 1428poe    c23 8493   0.143   2.388   4.718 -0.0643  0.1515  0.1155
 1428poe    c23 8494   0.039   2.500   4.701 -0.6756 -0.4067  0.1157
 1428poe     o2 8495  -0.072   2.462   4.779 -0.5227 -0.2141  0.4315
 1428poe    c31 8496  -0.188   2.539   4.760 -0.5590 -0.2017  0.6917
 1429poe    c31 8497   0.061   6.367   3.577  0.6931  0.2126 -0.8721
 1429poe     o2 8498   0.107   6.313   3.698 -0.2927  0.1255 -0.5299
 1429poe    c23 8499   0.074   6.176   3.698 -0.0391  0.0614 -0.1232
 1429poe    c23 8500   0.109   6.123   3.839  0.1529  0.2915 -0.0844
 1429poe     o2 8501   0.071   6.235   3.916 -0.7495 -0.2125  0.2215
 1429poe    c23 8502   0.089   6.211   4.053  0.1431  0.1448  0.1731
 1429poe    c23 8503   0.035   6.334   4.129  0.0091  0.1485  0.0707
 1429poe     o2 8504   0.078   6.450   4.061  0.3061  0.2422  0.4168
 1429poe    c23 8505   0.073   6.568   4.138  0.1750  0.1323  0.5783
 1429poe    c23 8506   0.062   6.706   4.070 -0.0830 -0.2073 -0.0734
 1429poe     o2 8507  -0.062   6.725   4.006  0.0250  0.0808 -0.1982
 1429poe    c31 8508  -0.069   6.858   3.960  0.7202  0.2038  0.0459
 1430poe    c31 8509   2.424   1.750   4.831 -1.0179 -0.0089 -0.3693
 1430poe     o2 8510   2.321   1.693   4.909 -0.3447 -0.2684  0.3375
 1430poe    c23 8511   2.348   1.701   5.048 -0.2615  0.4882  0.2799
 1430poe    c23 8512   2.237   1.627   5.124  0.2764 -0.1594  0.4365
 1430poe     o2 8513   2.220   1.490   5.092 -0.5474  0.0199  0.0884
 1430poe    c23 8514   2.199   1.411   5.206  0.4685 -0.4891 -0.0642
 1430poe    c23 8515   2.123   1.282   5.172  0.2868 -0.5093  0.4016
 1430poe     o2 8516   2.191   1.226   5.062  0.4479  0.2586  0.0995
 1430poe    c23 8517   2.095   1.151   4.990  0.2442  0.6108  0.0060
 1430poe    c23 8518   2.174   1.074   4.883  0.5245 -0.3340  0.8849
 1430poe     o2 8519   2.246   1.168   4.807 -0.8487  0.1755  0.1790
 1430poe    c31 8520   2.306   1.110   4.693  0.0731  0.1584  0.6600
 1431poe    c31 8521   5.283   4.631   1.023  0.1992 -0.2383 -0.1634
 1431poe     o2 8522   5.276   4.738   1.114 -0.2537 -0.1715 -0.2778
 1431poe    c23 8523   5.369   4.840   1.089  0.2770 -0.6332 -0.2090
 1431poe    c23 8524   5.413   4.914   1.216  0.6826 -0.4645 -0.4454
 1431poe     o2 8525   5.469   4.824   1.309  0.0490 -0.4758 -0.0727
 1431poe    c23 8526   5.483   4.880   1.438  0.1624 -0.3806 -0.1260
 1431poe    c23 8527   5.577   4.803   1.533  0.0990 -0.5350 -0.1866
 1431poe     o2 8528   5.517   4.681   1.569 -0.1633 -0.3007  0.1843
 1431poe    c23 8529   5.575   4.606   1.673  0.1534  0.0100  0.2340
 1431poe    c23 8530   5.479   4.499   1.729  0.2558 -0.2404 -0.0704
 1431poe     o2 8531   5.410   4.449   1.616 -0.3198  0.4490 -0.0341
 1431poe    c31 8532   5.325   4.344   1.657 -0.3975  0.2552 -0.6794
 1432poe    c31 8533   4.291   3.864   1.643  0.0365 -0.2650  0.0403
 1432poe     o2 8534   4.247   3.786   1.534 -0.3897 -0.3975  0.3035
 1432poe    c23 8535   4.343   3.761   1.433 -0.3392  0.2199  0.1959
 1432poe    c23 8536   4.266   3.715   1.308  0.4083 -0.3890 -0.0477
 1432poe     o2 8537   4.199   3.822   1.245 -0.3173 -0.5588  0.4150
 1432poe    c23 8538   4.089   3.788   1.163  0.1295 -0.0454 -0.4207
 1432poe    c23 8539   4.035   3.906   1.081 -0.0622  0.0336 -0.1807
 1432poe     o2 8540   4.124   3.983   1.004  0.1707 -0.4937 -0.4419
 1432poe    c23 8541   4.053   4.077   0.926 -0.0572 -0.3554 -0.0735
 1432poe    c23 8542   4.149   4.192   0.889 -0.1999 -0.1360  0.2429
 1432poe     o2 8543   4.280   4.155   0.855 -0.2420 -0.0385 -0.0253
 1432poe    c31 8544   4.328   4.262   0.777 -0.3388 -0.2658 -0.4061
 1433poe    c31 8545   0.234   0.358   1.309 -0.0747 -0.2207 -0.1923
 1433poe     o2 8546   0.095   0.349   1.292 -0.1299  0.1284  0.0514
 1433poe    c23 8547   0.060   0.243   1.205  0.1746  0.2121 -0.1733
 1433poe    c23 8548  -0.090   0.208   1.206  0.0424  0.7681 -0.1768
 1433poe     o2 8549  -0.143   0.153   1.324  0.1576  0.6114 -0.1981
 1433poe    c23 8550  -0.279   0.117   1.315  0.2698 -0.0687  0.6453
 1433poe    c23 8551  -0.313   0.024   1.433 -0.0007 -0.3544  0.3427
 1433poe     o2 8552  -0.250   0.095   1.538 -0.2145 -0.2597  0.4063
 1433poe    c23 8553  -0.226   0.017   1.653  0.1922 -0.3890  0.2341
 1433poe    c23 8554  -0.156   0.114   1.750 -0.2340 -0.1246  0.2764
 1433poe     o2 8555  -0.052   0.179   1.680 -0.0726 -0.3296  0.3266
 1433poe    c31 8556   0.042   0.238   1.767  0.3499 -0.6414  0.0848
 1434poe    c31 8557   3.001   5.209   3.902 -0.0660 -0.2526  0.3360
 1434poe     o2 8558   3.140   5.195   3.915  0.0410  0.3522 -0.1021
 1434poe    c23 8559   3.184   5.113   4.022  0.0894 -0.0819 -0.4496
 1434poe    c23 8560   3.330   5.077   3.991  0.1970  0.4048 -0.5301
 1434poe     o2 8561   3.403   5.186   3.940  0.5222  0.1107 -0.7039
 1434poe    c23 8562   3.531   5.142   3.902  0.3313 -0.4172 -0.7437
 1434poe    c23 8563   3.614   5.266   3.863 -0.1883  0.0635 -0.3306
 1434poe     o2 8564   3.554   5.321   3.748 -0.0739  0.4788 -0.1940
 1434poe    c23 8565   3.631   5.429   3.699  0.4557  0.2042  0.0211
 1434poe    c23 8566   3.558   5.523   3.600  0.4248 -0.2821 -0.4236
 1434poe     o2 8567   3.436   5.554   3.663  0.3411 -0.2593 -0.5983
 1434poe    c31 8568   3.370   5.663   3.601  0.1508 -0.0434 -0.0212
 1435poe    c31 8569   3.045   4.732   5.960  0.0173  0.0383  0.2746
 1435poe     o2 8570   3.005   4.860   6.006  0.5523  0.2972  0.0308
 1435poe    c23 8571   2.991   4.857   6.146 -0.0896  0.1588 -0.0305
 1435poe    c23 8572   2.958   4.995   6.204  0.2993  0.2888 -0.1178
 1435poe     o2 8573   2.830   5.035   6.160  0.3683  0.2905 -0.3152
 1435poe    c23 8574   2.788   5.159   6.212  0.5997  0.1545  0.2063
 1435poe    c23 8575   2.672   5.234   6.144  0.0715 -0.9371 -0.1253
 1435poe     o2 8576   2.710   5.288   6.020 -0.2007 -0.7977 -0.1502
 1435poe    c23 8577   2.600   5.331   5.943  0.0483 -0.5025 -0.3463
 1435poe    c23 8578   2.659   5.397   5.817  0.3467 -0.0158  0.0441
 1435poe     o2 8579   2.772   5.319   5.784  0.1911  0.0096 -0.5648
 1435poe    c31 8580   2.807   5.330   5.648 -0.2067 -0.2930 -0.6946
 1436poe    c31 8581   0.083   2.570   0.381 -0.1281  0.0863 -0.3149
 1436poe     o2 8582   0.122   2.539   0.513 -0.0636 -0.3895 -0.4452
 1436poe    c23 8583   0.018   2.547   0.608 -0.1077 -0.4623 -0.4875
 1436poe    c23 8584   0.055   2.471   0.737  0.2693 -0.2613 -0.4762
 1436poe     o2 8585   0.133   2.548   0.826 -0.6365  0.1656 -0.0391
 1436poe    c23 8586   0.121   2.486   0.953 -0.6133  0.1639 -0.0378
 1436poe    c23 8587   0.258   2.479   1.023 -0.8844  0.6781  0.5520
 1436poe     o2 8588   0.334   2.595   1.048  0.1954  0.1452 -0.1601
 1436poe    c23 8589   0.469   2.580   1.083  0.3426  0.3658 -0.6236
 1436poe    c23 8590   0.507   2.505   1.212 -1.3215  0.5142 -0.0280
 1436poe     o2 8591   0.491   2.365   1.214 -0.1880  0.3769  0.1126
 1436poe    c31 8592   0.538   2.315   1.338  0.1241  0.0838 -0.1236
 1437poe    c31 8593   1.157   0.808   0.847  0.3132  0.1128 -0.3739
 1437poe     o2 8594   1.033   0.838   0.788 -0.0221 -0.1198  0.2177
 1437poe    c23 8595   0.921   0.853   0.873 -0.1247 -0.4099  0.1342
 1437poe    c23 8596   0.799   0.888   0.786  0.0724 -0.1133 -0.0244
 1437poe     o2 8597   0.815   0.839   0.655 -0.2523 -0.3508  0.0216
 1437poe    c23 8598   0.709   0.892   0.579  0.2310  0.2860 -0.2241
 1437poe    c23 8599   0.713   0.818   0.444 -0.2260 -0.8910  0.3838
 1437poe     o2 8600   0.840   0.849   0.390 -0.5929  0.1703  0.0998
 1437poe    c23 8601   0.839   0.891   0.255 -0.1347 -0.5430 -0.1276
 1437poe    c23 8602   0.979   0.949   0.229 -0.1963 -0.2555  0.1772
 1437poe     o2 8603   1.091   0.864   0.219  0.0608  0.1141 -0.1346
 1437poe    c31 8604   1.195   0.944   0.169  0.2626 -0.5246 -0.7499
 1438poe    c31 8605   2.855   6.348   1.554 -0.4986  0.3240 -0.5102
 1438poe     o2 8606   2.756   6.249   1.537 -0.2984  0.0618 -0.1668
 1438poe    c23 8607   2.788   6.153   1.439 -0.0370 -0.1602  0.1353
 1438poe    c23 8608   2.665   6.065   1.409 -0.2127  0.0519  0.2335
 1438poe     o2 8609   2.608   6.031   1.533  0.0266  0.4744  0.4632
 1438poe    c23 8610   2.471   6.011   1.508  0.0582  0.1709  0.5245
 1438poe    c23 8611   2.383   6.064   1.623 -0.3506  0.0548  0.2677
 1438poe     o2 8612   2.450   6.182   1.659  0.1697 -0.1419 -0.0486
 1438poe    c23 8613   2.399   6.245   1.774  0.7448 -0.4754  0.3928
 1438poe    c23 8614   2.482   6.374   1.787 -0.1922  0.1470  0.2811
 1438poe     o2 8615   2.618   6.336   1.785 -0.3451 -0.4181  0.5272
 1438poe    c31 8616   2.695   6.447   1.826  0.2616 -0.3178 -0.8400
 1439poe    c31 8617   0.442   4.571   3.726  0.2407 -0.4523  0.0757
 1439poe     o2 8618   0.503   4.658   3.634  0.0868  0.1845  0.5674
 1439poe    c23 8619   0.521   4.793   3.670 -0.1573  0.2865  0.3116
 1439poe    c23 8620   0.580   4.872   3.552  0.2649 -0.2822  0.1377
 1439poe     o2 8621   0.504   4.858   3.434 -0.3391  0.7724  0.3786
 1439poe    c23 8622   0.553   4.940   3.331 -0.2217 -0.4973 -0.6024
 1439poe    c23 8623   0.467   4.973   3.207 -0.4372  0.6403 -0.1586
 1439poe     o2 8624   0.449   4.854   3.134  0.0545  0.5616 -0.1564
 1439poe    c23 8625   0.369   4.870   3.019  0.2476  0.4181 -0.3109
 1439poe    c23 8626   0.300   4.736   2.986  0.4716  0.1710  0.2235
 1439poe     o2 8627   0.192   4.690   3.063  0.2980 -0.1899 -0.2304
 1439poe    c31 8628   0.156   4.566   3.008 -0.1789  0.1809 -0.7625
 1440poe    c31 8629   3.275   1.224   5.634 -0.2126  0.0504  0.0976
 1440poe     o2 8630   3.230   1.317   5.729 -0.3756 -0.1673  0.2337
 1440poe    c23 8631   3.226   1.255   5.856  0.3737 -0.2512  0.2191
 1440poe    c23 8632   3.177   1.355   5.962 -0.0599 -0.1597 -0.0668
 1440poe     o2 8633   3.044   1.396   5.939  0.1562  0.2001 -0.7019
 1440poe    c23 8634   3.013   1.489   6.040  0.1544  0.0360 -0.5513
 1440poe    c23 8635   2.864   1.528   6.034 -0.0319 -0.6043 -0.1889
 1440poe     o2 8636   2.836   1.613   5.926 -0.6043  0.1810  0.5588
 1440poe    c23 8637   2.701   1.606   5.883 -0.1077  0.5372 -1.1433
 1440poe    c23 8638   2.675   1.730   5.796 -0.1961  0.9840 -0.4859
 1440poe     o2 8639   2.779   1.751   5.703  0.0237 -0.0629 -0.4898
 1440poe    c31 8640   2.731   1.846   5.610 -0.6126  0.6381  0.5242
 1441poe    c31 8641   4.690   3.064   5.333  0.3141  0.4607 -0.0489
 1441poe     o2 8642   4.656   3.146   5.223  0.2623  0.3019 -0.1503
 1441poe    c23 8643   4.763   3.144   5.131  0.4677  0.1066  0.0894
 1441poe    c23 8644   4.772   3.259   5.029 -0.3722  0.0751 -0.0255
 1441poe     o2 8645   4.646   3.287   4.973 -0.3780 -0.1393 -0.1201
 1441poe    c23 8646   4.675   3.330   4.841  0.0823 -0.0890 -0.0018
 1441poe    c23 8647   4.542   3.374   4.777  0.1763  0.0497 -0.1025
 1441poe     o2 8648   4.460   3.430   4.877  0.1601 -0.0090 -0.0829
 1441poe    c23 8649   4.344   3.496   4.831  0.1121 -0.0574 -0.0294
 1441poe    c23 8650   4.283   3.544   4.964 -0.3864 -0.4277 -0.1188
 1441poe     o2 8651   4.306   3.439   5.056  0.2113 -0.2080 -0.0126
 1441poe    c31 8652   4.187   3.422   5.129  0.3540 -0.5547  0.1428
 1442poe    c31 8653   0.992   0.915   4.082  0.0158  0.3490 -0.0314
 1442poe     o2 8654   1.027   0.930   4.218  0.5818 -0.0210 -0.1281
 1442poe    c23 8655   1.013   1.068   4.242  0.5068 -0.0571  0.0340
 1442poe    c23 8656   1.019   1.093   4.394  0.4816  0.3008 -0.0205
 1442poe     o2 8657   1.126   1.020   4.451  0.0869 -0.4437 -0.2173
 1442poe    c23 8658   1.167   1.079   4.573 -0.1875 -0.8291  0.0637
 1442poe    c23 8659   1.311   1.038   4.607  0.0527 -0.1281 -0.0920
 1442poe     o2 8660   1.343   0.900   4.599  0.6370 -0.0184  0.2902
 1442poe    c23 8661   1.482   0.881   4.586  0.7040 -0.6158  1.6610
 1442poe    c23 8662   1.512   0.750   4.510 -0.1616  0.1592 -0.0868
 1442poe     o2 8663   1.491   0.750   4.371  0.1179 -0.3041 -0.1314
 1442poe    c31 8664   1.550   0.630   4.327 -0.0759 -0.3256 -0.3331
 1443poe    c31 8665   6.222   4.303   5.980 -0.0668  0.8041 -0.3757
 1443poe     o2 8666   6.089   4.290   5.934 -0.0037 -0.2285 -0.2936
 1443poe    c23 8667   6.080   4.410   5.861  0.2053 -0.2093 -0.2887
 1443poe    c23 8668   5.960   4.393   5.767  0.0818 -0.2927 -0.1163
 1443poe     o2 8669   5.980   4.305   5.658 -0.1533 -0.0875 -0.3273
 1443poe    c23 8670   5.858   4.299   5.588 -0.1431  0.3941 -0.3905
 1443poe    c23 8671   5.864   4.186   5.484 -0.2496  0.1643 -0.1497
 1443poe     o2 8672   5.995   4.175   5.431 -0.3825 -0.5388 -0.3476
 1443poe    c23 8673   6.000   4.091   5.318  0.1171 -0.5204 -0.3408
 1443poe    c23 8674   6.148   4.111   5.283  0.1457 -0.4059 -0.1552
 1443poe     o2 8675   6.219   4.115   5.405  0.0601  0.2112 -0.1223
 1443poe    c31 8676   6.354   4.113   5.364  0.2967  0.4830  0.6295
 1444poe    c31 8677   2.783   6.194   6.796  0.1694 -0.6262 -0.2432
 1444poe     o2 8678   2.665   6.140   6.739 -0.1361 -0.2303  0.0122
 1444poe    c23 8679   2.579   6.238   6.685 -0.3426 -0.4345 -0.0291
 1444poe    c23 8680   2.454   6.176   6.620 -0.4942  0.0456 -0.1933
 1444poe     o2 8681   2.357   6.122   6.707 -0.2861 -0.1323 -0.0727
 1444poe    c23 8682   2.262   6.036   6.648 -0.4997 -0.1306  0.2678
 1444poe    c23 8683   2.170   5.974   6.754 -0.2612 -0.1925  0.4401
 1444poe     o2 8684   2.258   5.914   6.847 -0.4066  0.0188  0.7173
 1444poe    c23 8685   2.183   5.851   6.948 -0.4416  0.0261  0.6958
 1444poe    c23 8686   2.279   5.778   7.044  0.0630 -0.0791  0.1202
 1444poe     o2 8687   2.373   5.877   7.079 -0.1150  0.1912 -0.1561
 1444poe    c31 8688   2.438   5.849   7.201 -0.5586 -0.1674 -0.0004
 1445poe    c31 8689   5.271   2.544   2.438  0.8295 -0.2855  0.7540
 1445poe     o2 8690   5.365   2.546   2.333  0.2256 -0.1059  0.2066
 1445poe    c23 8691   5.433   2.423   2.338 -0.0984 -0.2943  0.0290
 1445poe    c23 8692   5.532   2.432   2.220 -0.7061  0.5587 -0.4228
 1445poe     o2 8693   5.581   2.564   2.214  0.1541  0.2675 -0.0121
 1445poe    c23 8694   5.673   2.582   2.109 -0.0184  0.2213 -0.1724
 1445poe    c23 8695   5.745   2.718   2.107  0.0986  0.1523 -0.7647
 1445poe     o2 8696   5.808   2.731   2.233 -0.2626  0.2699 -0.5945
 1445poe    c23 8697   5.849   2.865   2.252  0.1027  0.1480 -0.5226
 1445poe    c23 8698   5.857   2.898   2.402 -0.1058 -0.1838 -0.4367
 1445poe     o2 8699   5.730   2.895   2.463 -0.1567  0.1811 -0.5241
 1445poe    c31 8700   5.730   2.955   2.591 -0.2801 -0.5973 -0.1539
 1446poe    c31 8701   4.921   5.731   6.233  0.0270  0.6941  0.0008
 1446poe     o2 8702   4.785   5.707   6.259  0.0846  0.1306 -0.2177
 1446poe    c23 8703   4.739   5.614   6.163  0.0933 -0.0835 -0.0136
 1446poe    c23 8704   4.590   5.641   6.133 -0.0264 -0.6464  0.0510
 1446poe     o2 8705   4.493   5.594   6.223 -0.1244 -0.1579  0.2013
 1446poe    c23 8706   4.382   5.678   6.201 -0.1661 -0.3348 -0.2611
 1446poe    c23 8707   4.349   5.731   6.341  0.1525 -0.0167 -0.3047
 1446poe     o2 8708   4.331   5.630   6.439 -0.2500  0.0462 -0.3134
 1446poe    c23 8709   4.300   5.673   6.569  0.0555 -0.4070 -0.0909
 1446poe    c23 8710   4.321   5.549   6.659 -0.6078 -0.3552  0.1431
 1446poe     o2 8711   4.446   5.491   6.633 -0.6045 -0.4474  0.3661
 1446poe    c31 8712   4.466   5.388   6.727  0.2577 -0.1996  0.4655
 1447poe    c31 8713   6.414   0.390   2.441  0.7127  0.4962 -0.1908
 1447poe     o2 8714   6.307   0.420   2.354  0.6360  0.1806 -0.2031
 1447poe    c23 8715   6.321   0.329   2.247  0.2891  0.2689 -0.3254
 1447poe    c23 8716   6.239   0.349   2.118 -0.1329  0.2895 -0.0575
 1447poe     o2 8717   6.269   0.465   2.044  0.2909 -0.1173 -0.5299
 1447poe    c23 8718   6.173   0.476   1.941 -0.4179 -0.3257  0.0979
 1447poe    c23 8719   6.177   0.619   1.883 -0.1471 -0.2581  0.2802
 1447poe     o2 8720   6.305   0.675   1.868 -0.3740  0.1370 -0.2006
 1447poe    c23 8721   6.300   0.798   1.800 -0.5750  0.2220 -0.0315
 1447poe    c23 8722   6.425   0.885   1.823 -0.4483  0.1430 -0.4050
 1447poe     o2 8723   6.446   0.927   1.956  0.4615 -0.3737 -0.3804
 1447poe    c31 8724   6.369   1.035   2.002  0.3759 -0.7607  0.4079
 1448poe    c31 8725   2.421   0.410   6.574 -0.1223  0.2043 -0.3040
 1448poe     o2 8726   2.335   0.383   6.466  0.1825  0.2489 -0.5578
 1448poe    c23 8727   2.337   0.488   6.371  0.1411  0.6683 -0.0981
 1448poe    c23 8728   2.198   0.500   6.305 -0.0032  0.1364  0.1005
 1448poe     o2 8729   2.176   0.386   6.226 -0.4347  0.1646  0.1792
 1448poe    c23 8730   2.056   0.393   6.152 -0.3298  0.0464 -0.0046
 1448poe    c23 8731   2.048   0.259   6.077 -0.0561 -0.0577  0.1508
 1448poe     o2 8732   2.075   0.152   6.165  0.2616 -0.0450  0.0676
 1448poe    c23 8733   2.028   0.028   6.116  0.4174 -0.0265 -0.1331
 1448poe    c23 8734   2.081  -0.092   6.198 -0.2720 -0.2956 -0.0784
 1448poe     o2 8735   2.221  -0.097   6.190 -0.2608 -0.5648  0.2856
 1448poe    c31 8736   2.274  -0.197   6.106 -0.2012  0.1195 -0.5051
 1449poe    c31 8737   3.350   4.860   5.769 -0.5500  0.3163 -0.0963
 1449poe     o2 8738   3.374   4.783   5.884  0.6147  0.3052 -0.3368
 1449poe    c23 8739   3.433   4.665   5.836  0.1306  0.0530 -0.3132
 1449poe    c23 8740   3.433   4.550   5.939 -0.0936  0.6157  0.3189
 1449poe     o2 8741   3.300   4.514   5.971  0.0213 -0.2046 -0.1137
 1449poe    c23 8742   3.265   4.398   5.899 -0.6393 -0.0452 -0.0486
 1449poe    c23 8743   3.156   4.317   5.973  0.0406 -0.4731  0.4917
 1449poe     o2 8744   3.197   4.292   6.106  0.4821  0.0711  0.4641
 1449poe    c23 8745   3.101   4.209   6.167  0.1692 -0.1859 -0.3565
 1449poe    c23 8746   3.120   4.182   6.318 -0.4164 -0.0117 -0.2491
 1449poe     o2 8747   3.110   4.309   6.378 -0.1587  0.1540 -0.5485
 1449poe    c31 8748   3.136   4.298   6.516 -0.0002  0.6532 -0.5378
 1450poe    c31 8749   4.979   3.738   3.359  0.2507 -0.7649 -0.1682
 1450poe     o2 8750   5.016   3.604   3.380  0.3910 -0.7423 -0.2660
 1450poe    c23 8751   4.914   3.546   3.458  0.2146 -0.0902 -0.0133
 1450poe    c23 8752   4.930   3.393   3.458  0.7491 -0.0372  0.1595
 1450poe     o2 8753   4.897   3.332   3.335  0.3173  0.0679  0.2216
 1450poe    c23 8754   4.971   3.213   3.325  0.5966  0.3290 -1.0391
 1450poe    c23 8755   4.926   3.149   3.193  0.0081 -0.2823 -0.5499
 1450poe     o2 8756   4.957   3.226   3.079 -0.1575  0.1454 -0.3070
 1450poe    c23 8757   4.941   3.135   2.973  0.3650  0.4453 -0.6486
 1450poe    c23 8758   4.928   3.206   2.836  0.2209 -0.2119 -0.9807
 1450poe     o2 8759   5.039   3.293   2.836 -0.1292  0.2550  0.1283
 1450poe    c31 8760   5.053   3.329   2.700  0.5286 -0.0966  0.0999
 1451poe    c31 8761   6.364   4.016   4.034  0.3351 -0.9699  0.2043
 1451poe     o2 8762   6.481   3.966   3.975  0.2400 -0.5248 -0.3661
 1451poe    c23 8763   6.483   3.825   3.977  0.1663 -0.5216 -0.0244
 1451poe    c23 8764   6.614   3.782   3.908  0.4342 -0.4576  0.4452
 1451poe     o2 8765   6.722   3.850   3.968  0.0122  0.6841 -0.0644
 1451poe    c23 8766   6.843   3.816   3.904  0.0081  0.3919  0.0824
 1451poe    c23 8767   6.952   3.914   3.949 -0.0339  0.4566  0.0424
 1451poe     o2 8768   6.918   4.049   3.925 -0.1875  0.4335  0.1281
 1451poe    c23 8769   7.023   4.140   3.948  0.5106 -0.5341  0.8561
 1451poe    c23 8770   6.971   4.283   3.969  0.8036 -0.2071 -0.5147
 1451poe     o2 8771   6.882   4.286   4.079  1.0105 -0.1196 -0.3504
 1451poe    c31 8772   6.938   4.313   4.205  0.4379 -0.6839  0.0269
 1452poe    c31 8773   6.509   4.147   1.677  0.1369 -0.4718 -0.2096
 1452poe     o2 8774   6.514   4.287   1.694 -0.5344 -0.5058  0.3285
 1452poe    c23 8775   6.431   4.344   1.793 -0.4159  0.1154  0.0740
 1452poe    c23 8776   6.465   4.486   1.841 -0.1883  0.2633 -0.5081
 1452poe     o2 8777   6.504   4.577   1.741  0.3106  0.0576 -0.5057
 1452poe    c23 8778   6.506   4.710   1.790  0.3668 -0.2281  0.2892
 1452poe    c23 8779   6.589   4.810   1.707  0.1022 -0.4031 -0.1914
 1452poe     o2 8780   6.582   4.769   1.572 -0.2949  0.3082 -0.3881
 1452poe    c23 8781   6.626   4.874   1.488  0.0775  0.3325 -0.1651
 1452poe    c23 8782   6.637   4.824   1.342 -0.1648  0.1809 -0.1317
 1452poe     o2 8783   6.529   4.738   1.312  0.4441 -0.5722 -0.1835
 1452poe    c31 8784   6.534   4.707   1.175 -0.0189 -0.9920 -0.1066
 1453poe    c31 8785   1.147   1.970   1.486  0.3961 -0.0296 -0.3302
 1453poe     o2 8786   1.096   2.035   1.371  0.1933  0.1992 -0.1112
 1453poe    c23 8787   0.962   2.063   1.403  0.2387  0.4078 -0.1032
 1453poe    c23 8788   0.892   2.130   1.283 -0.6073 -0.1011  0.0920
 1453poe     o2 8789   0.936   2.064   1.167 -0.2962 -0.1267  0.2211
 1453poe    c23 8790   0.859   2.098   1.053  0.4366  0.1332 -0.2045
 1453poe    c23 8791   0.924   2.027   0.933  0.1285  0.1902 -0.4054
 1453poe     o2 8792   1.039   2.101   0.898  0.3534 -0.1388 -0.3670
 1453poe    c23 8793   1.100   2.048   0.783  0.1549 -0.0994 -0.4908
 1453poe    c23 8794   1.234   2.123   0.769  0.2186 -0.2141 -0.4952
 1453poe     o2 8795   1.300   2.122   0.893 -0.4503 -0.2681 -0.1360
 1453poe    c31 8796   1.440   2.117   0.878 -0.3360 -0.2575  0.8608
 1454poe    c31 8797   1.540   6.756   4.068  0.1296 -0.0211 -0.0837
 1454poe     o2 8798   1.559   6.676   4.183  0.2303  0.2413  0.0831
 1454poe    c23 8799   1.673   6.596   4.157  0.2356  0.2232  0.1637
 1454poe    c23 8800   1.662   6.482   4.260 -0.0022  0.4238  0.3626
 1454poe     o2 8801   1.625   6.534   4.386 -0.0769 -0.2027  0.6042
 1454poe    c23 8802   1.609   6.435   4.484 -0.2113 -0.3831  0.4024
 1454poe    c23 8803   1.602   6.512   4.617  0.0696 -0.0255  0.2120
 1454poe     o2 8804   1.489   6.596   4.613 -0.0038 -0.1540 -0.5539
 1454poe    c23 8805   1.442   6.637   4.740 -0.0814 -1.0120 -0.2975
 1454poe    c23 8806   1.295   6.681   4.730  0.1405 -0.0892  0.4264
 1454poe     o2 8807   1.282   6.793   4.645  0.2353 -0.0187  0.5052
 1454poe    c31 8808   1.145   6.815   4.621  0.2052 -0.6525  0.0641
 1455poe    c31 8809   0.170   6.703   6.683 -0.3824  0.1486  0.2491
 1455poe     o2 8810   0.203   6.592   6.603  0.2702  0.2789  0.3295
 1455poe    c23 8811   0.329   6.611   6.542  0.0781  0.0420 -0.1430
 1455poe    c23 8812   0.342   6.501   6.435 -0.4463  0.1715 -0.3445
 1455poe     o2 8813   0.316   6.381   6.504 -0.1220  0.0441 -0.4421
 1455poe    c23 8814   0.347   6.266   6.429  0.0948 -0.1824 -0.0057
 1455poe    c23 8815   0.336   6.136   6.511 -0.0962 -0.3622 -0.3117
 1455poe     o2 8816   0.215   6.118   6.582  0.0490 -0.2407 -0.0314
 1455poe    c23 8817   0.127   6.034   6.510 -0.6579  0.6085 -0.1798
 1455poe    c23 8818  -0.004   6.016   6.587 -0.3675 -0.1633  0.1426
 1455poe     o2 8819  -0.079   6.135   6.601 -0.0435  0.0803 -0.1984
 1455poe    c31 8820  -0.181   6.111   6.695  0.5347 -0.0386  0.4089
 1456poe    c31 8821   2.046   2.123   1.667 -0.3454 -0.1464 -0.1961
 1456poe     o2 8822   2.122   2.125   1.548  0.3592 -0.1644  0.2463
 1456poe    c23 8823   2.242   2.198   1.557 -0.0876  0.5696  0.4046
 1456poe    c23 8824   2.321   2.183   1.426 -0.4363  0.1882  0.2346
 1456poe     o2 8825   2.245   2.237   1.320 -0.3021 -0.4324 -0.1881
 1456poe    c23 8826   2.315   2.287   1.208 -0.4269 -0.1803 -0.1556
 1456poe    c23 8827   2.219   2.294   1.088 -0.3975  0.3074 -0.1504
 1456poe     o2 8828   2.148   2.174   1.069  0.5675 -0.2034 -0.6037
 1456poe    c23 8829   2.072   2.160   0.951 -0.0354 -0.2733 -0.2079
 1456poe    c23 8830   1.941   2.084   0.983 -0.4122  0.4011 -0.1287
 1456poe     o2 8831   1.973   1.984   1.076 -0.3522  0.0871 -0.4824
 1456poe    c31 8832   1.867   1.892   1.088  0.2385 -0.5467 -0.0554
 1457poe    c31 8833   2.205   0.998   1.734 -0.8095 -0.4330  0.6631
 1457poe     o2 8834   2.078   1.044   1.692 -0.3936 -0.1736 -0.3546
 1457poe    c23 8835   1.995   0.937   1.732  0.2357 -0.4069  0.3670
 1457poe    c23 8836   1.861   1.008   1.757  0.0002 -0.8053  0.2465
 1457poe     o2 8837   1.829   1.075   1.637  0.8576 -0.4424  0.2152
 1457poe    c23 8838   1.711   1.146   1.663  0.9332 -0.0768 -0.4250
 1457poe    c23 8839   1.657   1.230   1.545  0.1885  0.6050  0.3776
 1457poe     o2 8840   1.769   1.300   1.496  0.1607  0.4201  0.0435
 1457poe    c23 8841   1.740   1.417   1.423  0.4708  0.1878 -0.4625
 1457poe    c23 8842   1.865   1.459   1.344  0.4831  0.1126 -0.4832
 1457poe     o2 8843   1.968   1.475   1.439 -0.2813 -0.3415  0.4446
 1457poe    c31 8844   2.086   1.528   1.383 -0.2798 -0.1321  0.6457
 1458poe    c31 8845   4.857   6.166   0.121 -0.0975 -0.1450 -0.8754
 1458poe     o2 8846   4.836   6.299   0.081  0.0653  0.0569 -0.3017
 1458poe    c23 8847   4.914   6.330  -0.032 -0.0876  0.4642 -0.2997
 1458poe    c23 8848   4.889   6.476  -0.074  0.3048  0.4737 -0.5117
 1458poe     o2 8849   4.933   6.560   0.030 -0.5919 -0.4319  0.6307
 1458poe    c23 8850   4.915   6.693  -0.012  0.4985 -0.5528 -0.2821
 1458poe    c23 8851   4.954   6.782   0.108  0.1226 -0.7751  0.0098
 1458poe     o2 8852   4.876   6.735   0.215 -0.2848 -0.1748 -0.0136
 1458poe    c23 8853   4.900   6.804   0.336 -0.2497 -0.6282  0.2421
 1458poe    c23 8854   4.816   6.734   0.444 -0.2385 -0.2635  0.4888
 1458poe     o2 8855   4.879   6.613   0.479  0.2762 -0.0307  0.3683
 1458poe    c31 8856   4.830   6.576   0.606  0.3659  0.1198  0.4478
 1459poe    c31 8857   5.363   0.848   2.054 -0.6885  0.4435 -0.4062
 1459poe     o2 8858   5.250   0.766   2.040 -0.4278 -0.0922  0.6140
 1459poe    c23 8859   5.152   0.815   2.129 -0.6758 -0.2421  0.4254
 1459poe    c23 8860   5.022   0.739   2.096 -0.4254 -0.4922  0.0132
 1459poe     o2 8861   5.041   0.605   2.136  0.0237 -0.2679  0.5672
 1459poe    c23 8862   4.927   0.522   2.132  0.2535 -0.5737  0.2454
 1459poe    c23 8863   4.968   0.380   2.175  0.6433 -0.4857  0.1679
 1459poe     o2 8864   5.071   0.333   2.091  0.3380  0.0903 -0.5442
 1459poe    c23 8865   5.068   0.192   2.092  0.9229  0.0835  0.4993
 1459poe    c23 8866   5.193   0.154   2.009  0.4757  0.1721 -0.2185
 1459poe     o2 8867   5.296   0.245   2.040  0.2148  0.4187 -0.0631
 1459poe    c31 8868   5.419   0.201   1.988  0.1936  0.5398 -0.2160
 1460poe    c31 8869   2.286   4.111   6.453 -0.1124 -0.1778 -0.2865
 1460poe     o2 8870   2.379   4.072   6.354  0.2015 -0.4419  0.1093
 1460poe    c23 8871   2.376   4.128   6.224 -0.2250  0.1420  0.3648
 1460poe    c23 8872   2.390   4.280   6.203 -0.3065  0.1726  0.5266
 1460poe     o2 8873   2.523   4.327   6.198 -0.2368 -0.0900 -0.2336
 1460poe    c23 8874   2.583   4.330   6.070 -0.2484  0.0447 -0.2361
 1460poe    c23 8875   2.721   4.384   6.112 -0.1431 -0.4268  0.0300
 1460poe     o2 8876   2.708   4.497   6.195 -0.3152  0.0391 -0.6230
 1460poe    c23 8877   2.831   4.508   6.263 -0.6178  0.3024 -0.1179
 1460poe    c23 8878   2.814   4.635   6.348 -0.0986  0.5360 -0.3622
 1460poe     o2 8879   2.695   4.634   6.425  0.1531  0.4687  0.0259
 1460poe    c31 8880   2.697   4.742   6.515  0.2553 -0.4031  1.0792
 1461poe    c31 8881   6.116   2.804   3.635  0.6684 -0.4621 -0.2644
 1461poe     o2 8882   6.085   2.937   3.671  0.0685 -0.7338  0.2346
 1461poe    c23 8883   5.967   2.951   3.747 -0.5548  0.1322 -0.8708
 1461poe    c23 8884   5.958   3.084   3.825 -0.7401 -0.2943 -0.1540
 1461poe     o2 8885   5.933   3.204   3.756 -0.2494 -0.4713 -0.6534
 1461poe    c23 8886   6.007   3.305   3.820 -0.4333 -0.7743  0.0486
 1461poe    c23 8887   5.967   3.424   3.731 -0.3189 -0.8730 -0.1355
 1461poe     o2 8888   6.007   3.408   3.597  0.8276 -0.2074  0.1212
 1461poe    c23 8889   5.944   3.506   3.517  1.0327  0.2878  0.5599
 1461poe    c23 8890   5.997   3.500   3.373 -0.0919 -0.2554  0.1578
 1461poe     o2 8891   5.996   3.363   3.338 -0.1026 -0.1688 -0.1851
 1461poe    c31 8892   6.104   3.337   3.251  0.1744  0.2352  0.0350
 1462poe    c31 8893   2.843   5.576   3.040 -0.0606 -0.3486  0.1956
 1462poe     o2 8894   2.858   5.716   3.035  0.2714 -0.3821  0.2730
 1462poe    c23 8895   2.980   5.762   2.982  0.1286 -0.4641 -0.1278
 1462poe    c23 8896   2.962   5.887   2.894  0.6713 -0.0922  0.2888
 1462poe     o2 8897   2.913   5.994   2.972  0.0938 -0.1778  0.0405
 1462poe    c23 8898   2.931   6.118   2.906 -0.2882 -0.0955  0.0879
 1462poe    c23 8899   2.806   6.202   2.936 -0.0128  0.2520  0.2594
 1462poe     o2 8900   2.764   6.202   3.071 -0.7280 -0.8034  0.0489
 1462poe    c23 8901   2.630   6.246   3.083 -0.2597  0.6131  0.2923
 1462poe    c23 8902   2.587   6.236   3.230 -0.3712 -0.0019  0.2210
 1462poe     o2 8903   2.634   6.112   3.279  0.7872  0.3191 -0.0460
 1462poe    c31 8904   2.590   6.078   3.409  0.5138 -0.1080 -0.2506
 1463poe    c31 8905   6.480   1.103   6.282  0.4779  0.1613 -0.1242
 1463poe     o2 8906   6.403   1.037   6.380 -0.1073  0.1742 -0.5709
 1463poe    c23 8907   6.312   1.131   6.433  0.0305 -0.0793  0.1158
 1463poe    c23 8908   6.186   1.073   6.499 -0.0040  0.0086  0.1270
 1463poe     o2 8909   6.212   0.986   6.607 -0.1594 -0.4784 -0.2238
 1463poe    c23 8910   6.095   0.910   6.622 -0.5111  0.0424 -0.2956
 1463poe    c23 8911   6.125   0.759   6.620  0.2769  0.1848  0.4268
 1463poe     o2 8912   6.231   0.742   6.712  0.6846  0.5493  0.0288
 1463poe    c23 8913   6.274   0.610   6.738 -0.1980  0.2217 -0.1417
 1463poe    c23 8914   6.382   0.602   6.847 -0.3780  0.0056  0.0222
 1463poe     o2 8915   6.479   0.687   6.790 -0.5827  0.4037  0.2639
 1463poe    c31 8916   6.607   0.673   6.847 -0.4662 -0.5056 -0.2013
 1464poe    c31 8917   1.623   2.867   1.443  0.3838 -0.6488 -0.2607
 1464poe     o2 8918   1.618   2.793   1.324 -0.0172 -0.4922 -0.3453
 1464poe    c23 8919   1.485   2.757   1.295 -0.1477 -0.2470 -0.0545
 1464poe    c23 8920   1.476   2.731   1.143 -0.3154 -0.2873 -0.0379
 1464poe     o2 8921   1.573   2.630   1.128 -0.3848 -0.4378  0.5052
 1464poe    c23 8922   1.579   2.618   0.988  0.3994  0.2767  0.4694
 1464poe    c23 8923   1.723   2.585   0.944  0.1888 -0.1145  0.0612
 1464poe     o2 8924   1.799   2.630   1.055 -0.1857  0.0314  0.2608
 1464poe    c23 8925   1.934   2.591   1.048 -0.1955  0.0171  0.1442
 1464poe    c23 8926   1.997   2.681   1.156  0.2293 -0.5688  0.3910
 1464poe     o2 8927   1.922   2.681   1.275 -0.2106 -0.3669  0.1177
 1464poe    c31 8928   2.008   2.701   1.385 -0.1734 -0.6556  0.1407
 1465poe    c31 8929   5.452   1.776   3.628  0.1171 -0.5703  0.1333
 1465poe     o2 8930   5.410   1.697   3.518 -0.0073  0.1929 -0.3707
 1465poe    c23 8931   5.485   1.579   3.503 -0.1621  0.0145  0.2342
 1465poe    c23 8932   5.414   1.471   3.420  0.3493 -0.3801  0.3009
 1465poe     o2 8933   5.321   1.413   3.509  0.4190 -0.0068  0.6160
 1465poe    c23 8934   5.236   1.320   3.447 -0.5595  1.2364  0.0597
 1465poe    c23 8935   5.135   1.277   3.555 -0.5652 -0.7062 -0.6827
 1465poe     o2 8936   5.059   1.392   3.583 -0.2780 -0.6261 -0.2044
 1465poe    c23 8937   4.962   1.383   3.685  0.0207  0.0502  0.1436
 1465poe    c23 8938   4.889   1.519   3.675 -0.0305  0.0216  0.1266
 1465poe     o2 8939   4.982   1.615   3.719  0.3345 -0.5460  0.6186
 1465poe    c31 8940   4.910   1.737   3.721  0.2367 -0.6037  0.6468
 1466poe    c31 8941   4.582   1.828   0.261 -0.3450 -0.5245 -0.2566
 1466poe     o2 8942   4.649   1.951   0.240  0.1848 -0.5175  1.3429
 1466poe    c23 8943   4.719   1.997   0.353  0.5021  0.2837  0.8278
 1466poe    c23 8944   4.825   2.095   0.301  0.5207 -0.0587  0.2167
 1466poe     o2 8945   4.766   2.178   0.203  0.6994 -0.4445 -0.2212
 1466poe    c23 8946   4.848   2.249   0.113 -0.0906 -0.0155 -0.6093
 1466poe    c23 8947   4.753   2.359   0.061 -0.3796 -0.0345 -0.1292
 1466poe     o2 8948   4.657   2.290  -0.016 -0.2721  0.0403 -0.3309
 1466poe    c23 8949   4.598   2.381  -0.107 -0.6335  0.6133  0.4589
 1466poe    c23 8950   4.477   2.331  -0.188  0.6047 -1.1236 -0.3995
 1466poe     o2 8951   4.368   2.289  -0.109  0.2260 -0.0907 -0.3519
 1466poe    c31 8952   4.258   2.270  -0.196 -0.1214  0.8701 -0.1305
 1467poe    c31 8953   2.408   0.986   4.278 -0.4540  0.5084 -0.0969
 1467poe     o2 8954   2.331   1.057   4.183 -0.3135  0.6340 -0.1170
 1467poe    c23 8955   2.388   1.183   4.155 -0.0299  0.5109 -0.0980
 1467poe    c23 8956   2.313   1.254   4.040  0.3376  0.4645 -0.3665
 1467poe     o2 8957   2.181   1.261   4.088  0.4157 -0.1167 -0.0580
 1467poe    c23 8958   2.085   1.306   3.995  0.1078 -0.5212  0.0576
 1467poe    c23 8959   1.941   1.334   4.040  0.1737  0.3837 -0.2638
 1467poe     o2 8960   1.897   1.218   4.108  0.3393  0.0929 -0.6445
 1467poe    c23 8961   1.759   1.200   4.128  0.4802  0.1540  0.4609
 1467poe    c23 8962   1.736   1.084   4.227 -0.3127 -0.0992 -0.0054
 1467poe     o2 8963   1.776   0.956   4.186 -0.1184 -0.1266  0.2636
 1467poe    c31 8964   1.697   0.889   4.090 -0.3795  0.0380  0.3652
 1468poe    c31 8965   2.403   3.033   5.770  0.1344  0.0079  0.4381
 1468poe     o2 8966   2.289   3.107   5.806 -0.0503 -0.0064 -0.1099
 1468poe    c23 8967   2.314   3.178   5.926 -0.2476  0.1477 -0.1593
 1468poe    c23 8968   2.375   3.318   5.906  0.5130 -0.2972 -1.0696
 1468poe     o2 8969   2.302   3.412   5.831  0.1022  0.6086  0.4104
 1468poe    c23 8970   2.369   3.535   5.836  0.4500  0.4243  0.3055
 1468poe    c23 8971   2.281   3.645   5.773  0.2658 -0.0096 -0.1971
 1468poe     o2 8972   2.241   3.584   5.651  0.0726  0.4407 -0.3596
 1468poe    c23 8973   2.185   3.681   5.566 -0.3831  0.2168 -0.3179
 1468poe    c23 8974   2.095   3.598   5.472 -0.0118 -0.1015 -0.3928
 1468poe     o2 8975   2.043   3.495   5.552 -0.5818  0.6055  0.1638
 1468poe    c31 8976   1.916   3.460   5.502 -0.2131  0.0671 -0.4158
 1469poe    c31 8977   2.798   1.977   5.215 -0.5651  0.0050 -0.3433
 1469poe     o2 8978   2.801   1.925   5.084 -0.5281  0.3252 -0.4722
 1469poe    c23 8979   2.791   1.784   5.093 -0.3951  0.3432 -0.0144
 1469poe    c23 8980   2.847   1.745   4.955  0.7113  0.0717  0.5006
 1469poe     o2 8981   2.779   1.822   4.858  0.0709 -0.5494  0.4503
 1469poe    c23 8982   2.821   1.791   4.727  0.5419  0.5243  0.3369
 1469poe    c23 8983   2.726   1.883   4.649 -0.6673 -0.1795  0.9533
 1469poe     o2 8984   2.745   2.017   4.688 -0.3592  0.1494 -0.2777
 1469poe    c23 8985   2.648   2.109   4.643 -0.3778 -0.2400 -1.0570
 1469poe    c23 8986   2.723   2.234   4.594  0.2171 -0.2746 -0.2517
 1469poe     o2 8987   2.796   2.313   4.685 -0.0440 -0.2671 -0.0482
 1469poe    c31 8988   2.878   2.397   4.606  0.3655 -0.5383  0.0823
 1470poe    c31 8989   1.746   0.865   6.287 -0.0789 -0.2181 -0.0275
 1470poe     o2 8990   1.786   0.816   6.161  0.4192 -0.1841  0.1129
 1470poe    c23 8991   1.918   0.856   6.133  0.3302 -0.1536 -0.2653
 1470poe    c23 8992   1.991   0.793   6.012  1.0938  0.5291 -0.1669
 1470poe     o2 8993   1.939   0.840   5.890 -0.8590 -0.1530  0.3635
 1470poe    c23 8994   1.966   0.771   5.769 -0.2795 -0.1820  0.5043
 1470poe    c23 8995   1.847   0.737   5.677 -0.1244  0.3937  0.0872
 1470poe     o2 8996   1.754   0.640   5.719  0.1281  0.0326 -0.1727
 1470poe    c23 8997   1.640   0.648   5.636  0.2185 -0.2913 -0.3295
 1470poe    c23 8998   1.542   0.535   5.670  0.0414 -0.0442 -0.0117
 1470poe     o2 8999   1.528   0.526   5.810  0.3291 -0.1034  0.0144
 1470poe    c31 9000   1.396   0.482   5.834  0.2795  0.0396  0.0013
 1471poe    c31 9001   1.331   1.336   1.070  0.3352  0.2928  0.2391
 1471poe     o2 9002   1.207   1.392   1.106 -0.2523 -0.1090 -1.1018
 1471poe    c23 9003   1.096   1.306   1.091 -0.6185  0.2724 -0.6135
 1471poe    c23 9004   0.961   1.361   1.142 -0.7853 -0.3880 -0.3411
 1471poe     o2 9005   0.966   1.393   1.279 -0.3522 -0.3232 -0.3698
 1471poe    c23 9006   0.853   1.470   1.311  0.1043  0.3026 -0.2460
 1471poe    c23 9007   0.844   1.497   1.462  0.1434  0.3785 -0.2571
 1471poe     o2 9008   0.970   1.542   1.505  0.2397  0.3366 -0.4958
 1471poe    c23 9009   0.977   1.563   1.645 -0.0569 -0.0686 -0.4188
 1471poe    c23 9010   1.109   1.638   1.671 -0.1134  0.1596 -0.7805
 1471poe     o2 9011   1.212   1.564   1.611 -0.1248  0.1808 -0.8262
 1471poe    c31 9012   1.340   1.581   1.668 -0.2684 -0.8588 -0.1738
 1472poe    c31 9013   5.657   4.662   4.082 -0.3794  0.0700  0.3443
 1472poe     o2 9014   5.588   4.739   3.986 -0.0344  0.0530  0.0833
 1472poe    c23 9015   5.651   4.721   3.861  0.1125  0.0393  0.1588
 1472poe    c23 9016   5.583   4.806   3.751  0.1409  0.2372  0.2928
 1472poe     o2 9017   5.447   4.771   3.745  0.1391  0.2468  0.2814
 1472poe    c23 9018   5.402   4.793   3.614  0.5488 -0.5301  0.0051
 1472poe    c23 9019   5.248   4.784   3.602  0.5012 -0.0874  0.2898
 1472poe     o2 9020   5.204   4.884   3.691  0.0406 -0.1811  0.1665
 1472poe    c23 9021   5.064   4.872   3.704  0.0124 -0.1224 -0.0755
 1472poe    c23 9022   5.008   4.988   3.788  0.1517 -0.0647 -0.0629
 1472poe     o2 9023   5.079   5.008   3.908  0.0746 -0.6284  0.0777
 1472poe    c31 9024   5.010   5.081   4.006  0.4024 -0.0263 -0.1342
 1473poe    c31 9025   2.864   2.886   1.155  0.4741  0.5093 -0.0371
 1473poe     o2 9026   2.831   2.879   1.018 -0.6845 -0.1787  0.2714
 1473poe    c23 9027   2.775   2.756   0.975  0.3666 -0.4503 -0.3391
 1473poe    c23 9028   2.726   2.762   0.830  0.2555 -0.1863 -0.2909
 1473poe     o2 9029   2.829   2.761   0.734  0.2969  0.0843 -0.2503
 1473poe    c23 9030   2.912   2.873   0.715  0.4603  0.0316  0.1405
 1473poe    c23 9031   3.034   2.838   0.626 -0.0111  0.0725 -0.5286
 1473poe     o2 9032   3.139   2.788   0.705 -0.1295  0.0093 -0.4091
 1473poe    c23 9033   3.240   2.725   0.628  0.1253  0.3867 -0.3907
 1473poe    c23 9034   3.348   2.660   0.716 -0.0512 -0.0509 -0.4941
 1473poe     o2 9035   3.309   2.535   0.768 -0.0275  0.3097  0.4075
 1473poe    c31 9036   3.399   2.470   0.855 -0.2673  0.1593  0.5466
 1474poe    c31 9037   3.537   3.181   6.058  0.0846 -0.5963 -0.0399
 1474poe     o2 9038   3.467   3.297   6.018  0.8317 -0.3904 -0.7845
 1474poe    c23 9039   3.334   3.275   5.974  0.5108  0.2166 -0.1325
 1474poe    c23 9040   3.274   3.415   5.951  0.1997  0.0966 -0.0463
 1474poe     o2 9041   3.354   3.481   5.856  0.5982 -0.1105  0.1442
 1474poe    c23 9042   3.326   3.610   5.807  0.5550 -0.0092  0.4321
 1474poe    c23 9043   3.444   3.657   5.720 -0.1463 -0.1475 -0.6215
 1474poe     o2 9044   3.569   3.647   5.786 -0.2457 -0.0247 -0.4129
 1474poe    c23 9045   3.667   3.661   5.686 -0.0359 -0.8042 -0.3206
 1474poe    c23 9046   3.807   3.636   5.745 -0.1975  0.8143  0.7889
 1474poe     o2 9047   3.809   3.507   5.803 -0.0439  0.2108 -0.5371
 1474poe    c31 9048   3.939   3.457   5.825 -0.2201  0.0272  0.0929
 1475poe    c31 9049   0.991   3.551   6.734 -0.3224 -0.1771  0.1910
 1475poe     o2 9050   0.918   3.453   6.804 -0.9327  0.0249 -0.1613
 1475poe    c23 9051   0.849   3.375   6.709 -0.3076 -0.1444 -0.4784
 1475poe    c23 9052   0.769   3.261   6.774 -0.2011  0.0382 -0.0253
 1475poe     o2 9053   0.676   3.296   6.874 -0.2500 -0.0247 -0.0483
 1475poe    c23 9054   0.616   3.174   6.909  0.0554 -0.1244  0.1324
 1475poe    c23 9055   0.484   3.207   6.982 -0.0200 -0.0399 -0.0397
 1475poe     o2 9056   0.524   3.302   7.079 -0.3259  0.2020 -0.1505
 1475poe    c23 9057   0.416   3.389   7.106 -0.5473 -0.1457  0.0912
 1475poe    c23 9058   0.448   3.483   7.224  0.2237  0.3731 -0.5201
 1475poe     o2 9059   0.585   3.513   7.207  0.3538 -0.0070 -0.1739
 1475poe    c31 9060   0.612   3.615   7.301 -0.0168 -0.2536  0.2062
 1476poe    c31 9061   0.014   5.866   0.886 -0.1040  0.6057  0.4169
 1476poe     o2 9062   0.095   5.874   0.771 -0.2173 -0.2611  0.2734
 1476poe    c23 9063   0.185   5.981   0.786 -0.1318 -0.3519  0.4261
 1476poe    c23 9064   0.315   5.974   0.703 -0.2842  0.3557  0.1164
 1476poe     o2 9065   0.396   5.865   0.741  0.2529  0.8072  0.2876
 1476poe    c23 9066   0.507   5.857   0.655  0.0998  0.5087  0.1116
 1476poe    c23 9067   0.588   5.731   0.692  0.1373  0.4743 -0.0900
 1476poe     o2 9068   0.651   5.712   0.816  0.5869  0.3768 -0.3293
 1476poe    c23 9069   0.703   5.581   0.830  0.1290  0.2495  0.2712
 1476poe    c23 9070   0.817   5.579   0.934  0.2048  0.4396  0.1924
 1476poe     o2 9071   0.761   5.636   1.050 -0.0492 -0.2258  0.4014
 1476poe    c31 9072   0.856   5.607   1.150 -0.2112  0.4177  0.7439
 1477poe    c31 9073   2.518   0.277   4.159 -0.0077 -0.0995  0.3278
 1477poe     o2 9074   2.517   0.376   4.059  0.0473  0.0424  0.4661
 1477poe    c23 9075   2.392   0.438   4.037 -0.2609 -0.8837 -0.4706
 1477poe    c23 9076   2.410   0.542   3.925 -0.6269 -0.2000  0.0980
 1477poe     o2 9077   2.421   0.492   3.794 -0.4300 -0.4333  0.2024
 1477poe    c23 9078   2.306   0.510   3.715  0.0268 -0.4009 -0.4651
 1477poe    c23 9079   2.303   0.447   3.574 -0.8451  0.1177 -0.6905
 1477poe     o2 9080   2.408   0.493   3.492  0.2648  0.0378  0.6487
 1477poe    c23 9081   2.435   0.414   3.378  0.5879  0.7090  0.2517
 1477poe    c23 9082   2.512   0.283   3.402  0.3135  0.4218 -0.4103
 1477poe     o2 9083   2.646   0.302   3.442  0.1594  0.5050  0.0804
 1477poe    c31 9084   2.687   0.190   3.517 -0.1676  0.6515  0.4786
 1478poe    c31 9085   1.632   4.387   1.764 -0.3334  0.1462 -0.3433
 1478poe     o2 9086   1.562   4.292   1.842 -0.2804  0.2587 -0.1593
 1478poe    c23 9087   1.654   4.241   1.936  0.2526  0.2117 -0.7035
 1478poe    c23 9088   1.574   4.182   2.053  0.6493  0.0056 -0.5347
 1478poe     o2 9089   1.491   4.082   1.998  0.4607 -0.1885  0.0908
 1478poe    c23 9090   1.357   4.090   2.044  0.4238  0.0190 -0.0511
 1478poe    c23 9091   1.268   4.201   1.986  0.2947 -0.3049 -0.4818
 1478poe     o2 9092   1.264   4.188   1.846 -0.2513 -0.6806 -0.4354
 1478poe    c23 9093   1.171   4.277   1.788  0.2041 -0.0798 -0.2516
 1478poe    c23 9094   1.211   4.283   1.639 -0.3282  0.1803 -0.3871
 1478poe     o2 9095   1.352   4.294   1.637 -0.3420  0.3410 -0.5325
 1478poe    c31 9096   1.398   4.329   1.508 -0.3214 -0.2234 -0.6820
 1479poe    c31 9097   3.877   4.843   2.681 -0.2840 -0.1304 -0.3800
 1479poe     o2 9098   3.887   4.890   2.548 -0.4752  0.0864 -0.3167
 1479poe    c23 9099   4.019   4.934   2.525 -0.1843 -0.5387  0.1336
 1479poe    c23 9100   4.061   4.944   2.377  0.0282 -0.0153  0.2299
 1479poe     o2 9101   4.070   4.817   2.317 -0.6522  0.0947 -0.1178
 1479poe    c23 9102   4.150   4.823   2.201 -0.3119  1.1110  0.1579
 1479poe    c23 9103   4.195   4.690   2.140 -0.2964  1.0521  0.2970
 1479poe     o2 9104   4.089   4.610   2.091  0.3358  0.3589  0.0275
 1479poe    c23 9105   4.146   4.528   1.992 -0.2974  0.2272 -0.2312
 1479poe    c23 9106   4.064   4.420   1.919  0.5695 -0.4539 -0.2151
 1479poe     o2 9107   3.966   4.475   1.835  0.4665 -0.4286 -0.0799
 1479poe    c31 9108   3.838   4.490   1.892  0.5223  0.2775 -0.1368
 1480poe    c31 9109   0.892   2.000   2.172  0.1280  0.2628  0.2095
 1480poe     o2 9110   0.968   1.900   2.108  0.3893  0.6393 -0.0747
 1480poe    c23 9111   1.037   1.972   2.008 -0.0448  0.6503 -0.3688
 1480poe    c23 9112   1.182   1.921   1.997 -0.1706  0.1405  0.2837
 1480poe     o2 9113   1.177   1.783   1.972  0.1585  0.2206 -0.2204
 1480poe    c23 9114   1.302   1.718   1.977  0.3892  0.7104  0.4148
 1480poe    c23 9115   1.338   1.684   2.123 -0.0139 -0.4285  0.2565
 1480poe     o2 9116   1.213   1.659   2.183 -0.3187 -0.0074 -0.1942
 1480poe    c23 9117   1.230   1.669   2.323  0.5566 -0.4914 -0.2583
 1480poe    c23 9118   1.095   1.610   2.368  0.2533  0.5286  0.1845
 1480poe     o2 9119   1.001   1.694   2.304  0.0370  0.2039  0.0739
 1480poe    c31 9120   0.872   1.650   2.340  0.1653 -0.2729 -0.0484
 1481poe    c31 9121   6.735   1.689   0.455  0.2817 -0.0012 -0.1236
 1481poe     o2 9122   6.742   1.728   0.320  0.0288  0.6102  0.0377
 1481poe    c23 9123   6.866   1.775   0.272 -0.2101  0.2656 -0.9492
 1481poe    c23 9124   6.849   1.861   0.146  0.1346  0.7145 -0.6945
 1481poe     o2 9125   6.728   1.823   0.084  0.1475 -0.1647 -0.1938
 1481poe    c23 9126   6.726   1.881  -0.044  0.1777 -0.4830 -0.3406
 1481poe    c23 9127   6.633   1.811  -0.145 -0.2964 -0.0443 -0.2140
 1481poe     o2 9128   6.500   1.800  -0.100 -0.2445  0.2038  0.0025
 1481poe    c23 9129   6.435   1.713  -0.190  0.3912 -0.1888 -0.0890
 1481poe    c23 9130   6.306   1.650  -0.134  0.4483 -0.4764 -0.2818
 1481poe     o2 9131   6.344   1.563  -0.030 -0.1035 -0.3981 -0.0134
 1481poe    c31 9132   6.277   1.442  -0.054 -0.8223 -0.0396  0.1590
 1482poe    c31 9133   0.467   5.617   4.644 -0.0397 -0.5489 -0.4361
 1482poe     o2 9134   0.431   5.528   4.748  0.0362  0.2979  0.3305
 1482poe    c23 9135   0.303   5.554   4.801 -0.3440  0.0435 -0.4461
 1482poe    c23 9136   0.259   5.436   4.889  0.4973  0.1004  0.0610
 1482poe     o2 9137   0.359   5.389   4.976  0.2770 -0.0601  0.2277
 1482poe    c23 9138   0.388   5.460   5.095  0.0437  0.1423  0.1632
 1482poe    c23 9139   0.426   5.357   5.203  0.1874 -0.0805 -0.0964
 1482poe     o2 9140   0.512   5.274   5.130  0.0811 -0.1243 -0.1724
 1482poe    c23 9141   0.559   5.169   5.211  0.8512  0.4774  0.1786
 1482poe    c23 9142   0.623   5.077   5.106 -0.1472  0.0279 -0.0547
 1482poe     o2 9143   0.561   5.077   4.979 -0.0259 -0.2008 -0.1148
 1482poe    c31 9144   0.639   5.002   4.888 -0.0293 -0.3590  0.0128
 1483poe    c31 9145   4.281   4.753   4.939  0.0888  0.1549  0.1821
 1483poe     o2 9146   4.293   4.872   4.866  0.2303 -0.1499 -0.2964
 1483poe    c23 9147   4.159   4.911   4.845  0.1103 -0.2340  0.3069
 1483poe    c23 9148   4.167   5.020   4.736 -0.9600 -0.4459  0.0055
 1483poe     o2 9149   4.290   5.088   4.747 -1.2375  0.0808 -0.1019
 1483poe    c23 9150   4.326   5.130   4.617 -0.0050 -0.4916  0.0410
 1483poe    c23 9151   4.453   5.217   4.619 -0.1684 -0.2588  0.3064
 1483poe     o2 9152   4.551   5.139   4.683  0.2687  0.3033  0.3331
 1483poe    c23 9153   4.666   5.216   4.709  0.5330  0.0132  0.0205
 1483poe    c23 9154   4.769   5.157   4.809  0.2597 -0.2931  0.1245
 1483poe     o2 9155   4.719   5.129   4.937  0.1233  0.0238  0.1433
 1483poe    c31 9156   4.805   5.043   5.010  0.4506  0.2823  0.0613
 1484poe    c31 9157   3.652   1.207   0.004 -0.1420 -0.7518  0.2119
 1484poe     o2 9158   3.651   1.206  -0.137  0.0154  0.6156  0.1793
 1484poe    c23 9159   3.754   1.120  -0.182 -0.2257  0.3236  0.1763
 1484poe    c23 9160   3.771   1.159  -0.330 -0.1152 -0.8405 -0.1267
 1484poe     o2 9161   3.648   1.163  -0.399 -0.2354 -0.0600  0.1185
 1484poe    c23 9162   3.658   1.202  -0.534  0.4335 -0.2276  0.1175
 1484poe    c23 9163   3.513   1.226  -0.578  0.2890 -0.3954  0.5026
 1484poe     o2 9164   3.446   1.296  -0.476  0.1453 -0.2793  0.3300
 1484poe    c23 9165   3.321   1.337  -0.527 -0.0206 -0.7023  0.3903
 1484poe    c23 9166   3.245   1.426  -0.427 -0.2333 -0.1330 -0.2651
 1484poe     o2 9167   3.315   1.538  -0.379 -0.3050 -0.3677  0.4050
 1484poe    c31 9168   3.286   1.657  -0.450 -0.0970 -0.3259  0.3879
 1485poe    c31 9169   4.109   5.239   3.692  0.3992  0.4621  0.1021
 1485poe     o2 9170   4.195   5.229   3.582  0.2948 -0.0574  0.0640
 1485poe    c23 9171   4.281   5.341   3.588 -0.0155  0.1760  0.1486
 1485poe    c23 9172   4.372   5.353   3.464 -0.1345 -0.2742  0.0169
 1485poe     o2 9173   4.285   5.329   3.355 -0.5518  0.2168  0.2340
 1485poe    c23 9174   4.348   5.329   3.229 -0.5572 -0.0821  0.2307
 1485poe    c23 9175   4.249   5.341   3.112  0.5127  0.4678 -0.6441
 1485poe     o2 9176   4.175   5.221   3.106  0.4292  0.4778  0.1056
 1485poe    c23 9177   4.080   5.225   3.002  0.1212  0.3866  0.3824
 1485poe    c23 9178   3.984   5.104   3.008  0.4488  0.1257  0.4149
 1485poe     o2 9179   3.902   5.104   3.123  0.5048 -0.1890  0.4561
 1485poe    c31 9180   3.799   5.010   3.140  0.1330  0.1001 -0.1821
 1486poe    c31 9181   2.945   6.111   0.610  0.9078 -0.2797 -0.3386
 1486poe     o2 9182   3.036   6.020   0.668  0.4039 -0.0993  0.7687
 1486poe    c23 9183   3.136   5.981   0.576 -0.4646 -0.0443 -0.2196
 1486poe    c23 9184   3.190   5.844   0.621  0.1241  0.4494  0.6115
 1486poe     o2 9185   3.206   5.844   0.761  0.5112  0.2577  0.5680
 1486poe    c23 9186   3.307   5.747   0.781 -0.0193 -0.3555  0.2950
 1486poe    c23 9187   3.342   5.761   0.930 -0.4272  0.0986  0.3504
 1486poe     o2 9188   3.234   5.730   1.016  0.0199  0.1022  0.9172
 1486poe    c23 9189   3.193   5.838   1.098 -0.3877  0.3730  0.3656
 1486poe    c23 9190   3.041   5.861   1.096 -0.3636  0.5045 -0.1292
 1486poe     o2 9191   2.999   5.898   0.967  0.0413 -0.6234 -0.6018
 1486poe    c31 9192   2.884   5.827   0.928 -0.1168 -0.3563 -0.6275
 1487poe    c31 9193   2.289   4.191   1.991  0.3213  0.3163  0.1131
 1487poe     o2 9194   2.419   4.230   2.028  0.2979  0.7491 -0.2540
 1487poe    c23 9195   2.429   4.362   2.076 -0.2484  1.0060 -0.8398
 1487poe    c23 9196   2.580   4.381   2.102 -0.0832 -0.0683 -0.9695
 1487poe     o2 9197   2.622   4.268   2.175 -0.2176  0.2040 -0.4630
 1487poe    c23 9198   2.760   4.276   2.203 -0.2434 -0.3703 -0.1407
 1487poe    c23 9199   2.805   4.139   2.257  0.2575 -0.0375  0.2977
 1487poe     o2 9200   2.738   4.033   2.193  0.8685  0.1285 -0.6332
 1487poe    c23 9201   2.824   3.923   2.208  0.8385  0.1251 -0.4864
 1487poe    c23 9202   2.778   3.800   2.127  0.2106  0.2049 -0.2505
 1487poe     o2 9203   2.645   3.757   2.148  0.0304  0.7475 -0.2618
 1487poe    c31 9204   2.612   3.637   2.082  0.1792  0.4314  0.2296
 1488poe    c31 9205   5.937   0.997   1.192  0.4824  0.1044 -0.2956
 1488poe     o2 9206   5.808   1.048   1.171  0.2432 -0.4383 -0.1638
 1488poe    c23 9207   5.721   1.014   1.277  0.0558  0.1797 -0.1143
 1488poe    c23 9208   5.617   1.127   1.268  0.3752  0.4795 -0.1012
 1488poe     o2 9209   5.586   1.143   1.131 -0.0181  0.7112  0.0135
 1488poe    c23 9210   5.458   1.202   1.126 -0.1319  0.4768  0.1504
 1488poe    c23 9211   5.408   1.250   0.989 -0.7724  0.0886  0.2407
 1488poe     o2 9212   5.501   1.344   0.938 -0.2287 -0.5917 -0.0314
 1488poe    c23 9213   5.460   1.365   0.805 -0.0540  0.0575  0.0140
 1488poe    c23 9214   5.516   1.281   0.688  0.0085  0.1953 -0.0550
 1488poe     o2 9215   5.479   1.146   0.679  0.1075  0.1971 -0.4822
 1488poe    c31 9216   5.376   1.109   0.590 -0.9421  0.6290  0.5350
 1489poe    c31 9217   1.827   3.029   4.027 -0.2239 -0.2346 -0.0193
 1489poe     o2 9218   1.954   2.985   3.985  0.0244 -0.1153  0.5982
 1489poe    c23 9219   2.028   3.096   3.937 -0.0314 -0.2428  0.2160
 1489poe    c23 9220   2.166   3.109   4.002  0.1935 -0.0387 -0.2962
 1489poe     o2 9221   2.230   2.984   4.017 -0.0666 -0.1174  0.1776
 1489poe    c23 9222   2.333   2.993   4.114  0.2941 -0.2571 -0.1866
 1489poe    c23 9223   2.347   2.847   4.161 -0.3798 -0.2728 -0.0221
 1489poe     o2 9224   2.373   2.770   4.046 -0.0969 -0.0827 -0.0854
 1489poe    c23 9225   2.371   2.633   4.079  0.1028 -0.0942 -0.1203
 1489poe    c23 9226   2.369   2.558   3.945  0.5917  0.0255 -0.1993
 1489poe     o2 9227   2.284   2.631   3.859 -0.2676 -0.3595  0.3023
 1489poe    c31 9228   2.296   2.562   3.736 -1.1369  0.0189 -0.0037
 1490poe    c31 9229   0.580   1.261   4.916  0.0297 -0.4830 -0.1772
 1490poe     o2 9230   0.529   1.132   4.943 -0.0808 -0.3239  0.3940
 1490poe    c23 9231   0.617   1.072   5.035  0.0799 -0.1638  0.3447
 1490poe    c23 9232   0.567   0.931   5.069 -0.0624 -0.0760  0.5038
 1490poe     o2 9233   0.432   0.913   5.108 -0.2098  0.1819  0.1216
 1490poe    c23 9234   0.380   0.785   5.082 -0.0112  0.1889 -0.3283
 1490poe    c23 9235   0.268   0.749   5.183 -0.3191 -0.3659 -0.8615
 1490poe     o2 9236   0.182   0.859   5.200  0.2674  0.0348 -0.4640
 1490poe    c23 9237   0.054   0.801   5.195  0.4254 -0.3128 -0.4526
 1490poe    c23 9238  -0.032   0.924   5.161  0.6953  0.0395  0.1308
 1490poe     o2 9239   0.035   1.003   5.066  0.2606  0.6712  0.3399
 1490poe    c31 9240  -0.044   1.105   5.010  0.4212  0.6089 -0.0037
 1491poe    c31 9241   5.750   6.119   2.935  0.0192 -0.3474 -0.6035
 1491poe     o2 9242   5.796   5.991   2.973  0.4996  0.0196  0.0642
 1491poe    c23 9243   5.934   5.981   2.999  0.5452  0.0234 -0.1773
 1491poe    c23 9244   5.968   5.834   2.971  0.2133 -0.1432  0.2776
 1491poe     o2 9245   5.851   5.761   3.001 -0.0641  0.0706 -0.2700
 1491poe    c23 9246   5.872   5.623   3.022 -0.1064  0.0866 -0.1168
 1491poe    c23 9247   5.737   5.566   3.069 -0.0043  0.4393  0.6108
 1491poe     o2 9248   5.647   5.615   2.972  0.4231 -0.0886 -0.0590
 1491poe    c23 9249   5.586   5.507   2.904  0.3634 -0.2923  0.3135
 1491poe    c23 9250   5.456   5.540   2.827  0.6311 -0.3039 -0.1480
 1491poe     o2 9251   5.466   5.639   2.728 -0.6491 -0.1940 -0.1829
 1491poe    c31 9252   5.356   5.656   2.641 -0.3697  0.3389 -0.4400
 1492poe    c31 9253   4.799   4.466   2.991  0.1310  0.3494  0.5175
 1492poe     o2 9254   4.936   4.487   2.967  0.1207 -0.4557 -0.2887
 1492poe    c23 9255   4.956   4.626   2.958 -0.1957 -0.4026 -0.1943
 1492poe    c23 9256   5.084   4.653   2.877 -0.1625  0.4504  0.1315
 1492poe     o2 9257   5.173   4.560   2.934 -0.2843 -0.0259 -0.4423
 1492poe    c23 9258   5.302   4.575   2.880  0.1391 -0.2416  0.4860
 1492poe    c23 9259   5.408   4.514   2.974 -0.0515 -0.7087  0.3980
 1492poe     o2 9260   5.412   4.597   3.087  0.3993  0.1897 -0.2677
 1492poe    c23 9261   5.513   4.580   3.184  0.2851 -0.0686 -0.1935
 1492poe    c23 9262   5.489   4.464   3.282 -0.1542 -0.2644 -0.5285
 1492poe     o2 9263   5.372   4.487   3.357  0.4320 -0.0017  0.3133
 1492poe    c31 9264   5.359   4.380   3.448 -0.2254  0.1764  0.4349
 1493poe    c31 9265   3.762   6.283   4.161  0.3647  1.1485 -0.4656
 1493poe     o2 9266   3.695   6.241   4.044 -0.3860  0.2964  0.2456
 1493poe    c23 9267   3.708   6.101   4.034 -0.6082  0.3115 -0.2532
 1493poe    c23 9268   3.610   6.043   3.930  0.2747 -0.7008 -0.5353
 1493poe     o2 9269   3.622   6.086   3.796 -0.1029  0.1474 -0.3003
 1493poe    c23 9270   3.536   6.016   3.709 -0.4464  0.1873  0.0044
 1493poe    c23 9271   3.550   6.055   3.561  0.0359  0.1429  0.0346
 1493poe     o2 9272   3.531   6.195   3.548 -0.2492  0.1288  0.2806
 1493poe    c23 9273   3.429   6.242   3.462 -0.4194  0.0536  0.4401
 1493poe    c23 9274   3.440   6.394   3.443 -0.0185 -0.0303 -0.0291
 1493poe     o2 9275   3.499   6.446   3.560 -0.4390  0.2732  0.0545
 1493poe    c31 9276   3.526   6.584   3.552 -0.0976  0.1649 -0.8287
 1494poe    c31 9277   3.113   2.021   4.677  0.1440 -0.1925 -0.4926
 1494poe     o2 9278   3.177   1.896   4.687 -0.1905 -0.3154  0.1540
 1494poe    c23 9279   3.154   1.828   4.566 -0.4341  0.0844 -0.0261
 1494poe    c23 9280   3.171   1.675   4.575  0.6674  0.1827 -0.2277
 1494poe     o2 9281   3.303   1.630   4.598  0.7244  0.3235 -0.2814
 1494poe    c23 9282   3.295   1.490   4.604 -0.1713  0.3846  0.1782
 1494poe    c23 9283   3.420   1.433   4.674 -0.1844 -0.3341 -0.3762
 1494poe     o2 9284   3.455   1.506   4.789 -0.1656 -0.5160 -0.2666
 1494poe    c23 9285   3.554   1.433   4.857  0.2559  0.1136 -0.1993
 1494poe    c23 9286   3.632   1.530   4.948  0.0531  0.2751 -0.1978
 1494poe     o2 9287   3.628   1.654   4.882  0.1859  0.4132  0.0546
 1494poe    c31 9288   3.707   1.745   4.956  0.5688 -0.2822  0.5133
 1495poe    c31 9289   2.800   3.762   2.603 -0.3797  0.7668 -0.2491
 1495poe     o2 9290   2.725   3.646   2.575  0.3933  0.2438 -0.1831
 1495poe    c23 9291   2.787   3.542   2.502  0.0824 -0.0558 -0.0240
 1495poe    c23 9292   2.693   3.430   2.452 -0.1837 -0.0566  0.4722
 1495poe     o2 9293   2.578   3.494   2.400  0.1677  0.1518 -0.0520
 1495poe    c23 9294   2.475   3.398   2.398 -0.4480  0.8010  0.2133
 1495poe    c23 9295   2.337   3.459   2.428 -0.7516  0.3846 -0.3127
 1495poe     o2 9296   2.365   3.570   2.511 -0.1182  0.5799 -0.7775
 1495poe    c23 9297   2.256   3.631   2.577  0.2676 -0.3016  0.7321
 1495poe    c23 9298   2.320   3.704   2.696 -0.1244  0.7422  0.3106
 1495poe     o2 9299   2.437   3.768   2.650  0.2522 -0.3496 -0.2949
 1495poe    c31 9300   2.492   3.863   2.739 -0.6080 -0.4018  0.3104
 1496poe    c31 9301   4.122   3.314   2.995  0.5889  0.1708 -0.5432
 1496poe     o2 9302   4.235   3.265   3.065  0.2958  0.0251 -0.1701
 1496poe    c23 9303   4.281   3.162   2.980  0.0894  0.1118 -0.3892
 1496poe    c23 9304   4.359   3.071   3.077 -0.3044  0.6410  0.4379
 1496poe     o2 9305   4.428   3.150   3.170  0.8078  0.2579 -0.0540
 1496poe    c23 9306   4.492   3.073   3.269 -0.3218 -0.1434  0.3721
 1496poe    c23 9307   4.531   3.168   3.384  0.0482  0.7934 -0.5092
 1496poe     o2 9308   4.419   3.250   3.410  0.1371  1.0326 -0.8762
 1496poe    c23 9309   4.425   3.318   3.533  0.4466  0.3167 -0.4883
 1496poe    c23 9310   4.326   3.241   3.623  0.4593  0.3682 -0.4291
 1496poe     o2 9311   4.198   3.273   3.572 -0.0109 -0.2371  0.3549
 1496poe    c31 9312   4.101   3.233   3.666 -0.5893 -0.2522 -0.2457
 1497poe    c31 9313   3.164   3.080   1.217 -0.2358 -0.2845  0.1298
 1497poe     o2 9314   3.266   3.058   1.312  0.1964  0.0953 -0.2362
 1497poe    c23 9315   3.358   3.161   1.285  0.2749 -0.0400 -0.4843
 1497poe    c23 9316   3.456   3.169   1.404 -0.5696  0.3316  0.1951
 1497poe     o2 9317   3.390   3.170   1.528  0.0067 -0.1017  0.5082
 1497poe    c23 9318   3.477   3.188   1.637  0.2128  0.3920  0.2635
 1497poe    c23 9319   3.393   3.158   1.762  0.5251 -0.1332  0.3465
 1497poe     o2 9320   3.332   3.033   1.737  0.4380 -0.1017  0.4032
 1497poe    c23 9321   3.253   3.001   1.849 -0.3999 -0.3861 -0.2561
 1497poe    c23 9322   3.141   2.897   1.826 -0.2294 -0.6027 -0.1137
 1497poe     o2 9323   3.194   2.781   1.766  0.2532 -0.4430 -0.0069
 1497poe    c31 9324   3.102   2.678   1.796 -0.5399  0.2304 -0.0903
 1498poe    c31 9325   6.531   4.598   5.320  0.0415 -0.1864 -0.1981
 1498poe     o2 9326   6.588   4.620   5.192  0.1328  0.3035 -0.0736
 1498poe    c23 9327   6.596   4.497   5.124 -0.0079  0.5439 -0.5316
 1498poe    c23 9328   6.712   4.514   5.025  0.4110 -0.0218 -0.1459
 1498poe     o2 9329   6.698   4.645   4.975 -0.0491 -0.0101  0.0123
 1498poe    c23 9330   6.807   4.695   4.902  0.1118 -0.2826  0.0652
 1498poe    c23 9331   6.868   4.810   4.984  0.0074 -0.0558 -0.1715
 1498poe     o2 9332   6.765   4.874   5.057  0.3478  0.3075 -0.0036
 1498poe    c23 9333   6.804   4.971   5.151  0.1481  0.0619  0.3339
 1498poe    c23 9334   6.665   5.024   5.188 -0.0068  0.0814 -0.2769
 1498poe     o2 9335   6.578   4.917   5.218 -0.4669  0.5106 -0.0672
 1498poe    c31 9336   6.511   4.929   5.342 -0.2814  0.2260  0.0624
 1499poe    c31 9337   1.498   3.588   4.851 -0.4305  0.3340 -0.2323
 1499poe     o2 9338   1.418   3.513   4.940 -0.0516  0.1866 -0.0158
 1499poe    c23 9339   1.292   3.497   4.880 -0.2719  0.3867  0.3895
 1499poe    c23 9340   1.211   3.380   4.938 -0.3811  0.4150  0.2954
 1499poe     o2 9341   1.178   3.397   5.074 -0.3801  0.9491  0.2296
 1499poe    c23 9342   1.056   3.332   5.102  0.4625 -0.8062 -0.0092
 1499poe    c23 9343   1.041   3.336   5.255  0.1525 -0.2086 -0.0495
 1499poe     o2 9344   1.155   3.285   5.321  0.4202  0.2099 -0.1816
 1499poe    c23 9345   1.148   3.295   5.462 -0.5251 -0.2884 -0.1844
 1499poe    c23 9346   1.281   3.249   5.523 -0.4709  0.5399  0.3362
 1499poe     o2 9347   1.380   3.263   5.424 -0.4750 -0.1102  0.2342
 1499poe    c31 9348   1.508   3.228   5.471 -0.3915  0.2425  0.2726
 1500poe    c31 9349   0.540   4.762   2.501  0.5678 -0.0269 -0.8787
 1500poe     o2 9350   0.637   4.860   2.529 -0.0409  0.4065 -0.2510
 1500poe    c23 9351   0.577   4.955   2.613  0.2528 -0.4771  0.9829
 1500poe    c23 9352   0.701   5.031   2.664  0.4053 -0.0353 -0.0289
 1500poe     o2 9353   0.794   5.046   2.559  0.2296  0.5039 -0.1067
 1500poe    c23 9354   0.912   5.092   2.621  0.2359  0.3676 -0.0179
 1500poe    c23 9355   0.966   5.196   2.521 -0.1745  0.4970 -0.1054
 1500poe     o2 9356   1.004   5.132   2.401 -0.4508  0.3329 -0.1058
 1500poe    c23 9357   1.040   5.219   2.296 -0.3466  0.5575  0.1158
 1500poe    c23 9358   1.039   5.133   2.168  0.2118  0.5391  0.1189
 1500poe     o2 9359   0.915   5.080   2.126  0.3168  0.3384  0.0627
 1500poe    c31 9360   0.932   5.038   1.992  0.4459 -0.1573  0.2327
 1501poe    c31 9361   2.384   2.745   0.045 -0.1202 -0.6041  0.0668
 1501poe     o2 9362   2.516   2.700   0.067  0.1646  0.3069  0.2736
 1501poe    c23 9363   2.545   2.750   0.195 -0.8178  0.4441  0.4545
 1501poe    c23 9364   2.671   2.681   0.251 -0.6082  0.2796 -0.2073
 1501poe     o2 9365   2.760   2.676   0.142  0.0177 -0.2564  0.3172
 1501poe    c23 9366   2.896   2.671   0.180 -0.0001  0.5353  0.5152
 1501poe    c23 9367   2.982   2.683   0.053 -1.0035  0.7164 -0.1635
 1501poe     o2 9368   2.936   2.594  -0.047  0.6437 -0.4000  0.0279
 1501poe    c23 9369   3.026   2.592  -0.155  0.3824 -0.4208 -0.1898
 1501poe    c23 9370   2.990   2.516  -0.284 -0.3376 -0.3082 -0.0573
 1501poe     o2 9371   2.874   2.571  -0.344 -0.2547  0.1390  0.1883
 1501poe    c31 9372   2.870   2.542  -0.482  0.4308  0.2298  0.1459
 1502poe    c31 9373   0.859   6.353   5.421  0.0685 -0.1294 -0.3276
 1502poe     o2 9374   0.805   6.240   5.357  0.2436 -0.3040 -0.1645
 1502poe    c23 9375   0.723   6.272   5.247  0.0479  0.0889  0.0959
 1502poe    c23 9376   0.634   6.153   5.211  0.2154  0.1410 -0.5056
 1502poe     o2 9377   0.712   6.037   5.193  0.0830 -0.0174 -0.0697
 1502poe    c23 9378   0.635   5.919   5.178 -0.1811  0.1628 -0.1393
 1502poe    c23 9379   0.715   5.788   5.168  0.0103  0.2997 -0.4257
 1502poe     o2 9380   0.791   5.771   5.286 -0.8241 -0.2120  0.0432
 1502poe    c23 9381   0.888   5.670   5.277 -0.4359  0.0910  0.6917
 1502poe    c23 9382   0.856   5.560   5.380  0.6606 -0.1865  0.7431
 1502poe     o2 9383   0.812   5.621   5.499 -0.2114  0.4000  0.1302
 1502poe    c31 9384   0.748   5.537   5.592  0.2585 -0.2198 -0.1011
 1503poe    c31 9385   4.224   3.091   5.741  0.4845  0.2041 -0.3605
 1503poe     o2 9386   4.174   3.051   5.615 -0.0657  0.0964 -0.1112
 1503poe    c23 9387   4.242   3.107   5.505  0.7224 -0.2310  0.1958
 1503poe    c23 9388   4.198   3.012   5.392 -0.3277 -0.1484  0.5265
 1503poe     o2 9389   4.059   2.992   5.404 -0.4622  0.2636 -0.3260
 1503poe    c23 9390   4.018   2.914   5.294 -0.6020 -0.4278  0.2103
 1503poe    c23 9391   3.866   2.898   5.305 -0.6182 -0.1222  0.4233
 1503poe     o2 9392   3.833   2.858   5.437  0.3771 -0.0423  0.7013
 1503poe    c23 9393   3.697   2.829   5.457  0.1991  0.4112  0.1785
 1503poe    c23 9394   3.649   2.801   5.600 -0.4085  0.0815 -0.0865
 1503poe     o2 9395   3.660   2.924   5.667 -0.5174  0.1174 -0.1337
 1503poe    c31 9396   3.534   2.985   5.685 -0.5605  0.0894 -0.3467
 1504poe    c31 9397   5.465   6.015   5.872 -0.3701 -0.0887 -0.4605
 1504poe     o2 9398   5.390   6.044   5.987 -0.1706  0.7313 -0.5336
 1504poe    c23 9399   5.455   6.140   6.067  0.1958 -0.0723  0.1436
 1504poe    c23 9400   5.378   6.179   6.195  0.0156  0.2911 -0.0740
 1504poe     o2 9401   5.369   6.075   6.289 -0.6367  0.0148 -0.4275
 1504poe    c23 9402   5.303   6.114   6.407  0.2899 -0.1484  0.1619
 1504poe    c23 9403   5.333   6.001   6.507  0.3581 -0.3761 -0.1186
 1504poe     o2 9404   5.293   5.879   6.448  0.2074 -0.1625 -0.4594
 1504poe    c23 9405   5.307   5.779   6.546  0.2851  0.3906  0.0995
 1504poe    c23 9406   5.273   5.645   6.478 -0.5589  0.9567 -0.6235
 1504poe     o2 9407   5.325   5.656   6.348  0.4035 -0.0643 -0.3489
 1504poe    c31 9408   5.286   5.538   6.281  0.6166 -0.4078  0.1340
 1505poe    c31 9409   1.364   6.169   4.607 -0.0999 -0.7070 -0.2352
 1505poe     o2 9410   1.237   6.214   4.650  0.1106 -0.7771  0.4811
 1505poe    c23 9411   1.227   6.246   4.786 -0.4190  0.0417  0.2503
 1505poe    c23 9412   1.102   6.185   4.853 -0.0639 -0.6667  0.2732
 1505poe     o2 9413   0.984   6.217   4.783  0.2838  0.0532  0.0019
 1505poe    c23 9414   0.891   6.114   4.808 -0.3125  0.4779 -0.4306
 1505poe    c23 9415   0.751   6.130   4.746 -0.5766 -0.6152 -0.1454
 1505poe     o2 9416   0.760   6.191   4.619 -0.0690 -0.7904 -0.1946
 1505poe    c23 9417   0.635   6.214   4.559 -0.1388  0.1218  0.2891
 1505poe    c23 9418   0.651   6.291   4.427  0.1525 -0.4956 -0.0384
 1505poe     o2 9419   0.743   6.395   4.453 -0.1339 -0.2920  0.1698
 1505poe    c31 9420   0.746   6.479   4.340 -0.4317 -0.2211  0.2128
 1506poe    c31 9421   4.313   5.760   2.099 -0.3730  0.7758 -0.4948
 1506poe     o2 9422   4.358   5.827   2.214  0.1958 -0.1103 -0.1953
 1506poe    c23 9423   4.271   5.825   2.325 -0.0256 -0.0570 -0.3671
 1506poe    c23 9424   4.314   5.937   2.421  0.0104 -0.5712  0.2194
 1506poe     o2 9425   4.454   5.922   2.437  0.0678 -0.3399 -0.0583
 1506poe    c23 9426   4.490   5.941   2.572 -0.3976  0.4714 -0.0398
 1506poe    c23 9427   4.633   5.997   2.578 -0.2698  0.1078  0.4564
 1506poe     o2 9428   4.733   5.918   2.517 -0.2531  0.4747  0.0000
 1506poe    c23 9429   4.854   5.983   2.485 -0.3059  0.5246 -0.1019
 1506poe    c23 9430   4.863   6.052   2.348  0.0020  0.3381 -0.1769
 1506poe     o2 9431   4.888   5.967   2.238  0.1741 -0.0527  0.1633
 1506poe    c31 9432   5.024   5.959   2.203 -0.0271 -0.1219 -0.6052
 1507poe    c31 9433   2.068   0.496   2.683 -1.2082  0.5412 -0.7767
 1507poe     o2 9434   2.010   0.431   2.794 -0.2438  0.1422 -0.4947
 1507poe    c23 9435   1.947   0.311   2.756 -0.0582  0.0723 -0.5812
 1507poe    c23 9436   1.875   0.239   2.871  0.5321  0.4733  0.0412
 1507poe     o2 9437   1.778   0.327   2.924 -0.2860 -0.4785  0.1419
 1507poe    c23 9438   1.706   0.280   3.036  0.0449 -0.2761  0.4387
 1507poe    c23 9439   1.669   0.402   3.124 -0.5814 -0.4149  0.3738
 1507poe     o2 9440   1.774   0.430   3.214 -0.3329 -0.0263 -0.0310
 1507poe    c23 9441   1.739   0.537   3.299 -0.1702  0.1902 -0.2361
 1507poe    c23 9442   1.869   0.578   3.371  0.0484 -0.2723 -0.3633
 1507poe     o2 9443   1.981   0.595   3.286  0.2087 -0.1558 -0.1292
 1507poe    c31 9444   2.095   0.651   3.348 -0.0790  0.2646  0.0273
 1508poe    c31 9445   6.294   2.346   3.972 -0.8225  0.5870 -0.5051
 1508poe     o2 9446   6.182   2.292   3.907 -0.4054 -0.6847 -0.2025
 1508poe    c23 9447   6.101   2.393   3.850 -0.4121 -0.4671  0.1926
 1508poe    c23 9448   5.997   2.337   3.752 -0.2793 -0.2204 -0.0903
 1508poe     o2 9449   5.912   2.256   3.829  0.0860 -0.3603  0.1677
 1508poe    c23 9450   5.825   2.203   3.732  0.0543  0.1443 -0.0819
 1508poe    c23 9451   5.719   2.120   3.808  0.0061 -0.2180 -0.5420
 1508poe     o2 9452   5.769   2.000   3.863  0.4976  0.1910 -0.0899
 1508poe    c23 9453   5.661   1.952   3.940  0.2440 -0.0906 -0.6183
 1508poe    c23 9454   5.707   1.839   4.034  0.1541  0.0849 -0.3635
 1508poe     o2 9455   5.838   1.846   4.086 -0.1870  0.0892  0.5225
 1508poe    c31 9456   5.847   1.788   4.214  0.2367 -0.2123  0.3598
 1509poe    c31 9457   2.805   6.691   3.916 -0.1937  0.1586 -0.0948
 1509poe     o2 9458   2.817   6.784   4.021 -0.0690  0.0969 -0.0536
 1509poe    c23 9459   2.933   6.862   4.007  0.1248 -0.1654  0.0899
 1509poe    c23 9460   2.942   6.976   4.110  0.1610 -0.3991  0.3458
 1509poe     o2 9461   2.901   6.922   4.234  0.0853 -0.3816  0.3283
 1509poe    c23 9462   2.892   7.028   4.327  0.0557 -0.2258  0.1488
 1509poe    c23 9463   2.856   6.963   4.462 -0.2779  0.1824  0.2564
 1509poe     o2 9464   2.744   6.880   4.438  0.3288 -0.3817 -0.6768
 1509poe    c23 9465   2.658   6.899   4.547  0.2039  0.0102 -0.8377
 1509poe    c23 9466   2.512   6.850   4.536  0.4480 -0.8658 -0.3129
 1509poe     o2 9467   2.453   6.880   4.411 -0.8279  0.0689  0.5006
 1509poe    c31 9468   2.316   6.847   4.419 -0.7093 -0.4229  0.4979
 1510poe    c31 9469   5.739   4.359   6.676 -0.5104  0.3005  0.2124
 1510poe     o2 9470   5.777   4.385   6.810 -0.4310  0.1937  0.2101
 1510poe    c23 9471   5.664   4.391   6.894 -0.3134 -0.0759  0.3867
 1510poe    c23 9472   5.695   4.442   7.036 -0.5958  0.6992  0.1713
 1510poe     o2 9473   5.737   4.576   7.048  0.7314  0.2779  0.4529
 1510poe    c23 9474   5.759   4.611   7.183  0.0006  0.0433  0.6411
 1510poe    c23 9475   5.836   4.745   7.179  0.1341 -0.0505 -0.1192
 1510poe     o2 9476   5.954   4.733   7.103  0.0670  0.3231 -0.2853
 1510poe    c23 9477   6.038   4.834   7.153 -0.5808  0.7835 -0.1147
 1510poe    c23 9478   6.149   4.844   7.047  0.4663  0.0493  0.8801
 1510poe     o2 9479   6.181   4.717   6.995 -0.2369  0.2380 -0.0570
 1510poe    c31 9480   6.304   4.719   6.927 -0.1766  0.0849  0.0469
 1511poe    c31 9481   6.593   3.169   4.441  0.0327  0.0787 -0.0444
 1511poe     o2 9482   6.526   3.051   4.478  0.1601  0.1715  0.4825
 1511poe    c23 9483   6.600   2.942   4.426 -0.0311  0.4351 -0.3534
 1511poe    c23 9484   6.513   2.819   4.456  0.5877  0.1283  0.2194
 1511poe     o2 9485   6.463   2.838   4.586  0.1815 -0.2516  0.1209
 1511poe    c23 9486   6.411   2.719   4.641 -0.6711  0.1665  0.2430
 1511poe    c23 9487   6.410   2.738   4.794 -0.6309  0.0683  0.2554
 1511poe     o2 9488   6.330   2.848   4.832 -0.6038  0.3870 -0.5825
 1511poe    c23 9489   6.330   2.873   4.971 -0.1601 -0.3557 -0.4393
 1511poe    c23 9490   6.232   2.989   5.001  0.1679 -0.0529 -0.5243
 1511poe     o2 9491   6.272   3.109   4.940 -0.3687  0.1944 -0.3947
 1511poe    c31 9492   6.167   3.201   4.956 -0.0445  0.4119  0.5886
 1512poe    c31 9493   6.453   5.299   0.805 -0.0844  0.4880  1.0055
 1512poe     o2 9494   6.403   5.175   0.851 -0.2472  0.2192  0.1277
 1512poe    c23 9495   6.352   5.203   0.979 -0.0735  0.2835  0.1822
 1512poe    c23 9496   6.317   5.072   1.052  0.3606 -0.0530 -0.2074
 1512poe     o2 9497   6.255   4.985   0.960  0.5773 -0.4209 -0.0064
 1512poe    c23 9498   6.214   4.857   1.004  0.1582  0.1172  1.1939
 1512poe    c23 9499   6.158   4.767   0.892  0.6966 -0.1708  1.1566
 1512poe     o2 9500   6.265   4.745   0.803 -0.2237  0.5355 -0.1551
 1512poe    c23 9501   6.260   4.646   0.703 -0.3080 -0.0480  0.4207
 1512poe    c23 9502   6.344   4.674   0.577 -0.8324  0.6669  0.2220
 1512poe     o2 9503   6.295   4.785   0.505  0.1112  0.7951 -0.2390
 1512poe    c31 9504   6.393   4.843   0.422  0.4809 -0.2012 -0.5202
 1513poe    c31 9505   3.123   6.798   0.690 -0.0987  0.4129 -0.2609
 1513poe     o2 9506   3.195   6.824   0.571 -0.1589 -0.3579 -0.4676
 1513poe    c23 9507   3.245   6.955   0.570  0.1605 -0.4761 -0.2028
 1513poe    c23 9508   3.364   6.955   0.472  0.7250  0.5579  0.4599
 1513poe     o2 9509   3.327   6.918   0.341  0.5497  0.9902  0.3825
 1513poe    c23 9510   3.451   6.912   0.273  0.4128 -0.4620  0.2217
 1513poe    c23 9511   3.440   6.890   0.121  0.0112  0.0284  0.1735
 1513poe     o2 9512   3.383   6.765   0.089  0.2753 -0.1603  0.4294
 1513poe    c23 9513   3.320   6.780  -0.037  0.8945 -0.3489  0.0930
 1513poe    c23 9514   3.243   6.655  -0.084 -0.0402  0.4769 -0.6225
 1513poe     o2 9515   3.155   6.611   0.017  0.2565 -0.2048 -0.6532
 1513poe    c31 9516   3.088   6.497  -0.031  0.6991 -0.7751  0.0481
 1514poe    c31 9517   1.982   5.377   3.886  0.1576 -0.2801 -0.0205
 1514poe     o2 9518   2.115   5.414   3.857  0.1409 -0.1604  0.0565
 1514poe    c23 9519   2.119   5.554   3.848  0.1326 -0.1947 -0.4825
 1514poe    c23 9520   2.268   5.590   3.850  0.0376  0.2018 -0.4166
 1514poe     o2 9521   2.337   5.535   3.740  0.1555  0.4037 -0.4455
 1514poe    c23 9522   2.477   5.550   3.754  0.1981 -0.3983  0.0838
 1514poe    c23 9523   2.545   5.436   3.677  0.2386 -0.1814 -0.2013
 1514poe     o2 9524   2.448   5.334   3.684 -0.3193  0.3364 -0.3745
 1514poe    c23 9525   2.435   5.266   3.562 -0.0074 -0.3329 -0.0396
 1514poe    c23 9526   2.311   5.327   3.492  0.1600  0.5647  0.4383
 1514poe     o2 9527   2.209   5.317   3.589 -0.2406  0.2848 -0.0061
 1514poe    c31 9528   2.089   5.277   3.528  0.0341 -0.7445  0.1156
 1515poe    c31 9529   0.387   2.083   1.946 -0.0383 -0.2201  0.2003
 1515poe     o2 9530   0.273   2.135   2.011  0.5325  1.0478  0.2200
 1515poe    c23 9531   0.199   2.228   1.936  0.0523  0.2324 -0.3354
 1515poe    c23 9532   0.053   2.239   1.984 -0.0087  0.0265 -0.4745
 1515poe     o2 9533  -0.011   2.113   1.993 -0.2519  0.1621 -0.3117
 1515poe    c23 9534  -0.118   2.101   2.085  0.4106 -0.1824  0.4255
 1515poe    c23 9535  -0.196   1.969   2.068 -0.0040  0.1130  0.0090
 1515poe     o2 9536  -0.118   1.855   2.096 -0.2986 -0.0408  0.2126
 1515poe    c23 9537  -0.183   1.739   2.050  0.2457  0.1314 -1.0337
 1515poe    c23 9538  -0.081   1.626   2.079 -0.3453 -0.0279  0.5307
 1515poe     o2 9539   0.046   1.674   2.040 -0.3850 -0.3692 -0.0264
 1515poe    c31 9540   0.133   1.563   2.035 -0.8039 -0.7256  0.4086
 1516poe    c31 9541   4.632   2.142   2.853  0.1913  0.1598 -0.1527
 1516poe     o2 9542   4.585   2.030   2.925  0.7419  0.0868  0.1006
 1516poe    c23 9543   4.703   1.958   2.954  0.8733  0.1343 -0.3088
 1516poe    c23 9544   4.669   1.811   2.987  0.3936  0.2364 -0.3368
 1516poe     o2 9545   4.631   1.730   2.878  0.5841 -0.0010 -0.2286
 1516poe    c23 9546   4.582   1.604   2.919  0.6408  0.0370 -0.0447
 1516poe    c23 9547   4.544   1.518   2.798 -0.1699 -0.3444  0.4790
 1516poe     o2 9548   4.653   1.494   2.711  0.0491  0.3961  0.5480
 1516poe    c23 9549   4.614   1.525   2.579  0.1738 -0.2702  0.3545
 1516poe    c23 9550   4.720   1.514   2.467 -0.5350  0.1125 -0.3590
 1516poe     o2 9551   4.830   1.600   2.490 -0.3026 -0.2469 -0.1289
 1516poe    c31 9552   4.881   1.641   2.366 -0.0696  0.0222  0.0569
 1517poe    c31 9553   5.017   4.865   6.082  0.0243 -0.1261  0.0104
 1517poe     o2 9554   4.986   4.984   6.014  0.1861  0.2544  0.5887
 1517poe    c23 9555   4.856   5.036   6.028  0.0454  0.0514  0.0625
 1517poe    c23 9556   4.818   5.174   5.971  0.1675  0.1054  0.1133
 1517poe     o2 9557   4.825   5.191   5.831  0.2508 -0.1329  0.0869
 1517poe    c23 9558   4.734   5.293   5.796  0.3221 -0.0834  0.0481
 1517poe    c23 9559   4.771   5.324   5.650  0.3428  0.0744  0.0869
 1517poe     o2 9560   4.838   5.222   5.579  0.1219 -0.2298  0.3174
 1517poe    c23 9561   4.853   5.255   5.443  0.5558  0.5633  0.5523
 1517poe    c23 9562   4.939   5.138   5.391  0.3689  0.3003  0.8314
 1517poe     o2 9563   4.896   5.020   5.455  0.3308 -0.2465 -0.1998
 1517poe    c31 9564   4.984   4.916   5.416 -0.0877 -0.5344 -0.3806
 1518poe    c31 9565   0.107   0.546   4.582  0.0805 -0.9733 -0.3567
 1518poe     o2 9566   0.109   0.685   4.563 -0.1486 -0.9037  0.1020
 1518poe    c23 9567   0.053   0.766   4.664 -0.7620 -0.4810 -0.5643
 1518poe    c23 9568   0.074   0.907   4.607  0.2291 -0.2429  0.3629
 1518poe     o2 9569   0.009   0.903   4.482  0.8497  0.1158  0.0267
 1518poe    c23 9570   0.013   1.034   4.430 -0.6125  0.2049  0.1028
 1518poe    c23 9571  -0.020   1.035   4.280 -0.1038  0.2506 -0.0110
 1518poe     o2 9572   0.083   0.958   4.223 -0.5312 -0.0538 -0.3811
 1518poe    c23 9573   0.119   1.013   4.097  0.3144  0.1591 -0.0568
 1518poe    c23 9574   0.215   0.931   4.010 -0.0757 -0.4703  0.0948
 1518poe     o2 9575   0.322   0.869   4.078  0.1766  0.2617  0.3674
 1518poe    c31 9576   0.407   0.816   3.979 -0.2856 -0.5028  0.3740
 1519poe    c31 9577   2.336   3.347   3.459  0.5421  0.4216 -0.5418
 1519poe     o2 9578   2.375   3.480   3.435  0.1169  0.6363 -0.0680
 1519poe    c23 9579   2.264   3.566   3.421 -0.6402 -0.2447  0.4318
 1519poe    c23 9580   2.197   3.617   3.550 -0.8085  0.5518  0.0324
 1519poe     o2 9581   2.296   3.678   3.630 -0.0021 -0.1235 -0.4372
 1519poe    c23 9582   2.230   3.753   3.729 -0.2820 -0.4603 -0.3693
 1519poe    c23 9583   2.210   3.903   3.703 -0.2165 -0.3121  0.4049
 1519poe     o2 9584   2.105   3.933   3.614  0.4857  0.0353 -0.3304
 1519poe    c23 9585   2.059   4.064   3.637 -0.2011 -0.2368 -0.1233
 1519poe    c23 9586   1.955   4.110   3.534 -0.0878 -0.4878 -0.3504
 1519poe     o2 9587   1.845   4.023   3.549 -0.5362  0.1148 -0.0801
 1519poe    c31 9588   1.837   3.937   3.437 -0.3157  0.1216 -0.1021
 1520poe    c31 9589   0.707   6.871   0.397  0.0507  0.1701 -0.1039
 1520poe     o2 9590   0.691   7.001   0.347  0.5472  0.1505 -0.3241
 1520poe    c23 9591   0.668   7.083   0.460  0.1231 -0.3645 -0.0361
 1520poe    c23 9592   0.707   7.222   0.408  0.4095 -0.3310  0.2700
 1520poe     o2 9593   0.626   7.250   0.296  0.5259 -0.2189  0.2139
 1520poe    c23 9594   0.613   7.385   0.257 -0.2197 -0.0375  1.0493
 1520poe    c23 9595   0.545   7.387   0.118  0.7201 -0.3810  0.5742
 1520poe     o2 9596   0.629   7.348   0.012  0.2834 -0.1199  0.1335
 1520poe    c23 9597   0.551   7.336  -0.105 -0.7646  0.2595  0.7795
 1520poe    c23 9598   0.464   7.209  -0.116 -0.2843  0.0081 -0.3144
 1520poe     o2 9599   0.535   7.087  -0.114  0.3986  0.4046  0.1723
 1520poe    c31 9600   0.459   6.985  -0.174 -0.1950  0.8316  0.1840
 1521poe    c31 9601   1.292   4.229   6.753  0.1334  0.4566 -0.4913
 1521poe     o2 9602   1.219   4.121   6.699 -0.1782  0.2708  0.2897
 1521poe    c23 9603   1.302   4.036   6.624 -0.3442 -0.0587  0.4761
 1521poe    c23 9604   1.241   3.929   6.532  0.3808  0.0063 -0.0936
 1521poe     o2 9605   1.339   3.857   6.461  0.6786 -0.0302  0.3496
 1521poe    c23 9606   1.268   3.763   6.383  0.0242  0.3663  0.4616
 1521poe    c23 9607   1.370   3.655   6.342 -0.2789  0.3003 -0.1354
 1521poe     o2 9608   1.492   3.718   6.309  0.1579 -0.2085  0.4749
 1521poe    c23 9609   1.592   3.633   6.259 -0.0068 -0.0962 -0.0520
 1521poe    c23 9610   1.719   3.718   6.237 -0.5276  0.4901 -0.8587
 1521poe     o2 9611   1.746   3.801   6.348  0.1033  0.1963 -0.7852
 1521poe    c31 9612   1.867   3.869   6.327  0.2277  0.1192 -0.3094
 1522poe    c31 9613   3.458   4.365   4.785  0.1096 -0.3972  0.3884
 1522poe     o2 9614   3.356   4.462   4.787  0.5471  0.0854 -0.2242
 1522poe    c23 9615   3.238   4.395   4.828  0.2708  0.6604 -0.0684
 1522poe    c23 9616   3.123   4.490   4.791 -0.1327  0.3278  0.3246
 1522poe     o2 9617   3.173   4.617   4.829 -0.3200  0.4020  0.3276
 1522poe    c23 9618   3.091   4.729   4.807 -0.3273  0.3827  0.2620
 1522poe    c23 9619   3.172   4.847   4.865  0.4380 -0.2157  0.4277
 1522poe     o2 9620   3.304   4.828   4.819  0.4327  0.3173  0.1909
 1522poe    c23 9621   3.372   4.952   4.820  0.3691  0.3501  0.8122
 1522poe    c23 9622   3.506   4.965   4.746 -0.0977  0.1847 -0.0850
 1522poe     o2 9623   3.489   4.925   4.612 -0.3684 -0.6706  0.1967
 1522poe    c31 9624   3.600   4.954   4.531 -0.7917 -0.4644 -0.3219
 1523poe    c31 9625   0.905   3.010   4.987 -0.7581  0.8353 -0.0327
 1523poe     o2 9626   0.809   2.920   4.938  0.2973 -0.0926 -0.4522
 1523poe    c23 9627   0.716   2.984   4.853 -0.2979  0.3517  0.5138
 1523poe    c23 9628   0.620   2.876   4.800 -0.5767  0.3611  0.9883
 1523poe     o2 9629   0.582   2.779   4.894  0.1948 -0.2066  0.7212
 1523poe    c23 9630   0.496   2.675   4.854  0.0565  0.1256  0.1565
 1523poe    c23 9631   0.464   2.586   4.975  0.0044 -0.3869 -0.2296
 1523poe     o2 9632   0.585   2.582   5.047 -0.0761 -0.1964 -0.0794
 1523poe    c23 9633   0.593   2.477   5.141 -0.1115 -0.2707 -0.1580
 1523poe    c23 9634   0.675   2.530   5.260 -0.2113  0.2003 -0.2960
 1523poe     o2 9635   0.800   2.576   5.211  0.0005  0.2753  0.3042
 1523poe    c31 9636   0.891   2.560   5.317 -0.3859  0.2021  0.6284
 1524poe    c31 9637   6.520   4.123   5.704 -0.3592 -0.0664 -0.4866
 1524poe     o2 9638   6.515   4.258   5.663  0.7413 -0.0065 -0.4693
 1524poe    c23 9639   6.530   4.340   5.777 -0.2143  0.3120 -0.5555
 1524poe    c23 9640   6.521   4.492   5.762  0.3339  0.3963 -0.1038
 1524poe     o2 9641   6.386   4.532   5.754  0.1650 -0.1917 -0.2396
 1524poe    c23 9642   6.369   4.672   5.745 -0.2276 -0.2397 -0.2550
 1524poe    c23 9643   6.221   4.696   5.706 -0.0023  0.5572 -0.6466
 1524poe     o2 9644   6.196   4.644   5.578 -0.3040  0.0861 -0.3993
 1524poe    c23 9645   6.080   4.694   5.516 -0.5610  0.0699  0.0646
 1524poe    c23 9646   6.086   4.663   5.365 -0.0008  0.3717  0.0211
 1524poe     o2 9647   6.100   4.523   5.354  0.6100  0.4743 -0.4947
 1524poe    c31 9648   6.063   4.491   5.222 -0.1937 -0.0603 -0.1418
 1525poe    c31 9649   5.561   5.104   4.429  0.3605  0.3603 -0.4396
 1525poe     o2 9650   5.429   5.155   4.433  0.1684 -0.1168 -0.7064
 1525poe    c23 9651   5.334   5.051   4.431  0.1487 -0.1084 -0.2092
 1525poe    c23 9652   5.194   5.114   4.443  0.1672  0.1100 -1.0642
 1525poe     o2 9653   5.204   5.253   4.425  0.3683  0.2247 -0.1091
 1525poe    c23 9654   5.094   5.323   4.480  0.2284  0.2846 -0.4654
 1525poe    c23 9655   5.111   5.475   4.471 -0.9589  0.4335 -0.3549
 1525poe     o2 9656   5.244   5.520   4.490 -0.7831 -0.2531  0.0530
 1525poe    c23 9657   5.251   5.653   4.535 -0.0063 -0.5224  0.7477
 1525poe    c23 9658   5.395   5.703   4.510 -0.2402 -0.5127 -0.6819
 1525poe     o2 9659   5.487   5.640   4.597 -0.1203  0.0986 -0.3590
 1525poe    c31 9660   5.619   5.686   4.581  0.1726 -0.5091  0.3001
 1526poe    c31 9661   6.370   1.105   1.309 -0.3040  0.2437  0.1705
 1526poe     o2 9662   6.383   1.182   1.427 -0.1532 -0.0742  0.3650
 1526poe    c23 9663   6.510   1.160   1.484  0.0973  0.5704  0.0694
 1526poe    c23 9664   6.506   1.246   1.612  0.1908  0.9390 -0.1741
 1526poe     o2 9665   6.420   1.357   1.595 -0.5178  0.3774 -0.3164
 1526poe    c23 9666   6.358   1.402   1.714 -0.3882  0.0374 -0.1168
 1526poe    c23 9667   6.257   1.516   1.695 -0.6396 -0.1542  0.0748
 1526poe     o2 9668   6.154   1.476   1.607 -0.0159 -0.7351 -0.3969
 1526poe    c23 9669   6.055   1.575   1.590  0.0045 -0.6791 -0.1920
 1526poe    c23 9670   5.967   1.571   1.464 -0.0253 -0.4266 -0.1810
 1526poe     o2 9671   5.909   1.444   1.442  0.1962 -0.5228 -0.2156
 1526poe    c31 9672   5.835   1.427   1.323  0.3356 -0.7388 -0.2723
 1527poe    c31 9673   3.881   3.146   6.556 -0.0440  0.1416 -0.9255
 1527poe     o2 9674   3.775   3.233   6.591 -0.1397 -0.4109  0.1997
 1527poe    c23 9675   3.757   3.330   6.490 -0.2043 -0.8877 -0.2526
 1527poe    c23 9676   3.633   3.405   6.543  0.1064 -0.4480 -0.1395
 1527poe     o2 9677   3.540   3.311   6.593 -0.4293  0.2242  0.1447
 1527poe    c23 9678   3.430   3.383   6.643 -0.3578 -0.0634  0.7245
 1527poe    c23 9679   3.322   3.286   6.693 -0.1393 -0.3916  0.5598
 1527poe     o2 9680   3.392   3.195   6.776  0.0356 -0.9565 -0.1960
 1527poe    c23 9681   3.299   3.121   6.852 -0.0731 -0.4527  0.1623
 1527poe    c23 9682   3.357   2.982   6.882  0.6114 -0.1251  0.3861
 1527poe     o2 9683   3.394   2.911   6.766  0.1128 -0.0340  0.1706
 1527poe    c31 9684   3.392   2.770   6.772  0.2294 -0.0194  0.5457
 1528poe    c31 9685   5.754   1.227   6.502  0.3618  0.2322  0.0936
 1528poe     o2 9686   5.781   1.337   6.585 -0.0850  0.1361  0.3685
 1528poe    c23 9687   5.920   1.361   6.590 -0.0002 -0.0764 -0.6814
 1528poe    c23 9688   5.958   1.506   6.629 -0.5033 -0.0855 -0.1381
 1528poe     o2 9689   5.909   1.537   6.757  0.0461 -0.4509  0.1643
 1528poe    c23 9690   5.936   1.667   6.803 -0.1339 -0.4097  0.1551
 1528poe    c23 9691   5.886   1.695   6.946  0.4022  0.0441  0.2578
 1528poe     o2 9692   5.753   1.658   6.976  0.2078  0.0580 -0.5658
 1528poe    c23 9693   5.656   1.760   6.969 -0.0934 -0.2122 -0.3297
 1528poe    c23 9694   5.514   1.701   6.974 -0.2665  0.2155 -0.0790
 1528poe     o2 9695   5.480   1.626   6.859  0.0075 -0.1444  0.0698
 1528poe    c31 9696   5.343   1.591   6.860  0.0236 -0.2242 -0.2441
 1529poe    c31 9697   4.842   6.557   4.075 -0.2417 -0.1171  0.1077
 1529poe     o2 9698   4.704   6.585   4.070 -0.2048  0.1748  0.6350
 1529poe    c23 9699   4.678   6.688   3.978  0.1679 -0.1060  0.2143
 1529poe    c23 9700   4.547   6.757   4.021  0.0454 -0.0475 -0.2459
 1529poe     o2 9701   4.426   6.695   3.985 -0.4262  0.5390  0.3150
 1529poe    c23 9702   4.318   6.767   4.040 -0.7833  0.3466 -0.1260
 1529poe    c23 9703   4.187   6.698   3.999 -0.7299  0.1741 -0.0046
 1529poe     o2 9704   4.186   6.674   3.860  1.1195 -0.3791  0.0516
 1529poe    c23 9705   4.073   6.595   3.830 -0.0025  0.9637  0.6459
 1529poe    c23 9706   4.069   6.554   3.682  0.2368  0.3240  0.8125
 1529poe     o2 9707   4.206   6.532   3.659  0.0807  0.3047 -0.1554
 1529poe    c31 9708   4.226   6.474   3.532  0.1393  0.1716 -0.0850
 1530poe    c31 9709   1.254   5.544   1.700  0.2209 -0.0307 -0.2382
 1530poe     o2 9710   1.299   5.654   1.625  1.0570 -0.2444 -0.0658
 1530poe    c23 9711   1.375   5.732   1.714 -0.3912  0.3193  0.7097
 1530poe    c23 9712   1.439   5.850   1.639 -0.4185  0.0507  0.2643
 1530poe     o2 9713   1.330   5.913   1.576  0.0271  0.0185 -0.5656
 1530poe    c23 9714   1.384   5.990   1.472  0.3266  0.1373 -0.3245
 1530poe    c23 9715   1.267   6.079   1.426  0.3781  0.2271 -0.2818
 1530poe     o2 9716   1.147   6.010   1.403  0.5698 -0.1476 -0.1509
 1530poe    c23 9717   1.046   6.097   1.359  0.2157 -0.0261  0.8833
 1530poe    c23 9718   0.914   6.020   1.335  0.2071  0.3275 -0.2273
 1530poe     o2 9719   0.863   5.961   1.452 -0.1279  0.1643 -0.4551
 1530poe    c31 9720   0.727   5.926   1.438 -0.3188  0.6490  0.1499
 1531poe    c31 9721   6.498   5.919   0.448  0.4222 -0.3457  0.4755
 1531poe     o2 9722   6.607   6.005   0.473  0.3438 -0.0661 -0.1339
 1531poe    c23 9723   6.615   6.101   0.371  0.2885 -0.1528 -0.2198
 1531poe    c23 9724   6.709   6.212   0.423  0.1382 -0.0725 -0.1168
 1531poe     o2 9725   6.812   6.153   0.498 -0.1498 -0.0837  0.2752
 1531poe    c23 9726   6.935   6.221   0.501 -0.1592 -0.0508 -0.0383
 1531poe    c23 9727   6.941   6.324   0.616  0.4255 -0.1483  0.0243
 1531poe     o2 9728   6.928   6.251   0.736 -1.0179 -0.2711 -0.1936
 1531poe    c23 9729   6.901   6.332   0.847 -0.2198 -0.2223 -0.0312
 1531poe    c23 9730   6.880   6.234   0.964 -0.7706 -0.0396  0.0291
 1531poe     o2 9731   6.776   6.140   0.948 -0.5703 -0.2490 -0.0615
 1531poe    c31 9732   6.726   6.098   1.073 -0.5473 -0.4147 -0.1087
 1532poe    c31 9733   1.036   4.900   3.488  0.4429  0.2056 -0.2017
 1532poe     o2 9734   1.083   4.792   3.566 -0.5306  0.2116  0.4167
 1532poe    c23 9735   0.995   4.682   3.561 -0.7294  0.4037 -0.5097
 1532poe    c23 9736   1.009   4.548   3.635 -0.1115  0.6242 -0.2242
 1532poe     o2 9737   1.041   4.578   3.769 -0.5804  0.1322  0.0007
 1532poe    c23 9738   1.055   4.462   3.848  0.5136  0.3265  0.1091
 1532poe    c23 9739   1.073   4.514   3.992  0.4119 -0.2447  0.3294
 1532poe     o2 9740   1.190   4.593   3.987  0.3139 -0.1046  0.2791
 1532poe    c23 9741   1.231   4.649   4.110  0.9937  0.1776 -0.0711
 1532poe    c23 9742   1.329   4.766   4.094  0.6723  0.4836  0.1816
 1532poe     o2 9743   1.409   4.705   3.995  0.1424  0.0246  0.0325
 1532poe    c31 9744   1.534   4.770   3.988  0.0571  0.1753 -0.0848
 1533poe    c31 9745   0.311   2.958   2.294 -0.5154 -0.2068 -0.2151
 1533poe     o2 9746   0.347   2.829   2.250  0.2144 -0.3050  0.6499
 1533poe    c23 9747   0.240   2.747   2.208  0.2478 -0.0084 -0.0217
 1533poe    c23 9748   0.284   2.620   2.134  0.3089  0.0236 -0.0409
 1533poe     o2 9749   0.404   2.579   2.197  0.1849 -0.0861  0.1247
 1533poe    c23 9750   0.425   2.449   2.145 -0.1695 -0.1511  0.1386
 1533poe    c23 9751   0.551   2.377   2.195 -0.1073  0.0555  0.2827
 1533poe     o2 9752   0.671   2.449   2.174  0.4810 -0.9622  0.0933
 1533poe    c23 9753   0.716   2.466   2.042 -0.3528  0.3558 -0.0388
 1533poe    c23 9754   0.854   2.534   2.046 -0.0798 -0.1873 -0.0971
 1533poe     o2 9755   0.862   2.671   2.077  0.0746 -0.0825 -0.5978
 1533poe    c31 9756   0.997   2.711   2.074  0.1995 -0.4630 -0.2024
 1534poe    c31 9757   0.179   3.379   4.750  0.1513 -0.0618  0.1474
 1534poe     o2 9758   0.187   3.453   4.870  0.4543  0.3392 -0.1189
 1534poe    c23 9759   0.316   3.509   4.879  0.5576  0.1087 -0.1600
 1534poe    c23 9760   0.322   3.604   5.001 -0.0795  0.0128 -0.0510
 1534poe     o2 9761   0.281   3.521   5.107  0.5482 -0.4200 -0.1457
 1534poe    c23 9762   0.274   3.594   5.227 -0.0883 -0.2050 -0.3114
 1534poe    c23 9763   0.214   3.509   5.340 -0.1957  0.2228 -0.0445
 1534poe     o2 9764   0.074   3.493   5.332 -0.1736  0.1917 -0.3853
 1534poe    c23 9765   0.008   3.421   5.434 -0.1383  0.3434 -0.2546
 1534poe    c23 9766  -0.140   3.389   5.406 -0.1574  0.3629 -0.1738
 1534poe     o2 9767  -0.151   3.321   5.284  0.0438  0.3384 -0.1785
 1534poe    c31 9768  -0.285   3.284   5.262  0.1604 -0.2229  0.0329
 1535poe    c31 9769   4.060   6.409   5.458  0.3319  0.1440  0.0948
 1535poe     o2 9770   4.045   6.448   5.324 -0.2461  0.2684  0.1940
 1535poe    c23 9771   3.915   6.494   5.297  0.0243  0.5977 -0.6038
 1535poe    c23 9772   3.851   6.474   5.158 -0.6293 -1.0958 -0.0901
 1535poe     o2 9773   3.931   6.535   5.059 -1.2360  0.0229  0.0905
 1535poe    c23 9774   3.861   6.528   4.936 -0.2249 -0.0918 -0.4877
 1535poe    c23 9775   3.948   6.621   4.849  0.0319 -0.2776 -0.4305
 1535poe     o2 9776   4.080   6.594   4.891 -0.1189  0.0921  0.2885
 1535poe    c23 9777   4.161   6.690   4.827  0.0987  0.0199  0.4569
 1535poe    c23 9778   4.307   6.673   4.872  0.2595  0.7075  0.1975
 1535poe     o2 9779   4.315   6.639   5.009 -0.0659 -0.4173 -0.0593
 1535poe    c31 9780   4.444   6.613   5.059 -0.0784 -0.3911 -0.0131
 1536poe    c31 9781   3.928   3.059   6.188 -0.5672  0.0652  0.5493
 1536poe     o2 9782   3.864   2.935   6.170  0.0111 -0.1610  0.0173
 1536poe    c23 9783   3.797   2.927   6.046  0.1431 -0.1031 -0.0577
 1536poe    c23 9784   3.872   2.831   5.951  0.7360  0.3147 -0.0165
 1536poe     o2 9785   3.874   2.700   6.003  0.0825  0.1906 -0.2907
 1536poe    c23 9786   3.886   2.595   5.910 -0.3203 -0.5255  0.4578
 1536poe    c23 9787   3.890   2.462   5.989 -0.0084 -0.7043  0.1431
 1536poe     o2 9788   3.978   2.469   6.099  0.1208 -0.3182  0.0202
 1536poe    c23 9789   3.949   2.353   6.173  0.6297 -0.7151 -0.3970
 1536poe    c23 9790   4.007   2.358   6.316 -0.2138 -0.0924 -0.0718
 1536poe     o2 9791   4.029   2.493   6.350  0.1446 -0.2789  0.4402
 1536poe    c31 9792   4.007   2.500   6.490 -0.4251 -0.5007  0.3648
 1537poe    c31 9793   6.831   5.717   5.787 -0.6704  0.3196 -0.2769
 1537poe     o2 9794   6.794   5.602   5.713 -0.4491  0.4666 -0.6195
 1537poe    c23 9795   6.872   5.584   5.597  0.4742 -0.3219  0.0992
 1537poe    c23 9796   6.830   5.466   5.508 -0.2466 -0.1636  0.2215
 1537poe     o2 9797   6.849   5.347   5.582  0.1787  0.1303  0.5921
 1537poe    c23 9798   6.764   5.251   5.523  0.7269  0.1044 -0.1769
 1537poe    c23 9799   6.761   5.129   5.617  0.4449  0.2466 -0.0020
 1537poe     o2 9800   6.704   5.146   5.746 -0.5517 -0.4962 -0.3292
 1537poe    c23 9801   6.725   5.034   5.829  0.3374  0.0282  0.1765
 1537poe    c23 9802   6.643   5.051   5.958 -0.2428 -0.1976 -0.1562
 1537poe     o2 9803   6.685   5.166   6.029 -0.0197 -0.1520 -0.3594
 1537poe    c31 9804   6.573   5.197   6.109  0.0281  0.7706 -0.6411
 1538poe    c31 9805   2.136   6.167   6.234 -0.7923  0.7929 -0.0750
 1538poe     o2 9806   2.040   6.068   6.261  0.0688  0.1901  0.8338
 1538poe    c23 9807   1.924   6.130   6.311  0.0098  0.8222 -0.0496
 1538poe    c23 9808   1.886   6.072   6.449 -0.2142 -0.2524 -0.5510
 1538poe     o2 9809   1.869   5.932   6.454 -0.9286 -0.1571 -0.2611
 1538poe    c23 9810   1.836   5.891   6.585  0.2631 -0.2744  0.0141
 1538poe    c23 9811   1.894   5.755   6.626 -0.4886 -0.5213  0.2829
 1538poe     o2 9812   1.852   5.674   6.519 -0.4494  0.2360 -0.3127
 1538poe    c23 9813   1.872   5.539   6.555  0.8120  0.3631 -0.5147
 1538poe    c23 9814   1.849   5.466   6.422 -0.0283 -0.0415 -0.1515
 1538poe     o2 9815   1.903   5.542   6.317  0.0582 -0.0288 -0.0979
 1538poe    c31 9816   1.934   5.450   6.215  0.3482 -0.1006  0.0541
 1539poe    c31 9817   3.237   4.222   3.648 -0.2047  0.0891 -0.2321
 1539poe     o2 9818   3.332   4.319   3.612 -0.0351  0.0965  0.2276
 1539poe    c23 9819   3.267   4.414   3.530 -0.0105  0.2959  0.4399
 1539poe    c23 9820   3.363   4.530   3.500  0.1095  0.1242  0.1591
 1539poe     o2 9821   3.478   4.486   3.431  0.1077  0.4154 -0.0341
 1539poe    c23 9822   3.542   4.597   3.373  0.0245  0.1922 -0.5604
 1539poe    c23 9823   3.681   4.560   3.318  0.0986 -0.1931 -0.1227
 1539poe     o2 9824   3.752   4.488   3.416 -0.4065 -0.5595 -0.0212
 1539poe    c23 9825   3.868   4.420   3.374 -0.1454 -0.1055 -0.0396
 1539poe    c23 9826   3.946   4.363   3.493 -0.4355  0.3033  0.3487
 1539poe     o2 9827   3.864   4.305   3.592 -0.3519  0.1866  0.3497
 1539poe    c31 9828   3.931   4.213   3.676  0.0244  0.3585  0.2396
 1540poe    c31 9829   1.136   3.301   3.115  0.1509  0.1341  0.6580
 1540poe     o2 9830   1.221   3.218   3.040  0.0077  0.3246  0.2812
 1540poe    c23 9831   1.144   3.135   2.956  0.1483 -0.1176  0.5846
 1540poe    c23 9832   1.220   3.081   2.833  0.6180  0.7121  0.5061
 1540poe     o2 9833   1.312   2.979   2.864  0.0290  0.0719  0.1624
 1540poe    c23 9834   1.349   2.897   2.756  0.3197  0.3249  0.0702
 1540poe    c23 9835   1.468   2.810   2.800  0.3747  0.2358 -0.2466
 1540poe     o2 9836   1.583   2.889   2.823  0.2941  0.3021 -0.0646
 1540poe    c23 9837   1.692   2.812   2.868  0.4373  0.4514 -0.1579
 1540poe    c23 9838   1.805   2.916   2.853  0.6066  0.2487 -0.3026
 1540poe     o2 9839   1.758   3.045   2.887 -0.0793  0.0520 -0.4884
 1540poe    c31 9840   1.863   3.133   2.917 -0.4599  0.3518 -0.0390
 1541poe    c31 9841   4.170   1.301   1.142 -0.0482 -0.0772 -0.1970
 1541poe     o2 9842   4.130   1.183   1.075 -0.0178  0.0977 -0.5264
 1541poe    c23 9843   4.037   1.216   0.975 -0.2887  0.3180 -0.2057
 1541poe    c23 9844   4.016   1.109   0.866  0.7113 -0.1639  0.0614
 1541poe     o2 9845   3.960   0.985   0.900  0.2751  0.1090  0.3551
 1541poe    c23 9846   3.915   0.915   0.786 -0.0815 -0.1094  0.6287
 1541poe    c23 9847   3.830   0.797   0.837 -0.4630 -0.0617  0.1124
 1541poe     o2 9848   3.913   0.722   0.923 -0.4324 -0.2635 -0.0926
 1541poe    c23 9849   3.864   0.593   0.951  0.6763 -0.8049 -0.5745
 1541poe    c23 9850   3.969   0.530   1.045  0.9420 -0.2449 -0.4917
 1541poe     o2 9851   4.085   0.489   0.976  1.1122 -0.6339  0.0275
 1541poe    c31 9852   4.166   0.452   1.086  0.2237 -0.0626  0.8970
 1542poe    c31 9853   4.623   5.169   1.736 -0.1242  0.0723  0.6500
 1542poe     o2 9854   4.521   5.267   1.730 -0.0914  0.0904  0.3746
 1542poe    c23 9855   4.404   5.200   1.689 -0.0801  0.3750 -0.1347
 1542poe    c23 9856   4.292   5.303   1.714 -0.6092 -0.0316 -0.7572
 1542poe     o2 9857   4.348   5.427   1.676 -0.1353  0.1071  0.3308
 1542poe    c23 9858   4.252   5.528   1.653 -0.2835 -0.0587  0.2166
 1542poe    c23 9859   4.326   5.661   1.632 -0.2809 -0.0463  0.3052
 1542poe     o2 9860   4.422   5.678   1.734 -0.1163 -0.0879  0.1557
 1542poe    c23 9861   4.466   5.812   1.730  0.3655 -0.2390  0.3430
 1542poe    c23 9862   4.596   5.819   1.812  0.3225  0.2550  0.3711
 1542poe     o2 9863   4.709   5.764   1.749  0.2328 -0.0373  0.4612
 1542poe    c31 9864   4.820   5.809   1.824  0.1685  0.8363  0.0446
 1543poe    c31 9865   3.009   4.030   0.791 -0.4067 -0.5600  1.0061
 1543poe     o2 9866   3.133   4.023   0.856 -0.3202 -0.8883  0.8107
 1543poe    c23 9867   3.234   4.092   0.786 -0.7719 -0.6608  0.3863
 1543poe    c23 9868   3.364   4.092   0.867 -0.4669 -0.3768 -0.0971
 1543poe     o2 9869   3.325   4.130   0.998  0.5254  0.3496  0.0073
 1543poe    c23 9870   3.428   4.137   1.094  0.2282  0.5108  0.3145
 1543poe    c23 9871   3.373   4.120   1.237 -0.1494  0.0888  0.1227
 1543poe     o2 9872   3.276   4.018   1.250  0.2735 -0.3105  0.1761
 1543poe    c23 9873   3.234   4.007   1.384  0.1273  0.0928  0.1644
 1543poe    c23 9874   3.110   3.924   1.418  0.0664 -0.0027 -0.2913
 1543poe     o2 9875   2.986   3.991   1.406 -0.0307  0.0764  0.9674
 1543poe    c31 9876   2.883   3.903   1.444 -0.0036 -0.4484 -0.1334
 1544poe    c31 9877   1.584   2.441   4.875  0.2132  0.2309 -0.0470
 1544poe     o2 9878   1.718   2.405   4.901  0.0890 -0.0946  0.1518
 1544poe    c23 9879   1.770   2.482   5.007  0.6368  0.0383 -0.2079
 1544poe    c23 9880   1.910   2.429   5.043  0.4605 -0.1159  0.2626
 1544poe     o2 9881   1.901   2.288   5.048 -0.0649 -0.1327 -0.8036
 1544poe    c23 9882   2.024   2.234   5.088 -0.4369 -0.0268  0.5190
 1544poe    c23 9883   2.016   2.081   5.091  0.4761 -0.0938  0.0956
 1544poe     o2 9884   1.967   2.045   4.964 -0.2332 -0.1092  0.3637
 1544poe    c23 9885   1.965   1.904   4.966  0.1226 -0.1154  0.3155
 1544poe    c23 9886   1.900   1.849   4.838  0.3476  0.2291  0.0484
 1544poe     o2 9887   1.770   1.901   4.816  0.1906 -0.0735  0.2443
 1544poe    c31 9888   1.697   1.830   4.719  0.7032  0.0047 -0.2080
 1545poe    c31 9889   2.675   3.228   3.175  0.1522 -0.7784  0.3467
 1545poe     o2 9890   2.810   3.196   3.154  0.2820  0.0813 -0.1537
 1545poe    c23 9891   2.878   3.125   3.255  0.0758 -0.0144 -0.0819
 1545poe    c23 9892   3.030   3.152   3.250  0.1083 -0.0737  0.5196
 1545poe     o2 9893   3.081   3.283   3.249 -0.1202  0.0154 -0.3605
 1545poe    c23 9894   3.221   3.276   3.229 -0.0364 -0.3300  0.3420
 1545poe    c23 9895   3.289   3.413   3.239 -0.2918 -0.2001  0.3117
 1545poe     o2 9896   3.236   3.509   3.151  0.6519  0.1171  0.0779
 1545poe    c23 9897   3.308   3.630   3.135  0.0474  0.5215  0.3780
 1545poe    c23 9898   3.359   3.665   2.994 -0.2860  0.0353  0.1331
 1545poe     o2 9899   3.252   3.717   2.918  0.1246 -0.1737 -0.5982
 1545poe    c31 9900   3.283   3.745   2.783 -0.0235  0.7573 -0.4430
 1546poe    c31 9901   2.537   1.444   0.152 -0.4751  0.0914  0.5134
 1546poe     o2 9902   2.564   1.494   0.023  0.6888 -1.0440  0.2983
 1546poe    c23 9903   2.535   1.409  -0.086  0.9066 -0.1256 -0.4916
 1546poe    c23 9904   2.485   1.500  -0.199  0.1776  0.1257  0.0236
 1546poe     o2 9905   2.590   1.581  -0.249  0.1476 -0.1945 -0.5682
 1546poe    c23 9906   2.547   1.697  -0.316 -0.2224 -0.3880 -0.6697
 1546poe    c23 9907   2.664   1.766  -0.388  0.1152 -0.0691  0.1711
 1546poe     o2 9908   2.772   1.784  -0.299  0.2163  0.0304  0.0292
 1546poe    c23 9909   2.896   1.827  -0.349  0.0832  0.4342  0.0482
 1546poe    c23 9910   2.980   1.826  -0.219 -0.3087 -0.0494  0.3004
 1546poe     o2 9911   2.946   1.719  -0.135  0.3916  0.4419  1.2265
 1546poe    c31 9912   3.049   1.696  -0.042  0.6624 -0.3190  0.7485
 1547poe    c31 9913   4.452   6.054   3.311 -0.4347  0.1145  0.0447
 1547poe     o2 9914   4.492   5.929   3.259 -0.5015  0.3109 -0.4828
 1547poe    c23 9915   4.398   5.829   3.289 -0.5358  0.3664 -0.4067
 1547poe    c23 9916   4.423   5.708   3.197  0.2085  0.2756 -0.0971
 1547poe     o2 9917   4.561   5.701   3.169  0.2409  0.8513 -0.1115
 1547poe    c23 9918   4.594   5.607   3.069  0.6178 -0.1072  0.8834
 1547poe    c23 9919   4.746   5.598   3.048  0.6491  0.1272  1.0004
 1547poe     o2 9920   4.778   5.733   3.026 -0.0414  0.1640  0.1900
 1547poe    c23 9921   4.912   5.751   2.985 -0.0118 -0.3437  0.0617
 1547poe    c23 9922   4.928   5.877   2.899  0.3266  0.2032  0.9147
 1547poe     o2 9923   4.881   5.982   2.982 -0.7259  0.3614  0.1406
 1547poe    c31 9924   4.950   6.101   2.954  0.0093 -0.0083  0.3613
 1548poe    c31 9925   1.746   1.279   3.688 -0.6909  0.0165  0.0949
 1548poe     o2 9926   1.769   1.221   3.561 -0.0049 -0.2645  0.3448
 1548poe    c23 9927   1.731   1.086   3.570  0.2491 -0.3377  0.3208
 1548poe    c23 9928   1.724   1.009   3.437 -0.3793  0.6492 -0.2228
 1548poe     o2 9929   1.843   1.025   3.363  0.0117  0.3106  0.3234
 1548poe    c23 9930   1.817   0.962   3.239  0.4584  0.1040  0.3324
 1548poe    c23 9931   1.958   0.948   3.179  0.3318  0.2644 -0.0105
 1548poe     o2 9932   2.040   1.058   3.211  0.0135  0.5507 -0.1806
 1548poe    c23 9933   2.175   1.048   3.172  0.0665 -0.1785  0.1791
 1548poe    c23 9934   2.263   1.165   3.220  0.0685  0.1014 -0.4969
 1548poe     o2 9935   2.203   1.203   3.343  0.8519 -0.3848  0.0406
 1548poe    c31 9936   2.277   1.304   3.407  0.0982  0.5885 -0.6045
 1549poe    c31 9937   2.936   1.213   2.424 -0.2644  0.6980  0.1252
 1549poe     o2 9938   2.836   1.158   2.506 -0.2632  0.1674 -0.2271
 1549poe    c23 9939   2.853   1.217   2.633 -0.1553  0.1597 -0.2375
 1549poe    c23 9940   2.751   1.183   2.744  0.1272 -0.1753 -0.0777
 1549poe     o2 9941   2.621   1.191   2.691  0.1408  0.3317 -0.0413
 1549poe    c23 9942   2.518   1.211   2.786  0.0202  0.2118 -0.1462
 1549poe    c23 9943   2.375   1.190   2.734 -0.0268 -0.1633  0.1336
 1549poe     o2 9944   2.373   1.060   2.679 -0.2632 -0.1336  0.0697
 1549poe    c23 9945   2.257   1.039   2.601 -0.0059  0.2435 -0.4183
 1549poe    c23 9946   2.255   0.894   2.550  0.1648  0.1213 -0.0814
 1549poe     o2 9947   2.377   0.858   2.489 -0.2804 -0.4837 -0.6302
 1549poe    c31 9948   2.370   0.732   2.426 -0.0815 -0.5980 -0.4281
 1550poe    c31 9949   5.604   4.052   3.313  0.0611 -0.5598  0.1073
 1550poe     o2 9950   5.735   4.022   3.272  0.2600  0.1198  0.2239
 1550poe    c23 9951   5.762   4.026   3.134  0.1273  0.6600  0.2117
 1550poe    c23 9952   5.914   4.019   3.115  0.0134 -0.7778 -0.3209
 1550poe     o2 9953   5.965   3.950   3.227 -0.2252 -0.2473  0.1176
 1550poe    c23 9954   6.086   3.886   3.195 -0.2710 -0.3931  0.2289
 1550poe    c23 9955   6.195   3.865   3.301 -0.1658  0.1811  0.2385
 1550poe     o2 9956   6.127   3.797   3.404  0.0937 -0.0485  0.2610
 1550poe    c23 9957   6.201   3.758   3.517 -0.5166 -0.0731  0.6567
 1550poe    c23 9958   6.161   3.817   3.653 -0.6647  0.4315  0.3957
 1550poe     o2 9959   6.038   3.769   3.703 -0.4652 -0.3732  0.1300
 1550poe    c31 9960   6.017   3.801   3.839 -0.0666 -0.5086  0.2240
 1551poe    c31 9961   0.056   4.214   5.089  0.6286  0.3066 -0.1579
 1551poe     o2 9962   0.053   4.241   5.227 -0.0447  0.1654 -0.1400
 1551poe    c23 9963   0.148   4.327   5.286  0.0224 -0.1685  0.2480
 1551poe    c23 9964   0.127   4.324   5.439  0.4493  0.0324  0.3114
 1551poe     o2 9965   0.109   4.188   5.470 -0.2890 -0.1352 -0.7961
 1551poe    c23 9966   0.082   4.163   5.606 -0.2679  0.2954 -0.7132
 1551poe    c23 9967   0.053   4.017   5.643 -0.4056  0.5967  0.4088
 1551poe     o2 9968  -0.047   3.978   5.552  0.3559  0.3159 -0.3264
 1551poe    c23 9969  -0.111   3.854   5.572 -0.0240  0.5094 -0.3297
 1551poe    c23 9970  -0.180   3.779   5.457  0.3434 -0.0097 -0.2150
 1551poe     o2 9971  -0.281   3.856   5.395 -0.0268 -0.3841 -0.0812
 1551poe    c31 9972  -0.332   3.781   5.287 -0.2365  0.2302 -0.4156
 1552poe    c31 9973   1.835   2.846   0.659  0.4749  0.3282 -0.2349
 1552poe     o2 9974   1.733   2.829   0.563  0.5310 -0.1230 -0.2163
 1552poe    c23 9975   1.673   2.705   0.591 -0.4361  0.3077 -0.3677
 1552poe    c23 9976   1.585   2.658   0.473  0.1194 -0.0512 -0.6417
 1552poe     o2 9977   1.452   2.697   0.499  0.1906  0.1270 -0.5416
 1552poe    c23 9978   1.373   2.592   0.447 -0.1542  0.1864 -0.1407
 1552poe    c23 9979   1.237   2.596   0.519 -0.3878  0.1655 -0.5795
 1552poe     o2 9980   1.197   2.731   0.502 -0.3764  0.2234 -0.1551
 1552poe    c23 9981   1.109   2.777   0.603 -0.3272  0.0872 -0.0488
 1552poe    c23 9982   1.069   2.923   0.572  0.3852  0.4187  0.5594
 1552poe     o2 9983   1.188   2.991   0.537  0.2095  0.4886  0.0968
 1552poe    c31 9984   1.163   3.126   0.504  0.2687  0.4356 -0.1717
 1553poe    c31 9985   3.771   4.982   2.085  0.3199 -0.0873 -0.1292
 1553poe     o2 9986   3.675   4.878   2.093 -0.0316  0.2224 -0.2782
 1553poe    c23 9987   3.553   4.912   2.032 -0.3169  0.2055  0.2804
 1553poe    c23 9988   3.473   4.783   2.059 -0.2803  0.1101 -0.0680
 1553poe     o2 9989   3.490   4.734   2.191 -0.3368  0.7983  0.1951
 1553poe    c23 9990   3.404   4.624   2.207 -0.0888  0.5928  0.1231
 1553poe    c23 9991   3.448   4.529   2.320  0.3823  0.1966 -0.3900
 1553poe     o2 9992   3.584   4.500   2.296  0.4921  0.2898  0.1125
 1553poe    c23 9993   3.621   4.428   2.411 -0.3720 -0.4905 -0.0896
 1553poe    c23 9994   3.761   4.469   2.460 -0.2634 -0.4822 -0.4057
 1553poe     o2 9995   3.859   4.455   2.360  0.1129  0.3845 -0.1671
 1553poe    c31 9996   3.986   4.471   2.418  0.1297  0.4879 -0.2312
 1554poe    c31 9997   1.313   6.853   5.399 -0.0275  0.6211 -0.0136
 1554poe     o2 9998   1.223   6.836   5.506  0.1988  0.2070  0.1163
 1554poe    c23 9999   1.096   6.866   5.452  0.1774  0.0491  0.0777
 1554poe    c2310000   0.986   6.854   5.559 -0.2175 -0.1240 -0.3498
 1554poe     o210001   1.047   6.897   5.678 -0.0685 -0.9464 -0.1205
 1554poe    c2310002   0.965   6.855   5.784  0.2708 -0.3422  0.3845
 1554poe    c2310003   1.038   6.920   5.904  0.3307  0.2449  0.0346
 1554poe     o210004   1.177   6.897   5.904  0.2292 -0.4323 -0.4927
 1554poe    c2310005   1.241   6.913   6.029 -0.3473 -0.5085 -0.1858
 1554poe    c2310006   1.395   6.907   6.030 -0.3314 -0.0790  0.0504
 1554poe     o210007   1.455   6.781   6.011 -0.2050  0.0136 -0.1688
 1554poe    c3110008   1.591   6.793   6.045 -0.2662  0.2603 -0.0051
 1555poe    c3110009   3.526   5.331   0.675  0.0681 -0.0817 -0.2512
 1555poe     o210010   3.543   5.276   0.547 -0.1049  0.1973 -0.3947
 1555poe    c2310011   3.411   5.289   0.498 -0.2358  0.1367 -0.0566
 1555poe    c2310012   3.420   5.258   0.348  0.1276 -0.0498  0.0023
 1555poe     o210013   3.507   5.349   0.284  0.0197  0.2506  0.2777
 1555poe    c2310014   3.551   5.302   0.158  0.0672  0.6478  0.1445
 1555poe    c2310015   3.598   5.420   0.072 -0.2161  0.2755 -0.5242
 1555poe     o210016   3.709   5.491   0.122 -0.5418  0.2671  0.2242
 1555poe    c2310017   3.767   5.571   0.022 -0.0233 -0.0288  0.2829
 1555poe    c2310018   3.877   5.656   0.091 -0.0627  0.1950  0.0735
 1555poe     o210019   3.843   5.685   0.224  0.0067  0.3462  0.0576
 1555poe    c3110020   3.958   5.723   0.295 -0.1130 -0.0512  0.4707
 1556poe    c3110021   0.853   2.890   6.199 -0.4543  0.2812  0.9994
 1556poe     o210022   0.925   2.812   6.291 -0.1494 -0.2502  0.3206
 1556poe    c2310023   0.839   2.707   6.332 -0.4869  0.0538  0.4028
 1556poe    c2310024   0.882   2.620   6.451 -0.3160  0.0225  0.3187
 1556poe     o210025   1.001   2.552   6.419 -0.0444  0.6212  0.0456
 1556poe    c2310026   1.052   2.529   6.548 -0.1803  0.9518  0.1558
 1556poe    c2310027   1.206   2.524   6.552 -0.1875 -0.1297 -0.6060
 1556poe     o210028   1.262   2.653   6.560  0.5964 -0.5089  0.1342
 1556poe    c2310029   1.393   2.652   6.506  0.5482  0.4153 -0.0248
 1556poe    c2310030   1.463   2.788   6.495  0.0038  0.6850 -0.1690
 1556poe     o210031   1.442   2.841   6.366 -0.2020  0.0926 -0.3812
 1556poe    c3110032   1.527   2.952   6.346  0.2334 -0.0765  0.4763
 1557poe    c3110033   3.552   6.579   5.563  0.1575  0.0942 -0.2227
 1557poe     o210034   3.529   6.540   5.429 -0.2554 -0.4264 -0.0056
 1557poe    c2310035   3.455   6.645   5.370  0.1849  0.0727  0.3226
 1557poe    c2310036   3.419   6.587   5.232  0.6235 -0.2687  0.3507
 1557poe     o210037   3.331   6.477   5.221  0.0084  0.2168  0.3864
 1557poe    c2310038   3.337   6.417   5.094  0.5500  0.2198  0.4053
 1557poe    c2310039   3.260   6.284   5.103  0.3018  0.3362  0.0380
 1557poe     o210040   3.324   6.187   5.182 -0.7046  0.2668  0.7879
 1557poe    c2310041   3.308   6.059   5.126 -0.6164  0.3502  0.5716
 1557poe    c2310042   3.364   5.962   5.231  0.2989  0.4107  0.1491
 1557poe     o210043   3.317   6.003   5.357  0.6891 -0.4252  0.5803
 1557poe    c3110044   3.331   5.898   5.450  0.6110 -0.5108  0.4950
 1558poe    c3110045   4.575   6.251   4.657  0.6328 -0.6379  0.4777
 1558poe     o210046   4.478   6.180   4.732 -0.5721  0.2672 -0.1805
 1558poe    c2310047   4.403   6.279   4.799 -0.0582  0.3175  0.3239
 1558poe    c2310048   4.280   6.208   4.858 -0.3741  1.0990  0.6119
 1558poe     o210049   4.188   6.174   4.757 -0.1398 -0.0815  0.7740
 1558poe    c2310050   4.067   6.124   4.809 -0.6199  0.2757  0.0147
 1558poe    c2310051   3.960   6.114   4.699 -0.3358 -0.0076 -0.2355
 1558poe     o210052   4.014   6.026   4.603 -0.4261 -0.3041 -0.0143
 1558poe    c2310053   3.931   6.009   4.490 -0.3486 -0.4062 -0.0565
 1558poe    c2310054   4.009   5.915   4.397  0.2308 -0.0465  0.0580
 1558poe     o210055   4.148   5.939   4.398  0.2637 -0.2345  0.0431
 1558poe    c3110056   4.210   5.858   4.301  0.3977 -0.1007  0.0170
 1559poe    c3110057   6.820   3.395   0.514  0.1586  0.1572  0.4498
 1559poe     o210058   6.789   3.372   0.650 -0.5165 -0.5041  0.1889
 1559poe    c2310059   6.690   3.465   0.687 -0.3626 -0.1784 -0.2159
 1559poe    c2310060   6.666   3.464   0.839 -0.3971  0.5140 -0.2105
 1559poe     o210061   6.790   3.500   0.896 -0.1177 -0.4712 -0.1681
 1559poe    c2310062   6.775   3.535   1.032 -0.2015  0.0659 -0.3112
 1559poe    c2310063   6.894   3.602   1.103  0.0513 -0.3932 -0.2958
 1559poe     o210064   7.014   3.529   1.118 -0.0100 -0.3151  0.6125
 1559poe    c2310065   7.124   3.607   1.157 -0.2127 -0.0479  0.6515
 1559poe    c2310066   7.255   3.526   1.150  0.1127  0.5489 -0.3996
 1559poe     o210067   7.254   3.433   1.044  0.5716 -0.1483  0.2007
 1559poe    c3110068   7.362   3.344   1.057 -0.0300 -0.9472 -0.1905
 1560poe    c3110069   3.024   6.896   6.103  0.3385  0.6291 -0.0211
 1560poe     o210070   2.907   6.857   6.035  0.4949  0.6296 -0.2899
 1560poe    c2310071   2.795   6.888   6.115 -0.0617 -0.7167 -0.5255
 1560poe    c2310072   2.680   6.901   6.013 -0.1100  0.0454 -0.3806
 1560poe     o210073   2.685   6.792   5.924  0.1146 -0.2869  0.0326
 1560poe    c2310074   2.581   6.796   5.829 -0.5589 -0.4406  0.7549
 1560poe    c2310075   2.601   6.686   5.723  0.2621 -0.0514  0.4942
 1560poe     o210076   2.732   6.641   5.697 -0.1006 -0.6452 -0.3433
 1560poe    c2310077   2.736   6.526   5.616 -0.8384 -0.4999 -0.5923
 1560poe    c2310078   2.880   6.490   5.576 -0.3942  0.5215  0.0425
 1560poe     o210079   2.935   6.602   5.511  0.4320  0.1363  0.0676
 1560poe    c3110080   3.053   6.566   5.443  0.1312  0.0170 -0.3980
 1561poe    c3110081   6.412   3.164   0.425 -0.7097  0.4026  0.3090
 1561poe     o210082   6.328   3.237   0.339 -0.1540  0.8393  0.1357
 1561poe    c2310083   6.201   3.239   0.400 -0.2542 -0.2526 -0.0181
 1561poe    c2310084   6.100   3.317   0.314 -0.0410 -0.2171 -0.2371
 1561poe     o210085   6.162   3.440   0.284  0.0257 -0.1564  0.1374
 1561poe    c2310086   6.072   3.542   0.247  0.1166 -0.3652 -0.6850
 1561poe    c2310087   6.145   3.674   0.280 -0.1115 -0.4110  0.0176
 1561poe     o210088   6.280   3.678   0.239 -0.1064 -0.1845  0.0564
 1561poe    c2310089   6.331   3.807   0.266 -0.4538  0.0924 -0.6020
 1561poe    c2310090   6.481   3.793   0.231 -0.2201 -0.6527  0.6405
 1561poe     o210091   6.558   3.712   0.317  0.4349 -0.7252 -0.0093
 1561poe    c3110092   6.689   3.732   0.269  0.1212  0.4195 -0.4301
 1562poe    c3110093   4.055   1.405   6.451  0.3323 -0.2145  0.0584
 1562poe     o210094   4.178   1.379   6.515  0.6079  0.1880 -0.3086
 1562poe    c2310095   4.187   1.241   6.540  0.0375  0.1760 -0.1605
 1562poe    c2310096   4.325   1.205   6.599 -0.0403 -0.4449 -0.3500
 1562poe     o210097   4.357   1.303   6.695 -0.1224 -0.1603 -0.6115
 1562poe    c2310098   4.491   1.330   6.731 -0.2533  0.0559 -0.2711
 1562poe    c2310099   4.489   1.423   6.853  0.4005  0.0387 -0.2430
 1562poe     o210100   4.404   1.535   6.836  0.2973  0.0151  0.1024
 1562poe    c2310101   4.381   1.618   6.947 -0.0703 -0.2453  0.2213
 1562poe    c2310102   4.338   1.761   6.911  0.0448 -0.1425  0.4854
 1562poe     o210103   4.202   1.773   6.875  0.2039  0.1527 -0.0294
 1562poe    c3110104   4.142   1.900   6.863 -0.3849 -0.0397  0.7827
 1563poe    c3110105   5.741   0.945   5.365 -0.2804 -0.3734  0.1773
 1563poe     o210106   5.797   0.816   5.366  0.2611 -0.1412  0.3398
 1563poe    c2310107   5.865   0.780   5.484  0.0982 -0.1715  0.4249
 1563poe    c2310108   5.904   0.631   5.474 -0.1210 -0.1943 -0.1157
 1563poe     o210109   5.962   0.618   5.346  0.2511 -0.0840  0.0407
 1563poe    c2310110   6.047   0.506   5.339  0.1381 -0.1600 -0.1160
 1563poe    c2310111   6.116   0.504   5.201  0.0875  0.0010 -0.1436
 1563poe     o210112   6.007   0.529   5.116  0.1688  0.4727 -0.1151
 1563poe    c2310113   6.043   0.495   4.984 -0.1159 -0.2455 -0.0123
 1563poe    c2310114   5.930   0.426   4.905 -0.1658 -0.3241  0.1280
 1563poe     o210115   5.816   0.508   4.902 -0.1477 -0.2609  0.8989
 1563poe    c3110116   5.731   0.457   4.802  0.5142 -0.0518  0.2140
 1564poe    c3110117   2.249   6.586   4.993  0.3650  0.1096 -0.4752
 1564poe     o210118   2.305   6.461   4.960 -0.1708 -0.2351 -0.0873
 1564poe    c2310119   2.222   6.385   4.875  0.1277  0.4018 -0.9679
 1564poe    c2310120   2.278   6.253   4.819 -0.0699 -0.2519  0.3273
 1564poe     o210121   2.379   6.281   4.725 -0.6187 -0.3948 -0.3136
 1564poe    c2310122   2.463   6.169   4.716 -0.3787 -0.2351 -0.0654
 1564poe    c2310123   2.593   6.206   4.641 -0.2775 -0.4655 -0.0051
 1564poe     o210124   2.673   6.293   4.718  0.3680 -0.5797 -0.5413
 1564poe    c2310125   2.800   6.312   4.661  0.4702  0.5177  0.0264
 1564poe    c2310126   2.887   6.406   4.747  1.0739  0.4130 -0.4561
 1564poe     o210127   2.801   6.515   4.774 -0.1131 -0.5686 -0.1802
 1564poe    c3110128   2.866   6.613   4.851 -0.2815 -0.4264 -0.2186
 1565poe    c3110129   1.470   0.303   6.889 -0.2221 -0.4148 -0.0113
 1565poe     o210130   1.432   0.388   6.783  0.9595  0.0454 -0.0911
 1565poe    c2310131   1.397   0.315   6.668  0.1277 -0.0970  0.2403
 1565poe    c2310132   1.314   0.395   6.565  0.5828  0.4801  0.3138
 1565poe     o210133   1.185   0.417   6.617  0.2824 -0.2149 -0.1087
 1565poe    c2310134   1.129   0.528   6.550  0.1294  0.0272  0.4101
 1565poe    c2310135   0.997   0.571   6.618 -0.1378 -0.1651  0.0181
 1565poe     o210136   1.021   0.608   6.751  0.0320 -0.4098  0.0572
 1565poe    c2310137   0.895   0.612   6.814  0.2226 -0.6718  0.4653
 1565poe    c2310138   0.909   0.621   6.967 -0.0389  0.2838  0.4388
 1565poe     o210139   1.001   0.527   7.015  0.0830  0.3649  0.3644
 1565poe    c3110140   0.984   0.531   7.155  0.8612 -0.1152  0.4781
 1566poe    c3110141   6.646   2.236   0.135 -0.2704  0.3895 -0.3986
 1566poe     o210142   6.630   2.366   0.082  0.2702  0.3776 -0.6037
 1566poe    c2310143   6.715   2.456   0.150  0.4009 -0.0925 -0.1358
 1566poe    c2310144   6.680   2.599   0.103 -0.1044 -0.1663  0.0054
 1566poe     o210145   6.656   2.583  -0.035  1.0207 -0.1151 -0.2066
 1566poe    c2310146   6.611   2.701  -0.098  0.0411 -0.3190  0.0961
 1566poe    c2310147   6.652   2.672  -0.244  0.1957 -0.1242  0.0994
 1566poe     o210148   6.615   2.538  -0.272  0.0069 -0.0665  0.0659
 1566poe    c2310149   6.636   2.499  -0.406  0.2571 -0.3014  0.1735
 1566poe    c2310150   6.519   2.409  -0.448  0.1803 -0.0616 -0.1287
 1566poe     o210151   6.517   2.278  -0.395 -0.2224  0.0969  0.2582
 1566poe    c3110152   6.412   2.196  -0.443  0.0347  0.4265 -0.9168
 1567poe    c3110153   1.302   3.140   3.428  0.8807 -0.0928 -0.2240
 1567poe     o210154   1.291   3.025   3.348 -0.3029 -0.2336  0.1203
 1567poe    c2310155   1.377   3.025   3.236 -0.0168 -0.2503  0.3414
 1567poe    c2310156   1.370   2.883   3.178 -0.0100 -0.2197  0.2666
 1567poe     o210157   1.235   2.844   3.183 -0.2038  0.3811 -0.1996
 1567poe    c2310158   1.208   2.719   3.124  0.1557  0.1870  0.0439
 1567poe    c2310159   1.064   2.732   3.069  0.2767  0.5195 -0.1965
 1567poe     o210160   0.984   2.780   3.174 -0.0328 -0.1064 -0.1471
 1567poe    c2310161   0.852   2.777   3.123 -0.2218 -0.2947  0.3423
 1567poe    c2310162   0.760   2.833   3.233 -0.2695 -0.7718  0.5473
 1567poe     o210163   0.782   2.963   3.284 -0.5207 -0.6606  0.3696
 1567poe    c3110164   0.660   3.034   3.289 -0.1224  0.0555  0.0380
 1568poe    c3110165   1.407   2.672   6.077 -0.3563 -0.2757 -0.2837
 1568poe     o210166   1.355   2.679   5.946 -0.0714  0.1417 -0.3785
 1568poe    c2310167   1.472   2.661   5.870  0.2705  0.6327  0.0233
 1568poe    c2310168   1.486   2.765   5.757  0.2223  0.1964 -0.3872
 1568poe     o210169   1.356   2.760   5.702  0.1613 -0.1030 -0.2171
 1568poe    c2310170   1.327   2.877   5.630 -0.7990  0.5445  1.1659
 1568poe    c2310171   1.187   2.847   5.572 -0.0500 -0.6566 -0.0789
 1568poe     o210172   1.110   2.842   5.690 -0.2246  0.0894 -0.1574
 1568poe    c2310173   0.991   2.766   5.690  0.2528 -0.6663  0.2884
 1568poe    c2310174   0.957   2.723   5.834  0.6411  0.1391  0.6297
 1568poe     o210175   1.078   2.677   5.890  0.6583  0.2863  0.7121
 1568poe    c3110176   1.048   2.600   6.005 -0.7353 -0.0129  0.1738
 1569poe    c3110177   1.245   0.061   3.468  0.1809  0.7074  0.1070
 1569poe     o210178   1.204   0.099   3.339 -0.4672  0.3671  0.2058
 1569poe    c2310179   1.177   0.237   3.347 -0.5986  0.4378 -1.1355
 1569poe    c2310180   1.116   0.290   3.216 -0.6293  0.5781 -1.0658
 1569poe     o210181   1.174   0.213   3.113  0.2316  0.1090 -0.2444
 1569poe    c2310182   1.121   0.232   2.984 -0.4458 -1.0388 -0.1461
 1569poe    c2310183   1.226   0.199   2.876 -0.2444  0.0276 -0.2771
 1569poe     o210184   1.283   0.073   2.903 -0.4380 -0.0190 -0.0842
 1569poe    c2310185   1.371   0.024   2.805  0.1104 -0.2113  0.4929
 1569poe    c2310186   1.486  -0.062   2.860  0.1252 -0.3029  0.3211
 1569poe     o210187   1.571  -0.005   2.957  0.3428  0.3134 -0.2296
 1569poe    c3110188   1.691  -0.077   2.976  0.2971  0.4058  0.4386
 1570poe    c3110189   1.979   5.815   2.377  0.2173  0.0152 -0.4508
 1570poe     o210190   2.063   5.918   2.331 -0.0116  0.3182 -0.1963
 1570poe    c2310191   1.993   6.034   2.371 -0.0466  0.1694  0.1762
 1570poe    c2310192   2.074   6.151   2.314 -0.0276  0.0159 -0.1160
 1570poe     o210193   2.209   6.121   2.343  0.1001 -0.1556 -0.8510
 1570poe    c2310194   2.286   6.219   2.278 -0.0292  0.0856 -0.6455
 1570poe    c2310195   2.416   6.211   2.361 -0.2510 -0.2848 -0.3325
 1570poe     o210196   2.464   6.079   2.372 -0.5302 -0.3625 -0.0198
 1570poe    c2310197   2.544   6.067   2.487 -0.3096 -0.7633 -0.2098
 1570poe    c2310198   2.588   5.924   2.521  0.5866 -0.6247 -0.7486
 1570poe     o210199   2.494   5.836   2.578  0.2148  0.2556  0.0204
 1570poe    c3110200   2.529   5.781   2.703 -0.1292 -0.4444 -0.1846
 1571poe    c3110201   6.027   6.535   6.820 -0.1474 -0.1320  0.0602
 1571poe     o210202   5.946   6.565   6.709 -0.3960 -0.1250  0.2425
 1571poe    c2310203   6.006   6.525   6.588 -0.2246  0.1873  0.2231
 1571poe    c2310204   5.903   6.470   6.489 -0.2829  0.1928  0.2799
 1571poe     o210205   5.805   6.551   6.427 -0.0857  0.3236  0.1393
 1571poe    c2310206   5.725   6.469   6.344  0.2692  0.5640 -0.4478
 1571poe    c2310207   5.607   6.561   6.309  0.3505  0.7062 -0.3520
 1571poe     o210208   5.536   6.591   6.427 -0.4733 -0.2083 -0.6059
 1571poe    c2310209   5.419   6.664   6.397 -0.9139 -0.5986  0.1298
 1571poe    c2310210   5.372   6.707   6.537 -0.6455  0.7543 -0.1783
 1571poe     o210211   5.480   6.757   6.612 -0.3176  0.0733 -0.1925
 1571poe    c3110212   5.424   6.784   6.739  0.1394 -0.5608  0.1539
 1572poe    c3110213   0.481   6.825   0.776  0.2018 -0.3444 -0.3358
 1572poe     o210214   0.552   6.777   0.888  0.2852 -0.1895 -0.3232
 1572poe    c2310215   0.684   6.801   0.845  0.3319 -0.5547 -0.3821
 1572poe    c2310216   0.766   6.722   0.949  0.0374 -0.3007  0.0465
 1572poe     o210217   0.746   6.770   1.080  0.2800  0.1932 -0.0924
 1572poe    c2310218   0.790   6.662   1.159 -0.6343 -0.7712 -0.8690
 1572poe    c2310219   0.683   6.607   1.255 -0.1205 -0.4846 -0.1246
 1572poe     o210220   0.566   6.601   1.178 -0.3815  0.6641  0.1632
 1572poe    c2310221   0.459   6.526   1.231  0.1646  0.3051  0.7616
 1572poe    c2310222   0.347   6.544   1.127  0.7774  0.5920  0.1493
 1572poe     o210223   0.348   6.679   1.086 -0.0906  0.3744 -0.6203
 1572poe    c3110224   0.216   6.686   1.038 -0.2817  0.2936 -0.1189
 1573poe    c3110225   4.964   3.834   5.781 -0.1524  0.3889  0.6885
 1573poe     o210226   5.086   3.779   5.737 -0.3694  0.3436  0.1497
 1573poe    c2310227   5.177   3.785   5.844 -0.2069  0.0214  0.0323
 1573poe    c2310228   5.329   3.777   5.819 -0.1527 -0.7678  0.6146
 1573poe     o210229   5.386   3.713   5.707 -0.2948  0.2292 -0.0350
 1573poe    c2310230   5.393   3.573   5.723 -0.0878  0.2805  0.3323
 1573poe    c2310231   5.460   3.524   5.593  0.3415  0.6554  0.4088
 1573poe     o210232   5.420   3.596   5.478 -0.5509 -0.3903  0.0545
 1573poe    c2310233   5.485   3.541   5.366 -0.8009  0.0009 -0.2867
 1573poe    c2310234   5.445   3.620   5.240 -0.7813 -0.0050 -0.2968
 1573poe     o210235   5.385   3.740   5.283 -0.1545  0.1134  0.2599
 1573poe    c3110236   5.349   3.825   5.176  0.0788  0.2158  0.2609
 1574poe    c3110237   1.583   5.756   5.940 -0.2084  0.3695  0.3619
 1574poe     o210238   1.690   5.736   5.851 -0.4683  0.1528  0.0942
 1574poe    c2310239   1.677   5.605   5.801  0.1818  0.0805  0.0990
 1574poe    c2310240   1.797   5.574   5.710  0.1317 -0.3508  0.1785
 1574poe     o210241   1.919   5.559   5.779  0.0695 -0.2947  0.3020
 1574poe    c2310242   2.001   5.480   5.696  0.0006  0.4169 -0.4588
 1574poe    c2310243   2.138   5.473   5.766 -0.3314 -0.1253  0.1443
 1574poe     o210244   2.176   5.606   5.791 -0.3916 -0.1518  0.3796
 1574poe    c2310245   2.291   5.631   5.867 -0.1307 -0.0989 -0.0312
 1574poe    c2310246   2.288   5.785   5.872  0.6398 -0.0978  0.6444
 1574poe     o210247   2.167   5.833   5.926  0.4057  0.0435 -0.0022
 1574poe    c3110248   2.172   5.972   5.949 -0.4666  0.0189  0.3547
 1575poe    c3110249   5.233   5.749   0.170  0.1717 -0.0602 -0.4561
 1575poe     o210250   5.240   5.863   0.254  0.4467 -0.3143 -0.1297
 1575poe    c2310251   5.291   5.976   0.187  0.3329 -0.0258  0.2696
 1575poe    c2310252   5.318   6.081   0.296  0.1242 -0.0398  0.3347
 1575poe     o210253   5.201   6.094   0.373 -0.3727 -0.3221 -0.3597
 1575poe    c2310254   5.216   6.198   0.468 -0.8622 -0.4457 -0.1400
 1575poe    c2310255   5.105   6.191   0.574 -0.4538 -0.2198  0.3101
 1575poe     o210256   4.977   6.204   0.515 -0.2724 -0.2527 -0.0922
 1575poe    c2310257   4.882   6.183   0.616  0.0412 -0.6406  0.1237
 1575poe    c2310258   4.741   6.167   0.557 -0.1073  0.3358  0.2144
 1575poe     o210259   4.757   6.066   0.461  0.1292  0.3344  0.2563
 1575poe    c3110260   4.643   6.060   0.378  0.8908  0.6208 -0.8346
 1576poe    c3110261   4.899   6.763   1.884 -0.6146 -0.3357  0.5305
 1576poe     o210262   4.778   6.775   1.954 -0.6571 -0.3702  0.4640
 1576poe    c2310263   4.670   6.827   1.879  0.1800  0.3027 -0.2899
 1576poe    c2310264   4.564   6.866   1.983 -0.2261 -0.6227 -0.3433
 1576poe     o210265   4.569   6.758   2.073  0.4887 -0.2799  0.0416
 1576poe    c2310266   4.487   6.776   2.186  0.5694  0.6024 -0.0377
 1576poe    c2310267   4.509   6.645   2.264  0.2681  1.0297  0.7755
 1576poe     o210268   4.647   6.623   2.280  0.1982 -0.0321  0.0026
 1576poe    c2310269   4.658   6.522   2.378  0.4104  0.0525  0.0675
 1576poe    c2310270   4.803   6.482   2.411  0.2360 -0.6494  0.0068
 1576poe     o210271   4.865   6.438   2.292 -0.0420 -0.5979 -0.1590
 1576poe    c3110272   5.005   6.434   2.301 -0.0809 -0.6650  0.4464
 1577poe    c3110273   1.102   5.010   1.612 -0.2193 -0.4693 -0.2738
 1577poe     o210274   1.233   5.005   1.560  0.0511  0.3398  0.2941
 1577poe    c2310275   1.233   4.889   1.480  0.4392  0.6088 -0.1003
 1577poe    c2310276   1.370   4.819   1.490  0.0491 -0.1048  0.3777
 1577poe     o210277   1.470   4.909   1.449 -0.0602 -0.2080 -0.1340
 1577poe    c2310278   1.595   4.857   1.491 -0.2065 -0.7793 -0.4020
 1577poe    c2310279   1.692   4.851   1.372  0.3053 -0.2891 -0.0104
 1577poe     o210280   1.638   4.773   1.267 -0.6113  0.4989 -0.1357
 1577poe    c2310281   1.709   4.807   1.150 -0.5991  0.1845 -0.2196
 1577poe    c2310282   1.686   4.695   1.047  0.1813 -0.4524  0.2829
 1577poe     o210283   1.554   4.688   0.999  0.1245  0.3334  0.2992
 1577poe    c3110284   1.538   4.580   0.909  0.5040  0.4085  0.1404
 1578poe    c3110285   6.795   5.372   0.453 -0.0137 -0.1027 -0.1513
 1578poe     o210286   6.878   5.456   0.530 -0.0579  0.1961 -0.4292
 1578poe    c2310287   7.009   5.469   0.478 -0.0349  0.1571 -0.3812
 1578poe    c2310288   7.099   5.547   0.575 -0.3170 -0.5110  0.4340
 1578poe     o210289   7.123   5.481   0.697  0.6408 -0.4013  0.3187
 1578poe    c2310290   7.220   5.555   0.767  0.3013 -0.0917  0.4665
 1578poe    c2310291   7.207   5.496   0.909 -0.6124  0.1804  0.5033
 1578poe     o210292   7.213   5.356   0.897  0.1747  0.2687 -0.2414
 1578poe    c2310293   7.275   5.306   1.013  0.0504 -0.1380 -0.3499
 1578poe    c2310294   7.262   5.153   1.001 -0.0313 -0.1726  0.1227
 1578poe     o210295   7.128   5.113   0.988 -0.1727  0.0804  0.8228
 1578poe    c3110296   7.126   4.972   0.980 -0.1847  0.1180  0.1278
 1579poe    c3110297   6.347   4.947   6.344  0.3893  0.1719 -0.0431
 1579poe     o210298   6.248   4.949   6.443  0.0554 -0.4913 -0.3578
 1579poe    c2310299   6.219   4.829   6.512  0.1347  0.0588  0.6504
 1579poe    c2310300   6.107   4.852   6.615 -0.3059  0.2085  0.1397
 1579poe     o210301   6.125   4.973   6.685 -0.2461  0.2592  0.0360
 1579poe    c2310302   6.014   5.009   6.764  0.4101 -0.2100  1.1938
 1579poe    c2310303   6.026   5.155   6.810 -0.1572  0.1021  0.3717
 1579poe     o210304   6.069   5.237   6.703 -0.2020 -0.2956  0.0468
 1579poe    c2310305   6.046   5.371   6.742  0.1120 -0.1509 -0.2611
 1579poe    c2310306   6.144   5.462   6.666 -0.0828  0.2805 -0.0012
 1579poe     o210307   6.139   5.479   6.526 -0.3152  0.2129 -0.0011
 1579poe    c3110308   6.028   5.559   6.490 -0.4207 -0.1180 -0.4176
 1580poe    c3110309   3.112   6.308   5.954  0.5079  0.4857 -0.4179
 1580poe     o210310   3.009   6.253   5.875  0.4531 -0.2438  0.1598
 1580poe    c2310311   2.908   6.192   5.953  0.0827 -0.0057 -0.1317
 1580poe    c2310312   2.776   6.186   5.873  0.1326 -0.2372 -0.1980
 1580poe     o210313   2.785   6.095   5.766  0.0528 -0.0843 -0.3342
 1580poe    c2310314   2.666   6.081   5.690 -0.1433 -0.4159  0.0332
 1580poe    c2310315   2.666   5.971   5.582 -0.5699 -0.1306 -0.2550
 1580poe     o210316   2.802   5.965   5.544 -0.5148 -0.0170 -0.0773
 1580poe    c2310317   2.817   5.872   5.439  0.1047 -0.6080  0.5261
 1580poe    c2310318   2.967   5.858   5.406  0.0080 -0.1700 -0.1226
 1580poe     o210319   3.038   5.772   5.493 -0.4268  0.1305  0.5356
 1580poe    c3110320   3.010   5.634   5.495  0.2820 -0.0365 -0.3552
 1581poe    c3110321   6.140   5.940   0.593  0.5816  0.3134 -0.0381
 1581poe     o210322   6.146   6.042   0.691 -0.1799  0.5742 -0.2569
 1581poe    c2310323   6.266   6.040   0.763 -0.2311  0.3733 -0.1769
 1581poe    c2310324   6.255   6.135   0.884  0.4933  0.2895 -0.0395
 1581poe     o210325   6.136   6.090   0.945  0.2807  0.3836 -0.3812
 1581poe    c2310326   6.115   6.154   1.069  0.4808 -0.3087  0.0190
 1581poe    c2310327   6.009   6.266   1.059  0.3747 -0.3739  0.4129
 1581poe     o210328   5.900   6.203   0.996  0.5838  0.6141 -0.9616
 1581poe    c2310329   5.790   6.292   0.987 -0.1223 -0.1824 -0.3694
 1581poe    c2310330   5.666   6.225   0.927 -0.2818 -0.4060  0.2065
 1581poe     o210331   5.673   6.208   0.787 -0.1708 -0.1148  0.1776
 1581poe    c3110332   5.554   6.139   0.755 -0.5355  0.4169  0.3678
 1582poe    c3110333   5.328   3.449   0.973  0.3431 -0.0687  0.2558
 1582poe     o210334   5.347   3.465   0.834  0.2743  1.0857  0.3678
 1582poe    c2310335   5.479   3.510   0.818  0.4967  0.2857 -0.0809
 1582poe    c2310336   5.485   3.614   0.704  0.2660  0.1661 -0.2021
 1582poe     o210337   5.357   3.674   0.698  0.1600 -0.0257  0.0817
 1582poe    c2310338   5.348   3.755   0.583  0.4306 -0.1092  0.0000
 1582poe    c2310339   5.203   3.789   0.545  0.4515 -0.5439 -0.4711
 1582poe     o210340   5.117   3.677   0.539 -0.1243 -0.1193 -0.3136
 1582poe    c2310341   4.993   3.722   0.490 -0.0639 -0.0974 -0.4466
 1582poe    c2310342   4.895   3.603   0.495  0.4949 -0.5517 -0.1012
 1582poe     o210343   4.880   3.546   0.623 -0.0161  0.4782  0.3149
 1582poe    c3110344   4.748   3.536   0.673  0.1317 -0.2351  0.5708
 1583poe    c3110345   0.828   2.507   4.581 -0.0516  0.5409 -0.1683
 1583poe     o210346   0.953   2.511   4.515  0.1393  0.1718  0.1694
 1583poe    c2310347   1.044   2.537   4.620 -0.2350  0.7453  0.3613
 1583poe    c2310348   1.186   2.575   4.574 -0.1035  0.3180  0.4114
 1583poe     o210349   1.191   2.692   4.496  0.2626  0.0565  0.0387
 1583poe    c2310350   1.319   2.704   4.439 -0.0634  0.4840 -0.6222
 1583poe    c2310351   1.323   2.853   4.402  0.1456  0.6802  0.1733
 1583poe     o210352   1.211   2.879   4.321  0.4939  0.2189 -0.4644
 1583poe    c2310353   1.205   3.016   4.290 -0.2909  0.1970 -0.4380
 1583poe    c2310354   1.070   3.043   4.220 -0.7264 -0.0106  0.3149
 1583poe     o210355   0.974   2.971   4.294 -0.3660 -0.7085  0.1117
 1583poe    c3110356   0.842   2.994   4.251 -0.2787  0.2154  0.3235
 1584poe    c3110357   2.903   4.172   1.860  0.1550 -0.3373  0.1443
 1584poe     o210358   2.830   4.282   1.812  0.0218 -0.3622  0.2866
 1584poe    c2310359   2.707   4.241   1.756  0.0110  0.2039 -0.1188
 1584poe    c2310360   2.601   4.353   1.748 -0.5829 -0.3035  0.5139
 1584poe     o210361   2.639   4.451   1.655 -0.0880 -0.4912  0.5131
 1584poe    c2310362   2.555   4.564   1.668  0.4880 -0.0480  0.4467
 1584poe    c2310363   2.586   4.670   1.561 -0.1727  0.4879  0.7804
 1584poe     o210364   2.726   4.684   1.554 -0.1726  0.1657  0.0184
 1584poe    c2310365   2.769   4.767   1.448 -0.3884 -0.1980 -0.3549
 1584poe    c2310366   2.922   4.756   1.456 -0.4110 -0.2139  0.1145
 1584poe     o210367   2.950   4.621   1.487  0.0445 -0.0890  0.2637
 1584poe    c3110368   3.089   4.602   1.496  0.0774 -0.0681 -0.1771
 1585poe    c3110369   2.253   2.464   2.317 -0.5978  0.2090  0.0201
 1585poe     o210370   2.174   2.531   2.222 -0.0144  0.2968 -0.4066
 1585poe    c2310371   2.176   2.457   2.102 -0.1735 -0.2974 -0.0481
 1585poe    c2310372   2.077   2.527   2.006  0.4075  0.0925 -0.3691
 1585poe     o210373   1.943   2.512   2.045  0.3058 -0.1692 -0.8049
 1585poe    c2310374   1.855   2.575   1.955 -0.1696  0.9065  0.3708
 1585poe    c2310375   1.705   2.553   1.983 -0.0648  0.0176  0.2620
 1585poe     o210376   1.705   2.570   2.123  0.0366  0.1020  0.2513
 1585poe    c2310377   1.575   2.594   2.171 -0.0622 -0.1360  0.1038
 1585poe    c2310378   1.568   2.611   2.324 -0.1644 -0.2263  0.1092
 1585poe     o210379   1.637   2.495   2.366  0.4962 -0.0370 -0.4289
 1585poe    c3110380   1.664   2.516   2.503 -0.1526 -0.9158 -0.1563
 1586poe    c3110381   5.749   0.810   2.998 -0.5147  0.2863  0.0931
 1586poe     o210382   5.748   0.841   2.860  0.3598  0.7407  0.1830
 1586poe    c2310383   5.823   0.751   2.782 -0.2142 -0.0248  0.4986
 1586poe    c2310384   5.836   0.798   2.636  0.1355  0.3343  0.6431
 1586poe     o210385   5.711   0.822   2.574  0.3996  0.3873  0.1233
 1586poe    c2310386   5.716   0.819   2.433 -0.2820 -0.4012  0.1085
 1586poe    c2310387   5.578   0.829   2.366  0.0318 -0.7071 -0.5861
 1586poe     o210388   5.511   0.932   2.435  0.7920 -0.5583 -0.0663
 1586poe    c2310389   5.378   0.959   2.397  0.9534  0.3258 -0.0181
 1586poe    c2310390   5.310   1.043   2.507  0.2787 -0.1241 -0.0845
 1586poe     o210391   5.336   0.971   2.625  0.0147  0.2280  0.1881
 1586poe    c3110392   5.255   1.038   2.720 -0.0753  0.0286  0.2520
 1587poe    c3110393   0.932   0.932   5.493  0.3627  0.1875 -0.3817
 1587poe     o210394   0.794   0.958   5.499  0.3890  0.2911 -0.1911
 1587poe    c2310395   0.721   0.839   5.477 -0.0281  0.4623  0.2305
 1587poe    c2310396   0.574   0.865   5.513 -0.0426  0.6951  0.0108
 1587poe     o210397   0.574   0.889   5.652  0.0910 -0.2838  0.1909
 1587poe    c2310398   0.447   0.872   5.712  0.0895  0.3266  0.3709
 1587poe    c2310399   0.462   0.817   5.855 -0.3248 -0.0856  0.2585
 1587poe     o210400   0.508   0.926   5.932 -0.3279  0.1134 -0.0226
 1587poe    c2310401   0.571   0.876   6.047 -0.2884  0.0929 -0.0532
 1587poe    c2310402   0.592   0.995   6.142 -0.1361  0.1493 -0.1566
 1587poe     o210403   0.640   1.098   6.059 -0.1725 -0.0143 -0.3812
 1587poe    c3110404   0.684   1.214   6.127 -0.0677 -0.4309  0.2701
 1588poe    c3110405   6.149   4.926   2.786 -0.4246 -0.1405 -0.9476
 1588poe     o210406   6.244   4.830   2.745 -0.0331 -0.0535 -0.2536
 1588poe    c2310407   6.221   4.710   2.815 -0.1263 -0.0708 -0.3143
 1588poe    c2310408   6.339   4.613   2.797  0.0836  0.1873 -0.3336
 1588poe     o210409   6.363   4.578   2.663  0.1066 -0.1484 -0.2437
 1588poe    c2310410   6.482   4.503   2.663  0.1361 -0.1023 -0.1124
 1588poe    c2310411   6.512   4.449   2.522 -0.4031 -0.0600 -0.2450
 1588poe     o210412   6.486   4.553   2.431  0.0858  0.2838  0.0116
 1588poe    c2310413   6.495   4.519   2.295  0.0287  0.0735  0.0601
 1588poe    c2310414   6.508   4.654   2.221  0.0229  0.2082  0.3058
 1588poe     o210415   6.404   4.734   2.274  0.1500  0.3930  0.2767
 1588poe    c3110416   6.364   4.835   2.183  0.1975 -0.2971 -0.5223
 1589poe    c3110417   0.533   0.299   3.729  0.7198  0.2788 -0.1316
 1589poe     o210418   0.559   0.365   3.852  0.2277 -0.4739  0.3820
 1589poe    c2310419   0.458   0.382   3.949  0.4054 -0.2538  0.5276
 1589poe    c2310420   0.542   0.425   4.071 -0.1893  0.3126  0.7418
 1589poe     o210421   0.680   0.433   4.046 -0.2432 -0.2614  0.2489
 1589poe    c2310422   0.740   0.528   4.132  0.0026  0.1454 -0.3639
 1589poe    c2310423   0.894   0.533   4.136 -0.0036 -0.0331  0.1536
 1589poe     o210424   0.948   0.547   4.007  0.2904 -0.0576  0.2749
 1589poe    c2310425   1.086   0.574   4.015  0.3216 -0.2561  0.4092
 1589poe    c2310426   1.129   0.549   3.869 -0.4240  0.0187  0.1396
 1589poe     o210427   1.105   0.414   3.836 -0.0656 -0.0646  0.2179
 1589poe    c3110428   1.172   0.381   3.716 -0.0588 -0.1920  0.2562
 1590poe    c3110429   0.756   6.677   2.779  0.2538  0.6403  0.3631
 1590poe     o210430   0.732   6.714   2.645  0.5309 -0.1166  0.0926
 1590poe    c2310431   0.747   6.603   2.560  0.2442 -0.1937  0.1404
 1590poe    c2310432   0.710   6.647   2.417  0.3045  0.3333  0.2831
 1590poe     o210433   0.809   6.730   2.361  0.3586 -0.2352 -0.4864
 1590poe    c2310434   0.784   6.788   2.235 -0.0328 -0.0259 -0.3155
 1590poe    c2310435   0.903   6.878   2.194 -0.0186 -0.0695 -0.3717
 1590poe     o210436   0.906   6.990   2.280  0.3290 -0.3613  0.0051
 1590poe    c2310437   1.000   7.085   2.236  0.0904 -0.0981  0.0632
 1590poe    c2310438   0.979   7.210   2.324  0.1004  0.1006 -0.2164
 1590poe     o210439   0.984   7.168   2.458  0.1899  0.3795 -0.1324
 1590poe    c3110440   0.996   7.280   2.544  0.3448  0.1843  0.0991
 1591poe    c3110441   5.739   1.207   2.368  0.8230  0.5420  0.2757
 1591poe     o210442   5.659   1.315   2.328  0.5445  0.0157 -0.6108
 1591poe    c2310443   5.559   1.269   2.239  0.0993 -0.1163 -0.0500
 1591poe    c2310444   5.497   1.391   2.169  0.4726 -0.0546 -0.2822
 1591poe     o210445   5.484   1.483   2.276 -0.4849 -0.3526 -0.1325
 1591poe    c2310446   5.395   1.582   2.228 -0.2298  0.0675  0.2616
 1591poe    c2310447   5.383   1.686   2.341  0.0532  0.9675 -0.5288
 1591poe     o210448   5.513   1.724   2.379  0.1629  0.0951 -0.0139
 1591poe    c2310449   5.512   1.850   2.442  0.8431  0.1468 -0.0994
 1591poe    c2310450   5.620   1.870   2.550  0.1668 -0.1010  0.6302
 1591poe     o210451   5.754   1.862   2.506  0.0733 -0.1792  0.3579
 1591poe    c3110452   5.850   1.927   2.587  0.7435  0.0503 -0.6057
 1592poe    c3110453   5.574   2.234   1.695 -0.6622  0.3132 -0.1861
 1592poe     o210454   5.608   2.136   1.791 -0.2098  0.3352 -0.3182
 1592poe    c2310455   5.528   2.136   1.907 -0.0522  0.4767 -0.2079
 1592poe    c2310456   5.594   2.055   2.020 -0.6585  0.0965 -0.1179
 1592poe     o210457   5.625   1.919   1.995 -0.7484 -0.0039  0.3056
 1592poe    c2310458   5.682   1.861   2.110 -0.1977 -0.1391 -0.0331
 1592poe    c2310459   5.772   1.746   2.061 -0.0782  0.1369 -0.4752
 1592poe     o210460   5.700   1.677   1.962 -0.7956 -0.2246  0.2809
 1592poe    c2310461   5.764   1.567   1.902  0.2250  0.5086 -0.0136
 1592poe    c2310462   5.679   1.536   1.777  0.5757 -0.0972 -0.1064
 1592poe     o210463   5.661   1.654   1.703 -0.2086 -0.1485 -0.0134
 1592poe    c3110464   5.608   1.624   1.576 -0.0160  0.0510 -0.1437
 1593poe    c3110465   0.818   4.930   4.150  0.2910  0.0515 -0.2619
 1593poe     o210466   0.710   4.840   4.157  0.0634  0.3445  0.0201
 1593poe    c2310467   0.685   4.766   4.039 -0.2872  0.7574 -0.1694
 1593poe    c2310468   0.571   4.665   4.056  0.2283  0.1402 -0.3569
 1593poe     o210469   0.476   4.729   4.139  0.3298  0.2366 -0.3154
 1593poe    c2310470   0.390   4.629   4.189 -0.5107  0.7619 -0.6977
 1593poe    c2310471   0.297   4.695   4.293 -0.6588  0.0424 -0.3701
 1593poe     o210472   0.364   4.795   4.366 -0.4404 -0.1987 -0.2377
 1593poe    c2310473   0.267   4.858   4.447  0.0346 -0.1597  0.3104
 1593poe    c2310474   0.328   4.967   4.537 -0.3200  0.3719 -0.0799
 1593poe     o210475   0.396   5.054   4.450 -0.3039 -0.0407 -0.4869
 1593poe    c3110476   0.419   5.175   4.519 -0.6071 -0.3040  0.0805
 1594poe    c3110477   4.974   2.436   3.890  0.0374  0.1363  0.5153
 1594poe     o210478   4.848   2.485   3.931 -0.1709  0.1474 -0.1195
 1594poe    c2310479   4.795   2.382   4.011  0.1535 -0.0285 -0.1309
 1594poe    c2310480   4.677   2.416   4.104  0.2782  0.1904 -0.0521
 1594poe     o210481   4.557   2.448   4.038  0.3555  0.2265 -0.1762
 1594poe    c2310482   4.449   2.474   4.125  0.4904  0.1586  0.0125
 1594poe    c2310483   4.323   2.506   4.041  0.1643 -0.6477  0.1911
 1594poe     o210484   4.364   2.612   3.959 -0.1904 -0.3001  0.4589
 1594poe    c2310485   4.258   2.666   3.884  0.3635  0.3206  0.1101
 1594poe    c2310486   4.321   2.753   3.774 -0.0123  0.7508  0.2310
 1594poe     o210487   4.439   2.687   3.732 -0.0290  0.6201  0.3912
 1594poe    c3110488   4.492   2.743   3.614  0.5005 -0.1777  0.2466
 1595poe    c3110489   5.709   1.719   5.059  0.3968 -0.2161  0.7132
 1595poe     o210490   5.587   1.690   4.994  0.7708  0.1996 -0.1856
 1595poe    c2310491   5.602   1.679   4.854  0.0611 -0.3915 -0.2198
 1595poe    c2310492   5.473   1.716   4.778 -0.1346  0.4751  0.5184
 1595poe     o210493   5.367   1.649   4.842 -0.0165 -0.3304 -0.1205
 1595poe    c2310494   5.232   1.678   4.814 -0.0643 -0.6450 -0.2153
 1595poe    c2310495   5.137   1.594   4.902 -0.3769  0.0259  0.0921
 1595poe     o210496   5.189   1.587   5.032  0.5027 -0.4855 -0.2773
 1595poe    c2310497   5.118   1.494   5.111 -0.3484  0.6700  0.3587
 1595poe    c2310498   5.149   1.485   5.262 -0.1325 -0.3570  0.2590
 1595poe     o210499   5.286   1.473   5.294 -0.1352 -0.0233  0.4014
 1595poe    c3110500   5.309   1.487   5.432 -0.1673 -0.1954  0.4237
 1596poe    c3110501   2.860   4.664   3.208 -0.1753 -0.4786  0.2742
 1596poe     o210502   2.805   4.780   3.151  1.2532  0.2815  0.3985
 1596poe    c2310503   2.747   4.859   3.253  0.4921  0.4995 -0.1963
 1596poe    c2310504   2.655   4.962   3.185  0.2708  0.6741  0.3604
 1596poe     o210505   2.739   5.013   3.082 -0.2459 -0.1805 -0.5013
 1596poe    c2310506   2.694   5.132   3.021  0.2114  0.4957  0.4441
 1596poe    c2310507   2.800   5.145   2.910  0.3929 -0.1827  0.5319
 1596poe     o210508   2.805   5.021   2.843 -0.0460  0.0594  0.0418
 1596poe    c2310509   2.873   5.026   2.720 -0.5165  0.1647 -0.2182
 1596poe    c2310510   2.828   4.927   2.611  0.4829  0.0205 -0.5128
 1596poe     o210511   2.855   4.797   2.658  0.3057  0.2855  0.3564
 1596poe    c3110512   2.805   4.697   2.572  0.3803  0.0630  0.5703
 1597poe    c3110513   3.625   6.034   0.348 -0.1651 -0.4544 -0.3897
 1597poe     o210514   3.700   6.150   0.320 -0.6651 -0.0980 -0.2703
 1597poe    c2310515   3.831   6.122   0.276 -0.3953  0.2541  0.3026
 1597poe    c2310516   3.891   6.250   0.213 -0.0830 -0.2084 -0.3593
 1597poe     o210517   3.923   6.349   0.308  0.0324 -0.5287 -0.0631
 1597poe    c2310518   3.993   6.454   0.245  0.6294 -0.6250  0.4288
 1597poe    c2310519   4.043   6.541   0.362 -0.1683 -0.0268  0.3236
 1597poe     o210520   3.937   6.556   0.454 -0.5509 -0.1199 -0.0961
 1597poe    c2310521   3.967   6.649   0.556  0.5302 -0.3431 -0.2029
 1597poe    c2310522   3.833   6.687   0.622  0.9677  0.1221  0.4300
 1597poe     o210523   3.783   6.569   0.680  0.3122  0.2937  0.2139
 1597poe    c3110524   3.663   6.594   0.751  0.2019  1.0110 -0.2085
 1598poe    c3110525   0.136   3.534   2.870 -0.0097  0.1669 -0.4943
 1598poe     o210526   0.158   3.644   2.955 -0.3744 -0.0390 -0.1302
 1598poe    c2310527   0.084   3.634   3.075 -0.4273  0.0157 -0.1582
 1598poe    c2310528   0.074   3.773   3.141  0.3591  0.1531 -0.3210
 1598poe     o210529   0.008   3.856   3.048  0.1659  0.3645  0.0048
 1598poe    c2310530  -0.006   3.985   3.104 -0.7793  0.1357  0.3144
 1598poe    c2310531  -0.080   4.077   3.004 -0.2402  0.3479  0.1019
 1598poe     o210532  -0.030   4.086   2.873  0.0433  0.0431  0.1878
 1598poe    c2310533  -0.058   4.207   2.806  0.8102  0.2117  0.1585
 1598poe    c2310534  -0.005   4.205   2.661  0.1022 -0.4346 -0.1004
 1598poe     o210535  -0.070   4.109   2.580 -0.1128 -0.2718 -0.1202
 1598poe    c3110536  -0.003   4.081   2.459 -0.0834  0.4685 -0.2803
 1599poe    c3110537   1.747   2.407   1.427  0.0690  0.5334  0.4417
 1599poe     o210538   1.606   2.411   1.430  0.0464 -0.0194  0.3602
 1599poe    c2310539   1.544   2.310   1.354 -0.2706  0.1169  0.4372
 1599poe    c2310540   1.394   2.345   1.343 -0.2047  0.1712 -0.3277
 1599poe     o210541   1.339   2.356   1.473  0.4623  0.6365 -0.0763
 1599poe    c2310542   1.202   2.384   1.455  0.3328 -0.1114 -0.2919
 1599poe    c2310543   1.149   2.433   1.591  0.0748 -0.3488 -0.3048
 1599poe     o210544   1.215   2.351   1.685  0.0066 -0.4755 -0.3674
 1599poe    c2310545   1.187   2.389   1.818  0.4527 -0.4138 -0.2907
 1599poe    c2310546   1.274   2.302   1.910  0.3146  0.2583  0.4903
 1599poe     o210547   1.405   2.294   1.858  0.1349  0.2489  0.0320
 1599poe    c3110548   1.480   2.215   1.948 -0.1086 -0.2770 -0.2264
 1600poe    c3110549   1.703   3.758   0.922 -0.2784  0.1868  0.6271
 1600poe     o210550   1.840   3.762   0.958 -0.1088  0.3367 -0.0255
 1600poe    c2310551   1.916   3.656   0.905 -0.2885  0.2307 -0.0745
 1600poe    c2310552   2.068   3.676   0.921 -0.2771  0.0642  0.0265
 1600poe     o210553   2.103   3.690   1.056  0.6911  0.2811 -0.2368
 1600poe    c2310554   2.240   3.667   1.086  0.5989  0.1371  0.0865
 1600poe    c2310555   2.249   3.561   1.197  0.7727  0.1400  0.0753
 1600poe     o210556   2.158   3.605   1.296  0.5616  0.3002 -0.1878
 1600poe    c2310557   2.167   3.538   1.420  0.3025  0.1927 -0.2258
 1600poe    c2310558   2.074   3.606   1.521 -0.2034 -0.5174 -0.2051
 1600poe     o210559   1.959   3.634   1.445 -0.1155 -0.2083 -0.2285
 1600poe    c3110560   1.849   3.654   1.531  0.0370  0.2416 -0.1399
 1601poe    c3110561   3.296   3.084   2.220  0.8485  0.2422  0.3576
 1601poe     o210562   3.236   3.129   2.339 -0.5312 -0.0191 -0.2162
 1601poe    c2310563   3.177   3.256   2.328 -0.1490  0.1871  0.0963
 1601poe    c2310564   3.106   3.301   2.457 -0.3067 -0.6531  0.3050
 1601poe     o210565   3.177   3.336   2.573 -0.2790  0.9156 -0.1660
 1601poe    c2310566   3.083   3.326   2.677 -0.3158 -0.5747 -0.3231
 1601poe    c2310567   3.160   3.300   2.807 -0.2309  0.0836 -0.2367
 1601poe     o210568   3.252   3.193   2.794 -0.1153  0.1362  0.1305
 1601poe    c2310569   3.285   3.130   2.916 -0.5428 -0.2605  0.0396
 1601poe    c2310570   3.393   3.022   2.895 -0.0903  0.2251 -0.1389
 1601poe     o210571   3.396   2.982   2.760 -0.0138  0.3388 -0.1715
 1601poe    c3110572   3.482   2.870   2.759 -0.5770 -0.0991 -0.1832
 1602poe    c3110573   1.832   6.090   5.970  0.0505  0.2143 -0.6516
 1602poe     o210574   1.835   6.077   5.829  0.1257  0.2640 -0.6545
 1602poe    c2310575   1.703   6.068   5.781 -0.1924  0.2260  0.1988
 1602poe    c2310576   1.702   5.988   5.649 -0.3362  0.0350  0.3160
 1602poe     o210577   1.770   6.060   5.549 -0.1044  0.0436  0.4802
 1602poe    c2310578   1.740   6.011   5.420 -0.1991  0.1455  0.4638
 1602poe    c2310579   1.759   6.119   5.312  0.6425 -0.4081  0.0470
 1602poe     o210580   1.859   6.204   5.362 -0.0283  0.2264  0.3221
 1602poe    c2310581   1.899   6.292   5.259  0.2839 -0.1131  0.1529
 1602poe    c2310582   2.005   6.385   5.321  0.3045 -0.0733  0.0584
 1602poe     o210583   2.095   6.309   5.399  0.2415 -0.2025  0.0052
 1602poe    c3110584   2.228   6.304   5.353  0.0701  0.0957 -0.5356
 1603poe    c3110585   6.358   4.344   3.363  0.0306 -0.1122 -0.1863
 1603poe     o210586   6.442   4.419   3.278 -0.3907  0.3464 -0.2033
 1603poe    c2310587   6.570   4.367   3.253 -0.4662  0.2461 -0.3806
 1603poe    c2310588   6.624   4.431   3.124  0.3429 -0.2795 -0.3128
 1603poe     o210589   6.620   4.571   3.129  0.2584 -0.2914 -0.0337
 1603poe    c2310590   6.703   4.625   3.028 -0.0983 -0.4410 -0.4101
 1603poe    c2310591   6.710   4.779   3.035 -0.2415 -0.4590  0.2057
 1603poe     o210592   6.577   4.827   3.043 -0.1052  0.0194 -0.3270
 1603poe    c2310593   6.561   4.965   3.025  0.5139  0.1044 -0.2450
 1603poe    c2310594   6.415   4.988   3.069  0.3756 -0.7180 -0.2732
 1603poe     o210595   6.390   4.910   3.184 -0.0581 -0.2763 -0.0688
 1603poe    c3110596   6.291   4.964   3.269  0.0795 -0.4189  0.1822
 1604poe    c3110597   2.621   2.578   2.307  0.4140 -0.2226  0.7261
 1604poe     o210598   2.687   2.702   2.318 -0.2920  0.2641 -0.3710
 1604poe    c2310599   2.597   2.810   2.329 -0.4401  0.1294 -0.2665
 1604poe    c2310600   2.685   2.929   2.374  0.3545 -0.3156 -0.6195
 1604poe     o210601   2.755   2.886   2.488 -0.2868  0.2955  0.0165
 1604poe    c2310602   2.851   2.973   2.545  0.1933 -0.0050 -0.3201
 1604poe    c2310603   2.873   2.925   2.690 -0.2025 -0.0510 -0.2726
 1604poe     o210604   2.909   2.789   2.705  0.3045  0.0946 -0.1537
 1604poe    c2310605   2.960   2.772   2.835  0.0103 -0.2713 -0.0851
 1604poe    c2310606   3.044   2.644   2.847  0.2098 -0.0946  0.4622
 1604poe     o210607   2.967   2.527   2.831 -0.1307  0.1476  0.3491
 1604poe    c3110608   3.025   2.406   2.870 -0.6343 -0.3309 -0.3508
 1605poe    c3110609   2.796   2.933   6.563  0.4081  0.0736  0.2592
 1605poe     o210610   2.827   3.062   6.517  0.1923 -0.1089 -0.4046
 1605poe    c2310611   2.888   3.147   6.611 -0.0527 -0.1684 -0.1909
 1605poe    c2310612   2.899   3.293   6.563 -0.4130 -0.0103  0.1987
 1605poe     o210613   2.927   3.277   6.426 -0.5321  0.6974  0.0861
 1605poe    c2310614   2.906   3.401   6.363 -0.6959  0.3748 -0.5062
 1605poe    c2310615   2.911   3.389   6.209  0.5497 -0.4180 -0.4132
 1605poe     o210616   2.824   3.286   6.169  0.3869 -0.4910  0.1125
 1605poe    c2310617   2.804   3.282   6.029  0.0712 -0.0587  0.1423
 1605poe    c2310618   2.714   3.160   6.000  0.5399 -0.4950  0.4998
 1605poe     o210619   2.790   3.041   5.999  0.7354 -0.3686 -0.0920
 1605poe    c3110620   2.712   2.924   6.015 -0.1046  0.2155  0.1736
 1606poe    c3110621   1.954   2.632   0.324 -0.3024 -0.0250 -0.0649
 1606poe     o210622   1.996   2.741   0.402 -0.1259  0.0351 -0.2449
 1606poe    c2310623   2.129   2.771   0.366  0.2955 -0.3875  0.9062
 1606poe    c2310624   2.192   2.905   0.408  0.2332 -0.0072 -0.1760
 1606poe     o210625   2.321   2.932   0.356 -0.0977  0.4173 -0.7814
 1606poe    c2310626   2.347   3.070   0.372  0.0207  0.2812  0.2320
 1606poe    c2310627   2.456   3.130   0.281 -0.1041  0.3297  0.1158
 1606poe     o210628   2.423   3.139   0.145 -0.1054 -0.4635  0.0635
 1606poe    c2310629   2.530   3.164   0.057 -0.2722  0.2627  0.0659
 1606poe    c2310630   2.505   3.122  -0.089 -0.8417 -0.2856  0.3178
 1606poe     o210631   2.412   3.199  -0.163 -0.9235 -0.5577  0.1343
 1606poe    c3110632   2.402   3.128  -0.284  0.1077 -0.3590 -0.0824
 1607poe    c3110633   0.159   0.042   6.399  0.4116 -0.4073 -0.0991
 1607poe     o210634   0.128  -0.044   6.293 -0.3463 -0.1755 -0.0757
 1607poe    c2310635   0.014  -0.122   6.321 -0.3744 -0.0513  0.1557
 1607poe    c2310636  -0.022  -0.218   6.206 -0.2761 -0.2361  0.2790
 1607poe     o210637  -0.083  -0.154   6.096 -0.6614 -0.0967  0.5726
 1607poe    c2310638  -0.167  -0.234   6.016 -0.0341 -0.1922 -0.0039
 1607poe    c2310639  -0.207  -0.143   5.899 -0.0703  0.4222  0.4830
 1607poe     o210640  -0.119  -0.033   5.887  0.0015  0.3267  0.1163
 1607poe    c2310641  -0.143   0.069   5.793 -0.5105  0.3506  0.2726
 1607poe    c2310642  -0.030   0.170   5.821 -0.2568  0.1510 -0.0369
 1607poe     o210643   0.094   0.102   5.823 -0.4452 -0.1903  0.2513
 1607poe    c3110644   0.193   0.171   5.749 -0.1729 -0.0027  0.7843
 1608poe    c3110645   3.621   0.425   1.435  0.0944  0.1151  0.4364
 1608poe     o210646   3.568   0.418   1.305 -0.5211  0.0740  0.6874
 1608poe    c2310647   3.577   0.540   1.234  0.5008 -0.6349 -0.4447
 1608poe    c2310648   3.496   0.525   1.103 -0.6598  0.1494  0.1671
 1608poe     o210649   3.494   0.385   1.090  0.1284  0.1685 -0.2026
 1608poe    c2310650   3.395   0.360   0.994 -0.5452  0.6406  0.3627
 1608poe    c2310651   3.392   0.207   0.976  1.1073  0.6266  0.0713
 1608poe     o210652   3.385   0.150   1.104  0.2049 -0.2442 -0.3477
 1608poe    c2310653   3.334   0.018   1.102 -0.7472  0.1269 -0.6998
 1608poe    c2310654   3.291  -0.030   1.242 -0.1263 -0.3124 -0.6598
 1608poe     o210655   3.393  -0.049   1.338 -0.3058  0.7849 -0.2432
 1608poe    c3110656   3.341  -0.096   1.461 -0.2231  0.2513 -0.4108
 1609poe    c3110657   3.810   6.584   5.927 -0.0316  0.1966  0.4943
 1609poe     o210658   3.950   6.605   5.922  0.0633 -0.5044  0.0646
 1609poe    c2310659   3.998   6.578   5.793  0.0607  0.2316 -0.0967
 1609poe    c2310660   4.092   6.683   5.731  0.5600 -0.2436 -0.1555
 1609poe     o210661   4.220   6.697   5.788  0.4119  0.1957  0.0706
 1609poe    c2310662   4.282   6.814   5.739 -0.1670  0.3356 -0.3335
 1609poe    c2310663   4.432   6.782   5.756 -0.2897 -0.4313 -0.6521
 1609poe     o210664   4.442   6.767   5.895  0.6062  0.0462 -0.6610
 1609poe    c2310665   4.570   6.712   5.918  0.5139 -0.0735 -0.4274
 1609poe    c2310666   4.575   6.702   6.072  0.2652 -0.3038 -0.4346
 1609poe     o210667   4.450   6.651   6.111  0.2876 -0.0039  0.0275
 1609poe    c3110668   4.439   6.634   6.251  0.1296 -0.2863 -0.0195
 1610poe    c3110669   2.924   2.172   3.240  0.1072  0.7929  0.0659
 1610poe     o210670   3.052   2.118   3.215 -0.0658  0.6781 -0.5810
 1610poe    c2310671   3.147   2.222   3.208  0.1425  0.5497  0.2499
 1610poe    c2310672   3.293   2.179   3.230  0.0571  0.0508 -0.1578
 1610poe     o210673   3.318   2.127   3.359  0.3207 -0.1188 -0.2750
 1610poe    c2310674   3.455   2.095   3.364  0.1984 -0.7578 -0.7854
 1610poe    c2310675   3.493   2.052   3.507 -0.7866  0.2418 -0.2061
 1610poe     o210676   3.497   2.168   3.587  0.2530  0.0641  0.0145
 1610poe    c2310677   3.473   2.140   3.724  0.3782 -0.4649 -0.0699
 1610poe    c2310678   3.476   2.259   3.822  0.1384 -0.2010 -0.3822
 1610poe     o210679   3.390   2.363   3.778  0.1497  0.0197  0.1163
 1610poe    c3110680   3.422   2.480   3.850  0.0383 -0.1448  0.4366
 1611poe    c3110681   1.817   6.873   4.308 -0.0768 -0.2742 -0.2964
 1611poe     o210682   1.896   6.953   4.223 -0.1898  0.2235  0.0646
 1611poe    c2310683   1.938   7.070   4.290  0.7031  0.1396 -0.3424
 1611poe    c2310684   1.978   7.175   4.185 -0.0127  0.1240 -0.6346
 1611poe     o210685   1.866   7.214   4.110 -0.4540  0.2480  0.0786
 1611poe    c2310686   1.867   7.352   4.082 -0.2866  0.2522  0.1077
 1611poe    c2310687   1.752   7.386   3.985  0.1507 -0.0702 -0.5337
 1611poe     o210688   1.762   7.301   3.873 -0.0750 -0.3300 -0.3586
 1611poe    c2310689   1.648   7.311   3.791 -0.4872  0.2074  0.2689
 1611poe    c2310690   1.694   7.219   3.676  0.1501 -0.3905  0.9931
 1611poe     o210691   1.747   7.099   3.728  0.7545 -0.4382  0.2943
 1611poe    c3110692   1.748   6.994   3.634  0.4508 -0.3253  0.1619
 1612poe    c3110693   5.190   0.561   3.213 -0.2759  0.9929 -0.0361
 1612poe     o210694   5.296   0.649   3.243  0.3094  0.4164 -0.3891
 1612poe    c2310695   5.421   0.584   3.233  0.0749 -0.1529  0.3330
 1612poe    c2310696   5.524   0.677   3.299 -0.1471  0.1530  0.2515
 1612poe     o210697   5.494   0.810   3.263 -0.1679  0.0587 -0.0820
 1612poe    c2310698   5.544   0.901   3.358 -0.4215 -0.0616  0.1681
 1612poe    c2310699   5.481   1.037   3.321 -0.2650  0.1110  0.5309
 1612poe     o210700   5.352   1.001   3.277  0.2671 -0.3498 -0.6910
 1612poe    c2310701   5.314   1.093   3.177 -0.0090 -0.0347 -0.2979
 1612poe    c2310702   5.166   1.065   3.146 -0.2273  0.5445  0.1977
 1612poe     o210703   5.166   0.927   3.119 -0.7526  0.4846  0.4966
 1612poe    c3110704   5.035   0.883   3.090 -0.2443 -0.5527 -0.2646
 1613poe    c3110705   4.126   1.051   1.455  0.0512  0.1441 -0.0061
 1613poe     o210706   4.181   1.030   1.583  0.4261  0.0611 -0.1802
 1613poe    c2310707   4.107   0.929   1.648  0.4119  0.1256 -0.0977
 1613poe    c2310708   4.156   0.932   1.794 -0.2976  0.2105  0.1434
 1613poe     o210709   4.297   0.932   1.788 -0.3237  0.1366 -0.5008
 1613poe    c2310710   4.374   0.933   1.905 -0.2475  0.1282 -0.5507
 1613poe    c2310711   4.521   0.920   1.861  0.1020 -0.1186  0.6393
 1613poe     o210712   4.544   0.988   1.739 -0.5357 -0.4899  0.3085
 1613poe    c2310713   4.683   0.983   1.714 -0.5998 -0.2098 -0.1076
 1613poe    c2310714   4.712   1.056   1.582 -0.1296 -0.1824  0.0098
 1613poe     o210715   4.668   0.988   1.466 -0.0876 -0.3275  0.0792
 1613poe    c3110716   4.693   1.065   1.351 -0.2613 -0.1146  0.1834
 1614poe    c3110717   6.174   4.756   3.891  0.5867 -0.4071  0.2887
 1614poe     o210718   6.180   4.812   3.762  0.0833  0.2280  0.5396
 1614poe    c2310719   6.178   4.729   3.649  0.0491  0.5971  0.2656
 1614poe    c2310720   6.294   4.627   3.634 -0.3171  0.2657 -0.3803
 1614poe     o210721   6.421   4.679   3.605 -0.1879  0.2596  0.1638
 1614poe    c2310722   6.516   4.626   3.695  0.3090  0.7961 -0.0335
 1614poe    c2310723   6.626   4.534   3.639 -0.0371  0.4498 -0.1519
 1614poe     o210724   6.729   4.590   3.561  0.3267  0.0486  0.0295
 1614poe    c2310725   6.838   4.654   3.623 -0.0126  0.7718 -0.1086
 1614poe    c2310726   6.930   4.716   3.517  0.3771  0.1011 -0.1664
 1614poe     o210727   6.848   4.806   3.446 -0.3922 -0.6340 -0.2135
 1614poe    c3110728   6.923   4.890   3.362 -0.3452 -0.4842 -0.0231
 1615poe    c3110729   2.406   0.397   2.690 -0.3129  0.3150 -0.2583
 1615poe     o210730   2.465   0.273   2.660  0.0239  0.3109  0.3991
 1615poe    c2310731   2.593   0.255   2.716  0.1274 -0.3338 -0.0279
 1615poe    c2310732   2.642   0.115   2.675  0.3289 -0.1495 -0.4289
 1615poe     o210733   2.532   0.031   2.706  0.2539  0.0020 -0.2838
 1615poe    c2310734   2.580  -0.101   2.694 -0.1894 -0.1568 -0.3012
 1615poe    c2310735   2.462  -0.199   2.707  0.0970 -0.5533 -0.6982
 1615poe     o210736   2.361  -0.161   2.616  0.1216 -0.2092 -0.5807
 1615poe    c2310737   2.294  -0.265   2.549 -0.2465 -0.0641 -0.4391
 1615poe    c2310738   2.171  -0.204   2.479 -0.6342 -0.3015  0.0231
 1615poe     o210739   2.085  -0.122   2.554 -0.3169 -0.1525  0.2245
 1615poe    c3110740   1.957  -0.118   2.495 -0.3500 -0.7093  0.2534
 1616poe    c3110741   2.637   1.854   2.542  0.2826  0.1749 -0.6815
 1616poe     o210742   2.762   1.913   2.572  0.0923  0.1738  0.1502
 1616poe    c2310743   2.793   2.020   2.486  0.1989 -0.3649 -0.4941
 1616poe    c2310744   2.903   2.107   2.550 -0.4895  0.2645 -0.1453
 1616poe     o210745   3.014   2.026   2.584 -0.0006  0.5939 -0.9328
 1616poe    c2310746   3.124   2.104   2.626  0.2178 -0.6396  0.8932
 1616poe    c2310747   3.245   2.010   2.609  0.4096 -0.2296 -0.0612
 1616poe     o210748   3.221   1.890   2.680 -0.1450 -0.0209  0.1134
 1616poe    c2310749   3.331   1.803   2.673 -0.1060  0.0270  0.1294
 1616poe    c2310750   3.324   1.729   2.538  0.3971  0.2632 -0.0300
 1616poe     o210751   3.203   1.659   2.523  0.1915  0.4183  0.8304
 1616poe    c3110752   3.225   1.583   2.405 -0.7299  0.3289  0.7056
 1617poe    c3110753   1.664   1.099   0.141  0.4117  0.1020  0.4654
 1617poe     o210754   1.653   0.979   0.068  0.0187  0.0538  0.6055
 1617poe    c2310755   1.529   0.911   0.074  0.0757 -0.1120 -0.0709
 1617poe    c2310756   1.535   0.790  -0.021  0.2336  0.1181 -0.3564
 1617poe     o210757   1.548   0.831  -0.155  0.5391  0.1976 -0.3017
 1617poe    c2310758   1.489   0.736  -0.241  0.1793 -0.4190  0.6215
 1617poe    c2310759   1.492   0.786  -0.386  0.1881  0.2110  0.8329
 1617poe     o210760   1.439   0.916  -0.394 -0.0018  0.1006  0.1536
 1617poe    c2310761   1.420   0.960  -0.526  0.3950  0.2943  0.1576
 1617poe    c2310762   1.374   1.107  -0.519  0.1293  0.2204 -0.0257
 1617poe     o210763   1.430   1.173  -0.408  0.4000 -0.1701  0.0683
 1617poe    c3110764   1.417   1.312  -0.422 -0.3302 -0.2470 -0.0596
 1618poe    c3110765   0.690   5.873   2.088 -0.6013  0.3001  0.2598
 1618poe     o210766   0.801   5.797   2.132 -0.4027  0.1106 -0.5463
 1618poe    c2310767   0.782   5.658   2.131  0.0203  0.0281  0.6519
 1618poe    c2310768   0.880   5.583   2.223  0.3450 -0.5403 -0.1450
 1618poe     o210769   0.853   5.617   2.357 -0.4264  0.0307 -0.4364
 1618poe    c2310770   0.948   5.562   2.446 -0.6655  0.4116  0.0591
 1618poe    c2310771   0.920   5.601   2.592 -0.0578 -0.2084  0.3461
 1618poe     o210772   0.901   5.740   2.603  0.1053 -0.1279 -0.3544
 1618poe    c2310773   0.890   5.766   2.741  0.7631 -0.2775 -0.2719
 1618poe    c2310774   0.886   5.919   2.761 -0.0711 -0.3587  0.2175
 1618poe     o210775   0.819   5.983   2.654 -0.3080 -0.1287  0.5028
 1618poe    c3110776   0.809   6.122   2.679  0.3395  0.1486 -0.6843
 1619poe    c3110777   4.485   4.229   2.994  0.3656  0.3196  0.5850
 1619poe     o210778   4.437   4.269   3.121 -0.2510  0.0233  0.4495
 1619poe    c2310779   4.549   4.263   3.206 -0.0973  0.1864  0.2606
 1619poe    c2310780   4.505   4.262   3.353  0.0918 -0.2667  0.3164
 1619poe     o210781   4.436   4.378   3.392  0.2814  0.0022 -0.1454
 1619poe    c2310782   4.378   4.358   3.519  0.2159 -0.1571 -0.1997
 1619poe    c2310783   4.327   4.498   3.557 -0.0279 -0.1690 -0.4888
 1619poe     o210784   4.231   4.540   3.461 -0.4803 -0.5573 -0.2089
 1619poe    c2310785   4.187   4.666   3.506 -0.0442 -0.4397 -0.1042
 1619poe    c2310786   4.092   4.722   3.399 -0.1602 -0.4870 -0.0258
 1619poe     o210787   4.147   4.684   3.275  0.5694  0.5469 -0.0293
 1619poe    c3110788   4.073   4.734   3.166 -0.1752  0.2876  0.3526
 1620poe    c3110789   6.703   0.349   3.344 -0.3876 -0.2013  0.0331
 1620poe     o210790   6.710   0.414   3.219 -0.1116  0.0637  0.1862
 1620poe    c2310791   6.603   0.501   3.193  0.4689  0.7101 -0.0772
 1620poe    c2310792   6.600   0.500   3.039 -0.3539  0.2699 -0.0648
 1620poe     o210793   6.735   0.503   2.999 -0.2348 -0.3487  0.2832
 1620poe    c2310794   6.754   0.496   2.860 -0.4393 -0.0439  0.2393
 1620poe    c2310795   6.904   0.464   2.847 -0.4635 -0.1697  0.2668
 1620poe     o210796   6.928   0.361   2.941 -0.0426  0.3394  0.7204
 1620poe    c2310797   7.067   0.338   2.942 -0.0005  0.5109 -0.2914
 1620poe    c2310798   7.065   0.247   3.066 -0.3773  0.1056 -0.5899
 1620poe     o210799   6.989   0.306   3.169  0.2419 -0.1835  0.0418
 1620poe    c3110800   7.035   0.282   3.300  0.2614  0.2202  0.1112
 1621lim     li10801   0.470   4.822   2.028  0.0128 -0.0065  0.1709
 1622lim     li10802   5.153   2.327   3.373 -0.5292  0.5818  0.5185
 1623lim     li10803   5.362   3.765   5.465  0.0951  0.3251 -0.1587
 1624lim     li10804   1.763   3.005   0.128 -0.1411 -0.8331 -1.2914
 1625lim     li10805   4.793   6.057   5.786 -0.4209 -0.3834 -0.0935
 1626lim     li10806   4.019   2.151   3.731 -0.1090  0.3073 -0.4980
 1627lim     li10807   1.805   5.429   3.074 -0.5082 -0.4821 -0.6580
 1628lim     li10808   5.971   3.922   2.462 -0.2034 -0.3414 -0.1004
 1629lim     li10809   3.963   1.661   0.784  0.7000  0.3300  0.3155
 1630lim     li10810   3.647   3.756   2.332  1.1461 -0.1333 -0.2456
 1631lim     li10811   6.574   3.523   4.754  0.4668  0.3535  0.1429
 1632lim     li10812   3.151   6.073   3.887 -0.4175  0.8248  0.0161
 1633lim     li10813   5.251   5.153   3.413 -0.2107 -0.8894  0.2497
 1634lim     li10814   1.230   6.898   5.711  0.9073  0.5947 -0.2957
 1635lim     li10815   4.621   4.457   3.994 -0.8114 -0.2142  0.0671
 1636lim     li10816   4.281   1.452   6.648  0.6794 -0.2240 -0.7988
 1637lim     li10817   0.182   1.021   6.536  0.1898  0.0721  0.7053
 1638lim     li10818   6.422   5.078   4.628 -0.7439  0.5006 -0.8851
 1639lim     li10819   5.899   0.683   5.196 -0.2085 -0.3355  1.2305
 1640lim     li10820   0.858   0.431   1.418  0.5425 -0.0646 -0.8352
 1641lim     li10821   2.496   1.431   2.274 -0.3160 -0.2420 -0.5683
 1642lim     li10822   5.410   0.731   6.493 -0.3485  0.5871 -0.0256
 1643lim     li10823   1.264   1.404   5.694 -0.7457  0.3528 -0.8645
 1644lim     li10824   3.551   2.238   0.439 -0.3227  0.4201 -1.2092
 1645lim     li10825   6.253   1.334   1.484  0.0630 -0.7870 -0.0540
 1646lim     li10826   1.747   4.341   5.118 -0.6072  0.1661 -0.2519
 1647lim     li10827   1.149   2.908   3.320  0.1294  0.5421  0.3754
 1648lim     li10828   3.549   5.363   1.912  0.5375 -0.7888  1.1441
 1649lim     li10829   4.915   1.658   2.635 -1.6153  1.8209 -0.9287
 1650lim     li10830   0.914   4.350   6.534  0.0022  1.0938 -0.3770
 1651lim     li10831   2.910   5.978   5.698 -0.9351  1.2538  0.2407
 1652lim     li10832   0.158   5.317   0.764  0.0864 -0.4030 -0.4321
 1653lim     li10833   0.541   4.850   4.263 -0.1109 -0.1577  0.1338
 1654lim     li10834   5.959   6.886   0.528  1.1373  0.6461  0.1575
 1655lim     li10835   3.424   3.097   3.704 -0.5563 -0.1300 -0.3644
 1656lim     li10836   4.770   3.383   5.947 -0.6175  0.5964 -0.8622
 1657lim     li10837   3.541   1.961   2.204  0.8852 -0.5348  0.2236
 1658lim     li10838   6.725   1.970   4.097  0.7398  1.0597 -0.3783
 1659lim     li10839   2.332   5.436   4.766  0.0366  0.0761  0.9744
 1660lim     li10840   2.252   2.814   3.904  0.0485  0.4685 -0.7403
 1661lim     li10841   2.688   4.873   4.075 -1.2308 -0.2769 -0.0449
 1662lim     li10842   1.427   4.814   1.049  0.1550  0.2924  0.9040
 1663lim     li10843   6.041   5.836   5.821  1.0315 -0.2390  0.5881
 1664lim     li10844   1.618   5.651   0.720  0.4784  0.2453  0.5843
 1665lim     li10845   6.427   6.404   4.011 -0.7539  0.8926  0.5805
 1666lim     li10846   4.731   6.697   2.127  0.1039 -0.0526  0.7985
 1667lim     li10847   3.350   0.908   2.325  0.4264 -0.3398 -0.5456
 1668lim     li10848   1.458   1.042   6.657 -0.6117  0.4356 -0.7129
 1669lim     li10849   3.289   5.836   2.040  0.9668  0.1728 -0.9145
 1670lim     li10850   4.504   5.516   6.456 -1.0333  0.2609 -0.0186
 1671lim     li10851   0.571   3.829   4.429 -0.3130 -0.6192 -0.8604
 1672lim     li10852   6.472   1.938   5.734  1.2066 -1.2092  0.0310
 1673lim     li10853   5.333   5.803   4.087  0.7668  0.4081 -0.0710
 1674lim     li10854   1.530   3.920   3.999  1.1349 -0.7522 -0.8726
 1675lim     li10855   6.415   2.188   2.448 -0.4738 -0.6282  0.3647
 1676lim     li10856   2.166   4.462   1.282 -1.2733 -0.5242 -0.8140
 1677lim     li10857   5.365   5.318   4.434  1.0207  0.5285  0.2137
 1678lim     li10858   2.526   0.995   2.587 -0.2854 -0.9093 -0.2508
 1679lim     li10859   1.519   5.959   2.574  0.4238  0.6129  1.5398
 1680lim     li10860   6.218   4.993   3.755  0.6194 -0.0868  0.7790
 1681lim     li10861   5.498   2.686   2.304 -0.4238  0.6188  0.0584
 1682lim     li10862   1.679   0.592   5.880 -0.9585  0.1724 -0.1478
 1683lim     li10863   1.584   3.074   2.847 -1.2041  0.1365 -0.2324
 1684lim     li10864   0.484   1.385   0.584 -0.3011  0.3861 -0.2466
 1685lim     li10865   5.614   5.034   6.444 -0.2512 -0.5175  1.4110
 1686lim     li10866   3.986   4.857   0.003  0.0908  1.1163 -1.1154
 1687lim     li10867   2.758   6.799   4.225  0.2516  0.4479 -0.3830
 1688lim     li10868   4.394   4.038   0.902 -0.1738 -1.0725 -0.4188
 1689lim     li10869   0.294   6.878   2.420 -0.1147  0.9158  1.1813
 1690lim     li10870   2.749   1.394   1.528  0.2205  1.0523  0.4357
 1691lim     li10871   2.930   1.698   5.775  0.0625 -0.3110 -0.6096
 1692lim     li10872   5.986   5.882   6.896 -0.7633  0.4313  0.6956
 1693lim     li10873   5.994   1.889   4.008  0.5776 -0.6883 -0.4669
 1694lim     li10874   5.640   1.493   2.365  0.1256 -0.1958 -0.2640
 1695lim     li10875   6.763   5.312   5.952 -0.8254 -0.0519  0.2070
 1696lim     li10876   0.636   6.511   3.423  0.3642  0.0832 -0.0037
 1697lim     li10877   4.705   3.393   2.429 -0.6678 -0.4242  0.0484
 1698lim     li10878   0.048   1.852   2.022  1.0355 -0.1393 -0.0522
 1699lim     li10879   4.520   0.825   6.248 -0.9441 -0.1776  1.0332
 1700lim     li10880   4.200   1.866   2.839 -0.2178 -0.4480  0.1204
 1701lim     li10881   0.746   2.191   6.409  0.3780  0.0148  0.6437
 1702lim     li10882   5.447   4.574   4.951  0.5315 -0.0594 -0.4874
 1703lim     li10883   5.445   0.810   5.750  0.2709 -1.3595  0.5148
 1704lim     li10884   1.527   3.447   2.191 -0.5229 -1.3897 -0.4235
 1705lim     li10885   0.357   5.343   6.897  0.8911  0.9293  0.3804
 1706lim     li10886   0.056   0.764   4.386  1.0509  1.1320 -0.5282
 1707lim     li10887   0.636   5.770   1.036  0.3320  0.7107  0.3343
 1708lim     li10888   2.281   4.169   3.213  0.4626 -0.1986 -0.5914
 1709lim     li10889   6.890   5.666   4.208 -0.6874 -1.1295  0.1658
 1710lim     li10890   0.124   5.549   2.154 -1.3318 -0.0066 -0.1138
 1711lim     li10891   6.618   1.745   0.197  0.2571  0.8566  0.4554
 1712lim     li10892   0.135   3.389   1.019 -0.0103  0.3319  1.0242
 1713lim     li10893   2.844   3.365   5.022 -0.0575 -0.0503  0.3725
 1714lim     li10894   2.425   3.834   6.776  0.2637  0.4934 -0.8519
 1715lim     li10895   3.063   3.498   3.122  0.6216 -0.6093  0.1143
 1716lim     li10896   1.726   0.766   1.110  0.5245 -0.6221 -0.2699
 1717lim     li10897   0.522   6.745   1.079 -1.3428 -0.1247  0.5807
 1718lim     li10898   6.524   4.097   0.928 -0.2895 -0.2600  0.1090
 1719lim     li10899   0.218   1.018   5.089  0.6145  0.3157 -0.5761
 1720lim     li10900   3.484   6.542   2.400  0.3073 -0.5770  0.1043
 1721lim     li10901   3.260   5.296   3.833 -0.4978 -0.2861  0.1785
 1722lim     li10902   6.114   1.998   3.465 -1.6896  0.4928  0.1257
 1723lim     li10903   6.663   0.608   2.027 -0.9346 -0.1498 -0.0486
 1724lim     li10904   5.817   0.163   1.570 -0.9008 -0.7642 -0.4014
 1725lim     li10905   6.503   3.259   6.139  0.0012  1.1621 -0.5880
 1726lim     li10906   1.067   2.809   4.390 -0.5980 -0.7291 -0.0538
 1727lim     li10907   5.262   6.385   3.236 -0.2878  0.4184  0.4365
 1728lim     li10908   5.078   3.332   3.019 -0.2498 -0.7385  0.0746
 1729lim     li10909   2.925   0.225   6.882  0.7908 -0.7204 -0.1980
 1730lim     li10910   5.391   4.792   3.914 -0.3310  0.8822  0.9444
 1731lim     li10911   1.451   6.781   0.879  0.7826  0.5679  0.6442
 1732lim     li10912   6.110   5.389   2.414  0.4605  0.3665  0.8728
 1733lim     li10913   1.176   6.460   6.035  0.0243 -0.1392  1.0881
 1734lim     li10914   0.239   4.385   0.586  0.6762 -0.9793 -0.3470
 1735lim     li10915   4.804   0.115   4.180 -0.2887  0.4095  0.0893
 1736lim     li10916   1.033   4.006   1.049 -0.8225  0.1063  0.6825
 1737lim     li10917   1.077   5.486   6.418  0.2257 -0.6009 -0.4313
 1738lim     li10918   6.781   0.716   0.977 -0.7377 -0.8650  0.2852
 1739lim     li10919   2.308   4.670   0.392 -0.5612 -0.8533  0.0816
 1740lim     li10920   1.227   2.753   5.843  0.3298 -0.2049 -0.0465
 1741lim     li10921   1.282   5.757   4.187 -0.1377  0.0078 -0.1044
 1742lim     li10922   6.128   2.901   0.748 -0.1177 -0.3616 -0.0508
 1743lim     li10923   1.125   2.048   1.190 -0.7141 -0.7197  0.6121
 1744lim     li10924   2.670   2.629   0.005 -0.1510  0.8047  0.0860
 1745lim     li10925   2.279   5.362   3.754 -0.2238  0.2728 -0.2860
 1746lim     li10926   0.186   6.411   6.621  0.8187 -1.1934  0.0251
 1747lim     li10927   3.526   1.268   6.620  0.6449 -0.3829 -0.4670
 1748lim     li10928   0.487   1.519   2.490 -0.2393  0.1159 -0.3741
 1749lim     li10929   0.277   3.580   3.474  0.0036 -0.1412  0.4124
 1750lim     li10930   3.996   0.862   1.017 -0.1995 -0.4321 -0.4221
 1751lim     li10931   2.557   1.979   4.078 -0.5262 -0.3182  0.3655
 1752lim     li10932   6.494   1.602   4.612 -0.0820  0.0671  0.5700
 1753lim     li10933   5.719   1.109   1.015 -0.2552 -0.7810 -0.5563
 1754lim     li10934   3.988   3.436   1.665 -0.3776  0.0251  0.8513
 1755lim     li10935   0.519   3.180   3.934  0.2477  0.1908 -0.4467
 1756lim     li10936   0.656   1.459   4.102 -0.3734  1.5908  0.6298
 1757lim     li10937   5.874   3.997   3.370  0.3294  0.0998  0.6005
 1758lim     li10938   5.518   2.014   6.683 -0.4211 -0.4208 -0.6502
 1759lim     li10939   0.084   6.404   3.862  1.7906 -0.6184 -0.1545
 1760lim     li10940   1.841   0.217   3.873 -0.5386  0.3841 -0.3887
 1761lim     li10941   5.367   4.245   5.990 -0.1882  1.0022  0.0868
 1762lim     li10942   1.820   2.054   2.658 -0.7994 -0.0811  0.2055
 1763lim     li10943   3.411   1.247   3.423 -0.7672 -0.2899  1.2215
 1764lim     li10944   3.587   2.442   4.788  0.3619 -0.4417  0.7642
 1765lim     li10945   4.210   6.663   2.548  0.0728  0.0138 -0.4026
 1766lim     li10946   1.318   3.309   5.254  0.0170  0.0419  1.0472
 1767lim     li10947   5.516   0.918   2.629 -0.2201  0.3576  0.6898
 1768lim     li10948   1.153   4.940   0.201  0.1128  1.4169  0.1475
 1769lim     li10949   6.703   3.477   1.711  0.0213 -1.3715  0.6271
 1770lim     li10950   4.986   2.111   1.357 -0.3737 -0.1991  0.1543
 1771lim     li10951   4.526   5.846   2.269  0.6213  0.5555  0.8806
 1772lim     li10952   1.904   5.228   5.232  0.1374 -1.4947 -0.2143
 1773lim     li10953   1.051   4.260   5.000 -0.0526  0.6099 -0.8803
 1774lim     li10954   5.022   3.763   6.838 -0.1089 -0.8202 -0.2704
 1775lim     li10955   2.011   4.926   6.660 -0.2815 -0.8880 -1.0579
 1776lim     li10956   2.198   1.246   5.775 -0.5979  0.2493 -1.5993
 1777lim     li10957   5.139   5.927   0.385  0.1447  0.0639  0.5687
 1778lim     li10958   4.520   4.014   5.076  0.4536  0.1518  0.4919
 1779lim     li10959   0.516   2.592   0.476  0.6776  0.0823  0.7893
 1780lim     li10960   4.265   3.946   6.268  0.5055 -0.0557  0.0904
 1781lim     li10961   4.890   6.558   0.206 -0.2255  0.7400 -0.0614
 1782lim     li10962   2.883   0.223   2.361 -0.5925  0.0515  1.5264
 1783lim     li10963   1.976   6.196   5.492  0.6790  0.2183  0.7643
 1784lim     li10964   6.451   0.867   0.439 -0.2141 -0.2063 -1.0584
 1785lim     li10965   5.720   1.842   5.663 -0.1792  0.0029 -0.9631
 1786lim     li10966   1.384   2.322   1.653  0.3736  0.1927 -0.4967
 1787lim     li10967   6.198   6.833   3.085 -0.3768 -0.2196  0.6603
 1788lim     li10968   4.804   4.448   0.345 -0.3459  0.5948  0.8328
 1789lim     li10969   2.548   4.580   6.313  0.4350 -0.7529  0.0329
 1790lim     li10970   2.305   6.361   0.820  0.2948 -0.4508  0.9108
 1791lim     li10971   0.342   1.243   3.029  0.8570  0.1099  0.4267
 1792lim     li10972   2.672   2.629   5.358 -0.0586 -0.2142 -0.1065
 1793lim     li10973   4.643   1.426   0.578 -0.2032 -0.9595 -0.1184
 1794lim     li10974   1.647   2.074   4.246 -0.1720  0.6383 -0.3287
 1795lim     li10975   4.626   2.099   0.122  0.0538 -0.1227  1.6246
 1796lim     li10976   3.333   3.111   2.656  0.6583 -0.1572  0.4853
 1797lim     li10977   5.130   1.647   1.236 -0.6714 -0.6695  0.3060
 1798lim     li10978   5.092   2.472   0.775  0.3385  0.5715  0.2505
 1799lim     li10979   2.407   6.733   6.756 -0.8964 -0.5546 -0.2486
 1800lim     li10980   3.801   4.973   5.941  0.0143 -0.2364 -0.2098
 1801lim     li10981   0.329   0.677   2.042 -0.7271 -0.3230  1.0169
 1802lim     li10982   4.663   1.602   6.179  0.5571 -0.7279 -0.3827
 1803lim     li10983   2.745   1.990   4.906 -0.6582 -0.7288  1.2001
 1804lim     li10984   0.750   5.781   3.537  0.8065  0.0158 -1.2406
 1805lim     li10985   3.484   0.269   1.230  0.1978  0.2768  0.4414
 1806lim     li10986   6.004   3.262   3.480  0.6588  0.0528 -0.0580
 1807lim     li10987   5.551   6.763   2.771 -0.8019  1.0639 -1.0597
 1808lim     li10988   3.699   2.893   4.381 -0.6703  0.9655 -0.1586
 1809lim     li10989   6.373   1.342   2.642  1.1487 -0.5845 -0.8576
 1810lim     li10990   3.421   6.086   6.490  0.4022 -0.3960  0.3380
 1811lim     li10991   4.851   2.634   2.185 -0.1022 -1.1621 -0.0129
 1812lim     li10992   2.937   5.463   6.577 -0.1127 -0.0960  0.5628
 1813lim     li10993   1.660   4.790   6.014  0.9525 -0.1749  1.1758
 1814lim     li10994   2.851   0.945   4.758  0.3683  0.8536  0.1490
 1815lim     li10995   5.621   3.136   4.930  0.7200 -0.7333  0.5955
 1816lim     li10996   2.326   0.458   5.030 -1.0973  0.6698  0.6436
 1817lim     li10997   1.009   1.073   3.179  0.0295 -0.6186  0.6197
 1818lim     li10998   6.162   1.051   3.331 -0.4487  0.0623  1.3197
 1819lim     li10999   2.874   1.046   4.018  0.4642 -0.4865 -0.0590
 1820lim     li11000   2.639   6.456   4.785 -0.5297 -0.1987  0.1540
 1821lim     li11001   3.422   4.836   6.301  1.1423 -0.5007  0.1294
 1822lim     li11002   1.415   1.254   2.584 -1.3917 -0.0229 -0.1266
 1823lim     li11003   4.088   2.349   1.126  0.3619  0.7792 -0.6059
 1824lim     li11004   1.957   3.369   4.811 -0.4719 -0.1198  0.2245
 1825lim     li11005   0.471   2.700   2.307  0.1843 -0.8797 -0.0167
 1826lim     li11006   3.273   3.039   1.545 -0.1747  0.5450  0.3467
 1827lim     li11007   4.431   1.668   1.904  0.2341 -0.2506  0.6394
 1828lim     li11008   2.024   5.868   4.642  1.0315 -0.3260  0.2045
 1829lim     li11009   2.472   3.933   4.656 -0.7742  0.5708 -0.3160
 1830lim     li11010   6.759   3.766   2.673  0.8312 -0.3014  0.6040
 1831lim     li11011   2.485   3.182   1.663 -0.4448  0.5076 -0.4209
 1832lim     li11012   5.088   2.648   5.609 -0.6822  0.2484  0.3293
 1833lim     li11013   0.779   4.916   2.445 -0.3212  0.2169  0.8682
 1834lim     li11014   1.581   2.638   3.806  1.3786 -0.6666  0.2766
 1835lim     li11015   3.629   4.083   1.657  0.5051  0.0239 -0.9236
 1836lim     li11016   5.241   3.524   0.714 -0.2861 -0.1273 -0.4837
 1837lim     li11017   6.549   4.593   1.547  0.5808 -0.3300  0.1709
 1838lim     li11018   2.000   4.790   3.517  1.4192 -0.7574 -0.3639
 1839lim     li11019   0.092   4.277   1.802 -0.8366  1.2155  0.4825
 1840lim     li11020   0.483   4.512   3.297  0.7465  0.2548  0.4962
 1841lim     li11021   3.618   1.392   4.267  0.3133 -0.0881  0.1215
 1842lim     li11022   2.146   1.114   4.190 -0.0423 -0.3243  0.1572
 1843lim     li11023   0.206   0.019   5.133 -0.1639  0.2940  0.6664
 1844lim     li11024   0.379   1.845   5.888  0.6580 -0.0361  0.3574
 1845lim     li11025   4.618   4.513   6.378 -0.0692 -0.5761  0.3859
 1846lim     li11026   0.776   0.383   5.933 -0.4479 -0.0752  0.6139
 1847lim     li11027   2.232   1.860   3.148 -0.1307  1.1770 -0.0248
 1848lim     li11028   5.976   3.192   5.650 -0.1396  0.0459 -0.5159
 1849lim     li11029   2.817   6.700   1.305 -0.6268  0.1905 -0.2641
 1850lim     li11030   4.770   0.743   4.707 -1.3435 -0.9350  0.4473
 1851lim     li11031   6.436   0.273   4.854 -0.7191  0.1066  0.2701
 1852lim     li11032   0.677   4.912   1.150  0.8358  0.3522 -0.3752
 1853lim     li11033   4.167   5.194   3.413 -0.1595 -0.2786  0.0021
 1854lim     li11034   0.307   2.375   3.072  0.1742  0.7341 -0.1924
 1855lim     li11035   4.413   4.988   4.806  1.2213  0.5249  0.0314
 1856lim     li11036   0.703   2.773   5.025  0.6009 -0.1519  0.1170
 1857lim     li11037   2.147   4.478   4.361 -1.4363 -0.3006 -0.8842
 1858lim     li11038   3.488   1.699   4.761 -0.1979 -0.6273 -0.5771
 1859lim     li11039   4.586   0.854   2.609  0.0610  0.5017  0.9696
 1860lim     li11040   1.517   0.694   2.483  0.9007 -0.5448  0.0138
 1861lim     li11041   3.506   4.756   0.574  0.2566  0.6781  0.6912
 1862lim     li11042   4.734   0.872   5.385  0.3363  0.0821 -0.2265
 1863lim     li11043   5.497   5.365   5.472 -0.4709 -0.4154 -0.5738
 1864lim     li11044   6.365   4.682   2.459 -0.1913  0.4376 -0.4148
 1865lim     li11045   4.236   2.800   0.313 -0.2136  1.5156  0.0496
 1866lim     li11046   5.279   2.871   1.497 -0.3058  0.9111  0.6915
 1867lim     li11047   6.390   0.826   6.720  0.5194  0.5098  0.2209
 1868lim     li11048   6.641   0.700   3.726  0.0617 -0.3704 -0.7567
 1869lim     li11049   6.830   0.184   1.502  0.0951 -0.4792 -0.0779
 1870lim     li11050   4.569   0.716   3.585 -0.2865  0.0307  0.3426
 1871lim     li11051   6.481   4.745   3.175  0.5255  0.3235 -1.3769
 1872lim     li11052   6.678   3.023   2.122 -0.1250 -0.6280  0.2165
 1873lim     li11053   2.413   1.837   0.795  0.2704 -0.1718  0.2292
 1874lim     li11054   3.677   4.742   2.203 -0.0076 -0.2026  0.5064
 1875lim     li11055   2.807   2.715   2.503 -0.2632 -0.2061  0.5179
 1876lim     li11056   0.160   3.424   5.055  0.4735 -1.0506  1.3550
 1877lim     li11057   0.874   6.317   4.568 -0.6685  0.2865  1.2720
 1878lim     li11058   6.652   1.790   3.325 -0.1605 -1.3378  0.0546
 1879lim     li11059   4.468   5.273   2.522  0.5730 -0.4720  0.4299
 1880lim     li11060   0.238   1.482   1.247  0.0334 -0.0206  0.4697
 1881lim     li11061   4.373   1.453   4.473  0.8696  0.1708  0.4384
 1882lim     li11062   0.202   2.887   5.565  0.0382 -0.5746 -0.4471
 1883lim     li11063   6.790   5.988   3.031  0.1809 -0.7622 -0.0665
 1884lim     li11064   3.663   4.380   3.542 -0.2250 -0.1136  0.2050
 1885lim     li11065   5.303   0.825   3.253 -0.7360  0.4691  0.7018
 1886lim     li11066   3.103   1.367   0.401 -0.0869 -0.2621  0.7475
 1887lim     li11067   3.477   6.888   4.518 -0.5248  0.0632  1.1183
 1888lim     li11068   2.891   3.763   5.463  0.9160  0.1777 -0.4708
 1889lim     li11069   3.422   2.145   6.701 -0.4136 -0.7141 -0.1134
 1890lim     li11070   3.954   5.681   6.054 -0.8855 -0.5660  1.2687
 1891lim     li11071   3.617   6.311   3.645 -0.4989  1.1157 -0.5132
 1892lim     li11072   2.780   6.069   3.190  0.3456 -0.7214  0.9251
 1893lim     li11073   4.679   0.405   0.942  0.5422 -0.6222 -0.7611
 1894lim     li11074   4.208   1.742   5.795  0.0593  0.5675 -0.2405
 1895lim     li11075   6.620   4.771   5.093 -0.4357  1.2851  0.7524
 1896lim     li11076   2.632   6.176   1.650  0.2659  0.5811  1.1344
 1897lim     li11077   5.961   3.981   6.427  0.1348  0.3080  0.4627
 1898lim     li11078   6.753   6.260   1.584  0.1595 -0.2644 -0.7266
 1899lim     li11079   5.935   6.031   3.444 -0.4908  0.6545 -0.4255
 1900lim     li11080   1.072   2.914   6.352 -1.4283  0.2407 -0.8438
 1901lim     li11081   6.338   5.016   0.798  0.6252  0.3988 -0.2212
 1902lim     li11082   2.532   4.108   2.177  1.1025  1.1547  0.0911
 1903lim     li11083   6.661   4.019   3.983 -0.6227  0.5634  0.1126
 1904lim     li11084   0.227   5.383   3.210 -0.1058 -1.1780 -0.1616
 1905lim     li11085   1.991   0.497   3.142  1.2647  0.5882 -0.1510
 1906lim     li11086   3.536   3.436   5.914 -0.0455 -0.8537  0.9394
 1907lim     li11087   4.261   4.544   3.284  1.4195 -0.1811  0.1165
 1908lim     li11088   1.150   0.877   4.343 -0.2631 -0.5728 -1.3890
 1909lim     li11089   0.883   1.703   6.878 -0.2575  0.6146  0.0357
 1910lim     li11090   6.759   5.993   0.567  0.8161 -0.8639  0.5048
 1911lim     li11091   2.825   4.884   2.991  0.7391  0.2750 -0.0430
 1912lim     li11092   4.806   0.139   6.293 -0.0425  0.3562 -0.4815
 1913lim     li11093   0.980   0.776   0.624  0.6935  1.0120 -0.6366
 1914lim     li11094   3.653   4.058   5.774  0.4621 -0.6125  0.8003
 1915lim     li11095   1.506   6.650   4.355 -0.7575  1.1341  0.3568
 1916lim     li11096   2.529   3.638   2.541  0.6811  1.0741 -0.8460
 1917lim     li11097   1.734   1.358   0.577 -0.2200 -1.4492 -0.0743
 1918lim     li11098   4.646   6.220   3.991  0.5176 -0.0507 -0.5023
 1919lim     li11099   6.086   3.288   2.728  0.4947 -0.6105 -1.5056
 1920lim     li11100   4.031   0.404   6.102 -0.6284  1.8127 -0.0884
 1921lim     li11101   1.733   6.501   2.076  0.1112  0.3519  0.7519
 1922lim     li11102   2.829   5.031   0.318  0.3625  0.8582  0.3075
 1923lim     li11103   2.909   0.872   5.631  0.2381 -0.7579  0.5402
 1924lim     li11104   3.997   2.967   5.577  0.5378 -0.0530 -0.2002
 1925lim     li11105   6.674   6.158   5.027 -0.0558 -0.0131  0.5430
 1926lim     li11106   3.313   6.202   5.358 -0.3678 -0.4282  1.5205
 1927lim     li11107   4.334   3.284   3.229  0.6640 -0.0985 -0.2801
 1928lim     li11108   0.055   6.871   5.922  0.0130  0.7965  1.2143
 1929lim     li11109   2.944   2.378   0.973 -0.6239 -0.2812 -0.1732
 1930lim     li11110   1.298   4.651   3.854  0.6658  1.1249  0.4109
 1931lim     li11111   1.241   1.771   3.536 -1.1261  0.6834 -0.5154
 1932lim     li11112   5.303   3.720   1.521 -0.9485  1.1364  0.2295
 1933lim     li11113   5.147   6.017   4.923  0.1686 -0.3909 -0.2472
 1934lim     li11114   5.230   5.387   1.366  0.5384 -0.6155  0.3000
 1935lim     li11115   0.409   4.688   5.911  0.1937 -0.4874 -0.1453
 1936lim     li11116   1.258   0.061   3.149 -0.2655  0.3511  0.0909
 1937lim     li11117   2.075   6.352   1.293 -0.1782 -0.5136 -0.3764
 1938lim     li11118   4.484   3.362   5.046  0.6907  0.2602  0.0365
 1939lim     li11119   1.584   5.173   1.760  0.1950 -0.2318  0.4380
 1940lim     li11120   1.074   3.198   1.493  0.0403 -0.0897 -0.6084
 1941lim     li11121   0.679   3.322   2.153 -0.2100  0.1804 -0.1136
 1942lim     li11122   0.628   0.155   0.192 -0.4623 -0.6997  0.3578
 1943lim     li11123   3.244   2.325   5.817  0.7692  0.2857  0.2221
 1944lim     li11124   1.139   5.088   4.537 -1.2066 -0.1030 -1.0734
 1945lim     li11125   4.250   1.256   3.655  0.0476  0.2690  0.6110
 1946lim     li11126   5.793   0.131   3.644  0.1844  0.1570 -0.9506
 1947lim     li11127   1.647   0.197   1.605  1.0623 -1.4885 -0.1960
 1948lim     li11128   3.280   6.630   0.172 -0.5441  0.1402 -0.0403
 1949lim     li11129   6.573   6.653   0.612 -0.0651  0.2411  0.4464
 1950lim     li11130   5.378   1.647   5.037 -0.2144  0.3382 -0.0577
 1951lim     li11131   5.634   6.687   6.561  0.6478 -1.0790  0.3091
 1952lim     li11132   0.809   5.878   2.501  0.1540  0.0916 -0.4803
 1953lim     li11133   4.920   2.178   4.767 -0.3017  0.0780 -0.4319
 1954lim     li11134   1.961   4.722   2.510 -1.0802  0.0746 -0.0138
 1955lim     li11135   4.192   6.031   4.549  0.0765 -1.3372 -0.3730
 1956lim     li11136   0.461   5.222   4.942 -1.4514  0.5853 -0.4617
 1957lim     li11137   5.178   0.777   0.235  0.0032  0.4866  0.5909
 1958lim     li11138   4.800   4.022   1.885  0.5956 -0.5670 -0.0034
 1959lim     li11139   1.903   5.722   6.344 -0.8930  1.1232  0.6964
 1960lim     li11140   5.784   2.945   0.061 -1.2499  0.7204  1.5764
 1961lim     li11141   3.910   3.448   0.653  0.2509 -0.3175 -0.0197
 1962lim     li11142   5.845   0.688   0.715  0.0614 -0.2421 -0.4112
 1963lim     li11143   3.340   5.106   1.257 -1.6684 -0.7920  0.3018
 1964lim     li11144   1.969   1.167   1.587  0.3645 -0.4243 -0.4270
 1965lim     li11145   6.181   5.104   6.551  0.4660  0.4231 -0.9048
 1966lim     li11146   2.238   6.250   3.588 -0.9883  1.0832 -1.3991
 1967lim     li11147   2.471   0.415   0.659 -0.3561 -0.0901 -0.8260
 1968lim     li11148   1.045   1.730   2.138  0.4102  0.0068 -0.2289
 1969lim     li11149   2.029   5.727   5.852 -0.4282  0.0500 -0.2503
 1970lim     li11150   3.492   3.716   4.916  0.8386  1.7104 -0.6098
 1971lim     li11151   3.000   1.869   2.680 -0.3417 -0.0205  0.7352
 1972lim     li11152   3.770   1.452   5.326  0.2784 -0.9909  0.5670
 1973lim     li11153   3.163   4.015   4.031  0.5967 -0.1583 -0.2615
 1974lim     li11154   6.519   5.790   1.796  0.2642  1.3822 -0.3782
 1975lim     li11155   6.397   2.995   4.590  0.8652 -0.7968  0.5847
 1976lim     li11156   1.814   2.487   2.232  0.2019 -0.7868  0.5104
 1977lim     li11157   0.447   6.048   5.881  0.4727  0.2753 -0.2749
 1978lim     li11158   4.625   3.012   0.979  0.4116 -0.6330 -0.5698
 1979lim     li11159   4.338   2.410   5.060  0.1445 -0.5378 -0.0583
 1980lim     li11160   2.100   2.059   1.193  0.6236 -0.8743  0.3327
 1981lim     li11161   0.920   0.076   2.461  0.1027  0.2149  0.8035
 1982lim     li11162   6.367   2.028   1.009  0.3521  0.2463  0.3506
 1983lim     li11163   5.491   6.089   1.530  0.9235  0.6603 -0.2548
 1984lim     li11164   2.683   3.734   3.607  1.2034  0.2580  0.1789
 1985lim     li11165   5.149   3.495   4.214  0.4073  0.1432 -0.1403
 1986lim     li11166   3.357   4.639   4.806 -0.8112  0.1265 -0.0091
 1987lim     li11167   2.842   5.232   5.911 -0.5175 -0.4950 -0.3438
 1988lim     li11168   1.530   4.508   0.433 -0.0825  0.1473  1.2686
 1989lim     li11169   3.400   5.490   2.842  0.9120  0.7315 -0.1328
 1990lim     li11170   1.224   5.761   1.514  0.6738  0.6105 -0.1959
 1991lim     li11171   2.964   3.045   4.310  0.0263  0.0404 -0.4794
 1992lim     li11172   6.462   0.109   6.592 -0.6804  0.0470  0.1238
 1993lim     li11173   3.922   0.700   4.632  0.9658 -0.7813  0.0101
 1994lim     li11174   2.259   6.777   5.418 -0.0810  0.3013  0.1294
 1995lim     li11175   2.277   1.334   4.933  1.2059 -0.6430 -0.4754
 1996lim     li11176   5.798   0.729   4.066 -0.5414  0.2249  0.0528
 1997lim     li11177   2.451   3.220   0.874  0.7466 -0.0383  0.8099
 1998lim     li11178   4.115   3.987   0.107 -0.0306  0.0657 -1.3252
 1999lim     li11179   4.883   2.511   6.318  0.6364 -0.1237 -0.1827
 2000lim     li11180   3.786   1.073   2.843  0.3512 -0.2013  0.3955
 2001lim     li11181   0.693   4.068   2.666  0.2582  0.0946  0.3957
 2002lim     li11182   1.342   4.703   2.818  1.0354  0.1897  0.2629
 2003lim     li11183   3.945   5.964   3.036 -0.7607  0.2539  0.8631
 2004lim     li11184   5.806   6.507   2.131 -0.1338  0.3062  1.0918
 2005lim     li11185   3.726   5.549   0.281  0.1697  0.7057  1.0576
 2006lim     li11186   2.034   1.132   3.376  1.2294 -0.2955 -0.2392
 2007lim     li11187   1.106   0.471   6.870  0.4895  0.2482  0.4760
 2008lim     li11188   6.138   4.209   5.545 -0.2083 -0.0189 -0.0691
 2009lim     li11189   4.267   5.298   4.099  0.3737  1.1923 -0.1012
 2010lim     li11190   5.626   1.797   1.851 -0.1059 -0.4975 -1.1808
 2011lim     li11191   2.394   5.163   1.877  0.5407 -0.0319  0.1660
 2012lim     li11192   6.599   2.421   6.826 -0.1124 -0.5514  0.6663
 2013lim     li11193   1.726   2.719   1.190 -0.1212 -0.2936  0.0010
 2014lim     li11194   3.076   4.912   5.276  0.8308  1.3049  0.0987
 2015lim     li11195   6.048   5.713   4.807  0.1465 -0.2038  0.2491
 2016lim     li11196   0.930   1.651   4.837  0.3632 -0.9213  0.4790
 2017lim     li11197   4.865   6.765   5.511  0.7660  0.3038  0.2987
 2018lim     li11198   2.423   2.821   3.202 -0.1733  0.2222 -1.6264
 2019lim     li11199   3.665   0.633   0.143 -0.1325  1.0385  1.0304
 2020lim     li11200   1.981   3.655   1.260  0.3506  0.3549 -1.0061
 2021lim     li11201   6.703   3.009   3.008 -0.0384 -0.0342 -0.7845
 2022lim     li11202   6.027   2.685   1.582  0.1556 -0.5307  0.2257
 2023lim     li11203   3.537   4.337   6.854 -0.2908 -0.8930 -1.0563
 2024lim     li11204   5.350   5.839   6.288 -0.4205 -0.6662 -1.3690
 2025lim     li11205   2.813   4.509   1.558 -0.0482 -0.1793  0.1654
 2026lim     li11206   4.361   1.001   1.639 -0.7172 -0.5088  0.5345
 2027lim     li11207   6.638   2.911   3.930 -0.0787  0.2586  0.1205
 2028lim     li11208   0.914   6.397   1.859 -0.3514  0.6580  0.1255
 2029lim     li11209   5.422   4.559   1.474  0.3816 -0.1120  0.2334
 2030lim     li11210   0.482   3.718   5.922  0.8795 -0.3582  0.2215
 2031lim     li11211   2.167   2.023   6.342 -0.2981 -0.5615 -0.8134
 2032lim     li11212   6.014   6.062   0.823  0.3906 -0.4551 -1.2587
 2033lim     li11213   2.830   3.122   6.345 -0.9687  0.6444  0.0271
 2034lim     li11214   3.960   2.646   2.203  0.8598  0.1720  0.6797
 2035lim     li11215   2.550   5.344   0.946 -0.5008  0.1850  0.0602
 2036lim     li11216   2.198   0.203   6.274 -0.6904  0.8188 -0.0044
 2037lim     li11217   4.212   2.581   2.833  0.4011 -0.3904 -0.3459
 2038lim     li11218   2.607   4.049   0.492 -0.3581 -0.9556  0.4254
 2039lim     li11219   1.614   6.768   6.763 -1.4030 -0.9150  0.5307
 2040lim     li11220   6.759   3.964   6.556  1.3422 -0.6463 -0.7255
 2041lim     li11221   3.849   0.462   1.958 -0.6339 -0.6174  1.1954
 2042lim     li11222   1.262   3.664   3.616  0.2851  0.2770 -0.8274
 2043lim     li11223   3.261   1.944   1.518  0.5608  0.4303  0.6925
 2044lim     li11224   0.856   6.072   5.338 -1.0793  0.0101 -0.8185
 2045lim     li11225   6.705   6.475   2.664 -0.2946 -1.5680  0.5744
 2046lim     li11226   6.425   4.378   4.344 -1.0296 -0.1839  0.9468
 2047lim     li11227   5.168   4.165   4.637 -0.2159  0.0519  0.7411
 2048lim     li11228   4.494   2.573   3.852  0.4884  0.6060 -0.1214
 2049lim     li11229   3.806   4.276   4.259  0.0717 -0.1830 -1.1828
 2050lim     li11230   4.249   5.271   5.233 -0.6414 -1.2188 -0.5075
 2051lim     li11231   4.138   3.792   3.454  0.8203 -1.0195 -0.3239
 2052lim     li11232   1.828   2.217   4.892 -0.5641 -0.5444  0.5860
 2053lim     li11233   0.002   2.382   4.958  0.2768 -0.3304 -0.2850
 2054lim     li11234   1.026   5.147   5.654  1.6240  0.5891 -0.0392
 2055lim     li11235   1.715   1.789   6.047  0.5660 -0.6309 -1.0892
 2056lim     li11236   1.580   0.390   5.046 -0.2312 -0.5120  0.9818
 2057lim     li11237   6.042   4.622   0.058  0.7212 -0.3803  0.7416
 2058lim     li11238   6.864   2.252   1.373  0.3382  1.7287  1.4040
 2059lim     li11239   5.561   6.694   4.343  0.8828  1.2439  0.1235
 2060lim     li11240   1.172   6.205   0.440 -0.4190 -0.1896 -0.5770
 2061lim     li11241   3.097   5.997   0.847  1.0478  1.3556 -1.1560
 2062lim     li11242   4.072   0.597   5.383  0.3468  0.3067  0.6971
 2063lim     li11243   5.550   2.817   3.808  0.5728 -0.8751  0.2695
 2064lim     li11244   1.038   2.056   5.110 -0.0271 -0.0154 -1.3009
 2065lim     li11245   6.347   3.419   0.277  0.6680  0.6325  0.5008
 2066lim     li11246   1.344   2.850   0.511  0.6879  0.4616 -0.8170
 2067lim     li11247   0.016   4.715   6.897 -1.2496 -0.1041  0.3228
 2068lim     li11248   1.424   4.204   1.769 -0.2283  0.3520  0.6536
 2069lim     li11249   6.740   0.514   5.831 -0.3510  0.0551 -1.0423
 2070lim     li11250   2.013   2.355   5.596 -0.0867 -0.8216 -0.3060
 2071lim     li11251   6.858   0.432   3.113 -0.1754  0.8147 -0.4143
 2072lim     li11252   1.062   0.616   4.896  0.9497  0.3875 -0.1741
 2073lim     li11253   0.174   6.796   4.612 -0.7386 -1.4357  0.1147
 2074lim     li11254   4.515   5.445   1.733 -0.3820 -0.2330 -0.3099
 2075lim     li11255   3.277   4.349   2.858  0.0534  0.2666  0.4180
 2076lim     li11256   0.606   1.064   5.890 -0.3791  1.0220 -0.6460
 2077lim     li11257   4.673   0.373   0.258  0.3389  0.1895 -1.3043
 2078lim     li11258   0.726   0.420   3.874 -0.3552  0.9713 -0.5501
 2079lim     li11259   3.208   0.285   3.365  0.0558 -0.1388  0.1167
 2080lim     li11260   0.666   3.414   0.153  0.3220  0.3486 -0.5241
 2081lim     li11261   2.407   5.987   6.917 -0.5974  0.5134  0.1842
 2082lim     li11262   5.355   3.209   6.480  0.0673 -0.1503 -1.5270
 2083lim     li11263   6.001   2.210   6.255 -0.3770  0.6682 -0.2493
 2084lim     li11264   1.272   4.011   2.759  0.5912 -0.0154  0.5028
 2085lim     li11265   4.213   6.290   1.401  0.1125  0.6916  0.3092
 2086lim     li11266   4.843   5.071   5.653 -0.1928  0.2473 -0.5081
 2087lim     li11267   2.147   3.419   5.675 -1.2624  1.1598 -1.0255
 2088lim     li11268   3.249   2.381   3.661  0.9385  0.4209  0.6630
 2089lim     li11269   4.284   4.474   1.479 -0.0771  0.0840 -0.3518
 2090lim     li11270   4.021   0.200   0.640 -0.7867 -0.4193 -0.5924
 2091lim     li11271   6.137   0.028   5.914 -0.5759 -0.0072  0.8393
 2092lim     li11272   5.977   3.991   1.510  1.0015 -0.9631 -0.3024
 2093lim     li11273   4.280   4.917   1.122 -0.0627 -0.0378 -0.2668
 2094lim     li11274   2.792   1.621   6.743  1.1914 -0.0417 -0.0743
 2095lim     li11275   5.810   4.097   4.241  0.1386 -0.1491  0.2852
 2096lim     li11276   1.269   3.686   0.400  0.6782  0.0923  0.2610
 2097lim     li11277   1.558   6.088   3.408  0.0604 -0.8602 -0.1502
 2098lim     li11278   4.706   0.177   3.047  0.3013 -0.2049  0.6632
 2099lim     li11279   5.532   2.520   4.365  1.0664  0.3470 -0.9352
 2100lim     li11280   1.541   3.867   6.416  0.0585 -0.8921  0.4746
 2101lim     li11281   4.010   2.616   6.230 -0.4067 -1.3260  0.1309
 2102lim     li11282   5.884   2.313   2.968 -0.0459  1.3599  0.6800
 2103lim     li11283   3.546   6.403   1.594  0.3005  0.1153  0.1027
 2104lim     li11284   6.227   0.736   2.318 -0.5698  0.3030  0.0826
 2105lim     li11285   4.867   6.671   1.346  0.3527 -0.2051 -0.0612
 2106lim     li11286   4.553   3.091   6.921  0.0263  1.1589 -1.2960
 2107lim     li11287   3.171   1.704   3.272 -1.3765 -0.9184 -0.8054
 2108lim     li11288   2.252   5.947   2.350 -0.4742  0.6426  0.0474
 2109lim     li11289   2.122   4.487   5.683  0.2604  0.7091  0.5677
 2110lim     li11290   0.468   2.441   3.865  0.3113  0.9515 -0.2539
 2111lim     li11291   2.925   0.854   1.111  0.9133  0.2694 -0.2792
 2112lim     li11292   5.842   5.257   0.750 -0.1130  0.5311  0.5375
 2113lim     li11293   5.614   1.155   4.739 -0.5433 -0.1843 -1.4163
 2114lim     li11294   5.310   4.662   2.361  0.0632  0.0745 -1.6254
 2115lim     li11295   1.076   2.180   2.855 -0.2597  0.5963  0.4856
 2116lim     li11296   5.834   1.812   0.565  2.1976 -0.4522  0.0535
 2117lim     li11297   4.130   6.561   5.068 -0.9782  0.4973 -0.3514
 2118lim     li11298   3.173   4.013   1.055  0.7149 -0.7160 -0.2632
 2119lim     li11299   4.653   5.862   3.185  0.2113 -0.1869  1.2733
 2120lim     li11300   2.362   3.373   6.788  1.2679  0.5774 -0.3111
 2121lim     li11301   3.844   6.393   0.462 -0.3950 -0.0806  0.1104
 2122lim     li11302   4.326   6.622   3.769 -0.4974  0.0253  1.4222
 2123lim     li11303   5.981   2.434   5.002  0.0654  0.4423  0.1126
 2124lim     li11304   0.171   2.946   0.900  0.3273  0.4057 -0.2714
 2125lim     li11305   2.509   0.412   1.784  0.1106  0.1442 -1.0435
 2126lim     li11306   6.483   5.916   6.229  0.4614 -0.7161 -0.7634
 2127lim     li11307   6.922   4.086   5.347  0.0567  0.6604  1.0752
 2128lim     li11308   2.377   0.107   2.604 -0.2048  1.1642 -0.4355
 2129lim     li11309   5.969   6.433   5.305 -0.0268 -0.2036  0.4924
 2130lim     li11310   1.371   3.951   5.702  0.2345  1.1067  0.3129
 2131lim     li11311   4.283   4.002   2.586  0.8011  1.1335 -0.4564
 2132lim     li11312   5.655   1.419   6.706 -0.0367 -0.6232 -0.1450
 2133lim     li11313   6.368   1.406   5.440 -0.4805  0.4920  0.5238
 2134lim     li11314   5.142   1.541   3.623  0.7847 -0.5377 -0.0224
 2135lim     li11315   4.312   6.684   5.986  0.7305 -0.5271  0.2807
 2136lim     li11316   4.747   5.099   0.250 -0.1880  0.9762  0.2415
 2137lim     li11317   3.475   0.604   6.148 -0.9743 -1.2779 -0.1463
 2138lim     li11318   1.132   1.477   1.444  1.4287 -0.2349 -0.1229
 2139lim     li11319   2.199   0.845   6.838 -0.9120 -0.7640  0.4608
 2140lim     li11320   1.726   2.077   0.080 -0.0297  0.2307  0.6657
 2141lim     li11321   0.084   3.071   6.446  1.5369 -0.3472 -0.0135
 2142lim     li11322   5.357   5.294   2.029 -0.9687 -0.1948  1.1401
 2143lim     li11323   5.230   0.403   2.076 -0.5943 -0.5074  1.6096
 2144lim     li11324   3.631   5.628   4.956  0.3851 -0.7958  0.1035
 2145lim     li11325   3.825   0.310   3.772  0.4364  0.2437 -1.2143
 2146lim     li11326   2.830   6.710   5.852 -0.3060  0.1631 -0.2983
 2147lim     li11327   5.272   1.372   4.308  1.3617  0.5147  1.8190
 2148lim     li11328   2.991   5.831   4.477  0.4729  0.5047  0.8161
 2149lim     li11329   3.309   3.533   0.374  0.0720  0.7656 -0.5578
 2150lim     li11330   4.488   6.247   6.622  1.7593  0.3389  0.3219
 2151lim     li11331   3.605   3.163   6.665  0.0076  0.2335 -0.1627
 2152lim     li11332   3.148   0.377   5.233 -0.0104 -0.6425 -0.3580
 2153lim     li11333   2.726   0.626   3.626 -0.1755  1.0065 -0.9268
 2154lim     li11334   5.100   4.418   3.004 -0.4097  0.7534 -0.1738
 2155lim     li11335   5.686   5.813   2.949 -1.1144 -0.4106 -0.6930
 2156lim     li11336   4.463   3.129   4.343 -0.0796 -0.5512  0.0525
 2157lim     li11337   5.615   4.076   0.672 -0.2901 -0.4864  0.7442
 2158lim     li11338   5.277   6.894   5.088 -1.4567 -0.7924  0.0736
 2159lim     li11339   0.857   6.087   6.825  1.0116 -0.8272 -0.6557
 2160lim     li11340   4.623   5.635   0.746  0.5481 -0.0368  0.3686
 2161ntf    cn111341   2.272   2.409   4.485  0.1800 -0.2048 -0.0554
 2161ntf    sn211342   2.312   2.246   4.417  0.2090 -0.2758  0.1302
 2161ntf    nn311343   2.368   2.178   4.547  0.7378  0.7794  0.4668
 2161ntf    sn211344   2.289   2.098   4.657  0.2101  0.1381 -0.3629
 2161ntf    cn111345   2.283   1.933   4.582 -0.0871  0.2199 -0.5243
 2161ntf    fn411346   2.359   2.442   4.579  0.2061 -0.4742  0.0133
 2161ntf    fn411347   2.274   2.508   4.397 -0.4017 -0.2516 -0.1265
 2161ntf    fn411348   2.148   2.410   4.533  0.1962  0.2341 -0.0187
 2161ntf    on511349   2.189   2.188   4.370 -0.1024  0.1426  0.4284
 2161ntf    on511350   2.415   2.267   4.317 -0.0191 -0.1581 -0.0815
 2161ntf    on511351   2.153   2.144   4.677  0.2766  0.4336 -0.5788
 2161ntf    on511352   2.364   2.070   4.777 -0.2060  0.1310 -0.1012
 2161ntf    fn411353   2.241   1.935   4.457 -0.0359 -0.3514 -0.5528
 2161ntf    fn411354   2.407   1.887   4.578 -0.3295 -0.5485  0.2930
 2161ntf    fn411355   2.207   1.839   4.637  0.1115  0.1632 -0.3409
 2162ntf    cn111356   4.983   5.995   1.306 -0.0619  0.2017 -0.0609
 2162ntf    sn211357   5.124   5.921   1.219  0.0307  0.2313  0.0648
 2162ntf    nn311358   5.079   5.936   1.069  0.0965 -0.4463 -0.0243
 2162ntf    sn211359   5.141   6.012   0.947  0.1767 -0.2330  0.1501
 2162ntf    cn111360   5.063   6.175   0.971  0.3438 -0.1119 -0.1204
 2162ntf    fn411361   4.868   5.933   1.289  0.4093 -0.7565  0.2172
 2162ntf    fn411362   4.997   5.994   1.437 -0.0080 -0.1243 -0.0699
 2162ntf    fn411363   4.964   6.121   1.269  0.8480  0.3561 -0.0409
 2162ntf    on511364   5.234   6.004   1.263  0.1943  0.2680 -0.4069
 2162ntf    on511365   5.117   5.786   1.269  0.0358 -0.0780 -0.7445
 2162ntf    on511366   5.102   5.954   0.821  0.6172 -0.0023 -0.0989
 2162ntf    on511367   5.282   6.042   0.958  0.1974 -0.1888 -0.2462
 2162ntf    fn411368   5.106   6.263   0.883 -0.3501  0.0467 -0.3110
 2162ntf    fn411369   4.931   6.173   0.962  0.2990  0.0674  0.4727
 2162ntf    fn411370   5.081   6.233   1.088  0.3256 -0.1502 -0.0983
 2163ntf    cn111371   2.380   4.652   4.949  0.2386 -0.0473  0.2315
 2163ntf    sn211372   2.451   4.631   4.782  0.0478  0.3115  0.1044
 2163ntf    nn311373   2.602   4.614   4.821  0.1562  0.6091 -0.1905
 2163ntf    sn211374   2.686   4.483   4.839 -0.1774  0.4599  0.2754
 2163ntf    cn111375   2.775   4.474   4.681 -0.1585  0.2747  0.2964
 2163ntf    fn411376   2.260   4.706   4.937  0.3036 -0.0102 -0.3163
 2163ntf    fn411377   2.371   4.537   5.014 -0.0271  0.1386  0.5246
 2163ntf    fn411378   2.457   4.732   5.021 -0.3009  0.6551  0.0446
 2163ntf    on511379   2.378   4.518   4.731  0.1904  0.3019 -0.0767
 2163ntf    on511380   2.429   4.763   4.727 -0.3677  0.1302 -0.1718
 2163ntf    on511381   2.612   4.360   4.833 -0.2819  0.5503 -0.3370
 2163ntf    on511382   2.782   4.505   4.945  0.0967  0.0449  0.1141
 2163ntf    fn411383   2.864   4.377   4.693 -0.3062  0.1237  0.1697
 2163ntf    fn411384   2.694   4.458   4.578  0.4608 -0.2582 -0.1142
 2163ntf    fn411385   2.841   4.586   4.656  0.1988 -0.0335 -0.1621
 2164ntf    cn111386   5.733   4.460   1.163  0.0202  0.0332  0.1724
 2164ntf    sn211387   5.629   4.367   1.279 -0.0608  0.1363  0.1830
 2164ntf    nn311388   5.545   4.271   1.187  0.1934  0.1880 -0.1043
 2164ntf    sn211389   5.546   4.115   1.170  0.0813  0.1457  0.2767
 2164ntf    cn111390   5.386   4.089   1.253  0.0802 -0.4115  0.1029
 2164ntf    fn411391   5.785   4.566   1.223 -0.2663  0.5636 -0.5066
 2164ntf    fn411392   5.831   4.388   1.111 -0.1508 -0.3799  0.4239
 2164ntf    fn411393   5.659   4.499   1.060  0.2324 -0.0533 -0.0143
 2164ntf    on511394   5.731   4.305   1.360 -0.0697  0.2935  0.3129
 2164ntf    on511395   5.551   4.475   1.332 -0.7808 -0.3210  0.0684
 2164ntf    on511396   5.624   4.032   1.258 -0.2463 -0.8774 -0.3782
 2164ntf    on511397   5.523   4.071   1.035 -0.1818  0.0894  0.3399
 2164ntf    fn411398   5.344   3.963   1.256  0.8110 -0.6700 -0.1832
 2164ntf    fn411399   5.402   4.125   1.379  0.0178  0.2714 -0.0840
 2164ntf    fn411400   5.295   4.165   1.195  0.2988 -0.6267 -0.5408
 2165ntf    cn111401   4.525   2.320   3.275 -0.1442  0.0299  0.2270
 2165ntf    sn211402   4.600   2.453   3.374 -0.0153  0.0550  0.0957
 2165ntf    nn311403   4.590   2.581   3.283 -0.8590  0.0425  0.1596
 2165ntf    sn211404   4.700   2.652   3.197 -0.4616 -0.1943  0.4652
 2165ntf    cn111405   4.741   2.786   3.312  0.0617  0.2228 -0.1988
 2165ntf    fn411406   4.393   2.324   3.282 -0.1350 -0.3496  0.7235
 2165ntf    fn411407   4.554   2.330   3.147 -0.0063  0.3119  0.2797
 2165ntf    fn411408   4.561   2.196   3.306 -0.1832 -0.0888 -0.1953
 2165ntf    on511409   4.517   2.452   3.492 -0.1707  0.5026 -0.0086
 2165ntf    on511410   4.734   2.410   3.404 -0.2207 -0.3107  0.5172
 2165ntf    on511411   4.645   2.721   3.082 -0.5824 -0.5955  0.2797
 2165ntf    on511412   4.830   2.593   3.177 -0.3663  0.1997 -0.0988
 2165ntf    fn411413   4.628   2.835   3.361  0.1200 -0.1972  0.3685
 2165ntf    fn411414   4.808   2.743   3.417 -0.1577  0.3646  0.0015
 2165ntf    fn411415   4.799   2.888   3.251 -0.1354  0.1736 -0.4700
 2166ntf    cn111416   5.912   5.352   5.958  0.0649  0.1104  0.4019
 2166ntf    sn211417   6.073   5.371   6.041  0.1642  0.2471  0.1780
 2166ntf    nn311418   6.162   5.309   5.927 -0.3552  0.2913 -0.2595
 2166ntf    sn211419   6.254   5.369   5.815 -0.0611  0.0781 -0.1339
 2166ntf    cn111420   6.302   5.223   5.718 -0.1888  0.0248 -0.1164
 2166ntf    fn411421   5.918   5.372   5.827  0.0627 -0.5752  0.2934
 2166ntf    fn411422   5.874   5.225   5.964 -0.5604  0.2670 -0.1344
 2166ntf    fn411423   5.813   5.427   6.004  0.2774  0.4878  0.2454
 2166ntf    on511424   6.097   5.512   6.062 -0.0849  0.2619  0.3650
 2166ntf    on511425   6.063   5.287   6.157  0.1772 -0.0827 -0.0589
 2166ntf    on511426   6.378   5.419   5.868  0.2551 -0.2557 -0.5574
 2166ntf    on511427   6.186   5.453   5.719 -0.2030  0.3952  0.2403
 2166ntf    fn411428   6.351   5.128   5.797 -0.0696  0.5972  0.5099
 2166ntf    fn411429   6.201   5.164   5.656 -0.3317  0.4118 -0.2563
 2166ntf    fn411430   6.393   5.251   5.627  0.1557 -0.0279  0.2073
 2167ntf    cn111431   2.820   2.464   1.623  0.0350 -0.1633  0.2978
 2167ntf    sn211432   2.782   2.580   1.488 -0.1231 -0.3859  0.1524
 2167ntf    nn311433   2.653   2.659   1.529  0.1164  0.1896 -0.1967
 2167ntf    sn211434   2.556   2.727   1.425 -0.2761 -0.0158  0.0322
 2167ntf    cn111435   2.413   2.614   1.424 -0.1994 -0.1179  0.3292
 2167ntf    fn411436   2.808   2.521   1.743  0.4374  0.1929  0.1719
 2167ntf    fn411437   2.742   2.358   1.616 -0.4164  0.1886 -0.0459
 2167ntf    fn411438   2.945   2.422   1.623 -0.1589 -0.7425 -0.3458
 2167ntf    on511439   2.897   2.665   1.477 -0.0764 -0.3837  0.6406
 2167ntf    on511440   2.763   2.488   1.379 -0.8295  0.0295 -0.0839
 2167ntf    on511441   2.604   2.724   1.289 -0.2566 -0.4293  0.0470
 2167ntf    on511442   2.492   2.850   1.463 -0.2191  0.0856 -0.2002
 2167ntf    fn411443   2.436   2.487   1.393 -0.4496  0.0703 -0.6813
 2167ntf    fn411444   2.363   2.604   1.546 -0.0858 -0.1362  0.3741
 2167ntf    fn411445   2.316   2.662   1.349 -0.1363  0.1551  0.4208
 2168ntf    cn111446   4.907   5.754   3.669 -0.5948  0.1713 -0.1989
 2168ntf    sn211447   4.755   5.850   3.698 -0.6151  0.1004 -0.0683
 2168ntf    nn311448   4.670   5.734   3.760 -0.2112  0.1505  0.5913
 2168ntf    sn211449   4.574   5.631   3.690 -0.0896  0.2542  0.2719
 2168ntf    cn111450   4.416   5.720   3.696 -0.3475 -0.1638 -0.2229
 2168ntf    fn411451   5.011   5.825   3.629 -0.3157 -0.0043  0.2109
 2168ntf    fn411452   4.943   5.689   3.778  0.0248 -0.0162 -0.5164
 2168ntf    fn411453   4.887   5.666   3.573 -0.3042  0.1347 -0.2269
 2168ntf    on511454   4.786   5.960   3.787  0.1252  0.0674 -0.2824
 2168ntf    on511455   4.723   5.892   3.564  0.5141  0.7412 -0.1533
 2168ntf    on511456   4.557   5.515   3.774 -0.2124  0.3915  0.4371
 2168ntf    on511457   4.598   5.612   3.549 -0.6525  0.2619  0.1735
 2168ntf    fn411458   4.377   5.726   3.822 -0.4776 -0.3888 -0.2517
 2168ntf    fn411459   4.432   5.845   3.655 -0.2974 -0.0820  0.0409
 2168ntf    fn411460   4.324   5.666   3.618 -0.2545  0.0012 -0.4467
 2169ntf    cn111461   5.666   0.100   6.300  0.2819  0.0753  0.0375
 2169ntf    sn211462   5.805   0.027   6.393 -0.1597 -0.3897  0.3407
 2169ntf    nn311463   5.864   0.149   6.473 -0.4350  0.0366 -0.0945
 2169ntf    sn211464   5.952   0.157   6.603 -0.5874  0.0246  0.0096
 2169ntf    cn111465   5.840   0.229   6.728 -0.3872  0.3469  0.0043
 2169ntf    fn411466   5.701   0.166   6.192  0.1041 -0.1518 -0.1603
 2169ntf    fn411467   5.591   0.001   6.253  1.1068 -0.4553 -0.1778
 2169ntf    fn411468   5.587   0.185   6.364  0.4324 -0.1039  0.4692
 2169ntf    on511469   5.729  -0.064   6.475 -0.2001  0.1400  0.8986
 2169ntf    on511470   5.888  -0.026   6.288 -0.6270  0.1036 -0.2945
 2169ntf    on511471   6.056   0.256   6.590 -0.4340 -0.1181  0.1559
 2169ntf    on511472   5.986   0.032   6.666 -0.5322  0.2352  0.4020
 2169ntf    fn411473   5.894   0.268   6.842 -0.6371 -0.0526  0.2608
 2169ntf    fn411474   5.784   0.342   6.688 -0.3485  0.4343  0.1987
 2169ntf    fn411475   5.743   0.142   6.751  0.1573 -0.0852  0.6831
 2170ntf    cn111476   1.671   3.769   5.421  0.0165 -0.1614 -0.0885
 2170ntf    sn211477   1.698   3.701   5.254  0.2544 -0.2268 -0.0231
 2170ntf    nn311478   1.850   3.738   5.244  0.1111  0.4241  0.1071
 2170ntf    sn211479   1.944   3.746   5.118 -0.0082 -0.5453 -0.0560
 2170ntf    cn111480   1.962   3.924   5.085  0.2028 -0.5571 -0.0048
 2170ntf    fn411481   1.546   3.775   5.466  0.0479  0.9318 -0.1010
 2170ntf    fn411482   1.736   3.704   5.516 -0.1512  0.0851  0.1971
 2170ntf    fn411483   1.716   3.893   5.431 -0.0485 -0.1476  0.0278
 2170ntf    on511484   1.669   3.562   5.276  0.2262 -0.2874 -0.4349
 2170ntf    on511485   1.607   3.775   5.169  0.2519  0.9258  0.9482
 2170ntf    on511486   1.891   3.698   4.993 -0.1562  0.3081 -0.3306
 2170ntf    on511487   2.080   3.711   5.147  0.1465  0.0522 -0.0385
 2170ntf    fn411488   2.008   3.994   5.187  0.4961 -0.2419 -0.3514
 2170ntf    fn411489   2.042   3.943   4.981  0.2975  0.1411  0.1909
 2170ntf    fn411490   1.844   3.977   5.057  0.4025 -0.2806 -0.3268
 2171ntf    cn111491   3.547   3.523   1.415 -0.3057 -0.1500  0.1284
 2171ntf    sn211492   3.670   3.651   1.376 -0.2168 -0.1874  0.2863
 2171ntf    nn311493   3.702   3.618   1.226  0.0867  0.1591  0.2728
 2171ntf    sn211494   3.635   3.657   1.089  0.0933  0.1202  0.2586
 2171ntf    cn111495   3.547   3.509   1.029  0.1171  0.3003 -0.2229
 2171ntf    fn411496   3.442   3.524   1.335 -0.2178 -1.0258 -0.0129
 2171ntf    fn411497   3.607   3.405   1.409 -0.0271 -0.0569  0.9334
 2171ntf    fn411498   3.504   3.540   1.539  0.4307 -0.1043  0.3845
 2171ntf    on511499   3.604   3.776   1.404 -0.7380 -0.2308 -0.7471
 2171ntf    on511500   3.781   3.619   1.463  0.1146 -0.3815 -0.2046
 2171ntf    on511501   3.734   3.687   0.989 -0.2957  0.5173 -0.0080
 2171ntf    on511502   3.531   3.756   1.096 -0.1038 -0.1215  0.8264
 2171ntf    fn411503   3.622   3.416   0.972  0.0453 -0.2566  0.5858
 2171ntf    fn411504   3.486   3.448   1.129  0.5689 -0.4856 -0.4126
 2171ntf    fn411505   3.449   3.544   0.948 -0.1484  0.0132 -0.0282
 2172ntf    cn111506   4.014   4.589   0.619  0.3537 -0.1410  0.1384
 2172ntf    sn211507   3.966   4.488   0.475  0.3397 -0.2268  0.2029
 2172ntf    nn311508   3.969   4.595   0.360 -0.7214 -0.7656 -0.3409
 2172ntf    sn211509   4.018   4.581   0.212 -0.0868  0.3303 -0.2477
 2172ntf    cn111510   4.188   4.640   0.236  0.0362  0.0054 -0.3107
 2172ntf    fn411511   4.134   4.642   0.602  0.2103  0.0368 -0.3504
 2172ntf    fn411512   3.929   4.689   0.642  0.3907  0.0681 -0.6045
 2172ntf    fn411513   4.019   4.520   0.732  0.6214 -0.6616 -0.1862
 2172ntf    on511514   4.067   4.385   0.466  0.2606 -0.3101  0.2643
 2172ntf    on511515   3.830   4.449   0.504  0.1714  0.2868  0.1046
 2172ntf    on511516   3.963   4.676   0.118 -0.4380  0.0555 -0.3247
 2172ntf    on511517   4.037   4.445   0.166 -0.3945  0.1843  0.0470
 2172ntf    fn411518   4.192   4.765   0.278 -0.5622  0.0073 -0.2571
 2172ntf    fn411519   4.254   4.566   0.324 -0.1348  0.2712  0.0470
 2172ntf    fn411520   4.259   4.641   0.125  0.1458 -0.3864 -0.2463
 2173ntf    cn111521   3.456   4.489   1.026  0.0880 -0.4961  0.1356
 2173ntf    sn211522   3.635   4.520   1.016  0.0489 -0.2733  0.1029
 2173ntf    nn311523   3.683   4.391   1.091  0.0638 -0.4113 -0.1401
 2173ntf    sn211524   3.730   4.370   1.240  0.1643 -0.2555 -0.1492
 2173ntf    cn111525   3.909   4.391   1.215  0.2305 -0.4420  0.1603
 2173ntf    fn411526   3.393   4.598   0.984  0.1088 -0.7078 -0.4651
 2173ntf    fn411527   3.411   4.385   0.957 -0.5430 -0.0152 -0.1951
 2173ntf    fn411528   3.413   4.468   1.149 -0.5496 -0.1902 -0.0261
 2173ntf    on511529   3.660   4.515   0.874 -0.0067 -0.4336  0.0977
 2173ntf    on511530   3.647   4.643   1.089 -0.2803 -0.1767 -0.0011
 2173ntf    on511531   3.720   4.232   1.279 -0.0994 -0.3079 -0.3985
 2173ntf    on511532   3.678   4.468   1.332 -0.2554 -0.5990 -0.0174
 2173ntf    fn411533   3.941   4.508   1.161 -0.7211 -0.1847  0.1361
 2173ntf    fn411534   3.967   4.393   1.333  0.7062 -0.1953 -0.0747
 2173ntf    fn411535   3.968   4.296   1.144  0.7516  0.0249 -0.0331
 2174ntf    cn111536   5.199   1.913   0.502  0.2843  0.4605  0.1449
 2174ntf    sn211537   5.283   1.847   0.355 -0.1650  0.3684 -0.0712
 2174ntf    nn311538   5.236   1.697   0.346  0.2650  0.2385 -0.1874
 2174ntf    sn211539   5.310   1.576   0.412 -0.1263  0.1725  0.1302
 2174ntf    cn111540   5.239   1.438   0.318  0.0086  0.0440  0.2167
 2174ntf    fn411541   5.228   2.041   0.516  0.0663  0.3830  1.4850
 2174ntf    fn411542   5.069   1.895   0.496  0.3484 -0.1185  0.4271
 2174ntf    fn411543   5.245   1.856   0.612  0.3362  0.3120  0.0459
 2174ntf    on511544   5.221   1.927   0.253 -0.4615  0.1164 -0.0908
 2174ntf    on511545   5.418   1.886   0.387 -0.1133  0.1918 -0.0747
 2174ntf    on511546   5.255   1.560   0.545 -0.2160 -0.2256  0.0466
 2174ntf    on511547   5.453   1.567   0.399 -0.2603 -0.6214 -0.9020
 2174ntf    fn411548   5.271   1.317   0.361 -0.1333 -0.4838 -1.1017
 2174ntf    fn411549   5.107   1.444   0.327  0.0194  0.1639  0.2863
 2174ntf    fn411550   5.284   1.442   0.193 -0.4454  0.5472  0.0678
 2175ntf    cn111551   6.272   2.913   2.417  0.1566 -0.0279 -0.2406
 2175ntf    sn211552   6.366   2.982   2.557 -0.2062 -0.0663  0.0226
 2175ntf    nn311553   6.398   3.120   2.489 -0.0479 -0.2778 -0.3388
 2175ntf    sn211554   6.396   3.262   2.556 -0.4072 -0.4731  0.0694
 2175ntf    cn111555   6.537   3.235   2.669 -0.3698 -0.0171  0.1338
 2175ntf    fn411556   6.227   2.794   2.453 -0.0211  0.1886  0.2690
 2175ntf    fn411557   6.164   2.988   2.400 -0.1175 -0.1828  0.7559
 2175ntf    fn411558   6.335   2.897   2.302  0.0534 -0.5626 -0.2235
 2175ntf    on511559   6.264   2.973   2.659 -0.0486 -0.1289  0.1748
 2175ntf    on511560   6.486   2.903   2.564  0.2929  0.6655 -0.1793
 2175ntf    on511561   6.284   3.289   2.643 -0.3536 -0.4954  0.1459
 2175ntf    on511562   6.444   3.366   2.469 -0.1843 -0.7105 -0.0930
 2175ntf    fn411563   6.573   3.350   2.724 -0.6764  0.2966 -0.3062
 2175ntf    fn411564   6.488   3.156   2.763 -0.3570 -0.1990 -0.0119
 2175ntf    fn411565   6.640   3.174   2.613  0.1185  0.3885  0.5780
 2176ntf    cn111566   6.894   3.453   4.155  0.3026  0.0278 -0.1213
 2176ntf    sn211567   7.068   3.506   4.163  0.2804  0.0758  0.0471
 2176ntf    nn311568   7.089   3.504   4.319  0.5580  0.4688  0.0163
 2176ntf    sn211569   7.074   3.619   4.424 -0.1111 -0.0299  0.4698
 2176ntf    cn111570   6.926   3.544   4.500 -0.0652 -0.4106  0.1837
 2176ntf    fn411571   6.852   3.436   4.031  0.3362 -0.0989 -0.1152
 2176ntf    fn411572   6.874   3.335   4.210  0.2957 -0.1297 -0.4605
 2176ntf    fn411573   6.816   3.541   4.215 -0.0721  0.0360 -0.6139
 2176ntf    on511574   7.137   3.400   4.095 -0.0572 -0.3439  0.3494
 2176ntf    on511575   7.073   3.637   4.102 -0.3052 -0.1472 -0.4886
 2176ntf    on511576   7.036   3.750   4.378  0.2930 -0.1187 -0.1327
 2176ntf    on511577   7.172   3.617   4.529 -0.3086 -0.3876  0.6491
 2176ntf    fn411578   6.816   3.582   4.438 -0.0584 -0.1174  0.3519
 2176ntf    fn411579   6.934   3.412   4.498 -0.1556 -0.4140  0.0401
 2176ntf    fn411580   6.919   3.581   4.627  0.1403 -0.3003  0.1636
 2177ntf    cn111581   3.517   4.852   2.932  0.1124 -0.0106 -0.3139
 2177ntf    sn211582   3.389   4.963   2.866 -0.3032 -0.4066 -0.1780
 2177ntf    nn311583   3.420   4.952   2.713 -0.3946  0.4321 -0.2610
 2177ntf    sn211584   3.355   4.856   2.608  0.1823 -0.2873  0.0318
 2177ntf    cn111585   3.177   4.894   2.618  0.1908 -0.1105 -0.4791
 2177ntf    fn411586   3.510   4.832   3.063 -0.2404  0.0693 -0.3178
 2177ntf    fn411587   3.507   4.734   2.873  0.4231 -0.3625  0.3189
 2177ntf    fn411588   3.641   4.887   2.904  0.2708 -0.3516 -0.0462
 2177ntf    on511589   3.258   4.922   2.911 -0.2278 -0.0357  0.3898
 2177ntf    on511590   3.428   5.093   2.914 -1.0432 -0.3788  0.3794
 2177ntf    on511591   3.356   4.716   2.643  0.6815 -0.3079 -0.0638
 2177ntf    on511592   3.382   4.888   2.470  0.0942 -0.4188 -0.0167
 2177ntf    fn411593   3.118   4.840   2.723 -0.2621  0.4130 -0.4642
 2177ntf    fn411594   3.158   5.024   2.628 -0.8022 -0.2602 -0.3283
 2177ntf    fn411595   3.102   4.854   2.517  0.1681  0.0052 -0.5085
 2178ntf    cn111596   1.345   6.861   1.543  0.2573  0.2982 -0.2286
 2178ntf    sn211597   1.364   6.737   1.411 -0.0690 -0.0304  0.0312
 2178ntf    nn311598   1.243   6.642   1.445 -0.2518  0.2004  0.0294
 2178ntf    sn211599   1.233   6.489   1.412  0.2121  0.1444  0.1373
 2178ntf    cn111600   1.091   6.485   1.298  0.1825 -0.1166  0.1835
 2178ntf    fn411601   1.454   6.933   1.565  0.2373  0.3148 -0.1854
 2178ntf    fn411602   1.243   6.943   1.525 -0.1106 -0.1624 -0.2714
 2178ntf    fn411603   1.319   6.791   1.652 -0.4588  0.5550 -0.2327
 2178ntf    on511604   1.343   6.807   1.287  0.6500  0.2988  0.0902
 2178ntf    on511605   1.494   6.680   1.435 -0.2590 -0.7462 -0.5991
 2178ntf    on511606   1.185   6.407   1.521  0.3744  0.8009  0.7143
 2178ntf    on511607   1.328   6.421   1.328  0.4428  0.3946  0.1932
 2178ntf    fn411608   1.107   6.551   1.185  0.0888 -0.1057  0.1771
 2178ntf    fn411609   1.058   6.362   1.261  0.2091 -0.0015 -0.2301
 2178ntf    fn411610   0.980   6.528   1.355  0.0655 -0.2920  0.0851
 2179ntf    cn111611   1.561   1.693   3.087 -0.1621 -0.1114 -0.3824
 2179ntf    sn211612   1.381   1.697   3.059 -0.2357  0.1678  0.0985
 2179ntf    nn311613   1.379   1.665   2.905  0.3604  0.2389  0.0748
 2179ntf    sn211614   1.352   1.760   2.783  0.0798  0.1698  0.0832
 2179ntf    cn111615   1.170   1.765   2.776  0.1208  0.8024 -0.6710
 2179ntf    fn411616   1.597   1.676   3.213 -0.0355 -0.4943 -0.4710
 2179ntf    fn411617   1.612   1.589   3.024 -0.2838 -0.4693  0.1030
 2179ntf    fn411618   1.614   1.807   3.046 -0.7227  0.3929  0.2535
 2179ntf    on511619   1.333   1.588   3.140  0.0612  0.5031  0.7254
 2179ntf    on511620   1.349   1.827   3.111 -0.2448  0.1700  0.0881
 2179ntf    on511621   1.394   1.698   2.660  0.2013  0.1364  0.1409
 2179ntf    on511622   1.379   1.901   2.800  0.3142  0.1839 -0.4014
 2179ntf    fn411623   1.116   1.842   2.684 -0.5917  0.7456 -0.3088
 2179ntf    fn411624   1.116   1.645   2.758  0.0099  0.6066  0.8339
 2179ntf    fn411625   1.115   1.811   2.887  0.1300 -0.6892 -0.0265
 2180ntf    cn111626   3.024   6.472   4.299  0.2855  0.0704 -0.2318
 2180ntf    sn211627   2.913   6.349   4.224  0.0064 -0.0571  0.3865
 2180ntf    nn311628   2.786   6.373   4.313 -0.0665 -0.0591  0.2829
 2180ntf    sn211629   2.666   6.473   4.294  0.3551  0.4156  0.0969
 2180ntf    cn111630   2.555   6.395   4.173  0.0067  0.5402  0.3372
 2180ntf    fn411631   3.064   6.428   4.417  0.1284 -0.2551 -0.2985
 2180ntf    fn411632   3.135   6.489   4.228  0.4465  0.5698  0.1397
 2180ntf    fn411633   2.968   6.590   4.319 -0.6246 -0.3963  0.0151
 2180ntf    on511634   2.903   6.390   4.086  0.0348 -0.2615  0.3231
 2180ntf    on511635   2.973   6.220   4.243  0.0195 -0.1764 -0.4115
 2180ntf    on511636   2.700   6.601   4.237  0.2098  0.3831 -0.0626
 2180ntf    on511637   2.575   6.475   4.406  0.0516 -0.2985 -0.1277
 2180ntf    fn411638   2.611   6.369   4.057 -0.1672  0.1892  0.3304
 2180ntf    fn411639   2.501   6.284   4.221  0.2958  0.1734 -0.1822
 2180ntf    fn411640   2.461   6.483   4.143 -0.3455  0.0167 -0.1242
 2181ntf    cn111641   6.142   3.532   0.653  0.2940  0.3501 -0.1443
 2181ntf    sn211642   6.257   3.494   0.789  0.2661  0.0591 -0.2022
 2181ntf    nn311643   6.144   3.471   0.895  0.3368  0.3095 -0.0733
 2181ntf    sn211644   6.085   3.558   1.012  0.0779  0.1625 -0.0950
 2181ntf    cn111645   6.145   3.456   1.150 -0.0209  0.0173 -0.1593
 2181ntf    fn411646   6.075   3.423   0.623  0.3638  0.1157  0.5390
 2181ntf    fn411647   6.055   3.630   0.675  0.1741  0.2124 -0.0017
 2181ntf    fn411648   6.207   3.566   0.543 -0.0329  0.3039 -0.3536
 2181ntf    on511649   6.322   3.372   0.749 -0.1085 -0.3854  0.5195
 2181ntf    on511650   6.345   3.608   0.803  0.2066  0.1701 -0.7121
 2181ntf    on511651   5.942   3.536   1.021  0.1417 -0.1283  0.2024
 2181ntf    on511652   6.140   3.691   1.025  0.3141  0.0665 -0.1162
 2181ntf    fn411653   6.275   3.466   1.170 -0.0232 -0.6422  0.2203
 2181ntf    fn411654   6.084   3.488   1.263  0.0827  0.3050 -0.1842
 2181ntf    fn411655   6.124   3.326   1.139 -0.1547 -0.0228  0.5490
 2182ntf    cn111656   5.434   4.037   6.881  0.1341  0.5485  0.1647
 2182ntf    sn211657   5.284   4.062   6.980 -0.1562  0.1440 -0.1708
 2182ntf    nn311658   5.207   4.124   6.858 -0.1266  0.6014  0.0443
 2182ntf    sn211659   5.138   4.264   6.839 -0.2964  0.4735 -0.2936
 2182ntf    cn111660   5.283   4.373   6.827 -0.0744  0.2042 -0.0677
 2182ntf    fn411661   5.533   3.976   6.944 -0.2783 -0.0039  0.2801
 2182ntf    fn411662   5.408   3.965   6.773  0.1334  0.2818  0.3422
 2182ntf    fn411663   5.483   4.154   6.844  0.4372  0.4584  0.2714
 2182ntf    on511664   5.233   3.934   7.024 -0.1089  0.2049  0.0620
 2182ntf    on511665   5.322   4.158   7.079 -0.2582 -0.1847  0.1898
 2182ntf    on511666   5.069   4.309   6.958  0.2700 -0.3117  0.3492
 2182ntf    on511667   5.064   4.276   6.716 -0.3729  0.0750 -0.2886
 2182ntf    fn411668   5.370   4.340   6.733  0.2264  0.2247  0.2035
 2182ntf    fn411669   5.241   4.497   6.813 -0.2783  0.1628  0.1733
 2182ntf    fn411670   5.362   4.370   6.933 -0.0489  0.1854 -0.0866
 2183ntf    cn111671   3.427   0.875   5.490 -0.0556 -0.1101  0.1373
 2183ntf    sn211672   3.356   0.710   5.521  0.1694 -0.2852 -0.2750
 2183ntf    nn311673   3.478   0.616   5.493  0.0200 -0.4215 -0.4761
 2183ntf    sn211674   3.571   0.542   5.596 -0.1414  0.1354  0.0730
 2183ntf    cn111675   3.509   0.372   5.607 -0.1194  0.1389  0.2683
 2183ntf    fn411676   3.484   0.879   5.371  0.1802 -0.2076  0.2467
 2183ntf    fn411677   3.332   0.965   5.509  0.2712  0.2178  0.2268
 2183ntf    fn411678   3.522   0.893   5.581 -0.2007 -0.0412  0.2757
 2183ntf    on511679   3.310   0.721   5.657  0.4180 -0.2538 -0.1931
 2183ntf    on511680   3.246   0.700   5.428 -0.1535  0.2213  0.0466
 2183ntf    on511681   3.579   0.590   5.732  0.3810  0.0489  0.0745
 2183ntf    on511682   3.699   0.522   5.531 -0.3078  0.1682 -0.2662
 2183ntf    fn411683   3.496   0.316   5.487 -0.1588  0.3864  0.1565
 2183ntf    fn411684   3.575   0.298   5.694  0.4344 -0.0633 -0.3157
 2183ntf    fn411685   3.381   0.375   5.642 -0.3289 -0.3509 -0.4305
 2184ntf    cn111686   0.027   1.503   5.413  0.2612  0.0843 -0.2575
 2184ntf    sn211687  -0.066   1.436   5.553  0.2527  0.3566 -0.1318
 2184ntf    nn311688   0.057   1.384   5.636  0.2928  0.0589 -0.3763
 2184ntf    sn211689   0.141   1.450   5.752  0.0505  0.1423 -0.2486
 2184ntf    cn111690   0.071   1.378   5.904 -0.0882  0.8676  0.0308
 2184ntf    fn411691   0.106   1.411   5.358  0.4866 -0.0145  0.2280
 2184ntf    fn411692  -0.039   1.556   5.312 -0.3743 -0.2278 -0.0070
 2184ntf    fn411693   0.114   1.595   5.453 -0.0094  0.2470 -0.0468
 2184ntf    on511694  -0.134   1.551   5.608 -0.1044 -0.2452  0.7158
 2184ntf    on511695  -0.151   1.337   5.492 -0.1517  0.8368 -0.3503
 2184ntf    on511696   0.129   1.592   5.771 -0.1873  0.1562 -0.4915
 2184ntf    on511697   0.275   1.397   5.752  0.1118  0.2927 -0.7048
 2184ntf    fn411698  -0.061   1.385   5.903 -0.1375 -0.0091  0.1712
 2184ntf    fn411699   0.101   1.250   5.914 -0.0231  0.8726 -0.0902
 2184ntf    fn411700   0.115   1.426   6.019  0.2559 -0.1508  0.3276
 2185ntf    cn111701   5.137   5.296   4.906  0.1217  0.1490  0.1862
 2185ntf    sn211702   5.241   5.214   5.031 -0.1753 -0.6659 -0.0956
 2185ntf    nn311703   5.362   5.173   4.941  0.0393  0.0825 -0.1567
 2185ntf    sn211704   5.512   5.218   4.933 -0.0217  0.3654  0.2841
 2185ntf    cn111705   5.589   5.056   4.964 -0.0808  0.3060  0.1234
 2185ntf    fn411706   5.049   5.379   4.961 -0.2046 -0.0011 -0.1076
 2185ntf    fn411707   5.217   5.373   4.834 -0.4392  0.4281 -0.1441
 2185ntf    fn411708   5.084   5.206   4.825  0.3329  0.3596 -0.1905
 2185ntf    on511709   5.268   5.321   5.124  0.0806 -0.3480 -0.5290
 2185ntf    on511710   5.172   5.097   5.078  0.0416 -0.8444 -0.2227
 2185ntf    on511711   5.560   5.306   5.037 -0.4387  0.0696  0.7286
 2185ntf    on511712   5.546   5.250   4.796 -0.0127 -0.2002  0.1507
 2185ntf    fn411713   5.571   5.022   5.091 -0.1286  0.0222  0.0386
 2185ntf    fn411714   5.529   4.961   4.894  0.3951 -0.2448  0.4563
 2185ntf    fn411715   5.719   5.052   4.938 -0.1362  0.2578 -0.1495
 2186ntf    cn111716   6.376   0.982   4.783 -0.2744 -0.0551  0.5909
 2186ntf    sn211717   6.355   0.873   4.927 -0.0643 -0.0490  0.6264
 2186ntf    nn311718   6.436   0.747   4.882 -0.1665 -0.2311  0.9453
 2186ntf    sn211719   6.479   0.631   4.978  0.0714 -0.4277  0.6060
 2186ntf    cn111720   6.658   0.662   4.980 -0.0646  0.4163 -0.0899
 2186ntf    fn411721   6.503   1.009   4.759 -0.1950 -0.7326  0.2120
 2186ntf    fn411722   6.329   0.919   4.677 -0.2503  0.2456  0.4005
 2186ntf    fn411723   6.314   1.098   4.789  0.1230  0.1732  0.3221
 2186ntf    on511724   6.430   0.944   5.028 -0.4706  0.2646  0.7109
 2186ntf    on511725   6.212   0.863   4.943 -0.1992 -0.3881 -0.6935
 2186ntf    on511726   6.467   0.500   4.918  0.9069 -0.1074 -0.2804
 2186ntf    on511727   6.441   0.647   5.116 -0.3311  0.6858  0.3753
 2186ntf    fn411728   6.716   0.628   5.094 -0.0237  0.3703 -0.1245
 2186ntf    fn411729   6.723   0.587   4.893  0.3667 -0.2113  0.7619
 2186ntf    fn411730   6.693   0.788   4.960  0.6433  0.2303 -0.0363
 2187ntf    cn111731   2.181   1.853   1.922 -0.1105  0.2689  0.1017
 2187ntf    sn211732   2.241   1.889   2.090 -0.1100  0.3204  0.0906
 2187ntf    nn311733   2.357   1.986   2.047 -0.1034  0.1534 -0.2749
 2187ntf    sn211734   2.416   2.111   2.121 -0.0293 -0.2367  0.3296
 2187ntf    cn111735   2.583   2.049   2.156  0.1014 -0.1580 -0.1468
 2187ntf    fn411736   2.104   1.746   1.911  0.4628 -0.1428  0.0967
 2187ntf    fn411737   2.109   1.955   1.877  0.5359  0.6258 -0.1311
 2187ntf    fn411738   2.282   1.835   1.839  0.1084  0.6267  0.2890
 2187ntf    on511739   2.125   1.955   2.144 -0.1541  0.1761  0.1726
 2187ntf    on511740   2.287   1.762   2.139  0.6298  0.5120 -0.0876
 2187ntf    on511741   2.354   2.137   2.249 -0.4904  0.5186 -0.0397
 2187ntf    on511742   2.433   2.229   2.040 -0.6382 -0.3837 -0.0183
 2187ntf    fn411743   2.646   2.021   2.043 -0.0795  0.1240 -0.3182
 2187ntf    fn411744   2.659   2.142   2.212 -0.1384 -0.1196  0.1149
 2187ntf    fn411745   2.587   1.943   2.236 -0.0246 -0.4172 -0.4831
 2188ntf    cn111746   5.057   3.453   5.144  0.1111 -0.0688  0.4021
 2188ntf    sn211747   4.961   3.606   5.170  0.0788 -0.0044 -0.0996
 2188ntf    nn311748   5.040   3.699   5.071 -0.1872 -0.1398 -0.4421
 2188ntf    sn211749   4.979   3.763   4.942 -0.1091  0.2316 -0.2959
 2188ntf    cn111750   4.989   3.629   4.820 -0.3270  0.1650 -0.2409
 2188ntf    fn411751   5.187   3.463   5.168  0.1736 -0.2991  0.1503
 2188ntf    fn411752   5.011   3.348   5.210 -0.0867 -0.1162  0.1882
 2188ntf    fn411753   5.046   3.421   5.017  0.2759 -0.1856  0.4164
 2188ntf    on511754   4.827   3.572   5.129 -0.1555  0.1540  0.5285
 2188ntf    on511755   4.987   3.641   5.307 -0.2245 -0.3644  0.0531
 2188ntf    on511756   5.069   3.864   4.891  0.4248 -0.0527  0.0794
 2188ntf    on511757   4.839   3.799   4.952 -0.0981  0.1019  0.3095
 2188ntf    fn411758   4.916   3.525   4.857 -0.1861  0.0668 -0.2353
 2188ntf    fn411759   4.947   3.658   4.698  0.2640  0.5394 -0.3577
 2188ntf    fn411760   5.113   3.588   4.799 -0.4230 -0.3775  0.2242
 2189ntf    cn111761   1.162   5.326   1.043  0.2639 -0.3300 -0.3356
 2189ntf    sn211762   1.337   5.293   1.006  0.4468  0.1835  0.0672
 2189ntf    nn311763   1.391   5.244   1.145  0.0732 -0.5356 -0.0389
 2189ntf    sn211764   1.440   5.336   1.262  0.1655 -0.3354 -0.2336
 2189ntf    cn111765   1.610   5.368   1.206  0.2648 -0.0372  0.2249
 2189ntf    fn411766   1.144   5.439   1.110  0.4370 -0.6093  0.1889
 2189ntf    fn411767   1.088   5.353   0.936  0.4347  0.6078 -0.2239
 2189ntf    fn411768   1.108   5.226   1.110  0.0972  0.1144  0.1969
 2189ntf    on511769   1.339   5.176   0.922  0.0974  0.3509 -0.1762
 2189ntf    on511770   1.399   5.411   0.951  0.4687 -0.0421 -0.3925
 2189ntf    on511771   1.467   5.258   1.381  0.6520 -0.3754 -0.3696
 2189ntf    on511772   1.375   5.463   1.281 -0.1256 -0.4602 -0.3924
 2189ntf    fn411773   1.675   5.262   1.162  0.4623 -0.1020  0.6798
 2189ntf    fn411774   1.617   5.449   1.101  0.5414  0.1051  0.3547
 2189ntf    fn411775   1.685   5.424   1.298  0.4890  0.3589 -0.1943
 2190ntf    cn111776   4.795   6.218   1.714 -0.3352  0.0087 -0.2557
 2190ntf    sn211777   4.689   6.362   1.747 -0.1234  0.0185  0.3821
 2190ntf    nn311778   4.645   6.340   1.896  0.3893  0.8434  0.6637
 2190ntf    sn211779   4.522   6.264   1.957  0.3696  0.2905 -0.0471
 2190ntf    cn111780   4.392   6.390   1.967  0.0865 -0.0060  0.0213
 2190ntf    fn411781   4.906   6.226   1.785 -0.5716  0.2529  0.0905
 2190ntf    fn411782   4.735   6.104   1.745  0.3956 -0.4216 -0.4136
 2190ntf    fn411783   4.837   6.208   1.589 -0.0590  0.0512 -0.1672
 2190ntf    on511784   4.770   6.481   1.740 -0.4167  0.2038  0.1538
 2190ntf    on511785   4.580   6.358   1.653  0.0459 -0.1363  0.1904
 2190ntf    on511786   4.539   6.230   2.096  0.0909 -0.1216 -0.1117
 2190ntf    on511787   4.470   6.161   1.871 -0.3137  0.6123 -0.0285
 2190ntf    fn411788   4.288   6.339   2.031  0.3378 -0.8205 -0.2143
 2190ntf    fn411789   4.426   6.499   2.034  0.3968  0.1551 -0.4002
 2190ntf    fn411790   4.356   6.425   1.845 -0.3355 -0.5321 -0.0086
 2191ntf    cn111791   3.537   2.223   1.140  0.4326  0.0954  0.4191
 2191ntf    sn211792   3.663   2.149   1.032 -0.0459  0.1105 -0.1561
 2191ntf    nn311793   3.588   2.015   1.002 -0.5096  0.2276  0.4597
 2191ntf    sn211794   3.507   1.985   0.871  0.0922  0.4025  0.0469
 2191ntf    cn111795   3.380   1.875   0.940  0.1390  0.1629 -0.2465
 2191ntf    fn411796   3.592   2.312   1.222  0.5465  0.1545  0.2784
 2191ntf    fn411797   3.437   2.283   1.077 -0.0793 -1.0199  0.1527
 2191ntf    fn411798   3.482   2.125   1.210 -0.0920  0.3038  0.3009
 2191ntf    on511799   3.668   2.242   0.922  0.0570  0.5123  0.1846
 2191ntf    on511800   3.783   2.125   1.109 -0.3236 -0.6645  0.0442
 2191ntf    on511801   3.580   1.905   0.776  0.2519 -0.0587  0.5535
 2191ntf    on511802   3.420   2.093   0.834 -0.1454  0.2565  0.1767
 2191ntf    fn411803   3.309   1.938   1.031  0.7193  0.2857  0.1242
 2191ntf    fn411804   3.295   1.847   0.842 -0.4343  0.6728  0.1004
 2191ntf    fn411805   3.428   1.766   0.998 -0.3235  0.5086  0.8104
 2192ntf    cn111806   3.501   6.846   4.937 -0.7009 -0.3098 -0.2772
 2192ntf    sn211807   3.430   6.993   4.857 -0.2705 -0.1180 -0.3133
 2192ntf    nn311808   3.298   7.012   4.940  0.0143  0.4161  0.0235
 2192ntf    sn211809   3.149   6.979   4.899 -0.0186  0.5285  0.0513
 2192ntf    cn111810   3.119   7.068   4.743 -0.1360  0.0283 -0.2129
 2192ntf    fn411811   3.567   6.867   5.050  0.0793 -0.3464 -0.7183
 2192ntf    fn411812   3.414   6.752   4.970 -0.3339 -0.3973  0.4706
 2192ntf    fn411813   3.593   6.788   4.861 -0.1505  0.1411  0.0388
 2192ntf    on511814   3.522   7.098   4.891 -0.2942 -0.0649 -0.4136
 2192ntf    on511815   3.429   6.969   4.715  0.0773 -0.0775 -0.3224
 2192ntf    on511816   3.069   7.054   4.992  0.2763 -0.0242  0.7581
 2192ntf    on511817   3.123   6.841   4.870  0.1420  0.4775  0.1475
 2192ntf    fn411818   2.993   7.075   4.703 -0.1947  0.3129  0.0135
 2192ntf    fn411819   3.166   7.192   4.747 -0.3220  0.1032 -0.3623
 2192ntf    fn411820   3.184   7.015   4.641  0.2115  0.0308  0.0050
 2193ntf    cn111821   2.934   1.052   2.051  0.2722 -0.0398 -0.5368
 2193ntf    sn211822   2.755   1.060   2.079  0.3190 -0.1538 -0.2095
 2193ntf    nn311823   2.706   1.097   1.935 -0.1025  0.0253 -0.0220
 2193ntf    sn211824   2.584   1.041   1.854 -0.0477 -0.0722 -0.0381
 2193ntf    cn111825   2.670   0.936   1.734  0.1813 -0.1788  0.2172
 2193ntf    fn411826   2.996   1.042   2.167 -0.1580  0.0623 -0.2984
 2193ntf    fn411827   2.980   0.956   1.972 -0.1870 -0.2043 -0.6050
 2193ntf    fn411828   2.981   1.162   1.993 -0.0067  0.5583  0.3460
 2193ntf    on511829   2.723   0.926   2.124 -0.6133  0.1839  0.1618
 2193ntf    on511830   2.739   1.164   2.177 -0.5054 -0.5929  0.1324
 2193ntf    on511831   2.531   1.144   1.767  0.3672  0.5996  0.4917
 2193ntf    on511832   2.497   0.950   1.924 -0.0567  0.0504  0.1118
 2193ntf    fn411833   2.758   1.006   1.663 -0.4685  0.5347  0.1029
 2193ntf    fn411834   2.741   0.840   1.791  0.2278 -0.3728 -0.1584
 2193ntf    fn411835   2.586   0.874   1.653 -0.0152  0.0078  0.2779
 2194ntf    cn111836   5.953   5.077   4.537  0.0509 -0.4622  0.0484
 2194ntf    sn211837   6.119   5.047   4.468  0.1415  0.2411 -0.0492
 2194ntf    nn311838   6.115   4.891   4.450  0.6505  0.2316 -0.0747
 2194ntf    sn211839   6.149   4.796   4.330  0.1914  0.0706 -0.0751
 2194ntf    cn111840   6.015   4.856   4.223  0.3205 -0.0919 -0.3264
 2194ntf    fn411841   5.946   5.036   4.663 -0.0420  0.0731  0.2226
 2194ntf    fn411842   5.929   5.207   4.545  0.5604 -0.3331 -0.4787
 2194ntf    fn411843   5.853   5.017   4.476  0.1094  0.0241 -0.5431
 2194ntf    on511844   6.122   5.125   4.346  0.1276  0.5186  0.1267
 2194ntf    on511845   6.207   5.077   4.578 -0.0040 -1.0252  0.4280
 2194ntf    on511846   6.111   4.660   4.359  0.4939  0.0480  0.2213
 2194ntf    on511847   6.276   4.817   4.266  0.4927 -0.1914  0.4297
 2194ntf    fn411848   6.053   4.951   4.138  0.2615  0.0953 -0.1445
 2194ntf    fn411849   5.970   4.762   4.141  0.0802  0.0254 -0.3302
 2194ntf    fn411850   5.910   4.906   4.285  0.5178  0.1368 -0.1762
 2195ntf    cn111851   6.170   5.538   3.281  0.1190 -0.0614 -0.0483
 2195ntf    sn211852   6.091   5.386   3.343  0.0245 -0.0619 -0.1696
 2195ntf    nn311853   6.036   5.428   3.484 -0.0358 -0.5772 -0.0385
 2195ntf    sn211854   5.913   5.523   3.510  0.1743 -0.2871 -0.1058
 2195ntf    cn111855   5.778   5.403   3.521  0.0471 -0.0954  0.4140
 2195ntf    fn411856   6.257   5.580   3.372 -0.5663 -0.1950  0.6777
 2195ntf    fn411857   6.241   5.519   3.171  0.0798 -0.5924  0.0169
 2195ntf    fn411858   6.091   5.638   3.247  0.3500  0.0357 -0.3080
 2195ntf    on511859   6.000   5.347   3.238 -0.3966 -0.0547  0.1928
 2195ntf    on511860   6.201   5.299   3.375  0.5133  0.7938  0.5370
 2195ntf    on511861   5.874   5.605   3.398 -0.0301  0.1898  0.3139
 2195ntf    on511862   5.915   5.577   3.643  0.1991  0.0468 -0.2398
 2195ntf    fn411863   5.662   5.467   3.525  0.4375  0.6675 -0.2032
 2195ntf    fn411864   5.775   5.330   3.411  0.4581  0.2900  0.1445
 2195ntf    fn411865   5.789   5.319   3.623  0.3636 -0.4503  0.0928
 2196ntf    cn111866   4.807   1.495   3.283 -0.1535 -0.0341  0.4314
 2196ntf    sn211867   4.900   1.421   3.146 -0.3021  0.2464  0.1795
 2196ntf    nn311868   4.949   1.548   3.066 -0.0308  0.0292 -0.0018
 2196ntf    sn211869   5.067   1.640   3.112  0.0063 -0.0389  0.0403
 2196ntf    cn111870   5.195   1.543   3.026  0.2487  0.5192 -0.2398
 2196ntf    fn411871   4.716   1.582   3.245 -0.1907 -0.0473  0.4906
 2196ntf    fn411872   4.740   1.390   3.328  0.1892 -0.4670 -0.0589
 2196ntf    fn411873   4.873   1.548   3.385  0.1695  0.1746  0.1147
 2196ntf    on511874   5.005   1.341   3.203 -0.6315 -0.3249 -0.0140
 2196ntf    on511875   4.803   1.350   3.067  0.0923 -0.5376  0.3933
 2196ntf    on511876   5.102   1.644   3.252 -0.3825 -0.7795  0.1601
 2196ntf    on511877   5.089   1.761   3.036 -0.9036  0.2713  0.2537
 2196ntf    fn411878   5.155   1.512   2.904 -0.6203 -0.1498  0.2049
 2196ntf    fn411879   5.318   1.591   3.019  0.3958  0.2128  0.1632
 2196ntf    fn411880   5.219   1.425   3.081 -0.3662  0.3762 -0.2639
 2197ntf    cn111881   3.259   4.232   2.145 -0.6574 -0.4032 -0.3535
 2197ntf    sn211882   3.355   4.128   2.259 -0.1715  0.2543 -0.1574
 2197ntf    nn311883   3.244   4.023   2.294  0.1044  0.2677  0.7717
 2197ntf    sn211884   3.271   3.870   2.316 -0.0061  0.1550  0.1345
 2197ntf    cn111885   3.216   3.800   2.158  0.3006  0.0125  0.0908
 2197ntf    fn411886   3.334   4.333   2.102 -0.5143 -0.5702 -0.4992
 2197ntf    fn411887   3.206   4.166   2.043 -0.5141 -0.5750 -0.3166
 2197ntf    fn411888   3.156   4.283   2.211 -0.1040  0.6074 -0.2454
 2197ntf    on511889   3.459   4.088   2.166 -0.0346 -0.1552  0.1722
 2197ntf    on511890   3.400   4.206   2.372  0.3138 -0.4240  0.1214
 2197ntf    on511891   3.187   3.815   2.420 -0.1984  0.0632 -0.0691
 2197ntf    on511892   3.411   3.835   2.320  0.0498  0.3315 -0.2312
 2197ntf    fn411893   3.089   3.829   2.137  0.1380 -0.6094  0.1690
 2197ntf    fn411894   3.283   3.851   2.056 -0.0467  0.1795 -0.0540
 2197ntf    fn411895   3.219   3.667   2.153  1.1793  0.0189  0.2128
 2198ntf    cn111896   4.454   6.403   3.169 -0.0846 -0.4146  0.2678
 2198ntf    sn211897   4.613   6.382   3.083 -0.2108  0.1136 -0.0965
 2198ntf    nn311898   4.563   6.298   2.961  0.0655 -0.1590 -0.0227
 2198ntf    sn211899   4.514   6.355   2.823 -0.2925  0.1552  0.2330
 2198ntf    cn111900   4.661   6.320   2.722 -0.4074 -0.1531  0.1707
 2198ntf    fn411901   4.397   6.287   3.198 -0.1707 -0.5493 -0.4231
 2198ntf    fn411902   4.471   6.467   3.283  0.1464 -0.2363  0.1332
 2198ntf    fn411903   4.372   6.479   3.100  0.3768  0.3264  0.5267
 2198ntf    on511904   4.662   6.515   3.058 -0.5587  0.2309 -0.1570
 2198ntf    on511905   4.692   6.307   3.178 -0.3958  0.0664  0.0209
 2198ntf    on511906   4.496   6.497   2.807 -0.3134  0.1326  0.0530
 2198ntf    on511907   4.414   6.268   2.765 -0.0555 -0.0792  0.1756
 2198ntf    fn411908   4.757   6.410   2.732 -0.0905 -0.4363 -0.2962
 2198ntf    fn411909   4.721   6.206   2.754  0.0618  0.1320  0.3145
 2198ntf    fn411910   4.632   6.315   2.593  0.0128  0.2460  0.0577
 2199ntf    cn111911   5.827   0.082   4.625  0.1364 -0.0411 -0.2719
 2199ntf    sn211912   5.952   0.183   4.539 -0.1971  0.3866 -0.2565
 2199ntf    nn311913   6.014   0.081   4.437  0.0712 -0.2300  0.5129
 2199ntf    sn211914   5.964   0.063   4.289 -0.0003  0.0472  0.5017
 2199ntf    cn111915   6.096   0.159   4.209 -0.0681 -0.1316  0.1735
 2199ntf    fn411916   5.776   0.141   4.732  0.1368 -0.2955 -0.1298
 2199ntf    fn411917   5.725   0.042   4.551  0.3452 -0.2608 -0.4425
 2199ntf    fn411918   5.883  -0.025   4.678 -0.1164 -0.0227  0.0309
 2199ntf    on511919   5.875   0.294   4.488  0.1219  0.6924 -0.0766
 2199ntf    on511920   6.049   0.212   4.642  0.1568  0.1186 -0.5154
 2199ntf    on511921   5.842   0.126   4.248  0.4363  0.9201  0.5302
 2199ntf    on511922   5.990  -0.073   4.247 -0.0786  0.2115 -0.0734
 2199ntf    fn411923   6.119   0.277   4.265 -0.2751  0.1182 -0.2643
 2199ntf    fn411924   6.208   0.089   4.207  0.0482  0.0614 -0.2149
 2199ntf    fn411925   6.061   0.183   4.084 -0.0780 -0.4328  0.1190
 2200ntf    cn111926   2.934   5.322   2.251  0.1133  0.1333 -0.2379
 2200ntf    sn211927   3.059   5.401   2.356 -0.1806  0.2080  0.0576
 2200ntf    nn311928   2.972   5.418   2.485  0.0267 -0.0268  0.2283
 2200ntf    sn211929   2.886   5.542   2.527 -0.2257  0.0146 -0.4020
 2200ntf    cn111930   2.776   5.453   2.642  0.2190 -0.0975 -0.0612
 2200ntf    fn411931   2.994   5.260   2.150  0.5064 -0.0963  0.1300
 2200ntf    fn411932   2.869   5.231   2.321  0.6346  0.0586  0.1583
 2200ntf    fn411933   2.847   5.406   2.199  0.1540 -0.0529 -0.6179
 2200ntf    on511934   3.163   5.302   2.366 -0.4484 -0.0855 -0.0587
 2200ntf    on511935   3.096   5.522   2.286  0.0732  0.0956 -0.0040
 2200ntf    on511936   2.793   5.593   2.429 -0.7258  0.0069  0.0644
 2200ntf    on511937   2.954   5.643   2.605 -0.5328 -0.0904  0.0084
 2200ntf    fn411938   2.691   5.371   2.583 -0.0696 -0.0026  0.2211
 2200ntf    fn411939   2.849   5.377   2.722  0.5266  0.8037  0.5320
 2200ntf    fn411940   2.710   5.533   2.724  0.4133  0.6229 -0.5881
 2201ntf    cn111941   0.343   2.766   3.404  0.0592  0.2125  0.1790
 2201ntf    sn211942   0.185   2.751   3.492 -0.1773  0.0487 -0.2753
 2201ntf    nn311943   0.111   2.642   3.407  0.1923 -0.3066 -0.1387
 2201ntf    sn211944   0.026   2.671   3.278 -0.2324 -0.5598  0.0836
 2201ntf    cn111945  -0.147   2.686   3.333 -0.0553  0.4689  0.3808
 2201ntf    fn411946   0.410   2.867   3.457  0.2665  0.3996 -0.4352
 2201ntf    fn411947   0.410   2.652   3.416 -0.2306  0.0036 -0.1948
 2201ntf    fn411948   0.335   2.791   3.275 -0.6550  0.2385  0.2254
 2201ntf    on511949   0.233   2.696   3.616 -0.3614  0.1064 -0.1781
 2201ntf    on511950   0.121   2.881   3.488 -0.3023  0.0158  0.5256
 2201ntf    on511951   0.022   2.554   3.194 -0.5237 -0.0936 -0.5617
 2201ntf    on511952   0.051   2.798   3.213  0.4415 -0.8585 -0.2458
 2201ntf    fn411953  -0.231   2.740   3.246  0.3900  0.4837 -0.0389
 2201ntf    fn411954  -0.201   2.574   3.378 -0.1453  0.4258  0.1638
 2201ntf    fn411955  -0.156   2.777   3.430  0.0441  0.9167 -0.0258
 2202ntf    cn111956   2.336   3.078   4.487  0.0753  0.2278  0.3138
 2202ntf    sn211957   2.503   3.141   4.523  0.2277 -0.0070  0.0259
 2202ntf    nn311958   2.537   3.072   4.660 -0.1783 -0.3829 -0.0585
 2202ntf    sn211959   2.673   3.015   4.713 -0.0310 -0.0217 -0.0439
 2202ntf    cn111960   2.655   2.836   4.685  0.1076 -0.0997  0.3548
 2202ntf    fn411961   2.329   2.952   4.447 -0.0002  0.3241  0.0165
 2202ntf    fn411962   2.248   3.093   4.585  0.3718  0.4165  0.5533
 2202ntf    fn411963   2.288   3.154   4.389  0.0221 -0.0129  0.1524
 2202ntf    on511964   2.578   3.087   4.413  0.0430  0.7335 -0.4689
 2202ntf    on511965   2.488   3.284   4.532 -0.2479 -0.0272 -0.3852
 2202ntf    on511966   2.688   3.025   4.857  0.1800 -0.2004 -0.0536
 2202ntf    on511967   2.787   3.055   4.634 -0.2447 -0.1618 -0.4225
 2202ntf    fn411968   2.564   2.779   4.761 -0.4122  0.0331 -0.1655
 2202ntf    fn411969   2.629   2.815   4.558  0.1168 -0.1868  0.3674
 2202ntf    fn411970   2.776   2.786   4.707  0.1845 -0.2186 -0.3230
 2203ntf    cn111971   1.374   0.887   3.095 -0.0372  0.5164 -0.1828
 2203ntf    sn211972   1.267   0.926   2.953 -0.2487 -0.0148 -0.1748
 2203ntf    nn311973   1.267   0.786   2.883 -0.3251 -0.0792 -0.0471
 2203ntf    sn211974   1.174   0.664   2.914 -0.1240 -0.2281 -0.0285
 2203ntf    cn111975   1.039   0.681   2.794 -0.1783  0.1060  0.0800
 2203ntf    fn411976   1.340   0.778   3.163  0.1954  0.3666 -0.3042
 2203ntf    fn411977   1.499   0.866   3.059 -0.0293  0.1108  0.0671
 2203ntf    fn411978   1.375   0.982   3.187 -0.0704 -0.1090  0.4818
 2203ntf    on511979   1.143   0.970   3.011  0.1724  1.0344 -0.0344
 2203ntf    on511980   1.343   1.019   2.873 -0.7982  0.3128 -0.3200
 2203ntf    on511981   1.112   0.676   3.044  0.2780 -0.1276  0.1554
 2203ntf    on511982   1.239   0.540   2.880 -0.3161 -0.1840 -0.5555
 2203ntf    fn411983   1.075   0.672   2.667  0.1703 -0.6684  0.2263
 2203ntf    fn411984   0.947   0.588   2.809 -0.3747  0.2565 -0.1790
 2203ntf    fn411985   0.973   0.794   2.813 -0.1695  0.1160  0.0526
 2204ntf    cn111986   2.067   0.182   5.577 -0.5116 -0.2404  0.1345
 2204ntf    sn211987   1.907   0.253   5.528 -0.2524  0.3729  0.1660
 2204ntf    nn311988   1.815   0.206   5.647  0.0569 -0.0891  0.2250
 2204ntf    sn211989   1.666   0.158   5.648  0.1780 -0.4882 -0.1757
 2204ntf    cn111990   1.692  -0.022   5.653 -0.0120 -0.5140 -0.0684
 2204ntf    fn411991   2.142   0.192   5.469 -0.1490  0.0696  0.4105
 2204ntf    fn411992   2.123   0.262   5.667 -0.6409 -0.6264  0.5671
 2204ntf    fn411993   2.077   0.056   5.617 -0.6992 -0.1764  0.3880
 2204ntf    on511994   1.932   0.395   5.538 -0.0227  0.3316  0.1879
 2204ntf    on511995   1.874   0.196   5.400  0.5372  0.4199 -0.0662
 2204ntf    on511996   1.582   0.190   5.535  0.4179 -0.3348 -0.3115
 2204ntf    on511997   1.616   0.195   5.778  0.0862 -0.2859 -0.2680
 2204ntf    fn411998   1.748  -0.073   5.544 -0.0683  0.0960 -0.3883
 2204ntf    fn411999   1.759  -0.064   5.759  0.3807  0.0128 -0.1019
 2204ntf    fn412000   1.576  -0.085   5.655 -0.2126 -0.1302  0.4925
 2205ntf    cn112001   5.599   6.837   1.005 -0.1757  0.1071  0.3387
 2205ntf    sn212002   5.633   6.667   1.061 -0.7385 -0.1257 -0.0182
 2205ntf    nn312003   5.500   6.628   1.133 -0.8448 -0.1800 -0.2417
 2205ntf    sn212004   5.480   6.539   1.261 -0.1070 -0.3447 -0.2370
 2205ntf    cn112005   5.516   6.651   1.400 -0.1198  0.1277 -0.6137
 2205ntf    fn412006   5.704   6.894   0.948 -0.0662  0.0170  0.4517
 2205ntf    fn412007   5.507   6.841   0.911  0.3093 -0.1692 -0.1506
 2205ntf    fn412008   5.556   6.918   1.101 -0.9169  0.1711 -0.0464
 2205ntf    on512009   5.652   6.597   0.936  0.0100 -0.5970  0.3535
 2205ntf    on512010   5.748   6.674   1.147 -0.4095 -0.4528 -0.4252
 2205ntf    on512011   5.581   6.439   1.285 -0.1147 -0.2983 -0.0076
 2205ntf    on512012   5.342   6.502   1.280 -0.1166  0.1486  0.7424
 2205ntf    fn412013   5.542   6.581   1.509  0.2329  0.3719 -0.5379
 2205ntf    fn412014   5.617   6.734   1.378 -0.2957  0.3385 -0.6365
 2205ntf    fn412015   5.420   6.737   1.428  0.0177 -0.0660  0.5177
 2206ntf    cn112016   0.245   1.570   3.980 -0.0089 -0.4897 -0.0931
 2206ntf    sn212017   0.100   1.466   3.948 -0.4815  0.0425  0.3084
 2206ntf    nn312018   0.129   1.435   3.797 -0.1589 -0.2163  0.4215
 2206ntf    sn212019   0.156   1.299   3.724  0.2467  0.1305 -0.0873
 2206ntf    cn112020   0.331   1.327   3.687  0.4410 -0.3916  0.4187
 2206ntf    fn412021   0.362   1.509   3.992  0.0293 -0.2830  0.6540
 2206ntf    fn412022   0.248   1.679   3.905 -0.0619 -0.2216  0.2879
 2206ntf    fn412023   0.233   1.617   4.103  0.4061  0.3806 -0.3762
 2206ntf    on512024   0.104   1.358   4.043 -0.2503 -0.3559 -0.1539
 2206ntf    on512025   0.002   1.571   3.965 -0.5878 -0.0208  0.0896
 2206ntf    on512026   0.101   1.290   3.591 -0.3869 -0.2208  0.1892
 2206ntf    on512027   0.153   1.179   3.805  0.5556  0.1399 -0.0608
 2206ntf    fn412028   0.339   1.433   3.608 -0.1663 -0.4373  0.2940
 2206ntf    fn412029   0.404   1.349   3.795 -0.2121  0.2159  0.7458
 2206ntf    fn412030   0.387   1.228   3.620  0.2353 -0.0656 -0.2392
 2207ntf    cn112031   2.441   2.434   5.054  0.2088 -0.0648 -0.0212
 2207ntf    sn212032   2.551   2.365   5.181  0.1007 -0.2628 -0.0361
 2207ntf    nn312033   2.441   2.313   5.281  0.5567 -0.1397  0.5300
 2207ntf    sn212034   2.410   2.165   5.323 -0.2350 -0.0263  0.3496
 2207ntf    cn112035   2.533   2.154   5.456  0.0244  0.2005  0.1304
 2207ntf    fn412036   2.343   2.354   5.015  0.1061 -0.2071  0.5141
 2207ntf    fn412037   2.381   2.542   5.102 -0.2327 -0.1046 -0.4754
 2207ntf    fn412038   2.504   2.477   4.946  0.3060 -0.5462 -0.1534
 2207ntf    on512039   2.632   2.273   5.105  0.4321  0.2896 -0.3514
 2207ntf    on512040   2.617   2.475   5.245 -0.8111 -0.1168  0.6874
 2207ntf    on512041   2.440   2.060   5.230 -0.4298  0.1823  0.0505
 2207ntf    on512042   2.285   2.158   5.395 -0.1724  0.2657  0.4880
 2207ntf    fn412043   2.551   2.266   5.525  0.1953  0.2538  0.0000
 2207ntf    fn412044   2.499   2.066   5.549 -0.6891 -0.1827 -0.4800
 2207ntf    fn412045   2.653   2.117   5.417 -0.0413 -0.5528  0.6083
 2208ntf    cn112046   5.705   3.291   0.384  0.3400  0.0835  0.0783
 2208ntf    sn212047   5.630   3.455   0.366  0.0562 -0.0798 -0.2516
 2208ntf    nn312048   5.604   3.462   0.211  0.5525 -0.8288 -0.3699
 2208ntf    sn212049   5.618   3.580   0.109  0.2136 -0.1499  0.3574
 2208ntf    cn112050   5.440   3.607   0.079  0.2028 -0.4090  0.1829
 2208ntf    fn412051   5.802   3.270   0.296  0.2677  0.2017 -0.0294
 2208ntf    fn412052   5.766   3.272   0.500  0.5947  0.3934 -0.0036
 2208ntf    fn412053   5.612   3.196   0.390  0.2994  0.0734 -0.6688
 2208ntf    on512054   5.507   3.438   0.439 -0.1851 -0.5247 -0.7602
 2208ntf    on512055   5.737   3.535   0.420  0.4055 -0.3345 -0.5610
 2208ntf    on512056   5.659   3.538  -0.022 -0.2769 -0.4910  0.3086
 2208ntf    on512057   5.660   3.710   0.155 -0.3470  0.2664 -0.2817
 2208ntf    fn412058   5.417   3.706  -0.006  0.7350 -0.3992  0.0433
 2208ntf    fn412059   5.379   3.502   0.026 -0.2422  0.2170 -0.5513
 2208ntf    fn412060   5.376   3.634   0.192  0.2087  0.3980  0.0007
 2209ntf    cn112061   0.704   6.774   6.345 -0.0489  0.2111  0.0460
 2209ntf    sn212062   0.878   6.796   6.393  0.0311  0.0095 -0.1514
 2209ntf    nn312063   0.881   6.934   6.467  0.4135 -0.1683  0.1719
 2209ntf    sn212064   0.889   6.965   6.620  0.1995 -0.1691  0.1839
 2209ntf    cn112065   0.803   7.126   6.624  0.2966 -0.1219  0.3896
 2209ntf    fn412066   0.692   6.647   6.309 -0.0067  0.1238  0.3406
 2209ntf    fn412067   0.623   6.794   6.447  0.2102 -0.6028  0.4221
 2209ntf    fn412068   0.671   6.850   6.243 -0.0776  0.1204 -0.0133
 2209ntf    on512069   0.915   6.680   6.471 -0.7180 -0.0414  0.1282
 2209ntf    on512070   0.939   6.801   6.262  0.4399 -1.0910 -0.0227
 2209ntf    on512071   1.022   6.992   6.669  0.2945 -0.8862  0.3245
 2209ntf    on512072   0.806   6.882   6.703 -0.1141  0.3908  0.4366
 2209ntf    fn412073   0.819   7.172   6.747 -0.1775  0.3382  0.2800
 2209ntf    fn412074   0.865   7.208   6.541 -0.3564  0.2188  0.2317
 2209ntf    fn412075   0.675   7.118   6.593  0.2701  0.1178  0.4422
 2210ntf    cn112076   0.528   1.943   4.802  0.4680  0.1764  0.4033
 2210ntf    sn212077   0.634   2.087   4.766  0.2461  0.2189 -0.0775
 2210ntf    nn312078   0.751   2.002   4.704  0.4835 -0.0169  0.6831
 2210ntf    sn212079   0.854   2.044   4.593 -0.3761  0.1306 -0.0724
 2210ntf    cn112080   0.786   1.959   4.448  0.0273  0.2399 -0.3269
 2210ntf    fn412081   0.591   1.869   4.892  0.3666  0.1028  0.4144
 2210ntf    fn412082   0.406   1.971   4.843  0.3762  0.1386  0.1558
 2210ntf    fn412083   0.518   1.863   4.698  0.0947  0.4378  0.2383
 2210ntf    on512084   0.556   2.168   4.676  0.2846  0.5914  0.2233
 2210ntf    on512085   0.651   2.130   4.902  0.2558  0.3369 -0.1168
 2210ntf    on512086   0.977   1.972   4.614 -0.2244  0.3309 -0.2745
 2210ntf    on512087   0.861   2.182   4.551 -0.1710  0.2854  0.4541
 2210ntf    fn412088   0.870   1.946   4.346  0.2187  0.1930 -0.1646
 2210ntf    fn412089   0.761   1.831   4.474  0.0225  0.2208 -0.4253
 2210ntf    fn412090   0.669   2.003   4.405  0.3319  0.6117 -0.7871
 2211ntf    cn112091   6.491   6.464   3.478  0.1094 -0.2460 -0.2948
 2211ntf    sn212092   6.642   6.566   3.473 -0.1181  0.1005 -0.1451
 2211ntf    nn312093   6.578   6.705   3.439  0.5462  0.3604 -0.3279
 2211ntf    sn212094   6.575   6.840   3.520 -0.0731  0.0792  0.1161
 2211ntf    cn112095   6.742   6.904   3.489 -0.1912  0.2217 -0.2328
 2211ntf    fn412096   6.413   6.478   3.372  0.0571  0.0036 -0.2241
 2211ntf    fn412097   6.512   6.335   3.496  0.1810 -0.1635  0.2485
 2211ntf    fn412098   6.419   6.510   3.579 -0.0939  0.6196 -0.8219
 2211ntf    on512099   6.697   6.548   3.605 -0.0608 -0.2470 -0.2148
 2211ntf    on512100   6.714   6.497   3.370 -0.0685  0.1112 -0.1173
 2211ntf    on512101   6.576   6.817   3.662  0.1595 -0.2464  0.0620
 2211ntf    on512102   6.495   6.945   3.462  0.2829  0.7412  0.8000
 2211ntf    fn412103   6.749   7.033   3.519  0.0419  0.1138  0.1945
 2211ntf    fn412104   6.828   6.832   3.559 -0.0207  0.0104 -0.6585
 2211ntf    fn412105   6.768   6.886   3.361 -0.1503 -0.1160 -0.1769
 2212ntf    cn112106   4.420   3.916   5.731  0.1444  0.0713  0.1530
 2212ntf    sn212107   4.362   3.754   5.790  0.0913  0.0855  0.1391
 2212ntf    nn312108   4.349   3.674   5.655  0.2237 -0.6393  0.5471
 2212ntf    sn212109   4.436   3.560   5.593  0.2477 -0.3680  0.0782
 2212ntf    cn112110   4.354   3.419   5.674  0.1047  0.0018  0.5818
 2212ntf    fn412111   4.355   3.960   5.625  0.2703 -0.2705 -0.0698
 2212ntf    fn412112   4.408   4.011   5.822  0.1822  0.4877 -0.2752
 2212ntf    fn412113   4.546   3.908   5.692 -0.0557 -0.9960 -0.3294
 2212ntf    on512114   4.465   3.711   5.882  0.1195  0.0965  0.1126
 2212ntf    on512115   4.236   3.791   5.849 -0.2842  0.1263 -0.6796
 2212ntf    on512116   4.571   3.562   5.642  0.2511 -0.0576  0.0562
 2212ntf    on512117   4.418   3.532   5.452  0.0565  0.0984  0.0094
 2212ntf    fn412118   4.408   3.300   5.648  0.4035  0.1380  0.5760
 2212ntf    fn412119   4.340   3.417   5.805  0.1140 -0.7188  0.5781
 2212ntf    fn412120   4.228   3.412   5.635  0.2919 -0.1281 -0.0191
 2213ntf    cn112121   1.802   1.350   2.821  0.1251 -0.3177  0.2862
 2213ntf    sn212122   1.888   1.226   2.719  0.1851 -0.1840  0.1750
 2213ntf    nn312123   1.897   1.101   2.814  0.1857 -0.2015  0.1519
 2213ntf    sn212124   1.807   0.973   2.804  0.3559 -0.3208  0.1396
 2213ntf    cn112125   1.908   0.888   2.680  0.1375 -0.1583 -0.1522
 2213ntf    fn412126   1.778   1.463   2.758 -0.2492 -0.5137  0.0766
 2213ntf    fn412127   1.682   1.304   2.851  0.0392 -0.0013  0.4347
 2213ntf    fn412128   1.861   1.381   2.936  0.4503  0.0390  0.0243
 2213ntf    on512129   1.800   1.211   2.607 -0.0139 -0.5731  0.3846
 2213ntf    on512130   2.020   1.283   2.702  0.0765  0.1469  0.4138
 2213ntf    on512131   1.682   0.988   2.734  0.3472  0.1664  0.2538
 2213ntf    on512132   1.811   0.875   2.909 -0.5404  0.0434  0.5242
 2213ntf    fn412133   1.859   0.767   2.658 -0.0796 -0.0082 -0.5033
 2213ntf    fn412134   1.912   0.944   2.560 -0.6924 -0.2321 -0.2168
 2213ntf    fn412135   2.031   0.870   2.725 -0.0652  0.3627  0.6279
 2214ntf    cn112136   1.966   5.105   4.485  0.5022 -0.0730  0.0727
 2214ntf    sn212137   1.901   5.140   4.651  0.0708  0.3108 -0.1762
 2214ntf    nn312138   1.746   5.128   4.633  0.0312 -0.2071  0.4753
 2214ntf    sn212139   1.630   5.157   4.735 -0.2674  0.0864  0.0567
 2214ntf    cn112140   1.591   5.326   4.681 -0.5033  0.1753  0.5058
 2214ntf    fn412141   2.080   5.160   4.445  0.3290 -0.0361 -0.3761
 2214ntf    fn412142   1.990   4.975   4.473  0.4464  0.0211 -1.1469
 2214ntf    fn412143   1.884   5.125   4.384  0.6992 -0.2040 -0.1161
 2214ntf    on512144   1.961   5.038   4.733 -0.0158  0.2483 -0.1906
 2214ntf    on512145   1.956   5.270   4.681  0.1217  0.2139  0.1523
 2214ntf    on512146   1.672   5.163   4.873 -0.6719 -0.1179  0.1911
 2214ntf    on512147   1.503   5.095   4.707 -0.1832  0.1650 -0.5027
 2214ntf    fn412148   1.683   5.413   4.719  0.4338 -0.3765 -0.4593
 2214ntf    fn412149   1.594   5.335   4.549 -0.3249 -0.2152  0.4846
 2214ntf    fn412150   1.474   5.382   4.710 -0.7564  0.0463 -0.2498
 2215ntf    cn112151   5.009   1.829   5.529 -0.1866 -0.2717  0.0521
 2215ntf    sn212152   5.060   1.953   5.407 -0.3130 -0.2225  0.0493
 2215ntf    nn312153   4.920   2.011   5.364 -0.0253  0.2310 -0.2806
 2215ntf    sn212154   4.844   2.135   5.422 -0.0861 -0.1072  0.3709
 2215ntf    cn112155   4.669   2.084   5.416 -0.1428  0.1016  0.2142
 2215ntf    fn412156   4.988   1.876   5.651 -0.1620  0.6750 -0.2971
 2215ntf    fn412157   4.902   1.757   5.498 -0.3663  0.0389 -0.0579
 2215ntf    fn412158   5.108   1.744   5.551 -0.2900 -0.2142  0.7900
 2215ntf    on512159   5.150   2.041   5.477 -0.2051 -0.1782 -0.1440
 2215ntf    on512160   5.125   1.873   5.306  0.3511  0.0806  0.2343
 2215ntf    on512161   4.847   2.256   5.342  0.3226 -0.2204  0.2137
 2215ntf    on512162   4.868   2.146   5.564 -0.0429 -0.4126  0.3867
 2215ntf    fn412163   4.634   2.028   5.302 -0.2669 -0.0048  0.3053
 2215ntf    fn412164   4.631   2.010   5.519 -0.4384 -0.4926 -0.3173
 2215ntf    fn412165   4.588   2.189   5.416  0.0988  0.2930  0.7230
 2216ntf    cn112166   1.207   4.223   5.941  0.3430  0.0727  0.1350
 2216ntf    sn212167   1.228   4.051   5.996 -0.2498 -0.1187 -0.2259
 2216ntf    nn312168   1.082   4.013   6.037 -0.1566  0.2071  0.4244
 2216ntf    sn212169   0.967   3.947   5.953  0.3339 -0.0840 -0.0196
 2216ntf    cn112170   1.005   3.770   5.970  0.2715 -0.1095 -0.1420
 2216ntf    fn412171   1.164   4.221   5.816  0.1613 -0.3870  0.2012
 2216ntf    fn412172   1.110   4.278   6.013 -0.1033 -0.6101  0.0678
 2216ntf    fn412173   1.318   4.295   5.944  0.5381 -0.2264  0.2050
 2216ntf    on512174   1.282   3.985   5.880  0.1164 -0.2371  0.0098
 2216ntf    on512175   1.312   4.060   6.113 -0.8385 -0.0087  0.1938
 2216ntf    on512176   0.970   3.981   5.813  0.2255  0.4434  0.1062
 2216ntf    on512177   0.837   3.964   6.013  0.4191 -0.2153  0.2029
 2216ntf    fn412178   0.953   3.707   6.075  0.2173  0.5151  0.2091
 2216ntf    fn412179   0.952   3.701   5.870 -0.0753  0.1199 -0.1187
 2216ntf    fn412180   1.135   3.743   5.967  0.1823 -0.5056 -0.5504
 2217ntf    cn112181   6.260   3.663   2.037  0.0519  0.2055  0.0074
 2217ntf    sn212182   6.340   3.816   1.981  0.1228  0.0756 -0.2526
 2217ntf    nn312183   6.332   3.886   2.122  0.4220 -0.4020  0.0025
 2217ntf    sn212184   6.405   4.012   2.180 -0.3348  0.1056 -0.1456
 2217ntf    cn112185   6.542   3.940   2.273 -0.1865  0.1304 -0.3441
 2217ntf    fn412186   6.346   3.597   2.112  0.2940  0.0882 -0.3687
 2217ntf    fn412187   6.151   3.678   2.111  0.2262  0.2935  0.2421
 2217ntf    fn412188   6.229   3.586   1.934  0.1111  0.0939  0.0727
 2217ntf    on512189   6.468   3.765   1.941 -0.0243 -0.2815 -0.2763
 2217ntf    on512190   6.254   3.878   1.883  0.2233 -0.4731 -0.6900
 2217ntf    on512191   6.327   4.078   2.281 -0.0654 -0.0146  0.1406
 2217ntf    on512192   6.461   4.104   2.083  0.0360  0.3887  0.3348
 2217ntf    fn412193   6.614   4.027   2.342 -0.0930  0.1140 -0.4207
 2217ntf    fn412194   6.506   3.847   2.360 -0.8707  0.8190  0.1203
 2217ntf    fn412195   6.631   3.885   2.192 -0.0372  0.3159 -0.3077
 2218ntf    cn112196   5.535   5.011   2.726 -0.0066  0.1613  0.1676
 2218ntf    sn212197   5.577   4.933   2.568 -0.0295 -0.0403  0.2618
 2218ntf    nn312198   5.731   4.912   2.590  0.0479  0.4637  0.2084
 2218ntf    sn212199   5.811   4.778   2.609 -0.0124  0.3954 -0.0094
 2218ntf    cn112200   5.844   4.781   2.788  0.3365 -0.1342 -0.0622
 2218ntf    fn412201   5.632   5.097   2.750  0.0338  0.2141 -0.1835
 2218ntf    fn412202   5.420   5.075   2.739 -0.1456  0.0278 -0.4156
 2218ntf    fn412203   5.528   4.932   2.832  0.1455 -0.2611 -0.1384
 2218ntf    on512204   5.499   4.811   2.563 -0.3457  0.1911 -0.6562
 2218ntf    on512205   5.549   5.040   2.477  0.4432  0.2976  0.5097
 2218ntf    on512206   5.948   4.782   2.565  0.0231 -0.1348  0.0481
 2218ntf    on512207   5.746   4.649   2.597  0.2227  0.2886 -0.1321
 2218ntf    fn412208   5.877   4.900   2.835 -0.3307 -0.1151  0.3730
 2218ntf    fn412209   5.732   4.751   2.853  0.1657 -0.3642 -0.4623
 2218ntf    fn412210   5.941   4.697   2.819  0.1916 -0.1745  0.2869
 2219ntf    cn112211   5.603   1.098   1.688  0.2092  0.0281  0.2340
 2219ntf    sn212212   5.713   1.139   1.827  0.0988  0.3784  0.2171
 2219ntf    nn312213   5.722   1.002   1.903 -0.0054  0.0451 -0.3648
 2219ntf    sn212214   5.845   0.905   1.913 -0.0452  0.0725  0.4477
 2219ntf    cn112215   5.758   0.750   1.877  0.0187  0.0721  0.2970
 2219ntf    fn412216   5.598   1.190   1.593  0.4155  0.2402  0.4268
 2219ntf    fn412217   5.633   0.983   1.629  0.0446  0.2850 -0.3516
 2219ntf    fn412218   5.474   1.080   1.711  0.1771 -0.4043 -0.2370
 2219ntf    on512219   5.826   1.196   1.758 -0.2484  0.5684 -0.2031
 2219ntf    on512220   5.638   1.235   1.905 -0.2772  0.5025 -0.2871
 2219ntf    on512221   5.898   0.889   2.046 -0.5446  0.1539  0.6591
 2219ntf    on512222   5.930   0.900   1.797 -0.5308 -0.4390  0.1053
 2219ntf    fn412223   5.667   0.714   1.966 -0.0106  0.1569  0.3006
 2219ntf    fn412224   5.684   0.762   1.767  0.6523  0.6438 -0.0724
 2219ntf    fn412225   5.830   0.641   1.855  0.3486  0.3157  0.1798
 2220ntf    cn112226   2.110   6.668   4.019 -0.2634  0.4334  0.2990
 2220ntf    sn212227   2.116   6.708   3.842 -0.1116  0.2460  0.2610
 2220ntf    nn312228   2.264   6.753   3.821 -0.1695  0.0025 -0.7443
 2220ntf    sn212229   2.326   6.888   3.872  0.0733 -0.2263 -0.4282
 2220ntf    cn112230   2.399   6.960   3.722  0.2390 -0.0026 -0.2407
 2220ntf    fn412231   1.984   6.642   4.050 -0.3021  0.9219  0.5465
 2220ntf    fn412232   2.180   6.560   4.050  0.2419  0.6563 -0.0578
 2220ntf    fn412233   2.157   6.763   4.098  0.3451  0.6815 -0.3500
 2220ntf    on512234   2.077   6.587   3.773  0.0023  0.1525  0.3625
 2220ntf    on512235   2.013   6.808   3.823  0.2251  0.5268 -0.0976
 2220ntf    on512236   2.431   6.865   3.968 -0.4187 -0.6579  0.0083
 2220ntf    on512237   2.236   6.995   3.909  0.0522 -0.5576  0.5107
 2220ntf    fn412238   2.503   6.890   3.681  0.0142 -0.4265 -0.0873
 2220ntf    fn412239   2.312   6.953   3.622 -0.0628  0.3911 -0.0088
 2220ntf    fn412240   2.444   7.085   3.728  0.1613  0.0351 -0.4358
 2221ntf    cn112241   4.678   2.640   4.649  0.0086 -0.0239 -0.1022
 2221ntf    sn212242   4.536   2.589   4.547 -0.0998 -0.1516  0.1090
 2221ntf    nn312243   4.554   2.433   4.538  0.2141 -0.1163  0.1116
 2221ntf    sn212244   4.475   2.324   4.617  0.1915 -0.0254  0.2148
 2221ntf    cn112245   4.335   2.308   4.503  0.3936  0.0984 -0.0492
 2221ntf    fn412246   4.668   2.584   4.769 -0.1345  0.0033 -0.0999
 2221ntf    fn412247   4.793   2.605   4.594  0.0472  0.0304 -0.0555
 2221ntf    fn412248   4.680   2.768   4.683  0.1546 -0.0920  0.1487
 2221ntf    on512249   4.420   2.646   4.609  0.1066  0.0833  0.2826
 2221ntf    on512250   4.571   2.645   4.419 -1.1052 -0.1582 -0.1753
 2221ntf    on512251   4.410   2.368   4.738  0.4870  0.0688  0.3412
 2221ntf    on512252   4.545   2.198   4.617 -0.3611 -0.3382  0.3255
 2221ntf    fn412253   4.273   2.193   4.523  0.1706  0.2153 -0.0612
 2221ntf    fn412254   4.243   2.403   4.509 -0.0184 -0.3096  0.1442
 2221ntf    fn412255   4.385   2.297   4.381 -0.0220  0.2291 -0.2334
 2222ntf    cn112256   4.298   0.784   0.511 -0.1737 -0.0389 -0.2198
 2222ntf    sn212257   4.313   0.667   0.650  0.2233  0.0914 -0.1505
 2222ntf    nn312258   4.257   0.763   0.761  0.2623 -0.1219  0.0532
 2222ntf    sn212259   4.287   0.760   0.915  0.0063  0.1864  0.1085
 2222ntf    cn112260   4.393   0.905   0.943 -0.1982  0.3331  0.1340
 2222ntf    fn412261   4.311   0.723   0.395 -0.7090 -0.3448 -0.1235
 2222ntf    fn412262   4.181   0.846   0.503 -0.2005 -0.0494  0.0610
 2222ntf    fn412263   4.395   0.874   0.508 -0.2860  0.0934 -0.0037
 2222ntf    on512264   4.214   0.575   0.597  0.2544 -0.1517  0.2128
 2222ntf    on512265   4.454   0.637   0.648  0.1843 -0.1146  0.1465
 2222ntf    on512266   4.374   0.652   0.953  0.2216  0.2403 -0.2214
 2222ntf    on512267   4.178   0.788   1.005  0.0299  0.6025  0.0098
 2222ntf    fn412268   4.344   1.015   0.889 -0.2553 -0.0171 -0.5380
 2222ntf    fn412269   4.407   0.937   1.071  0.3432  0.3369  0.0782
 2222ntf    fn412270   4.515   0.896   0.893 -0.4311 -0.7177 -0.2679
 2223ntf    cn112271   3.222   0.755   2.927  0.0693 -0.2707 -0.1570
 2223ntf    sn212272   3.377   0.672   2.974  0.4053  0.5352  0.1862
 2223ntf    nn312273   3.413   0.759   3.099 -0.0477  0.5782  0.2865
 2223ntf    sn212274   3.460   0.717   3.243 -0.1594 -0.3074  0.0671
 2223ntf    cn112275   3.641   0.721   3.221 -0.1196 -0.0787  0.4255
 2223ntf    fn412276   3.243   0.868   2.861 -0.2655 -0.4564 -0.5821
 2223ntf    fn412277   3.142   0.693   2.843 -0.3793  0.0177  0.0551
 2223ntf    fn412278   3.153   0.790   3.034 -0.0565 -0.4711 -0.1723
 2223ntf    on512279   3.325   0.538   2.993  0.9613  0.2680 -0.1284
 2223ntf    on512280   3.468   0.695   2.865  0.6054  0.1828  0.2736
 2223ntf    on512281   3.426   0.582   3.279 -0.8311 -0.2056 -0.1731
 2223ntf    on512282   3.443   0.823   3.338  0.6214  0.2613 -0.4100
 2223ntf    fn412283   3.669   0.658   3.108  0.5669  0.8384  0.0719
 2223ntf    fn412284   3.682   0.845   3.201 -0.8087  0.0813 -0.0637
 2223ntf    fn412285   3.711   0.659   3.314 -0.0980  0.1822  0.5811
 2224ntf    cn112286   1.544   4.468   6.559 -0.2539  0.3686 -0.2121
 2224ntf    sn212287   1.709   4.533   6.520 -0.1281  0.1069 -0.1220
 2224ntf    nn312288   1.800   4.428   6.593 -0.7798 -0.1970  0.2539
 2224ntf    sn212289   1.846   4.287   6.540 -0.1779  0.0054  0.2320
 2224ntf    cn112290   1.845   4.197   6.698 -0.3154 -0.1899  0.1207
 2224ntf    fn412291   1.541   4.396   6.670  0.5024 -0.1265 -0.5042
 2224ntf    fn412292   1.458   4.566   6.581  0.1517  0.6415  0.1699
 2224ntf    fn412293   1.494   4.390   6.464  0.2766 -0.3790  0.1117
 2224ntf    on512294   1.718   4.538   6.376  0.6381 -0.0019 -0.0819
 2224ntf    on512295   1.721   4.661   6.585 -0.5824  0.3873 -0.5817
 2224ntf    on512296   1.981   4.287   6.489 -0.1842  0.5954  0.2085
 2224ntf    on512297   1.747   4.221   6.459 -0.1585  0.0880  0.1406
 2224ntf    fn412298   1.726   4.186   6.754 -0.3183  0.2095  0.1944
 2224ntf    fn412299   1.877   4.069   6.695 -0.0437 -0.1245  0.1901
 2224ntf    fn412300   1.926   4.252   6.787 -0.2509 -0.4641  0.2315
 2225ntf    cn112301   2.507   5.662   3.398  0.1804 -0.1111 -0.5632
 2225ntf    sn212302   2.330   5.687   3.365  0.0817  0.1632  0.1512
 2225ntf    nn312303   2.310   5.609   3.230  0.1728  0.1199  0.1622
 2225ntf    sn212304   2.356   5.644   3.084  0.4327 -0.2103  0.1649
 2225ntf    cn112305   2.246   5.779   3.032  0.3694 -0.2764  0.1282
 2225ntf    fn412306   2.527   5.703   3.522 -0.4346 -0.1299 -0.4516
 2225ntf    fn412307   2.557   5.539   3.403  0.1162 -0.1243 -0.1041
 2225ntf    fn412308   2.582   5.739   3.322  0.4099  0.4092  0.1752
 2225ntf    on512309   2.268   5.638   3.485  0.5113  0.1041  0.3514
 2225ntf    on512310   2.320   5.829   3.342  0.7389  0.2279  0.2324
 2225ntf    on512311   2.333   5.542   2.985 -0.3768  0.4410 -0.3335
 2225ntf    on512312   2.486   5.706   3.090 -0.0490  0.8293 -0.0121
 2225ntf    fn412313   2.254   5.791   2.900 -0.2625 -0.1928  0.0914
 2225ntf    fn412314   2.118   5.758   3.060  0.2307  0.1946 -0.1496
 2225ntf    fn412315   2.281   5.891   3.093 -0.2098 -0.0596  0.0702
 2226ntf    cn112316   5.269   0.223   0.323  0.0039 -0.3814  0.1716
 2226ntf    sn212317   5.305   0.333   0.463  0.0000 -0.1675  0.0047
 2226ntf    nn312318   5.187   0.293   0.559 -0.2338  0.7662  0.1208
 2226ntf    sn212319   5.200   0.197   0.682  0.0392  0.2440 -0.3075
 2226ntf    cn112320   5.250   0.306   0.819  0.1557  0.2234 -0.3328
 2226ntf    fn412321   5.309   0.098   0.338  0.0505 -0.3981 -0.0837
 2226ntf    fn412322   5.140   0.223   0.292  0.0394  0.4314  0.0137
 2226ntf    fn412323   5.340   0.268   0.221 -0.5580  0.2581  0.0565
 2226ntf    on512324   5.439   0.295   0.499  0.1276  0.3522  0.0886
 2226ntf    on512325   5.282   0.462   0.403  0.4092 -0.1587 -0.1346
 2226ntf    on512326   5.306   0.099   0.677 -0.0931  0.0844  0.0010
 2226ntf    on512327   5.072   0.153   0.732  0.2307  0.2598  0.2076
 2226ntf    fn412328   5.167   0.409   0.826 -0.3432 -0.1630 -0.4885
 2226ntf    fn412329   5.244   0.240   0.934 -0.2226  0.4465 -0.2214
 2226ntf    fn412330   5.372   0.351   0.797  0.3730 -0.2571 -0.1258
 2227ntf    cn112331   6.181   3.397   4.135  0.1420 -0.4683 -0.1361
 2227ntf    sn212332   6.331   3.441   4.228 -0.0198 -0.1415 -0.0263
 2227ntf    nn312333   6.317   3.597   4.240  0.0821 -0.1475  0.1796
 2227ntf    sn212334   6.375   3.688   4.354  0.1206 -0.3841  0.3515
 2227ntf    cn112335   6.239   3.809   4.362  0.5806  0.1765 -0.1695
 2227ntf    fn412336   6.186   3.451   4.015  0.2579 -0.3145 -0.0626
 2227ntf    fn412337   6.168   3.267   4.115 -0.3899 -0.4572  0.1214
 2227ntf    fn412338   6.074   3.449   4.194  0.5416  0.4975 -0.2470
 2227ntf    on512339   6.321   3.364   4.350 -0.0759  0.4471  0.3444
 2227ntf    on512340   6.439   3.416   4.136  0.1566  0.1498  0.1020
 2227ntf    on512341   6.480   3.778   4.314 -0.2708 -0.0503  0.0498
 2227ntf    on512342   6.373   3.637   4.488  0.3246  0.4732  0.6905
 2227ntf    fn412343   6.124   3.748   4.383  0.4996 -0.0645 -1.2592
 2227ntf    fn412344   6.248   3.901   4.457 -0.2392  0.1952 -0.1015
 2227ntf    fn412345   6.219   3.871   4.247 -0.0556 -0.0232 -0.1702
 2228ntf    cn112346   0.216   1.223   1.871  0.4905  0.0711  0.1671
 2228ntf    sn212347   0.189   1.148   2.034  0.3285  0.1748  0.1880
 2228ntf    nn312348   0.037   1.109   2.028  0.2876  0.3646 -0.0331
 2228ntf    sn212349  -0.054   1.110   2.156  0.2094  0.1162 -0.0861
 2228ntf    cn112350  -0.117   1.280   2.151  0.1701  0.1190  0.4856
 2228ntf    fn412351   0.163   1.343   1.854  0.1505 -0.1623 -0.4561
 2228ntf    fn412352   0.343   1.256   1.853  0.4800  0.0040 -0.0372
 2228ntf    fn412353   0.182   1.144   1.770  0.3514  0.0575  0.2241
 2228ntf    on512354   0.280   1.037   2.030 -0.2604 -0.2931 -0.6345
 2228ntf    on512355   0.215   1.260   2.121 -0.0085  0.3092  0.1198
 2228ntf    on512356   0.016   1.096   2.281 -0.4071  0.8819  0.3498
 2228ntf    on512357  -0.175   1.033   2.141  0.0796  0.3247 -0.1107
 2228ntf    fn412358  -0.019   1.369   2.152  0.3510 -0.0767  0.1479
 2228ntf    fn412359  -0.176   1.308   2.036  0.1000 -0.3611  0.4015
 2228ntf    fn412360  -0.206   1.316   2.243 -0.2036  0.0318  0.1617
 2229ntf    cn112361   4.738   3.657   1.119  0.1100  0.1322  0.3073
 2229ntf    sn212362   4.746   3.837   1.148 -0.0480  0.1566  0.1994
 2229ntf    nn312363   4.769   3.895   1.004  0.9180  0.3161  0.4144
 2229ntf    sn212364   4.903   3.902   0.923  0.5374  0.0423 -0.2494
 2229ntf    cn112365   4.988   4.052   0.981 -0.1057  0.3588 -0.1158
 2229ntf    fn412366   4.721   3.597   1.235  0.1058 -0.1710  0.1516
 2229ntf    fn412367   4.639   3.616   1.042  0.3500 -0.3157  0.2339
 2229ntf    fn412368   4.852   3.618   1.063 -0.0474  0.4150 -0.2166
 2229ntf    on512369   4.613   3.863   1.198  0.2577  0.9253  0.6206
 2229ntf    on512370   4.850   3.863   1.243  0.0068  0.5884  0.0218
 2229ntf    on512371   4.872   3.938   0.787 -0.5248  0.1468  0.0154
 2229ntf    on512372   4.994   3.793   0.944  0.1719 -0.1402  0.4071
 2229ntf    fn412373   5.035   4.044   1.105 -0.0164  0.3224 -0.1513
 2229ntf    fn412374   5.088   4.086   0.900 -0.1549  0.7080 -0.0326
 2229ntf    fn412375   4.909   4.158   0.981 -0.5440  0.0338 -0.1238
 2230ntf    cn112376   2.747   0.276   6.338 -0.2166  0.2521  0.0931
 2230ntf    sn212377   2.785   0.435   6.417  0.0213  0.2876 -0.0897
 2230ntf    nn312378   2.933   0.458   6.371 -0.1236 -0.0112 -0.7199
 2230ntf    sn212379   3.075   0.426   6.430 -0.3915  0.0711 -0.0189
 2230ntf    cn112380   3.137   0.290   6.327 -0.2118 -0.0675  0.2707
 2230ntf    fn412381   2.629   0.233   6.379 -0.3062  0.4551  0.0452
 2230ntf    fn412382   2.746   0.272   6.206 -0.2107  0.4537  0.0875
 2230ntf    fn412383   2.835   0.186   6.379 -0.4161 -0.1419 -0.3247
 2230ntf    on512384   2.699   0.533   6.356 -0.3205 -0.1309 -0.2893
 2230ntf    on512385   2.771   0.422   6.560  0.1586 -0.3297 -0.1315
 2230ntf    on512386   3.084   0.366   6.561  0.4789  0.6436  0.1921
 2230ntf    on512387   3.168   0.527   6.385  0.0272 -0.2614  0.0963
 2230ntf    fn412388   3.152   0.330   6.202  0.3043  0.1774  0.4081
 2230ntf    fn412389   3.255   0.244   6.364  0.0526 -0.0317 -0.5120
 2230ntf    fn412390   3.065   0.179   6.330  0.1899 -0.3443 -0.1817
 2231ntf    cn112391   5.664   5.861   5.339  0.2808  0.0015  0.1662
 2231ntf    sn212392   5.693   6.013   5.436  0.2950  0.1786 -0.1146
 2231ntf    nn312393   5.550   6.077   5.446  0.0474 -0.3978  0.0885
 2231ntf    sn212394   5.497   6.195   5.356  0.0333 -0.3987  0.0960
 2231ntf    cn112395   5.403   6.282   5.485  0.3940  0.0506  0.0567
 2231ntf    fn412396   5.609   5.885   5.221 -0.2314  0.0120  0.4044
 2231ntf    fn412397   5.777   5.793   5.325  0.1807 -0.1276 -0.0156
 2231ntf    fn412398   5.581   5.777   5.398 -0.4520  0.6679  0.0912
 2231ntf    on512399   5.734   5.964   5.565 -0.6449  0.5311  0.3234
 2231ntf    on512400   5.797   6.079   5.362  0.0644  0.1234 -0.4908
 2231ntf    on512401   5.393   6.165   5.260  0.1061  0.1922 -0.1692
 2231ntf    on512402   5.593   6.297   5.324  0.0381 -0.3852  0.1531
 2231ntf    fn412403   5.482   6.334   5.578  0.2669 -0.2560  0.3401
 2231ntf    fn412404   5.336   6.384   5.434 -0.1922 -0.6134 -0.5137
 2231ntf    fn412405   5.333   6.191   5.552  0.4690  0.0124  0.0841
 2232ntf    cn112406   4.000   5.000   1.802  0.0229  0.4348 -0.2726
 2232ntf    sn212407   3.925   4.920   1.657 -0.1195  0.1565 -0.0466
 2232ntf    nn312408   3.786   4.871   1.710  0.0609 -0.2676  0.0418
 2232ntf    sn212409   3.650   4.869   1.631  0.0596  0.0920  0.0312
 2232ntf    cn112410   3.593   4.699   1.666  0.1105  0.0997  0.1563
 2232ntf    fn412411   4.114   5.056   1.765  0.2925  0.1418  0.1149
 2232ntf    fn412412   3.924   5.101   1.843 -0.0825  0.4171 -0.4201
 2232ntf    fn412413   4.003   4.913   1.901 -0.1556 -0.1310 -0.7557
 2232ntf    on512414   3.926   5.030   1.563 -0.7235  0.2141  0.0152
 2232ntf    on512415   4.015   4.813   1.622 -0.5210 -0.2213  0.0704
 2232ntf    on512416   3.661   4.878   1.488  0.9910 -0.1342  0.0835
 2232ntf    on512417   3.557   4.950   1.706 -0.7503 -0.4447 -0.3757
 2232ntf    fn412418   3.494   4.654   1.591  0.2072  0.0124  0.0807
 2232ntf    fn412419   3.689   4.615   1.633 -0.2858 -0.3432  0.1316
 2232ntf    fn412420   3.563   4.680   1.793 -0.5258 -0.3149 -0.0520
 2233ntf    cn112421   4.562   0.504   5.707  0.0992 -0.0001  0.2093
 2233ntf    sn212422   4.419   0.572   5.797 -0.2863 -0.3777 -0.1150
 2233ntf    nn312423   4.342   0.440   5.835 -0.1456 -0.3807  0.1584
 2233ntf    sn212424   4.347   0.361   5.971 -0.2508 -0.1280  0.3099
 2233ntf    cn112425   4.376   0.196   5.902  0.3376  0.0336  0.1570
 2233ntf    fn412426   4.650   0.434   5.777  0.7277 -0.0156 -0.5933
 2233ntf    fn412427   4.517   0.437   5.602  0.1207 -0.2024  0.3276
 2233ntf    fn412428   4.636   0.600   5.654 -0.4479  0.5009  0.3329
 2233ntf    on512429   4.481   0.652   5.900 -0.0239  0.1261 -0.6571
 2233ntf    on512430   4.337   0.642   5.701  0.1905 -0.0985 -0.3212
 2233ntf    on512431   4.222   0.353   6.042 -0.1758 -0.6332  0.3836
 2233ntf    on512432   4.467   0.385   6.048 -0.0147 -0.0805 -0.0668
 2233ntf    fn412433   4.286   0.177   5.806  0.2695 -0.0150  0.2297
 2233ntf    fn412434   4.493   0.186   5.842  0.3276  1.3421 -0.1049
 2233ntf    fn412435   4.372   0.097   5.990 -0.2065  0.1361  0.2556
 2234ntf    cn112436   0.998   1.539   0.729  0.2453  0.0697  0.0496
 2234ntf    sn212437   0.936   1.674   0.834 -0.0691  0.1903 -0.2873
 2234ntf    nn312438   0.859   1.598   0.948  0.0034  0.5032 -0.0263
 2234ntf    sn212439   0.703   1.593   0.964  0.0531 -0.1922  0.2517
 2234ntf    cn112440   0.682   1.728   1.084 -0.1646 -0.0073  0.0067
 2234ntf    fn412441   0.928   1.526   0.618  0.2138 -0.0656  0.0859
 2234ntf    fn412442   1.124   1.565   0.702  0.2141  0.2392  0.0658
 2234ntf    fn412443   0.997   1.420   0.786  0.0069  0.0094 -0.0788
 2234ntf    on512444   1.051   1.740   0.892 -0.0665 -0.1308  0.0731
 2234ntf    on512445   0.870   1.751   0.732 -0.1819  0.2761 -0.1506
 2234ntf    on512446   0.661   1.474   1.033 -0.3151  0.0309  0.4152
 2234ntf    on512447   0.625   1.629   0.848 -0.3966  0.0782  0.6307
 2234ntf    fn412448   0.760   1.716   1.189  0.2881 -0.1065 -0.3396
 2234ntf    fn412449   0.694   1.850   1.033 -0.0454  0.0356  0.1383
 2234ntf    fn412450   0.561   1.711   1.136 -0.1229  0.3549  0.2278
 2235ntf    cn112451   0.716   4.116   3.384  0.1651 -0.0275  0.1309
 2235ntf    sn212452   0.640   4.199   3.527  0.3305  0.0822  0.1556
 2235ntf    nn312453   0.671   4.094   3.639 -0.3354  0.0605  0.3240
 2235ntf    sn212454   0.617   4.066   3.783 -0.5546  0.1890  0.2670
 2235ntf    cn112455   0.571   4.227   3.853 -0.1457  0.3909  0.0687
 2235ntf    fn412456   0.704   4.196   3.280 -0.1892 -0.0283  0.1722
 2235ntf    fn412457   0.843   4.078   3.393  0.1976  0.0571  0.0294
 2235ntf    fn412458   0.645   4.008   3.357  0.0911  0.1096 -0.2238
 2235ntf    on512459   0.714   4.321   3.549 -0.0666  0.5114 -0.8058
 2235ntf    on512460   0.502   4.209   3.487  0.4280 -0.2651 -0.2794
 2235ntf    on512461   0.724   4.020   3.869 -0.3929  0.3505  0.1523
 2235ntf    on512462   0.496   3.987   3.782 -0.4172 -0.0171 -0.0224
 2235ntf    fn412463   0.474   4.282   3.782 -0.4054  0.0814  0.1838
 2235ntf    fn412464   0.534   4.219   3.979 -0.0543  0.1956  0.0829
 2235ntf    fn412465   0.662   4.324   3.851 -0.2396  0.4750 -0.2847
 2236ntf    cn112466   0.455   4.512   1.443  0.0456 -0.0665  0.3254
 2236ntf    sn212467   0.399   4.635   1.564  0.3983  0.3754  0.0426
 2236ntf    nn312468   0.246   4.611   1.537  0.4285  0.0658  0.1444
 2236ntf    sn212469   0.132   4.717   1.550  0.3762  0.0439 -0.1240
 2236ntf    cn112470   0.129   4.771   1.377 -0.0972  0.4963  0.0202
 2236ntf    fn412471   0.419   4.536   1.318  0.0012 -0.2850  0.2959
 2236ntf    fn412472   0.586   4.517   1.429 -0.0069  0.2197 -0.0799
 2236ntf    fn412473   0.401   4.393   1.464  0.0504 -0.1677 -0.2112
 2236ntf    on512474   0.441   4.564   1.683  0.3683 -0.1793 -0.2729
 2236ntf    on512475   0.462   4.759   1.528 -0.3849  0.6704 -0.3205
 2236ntf    on512476   0.166   4.836   1.625 -0.1331  0.0973  0.0253
 2236ntf    on512477  -0.000   4.666   1.579  0.2883  0.0151 -0.5790
 2236ntf    fn412478   0.035   4.861   1.354 -0.0039  0.4339 -0.6181
 2236ntf    fn412479   0.244   4.827   1.341  0.3496 -0.2789  0.2100
 2236ntf    fn412480   0.110   4.672   1.292  0.0049  0.4729  0.0250
 2237ntf    cn112481   4.505   1.862   1.174  0.2077 -0.0319 -0.1501
 2237ntf    sn212482   4.654   1.947   1.113 -0.0442  0.3339 -0.2608
 2237ntf    nn312483   4.636   1.936   0.957 -0.2955 -0.1563 -0.2003
 2237ntf    sn212484   4.746   1.902   0.851 -0.0258  0.0124  0.0259
 2237ntf    cn112485   4.806   2.065   0.796  0.0669 -0.1221 -0.2749
 2237ntf    fn412486   4.516   1.734   1.141  0.1789 -0.0374 -0.1373
 2237ntf    fn412487   4.506   1.875   1.305  0.1329 -0.3685 -0.1149
 2237ntf    fn412488   4.391   1.909   1.125 -0.0274 -0.4642 -0.0193
 2237ntf    on512489   4.627   2.085   1.145 -0.1076  0.0744  0.8443
 2237ntf    on512490   4.764   1.878   1.175 -0.6716 -0.5440 -0.0993
 2237ntf    on512491   4.686   1.844   0.734 -0.6036  0.1439  0.2562
 2237ntf    on512492   4.868   1.839   0.896 -0.1615 -0.2295  0.0539
 2237ntf    fn412493   4.707   2.148   0.771 -0.1245 -0.2578  0.0179
 2237ntf    fn412494   4.875   2.118   0.897 -0.3945 -0.1577  0.0623
 2237ntf    fn412495   4.886   2.067   0.691  0.0301  0.6112 -0.2895
 2238ntf    cn112496   6.611   6.513   6.673 -0.0802  0.3927  0.0139
 2238ntf    sn212497   6.635   6.604   6.518  0.3308  0.3445  0.0493
 2238ntf    nn312498   6.504   6.585   6.434  0.3324 -0.2934  0.1920
 2238ntf    sn212499   6.478   6.499   6.305 -0.1168 -0.0054  0.0920
 2238ntf    cn112500   6.305   6.449   6.330 -0.0182 -0.0397  0.7000
 2238ntf    fn412501   6.580   6.386   6.653 -0.0466  0.4505 -0.3976
 2238ntf    fn412502   6.715   6.517   6.755 -0.1943 -0.0446  0.1850
 2238ntf    fn412503   6.508   6.569   6.735 -0.0945  0.1508  0.2130
 2238ntf    on512504   6.649   6.741   6.563  0.0860  0.2989  0.2664
 2238ntf    on512505   6.757   6.548   6.465 -0.4063 -0.4214 -0.8656
 2238ntf    on512506   6.539   6.369   6.290  0.8948  0.4136  0.5006
 2238ntf    on512507   6.477   6.585   6.189  0.4038  0.1090  0.1722
 2238ntf    fn412508   6.231   6.558   6.320  0.3689  0.1704  0.1015
 2238ntf    fn412509   6.262   6.357   6.245 -0.2210  0.2957  0.4407
 2238ntf    fn412510   6.280   6.400   6.451 -0.5377 -0.0088  0.6053
 2239ntf    cn112511   0.415   6.115   1.357  0.4503  0.0473 -0.2000
 2239ntf    sn212512   0.260   6.122   1.262  0.2383  0.2140  0.1574
 2239ntf    nn312513   0.174   6.004   1.319  0.2822 -0.0441 -0.3042
 2239ntf    sn212514   0.169   5.852   1.279 -0.1780 -0.1692  0.2171
 2239ntf    cn112515   0.131   5.793   1.447  0.4848 -0.0562  0.4098
 2239ntf    fn412516   0.403   6.095   1.487 -0.2991  0.2505 -0.2289
 2239ntf    fn412517   0.501   6.025   1.312 -0.1861 -0.9036  0.4566
 2239ntf    fn412518   0.473   6.231   1.333  0.5157  0.0045 -0.2504
 2239ntf    on512519   0.204   6.249   1.303 -0.4622  0.0257 -0.2092
 2239ntf    on512520   0.304   6.117   1.125  0.4038 -0.3138  0.2295
 2239ntf    on512521   0.298   5.797   1.248  0.0368  0.4526 -0.0178
 2239ntf    on512522   0.050   5.813   1.208  0.1562  0.2140 -0.5644
 2239ntf    fn412523   0.110   5.663   1.447  0.4056 -0.0512 -0.6661
 2239ntf    fn412524   0.228   5.813   1.534  0.6193 -0.1249  0.2755
 2239ntf    fn412525   0.019   5.846   1.494  0.7315  0.7657  0.0887
 2240ntf    cn112526   1.146   4.469   1.051 -0.2524  0.2337 -0.0974
 2240ntf    sn212527   1.204   4.591   1.172  0.0192 -0.2721  0.2884
 2240ntf    nn312528   1.064   4.626   1.235 -0.1589 -0.0532 -0.2287
 2240ntf    sn212529   1.016   4.586   1.379 -0.0476  0.4336 -0.0540
 2240ntf    cn112530   0.942   4.422   1.353  0.3134  0.2293  0.2078
 2240ntf    fn412531   1.051   4.514   0.971  0.1650  0.8042 -0.2753
 2240ntf    fn412532   1.244   4.424   0.974 -0.5790  0.1847 -0.4852
 2240ntf    fn412533   1.106   4.359   1.114 -0.3600  0.0692 -0.4495
 2240ntf    on512534   1.294   4.516   1.255  0.4474 -0.1272 -0.0447
 2240ntf    on512535   1.259   4.699   1.094  0.0226 -0.3169  0.2291
 2240ntf    on512536   0.904   4.668   1.419 -0.1812  0.3932 -0.3409
 2240ntf    on512537   1.123   4.561   1.471 -0.2337  0.1975  0.0973
 2240ntf    fn412538   0.850   4.418   1.258  0.0967  0.4573  0.4038
 2240ntf    fn412539   1.028   4.326   1.324 -0.1956 -0.0047 -0.5287
 2240ntf    fn412540   0.879   4.385   1.463  0.1898  0.1327  0.1040
 2241ntf    cn112541   0.728   3.619   3.484 -0.0091 -0.0253 -0.0071
 2241ntf    sn212542   0.823   3.499   3.386 -0.0912  0.1104 -0.2561
 2241ntf    nn312543   0.800   3.546   3.238  0.4810  0.2076 -0.3185
 2241ntf    sn212544   0.702   3.496   3.126  0.2083  0.0410 -0.0086
 2241ntf    cn112545   0.805   3.379   3.034  0.2717 -0.0501  0.1796
 2241ntf    fn412546   0.741   3.584   3.610 -0.2017  0.2440  0.0892
 2241ntf    fn412547   0.777   3.742   3.473 -0.2919  0.1113  0.2552
 2241ntf    fn412548   0.601   3.613   3.447 -0.2791 -0.5065  0.9734
 2241ntf    on512549   0.961   3.523   3.422  0.0784  0.3984 -1.0836
 2241ntf    on512550   0.758   3.375   3.421 -0.0711  0.1783  0.0280
 2241ntf    on512551   0.664   3.600   3.033  0.0385  0.1718  0.2035
 2241ntf    on512552   0.586   3.423   3.171  0.0270 -0.1188 -0.7192
 2241ntf    fn412553   0.832   3.273   3.109 -0.4861  0.3096  0.9869
 2241ntf    fn412554   0.754   3.333   2.921  0.0324 -0.1185  0.3150
 2241ntf    fn412555   0.919   3.436   2.999  0.0850  0.0565 -0.2482
 2242ntf    cn112556   4.656   5.341   2.097  0.0488  0.3467 -0.1587
 2242ntf    sn212557   4.497   5.415   2.049 -0.1226  0.1334  0.0807
 2242ntf    nn312558   4.418   5.284   2.014  0.1143 -0.0301  0.1568
 2242ntf    sn212559   4.335   5.191   2.110 -0.1422  0.0903  0.0536
 2242ntf    cn112560   4.181   5.283   2.134  0.1026  0.5833 -0.2370
 2242ntf    fn412561   4.708   5.269   1.998  0.2027  0.2603 -0.0146
 2242ntf    fn412562   4.751   5.423   2.138  0.1323  0.3064 -0.2705
 2242ntf    fn412563   4.636   5.263   2.201  0.7126  0.2811 -0.0754
 2242ntf    on512564   4.462   5.492   2.166 -0.3980 -0.1710  0.2016
 2242ntf    on512565   4.529   5.489   1.930 -0.0306  0.1007  0.0850
 2242ntf    on512566   4.388   5.175   2.243  0.3919 -0.2931 -0.2004
 2242ntf    on512567   4.291   5.075   2.038  0.0274  0.2483 -0.3086
 2242ntf    fn412568   4.087   5.211   2.192  0.1904  0.0636 -0.7329
 2242ntf    fn412569   4.189   5.395   2.205 -0.0499  0.2583  0.2950
 2242ntf    fn412570   4.133   5.312   2.014 -0.0651 -0.7872 -0.5138
 2243ntf    cn112571   5.558   3.636   2.022  0.3765  0.3632 -0.3928
 2243ntf    sn212572   5.562   3.780   1.911 -0.2327  0.3488 -0.4385
 2243ntf    nn312573   5.436   3.861   1.956 -0.2611 -0.0209  0.1482
 2243ntf    sn212574   5.383   3.998   1.901 -0.5428 -0.1834  0.0082
 2243ntf    cn112575   5.441   4.107   2.035 -0.5439  0.1334 -0.2485
 2243ntf    fn412576   5.653   3.545   2.016 -0.0478 -0.1095  0.0135
 2243ntf    fn412577   5.571   3.680   2.146 -0.2656 -0.1659 -0.1284
 2243ntf    fn412578   5.442   3.572   2.017  0.4749  0.1734 -0.2433
 2243ntf    on512579   5.694   3.830   1.937  0.1479 -0.5679 -0.5481
 2243ntf    on512580   5.542   3.714   1.784 -0.3838 -0.0539 -0.2084
 2243ntf    on512581   5.240   4.009   1.911 -0.4946  0.3877  0.1245
 2243ntf    on512582   5.448   4.056   1.786  0.1035 -0.4637  0.2281
 2243ntf    fn412583   5.412   4.233   2.007 -0.1127  0.3577  0.3135
 2243ntf    fn412584   5.379   4.077   2.148  0.3286  0.1533  0.2445
 2243ntf    fn412585   5.571   4.093   2.053 -0.6584  0.2115  0.6583
 2244ntf    cn112586   3.118   4.983   1.943 -0.0290  0.1946 -0.5808
 2244ntf    sn212587   2.991   4.904   1.839 -0.1014  0.0379 -0.3758
 2244ntf    nn312588   2.868   4.917   1.935  0.1575 -0.3680  0.0124
 2244ntf    sn212589   2.761   4.804   1.956 -0.0823 -0.1143  0.1651
 2244ntf    cn112590   2.737   4.820   2.135  0.2318 -0.0863  0.2047
 2244ntf    fn412591   3.139   4.915   2.054  0.4286 -0.0986 -0.8414
 2244ntf    fn412592   3.239   4.993   1.889  0.5098 -0.4085  0.4763
 2244ntf    fn412593   3.072   5.099   1.986  0.1415  0.0534 -0.0046
 2244ntf    on512594   2.978   4.994   1.727  0.1652 -0.0447 -0.4737
 2244ntf    on512595   3.046   4.774   1.812 -0.7445 -0.3598  0.2274
 2244ntf    on512596   2.806   4.669   1.932  0.1547 -0.1120  0.5892
 2244ntf    on512597   2.632   4.832   1.899  0.2860 -0.1819 -0.7165
 2244ntf    fn412598   2.850   4.808   2.204  0.4899 -0.1672 -0.2261
 2244ntf    fn412599   2.694   4.938   2.176  0.1107 -0.0718  0.0361
 2244ntf    fn412600   2.652   4.732   2.185 -0.1756  0.1195 -0.1268
 2245ntf    cn112601   1.247   2.783   5.184 -0.2984 -0.5236  0.3803
 2245ntf    sn212602   1.234   2.694   5.026 -0.1895  0.1528 -0.0115
 2245ntf    nn312603   1.335   2.775   4.937 -0.1542  0.4138  0.2641
 2245ntf    sn212604   1.309   2.908   4.859 -0.0628  0.1270 -0.2618
 2245ntf    cn112605   1.460   2.913   4.757  0.1521  0.0389  0.0498
 2245ntf    fn412606   1.361   2.756   5.246 -0.1469 -0.6015  0.0745
 2245ntf    fn412607   1.214   2.911   5.176  0.0046 -0.4555  0.1891
 2245ntf    fn412608   1.157   2.727   5.263 -0.2710 -0.1663  0.6673
 2245ntf    on512609   1.284   2.561   5.046  0.1275  0.1922 -0.5206
 2245ntf    on512610   1.095   2.701   4.987 -0.1834 -0.2581 -0.1071
 2245ntf    on512611   1.308   3.027   4.941 -0.0971  0.0109 -0.0946
 2245ntf    on512612   1.208   2.901   4.756 -0.5123 -0.7152  0.2317
 2245ntf    fn412613   1.569   2.887   4.828 -0.0155 -0.3144  0.1825
 2245ntf    fn412614   1.456   2.821   4.662  0.4633  0.4118 -0.3265
 2245ntf    fn412615   1.483   3.026   4.693  0.1122  0.3700  0.6173
 2246ntf    cn112616   0.782   2.550   2.681 -0.1040 -0.1295  0.0509
 2246ntf    sn212617   0.812   2.722   2.631 -0.2983 -0.0554  0.1903
 2246ntf    nn312618   0.691   2.796   2.700 -0.0330  0.4142  0.1588
 2246ntf    sn212619   0.584   2.892   2.638 -0.3404 -0.1645 -0.2136
 2246ntf    cn112620   0.626   3.047   2.722  0.5250 -0.5768  0.1241
 2246ntf    fn412621   0.777   2.530   2.812  0.0014  0.1606  0.1001
 2246ntf    fn412622   0.670   2.501   2.631 -0.0333 -0.5070  0.2623
 2246ntf    fn412623   0.870   2.465   2.630  0.0216  0.1924 -0.2719
 2246ntf    on512624   0.939   2.754   2.691 -0.3555 -0.1868  0.3831
 2246ntf    on512625   0.799   2.711   2.488 -0.0257 -0.6776  0.2141
 2246ntf    on512626   0.453   2.849   2.680 -0.2894 -0.2608 -0.1543
 2246ntf    on512627   0.584   2.926   2.498 -0.1376  0.0327 -0.1662
 2246ntf    fn412628   0.627   3.031   2.853 -0.3378  0.1342  0.2265
 2246ntf    fn412629   0.743   3.100   2.690 -0.0995  0.5173 -0.4135
 2246ntf    fn412630   0.536   3.135   2.682  0.4367 -0.5805  0.3186
 2247ntf    cn112631   0.954   4.225   4.120 -0.1740 -0.1961 -0.1376
 2247ntf    sn212632   0.913   4.206   4.297 -0.1274 -0.2522 -0.1324
 2247ntf    nn312633   0.774   4.278   4.299  0.1612  0.3108 -0.0921
 2247ntf    sn212634   0.725   4.420   4.346 -0.0509  0.2698 -0.1852
 2247ntf    cn112635   0.695   4.374   4.520 -0.4718  0.0177 -0.3252
 2247ntf    fn412636   1.079   4.267   4.105 -0.4311  0.6131 -0.0237
 2247ntf    fn412637   0.937   4.107   4.062  0.0347 -0.1017 -0.3897
 2247ntf    fn412638   0.876   4.318   4.067  0.1874  0.3693  0.3080
 2247ntf    on512639   0.906   4.063   4.306 -0.0497 -0.2059  0.7691
 2247ntf    on512640   1.019   4.273   4.367  0.1831 -0.2008 -0.6418
 2247ntf    on512641   0.591   4.454   4.306 -0.3474 -0.0409  0.5233
 2247ntf    on512642   0.816   4.532   4.356  0.0357  0.1701  0.1755
 2247ntf    fn412643   0.605   4.277   4.528 -0.2218 -0.1612  0.3530
 2247ntf    fn412644   0.803   4.330   4.583 -0.6565 -0.7988 -0.5656
 2247ntf    fn412645   0.645   4.475   4.588  0.2509 -0.1500  0.4691
 2248ntf    cn112646   4.123   0.083   1.457  0.1384 -0.0781  0.1024
 2248ntf    sn212647   3.956   0.120   1.396  0.2301  0.2749  0.0660
 2248ntf    nn312648   3.964   0.053   1.254  0.2553  0.3332  0.0399
 2248ntf    sn212649   3.869   0.072   1.130 -0.0223  0.2362  0.2365
 2248ntf    cn112650   3.766  -0.077   1.144 -0.1236  0.2670 -0.1756
 2248ntf    fn412651   4.215   0.148   1.388  0.2392 -0.2829  0.0412
 2248ntf    fn412652   4.130   0.126   1.582 -0.1685 -0.2121  0.1677
 2248ntf    fn412653   4.155  -0.045   1.459 -0.0312 -0.1284 -0.3628
 2248ntf    on512654   3.869   0.044   1.481  0.6296 -0.2531  0.0055
 2248ntf    on512655   3.954   0.264   1.402 -0.2552  0.2783 -0.1157
 2248ntf    on512656   3.949   0.047   1.012 -0.1614  1.0537 -0.0352
 2248ntf    on512657   3.781   0.186   1.135 -0.0330  0.2400 -0.0550
 2248ntf    fn412658   3.665  -0.088   1.059 -0.2144 -0.1950 -0.0088
 2248ntf    fn412659   3.836  -0.188   1.126 -0.2959  0.0646  0.3900
 2248ntf    fn412660   3.718  -0.089   1.267  0.1942 -0.8949 -0.1464
 2249ntf    cn112661   6.251   4.391   6.399 -0.0611  0.4497  0.0123
 2249ntf    sn212662   6.100   4.451   6.480 -0.1752  0.2341 -0.0409
 2249ntf    nn312663   6.059   4.564   6.380 -0.0224  0.5597  0.2636
 2249ntf    sn212664   5.914   4.611   6.340 -0.1789 -0.0947  0.0517
 2249ntf    cn112665   5.949   4.713   6.194 -0.3786  0.4139  0.3580
 2249ntf    fn412666   6.217   4.363   6.274 -0.1293  0.4957  0.0207
 2249ntf    fn412667   6.349   4.480   6.393  0.1362  0.2205 -0.1554
 2249ntf    fn412668   6.297   4.273   6.436 -0.2825  0.2914 -0.2139
 2249ntf    on512669   6.016   4.334   6.473  0.1524  0.0235 -0.5301
 2249ntf    on512670   6.140   4.505   6.608  0.7225  0.2640 -0.3269
 2249ntf    on512671   5.848   4.701   6.431  0.0421 -0.2472  0.3685
 2249ntf    on512672   5.831   4.507   6.286  0.5231 -0.4085 -0.4449
 2249ntf    fn412673   6.039   4.805   6.226 -0.0679  0.1925  0.1181
 2249ntf    fn412674   6.010   4.648   6.097  0.2001  0.1016  0.9204
 2249ntf    fn412675   5.843   4.770   6.139 -0.1919  0.4812  0.0678
 2250ntf    cn112676   1.148   6.674   4.183 -0.0988  0.1582 -0.1030
 2250ntf    sn212677   1.167   6.549   4.314  0.0018 -0.1727 -0.4330
 2250ntf    nn312678   1.135   6.424   4.225 -0.2213 -0.0322 -0.5505
 2250ntf    sn212679   1.246   6.333   4.161  0.1714  0.2650 -0.2968
 2250ntf    cn112680   1.246   6.383   3.987  0.0011  0.0030 -0.3730
 2250ntf    fn412681   1.115   6.793   4.231 -0.1969  0.1610 -0.1797
 2250ntf    fn412682   1.264   6.694   4.122 -0.0241 -0.4327 -0.1546
 2250ntf    fn412683   1.061   6.638   4.091 -0.1193 -0.0546 -0.0021
 2250ntf    on512684   1.301   6.566   4.364 -0.0753  0.1329 -0.3282
 2250ntf    on512685   1.063   6.580   4.409  0.2305  0.6660 -0.4471
 2250ntf    on512686   1.206   6.194   4.162  0.9702  0.0327  0.4772
 2250ntf    on512687   1.384   6.356   4.195  0.0918  0.2695  0.0289
 2250ntf    fn412688   1.129   6.407   3.930  0.0479  0.1103 -0.4248
 2250ntf    fn412689   1.302   6.503   3.982 -0.1421  0.0910  0.1238
 2250ntf    fn412690   1.317   6.304   3.908  0.4220 -0.1423  0.1501
 2251ntf    cn112691   2.785   5.721   0.608  0.0330 -0.0691  0.1089
 2251ntf    sn212692   2.770   5.541   0.627  0.1348 -0.0649  0.2294
 2251ntf    nn312693   2.621   5.508   0.591  0.3178 -0.3876 -0.2372
 2251ntf    sn212694   2.567   5.443   0.459 -0.1436 -0.1989 -0.1408
 2251ntf    cn112695   2.399   5.511   0.439  0.0711  0.3424 -0.0870
 2251ntf    fn412696   2.783   5.757   0.481  0.2634  0.1866  0.1756
 2251ntf    fn412697   2.683   5.789   0.658  0.3933  0.3355  0.2978
 2251ntf    fn412698   2.903   5.767   0.648 -0.0633  0.1651  0.1261
 2251ntf    on512699   2.868   5.486   0.537  0.1591  0.4748 -0.0774
 2251ntf    on512700   2.797   5.522   0.768 -0.1484  0.1294  0.3095
 2251ntf    on512701   2.546   5.301   0.473  0.2659 -0.2980 -0.5226
 2251ntf    on512702   2.633   5.490   0.340 -0.4925 -0.1859 -0.3322
 2251ntf    fn412703   2.373   5.524   0.310 -0.4830 -0.2645 -0.0389
 2251ntf    fn412704   2.302   5.444   0.498  0.0390  0.2613 -0.2317
 2251ntf    fn412705   2.395   5.632   0.493  0.0469  0.3523 -0.1108
 2252ntf    cn112706   0.345   6.602   6.061 -0.1973 -0.5756 -0.3962
 2252ntf    sn212707   0.441   6.481   5.965  0.2336 -0.3408 -0.2619
 2252ntf    nn312708   0.472   6.565   5.836  0.1619  0.0016 -0.0587
 2252ntf    sn212709   0.604   6.638   5.790  0.0092  0.0773 -0.3778
 2252ntf    cn112710   0.539   6.766   5.678 -0.4199  0.0239 -0.1928
 2252ntf    fn412711   0.235   6.636   5.997 -0.3455 -0.2115  0.0438
 2252ntf    fn412712   0.310   6.555   6.180 -0.0211 -0.3011 -0.2350
 2252ntf    fn412713   0.412   6.714   6.083 -0.7735 -0.2588 -0.2253
 2252ntf    on512714   0.545   6.457   6.062 -0.5215 -0.0085  0.6474
 2252ntf    on512715   0.343   6.376   5.951  0.0907 -0.2974  0.3853
 2252ntf    on512716   0.680   6.563   5.693  0.3281  0.3466 -0.3346
 2252ntf    on512717   0.674   6.712   5.892  0.4250  0.0254 -0.6244
 2252ntf    fn412718   0.472   6.855   5.749 -0.2105  0.1940 -0.2066
 2252ntf    fn412719   0.629   6.832   5.607 -0.0913 -0.2895 -0.0687
 2252ntf    fn412720   0.449   6.721   5.592 -0.0627 -0.2331 -0.4337
 2253ntf    cn112721   0.199   3.614   2.489  0.1170  0.4769 -0.0684
 2253ntf    sn212722   0.021   3.587   2.465  0.2132 -0.1757 -0.0731
 2253ntf    nn312723  -0.006   3.655   2.325  0.6383 -0.0585 -0.0985
 2253ntf    sn212724   0.039   3.604   2.183  0.2431 -0.3387 -0.1235
 2253ntf    cn112725   0.133   3.751   2.133 -0.1590 -0.2590 -0.6608
 2253ntf    fn412726   0.233   3.569   2.609 -0.0860  0.4737 -0.0119
 2253ntf    fn412727   0.266   3.535   2.407 -0.0006  0.3412 -0.0340
 2253ntf    fn412728   0.246   3.736   2.470  0.1266  0.3914 -0.5942
 2253ntf    on512729   0.000   3.446   2.481  0.1601 -0.2473 -0.7139
 2253ntf    on512730  -0.019   3.666   2.578 -0.3034 -0.7653  0.1606
 2253ntf    on512731  -0.065   3.602   2.084  0.4302 -0.0855 -0.3263
 2253ntf    on512732   0.136   3.498   2.188 -0.0928 -0.6175  0.6783
 2253ntf    fn412733   0.062   3.861   2.145  0.1891 -0.0896 -0.0847
 2253ntf    fn412734   0.243   3.775   2.204 -0.0397 -0.6399 -0.7158
 2253ntf    fn412735   0.171   3.733   2.008 -0.0113 -0.1513 -0.6318
 2254ntf    cn112736   0.326   0.532   5.484 -0.1137  0.2909  0.0079
 2254ntf    sn212737   0.231   0.396   5.411  0.2787 -0.0987  0.2207
 2254ntf    nn312738   0.215   0.449   5.264  0.1847 -0.2822  0.1636
 2254ntf    sn212739   0.243   0.375   5.128 -0.2701 -0.0829 -0.0394
 2254ntf    cn112740   0.098   0.416   5.025  0.0744 -0.3583 -0.6388
 2254ntf    fn412741   0.439   0.554   5.420  0.1711  0.1958  0.4703
 2254ntf    fn412742   0.253   0.642   5.489 -0.2234  0.2043  0.4012
 2254ntf    fn412743   0.354   0.510   5.612 -0.1836  0.1944  0.0069
 2254ntf    on512744   0.317   0.282   5.432 -0.4439 -0.6059  0.4451
 2254ntf    on512745   0.106   0.413   5.481  0.1923  0.6431 -0.1016
 2254ntf    on512746   0.222   0.232   5.128 -0.0733 -0.1137  0.4042
 2254ntf    on512747   0.355   0.438   5.063 -0.2978 -0.0618 -0.0667
 2254ntf    fn412748   0.101   0.356   4.907 -0.8948 -0.5468 -0.5743
 2254ntf    fn412749  -0.014   0.368   5.077  0.0952  0.2623 -0.0062
 2254ntf    fn412750   0.074   0.544   5.005  0.0760 -0.1782  0.4519
 2255ntf    cn112751   4.012   6.613   4.418  0.4972  0.2004 -0.3426
 2255ntf    sn212752   4.123   6.481   4.476 -0.0079 -0.0531  0.0541
 2255ntf    nn312753   4.126   6.392   4.348 -0.6664 -0.5432  0.3746
 2255ntf    sn212754   4.235   6.284   4.315  0.0147  0.2120  0.1490
 2255ntf    cn112755   4.155   6.198   4.177  0.4874 -0.2275  0.1442
 2255ntf    fn412756   4.062   6.685   4.319  0.1796  0.4697 -0.3098
 2255ntf    fn412757   3.900   6.565   4.368  0.2625  0.1622  0.2053
 2255ntf    fn412758   3.979   6.699   4.514 -0.4309 -0.6008  0.0739
 2255ntf    on512759   4.237   6.553   4.528 -0.2221  0.1722  0.2195
 2255ntf    on512760   4.039   6.421   4.577  0.0321 -0.2527 -0.0313
 2255ntf    on512761   4.244   6.184   4.418 -0.1505 -0.3078 -0.3359
 2255ntf    on512762   4.353   6.332   4.246  0.2090 -0.1169  0.2523
 2255ntf    fn412763   4.027   6.162   4.177  0.2666  0.5375  0.1427
 2255ntf    fn412764   4.164   6.273   4.068 -0.7210  0.0720  0.2392
 2255ntf    fn412765   4.210   6.086   4.133 -0.0245 -0.3982 -0.0714
 2256ntf    cn112766   0.264   6.484   3.195 -0.2199  0.1192 -0.0102
 2256ntf    sn212767   0.430   6.440   3.138 -0.1495  0.2440  0.0971
 2256ntf    nn312768   0.443   6.284   3.149  0.1308  0.2581 -0.0236
 2256ntf    sn212769   0.391   6.168   3.057 -0.3262  0.4622 -0.0263
 2256ntf    cn112770   0.545   6.087   3.003 -0.4089  0.5587 -0.4127
 2256ntf    fn412771   0.166   6.414   3.140  0.2891 -0.3577 -0.3172
 2256ntf    fn412772   0.248   6.474   3.326  0.1615  0.2032  0.0434
 2256ntf    fn412773   0.236   6.608   3.158 -0.2245  0.1463  0.0838
 2256ntf    on512774   0.439   6.503   3.008 -0.6323  0.2268  0.0542
 2256ntf    on512775   0.517   6.492   3.241 -0.0631  0.0078  0.1446
 2256ntf    on512776   0.330   6.199   2.930  0.0491  0.2918 -0.2497
 2256ntf    on512777   0.332   6.062   3.136  0.8431 -0.4771 -0.3779
 2256ntf    fn412778   0.576   5.991   3.089 -0.2115  1.0132  0.0294
 2256ntf    fn412779   0.540   6.037   2.881  0.0330 -0.0564 -0.1857
 2256ntf    fn412780   0.647   6.170   2.992 -0.2874  0.5350  0.4377
 2257ntf    cn112781   3.155   5.899   6.076  0.4761  0.2997 -0.7308
 2257ntf    sn212782   3.274   5.761   6.080 -0.1370 -0.2112  0.1668
 2257ntf    nn312783   3.318   5.770   5.930 -0.2544  0.3656  0.1648
 2257ntf    sn212784   3.408   5.877   5.858  0.1198 -0.1306 -0.1097
 2257ntf    cn112785   3.493   5.776   5.733  0.0339 -0.0274 -0.2505
 2257ntf    fn412786   3.212   6.018   6.087  0.8382  0.0812 -0.1777
 2257ntf    fn412787   3.080   5.903   5.968 -0.5603 -0.3728 -0.0528
 2257ntf    fn412788   3.070   5.894   6.177  0.6868 -0.0779 -0.5698
 2257ntf    on512789   3.372   5.798   6.179  0.0971  0.4294 -0.2988
 2257ntf    on512790   3.191   5.647   6.110 -0.3052 -0.1229  0.0383
 2257ntf    on512791   3.511   5.941   5.937  0.4190 -0.1957 -0.4471
 2257ntf    on512792   3.333   5.975   5.784  0.3136  0.2359  0.1752
 2257ntf    fn412793   3.559   5.845   5.641  0.4252 -0.3014 -0.1754
 2257ntf    fn412794   3.577   5.690   5.788 -0.2305  0.0345  0.2588
 2257ntf    fn412795   3.408   5.699   5.668 -0.5358  0.4079 -0.0316
 2258ntf    cn112796   3.696   3.139   2.113 -0.4454  0.1797 -0.2034
 2258ntf    sn212797   3.745   3.117   2.286  0.3386  0.2427 -0.4141
 2258ntf    nn312798   3.889   3.179   2.297  0.4920 -0.1085 -0.4544
 2258ntf    sn212799   3.912   3.327   2.342 -0.1025 -0.1791  0.0944
 2258ntf    cn112800   4.094   3.338   2.342 -0.1301  0.3246  0.3372
 2258ntf    fn412801   3.570   3.099   2.103 -0.5778  0.4287  0.4332
 2258ntf    fn412802   3.701   3.265   2.073 -0.0040  0.1061 -0.3763
 2258ntf    fn412803   3.768   3.062   2.033  0.3428  0.6295  0.0758
 2258ntf    on512804   3.635   3.176   2.360 -0.0431 -0.4416 -0.4244
 2258ntf    on512805   3.762   2.974   2.291  0.4347  0.2442 -0.6818
 2258ntf    on512806   3.879   3.360   2.479  0.3276 -0.2322  0.2140
 2258ntf    on512807   3.889   3.427   2.241  0.7974  0.0373  0.0908
 2258ntf    fn412808   4.151   3.267   2.246  0.0603  0.7601  0.1237
 2258ntf    fn412809   4.145   3.460   2.332 -0.2367  0.3262 -0.2144
 2258ntf    fn412810   4.136   3.298   2.461  0.0828  0.0075  0.1560
 2259ntf    cn112811   4.554   3.816   3.166 -0.0465  0.0747  0.0427
 2259ntf    sn212812   4.565   3.812   2.984 -0.1669  0.0969  0.0340
 2259ntf    nn312813   4.656   3.685   2.965  0.1880  0.4116 -0.4040
 2259ntf    sn212814   4.604   3.537   2.956 -0.1618  0.5216 -0.2320
 2259ntf    cn112815   4.709   3.462   3.084 -0.3244  0.2782 -0.2408
 2259ntf    fn412816   4.493   3.921   3.219 -0.6790 -0.0221 -0.4721
 2259ntf    fn412817   4.487   3.711   3.210 -0.0250  0.1343  0.2156
 2259ntf    fn412818   4.677   3.820   3.213 -0.0073  0.0278 -0.0549
 2259ntf    on512819   4.429   3.804   2.938  0.0537 -0.4278 -0.5346
 2259ntf    on512820   4.630   3.938   2.957 -0.8585  0.3743 -0.3543
 2259ntf    on512821   4.654   3.459   2.845 -0.2118  0.2230 -0.0456
 2259ntf    on512822   4.471   3.509   3.005 -0.2156 -0.2582 -0.7957
 2259ntf    fn412823   4.837   3.484   3.059 -0.1908 -0.0954  0.0944
 2259ntf    fn412824   4.684   3.521   3.199 -0.1323  0.1611 -0.1391
 2259ntf    fn412825   4.689   3.332   3.096  0.2004  0.2402  0.2278
 2260ntf    cn112826   0.390   1.566   6.264 -0.1021 -0.0236  0.3866
 2260ntf    sn212827   0.451   1.561   6.092  0.0883 -0.0919  0.4555
 2260ntf    nn312828   0.604   1.557   6.124  0.3757  0.0137 -0.8564
 2260ntf    sn212829   0.713   1.665   6.157  0.2209 -0.0263 -0.2002
 2260ntf    cn112830   0.808   1.561   6.273  0.0290 -0.1309 -0.1364
 2260ntf    fn412831   0.471   1.504   6.348 -0.0210 -0.2955  0.1088
 2260ntf    fn412832   0.370   1.686   6.317  0.5950  0.3086 -0.0842
 2260ntf    fn412833   0.274   1.504   6.277 -0.1101 -0.1146 -0.0742
 2260ntf    on512834   0.396   1.435   6.048 -0.0830  0.1462 -0.0143
 2260ntf    on512835   0.402   1.681   6.030 -0.2197 -0.4496  0.0044
 2260ntf    on512836   0.661   1.778   6.231  0.4346 -0.0824  0.0404
 2260ntf    on512837   0.806   1.691   6.050  0.3204  0.2194 -0.0559
 2260ntf    fn412838   0.738   1.511   6.372  0.0763 -0.4021 -0.2396
 2260ntf    fn412839   0.869   1.458   6.216  0.6080 -0.0292  0.2877
 2260ntf    fn412840   0.915   1.623   6.319 -0.2880 -0.3011  0.8424
 2261ntf    cn112841   2.795   6.760   3.564  0.0289 -0.3164 -0.2979
 2261ntf    sn212842   2.955   6.721   3.486  0.2342 -0.2209  0.0751
 2261ntf    nn312843   2.914   6.581   3.429 -0.0343  0.0333 -0.3677
 2261ntf    sn212844   2.973   6.514   3.299  0.1234 -0.4228 -0.0653
 2261ntf    cn112845   2.841   6.563   3.184  0.1752 -0.0108  0.0472
 2261ntf    fn412846   2.699   6.772   3.473  0.0306 -0.4455 -0.3171
 2261ntf    fn412847   2.751   6.657   3.635 -0.4220 -0.2242 -0.4349
 2261ntf    fn412848   2.795   6.866   3.642  0.5387 -0.0374 -0.6759
 2261ntf    on512849   2.982   6.828   3.393  0.4429 -0.0379  0.3412
 2261ntf    on512850   3.039   6.715   3.603  0.0454  0.3683  0.2490
 2261ntf    on512851   2.968   6.370   3.302  0.1089 -0.4132  0.6444
 2261ntf    on512852   3.088   6.577   3.240 -0.1697  0.0133 -0.1744
 2261ntf    fn412853   2.839   6.497   3.069 -0.5339 -0.5190  0.3430
 2261ntf    fn412854   2.723   6.537   3.238  0.3514 -0.6548  0.1292
 2261ntf    fn412855   2.847   6.693   3.161  0.7943 -0.1059 -0.3499
 2262ntf    cn112856   2.279   6.345   2.762 -0.2068 -0.0049  0.1987
 2262ntf    sn212857   2.167   6.215   2.822 -0.1159 -0.2190 -0.0924
 2262ntf    nn312858   2.035   6.300   2.829 -0.0254 -0.0599 -0.3331
 2262ntf    sn212859   1.920   6.308   2.722 -0.0756 -0.0576 -0.2792
 2262ntf    cn112860   1.837   6.455   2.789 -0.3815 -0.0795 -0.6027
 2262ntf    fn412861   2.397   6.291   2.738 -0.0174  0.5760 -0.1715
 2262ntf    fn412862   2.235   6.396   2.648  0.0988 -0.6934 -0.2312
 2262ntf    fn412863   2.292   6.446   2.845 -0.2021  0.1305  0.0329
 2262ntf    on512864   2.173   6.107   2.726  0.0688 -0.1863 -0.1167
 2262ntf    on512865   2.220   6.192   2.954  0.1739  0.4520 -0.0890
 2262ntf    on512866   1.822   6.202   2.728  0.0974 -0.1986  0.0416
 2262ntf    on512867   1.954   6.353   2.589  0.1233 -0.0186 -0.2153
 2262ntf    fn412868   1.901   6.568   2.766 -0.5198  0.2134  0.4215
 2262ntf    fn412869   1.719   6.475   2.734 -0.3962  0.2653 -0.4456
 2262ntf    fn412870   1.832   6.454   2.921  0.6280  0.3197 -0.5516
 2263ntf    cn112871   6.039   1.833   1.164 -0.3742  0.1810 -0.5613
 2263ntf    sn212872   6.104   1.779   1.003 -0.0199 -0.5769 -0.1695
 2263ntf    nn312873   6.161   1.640   1.046  0.4838 -0.3462 -0.0873
 2263ntf    sn212874   6.117   1.492   1.020 -0.2419 -0.1414 -0.0459
 2263ntf    cn112875   6.228   1.460   0.879  0.2313  0.2805  0.2273
 2263ntf    fn412876   5.933   1.760   1.193 -0.0895 -0.0764 -0.1716
 2263ntf    fn412877   6.124   1.839   1.265 -1.0112 -0.2193  0.0074
 2263ntf    fn412878   5.985   1.954   1.161 -0.4440  0.1817  0.3890
 2263ntf    on512879   5.992   1.771   0.913 -0.0709  0.0713 -0.1728
 2263ntf    on512880   6.205   1.880   0.981 -0.4534 -0.2250 -0.5927
 2263ntf    on512881   5.986   1.473   0.962 -0.3873 -0.2508  0.3202
 2263ntf    on512882   6.164   1.406   1.126  0.1249 -0.0792 -0.1546
 2263ntf    fn412883   6.201   1.340   0.831  0.1855  0.4166 -0.0936
 2263ntf    fn412884   6.214   1.548   0.781 -0.0999  0.2456  0.2400
 2263ntf    fn412885   6.353   1.459   0.923  0.3466 -0.0822 -0.1008
 2264ntf    cn112886   6.372   1.412   4.016 -0.0597  0.0709  0.0878
 2264ntf    sn212887   6.247   1.540   4.050 -0.0421  0.1209 -0.0364
 2264ntf    nn312888   6.132   1.446   4.102 -0.0336  0.0324 -0.1757
 2264ntf    sn212889   6.078   1.421   4.247 -0.1039 -0.3303 -0.2641
 2264ntf    cn112890   6.091   1.241   4.270  0.1304 -0.2091  0.5843
 2264ntf    fn412891   6.484   1.474   3.982 -0.0003  0.1806  0.4724
 2264ntf    fn412892   6.399   1.331   4.117  0.9615  0.2221 -0.0508
 2264ntf    fn412893   6.330   1.343   3.911  0.7072  0.1229 -0.2565
 2264ntf    on512894   6.307   1.623   4.151  0.6873 -0.1380 -0.2499
 2264ntf    on512895   6.217   1.613   3.929 -0.0596  0.8976  0.4343
 2264ntf    on512896   5.939   1.449   4.271  0.0206  0.0110  0.0723
 2264ntf    on512897   6.167   1.450   4.357 -0.0187  0.1682 -0.4637
 2264ntf    fn412898   6.050   1.209   4.392 -0.6719  0.0337  0.3848
 2264ntf    fn412899   6.014   1.177   4.183  0.0413  0.2939  0.2896
 2264ntf    fn412900   6.215   1.206   4.242  0.1376  0.5435 -0.3697
 2265ntf    cn112901   1.144   1.158   5.116  0.2571 -0.3486 -0.0539
 2265ntf    sn212902   0.992   1.230   5.186  0.4167  0.0671 -0.1340
 2265ntf    nn312903   1.034   1.246   5.337  0.4799 -0.0744 -0.1359
 2265ntf    sn212904   1.072   1.376   5.416  0.0025  0.0223 -0.0574
 2265ntf    cn112905   0.907   1.429   5.469  0.1401  0.1497  0.2492
 2265ntf    fn412906   1.242   1.246   5.115 -0.2845  0.2665 -0.0539
 2265ntf    fn412907   1.187   1.051   5.180 -0.0081 -0.4836 -0.0991
 2265ntf    fn412908   1.124   1.122   4.991 -0.5610  0.1884 -0.0876
 2265ntf    on512909   0.969   1.355   5.118  0.0188 -0.0005 -0.1289
 2265ntf    on512910   0.899   1.123   5.161  0.3526  0.0532  0.1624
 2265ntf    on512911   1.117   1.486   5.335 -0.3134 -0.2800 -0.6474
 2265ntf    on512912   1.153   1.336   5.529 -0.5398 -0.0089  0.3224
 2265ntf    fn412913   0.908   1.550   5.523 -0.4514  0.3547 -0.1860
 2265ntf    fn412914   0.812   1.422   5.377 -0.1950 -0.1595  0.6134
 2265ntf    fn412915   0.859   1.346   5.561  0.0770  0.1451  0.2127
 2266ntf    cn112916   2.692   6.807   1.850 -0.1802  0.0501  0.2683
 2266ntf    sn212917   2.792   6.953   1.809 -0.3411 -0.0375 -0.4498
 2266ntf    nn312918   2.933   6.891   1.841 -0.3777 -0.0412 -0.2960
 2266ntf    sn212919   3.036   6.811   1.754 -0.1634 -0.2004  0.1037
 2266ntf    cn112920   3.177   6.923   1.781 -0.2329 -0.0502 -0.1529
 2266ntf    fn412921   2.745   6.697   1.798  0.1350  0.3310 -0.0047
 2266ntf    fn412922   2.681   6.790   1.981 -0.1079  0.3022  0.3070
 2266ntf    fn412923   2.574   6.826   1.793 -0.1263  0.2091  0.2103
 2266ntf    on512924   2.763   6.974   1.669 -0.1068  0.2660 -0.4546
 2266ntf    on512925   2.753   7.051   1.907 -0.4626  0.0363 -0.5718
 2266ntf    on512926   3.017   6.798   1.612 -0.2078 -0.5659  0.1417
 2266ntf    on512927   3.091   6.692   1.814  0.0941 -0.1009  0.0655
 2266ntf    fn412928   3.289   6.867   1.737 -0.0329  0.0959  0.1630
 2266ntf    fn412929   3.162   7.033   1.709 -0.0574 -0.1893 -0.4048
 2266ntf    fn412930   3.187   6.958   1.908  0.4253  0.2225 -0.2720
 2267ntf    cn112931   2.528   5.576   5.418 -0.0208  0.0320 -0.4957
 2267ntf    sn212932   2.376   5.496   5.359 -0.0269 -0.2255 -0.1354
 2267ntf    nn312933   2.305   5.623   5.301 -0.3550 -0.2700  0.1692
 2267ntf    sn212934   2.199   5.719   5.367 -0.2851 -0.1476  0.1058
 2267ntf    cn112935   2.042   5.642   5.316 -0.3039 -0.2191  0.2685
 2267ntf    fn412936   2.605   5.482   5.469 -0.1055  0.2703  0.0854
 2267ntf    fn412937   2.595   5.627   5.316 -0.0156 -0.3232 -0.6707
 2267ntf    fn412938   2.512   5.671   5.509  0.5755 -0.4237  0.0993
 2267ntf    on512939   2.431   5.415   5.254  0.2740 -0.4357  0.1842
 2267ntf    on512940   2.314   5.430   5.471 -0.5237 -0.0262 -0.2878
 2267ntf    on512941   2.195   5.848   5.303  0.4105 -0.5465 -0.7585
 2267ntf    on512942   2.198   5.724   5.511 -0.1434  0.8489  0.0770
 2267ntf    fn412943   2.003   5.667   5.192  0.0867 -0.3390  0.1211
 2267ntf    fn412944   2.050   5.512   5.336  0.1507 -0.2488 -0.0976
 2267ntf    fn412945   1.938   5.690   5.382 -0.4491 -0.2371  0.0544
 2268ntf    cn112946   0.559   5.763   6.225 -0.0189  0.2977 -0.4321
 2268ntf    sn212947   0.666   5.781   6.371 -0.1512 -0.2503 -0.2638
 2268ntf    nn312948   0.776   5.882   6.320 -0.1878  0.1316  0.4065
 2268ntf    sn212949   0.764   6.038   6.330  0.3450  0.1985  0.0410
 2268ntf    cn112950   0.916   6.085   6.243  0.2252  0.0948 -0.2245
 2268ntf    fn412951   0.613   5.723   6.111 -0.1352 -0.6246 -0.1703
 2268ntf    fn412952   0.456   5.683   6.245  0.1268  0.1378 -0.3203
 2268ntf    fn412953   0.509   5.885   6.210  0.3278  0.5346  0.2529
 2268ntf    on512954   0.569   5.828   6.466  0.5931  1.0162 -0.1019
 2268ntf    on512955   0.722   5.651   6.397  0.4727  0.0581 -0.0204
 2268ntf    on512956   0.786   6.086   6.464  0.3181 -0.0270  0.1255
 2268ntf    on512957   0.661   6.100   6.249 -0.3142 -0.3861  0.4203
 2268ntf    fn412958   0.948   6.210   6.270  0.7878 -0.1885  0.4518
 2268ntf    fn412959   1.023   6.018   6.284 -0.2179 -0.5507 -0.1079
 2268ntf    fn412960   0.909   6.075   6.111 -0.2889 -0.0651 -0.1872
 2269ntf    cn112961   2.446   0.030   0.960  0.2437 -0.2849  0.0548
 2269ntf    sn212962   2.404  -0.070   1.106  0.1041 -0.3934 -0.0596
 2269ntf    nn312963   2.249  -0.090   1.090 -0.0044  0.4236 -0.0669
 2269ntf    sn212964   2.130   0.004   1.131 -0.3467 -0.0998  0.1494
 2269ntf    cn112965   2.061   0.018   0.963  0.4477 -0.0698 -0.1772
 2269ntf    fn412966   2.392  -0.011   0.847  0.1759  0.1423 -0.0714
 2269ntf    fn412967   2.415   0.158   0.978  0.1691 -0.3705  0.5457
 2269ntf    fn412968   2.575   0.027   0.933  0.2141  0.0561 -0.1333
 2269ntf    on512969   2.478  -0.193   1.094  0.4083 -0.2271  0.1015
 2269ntf    on512970   2.440   0.015   1.217  0.0910  0.2991 -0.5784
 2269ntf    on512971   2.168   0.139   1.165 -0.1764 -0.0931 -0.0696
 2269ntf    on512972   2.021  -0.052   1.208 -0.2112  0.3634  0.6864
 2269ntf    fn412973   2.025  -0.096   0.908  0.4634  0.1762 -0.7042
 2269ntf    fn412974   1.944   0.079   0.970  0.2082 -0.6276  0.7402
 2269ntf    fn412975   2.137   0.084   0.876 -0.0896  0.3349 -0.3466
 2270ntf    cn112976   3.367   5.255   5.564  0.2150 -0.0069  0.2654
 2270ntf    sn212977   3.265   5.236   5.713  0.3867  0.2578  0.4169
 2270ntf    nn312978   3.376   5.201   5.818  0.3950 -0.0696  0.3002
 2270ntf    sn212979   3.376   5.243   5.969 -0.1356  0.2811  0.2073
 2270ntf    cn112980   3.457   5.406   5.965  0.5076 -0.0292  0.3208
 2270ntf    fn412981   3.444   5.150   5.540  0.2515  0.0301  0.2227
 2270ntf    fn412982   3.299   5.279   5.453 -0.0268  0.0980  0.4354
 2270ntf    fn412983   3.451   5.355   5.582 -0.3504  0.6162 -0.4853
 2270ntf    on512984   3.198   5.363   5.729  0.0176  0.1118  0.0524
 2270ntf    on512985   3.183   5.123   5.676  0.1231  0.3196  0.7983
 2270ntf    on512986   3.471   5.163   6.043 -0.2994  0.2943  0.4331
 2270ntf    on512987   3.247   5.257   6.032 -0.4120  0.3136 -0.3595
 2270ntf    fn412988   3.586   5.403   5.936  0.4534 -0.2053  0.0923
 2270ntf    fn412989   3.396   5.481   5.875  0.7882  0.3294  0.4316
 2270ntf    fn412990   3.444   5.470   6.080 -0.6897 -0.0014  0.1827
 2271ntf    cn112991   4.300   6.853   0.691  0.1524 -0.4160  0.2497
 2271ntf    sn212992   4.289   6.921   0.523  0.1228 -0.3576  0.2754
 2271ntf    nn312993   4.290   6.785   0.444 -0.6518 -0.0788 -0.2233
 2271ntf    sn212994   4.412   6.699   0.396 -0.6348 -0.0576 -0.2170
 2271ntf    cn112995   4.468   6.800   0.255 -0.2587 -0.0601 -0.0710
 2271ntf    fn412996   4.284   6.950   0.778 -0.4804 -0.2782 -0.0152
 2271ntf    fn412997   4.210   6.758   0.707  0.0245 -0.3466 -0.0484
 2271ntf    fn412998   4.416   6.792   0.711 -0.0999 -1.1394 -0.4370
 2271ntf    on512999   4.169   7.001   0.519  0.4685  0.1823  0.5216
 2271ntf    on513000   4.407   7.004   0.510 -0.1006 -0.1190 -0.2786
 2271ntf    on513001   4.377   6.570   0.344  0.1964 -0.3924  0.0356
 2271ntf    on513002   4.522   6.702   0.490 -0.5575 -0.1195 -0.3058
 2271ntf    fn413003   4.395   6.907   0.230 -0.4258 -0.1573 -0.0036
 2271ntf    fn413004   4.586   6.855   0.276 -0.3485  0.0253  0.2233
 2271ntf    fn413005   4.476   6.723   0.148  0.5164 -0.0631 -0.0144
 2272ntf    cn113006   0.838   0.807   3.671 -0.1793 -0.2251  0.3709
 2272ntf    sn213007   0.719   0.669   3.658 -0.4379  0.0381 -0.0861
 2272ntf    nn313008   0.578   0.738   3.655 -0.5289 -0.1080  0.5807
 2272ntf    sn213009   0.492   0.782   3.531  0.0359  0.2794  0.3200
 2272ntf    cn113010   0.355   0.876   3.605 -0.1741  0.0731  0.1933
 2272ntf    fn413011   0.965   0.772   3.680 -0.1314 -0.2260 -0.3068
 2272ntf    fn413012   0.832   0.890   3.569  0.9138  0.0967  0.5544
 2272ntf    fn413013   0.822   0.888   3.774 -0.5313  0.1634  0.0141
 2272ntf    on513014   0.753   0.600   3.536  0.1339  0.3298 -0.1003
 2272ntf    on513015   0.728   0.593   3.780  0.1600  0.4277  0.1243
 2272ntf    on513016   0.427   0.670   3.466  0.8526 -0.0323  0.0292
 2272ntf    on513017   0.549   0.884   3.447  0.2618 -0.1327 -0.0296
 2272ntf    fn413018   0.262   0.917   3.520 -0.0020  0.0644  0.0020
 2272ntf    fn413019   0.296   0.810   3.704 -0.0138 -0.4572 -0.0585
 2272ntf    fn413020   0.408   0.975   3.674 -0.1466  0.2698 -0.1071
 2273ntf    cn113021   2.557   1.023   5.269  0.0257  0.0673  0.1245
 2273ntf    sn213022   2.530   1.106   5.429 -0.1097  0.4827 -0.1111
 2273ntf    nn313023   2.637   1.218   5.402  0.2316  0.2688  0.3259
 2273ntf    sn213024   2.612   1.363   5.348 -0.2739 -0.0054 -0.1985
 2273ntf    cn113025   2.765   1.451   5.392 -0.3132 -0.1455  0.2203
 2273ntf    fn413026   2.477   0.921   5.241 -0.1650  0.2009  0.1807
 2273ntf    fn413027   2.538   1.111   5.172 -0.7805  0.3122  0.4923
 2273ntf    fn413028   2.683   0.989   5.247  0.0321  0.2288 -0.0898
 2273ntf    on513029   2.393   1.150   5.432 -0.2710 -0.0070 -0.1725
 2273ntf    on513030   2.568   1.005   5.525 -0.1917  0.2761 -0.2964
 2273ntf    on513031   2.519   1.433   5.433  0.0945 -0.0850  0.2750
 2273ntf    on513032   2.604   1.375   5.205  0.4235 -0.1633 -0.2516
 2273ntf    fn413033   2.870   1.388   5.341 -0.5000  0.3267 -0.7658
 2273ntf    fn413034   2.772   1.573   5.344 -0.3365 -0.2294  0.0037
 2273ntf    fn413035   2.776   1.462   5.524  0.2713  0.2484  0.1418
 2274ntf    cn113036   5.987   0.473   0.166 -0.0844 -0.0252  0.0010
 2274ntf    sn213037   6.021   0.441   0.342 -0.0989  0.4426  0.0899
 2274ntf    nn313038   6.146   0.349   0.319 -0.4330  0.1922 -0.7707
 2274ntf    sn213039   6.299   0.385   0.312 -0.3813  0.1654  0.0762
 2274ntf    cn113040   6.360   0.273   0.183 -0.0081  0.2443  0.1827
 2274ntf    fn413041   6.094   0.492   0.092  0.0953 -0.0530  0.2506
 2274ntf    fn413042   5.922   0.377   0.102  0.2588 -0.1065 -0.2261
 2274ntf    fn413043   5.906   0.576   0.149  0.1694  0.2057  0.1826
 2274ntf    on513044   6.048   0.574   0.391 -0.0391  0.3084  0.4238
 2274ntf    on513045   5.913   0.363   0.395  0.3245  0.0328  0.3539
 2274ntf    on513046   6.369   0.332   0.426  0.1330  0.1380 -0.2496
 2274ntf    on513047   6.323   0.515   0.255  0.2047  0.0859  0.1388
 2274ntf    fn413048   6.382   0.152   0.231 -0.3644  0.0024 -0.2484
 2274ntf    fn413049   6.271   0.251   0.087  0.0195  0.4726  0.1048
 2274ntf    fn413050   6.476   0.313   0.134  0.0026 -0.4362 -0.3761
 2275ntf    cn113051   3.262   4.339   5.479 -0.0683 -0.1422  0.2393
 2275ntf    sn213052   3.434   4.282   5.492 -0.0221 -0.0431  0.0598
 2275ntf    nn313053   3.492   4.352   5.364 -0.2215 -0.2253 -0.1312
 2275ntf    sn213054   3.575   4.484   5.346 -0.0313 -0.3398 -0.0935
 2275ntf    cn113055   3.737   4.437   5.413  0.2049  0.1586 -0.3122
 2275ntf    fn413056   3.186   4.270   5.563  0.2368 -0.1106  0.5424
 2275ntf    fn413057   3.247   4.470   5.492  0.0331 -0.1574  0.5197
 2275ntf    fn413058   3.213   4.313   5.359  0.0963  0.1588  0.1097
 2275ntf    on513059   3.469   4.335   5.621 -0.6641 -0.2470  0.3197
 2275ntf    on513060   3.437   4.139   5.475  0.3453 -0.0632  0.2930
 2275ntf    on513061   3.520   4.588   5.429 -0.1286 -0.0044 -0.5753
 2275ntf    on513062   3.595   4.511   5.206  0.4197 -0.3431 -0.0309
 2275ntf    fn413063   3.831   4.530   5.402  0.2646  0.1360 -0.0057
 2275ntf    fn413064   3.736   4.395   5.539 -0.5041 -0.1219 -0.4079
 2275ntf    fn413065   3.780   4.332   5.346  0.4454  0.1637 -0.1676
 2276ntf    cn113066   1.550   5.433   3.779  0.0449  0.3836 -0.0144
 2276ntf    sn213067   1.423   5.411   3.907  0.1664 -0.1090  0.0227
 2276ntf    nn313068   1.333   5.294   3.854  0.1057  0.1837 -0.5350
 2276ntf    sn213069   1.330   5.142   3.893 -0.1760  0.2525 -0.2848
 2276ntf    cn113070   1.220   5.156   4.037 -0.0114  0.2530 -0.1587
 2276ntf    fn413071   1.653   5.500   3.829  0.1949  0.1572 -0.0173
 2276ntf    fn413072   1.604   5.320   3.737  0.1895  0.3617  0.2279
 2276ntf    fn413073   1.506   5.490   3.667 -0.0625  0.0306 -0.1520
 2276ntf    on513074   1.502   5.387   4.024  0.4830 -0.2463 -0.2176
 2276ntf    on513075   1.353   5.537   3.900 -0.6079 -0.5819 -1.0508
 2276ntf    on513076   1.454   5.085   3.939 -0.2644  0.4894  0.2603
 2276ntf    on513077   1.261   5.067   3.790  0.2823  0.0317 -0.4326
 2276ntf    fn413078   1.095   5.175   3.996 -0.2210 -0.2668  0.2209
 2276ntf    fn413079   1.225   5.045   4.109  0.3920  0.4343  0.0926
 2276ntf    fn413080   1.254   5.253   4.120  0.3308  0.0314 -0.0409
 2277ntf    cn113081   6.826   1.143   3.330 -0.3419  0.0278 -0.2139
 2277ntf    sn213082   6.676   1.101   3.237 -0.1373 -0.0444 -0.5135
 2277ntf    nn313083   6.714   0.961   3.178  0.1580 -0.1492 -0.0787
 2277ntf    sn213084   6.799   0.931   3.049  0.1094  0.0085 -0.1463
 2277ntf    cn113085   6.660   0.948   2.933 -0.1762  0.0981  0.2062
 2277ntf    fn413086   6.799   1.200   3.446  0.6264 -0.0167  0.0439
 2277ntf    fn413087   6.906   1.040   3.352  0.1807  0.5128  0.2303
 2277ntf    fn413088   6.897   1.236   3.267  0.0434  0.1486  0.3893
 2277ntf    on513089   6.574   1.096   3.339  0.3399  0.4673 -0.0082
 2277ntf    on513090   6.665   1.209   3.142 -0.4188  0.1835 -0.2240
 2277ntf    on513091   6.835   0.792   3.043  0.7206  0.1341  0.5287
 2277ntf    on513092   6.900   1.026   3.011 -0.0472 -0.0251 -0.6630
 2277ntf    fn413093   6.589   1.055   2.964  0.3128  0.4802  0.0249
 2277ntf    fn413094   6.692   0.963   2.805 -0.0131  0.0077  0.2365
 2277ntf    fn413095   6.571   0.850   2.939  0.0399 -0.1163 -0.0474
 2278ntf    cn113096   6.773   5.249   6.506  0.2839  0.0565  0.0047
 2278ntf    sn213097   6.651   5.383   6.486  0.0253 -0.1967 -0.1084
 2278ntf    nn313098   6.685   5.484   6.601 -0.3371  0.0084 -0.1796
 2278ntf    sn213099   6.749   5.627   6.600 -0.0989 -0.0958 -0.0286
 2278ntf    cn113100   6.655   5.694   6.741  0.0388  0.0677 -0.0143
 2278ntf    fn413101   6.896   5.298   6.515  0.1805  0.3074  0.0764
 2278ntf    fn413102   6.741   5.175   6.610  0.1813 -0.0550 -0.1062
 2278ntf    fn413103   6.772   5.162   6.407  0.0651 -0.1834  0.2194
 2278ntf    on513104   6.691   5.429   6.355 -0.4574  0.4537 -0.0298
 2278ntf    on513105   6.519   5.327   6.498 -0.2012  0.4380  0.3613
 2278ntf    on513106   6.729   5.715   6.488 -0.0441 -0.0914 -0.0351
 2278ntf    on513107   6.882   5.629   6.657 -0.3821 -0.6129  0.6703
 2278ntf    fn413108   6.652   5.621   6.852 -0.1688 -0.1310 -0.1497
 2278ntf    fn413109   6.703   5.811   6.779  0.3696  0.0538 -0.3754
 2278ntf    fn413110   6.529   5.709   6.705 -0.0991 -0.4010  0.2555
 2279ntf    cn113111   5.632   2.760   3.249  0.2887  0.0820 -0.2391
 2279ntf    sn213112   5.780   2.827   3.330  0.1162  0.0801  0.0777
 2279ntf    nn313113   5.860   2.895   3.214  0.8045 -0.2200  0.3667
 2279ntf    sn213114   5.946   2.831   3.099  0.2528 -0.2739 -0.0255
 2279ntf    cn113115   6.108   2.822   3.181  0.3271  0.1236 -0.1274
 2279ntf    fn413116   5.569   2.863   3.196 -0.3457 -0.2355 -0.1142
 2279ntf    fn413117   5.650   2.680   3.145  0.2314  0.1881 -0.3306
 2279ntf    fn413118   5.541   2.703   3.326  0.2292 -0.0391 -0.3983
 2279ntf    on513119   5.720   2.926   3.416  0.5820  0.2011  0.2637
 2279ntf    on513120   5.830   2.704   3.389  0.0746 -0.2407 -0.5497
 2279ntf    on513121   5.968   2.924   2.991 -0.0650 -0.1558  0.0106
 2279ntf    on513122   5.925   2.692   3.068  0.3639 -0.3284  0.1394
 2279ntf    fn413123   6.134   2.926   3.259 -0.1831  0.3574 -0.2670
 2279ntf    fn413124   6.111   2.714   3.257 -0.3537 -0.2487 -0.6230
 2279ntf    fn413125   6.211   2.819   3.098  0.2469 -0.0139 -0.2215
 2280ntf    cn113126   1.366   2.234   6.234  0.0827  0.0049 -0.4772
 2280ntf    sn213127   1.546   2.248   6.257  0.0235 -0.2021  0.1368
 2280ntf    nn313128   1.583   2.307   6.116 -0.2425 -0.0436  0.1314
 2280ntf    sn213129   1.725   2.301   6.050 -0.1581 -0.3386  0.3401
 2280ntf    cn113130   1.772   2.476   6.061 -0.6142 -0.1771 -0.2303
 2280ntf    fn413131   1.308   2.337   6.174  0.2783 -0.0115 -0.6927
 2280ntf    fn413132   1.339   2.127   6.161 -0.0295 -0.4960  0.2820
 2280ntf    fn413133   1.303   2.217   6.349  0.7393  0.2376 -0.0744
 2280ntf    on513134   1.556   2.347   6.362 -0.2254 -0.8596  0.7866
 2280ntf    on513135   1.590   2.113   6.280 -0.0100 -0.2487 -0.0718
 2280ntf    on513136   1.710   2.283   5.908 -0.0663  0.2155  0.2572
 2280ntf    on513137   1.829   2.237   6.128  0.5122  0.1326 -0.1547
 2280ntf    fn413138   1.774   2.501   6.191  0.5930 -0.0188 -0.2661
 2280ntf    fn413139   1.887   2.504   6.002 -0.3917  0.1301  0.3400
 2280ntf    fn413140   1.686   2.551   5.995 -0.2759  0.5139  0.1053
 2281ntf    cn113141   6.831   4.616   6.281 -0.1840 -0.3110  0.1476
 2281ntf    sn213142   6.785   4.440   6.270 -0.1123 -0.3111 -0.1389
 2281ntf    nn313143   6.895   4.381   6.175 -0.2476 -0.7474 -0.0258
 2281ntf    sn213144   6.979   4.249   6.186  0.0000 -0.5663  0.2842
 2281ntf    cn113145   6.975   4.200   6.010 -0.3646 -0.3025  0.2177
 2281ntf    fn413146   6.958   4.642   6.306 -0.2341  0.1350 -0.0652
 2281ntf    fn413147   6.805   4.675   6.166  0.0249 -0.0550  0.2300
 2281ntf    fn413148   6.767   4.675   6.380 -0.0100  0.0248  0.0622
 2281ntf    on513149   6.784   4.391   6.405 -0.1031  0.5912  0.1924
 2281ntf    on513150   6.655   4.453   6.208  0.0896  0.6077 -0.3942
 2281ntf    on513151   6.909   4.137   6.243 -0.4892 -0.2182  0.3693
 2281ntf    on513152   7.119   4.263   6.216  0.0837 -0.3205 -0.2017
 2281ntf    fn413153   6.880   4.116   5.973 -0.4656 -0.2528  0.3599
 2281ntf    fn413154   6.956   4.304   5.930 -0.0787  0.0805  0.6404
 2281ntf    fn413155   7.092   4.149   5.975 -0.4341 -0.3128  0.0023
 2282ntf    cn113156   2.208   6.878   1.711  0.1666  0.1006 -0.1614
 2282ntf    sn213157   2.125   6.971   1.843 -0.0397 -0.0938 -0.1520
 2282ntf    nn313158   2.160   6.882   1.968 -0.1927  0.1409  0.0593
 2282ntf    sn213159   2.279   6.885   2.071 -0.4767  0.0103  0.3937
 2282ntf    cn113160   2.329   6.711   2.053  0.1772  0.2307  0.0424
 2282ntf    fn413161   2.340   6.885   1.716  0.1863 -0.4585  0.2187
 2282ntf    fn413162   2.172   6.751   1.723  0.3301  0.0676 -0.0184
 2282ntf    fn413163   2.175   6.922   1.591 -0.1267  0.0630 -0.0959
 2282ntf    on513164   2.214   7.084   1.839 -0.2047  0.0406 -0.0156
 2282ntf    on513165   1.987   6.980   1.804  0.1130  0.0529 -0.6675
 2282ntf    on513166   2.231   6.899   2.206 -0.4149 -0.5098  0.4732
 2282ntf    on513167   2.399   6.954   2.031 -0.6195  0.2823  0.4315
 2282ntf    fn413168   2.419   6.664   2.137 -0.2530 -0.4334  0.1438
 2282ntf    fn413169   2.223   6.631   2.051  0.1821  0.2103  0.4878
 2282ntf    fn413170   2.379   6.689   1.932 -0.3771 -0.1994 -0.1130
 2283ntf    cn113171   2.441   5.120   6.546 -0.0631 -0.0416  0.2573
 2283ntf    sn213172   2.457   5.184   6.716  0.1528 -0.0293  0.2314
 2283ntf    nn313173   2.385   5.323   6.703  0.1342 -0.0120  0.5173
 2283ntf    sn213174   2.262   5.374   6.786 -0.1980 -0.1020  0.0864
 2283ntf    cn113175   2.230   5.531   6.699 -0.3373 -0.1815 -0.0067
 2283ntf    fn413176   2.473   5.202   6.448  0.0135 -0.1288  0.2098
 2283ntf    fn413177   2.516   5.011   6.534 -0.3055 -0.1611 -0.1739
 2283ntf    fn413178   2.318   5.074   6.528  0.0070 -0.0676 -0.1462
 2283ntf    on513179   2.395   5.078   6.790 -0.2354 -0.0614 -0.1347
 2283ntf    on513180   2.598   5.207   6.739  0.1919  0.5551 -0.5180
 2283ntf    on513181   2.295   5.422   6.918 -0.4621  0.0658  0.0924
 2283ntf    on513182   2.145   5.292   6.764  0.1318 -0.6246  0.2591
 2283ntf    fn413183   2.135   5.605   6.755 -0.2873 -0.3756  0.3417
 2283ntf    fn413184   2.343   5.599   6.696 -0.1662 -0.4661 -0.0642
 2283ntf    fn413185   2.202   5.519   6.571 -0.6347 -0.0409  0.0447
 2284ntf    cn113186   1.482   2.965   1.853  0.2815  0.0124 -0.4400
 2284ntf    sn213187   1.368   2.825   1.861  0.0687  0.2117  0.0326
 2284ntf    nn313188   1.235   2.901   1.825  0.2709  0.5094 -0.0805
 2284ntf    sn213189   1.169   2.912   1.683 -0.2705  0.0632  0.1337
 2284ntf    cn113190   1.011   2.827   1.710 -0.0789 -0.2494  0.2782
 2284ntf    fn413191   1.508   3.000   1.728  0.0389 -0.1872 -0.5474
 2284ntf    fn413192   1.428   3.072   1.908  0.3541 -0.0426 -0.2614
 2284ntf    fn413193   1.600   2.949   1.911  0.1464  0.1969 -0.1113
 2284ntf    on513194   1.419   2.726   1.769 -0.4762  0.1608 -0.2238
 2284ntf    on513195   1.360   2.789   2.001 -0.9450 -0.0739 -0.0848
 2284ntf    on513196   1.231   2.833   1.579 -0.0328 -0.0084  0.3288
 2284ntf    on513197   1.130   3.047   1.652  0.0074  0.3304  0.9274
 2284ntf    fn413198   0.936   2.879   1.806 -0.0942  0.1499  0.0526
 2284ntf    fn413199   0.935   2.815   1.602 -0.4762 -0.2063  0.5510
 2284ntf    fn413200   1.033   2.703   1.750 -0.2246 -0.2705  0.2957
 2285ntf    cn113201   2.406   2.406   2.807 -0.1289  0.0770 -0.0398
 2285ntf    sn213202   2.517   2.300   2.708  0.1414  0.0330  0.3088
 2285ntf    nn313203   2.630   2.265   2.812  0.5119 -0.1560 -0.1583
 2285ntf    sn213204   2.643   2.150   2.917 -0.2478 -0.2409 -0.1513
 2285ntf    cn113205   2.660   2.242   3.072 -0.3469 -0.1206 -0.2121
 2285ntf    fn413206   2.357   2.344   2.913 -0.2679  0.6974  0.2612
 2285ntf    fn413207   2.474   2.509   2.856  0.0846 -0.1194  0.0806
 2285ntf    fn413208   2.308   2.452   2.731  0.0827  0.0501 -0.3337
 2285ntf    on513209   2.438   2.191   2.657  0.0446  0.4457 -0.4310
 2285ntf    on513210   2.563   2.398   2.613  0.0068 -0.2827 -0.0849
 2285ntf    on513211   2.771   2.085   2.907 -0.2807 -0.3563  0.1537
 2285ntf    on513212   2.525   2.070   2.942 -0.6611  0.4843  0.2577
 2285ntf    fn413213   2.561   2.330   3.084  0.2492  0.4976  0.2696
 2285ntf    fn413214   2.640   2.174   3.184 -0.6092  0.3237  0.0170
 2285ntf    fn413215   2.772   2.312   3.075 -0.1422 -0.4416 -0.3832
 2286ntf    cn113216   5.044   2.773   0.560 -0.1161  0.0766 -0.1666
 2286ntf    sn213217   5.078   2.775   0.738 -0.2700 -0.2508 -0.1322
 2286ntf    nn313218   5.157   2.910   0.752 -0.0205 -0.3690 -0.3932
 2286ntf    sn213219   5.310   2.927   0.782 -0.1087 -0.0936 -0.0843
 2286ntf    cn113220   5.345   3.093   0.717  0.2780 -0.1734 -0.0870
 2286ntf    fn413221   5.155   2.804   0.496 -0.0792  0.4424  0.0719
 2286ntf    fn413222   5.006   2.655   0.512  0.4939 -0.0012 -0.4695
 2286ntf    fn413223   4.947   2.858   0.530  0.0003  0.3120  0.1248
 2286ntf    on513224   4.949   2.786   0.803 -0.3212 -0.3792 -0.2101
 2286ntf    on513225   5.151   2.655   0.771  0.0525  0.0951  0.4347
 2286ntf    on513226   5.394   2.845   0.697 -0.2720 -0.2079 -0.1357
 2286ntf    on513227   5.343   2.939   0.922 -0.1153 -0.1037 -0.0820
 2286ntf    fn413228   5.256   3.181   0.760  0.2929 -0.2100  0.0191
 2286ntf    fn413229   5.466   3.135   0.751  0.5007 -0.6024 -0.3406
 2286ntf    fn413230   5.334   3.107   0.586 -0.6266  0.6830  0.0703
 2287ntf    cn113231   1.033   0.947   6.256  0.1358  0.3303  0.1223
 2287ntf    sn213232   0.998   0.856   6.103  0.0512  0.1006  0.2774
 2287ntf    nn313233   1.136   0.797   6.057 -0.0810 -0.0863  0.1189
 2287ntf    sn213234   1.237   0.868   5.960 -0.0276 -0.3452 -0.0139
 2287ntf    cn113235   1.186   0.803   5.798 -0.0318  0.1395 -0.2074
 2287ntf    fn413236   1.147   1.015   6.256  0.1804  0.2554  0.1692
 2287ntf    fn413237   0.939   1.033   6.295 -0.0389 -0.0759  0.6048
 2287ntf    fn413238   1.043   0.868   6.362  0.4550 -0.0697 -0.2061
 2287ntf    on513239   0.914   0.745   6.139 -0.1383  0.2436  0.2812
 2287ntf    on513240   0.934   0.960   6.026 -0.0139 -0.2394 -0.1310
 2287ntf    on513241   1.372   0.817   5.965  0.0759 -0.0173  0.5475
 2287ntf    on513242   1.230   1.011   5.948 -0.1086 -0.3206  0.3237
 2287ntf    fn413243   1.169   0.672   5.796  0.5561  0.0617 -0.4052
 2287ntf    fn413244   1.072   0.863   5.767 -0.0389  0.2141 -0.0372
 2287ntf    fn413245   1.270   0.831   5.699  0.5895  0.2096  0.3392
 2288ntf    cn113246   6.042   6.302   2.700 -0.2728 -0.0541 -0.2264
 2288ntf    sn213247   6.141   6.453   2.681 -0.3275  0.0358  0.1860
 2288ntf    nn313248   6.132   6.507   2.828 -0.0765  0.2853  0.1100
 2288ntf    sn213249   6.238   6.509   2.943  0.1980  0.1990 -0.1406
 2288ntf    cn113250   6.160   6.393   3.060  0.3616  0.1951 -0.0337
 2288ntf    fn413251   5.938   6.310   2.782  0.2291 -0.0740  0.4151
 2288ntf    fn413252   5.989   6.253   2.589 -0.5464  0.2763 -0.2436
 2288ntf    fn413253   6.126   6.206   2.734 -0.0898  0.2755  0.2730
 2288ntf    on513254   6.263   6.392   2.634 -0.4714  0.4819 -0.7996
 2288ntf    on513255   6.084   6.542   2.583 -0.2118 -0.2634 -0.1562
 2288ntf    on513256   6.232   6.635   3.013  0.2058  0.1764 -0.0981
 2288ntf    on513257   6.363   6.445   2.908  0.0826 -0.0999 -0.0120
 2288ntf    fn413258   6.238   6.366   3.162 -0.4213  0.0582  0.5389
 2288ntf    fn413259   6.055   6.443   3.125  0.0260 -0.4358 -0.0821
 2288ntf    fn413260   6.124   6.279   3.003 -0.1762  0.3787 -0.0758
 2289ntf    cn113261   3.972   6.186   6.742 -0.2075  0.0404 -0.2997
 2289ntf    sn213262   3.838   6.063   6.752 -0.1114 -0.0594 -0.2383
 2289ntf    nn313263   3.848   6.005   6.606  0.2073  0.0932 -0.2791
 2289ntf    sn213264   3.906   5.869   6.554  0.1898 -0.0194 -0.0051
 2289ntf    cn113265   3.770   5.753   6.586 -0.1252  0.3368 -0.0446
 2289ntf    fn413266   3.948   6.298   6.675  0.1061  0.4108  0.1945
 2289ntf    fn413267   4.019   6.229   6.859  0.0645 -0.0109 -0.3895
 2289ntf    fn413268   4.077   6.137   6.679  0.3054  0.6218  0.0824
 2289ntf    on513269   3.881   5.965   6.848  0.1816  0.1327 -0.1693
 2289ntf    on513270   3.722   6.145   6.775  0.5506  0.7184  0.4236
 2289ntf    on513271   4.008   5.809   6.636  0.4033  0.4850  0.0989
 2289ntf    on513272   3.923   5.874   6.411  0.2548 -0.0509  0.0019
 2289ntf    fn413273   3.656   5.785   6.527 -0.3434 -0.1181  0.1199
 2289ntf    fn413274   3.786   5.627   6.547 -0.4222  0.3563 -0.2327
 2289ntf    fn413275   3.734   5.746   6.714  0.1942  0.0408  0.0306
 2290ntf    cn113276   6.355   6.549   0.133 -0.5430  0.1734  0.1879
 2290ntf    sn213277   6.302   6.508   0.302 -0.2339 -0.0813  0.2256
 2290ntf    nn313278   6.180   6.415   0.267 -0.0793 -0.0908 -0.2914
 2290ntf    sn213279   6.136   6.289   0.349 -0.0077 -0.2542 -0.5029
 2290ntf    cn113280   5.959   6.306   0.312 -0.0928 -0.2105 -0.0844
 2290ntf    fn413281   6.402   6.452   0.055 -0.2885  0.3469  0.1245
 2290ntf    fn413282   6.253   6.595   0.062  0.0492 -0.0687 -0.8445
 2290ntf    fn413283   6.440   6.650   0.131 -0.2921 -0.0410 -0.1053
 2290ntf    on513284   6.417   6.448   0.363 -0.1460 -0.0193  0.1222
 2290ntf    on513285   6.256   6.633   0.359 -0.2785  0.1517 -0.3134
 2290ntf    on513286   6.142   6.297   0.493  0.1267 -0.5984 -0.4885
 2290ntf    on513287   6.169   6.161   0.291  0.2801 -0.3127 -0.2127
 2290ntf    fn413288   5.892   6.347   0.418 -0.5241  0.0578 -0.4542
 2290ntf    fn413289   5.938   6.390   0.211 -0.4800 -0.5084 -0.2540
 2290ntf    fn413290   5.910   6.190   0.274  0.0414 -0.3209  0.0767
 2291ntf    cn113291   2.547   2.311   5.992  0.0834 -0.0165  0.2774
 2291ntf    sn213292   2.578   2.132   6.006  0.2055 -0.0022  0.1892
 2291ntf    nn313293   2.669   2.129   6.134 -0.0144 -0.7135  0.3325
 2291ntf    sn213294   2.800   2.045   6.155  0.4944  0.0017  0.0708
 2291ntf    cn113295   2.923   2.179   6.160  0.6318 -0.1103 -0.2422
 2291ntf    fn413296   2.440   2.349   5.924  0.1037 -0.0232  0.2407
 2291ntf    fn413297   2.532   2.372   6.108  0.0646  0.2762  0.1210
 2291ntf    fn413298   2.646   2.373   5.930  0.2172 -0.3601  0.1460
 2291ntf    on513299   2.443   2.087   6.028  0.3036 -0.3739  0.0432
 2291ntf    on513300   2.624   2.087   5.877  0.5237 -0.3753  0.4318
 2291ntf    on513301   2.837   1.963   6.042  0.6006  0.4553 -0.2236
 2291ntf    on513302   2.815   1.988   6.287 -0.3634 -0.2521  0.0638
 2291ntf    fn413303   3.042   2.143   6.205  0.5180 -0.4267 -0.1881
 2291ntf    fn413304   2.938   2.224   6.037 -0.5692  0.5689 -0.1584
 2291ntf    fn413305   2.885   2.273   6.245  0.6063 -0.3097 -0.0304
 2292ntf    cn113306   4.844   4.222   5.870 -0.5260 -0.4651  0.1606
 2292ntf    sn213307   4.853   4.266   6.046 -0.1055 -0.2324  0.0820
 2292ntf    nn313308   4.813   4.126   6.107  0.1284 -0.0210  0.7333
 2292ntf    sn213309   4.895   3.995   6.136  0.0376 -0.2919 -0.2028
 2292ntf    cn113310   4.921   4.014   6.315  0.0532 -0.3556 -0.1983
 2292ntf    fn413311   4.915   4.112   5.853  0.0940  0.0379 -0.5592
 2292ntf    fn413312   4.721   4.192   5.833 -0.5624 -0.2414  0.0979
 2292ntf    fn413313   4.897   4.319   5.796 -0.4662 -0.2599  0.4699
 2292ntf    on513314   4.990   4.311   6.057 -0.1298  0.0525 -0.7555
 2292ntf    on513315   4.753   4.365   6.075  0.4133  0.3251 -0.0227
 2292ntf    on513316   5.031   3.999   6.088 -0.1051  0.2018 -0.5817
 2292ntf    on513317   4.811   3.881   6.112 -0.2224 -0.0388 -0.5114
 2292ntf    fn413318   4.980   4.131   6.337  0.5867 -0.6375 -0.1157
 2292ntf    fn413319   4.809   4.008   6.384  0.4492 -0.6450  0.4249
 2292ntf    fn413320   4.991   3.916   6.368 -0.2741 -0.4105  0.1330
 2293ntf    cn113321   4.734   2.922   2.632  0.0716  0.0220  0.2645
 2293ntf    sn213322   4.572   2.926   2.550  0.0751 -0.1636  0.2491
 2293ntf    nn313323   4.596   2.847   2.416 -0.5505  0.5519 -0.2919
 2293ntf    sn213324   4.656   2.893   2.278  0.2223  0.1292 -0.1014
 2293ntf    cn113325   4.506   2.918   2.177  0.1645  0.3818  0.0455
 2293ntf    fn413326   4.756   2.795   2.660 -0.1386 -0.0371  0.1657
 2293ntf    fn413327   4.835   2.955   2.553 -0.1968 -0.0370 -0.1068
 2293ntf    fn413328   4.740   2.998   2.740  0.3019  0.3913 -0.0061
 2293ntf    on513329   4.485   2.865   2.647  0.2791 -0.2782  0.3611
 2293ntf    on513330   4.550   3.066   2.523 -0.1621 -0.2811 -0.1884
 2293ntf    on513331   4.719   2.784   2.209 -0.1256 -0.2456  0.1643
 2293ntf    on513332   4.722   3.021   2.273 -0.3346  0.4177 -0.1412
 2293ntf    fn413333   4.534   2.988   2.069 -0.5459  0.8867  0.1790
 2293ntf    fn413334   4.458   2.802   2.136  0.3464  0.2612  0.1645
 2293ntf    fn413335   4.409   2.975   2.247 -0.1062  0.0180 -0.0317
 2294ntf    cn113336   5.380   2.248   3.690 -0.2852 -0.3380  0.2944
 2294ntf    sn213337   5.439   2.377   3.576  0.1292 -0.5292  0.2891
 2294ntf    nn313338   5.581   2.318   3.547 -0.0479 -0.8771  0.1168
 2294ntf    sn213339   5.648   2.287   3.408  0.0239  0.2024 -0.0977
 2294ntf    cn113340   5.615   2.109   3.390  0.1210  0.2421 -0.6939
 2294ntf    fn413341   5.436   2.257   3.810  0.2605  0.2655 -0.0008
 2294ntf    fn413342   5.250   2.257   3.711 -0.2687 -0.2034  0.3429
 2294ntf    fn413343   5.393   2.126   3.641  0.1252 -0.1964  0.0466
 2294ntf    on513344   5.345   2.368   3.466  0.3228  0.5079  0.0335
 2294ntf    on513345   5.436   2.493   3.661  0.3613 -0.1964 -0.1558
 2294ntf    on513346   5.791   2.294   3.425  0.1845  0.1994 -1.3542
 2294ntf    on513347   5.591   2.350   3.292  0.0777  0.4302 -0.0008
 2294ntf    fn413348   5.628   2.037   3.500  0.2628  0.4300 -0.5871
 2294ntf    fn413349   5.491   2.085   3.351 -0.0526 -0.1092  0.0593
 2294ntf    fn413350   5.688   2.053   3.294  0.4636 -0.3998 -0.0712
 2295ntf    cn113351   3.995   0.328   0.011 -0.0570  0.1098 -0.1680
 2295ntf    sn213352   4.050   0.268   0.173 -0.0997  0.0778 -0.1651
 2295ntf    nn313353   4.013   0.116   0.167 -0.0960  0.0736 -0.0858
 2295ntf    sn213354   3.887   0.049   0.232 -0.1233  0.1474 -0.0630
 2295ntf    cn113355   3.886  -0.112   0.149  0.1582  0.0645  0.0911
 2295ntf    fn413356   4.060   0.263  -0.085 -0.0726 -0.3409  0.1274
 2295ntf    fn413357   3.869   0.307  -0.025  0.1380 -0.2651 -0.6495
 2295ntf    fn413358   4.029   0.455  -0.005 -0.1346  0.1146 -0.3052
 2295ntf    on513359   4.192   0.292   0.184 -0.1073 -0.0862  0.3066
 2295ntf    on513360   3.972   0.346   0.265  0.5549 -0.5158  0.9128
 2295ntf    on513361   3.757   0.099   0.195 -0.1335  0.4154  0.3204
 2295ntf    on513362   3.908   0.020   0.372  0.2936  0.4934 -0.0533
 2295ntf    fn413363   3.789  -0.193   0.189  0.0803  0.2362  0.2472
 2295ntf    fn413364   3.857  -0.102   0.020  0.1890  0.4635  0.1137
 2295ntf    fn413365   4.000  -0.179   0.152 -0.2174 -0.6046 -0.2087
 2296ntf    cn113366   1.484   5.233   5.811  0.0209 -0.3103 -0.0883
 2296ntf    sn213367   1.404   5.221   5.973 -0.0312  0.3643 -0.0586
 2296ntf    nn313368   1.444   5.361   6.031 -0.3201  0.2023  0.5452
 2296ntf    sn213369   1.549   5.382   6.146  0.1448  0.2407  0.1193
 2296ntf    cn113370   1.468   5.329   6.300 -0.3698  0.0735 -0.2058
 2296ntf    fn413371   1.450   5.340   5.740  0.4026 -0.6194 -0.7580
 2296ntf    fn413372   1.616   5.241   5.819  0.0082 -0.1479 -0.0417
 2296ntf    fn413373   1.465   5.130   5.730  0.1705  0.0720 -0.6208
 2296ntf    on513374   1.263   5.220   5.944 -0.0475 -0.0392  0.0256
 2296ntf    on513375   1.467   5.105   6.034 -1.1012 -0.5404 -0.6467
 2296ntf    on513376   1.579   5.521   6.172  0.3198  0.3196 -0.4938
 2296ntf    on513377   1.665   5.296   6.139 -0.0990 -0.0384 -0.5619
 2296ntf    fn413378   1.430   5.203   6.290 -0.1334  0.0044 -0.2501
 2296ntf    fn413379   1.553   5.334   6.402 -0.2179 -0.1413 -0.3214
 2296ntf    fn413380   1.358   5.396   6.332  0.1372  1.0025 -0.3683
 2297ntf    cn113381   3.066   4.923   3.564  0.1223  0.4451  0.3948
 2297ntf    sn213382   3.086   5.022   3.414 -0.1722 -0.3248 -0.1588
 2297ntf    nn313383   2.948   5.096   3.397  0.1742  0.3511 -0.0856
 2297ntf    sn213384   2.897   5.219   3.480 -0.0036  0.3341 -0.1692
 2297ntf    cn113385   2.863   5.355   3.365 -0.2938  0.2888 -0.1377
 2297ntf    fn413386   3.148   4.819   3.566 -0.1005  0.2604 -0.0934
 2297ntf    fn413387   3.087   5.000   3.670  0.1387  0.9506  0.0251
 2297ntf    fn413388   2.944   4.870   3.574  0.1189  0.3134 -0.3518
 2297ntf    on513389   3.207   5.097   3.435 -0.2864 -0.0259 -0.5494
 2297ntf    on513390   3.089   4.915   3.317 -0.2049  0.0826 -0.6189
 2297ntf    on513391   2.995   5.269   3.573 -0.0284  0.1287 -0.0307
 2297ntf    on513392   2.769   5.184   3.536  0.2992 -0.0828  0.2821
 2297ntf    fn413393   2.968   5.386   3.291  0.2258 -0.6259  0.1882
 2297ntf    fn413394   2.764   5.328   3.281 -0.0382 -0.0339 -0.3403
 2297ntf    fn413395   2.828   5.467   3.426 -0.1186  0.1844  0.1536
 2298ntf    cn113396   5.674   2.953   1.099  0.4583 -0.1570  0.2311
 2298ntf    sn213397   5.801   2.888   1.212  0.4281  0.1233  0.4253
 2298ntf    nn313398   5.830   3.027   1.279  0.2007  0.4086 -0.0652
 2298ntf    sn213399   5.796   3.066   1.427 -0.1733  0.1255 -0.0752
 2298ntf    cn113400   5.829   3.245   1.424  0.2095  0.0565 -0.0740
 2298ntf    fn413401   5.580   3.002   1.177  0.4042 -0.1721  0.1758
 2298ntf    fn413402   5.717   3.051   1.021  0.2513  0.5087  0.9518
 2298ntf    fn413403   5.620   2.866   1.015  0.3758 -0.0657  0.1895
 2298ntf    on513404   5.732   2.784   1.284 -0.2944  0.0367 -0.3833
 2298ntf    on513405   5.909   2.852   1.125 -0.2104 -0.1503 -0.2634
 2298ntf    on513406   5.881   3.008   1.529 -0.2878  0.0052 -0.0475
 2298ntf    on513407   5.654   3.063   1.452 -0.1003 -0.4460  0.3061
 2298ntf    fn413408   5.810   3.296   1.545  0.1922  0.0169 -0.0597
 2298ntf    fn413409   5.953   3.265   1.385  0.5008 -0.0916  0.7515
 2298ntf    fn413410   5.743   3.309   1.346 -0.0784 -0.2459 -0.0097
 2299ntf    cn113411   1.256   0.805   1.709 -0.0967 -0.1357  0.3743
 2299ntf    sn213412   1.383   0.877   1.601 -0.5290  0.4056  0.2246
 2299ntf    nn313413   1.309   0.867   1.463 -0.3400 -0.0232  0.1535
 2299ntf    sn213414   1.255   0.984   1.374 -0.0894 -0.1074 -0.1104
 2299ntf    cn113415   1.231   0.894   1.217  0.2953  0.1774 -0.3341
 2299ntf    fn413416   1.265   0.828   1.839 -0.4186  0.2184  0.3335
 2299ntf    fn413417   1.134   0.841   1.674  0.0417  0.1832  0.2158
 2299ntf    fn413418   1.274   0.674   1.712  0.7328 -0.0465 -0.2344
 2299ntf    on513419   1.415   1.009   1.651  0.1890  0.1520  0.4540
 2299ntf    on513420   1.488   0.778   1.603 -0.3274  0.6024 -0.3008
 2299ntf    on513421   1.349   1.085   1.331  0.0451 -0.3721 -0.4481
 2299ntf    on513422   1.120   1.024   1.404 -0.2252 -0.1221 -0.6796
 2299ntf    fn413423   1.139   0.801   1.232  0.3329  0.2280  0.2503
 2299ntf    fn413424   1.184   0.975   1.124  0.5245  0.0362 -0.5760
 2299ntf    fn413425   1.345   0.845   1.171  0.1692 -0.4328 -0.0048
 2300ntf    cn113426   1.330   6.071   1.083 -0.1154 -0.3124 -0.1656
 2300ntf    sn213427   1.375   6.003   0.921 -0.0725 -0.2092 -0.1969
 2300ntf    nn313428   1.246   5.929   0.868  0.0272  0.0021 -0.7407
 2300ntf    sn213429   1.161   5.816   0.936  0.2379  0.1364 -0.2458
 2300ntf    cn113430   1.149   5.687   0.808 -0.2476 -0.1767  0.1126
 2300ntf    fn413431   1.440   6.107   1.147  0.2438 -0.3352 -0.7655
 2300ntf    fn413432   1.249   6.175   1.093  0.0787 -0.1620 -0.1609
 2300ntf    fn413433   1.282   5.971   1.156 -0.2327 -0.5107 -0.5135
 2300ntf    on513434   1.401   6.122   0.845 -0.3758  0.2460  0.4045
 2300ntf    on513435   1.492   5.920   0.937  0.1752  0.3117  0.7201
 2300ntf    on513436   1.021   5.851   0.945  0.1949 -0.1545  0.1953
 2300ntf    on513437   1.219   5.744   1.046 -0.2122  0.3185  0.1148
 2300ntf    fn413438   1.265   5.673   0.747 -0.5000 -0.6959 -0.2564
 2300ntf    fn413439   1.134   5.569   0.866 -0.3781 -0.0603  0.3187
 2300ntf    fn413440   1.049   5.700   0.723  0.0702  0.2341 -0.2025
 2301ntf    cn113441   0.754   5.613   0.390  0.2463 -0.0623  0.3325
 2301ntf    sn213442   0.839   5.639   0.231 -0.2319 -0.2158  0.0465
 2301ntf    nn313443   0.969   5.552   0.249 -0.0395  0.0539 -0.0287
 2301ntf    sn213444   1.058   5.489   0.136 -0.4562  0.2437 -0.4672
 2301ntf    cn113445   1.186   5.618   0.131 -0.0507 -0.1458 -0.1166
 2301ntf    fn413446   0.775   5.490   0.434 -0.4951 -0.3048  0.0447
 2301ntf    fn413447   0.799   5.696   0.481 -0.0549  0.4995 -0.0245
 2301ntf    fn413448   0.621   5.619   0.390  0.2629  0.3165  0.6524
 2301ntf    on513449   0.751   5.582   0.133  0.0612 -0.4690 -0.0729
 2301ntf    on513450   0.875   5.779   0.225 -0.0679 -0.2464  0.2919
 2301ntf    on513451   1.015   5.489  -0.002 -0.9442  0.0768 -0.3185
 2301ntf    on513452   1.133   5.376   0.185 -0.0586  0.4924 -0.4962
 2301ntf    fn413453   1.143   5.737   0.093  0.1272 -0.0540 -0.0321
 2301ntf    fn413454   1.242   5.636   0.250  0.4571  0.1144 -0.3935
 2301ntf    fn413455   1.287   5.577   0.055 -0.1246 -0.3860 -0.0884
 2302ntf    cn113456   0.126   6.154   4.574  0.0088  0.1345 -0.0584
 2302ntf    sn213457   0.214   6.264   4.689 -0.1008 -0.1880  0.3351
 2302ntf    nn313458   0.313   6.160   4.753  0.3731 -0.2622 -0.4900
 2302ntf    sn213459   0.285   6.079   4.885  0.3690 -0.0953 -0.3891
 2302ntf    cn113460   0.338   5.914   4.832  0.4868 -0.1482 -0.1104
 2302ntf    fn413461   0.204   6.057   4.529 -0.0027 -0.1072  0.4442
 2302ntf    fn413462   0.029   6.088   4.635  0.3193  0.1713  0.4713
 2302ntf    fn413463   0.077   6.218   4.469 -0.5200 -0.0407  0.0800
 2302ntf    on513464   0.278   6.361   4.603  0.2147 -0.4692  0.2487
 2302ntf    on513465   0.118   6.321   4.780  0.1267  0.3451  0.2453
 2302ntf    on513466   0.150   6.052   4.928  0.6283 -0.2035  0.3683
 2302ntf    on513467   0.381   6.116   4.986 -0.4663  0.3413  0.2608
 2302ntf    fn413468   0.296   5.821   4.916  0.4444  0.0010  0.0345
 2302ntf    fn413469   0.295   5.878   4.712  0.1715  0.3444 -0.1480
 2302ntf    fn413470   0.470   5.907   4.828  0.5051  0.0486  0.1260
 2303ntf    cn113471   1.376   0.746   3.542 -0.2052 -0.0309  0.4168
 2303ntf    sn213472   1.484   0.770   3.686  0.0692 -0.2523  0.2499
 2303ntf    nn313473   1.455   0.921   3.720  0.2605 -0.1026 -0.2453
 2303ntf    sn213474   1.352   0.989   3.817  0.2268 -0.2716 -0.1626
 2303ntf    cn113475   1.436   1.144   3.860  0.0559 -0.2391  0.0506
 2303ntf    fn413476   1.252   0.783   3.566 -0.3625 -0.2831  0.0015
 2303ntf    fn413477   1.418   0.818   3.440  0.1649  0.2814  0.7850
 2303ntf    fn413478   1.374   0.621   3.499 -0.5070 -0.0039  0.3495
 2303ntf    on513479   1.433   0.672   3.778 -0.0105 -0.4105  0.0367
 2303ntf    on513480   1.620   0.745   3.643 -0.0630 -0.2396 -0.1750
 2303ntf    on513481   1.333   0.929   3.946 -0.5080  0.9184  0.2971
 2303ntf    on513482   1.233   1.039   3.752  0.1502  0.2920  0.4029
 2303ntf    fn413483   1.378   1.207   3.962 -0.3048 -0.5604  0.0455
 2303ntf    fn413484   1.559   1.119   3.900 -0.0819  0.0947  0.7159
 2303ntf    fn413485   1.455   1.228   3.760 -0.2769 -0.0261  0.1629
 2304ntf    cn113486   4.703   1.617   1.522 -0.2531 -0.0271 -0.3213
 2304ntf    sn213487   4.546   1.559   1.593 -0.1090 -0.0742 -0.0400
 2304ntf    nn313488   4.447   1.627   1.492 -0.2201  0.0926  0.1787
 2304ntf    sn213489   4.320   1.567   1.421 -0.2731  0.5254 -0.0932
 2304ntf    cn113490   4.188   1.653   1.513 -0.4634  0.1429 -0.0052
 2304ntf    fn413491   4.806   1.607   1.605 -0.5028 -0.2112 -0.0317
 2304ntf    fn413492   4.730   1.544   1.415 -0.6494 -0.1543 -0.3364
 2304ntf    fn413493   4.703   1.745   1.488  0.4482  0.0234 -0.1441
 2304ntf    on513494   4.563   1.416   1.591  0.0090 -0.0534 -0.5749
 2304ntf    on513495   4.538   1.626   1.721 -0.4065 -0.2229  0.0217
 2304ntf    on513496   4.294   1.427   1.444  0.3715  0.4872  0.4165
 2304ntf    on513497   4.298   1.622   1.290 -0.1891  0.0318 -0.3158
 2304ntf    fn413498   4.190   1.785   1.513  0.2599  0.1352  0.5872
 2304ntf    fn413499   4.073   1.604   1.469 -0.0015 -0.4481 -0.5845
 2304ntf    fn413500   4.196   1.621   1.641 -0.6158 -0.2025 -0.0801
 2305ntf    cn113501   1.385   0.311   4.069 -0.5339  0.2106 -0.0297
 2305ntf    sn213502   1.364   0.254   4.240 -0.2340 -0.0134 -0.0669
 2305ntf    nn313503   1.246   0.347   4.283  0.1708  0.2841  0.4051
 2305ntf    sn213504   1.154   0.333   4.410 -0.3788  0.0567 -0.0157
 2305ntf    cn113505   1.011   0.244   4.343 -0.2204 -0.1346 -0.1027
 2305ntf    fn413506   1.411   0.440   4.060 -0.0862  0.0847 -0.6068
 2305ntf    fn413507   1.486   0.245   4.013 -0.3926  0.2266  0.2036
 2305ntf    fn413508   1.274   0.279   4.005 -0.5091 -0.7130  0.3669
 2305ntf    on513509   1.335   0.112   4.236  0.7528 -0.2231 -0.0745
 2305ntf    on513510   1.486   0.298   4.304 -0.1858 -0.3709  0.0932
 2305ntf    on513511   1.093   0.457   4.450 -0.0503  0.2340 -0.0550
 2305ntf    on513512   1.196   0.248   4.519 -0.2976  0.2391  0.0953
 2305ntf    fn413513   0.898   0.282   4.400  0.0972  0.6307  0.0305
 2305ntf    fn413514   0.993   0.266   4.213  0.1163  0.2667 -0.0841
 2305ntf    fn413515   1.016   0.114   4.363 -0.4010 -0.0998  0.1667
 2306ntf    cn113516   1.717   3.318   1.274  0.0252  0.1600  0.1762
 2306ntf    sn213517   1.888   3.329   1.213 -0.0802 -0.0212 -0.1557
 2306ntf    nn313518   1.961   3.272   1.340  0.5656 -0.1404 -0.5740
 2306ntf    sn213519   2.008   3.125   1.367  0.1451 -0.1493  0.1508
 2306ntf    cn113520   1.951   3.084   1.534 -0.1341  0.1495  0.1295
 2306ntf    fn413521   1.707   3.383   1.389 -0.0071  0.3731  0.0529
 2306ntf    fn413522   1.631   3.375   1.191 -0.0052 -0.2627 -0.0871
 2306ntf    fn413523   1.667   3.196   1.285 -0.2893  0.2807  0.0942
 2306ntf    on513524   1.876   3.246   1.096  0.0826  0.1040 -0.2614
 2306ntf    on513525   1.900   3.472   1.203 -0.4217  0.0418  0.3168
 2306ntf    on513526   2.150   3.126   1.389  0.1786  0.1924 -0.0679
 2306ntf    on513527   1.953   3.022   1.282  0.1474  0.1392 -0.2031
 2306ntf    fn413528   1.820   3.097   1.548 -0.1744 -0.7422  0.6212
 2306ntf    fn413529   1.981   2.960   1.568 -0.1915  0.0198 -0.2873
 2306ntf    fn413530   2.005   3.166   1.623  0.7261 -0.2400 -0.0325
 2307ntf    cn113531   5.617   2.095   4.792  0.2905  0.2231 -0.0805
 2307ntf    sn213532   5.486   2.220   4.812 -0.0601 -0.1535 -0.0095
 2307ntf    nn313533   5.523   2.272   4.955  0.6444 -0.0936 -0.2096
 2307ntf    sn213534   5.539   2.189   5.088 -0.1094  0.0241 -0.0420
 2307ntf    cn113535   5.412   2.268   5.191  0.2168  0.0884  0.3086
 2307ntf    fn413536   5.615   2.031   4.676 -0.3499 -0.2515  0.1875
 2307ntf    fn413537   5.737   2.150   4.797  0.4259  0.0058 -0.8565
 2307ntf    fn413538   5.616   1.997   4.880  0.5910  0.0091 -0.3137
 2307ntf    on513539   5.511   2.325   4.716  0.4040  0.2131  0.5085
 2307ntf    on513540   5.360   2.150   4.801  0.3263 -0.8283 -0.1716
 2307ntf    on513541   5.661   2.208   5.162 -0.6913 -0.1086  0.9714
 2307ntf    on513542   5.486   2.055   5.089  0.0811 -0.0516  0.0405
 2307ntf    fn413543   5.410   2.225   5.316 -0.3046  0.0582  0.2907
 2307ntf    fn413544   5.423   2.400   5.190 -0.0703  0.1124  0.4250
 2307ntf    fn413545   5.290   2.246   5.146  0.1627 -0.2151  0.5961
 2308ntf    cn113546   0.175   3.727   0.559  0.1284 -0.0705 -0.3283
 2308ntf    sn213547   0.254   3.727   0.722 -0.3456  0.0241 -0.0964
 2308ntf    nn313548   0.136   3.769   0.817 -0.6072 -0.2721 -0.2880
 2308ntf    sn213549   0.105   3.916   0.863 -0.0374 -0.1245 -0.3663
 2308ntf    cn113550   0.193   3.921   1.022 -0.4232  0.0888 -0.1580
 2308ntf    fn413551   0.146   3.846   0.508 -0.0708 -0.1190 -0.3316
 2308ntf    fn413552   0.249   3.666   0.467  0.1891 -0.6043  0.0692
 2308ntf    fn413553   0.061   3.659   0.563 -0.2977  0.6615  0.1976
 2308ntf    on513554   0.282   3.587   0.740 -0.2253  0.0415 -0.1451
 2308ntf    on513555   0.370   3.813   0.718 -0.5847  0.3440 -0.1732
 2308ntf    on513556  -0.034   3.929   0.898  0.0712  0.3780 -0.1214
 2308ntf    on513557   0.160   4.016   0.775  0.4924 -0.0107  0.0881
 2308ntf    fn413558   0.128   3.853   1.115 -0.1804  0.1234  0.0386
 2308ntf    fn413559   0.318   3.877   1.020 -0.4116  0.1066  0.2244
 2308ntf    fn413560   0.207   4.045   1.064 -0.5695  0.0913 -0.1184
 2309ntf    cn113561   3.258   1.460   0.978 -0.2132 -0.4769  0.1817
 2309ntf    sn213562   3.093   1.383   0.988 -0.4588  0.0176 -0.0426
 2309ntf    nn313563   3.026   1.478   1.094 -0.3308  0.1737 -0.0996
 2309ntf    sn213564   2.884   1.542   1.108 -0.4946 -0.2539  0.2446
 2309ntf    cn113565   2.889   1.681   0.990  0.0038 -0.5921 -0.1358
 2309ntf    fn413566   3.334   1.410   0.881 -0.1726  1.0663 -0.6147
 2309ntf    fn413567   3.244   1.589   0.955 -0.3233 -0.5181  0.0148
 2309ntf    fn413568   3.322   1.449   1.093 -0.2988 -0.1099  0.2644
 2309ntf    on513569   3.046   1.390   0.852  0.5375  0.7632 -0.3608
 2309ntf    on513570   3.122   1.258   1.054  0.2332  0.2685  0.1423
 2309ntf    on513571   2.874   1.605   1.237  0.4961 -0.1930  0.2988
 2309ntf    on513572   2.775   1.458   1.065 -0.2997 -0.4151  0.0648
 2309ntf    fn413573   2.961   1.646   0.885  0.0781 -0.5642 -0.0948
 2309ntf    fn413574   2.772   1.720   0.943  0.5089  0.9805 -0.1521
 2309ntf    fn413575   2.948   1.788   1.041 -0.0705 -0.4550 -0.3386
 2310ntf    cn113576   6.049   3.582   6.792  0.5334  0.1734  0.2213
 2310ntf    sn213577   6.196   3.574   6.686  0.1896 -0.1972 -0.2349
 2310ntf    nn313578   6.145   3.485   6.567 -0.5471  0.0455 -0.1031
 2310ntf    sn213579   6.170   3.331   6.561 -0.0117  0.1322 -0.1458
 2310ntf    cn113580   6.000   3.289   6.513 -0.0549  0.2441 -0.0894
 2310ntf    fn413581   5.947   3.633   6.725  0.9022  0.3200 -0.2323
 2310ntf    fn413582   6.011   3.461   6.829  0.2619  0.2480  0.1941
 2310ntf    fn413583   6.052   3.651   6.905  0.4295  0.3020  0.1464
 2310ntf    on513584   6.213   3.711   6.645  0.0739 -0.0400  0.2413
 2310ntf    on513585   6.299   3.522   6.772 -0.0805  0.5440  0.5535
 2310ntf    on513586   6.184   3.258   6.685  0.1800  0.2481 -0.0996
 2310ntf    on513587   6.256   3.293   6.452  0.2883 -0.1132  0.1726
 2310ntf    fn413588   5.951   3.370   6.421 -0.0249 -0.1713 -0.4728
 2310ntf    fn413589   5.991   3.164   6.470  0.3980  0.1844 -0.0184
 2310ntf    fn413590   5.915   3.300   6.614  0.1837 -0.0023  0.1417
 2311ntf    cn113591   4.076   0.673   6.661  0.3795  0.0319 -0.0751
 2311ntf    sn213592   4.085   0.847   6.610 -0.3238  0.1470  0.1880
 2311ntf    nn313593   4.149   0.914   6.737  0.4297  0.0096 -0.1119
 2311ntf    sn213594   4.085   0.976   6.865 -0.1738 -0.0649 -0.3735
 2311ntf    cn113595   4.214   0.933   6.986 -0.3740 -0.5429 -0.3298
 2311ntf    fn413596   4.194   0.625   6.698  0.3148 -0.0825 -0.0179
 2311ntf    fn413597   3.992   0.652   6.760 -0.1724 -0.2026 -0.5899
 2311ntf    fn413598   4.030   0.588   6.570 -0.4333  0.2144  0.1605
 2311ntf    on513599   4.170   0.858   6.494  0.1894  0.0415  0.5514
 2311ntf    on513600   3.949   0.892   6.590 -0.2665  0.2984  0.1347
 2311ntf    on513601   3.969   0.904   6.914 -0.5999  0.6623 -0.2896
 2311ntf    on513602   4.094   1.120   6.863  0.5698 -0.1138 -0.7003
 2311ntf    fn413603   4.250   0.806   6.971  0.2990 -0.4519  0.5044
 2311ntf    fn413604   4.329   0.996   6.972 -0.7724  0.3346  0.2439
 2311ntf    fn413605   4.184   0.943   7.114  0.1930 -0.6075 -0.1923
 2312ntf    cn113606   6.408   5.380   5.306 -0.1992 -0.1601  0.1997
 2312ntf    sn213607   6.396   5.553   5.252 -0.6225 -0.2031  0.1541
 2312ntf    nn313608   6.373   5.630   5.387  0.1731  0.4173 -0.0539
 2312ntf    sn213609   6.372   5.785   5.410  0.0040  0.4020  0.0496
 2312ntf    cn113610   6.540   5.800   5.477  0.0639 -0.1671  0.0294
 2312ntf    fn413611   6.295   5.343   5.364 -0.4294  0.4323  0.1373
 2312ntf    fn413612   6.438   5.295   5.209  0.3104  0.6372 -0.3606
 2312ntf    fn413613   6.504   5.368   5.397 -0.3561  0.2903  0.4292
 2312ntf    on513614   6.526   5.562   5.189 -0.4523  0.0313  0.5381
 2312ntf    on513615   6.286   5.546   5.158 -0.2224 -0.0309 -0.3337
 2312ntf    on513616   6.270   5.816   5.507 -0.6097 -0.3015 -0.3635
 2312ntf    on513617   6.379   5.868   5.292  0.6155  0.3419  0.0376
 2312ntf    fn413618   6.563   5.930   5.486 -0.1445 -0.1390  0.1715
 2312ntf    fn413619   6.552   5.750   5.599 -0.1881 -0.0176  0.1143
 2312ntf    fn413620   6.632   5.753   5.394 -0.1494 -0.4260 -0.0608
 2313ntf    cn113621   4.008   1.080   5.192  0.3566 -0.1138  0.0259
 2313ntf    sn213622   3.927   1.088   5.030  0.3981 -0.2017  0.0017
 2313ntf    nn313623   4.048   1.136   4.943 -0.0263  0.5199 -0.1970
 2313ntf    sn213624   4.170   1.065   4.874 -0.3150 -0.1268 -0.0423
 2313ntf    cn113625   4.307   1.121   4.980 -0.4140 -0.3535  0.2079
 2313ntf    fn413626   4.091   0.978   5.198  0.1791 -0.2547  0.1019
 2313ntf    fn413627   4.064   1.196   5.224  0.1902  0.0085 -0.1204
 2313ntf    fn413628   3.912   1.061   5.282  0.5669 -0.0478  0.2650
 2313ntf    on513629   3.884   0.951   5.010 -0.9445  0.1940  0.0845
 2313ntf    on513630   3.820   1.182   5.054  0.3807 -0.2487  0.1106
 2313ntf    on513631   4.198   1.118   4.743 -0.8699  0.2583 -0.0077
 2313ntf    on513632   4.173   0.921   4.890  0.3707 -0.1928 -0.7377
 2313ntf    fn413633   4.329   1.251   4.978 -0.1323 -0.4034  0.0035
 2313ntf    fn413634   4.286   1.095   5.108 -0.0348 -0.4195  0.2569
 2313ntf    fn413635   4.416   1.057   4.943 -0.0714  0.3111  0.0425
 2314ntf    cn113636   2.321   0.697   1.429  0.1397  0.4173  0.0605
 2314ntf    sn213637   2.316   0.858   1.346 -0.0624  0.0261 -0.6909
 2314ntf    nn313638   2.372   0.810   1.207  0.5521  0.1137 -0.4773
 2314ntf    sn213639   2.284   0.758   1.088  0.2443  0.0121 -0.2066
 2314ntf    cn113640   2.265   0.920   1.007 -0.1708  0.1489  0.1596
 2314ntf    fn413641   2.438   0.655   1.475  0.0653 -0.1712 -0.2825
 2314ntf    fn413642   2.233   0.695   1.528  0.6209 -0.3236  0.4918
 2314ntf    fn413643   2.274   0.604   1.348  0.1711 -0.1409  0.6757
 2314ntf    on513644   2.180   0.905   1.344 -0.2834 -0.5664  0.0170
 2314ntf    on513645   2.410   0.943   1.416 -0.3967  0.0574 -0.2781
 2314ntf    on513646   2.149   0.720   1.125  0.1021  0.2850 -0.4405
 2314ntf    on513647   2.358   0.678   0.994  0.6700  0.6819 -0.4443
 2314ntf    fn413648   2.380   0.948   0.950  0.1089 -0.3682  0.4592
 2314ntf    fn413649   2.176   0.915   0.909 -0.1677  0.0765  0.1600
 2314ntf    fn413650   2.238   1.017   1.093  0.1237  0.6120 -0.2708
 2315ntf    cn113651   3.979   1.859   6.426 -0.1859  0.2911  0.3058
 2315ntf    sn213652   4.138   1.943   6.454 -0.1340  0.2617  0.1014
 2315ntf    nn313653   4.167   1.983   6.305 -0.0009  0.2007  0.1108
 2315ntf    sn213654   4.287   1.952   6.208 -0.0436  0.1337  0.0793
 2315ntf    cn113655   4.384   2.104   6.232  0.1815  0.0201 -0.1056
 2315ntf    fn413656   3.961   1.772   6.523 -0.2120  0.1123  0.1418
 2315ntf    fn413657   3.875   1.941   6.420 -0.3217  0.1127  0.2080
 2315ntf    fn413658   3.978   1.788   6.314  0.1973 -0.1615  0.5876
 2315ntf    on513659   4.105   2.048   6.547 -0.2972  0.0275  0.3065
 2315ntf    on513660   4.213   1.831   6.504  0.3902  0.4527 -0.2498
 2315ntf    on513661   4.253   1.948   6.068  0.2093 -0.2174  0.0250
 2315ntf    on513662   4.375   1.847   6.253 -0.0020  0.0337 -0.2323
 2315ntf    fn413663   4.504   2.083   6.282  0.1649  0.1306 -0.0187
 2315ntf    fn413664   4.400   2.170   6.118  0.5699  0.1139  0.0022
 2315ntf    fn413665   4.326   2.190   6.314  0.1782 -0.1119  0.0310
 2316ntf    cn113666   2.333   3.190   2.794 -0.0433  0.2906 -0.0224
 2316ntf    sn213667   2.513   3.169   2.810 -0.0660  0.0421 -0.0945
 2316ntf    nn313668   2.547   3.292   2.902  0.6729 -0.3974  0.2325
 2316ntf    sn213669   2.585   3.440   2.868  0.3297 -0.2564  0.4508
 2316ntf    cn113670   2.490   3.517   3.002 -0.1666 -0.0593 -0.0093
 2316ntf    fn413671   2.295   3.302   2.735 -0.1424  0.1099 -0.3034
 2316ntf    fn413672   2.277   3.094   2.724 -0.1075  0.2231  0.1215
 2316ntf    fn413673   2.277   3.193   2.914 -0.0578 -0.1665 -0.0167
 2316ntf    on513674   2.520   3.052   2.894  0.8469  0.0243 -0.1799
 2316ntf    on513675   2.576   3.175   2.680  0.5497  0.0089  0.1953
 2316ntf    on513676   2.533   3.489   2.743  0.1354  0.4745  0.8151
 2316ntf    on513677   2.723   3.475   2.894  0.2107  0.5955 -0.0241
 2316ntf    fn413678   2.362   3.484   2.993 -0.2208  0.1695 -0.0801
 2316ntf    fn413679   2.537   3.492   3.123 -0.2908  0.7046  0.2016
 2316ntf    fn413680   2.500   3.648   2.989  0.2426 -0.0872  0.0180
 2317ntf    cn113681   0.329   0.505   5.999 -0.1779  0.2958  0.0803
 2317ntf    sn213682   0.247   0.397   6.119  0.1684  0.0911  0.1327
 2317ntf    nn313683   0.269   0.459   6.261 -0.3185  0.0596  0.2254
 2317ntf    sn213684   0.409   0.514   6.307 -0.1260 -0.3020  0.0773
 2317ntf    cn113685   0.397   0.464   6.481 -0.4709  0.2971  0.2294
 2317ntf    fn413686   0.274   0.625   5.982  0.2426  0.5386  0.4147
 2317ntf    fn413687   0.458   0.522   6.022  0.0012 -0.6752 -0.1718
 2317ntf    fn413688   0.332   0.446   5.880 -0.1341 -0.1163  0.2875
 2317ntf    on513689   0.109   0.407   6.079  0.3152  0.1458 -0.3629
 2317ntf    on513690   0.311   0.271   6.091  0.1706  0.0369  0.3745
 2317ntf    on513691   0.410   0.658   6.305 -0.1030 -0.3071 -0.3914
 2317ntf    on513692   0.527   0.445   6.261 -0.0758 -0.0015 -0.2473
 2317ntf    fn413693   0.307   0.537   6.546 -0.3214  0.3794  0.3424
 2317ntf    fn413694   0.365   0.337   6.501 -0.5344  0.3157  0.2486
 2317ntf    fn413695   0.516   0.479   6.537 -0.4755  0.3230  0.2321
 2318ntf    cn113696   5.444   6.317   4.540  0.0054  0.3665  0.4349
 2318ntf    sn213697   5.497   6.153   4.600 -0.3475 -0.0211 -0.2962
 2318ntf    nn313698   5.650   6.158   4.565 -0.2117 -0.3332  0.2482
 2318ntf    sn213699   5.732   6.047   4.491 -0.2004 -0.0340 -0.1904
 2318ntf    cn113700   5.887   6.132   4.446  0.1778 -0.6077  0.0151
 2318ntf    fn413701   5.479   6.328   4.413  0.3693  0.3520  0.5355
 2318ntf    fn413702   5.312   6.326   4.544 -0.1078 -0.7584 -0.1410
 2318ntf    fn413703   5.497   6.422   4.599 -0.3624  0.8684 -0.1104
 2318ntf    on513704   5.487   6.151   4.743 -0.0343 -0.0826 -0.2766
 2318ntf    on513705   5.411   6.059   4.533 -0.4901 -0.1322  0.0442
 2318ntf    on513706   5.673   6.017   4.363 -0.7706 -0.5924  0.2011
 2318ntf    on513707   5.786   5.940   4.570 -0.5023  0.2949  0.4644
 2318ntf    fn413708   5.949   6.178   4.553  0.1827 -0.3074 -0.1155
 2318ntf    fn413709   5.967   6.049   4.380  0.1552 -0.2807 -0.4295
 2318ntf    fn413710   5.863   6.234   4.365  0.2279 -0.2979  0.3888
 2319ntf    cn113711   0.875   4.187   0.135 -0.3365 -0.2922 -0.0720
 2319ntf    sn213712   0.898   4.206   0.315  0.0276 -0.0834 -0.1387
 2319ntf    nn313713   0.807   4.326   0.359  0.0670  0.0109 -0.3146
 2319ntf    sn213714   0.836   4.479   0.373  0.1977 -0.0478  0.0559
 2319ntf    cn113715   0.889   4.477   0.547 -0.1422  0.0031  0.1596
 2319ntf    fn413716   0.914   4.285   0.056  0.1179  0.0310  0.5434
 2319ntf    fn413717   0.932   4.074   0.096 -0.2773 -0.3424  0.1572
 2319ntf    fn413718   0.749   4.168   0.100 -0.3306 -0.3520 -0.0611
 2319ntf    on513719   0.852   4.074   0.353 -0.3892  0.2484  0.5245
 2319ntf    on513720   1.036   4.234   0.347 -0.0214  0.6440 -0.5399
 2319ntf    on513721   0.715   4.558   0.374  0.1825 -0.0699 -0.2096
 2319ntf    on513722   0.942   4.532   0.291  0.2123 -0.2664 -0.0665
 2319ntf    fn413723   1.012   4.433   0.567 -0.2398 -0.4875 -0.3039
 2319ntf    fn413724   0.870   4.599   0.595 -0.0264  0.0336  0.1290
 2319ntf    fn413725   0.815   4.407   0.632 -0.5577  0.4903  0.2044
 2320ntf    cn113726   4.790   0.965   0.507  0.2160  0.2668 -0.2236
 2320ntf    sn213727   4.903   1.021   0.637  0.0601 -0.0539  0.0510
 2320ntf    nn313728   4.893   0.892   0.726 -0.1427 -0.0900 -0.0244
 2320ntf    sn213729   4.984   0.765   0.709  0.0408  0.0221  0.1184
 2320ntf    cn113730   5.117   0.823   0.819  0.0258 -0.0367  0.1673
 2320ntf    fn413731   4.826   0.865   0.429 -0.1616 -0.1032  0.0709
 2320ntf    fn413732   4.674   0.930   0.561  0.3495  0.2134  0.0283
 2320ntf    fn413733   4.763   1.065   0.424  0.5340  0.2948 -0.2929
 2320ntf    on513734   5.024   1.041   0.560 -0.2157 -0.1819 -0.4166
 2320ntf    on513735   4.832   1.132   0.695 -0.1436 -0.4510  0.5705
 2320ntf    on513736   5.045   0.755   0.579 -0.1493 -0.0674  0.0358
 2320ntf    on513737   4.936   0.645   0.773  0.6757 -0.6946 -0.7168
 2320ntf    fn413738   5.170   0.939   0.783  0.0809 -0.2777 -0.5545
 2320ntf    fn413739   5.086   0.849   0.945 -0.2556  0.1243  0.0656
 2320ntf    fn413740   5.221   0.741   0.816  0.3782  0.4140 -0.0908
 2321ntf    cn113741   3.048   3.099   0.253  0.0546  0.2622  0.0922
 2321ntf    sn213742   2.936   3.111   0.111  0.0381 -0.2545  0.0599
 2321ntf    nn313743   2.865   3.246   0.147  0.0306 -0.1597 -0.3007
 2321ntf    sn213744   2.895   3.394   0.102  0.0859 -0.1236 -0.1479
 2321ntf    cn113745   2.786   3.476   0.221  0.1864  0.0462 -0.1721
 2321ntf    fn413746   3.151   3.183   0.252 -0.2431  0.6322  0.2488
 2321ntf    fn413747   2.980   3.126   0.363 -0.2166 -0.2392  0.0492
 2321ntf    fn413748   3.098   2.977   0.266  0.1484  0.2882 -0.0171
 2321ntf    on513749   3.018   3.114  -0.007  0.3865 -0.1073  0.3052
 2321ntf    on513750   2.854   2.995   0.137  0.3029 -0.3799  0.3338
 2321ntf    on513751   2.837   3.433  -0.024  0.7233  0.2917 -0.3170
 2321ntf    on513752   3.027   3.438   0.140 -0.0638 -0.1884  0.4575
 2321ntf    fn413753   2.788   3.607   0.203  0.5397  0.0572 -0.0646
 2321ntf    fn413754   2.662   3.431   0.210  0.0776  0.5149 -0.9068
 2321ntf    fn413755   2.836   3.456   0.342 -0.0951  0.0731 -0.0489
 2322ntf    cn113756   5.853   1.634   3.367 -0.4465 -0.1554  0.5694
 2322ntf    sn213757   5.967   1.666   3.505  0.0250 -0.1563  0.1805
 2322ntf    nn313758   6.081   1.561   3.480 -0.1042 -0.2005 -0.2305
 2322ntf    sn213759   6.218   1.585   3.407 -0.1397  0.1108 -0.1977
 2322ntf    cn113760   6.333   1.623   3.543 -0.1928  0.5952 -0.2886
 2322ntf    fn413761   5.773   1.735   3.336 -0.2704  0.0648  0.8269
 2322ntf    fn413762   5.920   1.583   3.265 -0.1485  0.4412  0.4634
 2322ntf    fn413763   5.771   1.536   3.405 -0.3421 -0.4008  0.1652
 2322ntf    on513764   6.008   1.802   3.482 -0.0934 -0.0415  0.6408
 2322ntf    on513765   5.892   1.653   3.627  0.3061  0.1633  0.3879
 2322ntf    on513766   6.229   1.701   3.322  0.5097  0.2400  0.0584
 2322ntf    on513767   6.276   1.459   3.365 -0.1110 -0.1028  0.4717
 2322ntf    fn413768   6.457   1.651   3.507 -0.0960 -0.3277 -0.6885
 2322ntf    fn413769   6.299   1.731   3.611 -0.0806  0.5043 -0.0887
 2322ntf    fn413770   6.330   1.524   3.631  0.5426 -0.1031 -1.0336
 2323ntf    cn113771   5.472   3.248   1.958 -0.1943 -0.1797  0.0575
 2323ntf    sn213772   5.527   3.075   1.965 -0.0386 -0.1291  0.0771
 2323ntf    nn313773   5.678   3.082   2.009 -0.0968  0.3795  0.2044
 2323ntf    sn213774   5.807   3.063   1.921 -0.0898  0.3330  0.2250
 2323ntf    cn113775   5.798   3.217   1.825 -0.1414 -0.1953 -0.6246
 2323ntf    fn413776   5.536   3.315   1.863 -0.0750 -0.2369  0.0973
 2323ntf    fn413777   5.343   3.251   1.929 -0.1058  0.5002 -0.2988
 2323ntf    fn413778   5.492   3.316   2.070 -0.6857 -0.0415  0.0629
 2323ntf    on513779   5.445   3.003   2.058 -0.3570 -0.2619 -0.3053
 2323ntf    on513780   5.509   3.031   1.829  0.2875  0.2059 -0.0773
 2323ntf    on513781   5.812   2.956   1.825  0.1262  0.6770 -0.1509
 2323ntf    on513782   5.928   3.077   1.998  0.0710  0.4193 -0.0454
 2323ntf    fn413783   5.696   3.220   1.741 -0.5419  0.5575 -0.1198
 2323ntf    fn413784   5.782   3.324   1.902  0.0819 -0.4997 -0.1516
 2323ntf    fn413785   5.905   3.237   1.751  0.3591  0.3705  0.2297
 2324ntf    cn113786   1.164   0.554   5.469 -0.0036  0.1246 -0.0566
 2324ntf    sn213787   1.086   0.396   5.513 -0.1344  0.2455  0.1476
 2324ntf    nn313788   0.942   0.409   5.453 -0.1376  0.1802  0.1413
 2324ntf    sn213789   0.895   0.388   5.304  0.2891  0.1637  0.0068
 2324ntf    cn113790   0.852   0.212   5.309 -0.3410  0.3162  0.0771
 2324ntf    fn413791   1.076   0.653   5.483 -0.1103  0.0402 -0.1229
 2324ntf    fn413792   1.267   0.580   5.547 -0.2318  0.1726  0.2313
 2324ntf    fn413793   1.218   0.558   5.348  0.0612  0.0815 -0.0288
 2324ntf    on513794   1.167   0.295   5.450 -0.0416  0.2971  0.1835
 2324ntf    on513795   1.092   0.391   5.657  0.2272  0.4531  0.1408
 2324ntf    on513796   0.998   0.403   5.204  0.3881 -0.3486  0.0321
 2324ntf    on513797   0.771   0.458   5.280 -0.1037 -0.5122  0.0537
 2324ntf    fn413798   0.872   0.159   5.428 -0.3371  0.2033  0.0270
 2324ntf    fn413799   0.729   0.180   5.271 -0.0394 -0.1826 -0.5205
 2324ntf    fn413800   0.931   0.144   5.227 -0.8155 -0.0647 -0.0715
 2325ntf    cn113801   1.717   4.150   0.936  0.5647 -0.1674  0.0760
 2325ntf    sn213802   1.737   4.204   0.764 -0.1777 -0.1478 -0.0050
 2325ntf    nn313803   1.719   4.063   0.697 -0.4052 -0.0871 -0.0720
 2325ntf    sn213804   1.631   4.030   0.572 -0.1700 -0.0570 -0.2455
 2325ntf    cn113805   1.744   3.917   0.485  0.3440  0.0868  0.2308
 2325ntf    fn413806   1.614   4.069   0.951  0.1831  0.1928 -0.5737
 2325ntf    fn413807   1.821   4.074   0.966  0.0923 -0.8621 -0.0232
 2325ntf    fn413808   1.713   4.257   1.014  0.1872 -0.1614  0.0485
 2325ntf    on513809   1.636   4.305   0.744  0.1912  0.1932 -0.1738
 2325ntf    on513810   1.873   4.251   0.758 -0.2186 -0.0259  0.0040
 2325ntf    on513811   1.620   4.141   0.480 -0.3031 -0.2489 -0.4624
 2325ntf    on513812   1.517   3.949   0.609  0.0104 -0.2190 -0.0482
 2325ntf    fn413813   1.840   3.986   0.426  0.0440  0.4702  0.1830
 2325ntf    fn413814   1.783   3.819   0.564 -0.1801 -0.2253  0.1118
 2325ntf    fn413815   1.678   3.856   0.388  0.3315 -0.1976  0.4194
 2326ntf    cn113816   2.576   6.890   4.948 -0.0984 -0.2420  0.0335
 2326ntf    sn213817   2.526   6.927   5.119  0.4048 -0.2754  0.1910
 2326ntf    nn313818   2.666   6.927   5.190  0.4265  0.2533  0.1495
 2326ntf    sn213819   2.710   6.986   5.329  0.4225 -0.3104  0.3936
 2326ntf    cn113820   2.825   6.854   5.375  0.5634 -0.1748  0.4310
 2326ntf    fn413821   2.693   6.942   4.914  0.0007 -0.2710  0.3200
 2326ntf    fn413822   2.582   6.758   4.934  0.4654 -0.1985 -0.1715
 2326ntf    fn413823   2.475   6.925   4.871 -0.2483 -0.0083  0.3365
 2326ntf    on513824   2.462   7.056   5.115  0.1472 -0.4081 -0.0041
 2326ntf    on513825   2.447   6.811   5.153 -0.3393  0.1224 -0.1484
 2326ntf    on513826   2.614   6.983   5.437 -0.2192  0.2032 -0.1511
 2326ntf    on513827   2.786   7.108   5.313  0.0620 -0.1695 -0.2906
 2326ntf    fn413828   2.768   6.735   5.372  0.4162 -0.1038  0.4359
 2326ntf    fn413829   2.928   6.857   5.292  0.5751  0.4622  0.4604
 2326ntf    fn413830   2.875   6.857   5.498  0.6848  0.2633  0.3723
 2327ntf    cn113831   1.347   3.265   6.725  0.0363  0.3795  0.3128
 2327ntf    sn213832   1.208   3.149   6.716  0.2642  0.1308  0.0149
 2327ntf    nn313833   1.118   3.176   6.842 -0.4245 -0.2737 -0.3840
 2327ntf    sn213834   1.143   3.126   6.988 -0.1677 -0.0104 -0.3355
 2327ntf    cn113835   1.043   2.974   6.995 -0.1311 -0.0291 -0.2173
 2327ntf    fn413836   1.417   3.256   6.837  0.2530  0.1672  0.1602
 2327ntf    fn413837   1.420   3.248   6.616 -0.5507  0.2746 -0.0674
 2327ntf    fn413838   1.317   3.394   6.725 -0.1763  0.3299 -0.1191
 2327ntf    on513839   1.138   3.186   6.596  0.1873  0.9061  0.2956
 2327ntf    on513840   1.260   3.014   6.715 -1.1730 -0.4480  0.3855
 2327ntf    on513841   1.083   3.215   7.085 -0.1848 -0.4793  0.0889
 2327ntf    on513842   1.279   3.084   7.006  0.0557  0.5755 -0.6301
 2327ntf    fn413843   0.915   2.989   6.966 -0.1822 -0.0775 -0.0163
 2327ntf    fn413844   1.091   2.890   6.905  0.7188  0.1789  0.0307
 2327ntf    fn413845   1.060   2.913   7.111 -0.4777  0.3102  0.0130
 2328ntf    cn113846   6.223   2.568   4.333 -0.0395  0.1807 -0.5670
 2328ntf    sn213847   6.079   2.666   4.383  0.3690  0.4407  0.1079
 2328ntf    nn313848   6.042   2.735   4.246  0.1875 -0.4852 -0.3185
 2328ntf    sn213849   6.110   2.864   4.188 -0.1588 -0.0247  0.2772
 2328ntf    cn113850   5.997   2.994   4.244  0.1926  0.3936  0.0247
 2328ntf    fn413851   6.270   2.496   4.434  0.1232 -0.2627 -0.9527
 2328ntf    fn413852   6.206   2.487   4.229 -0.7647  0.1152 -0.3993
 2328ntf    fn413853   6.328   2.641   4.298  0.5415 -0.2667  0.2171
 2328ntf    on513854   5.976   2.575   4.425  0.7065 -0.2370 -0.5087
 2328ntf    on513855   6.135   2.759   4.478  0.1559  0.0902  0.5737
 2328ntf    on513856   6.097   2.868   4.044  0.0780 -0.4610  0.2386
 2328ntf    on513857   6.238   2.904   4.241 -0.0517 -0.4247  0.3272
 2328ntf    fn413858   6.041   3.116   4.218  0.0073  0.4128 -0.1973
 2328ntf    fn413859   5.878   2.977   4.188  0.0430  0.4242  0.3288
 2328ntf    fn413860   5.980   2.985   4.375 -0.0682 -0.4146 -0.0609
 2329ntf    cn113861   0.709   4.910   6.854  0.3580 -0.3024 -0.2340
 2329ntf    sn213862   0.635   4.795   6.733 -0.1479  0.0267 -0.2418
 2329ntf    nn313863   0.578   4.890   6.622  0.0560 -0.2080 -0.5468
 2329ntf    sn213864   0.432   4.936   6.586  0.1130  0.2302 -0.2219
 2329ntf    cn113865   0.445   4.961   6.406 -0.0281 -0.0410 -0.2702
 2329ntf    fn413866   0.619   4.955   6.940  0.3876  0.0767 -0.4021
 2329ntf    fn413867   0.808   4.858   6.924  0.2797  0.4076  0.4100
 2329ntf    fn413868   0.760   5.020   6.802  0.2477 -0.2443 -0.2203
 2329ntf    on513869   0.740   4.716   6.674 -0.3660 -0.6645  0.2791
 2329ntf    on513870   0.528   4.727   6.802  0.5502 -0.5871  0.2577
 2329ntf    on513871   0.390   5.064   6.636 -1.0452 -0.3761  0.3983
 2329ntf    on513872   0.327   4.837   6.587 -0.3428  0.7046 -0.4846
 2329ntf    fn413873   0.330   4.952   6.343 -0.1386  0.3726 -0.1256
 2329ntf    fn413874   0.498   5.079   6.379 -0.4808  0.1181 -0.4616
 2329ntf    fn413875   0.522   4.877   6.339 -0.2680 -0.2508 -0.2842
 2330ntf    cn113876   4.364   0.422   1.536 -0.1227 -0.2702 -0.1968
 2330ntf    sn213877   4.353   0.514   1.693  0.2309  0.0536 -0.3623
 2330ntf    nn313878   4.444   0.421   1.781 -0.1882 -0.2073 -0.2041
 2330ntf    sn213879   4.536   0.452   1.905  0.0373  0.1978 -0.4697
 2330ntf    cn113880   4.480   0.305   1.996  0.3866  0.0896 -0.4266
 2330ntf    fn413881   4.286   0.315   1.527 -0.6778  0.0953  0.1821
 2330ntf    fn413882   4.347   0.489   1.423 -0.2016 -0.0582 -0.0604
 2330ntf    fn413883   4.490   0.384   1.526 -0.0456  0.0108 -0.2895
 2330ntf    on513884   4.413   0.639   1.650  0.0967 -0.1315 -1.0981
 2330ntf    on513885   4.214   0.514   1.729  0.3426  0.8018  0.0971
 2330ntf    on513886   4.480   0.557   1.986  0.1671 -0.1209  0.0309
 2330ntf    on513887   4.679   0.440   1.892 -0.0462 -0.4826 -0.8252
 2330ntf    fn413888   4.554   0.292   2.105 -0.2174 -0.4556 -0.0737
 2330ntf    fn413889   4.351   0.300   2.026  0.4410 -0.9641 -0.3504
 2330ntf    fn413890   4.508   0.197   1.926  0.1432 -0.2479 -0.0090
 2331ntf    cn113891   5.757   3.800   4.976 -0.2063  0.0807 -0.3275
 2331ntf    sn213892   5.807   3.650   5.065 -0.3905  0.2874  0.1270
 2331ntf    nn313893   5.950   3.624   5.005 -0.1489  0.2337  0.7087
 2331ntf    sn213894   6.085   3.602   5.080  0.2516 -0.0904 -0.0925
 2331ntf    cn113895   6.137   3.774   5.105  0.0985 -0.0498 -0.0565
 2331ntf    fn413896   5.845   3.898   4.992  0.0325 -0.2249  0.2699
 2331ntf    fn413897   5.745   3.787   4.845 -0.1551  0.3224 -0.3572
 2331ntf    fn413898   5.641   3.850   5.014 -0.0582  0.1196  0.0816
 2331ntf    on513899   5.796   3.706   5.198  0.0037 -0.1769  0.3603
 2331ntf    on513900   5.710   3.549   5.031 -0.4382  0.4245 -0.1422
 2331ntf    on513901   6.194   3.551   5.001 -0.0087 -0.4432 -0.2272
 2331ntf    on513902   6.074   3.555   5.216 -0.2610 -0.1903 -0.1695
 2331ntf    fn413903   6.268   3.773   5.128  0.1361 -0.2161 -0.2780
 2331ntf    fn413904   6.117   3.843   4.994  0.4177  0.0064 -0.0809
 2331ntf    fn413905   6.072   3.833   5.204  0.1989  0.1976 -0.1373
 2332ntf    cn113906   5.185   2.800   2.826 -0.4488  0.3347 -0.1946
 2332ntf    sn213907   5.303   2.918   2.753 -0.0656 -0.0398 -0.1780
 2332ntf    nn313908   5.210   3.020   2.679  0.2557  0.4224  0.0460
 2332ntf    sn213909   5.165   3.016   2.528 -0.2524 -0.5088  0.2141
 2332ntf    cn113910   5.301   3.114   2.458 -0.5979  0.0881  0.3704
 2332ntf    fn413911   5.109   2.743   2.734 -0.1583  0.2607 -0.3928
 2332ntf    fn413912   5.247   2.704   2.891  0.1057  0.5922 -0.3289
 2332ntf    fn413913   5.110   2.858   2.918  0.0605  0.5595  0.0831
 2332ntf    on513914   5.365   2.984   2.865 -0.1710 -0.1867 -0.0335
 2332ntf    on513915   5.391   2.839   2.670  0.1999  0.0430  0.0229
 2332ntf    on513916   5.053   3.101   2.497 -0.2960 -0.3508  0.7927
 2332ntf    on513917   5.174   2.891   2.456 -0.3470 -0.4035  0.0195
 2332ntf    fn413918   5.411   3.040   2.463 -0.3555  0.4204 -0.0211
 2332ntf    fn413919   5.281   3.121   2.327  0.3882  0.4424  0.2346
 2332ntf    fn413920   5.327   3.232   2.511 -0.4571  0.3090 -0.1892
 2333ntf    cn113921   1.727   4.969   0.514  0.1105 -0.1934 -0.0246
 2333ntf    sn213922   1.784   4.905   0.674 -0.1732 -0.2647  0.0474
 2333ntf    nn313923   1.933   4.952   0.683 -0.0617 -0.5500 -0.2907
 2333ntf    sn213924   2.051   4.875   0.750  0.3457  0.2842 -0.0336
 2333ntf    cn113925   2.097   4.972   0.897 -0.1890  0.2613  0.1514
 2333ntf    fn413926   1.742   5.100   0.509 -0.8054 -0.0595  0.5455
 2333ntf    fn413927   1.779   4.917   0.404  0.3029  0.5487 -0.2898
 2333ntf    fn413928   1.598   4.952   0.492  0.0153 -0.3483  0.6393
 2333ntf    on513929   1.704   4.965   0.778 -0.2973 -0.5798  0.1350
 2333ntf    on513930   1.770   4.762   0.655  0.2646 -0.2965 -0.0456
 2333ntf    on513931   2.170   4.887   0.670  0.2010  1.1147 -0.1287
 2333ntf    on513932   2.028   4.749   0.817  0.6152  0.0997 -0.2824
 2333ntf    fn413933   2.205   4.930   0.961 -0.2778 -0.0832  0.0790
 2333ntf    fn413934   2.121   5.098   0.866 -0.0910  0.1861 -0.0835
 2333ntf    fn413935   1.994   4.975   0.979 -0.0001  0.2009  0.3938
 2334ntf    cn113936   1.637   1.921   1.693 -0.0792  0.0809 -0.2254
 2334ntf    sn213937   1.578   2.011   1.547 -0.3670 -0.1010 -0.2214
 2334ntf    nn313938   1.487   1.902   1.477 -0.0222 -0.2411 -0.4533
 2334ntf    sn213939   1.515   1.813   1.351  0.2696  0.0962 -0.6294
 2334ntf    cn113940   1.512   1.936   1.217  0.1498  0.4150 -0.3354
 2334ntf    fn413941   1.750   1.969   1.742 -0.0497  0.1508 -0.3608
 2334ntf    fn413942   1.543   1.918   1.787  0.2457 -0.1193  0.0956
 2334ntf    fn413943   1.667   1.800   1.649 -0.5581 -0.1175 -0.0137
 2334ntf    on513944   1.501   2.117   1.606  0.5242  0.2679  0.2934
 2334ntf    on513945   1.697   2.041   1.472  0.0275 -0.2738  0.3312
 2334ntf    on513946   1.409   1.725   1.311 -0.0452  0.0833  0.2129
 2334ntf    on513947   1.649   1.761   1.351  0.2588  0.0539  0.0795
 2334ntf    fn413948   1.502   1.892   1.093 -0.6701 -0.0987 -0.0955
 2334ntf    fn413949   1.414   2.023   1.237 -0.3753 -0.2619  0.0555
 2334ntf    fn413950   1.624   2.007   1.219  0.6599 -0.3939  0.4324
 2335ntf    cn113951   3.183   0.562   0.697 -0.1950  0.2218 -0.0321
 2335ntf    sn213952   3.229   0.442   0.569 -0.1326 -0.1001  0.2913
 2335ntf    nn313953   3.366   0.392   0.625 -0.1566 -0.3452  0.1320
 2335ntf    sn213954   3.504   0.413   0.551 -0.1364 -0.2564  0.1958
 2335ntf    cn113955   3.524   0.590   0.590 -0.3877 -0.1937  0.0424
 2335ntf    fn413956   3.277   0.656   0.694  0.0949 -0.0741 -0.2425
 2335ntf    fn413957   3.066   0.621   0.679 -0.2633  0.1804  0.2671
 2335ntf    fn413958   3.178   0.503   0.815  0.2679  0.3940  0.0779
 2335ntf    on513959   3.122   0.344   0.578 -0.1065 -0.1103  0.4861
 2335ntf    on513960   3.244   0.523   0.451  0.6212 -0.0628  0.4118
 2335ntf    on513961   3.505   0.397   0.408 -0.2990 -0.0130  0.1668
 2335ntf    on513962   3.616   0.350   0.616  0.1523 -0.2854 -0.3262
 2335ntf    fn413963   3.502   0.604   0.719 -0.2073 -0.4679  0.1048
 2335ntf    fn413964   3.651   0.623   0.574 -0.4163  0.0615  0.3454
 2335ntf    fn413965   3.450   0.677   0.523  0.0299  0.4886  0.4570
 2336ntf    cn113966   2.595   1.584   2.913  0.2250 -0.0357 -0.0209
 2336ntf    sn213967   2.767   1.561   2.965  0.3791  0.1314 -0.4539
 2336ntf    nn313968   2.747   1.437   3.059 -0.1071  0.1551 -0.5267
 2336ntf    sn213969   2.715   1.444   3.212  0.0682  0.0862 -0.4872
 2336ntf    cn113970   2.666   1.269   3.228 -0.6642  0.2872 -0.4702
 2336ntf    fn413971   2.522   1.632   3.013 -0.3513 -0.6583 -0.1416
 2336ntf    fn413972   2.576   1.666   2.811  0.4297  0.4339  0.3123
 2336ntf    fn413973   2.535   1.469   2.886  0.2712  0.0861 -0.6503
 2336ntf    on513974   2.822   1.525   2.837 -0.0767  0.0190 -0.6202
 2336ntf    on513975   2.808   1.686   3.026 -0.4532  0.1010  0.1847
 2336ntf    on513976   2.589   1.506   3.244 -0.1570 -0.6223  0.0493
 2336ntf    on513977   2.830   1.464   3.297 -0.1954  0.1156 -0.1345
 2336ntf    fn413978   2.760   1.190   3.279 -0.9930  0.1687 -0.0446
 2336ntf    fn413979   2.567   1.251   3.314 -0.1764 -0.8529 -0.1160
 2336ntf    fn413980   2.618   1.219   3.116  0.4352  0.3934 -1.0077
 2337ntf    cn113981   2.846   6.279   0.242  0.3328  0.1069 -0.1058
 2337ntf    sn213982   2.692   6.374   0.225  0.1497 -0.1601  0.0553
 2337ntf    nn313983   2.704   6.455   0.359 -0.2579 -0.0411  0.0233
 2337ntf    sn213984   2.775   6.593   0.380 -0.2000 -0.0680  0.0027
 2337ntf    cn113985   2.659   6.713   0.308 -0.0408  0.2608  0.2873
 2337ntf    fn413986   2.861   6.180   0.155 -0.5722 -0.3804  0.2770
 2337ntf    fn413987   2.960   6.346   0.247  0.0107  0.6560 -0.0188
 2337ntf    fn413988   2.840   6.209   0.354  0.4083  0.4436  0.1102
 2337ntf    on513989   2.692   6.458   0.108  0.5379 -0.1758  0.0423
 2337ntf    on513990   2.591   6.271   0.224  0.2963 -0.3021 -0.0784
 2337ntf    on513991   2.893   6.614   0.299  0.0407  0.2085  0.4178
 2337ntf    on513992   2.785   6.622   0.521  0.1171  0.0209 -0.0373
 2337ntf    fn413993   2.692   6.837   0.341  0.5979  0.2607 -0.3320
 2337ntf    fn413994   2.664   6.706   0.176 -0.1116 -0.3103  0.3115
 2337ntf    fn413995   2.533   6.687   0.338 -0.1730 -0.1704 -0.5990
 2338ntf    cn113996   3.024   6.291   1.193  0.2784  0.4117 -0.1665
 2338ntf    sn213997   3.189   6.361   1.220  0.3234  0.1442  0.2498
 2338ntf    nn313998   3.161   6.502   1.157 -0.8647 -0.0411  0.3384
 2338ntf    sn213999   3.178   6.537   1.005  0.3120 -0.1839  0.4252
 2338ntf    cn114000   3.357   6.550   0.979  0.1815  0.6583 -0.1011
 2338ntf    fn414001   2.934   6.388   1.204 -0.1790 -0.0359  0.1008
 2338ntf    fn414002   3.007   6.240   1.072 -0.5647 -0.2769  0.2370
 2338ntf    fn414003   2.998   6.196   1.281  0.7776  0.1212 -0.3309
 2338ntf    on514004   3.193   6.385   1.363  0.5962  0.1043  0.2502
 2338ntf    on514005   3.283   6.278   1.150  0.1161  0.2681 -0.1737
 2338ntf    on514006   3.133   6.674   0.994  0.1829 -0.2288  0.3889
 2338ntf    on514007   3.132   6.435   0.914  0.1204 -0.0712  0.3947
 2338ntf    fn414008   3.386   6.591   0.857  0.2659 -0.0527 -0.3223
 2338ntf    fn414009   3.414   6.645   1.053  0.0143  0.2300  0.5917
 2338ntf    fn414010   3.428   6.441   1.000 -0.2065  0.4034 -0.1050
 2339ntf    cn114011   0.745   6.276   4.004 -0.2320  0.3287  0.4226
 2339ntf    sn214012   0.633   6.144   3.948  0.3106 -0.1489  0.4578
 2339ntf    nn314013   0.608   6.084   4.091 -0.2109 -0.0330  0.4179
 2339ntf    sn214014   0.467   6.049   4.149 -0.3122  0.1041  0.2533
 2339ntf    cn114015   0.509   5.913   4.262 -0.0770 -0.3799 -0.4094
 2339ntf    fn414016   0.823   6.245   4.107 -0.3306 -0.2825  0.3195
 2339ntf    fn414017   0.833   6.320   3.916 -0.5180 -0.2358 -0.1550
 2339ntf    fn414018   0.676   6.380   4.048 -0.3154  0.1556  0.7080
 2339ntf    on514019   0.523   6.218   3.893  0.2991 -0.4432  0.0822
 2339ntf    on514020   0.714   6.066   3.858 -0.1228  0.1016 -0.1562
 2339ntf    on514021   0.379   5.973   4.063 -0.6807  0.4669  0.3065
 2339ntf    on514022   0.412   6.153   4.233 -0.6109 -0.0840  0.2904
 2339ntf    fn414023   0.412   5.878   4.345 -0.2170  0.3403 -0.2560
 2339ntf    fn414024   0.540   5.807   4.189  0.3035 -0.3349 -0.3148
 2339ntf    fn414025   0.612   5.946   4.339 -0.2287  0.2193 -0.4577
 2340ntf    cn114026   0.211   6.372   5.399  0.2119 -0.6879  0.1868
 2340ntf    sn214027   0.127   6.240   5.491 -0.3989 -0.4744 -0.0603
 2340ntf    nn314028   0.082   6.304   5.627  0.2225 -0.6364  0.2254
 2340ntf    sn214029  -0.046   6.393   5.648  0.3791 -0.3364 -0.0817
 2340ntf    cn114030  -0.165   6.286   5.734  0.3953 -0.2156  0.0905
 2340ntf    fn414031   0.248   6.332   5.278 -0.1077 -0.0421 -0.1280
 2340ntf    fn414032   0.132   6.475   5.373  0.3553 -0.5767  0.1822
 2340ntf    fn414033   0.321   6.416   5.458  0.3628 -0.5528 -0.1905
 2340ntf    on514034   0.029   6.189   5.398 -0.7311  0.3283 -0.1561
 2340ntf    on514035   0.236   6.148   5.513 -0.2059 -0.0809  0.6536
 2340ntf    on514036  -0.116   6.423   5.525 -0.3466  0.2270  0.4648
 2340ntf    on514037  -0.030   6.501   5.742  0.3311 -0.2302 -0.1944
 2340ntf    fn414038  -0.137   6.278   5.863 -0.0247  0.3055  0.2196
 2340ntf    fn414039  -0.290   6.330   5.735  0.2716 -0.5498 -0.3931
 2340ntf    fn414040  -0.167   6.164   5.683 -0.6878  0.1030 -0.6646
 2341ntf    cn114041   5.513   5.469   0.418  0.0519  0.2401  0.2666
 2341ntf    sn214042   5.495   5.563   0.572 -0.0158  0.1311  0.3251
 2341ntf    nn314043   5.626   5.647   0.557 -0.1216  0.1052 -0.7799
 2341ntf    sn214044   5.649   5.800   0.529 -0.1226  0.2728  0.1286
 2341ntf    cn114045   5.772   5.807   0.395 -0.0564 -0.0372  0.1717
 2341ntf    fn414046   5.419   5.377   0.403 -0.6010  0.9269  0.0886
 2341ntf    fn414047   5.496   5.543   0.309 -0.6062  0.3006  0.4067
 2341ntf    fn414048   5.628   5.407   0.397 -0.1271 -0.1385  0.3778
 2341ntf    on514049   5.376   5.643   0.556 -0.5186 -0.6354  0.1489
 2341ntf    on514050   5.494   5.469   0.682  0.0238  0.3809  0.5394
 2341ntf    on514051   5.718   5.857   0.643  0.0439  0.4118 -0.0398
 2341ntf    on514052   5.547   5.881   0.468 -0.2394 -0.0018 -0.0386
 2341ntf    fn414053   5.715   5.790   0.277 -0.0879 -0.5837  0.2658
 2341ntf    fn414054   5.835   5.924   0.389 -0.1563  0.0241  0.2890
 2341ntf    fn414055   5.863   5.713   0.407  0.1941  0.1509 -0.2162
 2342ntf    cn114056   1.515   0.183   0.384 -0.2325 -0.3320  0.1383
 2342ntf    sn214057   1.473   0.023   0.309  0.1073 -0.1702 -0.4033
 2342ntf    nn314058   1.338   0.060   0.238 -0.1052  0.1316  0.1498
 2342ntf    sn214059   1.192   0.056   0.296 -0.2229  0.1673 -0.1419
 2342ntf    cn114060   1.119  -0.044   0.163 -0.0561  0.3824 -0.3963
 2342ntf    fn414061   1.635   0.176   0.439 -0.2430 -0.0467  0.1986
 2342ntf    fn414062   1.526   0.278   0.292 -0.3658 -0.3864  0.0659
 2342ntf    fn414063   1.428   0.229   0.473 -0.2513 -0.4510  0.1813
 2342ntf    on514064   1.575   0.010   0.208  0.4144 -0.3868 -0.0686
 2342ntf    on514065   1.480  -0.064   0.424  0.0645  0.3707  0.0139
 2342ntf    on514066   1.129   0.185   0.280  0.0043  0.2082 -0.7335
 2342ntf    on514067   1.185  -0.027   0.413  0.5631 -0.1244 -0.2963
 2342ntf    fn414068   1.104   0.026   0.051  0.1458  0.0849 -0.6103
 2342ntf    fn414069   1.175  -0.160   0.137  0.2803  0.4935 -0.1695
 2342ntf    fn414070   0.995  -0.076   0.195  0.1362  0.1592  0.1266
 2343ntf    cn114071   4.084   5.989   3.758 -0.0967  0.1292  0.2144
 2343ntf    sn214072   4.076   6.010   3.578  0.0391  0.0892  0.2030
 2343ntf    nn314073   4.065   5.859   3.537 -0.0552  0.1287  0.0800
 2343ntf    sn214074   3.960   5.777   3.454  0.1387 -0.0673  0.0256
 2343ntf    cn114075   4.001   5.612   3.519  0.1085 -0.1084 -0.0595
 2343ntf    fn414076   4.087   6.104   3.823  0.6826  0.2366 -0.0004
 2343ntf    fn414077   3.978   5.930   3.809  0.3078 -0.7572  0.0523
 2343ntf    fn414078   4.189   5.916   3.795  0.3542  0.6483 -0.0256
 2343ntf    on514079   3.959   6.093   3.558 -0.1165 -0.1305  0.2003
 2343ntf    on514080   4.202   6.066   3.537  0.1341  0.1135  0.5241
 2343ntf    on514081   3.983   5.776   3.312  0.0217  0.0847  0.0053
 2343ntf    on514082   3.823   5.798   3.496  0.1970 -0.4788  0.4326
 2343ntf    fn414083   4.126   5.574   3.498  0.1761  0.2983 -0.4149
 2343ntf    fn414084   3.982   5.615   3.650 -0.1578  0.0129 -0.1001
 2343ntf    fn414085   3.919   5.517   3.477 -0.2003  0.1504 -0.0491
 2344ntf    cn114086   1.064   2.444   0.818 -0.3280  0.0145 -0.2111
 2344ntf    sn214087   0.897   2.501   0.863 -0.2232  0.0752  0.1015
 2344ntf    nn314088   0.924   2.584   0.994 -0.3858 -0.4490  0.4705
 2344ntf    sn214089   1.006   2.561   1.126  0.1812  0.1814  0.2351
 2344ntf    cn114090   0.889   2.640   1.242 -0.3427 -0.3004  0.0398
 2344ntf    fn414091   1.154   2.541   0.814 -0.0026 -0.2684  0.1839
 2344ntf    fn414092   1.102   2.364   0.916  0.3233  0.6378  0.0568
 2344ntf    fn414093   1.070   2.365   0.712 -0.0396 -0.2716  0.0156
 2344ntf    on514094   0.865   2.575   0.743 -0.4171  0.0695  0.1496
 2344ntf    on514095   0.831   2.377   0.893 -0.1002  0.0937  0.4538
 2344ntf    on514096   1.121   2.648   1.128  0.0499  0.3750 -0.2978
 2344ntf    on514097   1.016   2.425   1.170 -0.3548 -0.0651 -0.3853
 2344ntf    fn414098   0.922   2.627   1.369 -0.2107  0.2692  0.0629
 2344ntf    fn414099   0.876   2.768   1.212 -0.0589 -0.1662  0.4855
 2344ntf    fn414100   0.770   2.585   1.230 -0.6228  0.2696  0.2010
 2345ntf    cn114101   1.005   2.016   5.784 -0.0374 -0.1078  0.0318
 2345ntf    sn214102   1.097   2.066   5.636 -0.3653 -0.1713 -0.1956
 2345ntf    nn314103   1.133   2.210   5.684  0.5624 -0.4228 -0.1113
 2345ntf    sn214104   1.144   2.335   5.590 -0.0956 -0.1734  0.1340
 2345ntf    cn114105   1.325   2.359   5.595 -0.1011 -0.0528 -0.1926
 2345ntf    fn414106   0.951   1.897   5.761 -0.3900  0.1034 -0.2402
 2345ntf    fn414107   1.084   2.009   5.890  0.3327 -0.0383 -0.2372
 2345ntf    fn414108   0.920   2.113   5.816 -0.0717 -0.2150  0.2700
 2345ntf    on514109   1.209   1.976   5.647 -0.7469 -0.6510 -0.2029
 2345ntf    on514110   0.998   2.041   5.534 -0.2399  0.0625 -0.3775
 2345ntf    on514111   1.116   2.459   5.658 -0.2263 -0.2654  0.2469
 2345ntf    on514112   1.112   2.334   5.449 -0.0312  0.3476  0.1140
 2345ntf    fn414113   1.351   2.486   5.568 -0.0359 -0.0696 -0.2077
 2345ntf    fn414114   1.367   2.335   5.718  0.1417  0.1286 -0.2411
 2345ntf    fn414115   1.388   2.287   5.504  0.5209  0.7440 -0.3975
 2346ntf    cn114116   5.122   1.982   2.292  0.0540 -0.2202  0.2806
 2346ntf    sn214117   5.140   2.146   2.367  0.1204 -0.1096  0.0252
 2346ntf    nn314118   5.037   2.125   2.484  0.2546 -0.3609  0.0980
 2346ntf    sn214119   5.057   2.108   2.639 -0.1964 -0.1135  0.1838
 2346ntf    cn114120   5.072   2.284   2.681 -0.4025 -0.0712  0.0779
 2346ntf    fn414121   4.995   1.956   2.267 -0.0065  0.1308  0.2277
 2346ntf    fn414122   5.175   1.970   2.171  0.0590 -0.7437  0.3299
 2346ntf    fn414123   5.172   1.882   2.363  0.1822 -0.1365  0.3071
 2346ntf    on514124   5.280   2.143   2.403  0.0497 -0.8171  0.2652
 2346ntf    on514125   5.093   2.244   2.273  0.3397 -0.4619 -0.4556
 2346ntf    on514126   5.184   2.051   2.678  0.3412  0.5751 -0.5402
 2346ntf    on514127   4.937   2.060   2.703 -0.4432  0.0947 -0.1162
 2346ntf    fn414128   5.194   2.333   2.674 -0.2660 -0.3309  0.6519
 2346ntf    fn414129   4.986   2.355   2.610 -0.7036  0.1573  0.6691
 2346ntf    fn414130   5.038   2.296   2.808 -0.3928 -0.0691  0.0806
 2347ntf    cn114131   0.551   1.087   2.568 -0.3484 -0.2062 -0.0273
 2347ntf    sn214132   0.700   1.144   2.481 -0.0669 -0.4831  0.2714
 2347ntf    nn314133   0.766   1.211   2.607 -0.2431  0.0003  0.1078
 2347ntf    sn214134   0.737   1.359   2.649  0.3053  0.2170 -0.2622
 2347ntf    cn114135   0.905   1.426   2.663  0.4232 -0.1282 -0.0152
 2347ntf    fn414136   0.448   1.167   2.544 -0.5151 -0.2440  0.5559
 2347ntf    fn414137   0.518   0.970   2.515  0.1154 -0.4105  0.1229
 2347ntf    fn414138   0.567   1.082   2.699 -0.0660 -0.3403 -0.0648
 2347ntf    on514139   0.751   1.014   2.445  0.2908 -0.2332 -0.1308
 2347ntf    on514140   0.649   1.230   2.378  0.2504 -0.1842  0.3627
 2347ntf    on514141   0.681   1.349   2.782  0.3005 -0.0257 -0.2831
 2347ntf    on514142   0.667   1.448   2.560 -0.0803  0.3889  0.2024
 2347ntf    fn414143   0.910   1.547   2.715  0.6295 -0.1942  0.1226
 2347ntf    fn414144   0.976   1.347   2.742  0.8351  0.6310  0.3795
 2347ntf    fn414145   0.981   1.429   2.554  0.4900 -0.1651  0.0297
 2348ntf    cn114146   3.819   5.792   1.516  0.0157 -0.4273 -0.0048
 2348ntf    sn214147   3.770   5.860   1.677  0.0718 -0.1116 -0.1190
 2348ntf    nn314148   3.914   5.889   1.734 -0.2365 -0.2448  0.7516
 2348ntf    sn214149   3.993   5.806   1.840  0.0006 -0.2371  0.5811
 2348ntf    cn114150   3.910   5.856   1.994 -0.2530 -0.0748  0.3913
 2348ntf    fn414151   3.880   5.877   1.435 -0.3524 -0.1986 -0.0442
 2348ntf    fn414152   3.909   5.696   1.527  0.0095 -0.4123  0.1738
 2348ntf    fn414153   3.719   5.732   1.453 -0.0977 -0.5259  0.2709
 2348ntf    on514154   3.695   5.978   1.643 -0.3627 -0.2167  0.4564
 2348ntf    on514155   3.697   5.759   1.751 -0.2846  0.4464  0.2962
 2348ntf    on514156   4.130   5.849   1.852  0.0523 -0.1773 -0.1810
 2348ntf    on514157   3.973   5.663   1.829 -0.3300 -0.1568  0.0937
 2348ntf    fn414158   3.873   5.983   1.989 -0.3286 -0.0833  0.7681
 2348ntf    fn414159   3.794   5.801   2.023 -0.4422  0.0798 -0.0550
 2348ntf    fn414160   3.981   5.828   2.102 -0.1038 -0.4239  0.2056
 2349ntf    cn114161   4.252   3.502   0.995 -0.0956  0.0299  0.3123
 2349ntf    sn214162   4.351   3.468   0.846 -0.0098 -0.1624  0.4123
 2349ntf    nn314163   4.426   3.605   0.823 -0.2473 -0.0224  0.4666
 2349ntf    sn214164   4.365   3.727   0.746 -0.0420 -0.0306  0.2907
 2349ntf    cn114165   4.462   3.730   0.592 -0.0641  0.3259  0.2837
 2349ntf    fn414166   4.195   3.620   0.977 -0.2692 -0.1020 -0.0034
 2349ntf    fn414167   4.154   3.415   1.008  0.2412 -0.3735  0.1794
 2349ntf    fn414168   4.311   3.497   1.114  0.4233  0.3480  0.0722
 2349ntf    on514169   4.448   3.368   0.884 -0.3123 -0.5803  0.0879
 2349ntf    on514170   4.255   3.421   0.750  0.2577  0.1046  0.0087
 2349ntf    on514171   4.406   3.848   0.812 -0.4305  0.3732 -0.2035
 2349ntf    on514172   4.227   3.724   0.705  0.0851  0.2493 -0.1635
 2349ntf    fn414173   4.588   3.759   0.622 -0.0119  0.0584  0.3229
 2349ntf    fn414174   4.457   3.614   0.529 -0.4642  0.4513  0.0835
 2349ntf    fn414175   4.420   3.819   0.504  0.0153 -0.2273 -0.3181
 2350ntf    cn114176   3.575   2.484   5.232 -0.0921 -0.0403  0.3563
 2350ntf    sn214177   3.649   2.386   5.366  0.1415 -0.0739  0.2032
 2350ntf    nn314178   3.803   2.401   5.340  0.1149 -0.1728 -0.0107
 2350ntf    sn214179   3.913   2.453   5.439  0.0349  0.3443 -0.1908
 2350ntf    cn114180   3.922   2.296   5.529 -0.2194  0.3841 -0.0959
 2350ntf    fn414181   3.619   2.609   5.233  0.0135 -0.0776  0.3244
 2350ntf    fn414182   3.612   2.423   5.121  0.2371  0.4340  0.2025
 2350ntf    fn414183   3.443   2.482   5.235 -0.1112  0.0180 -0.3527
 2350ntf    on514184   3.599   2.442   5.489  0.2538  0.2491  0.1046
 2350ntf    on514185   3.609   2.249   5.345 -0.5375  0.1951 -0.3076
 2350ntf    on514186   3.873   2.547   5.541  0.4956  0.2056  0.1218
 2350ntf    on514187   4.043   2.471   5.380  0.6351 -0.0746  0.9731
 2350ntf    fn414188   4.012   2.313   5.625 -0.2987  0.5792 -0.0551
 2350ntf    fn414189   3.804   2.262   5.581 -0.2288 -0.3463 -0.5750
 2350ntf    fn414190   3.967   2.200   5.449 -0.1895  0.1466  0.2024
 2351ntf    cn114191   3.612   0.864   4.176  0.0354  0.1597  0.4319
 2351ntf    sn214192   3.673   0.911   4.012 -0.2242  0.1024  0.3189
 2351ntf    nn314193   3.828   0.886   4.022 -0.2031 -0.1779 -0.5509
 2351ntf    sn214194   3.909   0.754   4.001 -0.1169 -0.1770 -0.2253
 2351ntf    cn114195   4.011   0.780   4.150 -0.2893  0.0940 -0.1548
 2351ntf    fn414196   3.639   0.960   4.263 -0.2422  0.3693  0.2857
 2351ntf    fn414197   3.480   0.859   4.177  0.0428 -0.5905 -0.5654
 2351ntf    fn414198   3.659   0.750   4.225  0.0760  0.2042  0.4962
 2351ntf    on514199   3.603   0.827   3.918  0.7080 -0.0544 -0.2475
 2351ntf    on514200   3.640   1.051   4.003  0.2553  0.2014  0.0497
 2351ntf    on514201   3.993   0.765   3.885  0.6548  0.5988  0.3911
 2351ntf    on514202   3.843   0.631   4.037 -0.7630  0.2633  0.1082
 2351ntf    fn414203   3.937   0.807   4.256 -0.4424  0.0828 -0.2579
 2351ntf    fn414204   4.089   0.677   4.180 -0.3214  0.0782 -0.1261
 2351ntf    fn414205   4.093   0.883   4.137  0.1681 -0.2129  0.2483
 2352ntf    cn114206   2.683   4.352   2.651 -0.0595 -0.2253 -0.3254
 2352ntf    sn214207   2.508   4.314   2.680 -0.1005  0.0814 -0.1690
 2352ntf    nn314208   2.442   4.445   2.625  0.0190  0.0245 -0.4501
 2352ntf    sn214209   2.397   4.572   2.707  0.1548 -0.3406  0.2010
 2352ntf    cn114210   2.384   4.712   2.591  0.1876 -0.3795  0.1501
 2352ntf    fn414211   2.722   4.463   2.710  0.3940 -0.3534 -0.3781
 2352ntf    fn414212   2.768   4.260   2.695  0.0534 -0.0556 -0.1865
 2352ntf    fn414213   2.714   4.371   2.524  0.1175  0.3086 -0.2038
 2352ntf    on514214   2.488   4.201   2.592  0.4888 -0.3470  0.2364
 2352ntf    on514215   2.500   4.287   2.822  0.3284  0.1576 -0.1299
 2352ntf    on514216   2.500   4.627   2.792  0.0083  0.1913  0.0344
 2352ntf    on514217   2.268   4.562   2.771  0.0330 -0.4607 -0.0597
 2352ntf    fn414218   2.489   4.724   2.512 -0.7307  1.0107 -0.8976
 2352ntf    fn414219   2.282   4.694   2.509  0.0575  0.4528  0.1206
 2352ntf    fn414220   2.361   4.824   2.656 -0.3358 -0.3686 -0.0514
 2353ntf    cn114221   3.010   4.619   6.749 -0.1328 -0.1713  0.0112
 2353ntf    sn214222   3.124   4.760   6.767 -0.2036 -0.1230  0.0828
 2353ntf    nn314223   3.017   4.875   6.767  0.0126  0.0778  0.0745
 2353ntf    sn214224   3.008   4.995   6.665  0.2268  0.0122 -0.0229
 2353ntf    cn114225   3.073   5.124   6.775  0.1834  0.2526 -0.2823
 2353ntf    fn414226   3.070   4.503   6.727 -0.3952 -0.2312 -0.3962
 2353ntf    fn414227   2.932   4.597   6.853  0.1338 -0.5790  0.1295
 2353ntf    fn414228   2.925   4.640   6.650  0.2687  0.4456 -0.2076
 2353ntf    on514229   3.183   4.735   6.896 -0.0097 -0.9939 -0.1666
 2353ntf    on514230   3.214   4.743   6.655 -0.1153  0.5407  0.0511
 2353ntf    on514231   2.867   5.020   6.652  0.1598 -0.3346  0.0201
 2353ntf    on514232   3.085   4.993   6.544  0.2356  0.2404 -0.0203
 2353ntf    fn414233   3.055   5.244   6.722  0.1981  0.3188 -0.1384
 2353ntf    fn414234   3.009   5.131   6.890  0.3030 -0.2273 -0.1849
 2353ntf    fn414235   3.200   5.114   6.809  0.0050 -0.1231  0.2810
 2354ntf    cn114236   3.805   3.327   4.152 -0.1722  0.0279 -0.0135
 2354ntf    sn214237   3.798   3.186   4.038 -0.0726 -0.0170  0.0350
 2354ntf    nn314238   3.934   3.115   4.069 -0.0254 -0.0327 -0.2032
 2354ntf    sn214239   3.947   2.980   4.149 -0.1893 -0.0387 -0.1882
 2354ntf    cn114240   3.928   2.857   4.016 -0.5249  0.1499 -0.3171
 2354ntf    fn414241   3.835   3.294   4.277  0.3514 -0.0612 -0.1626
 2354ntf    fn414242   3.895   3.416   4.113 -0.0189  0.0665  0.4177
 2354ntf    fn414243   3.687   3.385   4.169 -0.0983  0.2433 -0.2316
 2354ntf    on514244   3.680   3.115   4.082  0.0939 -0.2776  0.0618
 2354ntf    on514245   3.805   3.239   3.904 -0.6094 -0.0269 -0.0005
 2354ntf    on514246   3.843   2.945   4.243  0.0306  0.2673  0.1711
 2354ntf    on514247   4.086   2.963   4.181 -0.0096  0.4794 -0.6688
 2354ntf    fn414248   4.000   2.906   3.917 -0.0318  0.8089  0.3488
 2354ntf    fn414249   3.977   2.736   4.035  0.1141  0.4847  0.2111
 2354ntf    fn414250   3.805   2.839   3.972 -0.3775 -0.5852 -0.4317
 2355ntf    cn114251   3.902   5.250   0.545 -0.1246 -0.0264  0.2605
 2355ntf    sn214252   3.939   5.265   0.367  0.1187  0.1777  0.3278
 2355ntf    nn314253   4.094   5.284   0.365  0.1365 -0.0356 -0.3039
 2355ntf    sn214254   4.199   5.245   0.255  0.2079  0.1653 -0.3085
 2355ntf    cn114255   4.155   5.365   0.126 -0.3201  0.4486  0.1322
 2355ntf    fn414256   3.923   5.127   0.589  0.0347 -0.0718  0.0621
 2355ntf    fn414257   3.979   5.331   0.616  0.0651  0.1523 -0.1428
 2355ntf    fn414258   3.779   5.272   0.587 -0.0063 -0.2029  0.7073
 2355ntf    on514259   3.887   5.139   0.321 -0.0039  0.3091  0.1035
 2355ntf    on514260   3.853   5.377   0.335  0.0571 -0.0372 -0.2566
 2355ntf    on514261   4.185   5.117   0.190  0.4089  0.1051 -0.2346
 2355ntf    on514262   4.337   5.272   0.289  0.2636 -0.1652 -0.2683
 2355ntf    fn414263   4.025   5.366   0.102 -0.3962  0.3694  0.5345
 2355ntf    fn414264   4.191   5.489   0.159  0.1302  0.3965 -0.1491
 2355ntf    fn414265   4.212   5.336   0.010  0.0297  0.6587  0.2483
 2356ntf    cn114266   4.165   0.969   2.396 -0.0246  0.4756  0.5897
 2356ntf    sn214267   4.175   1.133   2.317 -0.1318  0.0241 -0.3700
 2356ntf    nn314268   4.204   1.224   2.441  0.2453  0.1339 -0.5395
 2356ntf    sn214269   4.102   1.303   2.530 -0.0125 -0.0858 -0.6401
 2356ntf    cn114270   4.204   1.375   2.662 -0.4356 -0.4163 -0.1285
 2356ntf    fn414271   4.056   0.951   2.469 -0.2964  0.3198  0.1516
 2356ntf    fn414272   4.155   0.878   2.300  0.0842  0.2156  0.8267
 2356ntf    fn414273   4.270   0.942   2.471  0.4842 -0.0411 -0.2939
 2356ntf    on514274   4.289   1.117   2.231  0.1238  0.1869 -0.0613
 2356ntf    on514275   4.045   1.158   2.260 -0.3990 -0.3236  0.0800
 2356ntf    on514276   4.010   1.213   2.594 -0.0000  0.5720  0.3199
 2356ntf    on514277   4.051   1.423   2.468  0.3038  0.2455 -0.2641
 2356ntf    fn414278   4.120   1.433   2.746 -0.0764 -0.0541 -0.0112
 2356ntf    fn414279   4.264   1.286   2.739 -0.3303 -0.5409 -0.3516
 2356ntf    fn414280   4.295   1.465   2.627 -0.2722 -0.3567  0.4377
 2357ntf    cn114281   2.090   1.622   4.321  0.3152 -0.5292  0.3910
 2357ntf    sn214282   2.021   1.544   4.471  0.0054 -0.2692  0.3856
 2357ntf    nn314283   1.884   1.621   4.467  0.4161  0.4366 -0.8323
 2357ntf    sn214284   1.757   1.599   4.378 -0.1331 -0.0117  0.0450
 2357ntf    cn114285   1.676   1.461   4.463  0.2257 -0.1340  0.1919
 2357ntf    fn414286   2.216   1.585   4.315  0.3443 -0.3906  0.1510
 2357ntf    fn414287   2.027   1.591   4.209  0.6612  0.2083 -0.0158
 2357ntf    fn414288   2.091   1.754   4.329 -0.4191 -0.5084  0.2122
 2357ntf    on514289   2.020   1.404   4.438 -0.3183 -0.1295 -0.2142
 2357ntf    on514290   2.107   1.586   4.578 -0.0861  0.5334  0.1557
 2357ntf    on514291   1.776   1.544   4.246 -1.0996  0.1615 -0.1741
 2357ntf    on514292   1.657   1.701   4.395 -0.0620  0.0719 -0.0396
 2357ntf    fn414293   1.653   1.491   4.590  0.3448  0.8033 -0.0019
 2357ntf    fn414294   1.562   1.429   4.404  0.4088 -0.3403 -0.0538
 2357ntf    fn414295   1.753   1.354   4.466  0.5322  0.0595 -0.6403
 2358ntf    cn114296   5.945   4.467   2.018  0.1725 -0.0235  0.3304
 2358ntf    sn214297   6.055   4.608   2.052  0.1618  0.0539  0.0505
 2358ntf    nn314298   5.990   4.714   1.956 -0.1671 -0.5195 -0.3682
 2358ntf    sn214299   5.877   4.821   1.977  0.3669 -0.0602  0.2087
 2358ntf    cn114300   5.996   4.956   2.004  0.1371  0.1485  0.1731
 2358ntf    fn414301   5.849   4.451   2.107 -0.2845 -0.2146 -0.1877
 2358ntf    fn414302   5.881   4.477   1.902  0.3185 -0.3063  0.2241
 2358ntf    fn414303   6.011   4.353   2.016 -0.1852 -0.2228 -0.6648
 2358ntf    on514304   6.054   4.633   2.194  0.1271  0.4623 -0.0194
 2358ntf    on514305   6.179   4.558   1.999 -0.0483 -0.4566  0.0340
 2358ntf    on514306   5.786   4.803   2.087  0.2417  0.2075  0.1492
 2358ntf    on514307   5.810   4.851   1.853  0.1785  0.2846  0.3937
 2358ntf    fn414308   6.067   4.948   2.115 -0.0183 -0.2379  0.2483
 2358ntf    fn414309   6.080   4.960   1.902 -0.6914 -0.1860 -0.5360
 2358ntf    fn414310   5.929   5.070   2.008 -0.1288  0.0119 -0.2864
 2359ntf    cn114311   5.748   1.338   3.904 -0.0028 -0.0735  0.0463
 2359ntf    sn214312   5.566   1.339   3.909 -0.0015 -0.0090  0.0789
 2359ntf    nn314313   5.547   1.183   3.923 -0.1135 -0.0579 -0.5628
 2359ntf    sn214314   5.510   1.082   3.809  0.1915 -0.2663 -0.4765
 2359ntf    cn114315   5.331   1.112   3.795  0.2637  0.4405  0.0524
 2359ntf    fn414316   5.798   1.238   3.833  0.0104 -0.2738  0.3384
 2359ntf    fn414317   5.791   1.448   3.844  0.1633 -0.0901  0.1346
 2359ntf    fn414318   5.816   1.329   4.017  0.3068 -0.0008 -0.1304
 2359ntf    on514319   5.529   1.408   4.030  0.0090  0.5920 -0.2605
 2359ntf    on514320   5.523   1.397   3.784 -0.0172 -0.3779 -0.0887
 2359ntf    on514321   5.515   0.947   3.858  0.6259 -0.2194 -0.3870
 2359ntf    on514322   5.581   1.115   3.688  0.0486  0.0710 -0.4696
 2359ntf    fn414323   5.281   1.038   3.698 -0.2626 -0.2504  0.8346
 2359ntf    fn414324   5.271   1.090   3.910  0.2310 -0.3383 -0.1126
 2359ntf    fn414325   5.294   1.237   3.769  0.2393  0.5091  0.4070
 2360ntf    cn114326   3.493   1.699   3.859 -0.4014  0.5855 -0.1614
 2360ntf    sn214327   3.669   1.653   3.866 -0.5361  0.0439 -0.2865
 2360ntf    nn314328   3.705   1.626   3.716  0.1991 -0.2007 -0.0664
 2360ntf    sn214329   3.755   1.728   3.608 -0.0242  0.0368  0.0551
 2360ntf    cn114330   3.934   1.698   3.603 -0.0218  0.0472  0.0754
 2360ntf    fn414331   3.466   1.816   3.803 -0.5665  0.6569  0.0656
 2360ntf    fn414332   3.418   1.613   3.792  0.1588 -0.1772  0.1732
 2360ntf    fn414333   3.441   1.700   3.981  0.1971  0.1204  0.1036
 2360ntf    on514334   3.740   1.761   3.929 -0.4660 -0.3682  0.3559
 2360ntf    on514335   3.659   1.533   3.946 -0.3833  0.1378 -0.1261
 2360ntf    on514336   3.747   1.868   3.640 -0.2076  0.0806 -0.1731
 2360ntf    on514337   3.710   1.695   3.475  0.0375  0.2909 -0.0300
 2360ntf    fn414338   3.987   1.688   3.724  0.5462  0.4309 -0.1353
 2360ntf    fn414339   3.972   1.589   3.538  0.4587  0.6634 -0.6915
 2360ntf    fn414340   3.998   1.802   3.552  0.3241 -0.1191  0.1643
 2361ntf    cn114341   1.252   4.413   3.321  0.1671 -0.3116  0.1634
 2361ntf    sn214342   1.421   4.480   3.329 -0.0417  0.2287  0.0766
 2361ntf    nn314343   1.495   4.357   3.267  0.1215  0.5173 -0.3085
 2361ntf    sn214344   1.516   4.298   3.123  0.3366  0.0800 -0.1017
 2361ntf    cn114345   1.695   4.266   3.128  0.2299 -0.5317 -0.0930
 2361ntf    fn414346   1.244   4.293   3.375  0.3759 -0.4054 -0.0096
 2361ntf    fn414347   1.166   4.494   3.380 -0.0062  0.1408 -0.6804
 2361ntf    fn414348   1.204   4.404   3.198  0.1075 -0.2526  0.1825
 2361ntf    on514349   1.412   4.599   3.247 -0.3932  0.2887  0.2025
 2361ntf    on514350   1.451   4.501   3.468  0.5374 -0.6011  0.0849
 2361ntf    on514351   1.505   4.382   3.006 -0.0930  0.1624 -0.0065
 2361ntf    on514352   1.449   4.172   3.103 -0.8799  0.6174  0.4480
 2361ntf    fn414353   1.733   4.159   3.195  0.0004 -0.3968  0.2515
 2361ntf    fn414354   1.745   4.242   3.007 -0.4944  0.2855 -0.5701
 2361ntf    fn414355   1.770   4.364   3.175  0.0647 -0.4916  0.0914
 2362ntf    cn114356   1.887   1.194   6.368  0.4234 -0.4210  0.0239
 2362ntf    sn214357   1.861   1.314   6.235 -0.0789 -0.1281  0.3825
 2362ntf    nn314358   1.753   1.230   6.159  0.0276  0.0142  0.0679
 2362ntf    sn214359   1.713   1.223   6.007 -0.1202 -0.1079  0.1120
 2362ntf    cn114360   1.584   1.096   6.014  0.2293 -0.4757 -0.1003
 2362ntf    fn414361   1.949   1.096   6.305  0.3698 -0.1900 -0.3875
 2362ntf    fn414362   1.973   1.237   6.459  0.2796 -0.3075  0.1058
 2362ntf    fn414363   1.772   1.156   6.420  0.5767 -0.1752  0.5522
 2362ntf    on514364   1.805   1.435   6.290  0.1684  0.1565  0.0210
 2362ntf    on514365   1.982   1.326   6.157 -0.3173  0.5334  0.1035
 2362ntf    on514366   1.813   1.166   5.920  0.0512  0.3087  0.0351
 2362ntf    on514367   1.638   1.335   5.955  0.0627  0.0376  0.1588
 2362ntf    fn414368   1.482   1.139   6.087  0.5686  0.2801 -0.0694
 2362ntf    fn414369   1.541   1.064   5.893 -0.0556  0.3360 -0.2137
 2362ntf    fn414370   1.626   0.985   6.074 -0.2096 -0.3328  0.4912
 2363ntf    cn114371   2.958   6.582   2.754 -0.0264 -0.0538 -0.1693
 2363ntf    sn214372   2.992   6.655   2.591  0.0431  0.1149 -0.0791
 2363ntf    nn314373   2.883   6.584   2.504  0.1267  0.0312 -0.1154
 2363ntf    sn214374   2.892   6.460   2.408 -0.0510 -0.0152 -0.0737
 2363ntf    cn114375   2.742   6.487   2.310 -0.4008 -0.1855  0.4108
 2363ntf    fn414376   3.033   6.625   2.853 -0.1208  0.0737 -0.1519
 2363ntf    fn414377   2.829   6.593   2.784 -0.0110 -0.3067 -0.0077
 2363ntf    fn414378   2.979   6.452   2.751  0.0355 -0.0371 -0.5691
 2363ntf    on514379   2.964   6.796   2.609 -0.4983  0.0125 -0.1170
 2363ntf    on514380   3.128   6.613   2.568  0.2821  0.6108  0.4149
 2363ntf    on514381   2.874   6.333   2.475  0.6037 -0.1337 -0.1188
 2363ntf    on514382   2.992   6.467   2.304 -0.0412 -0.0104 -0.0643
 2363ntf    fn414383   2.726   6.401   2.210 -0.1426  0.4886 -0.2151
 2363ntf    fn414384   2.629   6.474   2.378 -0.5287 -0.3354  0.1736
 2363ntf    fn414385   2.728   6.606   2.255 -0.5328 -0.3377  0.1120
 2364ntf    cn114386   1.432   5.914   3.007 -0.0887 -0.1265  0.3722
 2364ntf    sn214387   1.409   5.772   3.119  0.1297 -0.2877  0.2142
 2364ntf    nn314388   1.276   5.714   3.058  0.0512 -0.1245  0.2285
 2364ntf    sn214389   1.252   5.579   2.981  0.3520 -0.1539  0.1841
 2364ntf    cn114390   1.130   5.492   3.085 -0.0052  0.0505 -0.0600
 2364ntf    fn414391   1.310   5.962   2.989  0.0252  0.1397  0.2990
 2364ntf    fn414392   1.510   6.006   3.063 -0.3446  0.1526  0.2725
 2364ntf    fn414393   1.483   5.880   2.890  0.3062  0.1318  0.4650
 2364ntf    on514394   1.537   5.708   3.105  0.4143  0.2167  0.4728
 2364ntf    on514395   1.388   5.831   3.249 -0.3297 -0.4378  0.2099
 2364ntf    on514396   1.359   5.483   2.973  0.3623 -0.1748  0.5259
 2364ntf    on514397   1.183   5.602   2.857 -0.6063 -0.7164  0.5941
 2364ntf    fn414398   1.030   5.573   3.115 -0.3458 -0.1856 -0.5518
 2364ntf    fn414399   1.071   5.390   3.025  0.0056  0.0454 -0.0620
 2364ntf    fn414400   1.193   5.446   3.192 -0.4514 -0.4358 -0.0080
 2365ntf    cn114401   5.860   2.490   0.290 -0.2014  0.1917  0.4811
 2365ntf    sn214402   5.994   2.541   0.402 -0.1106  0.0724  0.4269
 2365ntf    nn314403   6.123   2.468   0.349  0.1059  0.5203  0.3301
 2365ntf    sn214404   6.260   2.523   0.296  0.1262  0.1043 -0.0571
 2365ntf    cn114405   6.370   2.407   0.381 -0.0673  0.0794  0.1599
 2365ntf    fn414406   5.824   2.365   0.316 -0.0870  0.2012  0.6918
 2365ntf    fn414407   5.759   2.574   0.298 -0.2228  0.2172 -0.0123
 2365ntf    fn414408   5.895   2.484   0.162 -0.4653  0.8096  0.3775
 2365ntf    on514409   5.992   2.684   0.388  0.5356 -0.0045 -0.5938
 2365ntf    on514410   5.939   2.482   0.521  0.3177  0.1071  0.6443
 2365ntf    on514411   6.308   2.647   0.351 -0.4458  0.3353 -0.0622
 2365ntf    on514412   6.287   2.508   0.155  0.7431  0.3810  0.0301
 2365ntf    fn414413   6.342   2.401   0.511  0.0737  0.1033  0.1918
 2365ntf    fn414414   6.347   2.282   0.345  0.0779  0.1189 -0.0703
 2365ntf    fn414415   6.498   2.435   0.361 -0.2711  0.4130 -0.7049
 2366ntf    cn114416   3.950   4.590   6.408 -0.0604  0.1769  0.0165
 2366ntf    sn214417   3.926   4.660   6.242  0.0136  0.0875 -0.0317
 2366ntf    nn314418   3.914   4.534   6.149  0.0332  0.1354 -0.0988
 2366ntf    sn214419   3.853   4.516   6.005  0.2652  0.1649 -0.2018
 2366ntf    cn114420   4.001   4.473   5.908  0.1924  0.0372 -0.2559
 2366ntf    fn414421   3.914   4.684   6.494 -0.4117  0.2055 -0.1619
 2366ntf    fn414422   3.872   4.486   6.431  0.1873 -0.1148 -0.4426
 2366ntf    fn414423   4.070   4.550   6.447 -0.0529  0.0584 -0.1249
 2366ntf    on514424   3.800   4.726   6.265 -0.0144 -0.0746  0.2854
 2366ntf    on514425   4.051   4.730   6.223  0.0076  0.2697  0.5860
 2366ntf    on514426   3.787   4.630   5.947 -0.0502  0.1829  0.1871
 2366ntf    on514427   3.779   4.393   5.993  0.0227  0.2901  0.0195
 2366ntf    fn414428   3.974   4.444   5.782 -0.9517 -0.0740  0.0047
 2366ntf    fn414429   4.100   4.560   5.910  0.2513 -0.0325 -0.0003
 2366ntf    fn414430   4.048   4.356   5.950  0.0489 -0.0019 -0.2055
 2367ntf    cn114431   6.358   5.739   2.951 -0.3202  0.0763  0.2418
 2367ntf    sn214432   6.464   5.612   2.876 -0.4446  0.0808  0.0583
 2367ntf    nn314433   6.486   5.505   2.989 -0.2037 -0.1252 -0.1830
 2367ntf    sn214434   6.621   5.451   3.049 -0.2016  0.0815 -0.0008
 2367ntf    cn114435   6.555   5.402   3.211  0.2810 -0.4353  0.0440
 2367ntf    fn414436   6.335   5.839   2.868  0.6137 -0.0569 -0.1846
 2367ntf    fn414437   6.244   5.684   2.991 -0.1537 -0.1829  0.3635
 2367ntf    fn414438   6.414   5.787   3.061  0.0033 -0.3969  0.2883
 2367ntf    on514439   6.380   5.567   2.768 -1.0042 -0.1275  0.5714
 2367ntf    on514440   6.586   5.680   2.840 -0.1276 -0.4273  0.1559
 2367ntf    on514441   6.724   5.547   3.077 -0.1699  0.0194  0.0956
 2367ntf    on514442   6.667   5.330   2.985 -0.2378 -0.2159  0.5336
 2367ntf    fn414443   6.487   5.289   3.202 -0.2380 -0.1387  0.1839
 2367ntf    fn414444   6.652   5.373   3.296  0.1608  0.4725  0.5137
 2367ntf    fn414445   6.481   5.500   3.260  0.2808 -0.2215 -0.3787
 2368ntf    cn114446   3.359   0.904   6.732  0.3639  0.0012 -0.1999
 2368ntf    sn214447   3.298   1.063   6.794 -0.0594 -0.2589  0.0568
 2368ntf    nn314448   3.143   1.051   6.772  0.0088 -0.7130 -0.1697
 2368ntf    sn214449   3.046   1.120   6.671  0.0864 -0.1985  0.1059
 2368ntf    cn114450   2.921   0.989   6.651  0.1306 -0.1905 -0.2331
 2368ntf    fn414451   3.484   0.870   6.758  0.1210 -0.3197  0.5819
 2368ntf    fn414452   3.283   0.803   6.772 -0.2032  0.4854 -0.0374
 2368ntf    fn414453   3.342   0.903   6.600  0.0749 -0.4612 -0.1644
 2368ntf    on514454   3.336   1.060   6.934 -0.3745  0.1613  0.1509
 2368ntf    on514455   3.370   1.155   6.710  0.6191 -0.2815  0.5985
 2368ntf    on514456   3.084   1.118   6.532  0.2686 -0.5784  0.1609
 2368ntf    on514457   2.985   1.240   6.724 -0.0720 -0.1208 -0.2448
 2368ntf    fn414458   2.833   1.009   6.555  0.1329  0.4370 -0.1076
 2368ntf    fn414459   2.986   0.874   6.636  0.3593 -0.1367  0.3312
 2368ntf    fn414460   2.849   0.985   6.762 -0.1337 -0.3459 -0.4091
 2369ntf    cn114461   1.529   1.692   0.070 -0.0680 -0.0129  0.2204
 2369ntf    sn214462   1.479   1.540  -0.017 -0.0977 -0.0283  0.2641
 2369ntf    nn314463   1.340   1.520   0.052 -0.5439  0.1068 -0.5840
 2369ntf    sn214464   1.267   1.387   0.094 -0.1920  0.0830 -0.0429
 2369ntf    cn114465   1.310   1.375   0.271  0.2956  0.1080 -0.1592
 2369ntf    fn414466   1.527   1.686   0.202  0.5222 -0.1081  0.2238
 2369ntf    fn414467   1.646   1.740   0.031 -0.1145  0.1317  0.2585
 2369ntf    fn414468   1.440   1.787   0.043 -0.1229 -0.0117  0.4011
 2369ntf    on514469   1.478   1.584  -0.155 -0.0239 -0.5132  0.1079
 2369ntf    on514470   1.570   1.436   0.024 -0.0722  0.0452  0.3958
 2369ntf    on514471   1.314   1.265   0.035  0.1765  0.2650 -0.1261
 2369ntf    on514472   1.124   1.410   0.097 -0.2833 -0.4891  0.1759
 2369ntf    fn414473   1.356   1.252   0.292 -0.7482 -0.2549  0.0808
 2369ntf    fn414474   1.400   1.463   0.310  0.0723  0.2935 -0.0618
 2369ntf    fn414475   1.206   1.382   0.353  0.5148  0.2360  0.1066
 2370ntf    cn114476   1.904   0.821   5.296 -0.2859 -0.3120  0.0654
 2370ntf    sn214477   1.929   0.788   5.119  0.1512  0.4151 -0.0138
 2370ntf    nn314478   1.845   0.907   5.061  0.0082 -0.1135 -0.9025
 2370ntf    sn214479   1.692   0.923   5.028 -0.2218 -0.3207  0.0269
 2370ntf    cn114480   1.716   1.046   4.896  0.1528 -0.1880  0.2151
 2370ntf    fn414481   1.955   0.731   5.379 -0.0488 -0.5088 -0.2911
 2370ntf    fn414482   1.942   0.942   5.334 -0.0320 -0.3685 -0.0089
 2370ntf    fn414483   1.774   0.816   5.320 -0.2374 -0.0970  0.3770
 2370ntf    on514484   2.072   0.796   5.106  0.1473 -0.0316 -0.3492
 2370ntf    on514485   1.871   0.658   5.095  0.3162  0.4211 -0.4596
 2370ntf    on514486   1.615   0.993   5.127  0.3442  0.4867 -0.0874
 2370ntf    on514487   1.634   0.813   4.955 -0.2616 -0.3099  0.0427
 2370ntf    fn414488   1.598   1.095   4.861  0.0324 -0.0933  0.7483
 2370ntf    fn414489   1.789   1.146   4.941 -0.4176  0.3719 -0.0711
 2370ntf    fn414490   1.770   0.990   4.789  0.0542 -0.3333  0.2402
 2371ntf    cn114491   3.857   3.492   5.353 -0.2121  0.0289  0.1618
 2371ntf    sn214492   3.779   3.328   5.354 -0.2902  0.0651  0.0619
 2371ntf    nn314493   3.639   3.368   5.295 -0.3959 -0.4793 -0.0614
 2371ntf    sn214494   3.509   3.389   5.381 -0.1012  0.1458  0.2403
 2371ntf    cn114495   3.419   3.232   5.357  0.2955 -0.0863  0.2725
 2371ntf    fn414496   3.831   3.554   5.238 -0.0990  0.1138  0.1808
 2371ntf    fn414497   3.800   3.581   5.433  0.2098  0.3969  0.0605
 2371ntf    fn414498   3.988   3.488   5.370 -0.1124  0.5027 -0.4276
 2371ntf    on514499   3.857   3.256   5.256 -0.4071  0.6303 -0.4532
 2371ntf    on514500   3.789   3.290   5.492 -0.5429  0.2376  0.1296
 2371ntf    on514501   3.423   3.490   5.324 -0.0433  0.3309  0.4817
 2371ntf    on514502   3.517   3.410   5.523 -0.1955  0.8749  0.1440
 2371ntf    fn414503   3.414   3.197   5.230 -0.1867  0.2256  0.2041
 2371ntf    fn414504   3.490   3.134   5.411  0.0432 -0.4206 -0.0031
 2371ntf    fn414505   3.295   3.234   5.403  0.1855 -0.4564 -0.0048
 2372ntf    cn114506   4.021   3.505   6.638  0.0781 -0.0346 -0.1979
 2372ntf    sn214507   4.128   3.531   6.493  0.0369  0.0605 -0.2106
 2372ntf    nn314508   4.036   3.459   6.389 -0.0204 -0.2644  0.0615
 2372ntf    sn214509   4.008   3.489   6.237 -0.2316  0.0494  0.1596
 2372ntf    cn114510   4.147   3.403   6.156  0.0715  0.4765  0.2216
 2372ntf    fn414511   4.083   3.554   6.744  0.0551  0.4520 -0.4061
 2372ntf    fn414512   3.908   3.572   6.622 -0.1508 -0.4611 -0.3700
 2372ntf    fn414513   4.002   3.375   6.656 -0.2551  0.0199 -0.1500
 2372ntf    on514514   4.138   3.675   6.485  0.1347  0.0427 -0.4038
 2372ntf    on514515   4.248   3.461   6.529 -0.6012 -0.4843  0.9265
 2372ntf    on514516   4.024   3.624   6.190  0.6517 -0.2917 -0.5490
 2372ntf    on514517   3.900   3.407   6.189 -0.0619 -0.0530 -0.0507
 2372ntf    fn414518   4.142   3.409   6.024 -0.3198  0.3577  0.2294
 2372ntf    fn414519   4.267   3.440   6.196  0.2459 -0.1538  0.2974
 2372ntf    fn414520   4.149   3.275   6.191 -0.1284  0.3065 -0.3808
 2373ntf    cn114521   6.618   4.166   4.918 -0.4742 -0.0985  0.5307
 2373ntf    sn214522   6.648   3.988   4.897  0.0697  0.0746 -0.1942
 2373ntf    nn314523   6.798   3.981   4.942 -0.0539 -0.4098  0.1521
 2373ntf    sn214524   6.895   3.860   4.918  0.5291  0.0867 -0.0340
 2373ntf    cn114525   7.013   3.938   4.804 -0.0586  0.3199 -0.4864
 2373ntf    fn414526   6.635   4.204   5.044 -0.2921 -0.0574  0.4932
 2373ntf    fn414527   6.700   4.241   4.846 -0.4127 -0.9786 -0.3312
 2373ntf    fn414528   6.499   4.210   4.881 -0.4224 -0.2616  0.1705
 2373ntf    on514529   6.558   3.921   4.987  0.4554 -0.1328  0.0389
 2373ntf    on514530   6.625   3.967   4.756  0.3562  0.0600 -0.2384
 2373ntf    on514531   6.840   3.742   4.855 -0.5146  0.3697  0.3148
 2373ntf    on514532   6.972   3.826   5.035  0.0751 -0.4933  0.1022
 2373ntf    fn414533   7.064   4.050   4.852  0.0039  0.1067 -0.0519
 2373ntf    fn414534   7.113   3.857   4.773 -0.1281 -0.1202  0.4066
 2373ntf    fn414535   6.952   3.958   4.688 -0.1447 -0.3826 -0.5688
 2374ntf    cn114536   1.204   5.433   5.095 -0.4296  0.2909  0.4512
 2374ntf    sn214537   1.046   5.346   5.076 -0.1347 -0.1168 -0.2000
 2374ntf    nn314538   0.966   5.441   4.979 -0.2508  0.0427  0.0486
 2374ntf    sn214539   0.943   5.430   4.824 -0.2061 -0.2460  0.0610
 2374ntf    cn114540   0.874   5.597   4.808 -0.2059 -0.2095  0.4194
 2374ntf    fn414541   1.182   5.556   5.139 -0.4609  0.2523  0.5448
 2374ntf    fn414542   1.281   5.377   5.187  0.3407 -0.3707 -0.5682
 2374ntf    fn414543   1.268   5.430   4.979 -0.3147 -0.2343  0.5221
 2374ntf    on514544   1.082   5.217   5.023  0.4872  0.0710 -0.2393
 2374ntf    on514545   0.992   5.342   5.210 -0.3749 -0.4857 -0.3060
 2374ntf    on514546   0.831   5.350   4.783 -0.4420  0.0344  0.1514
 2374ntf    on514547   1.064   5.443   4.747 -0.5790  0.0894 -0.4757
 2374ntf    fn414548   0.751   5.595   4.858 -0.2575 -0.0815  0.3001
 2374ntf    fn414549   0.940   5.690   4.875  0.1368 -0.1101 -0.0488
 2374ntf    fn414550   0.853   5.639   4.684  0.0150 -0.6792  0.2248
 2375ntf    cn114551   6.592   5.623   0.945  0.4122  0.2350 -0.1578
 2375ntf    sn214552   6.448   5.735   0.949  0.0372 -0.2416 -0.1589
 2375ntf    nn314553   6.412   5.738   1.102  0.4746 -0.1409 -0.0565
 2375ntf    sn214554   6.325   5.634   1.180 -0.0956  0.1306 -0.3293
 2375ntf    cn114555   6.176   5.733   1.213  0.1375  0.3568  0.0507
 2375ntf    fn414556   6.650   5.620   0.826  0.0224  0.1598 -0.3505
 2375ntf    fn414557   6.678   5.645   1.043  0.0313 -0.0021  0.2360
 2375ntf    fn414558   6.557   5.498   0.971 -0.3096  0.4550 -0.0403
 2375ntf    on514559   6.515   5.858   0.913 -0.3282  0.0181  0.0431
 2375ntf    on514560   6.351   5.686   0.854 -0.3594 -0.1640  0.2058
 2375ntf    on514561   6.377   5.606   1.311 -1.3524  0.3278  0.2262
 2375ntf    on514562   6.282   5.519   1.104  0.1375 -0.0859 -0.1340
 2375ntf    fn414563   6.082   5.668   1.278 -0.2446  0.6207 -0.2344
 2375ntf    fn414564   6.206   5.844   1.279  0.7403  0.1253  0.1701
 2375ntf    fn414565   6.117   5.780   1.104 -0.1020  0.0548  0.0509
 2376ntf    cn114566   3.133   3.639   4.522 -0.1003 -0.1392  0.1299
 2376ntf    sn214567   3.201   3.785   4.608  0.3430 -0.2147 -0.0915
 2376ntf    nn314568   3.159   3.891   4.500  0.3138 -0.7033 -0.5701
 2376ntf    sn214569   3.216   4.037   4.491 -0.3811 -0.3580  0.4269
 2376ntf    cn114570   3.071   4.134   4.541 -0.1220  0.0572  0.3755
 2376ntf    fn414571   3.001   3.641   4.507 -0.0844 -0.3920 -0.0352
 2376ntf    fn414572   3.184   3.628   4.401 -0.0058  0.1352  0.1433
 2376ntf    fn414573   3.159   3.525   4.583 -0.5639 -0.2991  0.0279
 2376ntf    on514574   3.123   3.790   4.728 -0.1667 -0.4608 -0.4091
 2376ntf    on514575   3.343   3.762   4.615  0.3732  0.1361  0.4196
 2376ntf    on514576   3.219   4.081   4.354 -0.4062  0.1414  0.5833
 2376ntf    on514577   3.329   4.072   4.574 -0.0069  0.1642 -0.2948
 2376ntf    fn414578   3.037   4.105   4.666 -0.4683 -0.6179  0.1296
 2376ntf    fn414579   3.109   4.261   4.554  0.5283 -0.1498  0.5598
 2376ntf    fn414580   2.966   4.122   4.462  0.2728 -0.0054 -0.1462
 2377ntf    cn114581   0.575   3.267   0.642  0.1128  0.1729  0.1389
 2377ntf    sn214582   0.745   3.210   0.668  0.0575 -0.0367  0.0407
 2377ntf    nn314583   0.718   3.056   0.683 -0.7456  0.0897 -0.0648
 2377ntf    sn214584   0.667   2.972   0.805  0.0365 -0.2512  0.0373
 2377ntf    cn114585   0.820   2.926   0.890  0.0939  0.0778  0.1150
 2377ntf    fn414586   0.511   3.201   0.547  0.1533  0.5624 -0.1637
 2377ntf    fn414587   0.501   3.250   0.751 -0.2261  0.0243 -0.1133
 2377ntf    fn414588   0.563   3.394   0.608  0.1498  0.1753  0.1349
 2377ntf    on514589   0.812   3.234   0.543 -0.2937 -0.1518 -0.1717
 2377ntf    on514590   0.797   3.281   0.782 -0.1313  0.0285  0.0860
 2377ntf    on514591   0.612   2.848   0.756  0.6602 -0.3079 -0.5245
 2377ntf    on514592   0.594   3.049   0.904  0.2688  0.2941 -0.2131
 2377ntf    fn414593   0.795   2.835   0.983 -0.0026 -0.4621 -0.4299
 2377ntf    fn414594   0.920   2.878   0.818 -0.4269 -0.7398 -0.0808
 2377ntf    fn414595   0.869   3.029   0.957 -0.3617  0.3490  0.0273
 2378ntf    cn114596   4.893   0.445   3.501  0.9441  0.1513  0.0780
 2378ntf    sn214597   4.867   0.615   3.442 -0.3075  0.0271  0.2395
 2378ntf    nn314598   5.013   0.669   3.465 -0.4868  0.3299  0.6616
 2378ntf    sn214599   5.066   0.812   3.502  0.0225  0.2647  0.1927
 2378ntf    cn114600   5.065   0.801   3.684 -0.1644  0.5189  0.2071
 2378ntf    fn414601   4.955   0.369   3.412 -0.2696 -0.8620  0.0633
 2378ntf    fn414602   4.942   0.413   3.620  0.2373 -0.9553  0.0924
 2378ntf    fn414603   4.774   0.388   3.508  0.9674 -0.0329 -0.8840
 2378ntf    on514604   4.832   0.601   3.303  0.2426 -0.0881  0.1098
 2378ntf    on514605   4.767   0.669   3.530 -0.8797 -0.2596 -0.2320
 2378ntf    on514606   4.970   0.917   3.479  0.2234  0.4115  0.0218
 2378ntf    on514607   5.204   0.828   3.463  0.0221 -0.3307 -0.0671
 2378ntf    fn414608   5.148   0.707   3.724 -0.7273  0.2527  0.7679
 2378ntf    fn414609   5.105   0.913   3.743  0.4056  0.4399 -0.0228
 2378ntf    fn414610   4.946   0.772   3.734  0.2339 -0.5863  0.5416
 2379ntf    cn114611   5.262   0.764   4.127 -0.2743  0.1155  0.1467
 2379ntf    sn214612   5.370   0.666   4.235 -0.2819  0.1283  0.1658
 2379ntf    nn314613   5.271   0.592   4.331 -0.0436 -0.1273  0.2143
 2379ntf    sn214614   5.205   0.635   4.467 -0.3975 -0.1082  0.0377
 2379ntf    cn114615   5.294   0.530   4.586  0.1994 -0.0263 -0.3315
 2379ntf    fn414616   5.178   0.692   4.054 -0.0367  0.2117 -0.2304
 2379ntf    fn414617   5.187   0.852   4.191 -0.2620  0.0357  0.2709
 2379ntf    fn414618   5.329   0.829   4.033 -0.0788 -0.1026  0.1341
 2379ntf    on514619   5.430   0.582   4.135 -0.3312 -0.0558  0.2914
 2379ntf    on514620   5.453   0.770   4.292 -0.6693  0.2989  0.4235
 2379ntf    on514621   5.066   0.597   4.474 -0.0440 -1.3904  0.3975
 2379ntf    on514622   5.233   0.771   4.505 -0.4403 -0.0166 -0.2572
 2379ntf    fn414623   5.260   0.403   4.565  0.2817 -0.0633 -0.2382
 2379ntf    fn414624   5.423   0.528   4.556  0.5043  0.0924  0.9180
 2379ntf    fn414625   5.277   0.564   4.712 -0.1628 -0.4675 -0.2572
 2380ntf    cn114626   6.028   0.478   1.350 -0.2413 -0.3015  0.1020
 2380ntf    sn214627   6.073   0.613   1.237 -0.3774  0.0464  0.4613
 2380ntf    nn314628   6.212   0.552   1.196 -0.5037  0.4892 -0.6443
 2380ntf    sn214629   6.271   0.511   1.056 -0.1826  0.1038 -0.3977
 2380ntf    cn114630   6.292   0.332   1.076  0.2376  0.2090  0.1279
 2380ntf    fn414631   5.901   0.481   1.386 -0.3790 -0.0641 -0.3987
 2380ntf    fn414632   6.049   0.361   1.292 -0.2914 -0.1977 -0.1231
 2380ntf    fn414633   6.095   0.473   1.465  0.1817 -0.2013 -0.1386
 2380ntf    on514634   5.974   0.620   1.134  0.2517 -0.1873 -0.1686
 2380ntf    on514635   6.091   0.729   1.322  1.5064  0.2724 -0.1942
 2380ntf    on514636   6.404   0.562   1.036 -0.1856  0.0140 -0.6481
 2380ntf    on514637   6.189   0.522   0.938  0.2730  0.3888 -0.6900
 2380ntf    fn414638   6.402   0.300   1.143  0.6158  0.7051 -0.2440
 2380ntf    fn414639   6.190   0.271   1.134  0.1307  0.2606 -0.0058
 2380ntf    fn414640   6.323   0.273   0.961 -0.3238  0.1372  0.0113
 2381ntf    cn114641   5.000   3.402   1.507  0.3757  0.0286 -0.0368
 2381ntf    sn214642   4.975   3.266   1.625 -0.1930  0.1433 -0.0216
 2381ntf    nn314643   4.846   3.312   1.702 -0.3221 -0.2297 -0.0121
 2381ntf    sn214644   4.700   3.329   1.648 -0.4349 -0.5584  0.1906
 2381ntf    cn114645   4.627   3.194   1.747  0.2887 -0.8089  0.3920
 2381ntf    fn414646   4.974   3.519   1.565  0.2475  0.0956 -0.2284
 2381ntf    fn414647   5.126   3.399   1.469  0.1657  0.0935 -0.7488
 2381ntf    fn414648   4.918   3.393   1.404 -0.2728 -0.2775  0.4918
 2381ntf    on514649   4.957   3.146   1.547  0.5645  0.0895 -0.1215
 2381ntf    on514650   5.091   3.267   1.711 -0.0829 -0.0071 -0.1690
 2381ntf    on514651   4.671   3.278   1.516 -0.7438  0.2632 -0.0619
 2381ntf    on514652   4.631   3.445   1.699  0.4874 -0.0735  0.3549
 2381ntf    fn414653   4.637   3.216   1.877  0.4342  0.1193  0.2302
 2381ntf    fn414654   4.498   3.181   1.717  0.1570  0.5439  0.3103
 2381ntf    fn414655   4.684   3.076   1.731  0.2945 -0.7456 -0.0926
 2382ntf    cn114656   0.801   3.718   1.673 -0.2540 -0.0733 -0.5604
 2382ntf    sn214657   0.739   3.548   1.683  0.3073 -0.2361  0.2475
 2382ntf    nn314658   0.587   3.581   1.703  0.4313  0.3140  0.2776
 2382ntf    sn214659   0.473   3.622   1.603  0.2591 -0.2674  0.2324
 2382ntf    cn114660   0.423   3.455   1.551 -0.0865 -0.1482  0.1741
 2382ntf    fn414661   0.729   3.787   1.586 -0.5111  0.0288 -0.2684
 2382ntf    fn414662   0.788   3.787   1.785  0.0928 -0.2134 -0.4330
 2382ntf    fn414663   0.927   3.725   1.634 -0.1133 -0.2056 -0.1327
 2382ntf    on514664   0.768   3.477   1.560 -0.5453  0.0368 -0.1231
 2382ntf    on514665   0.800   3.495   1.802 -0.1153  0.0301  0.5858
 2382ntf    on514666   0.507   3.681   1.476  0.8760 -0.4180  0.3248
 2382ntf    on514667   0.359   3.674   1.674  0.1477 -0.7024  0.3723
 2382ntf    fn414668   0.315   3.444   1.476  0.0531 -0.1057 -0.0372
 2382ntf    fn414669   0.518   3.394   1.481  0.2618  0.4843  0.0881
 2382ntf    fn414670   0.406   3.375   1.654 -0.6488 -0.2041  0.0393
 2383ntf    cn114671   4.716   3.461   0.192 -0.0703  0.2456 -0.2296
 2383ntf    sn214672   4.786   3.330   0.088 -0.5600 -0.2726  0.0852
 2383ntf    nn314673   4.902   3.276   0.179 -0.0589  0.5069 -0.0786
 2383ntf    sn214674   5.052   3.322   0.185  0.0409  0.1670  0.1000
 2383ntf    cn114675   5.133   3.178   0.109 -0.3018  0.1612 -0.2606
 2383ntf    fn414676   4.798   3.564   0.189  0.1172  0.0996 -0.0932
 2383ntf    fn414677   4.597   3.500   0.150 -0.2222  0.0274 -0.0089
 2383ntf    fn414678   4.704   3.424   0.318 -0.3081  0.1097 -0.2918
 2383ntf    on514679   4.681   3.232   0.077 -0.5242 -0.2962 -0.0628
 2383ntf    on514680   4.830   3.399  -0.031  0.1430 -0.6399  0.1260
 2383ntf    on514681   5.108   3.333   0.317 -0.2013 -0.1371  0.2299
 2383ntf    on514682   5.093   3.427   0.094  0.7328 -0.6292 -0.5310
 2383ntf    fn414683   5.090   3.064   0.161  0.5946  0.0095  0.1667
 2383ntf    fn414684   5.091   3.174  -0.016 -0.0781  0.2833 -0.3408
 2383ntf    fn414685   5.265   3.183   0.109 -0.3318  1.0607 -0.5744
 2384ntf    cn114686   5.148   4.771   4.246 -0.6726  0.2329 -0.2385
 2384ntf    sn214687   5.047   4.749   4.396  0.1429  0.2270  0.3163
 2384ntf    nn314688   4.933   4.850   4.358  0.2007  0.3341  0.4235
 2384ntf    sn214689   4.788   4.875   4.413  0.0565  0.1844  0.1124
 2384ntf    cn114690   4.690   4.783   4.290  0.4021 -0.0972  0.0447
 2384ntf    fn414691   5.204   4.891   4.245  0.0730 -0.1159 -0.8839
 2384ntf    fn414692   5.243   4.682   4.225 -0.4573  0.2506  0.6431
 2384ntf    fn414693   5.080   4.759   4.133 -0.2567  0.6654 -0.5418
 2384ntf    on514694   4.998   4.614   4.384 -0.0964  0.3386  0.0113
 2384ntf    on514695   5.131   4.788   4.506  0.2139 -0.2987  0.4482
 2384ntf    on514696   4.746   5.011   4.393 -0.8287 -0.0821  0.1088
 2384ntf    on514697   4.760   4.816   4.541 -0.0579  0.2622  0.1233
 2384ntf    fn414698   4.754   4.794   4.175  0.0188 -0.6556 -0.2279
 2384ntf    fn414699   4.676   4.655   4.317 -0.1279 -0.0701 -0.0845
 2384ntf    fn414700   4.567   4.829   4.273  0.4821  0.2516  0.4061
 2385ntf    cn114701   0.342   6.605   0.499 -0.0189 -0.1225  0.2409
 2385ntf    sn214702   0.322   6.677   0.333 -0.1027  0.2558  0.4118
 2385ntf    nn314703   0.165   6.678   0.320 -0.0885  0.0719  0.2030
 2385ntf    sn214704   0.062   6.603   0.229  0.1740 -0.2674  0.1821
 2385ntf    cn114705   0.011   6.742   0.124  0.5302 -0.1484  0.1684
 2385ntf    fn414706   0.468   6.586   0.532  0.1348 -0.0113 -0.2661
 2385ntf    fn414707   0.299   6.693   0.588  0.3750  0.2217  0.0956
 2385ntf    fn414708   0.274   6.494   0.521 -0.1071 -0.1843 -0.3132
 2385ntf    on514709   0.369   6.813   0.330 -0.2478  0.2957 -0.1748
 2385ntf    on514710   0.387   6.584   0.243 -0.3855 -0.0807  0.5501
 2385ntf    on514711  -0.069   6.577   0.285 -0.0869 -0.3660 -0.4647
 2385ntf    on514712   0.119   6.511   0.134  0.5529  0.6656 -0.5114
 2385ntf    fn414713  -0.064   6.831   0.187  0.0492 -0.1851 -0.3429
 2385ntf    fn414714   0.114   6.816   0.084  0.5075 -0.0367  0.3129
 2385ntf    fn414715  -0.055   6.700   0.018  0.5698  0.0665  0.0568
 2386ntf    cn114716   1.980   5.902   1.863  0.6376  0.2451  0.3071
 2386ntf    sn214717   1.905   6.024   1.752  0.0148 -0.0849  0.3632
 2386ntf    nn314718   1.853   6.139   1.846 -0.3916  0.0590 -0.0337
 2386ntf    sn214719   1.923   6.272   1.894 -0.1770 -0.1650  0.2769
 2386ntf    cn114720   1.946   6.366   1.740  0.1751 -0.2713  0.2645
 2386ntf    fn414721   1.975   5.775   1.824 -0.3941  0.5707 -0.6380
 2386ntf    fn414722   2.110   5.920   1.884  0.7265  0.2416 -0.2131
 2386ntf    fn414723   1.929   5.903   1.985  0.4449 -0.2666  0.2359
 2386ntf    on514724   2.012   6.059   1.662 -0.3107  0.6946  0.2645
 2386ntf    on514725   1.800   5.941   1.698  0.1683  0.2007 -0.3805
 2386ntf    on514726   2.055   6.259   1.950  0.1209  0.4935 -0.2527
 2386ntf    on514727   1.821   6.352   1.957  0.3768  0.0734  0.8697
 2386ntf    fn414728   2.039   6.459   1.759  0.2063 -0.2745  0.1233
 2386ntf    fn414729   1.998   6.293   1.643 -0.5086 -0.7303  0.2351
 2386ntf    fn414730   1.838   6.430   1.698 -0.0521 -0.6567  0.2648
 2387ntf    cn114731   5.391   6.796   1.719 -0.3506 -0.3621 -0.2381
 2387ntf    sn214732   5.458   6.736   1.877 -0.0899 -0.5008 -0.3991
 2387ntf    nn314733   5.325   6.751   1.958  0.4449  0.4359  0.3215
 2387ntf    sn214734   5.264   6.666   2.075  0.1125  0.4190  0.1348
 2387ntf    cn114735   5.243   6.507   1.988  0.1154  0.4036  0.1617
 2387ntf    fn414736   5.487   6.831   1.634 -0.1476 -0.2750  0.0234
 2387ntf    fn414737   5.326   6.701   1.654 -0.2947 -0.3939 -0.2476
 2387ntf    fn414738   5.309   6.896   1.743  0.1339 -0.0522  0.1366
 2387ntf    on514739   5.499   6.602   1.844  0.4582 -0.3876 -0.1953
 2387ntf    on514740   5.559   6.837   1.898 -1.0140  0.3939 -0.2092
 2387ntf    on514741   5.132   6.714   2.107 -0.1136  0.2535 -0.5212
 2387ntf    on514742   5.357   6.635   2.180  0.4027  0.2713 -0.1630
 2387ntf    fn414743   5.143   6.429   2.026  0.4264  0.0352  0.2256
 2387ntf    fn414744   5.233   6.521   1.857 -0.3996  0.0500  0.1613
 2387ntf    fn414745   5.354   6.439   2.014 -0.1039 -0.0181  0.0017
 2388ntf    cn114746   0.439   1.939   2.451 -0.1905  0.0102  0.1640
 2388ntf    sn214747   0.417   1.824   2.590 -0.1430 -0.2118 -0.0116
 2388ntf    nn314748   0.262   1.813   2.609 -0.2137  0.4961 -0.1710
 2388ntf    sn214749   0.161   1.713   2.543  0.2092 -0.1419  0.1425
 2388ntf    cn114750   0.034   1.828   2.483  0.0784 -0.2192  0.2687
 2388ntf    fn414751   0.564   1.979   2.433 -0.2361  0.0985  0.0407
 2388ntf    fn414752   0.403   1.901   2.329 -0.1989  0.1853  0.1119
 2388ntf    fn414753   0.375   2.053   2.467 -0.0599  0.1359 -0.1932
 2388ntf    on514754   0.487   1.706   2.544  0.4213  0.0176  0.2385
 2388ntf    on514755   0.469   1.887   2.709  0.2974 -0.3493 -0.1286
 2388ntf    on514756   0.096   1.630   2.642 -0.3852  0.1201 -0.0282
 2388ntf    on514757   0.217   1.659   2.422 -0.4152  0.2705 -0.3380
 2388ntf    fn414758  -0.083   1.771   2.462 -0.1753  0.3993 -0.0216
 2388ntf    fn414759   0.007   1.927   2.567 -0.4403  0.0654 -0.2266
 2388ntf    fn414760   0.076   1.888   2.373 -0.0514 -0.7413 -0.0666
 2389ntf    cn114761   0.677   2.941   5.432  0.2465 -0.3366 -0.1043
 2389ntf    sn214762   0.600   2.972   5.270  0.1433  0.0835  0.0249
 2389ntf    nn314763   0.652   3.117   5.237  0.5588  0.0349  0.4577
 2389ntf    sn214764   0.585   3.252   5.279  0.3235  0.1075 -0.1480
 2389ntf    cn114765   0.610   3.353   5.129 -0.2006 -0.4139 -0.5894
 2389ntf    fn414766   0.682   2.813   5.464 -0.5141 -0.3188  0.1065
 2389ntf    fn414767   0.804   2.977   5.421  0.2268 -0.1643  0.2224
 2389ntf    fn414768   0.619   3.014   5.526 -0.0658 -0.2842 -0.3376
 2389ntf    on514769   0.671   2.875   5.192 -0.1102  0.0273 -0.1354
 2389ntf    on514770   0.458   2.953   5.287  0.1072  0.4854  0.1866
 2389ntf    on514771   0.659   3.324   5.380 -0.3059 -0.2134  0.5444
 2389ntf    on514772   0.441   3.256   5.286  0.2892 -0.6665 -0.3729
 2389ntf    fn414773   0.563   3.474   5.153 -0.2246 -0.5990  0.3454
 2389ntf    fn414774   0.736   3.369   5.092 -0.0731  0.8104  0.3326
 2389ntf    fn414775   0.546   3.313   5.021 -0.0856 -0.0270 -0.8017
 2390ntf    cn114776   0.178   4.990   2.677  0.0894 -0.4696  0.0555
 2390ntf    sn214777   0.027   4.920   2.750  0.0591 -0.0850  0.3644
 2390ntf    nn314778   0.063   4.767   2.740  0.0010 -0.0495 -0.4301
 2390ntf    sn214779   0.037   4.669   2.620 -0.1886 -0.2688 -0.2083
 2390ntf    cn114780   0.196   4.582   2.600 -0.1593 -0.2141 -0.2126
 2390ntf    fn414781   0.211   4.932   2.563  0.4468 -0.2308  0.0359
 2390ntf    fn414782   0.171   5.118   2.648 -0.4985 -0.4176  0.4114
 2390ntf    fn414783   0.288   4.980   2.750  0.1569 -0.4489 -0.0429
 2390ntf    on514784   0.019   4.977   2.883  1.1298  0.6484  0.1238
 2390ntf    on514785  -0.082   4.967   2.668  0.3649  0.0287  0.0206
 2390ntf    on514786   0.028   4.729   2.490  0.4245  0.4721  0.0856
 2390ntf    on514787  -0.051   4.563   2.664  0.4034 -0.6557  0.0618
 2390ntf    fn414788   0.175   4.469   2.534  0.6270 -0.3969 -0.1523
 2390ntf    fn414789   0.290   4.658   2.546  0.0950 -0.3526  0.0370
 2390ntf    fn414790   0.239   4.541   2.717  0.6130  0.5425 -0.2243
 2391ntf    cn114791   0.211   2.336   5.561  0.1173  0.2865 -0.1560
 2391ntf    sn214792   0.369   2.247   5.563 -0.0936 -0.0899 -0.1656
 2391ntf    nn314793   0.436   2.313   5.689 -0.2176  0.0725 -0.1848
 2391ntf    sn214794   0.509   2.452   5.695 -0.1321  0.0377 -0.4023
 2391ntf    cn114795   0.680   2.390   5.686 -0.0977  0.0470  0.1328
 2391ntf    fn414796   0.217   2.449   5.492 -0.4964  0.3732 -0.0716
 2391ntf    fn414797   0.107   2.272   5.509 -0.3266  0.7155  0.2004
 2391ntf    fn414798   0.172   2.372   5.682  0.1945 -0.0887 -0.0173
 2391ntf    on514799   0.322   2.115   5.598  0.6675 -0.3337 -0.0396
 2391ntf    on514800   0.435   2.273   5.437  0.0493  0.3894  0.0061
 2391ntf    on514801   0.517   2.504   5.829  0.5355  0.0163 -0.4306
 2391ntf    on514802   0.489   2.543   5.586 -0.2974  0.1883 -0.2460
 2391ntf    fn414803   0.772   2.484   5.670  0.2951 -0.3816 -0.1524
 2391ntf    fn414804   0.722   2.338   5.800 -0.4524  0.2579  0.3639
 2391ntf    fn414805   0.703   2.306   5.586 -0.2249 -0.1073  0.2326
 2392ntf    cn114806   0.000   2.262   6.106  0.1446  0.0697 -0.1972
 2392ntf    sn214807  -0.077   2.426   6.123 -0.1694 -0.1037  0.0445
 2392ntf    nn314808  -0.200   2.407   6.028 -0.3703  0.6080  0.1540
 2392ntf    sn214809  -0.215   2.447   5.877 -0.0999  0.3360  0.0532
 2392ntf    cn114810  -0.280   2.615   5.900 -0.1046  0.3971 -0.3966
 2392ntf    fn414811  -0.058   2.177   6.189 -0.2180  0.3988 -0.1143
 2392ntf    fn414812  -0.013   2.210   5.985 -0.2224 -0.0731 -0.0932
 2392ntf    fn414813   0.127   2.269   6.142  0.0324  0.0279  0.2048
 2392ntf    on514814  -0.113   2.423   6.263  0.6924  0.0378  0.2771
 2392ntf    on514815   0.019   2.525   6.081  0.3494 -0.7616 -0.3415
 2392ntf    on514816  -0.322   2.371   5.816 -0.2074  0.3353  0.2394
 2392ntf    on514817  -0.095   2.455   5.798 -0.0377  0.1740  0.1298
 2392ntf    fn414818  -0.188   2.691   5.957 -0.1528 -0.0779  0.3266
 2392ntf    fn414819  -0.305   2.678   5.786  0.5821  0.2244 -0.6463
 2392ntf    fn414820  -0.392   2.613   5.972  0.1927 -0.6818  0.0588
 2393ntf    cn114821   5.997   1.388   6.107  0.0057  0.5719 -0.0286
 2393ntf    sn214822   6.032   1.555   6.169 -0.0662  0.6158 -0.1057
 2393ntf    nn314823   6.084   1.524   6.314 -0.3710 -0.2259 -0.1727
 2393ntf    sn214824   6.234   1.493   6.350 -0.3279  0.1665 -0.0099
 2393ntf    cn114825   6.308   1.657   6.373  0.1961 -0.1064  0.2831
 2393ntf    fn414826   6.104   1.312   6.086 -0.2383  0.0774  0.4912
 2393ntf    fn414827   5.912   1.329   6.189  0.4748  0.0715  0.1077
 2393ntf    fn414828   5.945   1.398   5.986 -0.2019 -0.1627 -0.0032
 2393ntf    on514829   6.120   1.620   6.075  0.2338 -0.3207 -0.4852
 2393ntf    on514830   5.899   1.607   6.186 -0.0459  0.4765  0.5231
 2393ntf    on514831   6.309   1.420   6.252 -0.0286  0.1582  0.2243
 2393ntf    on514832   6.241   1.439   6.484  0.8205 -0.5909 -0.3605
 2393ntf    fn414833   6.281   1.728   6.264  0.0138 -0.6070 -0.0008
 2393ntf    fn414834   6.260   1.726   6.475 -0.0204 -0.2002  0.2461
 2393ntf    fn414835   6.439   1.648   6.386  0.3261  0.5116 -0.4740
 2394ntf    cn114836   2.219   5.615   1.382  0.1330  0.1866 -0.2140
 2394ntf    sn214837   2.368   5.580   1.480 -0.2048 -0.4556  0.0810
 2394ntf    nn314838   2.338   5.435   1.531  0.0399 -0.6857 -0.4193
 2394ntf    sn214839   2.254   5.399   1.659  0.3961 -0.0597 -0.0043
 2394ntf    cn114840   2.139   5.281   1.581 -0.0839  0.3725  0.0478
 2394ntf    fn414841   2.190   5.524   1.290  0.3192 -0.2774  0.1805
 2394ntf    fn414842   2.113   5.621   1.462 -0.1506 -0.5392 -0.5272
 2394ntf    fn414843   2.228   5.734   1.325  0.3670  0.2243 -0.1024
 2394ntf    on514844   2.464   5.571   1.372  0.0126 -0.2071  0.2528
 2394ntf    on514845   2.378   5.680   1.583  0.0959 -0.0772 -0.3080
 2394ntf    on514846   2.169   5.502   1.711  0.7282  0.1281  0.1670
 2394ntf    on514847   2.322   5.318   1.757  0.1545  0.1333  0.3231
 2394ntf    fn414848   2.075   5.212   1.675  0.7487 -0.8160 -0.2360
 2394ntf    fn414849   2.045   5.352   1.522 -0.2494 -0.1758 -0.3552
 2394ntf    fn414850   2.191   5.200   1.491 -0.2830 -0.1002  0.3532
 2395ntf    cn114851   5.001   0.090   4.682 -0.5497 -0.2290  0.1285
 2395ntf    sn214852   5.081  -0.028   4.570 -0.1020  0.0728  0.1266
 2395ntf    nn314853   5.010  -0.160   4.618 -0.0103 -0.0014  0.0598
 2395ntf    sn214854   5.081  -0.299   4.637  0.1489  0.0217 -0.3572
 2395ntf    cn114855   4.939  -0.401   4.588 -0.2572  0.2655  0.2895
 2395ntf    fn414856   5.021   0.212   4.636 -0.2252 -0.1640  0.4352
 2395ntf    fn414857   4.869   0.077   4.691 -0.5701 -0.5593 -0.6160
 2395ntf    fn414858   5.056   0.083   4.802 -0.1303 -0.1681 -0.0617
 2395ntf    on514859   5.036   0.017   4.440  0.2230  0.2670  0.0795
 2395ntf    on514860   5.223  -0.016   4.588 -0.1332  0.0863  0.3709
 2395ntf    on514861   5.107  -0.331   4.776 -0.0098  0.0848 -0.3134
 2395ntf    on514862   5.183  -0.330   4.540  0.6500  0.4581  0.0236
 2395ntf    fn414863   4.961  -0.528   4.618 -0.4048  0.2416  0.2972
 2395ntf    fn414864   4.829  -0.372   4.654 -0.2685  0.1388  0.3268
 2395ntf    fn414865   4.903  -0.391   4.461 -0.0936  0.8145  0.2828
 2396ntf    cn114866   1.061   3.423   2.453 -0.0892  0.3723  0.3409
 2396ntf    sn214867   1.135   3.588   2.470  0.1658  0.2901  0.0283
 2396ntf    nn314868   1.040   3.674   2.380  0.0730 -0.1646 -0.3152
 2396ntf    sn214869   1.043   3.700   2.225  0.1568  0.1464 -0.2630
 2396ntf    cn114870   1.082   3.877   2.216  0.0861  0.1489 -0.5065
 2396ntf    fn414871   0.937   3.431   2.500 -0.2341 -0.0282  0.0413
 2396ntf    fn414872   1.048   3.385   2.327  0.2690  0.0514  0.3988
 2396ntf    fn414873   1.123   3.321   2.510 -0.4832 -0.2070 -0.2379
 2396ntf    on514874   1.108   3.626   2.606  0.0837 -0.3401  0.1912
 2396ntf    on514875   1.269   3.565   2.422  0.0679  0.7536 -0.4689
 2396ntf    on514876   0.913   3.684   2.165  0.2943  0.0068 -0.5301
 2396ntf    on514877   1.145   3.629   2.151  0.5108  0.4435 -0.0636
 2396ntf    fn414878   1.193   3.908   2.281 -0.1429 -0.1354  0.0252
 2396ntf    fn414879   1.105   3.913   2.090  0.0718  0.1361 -0.5127
 2396ntf    fn414880   0.988   3.954   2.269 -0.0129  0.0414 -0.5243
 2397ntf    cn114881   6.137   1.918   6.577 -0.1201  0.1579 -0.0952
 2397ntf    sn214882   6.044   2.024   6.693 -0.1594  0.3408 -0.2928
 2397ntf    nn314883   6.108   1.977   6.828 -0.9526  0.7270  0.2225
 2397ntf    sn214884   6.183   2.059   6.940  0.1274 -0.2149  0.2048
 2397ntf    cn114885   6.029   2.111   7.020  0.2301 -0.0628  0.3033
 2397ntf    fn414886   6.261   1.903   6.620 -0.2433  0.4790  0.3769
 2397ntf    fn414887   6.080   1.799   6.564 -0.7512  0.4522 -0.0756
 2397ntf    fn414888   6.152   1.970   6.456  0.4243  0.4916  0.1126
 2397ntf    on514889   6.070   2.159   6.650 -0.3821  0.3984 -0.2458
 2397ntf    on514890   5.910   1.977   6.672  0.2212 -0.8395 -0.1617
 2397ntf    on514891   6.253   2.177   6.897 -0.0093 -0.2247 -0.0497
 2397ntf    on514892   6.248   1.988   7.047  0.6202  0.0225  0.0642
 2397ntf    fn414893   5.949   2.010   7.052 -0.5483  0.2429 -0.6228
 2397ntf    fn414894   6.059   2.170   7.134  0.5760 -0.2801  0.3255
 2397ntf    fn414895   5.954   2.195   6.950  0.7120 -0.0264 -0.1784
 2398ntf    cn114896   5.752   0.345   2.130 -0.1657 -0.4616  0.4669
 2398ntf    sn214897   5.728   0.436   2.286 -0.2647  0.0746  0.1435
 2398ntf    nn314898   5.738   0.320   2.391  0.5327  0.0892  0.0905
 2398ntf    sn214899   5.857   0.284   2.486  0.1590 -0.2130  0.4498
 2398ntf    cn114900   5.830   0.405   2.619 -0.4847  0.3869 -0.2205
 2398ntf    fn414901   5.739   0.421   2.022 -0.6054 -0.8978  0.2095
 2398ntf    fn414902   5.866   0.279   2.117  0.0803  0.0368  0.0305
 2398ntf    fn414903   5.659   0.253   2.110 -0.1515 -0.3389 -0.2073
 2398ntf    on514904   5.833   0.533   2.275  0.0447 -0.3457 -0.7133
 2398ntf    on514905   5.592   0.485   2.277 -0.2221  0.2432  0.4317
 2398ntf    on514906   5.992   0.311   2.444 -0.0911 -0.1963 -0.3482
 2398ntf    on514907   5.831   0.153   2.541 -0.5531 -0.4670 -0.4622
 2398ntf    fn414908   5.703   0.440   2.632 -0.5658 -0.0069  0.0621
 2398ntf    fn414909   5.860   0.345   2.733  0.0021  0.3032 -0.3901
 2398ntf    fn414910   5.904   0.514   2.603  0.3874 -0.1000  0.3821
 2399ntf    cn114911   6.859   4.661   5.800 -0.0080 -0.3578  0.0414
 2399ntf    sn214912   6.841   4.680   5.620 -0.0873  0.5756  0.1422
 2399ntf    nn314913   6.961   4.775   5.585  0.0286  0.1471 -0.6482
 2399ntf    sn214914   7.072   4.749   5.477  0.2946  0.0665 -0.3571
 2399ntf    cn114915   7.116   4.924   5.456  0.0736  0.1264 -0.3234
 2399ntf    fn414916   6.778   4.565   5.842 -0.3692  0.0820  0.3510
 2399ntf    fn414917   6.982   4.645   5.847  0.0997 -0.1949 -0.1842
 2399ntf    fn414918   6.815   4.769   5.862  0.0961 -0.2925  0.0004
 2399ntf    on514919   6.851   4.542   5.578  0.2411  0.3623  0.8894
 2399ntf    on514920   6.716   4.750   5.605 -0.3105  0.0467 -0.5028
 2399ntf    on514921   7.028   4.702   5.348  0.0317 -0.2057 -0.1715
 2399ntf    on514922   7.185   4.691   5.544  0.2823 -0.0924 -0.4721
 2399ntf    fn414923   7.006   4.996   5.442  0.3389  0.6343  0.1758
 2399ntf    fn414924   7.163   4.968   5.571 -0.2357  0.0283 -0.1582
 2399ntf    fn414925   7.197   4.951   5.355  0.1190 -0.3192 -0.4091
 2400ntf    cn114926   0.090   5.328   4.544  0.2390  0.3375 -0.1993
 2400ntf    sn214927  -0.007   5.239   4.670  0.4092  0.3034 -0.0926
 2400ntf    nn314928  -0.052   5.354   4.768 -0.4155 -0.1693  0.0849
 2400ntf    sn214929  -0.168   5.365   4.873 -0.3287 -0.1411  0.1783
 2400ntf    cn114930  -0.093   5.381   5.037  0.1285 -0.0865 -0.0363
 2400ntf    fn414931   0.209   5.369   4.587  0.5608 -0.8522  0.0931
 2400ntf    fn414932   0.113   5.259   4.433  0.1441  0.0338 -0.0326
 2400ntf    fn414933   0.025   5.435   4.501 -0.1088  0.3225  0.2712
 2400ntf    on514934  -0.113   5.179   4.595  0.0551  0.1270  0.5406
 2400ntf    on514935   0.093   5.157   4.733  0.2230 -0.2786 -0.5532
 2400ntf    on514936  -0.252   5.247   4.879 -0.7968  0.1547 -0.3882
 2400ntf    on514937  -0.246   5.486   4.868  0.0042  0.0770  0.3571
 2400ntf    fn414938  -0.182   5.398   5.133 -0.4618 -0.9136 -0.4348
 2400ntf    fn414939  -0.028   5.269   5.064 -0.2260 -0.3107 -0.1175
 2400ntf    fn414940  -0.009   5.483   5.037 -0.5385  0.4713  0.2435
 2401ntf    cn114941   6.341   2.214   4.518  0.7976  0.1070  0.2369
 2401ntf    sn214942   6.279   2.062   4.597  0.3134  0.0852 -0.1870
 2401ntf    nn314943   6.124   2.090   4.595  0.3154  0.0982 -0.1486
 2401ntf    sn214944   6.010   2.026   4.507  0.1388  0.0868  0.0875
 2401ntf    cn114945   5.961   1.885   4.610  0.2599 -0.0250 -0.0070
 2401ntf    fn414946   6.291   2.318   4.583 -0.1974 -0.1687 -0.0744
 2401ntf    fn414947   6.472   2.228   4.530  0.9984 -1.1004 -0.3549
 2401ntf    fn414948   6.320   2.220   4.388  0.0707  0.4791  0.3683
 2401ntf    on514949   6.328   1.952   4.517 -0.0890  0.0127 -0.3413
 2401ntf    on514950   6.325   2.064   4.733 -0.0981  0.3568 -0.0498
 2401ntf    on514951   6.049   1.970   4.380  0.1996  0.3971 -0.0333
 2401ntf    on514952   5.888   2.103   4.515  0.0737  0.0367 -0.4053
 2401ntf    fn414953   5.974   1.902   4.741 -0.3125 -0.0056  0.0507
 2401ntf    fn414954   5.836   1.846   4.593  0.1027  0.3707  0.2120
 2401ntf    fn414955   6.039   1.782   4.585  0.1238 -0.3128  0.7313
 2402ntf    cn114956   2.606   5.546   4.258 -0.4169  0.2062 -0.1089
 2402ntf    sn214957   2.701   5.594   4.111  0.1861 -0.3594  0.0927
 2402ntf    nn314958   2.642   5.736   4.079  0.8789 -0.1884 -0.4565
 2402ntf    sn214959   2.700   5.879   4.108  0.0534  0.1382 -0.3969
 2402ntf    cn114960   2.574   5.986   4.032 -0.3686 -0.0402  0.0477
 2402ntf    fn414961   2.659   5.443   4.323  0.0890  0.7020  0.2672
 2402ntf    fn414962   2.597   5.645   4.345  0.2083 -0.0074  0.2034
 2402ntf    fn414963   2.483   5.512   4.219 -0.6381  0.2552  0.5397
 2402ntf    on514964   2.835   5.607   4.162  0.2788  0.1374 -0.2654
 2402ntf    on514965   2.679   5.487   4.017 -0.6973 -0.0913 -0.0135
 2402ntf    on514966   2.822   5.913   4.039  0.2019  0.5117  0.0483
 2402ntf    on514967   2.688   5.916   4.246 -0.0780 -0.3371 -0.2773
 2402ntf    fn414968   2.451   5.966   4.076 -0.5761 -0.0071 -0.5074
 2402ntf    fn414969   2.604   6.113   4.052 -0.3330  0.0288 -0.4427
 2402ntf    fn414970   2.567   5.970   3.901 -0.6008  0.0609  0.0481
 2403ntf    cn114971   6.154   4.254   3.703  0.3908  0.0380  0.2461
 2403ntf    sn214972   6.014   4.280   3.816  0.3175 -0.0047  0.1656
 2403ntf    nn314973   5.900   4.265   3.710  0.0695  0.3646  0.3797
 2403ntf    sn214974   5.749   4.302   3.730 -0.1275 -0.0037 -0.3900
 2403ntf    cn114975   5.736   4.456   3.634 -0.5145  0.1021 -0.1678
 2403ntf    fn414976   6.152   4.134   3.647 -0.1388  0.1051  0.1152
 2403ntf    fn414977   6.152   4.340   3.603 -0.0247 -0.3406 -0.0749
 2403ntf    fn414978   6.268   4.267   3.769  0.4317 -0.2515  0.2356
 2403ntf    on514979   6.023   4.176   3.915 -0.2769  0.0312  0.2575
 2403ntf    on514980   6.040   4.411   3.871  0.4265 -0.1481  0.4582
 2403ntf    on514981   5.714   4.340   3.864  1.1796  0.2226 -0.1014
 2403ntf    on514982   5.669   4.205   3.659 -0.4503  0.3570 -0.5207
 2403ntf    fn414983   5.618   4.510   3.662 -0.4135  0.1898  0.0912
 2403ntf    fn414984   5.827   4.547   3.665  0.2207 -0.6342 -0.1361
 2403ntf    fn414985   5.737   4.424   3.506 -0.5315 -0.1545 -0.1041
 2404ntf    cn114986   1.260   6.603   3.631 -0.1080 -0.4466 -0.4980
 2404ntf    sn214987   1.334   6.556   3.472  0.1120 -0.1358 -0.4889
 2404ntf    nn314988   1.450   6.661   3.472  0.1032 -0.1240  0.1338
 2404ntf    sn214989   1.557   6.686   3.361 -0.2976  0.0432 -0.2174
 2404ntf    cn114990   1.713   6.627   3.435 -0.4088 -0.0050 -0.0206
 2404ntf    fn414991   1.168   6.517   3.673  0.0467 -0.4057 -0.0704
 2404ntf    fn414992   1.346   6.616   3.731  0.2415  0.5784 -0.9197
 2404ntf    fn414993   1.204   6.723   3.624  0.5330 -0.1387 -0.4231
 2404ntf    on514994   1.377   6.420   3.497  0.0475 -0.1637 -0.5264
 2404ntf    on514995   1.230   6.583   3.376  0.4112 -0.1466 -0.8185
 2404ntf    on514996   1.583   6.826   3.340  0.4894 -0.0573  0.0191
 2404ntf    on514997   1.543   6.605   3.242  0.6104 -1.1201  0.4370
 2404ntf    fn414998   1.818   6.641   3.356 -0.1966 -0.0499  0.2525
 2404ntf    fn414999   1.732   6.688   3.551  0.1991  0.0368 -0.1367
 2404ntf    fn415000   1.708   6.499   3.467 -0.9659 -0.0475 -0.2591
 2405ntf    cn115001   3.618   2.637   1.711 -0.0186 -0.3567 -0.4265
 2405ntf    sn215002   3.635   2.718   1.549  0.0091  0.0114 -0.2398
 2405ntf    nn315003   3.683   2.858   1.601 -0.0528 -0.0044 -0.1384
 2405ntf    sn215004   3.814   2.944   1.602 -0.4126  0.5572 -0.4252
 2405ntf    cn115005   3.811   3.000   1.775  0.5390 -0.2718 -0.1294
 2405ntf    fn415006   3.545   2.527   1.701  0.0589 -0.4543  0.0603
 2405ntf    fn415007   3.733   2.601   1.767 -0.0051  0.4348  0.0703
 2405ntf    fn415008   3.558   2.710   1.804  0.6463 -0.3379 -0.0050
 2405ntf    on515009   3.715   2.630   1.468 -0.4759  0.1756 -0.9032
 2405ntf    on515010   3.498   2.733   1.508 -0.0594  0.1363  0.0301
 2405ntf    on515011   3.815   3.069   1.530 -0.0599  0.6685 -0.2323
 2405ntf    on515012   3.931   2.861   1.588 -0.6511  0.0078  0.7002
 2405ntf    fn415013   3.865   2.922   1.867  0.2366 -0.3745 -0.0380
 2405ntf    fn415014   3.862   3.120   1.793 -0.2447 -0.0034  0.3899
 2405ntf    fn415015   3.685   3.015   1.813  0.5265 -0.3248 -0.1494
 2406ntf    cn115016   1.939   0.237   2.133  0.1814  0.2650 -0.0291
 2406ntf    sn215017   2.004   0.383   2.221  0.4003  0.1414  0.0154
 2406ntf    nn315018   2.000   0.495   2.111  0.1403  0.3955  0.2841
 2406ntf    sn215019   1.891   0.608   2.103 -0.0047  0.2173 -0.2732
 2406ntf    cn115020   1.970   0.718   2.225  0.0160 -0.2865  0.1713
 2406ntf    fn415021   1.825   0.268   2.073  0.0633 -0.5357 -0.2272
 2406ntf    fn415022   2.020   0.191   2.039  0.5230  0.1417  0.3204
 2406ntf    fn415023   1.913   0.133   2.210  0.0392  0.2583 -0.0862
 2406ntf    on515024   1.916   0.401   2.334 -0.0414  0.4538 -0.3775
 2406ntf    on515025   2.140   0.343   2.248  0.3632  0.1208  0.1716
 2406ntf    on515026   1.757   0.580   2.148  0.3107  0.0770  0.5907
 2406ntf    on515027   1.901   0.684   1.981  0.9575  0.4028 -0.0817
 2406ntf    fn415028   2.096   0.738   2.192 -0.2516  0.3736 -0.4871
 2406ntf    fn415029   1.913   0.836   2.240  0.7989  0.1220 -0.0211
 2406ntf    fn415030   1.966   0.681   2.352  0.0201 -0.4501  0.1250
 2407ntf    cn115031   4.632   1.960   6.614 -0.0642 -0.2509  0.2883
 2407ntf    sn215032   4.736   1.909   6.754  0.3793  0.0401  0.0656
 2407ntf    nn315033   4.722   1.753   6.743  0.0116  0.0753  0.0176
 2407ntf    sn215034   4.780   1.654   6.635 -0.0916 -0.0251  0.0537
 2407ntf    cn115035   4.940   1.604   6.704 -0.0177  0.0416 -0.0716
 2407ntf    fn415036   4.684   1.942   6.494  0.1233 -0.0473  0.3394
 2407ntf    fn415037   4.520   1.890   6.608 -0.1320 -0.0754 -0.5286
 2407ntf    fn415038   4.602   2.088   6.627  0.5448 -0.0434 -0.3165
 2407ntf    on515039   4.871   1.945   6.720  0.4440 -1.0328 -0.8333
 2407ntf    on515040   4.680   1.981   6.866  0.7645  0.2740  0.1122
 2407ntf    on515041   4.803   1.708   6.503  1.1840 -0.1432  0.2215
 2407ntf    on515042   4.713   1.527   6.626 -0.3021  0.1081 -0.3213
 2407ntf    fn415043   5.006   1.533   6.614 -0.0190 -0.0592  0.0074
 2407ntf    fn415044   5.024   1.702   6.734  0.5808 -0.5285  0.1318
 2407ntf    fn415045   4.934   1.530   6.813  0.2198  0.0836 -0.0280
 2408ntf    cn115046   5.410   3.378   6.074  0.0720  0.0949 -0.2085
 2408ntf    sn215047   5.289   3.404   6.206  0.2538 -0.1669  0.0121
 2408ntf    nn315048   5.296   3.558   6.236  0.3048 -0.1274 -0.2037
 2408ntf    sn215049   5.356   3.638   6.357 -0.1791  0.2898 -0.2340
 2408ntf    cn115050   5.380   3.791   6.263  0.2712  0.2379 -0.2072
 2408ntf    fn415051   5.407   3.470   5.979  0.3789 -0.1867 -0.4993
 2408ntf    fn415052   5.528   3.399   6.129 -0.0146 -0.2642  0.1163
 2408ntf    fn415053   5.408   3.256   6.020  0.7350 -0.0812  0.1489
 2408ntf    on515054   5.167   3.363   6.140  0.0436  0.2204  0.1523
 2408ntf    on515055   5.337   3.326   6.317 -0.1119 -0.2911  0.0847
 2408ntf    on515056   5.490   3.599   6.395 -0.6012 -0.4116  0.5846
 2408ntf    on515057   5.261   3.663   6.462  0.0356  0.6998 -0.1364
 2408ntf    fn415058   5.267   3.837   6.211  0.3400  0.4392 -0.1803
 2408ntf    fn415059   5.427   3.885   6.343  0.4396  0.1514 -0.2052
 2408ntf    fn415060   5.462   3.774   6.161  0.8501 -0.0739  0.3070
 2409ntf    cn115061   0.114   2.562   4.283  0.0319 -0.0953 -0.0247
 2409ntf    sn215062   0.019   2.548   4.128  0.2234 -0.1618 -0.1366
 2409ntf    nn315063  -0.081   2.437   4.175  0.3355 -0.2034  0.0038
 2409ntf    sn215064  -0.237   2.431   4.156  0.3044  0.0701  0.1597
 2409ntf    cn115065  -0.298   2.495   4.315 -0.3531 -0.1662  0.0053
 2409ntf    fn415066   0.043   2.602   4.386 -0.3205 -0.2563 -0.2031
 2409ntf    fn415067   0.160   2.445   4.327 -0.2931 -0.0584  0.4179
 2409ntf    fn415068   0.215   2.646   4.268  0.2265 -0.2786  0.2377
 2409ntf    on515069  -0.037   2.680   4.112  0.4163 -0.0480  0.1159
 2409ntf    on515070   0.117   2.511   4.029 -0.1914 -0.5199 -0.4141
 2409ntf    on515071  -0.292   2.297   4.158  0.6618 -0.0866 -0.3274
 2409ntf    on515072  -0.282   2.519   4.052  0.0156  0.1166  0.3248
 2409ntf    fn415073  -0.257   2.620   4.331  0.4460 -0.4548  0.2207
 2409ntf    fn415074  -0.430   2.504   4.325 -0.3866 -0.4067 -0.2130
 2409ntf    fn415075  -0.239   2.423   4.409 -0.2013 -0.1676 -0.0917
 2410ntf    cn115076   0.568   5.352   6.075 -0.4953  0.1065  0.6340
 2410ntf    sn215077   0.547   5.231   5.941  0.1883  0.2593  0.3864
 2410ntf    nn315078   0.405   5.284   5.898  0.3329  0.4424  0.1251
 2410ntf    sn215079   0.363   5.392   5.793  0.0241  0.0324 -0.1780
 2410ntf    cn115080   0.308   5.283   5.658  0.0176  0.2853 -0.3805
 2410ntf    fn415081   0.460   5.390   6.142 -0.4173  1.1322  0.1934
 2410ntf    fn415082   0.652   5.309   6.168 -0.8577 -0.3336  0.7638
 2410ntf    fn415083   0.626   5.461   6.027  0.0134 -0.3070  0.3012
 2410ntf    on515084   0.663   5.262   5.861  0.5503 -0.5941  0.5707
 2410ntf    on515085   0.546   5.099   5.998 -0.1167  0.2243  0.2985
 2410ntf    on515086   0.467   5.471   5.732  0.1892  0.0783  0.1603
 2410ntf    on515087   0.244   5.464   5.829  0.4537  0.6698 -0.0164
 2410ntf    fn415088   0.258   5.355   5.559 -0.0166  0.3613 -0.3074
 2410ntf    fn415089   0.405   5.209   5.607 -0.0630  0.1320 -0.3091
 2410ntf    fn415090   0.212   5.201   5.695  0.7635 -0.2254  0.4620
 2411ntf    cn115091   2.903   4.231   0.031 -0.2448  0.2790  0.0161
 2411ntf    sn215092   3.073   4.184   0.075 -0.3705 -0.2927 -0.1008
 2411ntf    nn315093   3.067   4.191   0.231 -0.9256  0.2147 -0.1427
 2411ntf    sn215094   3.043   4.080   0.340  0.4617  0.1046  0.0633
 2411ntf    cn115095   3.212   4.025   0.381  0.3202 -0.3050  0.1021
 2411ntf    fn415096   2.821   4.142   0.083  0.4271 -0.3676 -0.0116
 2411ntf    fn415097   2.865   4.346   0.083  0.5482  0.5565  0.0045
 2411ntf    fn415098   2.880   4.227  -0.100  0.2491  0.1661 -0.0703
 2411ntf    on515099   3.085   4.048   0.028 -0.3447 -0.4373  0.3219
 2411ntf    on515100   3.159   4.283   0.015 -0.1656 -0.0549  0.5868
 2411ntf    on515101   2.969   3.968   0.288 -0.0840  0.2831  0.4531
 2411ntf    on515102   3.000   4.133   0.467  0.7574  0.0641  0.1821
 2411ntf    fn415103   3.279   4.112   0.455 -0.0798  0.2857 -0.2147
 2411ntf    fn415104   3.212   3.916   0.455  0.1756 -0.5123 -0.2016
 2411ntf    fn415105   3.279   4.005   0.269  0.4621 -0.0303  0.1379
 2412ntf    cn115106   3.975   2.797   3.584  0.1476  0.0825 -0.0771
 2412ntf    sn215107   3.949   2.620   3.616  0.4398  0.0863  0.1887
 2412ntf    nn315108   3.805   2.604   3.556  0.3980 -0.3203  0.3951
 2412ntf    sn215109   3.717   2.482   3.513  0.0496  0.0014  0.1890
 2412ntf    cn115110   3.775   2.502   3.341  0.3039  0.2218  0.3005
 2412ntf    fn415111   4.104   2.822   3.601  0.1615  0.0464 -0.1306
 2412ntf    fn415112   3.945   2.833   3.460  0.3981 -0.0502 -0.1772
 2412ntf    fn415113   3.909   2.878   3.665 -0.0613  0.0426 -0.2072
 2412ntf    on515114   4.050   2.549   3.542 -0.0940 -0.6947  0.2046
 2412ntf    on515115   3.959   2.607   3.759  0.3467  0.0197  0.1889
 2412ntf    on515116   3.575   2.508   3.519  0.0801  0.2737 -0.2189
 2412ntf    on515117   3.754   2.347   3.548  0.0026 -0.1994 -0.5040
 2412ntf    fn415118   3.900   2.465   3.320  0.1582 -0.0780 -0.0360
 2412ntf    fn415119   3.697   2.436   3.256 -0.0128  0.1589  0.6347
 2412ntf    fn415120   3.772   2.630   3.308 -0.2010  0.1383  0.0022
 2413ntf    cn115121   4.454   0.541   4.218 -0.3084  0.0486  0.1756
 2413ntf    sn215122   4.339   0.411   4.164 -0.3050  0.0614  0.1367
 2413ntf    nn315123   4.233   0.407   4.280 -0.2187  0.3574  0.2271
 2413ntf    sn215124   4.101   0.322   4.280 -0.0038  0.0235  0.3267
 2413ntf    cn115125   4.153   0.182   4.383  0.0905 -0.2056 -0.0305
 2413ntf    fn415126   4.495   0.512   4.341 -0.1693 -0.8349 -0.0747
 2413ntf    fn415127   4.569   0.548   4.153 -0.1557  0.3998  0.4779
 2413ntf    fn415128   4.406   0.664   4.231  0.2933  0.2862  0.2151
 2413ntf    on515129   4.301   0.468   4.037  0.3129  0.1073 -0.0320
 2413ntf    on515130   4.422   0.294   4.153 -1.0494 -0.5063  0.5099
 2413ntf    on515131   4.060   0.263   4.155  0.5900 -0.3446  0.3017
 2413ntf    on515132   3.998   0.378   4.364 -0.8585 -0.1175 -0.6161
 2413ntf    fn415133   4.062   0.088   4.405  0.1635 -0.2826 -0.0566
 2413ntf    fn415134   4.256   0.118   4.330  0.3889  0.1102  0.1622
 2413ntf    fn415135   4.191   0.230   4.500 -0.4882  0.4502 -0.1055
 2414ntf    cn115136   2.856   5.586   5.129  0.3999  0.0631  0.0592
 2414ntf    sn215137   2.825   5.509   4.968  0.0331 -0.4505  0.3744
 2414ntf    nn315138   2.930   5.392   4.960  0.3632 -0.1446  0.2236
 2414ntf    sn215139   2.928   5.271   4.861  0.3629  0.0133  0.0294
 2414ntf    cn115140   3.043   5.333   4.734  0.2478 -0.2162 -0.1885
 2414ntf    fn415141   2.985   5.596   5.155  0.5027  0.4851 -0.5953
 2414ntf    fn415142   2.820   5.712   5.145  0.0825 -0.0662  0.3669
 2414ntf    fn415143   2.808   5.524   5.235 -0.4879  0.3074 -0.1937
 2414ntf    on515144   2.691   5.457   4.979  0.1326 -0.8100 -0.0680
 2414ntf    on515145   2.850   5.619   4.878  0.2174 -0.3907  0.4983
 2414ntf    on515146   2.809   5.256   4.782  0.0026  0.0736  0.5544
 2414ntf    on515147   2.995   5.149   4.902  0.1311 -0.0574  0.2031
 2414ntf    fn415148   3.035   5.251   4.631  0.3465 -0.2632 -0.1582
 2414ntf    fn415149   3.019   5.459   4.701 -0.6682 -0.2295  0.3719
 2414ntf    fn415150   3.171   5.326   4.766  0.2879 -0.0572 -0.3130
 2415ntf    cn115151   1.796   1.624   5.285  0.3270  0.0735 -0.2983
 2415ntf    sn215152   1.847   1.768   5.382  0.0294  0.2341 -0.3790
 2415ntf    nn315153   1.772   1.883   5.306  0.2794  0.7292  0.1143
 2415ntf    sn215154   1.621   1.925   5.320  0.1743  0.3658  0.0916
 2415ntf    cn115155   1.620   2.050   5.453 -0.1065  0.1946  0.2523
 2415ntf    fn415156   1.759   1.655   5.161 -0.3170 -0.2485 -0.1892
 2415ntf    fn415157   1.893   1.534   5.289  0.4067  0.1719 -0.0130
 2415ntf    fn415158   1.689   1.562   5.333  0.3220  0.0203 -0.3771
 2415ntf    on515159   1.798   1.747   5.516  0.4219 -0.1071 -0.2880
 2415ntf    on515160   1.990   1.773   5.368  0.1080  0.0321  0.2776
 2415ntf    on515161   1.542   1.814   5.367  0.4311  0.2237  0.1890
 2415ntf    on515162   1.569   1.981   5.198 -0.5279 -0.7156 -0.1164
 2415ntf    fn415163   1.498   2.055   5.503 -0.3331  0.1914 -0.2890
 2415ntf    fn415164   1.708   2.032   5.550  0.2280  0.3894 -0.0108
 2415ntf    fn415165   1.650   2.172   5.411 -0.0178  0.1023  0.0477
 2416ntf    cn115166   2.482   1.496   4.514 -0.4521  0.0201  0.4767
 2416ntf    sn215167   2.608   1.402   4.605 -0.0702  0.2263  0.1610
 2416ntf    nn315168   2.741   1.466   4.552  0.0536 -0.0924  0.0903
 2416ntf    sn215169   2.823   1.423   4.425  0.1396 -0.0673  0.1376
 2416ntf    cn115170   2.950   1.316   4.500 -0.0613 -0.1009  0.4323
 2416ntf    fn415171   2.491   1.500   4.382 -0.0367  0.2565  0.5141
 2416ntf    fn415172   2.356   1.462   4.540 -0.7392  0.4641 -0.2967
 2416ntf    fn415173   2.480   1.623   4.550 -0.2480  0.1966 -0.1239
 2416ntf    on515174   2.596   1.442   4.744  0.4989 -0.2848  0.3601
 2416ntf    on515175   2.581   1.267   4.563  0.4469 -0.0834  0.7918
 2416ntf    on515176   2.908   1.531   4.379  0.1035 -0.1676 -0.1679
 2416ntf    on515177   2.752   1.346   4.326 -0.8031 -0.2543  0.9488
 2416ntf    fn415178   3.020   1.384   4.589  0.8731 -0.6123  0.1097
 2416ntf    fn415179   2.888   1.214   4.556  0.4165 -0.1835  0.8176
 2416ntf    fn415180   3.031   1.276   4.403  0.1654  0.6769  0.2947
 2417ntf    cn115181   0.463   0.965   1.496 -0.0666  0.0968 -0.1261
 2417ntf    sn215182   0.620   1.023   1.425 -0.1543  0.0344 -0.3723
 2417ntf    nn315183   0.596   0.955   1.286 -0.0917 -0.5609 -0.0960
 2417ntf    sn215184   0.549   1.022   1.151 -0.2248 -0.2604  0.0993
 2417ntf    cn115185   0.401   0.926   1.107 -0.0368 -0.3028 -0.4464
 2417ntf    fn415186   0.457   0.833   1.502 -0.1786  0.1097  0.0597
 2417ntf    fn415187   0.434   1.011   1.617 -0.2776 -0.5676  0.0757
 2417ntf    fn415188   0.363   1.006   1.419 -0.6773  0.1543  0.6874
 2417ntf    on515189   0.601   1.164   1.447  0.1918 -0.0003  0.1755
 2417ntf    on515190   0.716   0.956   1.509  0.0531  0.3912 -0.3244
 2417ntf    on515191   0.645   0.997   1.046 -0.4972  0.3221 -0.2900
 2417ntf    on515192   0.507   1.159   1.162  0.3025 -0.0458 -0.4761
 2417ntf    fn415193   0.419   0.795   1.110  0.6060 -0.2024  0.3309
 2417ntf    fn415194   0.297   0.949   1.186  0.3249  0.0384 -0.0628
 2417ntf    fn415195   0.364   0.956   0.984 -0.6807 -0.5392 -0.3105
 2418ntf    cn115196   5.257   1.112   5.266 -0.0823 -0.4282  0.0249
 2418ntf    sn215197   5.352   0.978   5.187 -0.1354 -0.5109  0.1008
 2418ntf    nn315198   5.250   0.931   5.077  0.2961  0.1019 -0.5718
 2418ntf    sn215199   5.167   0.801   5.047 -0.0430  0.1148  0.2707
 2418ntf    cn115200   5.295   0.674   5.024  0.3369  0.5550 -0.0770
 2418ntf    fn415201   5.245   1.213   5.181 -0.2330 -0.5057 -0.0464
 2418ntf    fn415202   5.132   1.085   5.298 -0.1860  0.0563  0.0414
 2418ntf    fn415203   5.316   1.162   5.373  0.5715 -0.1928 -0.4365
 2418ntf    on515204   5.468   1.039   5.127 -0.1968 -0.6026 -0.1085
 2418ntf    on515205   5.373   0.894   5.302  0.2257  0.0761  0.4729
 2418ntf    on515206   5.102   0.811   4.919 -0.5348  0.2053  0.5254
 2418ntf    on515207   5.082   0.763   5.157 -0.8628 -0.1702 -0.4476
 2418ntf    fn415208   5.235   0.562   4.987  0.2815  0.5123  0.1360
 2418ntf    fn415209   5.387   0.684   4.930  0.2839  0.0744 -0.1797
 2418ntf    fn415210   5.359   0.649   5.138  0.0918  0.3871  0.0252
 2419ntf    cn115211   6.747   5.026   0.359  0.0134 -0.1978 -0.0425
 2419ntf    sn215212   6.835   4.939   0.493 -0.1114 -0.0245  0.1522
 2419ntf    nn315213   6.710   4.896   0.578 -0.0568 -0.4040  0.0435
 2419ntf    sn215214   6.665   4.944   0.721 -0.0293  0.0468 -0.0949
 2419ntf    cn115215   6.750   4.817   0.821  0.0198 -0.1080 -0.3331
 2419ntf    fn415216   6.827   5.070   0.262  0.1528  0.3441  0.3124
 2419ntf    fn415217   6.652   4.955   0.300 -0.1307 -0.0532  0.0137
 2419ntf    fn415218   6.683   5.132   0.406 -0.1157 -0.2168 -0.1778
 2419ntf    on515219   6.888   4.827   0.420 -0.4865  0.1332 -0.3760
 2419ntf    on515220   6.927   5.041   0.535 -0.0723 -0.0398  0.1031
 2419ntf    on515221   6.523   4.926   0.738 -0.0732  0.2107 -0.2867
 2419ntf    on515222   6.725   5.066   0.768 -0.2833  0.5926 -1.1649
 2419ntf    fn415223   6.724   4.694   0.781 -0.7866  0.1901 -0.7534
 2419ntf    fn415224   6.881   4.834   0.809  0.0372  0.0915  0.1476
 2419ntf    fn415225   6.716   4.822   0.948  0.0233 -0.0577 -0.3339
 2420ntf    cn115226   6.526   3.201   1.224  0.2487  0.1533  0.3036
 2420ntf    sn215227   6.671   3.177   1.331  0.2732 -0.5944  0.1088
 2420ntf    nn315228   6.653   3.026   1.370  0.0976 -0.6274 -0.0993
 2420ntf    sn215229   6.609   2.972   1.510  0.4994 -0.2622  0.1711
 2420ntf    cn115230   6.777   2.939   1.573  0.4771 -0.0392  0.3478
 2420ntf    fn415231   6.531   3.128   1.114 -0.0666 -0.0888  0.4492
 2420ntf    fn415232   6.412   3.160   1.276  0.0806  0.1049 -0.0983
 2420ntf    fn415233   6.501   3.326   1.189 -0.1133 -0.0340 -0.1113
 2420ntf    on515234   6.778   3.199   1.236  0.0755  0.1557  0.0527
 2420ntf    on515235   6.660   3.278   1.434  0.2552  0.3242 -0.7761
 2420ntf    on515236   6.552   2.841   1.493  0.7099 -0.3154 -0.1367
 2420ntf    on515237   6.542   3.058   1.604  0.3134 -0.2396  0.0168
 2420ntf    fn415238   6.786   2.920   1.703 -0.6089  0.2476  0.4805
 2420ntf    fn415239   6.826   2.830   1.517  0.3555  0.3126 -0.4598
 2420ntf    fn415240   6.861   3.035   1.540  0.3260 -0.0196  0.0087
 2421ntf    cn115241   3.300   1.181   4.929 -0.0093  0.1525  0.6405
 2421ntf    sn215242   3.367   1.027   4.860 -0.1501  0.2178  0.3558
 2421ntf    nn315243   3.237   0.979   4.788  0.0140  0.5911 -0.1969
 2421ntf    sn215244   3.190   0.996   4.639  0.2141 -0.0533 -0.3385
 2421ntf    cn115245   3.248   0.835   4.580  0.1711 -0.1220 -0.1927
 2421ntf    fn415246   3.396   1.249   4.990  0.4746  0.4141 -0.3905
 2421ntf    fn415247   3.246   1.261   4.839  0.0258 -0.5768 -0.0321
 2421ntf    fn415248   3.216   1.152   5.028 -0.2412 -0.3572  0.2954
 2421ntf    on515249   3.479   1.074   4.782 -0.1586 -0.0644  0.1743
 2421ntf    on515250   3.386   0.946   4.978  0.2306  0.1125  0.2229
 2421ntf    on515251   3.266   1.086   4.555  0.6611  0.2021  0.3313
 2421ntf    on515252   3.047   1.004   4.626  0.0305 -0.0997  1.3668
 2421ntf    fn415253   3.177   0.734   4.629 -0.0158  0.1212  0.0342
 2421ntf    fn415254   3.228   0.836   4.449 -0.4254 -0.3112 -0.1053
 2421ntf    fn415255   3.378   0.819   4.599  0.0820 -0.4654  0.1345
 2422ntf    cn115256   5.978   4.324   0.803 -0.1755 -0.2905  0.3598
 2422ntf    sn215257   5.860   4.282   0.671  0.0981 -0.2196  0.0890
 2422ntf    nn315258   5.941   4.178   0.587 -0.3277 -0.2952 -0.2329
 2422ntf    sn215259   6.024   4.224   0.461 -0.1127  0.1336  0.0639
 2422ntf    cn115260   6.070   4.054   0.414  0.1071  0.1659  0.1606
 2422ntf    fn415261   5.929   4.382   0.911 -0.4794  0.1509 -0.0116
 2422ntf    fn415262   6.048   4.220   0.847 -0.0935 -0.6528 -0.6029
 2422ntf    fn415263   6.069   4.410   0.759 -0.3703 -0.3028 -0.0782
 2422ntf    on515264   5.753   4.210   0.737 -0.0480 -0.2941 -0.2266
 2422ntf    on515265   5.831   4.409   0.611 -0.0919 -0.2459  0.1240
 2422ntf    on515266   6.152   4.280   0.497 -0.0343  0.0441 -0.0777
 2422ntf    on515267   5.955   4.277   0.347 -0.1979  0.3380  0.2090
 2422ntf    fn415268   6.165   4.000   0.488  0.1650  0.1251  0.0570
 2422ntf    fn415269   5.962   3.978   0.400 -0.2484  0.6796  0.0823
 2422ntf    fn415270   6.124   4.052   0.294 -0.4409  0.0889 -0.0889
 2423ntf    cn115271   5.713   1.478   3.033  0.1269 -0.1443  0.2517
 2423ntf    sn215272   5.676   1.411   2.868 -0.2881  0.1140  0.2353
 2423ntf    nn315273   5.545   1.486   2.828 -0.4982 -0.2686  0.2021
 2423ntf    sn215274   5.491   1.512   2.682 -0.3310 -0.2614  0.1417
 2423ntf    cn115275   5.399   1.358   2.654 -0.0282 -0.4321  0.0808
 2423ntf    fn415276   5.612   1.477   3.119 -0.2940 -0.2558 -0.2341
 2423ntf    fn415277   5.810   1.417   3.098  0.3587  0.1157  0.1524
 2423ntf    fn415278   5.740   1.608   3.026 -0.0354 -0.1150  0.1291
 2423ntf    on515279   5.796   1.457   2.802 -0.8491  0.8810 -0.2689
 2423ntf    on515280   5.655   1.270   2.887 -0.3980  0.1094  0.0818
 2423ntf    on515281   5.586   1.507   2.574 -0.0742 -0.8636  0.3868
 2423ntf    on515282   5.386   1.610   2.672 -0.1263 -0.0487  0.0708
 2423ntf    fn415283   5.487   1.260   2.646  0.4441  0.0241 -0.3768
 2423ntf    fn415284   5.318   1.329   2.754  0.1154 -0.3413  0.2237
 2423ntf    fn415285   5.329   1.359   2.541 -0.2903 -0.4751  0.2422
 2424ntf    cn115286   4.616   1.871   3.773  0.5225  0.1372  0.1849
 2424ntf    sn215287   4.470   1.973   3.739  0.2430 -0.3298 -0.0154
 2424ntf    nn315288   4.480   1.997   3.584  0.9113 -0.4997  0.0003
 2424ntf    sn215289   4.470   1.903   3.459  0.0285  0.2148 -0.4751
 2424ntf    cn115290   4.645   1.914   3.410  0.0768  0.2963 -0.2807
 2424ntf    fn415291   4.736   1.927   3.763  0.5964 -0.0788 -0.1807
 2424ntf    fn415292   4.608   1.820   3.895  0.4225  0.2013  0.2053
 2424ntf    fn415293   4.632   1.765   3.696 -0.2364  0.4013 -0.3488
 2424ntf    on515294   4.363   1.885   3.780  0.3852 -0.4539  0.0913
 2424ntf    on515295   4.490   2.095   3.812 -0.2480 -0.1744 -0.1362
 2424ntf    on515296   4.402   1.967   3.348 -0.8245 -0.3413 -0.2850
 2424ntf    on515297   4.454   1.763   3.488  0.2750  0.3611  0.3818
 2424ntf    fn415298   4.668   1.853   3.295 -0.1248 -0.5189  0.1062
 2424ntf    fn415299   4.690   2.039   3.403  0.1740  0.2935  0.2547
 2424ntf    fn415300   4.731   1.854   3.490  0.6014  0.4839 -0.6994
 2425ntf    cn115301   5.060   2.848   4.587  0.0134 -0.2557 -0.4074
 2425ntf    sn215302   5.199   2.826   4.702 -0.3112  0.1765  0.0730
 2425ntf    nn315303   5.132   2.761   4.828 -0.6343 -0.3434 -0.3661
 2425ntf    sn215304   5.079   2.832   4.958  0.4551 -0.0889 -0.0518
 2425ntf    cn115305   5.231   2.871   5.050  0.1377  0.0467  0.4171
 2425ntf    fn415306   4.995   2.736   4.562 -0.4514 -0.1723  0.3816
 2425ntf    fn415307   4.978   2.938   4.639  0.3367 -0.0441 -0.2537
 2425ntf    fn415308   5.103   2.894   4.471  0.5236  0.5475  0.0895
 2425ntf    on515309   5.281   2.731   4.632  0.3869  0.8183  0.0068
 2425ntf    on515310   5.256   2.958   4.717 -0.2308  0.1559 -0.0514
 2425ntf    on515311   5.008   2.740   5.044 -0.7542  0.9019  0.0392
 2425ntf    on515312   5.016   2.961   4.941 -0.1637 -0.4035 -0.1780
 2425ntf    fn415313   5.279   2.763   5.108 -0.2418 -0.1779  0.3175
 2425ntf    fn415314   5.330   2.917   4.976 -0.5799  0.4362 -0.3290
 2425ntf    fn415315   5.207   2.962   5.143 -0.8638 -0.0727  0.2939
 2426ntf    cn115316   4.883   0.038   3.481 -0.0836 -0.6039 -0.1801
 2426ntf    sn215317   4.733  -0.017   3.567 -0.3082 -0.2912 -0.3671
 2426ntf    nn315318   4.653   0.118   3.570 -0.0544 -0.1440 -0.1697
 2426ntf    sn215319   4.571   0.177   3.690 -0.1051  0.0297 -0.2889
 2426ntf    cn115320   4.454   0.279   3.596  0.0022  0.2040 -0.2347
 2426ntf    fn415321   4.858   0.073   3.356 -0.2094  0.0872  0.0294
 2426ntf    fn415322   4.945   0.140   3.538 -0.3592 -0.4107 -0.2199
 2426ntf    fn415323   4.967  -0.063   3.468 -0.2015 -0.6881 -0.2939
 2426ntf    on515324   4.675  -0.105   3.468  0.2426 -0.2471 -0.7280
 2426ntf    on515325   4.787  -0.070   3.690 -0.5643 -0.2539 -0.2366
 2426ntf    on515326   4.646   0.274   3.766 -0.0318  0.0979 -0.4472
 2426ntf    on515327   4.485   0.082   3.757  0.1581  0.1984  0.2998
 2426ntf    fn415328   4.397   0.203   3.503  0.0754 -0.1085 -0.0278
 2426ntf    fn415329   4.352   0.324   3.667  0.0309  0.1284 -0.1447
 2426ntf    fn415330   4.509   0.383   3.536  0.0929  0.1424 -0.2606
 2427ntf    cn115331   5.885   5.388   1.805  0.3187  0.1737 -0.0361
 2427ntf    sn215332   5.884   5.508   1.942  0.1470  0.1432 -0.0105
 2427ntf    nn315333   5.822   5.637   1.878  0.1333 -0.2336 -0.7690
 2427ntf    sn215334   5.675   5.689   1.897  0.3794  0.1879 -0.0157
 2427ntf    cn115335   5.693   5.794   2.044  0.0909  0.0917  0.0904
 2427ntf    fn415336   5.954   5.279   1.834  0.1476 -0.0459 -0.4398
 2427ntf    fn415337   5.759   5.353   1.785  0.3000 -0.0409  0.4456
 2427ntf    fn415338   5.931   5.435   1.690 -0.5618  0.1816 -0.4012
 2427ntf    on515339   5.798   5.439   2.035  0.1725  0.4799  0.2606
 2427ntf    on515340   6.023   5.519   1.979  0.0119  0.2972  0.4477
 2427ntf    on515341   5.566   5.599   1.930  0.4286  0.0574 -0.2082
 2427ntf    on515342   5.646   5.789   1.798  0.3267  0.2636  0.0757
 2427ntf    fn415343   5.576   5.835   2.089  0.2424 -0.2609  0.8363
 2427ntf    fn415344   5.742   5.732   2.151  0.5035 -0.1260 -0.2202
 2427ntf    fn415345   5.773   5.899   2.035 -0.1521  0.3122  0.4566
 2428ntf    cn115346   2.019   3.339   6.299 -0.3227 -0.0850 -0.1120
 2428ntf    sn215347   2.124   3.458   6.211 -0.1553 -0.0951  0.0715
 2428ntf    nn315348   2.257   3.377   6.192  0.0199  0.1487  0.2484
 2428ntf    sn215349   2.382   3.371   6.287  0.2446 -0.0163 -0.0546
 2428ntf    cn115350   2.479   3.523   6.259  0.0482  0.1753  0.2947
 2428ntf    fn415351   2.013   3.219   6.243  0.1419 -0.2015  0.0819
 2428ntf    fn415352   2.060   3.316   6.423 -0.2449  0.4064 -0.0441
 2428ntf    fn415353   1.894   3.376   6.319 -0.1402  0.2752  0.3965
 2428ntf    on515354   2.051   3.476   6.088 -0.0578  0.0536  0.0354
 2428ntf    on515355   2.140   3.574   6.294  0.1167  0.0110 -0.1277
 2428ntf    on515356   2.479   3.273   6.247 -0.0637 -0.4854  0.3411
 2428ntf    on515357   2.350   3.381   6.427  0.8142 -0.6504  0.1234
 2428ntf    fn415358   2.521   3.520   6.133  0.4877  0.1478  0.4404
 2428ntf    fn415359   2.412   3.634   6.283  0.2171  0.2609  0.3701
 2428ntf    fn415360   2.587   3.536   6.334  0.4661 -0.0556 -0.2569
 2429ntf    cn115361   0.017   0.859   1.578 -0.3785 -0.1227  0.1965
 2429ntf    sn215362  -0.141   0.777   1.615 -0.4630  0.0293  0.1758
 2429ntf    nn315363  -0.130   0.654   1.518 -0.3782  0.2248 -0.0649
 2429ntf    sn215364  -0.216   0.522   1.526 -0.2105  0.1198  0.0076
 2429ntf    cn115365  -0.305   0.533   1.368  0.1683  0.5364 -0.1794
 2429ntf    fn415366   0.122   0.780   1.593 -0.4266 -0.2051  0.0963
 2429ntf    fn415367   0.014   0.901   1.453 -0.0206 -0.0265  0.2179
 2429ntf    fn415368   0.036   0.959   1.663  0.0483 -0.4433  0.4855
 2429ntf    on515369  -0.133   0.745   1.755  0.1155  0.0389  0.1467
 2429ntf    on515370  -0.249   0.868   1.586 -0.2748  0.3652  0.5270
 2429ntf    on515371  -0.318   0.523   1.628 -0.1444  0.2416  0.0735
 2429ntf    on515372  -0.143   0.398   1.517  0.2226  0.3157  0.7314
 2429ntf    fn415373  -0.344   0.656   1.340 -0.2129  0.4713  0.0710
 2429ntf    fn415374  -0.237   0.487   1.264  0.3214  0.1472  0.0905
 2429ntf    fn415375  -0.415   0.460   1.366  0.0778  0.6614  0.1828
 2430ntf    cn115376   3.527   1.777   5.860 -0.5531  0.2999 -0.6328
 2430ntf    sn215377   3.393   1.765   5.983 -0.0676  0.1479 -0.1121
 2430ntf    nn315378   3.459   1.841   6.103 -0.6421 -0.3074  0.4951
 2430ntf    sn215379   3.440   1.986   6.161 -0.4066  0.0467 -0.3023
 2430ntf    cn115380   3.613   2.035   6.186 -0.2469 -0.5549 -0.2006
 2430ntf    fn415381   3.618   1.684   5.881 -0.4620  0.5088 -0.0821
 2430ntf    fn415382   3.490   1.765   5.734  0.0363  0.4663 -0.8236
 2430ntf    fn415383   3.589   1.893   5.867  0.0677 -0.0688  0.1535
 2430ntf    on515384   3.281   1.831   5.920 -0.1181 -0.5331 -0.7432
 2430ntf    on515385   3.389   1.624   6.010 -0.7955  0.1417 -0.2182
 2430ntf    on515386   3.385   1.988   6.294  0.0232 -0.6307 -0.1105
 2430ntf    on515387   3.391   2.083   6.067 -1.3402  0.3500  0.4826
 2430ntf    fn415388   3.682   1.959   6.269 -0.0904 -0.1978 -0.0029
 2430ntf    fn415389   3.680   2.038   6.072  0.2858  0.0012  0.1214
 2430ntf    fn415390   3.622   2.157   6.237 -0.1908 -0.5356 -0.2568
 2431ntf    cn115391   4.305   4.385   4.625  0.1026  0.5016  0.1315
 2431ntf    sn215392   4.279   4.460   4.461  0.2087  0.0566 -0.0912
 2431ntf    nn315393   4.267   4.612   4.502 -0.1070  0.0778 -0.2622
 2431ntf    sn215394   4.240   4.736   4.410 -0.4476 -0.1050 -0.4120
 2431ntf    cn115395   4.061   4.755   4.434 -0.3219  0.1730  0.3451
 2431ntf    fn415396   4.418   4.426   4.680  0.2900  0.2824 -0.0882
 2431ntf    fn415397   4.206   4.413   4.708 -0.3028  0.0405 -0.1876
 2431ntf    fn415398   4.310   4.253   4.625  0.5503  0.5188  0.2257
 2431ntf    on515399   4.400   4.435   4.387 -0.1144 -0.5019 -0.4285
 2431ntf    on515400   4.155   4.407   4.411  0.0870  0.1363  0.1229
 2431ntf    on515401   4.254   4.715   4.268 -0.4162  1.1215 -0.6021
 2431ntf    on515402   4.298   4.859   4.457 -0.4258 -0.1201 -0.3989
 2431ntf    fn415403   4.008   4.636   4.457 -0.0113 -0.0445 -0.0606
 2431ntf    fn415404   4.034   4.832   4.538 -0.1747  0.1270  0.4162
 2431ntf    fn415405   4.000   4.808   4.329 -0.1886 -0.3525 -0.0017
 2432ntf    cn115406   2.604   0.893   0.209  0.1444 -0.2425  0.0249
 2432ntf    sn215407   2.483   1.000   0.292  0.1044 -0.1514 -0.1504
 2432ntf    nn315408   2.569   1.113   0.358 -0.2945  0.0337  0.0600
 2432ntf    sn215409   2.631   1.105   0.502  0.1514 -0.1761 -0.1406
 2432ntf    cn115410   2.501   1.197   0.589  0.3358  0.1495 -0.2050
 2432ntf    fn415411   2.672   0.813   0.289  0.3952 -0.2802 -0.2224
 2432ntf    fn415412   2.543   0.810   0.126  0.6247 -0.4550 -0.1220
 2432ntf    fn415413   2.692   0.967   0.142 -0.0165  0.4606  0.5793
 2432ntf    on515414   2.417   1.058   0.178 -0.8432 -0.3562  0.2826
 2432ntf    on515415   2.409   0.907   0.374  0.0260 -0.3070 -0.3929
 2432ntf    on515416   2.746   1.192   0.514 -0.4534  0.6257 -0.0245
 2432ntf    on515417   2.644   0.976   0.564  0.3615 -0.1810 -0.1910
 2432ntf    fn415418   2.495   1.324   0.551  0.2026  0.1602 -0.1480
 2432ntf    fn415419   2.384   1.144   0.559  0.1953 -0.3130  1.0757
 2432ntf    fn415420   2.516   1.196   0.721 -0.1903 -0.4144 -0.1424
 2433ntf    cn115421   6.049   1.738   2.911  0.2039 -0.2185  0.1268
 2433ntf    sn215422   6.220   1.789   2.876  0.1131 -0.0184 -0.0203
 2433ntf    nn315423   6.207   1.931   2.808 -0.1207 -0.1924 -0.3448
 2433ntf    sn215424   6.220   2.070   2.879 -0.3804 -0.2791 -0.1247
 2433ntf    cn115425   6.396   2.106   2.849 -0.3670 -0.4293 -0.2292
 2433ntf    fn415426   5.981   1.723   2.799  0.6706 -0.0938 -0.1748
 2433ntf    fn415427   6.046   1.625   2.980  0.1737 -0.1290  0.2727
 2433ntf    fn415428   5.993   1.829   2.989  0.7659 -0.1293  0.4375
 2433ntf    on515429   6.282   1.777   3.005  0.0983 -0.0347 -0.0148
 2433ntf    on515430   6.275   1.699   2.778  0.4521  0.0114  0.1404
 2433ntf    on515431   6.203   2.078   3.022 -0.4335 -0.9383 -0.0935
 2433ntf    on515432   6.160   2.174   2.799 -0.1699 -0.2152 -0.1995
 2433ntf    fn415433   6.423   2.143   2.725  0.1575  0.3077  0.1026
 2433ntf    fn415434   6.434   2.204   2.929 -0.2397 -0.0698 -0.7262
 2433ntf    fn415435   6.468   1.999   2.879  0.0230 -0.2650 -0.5793
 2434ntf    cn115436   3.347   1.922   5.312  0.1625  0.5892 -0.2259
 2434ntf    sn215437   3.238   1.861   5.180 -0.1484  0.0318  0.2834
 2434ntf    nn315438   3.155   1.744   5.243  0.0483 -0.3252 -0.1158
 2434ntf    sn215439   3.216   1.609   5.295  0.1382 -0.2064  0.0852
 2434ntf    cn115440   3.139   1.507   5.166 -0.1209  0.1274 -0.0246
 2434ntf    fn415441   3.449   1.991   5.264  0.4969  0.2206 -0.0536
 2434ntf    fn415442   3.280   1.996   5.398  0.4675  0.3979  0.1862
 2434ntf    fn415443   3.399   1.821   5.381 -0.2384  0.4007 -0.2003
 2434ntf    on515444   3.155   1.974   5.147  0.1370 -0.0347 -0.6921
 2434ntf    on515445   3.323   1.817   5.073  0.4822  0.3129  0.6621
 2434ntf    on515446   3.153   1.574   5.420 -0.1593  0.0620  0.0103
 2434ntf    on515447   3.360   1.602   5.287  0.1229 -0.2916 -0.1301
 2434ntf    fn415448   3.209   1.528   5.055 -0.1425 -0.2581 -0.1131
 2434ntf    fn415449   3.139   1.379   5.197  0.0481 -0.0546 -0.7559
 2434ntf    fn415450   3.009   1.530   5.157 -0.0966  0.2769 -0.0008
 2435ntf    cn115451   5.368   3.716   3.608  0.2896 -0.1400  0.4514
 2435ntf    sn215452   5.520   3.625   3.568  0.2113 -0.1605  0.1955
 2435ntf    nn315453   5.487   3.591   3.419  0.0843  0.3368  0.1103
 2435ntf    sn215454   5.544   3.502   3.303 -0.0564 -0.2292  0.4720
 2435ntf    cn115455   5.636   3.629   3.211 -0.0118 -0.5262  0.1004
 2435ntf    fn415456   5.353   3.820   3.527  0.2924 -0.3729  0.1504
 2435ntf    fn415457   5.259   3.642   3.595 -0.0396  0.3288  0.5099
 2435ntf    fn415458   5.374   3.764   3.731  0.2734  0.8755  0.0661
 2435ntf    on515459   5.616   3.729   3.595 -0.2035  0.1852  0.3532
 2435ntf    on515460   5.519   3.503   3.645 -0.8876 -0.6945 -0.6349
 2435ntf    on515461   5.441   3.456   3.213  0.3237 -0.0421 -0.0707
 2435ntf    on515462   5.651   3.417   3.348 -0.2004 -0.1484  0.9688
 2435ntf    fn415463   5.557   3.731   3.180  0.0195 -0.6968 -0.5494
 2435ntf    fn415464   5.737   3.679   3.282 -0.2124  0.6742 -0.4360
 2435ntf    fn415465   5.683   3.591   3.094 -0.0239  0.2266 -0.1585
 2436ntf    cn115466   4.685   0.842   0.028  0.3498 -0.1364  0.0456
 2436ntf    sn215467   4.801   0.974  -0.014  0.0768  0.0687 -0.0649
 2436ntf    nn315468   4.843   0.927  -0.158 -0.4695 -0.4138 -0.0668
 2436ntf    sn215469   4.765   0.948  -0.293 -0.3006  0.0603 -0.0921
 2436ntf    cn115470   4.834   1.098  -0.370 -0.1069  0.0342  0.0294
 2436ntf    fn415471   4.568   0.857  -0.032  0.4641  0.4068 -0.0435
 2436ntf    fn415472   4.739   0.722   0.010  0.0764 -0.3351  0.5201
 2436ntf    fn415473   4.655   0.850   0.157  0.3034  0.5541 -0.0085
 2436ntf    on515474   4.727   1.098  -0.011  0.2520  0.2006 -0.8185
 2436ntf    on515475   4.901   0.959   0.089  0.5748  0.4068 -0.4889
 2436ntf    on515476   4.625   0.983  -0.288 -0.2730  0.2147 -0.4017
 2436ntf    on515477   4.803   0.845  -0.386  0.4866 -0.3722  0.6957
 2436ntf    fn415478   4.836   1.206  -0.293  0.0405  0.0416  0.0155
 2436ntf    fn415479   4.959   1.071  -0.402 -0.1246 -0.0542  0.0325
 2436ntf    fn415480   4.763   1.132  -0.477 -0.3074 -0.1030  0.1173
 2437ntf    cn115481   4.113   6.650   6.592  0.3990 -0.1103 -0.0880
 2437ntf    sn215482   4.118   6.766   6.452 -0.0730  0.0986  0.0697
 2437ntf    nn315483   4.261   6.828   6.471  0.1575 -0.2933 -0.4024
 2437ntf    sn215484   4.289   6.978   6.434 -0.1280 -0.1185  0.0809
 2437ntf    cn115485   4.238   7.045   6.595  0.2237  0.0208  0.1347
 2437ntf    fn415486   4.136   6.704   6.710  0.3372 -0.4773  0.0938
 2437ntf    fn415487   3.994   6.594   6.604  0.4605 -0.1135  0.5310
 2437ntf    fn415488   4.199   6.551   6.574  0.7595  0.1952 -0.0722
 2437ntf    on515489   4.102   6.680   6.338  0.1606 -0.4284  0.4319
 2437ntf    on515490   4.007   6.856   6.477 -0.3165 -0.1210 -0.2092
 2437ntf    on515491   4.206   7.038   6.333 -0.1715 -0.3232 -0.0081
 2437ntf    on515492   4.429   7.011   6.421 -0.0336 -0.5447 -0.0228
 2437ntf    fn415493   4.121   7.004   6.641 -0.1316  0.5789 -0.2537
 2437ntf    fn415494   4.322   7.022   6.695  0.0253 -0.4606  0.1932
 2437ntf    fn415495   4.232   7.177   6.596 -0.8007 -0.0201  0.0877
 2438ntf    cn115496   1.038   3.382   6.103 -0.0416  0.4016 -0.3885
 2438ntf    sn215497   0.862   3.340   6.117  0.0052  0.2835 -0.1461
 2438ntf    nn315498   0.834   3.282   5.973  0.3284 -0.1474 -0.0365
 2438ntf    sn215499   0.875   3.150   5.898 -0.1192 -0.3112  0.0018
 2438ntf    cn115500   0.884   3.208   5.726  0.2638 -0.0961  0.0913
 2438ntf    fn415501   1.069   3.471   6.197  0.1640 -0.1269  0.0463
 2438ntf    fn415502   1.119   3.279   6.116 -0.1855  0.3395  0.0257
 2438ntf    fn415503   1.062   3.432   5.983  0.7044  0.4191 -0.2341
 2438ntf    on515504   0.858   3.247   6.227 -0.7349 -0.1253 -0.5071
 2438ntf    on515505   0.794   3.465   6.136 -0.0940  0.1577  0.3263
 2438ntf    on515506   0.770   3.051   5.892 -0.4989  0.0906 -0.0189
 2438ntf    on515507   1.012   3.111   5.924 -0.0067  0.2955  0.3324
 2438ntf    fn415508   0.944   3.117   5.652 -0.4215 -0.2145 -0.3310
 2438ntf    fn415509   0.764   3.231   5.676  0.1514 -0.6915  0.0768
 2438ntf    fn415510   0.950   3.321   5.711 -0.5319  0.3006 -0.4906
 2439ntf    cn115511   3.925   1.287   6.071 -0.3163 -0.0804 -0.0176
 2439ntf    sn215512   3.875   1.114   6.041  0.2325 -0.2196 -0.1448
 2439ntf    nn315513   3.721   1.143   6.042  0.2357 -0.1973 -0.3535
 2439ntf    sn215514   3.601   1.072   5.969 -0.0269 -0.0380 -0.0777
 2439ntf    cn115515   3.612   1.124   5.796  0.1558 -0.1568 -0.1027
 2439ntf    fn415516   3.879   1.365   5.975  0.1711  0.1226 -0.0908
 2439ntf    fn415517   3.877   1.351   6.176  0.2199  0.2722  0.0189
 2439ntf    fn415518   4.056   1.306   6.072 -0.4351  0.7487 -0.0139
 2439ntf    on515519   3.931   1.079   5.914  0.8339 -0.2406  0.1222
 2439ntf    on515520   3.925   1.061   6.166  0.1365  0.0261  0.0008
 2439ntf    on515521   3.470   1.118   6.007  0.1110  0.5416 -0.2970
 2439ntf    on515522   3.614   0.929   5.958 -0.2106 -0.0566 -0.0476
 2439ntf    fn415523   3.610   1.257   5.790 -0.0506 -0.1371  0.3707
 2439ntf    fn415524   3.724   1.089   5.736  0.2231  0.0035 -0.0715
 2439ntf    fn415525   3.510   1.082   5.722 -0.2673  0.1841  0.2783
 2440ntf    cn115526   6.541   6.091   2.391 -0.1807  0.1959  0.5060
 2440ntf    sn215527   6.594   6.124   2.220 -0.2579  0.1697  0.4768
 2440ntf    nn315528   6.748   6.110   2.245 -0.1139  0.5290 -0.1786
 2440ntf    sn215529   6.843   6.045   2.138 -0.2889  0.0210 -0.0291
 2440ntf    cn115530   6.998   6.130   2.179  0.0606 -0.5049 -0.2393
 2440ntf    fn415531   6.574   6.183   2.480  0.2467  0.2427  0.3036
 2440ntf    fn415532   6.411   6.078   2.412 -0.2172  0.2981  0.3426
 2440ntf    fn415533   6.597   5.979   2.433 -0.3041 -0.0695 -0.0246
 2440ntf    on515534   6.521   6.028   2.141 -0.1571  0.3596  0.1498
 2440ntf    on515535   6.547   6.260   2.213 -0.6384  0.0222  0.0982
 2440ntf    on515536   6.822   6.077   1.999  0.3000  0.2318 -0.0676
 2440ntf    on515537   6.871   5.910   2.180  0.0603  0.0286 -0.2344
 2440ntf    fn415538   6.990   6.262   2.189  0.1722 -0.5404  0.3460
 2440ntf    fn415539   7.051   6.089   2.292 -0.1584 -0.2136 -0.0294
 2440ntf    fn415540   7.083   6.110   2.079  0.0400  0.3891 -0.4457
 2441ntf    cn115541   3.150   3.577   1.838 -0.1488 -0.0713 -0.0117
 2441ntf    sn215542   2.997   3.479   1.826 -0.1471 -0.0466 -0.2334
 2441ntf    nn315543   2.977   3.417   1.968  0.0649  0.1000 -0.1387
 2441ntf    sn215544   2.858   3.336   2.031  0.1289  0.0309 -0.1068
 2441ntf    cn115545   2.895   3.165   1.980 -0.1620  0.0421 -0.3535
 2441ntf    fn415546   3.135   3.680   1.920 -0.3532 -0.1549  0.0570
 2441ntf    fn415547   3.245   3.504   1.892 -0.1954  0.0656  0.2597
 2441ntf    fn415548   3.191   3.629   1.723 -0.7736  0.0758 -0.1718
 2441ntf    on515549   2.899   3.579   1.790  0.1908  0.1690 -0.5608
 2441ntf    on515550   3.029   3.384   1.722  0.9762 -0.0160  0.0684
 2441ntf    on515551   2.734   3.356   1.961  0.3385 -0.1019 -0.5170
 2441ntf    on515552   2.855   3.333   2.176 -0.0104  0.2203 -0.1075
 2441ntf    fn415553   2.892   3.139   1.851  0.3365  0.4574 -0.4477
 2441ntf    fn415554   3.019   3.135   2.014 -0.2704  0.1932  0.1881
 2441ntf    fn415555   2.820   3.073   2.041 -0.3310  0.1673 -0.3706
 2442ntf    cn115556   4.062   3.675   4.286  0.2631  0.2387  0.2405
 2442ntf    sn215557   3.968   3.831   4.296 -0.1092  0.0529 -0.3389
 2442ntf    nn315558   3.986   3.871   4.446 -0.2156  0.1636 -0.3563
 2442ntf    sn215559   3.876   3.855   4.557  0.1752 -0.0263  0.0058
 2442ntf    cn115560   3.985   3.809   4.695 -0.1442 -0.1889  0.2046
 2442ntf    fn415561   4.063   3.625   4.164  0.1463  0.8534 -0.0131
 2442ntf    fn415562   4.187   3.697   4.323  0.4230 -0.1405 -0.0777
 2442ntf    fn415563   4.020   3.573   4.359 -0.1527  0.1748 -0.0873
 2442ntf    on515564   4.042   3.922   4.212  0.2322 -0.0671 -0.1732
 2442ntf    on515565   3.841   3.787   4.243 -0.4173  0.0507  0.3988
 2442ntf    on515566   3.792   3.738   4.552 -0.2014  0.2269  0.3183
 2442ntf    on515567   3.814   3.978   4.600 -0.1476 -0.0511 -0.3903
 2442ntf    fn415568   3.912   3.745   4.785 -0.6286 -0.3326 -0.2821
 2442ntf    fn415569   4.082   3.725   4.663  0.2467  0.2243  0.2939
 2442ntf    fn415570   4.040   3.908   4.763 -0.0320 -0.1223  0.0191
 2443ntf    cn115571   0.897   4.734   3.080 -0.0736  0.2604 -0.0083
 2443ntf    sn215572   0.846   4.667   2.918  0.2646 -0.2649  0.1016
 2443ntf    nn315573   0.706   4.611   2.960  0.1195 -0.3073 -0.4340
 2443ntf    sn215574   0.659   4.465   2.994  0.0292 -0.1314  0.2082
 2443ntf    cn115575   0.547   4.437   2.854 -0.1757 -0.3627  0.4164
 2443ntf    fn415576   0.796   4.772   3.156 -0.0911  0.0128  0.0935
 2443ntf    fn415577   0.961   4.645   3.153 -0.6027 -0.0103  0.1299
 2443ntf    fn415578   0.980   4.836   3.074 -0.0784  0.2514 -0.2798
 2443ntf    on515579   0.821   4.775   2.827  0.0927 -0.1161  0.3226
 2443ntf    on515580   0.954   4.579   2.881  0.2851  0.0522 -0.6052
 2443ntf    on515581   0.567   4.460   3.105 -0.3025 -0.0907 -0.0648
 2443ntf    on515582   0.751   4.355   2.980  0.5754  0.4573 -0.9970
 2443ntf    fn415583   0.456   4.533   2.848  0.1364 -0.0475  0.7112
 2443ntf    fn415584   0.609   4.440   2.737  0.2117 -0.4246  0.6178
 2443ntf    fn415585   0.468   4.332   2.868 -0.2986 -0.3327 -0.0206
 2444ntf    cn115586   6.668   1.308   0.792 -0.0653 -0.3619  0.1415
 2444ntf    sn215587   6.613   1.176   0.904  0.0215 -0.4809  0.0455
 2444ntf    nn315588   6.738   1.081   0.908  0.5023  0.1512  0.1859
 2444ntf    sn215589   6.778   0.990   0.787  0.0245  0.2758 -0.0708
 2444ntf    cn115590   6.935   1.068   0.737  0.0621  0.1257 -0.1890
 2444ntf    fn415591   6.588   1.413   0.792 -0.2646 -0.4989 -0.9213
 2444ntf    fn415592   6.786   1.353   0.832 -0.0616  0.5509 -0.8532
 2444ntf    fn415593   6.681   1.265   0.667 -0.1111 -0.3165  0.1209
 2444ntf    on515594   6.603   1.239   1.033  0.6595 -0.1786 -0.0509
 2444ntf    on515595   6.496   1.120   0.841 -0.0955 -0.1352 -0.0510
 2444ntf    on515596   6.698   1.000   0.668  0.0928  0.3138 -0.1136
 2444ntf    on515597   6.819   0.862   0.839  0.5107  0.5210  0.1603
 2444ntf    fn415598   7.022   1.081   0.836  0.1129  0.4524 -0.2754
 2444ntf    fn415599   6.995   0.990   0.648 -0.1286 -0.0650 -0.1522
 2444ntf    fn415600   6.917   1.187   0.682  0.3535  0.3564  0.2050
 2445ntf    cn115601   0.848   0.629   1.994  0.3450  0.0528 -0.1544
 2445ntf    sn215602   0.927   0.471   1.951  0.0334 -0.2068  0.2169
 2445ntf    nn315603   0.822   0.367   2.004 -0.0224 -0.0866  0.3422
 2445ntf    sn215604   0.678   0.334   1.948  0.2044 -0.0482 -0.2757
 2445ntf    cn115605   0.718   0.175   1.871  0.0657 -0.0355 -0.3735
 2445ntf    fn415606   0.923   0.725   2.044  0.0486 -0.0930  0.5922
 2445ntf    fn415607   0.785   0.684   1.892 -0.0953  0.0307  0.1026
 2445ntf    fn415608   0.747   0.606   2.077  0.5389  0.2120  0.1268
 2445ntf    on515609   0.946   0.470   1.808  0.2729 -0.1733  0.2486
 2445ntf    on515610   1.047   0.479   2.029  0.2079  0.0497 -0.0769
 2445ntf    on515611   0.634   0.418   1.840 -0.5926  0.4222  0.4025
 2445ntf    on515612   0.578   0.296   2.044  0.6372 -0.1085  0.1579
 2445ntf    fn415613   0.610   0.110   1.829 -0.2882  0.2402  0.1026
 2445ntf    fn415614   0.801   0.182   1.768  0.4720 -0.4900 -0.0799
 2445ntf    fn415615   0.783   0.097   1.955  0.0779  0.4212  0.0464
 2446ntf    cn115616   5.095   5.446   5.937  0.3083  0.0108 -0.3422
 2446ntf    sn215617   5.059   5.595   5.840  0.3764  0.1176 -0.2034
 2446ntf    nn315618   5.115   5.559   5.698 -0.3916 -0.5869 -0.3328
 2446ntf    sn215619   5.096   5.627   5.558  0.2478  0.0921 -0.0956
 2446ntf    cn115620   5.236   5.742   5.550  0.0111  0.3794 -0.1498
 2446ntf    fn415621   5.061   5.334   5.875 -0.3781  0.3076 -0.5081
 2446ntf    fn415622   5.224   5.429   5.961  0.2541 -0.1010 -0.1243
 2446ntf    fn415623   5.035   5.435   6.054  0.9869 -0.5543 -0.0375
 2446ntf    on515624   4.915   5.609   5.846  0.3417 -0.3002 -0.0310
 2446ntf    on515625   5.132   5.698   5.910  0.5205  0.2274 -0.5139
 2446ntf    on515626   4.988   5.723   5.552 -0.1102 -0.3197 -0.2777
 2446ntf    on515627   5.121   5.537   5.448  0.2782 -0.3888  0.3012
 2446ntf    fn415628   5.357   5.688   5.555 -0.0718  0.2063  0.0425
 2446ntf    fn415629   5.227   5.809   5.436  0.2443  0.0751 -0.3501
 2446ntf    fn415630   5.232   5.819   5.658  0.0051  0.0391  0.0948
 2447ntf    cn115631   0.725   0.358   3.001  0.4988 -0.4741 -0.0105
 2447ntf    sn215632   0.602   0.298   2.881  0.1468  0.1431  0.0375
 2447ntf    nn315633   0.569   0.417   2.783  0.4233  0.3066  0.1404
 2447ntf    sn215634   0.455   0.524   2.799  0.0679 -0.0119 -0.2330
 2447ntf    cn115635   0.552   0.662   2.732  0.3623 -0.2827 -0.3641
 2447ntf    fn415636   0.670   0.408   3.111  0.0067 -0.3897 -0.2885
 2447ntf    fn415637   0.812   0.269   3.045  0.4510 -0.3505  0.3346
 2447ntf    fn415638   0.808   0.451   2.960 -0.1568  0.2399  0.2553
 2447ntf    on515639   0.675   0.196   2.810 -0.1392 -0.2366  0.2850
 2447ntf    on515640   0.490   0.250   2.958 -0.3055  0.8948 -0.1369
 2447ntf    on515641   0.420   0.576   2.929 -0.2134 -0.0633 -0.2869
 2447ntf    on515642   0.356   0.504   2.696 -0.0215 -0.3831 -0.0788
 2447ntf    fn415643   0.486   0.776   2.730 -0.0331 -0.5013  0.0479
 2447ntf    fn415644   0.658   0.682   2.808 -0.1419  0.5092  0.1315
 2447ntf    fn415645   0.587   0.646   2.605  0.2465 -0.3685 -0.3847
 2448ntf    cn115646   0.825   5.360   2.902 -0.6635  0.1478 -0.0113
 2448ntf    sn215647   0.714   5.309   3.037 -0.0844  0.0279  0.4265
 2448ntf    nn315648   0.819   5.325   3.152  0.1382 -0.1042  0.2413
 2448ntf    sn215649   0.801   5.357   3.304 -0.1767 -0.4283  0.2724
 2448ntf    cn115650   0.848   5.193   3.369 -0.3356 -0.5722  0.0263
 2448ntf    fn415651   0.869   5.481   2.931  0.0668 -0.0668 -0.2012
 2448ntf    fn415652   0.928   5.279   2.884 -0.3041  0.4211  0.7858
 2448ntf    fn415653   0.755   5.368   2.790  0.2736 -0.0553 -0.6156
 2448ntf    on515654   0.614   5.414   3.032  0.1844  0.2584 -0.2036
 2448ntf    on515655   0.678   5.180   2.984  0.2621  0.1074 -0.0063
 2448ntf    on515656   0.667   5.381   3.353  0.1854  0.6075  0.7872
 2448ntf    on515657   0.907   5.442   3.352 -0.8603  0.6876 -0.1630
 2448ntf    fn415658   0.762   5.095   3.350 -0.3506 -0.5344 -0.1027
 2448ntf    fn415659   0.961   5.154   3.312  0.0050 -0.0267  0.3159
 2448ntf    fn415660   0.877   5.199   3.498 -0.3590  0.0005  0.0099
 2449ntf    cn115661   1.649   0.390   0.605  0.3488  0.5116  0.2219
 2449ntf    sn215662   1.533   0.521   0.656 -0.0227  0.1923  0.2049
 2449ntf    nn315663   1.613   0.649   0.610  0.5529 -0.3503 -0.3257
 2449ntf    sn215664   1.601   0.751   0.492 -0.0589  0.1421  0.1575
 2449ntf    cn115665   1.771   0.748   0.429 -0.0067 -0.3380  0.3190
 2449ntf    fn415666   1.613   0.266   0.633  0.4766  0.3824 -0.1807
 2449ntf    fn415667   1.666   0.386   0.474 -0.1911 -0.1480  0.1674
 2449ntf    fn415668   1.771   0.417   0.648  0.4411  0.3988  0.0277
 2449ntf    on515669   1.412   0.487   0.585 -0.1902  0.1889  0.4907
 2449ntf    on515670   1.527   0.504   0.799 -0.9317  0.2024  0.1709
 2449ntf    on515671   1.587   0.888   0.537 -0.5413 -0.1090  0.7827
 2449ntf    on515672   1.523   0.706   0.379 -0.0912 -0.7444  0.5281
 2449ntf    fn415673   1.867   0.755   0.521  0.3148  0.6847 -0.0725
 2449ntf    fn415674   1.789   0.632   0.369 -0.1120 -0.5281  0.6500
 2449ntf    fn415675   1.797   0.841   0.338  0.3255 -0.6046  0.1409
 2450ntf    cn115676   3.153   3.020   5.313 -0.1598  0.2379  0.1519
 2450ntf    sn215677   2.991   2.976   5.382 -0.0351 -0.0751  0.2477
 2450ntf    nn315678   2.989   3.052   5.520  0.2578 -0.0531  0.2398
 2450ntf    sn215679   2.905   3.024   5.649  0.0252  0.0953  0.1229
 2450ntf    cn115680   3.035   2.969   5.764  0.2170 -0.0156 -0.1455
 2450ntf    fn415681   3.159   3.138   5.254  0.1319 -0.0386 -0.3806
 2450ntf    fn415682   3.260   3.020   5.391 -0.2471 -0.1539  0.2763
 2450ntf    fn415683   3.186   2.945   5.208 -0.1974  0.2213  0.1519
 2450ntf    on515684   2.905   3.030   5.280  0.2754  0.1254  0.0916
 2450ntf    on515685   2.996   2.832   5.390 -0.2032 -0.0869  0.1351
 2450ntf    on515686   2.816   2.910   5.648  0.4211 -0.2145 -0.4200
 2450ntf    on515687   2.851   3.142   5.712 -0.1326 -0.0557  0.2708
 2450ntf    fn415688   3.155   3.007   5.725  0.1808 -0.0948 -0.3342
 2450ntf    fn415689   3.015   3.031   5.879  0.4431  0.1507 -0.1959
 2450ntf    fn415690   3.039   2.838   5.787 -0.9698  0.0037  0.2448
 2451ntf    cn115691   6.416   6.833   4.583  0.3457  0.4640  0.0224
 2451ntf    sn215692   6.541   6.732   4.669  0.3561  0.2655 -0.2250
 2451ntf    nn315693   6.578   6.627   4.559  0.0905 -0.1988  0.1254
 2451ntf    sn215694   6.696   6.633   4.455  0.1886  0.0868  0.2531
 2451ntf    cn115695   6.790   6.483   4.499 -0.1014 -0.0958  0.2545
 2451ntf    fn415696   6.304   6.769   4.554  0.2053  0.4793  0.5287
 2451ntf    fn415697   6.374   6.940   4.649 -0.0516  0.0869  0.3854
 2451ntf    fn415698   6.467   6.866   4.465  1.0350  0.0318  0.1901
 2451ntf    on515699   6.644   6.815   4.726 -0.0062  0.3437  0.3264
 2451ntf    on515700   6.466   6.663   4.771 -0.0356  0.3460 -0.4527
 2451ntf    on515701   6.800   6.730   4.477 -0.7262  1.1235  0.1043
 2451ntf    on515702   6.651   6.601   4.322 -0.2596  0.2908  0.3531
 2451ntf    fn415703   6.898   6.465   4.424 -0.5007  0.3059 -0.4406
 2451ntf    fn415704   6.832   6.477   4.624  0.6553 -0.4640 -0.0108
 2451ntf    fn415705   6.717   6.375   4.477  0.1355 -0.0650 -0.7419
 2452ntf    cn115706   6.372   2.542   3.402 -0.0124 -0.1341  0.0952
 2452ntf    sn215707   6.355   2.398   3.511 -0.2723 -0.0536  0.1607
 2452ntf    nn315708   6.493   2.330   3.480 -0.2771  0.0965 -0.1996
 2452ntf    sn215709   6.523   2.180   3.445  0.3344  0.2347 -0.2883
 2452ntf    cn115710   6.704   2.186   3.463  0.2987 -0.2038  0.2423
 2452ntf    fn415711   6.414   2.501   3.283  0.0748 -0.1998  0.1486
 2452ntf    fn415712   6.260   2.607   3.375  0.0393 -0.1708 -0.2151
 2452ntf    fn415713   6.465   2.626   3.445  0.1571 -0.1536 -0.2247
 2452ntf    on515714   6.335   2.478   3.629 -0.5028  0.0719  0.0368
 2452ntf    on515715   6.244   2.322   3.458 -0.0644  0.0781 -0.4732
 2452ntf    on515716   6.503   2.150   3.305 -0.3107  0.2387 -0.2029
 2452ntf    on515717   6.485   2.083   3.545  0.9776  0.3447  0.0701
 2452ntf    fn415718   6.750   2.247   3.571 -0.4171  0.3499  0.2443
 2452ntf    fn415719   6.757   2.065   3.462 -0.0913 -0.3765 -0.4184
 2452ntf    fn415720   6.767   2.259   3.372  0.4109 -0.1317  0.3777
 2453ntf    cn115721   4.651   2.587   0.618 -0.2831  0.3645 -0.1993
 2453ntf    sn215722   4.683   2.509   0.457 -0.1918  0.0465 -0.0299
 2453ntf    nn315723   4.592   2.382   0.469 -0.2638  0.0878 -0.1313
 2453ntf    sn215724   4.438   2.375   0.442 -0.2697  0.0933 -0.1012
 2453ntf    cn115725   4.397   2.247   0.565 -0.3366 -0.1580 -0.3848
 2453ntf    fn415726   4.690   2.519   0.725 -0.1077  0.1873 -0.3761
 2453ntf    fn415727   4.704   2.708   0.621  0.6885 -0.0487 -0.2097
 2453ntf    fn415728   4.522   2.608   0.638 -0.4533 -0.5560 -0.2693
 2453ntf    on515729   4.640   2.600   0.353 -0.0080 -0.2068 -0.3305
 2453ntf    on515730   4.824   2.483   0.465 -0.0488  0.6859 -0.3492
 2453ntf    on515731   4.406   2.317   0.314  1.2292  0.1050 -0.4967
 2453ntf    on515732   4.358   2.484   0.493 -0.2570  0.0894 -0.0737
 2453ntf    fn415733   4.434   2.124   0.534  0.1329 -0.1213  0.0299
 2453ntf    fn415734   4.448   2.272   0.684 -0.2211 -0.2833 -0.4078
 2453ntf    fn415735   4.266   2.239   0.580 -0.2952  0.1409  0.1449
 2454ntf    cn115736   4.261   1.081   4.214 -0.1416  0.1827  0.0117
 2454ntf    sn215737   4.312   1.252   4.178  0.1241  0.1240  0.1051
 2454ntf    nn315738   4.418   1.231   4.065  0.1627  0.3667  0.0956
 2454ntf    sn215739   4.569   1.274   4.059  0.2125  0.2065  0.1839
 2454ntf    cn115740   4.585   1.358   3.899 -0.6719 -0.3146 -0.1881
 2454ntf    fn415741   4.368   1.017   4.259  0.0879  0.2029 -0.4900
 2454ntf    fn415742   4.161   1.065   4.298 -0.5664 -0.1323 -0.5466
 2454ntf    fn415743   4.220   1.036   4.096  0.4756 -0.4302  0.0253
 2454ntf    on515744   4.191   1.311   4.128  0.3040  0.3172 -0.0983
 2454ntf    on515745   4.363   1.299   4.304  0.7085  0.4071 -0.2358
 2454ntf    on515746   4.657   1.163   4.037  0.2388  0.1178  0.7223
 2454ntf    on515747   4.612   1.381   4.145  0.5598 -0.2156  0.5360
 2454ntf    fn415748   4.505   1.463   3.885 -0.1384  0.0906 -0.2459
 2454ntf    fn415749   4.709   1.398   3.877 -0.6900  0.0263  0.3119
 2454ntf    fn415750   4.554   1.275   3.801  0.3479 -0.8049 -0.1023
 2455ntf    cn115751   1.810   2.738   4.531 -0.0753  0.1460 -0.2866
 2455ntf    sn215752   1.728   2.645   4.398  0.0347  0.0197 -0.2659
 2455ntf    nn315753   1.835   2.636   4.283  0.0530  0.5722 -0.2957
 2455ntf    sn215754   1.850   2.529   4.170 -0.1239  0.0310  0.1834
 2455ntf    cn115755   1.964   2.413   4.251 -0.0544  0.1525  0.2603
 2455ntf    fn415756   1.850   2.860   4.497 -0.0606  0.3649  0.4930
 2455ntf    fn415757   1.737   2.751   4.640  0.4673 -0.3643  0.1402
 2455ntf    fn415758   1.919   2.673   4.566 -0.3845 -0.2727 -0.0833
 2455ntf    on515759   1.690   2.521   4.461  0.4251  0.0084 -0.0514
 2455ntf    on515760   1.620   2.725   4.346 -0.1660  0.0093  0.1289
 2455ntf    on515761   1.926   2.575   4.056 -0.1209  0.2535  0.2751
 2455ntf    on515762   1.729   2.453   4.149 -0.0917 -0.0749  0.3774
 2455ntf    fn415763   2.003   2.318   4.167  0.0838  0.1978  0.2737
 2455ntf    fn415764   2.069   2.478   4.296  0.1554  0.1464 -0.2120
 2455ntf    fn415765   1.908   2.348   4.351 -0.4089  0.1415  0.0573
 2456ntf    cn115766   5.408   0.375   1.228  0.2951 -0.1665  0.4724
 2456ntf    sn215767   5.358   0.548   1.251  0.1416 -0.1570  0.0554
 2456ntf    nn315768   5.375   0.575   1.404  0.0762 -0.5220  0.1273
 2456ntf    sn215769   5.272   0.589   1.522 -0.0568  0.0533 -0.0586
 2456ntf    cn115770   5.264   0.771   1.525 -0.6499  0.0361 -0.3084
 2456ntf    fn415771   5.528   0.349   1.280  0.3396 -0.3355  0.2847
 2456ntf    fn415772   5.322   0.298   1.293  0.1830  0.1984  0.7645
 2456ntf    fn415773   5.410   0.335   1.102 -0.5893  0.4851  0.2410
 2456ntf    on515774   5.450   0.614   1.162 -0.2841 -0.0759 -0.3316
 2456ntf    on515775   5.222   0.543   1.203  0.2387 -0.0567 -0.2382
 2456ntf    on515776   5.336   0.549   1.644  0.2520  0.2777 -0.1441
 2456ntf    on515777   5.136   0.546   1.501  0.0591 -0.2640 -0.1701
 2456ntf    fn415778   5.380   0.827   1.557 -0.3761 -0.5371 -0.2898
 2456ntf    fn415779   5.212   0.822   1.414 -0.4134  0.1861 -0.3529
 2456ntf    fn415780   5.181   0.822   1.613  0.4087  0.4569  0.4727
 2457ntf    cn115781   0.694   1.333   3.454  0.3983  0.1085 -0.3409
 2457ntf    sn215782   0.815   1.414   3.345  0.5074  0.2454 -0.1204
 2457ntf    nn315783   0.742   1.546   3.301 -0.0472  0.0316  0.1479
 2457ntf    sn215784   0.793   1.656   3.202  0.0350  0.0941  0.2601
 2457ntf    cn115785   0.754   1.587   3.039  0.1557 -0.1020  0.3137
 2457ntf    fn415786   0.729   1.209   3.487  0.0795  0.1168  0.0372
 2457ntf    fn415787   0.677   1.401   3.566  0.2953 -0.2981 -0.1081
 2457ntf    fn415788   0.575   1.307   3.404  0.2257  0.0611  0.0853
 2457ntf    on515789   0.928   1.426   3.434  0.3648  0.9485 -0.0275
 2457ntf    on515790   0.827   1.317   3.239  0.1535  0.0678 -0.0003
 2457ntf    on515791   0.935   1.680   3.195  0.1049 -0.3960 -0.0365
 2457ntf    on515792   0.710   1.774   3.202  0.1698  0.1946 -0.3339
 2457ntf    fn415793   0.817   1.636   2.933  0.0891 -0.0407  0.3024
 2457ntf    fn415794   0.786   1.459   3.034 -0.6802 -0.3352  0.6020
 2457ntf    fn415795   0.624   1.592   3.011  0.2729  0.1325 -0.2088
 2458ntf    cn115796   3.892   0.454   2.605  0.2904  0.3671 -0.1310
 2458ntf    sn215797   4.019   0.582   2.623  0.3339  0.3030  0.0131
 2458ntf    nn315798   4.072   0.552   2.768  0.1736 -0.1786 -0.0283
 2458ntf    sn215799   4.179   0.628   2.854  0.0034  0.1004 -0.0620
 2458ntf    cn115800   4.087   0.662   3.007 -0.0080 -0.3261  0.0286
 2458ntf    fn415801   3.853   0.446   2.478  0.5444 -0.3433 -0.1700
 2458ntf    fn415802   3.932   0.331   2.633  0.2429  0.2585 -0.5264
 2458ntf    fn415803   3.786   0.483   2.679  0.5218 -0.1338  0.4042
 2458ntf    on515804   4.115   0.539   2.525  0.7842  0.5876  0.3213
 2458ntf    on515805   3.947   0.705   2.602  0.1591  0.1050 -0.5660
 2458ntf    on515806   4.209   0.760   2.804  0.8419  0.0701  0.3516
 2458ntf    on515807   4.288   0.543   2.895  0.0652  0.4984  0.6216
 2458ntf    fn415808   4.060   0.551   3.073  0.7341 -0.6636 -0.2348
 2458ntf    fn415809   4.151   0.748   3.085 -0.9123  0.4810 -0.0951
 2458ntf    fn415810   3.966   0.709   2.980  0.2962  0.2294 -0.3804
 2459ntf    cn115811   3.183   4.572   3.899 -0.1092 -0.6226 -0.0278
 2459ntf    sn215812   3.340   4.522   3.976 -0.1109 -0.2201  0.2410
 2459ntf    nn315813   3.340   4.616   4.102 -0.3767  0.6326 -0.3828
 2459ntf    sn215814   3.255   4.606   4.233 -0.0608  0.0702 -0.2175
 2459ntf    cn115815   3.150   4.754   4.221 -0.0391  0.1320  0.3092
 2459ntf    fn415816   3.073   4.549   3.968 -0.1746  0.0939  0.1158
 2459ntf    fn415817   3.175   4.700   3.867  0.5411 -0.2182  1.3473
 2459ntf    fn415818   3.170   4.499   3.790 -0.2773 -0.5953 -0.0254
 2459ntf    on515819   3.336   4.380   3.999  0.4903 -0.3391 -0.3482
 2459ntf    on515820   3.442   4.574   3.888 -0.2872 -0.0166  0.1549
 2459ntf    on515821   3.335   4.632   4.350 -0.0658 -0.1069 -0.1740
 2459ntf    on515822   3.170   4.489   4.233 -0.1141  0.1079 -0.6398
 2459ntf    fn415823   3.223   4.862   4.243 -0.6963  0.5423  0.4779
 2459ntf    fn415824   3.106   4.766   4.097  0.1017 -0.5873  0.1840
 2459ntf    fn415825   3.042   4.762   4.296 -0.3101 -0.1277 -0.0454
 2460ntf    cn115826   5.792   0.134   5.146  0.0393  0.0022 -0.0580
 2460ntf    sn215827   5.665   0.155   5.275  0.1014  0.3328 -0.0513
 2460ntf    nn315828   5.753   0.104   5.394  0.4472  0.3504 -0.2956
 2460ntf    sn215829   5.741  -0.020   5.489  0.2035  0.5025 -0.1241
 2460ntf    cn115830   5.572  -0.015   5.555  0.1408 -0.0943 -0.2315
 2460ntf    fn415831   5.903   0.198   5.173 -0.0271  0.1981 -0.2463
 2460ntf    fn415832   5.814   0.005   5.127  0.2201  0.0173  0.0546
 2460ntf    fn415833   5.743   0.185   5.034 -0.3184 -0.1150  0.0437
 2460ntf    on515834   5.631   0.295   5.272 -0.3655  0.2233  0.1064
 2460ntf    on515835   5.558   0.071   5.228 -0.0485  0.5544 -0.1103
 2460ntf    on515836   5.819  -0.006   5.610  0.1718 -0.5012  0.0234
 2460ntf    on515837   5.753  -0.144   5.416 -0.3938 -0.2441  1.0233
 2460ntf    fn415838   5.541   0.102   5.608 -0.4188 -0.5283  0.4112
 2460ntf    fn415839   5.479  -0.043   5.465  0.0750  0.5256 -0.3584
 2460ntf    fn415840   5.564  -0.107   5.650 -0.1648 -0.2425 -0.3978
 2461ntf    cn115841   5.025   6.448   6.416 -0.0705 -0.2165 -0.5785
 2461ntf    sn215842   4.895   6.532   6.320  0.0205  0.2799 -0.2723
 2461ntf    nn315843   4.946   6.488   6.178  0.3853 -0.6420  0.1351
 2461ntf    sn215844   4.976   6.574   6.050 -0.1162 -0.2987  0.2469
 2461ntf    cn115845   5.157   6.586   6.058 -0.1120 -0.2513  0.0789
 2461ntf    fn415846   4.998   6.472   6.543  0.3167 -0.2689 -0.4864
 2461ntf    fn415847   5.025   6.317   6.399  0.3235 -0.2699 -0.1770
 2461ntf    fn415848   5.144   6.499   6.390  0.0136  0.1984  0.5566
 2461ntf    on515849   4.771   6.464   6.345  0.4112 -0.3359  0.0288
 2461ntf    on515850   4.907   6.672   6.352  0.3250  0.2558 -0.2770
 2461ntf    on515851   4.925   6.709   6.041  0.5138 -0.0985 -0.4736
 2461ntf    on515852   4.947   6.492   5.935 -0.5140  0.0060  0.1257
 2461ntf    fn415853   5.199   6.645   6.169  0.1239 -0.2957  0.0147
 2461ntf    fn415854   5.210   6.465   6.059 -0.3123 -0.3330  0.4636
 2461ntf    fn415855   5.214   6.649   5.956  0.3012 -0.0188  0.4491
 2462ntf    cn115856   6.200   1.809   5.169  0.1493 -0.0849 -0.2504
 2462ntf    sn215857   6.081   1.933   5.229  0.2863 -0.2010  0.2700
 2462ntf    nn315858   6.170   2.008   5.334  0.0530 -0.4440  0.6438
 2462ntf    sn215859   6.270   2.129   5.323 -0.2583 -0.2231  0.2247
 2462ntf    cn115860   6.176   2.254   5.416 -0.1996 -0.2443  0.3123
 2462ntf    fn415861   6.167   1.771   5.047 -0.4423 -0.3700 -0.0094
 2462ntf    fn415862   6.321   1.860   5.174  0.0549  0.1386 -0.2204
 2462ntf    fn415863   6.197   1.703   5.248  0.3887  0.0360 -0.0804
 2462ntf    on515864   6.029   2.004   5.115 -0.3857 -0.8634  0.1547
 2462ntf    on515865   5.986   1.852   5.301 -0.1456  0.3881  0.3729
 2462ntf    on515866   6.297   2.181   5.191 -0.5210  0.2876  0.3692
 2462ntf    on515867   6.385   2.103   5.405  0.0286 -0.0112 -0.1081
 2462ntf    fn415868   6.130   2.208   5.531 -0.4035  0.3024  0.4517
 2462ntf    fn415869   6.242   2.365   5.443 -0.2125 -0.1411 -0.0702
 2462ntf    fn415870   6.068   2.292   5.349  0.0059 -0.2903 -0.0516
 2463ntf    cn115871   5.143   1.278   2.142  0.3152  0.2829  0.3680
 2463ntf    sn215872   4.997   1.174   2.112  0.4081  0.2548  0.0010
 2463ntf    nn315873   4.900   1.298   2.117 -0.3723 -0.3827  1.2304
 2463ntf    sn215874   4.747   1.307   2.079 -0.1016 -0.3220  0.1139
 2463ntf    cn115875   4.753   1.373   1.910  0.2612 -0.2020  0.1727
 2463ntf    fn415876   5.161   1.390   2.075 -0.5463  0.2646  0.1032
 2463ntf    fn415877   5.157   1.322   2.265  0.0886  0.0318  0.4849
 2463ntf    fn415878   5.255   1.210   2.118  0.2030  0.3404 -0.3627
 2463ntf    on515879   5.023   1.119   1.982 -0.7112 -0.1083 -0.0836
 2463ntf    on515880   4.992   1.088   2.228  0.7594 -0.6601 -0.6527
 2463ntf    on515881   4.672   1.406   2.151  0.2733  0.2161 -0.2255
 2463ntf    on515882   4.684   1.178   2.067  0.5550 -0.6536  0.1358
 2463ntf    fn415883   4.805   1.289   1.821 -0.3185 -0.0510 -0.3135
 2463ntf    fn415884   4.633   1.399   1.861 -0.2031 -0.5761  1.0838
 2463ntf    fn415885   4.827   1.482   1.918 -0.0631  0.0029  0.3551
 2464ntf    cn115886   5.221   5.387   4.089 -0.1119  0.2455 -0.0332
 2464ntf    sn215887   5.377   5.469   4.135  0.0192  0.0935 -0.2043
 2464ntf    nn315888   5.473   5.416   4.023  0.5136  0.3927  0.0740
 2464ntf    sn215889   5.554   5.282   4.010  0.1641  0.1661  0.2134
 2464ntf    cn115890   5.698   5.327   4.112  0.2674  0.1647  0.0687
 2464ntf    fn415891   5.114   5.443   4.142 -0.1525 -0.3776  0.5610
 2464ntf    fn415892   5.201   5.399   3.958  0.4966  0.4360 -0.1149
 2464ntf    fn415893   5.216   5.261   4.129  0.1566  0.2750  0.0977
 2464ntf    on515894   5.344   5.609   4.133  0.7764  0.2789 -0.0142
 2464ntf    on515895   5.420   5.422   4.264  0.4149  0.3629 -0.2364
 2464ntf    on515896   5.619   5.257   3.884 -0.0305 -0.5484  0.2515
 2464ntf    on515897   5.505   5.160   4.069  0.2522 -0.2088 -0.4744
 2464ntf    fn415898   5.809   5.267   4.073  0.1913 -0.1141  0.2789
 2464ntf    fn415899   5.728   5.456   4.105  0.3333  0.1254 -0.3946
 2464ntf    fn415900   5.686   5.292   4.239  0.1695 -0.0567 -0.0015
 2465ntf    cn115901   1.731   3.409   6.671  0.0990 -0.2148 -0.2335
 2465ntf    sn215902   1.795   3.561   6.746  0.1816 -0.2573 -0.2181
 2465ntf    nn315903   1.736   3.553   6.892 -0.3663 -0.3295 -0.4420
 2465ntf    sn215904   1.609   3.626   6.949  0.0342  0.2382 -0.2637
 2465ntf    cn115905   1.671   3.796   6.963 -0.6485  0.4962 -0.3357
 2465ntf    fn415906   1.739   3.396   6.539 -0.7193 -0.4254 -0.2694
 2465ntf    fn415907   1.800   3.310   6.724  0.1570  0.0050  0.0994
 2465ntf    fn415908   1.603   3.397   6.703  0.0072  0.0105 -0.5072
 2465ntf    on515909   1.938   3.546   6.735  0.2386  0.2712 -0.2494
 2465ntf    on515910   1.739   3.670   6.671 -0.3799 -0.0009  0.5525
 2465ntf    on515911   1.582   3.596   7.087  0.6863  0.5683 -0.0658
 2465ntf    on515912   1.492   3.639   6.865 -0.6560  0.2894  0.6969
 2465ntf    fn415913   1.801   3.810   6.979 -0.6390  0.2706 -0.2207
 2465ntf    fn415914   1.654   3.852   6.844 -0.3304  0.5021 -0.3777
 2465ntf    fn415915   1.619   3.878   7.053 -0.1731 -0.7136  1.0758
 2466ntf    cn115916   2.607   2.266   6.751  0.0342 -0.3501  0.0670
 2466ntf    sn215917   2.621   2.286   6.932 -0.0769  0.0340  0.0348
 2466ntf    nn315918   2.760   2.221   6.964 -0.0093  0.1758  0.0304
 2466ntf    sn215919   2.772   2.086   7.044  0.2622 -0.0758 -0.4248
 2466ntf    cn115920   2.768   2.143   7.217 -0.0212  0.1008 -0.4877
 2466ntf    fn415921   2.708   2.326   6.689  0.1026 -0.4310  0.1006
 2466ntf    fn415922   2.612   2.138   6.719 -0.2814 -0.3822  0.1480
 2466ntf    fn415923   2.494   2.306   6.694  0.3827 -0.0134 -0.3961
 2466ntf    on515924   2.639   2.428   6.951  0.1337 -0.0435  0.4125
 2466ntf    on515925   2.497   2.235   6.984  0.0255  0.1389  0.3808
 2466ntf    on515926   2.908   2.041   7.034  0.3521 -0.1057  0.7086
 2466ntf    on515927   2.669   1.986   7.031  0.1463 -0.0503  0.2394
 2466ntf    fn415928   2.785   2.039   7.298 -0.6300  0.2586 -0.1539
 2466ntf    fn415929   2.863   2.229   7.250 -0.0428 -0.0446 -0.0377
 2466ntf    fn415930   2.656   2.206   7.248  0.5303  0.6883  0.3809
 2467ntf    cn115931   5.481   3.593   4.657  0.0721 -0.1943  0.6396
 2467ntf    sn215932   5.573   3.439   4.630  0.0869 -0.0533 -0.1327
 2467ntf    nn315933   5.569   3.403   4.477  0.0588 -0.3342 -0.0658
 2467ntf    sn215934   5.562   3.258   4.416 -0.2665 -0.3537  0.0155
 2467ntf    cn115935   5.690   3.274   4.288 -0.3144 -0.1969 -0.0121
 2467ntf    fn415936   5.516   3.651   4.771  0.3166  0.2323  0.3501
 2467ntf    fn415937   5.503   3.683   4.562 -0.2208  0.2447  0.9773
 2467ntf    fn415938   5.350   3.572   4.661  0.0450 -0.3215 -0.4951
 2467ntf    on515939   5.706   3.469   4.676  0.0469 -0.0932  0.0058
 2467ntf    on515940   5.493   3.345   4.705 -0.0960  0.3533  0.1860
 2467ntf    on515941   5.444   3.220   4.342  0.0916 -0.6737 -0.3927
 2467ntf    on515942   5.615   3.152   4.498  0.1138 -0.2374 -0.0776
 2467ntf    fn415943   5.645   3.377   4.218 -0.1486  0.0149  0.1891
 2467ntf    fn415944   5.811   3.298   4.337 -0.0007 -0.6729 -0.5465
 2467ntf    fn415945   5.704   3.167   4.213  0.3344  0.1268 -0.3607
 2468ntf    cn115946   0.444   1.856   1.462 -0.4061  0.0844 -0.0740
 2468ntf    sn215947   0.435   1.901   1.638 -0.2625 -0.1001 -0.0185
 2468ntf    nn315948   0.585   1.879   1.682 -0.1835  0.0773 -0.1961
 2468ntf    sn215949   0.714   1.967   1.671 -0.1890  0.1150  0.0419
 2468ntf    cn115950   0.718   2.068   1.822 -0.3766  0.3690 -0.1234
 2468ntf    fn415951   0.337   1.894   1.394 -0.4240 -0.6768 -0.4845
 2468ntf    fn415952   0.549   1.919   1.413 -0.4078 -0.1621 -0.3966
 2468ntf    fn415953   0.470   1.727   1.446 -0.1125  0.1096  0.1784
 2468ntf    on515954   0.398   2.041   1.639 -0.2847 -0.1076  0.1560
 2468ntf    on515955   0.338   1.814   1.699 -0.1834 -0.0012  0.2515
 2468ntf    on515956   0.716   2.072   1.572 -0.3144  0.1802  0.1085
 2468ntf    on515957   0.830   1.885   1.695 -0.2626 -0.0626 -0.2089
 2468ntf    fn415958   0.711   2.001   1.935  0.3988  0.2350 -0.1532
 2468ntf    fn415959   0.822   2.150   1.831  0.0097 -0.1968  0.6903
 2468ntf    fn415960   0.611   2.146   1.821 -0.6239  0.0300  0.0653
 2469ntf    cn115961   4.883   6.723   2.692 -0.2947  0.1502 -0.3100
 2469ntf    sn215962   4.900   6.889   2.619 -0.1738  0.2661 -0.0195
 2469ntf    nn315963   4.750   6.933   2.623 -0.4308 -0.5866 -0.0240
 2469ntf    sn215964   4.640   6.966   2.515 -0.2128 -0.1958 -0.1300
 2469ntf    cn115965   4.610   7.144   2.530  0.0772 -0.1457 -0.1313
 2469ntf    fn415966   4.759   6.680   2.672 -0.2880 -0.3416  0.6524
 2469ntf    fn415967   4.971   6.641   2.638 -0.3473 -0.1597  0.0726
 2469ntf    fn415968   4.900   6.720   2.823  0.1129  0.4217 -0.3569
 2469ntf    on515969   4.978   6.972   2.707 -0.1775  0.1011  0.1405
 2469ntf    on515970   4.954   6.865   2.487  0.0978  0.3567  0.0742
 2469ntf    on515971   4.515   6.906   2.554 -0.0942 -0.2111  0.2318
 2469ntf    on515972   4.681   6.955   2.377 -0.1261  0.0536 -0.1238
 2469ntf    fn415973   4.716   7.221   2.511 -0.0633  0.1761  0.3573
 2469ntf    fn415974   4.524   7.191   2.441 -0.0461 -0.6560 -0.2834
 2469ntf    fn415975   4.557   7.176   2.648 -0.3766 -0.4646 -0.2461
 2470ntf    cn115976   0.573   2.805   1.665  0.0840 -0.3794  0.2139
 2470ntf    sn215977   0.435   2.703   1.726 -0.1299 -0.1326  0.1450
 2470ntf    nn315978   0.341   2.810   1.792 -0.3927 -0.2992  0.0367
 2470ntf    sn215979   0.212   2.887   1.746 -0.2206 -0.0212  0.0210
 2470ntf    cn115980   0.282   3.044   1.685 -0.2298  0.0114  0.0943
 2470ntf    fn415981   0.531   2.893   1.575  0.6453 -0.0211  0.2927
 2470ntf    fn415982   0.624   2.888   1.755 -0.1183 -0.0911  0.0668
 2470ntf    fn415983   0.674   2.733   1.620 -0.1331 -0.4197 -0.2114
 2470ntf    on515984   0.391   2.656   1.598  0.0866  0.3336 -0.1055
 2470ntf    on515985   0.488   2.604   1.817 -0.0765  0.0075  0.2688
 2470ntf    on515986   0.128   2.925   1.857  0.4867  0.4209  0.4121
 2470ntf    on515987   0.140   2.841   1.630  0.1063  0.6750 -0.4667
 2470ntf    fn415988   0.324   3.041   1.560  0.1344  0.3738  0.2094
 2470ntf    fn415989   0.202   3.149   1.694  0.0225  0.2216 -0.1156
 2470ntf    fn415990   0.382   3.076   1.764 -0.1334 -0.2791  0.0922
 2471ntf    cn115991   1.915   2.575   3.090 -0.1207 -0.1397  0.0648
 2471ntf    sn215992   1.764   2.475   3.077 -0.1171 -0.1622  0.1883
 2471ntf    nn315993   1.806   2.343   3.150  0.2037 -0.0247  0.2536
 2471ntf    sn215994   1.763   2.200   3.101 -0.3107  0.2536 -0.1179
 2471ntf    cn115995   1.690   2.143   3.257 -0.1060  0.2753 -0.0139
 2471ntf    fn415996   2.010   2.532   3.009  0.3256  0.3201  0.3411
 2471ntf    fn415997   1.893   2.701   3.054  0.1003 -0.0434  0.2628
 2471ntf    fn415998   1.952   2.579   3.217 -0.2317 -0.5034  0.1076
 2471ntf    on515999   1.663   2.558   3.138  0.0387  0.1172  0.0684
 2471ntf    on516000   1.751   2.474   2.933  0.5504  0.2810  0.1230
 2471ntf    on516001   1.879   2.115   3.085 -0.2527  0.4083 -0.5496
 2471ntf    on516002   1.651   2.191   3.010 -0.2919 -0.4295 -0.0816
 2471ntf    fn416003   1.773   2.147   3.359 -0.0225  0.2973 -0.0828
 2471ntf    fn416004   1.588   2.218   3.296  0.3660  0.5206  0.7533
 2471ntf    fn416005   1.655   2.015   3.247  0.0442  0.2031  0.3592
 2472ntf    cn116006   3.108   4.495   1.043  0.5020  0.0989  0.3621
 2472ntf    sn216007   2.940   4.439   1.083  0.4458  0.1224  0.1627
 2472ntf    nn316008   2.855   4.570   1.080 -0.1333 -0.2575 -0.1863
 2472ntf    sn216009   2.699   4.578   1.061 -0.1704 -0.2198  0.1280
 2472ntf    cn116010   2.662   4.606   0.885 -0.1146  0.1211  0.1687
 2472ntf    fn416011   3.153   4.587   1.126 -0.1027  0.9383 -0.2274
 2472ntf    fn416012   3.197   4.401   1.017  0.7054  0.4611 -0.2961
 2472ntf    fn416013   3.113   4.556   0.926  0.6469  0.0553  0.3456
 2472ntf    on516014   2.903   4.351   0.975  0.0321  0.1383  0.2884
 2472ntf    on516015   2.950   4.376   1.212 -0.5388  0.6346  0.4930
 2472ntf    on516016   2.639   4.697   1.116 -0.1467 -0.5198  0.8044
 2472ntf    on516017   2.622   4.458   1.081 -0.9741  0.1250 -0.7971
 2472ntf    fn416018   2.694   4.497   0.817 -0.1333  0.1269  0.1500
 2472ntf    fn416019   2.533   4.628   0.867 -0.0652  0.3066  0.0425
 2472ntf    fn416020   2.732   4.702   0.827 -0.3005  0.1244 -0.0508
 2473ntf    cn116021   2.454   3.817   5.196 -0.0042  0.1754  0.3552
 2473ntf    sn216022   2.543   3.691   5.099 -0.2246  0.2647  0.0365
 2473ntf    nn316023   2.654   3.799   5.072  0.2215 -0.1624  0.1441
 2473ntf    sn216024   2.779   3.845   5.154  0.0655  0.1371  0.2166
 2473ntf    cn116025   2.899   3.761   5.046 -0.3253 -0.1514  0.0066
 2473ntf    fn416026   2.427   3.919   5.117  0.5392  0.1865  0.1782
 2473ntf    fn416027   2.347   3.771   5.258 -0.1727 -0.2250 -0.2186
 2473ntf    fn416028   2.524   3.872   5.294  0.0306  0.1023  0.3713
 2473ntf    on516029   2.579   3.593   5.198  0.0883  0.5598  0.2179
 2473ntf    on516030   2.457   3.657   4.988  0.2370 -0.0643 -0.2252
 2473ntf    on516031   2.795   3.776   5.280  0.1873 -0.5126 -0.1511
 2473ntf    on516032   2.810   3.985   5.145  0.8795 -0.0269  0.3809
 2473ntf    fn416033   2.860   3.731   4.923  0.1601  0.2398 -0.2439
 2473ntf    fn416034   3.014   3.825   5.054 -0.5033  0.1361  0.2742
 2473ntf    fn416035   2.914   3.639   5.095 -0.4451 -0.1897 -0.0486
 2474ntf    cn116036   2.529   6.034   5.261 -0.0330  0.1558 -0.1142
 2474ntf    sn216037   2.629   6.056   5.111  0.1105 -0.1215 -0.0596
 2474ntf    nn316038   2.766   6.088   5.180  0.1677  0.0691 -0.2606
 2474ntf    sn216039   2.819   6.226   5.235  0.2095 -0.1446  0.2442
 2474ntf    cn116040   2.884   6.303   5.084 -0.3486 -0.0459  0.0516
 2474ntf    fn416041   2.569   5.931   5.334 -0.3318 -0.0799 -0.2784
 2474ntf    fn416042   2.540   6.135   5.345  0.5884  0.1704 -0.2135
 2474ntf    fn416043   2.399   6.011   5.250 -0.0071 -0.3211  0.5158
 2474ntf    on516044   2.619   5.921   5.061 -0.5202 -0.3432  0.6498
 2474ntf    on516045   2.569   6.162   5.034 -0.2709 -0.1752  0.1618
 2474ntf    on516046   2.933   6.213   5.322  0.1889  0.0271  0.2974
 2474ntf    on516047   2.709   6.308   5.280  0.5132  0.0613  0.6086
 2474ntf    fn416048   2.794   6.341   4.994 -0.0906  0.4006 -0.0215
 2474ntf    fn416049   2.958   6.408   5.114 -0.0924 -0.2753  0.2221
 2474ntf    fn416050   2.973   6.233   5.015  0.0291  0.0472  0.4388
 2475ntf    cn116051   4.469   2.742   5.512  0.0102  0.7695  0.1923
 2475ntf    sn216052   4.515   2.752   5.688  0.3060 -0.0535  0.1699
 2475ntf    nn316053   4.447   2.622   5.744 -0.4329 -0.1151 -0.8284
 2475ntf    sn216054   4.320   2.610   5.836  0.0495  0.2112 -0.1109
 2475ntf    cn116055   4.316   2.435   5.886  0.0096  0.1263 -0.4151
 2475ntf    fn416056   4.339   2.744   5.490  0.0656  0.2530 -0.2150
 2475ntf    fn416057   4.519   2.835   5.433 -0.4280  0.3964 -0.5380
 2475ntf    fn416058   4.511   2.632   5.452 -0.5587  0.7898 -0.2488
 2475ntf    on516059   4.657   2.730   5.680  0.2526 -0.6474  0.7800
 2475ntf    on516060   4.464   2.880   5.731 -0.0039 -0.1564  0.1120
 2475ntf    on516061   4.199   2.614   5.758 -0.0490 -0.4652  0.0024
 2475ntf    on516062   4.320   2.685   5.960  0.3149  0.3412 -0.1876
 2475ntf    fn416063   4.307   2.363   5.775  0.5825 -0.2329 -0.2317
 2475ntf    fn416064   4.422   2.390   5.950  0.1410  0.0257 -0.6980
 2475ntf    fn416065   4.209   2.413   5.960  0.3174  0.4191  0.1234
 2476ntf    cn116066   1.845   3.893   2.803  0.0473 -0.0609 -0.5911
 2476ntf    sn216067   1.751   3.768   2.895  0.3486  0.2245  0.1080
 2476ntf    nn316068   1.860   3.737   3.004 -0.3634 -0.3584  0.6625
 2476ntf    sn216069   1.919   3.606   3.066  0.3501 -0.1398  0.4540
 2476ntf    cn116070   2.034   3.557   2.935  0.0126 -0.0226  0.1133
 2476ntf    fn416071   1.862   4.005   2.872 -0.0892 -0.1167 -0.4666
 2476ntf    fn416072   1.968   3.855   2.772  0.1564 -0.1332 -0.0671
 2476ntf    fn416073   1.789   3.927   2.688 -0.1661 -0.2190 -0.5346
 2476ntf    on516074   1.640   3.850   2.938  0.3166  0.2252  0.0241
 2476ntf    on516075   1.713   3.669   2.798  0.7087  0.2258 -0.0334
 2476ntf    on516076   1.814   3.508   3.083 -0.1091  0.3343  0.3473
 2476ntf    on516077   1.996   3.628   3.186 -0.2623 -0.0105  0.8294
 2476ntf    fn416078   1.979   3.544   2.815  0.6029 -0.0369 -0.1619
 2476ntf    fn416079   2.144   3.630   2.925 -0.2475  0.3748  0.1443
 2476ntf    fn416080   2.076   3.433   2.954  0.0759  0.0664  0.5653
 2477ntf    cn116081   5.919   0.751   3.375  0.1010  0.1567  0.0988
 2477ntf    sn216082   5.933   0.579   3.431  0.0710  0.2147  0.2848
 2477ntf    nn316083   5.966   0.488   3.308  0.2967  0.5866  0.0689
 2477ntf    sn216084   6.091   0.469   3.215  0.0405 -0.0601 -0.1467
 2477ntf    cn116085   6.008   0.395   3.072 -0.0449 -0.2021 -0.0240
 2477ntf    fn416086   6.033   0.790   3.321 -0.2369  0.0945 -0.6845
 2477ntf    fn416087   5.825   0.758   3.281  0.0778 -0.1581  0.1004
 2477ntf    fn416088   5.873   0.829   3.472 -0.2495  0.2382 -0.1277
 2477ntf    on516089   6.044   0.581   3.523  0.1502  0.3512  0.1883
 2477ntf    on516090   5.803   0.547   3.483  0.1114 -0.0679  0.2150
 2477ntf    on516091   6.184   0.366   3.256 -0.6138 -0.5059  0.2284
 2477ntf    on516092   6.151   0.582   3.150 -0.2606  0.3575  0.3004
 2477ntf    fn416093   5.919   0.484   3.030 -0.6567 -0.6654  0.2735
 2477ntf    fn416094   6.079   0.355   2.967  0.1653 -0.0442  0.0590
 2477ntf    fn416095   5.933   0.291   3.107 -0.2396 -0.0634 -0.0253
 2478ntf    cn116096   4.616   4.705   6.708  0.1818 -0.4288 -0.5665
 2478ntf    sn216097   4.461   4.660   6.624 -0.1366 -0.2293 -0.0881
 2478ntf    nn316098   4.433   4.804   6.568  0.0827  0.0268  0.4493
 2478ntf    sn216099   4.312   4.896   6.608  0.0163  0.0471  0.2015
 2478ntf    cn116100   4.355   5.057   6.535 -0.4334  0.0328 -0.0942
 2478ntf    fn416101   4.638   4.631   6.815  0.3508 -0.2332 -0.4665
 2478ntf    fn416102   4.716   4.676   6.626  0.2577  0.3769 -0.7718
 2478ntf    fn416103   4.616   4.836   6.731  0.0899 -0.5968  0.4150
 2478ntf    on516104   4.510   4.565   6.527  0.0863  0.0571 -0.2560
 2478ntf    on516105   4.377   4.608   6.730 -0.0307  0.2516  0.2359
 2478ntf    on516106   4.318   4.924   6.749  0.9085  0.1910  0.1428
 2478ntf    on516107   4.184   4.858   6.554  0.1341 -0.0742  0.0060
 2478ntf    fn416108   4.257   5.142   6.564 -0.2798  0.2021 -0.0705
 2478ntf    fn416109   4.464   5.109   6.587 -0.3303 -0.0272 -0.2502
 2478ntf    fn416110   4.370   5.053   6.404  0.2758 -0.8632  0.0087
 2479ntf    cn116111   0.635   4.893   0.517 -0.1282  0.0859 -0.0220
 2479ntf    sn216112   0.569   4.948   0.677  0.1169  0.1649  0.0532
 2479ntf    nn316113   0.694   5.034   0.717  0.2234  0.5254 -1.0169
 2479ntf    sn216114   0.702   5.186   0.755  0.2307  0.2299  0.2049
 2479ntf    cn116115   0.837   5.234   0.643  0.1214  0.4656  0.1723
 2479ntf    fn416116   0.694   4.777   0.541  0.4547  0.3512 -0.1414
 2479ntf    fn416117   0.538   4.872   0.430 -0.0472 -0.4197  0.0054
 2479ntf    fn416118   0.730   4.974   0.471  0.0339 -0.1996 -0.1938
 2479ntf    on516119   0.442   5.012   0.652 -0.0055 -0.1509 -0.1295
 2479ntf    on516120   0.556   4.827   0.753  0.1254 -0.2403 -0.5861
 2479ntf    on516121   0.764   5.198   0.885  0.5113 -0.2045  0.1151
 2479ntf    on516122   0.590   5.273   0.726 -0.0173 -0.1556  0.0008
 2479ntf    fn416123   0.948   5.164   0.661 -0.2669 -0.3048 -0.3292
 2479ntf    fn416124   0.811   5.222   0.514 -0.0445  0.2474  0.2248
 2479ntf    fn416125   0.870   5.361   0.659  0.1869  0.5068 -0.2754
 2480ntf    cn116126   6.016   1.372   5.074  0.1830 -0.2683 -0.2084
 2480ntf    sn216127   5.886   1.273   5.153 -0.1101  0.0791 -0.2543
 2480ntf    nn316128   5.900   1.302   5.306  0.1372  0.0788 -0.2773
 2480ntf    sn216129   5.823   1.405   5.396 -0.0035 -0.0170 -0.2875
 2480ntf    cn116130   5.739   1.304   5.521  0.5157 -0.2918 -0.1569
 2480ntf    fn416131   6.136   1.337   5.118  0.3742  0.4727 -0.1118
 2480ntf    fn416132   6.014   1.356   4.942  0.0728 -0.5277 -0.1747
 2480ntf    fn416133   5.994   1.499   5.103 -0.1963 -0.2660 -0.4994
 2480ntf    on516134   5.775   1.339   5.088 -0.2352  0.2149  0.0965
 2480ntf    on516135   5.917   1.136   5.122 -1.0933 -0.3718  0.7282
 2480ntf    on516136   5.713   1.484   5.346 -0.1421  0.1332  0.2505
 2480ntf    on516137   5.918   1.476   5.478 -0.2372 -0.2953  0.2254
 2480ntf    fn416138   5.652   1.218   5.471 -0.0913  0.0132  0.3599
 2480ntf    fn416139   5.824   1.229   5.590  0.3851 -0.0889  0.2318
 2480ntf    fn416140   5.671   1.375   5.610 -0.3342 -0.4150 -0.6914
 2481ntf    cn116141   4.803   0.419   5.297  0.0905  0.0743  0.3943
 2481ntf    sn216142   4.664   0.325   5.226 -0.0404  0.2703  0.3913
 2481ntf    nn316143   4.731   0.189   5.187 -0.6945  0.1284 -0.2711
 2481ntf    sn216144   4.772   0.136   5.045  0.1068  0.1873 -0.0702
 2481ntf    cn116145   4.611   0.096   4.970  0.1332  0.0512 -0.0545
 2481ntf    fn416146   4.759   0.517   5.374 -0.2615  0.2089  0.0243
 2481ntf    fn416147   4.879   0.337   5.367 -0.3273 -0.5980  0.0789
 2481ntf    fn416148   4.875   0.482   5.206  0.2974 -0.4806  0.1659
 2481ntf    on516149   4.571   0.303   5.334 -0.0266  0.2978  0.4085
 2481ntf    on516150   4.610   0.400   5.115  0.4183 -0.3188 -0.2404
 2481ntf    on516151   4.840   0.010   5.063  0.4567  0.3876  0.0078
 2481ntf    on516152   4.828   0.235   4.956 -0.0657 -0.1086 -0.5108
 2481ntf    fn416153   4.547   0.206   4.934  0.2178  0.1434  0.0765
 2481ntf    fn416154   4.619   0.018   4.863 -0.0927  0.1351 -0.1336
 2481ntf    fn416155   4.534   0.034   5.057  0.1173  0.2969  0.1081
 2482ntf    cn116156   1.000   5.354   1.574 -0.0964  0.0227  0.0994
 2482ntf    sn216157   0.843   5.328   1.661 -0.1188 -0.1230  0.0151
 2482ntf    nn316158   0.745   5.382   1.551 -0.0273  0.0219  0.0038
 2482ntf    sn216159   0.681   5.525   1.547  0.3698  0.2020  0.0658
 2482ntf    cn116160   0.538   5.513   1.659  0.6485 -0.0739  0.3937
 2482ntf    fn416161   1.017   5.483   1.550  0.5522 -0.1388 -0.3407
 2482ntf    fn416162   1.108   5.313   1.638  0.1252  0.0609 -0.2441
 2482ntf    fn416163   0.998   5.293   1.456 -0.1539 -0.1424  0.1867
 2482ntf    on516164   0.835   5.186   1.687  0.0516 -0.1742 -0.2082
 2482ntf    on516165   0.865   5.412   1.776 -0.0818  0.0594 -0.1246
 2482ntf    on516166   0.620   5.538   1.417  0.3186 -0.4868  0.0183
 2482ntf    on516167   0.765   5.632   1.594  0.2203  0.1878  0.3680
 2482ntf    fn416168   0.434   5.466   1.594  0.8359 -0.5912  0.4636
 2482ntf    fn416169   0.545   5.424   1.757 -0.8793 -0.4090  0.2172
 2482ntf    fn416170   0.495   5.629   1.707 -0.1124 -0.4126  0.5431
 2483ntf    cn116171   2.154   1.669   0.229 -0.3014  0.0295  0.0731
 2483ntf    sn216172   2.111   1.664   0.053 -0.0876  0.1300  0.0174
 2483ntf    nn316173   2.156   1.517   0.021 -0.1274  0.0398  0.3741
 2483ntf    sn216174   2.071   1.394  -0.029  0.0401 -0.0299  0.2595
 2483ntf    cn116175   2.085   1.425  -0.208  0.4943  0.0706  0.3094
 2483ntf    fn416176   2.280   1.638   0.254 -0.4316  0.0590  0.8002
 2483ntf    fn416177   2.131   1.787   0.286 -0.5204 -0.1883  0.4379
 2483ntf    fn416178   2.082   1.590   0.306  0.3007 -0.6000 -0.0059
 2483ntf    on516179   1.971   1.694   0.040 -0.2302 -0.3849  0.3406
 2483ntf    on516180   2.202   1.758  -0.008 -0.5299  0.3603 -0.2902
 2483ntf    on516181   1.929   1.391  -0.008 -0.0173 -0.6618 -0.1848
 2483ntf    on516182   2.140   1.268  -0.011  0.2397  0.0407  0.0015
 2483ntf    fn416183   2.210   1.426  -0.249  0.1938  0.1561 -0.6163
 2483ntf    fn416184   2.027   1.327  -0.277  0.8974  0.1809 -0.1866
 2483ntf    fn416185   2.027   1.537  -0.247 -0.0480 -0.3272 -0.0589
 2484ntf    cn116186   0.225   5.072   3.917  0.0496 -0.1942  0.0836
 2484ntf    sn216187   0.100   4.955   3.858  0.4490 -0.6430  0.1178
 2484ntf    nn316188  -0.003   4.981   3.974  0.3467 -0.1424 -0.0823
 2484ntf    sn216189  -0.117   4.888   4.030  0.3912 -0.1974 -0.0832
 2484ntf    cn116190  -0.030   4.806   4.167 -0.0819  0.1462  0.4253
 2484ntf    fn416191   0.185   5.197   3.933  0.7213  0.0247  0.1092
 2484ntf    fn416192   0.254   5.037   4.042 -0.5507 -0.1561  0.2357
 2484ntf    fn416193   0.339   5.068   3.850  0.0660 -0.1064  0.1059
 2484ntf    on516194   0.066   5.013   3.730 -0.0922  0.2587  0.6608
 2484ntf    on516195   0.172   4.830   3.857  0.3565 -0.6960  0.0889
 2484ntf    on516196  -0.167   4.778   3.952  0.0612 -0.3292  0.3165
 2484ntf    on516197  -0.213   4.976   4.092  0.6975 -0.2320  0.4380
 2484ntf    fn416198   0.048   4.889   4.234  0.3714 -0.2770  0.4268
 2484ntf    fn416199  -0.117   4.753   4.252  0.2646 -0.2932  0.5068
 2484ntf    fn416200   0.046   4.710   4.119 -0.6046 -0.1057  0.0845
 2485ntf    cn116201   5.584   4.109   2.566 -0.2883 -0.1681  0.4537
 2485ntf    sn216202   5.562   4.023   2.724 -0.1551 -0.1824  0.4644
 2485ntf    nn316203   5.523   3.881   2.670  0.2468  0.1429 -0.6948
 2485ntf    sn216204   5.382   3.820   2.638  0.1665  0.1230 -0.3104
 2485ntf    cn116205   5.343   3.745   2.798 -0.0521  0.0778 -0.3854
 2485ntf    fn416206   5.697   4.078   2.505 -0.2117  0.4815  0.2581
 2485ntf    fn416207   5.492   4.079   2.476 -0.1458 -0.1824  0.3130
 2485ntf    fn416208   5.572   4.241   2.573  0.2702 -0.0455 -0.7661
 2485ntf    on516209   5.697   4.004   2.772  0.1154  0.4257 -0.0447
 2485ntf    on516210   5.467   4.101   2.800 -0.2119 -0.5745  0.8038
 2485ntf    on516211   5.407   3.713   2.545  0.4507 -0.1121  0.0353
 2485ntf    on516212   5.278   3.917   2.614 -0.0603  0.0310  0.2958
 2485ntf    fn416213   5.441   3.669   2.844 -0.6567 -0.4317  0.0837
 2485ntf    fn416214   5.309   3.833   2.890  0.3534 -0.0411 -0.1201
 2485ntf    fn416215   5.242   3.661   2.782  0.0148 -0.0361 -0.2157
 2486ntf    cn116216   4.639   3.884   0.181  0.3963  0.2924  0.2806
 2486ntf    sn216217   4.640   4.025   0.065  0.2613  0.2198  0.1914
 2486ntf    nn316218   4.534   3.964  -0.034  0.1874 -0.0955  0.4608
 2486ntf    sn216219   4.558   3.876  -0.162  0.3549  0.1843  0.2994
 2486ntf    cn116220   4.435   3.745  -0.135  0.4485  0.0711  0.1738
 2486ntf    fn416221   4.521   3.825   0.186  0.4231  0.1759 -0.3879
 2486ntf    fn416222   4.729   3.792   0.151  0.0389 -0.1632  0.5831
 2486ntf    fn416223   4.663   3.920   0.306 -0.0719 -0.2360  0.5257
 2486ntf    on516224   4.590   4.127   0.154 -0.3538 -0.1498  0.2783
 2486ntf    on516225   4.775   4.031   0.018  0.1270  0.5244 -0.1529
 2486ntf    on516226   4.683   3.805  -0.168 -0.1296 -0.6472 -0.1992
 2486ntf    on516227   4.522   3.942  -0.285  0.0261 -0.3050  0.1306
 2486ntf    fn416228   4.309   3.773  -0.161  0.3348 -0.5485  0.0402
 2486ntf    fn416229   4.463   3.636  -0.205 -0.2943 -0.4167  0.6161
 2486ntf    fn416230   4.437   3.703  -0.010 -0.4337 -0.1508  0.1220
 2487ntf    cn116231   2.170   2.769   5.060 -0.1201  0.0427 -0.2910
 2487ntf    sn216232   2.105   2.767   5.230  0.4482  0.0209 -0.0721
 2487ntf    nn316233   2.185   2.888   5.290  0.2055  0.1033  0.0833
 2487ntf    sn216234   2.139   3.038   5.296 -0.4139 -0.0788 -0.0459
 2487ntf    cn116235   2.027   3.028   5.439 -0.0764 -0.0702  0.2197
 2487ntf    fn416236   2.299   2.739   5.063 -0.1379 -0.0015  0.1231
 2487ntf    fn416237   2.099   2.689   4.983 -0.2414 -0.0652 -0.0676
 2487ntf    fn416238   2.161   2.888   5.004  0.7910  0.4122  0.3303
 2487ntf    on516239   1.963   2.783   5.215  0.3274 -0.3441  0.6537
 2487ntf    on516240   2.146   2.639   5.282 -0.5403 -0.4564 -0.4401
 2487ntf    on516241   2.055   3.086   5.188  0.4067  0.4294 -0.4656
 2487ntf    on516242   2.240   3.127   5.346 -0.6885  0.6872 -0.8230
 2487ntf    fn416243   2.098   3.024   5.550  0.2142  0.3692  0.0527
 2487ntf    fn416244   1.952   3.137   5.440 -0.3503 -0.2585  0.2358
 2487ntf    fn416245   1.951   2.920   5.439 -0.1139 -0.0436  0.2351
 2488ntf    cn116246   6.118   4.278   4.914  0.1381 -0.1494  0.1695
 2488ntf    sn216247   6.102   4.400   4.780 -0.0290 -0.3523  0.0027
 2488ntf    nn316248   6.052   4.529   4.855  0.0865 -0.1578 -0.2546
 2488ntf    sn216249   6.135   4.658   4.888 -0.1643 -0.0256 -0.1401
 2488ntf    cn116250   6.131   4.753   4.733  0.3125 -0.0643 -0.1768
 2488ntf    fn416251   6.160   4.161   4.867  0.2046  0.0068 -0.1614
 2488ntf    fn416252   6.200   4.322   5.007 -0.2413  0.2272  0.3287
 2488ntf    fn416253   5.997   4.271   4.967  0.0480  0.0531 -0.0074
 2488ntf    on516254   6.233   4.405   4.720 -0.1523  0.0436 -0.2360
 2488ntf    on516255   6.003   4.352   4.687 -0.2894  0.6458 -0.2536
 2488ntf    on516256   6.275   4.637   4.913 -0.1471  0.0667 -0.1573
 2488ntf    on516257   6.069   4.744   4.983 -0.3350 -0.2000 -0.1000
 2488ntf    fn416258   6.207   4.860   4.719  0.3670 -0.0853 -0.0409
 2488ntf    fn416259   6.155   4.676   4.628  0.3669  0.1199 -0.3008
 2488ntf    fn416260   6.009   4.797   4.707  0.3355  0.1461  0.0639
 2489ntf    cn116261   1.787   4.957   3.188 -0.0786 -0.0396 -0.3049
 2489ntf    sn216262   1.956   4.891   3.189  0.0069  0.1810  0.1114
 2489ntf    nn316263   2.034   5.000   3.108  0.4370  0.0488  0.3434
 2489ntf    sn216264   2.165   5.071   3.158  0.4084  0.1441  0.2829
 2489ntf    cn116265   2.249   5.077   2.997 -0.0043  0.4112  0.0741
 2489ntf    fn416266   1.774   5.068   3.260  0.1148 -0.3490  0.2114
 2489ntf    fn416267   1.741   4.981   3.067 -0.5478  0.0058 -0.1192
 2489ntf    fn416268   1.693   4.879   3.238  0.1182 -0.1000 -0.0234
 2489ntf    on516269   1.988   4.889   3.330  0.0539  0.0033  0.0987
 2489ntf    on516270   1.939   4.770   3.112 -0.1674  0.1039  0.2708
 2489ntf    on516271   2.254   4.994   3.241  0.6074 -0.1037 -0.1541
 2489ntf    on516272   2.146   5.211   3.186  0.8029  0.3776 -0.5803
 2489ntf    fn416273   2.179   5.146   2.909 -0.0595 -0.0976 -0.2900
 2489ntf    fn416274   2.365   5.142   2.997  0.4906 -0.4468 -0.3549
 2489ntf    fn416275   2.274   4.960   2.939 -0.4272  0.4573 -0.2048
 2490ntf    cn116276   4.520   4.662   2.667  0.1190 -0.0900  0.1269
 2490ntf    sn216277   4.427   4.726   2.809 -0.1150  0.1435 -0.1314
 2490ntf    nn316278   4.496   4.864   2.839 -0.2099  0.2305 -0.3096
 2490ntf    sn216279   4.483   4.955   2.966  0.0307  0.1850 -0.2525
 2490ntf    cn116280   4.647   4.924   3.040 -0.0928  0.2751  0.0595
 2490ntf    fn416281   4.640   4.612   2.690 -0.0699 -0.3982  0.4617
 2490ntf    fn416282   4.454   4.566   2.602  0.1422  0.1690 -0.2806
 2490ntf    fn416283   4.537   4.755   2.575  0.9855 -0.2158  0.1539
 2490ntf    on516284   4.293   4.726   2.755 -0.5041  0.1522  0.8195
 2490ntf    on516285   4.453   4.632   2.915  0.0892  0.2650 -0.0723
 2490ntf    on516286   4.380   4.926   3.062  0.0465  0.1332 -0.2504
 2490ntf    on516287   4.487   5.095   2.934  0.8936  0.0349 -0.8420
 2490ntf    fn416288   4.657   4.803   3.092 -0.4922  0.1456 -0.1567
 2490ntf    fn416289   4.740   4.929   2.947 -0.0889 -0.2697  0.0319
 2490ntf    fn416290   4.691   5.018   3.122  0.0601 -0.3247  0.6669
 2491ntf    cn116291   5.501   2.632   6.530  0.1947  0.0749  0.1450
 2491ntf    sn216292   5.422   2.572   6.682 -0.2147 -0.1152 -0.1386
 2491ntf    nn316293   5.271   2.588   6.643 -0.2730 -0.0268  0.1210
 2491ntf    sn216294   5.183   2.716   6.667 -0.1452  0.0362  0.2582
 2491ntf    cn116295   5.106   2.666   6.823 -0.1375  0.0014  0.2511
 2491ntf    fn416296   5.482   2.760   6.505  0.4140  0.0946  0.0834
 2491ntf    fn416297   5.633   2.622   6.524  0.1827 -0.2328  0.4022
 2491ntf    fn416298   5.468   2.558   6.425  0.4085  0.1454  0.0278
 2491ntf    on516299   5.466   2.435   6.692  0.4234  0.0587 -0.4890
 2491ntf    on516300   5.469   2.651   6.794  0.0286 -1.3691  0.6625
 2491ntf    on516301   5.070   2.720   6.577  0.1295  0.0182 -0.0920
 2491ntf    on516302   5.255   2.839   6.691  0.6346 -0.2970 -0.3097
 2491ntf    fn416303   5.058   2.542   6.821  0.5052 -0.2507  0.0957
 2491ntf    fn416304   5.182   2.675   6.931  0.1112  0.1896  0.0583
 2491ntf    fn416305   5.006   2.748   6.850  0.1608  0.6243 -0.5204
 2492ntf    cn116306   4.877   3.059   3.641 -0.0931 -0.3233  0.0612
 2492ntf    sn216307   4.859   3.004   3.813 -0.2158 -0.1211  0.1127
 2492ntf    nn316308   5.000   2.938   3.831 -0.4817 -0.5982  0.4677
 2492ntf    sn216309   5.075   2.898   3.963  0.2542  0.2194  0.3033
 2492ntf    cn116310   4.945   2.847   4.079  0.1665 -0.4118 -0.0699
 2492ntf    fn416311   4.927   2.973   3.553 -0.1068  0.4234 -0.6882
 2492ntf    fn416312   4.770   3.102   3.576 -0.3140 -0.5801  0.2511
 2492ntf    fn416313   4.963   3.159   3.636 -0.1932 -0.2491 -0.1666
 2492ntf    on516314   4.821   3.122   3.887  0.5629  0.2876 -0.1293
 2492ntf    on516315   4.757   2.904   3.794 -0.7347  0.5117 -0.5155
 2492ntf    on516316   5.141   3.008   4.030 -0.0508  0.7299 -0.2270
 2492ntf    on516317   5.144   2.773   3.947  0.3852  0.3311 -0.0161
 2492ntf    fn416318   4.990   2.767   4.175 -0.1222 -0.7366 -0.2041
 2492ntf    fn416319   4.897   2.955   4.138  0.3489 -0.2752 -0.1694
 2492ntf    fn416320   4.844   2.784   4.022  0.2901 -0.4630 -0.2331
 2493ntf    cn116321   4.059   6.223   6.237 -0.1759  0.0565 -0.0575
 2493ntf    sn216322   4.210   6.178   6.147 -0.1864  0.0416 -0.0677
 2493ntf    nn316323   4.200   6.269   6.020 -0.1485 -0.5070 -0.4658
 2493ntf    sn216324   4.318   6.345   5.948 -0.0341 -0.1954  0.0474
 2493ntf    cn116325   4.276   6.303   5.776  0.1642  0.4274 -0.1549
 2493ntf    fn416326   3.948   6.211   6.165  0.0678 -0.6386 -0.3260
 2493ntf    fn416327   4.041   6.157   6.350  0.2625  0.0926  0.0352
 2493ntf    fn416328   4.059   6.349   6.280 -0.4593  0.0467 -0.0211
 2493ntf    on516329   4.308   6.223   6.243 -0.2054  0.2829 -0.1600
 2493ntf    on516330   4.205   6.039   6.111  0.6460  0.0318 -0.1604
 2493ntf    on516331   4.448   6.287   5.969 -0.0598 -0.1093  0.4528
 2493ntf    on516332   4.307   6.488   5.958  0.7212 -0.1124 -0.3144
 2493ntf    fn416333   4.150   6.332   5.750 -0.0119  0.3772  0.6053
 2493ntf    fn416334   4.339   6.378   5.687 -0.0544  0.2342 -0.4728
 2493ntf    fn416335   4.289   6.175   5.743 -0.5571  0.3458 -0.1415
 2494ntf    cn116336   6.597   5.288   1.806 -0.0207 -0.3163  0.0861
 2494ntf    sn216337   6.550   5.241   1.975  0.2415  0.2866  0.3308
 2494ntf    nn316338   6.693   5.225   2.038  0.4229  0.0052 -0.1535
 2494ntf    sn216339   6.736   5.125   2.151 -0.3935  0.0025  0.1602
 2494ntf    cn116340   6.789   4.981   2.052  0.0677  0.2218  0.0834
 2494ntf    fn416341   6.675   5.395   1.795 -0.3601 -0.1046 -0.2593
 2494ntf    fn416342   6.652   5.187   1.741  0.3210  0.0760 -0.2404
 2494ntf    fn416343   6.499   5.324   1.725  0.1083  0.3924  0.2363
 2494ntf    on516344   6.475   5.356   2.021 -0.5046  0.0304 -0.2339
 2494ntf    on516345   6.475   5.120   1.958 -0.1256  0.5535  0.0398
 2494ntf    on516346   6.634   5.065   2.233  0.4774 -0.0699  1.2112
 2494ntf    on516347   6.859   5.167   2.212 -0.3547 -0.3673  0.3401
 2494ntf    fn416348   6.697   4.951   1.962  0.2921 -0.6852  0.1508
 2494ntf    fn416349   6.898   4.998   1.980  0.1961 -0.2535  0.1640
 2494ntf    fn416350   6.796   4.876   2.132  0.7113 -0.1523 -0.4608
 2495ntf    cn116351   2.068   3.015   2.116  0.1704  0.1670  0.0593
 2495ntf    sn216352   1.958   2.934   2.236  0.2714 -0.2739 -0.1452
 2495ntf    nn316353   1.903   3.066   2.302  0.3636 -0.3258  0.0383
 2495ntf    sn216354   1.855   3.079   2.451 -0.2252 -0.0765 -0.1722
 2495ntf    cn116355   2.014   3.106   2.535 -0.2527 -0.8483  0.1337
 2495ntf    fn416356   2.005   3.106   2.043 -0.0219 -0.0538 -0.0479
 2495ntf    fn416357   2.161   3.086   2.178 -0.2479  0.6247  0.1769
 2495ntf    fn416358   2.122   2.927   2.034  0.2303  0.0376  0.2360
 2495ntf    on516359   1.856   2.872   2.156 -0.3708  0.7263 -0.1192
 2495ntf    on516360   2.044   2.854   2.321  0.1228 -0.2678  0.0126
 2495ntf    on516361   1.819   2.956   2.516  0.2764 -0.2680 -0.2538
 2495ntf    on516362   1.787   3.202   2.484  0.1193  0.2297 -0.5899
 2495ntf    fn416363   2.091   3.003   2.566  0.2080 -0.3814  0.5551
 2495ntf    fn416364   2.092   3.174   2.453 -0.1630 -0.1546  0.7866
 2495ntf    fn416365   1.994   3.176   2.646  0.3539 -0.2728 -0.1152
 2496ntf    cn116366   3.107   6.028   6.906  0.3662  0.1888 -0.0319
 2496ntf    sn216367   3.243   5.983   7.018 -0.0393 -0.0269  0.3778
 2496ntf    nn316368   3.193   5.843   7.069 -0.0336 -0.0926  0.2061
 2496ntf    sn216369   3.232   5.702   7.012 -0.4614 -0.0173 -0.2837
 2496ntf    cn116370   3.197   5.609   7.164  0.1559  0.2405  0.0240
 2496ntf    fn416371   3.103   5.950   6.800 -0.2766 -0.3075  0.3539
 2496ntf    fn416372   2.989   6.033   6.966  0.5603 -0.3952  0.4068
 2496ntf    fn416373   3.121   6.152   6.861  0.1361 -0.1028 -0.9147
 2496ntf    on516374   3.365   5.981   6.940 -0.0625  0.1252  0.3378
 2496ntf    on516375   3.227   6.088   7.115  0.3241 -0.0770  0.4940
 2496ntf    on516376   3.374   5.679   6.995 -0.3310  0.5713 -0.0082
 2496ntf    on516377   3.136   5.656   6.915 -0.4935  1.2191 -0.8548
 2496ntf    fn416378   3.075   5.628   7.213 -0.0860 -0.4762 -0.2833
 2496ntf    fn416379   3.216   5.479   7.149 -0.1929  0.2534 -0.5460
 2496ntf    fn416380   3.273   5.633   7.270  0.1529  0.1365  0.0502
 2497ntf    cn116381   3.779   6.059   5.528  0.3428 -0.1647  0.3431
 2497ntf    sn216382   3.796   6.062   5.347 -0.0714  0.2353  0.3075
 2497ntf    nn316383   3.949   6.094   5.342 -0.0024 -0.0383  0.6374
 2497ntf    sn216384   4.075   6.000   5.346 -0.0645 -0.1641 -0.2194
 2497ntf    cn116385   4.129   6.018   5.173 -0.1071 -0.3091 -0.2482
 2497ntf    fn416386   3.810   6.176   5.581 -0.6126  0.1544  0.2158
 2497ntf    fn416387   3.651   6.047   5.558  0.2713 -0.0281  0.1042
 2497ntf    fn416388   3.852   5.966   5.586  0.2624 -0.5925 -0.2269
 2497ntf    on516389   3.764   5.932   5.293 -0.2106  0.2825  0.2760
 2497ntf    on516390   3.717   6.173   5.297 -0.0036  0.0442 -0.2376
 2497ntf    on516391   4.055   5.859   5.367  0.5287 -0.2437 -0.1820
 2497ntf    on516392   4.183   6.063   5.418 -0.0349 -0.1768 -0.2528
 2497ntf    fn416393   4.236   5.950   5.134 -0.0787 -0.0034 -0.7182
 2497ntf    fn416394   4.023   5.982   5.103 -0.0816 -0.2652 -0.3108
 2497ntf    fn416395   4.144   6.146   5.143  0.4561 -0.1671  0.5897
 2498ntf    cn116396   4.086   6.763   1.872  0.0111  0.4464  0.0255
 2498ntf    sn216397   3.997   6.688   2.011  0.2391 -0.1852 -0.1664
 2498ntf    nn316398   3.949   6.556   1.940 -0.0505 -0.2057  0.0621
 2498ntf    sn216399   3.863   6.442   2.005 -0.1431 -0.0702  0.1771
 2498ntf    cn116400   3.997   6.323   2.034 -0.1881 -0.1103  0.2227
 2498ntf    fn416401   4.190   6.689   1.837 -0.4553 -0.1715 -0.0680
 2498ntf    fn416402   4.006   6.778   1.768  0.2808  0.5095 -0.1749
 2498ntf    fn416403   4.146   6.878   1.898  0.4371  0.1757  0.2517
 2498ntf    on516404   4.106   6.664   2.102  0.3910  0.0128 -0.2944
 2498ntf    on516405   3.898   6.787   2.049  0.3798  0.0855 -0.5031
 2498ntf    on516406   3.784   6.377   1.904 -0.4320  0.5791 -0.0220
 2498ntf    on516407   3.814   6.457   2.140  0.4903 -0.4912  0.4600
 2498ntf    fn416408   4.076   6.327   1.927 -0.1965  0.9058  0.2468
 2498ntf    fn416409   4.073   6.360   2.136  0.1307  0.0817 -0.0814
 2498ntf    fn416410   3.951   6.202   2.064  0.5411 -0.3028  0.5918
 2499ntf    cn116411   3.541   3.862   3.285 -0.2075  0.2110  0.0253
 2499ntf    sn216412   3.664   3.937   3.396  0.3175 -0.3460 -0.1787
 2499ntf    nn316413   3.577   3.930   3.527 -0.1550  0.2451 -0.4543
 2499ntf    sn216414   3.612   3.899   3.677 -0.5252  0.3722 -0.3411
 2499ntf    cn116415   3.601   3.718   3.672  0.0670  0.3018  0.6225
 2499ntf    fn416416   3.502   3.739   3.313 -0.4688  0.2354 -0.2270
 2499ntf    fn416417   3.434   3.940   3.279 -0.4055 -0.0723 -0.1541
 2499ntf    fn416418   3.585   3.856   3.161  0.3578 -0.1641  0.2454
 2499ntf    on516419   3.777   3.848   3.390  0.2710 -0.4501  0.3936
 2499ntf    on516420   3.680   4.071   3.346 -0.2345 -0.2572 -0.1248
 2499ntf    on516421   3.521   3.946   3.778 -0.6530 -0.4350 -0.0755
 2499ntf    on516422   3.751   3.925   3.709 -0.5476 -0.2209  0.2672
 2499ntf    fn416423   3.486   3.668   3.631  0.2287  0.4992 -0.0864
 2499ntf    fn416424   3.693   3.667   3.592 -0.0618 -0.0449  0.6917
 2499ntf    fn416425   3.636   3.664   3.788 -0.2097 -0.0466  0.5453
 2500ntf    cn116426   6.271   0.549   4.103  0.5464  0.3024  0.2310
 2500ntf    sn216427   6.290   0.708   4.018 -0.0096  0.1985 -0.0849
 2500ntf    nn316428   6.426   0.764   4.072  0.0438  0.1241 -0.1399
 2500ntf    sn216429   6.457   0.859   4.193  0.4960  0.0190 -0.1741
 2500ntf    cn116430   6.419   1.027   4.136  0.3935  0.0303 -0.0723
 2500ntf    fn416431   6.259   0.574   4.233 -0.5504 -0.2045  0.2420
 2500ntf    fn416432   6.164   0.484   4.060  0.5312  0.5004 -0.0327
 2500ntf    fn416433   6.372   0.465   4.085  0.4794  0.3318 -0.2787
 2500ntf    on516434   6.295   0.682   3.876  0.0779 -0.0899 -0.0299
 2500ntf    on516435   6.178   0.781   4.073 -0.3631 -0.4489  0.0655
 2500ntf    on516436   6.600   0.864   4.211  0.4390 -0.1440  0.3296
 2500ntf    on516437   6.383   0.847   4.316  0.4965  0.4218 -0.1341
 2500ntf    fn416438   6.295   1.034   4.089  0.2117  0.5068  0.4575
 2500ntf    fn416439   6.448   1.122   4.224 -0.3054  0.3018 -0.1219
 2500ntf    fn416440   6.495   1.063   4.033  0.6526 -0.2973  0.0057
 2501ntf    cn116441   5.876   4.843   3.135 -0.2031  0.1179 -0.2867
 2501ntf    sn216442   5.908   4.709   3.254 -0.0017  0.2420 -0.2007
 2501ntf    nn316443   5.836   4.586   3.188  0.1110 -0.4287  0.9114
 2501ntf    sn216444   5.884   4.436   3.184  0.1862 -0.3862  0.0426
 2501ntf    cn116445   6.005   4.433   3.048  0.1267 -0.0371 -0.0199
 2501ntf    fn416446   5.978   4.856   3.052 -0.0495  0.2683 -0.0715
 2501ntf    fn416447   5.763   4.827   3.067  0.1996  0.1942 -0.9805
 2501ntf    fn416448   5.865   4.961   3.194 -0.0592  0.0755 -0.1760
 2501ntf    on516449   6.051   4.704   3.266  0.0211  0.0043 -0.5611
 2501ntf    on516450   5.841   4.754   3.373 -0.2318  0.3292 -0.3622
 2501ntf    on516451   5.781   4.344   3.143  0.4117 -0.4774 -0.3254
 2501ntf    on516452   5.966   4.397   3.296  0.1003  0.4516  0.4053
 2501ntf    fn416453   6.126   4.476   3.078  0.2936 -0.3572 -0.2246
 2501ntf    fn416454   6.021   4.308   3.006 -0.2860 -0.1480  0.1467
 2501ntf    fn416455   5.974   4.502   2.939  0.0818  0.1579  0.1154
 2502ntf    cn116456   1.716   4.005   4.805  0.1306  0.0078 -0.1745
 2502ntf    sn216457   1.726   4.186   4.815 -0.2474  0.0191  0.0103
 2502ntf    nn316458   1.581   4.216   4.762 -0.4870 -0.1837  0.5421
 2502ntf    sn216459   1.512   4.352   4.726  0.1548 -0.0246 -0.1090
 2502ntf    cn116460   1.434   4.306   4.569 -0.0970  0.0231  0.0017
 2502ntf    fn416461   1.822   3.937   4.845 -0.1797 -0.6466 -0.4447
 2502ntf    fn416462   1.612   3.954   4.869  0.5375 -0.0131  0.4792
 2502ntf    fn416463   1.700   3.966   4.679 -0.2695 -0.4038  0.0035
 2502ntf    on516464   1.729   4.215   4.956 -0.0842 -0.4086  0.0955
 2502ntf    on516465   1.837   4.213   4.727 -0.0955  0.0683  0.2168
 2502ntf    on516466   1.594   4.467   4.697 -0.1883  0.2068 -0.1683
 2502ntf    on516467   1.401   4.392   4.809  0.0940 -0.3656 -0.0287
 2502ntf    fn416468   1.521   4.256   4.482 -0.1527 -0.3906  0.1816
 2502ntf    fn416469   1.333   4.221   4.580 -0.3378  0.2453 -0.4642
 2502ntf    fn416470   1.381   4.410   4.506 -0.0643 -0.2774 -0.5358
 2503ntf    cn116471   2.922   4.911   0.835  0.1176 -0.1028 -0.4301
 2503ntf    sn216472   3.031   5.044   0.777  0.1139  0.0415 -0.1092
 2503ntf    nn316473   3.067   5.101   0.918 -0.1589 -0.2468  0.0778
 2503ntf    sn216474   3.209   5.153   0.963 -0.1826 -0.1605  0.0522
 2503ntf    cn116475   3.205   5.331   0.925 -0.2535 -0.1645  0.0405
 2503ntf    fn416476   2.815   4.951   0.902  0.3410  0.0477 -0.1623
 2503ntf    fn416477   2.885   4.838   0.731 -0.7778  0.7986 -0.7567
 2503ntf    fn416478   2.984   4.824   0.913 -0.7010 -0.0725  0.2652
 2503ntf    on516479   3.129   4.966   0.704 -0.1029  0.0832 -0.4483
 2503ntf    on516480   2.948   5.131   0.697 -0.4961 -0.4811 -0.0469
 2503ntf    on516481   3.325   5.104   0.892  0.0774  0.1481  0.2607
 2503ntf    on516482   3.218   5.158   1.107  0.0839  0.1919  0.0247
 2503ntf    fn416483   3.322   5.391   0.945 -0.1447 -0.2265 -0.4007
 2503ntf    fn416484   3.167   5.355   0.801 -0.1419  0.1180  0.0613
 2503ntf    fn416485   3.114   5.395   0.997 -0.1244  0.2056 -0.1231
 2504ntf    cn116486   6.021   1.334   2.087  0.0818 -0.3282  0.4889
 2504ntf    sn216487   6.113   1.362   2.241  0.4111 -0.3278  0.2928
 2504ntf    nn316488   6.234   1.442   2.183  0.3127 -0.0498  0.4714
 2504ntf    sn216489   6.273   1.592   2.211 -0.2412  0.1901 -0.0076
 2504ntf    cn116490   6.178   1.669   2.076 -0.4442 -0.1342 -0.0511
 2504ntf    fn416491   6.003   1.450   2.026  0.3416 -0.4075  0.2610
 2504ntf    fn416492   6.090   1.252   2.009  0.4622 -0.1272  0.6136
 2504ntf    fn416493   5.901   1.278   2.099 -0.1422 -0.0448 -0.3471
 2504ntf    on516494   6.020   1.435   2.323  0.7848 -0.0840  0.5009
 2504ntf    on516495   6.141   1.224   2.271  0.4875 -0.3586  0.0809
 2504ntf    on516496   6.413   1.609   2.179 -0.2930 -0.1519 -0.4375
 2504ntf    on516497   6.232   1.643   2.339  0.6279 -0.0693  0.3817
 2504ntf    fn416498   6.219   1.793   2.056 -0.1525 -0.1611  0.3514
 2504ntf    fn416499   6.185   1.604   1.961 -0.3268  0.2676 -0.2756
 2504ntf    fn416500   6.050   1.672   2.106 -0.3778 -0.7079  0.2935
 2505ntf    cn116501   6.560   5.320   0.095 -0.0180  0.2452  0.0593
 2505ntf    sn216502   6.428   5.196   0.103  0.1274  0.0776 -0.1375
 2505ntf    nn316503   6.374   5.213   0.250 -0.2262 -0.1271 -0.2428
 2505ntf    sn216504   6.238   5.260   0.312  0.0277  0.4074 -0.0821
 2505ntf    cn116505   6.301   5.410   0.392  0.1127  0.2270  0.1923
 2505ntf    fn416506   6.620   5.333  -0.022 -0.2270  0.1807 -0.0550
 2505ntf    fn416507   6.507   5.439   0.117  0.0252  0.3021 -0.1414
 2505ntf    fn416508   6.660   5.301   0.180 -0.2782 -0.1537  0.2776
 2505ntf    on516509   6.339   5.238  -0.002  0.6661  0.2808 -0.5175
 2505ntf    on516510   6.505   5.074   0.089 -0.2959 -0.2378  0.2399
 2505ntf    on516511   6.188   5.183   0.424  0.2486  0.0362 -0.2378
 2505ntf    on516512   6.136   5.315   0.226 -0.4346 -0.1501  0.0993
 2505ntf    fn416513   6.370   5.383   0.502  0.6365 -0.3672 -0.2719
 2505ntf    fn416514   6.375   5.479   0.306  0.0966 -0.4189 -0.3491
 2505ntf    fn416515   6.208   5.498   0.426 -0.2811 -0.0010 -0.2757
 2506ntf    cn116516   1.004   1.287   6.643  0.0449  0.1700  0.1725
 2506ntf    sn216517   0.900   1.181   6.748 -0.0615  0.0685 -0.0352
 2506ntf    nn316518   0.823   1.109   6.631  0.1713 -0.3507  0.0673
 2506ntf    sn216519   0.673   1.064   6.625  0.0816 -0.0598  0.1132
 2506ntf    cn116520   0.692   0.919   6.517 -0.1577 -0.0568  0.0657
 2506ntf    fn416521   0.940   1.394   6.599 -0.5093 -0.3158 -0.2193
 2506ntf    fn416522   1.108   1.334   6.709 -0.0206  0.3102  0.1779
 2506ntf    fn416523   1.051   1.222   6.538  0.1700 -0.2235  0.4727
 2506ntf    on516524   0.990   1.091   6.815 -0.3099  0.0266  0.2401
 2506ntf    on516525   0.834   1.280   6.829  0.5102  0.1932  0.2813
 2506ntf    on516526   0.603   1.159   6.541  0.3398 -0.0214 -0.0605
 2506ntf    on516527   0.614   1.012   6.746 -0.9350  0.1709 -0.2735
 2506ntf    fn416528   0.741   0.958   6.400 -0.2612 -0.4177 -0.0977
 2506ntf    fn416529   0.783   0.828   6.550  0.1259  0.0761 -0.3354
 2506ntf    fn416530   0.577   0.859   6.496 -0.3258  0.3543 -0.2067
 2507ntf    cn116531   6.740   6.888   2.157 -0.2089 -0.1415 -0.1104
 2507ntf    sn216532   6.735   7.042   2.254  0.1012 -0.3290  0.2074
 2507ntf    nn316533   6.873   7.030   2.328  0.0054  0.3882  0.5091
 2507ntf    sn216534   6.896   6.941   2.455 -0.0786 -0.1924  0.1189
 2507ntf    cn116535   6.906   7.062   2.590  0.0664 -0.0627 -0.0079
 2507ntf    fn416536   6.862   6.837   2.159 -0.1434  0.0025 -0.4079
 2507ntf    fn416537   6.663   6.794   2.209 -0.0030 -0.1164  0.2464
 2507ntf    fn416538   6.705   6.916   2.033 -0.0563 -0.2834 -0.1847
 2507ntf    on516539   6.735   7.142   2.149  0.8324 -0.3596  0.1725
 2507ntf    on516540   6.624   7.044   2.346  0.2256  0.1941  0.3536
 2507ntf    on516541   7.026   6.879   2.450  0.1877  0.2545  1.2181
 2507ntf    on516542   6.792   6.851   2.498 -0.2523 -0.0864 -0.0798
 2507ntf    fn416543   6.913   7.186   2.542  0.1546 -0.0239  0.1061
 2507ntf    fn416544   6.811   7.064   2.682 -0.0109  0.2623 -0.0930
 2507ntf    fn416545   7.012   7.039   2.666  0.1058 -0.0351 -0.0541
 2508ntf    cn116546   2.410   1.744   1.225  0.1843  0.2091 -0.3563
 2508ntf    sn216547   2.375   1.897   1.133  0.0309  0.2466 -0.2364
 2508ntf    nn316548   2.476   2.003   1.191  0.1081 -0.0977  0.2587
 2508ntf    sn216549   2.624   2.030   1.148  0.0711 -0.4000 -0.0646
 2508ntf    cn116550   2.705   1.984   1.304 -0.4445 -0.3193  0.2295
 2508ntf    fn416551   2.318   1.651   1.202  0.2306  0.0356  0.1512
 2508ntf    fn416552   2.532   1.694   1.213  0.0250 -0.3405  0.2717
 2508ntf    fn416553   2.403   1.768   1.355 -0.3650 -0.5073 -0.2493
 2508ntf    on516554   2.395   1.863   0.994 -0.0845  0.7224 -0.3702
 2508ntf    on516555   2.242   1.937   1.170  0.2003  0.2077  0.4201
 2508ntf    on516556   2.645   2.173   1.141  0.0427 -0.4200 -0.5903
 2508ntf    on516557   2.677   1.945   1.045  0.2755 -0.6853  0.2744
 2508ntf    fn416558   2.647   1.880   1.361  0.0989 -0.9729 -0.3829
 2508ntf    fn416559   2.836   1.970   1.291 -0.5016 -0.3360 -0.3498
 2508ntf    fn416560   2.687   2.085   1.387 -0.2993 -0.4036  0.3636
 2509ntf    cn116561   5.993   6.581   3.796  0.1485  0.3430 -0.0989
 2509ntf    sn216562   5.964   6.549   3.620 -0.4116  0.1058  0.0346
 2509ntf    nn316563   5.836   6.458   3.620 -0.1261 -0.3051  0.1441
 2509ntf    sn216564   5.692   6.495   3.570 -0.1442 -0.1731  0.2895
 2509ntf    cn116565   5.611   6.460   3.729 -0.3933  0.0578  0.2158
 2509ntf    fn416566   5.899   6.664   3.837 -0.2431 -0.2146  0.1473
 2509ntf    fn416567   5.975   6.467   3.860  0.6946  0.5256  0.3942
 2509ntf    fn416568   6.112   6.634   3.823  0.3195  0.2493 -0.6539
 2509ntf    on516569   5.952   6.680   3.561 -0.0576  0.2159  0.2026
 2509ntf    on516570   6.078   6.466   3.586 -0.4314 -0.1413  0.5572
 2509ntf    on516571   5.626   6.403   3.480 -1.0647  0.0974  0.6746
 2509ntf    on516572   5.669   6.635   3.541  0.2291 -0.3388 -0.8834
 2509ntf    fn416573   5.691   6.509   3.822 -0.0051 -0.4833  0.1735
 2509ntf    fn416574   5.495   6.523   3.737 -0.2728  0.2534  0.4329
 2509ntf    fn416575   5.595   6.331   3.756  0.3921 -0.0997 -0.0345
 2510ntf    cn116576   1.839   1.402   2.018  0.2144  0.4154 -0.1378
 2510ntf    sn216577   1.670   1.347   2.054  0.3439  0.1879  0.1267
 2510ntf    nn316578   1.680   1.190   2.056  0.0468  0.1656  0.0176
 2510ntf    sn216579   1.577   1.098   2.131  0.2873  0.0502  0.2110
 2510ntf    cn116580   1.504   1.013   1.988 -0.0413  0.4957  0.1105
 2510ntf    fn416581   1.871   1.366   1.895 -0.5239 -0.3796 -0.1054
 2510ntf    fn416582   1.852   1.533   2.025  0.1739  0.4119 -0.0050
 2510ntf    fn416583   1.935   1.350   2.092  0.3950 -0.0450 -0.6835
 2510ntf    on516584   1.654   1.418   2.179 -0.3140  0.4628 -0.1072
 2510ntf    on516585   1.606   1.390   1.932  0.7501 -0.1745 -0.2179
 2510ntf    on516586   1.464   1.162   2.194 -0.0131  0.0045 -0.2755
 2510ntf    on516587   1.640   0.991   2.203 -0.7179 -0.5993  0.1352
 2510ntf    fn416588   1.592   0.951   1.911 -0.0487  0.6723 -0.0421
 2510ntf    fn416589   1.400   0.936   2.018  0.3756 -0.1001  0.0305
 2510ntf    fn416590   1.446   1.102   1.908 -0.0969  0.4731  0.1252
 2511ntf    cn116591   0.361   4.381   2.340  0.4786 -0.1265  0.1919
 2511ntf    sn216592   0.489   4.349   2.214 -0.0091 -0.1844 -0.2956
 2511ntf    nn316593   0.524   4.201   2.253 -0.0155 -0.0483  0.2452
 2511ntf    sn216594   0.476   4.066   2.188  0.2789  0.1205 -0.3369
 2511ntf    cn116595   0.605   4.047   2.062  0.1680 -0.0184 -0.4301
 2511ntf    fn416596   0.258   4.299   2.343  0.1973  0.2184 -0.0040
 2511ntf    fn416597   0.403   4.374   2.465 -0.4361 -0.6563  0.4793
 2511ntf    fn416598   0.318   4.505   2.324 -0.4270 -0.4668 -0.0640
 2511ntf    on516599   0.427   4.372   2.086  0.0161  0.5285 -0.1844
 2511ntf    on516600   0.603   4.430   2.249  0.1241 -0.6041  0.2685
 2511ntf    on516601   0.351   4.077   2.117 -0.1236  0.0149  0.3367
 2511ntf    on516602   0.493   3.952   2.276  0.6349  0.3343 -0.1257
 2511ntf    fn416603   0.637   4.164   2.008  0.3752  0.2351  0.2308
 2511ntf    fn416604   0.710   3.986   2.114 -0.3981 -0.4034  0.2931
 2511ntf    fn416605   0.574   3.967   1.961  0.1516 -0.2437 -0.2477
 2512ntf    cn116606   1.129   5.850   5.906 -0.2014  0.4275  0.1323
 2512ntf    sn216607   1.106   5.981   5.783 -0.0555  0.4215  0.0988
 2512ntf    nn316608   1.242   5.973   5.704 -0.4282  0.1474 -0.5139
 2512ntf    sn216609   1.277   5.995   5.552 -0.0934  0.1556 -0.4343
 2512ntf    cn116610   1.314   5.824   5.502  0.0871  0.0163  0.1629
 2512ntf    fn416611   1.180   5.736   5.863 -0.6285  0.2245  0.1592
 2512ntf    fn416612   1.208   5.893   6.003  0.1648 -0.5665  0.2887
 2512ntf    fn416613   1.018   5.818   5.972  0.0952 -0.1814  0.3410
 2512ntf    on516614   0.983   5.939   5.721  0.3241 -0.0278 -0.3547
 2512ntf    on516615   1.099   6.103   5.860 -0.0924  0.2102  0.4294
 2512ntf    on516616   1.401   6.067   5.532 -0.0249  0.3492  0.6010
 2512ntf    on516617   1.168   6.042   5.471 -0.3409  0.0683 -0.1520
 2512ntf    fn416618   1.441   5.809   5.535  0.1932  0.0729 -0.2163
 2512ntf    fn416619   1.241   5.733   5.564  0.3659 -0.0655  0.3734
 2512ntf    fn416620   1.293   5.814   5.372  0.5497  0.0085  0.0892
 2513ntf    cn116621   1.347   3.269   3.980  0.1062 -0.1060 -0.3773
 2513ntf    sn216622   1.190   3.269   3.890 -0.0918  0.1840 -0.0348
 2513ntf    nn316623   1.159   3.117   3.864 -0.0541  0.1691  0.0105
 2513ntf    sn216624   1.056   3.044   3.771 -0.0953  0.2473 -0.0057
 2513ntf    cn116625   0.917   3.005   3.880 -0.2181 -0.3382 -0.3664
 2513ntf    fn416626   1.324   3.228   4.104  0.4011  0.0651 -0.2627
 2513ntf    fn416627   1.438   3.194   3.920  0.2759  0.0985 -0.3773
 2513ntf    fn416628   1.407   3.387   3.988  0.0083 -0.0633 -0.2691
 2513ntf    on516629   1.102   3.340   3.980 -0.7587 -0.2355 -0.3445
 2513ntf    on516630   1.239   3.334   3.771 -0.1854  0.2952 -0.0141
 2513ntf    on516631   1.103   2.912   3.739  0.8200  0.5504  0.0572
 2513ntf    on516632   1.007   3.129   3.665 -0.0975  0.1493 -0.0834
 2513ntf    fn416633   0.871   3.109   3.948 -0.2714 -0.3079 -0.4489
 2513ntf    fn416634   0.817   2.956   3.809 -0.3655  0.2466 -0.5677
 2513ntf    fn416635   0.953   2.911   3.966  0.4536 -0.0873 -0.3673
 2514ntf    cn116636   3.316   6.738   3.905 -0.2521  0.0117 -0.2465
 2514ntf    sn216637   3.405   6.739   4.064 -0.0088  0.2172 -0.3827
 2514ntf    nn316638   3.530   6.823   4.020  0.3285  0.1218  0.3848
 2514ntf    sn216639   3.669   6.777   3.964  0.1542 -0.1541  0.1830
 2514ntf    cn116640   3.759   6.777   4.121  0.1100  0.4828  0.2113
 2514ntf    fn416641   3.361   6.645   3.823 -0.3575 -0.4328  0.1939
 2514ntf    fn416642   3.186   6.727   3.925 -0.1923 -0.5682 -0.1517
 2514ntf    fn416643   3.332   6.849   3.834 -0.0788  0.5961  0.6857
 2514ntf    on516644   3.314   6.806   4.154 -0.4282  0.0903 -0.7063
 2514ntf    on516645   3.434   6.600   4.090  0.4420  0.4109  0.1735
 2514ntf    on516646   3.731   6.885   3.892  0.2058 -0.1647  0.2120
 2514ntf    on516647   3.677   6.643   3.911  0.1541  0.0352 -0.3053
 2514ntf    fn416648   3.745   6.896   4.176  0.0872  0.6748 -0.2089
 2514ntf    fn416649   3.699   6.691   4.202 -0.2345 -0.0623 -0.6075
 2514ntf    fn416650   3.885   6.738   4.108 -0.1247 -0.1300 -0.2932
 2515ntf    cn116651   5.821   6.180   5.981  0.2063 -0.0123 -0.1612
 2515ntf    sn216652   5.987   6.244   6.017  0.2302 -0.2071  0.0816
 2515ntf    nn316653   6.049   6.256   5.874 -0.1996  0.3315 -0.0643
 2515ntf    sn216654   6.117   6.151   5.779  0.0119  0.4399 -0.0341
 2515ntf    cn116655   6.288   6.200   5.819  0.0864  0.1940 -0.0446
 2515ntf    fn416656   5.723   6.192   6.070  0.3371 -0.1544  0.0022
 2515ntf    fn416657   5.769   6.237   5.874 -0.3624  0.3278  0.2894
 2515ntf    fn416658   5.836   6.050   5.958 -0.4929 -0.1286  0.0014
 2515ntf    on516659   5.953   6.372   6.075 -0.0345 -0.1089 -0.2807
 2515ntf    on516660   6.062   6.152   6.099  0.3929  0.0756  0.2508
 2515ntf    on516661   6.105   6.191   5.641 -0.5469 -0.1290 -0.1564
 2515ntf    on516662   6.110   6.012   5.817  0.1561  0.3812 -0.2220
 2515ntf    fn416663   6.310   6.177   5.947  0.1889 -0.7701 -0.2287
 2515ntf    fn416664   6.377   6.132   5.750  0.0873 -0.0508  0.1970
 2515ntf    fn416665   6.314   6.328   5.799  0.2594  0.1092 -0.3699
 2516ntf    cn116666   2.051   0.251   0.032  0.3986 -0.0202 -0.3163
 2516ntf    sn216667   2.209   0.278  -0.053  0.3690  0.1824 -0.3100
 2516ntf    nn316668   2.305   0.212   0.053 -0.4507  0.3150  0.5212
 2516ntf    sn216669   2.423   0.276   0.134 -0.0132  0.1985 -0.0199
 2516ntf    cn116670   2.482   0.127   0.220  0.1927  0.1208 -0.2930
 2516ntf    fn416671   2.044   0.336   0.134 -0.2360 -0.1584 -0.2401
 2516ntf    fn416672   1.946   0.268  -0.047  0.1768  0.0847 -0.0028
 2516ntf    fn416673   2.052   0.132   0.088 -0.0840 -0.1005 -0.4778
 2516ntf    on516674   2.199   0.198  -0.173  0.1295 -0.4989  0.1559
 2516ntf    on516675   2.225   0.420  -0.068  0.0077  0.2609  0.0422
 2516ntf    on516676   2.389   0.373   0.235  0.5847  0.0819  0.2955
 2516ntf    on516677   2.527   0.309   0.040 -0.1066  0.3998 -0.0532
 2516ntf    fn416678   2.406   0.088   0.320  0.8208 -0.1488  0.0847
 2516ntf    fn416679   2.499   0.028   0.135  0.7335  0.0393 -0.0964
 2516ntf    fn416680   2.597   0.145   0.282  0.1606  0.3432 -0.2974
 2517ntf    cn116681   3.747   0.063   5.436  0.1427 -0.0814  0.1661
 2517ntf    sn216682   3.927   0.084   5.432  0.1275  0.0776  0.3199
 2517ntf    nn316683   3.967  -0.024   5.326 -0.0028  0.6802 -0.3485
 2517ntf    sn216684   4.091  -0.032   5.230  0.1492  0.2598 -0.1208
 2517ntf    cn116685   4.019   0.050   5.084  0.1426  0.0688 -0.2260
 2517ntf    fn416686   3.695   0.153   5.519  0.4413  0.0591  0.2022
 2517ntf    fn416687   3.698   0.087   5.315  0.2511 -0.1392  0.1109
 2517ntf    fn416688   3.703  -0.057   5.472  0.2159 -0.3089 -0.4949
 2517ntf    on516689   3.935   0.221   5.388  0.5319 -0.2193 -0.5440
 2517ntf    on516690   3.969   0.052   5.567 -0.3701  0.5004  0.5801
 2517ntf    on516691   4.115  -0.160   5.168 -0.2635 -0.1670  0.5963
 2517ntf    on516692   4.205   0.046   5.271 -0.3115  0.7821  0.1802
 2517ntf    fn416693   3.948  -0.033   5.010  0.0269  0.0645 -0.1091
 2517ntf    fn416694   3.947   0.158   5.109  0.1112 -0.0437  0.1753
 2517ntf    fn416695   4.120   0.080   5.004  0.4745  0.4075  0.3072
 2518ntf    cn116696   6.533   3.503   3.527 -0.0333 -0.3379  0.2673
 2518ntf    sn216697   6.638   3.405   3.415 -0.0863  0.0999 -0.1672
 2518ntf    nn316698   6.623   3.270   3.494 -0.3140  0.2010 -0.0378
 2518ntf    sn216699   6.550   3.139   3.448  0.1929 -0.1402  0.1280
 2518ntf    cn116700   6.544   3.052   3.608 -0.1397 -0.0212  0.1806
 2518ntf    fn416701   6.585   3.530   3.646 -0.0067  0.7220  0.0206
 2518ntf    fn416702   6.503   3.623   3.483  0.2859 -0.2446  0.3020
 2518ntf    fn416703   6.418   3.444   3.553 -0.5169  0.6168  0.3100
 2518ntf    on516704   6.582   3.409   3.283 -0.2387  0.5661 -0.0893
 2518ntf    on516705   6.766   3.471   3.428  0.0965 -0.3940  0.6184
 2518ntf    on516706   6.634   3.052   3.369  0.3745 -0.1174  0.2963
 2518ntf    on516707   6.410   3.146   3.415  0.0288  0.0572  0.8534
 2518ntf    fn416708   6.482   2.935   3.603  0.3343 -0.2707  0.0894
 2518ntf    fn416709   6.660   3.037   3.669  0.0200  0.1257 -0.0844
 2518ntf    fn416710   6.480   3.136   3.688 -0.1052  0.7115 -0.5415
 2519ntf    cn116711   3.916   4.507   2.909  0.4908 -0.0899  0.2068
 2519ntf    sn216712   3.786   4.379   2.909  0.0466  0.3585  0.0012
 2519ntf    nn316713   3.871   4.250   2.878 -0.0817  0.2723  0.0099
 2519ntf    sn216714   3.943   4.161   2.985 -0.2119 -0.1156 -0.2227
 2519ntf    cn116715   3.819   4.040   3.040 -0.4039  0.1033 -0.1740
 2519ntf    fn416716   3.964   4.524   2.787  0.2347  0.2414  0.1510
 2519ntf    fn416717   3.872   4.624   2.950 -0.0466 -0.3005  0.2353
 2519ntf    fn416718   4.013   4.466   2.989  0.3058  0.0021  0.4775
 2519ntf    on516719   3.723   4.389   3.038 -0.1201  0.1854 -0.0669
 2519ntf    on516720   3.711   4.412   2.790  0.1471 -0.1910 -0.2163
 2519ntf    on516721   3.984   4.223   3.109  0.1466 -0.3665 -0.2131
 2519ntf    on516722   4.040   4.077   2.920 -0.4518 -0.2195 -0.4436
 2519ntf    fn416723   3.845   4.004   3.165 -0.0494  0.2938 -0.1905
 2519ntf    fn416724   3.699   4.096   3.046 -0.6107 -0.2972 -0.5529
 2519ntf    fn416725   3.821   3.928   2.971 -0.0858 -0.0487  0.0770
 2520ntf    cn116726   0.159   4.386   1.161  0.0544 -0.1526 -0.2230
 2520ntf    sn216727  -0.020   4.386   1.131  0.0385  0.2723 -0.1427
 2520ntf    nn316728  -0.060   4.236   1.155  0.2370  0.2699  0.1785
 2520ntf    sn216729  -0.129   4.183   1.286 -0.1690  0.5928  0.0978
 2520ntf    cn116730  -0.040   4.026   1.309 -0.0903  0.6738  0.3451
 2520ntf    fn416731   0.174   4.371   1.292  0.0054  0.3392 -0.1563
 2520ntf    fn416732   0.232   4.300   1.092  0.4930 -0.0264  0.0786
 2520ntf    fn416733   0.214   4.503   1.134  0.0422 -0.0040  0.3908
 2520ntf    on516734  -0.078   4.477   1.226 -0.5868 -0.1096 -0.1532
 2520ntf    on516735  -0.032   4.421   0.992  0.1014  0.0944 -0.1927
 2520ntf    on516736  -0.269   4.148   1.274 -0.0639  0.1385  0.1492
 2520ntf    on516737  -0.101   4.254   1.408 -0.0603  0.7479 -0.0178
 2520ntf    fn416738  -0.038   3.955   1.197  0.3037  0.4688  0.4804
 2520ntf    fn416739   0.084   4.049   1.350  0.1226  0.1532 -0.0004
 2520ntf    fn416740  -0.087   3.945   1.401 -0.0315  0.2412 -0.0023
 2521ntf    cn116741   1.877   3.493   4.190 -0.1125 -0.0969 -0.0459
 2521ntf    sn216742   1.697   3.473   4.205 -0.1312  0.2186  0.1734
 2521ntf    nn316743   1.685   3.503   4.359  0.5159 -0.5224  0.3821
 2521ntf    sn216744   1.665   3.638   4.437 -0.1122 -0.2402 -0.2454
 2521ntf    cn116745   1.493   3.623   4.494 -0.0702 -0.1290 -0.0890
 2521ntf    fn416746   1.942   3.399   4.258 -0.2348 -0.0946  0.0744
 2521ntf    fn416747   1.918   3.493   4.064 -0.0892  0.2640 -0.0394
 2521ntf    fn416748   1.923   3.602   4.250 -0.1206 -0.2940  0.3279
 2521ntf    on516749   1.627   3.565   4.120  0.1510  0.6880  0.4498
 2521ntf    on516750   1.677   3.332   4.183  0.1373  0.2202 -0.0880
 2521ntf    on516751   1.669   3.759   4.360  0.1082 -0.0681  0.0328
 2521ntf    on516752   1.743   3.649   4.558 -0.8508 -0.0991  0.2219
 2521ntf    fn416753   1.408   3.593   4.398 -0.4511  0.3117  0.1102
 2521ntf    fn416754   1.484   3.535   4.593 -0.0167 -0.0486 -0.0124
 2521ntf    fn416755   1.456   3.742   4.538 -0.4347 -0.1445 -0.3586
 2522ntf    cn116756   0.200   4.347   4.660  0.3956  0.1663 -0.1531
 2522ntf    sn216757   0.184   4.511   4.735  0.0139  0.0989 -0.0847
 2522ntf    nn316758   0.333   4.556   4.748  0.1255 -0.2623 -0.1081
 2522ntf    sn216759   0.399   4.691   4.796 -0.3377  0.0442 -0.3256
 2522ntf    cn116760   0.464   4.642   4.958 -0.3496  0.0131 -0.3303
 2522ntf    fn416761   0.091   4.304   4.598  0.4507 -0.2148  0.0071
 2522ntf    fn416762   0.300   4.354   4.574  0.0999 -0.5592 -0.5721
 2522ntf    fn416763   0.230   4.257   4.753 -0.2891  0.4652  0.3648
 2522ntf    on516764   0.111   4.575   4.628 -0.1352 -0.2962 -0.2207
 2522ntf    on516765   0.115   4.490   4.860 -0.1575 -0.1409 -0.2192
 2522ntf    on516766   0.306   4.795   4.832  0.4084  0.3905  0.6461
 2522ntf    on516767   0.517   4.726   4.721 -0.0553 -0.6185 -0.2018
 2522ntf    fn416768   0.540   4.740   5.005 -0.2320 -0.1885 -0.0943
 2522ntf    fn416769   0.364   4.634   5.044  0.0284  0.1067  0.1258
 2522ntf    fn416770   0.537   4.532   4.968 -0.7144 -0.1913  0.1280
 2523ntf    cn116771   3.589   6.122   4.526  0.4587 -0.1216 -0.3706
 2523ntf    sn216772   3.421   6.177   4.571  0.5529 -0.0827 -0.0618
 2523ntf    nn316773   3.348   6.038   4.575  0.2120  0.0904 -0.2197
 2523ntf    sn216774   3.221   5.995   4.656  0.1139  0.2926 -0.2663
 2523ntf    cn116775   3.298   5.885   4.778 -0.1192 -0.2963 -0.6507
 2523ntf    fn416776   3.583   6.038   4.424 -0.2758 -0.0731 -0.3750
 2523ntf    fn416777   3.675   6.216   4.489  0.2502  0.2378  0.0451
 2523ntf    fn416778   3.640   6.051   4.626 -0.0165  0.3074  0.1886
 2523ntf    on516779   3.447   6.229   4.703 -0.1093 -0.1390  0.0925
 2523ntf    on516780   3.378   6.269   4.469 -0.2713 -0.8601 -0.4309
 2523ntf    on516781   3.131   5.906   4.587  0.6813 -0.4890 -0.0018
 2523ntf    on516782   3.151   6.095   4.735 -0.0594 -0.2239  0.2423
 2523ntf    fn416783   3.365   5.955   4.868 -0.3638 -0.5581 -0.2616
 2523ntf    fn416784   3.211   5.815   4.849  0.1104  0.2001  0.1372
 2523ntf    fn416785   3.381   5.797   4.724 -0.0583 -0.4248 -0.3483
 2524ntf    cn116786   6.669   1.339   6.660  0.1610  0.2391 -0.0783
 2524ntf    sn216787   6.740   1.231   6.788  0.0093 -0.2060 -0.3689
 2524ntf    nn316788   6.860   1.316   6.845 -0.3758  0.0843  0.0096
 2524ntf    sn216789   6.875   1.388   6.984 -0.1646  0.2988 -0.1246
 2524ntf    cn116790   6.952   1.252   7.077 -0.0634  0.3042 -0.2000
 2524ntf    fn416791   6.560   1.276   6.620 -0.3117  0.6888  0.4684
 2524ntf    fn416792   6.637   1.465   6.684  0.4784  0.3148 -0.0467
 2524ntf    fn416793   6.744   1.341   6.552  0.5058  0.1349  0.1563
 2524ntf    on516794   6.627   1.210   6.874  0.2988 -0.2089  0.0114
 2524ntf    on516795   6.784   1.118   6.710 -0.1307 -0.3297 -0.2681
 2524ntf    on516796   6.752   1.419   7.052  0.2377  0.7663  0.3933
 2524ntf    on516797   6.970   1.496   6.978  0.2319 -0.0423 -0.0820
 2524ntf    fn416798   6.981   1.284   7.202  0.0790  0.3189 -0.2360
 2524ntf    fn416799   6.879   1.142   7.080  0.3226  0.0469 -0.1253
 2524ntf    fn416800   7.067   1.224   7.017 -0.1573  0.1463 -0.3061
 2525ntf    cn116801   4.491   5.728   0.095 -0.0671  0.0427  0.5237
 2525ntf    sn216802   4.650   5.642   0.116 -0.1424 -0.1706  0.2284
 2525ntf    nn316803   4.708   5.657  -0.029  0.3733 -0.1642  0.4363
 2525ntf    sn216804   4.806   5.763  -0.090  0.0169 -0.2005 -0.1951
 2525ntf    cn116805   4.958   5.667  -0.066  0.0917 -0.0552 -0.0855
 2525ntf    fn416806   4.397   5.653   0.040 -0.1342 -0.0147  0.7155
 2525ntf    fn416807   4.440   5.779   0.207 -0.2092  0.1980  0.3896
 2525ntf    fn416808   4.503   5.832   0.014  0.1091 -0.4590 -0.0957
 2525ntf    on516809   4.719   5.721   0.215 -0.2693 -0.0343  0.2096
 2525ntf    on516810   4.610   5.508   0.150  0.8784 -0.5848 -0.1828
 2525ntf    on516811   4.832   5.887  -0.022 -0.0303 -0.2020 -0.1744
 2525ntf    on516812   4.798   5.766  -0.234 -0.0805  0.2940 -0.1815
 2525ntf    fn416813   4.948   5.546  -0.118  0.1498 -0.1483  0.1187
 2525ntf    fn416814   5.065   5.720  -0.123  0.2288  0.4152  0.6001
 2525ntf    fn416815   4.983   5.641   0.061  0.9269 -0.2481 -0.2839
 2526ntf    cn116816   2.008   3.527   0.461  0.2031 -0.3979 -0.0451
 2526ntf    sn216817   2.162   3.459   0.394  0.1306 -0.2061 -0.4094
 2526ntf    nn316818   2.269   3.476   0.507  0.0054  0.3711 -0.3744
 2526ntf    sn216819   2.360   3.600   0.539  0.0968  0.2676 -0.2264
 2526ntf    cn116820   2.506   3.558   0.439  0.1181 -0.0803 -0.0519
 2526ntf    fn416821   2.026   3.652   0.502 -0.3304 -0.1373 -0.5875
 2526ntf    fn416822   1.912   3.534   0.370  0.1220 -0.1260  0.0611
 2526ntf    fn416823   1.963   3.465   0.569  0.4754  0.0113  0.3054
 2526ntf    on516824   2.136   3.318   0.374  0.0497 -0.2878  0.2448
 2526ntf    on516825   2.175   3.529   0.269  0.5694 -0.0332 -0.2700
 2526ntf    on516826   2.418   3.598   0.671 -0.4418 -0.2457  0.0057
 2526ntf    on516827   2.311   3.728   0.493  0.6151  0.6269  0.2104
 2526ntf    fn416828   2.473   3.556   0.311  0.2708 -0.8238 -0.0857
 2526ntf    fn416829   2.599   3.649   0.463 -0.0438  0.0691  0.0144
 2526ntf    fn416830   2.550   3.437   0.468  0.3314 -0.0558 -0.2670
 2527ntf    cn116831   3.810   2.878   0.731 -0.3229  0.2628  0.5938
 2527ntf    sn216832   3.989   2.904   0.740 -0.2558  0.0702 -0.1212
 2527ntf    nn316833   4.010   2.910   0.895 -0.2587  0.2219 -0.1266
 2527ntf    sn216834   4.075   3.029   0.974 -0.1364  0.1475 -0.1138
 2527ntf    cn116835   4.028   2.987   1.144  0.0183  0.3330 -0.0247
 2527ntf    fn416836   3.744   2.967   0.803  0.3164  0.7911  0.5311
 2527ntf    fn416837   3.768   2.892   0.606 -0.0972 -0.1330  0.4712
 2527ntf    fn416838   3.765   2.763   0.779 -0.0625 -0.0318  0.1356
 2527ntf    on516839   4.038   2.782   0.679 -0.0411  0.2980 -0.4055
 2527ntf    on516840   4.011   3.029   0.671 -0.1194 -0.0322 -0.2667
 2527ntf    on516841   4.000   3.151   0.954 -0.0581  0.2444  0.1828
 2527ntf    on516842   4.219   3.032   0.984 -0.1122  0.7895 -0.5550
 2527ntf    fn416843   3.897   2.980   1.160  0.0274 -0.0132 -0.1123
 2527ntf    fn416844   4.070   2.866   1.175 -0.3640  0.1884 -0.0639
 2527ntf    fn416845   4.076   3.072   1.233 -0.3891  1.0783 -0.5070
 2528ntf    cn116846   1.729   3.246   0.610  0.1129 -0.2695 -0.2389
 2528ntf    sn216847   1.552   3.203   0.604  0.0380 -0.0069  0.0570
 2528ntf    nn316848   1.522   3.157   0.751  0.0935 -0.3984 -0.0546
 2528ntf    sn216849   1.464   3.016   0.790 -0.1913 -0.2753 -0.0301
 2528ntf    cn116850   1.321   3.071   0.888 -0.3829 -0.1785 -0.3623
 2528ntf    fn416851   1.791   3.285   0.500  0.2581  0.5416  0.1271
 2528ntf    fn416852   1.749   3.333   0.707 -0.5317 -0.4599  0.0750
 2528ntf    fn416853   1.788   3.137   0.657  0.2159 -0.0656  0.1136
 2528ntf    on516854   1.499   3.335   0.580  0.7446  0.3091  0.2120
 2528ntf    on516855   1.557   3.109   0.495 -0.1114  0.0771 -0.0228
 2528ntf    on516856   1.545   2.948   0.888  0.4609  0.2432 -0.2037
 2528ntf    on516857   1.408   2.933   0.687  0.2126 -0.2115 -0.3047
 2528ntf    fn416858   1.231   3.148   0.830 -0.2159 -0.2469 -0.7124
 2528ntf    fn416859   1.255   2.968   0.939 -0.0313  0.0280  0.5328
 2528ntf    fn416860   1.359   3.136   0.997 -0.0957 -0.2399 -0.4255
 2529ntf    cn116861   5.194   1.713   1.916  0.0672 -0.4126 -0.3633
 2529ntf    sn216862   5.292   1.814   1.801  0.0757  0.0278  0.0281
 2529ntf    nn316863   5.265   1.963   1.844 -0.0720  0.0430 -0.1134
 2529ntf    sn216864   5.161   2.066   1.788 -0.1473  0.0274 -0.0038
 2529ntf    cn116865   5.141   2.199   1.909  0.4083  0.2786 -0.1826
 2529ntf    fn416866   5.227   1.585   1.918  0.1773 -0.3793  0.1545
 2529ntf    fn416867   5.215   1.750   2.041 -0.5924 -0.1062 -0.3376
 2529ntf    fn416868   5.064   1.726   1.894  0.0921  0.4295 -0.0456
 2529ntf    on516869   5.427   1.783   1.840  0.0741  0.4719  0.3963
 2529ntf    on516870   5.248   1.770   1.671 -0.0029  0.0345  0.0523
 2529ntf    on516871   5.029   2.008   1.788 -0.4019  0.5910 -0.4190
 2529ntf    on516872   5.197   2.138   1.668  0.4572  0.0285  0.1741
 2529ntf    fn416873   5.056   2.292   1.868 -0.0816 -0.0704  0.0338
 2529ntf    fn416874   5.123   2.152   2.032  0.5952 -0.0460 -0.2786
 2529ntf    fn416875   5.256   2.263   1.925  0.3723  0.3649 -0.2662
 2530ntf    cn116876   5.295   6.785   3.414  0.1570  0.2062  0.0035
 2530ntf    sn216877   5.402   6.846   3.281  0.1597 -0.1887 -0.1755
 2530ntf    nn316878   5.467   6.716   3.222  0.0091 -0.3098 -0.0738
 2530ntf    sn216879   5.585   6.710   3.118  0.2477  0.2846  0.1591
 2530ntf    cn116880   5.663   6.548   3.148  0.1283  0.1596 -0.1983
 2530ntf    fn416881   5.361   6.715   3.504  0.1838 -0.6994 -0.7053
 2530ntf    fn416882   5.224   6.884   3.467  0.2006  0.1677  0.1323
 2530ntf    fn416883   5.203   6.701   3.370  0.4558 -0.1481  0.0565
 2530ntf    on516884   5.319   6.906   3.179  0.2323 -0.4159 -0.3712
 2530ntf    on516885   5.492   6.936   3.350 -0.0603  0.1294 -0.3018
 2530ntf    on516886   5.694   6.802   3.140  0.3267  0.2470 -0.0739
 2530ntf    on516887   5.545   6.700   2.980  0.3574 -0.4797  0.1792
 2530ntf    fn416888   5.766   6.527   3.068  0.4799  0.2417  0.2283
 2530ntf    fn416889   5.708   6.538   3.272  0.0884  0.0126 -0.1961
 2530ntf    fn416890   5.578   6.449   3.129 -0.3491  0.4095  0.5670
 2531ntf    cn116891   1.328   1.522   4.132 -0.4479 -0.0452  0.3326
 2531ntf    sn216892   1.161   1.594   4.124 -0.3218  0.2169  0.0382
 2531ntf    nn316893   1.179   1.705   4.015  1.0572 -0.1878 -0.1676
 2531ntf    sn216894   1.216   1.857   4.025  0.3246 -0.0154 -0.0272
 2531ntf    cn116895   1.052   1.936   4.025  0.1500 -0.3785 -0.2487
 2531ntf    fn416896   1.376   1.487   4.014 -0.0327  0.5817  0.3100
 2531ntf    fn416897   1.425   1.596   4.184 -0.0009 -0.3917 -0.0053
 2531ntf    fn416898   1.330   1.412   4.206 -0.2115 -0.1698  0.1423
 2531ntf    on516899   1.086   1.481   4.076  0.1204  0.1543 -0.5211
 2531ntf    on516900   1.132   1.645   4.256  0.4676  0.1562  0.2414
 2531ntf    on516901   1.275   1.910   3.904  0.3767 -0.8866 -0.3850
 2531ntf    on516902   1.270   1.905   4.150 -0.0628  0.6376 -0.1034
 2531ntf    fn416903   0.975   1.912   3.920 -0.1129  0.1836 -0.1849
 2531ntf    fn416904   0.987   1.922   4.139 -0.2042  0.0837 -0.3931
 2531ntf    fn416905   1.072   2.066   4.015 -0.3193 -0.3050 -0.2131
 2532ntf    cn116906   4.930   0.554   6.704 -0.3507 -0.0041  0.5211
 2532ntf    sn216907   5.075   0.493   6.796  0.1644 -0.2088 -0.4097
 2532ntf    nn316908   5.105   0.360   6.718  0.0021 -0.2914 -0.3325
 2532ntf    sn216909   5.045   0.216   6.735 -0.2308 -0.1681 -0.0902
 2532ntf    cn116910   5.172   0.131   6.835  0.0620  0.1877 -0.1582
 2532ntf    fn416911   4.869   0.652   6.768 -0.3951  0.3084  0.0099
 2532ntf    fn416912   4.948   0.590   6.577 -0.1211 -0.0557  0.5381
 2532ntf    fn416913   4.840   0.458   6.697  0.1378 -0.4280 -0.0666
 2532ntf    on516914   5.180   0.590   6.780  0.0376 -0.0452 -0.2620
 2532ntf    on516915   5.027   0.483   6.931 -0.1850  0.9328 -0.4421
 2532ntf    on516916   5.043   0.136   6.614 -0.3571  0.3349 -0.4212
 2532ntf    on516917   4.929   0.199   6.818 -0.6190 -0.0900 -0.6154
 2532ntf    fn416918   5.150   0.161   6.962 -0.4653 -0.2269 -0.1490
 2532ntf    fn416919   5.165   0.001   6.815  0.0548  0.1926 -0.1878
 2532ntf    fn416920   5.295   0.173   6.812  0.1862  0.0092  0.1791
 2533ntf    cn116921   3.017   0.481   4.165  0.0726 -0.2215  0.1700
 2533ntf    sn216922   3.013   0.477   3.983  0.0477  0.0128  0.1649
 2533ntf    nn316923   3.140   0.552   3.929 -0.0726  0.0501 -0.0689
 2533ntf    sn216924   3.147   0.696   3.868 -0.1008 -0.0180 -0.2339
 2533ntf    cn116925   3.262   0.767   3.989  0.1741 -0.1961 -0.3913
 2533ntf    fn416926   2.925   0.403   4.219 -0.6003  0.4456 -0.0004
 2533ntf    fn416927   3.137   0.445   4.209  0.3833 -0.1997 -0.6401
 2533ntf    fn416928   3.003   0.605   4.210 -0.2240 -0.1051 -0.2391
 2533ntf    on516929   3.032   0.336   3.960 -0.2688  0.0044 -0.0556
 2533ntf    on516930   2.884   0.535   3.953 -0.0964 -0.0666  0.6254
 2533ntf    on516931   3.026   0.775   3.880  0.1385  0.2513  0.4581
 2533ntf    on516932   3.228   0.699   3.749  0.2879 -0.0509  0.0268
 2533ntf    fn416933   3.292   0.894   3.964  0.2448 -0.1294  0.0202
 2533ntf    fn416934   3.206   0.763   4.109  0.1285 -0.0532 -0.4075
 2533ntf    fn416935   3.371   0.692   3.998  0.0461 -0.3838 -0.3931
 2534ntf    cn116936   5.440   5.569   6.886 -0.1093  0.0376  0.3319
 2534ntf    sn216937   5.555   5.475   6.781 -0.1846  0.2960  0.0174
 2534ntf    nn316938   5.594   5.362   6.883  0.3102 -0.0955 -0.6018
 2534ntf    sn216939   5.601   5.205   6.878 -0.2703 -0.1507  0.1731
 2534ntf    cn116940   5.430   5.171   6.931 -0.4083 -0.0062 -0.1723
 2534ntf    fn416941   5.495   5.623   6.994  0.7655 -0.2975  0.0657
 2534ntf    fn416942   5.385   5.671   6.823 -0.0339 -0.2528 -0.2104
 2534ntf    fn416943   5.342   5.490   6.927 -0.0551 -0.0019  0.3859
 2534ntf    on516944   5.485   5.430   6.663 -0.4526 -0.6485  0.5265
 2534ntf    on516945   5.674   5.554   6.756 -0.0191 -0.0564 -0.3071
 2534ntf    on516946   5.691   5.157   6.980 -0.4486 -0.5129  0.1609
 2534ntf    on516947   5.610   5.149   6.745 -0.0790 -0.5223  0.3441
 2534ntf    fn416948   5.377   5.262   7.011 -0.4309  0.1337 -0.3458
 2534ntf    fn416949   5.353   5.165   6.824 -0.1352  0.7939 -0.4200
 2534ntf    fn416950   5.426   5.048   6.981  0.0312  0.1327  0.2136
 2535ntf    cn116951   4.568   5.265   1.288  0.5353  0.0148 -0.1350
 2535ntf    sn216952   4.533   5.441   1.261  0.1876 -0.0981 -0.4360
 2535ntf    nn316953   4.388   5.452   1.319  0.1732  0.4486 -0.5674
 2535ntf    sn216954   4.246   5.425   1.257  0.1247  0.0309 -0.2797
 2535ntf    cn116955   4.225   5.573   1.154  0.5475  0.3660  0.1096
 2535ntf    fn416956   4.689   5.227   1.251  0.5979  0.0925 -0.0120
 2535ntf    fn416957   4.556   5.230   1.415 -0.1590 -0.0138 -0.2077
 2535ntf    fn416958   4.484   5.190   1.219  0.3872  0.1314 -0.0812
 2535ntf    on516959   4.634   5.510   1.338 -0.8034  0.5818  0.2824
 2535ntf    on516960   4.546   5.475   1.122  1.2124 -0.0982 -0.3496
 2535ntf    on516961   4.132   5.432   1.344 -0.0569 -0.3631 -0.4795
 2535ntf    on516962   4.242   5.322   1.156 -0.7943 -0.2376  0.0182
 2535ntf    fn416963   4.099   5.577   1.114  0.6481 -0.5594 -0.3261
 2535ntf    fn416964   4.246   5.690   1.210  0.0229  0.5499 -0.0688
 2535ntf    fn416965   4.305   5.565   1.049  0.8330  0.4763  0.3178
 2536ntf    cn116966   6.569   2.422   0.903  0.2173 -0.4005 -0.1444
 2536ntf    sn216967   6.628   2.581   0.967 -0.0301 -0.3262 -0.0982
 2536ntf    nn316968   6.487   2.650   0.969 -0.3395 -0.9369 -0.5578
 2536ntf    sn216969   6.386   2.672   1.088 -0.0128  0.2940 -0.4963
 2536ntf    cn116970   6.456   2.822   1.162 -0.1966  0.2184 -0.1659
 2536ntf    fn416971   6.491   2.443   0.798 -0.0132  0.1530  0.1348
 2536ntf    fn416972   6.661   2.337   0.860 -0.0566 -0.6262 -0.2994
 2536ntf    fn416973   6.494   2.355   0.989 -0.0819  0.0465 -0.0537
 2536ntf    on516974   6.701   2.557   1.089 -0.4834 -0.3726  0.1671
 2536ntf    on516975   6.705   2.623   0.852  0.4942  0.1006  0.4047
 2536ntf    on516976   6.405   2.575   1.194 -0.2148  0.1542 -0.5878
 2536ntf    on516977   6.251   2.698   1.047 -0.0635  0.1780 -0.4063
 2536ntf    fn416978   6.370   2.888   1.238  0.3187  0.8762 -0.1391
 2536ntf    fn416979   6.564   2.804   1.237 -0.6618 -0.1944  0.4072
 2536ntf    fn416980   6.493   2.906   1.066  0.6529 -0.2847 -0.2931
 2537ntf    cn116981   2.578   0.900   3.067  0.0476  0.4170  0.2816
 2537ntf    sn216982   2.467   0.790   2.973  0.3372  0.2226  0.1644
 2537ntf    nn316983   2.568   0.702   2.892 -0.0133  0.2330 -0.2844
 2537ntf    sn216984   2.644   0.730   2.757 -0.1379 -0.0819 -0.4203
 2537ntf    cn116985   2.800   0.774   2.838  0.0110 -0.1610 -0.6655
 2537ntf    fn416986   2.670   0.832   3.134 -0.2473 -0.0583  0.2137
 2537ntf    fn416987   2.632   0.983   2.980  0.3738  0.1688  0.2456
 2537ntf    fn416988   2.514   0.976   3.154 -0.2378  0.0585  0.3908
 2537ntf    on516989   2.395   0.717   3.075  0.4628 -0.0820  0.0336
 2537ntf    on516990   2.389   0.886   2.899  0.4773 -0.1663 -0.4842
 2537ntf    on516991   2.615   0.854   2.690  0.3614  0.1083 -0.2841
 2537ntf    on516992   2.670   0.610   2.681 -0.2285 -0.2312 -0.2166
 2537ntf    fn416993   2.908   0.783   2.762  0.4367 -0.1386 -0.0655
 2537ntf    fn416994   2.794   0.889   2.903 -0.3032 -0.6526  0.1759
 2537ntf    fn416995   2.836   0.681   2.924 -0.2016  0.0566 -0.3392
 2538ntf    cn116996   3.903   3.248   0.043 -0.2546 -0.0619  0.2818
 2538ntf    sn216997   3.728   3.200   0.051 -0.3601  0.1693 -0.5482
 2538ntf    nn316998   3.722   3.084   0.157 -0.0476  0.2021 -0.4930
 2538ntf    sn216999   3.662   3.096   0.302  0.2323  0.0038 -0.3597
 2538ntf    cn117000   3.637   2.921   0.344 -0.5523  0.3506  0.6736
 2538ntf    fn417001   3.930   3.341  -0.047  0.2337 -0.1964  0.2829
 2538ntf    fn417002   3.950   3.287   0.160 -0.1295 -0.3948  0.3438
 2538ntf    fn417003   3.978   3.142   0.015 -0.3954  0.0542 -0.5773
 2538ntf    on517004   3.678   3.327   0.097  0.3538  0.1155  0.4175
 2538ntf    on517005   3.695   3.149  -0.080 -0.3556  0.0360 -0.4980
 2538ntf    on517006   3.531   3.155   0.308  0.1250 -0.3093  0.4187
 2538ntf    on517007   3.754   3.145   0.402  0.0268  0.1912 -0.2607
 2538ntf    fn417008   3.579   2.856   0.244 -0.0770  0.4706  0.3131
 2538ntf    fn417009   3.754   2.862   0.367 -0.2059  0.6973 -0.1475
 2538ntf    fn417010   3.568   2.902   0.455 -0.5279 -0.5615  0.5397
 2539ntf    cn117011   4.210   5.529   2.764 -0.1605 -0.4874 -0.2648
 2539ntf    sn217012   4.075   5.594   2.661 -0.0003 -0.0608 -0.2102
 2539ntf    nn317013   3.964   5.498   2.718 -0.3143  0.3107 -0.1942
 2539ntf    sn217014   3.911   5.364   2.657 -0.1974  0.2596 -0.1851
 2539ntf    cn117015   3.813   5.432   2.519 -0.5765 -0.3498 -0.2227
 2539ntf    fn417016   4.312   5.614   2.764 -0.5849  0.0278 -0.6864
 2539ntf    fn417017   4.173   5.533   2.891 -0.5126  0.3529 -0.3883
 2539ntf    fn417018   4.251   5.407   2.732  0.1549 -0.3840 -0.2641
 2539ntf    on517019   4.070   5.730   2.707  0.1161 -0.2086  0.2467
 2539ntf    on517020   4.114   5.563   2.526 -0.1563 -0.1443 -0.2361
 2539ntf    on517021   3.815   5.306   2.748  0.1125 -0.5939 -0.3864
 2539ntf    on517022   4.013   5.277   2.604 -0.3438  0.0426 -0.1165
 2539ntf    fn417023   3.708   5.509   2.545 -0.4714 -0.4019  0.3751
 2539ntf    fn417024   3.889   5.503   2.438  0.1420 -0.5845  0.2304
 2539ntf    fn417025   3.765   5.337   2.441 -0.3379 -0.5289 -0.1517
 2540ntf    cn117026   1.612   5.861   4.920  0.1098 -0.1992  0.4935
 2540ntf    sn217027   1.774   5.834   4.998  0.4103 -0.3504 -0.1729
 2540ntf    nn317028   1.820   5.985   5.005  0.4449 -0.3769  0.1793
 2540ntf    sn217029   1.897   6.071   4.899 -0.0608  0.0410  0.1436
 2540ntf    cn117030   1.774   6.199   4.863 -0.1310 -0.0406  0.0919
 2540ntf    fn417031   1.525   5.764   4.942  0.0452 -0.2148  0.1822
 2540ntf    fn417032   1.547   5.970   4.956  0.3859  0.0910  0.1309
 2540ntf    fn417033   1.634   5.860   4.789 -0.0603  0.0151  0.4627
 2540ntf    on517034   1.731   5.785   5.126  0.5509  0.3300  0.1443
 2540ntf    on517035   1.844   5.748   4.906  0.3714  0.2343 -0.7612
 2540ntf    on517036   1.931   6.007   4.774 -0.9936  0.2294 -0.2126
 2540ntf    on517037   1.999   6.153   4.960 -0.1458  0.1164  0.1838
 2540ntf    fn417038   1.664   6.153   4.806  0.1543 -0.2109 -0.3273
 2540ntf    fn417039   1.736   6.262   4.973  0.3150  0.3473  0.0267
 2540ntf    fn417040   1.814   6.292   4.778  0.0225  0.4614  0.7103
 2541ntf    cn117041   2.777   4.521   5.770 -0.1158 -0.2875 -0.2049
 2541ntf    sn217042   2.686   4.625   5.651  0.0216  0.0668 -0.0025
 2541ntf    nn317043   2.695   4.528   5.528  0.0099 -0.1683  0.1787
 2541ntf    sn217044   2.772   4.554   5.393  0.0301 -0.0408  0.2149
 2541ntf    cn117045   2.827   4.385   5.355  0.0678  0.0563 -0.1660
 2541ntf    fn417046   2.905   4.507   5.738 -0.0412 -0.0025 -0.0342
 2541ntf    fn417047   2.768   4.569   5.893 -0.3349  0.2223 -0.4144
 2541ntf    fn417048   2.730   4.398   5.777 -0.3332 -0.1741  0.3319
 2541ntf    on517049   2.552   4.624   5.704  0.2237  0.2209  0.5191
 2541ntf    on517050   2.761   4.748   5.652  0.2087 -0.0489  0.3632
 2541ntf    on517051   2.896   4.627   5.405 -0.0007 -0.0692  0.7373
 2541ntf    on517052   2.691   4.587   5.278  0.0595 -0.2424  0.1358
 2541ntf    fn417053   2.907   4.380   5.250  0.0578 -0.4858 -0.1499
 2541ntf    fn417054   2.889   4.317   5.450  0.1912 -0.1411 -0.3868
 2541ntf    fn417055   2.722   4.315   5.316 -0.0385 -0.0068  0.2276
 2542ntf    cn117056   0.193   2.041   0.608 -0.0370  0.1978 -0.0094
 2542ntf    sn217057   0.037   1.964   0.663  0.1304 -0.1164  0.0233
 2542ntf    nn317058  -0.057   1.994   0.542  0.0706 -0.1286  0.0673
 2542ntf    sn217059  -0.206   2.045   0.552 -0.0155 -0.3461 -0.0768
 2542ntf    cn117060  -0.185   2.222   0.519  0.0593 -0.3497 -0.0509
 2542ntf    fn417061   0.293   2.022   0.693  0.0603 -0.5544 -0.2880
 2542ntf    fn417062   0.231   1.991   0.492  0.6938 -0.1984  0.3987
 2542ntf    fn417063   0.189   2.173   0.596  0.2929  0.2796  0.7291
 2542ntf    on517064   0.074   1.824   0.662 -0.4098 -0.2588 -0.2513
 2542ntf    on517065   0.025   2.029   0.791  0.1924 -0.1845  0.0642
 2542ntf    on517066  -0.271   2.039   0.681 -0.0784  0.6011 -0.0587
 2542ntf    on517067  -0.288   2.002   0.443 -0.4401  0.0318  0.0912
 2542ntf    fn417068  -0.298   2.287   0.493  0.3104  0.1608  0.1066
 2542ntf    fn417069  -0.132   2.287   0.621  0.0698  0.1239 -0.3541
 2542ntf    fn417070  -0.109   2.240   0.413 -0.0089  0.6575  0.0555
 2543ntf    cn117071   2.874   3.577   3.919  0.2077  0.1613 -0.2475
 2543ntf    sn217072   2.990   3.598   3.780  0.1425 -0.0210 -0.3293
 2543ntf    nn317073   3.026   3.445   3.773  0.0267 -0.0661  0.0527
 2543ntf    sn217074   3.031   3.355   3.645  0.1709  0.2758 -0.1817
 2543ntf    cn117075   2.863   3.289   3.659  0.2439  0.1098 -0.0826
 2543ntf    fn417076   2.777   3.490   3.893  0.1387  0.1712 -0.0239
 2543ntf    fn417077   2.937   3.533   4.026 -0.1499 -0.2540 -0.2055
 2543ntf    fn417078   2.811   3.688   3.955  0.1626 -0.0089  0.1965
 2543ntf    on517079   2.882   3.638   3.693 -0.5373 -0.3648  0.3338
 2543ntf    on517080   3.094   3.689   3.819  0.2619 -0.4153  0.2850
 2543ntf    on517081   3.118   3.241   3.662  0.0463  0.1438 -0.4189
 2543ntf    on517082   3.035   3.433   3.523 -0.6693  0.2233 -0.2491
 2543ntf    fn417083   2.851   3.227   3.775  0.6331 -0.2141 -0.2153
 2543ntf    fn417084   2.763   3.375   3.648 -0.2501 -0.4601 -0.0914
 2543ntf    fn417085   2.833   3.193   3.573 -1.0235  0.3013  0.1283
 2544ntf    cn117086   4.455   2.324   2.510  0.0610  0.2225  0.0904
 2544ntf    sn217087   4.282   2.285   2.552  0.1483 -0.5320 -0.2163
 2544ntf    nn317088   4.255   2.167   2.453 -0.0813 -0.3034 -0.4276
 2544ntf    sn217089   4.199   2.173   2.307 -0.2899 -0.3473 -0.3501
 2544ntf    cn117090   4.024   2.126   2.328 -0.1898 -0.6995 -0.3062
 2544ntf    fn417091   4.482   2.324   2.380 -0.8959 -0.2629 -0.1180
 2544ntf    fn417092   4.494   2.442   2.554  0.5721 -0.0931  0.4922
 2544ntf    fn417093   4.531   2.225   2.555  0.1405  0.0102 -0.5008
 2544ntf    on517094   4.292   2.231   2.685 -0.3995  0.2961  0.1752
 2544ntf    on517095   4.222   2.415   2.533  0.3624 -0.2372  1.0370
 2544ntf    on517096   4.248   2.063   2.227  0.1784 -0.4058  0.0165
 2544ntf    on517097   4.185   2.306   2.252  0.2316 -0.1657 -0.0503
 2544ntf    fn417098   3.956   2.224   2.385  0.3198 -0.3697 -0.2571
 2544ntf    fn417099   3.966   2.088   2.216  0.1776 -0.2740 -0.6459
 2544ntf    fn417100   4.008   2.025   2.412 -0.0076 -0.2338  0.2938
 2545ntf    cn117101   0.895   0.293   0.959 -0.2356 -0.2128  0.0603
 2545ntf    sn217102   0.788   0.436   0.920  0.4047  0.2137 -0.1495
 2545ntf    nn317103   0.657   0.390   0.994  0.3463 -0.3108 -0.5714
 2545ntf    sn217104   0.542   0.303   0.933 -0.0595  0.0245 -0.2958
 2545ntf    cn117105   0.428   0.431   0.874 -0.2697 -0.0717 -0.1001
 2545ntf    fn417106   0.840   0.173   0.949  0.2208 -0.4112 -0.0754
 2545ntf    fn417107   1.008   0.298   0.891 -0.2111 -0.2547  0.0979
 2545ntf    fn417108   0.919   0.289   1.089  0.9192  0.0967 -0.1350
 2545ntf    on517109   0.851   0.544   0.993 -0.3552  0.6059 -0.0594
 2545ntf    on517110   0.783   0.440   0.776  0.5798  0.4734 -0.1497
 2545ntf    on517111   0.474   0.236   1.041 -0.4334  0.0908 -0.4900
 2545ntf    on517112   0.580   0.220   0.821 -0.3382 -0.6830  0.1254
 2545ntf    fn417113   0.321   0.387   0.811 -0.1684  0.0536 -0.3626
 2545ntf    fn417114   0.395   0.522   0.964  0.5812  0.1686 -0.0221
 2545ntf    fn417115   0.494   0.507   0.788  0.5147  0.2366  0.7510
 2546ntf    cn117116   1.435   5.319   2.389  0.0610 -0.0268  0.2315
 2546ntf    sn217117   1.533   5.172   2.430  0.2024  0.0168  0.0508
 2546ntf    nn317118   1.650   5.187   2.326  0.3114  0.0735  0.1819
 2546ntf    sn217119   1.779   5.277   2.336  0.3207  0.0590  0.1989
 2546ntf    cn117120   1.897   5.142   2.305 -0.0622 -0.1957 -0.1612
 2546ntf    fn417121   1.392   5.313   2.264 -0.0201 -0.3935  0.2764
 2546ntf    fn417122   1.330   5.331   2.469 -0.2646  0.3609 -0.2500
 2546ntf    fn417123   1.506   5.429   2.412 -0.0487  0.0216  0.3462
 2546ntf    on517124   1.564   5.182   2.570 -0.1842  0.4222  0.1113
 2546ntf    on517125   1.445   5.062   2.397  0.1015  0.1403 -0.0944
 2546ntf    on517126   1.814   5.333   2.463  0.0971  0.4113  0.1078
 2546ntf    on517127   1.794   5.361   2.219 -0.2038 -0.0916  0.0199
 2546ntf    fn417128   1.870   5.047   2.394 -0.4902  0.2488  0.1879
 2546ntf    fn417129   1.883   5.089   2.184 -0.3731 -0.6494  0.0680
 2546ntf    fn417130   2.022   5.175   2.328 -0.2424  0.0062  0.5389
 2547ntf    cn117131   3.401   5.286   4.325 -0.2482  0.0787  0.0423
 2547ntf    sn217132   3.307   5.436   4.282 -0.1468  0.1220 -0.0287
 2547ntf    nn317133   3.418   5.546   4.298  0.1421 -0.1699 -0.0036
 2547ntf    sn217134   3.534   5.586   4.201  0.2444 -0.2922  0.0683
 2547ntf    cn117135   3.658   5.647   4.320  0.0174 -0.2117  0.2656
 2547ntf    fn417136   3.336   5.178   4.285 -0.0695 -0.1883  0.4739
 2547ntf    fn417137   3.515   5.271   4.258 -0.0830  0.5685  0.2072
 2547ntf    fn417138   3.429   5.279   4.454  0.2822 -0.0990 -0.0798
 2547ntf    on517139   3.260   5.410   4.148  0.0632 -0.7272  0.0535
 2547ntf    on517140   3.207   5.448   4.384 -0.0438  0.4918  0.0290
 2547ntf    on517141   3.504   5.705   4.125 -0.2579  0.1504  0.9460
 2547ntf    on517142   3.597   5.478   4.129  0.5662 -0.0431 -0.0237
 2547ntf    fn417143   3.763   5.690   4.252 -0.3100 -0.1514 -0.2088
 2547ntf    fn417144   3.617   5.740   4.404 -0.4101 -0.3182  0.1783
 2547ntf    fn417145   3.703   5.546   4.393  0.0958 -0.2806  0.1235
 2548ntf    cn117146   5.046   4.894   6.573 -0.1883  0.1487  0.0024
 2548ntf    sn217147   5.047   5.057   6.491  0.0671  0.1062 -0.0820
 2548ntf    nn317148   4.942   5.124   6.587  0.1328  0.0051  0.0615
 2548ntf    sn217149   4.838   5.240   6.566 -0.2341 -0.3766 -0.2606
 2548ntf    cn117150   4.951   5.380   6.536 -0.3308 -0.2494 -0.0351
 2548ntf    fn417151   5.067   4.900   6.703  0.3194  0.2437 -0.0793
 2548ntf    fn417152   4.929   4.834   6.561 -0.2032  0.2751 -0.5480
 2548ntf    fn417153   5.142   4.817   6.526  0.0531  0.2729  0.2874
 2548ntf    on517154   5.182   5.104   6.508  0.2694 -0.6058  0.3462
 2548ntf    on517155   5.004   5.015   6.360  0.3440 -0.4167 -0.0074
 2548ntf    on517156   4.773   5.265   6.692  0.7282  0.0977  0.1547
 2548ntf    on517157   4.754   5.235   6.449 -0.5131  0.4839 -0.1020
 2548ntf    fn417158   5.017   5.370   6.421  0.0655  0.1687  0.1558
 2548ntf    fn417159   4.882   5.492   6.525  0.4385  0.2103 -0.2565
 2548ntf    fn417160   5.041   5.383   6.632 -0.4317  0.3596  0.0413
 2549ntf    cn117161   1.157   4.727   2.226  0.3478 -0.2710 -0.1345
 2549ntf    sn217162   1.201   4.572   2.311 -0.2893 -0.1117  0.4963
 2549ntf    nn317163   1.356   4.590   2.296 -0.3241 -0.2802 -0.1023
 2549ntf    sn217164   1.472   4.563   2.398 -0.0603  0.0131 -0.3255
 2549ntf    cn117165   1.550   4.420   2.317  0.1752  0.0219 -0.1145
 2549ntf    fn417166   1.207   4.747   2.105 -0.1893 -0.5928 -0.4119
 2549ntf    fn417167   1.027   4.730   2.204  0.3212  0.2081  0.0720
 2549ntf    fn417168   1.197   4.835   2.291 -0.1774 -0.0078 -0.2490
 2549ntf    on517169   1.140   4.589   2.440 -0.0541 -0.0351  0.5964
 2549ntf    on517170   1.146   4.464   2.232 -0.0208  0.0703  0.0540
 2549ntf    on517171   1.427   4.504   2.521  0.5042  0.1962 -0.0257
 2549ntf    on517172   1.576   4.662   2.419  0.1425 -0.2442 -0.1108
 2549ntf    fn417173   1.466   4.321   2.291  0.0589  0.0642  0.0951
 2549ntf    fn417174   1.616   4.448   2.206  0.0469  0.3683 -0.1065
 2549ntf    fn417175   1.635   4.357   2.397 -0.0430  0.5429  0.5412
 2550ntf    cn117176   4.605   3.717   4.244 -0.0082  0.0374  0.0991
 2550ntf    sn217177   4.676   3.666   4.403  0.0732 -0.1025  0.0180
 2550ntf    nn317178   4.617   3.783   4.489 -0.5501 -0.1788 -0.3035
 2550ntf    sn217179   4.483   3.790   4.572 -0.1779  0.0425  0.2890
 2550ntf    cn117180   4.415   3.946   4.508  0.0320  0.3003  0.6933
 2550ntf    fn417181   4.474   3.734   4.254  0.0062  0.0964  0.1792
 2550ntf    fn417182   4.651   3.834   4.203 -0.3455  0.0713 -0.1911
 2550ntf    fn417183   4.633   3.643   4.138 -0.0960 -0.4309  0.3966
 2550ntf    on517184   4.628   3.532   4.426  0.1134 -0.0406  0.4617
 2550ntf    on517185   4.817   3.686   4.380 -0.0436  0.4679 -0.2202
 2550ntf    on517186   4.506   3.813   4.712  0.0164 -0.4772  0.3455
 2550ntf    on517187   4.389   3.689   4.530 -0.2538  0.2321 -0.0018
 2550ntf    fn417188   4.291   3.960   4.550 -0.1536 -0.1426  0.3046
 2550ntf    fn417189   4.485   4.047   4.556  0.1183  0.4679  0.2238
 2550ntf    fn417190   4.420   3.961   4.377  0.4496 -0.1662  0.6516
 2551ntf    cn117191   2.986   1.926   2.023  0.0384 -0.2397 -0.0738
 2551ntf    sn217192   3.062   1.774   2.088  0.0740 -0.2137 -0.0546
 2551ntf    nn317193   2.973   1.671   2.011 -0.1656 -0.0120 -0.0506
 2551ntf    sn217194   3.001   1.599   1.874  0.4144  0.0695  0.0243
 2551ntf    cn117195   3.106   1.466   1.939  0.1045 -0.1666  0.0398
 2551ntf    fn417196   3.048   2.037   2.061 -0.2789  0.0726 -0.4546
 2551ntf    fn417197   3.012   1.935   1.893  0.2279 -0.1225 -0.0274
 2551ntf    fn417198   2.856   1.941   2.042  0.0152 -0.1178 -0.3142
 2551ntf    on517199   3.203   1.786   2.062  0.0123 -0.3967 -0.4800
 2551ntf    on517200   3.017   1.780   2.225 -0.0672  0.2762 -0.1178
 2551ntf    on517201   3.089   1.660   1.776  0.1980  0.6259  0.1697
 2551ntf    on517202   2.887   1.529   1.821  0.2829  0.1780  0.1654
 2551ntf    fn417203   3.045   1.372   2.010  0.5396 -0.3131  0.2217
 2551ntf    fn417204   3.177   1.400   1.849  0.2447  0.0031  0.0262
 2551ntf    fn417205   3.188   1.520   2.027  0.5785 -0.3196 -0.3016
 2552ntf    cn117206   2.008   4.945   4.105  0.0257 -0.1671 -0.1309
 2552ntf    sn217207   2.168   4.929   4.021  0.0243 -0.0444 -0.1567
 2552ntf    nn317208   2.255   5.027   4.107 -0.4892  0.1379  0.1601
 2552ntf    sn217209   2.326   5.161   4.064  0.1742 -0.0776  0.5609
 2552ntf    cn117210   2.220   5.281   4.150  0.0243  0.2439 -0.0689
 2552ntf    fn417211   1.931   4.837   4.103 -0.3946  0.1268 -0.0358
 2552ntf    fn417212   2.013   4.979   4.233 -0.3874 -0.2742 -0.0842
 2552ntf    fn417213   1.933   5.044   4.057 -0.1331 -0.1417  0.1655
 2552ntf    on517214   2.211   4.795   4.052  0.3553  0.0588 -0.1663
 2552ntf    on517215   2.124   4.967   3.889 -0.3538  0.9454  0.2452
 2552ntf    on517216   2.309   5.199   3.926  0.1883 -0.3177  0.4911
 2552ntf    on517217   2.457   5.177   4.120  0.6038 -0.0581 -0.4361
 2552ntf    fn417218   2.248   5.409   4.131  0.9197 -0.0546 -0.8744
 2552ntf    fn417219   2.093   5.278   4.115 -0.1313  0.2596  0.4949
 2552ntf    fn417220   2.228   5.268   4.281  0.1751  0.1280 -0.0887
 2553ntf    cn117221   1.618   4.483   4.208  0.0715  0.1591  0.2902
 2553ntf    sn217222   1.640   4.356   4.080  0.2190  0.3016  0.1739
 2553ntf    nn317223   1.796   4.356   4.062  0.2187  0.0069  0.1732
 2553ntf    sn217224   1.887   4.437   3.963 -0.0719  0.0992 -0.0228
 2553ntf    cn117225   1.919   4.310   3.837  0.1129 -0.1088  0.2319
 2553ntf    fn417226   1.687   4.595   4.192  0.2416  0.0042 -0.0859
 2553ntf    fn417227   1.492   4.521   4.220 -0.0006  0.1274 -0.3288
 2553ntf    fn417228   1.647   4.442   4.330  0.3658  0.1008  0.2007
 2553ntf    on517229   1.592   4.232   4.137  0.3295  0.3953  0.4716
 2553ntf    on517230   1.565   4.408   3.968  0.3697 -0.0281 -0.0798
 2553ntf    on517231   2.020   4.469   4.009 -0.0631  0.4386 -0.2831
 2553ntf    on517232   1.821   4.540   3.888  0.4157  0.3342 -0.1332
 2553ntf    fn417233   1.998   4.348   3.738 -0.1545 -0.3481 -0.0764
 2553ntf    fn417234   1.982   4.207   3.892  0.1109 -0.1436  0.1692
 2553ntf    fn417235   1.809   4.271   3.776  0.2086 -0.3787  0.2307
 2554ntf    cn117236   0.869   3.424   4.692  0.2708 -0.2196  0.0108
 2554ntf    sn217237   0.872   3.286   4.574 -0.2853 -0.2038 -0.0285
 2554ntf    nn317238   0.723   3.238   4.571 -0.1359 -0.6864  0.1168
 2554ntf    sn217239   0.612   3.280   4.468  0.5279  0.2023 -0.2507
 2554ntf    cn117240   0.476   3.295   4.588  0.4528 -0.1890 -0.2846
 2554ntf    fn417241   0.837   3.381   4.813  0.6221 -0.3400  0.0631
 2554ntf    fn417242   0.983   3.486   4.713  0.1996 -0.1436  0.1742
 2554ntf    fn417243   0.776   3.511   4.656  0.0371 -0.4834 -0.0311
 2554ntf    on517244   0.922   3.355   4.458  0.1438  0.1001  0.3345
 2554ntf    on517245   0.957   3.190   4.640  0.2526  0.6865  0.5971
 2554ntf    on517246   0.578   3.169   4.382  0.4834  0.1311 -0.1407
 2554ntf    on517247   0.625   3.413   4.414 -0.4275  0.1713 -0.5798
 2554ntf    fn417248   0.505   3.391   4.675 -0.3632 -0.0248 -0.1920
 2554ntf    fn417249   0.360   3.319   4.529  0.0618  0.3726  0.6889
 2554ntf    fn417250   0.455   3.181   4.653 -0.7686  0.1353 -0.0929
 2555ntf    cn117251   3.479   6.897   5.772  0.0696 -0.0760  0.2974
 2555ntf    sn217252   3.324   6.824   5.831 -0.0475 -0.0883 -0.0210
 2555ntf    nn317253   3.374   6.786   5.975  0.1604 -0.0762 -0.0888
 2555ntf    sn217254   3.416   6.643   6.024 -0.0835  0.0107  0.3782
 2555ntf    cn117255   3.265   6.601   6.118  0.0513 -0.5980  0.3287
 2555ntf    fn417256   3.507   6.995   5.856 -0.1778  0.0266  0.2616
 2555ntf    fn417257   3.580   6.812   5.773  0.0094 -0.1514 -0.0272
 2555ntf    fn417258   3.464   6.954   5.653  0.1257 -0.0355  0.3096
 2555ntf    on517259   3.246   6.945   5.838  0.0868 -0.0025 -0.0097
 2555ntf    on517260   3.275   6.724   5.741  0.0882 -0.0748 -0.1089
 2555ntf    on517261   3.518   6.651   6.126  0.1081  0.0362  0.1840
 2555ntf    on517262   3.422   6.532   5.932 -0.0536 -0.0196  0.4169
 2555ntf    fn417263   3.237   6.689   6.213 -0.0254  0.1858 -0.4067
 2555ntf    fn417264   3.157   6.600   6.042  0.4449 -0.4170 -0.2481
 2555ntf    fn417265   3.269   6.480   6.172  0.0680 -0.5801  0.3674
 2556ntf    cn117266   6.561   5.968   4.417  0.0784  0.0537  0.0274
 2556ntf    sn217267   6.427   5.996   4.299 -0.0984  0.1068  0.2410
 2556ntf    nn317268   6.315   5.911   4.367 -0.0113 -0.2731 -0.0871
 2556ntf    sn217269   6.317   5.754   4.366  0.2384 -0.2705 -0.0305
 2556ntf    cn117270   6.187   5.722   4.242  0.3033  0.2549 -0.2360
 2556ntf    fn417271   6.607   5.844   4.416 -0.1673 -0.0399  0.1639
 2556ntf    fn417272   6.665   6.048   4.398 -0.2904  0.5620  0.1442
 2556ntf    fn417273   6.516   5.992   4.539  0.1249 -0.5210  0.1614
 2556ntf    on517274   6.414   6.140   4.307 -0.0722  0.0951  0.4958
 2556ntf    on517275   6.468   5.937   4.174 -0.1137 -0.6866  0.6045
 2556ntf    on517276   6.260   5.702   4.487  0.0708 -0.2945 -0.1191
 2556ntf    on517277   6.439   5.689   4.324  0.1483 -0.3302 -0.2044
 2556ntf    fn417278   6.080   5.799   4.253 -0.1612 -0.3368 -0.5908
 2556ntf    fn417279   6.220   5.728   4.115 -0.1721 -0.6692 -0.4131
 2556ntf    fn417280   6.149   5.596   4.252 -0.4926  0.5174  0.1225
 2557ntf    cn117281   6.574   5.787   3.569 -0.0996  0.5797 -0.3890
 2557ntf    sn217282   6.723   5.843   3.655  0.0354 -0.4008  0.0307
 2557ntf    nn317283   6.827   5.776   3.559 -0.0937 -0.4817 -0.0526
 2557ntf    sn217284   6.958   5.692   3.584  0.2418  0.0143 -0.1317
 2557ntf    cn117285   6.883   5.530   3.618 -0.1351  0.2202  0.0260
 2557ntf    fn417286   6.470   5.826   3.641  0.3938  0.6480  0.3008
 2557ntf    fn417287   6.553   5.854   3.457 -0.2717  0.6311 -0.3279
 2557ntf    fn417288   6.570   5.658   3.539  0.0918  0.4355  0.2023
 2557ntf    on517289   6.727   5.987   3.641  0.5650 -0.4018  0.1346
 2557ntf    on517290   6.707   5.787   3.787 -0.4224 -0.5965 -0.1079
 2557ntf    on517291   7.031   5.729   3.703  0.4159  0.1633 -0.2847
 2557ntf    on517292   7.035   5.666   3.465  0.0254  0.1416 -0.3008
 2557ntf    fn417293   6.959   5.452   3.694 -0.0748  0.0278 -0.2323
 2557ntf    fn417294   6.765   5.553   3.674  0.0217  0.6735  0.1795
 2557ntf    fn417295   6.865   5.476   3.499  0.3508 -0.3158  0.1879
 2558ntf    cn117296   6.236   4.108   2.919  0.2117 -0.6219 -0.3754
 2558ntf    sn217297   6.349   3.991   2.836  0.5483 -0.5552 -0.0116
 2558ntf    nn317298   6.308   3.862   2.915  0.3686 -0.1559  0.5612
 2558ntf    sn217299   6.292   3.719   2.852  0.0476  0.0498  0.1748
 2558ntf    cn117300   6.379   3.636   2.988  0.0433 -0.4988 -0.1532
 2558ntf    fn417301   6.108   4.079   2.900  0.0198 -0.2080  0.2503
 2558ntf    fn417302   6.256   4.100   3.049 -0.2231  0.2714 -0.2421
 2558ntf    fn417303   6.249   4.235   2.882 -1.0352 -0.3372  0.1005
 2558ntf    on517304   6.313   3.995   2.697  0.8404  0.0246 -0.0740
 2558ntf    on517305   6.480   4.044   2.864  0.2685 -0.2276  0.7260
 2558ntf    on517306   6.369   3.693   2.733 -0.5003  0.2145 -0.2210
 2558ntf    on517307   6.156   3.669   2.853  0.1076 -0.1254 -0.1427
 2558ntf    fn417308   6.337   3.674   3.108  0.6641 -0.1207 -0.0545
 2558ntf    fn417309   6.378   3.504   2.984  0.3493 -0.4961 -0.3212
 2558ntf    fn417310   6.507   3.671   2.984  0.0016 -0.3506 -0.2252
 2559ntf    cn117311   3.210   3.002   4.901 -0.0187  0.2287 -0.1599
 2559ntf    sn217312   3.276   3.016   4.732 -0.2208 -0.2666 -0.2823
 2559ntf    nn317313   3.194   2.897   4.670 -0.1472 -0.4745  0.0195
 2559ntf    sn217314   3.239   2.755   4.621  0.5095 -0.1552 -0.3169
 2559ntf    cn117315   3.110   2.664   4.711  0.5004  0.2101  0.0395
 2559ntf    fn417316   3.223   2.877   4.942  0.0342  0.1733 -0.3402
 2559ntf    fn417317   3.276   3.076   4.988  0.3272 -0.1718 -0.0778
 2559ntf    fn417318   3.080   3.024   4.907  0.0245  0.4656 -0.0786
 2559ntf    on517319   3.238   3.146   4.684 -0.0062 -0.0241  0.1966
 2559ntf    on517320   3.418   2.989   4.745 -0.2358 -0.6284 -0.8046
 2559ntf    on517321   3.360   2.705   4.681  0.0485 -0.2502  0.5533
 2559ntf    on517322   3.207   2.739   4.481  0.1430  0.0058 -0.2503
 2559ntf    fn417323   2.986   2.678   4.667  0.4435 -0.0806  0.1059
 2559ntf    fn417324   3.134   2.534   4.710  0.4769  0.2024  0.3209
 2559ntf    fn417325   3.110   2.701   4.838  0.2466 -0.2849  0.1860
 2560ntf    cn117326   2.690   6.309   6.312 -0.0521 -0.2388 -0.0596
 2560ntf    sn217327   2.618   6.470   6.357  0.0276 -0.2088 -0.0414
 2560ntf    nn317328   2.693   6.519   6.485 -0.5909 -0.2307  0.3303
 2560ntf    sn217329   2.845   6.524   6.523 -0.5050 -0.2940 -0.0031
 2560ntf    cn117330   2.903   6.671   6.435 -0.3125 -0.0181  0.5787
 2560ntf    fn417331   2.709   6.226   6.413 -0.4345  0.0385  0.2447
 2560ntf    fn417332   2.604   6.258   6.225 -0.2287  0.1331 -0.1089
 2560ntf    fn417333   2.806   6.313   6.249  0.0883 -0.5514  0.1775
 2560ntf    on517334   2.642   6.556   6.243  0.1923 -0.3716 -0.1309
 2560ntf    on517335   2.482   6.431   6.385  0.0678 -0.0015  0.4351
 2560ntf    on517336   2.935   6.425   6.468 -0.0183  0.0939  0.0893
 2560ntf    on517337   2.861   6.559   6.662  0.5820 -0.2737 -0.1196
 2560ntf    fn417338   2.910   6.651   6.305 -0.0799 -0.0062  0.5877
 2560ntf    fn417339   2.826   6.778   6.450 -0.3460 -0.0304  0.4896
 2560ntf    fn417340   3.024   6.716   6.464 -0.0587 -0.5918  0.4051
 2561ntf    cn117341   6.665   3.853   3.359 -0.2650 -0.6019 -0.0870
 2561ntf    sn217342   6.745   3.940   3.497 -0.3124 -0.2546 -0.2774
 2561ntf    nn317343   6.826   4.053   3.424  0.1611  0.0211  0.6518
 2561ntf    sn217344   6.885   4.190   3.471  0.0719  0.2044  0.2381
 2561ntf    cn117345   7.050   4.141   3.531  0.2100  0.1712 -0.1653
 2561ntf    fn417346   6.699   3.900   3.240  0.0599  0.0761  0.2661
 2561ntf    fn417347   6.705   3.727   3.364  0.1392 -0.4613  0.2868
 2561ntf    fn417348   6.532   3.849   3.355 -0.2800 -0.3008  0.0669
 2561ntf    on517349   6.632   3.970   3.582  0.3550 -0.2823  0.6421
 2561ntf    on517350   6.835   3.836   3.538 -0.0462 -0.0233 -0.2691
 2561ntf    on517351   6.825   4.249   3.588 -0.1543  0.0155  0.2180
 2561ntf    on517352   6.924   4.285   3.370 -0.6003  0.2526  0.0251
 2561ntf    fn417353   7.114   4.242   3.587  0.3586  0.4760 -0.8845
 2561ntf    fn417354   7.049   4.051   3.628 -0.2849 -0.4045 -0.6929
 2561ntf    fn417355   7.123   4.082   3.439 -0.2604  0.3182 -0.6351
 2562ntf    cn117356   3.629   1.216   1.320  0.4829 -0.2131  0.2721
 2562ntf    sn217357   3.641   1.064   1.221  0.1707 -0.1212  0.0938
 2562ntf    nn317358   3.491   1.043   1.181  0.2516  0.2818 -0.4454
 2562ntf    sn217359   3.436   0.922   1.098  0.0081 -0.0456  0.1824
 2562ntf    cn117360   3.380   0.995   0.940  0.0248  0.0996  0.2436
 2562ntf    fn417361   3.575   1.314   1.249 -0.1564 -0.4702  0.3990
 2562ntf    fn417362   3.547   1.204   1.423 -0.4778  0.1879 -0.4390
 2562ntf    fn417363   3.737   1.267   1.377  0.1109  0.5403  0.3102
 2562ntf    on517364   3.729   1.108   1.115  0.2975  0.5988  0.4883
 2562ntf    on517365   3.688   0.962   1.311  0.0003 -0.1325  0.1690
 2562ntf    on517366   3.311   0.871   1.150  0.2476 -0.8575 -0.0313
 2562ntf    on517367   3.532   0.823   1.057 -0.6043 -0.4361 -0.3504
 2562ntf    fn417368   3.337   0.904   0.855  0.3232  0.1408  0.0473
 2562ntf    fn417369   3.276   1.076   0.950 -0.0790 -0.0760  0.6228
 2562ntf    fn417370   3.474   1.063   0.877 -0.2651 -0.2285 -0.5464
 2563ntf    cn117371   1.873   0.441   6.558  0.2807 -0.0700  0.1501
 2563ntf    sn217372   1.784   0.289   6.513 -0.2071  0.3084 -0.1852
 2563ntf    nn317373   1.654   0.342   6.444 -0.5246  0.4207  0.4901
 2563ntf    sn217374   1.639   0.408   6.302 -0.0861 -0.0182  0.2394
 2563ntf    cn117375   1.520   0.289   6.234 -0.3179  0.3096  0.0721
 2563ntf    fn417376   1.994   0.419   6.606  0.2807  0.1880  0.2686
 2563ntf    fn417377   1.885   0.530   6.461 -0.3010  0.3216  0.4238
 2563ntf    fn417378   1.818   0.515   6.653  0.5180  0.0724  0.1751
 2563ntf    on517379   1.875   0.224   6.421 -0.2742  0.0081 -0.0409
 2563ntf    on517380   1.753   0.216   6.634  0.2027  0.2235 -0.1288
 2563ntf    on517381   1.753   0.396   6.213 -0.0867 -0.3785  0.2827
 2563ntf    on517382   1.559   0.527   6.315 -0.2783 -0.0504 -0.5752
 2563ntf    fn417383   1.412   0.272   6.309 -0.1857  0.2431  0.2485
 2563ntf    fn417384   1.489   0.317   6.108 -0.0023  0.3854  0.0106
 2563ntf    fn417385   1.570   0.167   6.221 -0.5221  0.2572 -0.2418
 2564ntf    cn117386   3.647   2.503   2.856 -0.6773 -0.1981  0.0668
 2564ntf    sn217387   3.711   2.344   2.794  0.2104  0.2533 -0.1931
 2564ntf    nn317388   3.656   2.252   2.909  0.3577 -0.1001 -0.4043
 2564ntf    sn217389   3.565   2.128   2.877 -0.1547  0.1677 -0.0105
 2564ntf    cn117390   3.406   2.213   2.858 -0.2968 -0.0893  0.0249
 2564ntf    fn417391   3.515   2.513   2.860 -0.6684 -0.2548  0.5800
 2564ntf    fn417392   3.688   2.533   2.978 -0.3464 -0.3000 -0.0186
 2564ntf    fn417393   3.688   2.605   2.783 -0.2945 -0.5866 -0.2708
 2564ntf    on517394   3.653   2.343   2.662  0.2657 -0.0742 -0.2159
 2564ntf    on517395   3.853   2.363   2.805  0.1795  0.2043  0.3073
 2564ntf    on517396   3.550   2.059   3.003  0.2385  0.1623  0.0346
 2564ntf    on517397   3.590   2.056   2.755  0.0451 -0.1573  0.2208
 2564ntf    fn417398   3.299   2.136   2.874 -0.5614  0.1648 -0.4813
 2564ntf    fn417399   3.399   2.314   2.943 -0.2005 -0.2269  0.1959
 2564ntf    fn417400   3.382   2.264   2.738 -0.3528 -0.0253  0.0628
 2565ntf    cn117401   5.059   3.991   4.150 -0.4421  0.1697 -0.1205
 2565ntf    sn217402   5.147   4.142   4.200 -0.1029 -0.0430 -0.0670
 2565ntf    nn317403   5.160   4.219   4.063  0.2134 -0.0004 -0.0146
 2565ntf    sn217404   5.284   4.219   3.967 -0.0166 -0.1341 -0.3148
 2565ntf    cn117405   5.212   4.163   3.810 -0.2011  0.4019 -0.4264
 2565ntf    fn417406   5.062   3.889   4.235 -0.1222 -0.3840 -0.7811
 2565ntf    fn417407   4.933   4.022   4.126 -0.4213  0.3179 -0.0380
 2565ntf    fn417408   5.114   3.934   4.044 -0.1576  0.1488  0.0344
 2565ntf    on517409   5.045   4.209   4.277 -0.4151 -0.2316 -0.3154
 2565ntf    on517410   5.269   4.102   4.264  0.0106 -0.3294 -0.4596
 2565ntf    on517411   5.392   4.125   3.985 -0.0328 -0.0589  0.1888
 2565ntf    on517412   5.319   4.355   3.934 -0.5106 -0.0226 -0.3852
 2565ntf    fn417413   5.306   4.158   3.717  0.2943  0.0232  0.0842
 2565ntf    fn417414   5.161   4.041   3.822  0.5933  0.0643 -0.3805
 2565ntf    fn417415   5.119   4.243   3.762 -0.5063 -0.0986 -0.6802
 2566ntf    cn117416   1.427   3.787   1.755 -0.0248  0.0688  0.1627
 2566ntf    sn217417   1.401   3.907   1.621 -0.3980  0.0376  0.2050
 2566ntf    nn317418   1.473   3.843   1.497  0.5356  0.3038  0.5956
 2566ntf    sn217419   1.548   3.912   1.378  0.1823 -0.1162  0.1208
 2566ntf    cn117420   1.466   3.821   1.243 -0.0579 -0.2366  0.3484
 2566ntf    fn417421   1.556   3.768   1.779  0.0056 -0.1799 -0.1916
 2566ntf    fn417422   1.379   3.830   1.871  0.1928  0.0856  0.2481
 2566ntf    fn417423   1.370   3.669   1.737 -0.0319  0.1260 -0.1853
 2566ntf    on517424   1.258   3.912   1.603 -0.3682  0.1383 -0.0095
 2566ntf    on517425   1.462   4.021   1.684 -0.1662 -0.0533  0.1495
 2566ntf    on517426   1.688   3.879   1.372  0.1052 -0.4021 -0.1429
 2566ntf    on517427   1.507   4.049   1.357  0.0974 -0.1243  0.2310
 2566ntf    fn417428   1.335   3.825   1.227  0.0269  0.1077 -0.3015
 2566ntf    fn417429   1.505   3.861   1.123  0.0838  0.0041  0.4725
 2566ntf    fn417430   1.488   3.691   1.251 -0.3071 -0.2849  0.2536
 2567ntf    cn117431   0.573   5.326   2.063  0.5292 -0.0506  0.2604
 2567ntf    sn217432   0.461   5.270   2.194  0.2740  0.0335  0.0802
 2567ntf    nn317433   0.455   5.400   2.281 -0.0318  0.1747 -0.1520
 2567ntf    sn217434   0.537   5.434   2.411 -0.0934 -0.3427  0.0258
 2567ntf    cn117435   0.439   5.374   2.552 -0.3445 -0.0419 -0.0173
 2567ntf    fn417436   0.699   5.349   2.096  0.4715 -0.2417  0.6153
 2567ntf    fn417437   0.586   5.235   1.967  0.5170 -0.3364  0.5285
 2567ntf    fn417438   0.526   5.437   2.008 -0.1325 -0.2927  0.3278
 2567ntf    on517439   0.337   5.226   2.136  0.2358  0.4693 -0.1683
 2567ntf    on517440   0.531   5.162   2.260 -0.1063  0.0722  0.5495
 2567ntf    on517441   0.542   5.574   2.445 -0.6407 -0.1588 -0.6149
 2567ntf    on517442   0.661   5.363   2.424 -0.0706 -0.2073  0.5961
 2567ntf    fn417443   0.479   5.413   2.672 -0.3711  0.2501 -0.1037
 2567ntf    fn417444   0.311   5.403   2.538 -0.1738  0.4805 -0.5299
 2567ntf    fn417445   0.426   5.242   2.560  0.2127 -0.0874  0.2117
 2568ntf    cn117446   4.034   1.951   4.594 -0.0823 -0.2002 -0.4496
 2568ntf    sn217447   3.971   1.790   4.649  0.2850 -0.1183  0.2227
 2568ntf    nn317448   4.044   1.771   4.787  0.9453  0.4274 -0.0450
 2568ntf    sn217449   4.089   1.638   4.858  0.1246  0.1238 -0.0779
 2568ntf    cn117450   4.256   1.694   4.905  0.0743 -0.0432  0.2991
 2568ntf    fn417451   4.164   1.966   4.572 -0.1757  0.4072 -0.6136
 2568ntf    fn417452   3.997   1.974   4.469  0.0999 -0.1680 -0.4973
 2568ntf    fn417453   3.988   2.052   4.667 -0.2933 -0.3739 -0.3398
 2568ntf    on517454   3.829   1.812   4.654  0.1749 -0.6789 -0.2777
 2568ntf    on517455   4.022   1.715   4.537 -0.1265 -0.1563  0.0592
 2568ntf    on517456   4.114   1.528   4.769 -0.8376  0.0628 -0.2773
 2568ntf    on517457   4.017   1.608   4.979 -0.3448 -0.4060 -0.4858
 2568ntf    fn417458   4.323   1.594   4.958 -0.1529 -0.2162  0.2623
 2568ntf    fn417459   4.314   1.736   4.794  0.5111  1.0367  0.9198
 2568ntf    fn417460   4.246   1.792   4.994  0.2100  0.3227 -0.0891
 2569ntf    cn117461   2.407   0.659   6.033 -0.1011 -0.0670  0.0168
 2569ntf    sn217462   2.346   0.570   5.887 -0.0240  0.0597 -0.0936
 2569ntf    nn317463   2.360   0.426   5.948  0.0826  0.1907  0.1918
 2569ntf    sn217464   2.477   0.324   5.929 -0.0438  0.1379 -0.3036
 2569ntf    cn117465   2.435   0.241   5.773 -0.0729 -0.1064 -0.1670
 2569ntf    fn417466   2.496   0.594   6.106  0.1116  0.0893 -0.0987
 2569ntf    fn417467   2.467   0.775   6.011 -0.0356 -0.1394 -0.1870
 2569ntf    fn417468   2.305   0.688   6.111 -0.4611 -0.3795 -0.3387
 2569ntf    on517469   2.209   0.614   5.880 -0.1165 -0.2050  0.0509
 2569ntf    on517470   2.430   0.611   5.777  0.3235 -0.7443 -0.1319
 2569ntf    on517471   2.472   0.217   6.025  0.0562 -0.1822 -0.6526
 2569ntf    on517472   2.607   0.385   5.913  0.1778 -0.0847  0.5907
 2569ntf    fn417473   2.313   0.191   5.787 -0.0978 -0.0541 -0.1933
 2569ntf    fn417474   2.433   0.321   5.667  0.0797 -0.3067 -0.3219
 2569ntf    fn417475   2.515   0.140   5.744  0.1847 -0.0309  0.2816
 2570ntf    cn117476   4.093   1.333   0.264  0.5802  0.1293 -0.4157
 2570ntf    sn217477   4.046   1.443   0.400 -0.0549 -0.0466 -0.4866
 2570ntf    nn317478   4.172   1.538   0.402 -0.2045  0.1477 -0.1508
 2570ntf    sn217479   4.185   1.672   0.482 -0.1137  0.0325  0.0295
 2570ntf    cn117480   4.143   1.794   0.353 -0.1056  0.0957  0.0871
 2570ntf    fn417481   3.986   1.276   0.210  0.2755  0.5564 -0.2660
 2570ntf    fn417482   4.135   1.403   0.160 -0.0899  0.2491 -0.6114
 2570ntf    fn417483   4.182   1.237   0.284  0.1332 -0.1280  0.4036
 2570ntf    on517484   3.925   1.509   0.358  0.1395  0.5579 -0.1178
 2570ntf    on517485   4.045   1.356   0.515  0.0993  0.9322  0.2754
 2570ntf    on517486   4.320   1.704   0.520  0.0666 -0.5516 -0.1214
 2570ntf    on517487   4.088   1.687   0.588  0.3146  0.0693  0.4190
 2570ntf    fn417488   4.235   1.803   0.258 -0.0511  0.0155  0.1314
 2570ntf    fn417489   4.031   1.761   0.291  0.1312 -0.3249 -0.1216
 2570ntf    fn417490   4.124   1.915   0.405  0.2340  0.2684 -0.1851
 2571ntf    cn117491   6.006   0.929   0.136  0.1241  0.1031 -0.0423
 2571ntf    sn217492   6.025   1.100   0.078  0.3008  0.1136  0.0495
 2571ntf    nn317493   6.046   1.176   0.214  0.3438  0.1362  0.0305
 2571ntf    sn217494   5.933   1.248   0.296  0.0840  0.0315 -0.2356
 2571ntf    cn117495   5.928   1.413   0.220 -0.1232  0.2065  0.1550
 2571ntf    fn417496   6.113   0.898   0.207  0.1247 -0.1218 -0.1393
 2571ntf    fn417497   5.908   0.907   0.223  0.4651 -0.4256  0.2099
 2571ntf    fn417498   5.993   0.841   0.038  0.1519  0.3618 -0.2804
 2571ntf    on517499   6.146   1.080   0.002  0.3235 -0.1662  0.1574
 2571ntf    on517500   5.903   1.117   0.004  0.0290 -0.4123  0.3790
 2571ntf    on517501   5.974   1.266   0.433  0.1075  0.0796 -0.2490
 2571ntf    on517502   5.800   1.196   0.275 -0.0602  0.5356 -0.6007
 2571ntf    fn417503   5.921   1.394   0.089 -0.0124 -0.1612  0.2006
 2571ntf    fn417504   5.824   1.480   0.266  0.0200  0.1751  0.5248
 2571ntf    fn417505   6.038   1.481   0.249  0.4169 -0.2098 -0.8691
 2572ntf    cn117506   3.930   5.331   4.551 -0.0522  0.1574  0.3665
 2572ntf    sn217507   4.038   5.476   4.530 -0.0846  0.0921 -0.2633
 2572ntf    nn317508   4.149   5.467   4.640  0.0245  0.1318 -0.3716
 2572ntf    sn217509   4.141   5.495   4.794 -0.1844 -0.1464 -0.3310
 2572ntf    cn117510   4.192   5.669   4.784  0.1480 -0.2321 -0.1724
 2572ntf    fn417511   3.855   5.317   4.443  0.5174  0.2262 -0.0441
 2572ntf    fn417512   4.008   5.225   4.564  0.3252  0.4243  0.2829
 2572ntf    fn417513   3.855   5.329   4.660 -0.6483  0.3223 -0.0369
 2572ntf    on517514   4.084   5.453   4.396  0.4381 -0.3629 -0.0052
 2572ntf    on517515   3.953   5.592   4.546  0.2479  0.3972 -0.6844
 2572ntf    on517516   4.246   5.438   4.876  0.0543  0.4537 -0.2196
 2572ntf    on517517   4.009   5.489   4.851 -0.1753  0.8779 -0.1865
 2572ntf    fn417518   4.204   5.725   4.903 -0.2344 -0.0529 -0.2152
 2572ntf    fn417519   4.303   5.694   4.717 -0.0639  0.2177 -0.3583
 2572ntf    fn417520   4.100   5.751   4.736  0.0295 -0.1019  0.2667
 2573ntf    cn117521   6.648   6.637   1.227  0.6109 -0.0646 -0.3138
 2573ntf    sn217522   6.587   6.544   1.083 -0.0240 -0.0511 -0.0589
 2573ntf    nn317523   6.450   6.617   1.059 -0.0952 -0.1157  0.1447
 2573ntf    sn217524   6.305   6.593   1.114 -0.0783  0.2248  0.3369
 2573ntf    cn117525   6.282   6.744   1.213  0.3554  0.5093  0.0098
 2573ntf    fn417526   6.570   6.630   1.334  0.4583  0.4510 -0.3903
 2573ntf    fn417527   6.759   6.586   1.277  0.0464 -0.4827  0.5482
 2573ntf    fn417528   6.669   6.765   1.200  0.2155  0.1039  0.1463
 2573ntf    on517529   6.685   6.578   0.983 -0.5843  0.0507 -0.5789
 2573ntf    on517530   6.589   6.409   1.133 -0.0848 -0.0202  0.0266
 2573ntf    on517531   6.299   6.491   1.216  0.0418 -0.1679 -0.0455
 2573ntf    on517532   6.199   6.601   1.017  0.1033  0.0234  0.1217
 2573ntf    fn417533   6.156   6.746   1.256  0.3044  0.4118 -0.1350
 2573ntf    fn417534   6.361   6.762   1.317  0.7493  0.6218 -0.3085
 2573ntf    fn417535   6.296   6.849   1.133  0.0580  0.3138 -0.3052
 2574ntf    cn117536   0.534   5.567   3.951 -0.0306  0.1572  0.0779
 2574ntf    sn217537   0.695   5.484   3.962 -0.0953  0.0125 -0.0764
 2574ntf    nn317538   0.732   5.511   4.112  0.5405 -0.1225 -0.2048
 2574ntf    sn217539   0.718   5.420   4.240  0.1079  0.0809 -0.1054
 2574ntf    cn117540   0.610   5.528   4.339  0.1330 -0.2234  0.2524
 2574ntf    fn417541   0.482   5.586   3.831  0.3055  0.4070 -0.0300
 2574ntf    fn417542   0.438   5.503   4.016  0.1582  0.0532  0.2533
 2574ntf    fn417543   0.533   5.694   3.990  0.3619  0.2264 -0.1385
 2574ntf    on517544   0.656   5.349   3.929  0.0600 -0.0611  0.0438
 2574ntf    on517545   0.787   5.544   3.869  0.7292 -0.1253  0.6438
 2574ntf    on517546   0.839   5.409   4.317  0.0563  0.5613  0.0499
 2574ntf    on517547   0.639   5.301   4.225 -0.0177  0.1705 -0.1591
 2574ntf    fn417548   0.509   5.571   4.265  0.2862 -0.1818  0.0697
 2574ntf    fn417549   0.558   5.468   4.445 -0.1614 -0.5137 -0.0499
 2574ntf    fn417550   0.681   5.632   4.377  0.1536 -0.1062 -0.1004
 2575ntf    cn117551   4.597   5.676   4.798  0.0159 -0.4459 -0.6076
 2575ntf    sn217552   4.745   5.643   4.699  0.3807 -0.4020 -0.0804
 2575ntf    nn317553   4.672   5.585   4.573  0.2028  0.1773 -0.2462
 2575ntf    sn217554   4.625   5.637   4.432 -0.0449 -0.2521 -0.3244
 2575ntf    cn117555   4.778   5.617   4.336  0.0126 -0.0983 -0.2651
 2575ntf    fn417556   4.546   5.797   4.779 -0.3589 -0.4866  0.1036
 2575ntf    fn417557   4.504   5.583   4.784 -0.4163 -0.1279  0.0998
 2575ntf    fn417558   4.631   5.684   4.926  0.3358  0.1499 -0.7239
 2575ntf    on517559   4.806   5.772   4.675  0.2378 -0.2447  0.4110
 2575ntf    on517560   4.816   5.550   4.783  0.0454 -0.5717  0.0156
 2575ntf    on517561   4.581   5.774   4.423  0.1102 -0.1742  0.0942
 2575ntf    on517562   4.531   5.548   4.370 -0.7602  0.1896  0.1153
 2575ntf    fn417563   4.822   5.493   4.323  0.0508 -0.1541  0.3450
 2575ntf    fn417564   4.779   5.672   4.216  0.4856 -0.0607 -0.2468
 2575ntf    fn417565   4.886   5.662   4.399 -0.1117 -0.3816  0.1519
 2576ntf    cn117566   1.015   2.422   0.018  0.3518  0.1219  0.2806
 2576ntf    sn217567   1.169   2.326   0.036  0.1482 -0.2586 -0.0003
 2576ntf    nn317568   1.159   2.304   0.191 -0.0590  0.2999  0.0707
 2576ntf    sn217569   1.090   2.180   0.259  0.3798  0.0812  0.1251
 2576ntf    cn117570   1.020   2.256   0.409 -0.0932 -0.2074  0.0515
 2576ntf    fn417571   0.981   2.487   0.128  0.0795  0.0888  0.2154
 2576ntf    fn417572   1.035   2.509  -0.080 -0.0517 -0.0191  0.0711
 2576ntf    fn417573   0.911   2.349  -0.017  0.3453  0.0098  0.5370
 2576ntf    on517574   1.154   2.209  -0.047 -0.4237  0.0026 -0.2708
 2576ntf    on517575   1.260   2.431  -0.002 -0.1218 -0.0228 -0.0058
 2576ntf    on517576   1.179   2.077   0.305  0.2022 -0.0855  0.0979
 2576ntf    on517577   0.966   2.136   0.200  0.3066 -0.1331  0.4379
 2576ntf    fn417578   1.114   2.310   0.485 -0.3391  0.4683 -0.1196
 2576ntf    fn417579   0.948   2.361   0.373 -0.7901 -0.6990 -0.0103
 2576ntf    fn417580   0.949   2.177   0.488 -0.1113 -0.0096  0.2328
 2577ntf    cn117581   5.151   5.266   2.637 -0.2255  0.1204 -0.4319
 2577ntf    sn217582   5.036   5.262   2.495 -0.2091 -0.3726 -0.4305
 2577ntf    nn317583   5.004   5.415   2.487 -0.2347 -0.3759 -0.3942
 2577ntf    sn217584   4.886   5.488   2.560  0.2561 -0.0567  0.0916
 2577ntf    cn117585   4.984   5.614   2.647  0.0517  0.1192  0.0707
 2577ntf    fn417586   5.272   5.300   2.595  0.0753 -0.0342  0.3019
 2577ntf    fn417587   5.126   5.349   2.737  0.5714 -0.1273 -0.0245
 2577ntf    fn417588   5.168   5.149   2.697 -0.8262  0.0528 -0.3880
 2577ntf    on517589   5.115   5.215   2.384 -0.1394 -0.3350 -0.3969
 2577ntf    on517590   4.933   5.169   2.535 -0.4577  0.1670  0.1877
 2577ntf    on517591   4.831   5.413   2.670 -0.2695  0.6166  0.3001
 2577ntf    on517592   4.796   5.555   2.468  0.1676 -0.4338 -0.0979
 2577ntf    fn417593   4.906   5.715   2.679 -0.4538 -0.0912 -0.4931
 2577ntf    fn417594   5.047   5.559   2.750 -0.3855 -0.4818  0.0229
 2577ntf    fn417595   5.078   5.668   2.571  0.6868 -0.7061  0.2444
 2578ntf    cn117596   3.236   1.257   2.673 -0.3217  0.0631  0.1164
 2578ntf    sn217597   3.405   1.204   2.632 -0.4190 -0.2557  0.1184
 2578ntf    nn317598   3.473   1.339   2.678  0.3081 -0.5249 -0.1524
 2578ntf    sn217599   3.572   1.363   2.796 -0.2358  0.7662  0.0512
 2578ntf    cn117600   3.687   1.474   2.708  0.6175 -0.2823 -0.1725
 2578ntf    fn417601   3.157   1.153   2.698 -0.1947  0.0128  0.3054
 2578ntf    fn417602   3.229   1.337   2.777 -0.2375 -0.1814  0.3111
 2578ntf    fn417603   3.174   1.315   2.571  0.1584  0.0538 -0.1819
 2578ntf    on517604   3.430   1.091   2.718 -0.4394 -0.1883  0.2135
 2578ntf    on517605   3.407   1.190   2.489  0.5877 -0.4545  0.1450
 2578ntf    on517606   3.654   1.248   2.824 -0.4947  0.5711  0.0042
 2578ntf    on517607   3.515   1.439   2.905 -0.7507  1.0827 -0.4314
 2578ntf    fn417608   3.693   1.437   2.581 -0.4048 -0.7677 -0.0956
 2578ntf    fn417609   3.662   1.604   2.705 -0.0583 -0.4126 -0.5089
 2578ntf    fn417610   3.809   1.472   2.758  0.3064  0.0685  0.6041
 2579ntf    cn117611   5.413   0.511   2.843 -0.0948  0.1111 -0.1454
 2579ntf    sn217612   5.342   0.674   2.802  0.0695  0.1597 -0.2377
 2579ntf    nn317613   5.198   0.639   2.750  0.0568  0.1151 -0.1721
 2579ntf    sn217614   5.147   0.638   2.602 -0.0558 -0.3166 -0.1311
 2579ntf    cn117615   5.080   0.469   2.591 -0.2235 -0.2539 -0.0865
 2579ntf    fn417616   5.332   0.433   2.912 -0.0508  0.4806  0.3333
 2579ntf    fn417617   5.435   0.433   2.738 -0.3016 -0.0004 -0.1067
 2579ntf    fn417618   5.520   0.516   2.920 -0.3205  0.0293  0.1761
 2579ntf    on517619   5.335   0.745   2.927 -0.2502 -0.1477 -0.0796
 2579ntf    on517620   5.428   0.729   2.700  0.2331  0.8202  0.2510
 2579ntf    on517621   5.241   0.645   2.493  0.1541  0.0657  0.0729
 2579ntf    on517622   5.036   0.730   2.590  0.1789 -0.0199 -0.0411
 2579ntf    fn417623   4.978   0.443   2.671 -0.0862  0.1889  0.2362
 2579ntf    fn417624   5.042   0.444   2.467 -0.5644  0.0508 -0.0439
 2579ntf    fn417625   5.173   0.381   2.623  0.3583  0.1813 -0.5518
 2580ntf    cn117626   3.831   6.012   2.413  0.3180  0.3395  0.1415
 2580ntf    sn217627   3.675   6.042   2.501  0.1401  0.1844 -0.1207
 2580ntf    nn317628   3.710   5.998   2.648  0.5005 -0.2066 -0.3232
 2580ntf    sn217629   3.774   6.089   2.759 -0.2028 -0.0581 -0.0375
 2580ntf    cn117630   3.623   6.133   2.851 -0.0596  0.2447  0.0537
 2580ntf    fn417631   3.936   6.074   2.464  0.0686  0.5222  0.4347
 2580ntf    fn417632   3.870   5.886   2.418 -0.9092 -0.0672 -0.1265
 2580ntf    fn417633   3.826   6.046   2.286  0.4604  0.4182  0.1565
 2580ntf    on517634   3.644   6.181   2.481  0.0383  0.2404  0.4067
 2580ntf    on517635   3.593   5.942   2.436 -0.2093  0.3879  0.0058
 2580ntf    on517636   3.836   6.214   2.722  0.0744 -0.1417  0.1441
 2580ntf    on517637   3.856   6.022   2.856  0.3093  0.0674 -0.3818
 2580ntf    fn417638   3.585   6.043   2.940 -0.0181  0.4889  0.3209
 2580ntf    fn417639   3.626   6.248   2.916 -0.2409  0.4134 -0.2329
 2580ntf    fn417640   3.522   6.152   2.768 -0.1417  0.6269  0.2405
 2581ntf    cn117641   1.793   6.337   0.446  0.1349 -0.0472  0.1540
 2581ntf    sn217642   1.948   6.389   0.524  0.2361 -0.0822 -0.0232
 2581ntf    nn317643   1.920   6.544   0.526  0.1052 -0.1011 -0.3346
 2581ntf    sn217644   1.908   6.632   0.655  0.1040 -0.1073 -0.3305
 2581ntf    cn117645   1.935   6.797   0.584  0.1275 -0.0230 -0.1271
 2581ntf    fn417646   1.797   6.364   0.316 -0.1425 -0.0279  0.1486
 2581ntf    fn417647   1.779   6.205   0.447 -0.1901 -0.0132  0.1794
 2581ntf    fn417648   1.686   6.390   0.504  0.3561  0.6054 -0.0294
 2581ntf    on517649   1.946   6.320   0.650 -0.0949  0.1655  0.1098
 2581ntf    on517650   2.041   6.347   0.422  0.2775 -0.5968  0.2271
 2581ntf    on517651   2.019   6.621   0.746 -0.3766 -0.0195  0.2738
 2581ntf    on517652   1.774   6.638   0.708  0.3247 -0.0953  0.2353
 2581ntf    fn417653   2.061   6.836   0.585  0.1662 -0.1047 -1.1529
 2581ntf    fn417654   1.895   6.813   0.459 -0.3578 -0.2153  0.0004
 2581ntf    fn417655   1.874   6.892   0.653  0.3116 -0.5180  0.7375
 2582ntf    cn117656   3.722   1.678   1.917  0.0840  0.0704  0.5664
 2582ntf    sn217657   3.649   1.845   1.915 -0.2368 -0.0736  0.2552
 2582ntf    nn317658   3.747   1.937   1.834  0.1205 -0.2887  0.4414
 2582ntf    sn217659   3.723   2.037   1.715  0.4779 -0.1433  0.4906
 2582ntf    cn117660   3.734   2.192   1.809 -0.7641  0.2378  0.0201
 2582ntf    fn417661   3.854   1.684   1.919  0.0809  0.1997  0.4122
 2582ntf    fn417662   3.684   1.617   2.028  0.1298  0.0851  0.5903
 2582ntf    fn417663   3.700   1.597   1.815  0.1240  0.5932  0.1362
 2582ntf    on517664   3.519   1.825   1.855 -0.0180 -0.1557 -0.1963
 2582ntf    on517665   3.638   1.886   2.052 -0.2327  0.0959  0.2051
 2582ntf    on517666   3.591   2.048   1.659  0.2717 -0.0079  1.0025
 2582ntf    on517667   3.837   2.037   1.627  0.2347  0.1528  0.1762
 2582ntf    fn417668   3.740   2.302   1.736 -0.0470  0.0499 -0.2084
 2582ntf    fn417669   3.633   2.201   1.894 -0.5462 -0.0997  0.3175
 2582ntf    fn417670   3.840   2.197   1.889 -0.0640  0.3293 -0.9013
 2583ntf    cn117671   2.236   1.091   3.722  0.4762  0.3641 -0.0653
 2583ntf    sn217672   2.215   0.947   3.613  0.2676  0.1783  0.2212
 2583ntf    nn317673   2.181   0.834   3.717 -0.3248  0.4779  0.3576
 2583ntf    sn217674   2.050   0.819   3.802 -0.5115 -0.1016 -0.0273
 2583ntf    cn117675   1.945   0.703   3.708 -0.3269 -0.0206 -0.3350
 2583ntf    fn417676   2.119   1.145   3.750  0.2542 -0.3313  0.3692
 2583ntf    fn417677   2.286   1.052   3.838 -0.3658  0.2068  0.2508
 2583ntf    fn417678   2.309   1.186   3.666  0.1097  0.1015 -1.0133
 2583ntf    on517679   2.115   0.998   3.524  0.1915 -0.0842  0.1544
 2583ntf    on517680   2.350   0.929   3.564  0.0865 -0.0581 -0.1952
 2583ntf    on517681   1.965   0.935   3.808  0.3268  0.5200 -0.0502
 2583ntf    on517682   2.076   0.750   3.926  0.4388  0.2904 -0.0050
 2583ntf    fn417683   1.829   0.671   3.763  0.0782 -0.2877  0.3801
 2583ntf    fn417684   1.928   0.761   3.591 -0.4351  0.0155 -0.3010
 2583ntf    fn417685   1.999   0.583   3.693  0.4140  0.1994  0.4308
 2584ntf    cn117686   5.310   0.096   5.952  0.2382 -0.0806  0.2404
 2584ntf    sn217687   5.220   0.178   6.088 -0.4016 -0.0648 -0.1871
 2584ntf    nn317688   5.122   0.265   6.002 -0.1328  0.1138 -0.3131
 2584ntf    sn217689   5.083   0.417   6.015  0.1828  0.1804 -0.1191
 2584ntf    cn117690   4.914   0.406   5.947 -0.0064  0.0184  0.3674
 2584ntf    fn417691   5.414   0.024   5.992  0.3773 -0.2693 -0.4624
 2584ntf    fn417692   5.237   0.017   5.875  0.1784  0.1025  0.1084
 2584ntf    fn417693   5.372   0.176   5.867 -0.3735  0.3840  0.2221
 2584ntf    on517694   5.158   0.063   6.150  0.2821 -0.5067 -0.3046
 2584ntf    on517695   5.326   0.256   6.147 -0.2934 -0.3283 -0.0274
 2584ntf    on517696   5.150   0.506   5.925  0.0032  0.6767  0.2354
 2584ntf    on517697   5.059   0.456   6.152 -0.1938 -0.1682 -0.0798
 2584ntf    fn417698   4.844   0.517   5.964 -0.2781 -0.0759 -0.1328
 2584ntf    fn417699   4.923   0.387   5.817 -0.0059 -0.4560  0.4358
 2584ntf    fn417700   4.842   0.310   6.002  0.0122  0.0090  0.3747
 2585ntf    cn117701   3.025   5.781   3.380  0.0146  0.3281  0.0368
 2585ntf    sn217702   3.037   5.957   3.337  0.6263  0.2480 -0.1214
 2585ntf    nn317703   3.127   5.941   3.209  0.2481 -0.3565 -0.3148
 2585ntf    sn217704   3.281   5.962   3.189  0.2543 -0.1176 -0.0202
 2585ntf    cn117705   3.301   6.140   3.158  0.2899 -0.1319 -0.0800
 2585ntf    fn417706   3.139   5.715   3.392 -0.2530 -0.0423  0.6051
 2585ntf    fn417707   2.958   5.764   3.494 -0.5138 -0.2375 -0.3509
 2585ntf    fn417708   2.954   5.723   3.284 -0.5567 -0.0793  0.6871
 2585ntf    on517709   2.901   5.996   3.310  0.4790  0.1163  0.4351
 2585ntf    on517710   3.095   6.007   3.459  0.0959  0.2110  0.1472
 2585ntf    on517711   3.322   5.910   3.061 -0.4110 -0.8051  0.0385
 2585ntf    on517712   3.366   5.938   3.302 -0.2088 -0.4657  0.2556
 2585ntf    fn417713   3.247   6.173   3.042  0.3813  0.1491 -0.0441
 2585ntf    fn417714   3.249   6.213   3.255  0.1524  0.2684 -0.4518
 2585ntf    fn417715   3.429   6.171   3.149  0.2847 -0.2133 -0.4881
 2586ntf    cn117716   4.913   2.698   1.293  0.0507  0.2935  0.4081
 2586ntf    sn217717   4.875   2.571   1.418 -0.2922 -0.0615 -0.0513
 2586ntf    nn317718   4.718   2.577   1.415 -0.2756  0.1355 -0.6001
 2586ntf    sn217719   4.610   2.483   1.479  0.2490 -0.0054  0.0989
 2586ntf    cn117720   4.517   2.599   1.583 -0.0651 -0.0976 -0.0764
 2586ntf    fn417721   4.870   2.819   1.325  0.2004  0.4212  0.1257
 2586ntf    fn417722   5.042   2.707   1.266  0.0214 -0.0695  0.1360
 2586ntf    fn417723   4.851   2.666   1.181  0.1800 -0.0481  0.4307
 2586ntf    on517724   4.935   2.453   1.362 -0.0254  0.1221 -0.1544
 2586ntf    on517725   4.928   2.619   1.544  0.1180 -0.1556 -0.1899
 2586ntf    on517726   4.650   2.377   1.568  0.1519  0.2117  0.3991
 2586ntf    on517727   4.514   2.444   1.378 -0.1295  0.3476  0.3200
 2586ntf    fn417728   4.502   2.718   1.527  0.1913  0.1949  0.4709
 2586ntf    fn417729   4.396   2.553   1.610 -0.1097  0.2081  0.2501
 2586ntf    fn417730   4.581   2.620   1.697 -0.2080  0.6172 -0.1256
 2587ntf    cn117731   6.467   2.585   5.415  0.0935 -0.2554 -0.1999
 2587ntf    sn217732   6.392   2.715   5.313  0.2741  0.0012 -0.0079
 2587ntf    nn317733   6.344   2.814   5.425 -0.1624 -0.1024 -0.1008
 2587ntf    sn217734   6.349   2.970   5.441 -0.0428 -0.1002 -0.1584
 2587ntf    cn117735   6.508   2.988   5.528 -0.0884  0.2668 -0.1492
 2587ntf    fn417736   6.392   2.550   5.519  0.1734 -0.0352 -0.0668
 2587ntf    fn417737   6.475   2.469   5.351 -0.3152 -0.6225  0.3963
 2587ntf    fn417738   6.585   2.611   5.469 -0.2032  0.1922  0.2374
 2587ntf    on517739   6.503   2.759   5.233  0.1617 -0.1032 -0.2215
 2587ntf    on517740   6.283   2.644   5.249  0.3737 -0.3063  0.1617
 2587ntf    on517741   6.246   3.020   5.529  0.2529 -0.4078  0.3699
 2587ntf    on517742   6.367   3.042   5.318 -0.1311  0.3827  0.1076
 2587ntf    fn417743   6.533   3.109   5.574  0.3443  0.1243 -0.0102
 2587ntf    fn417744   6.509   2.906   5.632  0.2723 -0.1963 -0.5205
 2587ntf    fn417745   6.615   2.959   5.456  0.4070  0.3140  0.5570
 2588ntf    cn117746   0.074   3.241   5.847 -0.2019  0.2092  0.2651
 2588ntf    sn217747   0.018   3.361   5.973 -0.0136  0.1115  0.4416
 2588ntf    nn317748   0.082   3.492   5.915  0.1390 -0.3535 -0.4550
 2588ntf    sn217749   0.010   3.599   5.826  0.1163  0.0316  0.0282
 2588ntf    cn117750  -0.051   3.724   5.943 -0.0462 -0.3366  0.3390
 2588ntf    fn417751   0.204   3.222   5.855 -0.2146 -0.0237 -0.0791
 2588ntf    fn417752   0.013   3.123   5.847 -0.3095  0.2619  0.8492
 2588ntf    fn417753   0.055   3.291   5.726  0.1123 -0.1365  0.0729
 2588ntf    on517754  -0.125   3.363   5.986 -0.0648 -0.3576 -0.0016
 2588ntf    on517755   0.085   3.315   6.092  0.0051  0.0354  0.4018
 2588ntf    on517756  -0.106   3.567   5.746  0.2903  0.1128 -0.2557
 2588ntf    on517757   0.106   3.675   5.750 -0.3476 -0.0998 -0.6957
 2588ntf    fn417758  -0.152   3.682   6.018  0.1206 -0.1956  0.6442
 2588ntf    fn417759   0.048   3.761   6.024  0.0640  0.1438 -0.0141
 2588ntf    fn417760  -0.097   3.837   5.892  0.1729 -0.7742 -0.8415
 2589ntf    cn117761   3.280   2.354   4.243  0.3630  0.0566 -0.1484
 2589ntf    sn217762   3.243   2.232   4.373 -0.4228  0.2408 -0.1935
 2589ntf    nn317763   3.320   2.113   4.305 -0.2616  0.1865  0.0859
 2589ntf    sn217764   3.472   2.080   4.323 -0.3795 -0.3919  0.0511
 2589ntf    cn117765   3.511   2.035   4.151 -0.1254  0.2185 -0.0527
 2589ntf    fn417766   3.408   2.385   4.237  0.5305 -0.4783  0.6008
 2589ntf    fn417767   3.243   2.304   4.127  0.2588 -0.3863  0.0737
 2589ntf    fn417768   3.219   2.471   4.257 -0.1113 -0.2585  0.4813
 2589ntf    on517769   3.301   2.286   4.493 -0.3465  0.5597 -0.3738
 2589ntf    on517770   3.100   2.214   4.372 -0.3483 -0.4074  0.0019
 2589ntf    on517771   3.505   1.963   4.401  0.1540 -0.6440 -0.5360
 2589ntf    on517772   3.554   2.198   4.339 -0.4661 -0.3546  0.2150
 2589ntf    fn417773   3.641   2.019   4.132 -0.1501 -0.0243 -0.0222
 2589ntf    fn417774   3.447   1.924   4.119  0.7187 -0.3021  0.0388
 2589ntf    fn417775   3.468   2.131   4.070 -0.3761 -0.2118 -0.4356
 2590ntf    cn117776   0.205   6.136   0.214 -0.4565 -0.0490  0.0755
 2590ntf    sn217777   0.096   6.045   0.100 -0.0967 -0.2528 -0.1077
 2590ntf    nn317778   0.175   5.909   0.102  0.9047  0.3260  0.6883
 2590ntf    sn217779   0.147   5.779   0.186 -0.0322 -0.0630 -0.2118
 2590ntf    cn117780  -0.019   5.719   0.142  0.0888 -0.2037 -0.4792
 2590ntf    fn417781   0.211   6.086   0.337  0.1397  0.1721  0.1362
 2590ntf    fn417782   0.331   6.138   0.175 -0.3904 -0.0160  0.2899
 2590ntf    fn417783   0.172   6.263   0.228 -0.0323  0.0412  0.2465
 2590ntf    on517784  -0.026   6.056   0.177 -0.0790  0.6177 -0.1879
 2590ntf    on517785   0.107   6.112  -0.027  0.2429  0.3865  0.2518
 2590ntf    on517786   0.144   5.801   0.328 -0.7141 -0.2716 -0.1860
 2590ntf    on517787   0.227   5.667   0.144 -0.1296 -0.1700 -0.1129
 2590ntf    fn417788  -0.058   5.608   0.203  0.2107 -0.0387 -0.0945
 2590ntf    fn417789  -0.107   5.813   0.172 -0.1945 -0.2995 -0.9925
 2590ntf    fn417790  -0.028   5.704   0.011  0.3757  0.5093 -0.5871
 2591ntf    cn117791   2.900   5.567   1.684  0.1343 -0.2279  0.2926
 2591ntf    sn217792   2.991   5.709   1.752 -0.0158 -0.0063  0.0319
 2591ntf    nn317793   3.070   5.741   1.620  0.2170  0.2382  0.2292
 2591ntf    sn217794   3.219   5.711   1.583 -0.0466 -0.5583 -0.2016
 2591ntf    cn117795   3.297   5.869   1.625 -0.3955 -0.3395 -0.3757
 2591ntf    fn417796   2.973   5.456   1.677  0.6816  0.1339  0.1873
 2591ntf    fn417797   2.793   5.534   1.754  0.0591 -0.0001  0.2843
 2591ntf    fn417798   2.863   5.589   1.559  0.5234  0.2134  0.2508
 2591ntf    on517799   2.885   5.804   1.776  0.1263  0.0715  0.3486
 2591ntf    on517800   3.066   5.653   1.861 -0.3364 -0.7499 -0.1213
 2591ntf    on517801   3.232   5.695   1.440 -0.8983  0.0088 -0.3485
 2591ntf    on517802   3.282   5.624   1.679 -0.1749 -0.2273  0.1842
 2591ntf    fn417803   3.428   5.850   1.625 -0.3710 -0.1725 -0.3673
 2591ntf    fn417804   3.280   5.963   1.533 -0.4098 -0.2417 -0.2745
 2591ntf    fn417805   3.257   5.904   1.746  0.5237  0.4142 -0.2809
 2592ntf    cn117806   0.074   6.694   1.435 -0.5194 -0.1809  0.2817
 2592ntf    sn217807   0.166   6.848   1.459 -0.0910 -0.3793 -0.0865
 2592ntf    nn317808   0.232   6.814   1.597  0.1042 -0.1856 -0.1301
 2592ntf    sn217809   0.382   6.826   1.642  0.0651  0.6568 -0.2062
 2592ntf    cn117810   0.373   6.846   1.822  0.1457 -0.2757 -0.0934
 2592ntf    fn417811   0.151   6.586   1.430 -0.5382 -0.2090  0.5510
 2592ntf    fn417812  -0.018   6.669   1.528 -0.4866  0.2703  0.4367
 2592ntf    fn417813   0.011   6.693   1.319 -0.2227 -0.4054  0.1202
 2592ntf    on517814   0.260   6.842   1.349 -0.2877 -0.4149 -0.2525
 2592ntf    on517815   0.068   6.953   1.468  0.4524  0.1084  0.2556
 2592ntf    on517816   0.446   6.942   1.585  0.7293  0.2488 -0.3040
 2592ntf    on517817   0.439   6.694   1.627 -0.1688  0.4691  0.5095
 2592ntf    fn417818   0.486   6.836   1.891 -0.1839 -0.9579  0.3606
 2592ntf    fn417819   0.312   6.958   1.856  0.2823 -0.1559 -0.2472
 2592ntf    fn417820   0.302   6.749   1.877 -0.4745 -0.0412 -0.4725
 2593ntf    cn117821   3.606   1.638   0.100 -0.0524 -0.2405  0.2360
 2593ntf    sn217822   3.428   1.597   0.100 -0.1262  0.0788  0.0675
 2593ntf    nn317823   3.435   1.460   0.176  0.1175 -0.0760 -0.2287
 2593ntf    sn217824   3.427   1.443   0.332 -0.0123 -0.0919 -0.2376
 2593ntf    cn117825   3.515   1.287   0.362  0.1325  0.0248 -0.0595
 2593ntf    fn417826   3.660   1.615  -0.019  0.0171 -0.1931  0.2585
 2593ntf    fn417827   3.639   1.764   0.121 -0.1254 -0.1363 -0.2632
 2593ntf    fn417828   3.675   1.569   0.188  0.1487  0.1230  0.3635
 2593ntf    on517829   3.368   1.710   0.166  0.2287  0.3637 -0.0882
 2593ntf    on517830   3.387   1.574  -0.037 -0.0021 -0.3518  0.1009
 2593ntf    on517831   3.295   1.415   0.384  0.0581 -0.3000 -0.1692
 2593ntf    on517832   3.501   1.539   0.410 -0.0520 -0.3467  0.1127
 2593ntf    fn417833   3.639   1.290   0.316  0.0086  0.1052 -0.3874
 2593ntf    fn417834   3.521   1.258   0.491  0.6612  0.2239 -0.0370
 2593ntf    fn417835   3.453   1.189   0.299  0.4528 -0.2997  0.1260
 2594ntf    cn117836   4.921   4.561   1.238 -0.3053 -0.0295  0.0061
 2594ntf    sn217837   4.786   4.439   1.242 -0.2136 -0.1261  0.1559
 2594ntf    nn317838   4.756   4.413   1.090  0.0033 -0.1927  0.1234
 2594ntf    sn217839   4.641   4.461   0.995 -0.0699 -0.3003  0.1575
 2594ntf    cn117840   4.743   4.573   0.894 -0.1478 -0.1152  0.2829
 2594ntf    fn417841   5.036   4.508   1.197 -0.3188  0.1344 -0.2415
 2594ntf    fn417842   4.902   4.663   1.157 -0.2526 -0.1772 -0.1942
 2594ntf    fn417843   4.942   4.610   1.359 -0.0805 -0.5045  0.1632
 2594ntf    on517844   4.847   4.326   1.308 -0.3972  0.1113  0.7403
 2594ntf    on517845   4.675   4.491   1.318  0.3060  0.4877  0.5072
 2594ntf    on517846   4.542   4.557   1.037 -0.0296 -0.2109  0.0489
 2594ntf    on517847   4.603   4.365   0.895 -0.1589 -0.1408  0.0376
 2594ntf    fn417848   4.678   4.619   0.789 -0.1896 -0.1510  0.2925
 2594ntf    fn417849   4.771   4.682   0.963 -0.2536 -0.1280  0.3466
 2594ntf    fn417850   4.852   4.518   0.843 -0.2525  0.1138 -0.1874
 2595ntf    cn117851   6.091   2.108   1.978  0.1697 -0.3830 -0.0507
 2595ntf    sn217852   6.008   2.270   1.987  0.2010 -0.3546 -0.2625
 2595ntf    nn317853   6.103   2.350   2.084  0.2594 -0.5047 -0.1941
 2595ntf    sn217854   6.214   2.460   2.064 -0.1625 -0.0827 -0.2431
 2595ntf    cn117855   6.128   2.608   2.126 -0.5785 -0.4408  0.0484
 2595ntf    fn417856   6.216   2.120   1.937 -0.0181  0.0627 -0.4950
 2595ntf    fn417857   6.095   2.047   2.095 -0.6811 -0.7844 -0.2194
 2595ntf    fn417858   6.028   2.027   1.895  0.7359 -1.1472  0.2519
 2595ntf    on517859   6.005   2.314   1.850  0.2721  0.3309 -0.0472
 2595ntf    on517860   5.884   2.233   2.052  0.3020  0.3104  0.3257
 2595ntf    on517861   6.239   2.503   1.929  0.2719 -0.4158 -0.2701
 2595ntf    on517862   6.322   2.442   2.157 -0.2585 -0.4401 -0.1982
 2595ntf    fn417863   6.205   2.716   2.121 -0.0974 -0.7930 -0.2035
 2595ntf    fn417864   6.023   2.639   2.052 -0.1092 -0.0850 -0.4755
 2595ntf    fn417865   6.082   2.587   2.248 -0.4990 -0.3109  0.1010
 2596ntf    cn117866   5.145   6.630   3.778  0.2648 -0.0154  0.1301
 2596ntf    sn217867   5.115   6.453   3.752 -0.4309  0.1291 -0.0571
 2596ntf    nn317868   5.190   6.389   3.874 -0.7349  0.1211  0.1296
 2596ntf    sn217869   5.178   6.249   3.943 -0.0029 -0.0636 -0.1025
 2596ntf    cn117870   5.345   6.179   3.925  0.0594  0.0463  0.0464
 2596ntf    fn417871   5.085   6.678   3.886 -0.1002 -0.4642  0.1289
 2596ntf    fn417872   5.274   6.651   3.799  0.2062  0.3469  0.1371
 2596ntf    fn417873   5.125   6.707   3.673  0.2754  0.1401  0.2415
 2596ntf    on517874   4.972   6.450   3.772 -0.4998 -0.0768 -0.5535
 2596ntf    on517875   5.164   6.434   3.618 -0.4987 -0.0217 -0.0605
 2596ntf    on517876   5.090   6.154   3.879 -0.0949  0.1543 -0.2993
 2596ntf    on517877   5.158   6.262   4.085 -0.6426 -0.0099 -0.1926
 2596ntf    fn417878   5.377   6.171   3.797 -0.3095  0.1721 -0.0556
 2596ntf    fn417879   5.438   6.255   3.979  0.2748  0.2058 -0.5355
 2596ntf    fn417880   5.350   6.056   3.974  0.3205  0.1538  0.2836
 2597ntf    cn117881   3.478   3.855   0.610 -0.2337  0.0543  0.0528
 2597ntf    sn217882   3.577   3.739   0.510  0.1792  0.0801  0.4261
 2597ntf    nn317883   3.639   3.846   0.412  0.0010  0.2884  0.5387
 2597ntf    sn217884   3.781   3.911   0.400  0.0457  0.0654 -0.1889
 2597ntf    cn117885   3.751   4.069   0.486 -0.0840 -0.0800  0.0349
 2597ntf    fn417886   3.536   3.922   0.708 -0.6396  0.3574  0.0856
 2597ntf    fn417887   3.433   3.950   0.530  0.3513 -0.0936 -0.4623
 2597ntf    fn417888   3.365   3.808   0.659 -0.5509  0.3090 -0.4172
 2597ntf    on517889   3.659   3.667   0.603  0.5189 -0.0315  0.0453
 2597ntf    on517890   3.483   3.653   0.442  0.2856 -0.0614  0.4584
 2597ntf    on517891   3.822   3.957   0.270 -0.0316 -0.6560 -0.4727
 2597ntf    on517892   3.876   3.852   0.492 -0.0436 -0.1906 -0.2611
 2597ntf    fn417893   3.647   4.130   0.433 -0.0294 -0.3577 -0.4044
 2597ntf    fn417894   3.720   4.051   0.613 -0.1640  0.6624  0.1248
 2597ntf    fn417895   3.851   4.156   0.480 -0.2924  0.1792  0.3335
 2598ntf    cn117896   4.052   6.905   3.432  0.3040  0.3506  0.3129
 2598ntf    sn217897   3.921   6.892   3.307  0.4697 -0.2568  0.1974
 2598ntf    nn317898   3.863   6.747   3.326 -0.4594  0.0322 -0.3806
 2598ntf    sn217899   3.917   6.607   3.280 -0.1337  0.0727 -0.1233
 2598ntf    cn117900   3.819   6.586   3.129 -0.3343 -0.1391  0.0361
 2598ntf    fn417901   4.011   6.897   3.558  0.4239 -0.0720  0.3271
 2598ntf    fn417902   4.138   6.804   3.424 -0.1491 -0.0527  0.4784
 2598ntf    fn417903   4.120   7.016   3.412 -0.2471  0.6788  0.2492
 2598ntf    on517904   3.828   6.989   3.360 -0.0649 -0.8886  0.4272
 2598ntf    on517905   3.991   6.920   3.184  0.4734  0.0251  0.2626
 2598ntf    on517906   3.875   6.504   3.371  0.1660  0.5242  0.5346
 2598ntf    on517907   4.056   6.606   3.242 -0.1290 -0.1668 -0.1024
 2598ntf    fn417908   3.836   6.686   3.044  1.1212 -0.0089  0.4669
 2598ntf    fn417909   3.850   6.472   3.068 -0.1621 -0.1140  0.0751
 2598ntf    fn417910   3.689   6.579   3.154 -0.3765  0.5606  0.0213
 2599ntf    cn117911   2.457   0.527   4.480 -0.1756 -0.0595 -0.4061
 2599ntf    sn217912   2.401   0.680   4.560  0.1394 -0.2420  0.1723
 2599ntf    nn317913   2.285   0.719   4.461  0.1238  0.3474  0.4180
 2599ntf    sn217914   2.135   0.749   4.495 -0.1426 -0.4763  0.0030
 2599ntf    cn117915   2.055   0.601   4.427  0.1345 -0.3774 -0.5474
 2599ntf    fn417916   2.355   0.445   4.459 -0.2639 -0.1163  0.2323
 2599ntf    fn417917   2.528   0.548   4.371  0.4326 -0.0254 -0.0086
 2599ntf    fn417918   2.536   0.463   4.565 -0.0398  0.4733 -0.1278
 2599ntf    on517919   2.357   0.645   4.693  0.0982 -0.4533  0.1040
 2599ntf    on517920   2.510   0.773   4.552 -0.1480  0.0860  0.0331
 2599ntf    on517921   2.085   0.858   4.414  0.5995  0.0006  0.1794
 2599ntf    on517922   2.100   0.749   4.635 -0.0975  0.1341  0.0196
 2599ntf    fn417923   2.096   0.488   4.483  0.6809 -0.0202 -0.2211
 2599ntf    fn417924   1.926   0.615   4.456  0.2256 -0.2901 -0.1851
 2599ntf    fn417925   2.069   0.593   4.296 -0.1813 -0.1188 -0.6008
 2600ntf    cn117926   3.449   4.961   6.726 -0.2698 -0.0125 -0.1292
 2600ntf    sn217927   3.590   5.076   6.731 -0.0769 -0.2515 -0.0875
 2600ntf    nn317928   3.521   5.215   6.752  0.0920 -0.2003  0.1337
 2600ntf    sn217929   3.445   5.300   6.644  0.2574 -0.4612 -0.1873
 2600ntf    cn117930   3.574   5.423   6.608 -0.1187  0.1318  0.4753
 2600ntf    fn417931   3.487   4.837   6.701 -0.6093 -0.0400 -0.5260
 2600ntf    fn417932   3.393   4.959   6.846  0.2993  0.2097  0.1408
 2600ntf    fn417933   3.352   5.001   6.645 -0.2299  0.5276  0.0841
 2600ntf    on517934   3.665   5.034   6.848 -0.1234  0.6221  0.2615
 2600ntf    on517935   3.650   5.062   6.601  0.4746  0.0358  0.1357
 2600ntf    on517936   3.335   5.372   6.702  0.2611 -0.5489 -0.0712
 2600ntf    on517937   3.420   5.244   6.513  0.5465 -0.1198 -0.3896
 2600ntf    fn417938   3.638   5.481   6.709  0.0753  0.1152  0.3622
 2600ntf    fn417939   3.663   5.382   6.520 -0.2731  0.4568  0.1667
 2600ntf    fn417940   3.509   5.523   6.552  0.1203 -0.1708 -0.3474
 2601ntf    cn117941   5.415   6.031   2.395  0.2082  0.0042 -0.0952
 2601ntf    sn217942   5.487   6.124   2.533 -0.3494  0.0458  0.1696
 2601ntf    nn317943   5.367   6.218   2.569 -0.5084 -0.1582  0.1690
 2601ntf    sn217944   5.278   6.233   2.698 -0.5291 -0.2072  0.1603
 2601ntf    cn117945   5.124   6.291   2.620 -0.4777 -0.4307 -0.1141
 2601ntf    fn417946   5.390   6.102   2.286 -0.2821 -0.0239 -0.0039
 2601ntf    fn417947   5.502   5.937   2.359  0.3551 -0.0510  0.4062
 2601ntf    fn417948   5.302   5.972   2.428  0.3484 -0.0632  0.2659
 2601ntf    on517949   5.528   6.030   2.634 -0.2777 -0.2262 -0.1091
 2601ntf    on517950   5.595   6.189   2.462  0.0983 -0.5071  0.3368
 2601ntf    on517951   5.312   6.338   2.790  0.9974 -0.2762 -0.3066
 2601ntf    on517952   5.237   6.109   2.760  0.0351 -0.3724  0.2084
 2601ntf    fn417953   5.078   6.209   2.528 -0.6642  0.3614 -0.7408
 2601ntf    fn417954   5.032   6.309   2.713 -0.2921 -0.0513 -0.0020
 2601ntf    fn417955   5.150   6.405   2.557 -0.0684 -0.4321  0.0489
 2602ntf    cn117956   4.341   2.970   4.775 -0.4544  0.1067 -0.1954
 2602ntf    sn217957   4.234   2.937   4.919  0.4296  0.1550  0.4780
 2602ntf    nn317958   4.133   3.052   4.886  0.4334 -0.1539 -0.6498
 2602ntf    sn217959   3.984   3.038   4.836  0.0258 -0.0028  0.4949
 2602ntf    cn117960   3.929   3.209   4.866  0.0693  0.0785  0.1104
 2602ntf    fn417961   4.297   2.917   4.662 -0.0080 -0.0948 -0.2744
 2602ntf    fn417962   4.359   3.096   4.739 -0.5644  0.2584  0.2748
 2602ntf    fn417963   4.463   2.926   4.801 -0.6325 -0.1941  0.1467
 2602ntf    on517964   4.187   2.801   4.911  0.7380  0.1027 -0.6382
 2602ntf    on517965   4.325   2.969   5.027  0.1568  0.0434  0.7421
 2602ntf    on517966   3.903   2.956   4.923 -0.3043 -0.0892  0.1075
 2602ntf    on517967   3.973   3.020   4.694  0.7788 -0.1890  0.4544
 2602ntf    fn417968   3.806   3.228   4.819 -0.1201  0.0990  0.6126
 2602ntf    fn417969   3.930   3.233   4.996 -0.1846 -0.3183  0.1883
 2602ntf    fn417970   3.995   3.306   4.806 -0.5132  0.0780 -0.5517
 2603ntf    cn117971   0.244   0.496   0.414 -0.0895 -0.0682 -0.0441
 2603ntf    sn217972   0.172   0.360   0.317 -0.4201  0.2884 -0.3035
 2603ntf    nn317973   0.048   0.434   0.257 -0.8509 -0.2627 -0.1011
 2603ntf    sn217974  -0.002   0.431   0.108 -0.3068 -0.4068 -0.2834
 2603ntf    cn117975  -0.038   0.256   0.073 -0.2579 -0.3752 -0.4946
 2603ntf    fn417976   0.165   0.541   0.510 -0.2753  0.1328 -0.2888
 2603ntf    fn417977   0.352   0.451   0.477 -0.2204 -0.1038  0.1536
 2603ntf    fn417978   0.276   0.598   0.335  0.0383 -0.2310 -0.2041
 2603ntf    on517979   0.272   0.330   0.217 -0.1363 -0.2712  0.1402
 2603ntf    on517980   0.125   0.263   0.413  0.2683  0.6226  0.3806
 2603ntf    on517981   0.090   0.473   0.005  0.6183 -0.1351  0.6310
 2603ntf    on517982  -0.136   0.484   0.102 -0.3080 -0.3686  0.0541
 2603ntf    fn417983   0.071   0.181   0.073  0.0484  0.0600  0.2122
 2603ntf    fn417984  -0.130   0.199   0.149  0.0125  0.3912  0.4203
 2603ntf    fn417985  -0.089   0.246  -0.048 -0.1550 -0.2511 -0.5484
 2604ntf    cn117986   1.679   6.413   6.164  0.2360 -0.3476 -0.0776
 2604ntf    sn217987   1.591   6.390   6.322 -0.0938  0.2225 -0.1773
 2604ntf    nn317988   1.605   6.234   6.331  0.0062  0.1890 -0.8326
 2604ntf    sn217989   1.503   6.123   6.287 -0.3191  0.1541 -0.0009
 2604ntf    cn117990   1.411   6.090   6.440 -0.4530  0.6744  0.0336
 2604ntf    fn417991   1.641   6.522   6.099  0.4761  0.1582  0.6079
 2604ntf    fn417992   1.810   6.419   6.186  0.1700 -0.0926  0.2512
 2604ntf    fn417993   1.656   6.310   6.084  0.5975 -0.7810  0.3682
 2604ntf    on517994   1.678   6.452   6.418  0.5049  0.3718 -0.8070
 2604ntf    on517995   1.464   6.456   6.301 -0.2338  0.0332  0.0783
 2604ntf    on517996   1.576   6.001   6.265  0.5831  0.4989  0.9705
 2604ntf    on517997   1.400   6.157   6.192  0.1364  0.3920 -0.4148
 2604ntf    fn417998   1.292   6.033   6.428 -0.2432  0.1953  0.2185
 2604ntf    fn417999   1.481   6.011   6.520 -0.4480  0.3321 -0.3050
 2604ntf    fn418000   1.382   6.203   6.502  0.3329  0.8951  0.0133
 2605ntf    cn118001   3.756   3.029   3.096  0.0680 -0.0457  0.1404
 2605ntf    sn218002   3.705   3.190   3.163 -0.1083 -0.0548  0.0277
 2605ntf    nn318003   3.750   3.272   3.037  0.0004 -0.0709  0.0568
 2605ntf    sn218004   3.667   3.334   2.920  0.0095 -0.3521 -0.0999
 2605ntf    cn118005   3.768   3.475   2.865 -0.2027 -0.0899  0.1813
 2605ntf    fn418006   3.882   3.023   3.058 -0.0216 -0.1229 -0.1446
 2605ntf    fn418007   3.735   2.927   3.178 -0.4746 -0.3648 -0.3848
 2605ntf    fn418008   3.684   3.002   2.989 -0.4773 -0.0282  0.4966
 2605ntf    on518009   3.562   3.180   3.185 -0.0705 -0.2113  0.2027
 2605ntf    on518010   3.790   3.212   3.278 -0.1320 -0.0568  0.0457
 2605ntf    on518011   3.545   3.403   2.952  0.2941  0.2490 -0.2887
 2605ntf    on518012   3.656   3.250   2.803  0.1570 -0.1402 -0.2679
 2605ntf    fn418013   3.883   3.432   2.815 -0.1881 -0.3501  0.4361
 2605ntf    fn418014   3.710   3.549   2.772 -0.3830  0.0567  0.4087
 2605ntf    fn418015   3.801   3.561   2.960  0.4551 -0.4363  0.2719
 2606ntf    cn118016   0.125   2.254   2.613  0.0948  0.2669 -0.3730
 2606ntf    sn218017   0.073   2.427   2.629 -0.2161  0.1319  0.1246
 2606ntf    nn318018  -0.045   2.441   2.527  0.1819  0.7366 -0.2582
 2606ntf    sn218019  -0.034   2.463   2.372 -0.2350  0.0410 -0.3886
 2606ntf    cn118020  -0.045   2.645   2.374  0.0213  0.0529 -0.0528
 2606ntf    fn418021   0.017   2.178   2.631  0.0995  0.2757 -0.3062
 2606ntf    fn418022   0.171   2.218   2.495  0.3707  0.1926 -0.2434
 2606ntf    fn418023   0.205   2.210   2.709 -0.4972  0.1254  0.0681
 2606ntf    on518024   0.024   2.439   2.764 -0.2650 -0.2438  0.1407
 2606ntf    on518025   0.189   2.506   2.595 -0.0864 -0.0090  0.2366
 2606ntf    on518026  -0.152   2.427   2.297 -0.1176  0.0653 -0.5873
 2606ntf    on518027   0.092   2.427   2.313  0.1260  0.2996  0.2131
 2606ntf    fn418028   0.062   2.698   2.432  0.1375 -0.5015  0.2502
 2606ntf    fn418029  -0.045   2.695   2.252  0.3715  0.5901  0.1643
 2606ntf    fn418030  -0.148   2.697   2.438  0.0282  0.5772 -0.4598
 2607ntf    cn118031   3.826   4.846   3.931  0.0660  0.2427  0.0716
 2607ntf    sn218032   3.860   4.861   3.753  0.1135 -0.3701  0.0254
 2607ntf    nn318033   3.741   4.951   3.701  0.5728  0.4519  0.3809
 2607ntf    sn218034   3.733   4.993   3.551  0.0445  0.0059  0.2814
 2607ntf    cn118035   3.554   4.986   3.515  0.0559 -0.0188  0.2284
 2607ntf    fn418036   3.707   4.795   3.957 -0.0095  0.1864 -0.3767
 2607ntf    fn418037   3.911   4.772   4.000  0.1487  0.1291 -0.1489
 2607ntf    fn418038   3.837   4.964   3.988 -0.3024  0.0553  0.5355
 2607ntf    on518039   3.986   4.930   3.741 -0.2063  0.1542 -0.3633
 2607ntf    on518040   3.844   4.722   3.718 -0.0220 -0.3306 -0.0705
 2607ntf    on518041   3.789   4.903   3.453 -0.0071 -0.0062  0.2625
 2607ntf    on518042   3.768   5.132   3.533 -0.3585  0.0388 -0.2906
 2607ntf    fn418043   3.476   5.065   3.587 -0.0111  0.3761 -0.2727
 2607ntf    fn418044   3.532   5.014   3.388  0.7407  0.3148  0.1734
 2607ntf    fn418045   3.505   4.864   3.528  0.0153 -0.0367 -0.0974
 2608ntf    cn118046   2.890   2.535   3.275  0.2534  0.5309 -0.2972
 2608ntf    sn218047   2.931   2.712   3.287  0.2252  0.5113  0.1090
 2608ntf    nn318048   3.068   2.711   3.212  0.2141 -0.4432  0.0937
 2608ntf    sn218049   3.199   2.778   3.267 -0.0246 -0.0795  0.2219
 2608ntf    cn118050   3.306   2.741   3.124 -0.2875 -0.3227  0.0879
 2608ntf    fn418051   2.920   2.489   3.155 -0.1914  0.0283 -0.2169
 2608ntf    fn418052   2.940   2.456   3.368 -0.4260 -0.1147 -0.4694
 2608ntf    fn418053   2.760   2.518   3.294  0.3939 -0.0639  0.1396
 2608ntf    on518054   2.826   2.775   3.210  0.4892  0.3916 -0.3543
 2608ntf    on518055   2.939   2.729   3.430  0.7817  0.5412  0.0739
 2608ntf    on518056   3.266   2.712   3.376 -0.1144 -0.5022  0.0243
 2608ntf    on518057   3.206   2.922   3.269  0.6774 -0.1046  0.0299
 2608ntf    fn418058   3.242   2.784   3.016 -0.5485 -0.2252  0.2809
 2608ntf    fn418059   3.427   2.794   3.123 -0.5234  0.2217  0.1236
 2608ntf    fn418060   3.325   2.611   3.107  0.9187 -0.1905  0.3378
 2609ntf    cn118061   2.542   3.384   4.147 -0.1820  0.0912  0.1902
 2609ntf    sn218062   2.392   3.469   4.090 -0.0637  0.1631 -0.0202
 2609ntf    nn318063   2.434   3.615   4.052  0.0377  0.1155 -0.0903
 2609ntf    sn218064   2.424   3.743   4.141  0.3575 -0.0558  0.1942
 2609ntf    cn118065   2.573   3.828   4.082  0.5228 -0.1684  0.4466
 2609ntf    fn418066   2.629   3.359   4.050 -0.5866 -0.4785 -0.0275
 2609ntf    fn418067   2.613   3.454   4.234 -0.5588  0.3475  0.2893
 2609ntf    fn418068   2.521   3.267   4.205 -0.3474  0.0927  0.1342
 2609ntf    on518069   2.356   3.389   3.975 -0.2811  0.0626  0.1166
 2609ntf    on518070   2.302   3.466   4.203 -0.3816 -0.2889 -0.2794
 2609ntf    on518071   2.444   3.729   4.283  0.3663 -0.3622  0.1631
 2609ntf    on518072   2.323   3.837   4.099  0.1829 -0.2309  0.2233
 2609ntf    fn418073   2.594   3.946   4.138 -0.0215  0.2666 -0.2407
 2609ntf    fn418074   2.684   3.757   4.099  0.8191  0.0115 -0.6254
 2609ntf    fn418075   2.553   3.849   3.953 -0.4914 -0.2442  0.5837
 2610ntf    cn118076   0.580   6.375   0.739 -0.1791 -0.0859 -0.0326
 2610ntf    sn218077   0.762   6.390   0.739 -0.1673 -0.2202  0.1800
 2610ntf    nn318078   0.788   6.393   0.894  0.2051 -0.0404  0.1152
 2610ntf    sn218079   0.804   6.274   0.995  0.0067 -0.0028  0.1920
 2610ntf    cn118080   0.980   6.234   0.971  0.0365  0.1131  0.2201
 2610ntf    fn418081   0.523   6.361   0.621 -0.1915 -0.3150  0.0011
 2610ntf    fn418082   0.540   6.275   0.816  0.4159  0.0618  0.4833
 2610ntf    fn418083   0.528   6.482   0.797  0.1885  0.2395 -0.2921
 2610ntf    on518084   0.801   6.277   0.658  0.0636 -0.1342  0.1718
 2610ntf    on518085   0.780   6.522   0.683  0.2118 -0.3698 -0.0537
 2610ntf    on518086   0.740   6.149   0.961  0.4001 -0.2643  0.4008
 2610ntf    on518087   0.785   6.324   1.128 -0.3882  0.1872  0.0644
 2610ntf    fn418088   1.036   6.162   1.067 -0.2088 -0.2615  0.0796
 2610ntf    fn418089   0.992   6.170   0.856 -0.2630  0.1245  0.1820
 2610ntf    fn418090   1.058   6.338   0.942  0.0145  0.1535  0.3068
 2611ntf    cn118091   0.455   6.177   2.529  0.1687 -0.4900 -0.2156
 2611ntf    sn218092   0.498   6.125   2.360 -0.2377 -0.2832 -0.3834
 2611ntf    nn318093   0.414   6.233   2.283 -0.3889 -0.2002 -0.1051
 2611ntf    sn218094   0.446   6.380   2.238 -0.1377 -0.2245 -0.0067
 2611ntf    cn118095   0.418   6.371   2.059  0.0120 -0.1225 -0.0361
 2611ntf    fn418096   0.326   6.167   2.555  0.1837  0.3215  0.1781
 2611ntf    fn418097   0.527   6.108   2.616  0.0219 -0.4936 -0.0963
 2611ntf    fn418098   0.478   6.307   2.537 -0.5135 -0.3869  0.1252
 2611ntf    on518099   0.641   6.145   2.358 -0.2434 -0.1830  0.0103
 2611ntf    on518100   0.451   5.989   2.352  0.1939 -0.4776  0.3117
 2611ntf    on518101   0.578   6.436   2.255 -0.0123 -0.2804 -0.7404
 2611ntf    on518102   0.344   6.472   2.282  0.2761  0.5295 -0.5927
 2611ntf    fn418103   0.519   6.312   1.996 -0.1747 -0.5720  0.0795
 2611ntf    fn418104   0.308   6.305   2.026  0.1891 -0.4892  0.1038
 2611ntf    fn418105   0.406   6.494   2.013 -0.0457 -0.1205 -0.0162
 2612ntf    cn118106   2.020   4.315   6.108 -0.4344  0.3563  0.1530
 2612ntf    sn218107   1.972   4.372   5.943 -0.1165  0.0329 -0.0529
 2612ntf    nn318108   1.879   4.257   5.889 -0.2077  0.0483  0.0717
 2612ntf    sn218109   1.763   4.262   5.784 -0.0578 -0.5034 -0.1246
 2612ntf    cn118110   1.614   4.278   5.887  0.1036  0.2763 -0.0024
 2612ntf    fn418111   1.916   4.314   6.189  0.1262  0.1627  0.8838
 2612ntf    fn418112   2.084   4.199   6.110  0.6891  0.9398 -0.6021
 2612ntf    fn418113   2.113   4.396   6.158  0.1930 -0.5929  0.5691
 2612ntf    on518114   1.909   4.498   5.973  0.0942 -0.1048  0.9708
 2612ntf    on518115   2.093   4.382   5.864  0.0004 -0.0398  0.1183
 2612ntf    on518116   1.750   4.136   5.715 -0.4938 -0.4926 -0.0653
 2612ntf    on518117   1.758   4.380   5.701 -0.0891 -0.7182 -0.4267
 2612ntf    fn418118   1.608   4.172   5.966 -0.1366 -0.3871 -0.8980
 2612ntf    fn418119   1.611   4.382   5.968 -0.4315 -0.0082  0.3508
 2612ntf    fn418120   1.506   4.276   5.810 -0.2064 -0.1067  0.4358
 2613ntf    cn118121   2.662   1.452   3.633  0.0379 -0.4250  0.2453
 2613ntf    sn218122   2.736   1.501   3.792  0.2641  0.1770 -0.0434
 2613ntf    nn318123   2.875   1.545   3.734  0.3370  0.5967  0.4493
 2613ntf    sn218124   3.008   1.462   3.740  0.1495  0.2385 -0.2783
 2613ntf    cn118125   3.073   1.518   3.900 -0.0504 -0.0318 -0.1026
 2613ntf    fn418126   2.547   1.386   3.640 -0.1229 -0.1368  0.3544
 2613ntf    fn418127   2.633   1.558   3.559  0.0321 -0.0501  0.7743
 2613ntf    fn418128   2.740   1.370   3.565  0.2601 -0.2953  0.3428
 2613ntf    on518129   2.657   1.610   3.842  0.6189  0.2849  0.2778
 2613ntf    on518130   2.719   1.379   3.867  0.2500  0.7483  0.8973
 2613ntf    on518131   3.102   1.522   3.649 -0.3719  0.1699 -0.8695
 2613ntf    on518132   3.006   1.318   3.754 -0.3886  0.2818  0.1484
 2613ntf    fn418133   3.188   1.473   3.948  0.1544  0.3064 -0.2792
 2613ntf    fn418134   3.090   1.649   3.899  0.0986 -0.0446  0.4546
 2613ntf    fn418135   2.981   1.487   3.991 -0.0284 -0.4514 -0.2182
 2614ntf    cn118136   0.174   0.335   4.296 -0.4713  0.3194  0.3701
 2614ntf    sn218137   0.058   0.196   4.283  0.0654 -0.0435 -0.5740
 2614ntf    nn318138  -0.042   0.255   4.177 -0.3367  0.3502  0.0188
 2614ntf    sn218139  -0.167   0.348   4.192 -0.4238  0.2100  0.1524
 2614ntf    cn118140  -0.295   0.219   4.205 -0.4113  0.2042  0.2191
 2614ntf    fn418141   0.241   0.355   4.184  0.2245 -0.5171  0.6357
 2614ntf    fn418142   0.102   0.444   4.320 -0.0426  0.5995  0.3849
 2614ntf    fn418143   0.259   0.321   4.396 -0.1094  0.0631  0.0234
 2614ntf    on518144   0.136   0.086   4.230  0.3039 -0.1192 -0.0646
 2614ntf    on518145   0.004   0.188   4.416 -0.7976  0.1560 -0.9022
 2614ntf    on518146  -0.186   0.432   4.077 -0.3245  0.4473  0.3093
 2614ntf    on518147  -0.185   0.419   4.316 -0.0556  0.6453 -0.0399
 2614ntf    fn418148  -0.416   0.271   4.199 -0.5023 -0.0191  0.0969
 2614ntf    fn418149  -0.289   0.138   4.100 -0.2242  0.5980 -0.0771
 2614ntf    fn418150  -0.282   0.151   4.317  0.2542 -0.0908 -0.0297
 2615ntf    cn118151   0.687   3.721   5.329  0.4533  0.5684  0.0431
 2615ntf    sn218152   0.702   3.815   5.174  0.0058  0.0995 -0.2868
 2615ntf    nn318153   0.567   3.895   5.182  0.0618  0.1419  0.2099
 2615ntf    sn218154   0.533   4.031   5.254  0.1988  0.2049  0.1565
 2615ntf    cn118155   0.546   4.144   5.112 -0.3337  0.2993  0.1814
 2615ntf    fn418156   0.786   3.637   5.346 -0.1891 -0.1875  0.1015
 2615ntf    fn418157   0.687   3.801   5.434  0.4140  0.4121  0.1618
 2615ntf    fn418158   0.572   3.657   5.339  0.6870  0.1371 -0.0460
 2615ntf    on518159   0.825   3.890   5.172  0.4056 -0.5423 -0.1908
 2615ntf    on518160   0.686   3.718   5.068  0.4483  0.2774 -0.5187
 2615ntf    on518161   0.630   4.082   5.348 -0.0077  0.5145  0.2027
 2615ntf    on518162   0.396   4.043   5.296  0.1539  0.4141 -0.0481
 2615ntf    fn418163   0.671   4.181   5.089 -0.3038  0.3069  0.3580
 2615ntf    fn418164   0.487   4.097   5.003  0.5140  0.1142 -0.2056
 2615ntf    fn418165   0.484   4.257   5.140 -0.2750  0.3492  0.1087
 2616ntf    cn118166   6.867   0.592   6.420 -0.0420 -0.4620 -0.2768
 2616ntf    sn218167   6.760   0.705   6.327  0.1643  0.0970  0.1594
 2616ntf    nn318168   6.622   0.650   6.378 -0.1037  0.1658 -0.4707
 2616ntf    sn218169   6.513   0.564   6.306 -0.2241 -0.1015  0.0250
 2616ntf    cn118170   6.393   0.683   6.240 -0.2286 -0.1596 -0.0717
 2616ntf    fn418171   6.827   0.467   6.403 -0.0467 -0.4384 -0.4447
 2616ntf    fn418172   6.995   0.592   6.386 -0.1412 -0.4894 -0.6489
 2616ntf    fn418173   6.860   0.625   6.548 -0.7687 -0.3840 -0.3329
 2616ntf    on518174   6.787   0.840   6.371 -0.5506  0.2687  0.0832
 2616ntf    on518175   6.783   0.681   6.187 -0.2067  0.1917  0.0796
 2616ntf    on518176   6.439   0.483   6.400  0.0619  0.0177  0.3560
 2616ntf    on518177   6.566   0.490   6.194 -0.4154  0.0110 -0.1418
 2616ntf    fn418178   6.445   0.751   6.139  0.0087 -0.3083 -0.0491
 2616ntf    fn418179   6.283   0.623   6.198  0.0916 -0.4874 -0.4460
 2616ntf    fn418180   6.357   0.769   6.335 -0.4709 -0.6339  0.2680
 2617ntf    cn118181   5.412   2.282   1.373  0.0637  0.0010 -0.2329
 2617ntf    sn218182   5.470   2.176   1.237 -0.4008 -0.1835 -0.2900
 2617ntf    nn318183   5.583   2.088   1.300 -0.1275  0.0116 -0.5055
 2617ntf    sn218184   5.582   1.939   1.350  0.4934  0.1903  0.0686
 2617ntf    cn118185   5.646   1.862   1.198  0.1217 -0.0844  0.0473
 2617ntf    fn418186   5.507   2.370   1.401 -0.3223  0.4306 -0.2663
 2617ntf    fn418187   5.303   2.350   1.341  0.1030  0.1790  0.0159
 2617ntf    fn418188   5.387   2.212   1.483 -0.3665  0.1190 -0.2540
 2617ntf    on518189   5.353   2.104   1.194 -0.4504 -0.1427 -0.2258
 2617ntf    on518190   5.522   2.269   1.140 -0.1891 -0.4468 -0.4308
 2617ntf    on518191   5.452   1.880   1.370  0.8208 -0.4606  0.2925
 2617ntf    on518192   5.678   1.899   1.450  0.0119 -0.0568  0.4375
 2617ntf    fn418193   5.563   1.870   1.096 -0.1460 -0.5293  0.2272
 2617ntf    fn418194   5.753   1.928   1.156 -0.1145  0.2263 -0.0613
 2617ntf    fn418195   5.679   1.734   1.215  0.2182 -0.0361  0.2297
 2618ntf    cn118196   5.029   4.867   1.494 -0.1028 -0.0059 -0.3805
 2618ntf    sn218197   5.096   4.980   1.620 -0.3642  0.0201 -0.2629
 2618ntf    nn318198   5.140   4.868   1.720 -0.2752  0.5521  0.2995
 2618ntf    sn218199   5.123   4.867   1.876 -0.0595 -0.1066  0.3220
 2618ntf    cn118200   4.957   4.804   1.916 -0.2424 -0.0407 -0.3231
 2618ntf    fn418201   4.967   4.766   1.552 -0.2413  0.3431  0.0862
 2618ntf    fn418202   4.945   4.915   1.404 -0.6102 -0.4009 -0.1217
 2618ntf    fn418203   5.129   4.817   1.423  0.3494 -0.8370  0.8148
 2618ntf    on518204   5.207   5.047   1.557 -0.3222  0.1533 -0.0473
 2618ntf    on518205   4.992   5.066   1.672 -0.1068  0.0504  0.2075
 2618ntf    on518206   5.136   4.992   1.946  0.8948  0.0590 -0.1386
 2618ntf    on518207   5.204   4.762   1.933  0.2825  0.1930  0.3834
 2618ntf    fn418208   4.935   4.678   1.882 -0.1110 -0.3291  0.6413
 2618ntf    fn418209   4.924   4.808   2.044  0.5471 -0.1024 -0.1134
 2618ntf    fn418210   4.862   4.871   1.852 -0.2883 -0.2702 -0.4990
 2619ntf    cn118211   2.768   4.404   3.556 -0.0078 -0.1356 -0.6603
 2619ntf    sn218212   2.590   4.382   3.525 -0.1223 -0.0026 -0.1093
 2619ntf    nn318213   2.541   4.385   3.674  0.6840  0.0132  0.1631
 2619ntf    sn218214   2.531   4.272   3.784  0.0361  0.0585  0.1549
 2619ntf    cn118215   2.351   4.267   3.807  0.0780 -0.0497  0.4641
 2619ntf    fn418216   2.831   4.434   3.444 -0.2921  0.4493 -0.6728
 2619ntf    fn418217   2.796   4.508   3.633  0.0598 -0.3447 -0.4020
 2619ntf    fn418218   2.828   4.307   3.623  0.1021  0.3007 -0.1224
 2619ntf    on518219   2.560   4.504   3.456 -0.8526 -0.0258  0.1641
 2619ntf    on518220   2.565   4.258   3.455  0.1123 -0.0760 -0.0675
 2619ntf    on518221   2.576   4.330   3.908  0.5636 -0.0926  0.0388
 2619ntf    on518222   2.586   4.141   3.759  0.0941  0.1838 -0.3900
 2619ntf    fn418223   2.304   4.389   3.829  0.2246  0.1094 -0.0904
 2619ntf    fn418224   2.295   4.215   3.699  0.7892 -0.0227  0.0807
 2619ntf    fn418225   2.310   4.194   3.909  0.3150  0.0721  0.6464
 2620ntf    cn118226   6.746   2.913   5.046  0.0038 -0.1473  0.1037
 2620ntf    sn218227   6.802   3.044   4.933 -0.0759 -0.0765  0.1462
 2620ntf    nn318228   6.899   2.958   4.845 -0.0467  0.2434 -0.1369
 2620ntf    sn218229   7.055   2.944   4.855 -0.0768  0.0514  0.0692
 2620ntf    cn118230   7.122   2.976   4.689  0.0747 -0.3543  0.0492
 2620ntf    fn418231   6.634   2.955   5.103 -0.1838  0.3744 -0.6281
 2620ntf    fn418232   6.725   2.798   4.985 -0.4736 -0.2446  0.4479
 2620ntf    fn418233   6.824   2.893   5.151  0.3883 -0.0606 -0.1645
 2620ntf    on518234   6.684   3.082   4.860  0.2038  0.3690 -0.0821
 2620ntf    on518235   6.858   3.143   5.022  0.5534  0.1660 -0.5115
 2620ntf    on518236   7.093   2.806   4.873 -0.6748 -0.1571 -0.2552
 2620ntf    on518237   7.131   3.034   4.937 -0.0006  0.5539 -0.5473
 2620ntf    fn418238   7.089   3.087   4.624  0.0193 -0.5748 -0.2953
 2620ntf    fn418239   7.253   2.980   4.701  0.0119  0.1132  0.6837
 2620ntf    fn418240   7.079   2.888   4.601 -0.2337 -0.1581 -0.0006
 2621ntf    cn118241   5.360   5.000   0.751  0.2320 -0.0493 -0.1250
 2621ntf    sn218242   5.277   4.883   0.640  0.1644 -0.3203  0.2079
 2621ntf    nn318243   5.138   4.956   0.634  0.2181 -0.2374 -0.0467
 2621ntf    sn218244   4.996   4.895   0.660  0.1104  0.0327  0.0068
 2621ntf    cn118245   4.976   4.912   0.840  0.0596  0.4747 -0.0380
 2621ntf    fn418246   5.489   4.982   0.776  0.2420  0.2957  0.0839
 2621ntf    fn418247   5.341   5.126   0.714  0.3802  0.1394  0.4298
 2621ntf    fn418248   5.310   4.997   0.874  0.3452  0.6309 -0.0581
 2621ntf    on518249   5.355   4.882   0.519  0.1092 -0.0885  0.1702
 2621ntf    on518250   5.273   4.764   0.721 -0.3486 -0.3560  0.1361
 2621ntf    on518251   4.975   4.758   0.623  0.0064  0.0310  0.0694
 2621ntf    on518252   4.892   4.982   0.609  0.6366  0.4123 -0.4304
 2621ntf    fn418253   4.870   4.842   0.880  0.0296  0.6400  0.1723
 2621ntf    fn418254   5.081   4.859   0.901  0.0770  0.1033 -0.3815
 2621ntf    fn418255   4.955   5.035   0.882 -0.0277  0.2694  0.5314
 2622ntf    cn118256   4.745   4.471   2.478 -0.1139  0.6445 -0.2479
 2622ntf    sn218257   4.826   4.392   2.335 -0.1468 -0.0581  0.1181
 2622ntf    nn318258   4.789   4.490   2.218  0.0879 -0.2019 -0.0749
 2622ntf    sn218259   4.652   4.485   2.142 -0.0242 -0.1279  0.1250
 2622ntf    cn118260   4.602   4.660   2.141 -0.2810 -0.2005  0.1406
 2622ntf    fn418261   4.771   4.601   2.484  0.2612  0.5500  0.1662
 2622ntf    fn418262   4.613   4.456   2.478 -0.0887  0.4294  0.0840
 2622ntf    fn418263   4.786   4.415   2.590 -0.2136 -0.0103 -0.5340
 2622ntf    on518264   4.964   4.414   2.370 -0.0692 -0.5805  0.1424
 2622ntf    on518265   4.770   4.259   2.328  0.2921 -0.2278 -0.1940
 2622ntf    on518266   4.543   4.424   2.215 -0.0115 -0.2735  0.0223
 2622ntf    on518267   4.668   4.450   2.003  0.1659  0.4768 -0.0092
 2622ntf    fn418268   4.705   4.732   2.101 -0.3963 -0.1037  0.0132
 2622ntf    fn418269   4.504   4.690   2.057 -0.1324  0.4966  0.2103
 2622ntf    fn418270   4.565   4.702   2.261 -0.2660 -0.4693  0.2407
 2623ntf    cn118271   1.154   2.489   2.333 -0.6280 -0.4616  0.1784
 2623ntf    sn218272   1.147   2.316   2.280 -0.0762 -0.3498 -0.2773
 2623ntf    nn318273   1.299   2.293   2.250 -0.1127 -0.3566 -0.4567
 2623ntf    sn218274   1.408   2.219   2.336 -0.0339  0.1464 -0.1237
 2623ntf    cn118275   1.367   2.049   2.286 -0.0086  0.0939  0.0334
 2623ntf    fn418276   1.042   2.531   2.390 -0.3412  0.1155  0.3266
 2623ntf    fn418277   1.246   2.502   2.426 -0.2099  0.1323 -0.3055
 2623ntf    fn418278   1.183   2.566   2.228 -0.5564 -0.3036  0.3134
 2623ntf    on518279   1.096   2.255   2.401  0.4181  0.1682  0.1914
 2623ntf    on518280   1.067   2.318   2.160 -0.8978  0.4232  0.2666
 2623ntf    on518281   1.399   2.239   2.478  0.5109 -0.7122  0.0383
 2623ntf    on518282   1.541   2.234   2.281  0.0477 -0.1792 -0.0125
 2623ntf    fn418283   1.416   2.023   2.166 -0.1613 -0.0037 -0.0069
 2623ntf    fn418284   1.410   1.951   2.364 -0.2482 -0.0749 -0.0467
 2623ntf    fn418285   1.236   2.035   2.276  0.0149 -0.1128  0.0219
 2624ntf    cn118286   2.717   2.538   3.785 -0.1258 -0.1689 -0.3336
 2624ntf    sn218287   2.760   2.382   3.868  0.0592  0.0811  0.0439
 2624ntf    nn318288   2.689   2.282   3.770  0.3445  0.0340 -0.1141
 2624ntf    sn218289   2.747   2.186   3.659 -0.3186 -0.2688 -0.2043
 2624ntf    cn118290   2.658   2.244   3.512 -0.3763  0.1273 -0.0154
 2624ntf    fn418291   2.724   2.645   3.862  0.7467 -0.6523  0.2704
 2624ntf    fn418292   2.776   2.572   3.672  0.3688 -0.0735 -0.0500
 2624ntf    fn418293   2.589   2.534   3.750 -0.3061  0.6603  0.2055
 2624ntf    on518294   2.904   2.379   3.861  0.0488 -0.2014 -0.0505
 2624ntf    on518295   2.697   2.399   3.997 -0.2526 -0.4823 -0.0298
 2624ntf    on518296   2.709   2.048   3.673 -0.0675 -0.2866  0.3692
 2624ntf    on518297   2.885   2.200   3.620 -0.3682  0.0194 -0.2773
 2624ntf    fn418298   2.694   2.190   3.397 -0.1982  0.0460  0.0771
 2624ntf    fn418299   2.528   2.220   3.520 -0.3483  0.0147  0.1228
 2624ntf    fn418300   2.671   2.374   3.493 -0.3413  0.1210 -0.0335
 2625ntf    cn118301   2.561   4.627   0.026  0.5187  0.0714  0.3538
 2625ntf    sn218302   2.388   4.587   0.068  0.4007  0.0442 -0.1480
 2625ntf    nn318303   2.394   4.430   0.067  0.3749  0.0466 -1.1022
 2625ntf    sn218304   2.296   4.320   0.012 -0.2572  0.1141 -0.1309
 2625ntf    cn118305   2.201   4.284   0.163 -0.3127  0.5830 -0.0544
 2625ntf    fn418306   2.603   4.534  -0.059  0.4122  0.3976 -0.0579
 2625ntf    fn418307   2.581   4.743  -0.032  0.4644 -0.1091 -0.0275
 2625ntf    fn418308   2.637   4.622   0.134  0.8545  0.8125  0.1521
 2625ntf    on518309   2.373   4.636   0.203  0.2005 -0.2812 -0.0495
 2625ntf    on518310   2.314   4.649  -0.038 -0.1985 -0.1947  0.1282
 2625ntf    on518311   2.363   4.193  -0.003 -0.1912  0.1131  0.1610
 2625ntf    on518312   2.201   4.353  -0.092  0.0862  0.1187 -0.4438
 2625ntf    fn418313   2.123   4.389   0.187 -0.2967  0.6639 -0.3474
 2625ntf    fn418314   2.124   4.177   0.155  0.2621  0.1243  0.5250
 2625ntf    fn418315   2.284   4.272   0.265  0.1928  0.2783 -0.4996
 2626ntf    cn118316   0.199   1.390   4.549  0.3605  0.2381 -0.0693
 2626ntf    sn218317   0.223   1.425   4.726  0.1450 -0.2400  0.0570
 2626ntf    nn318318   0.143   1.561   4.733 -0.1061 -0.3901  0.1383
 2626ntf    sn218319  -0.001   1.572   4.794 -0.0759 -0.1998  0.1754
 2626ntf    cn118320   0.043   1.588   4.970 -0.0739 -0.0141  0.1578
 2626ntf    fn418321   0.275   1.296   4.495 -0.6976 -0.3810 -0.5098
 2626ntf    fn418322   0.076   1.366   4.508  0.4468 -0.4976  0.0853
 2626ntf    fn418323   0.230   1.505   4.493  0.4467  0.2332 -0.0326
 2626ntf    on518324   0.171   1.308   4.792  0.4453 -0.4759 -0.1267
 2626ntf    on518325   0.366   1.441   4.727  0.1056  0.1387  0.0085
 2626ntf    on518326  -0.084   1.454   4.798  0.1072 -0.3364 -0.0199
 2626ntf    on518327  -0.066   1.696   4.762  0.2122 -0.1743 -0.3195
 2626ntf    fn418328   0.069   1.714   5.001  0.4645  0.0519 -0.5300
 2626ntf    fn418329  -0.059   1.543   5.041  0.0551  0.0238  0.3679
 2626ntf    fn418330   0.147   1.515   5.008 -0.0101 -0.0445 -0.0728
 2627ntf    cn118331   3.050   3.489   1.301 -0.0761 -0.3530 -0.0299
 2627ntf    sn218332   3.000   3.481   1.126  0.1903 -0.0448 -0.1213
 2627ntf    nn318333   2.845   3.500   1.147  0.1533 -0.1980 -0.2522
 2627ntf    sn218334   2.754   3.595   1.062  0.1585  0.1998  0.1794
 2627ntf    cn118335   2.799   3.750   1.146  0.0541  0.2274  0.1851
 2627ntf    fn418336   3.004   3.598   1.358 -0.0801 -0.2277 -0.2705
 2627ntf    fn418337   3.009   3.383   1.369 -0.5202 -0.3901 -0.3489
 2627ntf    fn418338   3.182   3.501   1.313 -0.2151  0.9662  0.3035
 2627ntf    on518339   3.065   3.597   1.069 -0.1248  0.3443  0.2999
 2627ntf    on518340   3.039   3.357   1.065 -0.2283 -0.1922 -0.0929
 2627ntf    on518341   2.613   3.577   1.087  0.1075  0.6186  0.2077
 2627ntf    on518342   2.801   3.622   0.928  0.0457  0.3229  0.1644
 2627ntf    fn418343   2.924   3.746   1.189 -0.0449  0.1291  0.4680
 2627ntf    fn418344   2.779   3.851   1.063  0.4226  0.2719  0.1457
 2627ntf    fn418345   2.723   3.766   1.253 -0.2878 -0.1193 -0.0036
 2628ntf    cn118346   1.542   2.305   0.531 -0.2073 -0.0935 -0.0726
 2628ntf    sn218347   1.719   2.266   0.548 -0.2189 -0.1810 -0.1490
 2628ntf    nn318348   1.722   2.110   0.539  0.2203 -0.1759 -0.1102
 2628ntf    sn218349   1.851   2.019   0.540  0.2440 -0.1411  0.1674
 2628ntf    cn118350   1.767   1.896   0.644  0.0723  0.2172  0.4534
 2628ntf    fn418351   1.512   2.414   0.599 -0.6690 -0.2502 -0.0232
 2628ntf    fn418352   1.505   2.330   0.407  0.6069 -0.0937 -0.3192
 2628ntf    fn418353   1.474   2.210   0.594  0.0940 -0.5044 -0.3530
 2628ntf    on518354   1.771   2.329   0.429  0.6925 -0.0126  0.3310
 2628ntf    on518355   1.743   2.317   0.681  0.2606 -0.0057 -0.3004
 2628ntf    on518356   1.958   2.074   0.619  0.4904 -0.0052 -0.2544
 2628ntf    on518357   1.870   1.941   0.420 -0.9281  0.5233 -0.4765
 2628ntf    fn418358   1.821   1.776   0.637 -0.4400  0.0005  0.2112
 2628ntf    fn418359   1.766   1.930   0.772  0.4322 -0.0763  0.5362
 2628ntf    fn418360   1.640   1.877   0.611  0.3626 -0.5390 -0.2538
 2629ntf    cn118361   3.449   2.575   0.215 -0.1447  0.0246 -0.0068
 2629ntf    sn218362   3.506   2.410   0.164 -0.3855 -0.0410 -0.0680
 2629ntf    nn318363   3.660   2.436   0.148 -0.3634 -0.4274 -0.5058
 2629ntf    sn218364   3.748   2.461   0.021  0.2583 -0.0381 -0.0046
 2629ntf    cn118365   3.826   2.299  -0.008  0.0824 -0.1142 -0.0488
 2629ntf    fn418366   3.324   2.581   0.259 -0.2785 -0.4805 -0.3135
 2629ntf    fn418367   3.529   2.618   0.311  0.5955 -0.0996 -0.5570
 2629ntf    fn418368   3.446   2.653   0.108  0.3466 -0.0062 -0.0450
 2629ntf    on518369   3.472   2.321   0.271 -0.4463 -0.0733 -0.1145
 2629ntf    on518370   3.438   2.390   0.038 -0.8832  0.1894  0.1627
 2629ntf    on518371   3.869   2.538   0.039 -0.2071  0.8342 -0.5244
 2629ntf    on518372   3.679   2.485  -0.103 -0.3004 -0.2280  0.2711
 2629ntf    fn418373   3.735   2.203  -0.011 -0.4452  0.3853 -0.4361
 2629ntf    fn418374   3.885   2.297  -0.126  0.4201 -0.4369  0.1244
 2629ntf    fn418375   3.915   2.261   0.081  0.0360 -0.2770 -0.0721
 2630ntf    cn118376   3.248   3.603   6.301 -0.1720 -0.2867  0.3646
 2630ntf    sn218377   3.410   3.678   6.335 -0.1832 -0.0940  0.0005
 2630ntf    nn318378   3.420   3.668   6.491 -0.3278 -0.1965  0.0034
 2630ntf    sn218379   3.422   3.779   6.603 -0.4243 -0.0372 -0.1522
 2630ntf    cn118380   3.259   3.762   6.680 -0.3692  0.2482  0.0276
 2630ntf    fn418381   3.227   3.581   6.172  0.4574  0.0866  0.1979
 2630ntf    fn418382   3.230   3.489   6.366 -0.0850 -0.5536 -0.0722
 2630ntf    fn418383   3.148   3.680   6.339 -0.0856 -0.0250  0.0670
 2630ntf    on518384   3.500   3.589   6.264 -0.0142 -0.4533  0.6551
 2630ntf    on518385   3.400   3.809   6.277  0.5083  0.1455  0.4137
 2630ntf    on518386   3.419   3.915   6.556 -0.1150  0.3009  0.7913
 2630ntf    on518387   3.525   3.751   6.700 -0.0513  0.1811 -0.4789
 2630ntf    fn418388   3.235   3.633   6.694  0.1448  0.1766  0.2538
 2630ntf    fn418389   3.262   3.802   6.806  0.1176 -0.1524  0.1431
 2630ntf    fn418390   3.164   3.827   6.615 -0.0081  0.3433 -0.4096
 2631ntf    cn118391   1.162   2.305   3.416  0.1292 -0.1085 -0.8150
 2631ntf    sn218392   1.004   2.394   3.434  0.1394 -0.1939 -0.2884
 2631ntf    nn318393   0.927   2.339   3.309  0.1491  0.6316 -0.6603
 2631ntf    sn218394   0.797   2.384   3.233 -0.3744 -0.3355 -0.3553
 2631ntf    cn118395   0.679   2.250   3.268 -0.6755 -0.1129 -0.5125
 2631ntf    fn418396   1.147   2.174   3.425 -0.4674  0.0161  0.1258
 2631ntf    fn418397   1.228   2.325   3.303  0.7120  0.5842 -0.3625
 2631ntf    fn418398   1.248   2.337   3.512  0.3385 -0.9483 -0.7158
 2631ntf    on518399   0.953   2.330   3.553  0.5410 -0.5822 -0.3182
 2631ntf    on518400   1.043   2.532   3.428  0.1235 -0.1594  0.2974
 2631ntf    on518401   0.803   2.369   3.090 -0.2692 -0.1108 -0.3745
 2631ntf    on518402   0.731   2.502   3.284 -0.2583 -0.3679 -0.1261
 2631ntf    fn418403   0.562   2.272   3.210 -0.6644 -0.1076 -0.5335
 2631ntf    fn418404   0.728   2.135   3.223  0.2851  0.1456 -0.1634
 2631ntf    fn418405   0.651   2.232   3.396 -0.4336  0.0527 -0.4353
 2632ntf    cn118406   1.244   6.809   2.103 -0.1147 -0.3046 -0.2223
 2632ntf    sn218407   1.340   6.744   2.243 -0.2534  0.0135  0.0226
 2632ntf    nn318408   1.460   6.845   2.237  0.0002 -0.2347  0.7642
 2632ntf    sn218409   1.470   6.989   2.300  0.2273  0.1725 -0.1765
 2632ntf    cn118410   1.550   6.947   2.458 -0.1456  0.2730  0.0394
 2632ntf    fn418411   1.312   6.800   1.990 -0.5536 -0.2182 -0.4975
 2632ntf    fn418412   1.129   6.751   2.074 -0.4616 -0.1061  0.7251
 2632ntf    fn418413   1.219   6.939   2.104 -0.2563 -0.3306 -0.3352
 2632ntf    on518414   1.239   6.764   2.344 -0.5526  1.0070 -0.4609
 2632ntf    on518415   1.370   6.606   2.212  0.9630  0.2075  0.3022
 2632ntf    on518416   1.344   7.050   2.335  0.1629 -0.2851  0.4057
 2632ntf    on518417   1.574   7.063   2.234  0.6219 -0.2362 -0.0208
 2632ntf    fn418418   1.574   7.061   2.521 -0.1574  0.0733  0.4054
 2632ntf    fn418419   1.466   6.880   2.536  0.1078  0.1955  0.2462
 2632ntf    fn418420   1.666   6.884   2.455 -0.3293 -0.1161  0.7236
 2633ntf    cn118421   0.832   4.872   6.247 -0.0571  0.2289  0.0599
 2633ntf    sn218422   0.972   4.756   6.240 -0.1086  0.1739 -0.0585
 2633ntf    nn318423   1.021   4.768   6.091 -0.2014 -0.1064 -0.1116
 2633ntf    sn218424   0.961   4.698   5.963 -0.0672  0.1005 -0.2876
 2633ntf    cn118425   1.052   4.541   5.960 -0.1016  0.0737 -0.0269
 2633ntf    fn418426   0.798   4.885   6.374  0.5100 -0.4550  0.2885
 2633ntf    fn418427   0.855   4.996   6.207  0.1585  0.2510  0.2494
 2633ntf    fn418428   0.721   4.834   6.187  0.1298  0.0436 -0.1708
 2633ntf    on518429   1.072   4.812   6.327 -0.2030  0.0366  0.1379
 2633ntf    on518430   0.928   4.624   6.278 -0.2141  0.1871 -0.1370
 2633ntf    on518431   1.008   4.759   5.841  0.1593 -0.3544 -0.4271
 2633ntf    on518432   0.820   4.666   5.961 -0.1716  0.5396 -0.2484
 2633ntf    fn418433   1.173   4.553   5.907 -0.1162  0.2997 -0.0123
 2633ntf    fn418434   1.079   4.497   6.081  0.2271 -0.1060 -0.1635
 2633ntf    fn418435   0.983   4.449   5.895 -0.0144  0.2012 -0.3048
 2634ntf    cn118436   6.299   0.184   5.465 -0.1968  0.1017  0.0634
 2634ntf    sn218437   6.470   0.144   5.509 -0.0939  0.3464 -0.1099
 2634ntf    nn318438   6.454  -0.003   5.564  0.2302  0.2284 -0.3297
 2634ntf    sn218439   6.491  -0.133   5.484 -0.0820 -0.0032 -0.0992
 2634ntf    cn118440   6.673  -0.141   5.494 -0.0907 -0.2470 -0.1137
 2634ntf    fn418441   6.281   0.302   5.408 -0.5764  0.0730  0.1216
 2634ntf    fn418442   6.252   0.096   5.378 -0.0712  0.0989 -0.0026
 2634ntf    fn418443   6.215   0.178   5.567  0.0845  0.1782  0.2980
 2634ntf    on518444   6.555   0.158   5.394 -0.0926  0.3771 -0.1055
 2634ntf    on518445   6.498   0.236   5.616  0.2344  0.4729 -0.3021
 2634ntf    on518446   6.482  -0.124   5.341  0.2288 -0.7785 -0.1773
 2634ntf    on518447   6.438  -0.253   5.543 -0.6893  0.4875  0.3545
 2634ntf    fn418448   6.717  -0.203   5.602  0.3764  0.2448 -0.0156
 2634ntf    fn418449   6.736  -0.195   5.391  0.3934  0.1216 -0.0122
 2634ntf    fn418450   6.726  -0.020   5.496  0.0865 -0.3277  0.3683
 2635ntf    cn118451   4.548   5.047   3.754 -0.4798  0.0660  0.0357
 2635ntf    sn218452   4.520   4.891   3.665 -0.0529  0.0460 -0.0643
 2635ntf    nn318453   4.662   4.862   3.605 -0.1493  0.2967 -0.4208
 2635ntf    sn218454   4.694   4.844   3.453  0.2673 -0.0467 -0.2967
 2635ntf    cn118455   4.747   5.015   3.419  0.1846  0.0771  0.1990
 2635ntf    fn418456   4.446   5.086   3.829 -0.5197  0.1004 -0.0354
 2635ntf    fn418457   4.651   5.037   3.836 -0.3650  0.2742 -0.0834
 2635ntf    fn418458   4.581   5.142   3.668  0.6910 -0.2014  0.1674
 2635ntf    on518459   4.489   4.804   3.776 -0.0195  0.5408  0.3365
 2635ntf    on518460   4.408   4.921   3.579 -0.3714 -0.1398  0.2818
 2635ntf    on518461   4.583   4.817   3.365 -0.6949 -0.2161  0.9473
 2635ntf    on518462   4.814   4.770   3.425  0.4212  0.0340  0.1392
 2635ntf    fn418463   4.791   5.066   3.533  0.3862  0.1517  0.0881
 2635ntf    fn418464   4.840   5.034   3.328 -0.2316 -0.0127 -0.2508
 2635ntf    fn418465   4.645   5.091   3.381 -0.2059 -0.5194  0.0424
 2636ntf    cn118466   6.850   1.558   1.655  0.0688 -0.1757  0.0950
 2636ntf    sn218467   6.837   1.670   1.513 -0.1314 -0.0389  0.2215
 2636ntf    nn318468   6.701   1.742   1.544 -0.1122  0.2972 -0.4463
 2636ntf    sn218469   6.663   1.868   1.630 -0.0847 -0.1111  0.1745
 2636ntf    cn118470   6.515   1.802   1.711 -0.2366  0.0663  0.0431
 2636ntf    fn418471   6.850   1.632   1.765 -0.3851  0.0072 -0.0264
 2636ntf    fn418472   6.743   1.479   1.653 -0.2207  0.2041  0.4398
 2636ntf    fn418473   6.954   1.477   1.652 -0.0989 -0.3839 -0.1392
 2636ntf    on518474   6.958   1.749   1.520 -0.0841 -0.0485 -0.3905
 2636ntf    on518475   6.824   1.579   1.402  0.0934  0.7999 -0.5138
 2636ntf    on518476   6.616   1.979   1.550  0.4780 -0.4916 -0.7061
 2636ntf    on518477   6.753   1.894   1.740 -0.3124  0.7856  0.1612
 2636ntf    fn418478   6.487   1.892   1.803 -0.3524 -0.0635  0.1367
 2636ntf    fn418479   6.412   1.803   1.628 -0.3144 -0.3178  0.1289
 2636ntf    fn418480   6.524   1.681   1.765 -0.0204  0.1799  0.2625
 2637ntf    cn118481   1.645   5.961   2.152  0.1475  0.2143  0.1210
 2637ntf    sn218482   1.493   5.995   2.246 -0.0646 -0.0978 -0.1067
 2637ntf    nn318483   1.395   5.914   2.154  0.2410 -0.1762 -0.3643
 2637ntf    sn218484   1.252   5.855   2.178  0.2768 -0.2332 -0.2913
 2637ntf    cn118485   1.295   5.679   2.196  0.1642 -0.2315 -0.0091
 2637ntf    fn418486   1.617   5.991   2.026  0.0930  0.1252  0.1118
 2637ntf    fn418487   1.745   6.041   2.188  0.2274  0.0526  0.2564
 2637ntf    fn418488   1.697   5.840   2.146  0.1398  0.2169 -0.0080
 2637ntf    on518489   1.525   5.932   2.372  0.0628  0.2109  0.0164
 2637ntf    on518490   1.492   6.139   2.236  0.1126 -0.0680  0.2610
 2637ntf    on518491   1.186   5.860   2.050  0.1680 -0.1109 -0.2313
 2637ntf    on518492   1.185   5.899   2.298  0.6433 -0.0998 -0.1352
 2637ntf    fn418493   1.373   5.624   2.106 -0.0679 -0.2209 -0.2190
 2637ntf    fn418494   1.346   5.641   2.312  0.2335 -0.0931  0.0067
 2637ntf    fn418495   1.184   5.607   2.192  0.2369 -0.3454  0.0537
 2638ntf    cn118496   1.683   5.778   6.904 -0.4487 -0.0334 -0.2684
 2638ntf    sn218497   1.656   5.918   7.016 -0.2650 -0.2690  0.0706
 2638ntf    nn318498   1.767   6.014   6.962 -0.6123  0.0936  0.0005
 2638ntf    sn218499   1.757   6.170   6.950 -0.1905  0.1170 -0.0779
 2638ntf    cn118500   1.689   6.191   6.783  0.0316  0.1825 -0.1598
 2638ntf    fn418501   1.635   5.807   6.784  0.1837  0.8504 -0.3138
 2638ntf    fn418502   1.810   5.743   6.893 -0.4086  0.0026  0.0954
 2638ntf    fn418503   1.620   5.669   6.946 -0.1166 -0.0601  0.1677
 2638ntf    on518504   1.520   5.947   6.977 -0.1802  0.1701  0.0942
 2638ntf    on518505   1.690   5.860   7.144  0.1937 -1.0538 -0.3996
 2638ntf    on518506   1.887   6.231   6.937  0.0785 -0.4524 -0.0865
 2638ntf    on518507   1.655   6.232   7.031  0.3045  0.2039  0.4864
 2638ntf    fn418508   1.568   6.141   6.767 -0.1249  0.5310 -0.0886
 2638ntf    fn418509   1.676   6.316   6.740 -0.1709  0.1478 -0.1962
 2638ntf    fn418510   1.771   6.129   6.700  0.1242  0.0060  0.0627
 2639ntf    cn118511   5.550   6.393   0.182 -0.1516  0.2306  0.0045
 2639ntf    sn218512   5.393   6.444   0.105 -0.1925  0.1880  0.0594
 2639ntf    nn318513   5.373   6.327   0.003  0.0650  0.4169 -0.2518
 2639ntf    sn218514   5.424   6.316  -0.145 -0.1522 -0.0437 -0.2940
 2639ntf    cn118515   5.292   6.376  -0.254  0.0448  0.2867 -0.3531
 2639ntf    fn418516   5.560   6.261   0.181 -0.2132  0.2202  0.3842
 2639ntf    fn418517   5.665   6.429   0.129  0.0268  0.1095  0.3077
 2639ntf    fn418518   5.555   6.437   0.307 -0.0345  0.1110  0.0414
 2639ntf    on518519   5.310   6.421   0.221 -0.5416  0.1861 -0.1890
 2639ntf    on518520   5.409   6.581   0.062 -0.6523  0.2766  0.1643
 2639ntf    on518521   5.430   6.174  -0.168  0.2546 -0.0875  0.0702
 2639ntf    on518522   5.544   6.391  -0.175  0.5440 -1.3301 -0.8437
 2639ntf    fn418523   5.186   6.297  -0.258  0.4476 -0.2481 -0.5260
 2639ntf    fn418524   5.246   6.494  -0.214  0.0522  0.2539 -0.2460
 2639ntf    fn418525   5.339   6.395  -0.376  0.1974  0.0010 -0.3372
 2640ntf    cn118526   1.830   5.264   0.124 -0.0757  0.3233 -0.1965
 2640ntf    sn218527   1.690   5.285   0.009 -0.3778 -0.2555  0.0601
 2640ntf    nn318528   1.693   5.157  -0.082  0.2597 -0.0166 -0.2623
 2640ntf    sn218529   1.582   5.050  -0.112  0.0624  0.1140 -0.0024
 2640ntf    cn118530   1.496   5.133  -0.249  0.1651  0.3092  0.0513
 2640ntf    fn418531   1.941   5.323   0.083  0.2781 -0.1978  0.0064
 2640ntf    fn418532   1.805   5.304   0.247  0.6417 -0.2130  0.1282
 2640ntf    fn418533   1.857   5.136   0.142 -0.4485  0.3058  0.2547
 2640ntf    on518534   1.572   5.301   0.090 -0.4621  0.5211 -0.2048
 2640ntf    on518535   1.734   5.396  -0.071  0.4529 -0.1827  0.6031
 2640ntf    on518536   1.484   5.038  -0.007  0.2164  0.6215  0.2033
 2640ntf    on518537   1.636   4.930  -0.172  0.3519  0.0979  0.2847
 2640ntf    fn418538   1.393   5.059  -0.287  0.2188 -0.2176  0.8883
 2640ntf    fn418539   1.438   5.247  -0.216 -0.6290  0.0908 -0.5680
 2640ntf    fn418540   1.573   5.156  -0.354 -0.0447  0.5636 -0.0483
 2641ntf    cn118541   3.123   3.926   3.361 -0.0508 -0.5058  0.0469
 2641ntf    sn218542   2.945   3.956   3.343  0.0320 -0.0522 -0.0461
 2641ntf    nn318543   2.945   4.019   3.199 -0.0766 -0.6541 -0.3136
 2641ntf    sn218544   2.839   4.006   3.084 -0.4718  0.1654 -0.0464
 2641ntf    cn118545   2.813   4.180   3.037 -0.0928  0.2118 -0.0843
 2641ntf    fn418546   3.174   3.827   3.289  0.3663 -0.0730 -0.2670
 2641ntf    fn418547   3.210   4.027   3.360 -0.0255 -0.5259  0.1779
 2641ntf    fn418548   3.120   3.893   3.489 -0.4703  0.2647  0.2447
 2641ntf    on518549   2.888   3.824   3.355 -0.0057 -0.0257  0.0660
 2641ntf    on518550   2.912   4.049   3.448 -0.1430  0.2941 -0.4079
 2641ntf    on518551   2.708   3.970   3.132 -0.1223 -0.3030  0.5617
 2641ntf    on518552   2.890   3.947   2.963  0.7240 -0.2585  0.6469
 2641ntf    fn418553   2.809   4.270   3.134 -0.0168  0.2119 -0.0809
 2641ntf    fn418554   2.916   4.213   2.961 -0.0584  0.3665  0.0298
 2641ntf    fn418555   2.696   4.197   2.978 -0.4975 -0.1094  0.6237
 2642ntf    cn118556   5.145   4.538   5.658 -0.2445 -0.3622 -0.3223
 2642ntf    sn218557   5.227   4.701   5.655  0.2156 -0.5857  0.0922
 2642ntf    nn318558   5.377   4.669   5.688  0.4414  0.1067 -0.2448
 2642ntf    sn218559   5.455   4.693   5.822 -0.0699  0.1722  0.0430
 2642ntf    cn118560   5.523   4.860   5.797  0.2982  0.0611  0.2937
 2642ntf    fn418561   5.199   4.454   5.571  0.6018 -0.0361 -0.1178
 2642ntf    fn418562   5.144   4.481   5.777 -0.2128 -0.0771 -0.1836
 2642ntf    fn418563   5.017   4.557   5.629 -0.2435 -0.1266 -0.1782
 2642ntf    on518564   5.210   4.726   5.514  0.5283  0.9080  0.3096
 2642ntf    on518565   5.162   4.785   5.751  0.6818  0.4874 -0.5082
 2642ntf    on518566   5.572   4.609   5.828 -0.0283  0.2232 -0.0361
 2642ntf    on518567   5.386   4.712   5.947 -0.3859 -0.4705 -0.0319
 2642ntf    fn418568   5.567   4.888   5.675  0.8884  0.2871  0.5526
 2642ntf    fn418569   5.430   4.948   5.827  0.4621  0.0888  0.7255
 2642ntf    fn418570   5.625   4.889   5.876  0.2860  0.6294  0.1008
 2643ntf    cn118571   6.141   0.985   6.025 -0.1908  0.0759  0.0513
 2643ntf    sn218572   6.088   0.854   5.912 -0.2416 -0.1132  0.2941
 2643ntf    nn318573   6.225   0.780   5.887 -0.4191 -0.3512  0.0122
 2643ntf    sn218574   6.350   0.815   5.800 -0.3459  0.1684  0.3182
 2643ntf    cn118575   6.301   0.747   5.638 -0.1008  0.3310  0.1749
 2643ntf    fn418576   6.078   1.101   6.015  0.0452  0.1514 -0.5792
 2643ntf    fn418577   6.116   0.942   6.148 -0.1992  0.5639  0.2251
 2643ntf    fn418578   6.271   1.007   6.012 -0.1364 -0.5053 -0.3841
 2643ntf    on518579   5.995   0.776   5.989 -0.0472 -0.1987  0.4435
 2643ntf    on518580   6.039   0.927   5.797  0.7026 -0.0816 -0.0994
 2643ntf    on518581   6.464   0.732   5.834 -0.4620  0.2074  0.8076
 2643ntf    on518582   6.381   0.954   5.780  0.1116  0.0154 -0.0658
 2643ntf    fn418583   6.272   0.618   5.642 -0.1236  0.3264 -0.1304
 2643ntf    fn418584   6.188   0.803   5.600 -0.3365 -0.1553  0.1523
 2643ntf    fn418585   6.393   0.764   5.544 -0.3501  0.3556 -0.0646
 2644ntf    cn118586   1.759   6.704   4.972  0.1662 -0.4382  0.2301
 2644ntf    sn218587   1.888   6.831   4.988 -0.2119  0.0023 -0.1916
 2644ntf    nn318588   1.991   6.793   4.876 -0.0511  0.2222 -0.1204
 2644ntf    sn218589   2.012   6.860   4.735 -0.1891  0.1159 -0.1926
 2644ntf    cn118590   2.013   6.710   4.633  0.5729  0.4673 -0.7080
 2644ntf    fn418591   1.650   6.707   5.048 -0.3114  0.0160 -0.4583
 2644ntf    fn418592   1.708   6.701   4.850 -0.4543  0.4326  0.4559
 2644ntf    fn418593   1.800   6.580   4.989  0.2093 -0.4037  0.3842
 2644ntf    on518594   1.818   6.956   4.971  0.2665  0.2665 -0.2537
 2644ntf    on518595   1.936   6.806   5.121 -0.1156  0.2442 -0.1795
 2644ntf    on518596   2.145   6.913   4.716 -0.1927  0.0011 -0.5412
 2644ntf    on518597   1.904   6.938   4.679 -0.0798 -0.0271 -0.6001
 2644ntf    fn418598   1.892   6.661   4.609  0.4771  0.5270 -0.3419
 2644ntf    fn418599   2.073   6.732   4.517  0.2148  0.7562 -0.8420
 2644ntf    fn418600   2.086   6.615   4.687 -0.4207 -0.1665 -0.4418
 2645ntf    cn118601   6.751   4.143   0.086 -0.4032  0.7717  0.3266
 2645ntf    sn218602   6.595   4.208   0.020 -0.4465  0.1396 -0.2110
 2645ntf    nn318603   6.579   4.344   0.098  0.4643  0.1588 -0.0471
 2645ntf    sn218604   6.495   4.389   0.222 -0.0611 -0.2637 -0.2483
 2645ntf    cn118605   6.594   4.524   0.292 -0.5294 -0.0353 -0.0201
 2645ntf    fn418606   6.755   4.102   0.212  0.8938 -0.2387 -0.0176
 2645ntf    fn418607   6.791   4.039   0.014 -0.0261  0.7465  0.5686
 2645ntf    fn418608   6.846   4.234   0.073  0.0456  0.2109 -0.4164
 2645ntf    on518609   6.626   4.242  -0.116 -0.0351 -0.1070 -0.1798
 2645ntf    on518610   6.497   4.108   0.053 -0.5084  0.2807  0.0407
 2645ntf    on518611   6.479   4.300   0.334 -0.1751 -0.0919 -0.1270
 2645ntf    on518612   6.374   4.459   0.185 -0.3302 -0.5109  0.1599
 2645ntf    fn418613   6.720   4.486   0.299 -0.3500  0.5829  0.1680
 2645ntf    fn418614   6.596   4.637   0.223 -0.1792  0.2510  0.4541
 2645ntf    fn418615   6.561   4.559   0.415 -0.1788 -0.0124  0.0684
 2646ntf    cn118616   1.978   0.078   3.279  0.0090 -0.0402 -0.2187
 2646ntf    sn218617   2.106   0.204   3.307 -0.0347 -0.0441  0.0008
 2646ntf    nn318618   2.238   0.147   3.244  0.0121 -0.0516  0.1054
 2646ntf    sn218619   2.281   0.145   3.093 -0.2445  0.0075  0.0306
 2646ntf    cn118620   2.416   0.026   3.121  0.1122  0.4041  0.0049
 2646ntf    fn418621   1.923   0.087   3.159 -0.1297 -0.1886 -0.1650
 2646ntf    fn418622   2.026  -0.045   3.283 -0.0994 -0.0602  0.4843
 2646ntf    fn418623   1.877   0.094   3.363  0.0850 -0.4531 -0.0463
 2646ntf    on518624   2.049   0.322   3.246 -0.2405  0.1826  0.6214
 2646ntf    on518625   2.110   0.210   3.451 -0.1613  0.1114 -0.0021
 2646ntf    on518626   2.346   0.266   3.050  0.1786 -0.3029 -0.2228
 2646ntf    on518627   2.197   0.082   2.993 -0.0233 -0.4156  0.1059
 2646ntf    fn418628   2.370  -0.092   3.160 -0.2209  0.2805 -0.7454
 2646ntf    fn418629   2.490  -0.000   3.015 -0.2538 -0.3923 -0.0629
 2646ntf    fn418630   2.496   0.063   3.220 -0.2583 -0.5747  0.6888
 2647ntf    cn118631   1.315   6.530   2.732 -0.1662 -0.0785  0.2625
 2647ntf    sn218632   1.174   6.608   2.817 -0.2003 -0.0474  0.1774
 2647ntf    nn318633   1.081   6.481   2.815  0.2081 -0.3458 -0.3557
 2647ntf    sn218634   1.050   6.379   2.931 -0.0874 -0.2072 -0.3091
 2647ntf    cn118635   0.878   6.420   2.973  0.0996 -0.1961  0.4591
 2647ntf    fn418636   1.290   6.491   2.608 -0.1849  0.5633  0.0638
 2647ntf    fn418637   1.419   6.610   2.726  0.3472 -0.7563 -0.0329
 2647ntf    fn418638   1.351   6.412   2.780  0.5246 -0.1061 -0.3010
 2647ntf    on518639   1.225   6.651   2.944  0.3765  0.0676 -0.0902
 2647ntf    on518640   1.134   6.708   2.721  0.0728  0.1778  0.3001
 2647ntf    on518641   1.117   6.399   3.057 -0.3451  0.4022 -0.2678
 2647ntf    on518642   1.044   6.247   2.872 -0.3169 -0.1977 -0.3044
 2647ntf    fn418643   0.799   6.422   2.867 -0.2040  0.0377  0.6888
 2647ntf    fn418644   0.825   6.332   3.056 -0.7675 -0.2157 -0.1074
 2647ntf    fn418645   0.871   6.540   3.028 -0.2889  0.1432 -0.3147
 2648ntf    cn118646   3.896   4.794   5.126 -0.2730 -0.0373  0.0908
 2648ntf    sn218647   3.785   4.907   5.037 -0.2654 -0.0096  0.1165
 2648ntf    nn318648   3.815   5.048   5.099  0.2257 -0.3356  0.6261
 2648ntf    sn218649   3.710   5.163   5.116  0.0220 -0.4394  0.0918
 2648ntf    cn118650   3.655   5.121   5.284 -0.1529 -0.0657  0.1297
 2648ntf    fn418651   4.022   4.811   5.087 -0.2800 -0.0345  0.0695
 2648ntf    fn418652   3.890   4.817   5.256 -0.0207  0.3583  0.0359
 2648ntf    fn418653   3.873   4.668   5.096 -0.1848 -0.0300 -0.0122
 2648ntf    on518654   3.833   4.895   4.901  0.1600  0.5532  0.2138
 2648ntf    on518655   3.653   4.853   5.062 -0.0598 -0.2857  0.6105
 2648ntf    on518656   3.590   5.158   5.036  0.1038  0.3349 -0.0848
 2648ntf    on518657   3.771   5.293   5.130  0.2210 -0.4388 -0.7251
 2648ntf    fn418658   3.643   4.989   5.298 -0.5408 -0.0165  0.2850
 2648ntf    fn418659   3.732   5.159   5.384  0.1802  0.0769 -0.1792
 2648ntf    fn418660   3.532   5.168   5.299 -0.4021 -0.6991  0.1294
 2649ntf    cn118661   1.951   6.173   4.176 -0.3154  0.3261 -0.2336
 2649ntf    sn218662   1.961   6.121   4.002  0.0941 -0.3919  0.0004
 2649ntf    nn318663   1.839   6.023   4.002 -0.2233 -0.0174  1.3629
 2649ntf    sn218664   1.834   5.866   4.018  0.4750 -0.2248 -0.2052
 2649ntf    cn118665   1.794   5.822   3.847  0.2312  0.0347 -0.2156
 2649ntf    fn418666   1.834   6.232   4.194 -0.4036  0.0067  0.2681
 2649ntf    fn418667   1.959   6.070   4.258  0.3865  0.2624 -0.3772
 2649ntf    fn418668   2.038   6.265   4.210 -0.3963  0.1926  0.3409
 2649ntf    on518669   1.930   6.245   3.934  0.1406 -0.2056  0.3193
 2649ntf    on518670   2.096   6.072   3.985  0.2722  0.0534  0.1137
 2649ntf    on518671   1.719   5.833   4.099  0.6660 -0.1323  0.1063
 2649ntf    on518672   1.957   5.800   4.051  0.3277 -0.3867  0.0229
 2649ntf    fn418673   1.907   5.811   3.779  0.5477  0.3525  0.2586
 2649ntf    fn418674   1.737   5.703   3.837  0.5047 -0.0954 -0.2111
 2649ntf    fn418675   1.714   5.905   3.780 -0.0285 -0.3881 -0.4360
 2650ntf    cn118676   4.409   1.111   3.098  0.3189 -0.1731  0.1347
 2650ntf    sn218677   4.242   1.136   3.167  0.2782 -0.3436  0.0980
 2650ntf    nn318678   4.233   1.291   3.191 -0.5221 -0.3993  0.1695
 2650ntf    sn218679   4.145   1.395   3.113  0.0818  0.1277  0.1873
 2650ntf    cn118680   4.145   1.524   3.241 -0.1641 -0.0072  0.3250
 2650ntf    fn418681   4.423   1.201   3.002 -0.4761 -0.1649  0.0221
 2650ntf    fn418682   4.501   1.140   3.189  0.2568  0.2044  0.0793
 2650ntf    fn418683   4.432   0.989   3.054  0.0064 -0.1535 -0.0896
 2650ntf    on518684   4.153   1.091   3.063  0.3174  0.8852 -0.4830
 2650ntf    on518685   4.236   1.061   3.290  0.2523  0.0045  0.3091
 2650ntf    on518686   4.006   1.359   3.109  0.1260 -0.1048  0.6320
 2650ntf    on518687   4.205   1.455   2.997 -0.2772  0.2002  0.0377
 2650ntf    fn418688   4.270   1.534   3.284 -0.0763  0.2959  0.0108
 2650ntf    fn418689   4.107   1.643   3.195  0.3927  0.0133 -0.0942
 2650ntf    fn418690   4.067   1.499   3.344 -0.3069  0.0046  0.2204
 2651ntf    cn118691   2.964   0.368   1.025 -0.3193  0.2186 -0.0038
 2651ntf    sn218692   2.922   0.298   1.188 -0.2118 -0.2018 -0.1551
 2651ntf    nn318693   3.066   0.268   1.241 -0.4579  0.0043  0.6433
 2651ntf    sn218694   3.166   0.362   1.317  0.1898 -0.0018 -0.1842
 2651ntf    cn118695   3.092   0.358   1.483  0.0914  0.4806 -0.2157
 2651ntf    fn418696   2.860   0.412   0.957 -0.1009  0.7547  0.0077
 2651ntf    fn418697   3.045   0.471   1.040  0.1521 -0.1211 -0.1875
 2651ntf    fn418698   3.027   0.285   0.943 -0.4018  0.6020 -0.4572
 2651ntf    on518699   2.849   0.407   1.247  0.1079 -0.2163  0.2665
 2651ntf    on518700   2.847   0.179   1.158  0.0492 -0.3389 -0.2675
 2651ntf    on518701   3.167   0.500   1.274 -0.6471  0.1644  0.3066
 2651ntf    on518702   3.295   0.299   1.332  0.3379  0.3845  0.2016
 2651ntf    fn418703   2.960   0.365   1.484  0.0498 -0.1253 -0.7986
 2651ntf    fn418704   3.106   0.242   1.544  0.2467  0.3620 -0.4753
 2651ntf    fn418705   3.147   0.444   1.568 -0.1566  0.6054 -0.1801
 2652ntf    cn118706   4.316   5.956   1.000  0.1478 -0.2278  0.5606
 2652ntf    sn218707   4.404   6.099   0.928 -0.2102 -0.0721  0.4333
 2652ntf    nn318708   4.287   6.145   0.833  0.0958 -0.4761 -0.1404
 2652ntf    sn218709   4.289   6.210   0.690 -0.5604  0.1927  0.1512
 2652ntf    cn118710   4.245   6.380   0.736 -0.0500  0.2700  0.3597
 2652ntf    fn418711   4.210   5.986   1.073 -0.3053  0.0174 -0.1821
 2652ntf    fn418712   4.285   5.867   0.908  0.0757  0.2548  0.1107
 2652ntf    fn418713   4.396   5.890   1.082  0.6223 -0.0519  0.2469
 2652ntf    on518714   4.418   6.196   1.034 -0.2496  0.5890 -0.1572
 2652ntf    on518715   4.520   6.046   0.862  0.2754  0.1480  1.1030
 2652ntf    on518716   4.178   6.178   0.603 -0.0241 -0.1166 -0.4243
 2652ntf    on518717   4.422   6.221   0.635 -0.4381 -1.0799  0.1551
 2652ntf    fn418718   4.130   6.389   0.800 -0.2603  0.2218 -0.0097
 2652ntf    fn418719   4.335   6.425   0.822  0.6044  0.1329 -0.2523
 2652ntf    fn418720   4.250   6.471   0.640  0.1731  0.2044  0.3094
 2653ntf    cn118721   0.590   0.977   4.582  0.3346 -0.1131 -0.1245
 2653ntf    sn218722   0.725   0.856   4.571  0.4524  0.0143 -0.0848
 2653ntf    nn318723   0.663   0.728   4.638 -0.4699  0.7665  0.5140
 2653ntf    sn218724   0.543   0.638   4.591  0.0021  0.3129  0.1775
 2653ntf    cn118725   0.637   0.510   4.501 -0.4162  0.4357 -0.4382
 2653ntf    fn418726   0.638   1.099   4.565  0.2851  0.0100  0.5810
 2653ntf    fn418727   0.495   0.965   4.490  0.5939 -0.4623 -0.3507
 2653ntf    fn418728   0.529   0.975   4.699  0.2117  0.3119 -0.1778
 2653ntf    on518729   0.760   0.860   4.431  0.4497  0.0992 -0.0831
 2653ntf    on518730   0.828   0.905   4.659  0.1418 -0.4364  0.5366
 2653ntf    on518731   0.455   0.701   4.496  0.5857  0.4215 -0.2990
 2653ntf    on518732   0.493   0.560   4.701  0.4170 -0.5498 -0.2359
 2653ntf    fn418733   0.743   0.555   4.437 -0.1011 -0.1092 -0.2980
 2653ntf    fn418734   0.675   0.414   4.583 -0.3718  0.0289 -0.9345
 2653ntf    fn418735   0.564   0.445   4.412 -0.1133 -0.0675 -0.3184
 2654ntf    cn118736   5.313   4.326   5.333 -0.0936 -0.1039 -0.0795
 2654ntf    sn218737   5.489   4.291   5.305 -0.0373  0.1131 -0.0012
 2654ntf    nn318738   5.516   4.349   5.162 -0.0154  0.3201  0.0870
 2654ntf    sn218739   5.494   4.274   5.026 -0.2345 -0.0244  0.3129
 2654ntf    cn118740   5.650   4.183   5.003 -0.0272  0.4872 -0.3219
 2654ntf    fn418741   5.266   4.270   5.444 -0.0284  0.4545  0.2348
 2654ntf    fn418742   5.280   4.453   5.341  0.1894 -0.0275 -0.1272
 2654ntf    fn418743   5.236   4.269   5.242 -0.3070 -0.5833  0.3924
 2654ntf    on518744   5.565   4.367   5.401 -0.9138  0.4342  0.4471
 2654ntf    on518745   5.497   4.148   5.324  0.2895  0.1870  0.4285
 2654ntf    on518746   5.499   4.374   4.923 -0.0139 -0.0267  0.3218
 2654ntf    on518747   5.389   4.175   5.011  0.0560 -0.3108  0.1630
 2654ntf    fn418748   5.690   4.127   5.116 -0.4137 -0.0740 -0.4608
 2654ntf    fn418749   5.644   4.092   4.908 -0.1097 -0.0536  0.1943
 2654ntf    fn418750   5.742   4.273   4.972  0.1875  0.1452 -0.6815
 2655ntf    cn118751   2.129   4.899   1.619  0.2749  0.3415  0.3672
 2655ntf    sn218752   1.983   4.795   1.646  0.2500  0.3047  0.0986
 2655ntf    nn318753   2.020   4.716   1.776 -0.5552  0.1567  0.2425
 2655ntf    sn218754   2.106   4.585   1.786 -0.5459  0.1340 -0.1486
 2655ntf    cn118755   1.978   4.458   1.810 -0.1861 -0.2371 -0.1760
 2655ntf    fn418756   2.170   4.950   1.734  0.1041  0.1560  0.5095
 2655ntf    fn418757   2.229   4.831   1.564 -0.0296 -0.4174  0.7411
 2655ntf    fn418758   2.094   4.998   1.538 -0.0755 -0.1106 -0.0391
 2655ntf    on518759   1.879   4.892   1.672 -0.1796 -0.1428  0.0588
 2655ntf    on518760   1.965   4.723   1.522  0.3262  0.2529  0.1181
 2655ntf    on518761   2.183   4.584   1.907  0.1748 -0.6289 -0.6017
 2655ntf    on518762   2.179   4.537   1.671 -0.1565 -0.9133  0.5199
 2655ntf    fn418763   1.896   4.445   1.708 -0.0567  0.1504 -0.3311
 2655ntf    fn418764   2.029   4.338   1.828  0.1763 -0.0661 -0.0517
 2655ntf    fn418765   1.906   4.486   1.918 -0.0084  0.5960 -0.2639
 2656ntf    cn118766   2.448   5.533   6.321 -0.3436 -0.0062  0.4627
 2656ntf    sn218767   2.382   5.697   6.279  0.0046  0.0149 -0.0122
 2656ntf    nn318768   2.466   5.725   6.149  0.1619 -0.1949  0.0426
 2656ntf    sn218769   2.600   5.806   6.136  0.0642 -0.0051  0.1982
 2656ntf    cn118770   2.532   5.973   6.156  0.0558 -0.0109  0.2180
 2656ntf    fn418771   2.408   5.484   6.437 -0.8164 -0.5599  0.0729
 2656ntf    fn418772   2.420   5.448   6.224 -0.0739  0.5243 -0.0862
 2656ntf    fn418773   2.580   5.532   6.328 -0.3328  0.5126  0.3450
 2656ntf    on518774   2.249   5.672   6.230 -0.2796  0.3021  0.6012
 2656ntf    on518775   2.389   5.778   6.398 -0.4581  0.1159 -0.0507
 2656ntf    on518776   2.650   5.821   6.002 -0.6811  1.3030  0.0560
 2656ntf    on518777   2.695   5.785   6.242  0.3751  0.3061 -0.0168
 2656ntf    fn418778   2.613   6.060   6.097 -0.0456  0.1985  0.3864
 2656ntf    fn418779   2.417   5.985   6.091  0.0697 -0.3834  0.1206
 2656ntf    fn418780   2.508   6.006   6.282 -0.1557 -0.0683  0.1939
 2657ntf    cn118781   3.490   0.376   2.348 -0.4194  0.4605 -0.0186
 2657ntf    sn218782   3.370   0.352   2.213 -0.1913 -0.1613 -0.1141
 2657ntf    nn318783   3.307   0.495   2.214  0.3435  0.0754  0.2013
 2657ntf    sn218784   3.328   0.617   2.117  0.6277 -0.0292  0.1299
 2657ntf    cn118785   3.196   0.603   1.993  0.4168  0.3248  0.3125
 2657ntf    fn418786   3.563   0.484   2.328  0.4019  0.0491  0.7135
 2657ntf    fn418787   3.442   0.399   2.469 -0.0335  0.1792  0.1917
 2657ntf    fn418788   3.564   0.271   2.380 -0.3528  0.4085 -0.3362
 2657ntf    on518789   3.454   0.308   2.105 -0.2689  0.2202 -0.3280
 2657ntf    on518790   3.279   0.250   2.260 -0.6298  0.4714  0.4317
 2657ntf    on518791   3.447   0.607   2.036  0.5835 -0.3367  0.1036
 2657ntf    on518792   3.298   0.743   2.181  0.0833  0.1113 -0.3928
 2657ntf    fn418793   3.207   0.684   1.889 -0.2994  0.0419  0.0050
 2657ntf    fn418794   3.199   0.477   1.951 -0.5041  0.3052  0.2850
 2657ntf    fn418795   3.077   0.627   2.047  0.1490  0.5438 -0.3653
 2658ntf    cn118796   1.369   6.477   5.208 -0.3701 -0.3600  0.1473
 2658ntf    sn218797   1.192   6.437   5.215 -0.3843 -0.3899 -0.3133
 2658ntf    nn318798   1.152   6.541   5.105  0.1590 -0.1453 -0.2829
 2658ntf    sn218799   1.017   6.558   5.025  0.0280 -0.0213 -0.0375
 2658ntf    cn118800   0.973   6.730   5.063 -0.1825 -0.0345 -0.2250
 2658ntf    fn418801   1.446   6.412   5.294 -0.0719  0.6391  0.6534
 2658ntf    fn418802   1.412   6.453   5.085 -0.2954  0.0375  0.0940
 2658ntf    fn418803   1.391   6.606   5.229 -0.1852 -0.4214  0.3307
 2658ntf    on518804   1.194   6.296   5.184 -0.2993 -0.4496 -0.0470
 2658ntf    on518805   1.162   6.472   5.352  0.5800 -0.0840 -0.1717
 2658ntf    on518806   0.898   6.490   5.068 -0.0049  0.1308  0.1130
 2658ntf    on518807   1.035   6.566   4.882  0.3747 -0.2956 -0.0118
 2658ntf    fn418808   1.064   6.813   5.014  0.3872 -0.3402  0.3098
 2658ntf    fn418809   0.858   6.766   5.009  0.0416  0.0881 -0.6225
 2658ntf    fn418810   0.955   6.754   5.192  0.3276  0.1016 -0.1757
 2659ntf    cn118811   0.358   0.002   3.916 -0.1374  0.0240 -0.1794
 2659ntf    sn218812   0.453  -0.098   4.035 -0.1826  0.1777 -0.0131
 2659ntf    nn318813   0.601  -0.053   4.009  0.0132 -0.4572 -0.0138
 2659ntf    sn218814   0.700  -0.096   3.895  0.3898  0.0238  0.1294
 2659ntf    cn118815   0.808  -0.204   3.993  0.1550 -0.3154  0.0153
 2659ntf    fn418816   0.382   0.131   3.932  0.1317 -0.0788  0.2670
 2659ntf    fn418817   0.373  -0.022   3.787 -0.2101  0.3211 -0.2432
 2659ntf    fn418818   0.230  -0.014   3.947 -0.2930  0.8612 -0.3736
 2659ntf    on518819   0.405  -0.063   4.166  0.1794 -0.2607  0.2399
 2659ntf    on518820   0.430  -0.234   3.991 -0.2067  0.3260 -0.4724
 2659ntf    on518821   0.774   0.015   3.839  0.2295  0.3603  0.5852
 2659ntf    on518822   0.641  -0.183   3.796 -0.6569  0.4100  0.4045
 2659ntf    fn418823   0.897  -0.267   3.918  0.3399  0.1030 -0.1164
 2659ntf    fn418824   0.872  -0.143   4.092 -0.3108 -0.0330  0.1452
 2659ntf    fn418825   0.731  -0.297   4.049 -0.1716 -0.3337 -0.4569
 2660ntf    cn118826   1.965   3.909   2.433  0.3172 -0.1511 -0.2905
 2660ntf    sn218827   2.061   3.947   2.283  0.0638  0.1380 -0.3788
 2660ntf    nn318828   2.038   3.815   2.202 -0.4810  0.0242 -0.0498
 2660ntf    sn218829   2.136   3.731   2.112 -0.3375  0.2240 -0.0805
 2660ntf    cn118830   2.048   3.768   1.957 -0.2225  0.4100 -0.1007
 2660ntf    fn418831   2.019   3.807   2.499 -0.1149  0.2276  0.6743
 2660ntf    fn418832   1.969   4.005   2.524 -0.4136 -0.1822 -0.2224
 2660ntf    fn418833   1.839   3.881   2.407  0.2010 -0.0866  0.1896
 2660ntf    on518834   1.996   4.058   2.217  0.3141  0.0369 -0.7964
 2660ntf    on518835   2.192   3.967   2.339 -0.0691 -0.0057 -0.0056
 2660ntf    on518836   2.123   3.589   2.131 -0.6270  0.2129 -0.3487
 2660ntf    on518837   2.264   3.788   2.079 -0.1048 -0.4652 -0.3893
 2660ntf    fn418838   2.058   3.891   1.907  0.1298  0.2723 -0.3746
 2660ntf    fn418839   2.081   3.683   1.862 -0.1139  0.3145  0.0223
 2660ntf    fn418840   1.919   3.747   1.974 -0.1220 -0.5279 -0.4602
 2661ntf    cn118841   2.142   1.582   3.728 -0.2654  0.1879  0.3393
 2661ntf    sn218842   1.993   1.645   3.644 -0.1468  0.2020  0.1412
 2661ntf    nn318843   2.050   1.766   3.561  0.3767  0.0117  0.2203
 2661ntf    sn218844   2.013   1.918   3.556  0.3901  0.0013 -0.2115
 2661ntf    cn118845   2.143   1.992   3.660  0.2202  0.2961 -0.2064
 2661ntf    fn418846   2.182   1.651   3.834  0.4635  0.2866  0.0012
 2661ntf    fn418847   2.129   1.459   3.773  0.0483 -0.1088 -0.3692
 2661ntf    fn418848   2.248   1.581   3.650 -0.4473 -0.1209  0.0932
 2661ntf    on518849   1.950   1.540   3.556 -0.2354  0.4913 -0.1645
 2661ntf    on518850   1.910   1.676   3.757 -0.0918  0.5138  0.0977
 2661ntf    on518851   1.885   1.951   3.615  0.3757 -0.5304  0.0580
 2661ntf    on518852   2.048   1.976   3.429 -0.4238  0.3307 -0.2942
 2661ntf    fn418853   2.150   2.122   3.639  0.1256  0.3216 -0.0771
 2661ntf    fn418854   2.124   1.972   3.789 -0.2755 -0.1095 -0.3367
 2661ntf    fn418855   2.262   1.944   3.629  0.0034 -0.4875  0.1417
 2662ntf    cn118856   0.040   3.445   6.860  0.3933  0.0392  0.4349
 2662ntf    sn218857   0.042   3.274   6.923 -0.1857 -0.1077  0.0566
 2662ntf    nn318858  -0.107   3.229   6.905 -0.0562 -0.7058  0.4726
 2662ntf    sn218859  -0.229   3.212   7.002 -0.3126  0.1050  0.3010
 2662ntf    cn118860  -0.210   3.038   7.052  0.6926  0.1129 -0.0436
 2662ntf    fn418861  -0.056   3.515   6.918  0.3540  0.4177 -0.0812
 2662ntf    fn418862   0.155   3.510   6.873  0.6279 -0.4103  0.6406
 2662ntf    fn418863   0.015   3.450   6.730  0.1538 -0.1111  0.4742
 2662ntf    on518864   0.130   3.209   6.829  0.0449  0.4569 -0.1265
 2662ntf    on518865   0.094   3.288   7.056 -0.0543  0.1059 -0.0155
 2662ntf    on518866  -0.351   3.207   6.926  0.1117 -0.0732 -0.3688
 2662ntf    on518867  -0.237   3.292   7.122 -1.1230 -0.3149  0.5378
 2662ntf    fn418868  -0.119   3.036   7.149  0.2150  0.5245  0.4240
 2662ntf    fn418869  -0.322   2.988   7.100  0.5712  0.1217 -0.3228
 2662ntf    fn418870  -0.160   2.961   6.957  0.3080 -0.2839  0.0724
 2663ntf    cn118871   5.521   2.708   5.720  0.0467  0.0256 -0.2828
 2663ntf    sn218872   5.396   2.768   5.602 -0.1865 -0.1156 -0.1100
 2663ntf    nn318873   5.382   2.912   5.662  0.2674 -0.3158  0.4847
 2663ntf    sn218874   5.451   3.042   5.607  0.0766 -0.4220 -0.0074
 2663ntf    cn118875   5.465   3.147   5.755 -0.2387 -0.2080 -0.1280
 2663ntf    fn418876   5.566   2.585   5.699 -0.2917 -0.0383 -0.6481
 2663ntf    fn418877   5.627   2.787   5.724  0.6058 -0.7337  0.2270
 2663ntf    fn418878   5.473   2.718   5.843  0.7648 -0.2179  0.0237
 2663ntf    on518879   5.456   2.752   5.472 -0.4491 -0.1494 -0.2278
 2663ntf    on518880   5.277   2.691   5.627 -0.2288 -0.0274 -0.0372
 2663ntf    on518881   5.367   3.131   5.531  0.1052 -0.3917 -0.0045
 2663ntf    on518882   5.589   3.020   5.571  0.1339  0.6745 -0.5062
 2663ntf    fn418883   5.573   3.220   5.735 -0.2155 -0.1551  0.1833
 2663ntf    fn418884   5.364   3.229   5.779 -0.2192 -0.1191 -0.3512
 2663ntf    fn418885   5.488   3.084   5.870  0.4379  0.0558 -0.1129
 2664ntf    cn118886   2.985   2.551   2.180  0.0317  0.1773 -0.0975
 2664ntf    sn218887   3.074   2.678   2.275  0.1388 -0.0002  0.0418
 2664ntf    nn318888   3.199   2.592   2.311 -0.0050 -0.1887  0.0908
 2664ntf    sn218889   3.295   2.606   2.434  0.0937 -0.3513  0.0341
 2664ntf    cn118890   3.221   2.469   2.527 -0.0905 -0.0254  0.3724
 2664ntf    fn418891   3.046   2.526   2.065  0.4871  0.1941  0.1384
 2664ntf    fn418892   2.981   2.431   2.235  0.5326  0.2678  0.1425
 2664ntf    fn418893   2.859   2.581   2.151 -0.0326 -0.0007 -0.0055
 2664ntf    on518894   3.099   2.790   2.187 -0.2966 -0.0126 -0.1058
 2664ntf    on518895   2.984   2.705   2.384  0.1084  0.1878 -0.0277
 2664ntf    on518896   3.274   2.723   2.517 -0.2603 -0.6514  0.3739
 2664ntf    on518897   3.429   2.559   2.411  0.2549  0.1876 -0.1472
 2664ntf    fn418898   3.240   2.470   2.658 -0.2391  0.2698  0.3919
 2664ntf    fn418899   3.091   2.461   2.502 -0.1416 -0.1038  0.6520
 2664ntf    fn418900   3.273   2.352   2.494 -0.3681 -0.0387 -0.0255
 2665ntf    cn118901   4.459   2.939   6.209  0.1300 -0.0201 -0.1650
 2665ntf    sn218902   4.559   2.959   6.360 -0.1806  0.1102  0.0235
 2665ntf    nn318903   4.449   2.948   6.472 -0.5411 -0.2018 -0.3577
 2665ntf    sn218904   4.399   2.811   6.530 -0.2455 -0.2735 -0.2714
 2665ntf    cn118905   4.287   2.865   6.663  0.4839 -0.5009  0.4405
 2665ntf    fn418906   4.350   3.014   6.203 -0.1096 -0.3672 -0.1633
 2665ntf    fn418907   4.526   2.967   6.098 -0.2061  0.2549 -0.2982
 2665ntf    fn418908   4.420   2.814   6.192 -0.4653  0.0922  0.3441
 2665ntf    on518909   4.663   2.859   6.357  0.0416  0.3225  0.6294
 2665ntf    on518910   4.603   3.095   6.348  0.2193 -0.0676 -0.5448
 2665ntf    on518911   4.498   2.746   6.612 -0.3480 -0.0281  0.0470
 2665ntf    on518912   4.310   2.745   6.438 -0.7602 -0.4316  0.3301
 2665ntf    fn418913   4.204   2.953   6.609  0.3074 -0.4362  0.8160
 2665ntf    fn418914   4.210   2.768   6.710 -0.5037  0.0035 -0.1059
 2665ntf    fn418915   4.340   2.928   6.767 -0.2635  0.1070  0.4596
 2666ntf    cn118916   5.385   1.844   4.384 -0.1279  0.0630  0.1267
 2666ntf    sn218917   5.206   1.842   4.353 -0.0932 -0.2625 -0.0540
 2666ntf    nn318918   5.203   1.796   4.203 -0.1484 -0.1348 -0.0922
 2666ntf    sn218919   5.211   1.883   4.072  0.1663  0.0242  0.0306
 2666ntf    cn118920   5.034   1.916   4.050  0.1398 -0.0741  0.0913
 2666ntf    fn418921   5.431   1.721   4.396 -0.1415  0.0809  0.3809
 2666ntf    fn418922   5.453   1.899   4.284 -0.2680 -0.2317 -0.1307
 2666ntf    fn418923   5.413   1.908   4.497 -0.2166 -0.0143  0.1928
 2666ntf    on518924   5.148   1.738   4.436 -0.2435 -0.2987 -0.2053
 2666ntf    on518925   5.159   1.976   4.375  0.6892 -0.0097  0.1294
 2666ntf    on518926   5.255   1.810   3.955  0.3333  0.3101 -0.0864
 2666ntf    on518927   5.263   2.015   4.095 -0.2850  0.1500  0.3346
 2666ntf    fn418928   5.001   1.946   3.925 -0.0778  0.4424  0.2696
 2666ntf    fn418929   4.962   1.810   4.082 -0.1585 -0.3203 -1.2897
 2666ntf    fn418930   4.989   2.024   4.112  0.3198  0.1391 -0.1475
 2667ntf    cn118931   2.322   4.012   1.687  0.3683  0.3107  0.0993
 2667ntf    sn218932   2.347   3.908   1.540 -0.4719  0.5367 -0.2124
 2667ntf    nn318933   2.485   3.962   1.486 -0.3007  0.2123 -0.1041
 2667ntf    sn218934   2.518   4.100   1.420  0.0651  0.2755  0.2071
 2667ntf    cn118935   2.515   4.049   1.245  0.0163  0.3699  0.1802
 2667ntf    fn418936   2.224   3.965   1.762 -0.0579  0.2527 -0.4856
 2667ntf    fn418937   2.425   4.019   1.769  0.2656  0.0962  0.2484
 2667ntf    fn418938   2.288   4.135   1.651 -0.0501  0.2302  0.2178
 2667ntf    on518939   2.352   3.776   1.597  0.0008  0.7150  0.1646
 2667ntf    on518940   2.230   3.929   1.459 -0.3877 -0.0621 -0.4997
 2667ntf    on518941   2.657   4.131   1.442 -0.0117  0.6430  0.1806
 2667ntf    on518942   2.418   4.204   1.420 -0.2563 -0.0295  0.1788
 2667ntf    fn418943   2.629   3.997   1.203 -0.6091 -0.6735 -0.2837
 2667ntf    fn418944   2.430   3.951   1.218  0.0985  0.4137 -0.2418
 2667ntf    fn418945   2.484   4.145   1.159 -0.4560 -0.0939 -0.1733
 2668ntf    cn118946   1.962   3.230   3.503 -0.4132 -0.0828 -0.1148
 2668ntf    sn218947   1.973   3.107   3.370 -0.3675 -0.0658 -0.1268
 2668ntf    nn318948   1.911   2.991   3.456 -0.2151  0.2036  0.3505
 2668ntf    sn218949   1.987   2.897   3.556  0.0245  0.2455  0.2094
 2668ntf    cn118950   2.014   2.752   3.449 -0.0983  0.0130  0.4890
 2668ntf    fn418951   2.054   3.211   3.596 -0.1120 -0.3687 -0.4712
 2668ntf    fn418952   1.975   3.356   3.464 -0.0498 -0.1205 -0.1247
 2668ntf    fn418953   1.840   3.235   3.554 -0.5401  0.1019 -0.4312
 2668ntf    on518954   1.881   3.161   3.273 -0.1613  0.2551 -0.1409
 2668ntf    on518955   2.112   3.093   3.335 -0.5221 -0.4213 -0.6112
 2668ntf    on518956   1.894   2.860   3.661 -0.0900  0.0772  0.0495
 2668ntf    on518957   2.121   2.926   3.598  0.4439 -0.0342 -0.9072
 2668ntf    fn418958   2.042   2.638   3.509 -0.1772 -0.0785  0.3506
 2668ntf    fn418959   1.907   2.735   3.375  0.0541 -0.1930  0.3160
 2668ntf    fn418960   2.115   2.777   3.367 -0.2089  0.5842  0.5232
 2669ntf    cn118961   5.108   1.194   6.005  0.2203  0.1218  0.2698
 2669ntf    sn218962   5.142   1.075   6.138 -0.0522 -0.2261  0.0293
 2669ntf    nn318963   5.225   1.154   6.245  0.2199 -0.9642  0.3677
 2669ntf    sn218964   5.379   1.159   6.274  0.2015 -0.1218  0.3301
 2669ntf    cn118965   5.453   1.269   6.149  0.0579 -0.3512  0.0428
 2669ntf    fn418966   5.210   1.250   5.942 -0.0575  0.2654 -0.0544
 2669ntf    fn418967   5.038   1.137   5.908  0.2981  0.5973 -0.0718
 2669ntf    fn418968   5.036   1.297   6.046  0.5284  0.2347  0.5310
 2669ntf    on518969   5.006   1.046   6.176 -0.0001  0.0062  0.3880
 2669ntf    on518970   5.216   0.977   6.062  0.1140  0.2279 -0.3986
 2669ntf    on518971   5.445   1.032   6.261 -0.4878 -0.4328 -0.1772
 2669ntf    on518972   5.411   1.231   6.395 -0.0375 -0.5034  0.6216
 2669ntf    fn418973   5.398   1.389   6.155  0.0336 -0.3677  0.1616
 2669ntf    fn418974   5.580   1.292   6.178 -0.0102 -0.3683  0.3593
 2669ntf    fn418975   5.442   1.221   6.027 -0.0299 -0.0037 -0.0863
 2670ntf    cn118976   6.158   6.631   1.622  0.0764 -0.2006 -0.0861
 2670ntf    sn218977   6.093   6.669   1.788 -0.3269 -0.1381 -0.2577
 2670ntf    nn318978   6.213   6.755   1.840 -0.3567 -0.3452  0.1575
 2670ntf    sn218979   6.348   6.709   1.906 -0.0316  0.0792 -0.2069
 2670ntf    cn118980   6.339   6.807   2.059  0.1621 -0.1563 -0.0441
 2670ntf    fn418981   6.078   6.549   1.556 -0.3157 -0.1346  0.3033
 2670ntf    fn418982   6.180   6.733   1.540 -0.1707 -0.3485 -0.3400
 2670ntf    fn418983   6.278   6.578   1.634  0.0130 -0.3109  0.0622
 2670ntf    on518984   5.973   6.748   1.775 -0.1130  0.3237  0.5238
 2670ntf    on518985   6.080   6.535   1.840 -0.8367 -0.0471 -0.1400
 2670ntf    on518986   6.469   6.760   1.845  0.1456 -0.0458  0.0403
 2670ntf    on518987   6.361   6.573   1.951  0.5842  0.0676 -0.4035
 2670ntf    fn418988   6.344   6.935   2.028  0.3840 -0.1506  0.0112
 2670ntf    fn418989   6.232   6.789   2.134  0.1579 -0.1160 -0.0406
 2670ntf    fn418990   6.441   6.779   2.139 -0.0119 -0.3864  0.0969
 2671ntf    cn118991   1.253   4.889   5.007 -0.4112 -0.0472 -0.3883
 2671ntf    sn218992   1.336   4.733   5.047  0.0599  0.4358  0.5388
 2671ntf    nn318993   1.286   4.717   5.195  0.1179 -0.4513  0.4658
 2671ntf    sn218994   1.359   4.658   5.321  0.2628 -0.5812  0.3209
 2671ntf    cn118995   1.224   4.548   5.372 -0.1122 -0.1217  0.3246
 2671ntf    fn418996   1.270   4.991   5.089  0.2810 -0.4678 -0.0091
 2671ntf    fn418997   1.282   4.937   4.887 -0.4386  0.1221 -0.3284
 2671ntf    fn418998   1.123   4.866   5.020 -0.4120  0.1637 -0.0283
 2671ntf    on518999   1.276   4.637   4.958  0.4072  0.9905 -0.3083
 2671ntf    on519000   1.478   4.759   5.041  0.0893  0.1207 -0.3325
 2671ntf    on519001   1.369   4.738   5.440  0.2453  0.0364 -0.0923
 2671ntf    on519002   1.464   4.562   5.296  0.1467 -0.6582  0.1213
 2671ntf    fn419003   1.254   4.477   5.480 -0.0139  0.2189  0.5188
 2671ntf    fn419004   1.109   4.607   5.398 -0.2103 -0.0647 -0.2201
 2671ntf    fn419005   1.200   4.465   5.271 -0.3287  0.4428 -0.0901
 2672ntf    cn119006   4.279   5.133   5.669  0.0955  0.0532 -0.1666
 2672ntf    sn219007   4.330   5.062   5.828 -0.1954  0.0402 -0.0775
 2672ntf    nn319008   4.416   5.181   5.882 -0.0482  0.0233 -0.2757
 2672ntf    sn219009   4.363   5.290   5.982 -0.2131 -0.0287 -0.3061
 2672ntf    cn119010   4.383   5.436   5.877  0.5129  0.1433  0.0641
 2672ntf    fn419011   4.216   5.042   5.596  0.3011 -0.3121  0.1126
 2672ntf    fn419012   4.205   5.243   5.672  0.0568  0.0236 -0.0520
 2672ntf    fn419013   4.389   5.172   5.607  0.0498 -0.1403 -0.3735
 2672ntf    on519014   4.210   5.033   5.902 -0.4109  0.2646 -0.3377
 2672ntf    on519015   4.417   4.954   5.789 -0.1238 -0.2282  0.8053
 2672ntf    on519016   4.453   5.318   6.092 -0.6525 -0.4623  0.1703
 2672ntf    on519017   4.221   5.291   6.004 -0.1975  0.0055 -0.2030
 2672ntf    fn419018   4.347   5.415   5.752 -0.1253  0.1923  0.2382
 2672ntf    fn419019   4.315   5.538   5.927  0.6228 -0.1079  0.7388
 2672ntf    fn419020   4.513   5.463   5.877  0.5676 -0.1117 -0.2635
 2673ntf    cn119021   2.014   6.566   5.931 -0.0464 -0.1834  0.0852
 2673ntf    sn219022   2.096   6.558   5.769 -0.2880 -0.0689 -0.0445
 2673ntf    nn319023   2.140   6.407   5.773 -0.1385 -0.0315 -0.2611
 2673ntf    sn219024   2.277   6.341   5.735  0.0512  0.0682  0.2286
 2673ntf    cn119025   2.357   6.330   5.898  0.1553 -0.2931  0.1529
 2673ntf    fn419026   1.990   6.690   5.971 -0.2679 -0.2464  0.1510
 2673ntf    fn419027   1.901   6.498   5.928 -0.0637 -0.1298 -0.7937
 2673ntf    fn419028   2.088   6.521   6.031  0.0800 -0.4071 -0.1109
 2673ntf    on519029   1.988   6.581   5.677 -0.1211 -0.6035 -0.3771
 2673ntf    on519030   2.196   6.662   5.778 -0.2260 -0.2019  0.8972
 2673ntf    on519031   2.357   6.429   5.653 -0.1726  0.1228  0.0672
 2673ntf    on519032   2.263   6.202   5.699 -0.8460  0.1032  0.4234
 2673ntf    fn419033   2.486   6.300   5.893  0.2434  0.1633 -0.3983
 2673ntf    fn419034   2.340   6.438   5.972  0.4506 -0.1759  0.0511
 2673ntf    fn419035   2.290   6.238   5.966  0.3240 -0.2744  0.3436
 2674ntf    cn119036   3.824   5.744   0.828  0.3146 -0.1219  0.1093
 2674ntf    sn219037   3.788   5.880   0.713  0.1301 -0.0964  0.1977
 2674ntf    nn319038   3.666   5.954   0.779 -0.2078 -0.3446 -0.1457
 2674ntf    sn219039   3.606   6.098   0.766  0.1744 -0.1606  0.0879
 2674ntf    cn119040   3.604   6.153   0.939 -0.2987  0.0525  0.0191
 2674ntf    fn419041   3.936   5.681   0.795  0.2346 -0.1609 -0.0920
 2674ntf    fn419042   3.832   5.791   0.951 -1.0477  0.2144  0.0862
 2674ntf    fn419043   3.726   5.655   0.832  0.4372 -0.2732 -0.2111
 2674ntf    on519044   3.911   5.957   0.715  0.0000  0.1294 -0.4098
 2674ntf    on519045   3.748   5.823   0.587 -0.1751  0.0272  0.2393
 2674ntf    on519046   3.469   6.096   0.720  0.2173 -0.0083 -0.0482
 2674ntf    on519047   3.691   6.200   0.708 -0.1645 -0.1268 -0.3562
 2674ntf    fn419048   3.715   6.220   0.966  0.0160 -0.2500 -0.4969
 2674ntf    fn419049   3.504   6.233   0.969 -0.2867  0.0292  0.1240
 2674ntf    fn419050   3.601   6.049   1.021  0.2478 -0.3927 -0.5155
 2675ntf    cn119051   5.310   5.698   3.390  0.0414  0.2007  0.4161
 2675ntf    sn219052   5.187   5.679   3.257  0.4020 -0.1469  0.1293
 2675ntf    nn319053   5.165   5.523   3.263 -0.1070 -0.0851 -0.0297
 2675ntf    sn219054   5.231   5.405   3.184  0.1407 -0.1082  0.2109
 2675ntf    cn119055   5.116   5.400   3.043  0.2718 -0.4225  0.1132
 2675ntf    fn419056   5.422   5.635   3.357 -0.1511  0.1664 -0.1950
 2675ntf    fn419057   5.342   5.821   3.425  0.4133  0.1692  0.1953
 2675ntf    fn419058   5.272   5.645   3.505 -0.1148 -0.2240  0.1738
 2675ntf    on519059   5.071   5.757   3.294  0.0497 -0.5240 -0.1629
 2675ntf    on519060   5.253   5.715   3.134 -0.0596 -0.4012 -0.1953
 2675ntf    on519061   5.218   5.276   3.249  0.2599 -0.0795  0.2914
 2675ntf    on519062   5.363   5.427   3.131 -0.0454  0.1271 -0.1569
 2675ntf    fn419063   5.150   5.487   2.949 -0.3036 -0.1337  0.1694
 2675ntf    fn419064   5.123   5.282   2.984 -0.0831 -0.0867 -0.6120
 2675ntf    fn419065   4.990   5.428   3.070  0.2700  0.1746 -0.4963
 2676ntf    cn119066   2.706   3.838   6.173 -0.0399  0.1124 -0.1028
 2676ntf    sn219067   2.676   3.847   5.994 -0.1354 -0.1321 -0.0983
 2676ntf    nn319068   2.801   3.770   5.939 -0.0012  0.1752 -0.2203
 2676ntf    sn219069   2.944   3.823   5.900  0.1288 -0.0080  0.0092
 2676ntf    cn119070   3.044   3.785   6.048  0.0060 -0.0228  0.0879
 2676ntf    fn419071   2.819   3.897   6.210  0.1774 -0.2696 -0.1513
 2676ntf    fn419072   2.614   3.898   6.246 -0.5164  0.1939 -0.7598
 2676ntf    fn419073   2.711   3.714   6.217 -0.2545  0.2551  0.3264
 2676ntf    on519074   2.558   3.766   5.973 -0.2408  0.1418 -0.5847
 2676ntf    on519075   2.659   3.987   5.966 -0.2374 -0.1363 -0.0590
 2676ntf    on519076   2.964   3.965   5.888  0.1672 -0.0284 -0.1728
 2676ntf    on519077   3.004   3.743   5.796 -0.3338 -1.0860  0.5491
 2676ntf    fn419078   3.044   3.659   6.085 -0.1355 -0.2319 -0.6010
 2676ntf    fn419079   3.171   3.817   6.032 -0.1481  0.3949 -0.3651
 2676ntf    fn419080   3.008   3.860   6.151 -0.1474  0.3392 -0.2230
 2677ntf    cn119081   4.691   1.482   5.606  0.1984  0.1932  0.1388
 2677ntf    sn219082   4.541   1.433   5.696  0.4084 -0.5242  0.1051
 2677ntf    nn319083   4.511   1.294   5.630 -0.3504 -0.2291 -0.1880
 2677ntf    sn219084   4.438   1.167   5.686 -0.2212 -0.2076  0.0292
 2677ntf    cn119085   4.305   1.161   5.561 -0.0893  0.4170 -0.1440
 2677ntf    fn419086   4.750   1.588   5.658  0.2655  0.3055 -0.1661
 2677ntf    fn419087   4.780   1.385   5.617  0.1553  0.1008 -0.3197
 2677ntf    fn419088   4.666   1.497   5.477 -0.2901 -0.2007  0.1844
 2677ntf    on519089   4.583   1.426   5.833  0.4546 -0.2328  0.1055
 2677ntf    on519090   4.437   1.528   5.666  0.5652 -0.3795  0.0173
 2677ntf    on519091   4.366   1.197   5.808  0.1411  0.1057  0.1667
 2677ntf    on519092   4.516   1.047   5.666 -0.2294 -0.2284  0.1226
 2677ntf    fn419093   4.233   1.272   5.554 -0.0793  0.4726  0.5133
 2677ntf    fn419094   4.352   1.132   5.441  0.4868  0.6986  0.0052
 2677ntf    fn419095   4.217   1.068   5.595  0.3022  0.0511 -0.1216
 2678ntf    cn119096   0.615   1.959   3.868  0.0659 -0.3542 -0.3397
 2678ntf    sn219097   0.468   1.862   3.822 -0.3233  0.0972 -0.0625
 2678ntf    nn319098   0.401   1.868   3.964 -0.3134 -0.0678 -0.0503
 2678ntf    sn219099   0.303   1.975   4.024 -0.0431  0.1587 -0.0062
 2678ntf    cn119100   0.373   1.969   4.191  0.2429  0.5330 -0.1136
 2678ntf    fn419101   0.597   2.090   3.868  0.1392 -0.3417  0.1700
 2678ntf    fn419102   0.660   1.933   3.989  0.4482 -0.0788 -0.4220
 2678ntf    fn419103   0.709   1.937   3.778 -0.2284 -0.3574 -0.6499
 2678ntf    on519104   0.404   1.936   3.715  0.0225 -0.1367 -0.4335
 2678ntf    on519105   0.513   1.729   3.787 -0.8634 -0.1196  0.0620
 2678ntf    on519106   0.170   1.923   4.048  0.2850 -0.4331  0.5225
 2678ntf    on519107   0.322   2.111   3.979  0.2171 -0.0062 -0.3985
 2678ntf    fn419108   0.494   2.024   4.192  0.2217  0.5741  0.6292
 2678ntf    fn419109   0.306   2.051   4.270 -0.3937 -0.1765  0.0927
 2678ntf    fn419110   0.384   1.852   4.251 -0.6516  0.3903 -0.2238
 2679ntf    cn119111   2.043   2.615   6.464 -0.1645  0.2511 -0.1812
 2679ntf    sn219112   2.207   2.655   6.529 -0.0695 -0.1841 -0.1475
 2679ntf    nn319113   2.272   2.729   6.407 -0.3247  0.0708 -0.1306
 2679ntf    sn219114   2.423   2.773   6.397 -0.1895 -0.4337 -0.3568
 2679ntf    cn119115   2.506   2.645   6.299  0.3691 -0.2937 -0.0713
 2679ntf    fn419116   2.062   2.596   6.335  0.2567 -0.2022 -0.0561
 2679ntf    fn419117   1.993   2.499   6.505 -0.0998 -0.0157 -0.8436
 2679ntf    fn419118   1.949   2.706   6.486 -0.1308  0.2069  0.1598
 2679ntf    on519119   2.182   2.745   6.640 -0.0013 -0.4583  0.0906
 2679ntf    on519120   2.276   2.534   6.567  0.2998  0.1940  0.4106
 2679ntf    on519121   2.494   2.786   6.521 -0.6208 -0.3748 -0.1117
 2679ntf    on519122   2.423   2.894   6.318 -0.2475 -0.2401 -0.0621
 2679ntf    fn419123   2.455   2.639   6.177  0.0970  0.0672  0.0228
 2679ntf    fn419124   2.636   2.653   6.278  0.3351  0.0699 -0.1574
 2679ntf    fn419125   2.488   2.522   6.342  0.2527 -0.3366 -0.2378
 2680ntf    cn119126   0.311   3.859   6.923  0.3741  0.0696  0.2502
 2680ntf    sn219127   0.436   3.763   6.832  0.0774  0.0311 -0.1212
 2680ntf    nn319128   0.515   3.863   6.742  0.0004  0.0157 -0.2059
 2680ntf    sn219129   0.665   3.845   6.696  0.0609  0.0389 -0.0173
 2680ntf    cn119130   0.640   3.765   6.534  0.0355 -0.1123  0.0602
 2680ntf    fn419131   0.358   3.941   7.016  0.3644  0.6770 -0.2662
 2680ntf    fn419132   0.236   3.945   6.856 -0.0181 -0.0056  0.5926
 2680ntf    fn419133   0.222   3.785   6.987  0.3329  0.0591  0.1807
 2680ntf    on519134   0.509   3.710   6.945  0.4747  0.2843 -0.2574
 2680ntf    on519135   0.359   3.666   6.759 -0.4550  0.0124  0.4598
 2680ntf    on519136   0.744   3.755   6.777 -0.1594  0.0318  0.1904
 2680ntf    on519137   0.730   3.966   6.653  0.6663 -0.1175  0.4502
 2680ntf    fn419138   0.554   3.665   6.533  0.2746 -0.3158 -0.0819
 2680ntf    fn419139   0.598   3.855   6.447  0.6310 -0.0967 -0.2136
 2680ntf    fn419140   0.751   3.717   6.481  0.4100  0.2781  0.4776
 2681ntf    cn119141   6.312   2.798   6.468 -0.5984 -0.1027  0.0657
 2681ntf    sn219142   6.295   2.784   6.288 -0.1940  0.0462  0.0141
 2681ntf    nn319143   6.138   2.794   6.282 -0.2115 -0.2141  0.0246
 2681ntf    sn219144   6.036   2.676   6.300 -0.4110 -0.0377  0.0558
 2681ntf    cn119145   5.913   2.741   6.417 -0.4594 -0.0098 -0.0122
 2681ntf    fn419146   6.262   2.913   6.509  0.3549  0.2894  0.1543
 2681ntf    fn419147   6.253   2.701   6.535 -0.3756 -0.3444 -0.0859
 2681ntf    fn419148   6.441   2.796   6.498 -0.4654 -0.3978 -0.5133
 2681ntf    on519149   6.346   2.908   6.235 -0.1868  0.1179  0.1871
 2681ntf    on519150   6.354   2.657   6.254 -0.1875  0.0726 -0.0752
 2681ntf    on519151   6.093   2.565   6.373 -0.1168 -0.0184 -0.1413
 2681ntf    on519152   5.955   2.638   6.187 -0.0411 -0.0097 -0.2209
 2681ntf    fn419153   5.816   2.654   6.439 -0.3831 -0.2552 -0.6224
 2681ntf    fn419154   5.963   2.771   6.536  0.3363 -0.0360 -0.3360
 2681ntf    fn419155   5.851   2.847   6.369  0.2794  0.5929  0.3459
 2682ntf    cn119156   4.881   6.470   4.983 -0.4171  0.0596 -0.0535
 2682ntf    sn219157   4.829   6.392   5.139  0.0025  0.0261  0.0706
 2682ntf    nn319158   4.679   6.357   5.109 -0.1608  0.5318  0.3012
 2682ntf    sn219159   4.581   6.274   5.200 -0.2393  0.1859 -0.0957
 2682ntf    cn119160   4.624   6.108   5.140 -0.3648  0.2636 -0.4029
 2682ntf    fn419161   4.857   6.395   4.876 -0.3097 -0.4804  0.2951
 2682ntf    fn419162   4.821   6.587   4.970 -0.4133  0.0491 -0.1673
 2682ntf    fn419163   5.011   6.493   4.989 -0.4598  0.2192  0.2569
 2682ntf    on519164   4.911   6.273   5.138 -0.6140 -0.4065  0.1670
 2682ntf    on519165   4.862   6.484   5.245  0.0971  0.4903 -0.3599
 2682ntf    on519166   4.444   6.291   5.160 -0.1945  0.0216 -0.3198
 2682ntf    on519167   4.614   6.277   5.341 -0.2558 -0.6399 -0.0679
 2682ntf    fn419168   4.749   6.076   5.167 -0.5095 -0.0702 -0.1151
 2682ntf    fn419169   4.544   6.011   5.182  0.1150 -0.1309 -0.3847
 2682ntf    fn419170   4.618   6.107   5.008 -0.0687 -0.5463 -0.4179
 2683ntf    cn119171   2.156   1.243   0.879  0.3870  0.0339 -0.6678
 2683ntf    sn219172   2.007   1.247   0.984  0.5306 -0.0629 -0.4602
 2683ntf    nn319173   1.969   1.399   0.977 -0.0428 -0.1960 -0.2811
 2683ntf    sn219174   1.866   1.468   0.881 -0.4254 -0.0305  0.2420
 2683ntf    cn119175   1.718   1.456   0.985 -0.1387  0.1431  0.6740
 2683ntf    fn419176   2.143   1.330   0.780  0.2473 -0.1844 -0.8427
 2683ntf    fn419177   2.264   1.278   0.946 -0.1767  0.3492  0.0943
 2683ntf    fn419178   2.189   1.124   0.831  0.1217 -0.1328 -0.4393
 2683ntf    on519179   1.917   1.154   0.921  0.0280  0.1714 -0.0954
 2683ntf    on519180   2.044   1.209   1.118 -0.0312 -0.1572 -0.3297
 2683ntf    on519181   1.842   1.399   0.757  0.2977  0.3990 -0.1496
 2683ntf    on519182   1.893   1.609   0.869  0.2830 -0.1497  0.3646
 2683ntf    fn419183   1.745   1.493   1.109 -0.3852 -0.2168  0.8350
 2683ntf    fn419184   1.620   1.531   0.936 -0.0696 -0.4221 -0.3452
 2683ntf    fn419185   1.681   1.329   0.990 -0.1220  0.1085 -0.0449
 2684ntf    cn119186   2.278   1.435   6.211  0.4023  0.0887  0.2767
 2684ntf    sn219187   2.420   1.540   6.255  0.2046  0.3839  0.2191
 2684ntf    nn319188   2.501   1.438   6.342 -0.0603  0.1825  0.2301
 2684ntf    sn219189   2.631   1.355   6.310 -0.2053 -0.0561  0.2573
 2684ntf    cn119190   2.593   1.221   6.427  0.0462  0.1916  0.6234
 2684ntf    fn419191   2.202   1.409   6.316 -0.3146  0.2000 -0.2039
 2684ntf    fn419192   2.197   1.486   6.119 -0.0949 -0.4436  0.4125
 2684ntf    fn419193   2.313   1.317   6.163 -0.4575  0.1602 -0.5533
 2684ntf    on519194   2.485   1.569   6.129  0.5157 -0.1672  0.2457
 2684ntf    on519195   2.362   1.651   6.325 -0.1614  0.1060  0.3580
 2684ntf    on519196   2.749   1.407   6.373  0.1134 -0.3512 -0.0892
 2684ntf    on519197   2.640   1.290   6.181 -0.1802  0.5737 -0.0610
 2684ntf    fn419198   2.492   1.145   6.387  0.4822  0.0416 -0.2096
 2684ntf    fn419199   2.692   1.133   6.426 -0.0092  0.1295 -0.3332
 2684ntf    fn419200   2.579   1.260   6.552 -0.4539  0.9880  0.3315
 2685ntf    cn119201   4.437   4.722   5.368  0.2616 -0.1879 -0.0049
 2685ntf    sn219202   4.572   4.830   5.312 -0.1459  0.1711 -0.3049
 2685ntf    nn319203   4.675   4.725   5.256 -0.1402  0.0521 -0.0729
 2685ntf    sn219204   4.682   4.649   5.118 -0.2019  0.1030 -0.1043
 2685ntf    cn119205   4.859   4.613   5.099 -0.1893 -0.0946  0.3766
 2685ntf    fn419206   4.324   4.789   5.387  0.2169 -0.3337  0.2531
 2685ntf    fn419207   4.404   4.623   5.287 -0.0883 -0.1325  0.0656
 2685ntf    fn419208   4.465   4.666   5.485  0.2276  0.1275  0.1562
 2685ntf    on519209   4.513   4.916   5.213  0.1065  0.8454  0.1282
 2685ntf    on519210   4.613   4.897   5.432  0.1199  0.3147 -0.4746
 2685ntf    on519211   4.662   4.737   5.006 -0.8013 -0.4915 -0.4743
 2685ntf    on519212   4.609   4.525   5.123 -0.3734  0.2175  0.3085
 2685ntf    fn419213   4.933   4.720   5.076 -0.4777 -0.0630 -0.4316
 2685ntf    fn419214   4.911   4.547   5.202  0.2767 -0.5095 -0.1225
 2685ntf    fn419215   4.873   4.546   4.986  0.3141 -0.3349  0.5781
 2686ntf    cn119216   6.300   0.713   2.689  0.3304  0.0827  0.4943
 2686ntf    sn219217   6.408   0.825   2.597 -0.1320  0.2691  0.1756
 2686ntf    nn319218   6.549   0.757   2.609 -0.1867  0.1600  0.2025
 2686ntf    sn219219   6.657   0.720   2.501 -0.0503  0.1947  0.3275
 2686ntf    cn119220   6.794   0.819   2.569  0.3079 -0.0069 -0.0945
 2686ntf    fn419221   6.180   0.767   2.702  0.5320  0.6604  0.0179
 2686ntf    fn419222   6.276   0.596   2.632  0.6430  0.1969  0.1249
 2686ntf    fn419223   6.351   0.677   2.806  0.9012  0.4642  0.3611
 2686ntf    on519224   6.349   0.818   2.465  0.1297  0.1885  0.0608
 2686ntf    on519225   6.402   0.951   2.667 -0.2437  0.1898  0.3081
 2686ntf    on519226   6.637   0.776   2.370  0.4409 -0.2765  0.0461
 2686ntf    on519227   6.705   0.584   2.504  0.2686  0.2977 -0.1387
 2686ntf    fn419228   6.910   0.794   2.510  0.2388  0.3135 -0.3715
 2686ntf    fn419229   6.782   0.950   2.558  0.0189 -0.0273 -0.0351
 2686ntf    fn419230   6.817   0.800   2.698 -0.2028 -0.4179 -0.0596
 2687ntf    cn119231   5.278   1.954   6.032 -0.1581  0.5012 -0.3394
 2687ntf    sn219232   5.429   2.053   6.013  0.2357 -0.0045  0.1207
 2687ntf    nn319233   5.382   2.199   6.045  0.3032 -0.1061  0.6966
 2687ntf    sn219234   5.389   2.287   6.175  0.1564  0.0730  0.5842
 2687ntf    cn119235   5.512   2.406   6.114 -0.3256  0.1609 -0.2363
 2687ntf    fn419236   5.275   1.842   5.960  0.1936  0.1955  0.1195
 2687ntf    fn419237   5.247   1.918   6.155  0.4457 -0.2770 -0.4080
 2687ntf    fn419238   5.172   2.020   5.989 -0.4909 -0.0367 -0.3592
 2687ntf    on519239   5.527   2.000   6.105  0.3519 -0.2064 -0.1179
 2687ntf    on519240   5.455   2.042   5.872 -0.7003 -0.4950 -0.0181
 2687ntf    on519241   5.450   2.219   6.286  0.0399 -0.1617  0.5039
 2687ntf    on519242   5.271   2.365   6.204 -0.1069 -0.2500  0.3787
 2687ntf    fn419243   5.554   2.493   6.205  0.3633 -0.3078 -0.1014
 2687ntf    fn419244   5.623   2.353   6.066 -0.3729  0.0920 -0.2680
 2687ntf    fn419245   5.457   2.476   6.016 -0.4949  0.2901 -0.0507
 2688ntf    cn119246   4.275   4.141   2.061 -0.1681 -0.1538 -0.1466
 2688ntf    sn219247   4.372   3.989   2.081 -0.3436 -0.2347  0.1004
 2688ntf    nn319248   4.266   3.910   2.165 -0.8309  0.4927  0.1753
 2688ntf    sn219249   4.171   3.794   2.118  0.0193 -0.1313 -0.0264
 2688ntf    cn119250   4.273   3.654   2.172 -0.0451 -0.2725 -0.2717
 2688ntf    fn419251   4.338   4.224   1.979 -0.3437  0.0682 -0.0561
 2688ntf    fn419252   4.155   4.125   2.008 -0.4136  0.1096  0.3265
 2688ntf    fn419253   4.245   4.206   2.172  0.2725 -0.2249  0.0160
 2688ntf    on519254   4.403   3.946   1.946  0.2216 -0.0634  0.1732
 2688ntf    on519255   4.485   4.026   2.162  0.1108  0.0066 -0.6266
 2688ntf    on519256   4.143   3.765   1.979  0.4831  0.4713 -0.2536
 2688ntf    on519257   4.059   3.792   2.209  0.3805 -0.2283  0.4200
 2688ntf    fn419258   4.200   3.546   2.148 -0.1588 -0.3313  0.3399
 2688ntf    fn419259   4.387   3.639   2.106 -0.2560 -0.6615 -0.5520
 2688ntf    fn419260   4.303   3.652   2.301  0.2541  0.4065 -0.3229
 2689ntf    cn119261   5.763   6.077   6.456 -0.5534  0.0378 -0.0727
 2689ntf    sn219262   5.767   5.895   6.464  0.0138  0.0490 -0.0525
 2689ntf    nn319263   5.784   5.843   6.317  0.2329 -0.0611  0.0115
 2689ntf    sn219264   5.680   5.785   6.214  0.0996  0.0625  0.0769
 2689ntf    cn119265   5.694   5.606   6.240 -0.4004  0.0339  0.1538
 2689ntf    fn419266   5.788   6.132   6.574  0.3488 -0.2933 -0.1063
 2689ntf    fn419267   5.856   6.118   6.371 -0.1423  0.3406  0.5159
 2689ntf    fn419268   5.650   6.130   6.412 -0.4634  0.1727 -0.1408
 2689ntf    on519269   5.885   5.884   6.545 -0.0445  0.3016  0.0709
 2689ntf    on519270   5.645   5.860   6.532 -0.0358  0.5741  0.1414
 2689ntf    on519271   5.732   5.801   6.081  0.2073 -0.1669  0.0921
 2689ntf    on519272   5.543   5.820   6.243  0.0756 -0.0065  0.0476
 2689ntf    fn419273   5.813   5.560   6.205 -0.2766  0.4287  0.0535
 2689ntf    fn419274   5.688   5.583   6.370 -0.2769  0.5981  0.2573
 2689ntf    fn419275   5.597   5.535   6.183 -0.3002  0.1678 -0.1879
 2690ntf    cn119276   5.830   5.223   1.376  0.1226 -0.2174  0.3105
 2690ntf    sn219277   5.702   5.180   1.255  0.2102  0.1321  0.0919
 2690ntf    nn319278   5.721   5.024   1.249  0.2427  0.1489 -0.2383
 2690ntf    sn219279   5.810   4.939   1.152  0.0474 -0.2455 -0.0727
 2690ntf    cn119280   5.917   4.860   1.277 -0.3176 -0.6439 -0.0079
 2690ntf    fn419281   5.840   5.353   1.397 -0.2723 -0.1465  0.0639
 2690ntf    fn419282   5.824   5.174   1.499  0.3478 -0.0811  0.3774
 2690ntf    fn419283   5.946   5.184   1.323  0.0393  0.2728 -0.2380
 2690ntf    on519284   5.576   5.202   1.323  0.1365 -0.4807  0.1652
 2690ntf    on519285   5.734   5.261   1.140  0.1015  0.8221  0.5444
 2690ntf    on519286   5.904   5.015   1.073  0.0507 -0.3653 -0.1847
 2690ntf    on519287   5.745   4.829   1.084  0.0240 -0.4704  0.3097
 2690ntf    fn419288   6.012   4.785   1.224  0.2557 -0.0252  0.1316
 2690ntf    fn419289   5.979   4.952   1.349 -0.3925 -0.4299 -0.2126
 2690ntf    fn419290   5.849   4.783   1.360  0.0314 -0.4485  0.4618
 2691ntf    cn119291   2.333   2.757   0.963  0.2580 -0.1723 -0.0554
 2691ntf    sn219292   2.257   2.772   0.799  0.0309  0.0432  0.0687
 2691ntf    nn319293   2.278   2.619   0.769  0.1060  0.0579  0.0460
 2691ntf    sn219294   2.359   2.551   0.653  0.2887  0.0211  0.1947
 2691ntf    cn119295   2.239   2.421   0.609  0.4219 -0.0305 -0.0173
 2691ntf    fn419296   2.319   2.865   1.038 -0.4210 -0.3681  0.1074
 2691ntf    fn419297   2.269   2.661   1.029  0.2905  0.0184  0.2554
 2691ntf    fn419298   2.460   2.723   0.950  0.3311 -0.0270  0.2530
 2691ntf    on519299   2.117   2.800   0.822 -0.1608 -0.0861 -0.8972
 2691ntf    on519300   2.338   2.868   0.728  0.2267 -0.3689 -0.2683
 2691ntf    on519301   2.470   2.479   0.712  0.3081  0.0275  0.1659
 2691ntf    on519302   2.376   2.627   0.532 -0.0153 -0.3935 -0.1111
 2691ntf    fn419303   2.210   2.346   0.714  0.2853 -0.2459 -0.2097
 2691ntf    fn419304   2.129   2.467   0.552  0.2413 -0.4775 -0.0362
 2691ntf    fn419305   2.290   2.331   0.526  0.0186  0.0554 -0.3631
 2692ntf    cn119306   0.394   2.174   0.077 -0.2689  0.1657 -0.0921
 2692ntf    sn219307   0.418   2.020  -0.016 -0.1435 -0.0086  0.2291
 2692ntf    nn319308   0.368   2.072  -0.156 -0.2025 -0.2862  0.1469
 2692ntf    sn219309   0.310   1.986  -0.274  0.1652 -0.2126 -0.0877
 2692ntf    cn119310   0.133   2.023  -0.257  0.2128  0.1479 -0.3505
 2692ntf    fn419311   0.423   2.172   0.206 -0.1427  0.1112 -0.1219
 2692ntf    fn419312   0.470   2.270   0.025 -0.7648  0.4154 -0.3726
 2692ntf    fn419313   0.270   2.222   0.074 -0.2669  0.1614 -0.3175
 2692ntf    on519314   0.560   1.994  -0.016 -0.2191 -0.4330 -0.3291
 2692ntf    on519315   0.330   1.933   0.058 -0.5364  0.2581  0.0813
 2692ntf    on519316   0.324   1.844  -0.259  0.1353 -0.1670  0.3721
 2692ntf    on519317   0.341   2.050  -0.400  0.0251  0.1557  0.0650
 2692ntf    fn419318   0.108   2.145  -0.302  0.3101  0.4631  0.4193
 2692ntf    fn419319   0.055   1.945  -0.330 -0.2756  0.4884 -0.1991
 2692ntf    fn419320   0.094   2.011  -0.131  0.0728  0.2366 -0.3861
 2693ntf    cn119321   4.569   3.842   3.525  0.1279  0.5115 -0.1644
 2693ntf    sn219322   4.425   3.737   3.562  0.5488 -0.0863 -0.2083
 2693ntf    nn319323   4.459   3.712   3.713  0.1725  0.2991 -0.0593
 2693ntf    sn219324   4.550   3.606   3.784  0.0243  0.3121  0.1512
 2693ntf    cn119325   4.683   3.711   3.852  0.4866 -0.1129 -0.0877
 2693ntf    fn419326   4.571   3.953   3.597  0.3540  0.0588  0.5493
 2693ntf    fn419327   4.682   3.775   3.543 -0.2603 -0.1566 -0.1577
 2693ntf    fn419328   4.567   3.876   3.398  0.1127  0.5611 -0.1512
 2693ntf    on519329   4.317   3.830   3.541  0.7067  0.1677  0.0986
 2693ntf    on519330   4.429   3.626   3.469 -0.1011 -0.2420 -0.0555
 2693ntf    on519331   4.617   3.521   3.689 -0.0475  0.0787  0.3084
 2693ntf    on519332   4.492   3.536   3.896  0.4489  0.2690  0.3450
 2693ntf    fn419333   4.784   3.643   3.904 -0.0169 -0.4587  0.4600
 2693ntf    fn419334   4.737   3.785   3.758 -0.4034  0.4631 -0.1607
 2693ntf    fn419335   4.637   3.799   3.940 -0.3394 -0.2455 -0.3721
 2694ntf    cn119336   3.317   2.847   6.101  0.1336 -0.0854  0.0103
 2694ntf    sn219337   3.337   2.885   6.278  0.0130 -0.0202  0.0105
 2694ntf    nn319338   3.325   2.744   6.345  0.1024 -0.2388 -0.4275
 2694ntf    sn219339   3.437   2.634   6.354  0.1936 -0.0929  0.2697
 2694ntf    cn119340   3.336   2.514   6.262  0.2022  0.1102 -0.0060
 2694ntf    fn419341   3.337   2.956   6.030 -0.1322 -0.1516 -0.1672
 2694ntf    fn419342   3.409   2.761   6.060  0.0975 -0.1090 -0.0212
 2694ntf    fn419343   3.199   2.789   6.082  0.1127  0.1401 -0.5706
 2694ntf    on519344   3.466   2.949   6.280 -0.0129  0.0337 -0.0372
 2694ntf    on519345   3.228   2.978   6.296  0.2664  0.3022 -0.1081
 2694ntf    on519346   3.436   2.572   6.485 -0.2812 -0.0608  0.2832
 2694ntf    on519347   3.553   2.630   6.270 -0.2803 -0.2202 -0.3894
 2694ntf    fn419348   3.401   2.409   6.214 -0.7791 -0.4775 -0.0912
 2694ntf    fn419349   3.247   2.459   6.344 -0.1784  0.0144 -0.4793
 2694ntf    fn419350   3.267   2.570   6.164  0.0125 -0.1710 -0.0339
 2695ntf    cn119351   5.762   3.793   5.766  0.1698 -0.0475  0.0208
 2695ntf    sn219352   5.913   3.819   5.862  0.2185 -0.1499 -0.0266
 2695ntf    nn319353   6.008   3.871   5.748 -0.0637  0.2277 -0.0901
 2695ntf    sn219354   6.154   3.926   5.759  0.0664 -0.0437 -0.4617
 2695ntf    cn119355   6.224   3.797   5.651 -0.0576 -0.1452 -0.4197
 2695ntf    fn419356   5.756   3.687   5.687  0.7252  0.0291 -0.1303
 2695ntf    fn419357   5.655   3.790   5.843  0.3403 -0.1907  0.2526
 2695ntf    fn419358   5.748   3.890   5.677  0.0641 -0.6140 -0.5878
 2695ntf    on519359   5.869   3.925   5.950  0.3449 -0.1060 -0.0164
 2695ntf    on519360   5.947   3.691   5.918  0.1071 -0.1573  0.0231
 2695ntf    on519361   6.223   3.914   5.885 -0.3507  0.2732 -0.2015
 2695ntf    on519362   6.160   4.047   5.680 -0.7353  0.2995  0.0029
 2695ntf    fn419363   6.169   3.679   5.676 -0.2778  0.1563  0.5527
 2695ntf    fn419364   6.207   3.835   5.526  0.1387  0.2718 -0.3239
 2695ntf    fn419365   6.355   3.785   5.667 -0.0124  0.5921 -0.1694
 2696ntf    cn119366   2.422   5.858   1.122 -0.4012 -0.0431  0.2599
 2696ntf    sn219367   2.388   6.034   1.092 -0.0377  0.0168  0.1996
 2696ntf    nn319368   2.530   6.102   1.085 -0.1662  0.2928  0.2835
 2696ntf    sn219369   2.577   6.230   1.007  0.2258 -0.1954 -0.2879
 2696ntf    cn119370   2.675   6.151   0.876  0.6607 -0.3662  0.1364
 2696ntf    fn419371   2.314   5.786   1.096 -0.2446 -0.4179  0.6391
 2696ntf    fn419372   2.518   5.817   1.040 -0.4286  0.1326  0.1381
 2696ntf    fn419373   2.467   5.827   1.242  0.3674  0.1454  0.0271
 2696ntf    on519374   2.318   6.037   0.966 -0.0627  0.3281  0.2198
 2696ntf    on519375   2.318   6.067   1.213  0.3131  0.2560  0.3389
 2696ntf    on519376   2.669   6.313   1.082  0.0321 -0.0223 -0.2407
 2696ntf    on519377   2.475   6.305   0.939 -0.0881 -0.3866 -0.0303
 2696ntf    fn419378   2.782   6.100   0.935  0.8249  0.3008  0.4221
 2696ntf    fn419379   2.612   6.049   0.821  0.2410  0.1055 -0.2626
 2696ntf    fn419380   2.706   6.236   0.779 -0.1244 -0.1361  0.0855
 2697ntf    cn119381   0.511   2.697   6.638 -0.5138  0.0381 -0.2349
 2697ntf    sn219382   0.419   2.841   6.701 -0.0974  0.2772 -0.1696
 2697ntf    nn319383   0.275   2.783   6.681 -0.0561  0.0509  0.1857
 2697ntf    sn219384   0.184   2.705   6.782  0.0435 -0.0107  0.2272
 2697ntf    cn119385   0.068   2.832   6.840 -0.3895 -0.4032  0.2203
 2697ntf    fn419386   0.468   2.586   6.695 -0.0662  0.0462  0.1285
 2697ntf    fn419387   0.502   2.680   6.508  0.2714  0.2611 -0.3245
 2697ntf    fn419388   0.642   2.699   6.662 -0.4785 -0.2012 -0.4129
 2697ntf    on519389   0.459   2.863   6.838  0.0378  0.1315 -0.1853
 2697ntf    on519390   0.446   2.946   6.605 -0.4556 -0.0744 -0.6605
 2697ntf    on519391   0.253   2.655   6.899  0.0989 -0.2156  0.1079
 2697ntf    on519392   0.098   2.613   6.713  0.2514  0.5078 -0.7380
 2697ntf    fn419393  -0.022   2.781   6.923  0.1138 -0.3668  0.7959
 2697ntf    fn419394   0.134   2.920   6.912 -0.5702  0.6759 -0.9089
 2697ntf    fn419395   0.006   2.902   6.746  0.5369 -0.0078 -0.1053
 2698ntf    cn119396   4.913   1.138   5.033 -0.0616  0.1494 -0.0378
 2698ntf    sn219397   4.802   1.234   4.925 -0.2079 -0.0309 -0.0473
 2698ntf    nn319398   4.907   1.298   4.826 -0.1664 -0.0879 -0.0400
 2698ntf    sn219399   4.931   1.262   4.676  0.0083  0.0076 -0.0353
 2698ntf    cn119400   4.819   1.374   4.587 -0.0994  0.0875  0.2026
 2698ntf    fn419401   4.978   1.229   5.105 -0.4148  0.3704  0.0046
 2698ntf    fn419402   4.856   1.061   5.123  0.2641 -0.1141 -0.0577
 2698ntf    fn419403   4.993   1.066   4.957 -0.0519  0.2702 -0.1443
 2698ntf    on519404   4.717   1.131   4.870 -0.4559  0.2186 -0.1306
 2698ntf    on519405   4.740   1.322   5.021 -0.0885  0.1181 -0.1057
 2698ntf    on519406   4.917   1.130   4.619 -0.1867 -0.1539  0.3894
 2698ntf    on519407   5.053   1.325   4.630  0.1665 -0.2255  0.0588
 2698ntf    fn419408   4.833   1.500   4.624  0.1377  0.0822  0.1293
 2698ntf    fn419409   4.833   1.371   4.455  0.0516 -0.0454  0.2200
 2698ntf    fn419410   4.694   1.338   4.612 -0.2943  0.4298 -0.2516
 2699ntf    cn119411   1.860   2.908   5.816 -0.4254 -0.1371 -0.1521
 2699ntf    sn219412   1.773   3.065   5.783 -0.1791 -0.0023 -0.1590
 2699ntf    nn319413   1.679   3.070   5.909  0.5802  0.3481  0.4094
 2699ntf    sn219414   1.545   3.151   5.927  0.1235 -0.2844 -0.0851
 2699ntf    cn119415   1.610   3.269   6.049 -0.4808  0.2049 -0.2295
 2699ntf    fn419416   1.786   2.798   5.823  0.0031 -0.4436 -0.4360
 2699ntf    fn419417   1.960   2.882   5.733 -0.5568 -0.7032 -0.1378
 2699ntf    fn419418   1.918   2.903   5.935 -0.2188  0.2287 -0.2358
 2699ntf    on519419   1.875   3.167   5.782 -0.4865  0.3109  0.2111
 2699ntf    on519420   1.708   3.032   5.659 -0.2341 -0.4704 -0.0076
 2699ntf    on519421   1.443   3.082   6.001  0.2273  0.4245  0.7374
 2699ntf    on519422   1.490   3.232   5.821 -0.3389 -0.3343  0.1150
 2699ntf    fn419423   1.529   3.370   6.076 -0.1222  0.4988 -0.2440
 2699ntf    fn419424   1.635   3.220   6.169 -0.1767  0.1092 -0.3322
 2699ntf    fn419425   1.725   3.319   6.007 -0.2049 -0.0410  0.2238
 2700ntf    cn119426   2.383   5.120   5.697 -0.5654 -0.0193  0.4765
 2700ntf    sn219427   2.213   5.064   5.669 -0.4887  0.0124 -0.0659
 2700ntf    nn319428   2.139   5.120   5.796 -0.7759  0.0452 -0.2451
 2700ntf    sn219429   2.126   5.047   5.935 -0.1101 -0.2199 -0.3181
 2700ntf    cn119430   2.125   5.201   6.031 -0.0660 -0.2576 -0.2573
 2700ntf    fn419431   2.453   5.083   5.592 -0.6478  0.1186  0.3725
 2700ntf    fn419432   2.391   5.252   5.713  0.0103 -0.0478  0.4447
 2700ntf    fn419433   2.438   5.073   5.808  0.4942  0.0930  0.0080
 2700ntf    on519434   2.172   5.135   5.551 -0.4467  0.1562  0.0060
 2700ntf    on519435   2.226   4.921   5.660 -0.2583  0.0754 -0.7456
 2700ntf    on519436   2.239   4.971   5.983 -0.1361  0.0901  0.2423
 2700ntf    on519437   1.998   4.986   5.957 -0.0878 -0.1042  0.1417
 2700ntf    fn419438   2.227   5.279   6.000  0.4498 -0.3704  1.1108
 2700ntf    fn419439   2.022   5.285   6.020  0.3873  0.3495  0.0637
 2700ntf    fn419440   2.128   5.181   6.162 -0.1618  0.4355 -0.1403
   6.92480   6.92480   6.92480
