Converted from moscito
32400
    1SOL     ow    1   2.624   1.646   5.698  0.5178 -0.2994 -0.1027
    1SOL     hw    2   2.572   1.713   5.743  2.5361  2.6562 -1.8367
    1SOL     hw    3   2.578   1.632   5.615  0.5080 -0.5020 -0.0635
    1SOL     vw    4   2.611   1.653   5.693  0.7828  0.0638 -0.3264
    2SOL     ow    5   6.351   5.857   0.414 -0.1806  0.1972 -0.1431
    2SOL     hw    6   6.434   5.891   0.446 -0.9158  2.7824 -0.7406
    2SOL     hw    7   6.371   5.824   0.326  0.0603  1.6458 -0.6465
    2SOL     vw    8   6.365   5.857   0.406 -0.2458  0.7296 -0.2884
    3SOL     ow    9   5.906   5.164   3.834 -0.1129  0.4861  0.2239
    3SOL     hw   10   5.833   5.225   3.847 -0.0123  0.7629 -0.4494
    3SOL     hw   11   5.967   5.212   3.778  0.4211  0.1219  0.4932
    3SOL     vw   12   5.904   5.178   3.828 -0.0291  0.4749  0.1706
    4SOL     ow   13   2.970   0.380   0.994  0.7130 -0.4204 -0.0788
    4SOL     hw   14   3.053   0.350   0.959  1.3660  0.3303  0.7782
    4SOL     hw   15   2.969   0.474   0.975  0.3919 -0.2922  0.5657
    4SOL     vw   16   2.981   0.389   0.987  0.7567 -0.3044  0.1194
    5SOL     ow   17   4.378   2.846   4.844 -0.0183 -0.2589 -0.4483
    5SOL     hw   18   4.447   2.841   4.777  0.5234 -1.9371  0.1891
    5SOL     hw   19   4.297   2.852   4.794  0.5608  3.2090 -1.2338
    5SOL     vw   20   4.377   2.846   4.828  0.1299 -0.0226 -0.4678
    6SOL     ow   21   3.048   5.458   2.683  0.1939 -0.0165  0.4998
    6SOL     hw   22   3.123   5.417   2.725  0.6576  0.7259  0.4201
    6SOL     hw   23   3.071   5.551   2.679 -1.1421  0.3868  1.3705
    6SOL     vw   24   3.061   5.465   2.688  0.0788  0.1347  0.6042
    7SOL     ow   25   3.070   4.157   3.146  0.0655  0.5560 -0.1476
    7SOL     hw   26   3.142   4.106   3.183 -0.6825  0.1561  0.8174
    7SOL     hw   27   3.017   4.092   3.098  0.6179  0.9399 -1.3003
    7SOL     vw   28   3.072   4.142   3.145  0.0397  0.5541 -0.1724
    8SOL     ow   29   4.942   4.909   6.532 -0.0750 -0.0767  0.2487
    8SOL     hw   30   4.903   4.889   6.447 -0.9407 -0.8678  0.8076
    8SOL     hw   31   4.869   4.904   6.594  0.8682 -1.5027  1.3116
    8SOL     vw   32   4.927   4.906   6.529 -0.0648 -0.3691  0.4628
    9SOL     ow   33   5.010   7.087   5.788  0.3536  0.8996  0.1826
    9SOL     hw   34   4.932   7.060   5.837 -0.5970  1.5593 -0.9234
    9SOL     hw   35   5.061   7.007   5.779 -1.1873 -0.0217 -0.8283
    9SOL     vw   36   5.006   7.073   5.793  0.0248  0.8650 -0.0968
   10SOL     ow   37   6.230   0.919   0.824 -0.2298  0.8277  0.4483
   10SOL     hw   38   6.240   0.856   0.752  1.5844  1.5760 -0.0047
   10SOL     hw   39   6.146   0.961   0.807 -0.0049  0.7338 -1.0553
   10SOL     vw   40   6.220   0.916   0.812  0.0391  0.9141  0.1902
   11SOL     ow   41   0.761   1.091   1.644 -0.0409 -0.1075  0.0083
   11SOL     hw   42   0.720   1.017   1.689  1.5797 -0.4481  1.0345
   11SOL     hw   43   0.849   1.060   1.624 -0.4722  0.2889 -2.8647
   11SOL     vw   44   0.767   1.077   1.648  0.1160 -0.1002 -0.2354
   12SOL     ow   45   6.740   4.251   2.012  0.3607  0.4511 -0.2672
   12SOL     hw   46   6.650   4.272   1.988 -0.0116 -1.6798 -0.9480
   12SOL     hw   47   6.732   4.173   2.067  1.8651 -0.7703 -1.6931
   12SOL     vw   48   6.727   4.244   2.016  0.5100  0.0091 -0.5451
   13SOL     ow   49   6.538   1.778   3.005  0.4538  0.3590  0.2981
   13SOL     hw   50   6.617   1.824   3.035  0.4959  0.0475  0.6787
   13SOL     hw   51   6.469   1.812   3.061  0.4688  0.0230  0.5199
   13SOL     vw   52   6.540   1.788   3.016  0.4616  0.2736  0.3775
   14SOL     ow   53   4.414   7.009   1.433 -0.6533  0.3265  0.1501
   14SOL     hw   54   4.349   6.980   1.369 -1.2854 -0.7060  1.2151
   14SOL     hw   55   4.475   7.063   1.383 -1.8202  0.5772 -1.0676
   14SOL     vw   56   4.413   7.013   1.418 -0.8905  0.2236  0.1300
   15SOL     ow   57   5.437   7.075   3.398 -0.0625  0.7279  0.1841
   15SOL     hw   58   5.373   7.004   3.406  0.4669  0.2198 -0.0647
   15SOL     hw   59   5.392   7.141   3.346 -0.6076  0.6355  0.5245
   15SOL     vw   60   5.422   7.074   3.392 -0.0644  0.6490  0.1962
   16SOL     ow   61   0.486   0.533   4.035 -0.3176 -0.7343 -0.1010
   16SOL     hw   62   0.473   0.538   4.130  1.6321  0.2659  0.1479
   16SOL     hw   63   0.401   0.557   3.998 -0.3742  1.6667  1.3866
   16SOL     vw   64   0.473   0.537   4.043 -0.0678 -0.2855  0.1280
   17SOL     ow   65   1.634   5.497   1.010  0.3519 -0.2178  0.1242
   17SOL     hw   66   1.687   5.532   1.081  2.4292  0.3928 -1.6206
   17SOL     hw   67   1.659   5.548   0.933 -0.6863 -1.8347 -1.3698
   17SOL     vw   68   1.644   5.508   1.009  0.4890 -0.3507 -0.3031
   18SOL     ow   69   6.549   6.686   2.576  0.0899  0.6741 -0.2932
   18SOL     hw   70   6.524   6.618   2.638  1.8623 -1.8329 -2.1118
   18SOL     hw   71   6.593   6.752   2.628 -1.9685  0.6902  1.5914
   18SOL     vw   72   6.551   6.686   2.591  0.0522  0.3455 -0.2844
   19SOL     ow   73   7.256   0.934   5.453 -0.1684  0.1150 -0.0906
   19SOL     hw   74   7.331   0.915   5.510 -0.4096 -0.2786  0.1031
   19SOL     hw   75   7.258   0.863   5.388 -0.4578  0.0204  0.0041
   19SOL     vw   76   7.266   0.922   5.452 -0.2384  0.0506 -0.0525
   20SOL     ow   77   6.191   4.925   2.771 -0.0751 -0.6278 -0.3232
   20SOL     hw   78   6.262   4.882   2.818 -1.1627 -2.5880 -0.3306
   20SOL     hw   79   6.119   4.928   2.834  0.1121  1.7897 -0.1448
   20SOL     vw   80   6.191   4.920   2.785 -0.1936 -0.5674 -0.3006
   21SOL     ow   81   3.732   7.371   7.144 -0.1447  0.0655 -0.4669
   21SOL     hw   82   3.800   7.431   7.174  1.2478 -0.7579 -1.8172
   21SOL     hw   83   3.700   7.409   7.062  2.3001 -1.9911 -2.5343
   21SOL     vw   84   3.736   7.384   7.137  0.3617 -0.3142 -0.9179
   22SOL     ow   85   3.401   0.827   6.285 -0.0645 -0.2536 -0.0970
   22SOL     hw   86   3.372   0.858   6.199 -1.3581 -0.9020  0.0912
   22SOL     hw   87   3.332   0.854   6.345  0.9941  0.5125  0.8343
   22SOL     vw   88   3.388   0.835   6.282 -0.0956 -0.2381  0.0508
   23SOL     ow   89   6.070   6.474   7.142  0.3773  0.0469 -0.1573
   23SOL     hw   90   6.102   6.557   7.107  0.3924  1.0743  2.1243
   23SOL     hw   91   5.988   6.496   7.186  0.1039 -1.2461  0.0326
   23SOL     vw   92   6.064   6.488   7.143  0.3431  0.0119  0.1690
   24SOL     ow   93   0.443   3.937   1.704 -0.3421 -0.8050 -0.3776
   24SOL     hw   94   0.361   3.912   1.748 -0.6712 -1.7017 -1.4525
   24SOL     hw   95   0.448   3.879   1.628  0.7636 -0.0363 -0.9187
   24SOL     vw   96   0.433   3.927   1.700 -0.2396 -0.8219 -0.5908
   25SOL     ow   97   5.608   0.866   5.586 -0.1109 -0.3793 -0.4163
   25SOL     hw   98   5.663   0.830   5.656 -0.9912  0.3143  0.6547
   25SOL     hw   99   5.522   0.827   5.600  0.2325 -2.1112 -2.5843
   25SOL     vw  100   5.604   0.856   5.597 -0.1819 -0.5163 -0.5610
   26SOL     ow  101   3.250   1.752   5.169 -0.3308 -0.0008  0.0274
   26SOL     hw  102   3.196   1.723   5.095 -1.6725  0.5412  0.7627
   26SOL     hw  103   3.212   1.707   5.245  0.3702  0.2544  0.5359
   26SOL     vw  104   3.237   1.742   5.170 -0.4154  0.1044  0.1917
   27SOL     ow  105   4.611   3.603   0.417  0.0258 -0.3175  0.4715
   27SOL     hw  106   4.553   3.644   0.352  1.2754 -3.4086 -2.9209
   27SOL     hw  107   4.699   3.632   0.392  0.6055 -2.2505  0.1109
   27SOL     vw  108   4.615   3.612   0.405  0.2673 -0.9805 -0.0237
   28SOL     ow  109   5.574   6.931   2.618 -0.2849  0.1476  0.8168
   28SOL     hw  110   5.521   7.000   2.659 -1.0041  0.3376 -0.3978
   28SOL     hw  111   5.601   6.967   2.534  3.1309  0.6781  1.9661
   28SOL     vw  112   5.571   6.945   2.613  0.0710  0.2427  0.8082
   29SOL     ow  113   4.563   1.325   7.356 -0.2186 -0.6112  0.5722
   29SOL     hw  114   4.567   1.335   7.451 -2.0720  0.8605  0.5527
   29SOL     hw  115   4.531   1.410   7.324 -1.2449 -1.6144 -1.2094
   29SOL     vw  116   4.559   1.338   7.364 -0.5984 -0.5495  0.3347
   30SOL     ow  117   2.672   5.282   2.999 -0.1871  0.3614 -0.4712
   30SOL     hw  118   2.614   5.224   2.949  0.2973 -0.2783 -0.3103
   30SOL     hw  119   2.658   5.258   3.090 -0.1520  0.6634 -0.3841
   30SOL     vw  120   2.663   5.271   3.004 -0.1185  0.3166 -0.4385
   31SOL     ow  121   6.338   6.182   7.345 -0.3398  0.1658  0.2973
   31SOL     hw  122   6.353   6.237   7.422 -3.1546  1.8946 -0.2522
   31SOL     hw  123   6.247   6.154   7.353 -1.5645  2.4099 -3.4805
   31SOL     vw  124   6.328   6.186   7.356 -0.8724  0.6900 -0.2737
   32SOL     ow  125   1.857   6.098   6.023 -0.0437 -0.0084 -0.5566
   32SOL     hw  126   1.779   6.043   6.033 -0.4212  0.6912  0.5515
   32SOL     hw  127   1.828   6.186   6.047  1.4646 -0.0199  1.5907
   32SOL     vw  128   1.843   6.102   6.028  0.1055  0.0825 -0.1268
   33SOL     ow  129   4.146   0.232   3.012 -0.1568  0.1937  0.4908
   33SOL     hw  130   4.066   0.225   3.063  0.1778  0.7694  1.1224
   33SOL     hw  131   4.212   0.262   3.075  0.7149 -0.9064  0.1441
   33SOL     vw  132   4.144   0.235   3.027  0.0021  0.1245  0.5285
   34SOL     ow  133   4.141   0.784   2.221 -0.1158 -0.7746  0.2132
   34SOL     hw  134   4.157   0.869   2.180  0.1364 -1.6144 -1.5193
   34SOL     hw  135   4.225   0.739   2.219 -0.3728 -1.2927  0.5713
   34SOL     vw  136   4.154   0.789   2.215 -0.1163 -0.9538  0.0319
   35SOL     ow  137   5.462   1.972   2.593  0.0511  0.0464  0.1289
   35SOL     hw  138   5.537   1.912   2.597  0.7257  0.9393  1.6439
   35SOL     hw  139   5.485   2.044   2.652 -1.9620  0.3841  0.5844
   35SOL     vw  140   5.475   1.973   2.601 -0.1254  0.2089  0.3889
   36SOL     ow  141   4.272   1.633   5.086 -0.5690  0.3722 -0.2605
   36SOL     hw  142   4.220   1.627   5.006  2.1585 -0.6653 -2.1070
   36SOL     hw  143   4.289   1.726   5.097 -1.1868  0.5492 -0.7265
   36SOL     vw  144   4.267   1.644   5.077 -0.2906  0.2587 -0.5655
   37SOL     ow  145   3.376   1.800   5.424 -0.3042 -0.3875  0.2195
   37SOL     hw  146   3.306   1.734   5.420 -0.4519 -0.1835 -0.8223
   37SOL     hw  147   3.337   1.879   5.387 -0.1448  0.3231  1.5197
   37SOL     vw  148   3.362   1.801   5.418 -0.3026 -0.2668  0.2534
   38SOL     ow  149   5.996   4.856   4.171  0.6060  0.1985 -0.7091
   38SOL     hw  150   5.992   4.913   4.248 -0.5399 -0.2091 -0.4487
   38SOL     hw  151   6.032   4.912   4.102 -0.6304  1.2888 -0.4945
   38SOL     vw  152   6.000   4.871   4.172  0.2918  0.2885 -0.6461
   39SOL     ow  153   2.593   5.778   2.869  0.4047 -0.3899 -0.4317
   39SOL     hw  154   2.689   5.786   2.872  0.4170 -0.6151 -0.2629
   39SOL     hw  155   2.562   5.867   2.887  0.5895 -0.1905 -1.0592
   39SOL     vw  156   2.602   5.791   2.871  0.4306 -0.3932 -0.4921
   40SOL     ow  157   1.099   2.363   1.814  0.0444  0.8400  0.4183
   40SOL     hw  158   1.057   2.297   1.758  2.5478 -0.1940 -0.3705
   40SOL     hw  159   1.049   2.360   1.896 -0.0999 -1.9281  0.3331
   40SOL     vw  160   1.087   2.354   1.818  0.3557  0.3382  0.3030
   41SOL     ow  161   3.206   5.979   0.308  0.7698 -0.0046  0.5319
   41SOL     hw  162   3.147   5.930   0.365  0.7802 -0.1331  0.4331
   41SOL     hw  163   3.183   6.071   0.322  0.5035 -0.0583  0.4443
   41SOL     vw  164   3.195   5.985   0.318  0.7360 -0.0286  0.5073
   42SOL     ow  165   0.070   2.804   5.029  0.8143  0.4796 -0.0337
   42SOL     hw  166   0.060   2.894   5.060 -0.7520  0.0895  0.7217
   42SOL     hw  167   0.059   2.809   4.934  1.6177  1.1770 -0.1010
   42SOL     vw  168   0.067   2.817   5.021  0.7136  0.5202  0.0570
   43SOL     ow  169   0.615   5.822   7.358  0.0805 -0.3288 -0.1937
   43SOL     hw  170   0.680   5.755   7.335 -0.1750 -0.6620  0.0504
   43SOL     hw  171   0.651   5.864   7.436  0.2212 -0.2107 -0.3223
   43SOL     vw  172   0.629   5.819   7.366  0.0654 -0.3569 -0.1786
   44SOL     ow  173   1.461   6.898   2.660  0.5068 -0.0118 -0.8453
   44SOL     hw  174   1.549   6.934   2.672  0.3287  0.3503 -0.5787
   44SOL     hw  175   1.406   6.975   2.643  0.5076 -0.3721 -2.6673
   44SOL     vw  176   1.465   6.913   2.659  0.4835 -0.0117 -1.0506
   45SOL     ow  177   4.934   2.312   7.256 -0.4939  0.4402 -0.2272
   45SOL     hw  178   4.840   2.312   7.236 -0.6366  2.7414  0.2211
   45SOL     hw  179   4.937   2.296   7.351 -0.2831 -1.5599 -0.5282
   45SOL     vw  180   4.922   2.310   7.266 -0.4849  0.4798 -0.2079
   46SOL     ow  181   3.566   2.509   3.405  0.1354  0.1071 -0.1510
   46SOL     hw  182   3.557   2.432   3.349 -1.3763 -0.2451  0.5346
   46SOL     hw  183   3.484   2.557   3.392  0.3306  0.6939  0.7443
   46SOL     vw  184   3.554   2.505   3.396 -0.0384  0.1380  0.0576
   47SOL     ow  185   6.486   0.694   4.208  0.0765 -0.1387 -0.0391
   47SOL     hw  186   6.574   0.691   4.247  0.2493  0.1709 -0.3945
   47SOL     hw  187   6.442   0.765   4.255 -0.0433 -0.4099  0.2595
   47SOL     vw  188   6.492   0.703   4.219  0.0837 -0.1336 -0.0465
   48SOL     ow  189   2.100   4.353   2.224  0.1426  0.3089 -0.1572
   48SOL     hw  190   2.044   4.313   2.157 -0.0013  0.9891 -0.4495
   48SOL     hw  191   2.189   4.336   2.194  0.2508  4.5220 -3.0914
   48SOL     vw  192   2.104   4.345   2.211  0.1378  0.9544 -0.5831
   49SOL     ow  193   2.368   1.521   3.664 -0.0597  0.6371  0.5847
   49SOL     hw  194   2.361   1.438   3.711  1.2868  0.7633  1.0367
   49SOL     hw  195   2.387   1.496   3.573  2.1778  0.4299  1.0580
   49SOL     vw  196   2.369   1.507   3.658  0.4133  0.6264  0.7068
   50SOL     ow  197   2.820   7.400   7.003 -0.2448 -0.3097 -0.1288
   50SOL     hw  198   2.765   7.340   6.952 -0.0720 -0.4976 -0.0944
   50SOL     hw  199   2.908   7.388   6.969 -0.0349 -0.8310  0.5680
   50SOL     vw  200   2.824   7.391   6.992 -0.1943 -0.4034 -0.0324
   51SOL     ow  201   5.993   1.081   2.503 -0.0190 -0.0093 -0.6171
   51SOL     hw  202   5.981   1.039   2.588 -0.0924 -0.2551 -0.7484
   51SOL     hw  203   6.000   1.175   2.523  0.8530 -0.1446 -0.2613
   51SOL     vw  204   5.992   1.088   2.517  0.0863 -0.0595 -0.5876
   52SOL     ow  205   1.033   1.076   3.608 -0.1056 -0.2332 -0.2373
   52SOL     hw  206   1.066   1.025   3.534 -2.3678 -0.2491 -1.3454
   52SOL     hw  207   0.992   1.153   3.567 -0.5089  0.2790  1.0844
   52SOL     vw  208   1.032   1.080   3.593 -0.4572 -0.1677 -0.2091
   53SOL     ow  209   2.346   2.070   6.468 -0.5786  0.0457 -0.2168
   53SOL     hw  210   2.347   2.003   6.400  2.3310 -0.9300  0.6589
   53SOL     hw  211   2.375   2.150   6.425 -0.4073 -0.1566 -0.4732
   53SOL     vw  212   2.350   2.072   6.454 -0.1721 -0.1097 -0.1352
   54SOL     ow  213   2.151   0.752   3.635  0.7455 -0.0578 -0.0207
   54SOL     hw  214   2.218   0.731   3.700  1.1731 -1.0536 -0.7499
   54SOL     hw  215   2.180   0.835   3.597  1.2236 -0.1552  0.1206
   54SOL     vw  216   2.164   0.760   3.638  0.8650 -0.2020 -0.0983
   55SOL     ow  217   7.051   2.193   0.403  0.1635 -0.1124  0.6237
   55SOL     hw  218   6.984   2.245   0.358 -0.4055 -0.3082  1.2236
   55SOL     hw  219   7.001   2.130   0.454  0.8385 -1.6509 -0.5275
   55SOL     vw  220   7.036   2.192   0.404  0.1774 -0.3412  0.5510
   56SOL     ow  221   2.091   4.965   7.179  0.8233  0.6781  0.1360
   56SOL     hw  222   2.152   4.896   7.204  0.7820  0.7843  0.5435
   56SOL     hw  223   2.074   4.950   7.086 -1.8686 -2.0265  0.8820
   56SOL     vw  224   2.097   4.954   7.170  0.4628  0.3350  0.2880
   57SOL     ow  225   2.325   4.273   4.398  0.2845  0.7218 -0.3739
   57SOL     hw  226   2.386   4.290   4.470 -0.7816 -1.3580  1.1248
   57SOL     hw  227   2.379   4.236   4.328  0.9383  0.0183  0.4812
   57SOL     vw  228   2.340   4.271   4.398  0.2301  0.3543 -0.0632
   58SOL     ow  229   6.512   1.885   5.349 -0.1493 -0.1184 -0.4040
   58SOL     hw  230   6.422   1.906   5.373  0.1494 -1.3045  1.9536
   58SOL     hw  231   6.505   1.803   5.300 -0.2669 -1.1503  1.2594
   58SOL     vw  232   6.499   1.877   5.346 -0.1256 -0.4110  0.1268
   59SOL     ow  233   2.218   3.871   1.906 -0.0779 -0.1962 -0.5796
   59SOL     hw  234   2.150   3.804   1.894 -0.7326  0.6235 -1.5952
   59SOL     hw  235   2.221   3.917   1.822  0.0663  1.3209  0.2363
   59SOL     vw  236   2.210   3.868   1.893 -0.1452  0.1121 -0.6060
   60SOL     ow  237   1.078   4.370   0.864 -0.3911 -0.1634  0.2998
   60SOL     hw  238   1.049   4.305   0.800 -2.1409 -1.0690  1.8907
   60SOL     hw  239   1.007   4.434   0.867  0.2384  0.5321  0.4447
   60SOL     vw  240   1.064   4.370   0.856 -0.5389 -0.1910  0.5288
   61SOL     ow  241   5.269   5.325   3.205 -0.1383 -0.4892  0.4265
   61SOL     hw  242   5.240   5.338   3.115 -2.4761 -0.6494  1.0844
   61SOL     hw  243   5.265   5.230   3.218  1.6326 -0.6177  0.3048
   61SOL     vw  244   5.264   5.314   3.195 -0.2129 -0.5274  0.4972
   62SOL     ow  245   0.103   4.677   6.181  0.2392  0.3692  0.0218
   62SOL     hw  246   0.149   4.726   6.249 -0.5006 -0.2482  0.9958
   62SOL     hw  247   0.071   4.744   6.121  0.9279  0.9222  0.2518
   62SOL     vw  248   0.105   4.692   6.182  0.2325  0.3610  0.1807
   63SOL     ow  249   0.554   6.458   7.120 -0.8971  0.3146 -0.2633
   63SOL     hw  250   0.513   6.414   7.193  0.0355  0.2922  0.2666
   63SOL     hw  251   0.502   6.537   7.106 -2.3673 -0.7362 -0.9946
   63SOL     vw  252   0.542   6.463   7.128 -0.9680  0.1729 -0.2902
   64SOL     ow  253   2.763   0.636   0.521 -0.2952 -0.3332 -0.1277
   64SOL     hw  254   2.844   0.597   0.488 -0.7565 -0.2256 -1.4407
   64SOL     hw  255   2.786   0.727   0.538  0.2068 -0.6273  0.8230
   64SOL     vw  256   2.776   0.643   0.519 -0.2897 -0.3578 -0.1755
   65SOL     ow  257   6.157   7.131   5.062 -0.2043  0.5531 -0.9130
   65SOL     hw  258   6.242   7.090   5.048 -0.3737  0.3761 -1.4553
   65SOL     hw  259   6.099   7.059   5.087  0.6733  1.1716  3.6860
   65SOL     vw  260   6.160   7.116   5.063 -0.1106  0.6111 -0.3777
   66SOL     ow  261   2.036   2.964   3.450  0.3373  0.1182  0.1668
   66SOL     hw  262   1.965   2.922   3.499 -0.5075  0.2103 -0.9318
   66SOL     hw  263   2.114   2.947   3.501 -0.4661 -0.0829  1.3569
   66SOL     vw  264   2.037   2.956   3.463  0.1199  0.1038  0.1788
   67SOL     ow  265   7.418   4.912   0.102  0.2069  0.9166 -0.1937
   67SOL     hw  266   7.424   4.995   0.150 -1.1470  1.5313 -1.0271
   67SOL     hw  267   7.371   4.934   0.022 -0.3298 -0.6890 -0.3572
   67SOL     vw  268   7.413   4.926   0.098 -0.0427  0.7861 -0.3252
   68SOL     ow  269   1.561   1.796   1.636  0.2151 -0.0751  0.3223
   68SOL     hw  270   1.529   1.882   1.664 -0.7883 -0.1794 -0.4352
   68SOL     hw  271   1.512   1.777   1.556  2.9777  0.2545 -1.6127
   68SOL     vw  272   1.551   1.805   1.629  0.4472 -0.0454 -0.0329
   69SOL     ow  273   2.226   4.735   6.863 -0.3324 -0.8626 -0.1800
   69SOL     hw  274   2.169   4.675   6.911 -1.1475  0.9850  1.2677
   69SOL     hw  275   2.309   4.733   6.910 -0.3811 -0.8198 -0.0919
   69SOL     vw  276   2.229   4.727   6.875 -0.4464 -0.6132  0.0226
   70SOL     ow  277   2.465   4.703   1.977  0.2199  0.4656 -0.0731
   70SOL     hw  278   2.527   4.772   1.952  0.6623 -0.2710 -1.0974
   70SOL     hw  279   2.400   4.703   1.907  0.2217 -0.1441 -0.0785
   70SOL     vw  280   2.465   4.712   1.964  0.2785  0.2882 -0.2089
   71SOL     ow  281   0.892   3.715   4.324 -0.0763  0.0316 -0.0380
   71SOL     hw  282   0.894   3.665   4.242 -0.2606 -0.8348  0.4738
   71SOL     hw  283   0.867   3.651   4.391 -0.1147  0.7678  0.6710
   71SOL     vw  284   0.889   3.700   4.322 -0.1057  0.0145  0.1230
   72SOL     ow  285   1.813   4.087   3.159  1.0688 -0.2605  0.2043
   72SOL     hw  286   1.825   4.041   3.242  2.5811 -0.4761 -0.1165
   72SOL     hw  287   1.769   4.169   3.183 -1.3089 -1.6386  0.8285
   72SOL     vw  288   1.809   4.092   3.173  0.9546 -0.4709  0.2443
   73SOL     ow  289   2.405   0.662   3.350 -0.0630  0.0563  0.1889
   73SOL     hw  290   2.412   0.739   3.293  0.1904 -0.4605 -0.4851
   73SOL     hw  291   2.453   0.687   3.430  1.4751 -0.0097 -0.6847
   73SOL     vw  292   2.412   0.675   3.353  0.1733 -0.0206 -0.0153
   74SOL     ow  293   3.824   3.037   4.226 -0.1469  0.7184 -0.2571
   74SOL     hw  294   3.801   3.062   4.316 -0.1071 -1.7766  0.5300
   74SOL     hw  295   3.911   3.074   4.212 -0.1283  1.0860  0.7485
   74SOL     vw  296   3.832   3.045   4.236 -0.1390  0.4377 -0.0205
   75SOL     ow  297   1.533   1.390   2.151 -0.5716 -0.2379 -0.3867
   75SOL     hw  298   1.438   1.395   2.137 -0.5732 -0.6428 -0.5385
   75SOL     hw  299   1.556   1.301   2.124 -0.3759 -0.6369  1.0485
   75SOL     vw  300   1.523   1.379   2.145 -0.5460 -0.3441 -0.2173
   76SOL     ow  301   2.002   4.623   3.339  0.3591 -0.5407 -0.3723
   76SOL     hw  302   1.939   4.636   3.409  1.0229  0.2598  0.0905
   76SOL     hw  303   2.067   4.563   3.377  1.4103  0.8907  0.1783
   76SOL     vw  304   2.003   4.617   3.353  0.5853 -0.2460 -0.2387
   77SOL     ow  305   2.024   0.631   5.897  0.1678  0.0790 -0.0816
   77SOL     hw  306   1.959   0.649   5.828  0.5368 -2.3819 -1.1791
   77SOL     hw  307   1.976   0.579   5.962  0.5223 -0.0059  0.1154
   77SOL     vw  308   2.009   0.626   5.896  0.2632 -0.2569 -0.2003
   78SOL     ow  309   2.139   4.045   4.344 -0.3554 -0.0803  0.3275
   78SOL     hw  310   2.065   4.019   4.289  0.8272  2.6975 -2.9335
   78SOL     hw  311   2.205   3.977   4.328 -0.7405 -0.3617 -0.1028
   78SOL     vw  312   2.138   4.033   4.335 -0.2502  0.2489 -0.1595
   79SOL     ow  313   7.229   2.472   3.273 -0.3196 -0.6385  0.6180
   79SOL     hw  314   7.285   2.522   3.332 -2.2169 -0.1485  2.1437
   79SOL     hw  315   7.223   2.385   3.312 -0.5778 -0.7008  0.4483
   79SOL     vw  316   7.235   2.467   3.286 -0.6039 -0.5821  0.7969
   80SOL     ow  317   4.414   1.551   2.242  0.3451 -0.1190 -0.6867
   80SOL     hw  318   4.489   1.573   2.298  0.5462  0.8144 -1.2945
   80SOL     hw  319   4.447   1.557   2.153 -0.3587 -0.0295 -0.9544
   80SOL     vw  320   4.428   1.555   2.238  0.2789  0.0159 -0.8022
   81SOL     ow  321   2.130   4.203   2.873  0.3503 -1.0714 -0.1015
   81SOL     hw  322   2.077   4.125   2.890 -1.8582  0.2384 -0.6064
   81SOL     hw  323   2.175   4.184   2.791 -0.2601 -1.7925 -0.2779
   81SOL     vw  324   2.129   4.190   2.864 -0.0215 -0.9937 -0.1915
   82SOL     ow  325   6.520   1.015   4.545 -0.2037  0.5995  0.2562
   82SOL     hw  326   6.547   1.085   4.486  1.4591  1.1742  1.6139
   82SOL     hw  327   6.483   0.948   4.487 -0.3105  1.8743 -1.2285
   82SOL     vw  328   6.518   1.016   4.529  0.0017  0.8435  0.2391
   83SOL     ow  329   0.260   2.544   2.293 -0.1705 -0.3605 -0.9674
   83SOL     hw  330   0.288   2.472   2.236  1.3389  1.2398 -2.3843
   83SOL     hw  331   0.341   2.578   2.330 -0.6327  1.5608 -1.5883
   83SOL     vw  332   0.274   2.539   2.290 -0.0323  0.1041 -1.2362
   84SOL     ow  333   0.881   2.547   1.509 -0.1961 -0.5391  0.4457
   84SOL     hw  334   0.838   2.527   1.592 -0.9709 -1.0848 -0.0700
   84SOL     hw  335   0.925   2.466   1.485  0.3757 -0.2542  0.5224
   84SOL     vw  336   0.881   2.534   1.517 -0.2229 -0.5735  0.3878
   85SOL     ow  337   4.693   3.628   5.628 -0.6237 -0.4424 -0.2440
   85SOL     hw  338   4.649   3.712   5.641 -1.0921 -0.4180 -1.7921
   85SOL     hw  339   4.630   3.575   5.580  0.4845 -0.9111 -1.2167
   85SOL     vw  340   4.679   3.632   5.624 -0.5395 -0.5010 -0.5765
   86SOL     ow  341   4.760   4.182   5.054 -0.4125 -0.6112 -0.5127
   86SOL     hw  342   4.685   4.141   5.010  0.5474 -0.0581 -2.7651
   86SOL     hw  343   4.819   4.208   4.984 -0.0111  2.8352  0.8839
   86SOL     vw  344   4.758   4.180   5.039 -0.2329 -0.0837 -0.6254
   87SOL     ow  345   7.177   5.946   6.322 -0.1004  0.2925 -0.2784
   87SOL     hw  346   7.124   5.905   6.390 -0.7806 -1.6639 -1.8567
   87SOL     hw  347   7.163   5.891   6.245  1.8961  1.4555 -1.5774
   87SOL     vw  348   7.168   5.933   6.321  0.0732  0.1881 -0.6578
   88SOL     ow  349   3.582   4.925   0.123  0.1587 -0.0982 -0.4306
   88SOL     hw  350   3.495   4.886   0.116  0.7753 -1.9482  1.1097
   88SOL     hw  351   3.641   4.859   0.086  1.0250  0.4266 -0.0267
   88SOL     vw  352   3.579   4.911   0.117  0.3544 -0.2732 -0.1741
   89SOL     ow  353   5.106   2.574   1.583 -0.1187  0.1171 -0.1179
   89SOL     hw  354   5.122   2.583   1.677  1.9595  1.9520 -0.5500
   89SOL     hw  355   5.039   2.640   1.563 -1.5769 -1.2069  0.2414
   89SOL     vw  356   5.099   2.584   1.592 -0.0370  0.1845 -0.1276
   90SOL     ow  357   6.780   5.803   1.095  0.1590  0.3049  0.0698
   90SOL     hw  358   6.820   5.826   1.010  0.9012  0.6687  0.5056
   90SOL     hw  359   6.735   5.720   1.078  1.7034 -0.5083 -0.2888
   90SOL     vw  360   6.779   5.795   1.081  0.4606  0.2453  0.0800
   91SOL     ow  361   3.451   2.147   1.149  0.0727  0.1354  0.2023
   91SOL     hw  362   3.429   2.118   1.238 -1.0727  0.6952  0.1152
   91SOL     hw  363   3.426   2.239   1.147 -1.7773 -0.3503 -1.2855
   91SOL     vw  364   3.445   2.155   1.161 -0.3223  0.1452 -0.0055
   92SOL     ow  365   1.514   2.472   1.832  0.5344 -0.0861 -0.0777
   92SOL     hw  366   1.456   2.397   1.824  0.2415 -0.0218  1.1822
   92SOL     hw  367   1.572   2.467   1.757 -2.4239  1.0317 -2.6453
   92SOL     vw  368   1.514   2.462   1.821  0.1054  0.0700 -0.2503
   93SOL     ow  369   3.340   1.001   4.739  0.0178  0.3629  0.0858
   93SOL     hw  370   3.371   1.028   4.652  2.0693  0.5204  0.7968
   93SOL     hw  371   3.267   1.059   4.758  0.7912  1.6689 -0.7475
   93SOL     vw  372   3.335   1.012   4.730  0.3904  0.5561  0.0696
   94SOL     ow  373   4.536   5.803   6.440 -0.2525  0.0426  0.0363
   94SOL     hw  374   4.440   5.804   6.435 -0.2638 -1.4011 -0.6385
   94SOL     hw  375   4.565   5.804   6.349  0.3801  0.4964  0.2380
   94SOL     vw  376   4.527   5.803   6.427 -0.1702 -0.0880 -0.0260
   95SOL     ow  377   6.793   7.249   3.065  0.5094 -0.0631  0.6199
   95SOL     hw  378   6.876   7.202   3.055 -0.2353 -0.9690 -3.7374
   95SOL     hw  379   6.813   7.338   3.036  0.1205 -0.1909 -0.0813
   95SOL     vw  380   6.807   7.255   3.060  0.3598 -0.1998 -0.0474
   96SOL     ow  381   2.109   5.236   4.909 -0.2519 -0.0952 -0.2263
   96SOL     hw  382   2.093   5.144   4.889 -0.7153  0.0441 -0.4885
   96SOL     hw  383   2.110   5.280   4.824 -2.0403  0.4629 -0.0086
   96SOL     vw  384   2.107   5.230   4.895 -0.5490 -0.0033 -0.2322
   97SOL     ow  385   6.516   7.097   0.049  0.1224 -0.0105  0.0149
   97SOL     hw  386   6.518   7.190   0.026  1.2629 -0.2447 -0.9566
   97SOL     hw  387   6.595   7.061   0.008 -0.2985 -1.4054  0.3841
   97SOL     vw  388   6.527   7.104   0.041  0.2174 -0.2253 -0.0646
   98SOL     ow  389   1.688   1.520   1.749 -0.1980  0.2436  0.0610
   98SOL     hw  390   1.621   1.455   1.771 -0.5276 -0.8799 -3.6047
   98SOL     hw  391   1.644   1.580   1.688  1.6654  0.5067 -1.0897
   98SOL     vw  392   1.673   1.520   1.744  0.0044  0.1301 -0.5745
   99SOL     ow  393   5.239   2.039   0.365 -0.1597 -0.0428 -0.0388
   99SOL     hw  394   5.217   2.102   0.434 -1.4919 -1.9996  1.4428
   99SOL     hw  395   5.155   2.016   0.325  0.4048 -0.2471 -1.1370
   99SOL     vw  396   5.225   2.044   0.369 -0.2611 -0.3279  0.0117
  100SOL     ow  397   6.174   6.148   4.735  0.3821  0.2715 -0.6754
  100SOL     hw  398   6.227   6.227   4.743  0.0043  0.4280  0.5657
  100SOL     hw  399   6.209   6.088   4.801  0.1584 -0.2926 -1.0581
  100SOL     vw  400   6.185   6.151   4.745  0.3028  0.2177 -0.5622
  101SOL     ow  401   5.406   3.826   0.037  0.2487  0.0441 -0.3032
  101SOL     hw  402   5.428   3.771  -0.038  0.5258  2.1545 -1.8648
  101SOL     hw  403   5.398   3.765   0.110  2.1498 -1.8587 -1.5702
  101SOL     vw  404   5.408   3.810   0.037  0.5360  0.0714 -0.6764
  102SOL     ow  405   3.873   1.860   1.814  0.0953  0.0620 -0.0113
  102SOL     hw  406   3.877   1.778   1.863 -0.9324  1.4327  2.5685
  102SOL     hw  407   3.784   1.892   1.829  0.4850  1.6659 -0.8997
  102SOL     vw  408   3.862   1.853   1.822  0.0110  0.4545  0.2119
  103SOL     ow  409   2.780   5.452   2.445  0.1142 -0.1826  0.5709
  103SOL     hw  410   2.702   5.399   2.427 -1.6277  1.9561  1.3314
  103SOL     hw  411   2.780   5.463   2.540  1.6708 -0.5491  0.6414
  103SOL     vw  412   2.770   5.446   2.455  0.0899  0.0513  0.6804
  104SOL     ow  413   2.670   2.825   5.898 -0.1095 -0.5807  0.3067
  104SOL     hw  414   2.751   2.776   5.913 -0.4682 -1.5340 -0.6589
  104SOL     hw  415   2.669   2.839   5.803 -0.7886 -0.0577  0.3888
  104SOL     vw  416   2.681   2.820   5.887 -0.2464 -0.6375  0.1900
  105SOL     ow  417   0.558   3.088   1.569 -0.5702 -0.1159  0.0244
  105SOL     hw  418   0.550   3.012   1.626  2.3801  0.0847  0.8919
  105SOL     hw  419   0.584   3.160   1.628  0.4411  0.6118 -1.2410
  105SOL     vw  420   0.560   3.088   1.584 -0.0474  0.0066 -0.0281
  106SOL     ow  421   1.342   5.525   4.578 -0.6871 -1.0195 -0.0797
  106SOL     hw  422   1.406   5.596   4.570  1.5199 -2.9304 -0.4087
  106SOL     hw  423   1.258   5.569   4.588  0.8783  1.7041  2.6876
  106SOL     vw  424   1.339   5.540   4.579 -0.1892 -0.9122  0.2420
  107SOL     ow  425   2.711   3.314   5.809 -0.1079  0.0429  0.2200
  107SOL     hw  426   2.672   3.387   5.760 -0.5107  0.7036  1.4636
  107SOL     hw  427   2.805   3.329   5.803 -0.0547 -0.7294 -1.5633
  107SOL     vw  428   2.718   3.326   5.802 -0.1540  0.0280  0.1488
  108SOL     ow  429   0.026   0.656   0.878 -0.3579 -0.2572  0.7361
  108SOL     hw  430  -0.063   0.630   0.898 -0.2281 -1.3972 -0.1174
  108SOL     hw  431   0.073   0.574   0.863  0.5659  0.3680  0.0918
  108SOL     vw  432   0.021   0.642   0.879 -0.2189 -0.3251  0.5385
  109SOL     ow  433   1.402   6.034   2.127  0.1272 -0.5097  0.6416
  109SOL     hw  434   1.330   6.093   2.149 -0.2899 -1.4970  2.1020
  109SOL     hw  435   1.383   6.004   2.038 -0.1493  0.8059  0.2401
  109SOL     vw  436   1.390   6.038   2.118  0.0356 -0.4666  0.7813
  110SOL     ow  437   1.872   6.342   7.050 -0.4322 -0.1968  0.4285
  110SOL     hw  438   1.899   6.266   7.102 -0.1537  1.3455  2.7243
  110SOL     hw  439   1.952   6.372   7.008 -0.0459  0.1066  1.3462
  110SOL     vw  440   1.886   6.336   7.052 -0.3445  0.0467  0.8523
  111SOL     ow  441   4.711   1.911   2.665  0.7914  0.1743  0.1767
  111SOL     hw  442   4.713   1.816   2.650 -0.8628  0.3266 -1.3864
  111SOL     hw  443   4.700   1.920   2.760  1.7695 -1.1563  0.4472
  111SOL     vw  444   4.710   1.900   2.676  0.7024  0.0188  0.0062
  112SOL     ow  445   2.800   0.991   5.936  0.2003  0.2617 -0.1913
  112SOL     hw  446   2.853   1.018   5.861  0.2312 -1.0274 -0.6436
  112SOL     hw  447   2.829   0.902   5.956  0.4339  0.6951  1.5772
  112SOL     vw  448   2.811   0.983   5.929  0.2352  0.1488 -0.0174
  113SOL     ow  449   1.492   5.440   0.305  0.4069  0.2428  0.0719
  113SOL     hw  450   1.518   5.531   0.293  0.3702  0.3256  0.5739
  113SOL     hw  451   1.568   5.389   0.280  0.9729  0.4705  1.2669
  113SOL     vw  452   1.505   5.445   0.300  0.4768  0.2840  0.2958
  114SOL     ow  453   4.157   2.038   2.182 -0.4462 -0.3435  0.0963
  114SOL     hw  454   4.144   2.025   2.088 -0.3567  0.1462  0.0152
  114SOL     hw  455   4.149   2.132   2.194  0.1048 -0.3480  0.4993
  114SOL     vw  456   4.154   2.048   2.171 -0.3617 -0.2795  0.1388
  115SOL     ow  457   2.038   0.544   3.931  0.1087  0.0256  0.1089
  115SOL     hw  458   2.085   0.514   3.853  0.1880  1.1265 -0.2828
  115SOL     hw  459   2.105   0.586   3.985  0.2385 -1.5439  1.2349
  115SOL     vw  460   2.053   0.546   3.928  0.1361 -0.0362  0.2056
  116SOL     ow  461   2.885   3.408   1.226  0.5760  0.2383  0.4178
  116SOL     hw  462   2.952   3.391   1.293  1.1355 -0.8788 -0.3887
  116SOL     hw  463   2.819   3.460   1.271 -0.6165 -2.9741  2.7971
  116SOL     vw  464   2.885   3.413   1.241  0.4926 -0.3327  0.6253
  117SOL     ow  465   5.300   6.294   0.333 -0.0282  0.0332 -0.2260
  117SOL     hw  466   5.377   6.253   0.373  1.1822  1.3007 -1.1617
  117SOL     hw  467   5.319   6.296   0.240 -1.2814  0.2285 -0.4942
  117SOL     vw  468   5.313   6.289   0.326 -0.0341  0.2260 -0.3848
  118SOL     ow  469   7.304   4.971   4.503 -0.3261  0.1679 -0.6996
  118SOL     hw  470   7.386   4.990   4.549  0.0851  0.5375 -1.5674
  118SOL     hw  471   7.270   5.057   4.477 -0.1654 -0.0656 -1.7394
  118SOL     vw  472   7.310   4.985   4.506 -0.2503  0.1860 -0.9513
  119SOL     ow  473   1.411   2.025   1.689  0.1480 -0.2503 -0.6987
  119SOL     hw  474   1.388   2.113   1.718  0.6962 -0.4124  0.2484
  119SOL     hw  475   1.329   1.988   1.657 -0.4316  0.0091  0.4603
  119SOL     vw  476   1.398   2.032   1.688  0.1438 -0.2373 -0.4208
  120SOL     ow  477   2.328   3.203   6.232  0.4000 -0.2029 -0.6127
  120SOL     hw  478   2.270   3.260   6.182  0.7816  0.9188  0.1871
  120SOL     hw  479   2.271   3.134   6.267  0.2927 -1.7252 -3.4913
  120SOL     vw  480   2.313   3.201   6.230  0.4362 -0.2557 -0.8874
  121SOL     ow  481   4.869   4.211   5.788 -0.3529 -0.4905 -0.7227
  121SOL     hw  482   4.787   4.162   5.786 -1.8194  1.6863  1.0841
  121SOL     hw  483   4.917   4.176   5.863 -1.0295  0.2159  0.0614
  121SOL     vw  484   4.865   4.200   5.797 -0.6359 -0.1101 -0.3810
  122SOL     ow  485   6.259   4.338   0.981  0.1089  0.1529 -0.3814
  122SOL     hw  486   6.318   4.368   0.911 -0.3351  1.5681 -0.1739
  122SOL     hw  487   6.196   4.282   0.937  1.0285 -0.6168 -0.7653
  122SOL     vw  488   6.259   4.334   0.966  0.1719  0.2382 -0.4047
  123SOL     ow  489   7.223   2.549   5.355 -0.4001  0.3917  0.3953
  123SOL     hw  490   7.274   2.564   5.275  2.6428 -0.6654  1.9550
  123SOL     hw  491   7.200   2.456   5.352 -0.0742  0.2922  0.8337
  123SOL     vw  492   7.227   2.539   5.344  0.0443  0.2391  0.6590
  124SOL     ow  493   4.808   0.282   1.982 -0.4078  0.0966 -0.1759
  124SOL     hw  494   4.830   0.196   1.946 -1.0330 -0.0018 -0.3296
  124SOL     hw  495   4.868   0.342   1.937 -0.1300 -0.2237 -0.2405
  124SOL     vw  496   4.819   0.278   1.971 -0.4535  0.0414 -0.2047
  125SOL     ow  497   0.750   4.541   4.083 -0.1166  0.4839 -0.0030
  125SOL     hw  498   0.710   4.548   3.997  1.1928 -0.7080 -0.7535
  125SOL     hw  499   0.697   4.477   4.130  0.7608 -1.0046 -0.9498
  125SOL     vw  500   0.738   4.534   4.078  0.1720  0.1299 -0.2272
  126SOL     ow  501   5.225   3.527   7.257 -0.6538 -0.3900 -0.2534
  126SOL     hw  502   5.256   3.448   7.302 -0.7620 -0.0243  0.4628
  126SOL     hw  503   5.211   3.498   7.167 -1.8617 -1.4991  0.2628
  126SOL     vw  504   5.227   3.513   7.251 -0.8276 -0.4880 -0.0908
  127SOL     ow  505   7.308   1.879   0.457 -0.0160  0.2781  0.3163
  127SOL     hw  506   7.309   1.801   0.401  2.2898  0.4804 -0.0111
  127SOL     hw  507   7.311   1.953   0.396 -1.4838  0.6365  0.6425
  127SOL     vw  508   7.309   1.879   0.442  0.0947  0.3521  0.3161
  128SOL     ow  509   6.724   6.285   2.337 -0.3413  0.4116 -0.1675
  128SOL     hw  510   6.801   6.337   2.360 -0.2651  0.9524 -1.5921
  128SOL     hw  511   6.650   6.338   2.369 -0.1709  0.3073  0.4109
  128SOL     vw  512   6.724   6.299   2.345 -0.3090  0.4690 -0.2792
  129SOL     ow  513   3.682   0.270   2.303  0.1084  0.3210  0.1332
  129SOL     hw  514   3.609   0.311   2.350 -0.9735  0.3185 -1.4893
  129SOL     hw  515   3.695   0.187   2.348  0.6515  1.2970  1.8698
  129SOL     vw  516   3.674   0.264   2.315  0.0373  0.4494  0.1483
  130SOL     ow  517   7.289   3.467   4.583 -0.5479 -0.6062 -0.3881
  130SOL     hw  518   7.234   3.418   4.522 -0.8699 -0.7442  0.0112
  130SOL     hw  519   7.317   3.544   4.533  0.0982 -1.2648 -1.0757
  130SOL     vw  520   7.286   3.471   4.568 -0.5052 -0.7114 -0.4261
  131SOL     ow  521   0.926   5.193   3.063  0.0236  0.5919 -0.3755
  131SOL     hw  522   0.838   5.179   3.027  0.1850 -0.0971 -0.5216
  131SOL     hw  523   0.947   5.111   3.107  1.1843  0.2014 -1.5922
  131SOL     vw  524   0.917   5.180   3.064  0.1980  0.4494 -0.5554
  132SOL     ow  525   6.450   6.745   6.982  0.2711 -0.5447 -0.3760
  132SOL     hw  526   6.518   6.751   6.915 -0.8211 -2.5035 -1.7633
  132SOL     hw  527   6.375   6.792   6.944 -0.1637 -1.1581 -0.2927
  132SOL     vw  528   6.449   6.752   6.968  0.0696 -0.8843 -0.5479
  133SOL     ow  529   6.838   4.251   0.911 -1.0316  0.6321  0.3603
  133SOL     hw  530   6.753   4.208   0.894 -0.0624 -0.8754 -0.9750
  133SOL     hw  531   6.831   4.336   0.867 -2.4157  1.2628  1.6888
  133SOL     vw  532   6.826   4.256   0.903 -1.0862  0.5164  0.3594
  134SOL     ow  533   1.590   5.304   0.555  0.5515 -0.4465 -0.6931
  134SOL     hw  534   1.581   5.266   0.642  0.2845  1.2584  0.0804
  134SOL     hw  535   1.679   5.338   0.552  1.0206 -1.7128 -1.6311
  134SOL     vw  536   1.600   5.304   0.566  0.5782 -0.3886 -0.7147
  135SOL     ow  537   5.098   5.500   5.412  0.3295  0.2863  0.0620
  135SOL     hw  538   5.123   5.413   5.443 -0.4013  0.4335  1.1102
  135SOL     hw  539   5.173   5.556   5.433  1.1904 -0.2389 -1.4519
  135SOL     vw  540   5.111   5.496   5.418  0.3464  0.2367  0.0005
  136SOL     ow  541   4.601   6.735   2.829  0.4432  0.2647 -0.0403
  136SOL     hw  542   4.579   6.643   2.846 -0.3852  0.6389  1.0273
  136SOL     hw  543   4.579   6.748   2.737  1.0872 -0.7442 -0.3492
  136SOL     vw  544   4.595   6.724   2.819  0.4189  0.1812  0.0600
  137SOL     ow  545   6.464   4.975   1.037 -0.2365 -0.6328  0.0149
  137SOL     hw  546   6.400   4.990   1.107 -0.9745 -2.5477 -0.1770
  137SOL     hw  547   6.549   4.991   1.077 -0.7446  0.1563  0.7975
  137SOL     vw  548   6.466   4.979   1.051 -0.4013 -0.7813  0.0929
  138SOL     ow  549   2.389   4.708   2.550 -0.2164  0.0479  0.3679
  138SOL     hw  550   2.303   4.664   2.548 -0.4697  0.5651 -1.1954
  138SOL     hw  551   2.429   4.676   2.631 -1.8930 -0.1755  1.1674
  138SOL     vw  552   2.383   4.698   2.560 -0.4710  0.0868  0.2670
  139SOL     ow  553   3.478   0.024   1.581  0.3748  0.1223 -0.1873
  139SOL     hw  554   3.479  -0.001   1.489  0.9794 -0.6767  0.0249
  139SOL     hw  555   3.483  -0.059   1.628  2.7730  0.6262  0.5466
  139SOL     vw  556   3.479   0.010   1.575  0.7709  0.0834 -0.0625
  140SOL     ow  557   5.148   2.124   1.368  1.3402 -0.6115  0.0940
  140SOL     hw  558   5.057   2.096   1.378  0.4187  1.4925 -1.6934
  140SOL     hw  559   5.166   2.175   1.447  0.4055  0.2952 -0.2617
  140SOL     vw  560   5.138   2.127   1.380  1.0953 -0.2142 -0.1888
  141SOL     ow  561   5.022   3.664   5.708  0.3485  0.4380 -0.4383
  141SOL     hw  562   5.058   3.744   5.747  2.2001 -0.5293 -0.0845
  141SOL     hw  563   5.088   3.636   5.645 -0.7412 -0.2955 -1.2901
  141SOL     vw  564   5.035   3.671   5.705  0.4492  0.2136 -0.5040
  142SOL     ow  565   2.338   2.855   3.060 -0.5670 -0.6658 -0.5852
  142SOL     hw  566   2.349   2.762   3.078 -1.6793 -0.7289 -0.1114
  142SOL     hw  567   2.267   2.882   3.118  0.5032  0.7452  0.1238
  142SOL     vw  568   2.330   2.846   3.070 -0.5726 -0.4879 -0.4290
  143SOL     ow  569   4.732   2.976   5.647  0.2137 -0.1309  0.4848
  143SOL     hw  570   4.676   3.026   5.706  0.8772  0.4399  0.6496
  143SOL     hw  571   4.712   2.884   5.667 -1.1618  0.0610  0.0342
  143SOL     vw  572   4.722   2.970   5.658  0.1197 -0.0303  0.4468
  144SOL     ow  573   7.070   5.002   5.100 -0.0693 -0.1290 -0.4939
  144SOL     hw  574   7.021   5.053   5.036  1.2071  1.0336 -0.5860
  144SOL     hw  575   7.018   5.007   5.180 -0.4258  0.5517 -0.7588
  144SOL     vw  576   7.057   5.009   5.102  0.0522  0.1144 -0.5412
  145SOL     ow  577   2.975   6.523   2.281 -0.6269  0.2701  0.2169
  145SOL     hw  578   2.881   6.531   2.298 -0.2770  0.6103  2.2081
  145SOL     hw  579   2.982   6.449   2.220 -2.1678  0.0987  0.2111
  145SOL     vw  580   2.963   6.514   2.275 -0.7840  0.2921  0.4789
  146SOL     ow  581   2.882   3.946   6.977 -0.2555  0.4593 -0.6907
  146SOL     hw  582   2.977   3.943   6.967 -0.1974  1.7958 -0.7469
  146SOL     hw  583   2.850   3.877   6.919  0.6654  0.0875 -0.7828
  146SOL     vw  584   2.890   3.936   6.968 -0.1264  0.5865 -0.7102
  147SOL     ow  585   4.439   1.882   2.007  0.3024 -0.0694 -0.0710
  147SOL     hw  586   4.433   1.977   1.996 -1.3341 -0.1061  0.1906
  147SOL     hw  587   4.458   1.869   2.100  3.8030  0.0097 -0.6328
  147SOL     vw  588   4.441   1.893   2.018  0.5484 -0.0638 -0.1105
  148SOL     ow  589   5.343   0.497   6.195 -0.1111  0.0933  0.1905
  148SOL     hw  590   5.341   0.567   6.130  0.5529 -1.4101 -1.5484
  148SOL     hw  591   5.431   0.501   6.233 -0.1083  0.2767  0.1627
  148SOL     vw  592   5.354   0.507   6.191 -0.0234 -0.0809 -0.0424
  149SOL     ow  593   4.933   1.915   6.968 -0.0339 -0.3566  0.4176
  149SOL     hw  594   5.017   1.898   7.011 -0.1719  0.1051  0.8701
  149SOL     hw  595   4.943   2.003   6.931  0.4063 -1.0770 -1.2645
  149SOL     vw  596   4.946   1.925   6.969  0.0060 -0.3908  0.2551
  150SOL     ow  597   6.882   4.500   5.420  0.3753 -0.5517  0.1351
  150SOL     hw  598   6.946   4.485   5.490  0.7010 -1.3507 -0.3198
  150SOL     hw  599   6.803   4.530   5.466  1.0756  0.5019  0.6963
  150SOL     vw  600   6.880   4.502   5.436  0.5107 -0.5183  0.1493
  151SOL     ow  601   3.570   1.521   0.869 -0.4701 -0.4363 -0.4241
  151SOL     hw  602   3.547   1.570   0.790  0.1634  2.0437  0.8240
  151SOL     hw  603   3.665   1.528   0.875 -0.5721  0.2016  0.9882
  151SOL     vw  604   3.580   1.529   0.860 -0.3999 -0.0250 -0.0730
  152SOL     ow  605   1.845   5.326   2.660  0.3425 -0.6306 -0.0333
  152SOL     hw  606   1.919   5.387   2.668  0.4423 -0.1772 -3.1258
  152SOL     hw  607   1.771   5.374   2.697  1.1981 -0.2863  1.2841
  152SOL     vw  608   1.845   5.341   2.666  0.4686 -0.5252 -0.2676
  153SOL     ow  609   1.241   2.939   0.469  0.2928 -0.6921 -0.3087
  153SOL     hw  610   1.160   2.973   0.431  0.3775 -0.1751 -0.0239
  153SOL     hw  611   1.212   2.871   0.530 -0.0424  0.4869  0.9021
  153SOL     vw  612   1.226   2.934   0.472  0.2598 -0.4683 -0.1114
  154SOL     ow  613   4.961   6.364   3.095 -0.8018 -0.7280 -0.3591
  154SOL     hw  614   4.892   6.357   3.161 -0.9224  2.0546 -0.0553
  154SOL     hw  615   4.981   6.274   3.071 -1.1909 -1.8442  3.0013
  154SOL     vw  616   4.954   6.351   3.101 -0.8688 -0.5083  0.1243
  155SOL     ow  617   7.248   2.821   2.893 -0.2912  0.9700  0.2784
  155SOL     hw  618   7.170   2.807   2.839 -0.0234  2.4479 -0.5732
  155SOL     hw  619   7.258   2.741   2.943 -0.0965 -0.8783 -2.4959
  155SOL     vw  620   7.239   2.809   2.892 -0.2303  0.9211 -0.1999
  156SOL     ow  621   5.815   3.916   3.125  0.0073  1.0073  0.4272
  156SOL     hw  622   5.859   3.832   3.141  0.6112  1.3558  0.6299
  156SOL     hw  623   5.760   3.900   3.048 -0.7738  0.1025  1.1550
  156SOL     vw  624   5.814   3.902   3.117 -0.0162  0.9338  0.5499
  157SOL     ow  625   2.432   3.240   1.694 -0.2631  0.6076  0.3741
  157SOL     hw  626   2.511   3.203   1.653  0.1009 -1.3998  2.6853
  157SOL     hw  627   2.459   3.262   1.783 -2.1133  0.7382  0.9368
  157SOL     vw  628   2.446   3.238   1.700 -0.4592  0.3600  0.7533
  158SOL     ow  629   5.701   3.203   3.766  0.6028  0.0632  0.3549
  158SOL     hw  630   5.742   3.120   3.789  1.3460  0.7224  1.5042
  158SOL     hw  631   5.747   3.231   3.687  0.1733 -0.7245 -0.1866
  158SOL     vw  632   5.712   3.196   3.758  0.6440  0.0465  0.4351
  159SOL     ow  633   6.889   4.425   3.809  1.3230  0.1552 -0.5237
  159SOL     hw  634   6.848   4.350   3.853 -0.4614  0.3317 -1.7616
  159SOL     hw  635   6.877   4.407   3.716  2.4172  1.1742 -0.8873
  159SOL     vw  636   6.882   4.413   3.802  1.2319  0.3126 -0.7350
  160SOL     ow  637   5.168   4.642   6.524 -0.2674  0.1013  0.3725
  160SOL     hw  638   5.201   4.559   6.556  1.2516  0.8700  0.9142
  160SOL     hw  639   5.146   4.626   6.432 -1.7153 -1.3331  0.9423
  160SOL     vw  640   5.170   4.629   6.516 -0.2582  0.0136  0.5190
  161SOL     ow  641   5.022   2.186   6.978  0.6563 -0.5714  0.2730
  161SOL     hw  642   5.073   2.149   6.906 -0.5626  0.7266 -1.3223
  161SOL     hw  643   4.940   2.215   6.937 -0.7289 -1.1407  2.4566
  161SOL     vw  644   5.017   2.185   6.963  0.3130 -0.4753  0.3507
  162SOL     ow  645   5.933   2.298   0.014 -0.5626 -0.0039 -0.0545
  162SOL     hw  646   5.882   2.223  -0.016 -2.5418  0.6532  1.4624
  162SOL     hw  647   5.930   2.294   0.109  0.3113  1.3484  0.0717
  162SOL     vw  648   5.926   2.288   0.023 -0.7083  0.2612  0.1621
  163SOL     ow  649   1.978   1.338   4.386 -0.5972  0.6232 -0.1830
  163SOL     hw  650   1.977   1.244   4.403 -2.3366  0.5847 -0.3252
  163SOL     hw  651   2.056   1.370   4.431 -0.7625 -0.6633  1.0883
  163SOL     vw  652   1.988   1.330   4.394 -0.8485  0.4484 -0.0341
  164SOL     ow  653   2.156   3.406   3.140  0.1272  0.3391 -0.2925
  164SOL     hw  654   2.188   3.466   3.073  0.6872 -0.4400 -0.7366
  164SOL     hw  655   2.061   3.403   3.127  0.0558  1.3294 -0.0841
  164SOL     vw  656   2.148   3.413   3.129  0.1916  0.3669 -0.3237
  165SOL     ow  657   2.885   7.267   1.471  0.2686 -0.3662  0.1662
  165SOL     hw  658   2.971   7.304   1.453  0.2496 -0.5874 -0.4023
  165SOL     hw  659   2.840   7.268   1.386 -0.0308 -0.9139  0.3137
  165SOL     vw  660   2.890   7.272   1.458  0.2265 -0.4678  0.1107
  166SOL     ow  661   3.821   2.357   0.876 -0.6170 -0.0914 -0.4597
  166SOL     hw  662   3.780   2.294   0.934 -0.6991 -1.5655 -2.0302
  166SOL     hw  663   3.898   2.311   0.840  0.1814  1.2337 -0.5205
  166SOL     vw  664   3.826   2.343   0.879 -0.5226 -0.1110 -0.6750
  167SOL     ow  665   0.370   4.698   7.426  0.7691 -0.5923  0.0143
  167SOL     hw  666   0.387   4.612   7.465  2.5612  0.0488  0.7545
  167SOL     hw  667   0.358   4.756   7.501 -2.5388 -0.4925 -0.4609
  167SOL     vw  668   0.371   4.694   7.441  0.5691 -0.4945  0.0494
  168SOL     ow  669   6.554   0.366   4.077  0.0305  0.2518 -0.0935
  168SOL     hw  670   6.542   0.461   4.077  0.5181  0.3182 -0.7831
  168SOL     hw  671   6.587   0.345   3.989  3.1122 -0.1375  1.0140
  168SOL     vw  672   6.557   0.375   4.065  0.5012  0.2092 -0.0386
  169SOL     ow  673   3.962   4.008   1.817  0.1553  0.1347  0.1276
  169SOL     hw  674   3.895   4.039   1.756  0.2048  1.2049  0.6005
  169SOL     hw  675   4.043   4.011   1.766 -0.1916 -1.6202 -0.5980
  169SOL     vw  676   3.963   4.012   1.802  0.1161  0.0441  0.0943
  170SOL     ow  677   3.979   3.461   6.103 -0.4505  0.5796  0.5645
  170SOL     hw  678   3.957   3.445   6.194  1.1190  1.9458  1.2419
  170SOL     hw  679   3.895   3.470   6.058 -1.2370  1.1264  2.1056
  170SOL     vw  680   3.965   3.460   6.109 -0.3473  0.8320  0.8574
  171SOL     ow  681   2.228   5.555   0.987 -0.6470  0.9622  0.5907
  171SOL     hw  682   2.291   5.626   0.974  0.2614 -0.0244 -0.6839
  171SOL     hw  683   2.145   5.600   1.006 -0.3588  2.4255 -1.2686
  171SOL     vw  684   2.225   5.570   0.988 -0.4891  1.0252  0.1772
  172SOL     ow  685   0.381   2.653   0.101 -0.1526 -0.0592 -0.4738
  172SOL     hw  686   0.298   2.673   0.058 -0.5888 -0.6298  0.0802
  172SOL     hw  687   0.364   2.572   0.149  0.2393  0.6698  0.9582
  172SOL     vw  688   0.368   2.645   0.102 -0.1584 -0.0383 -0.2117
  173SOL     ow  689   6.253   6.408   2.824  0.5039 -0.0399 -0.3216
  173SOL     hw  690   6.348   6.413   2.825  0.5826 -0.2721 -2.3892
  173SOL     hw  691   6.224   6.487   2.870  1.6624 -0.3215  0.9542
  173SOL     vw  692   6.261   6.419   2.830  0.6673 -0.1078 -0.4259
  174SOL     ow  693   4.024   1.419   1.765 -0.3151  0.4905 -0.0836
  174SOL     hw  694   4.104   1.405   1.815 -0.9050  1.7138  1.2561
  174SOL     hw  695   4.053   1.468   1.688  0.7244 -2.1308 -1.4891
  174SOL     vw  696   4.038   1.423   1.761 -0.2558  0.3060 -0.0923
  175SOL     ow  697   4.567   6.670   2.388  0.5270  0.1182  0.6914
  175SOL     hw  698   4.577   6.596   2.328  1.8806  0.9175 -0.1250
  175SOL     hw  699   4.488   6.649   2.439  0.7467 -1.7610  0.3438
  175SOL     vw  700   4.558   6.657   2.387  0.7346 -0.0241  0.5379
  176SOL     ow  701   4.766   3.616   4.194  0.3055 -0.3836  0.3798
  176SOL     hw  702   4.684   3.656   4.166 -0.4059  0.2071  3.0222
  176SOL     hw  703   4.740   3.558   4.266  2.2929  0.5487  1.9242
  176SOL     vw  704   4.752   3.613   4.200  0.4740 -0.1827  0.9320
  177SOL     ow  705   1.451   0.410   4.862 -0.7769 -0.3746  0.1732
  177SOL     hw  706   1.468   0.406   4.768  1.6112  0.0996  0.5123
  177SOL     hw  707   1.429   0.501   4.878 -0.5624 -0.3130  0.1342
  177SOL     vw  708   1.451   0.421   4.852 -0.4335 -0.3039  0.2127
  178SOL     ow  709   7.053   6.137   6.562  0.5276  0.3485  1.1391
  178SOL     hw  710   7.001   6.065   6.598  0.4425 -0.7676 -1.0222
  178SOL     hw  711   7.006   6.163   6.483  1.9732  0.9616  0.4424
  178SOL     vw  712   7.040   6.130   6.556  0.7071  0.2823  0.7622
  179SOL     ow  713   0.134   1.722   7.151 -0.3547  0.0925 -0.1598
  179SOL     hw  714   0.104   1.807   7.184  2.1094  1.2296 -0.6392
  179SOL     hw  715   0.194   1.691   7.219  1.6213  0.5508 -1.6010
  179SOL     vw  716   0.138   1.729   7.165  0.2311  0.3031 -0.4134
  180SOL     ow  717   5.179   5.640   3.112  0.3657  0.2238 -0.1187
  180SOL     hw  718   5.231   5.571   3.071  2.1684  1.1479  0.4984
  180SOL     hw  719   5.214   5.646   3.201 -1.5146  0.2120  0.6631
  180SOL     vw  720   5.191   5.632   3.118  0.3555  0.3443  0.0659
  181SOL     ow  721   5.814   1.417   6.655 -0.1241  0.1457  0.1058
  181SOL     hw  722   5.767   1.427   6.573 -1.1684  0.1841  0.6968
  181SOL     hw  723   5.874   1.491   6.658 -2.8886  2.5557  1.2009
  181SOL     vw  724   5.816   1.428   6.645 -0.6266  0.4687  0.3283
  182SOL     ow  725   4.505   2.859   4.593 -0.3032 -0.2831 -0.3892
  182SOL     hw  726   4.575   2.794   4.601 -0.6943 -0.6035  0.5150
  182SOL     hw  727   4.454   2.829   4.517  1.3622  0.7739 -2.0008
  182SOL     vw  728   4.508   2.846   4.584 -0.1352 -0.1860 -0.4826
  183SOL     ow  729   6.904   7.030   6.743 -0.2009 -0.8559  0.6968
  183SOL     hw  730   6.887   6.985   6.660  2.7136  0.2138 -0.6464
  183SOL     hw  731   6.863   7.116   6.731  0.0677 -0.7635  0.4220
  183SOL     vw  732   6.896   7.036   6.730  0.2191 -0.7026  0.4833
  184SOL     ow  733   5.873   3.328   1.158 -0.8738 -0.3376  0.2196
  184SOL     hw  734   5.949   3.270   1.153 -1.0383 -0.6330  1.0804
  184SOL     hw  735   5.807   3.285   1.104 -1.1053 -1.1338  1.1100
  184SOL     vw  736   5.875   3.315   1.150 -0.9260 -0.4817  0.4507
  185SOL     ow  737   1.109   6.312   4.392 -0.3192 -0.5773 -0.2444
  185SOL     hw  738   1.014   6.299   4.397 -0.2009 -1.1678  0.7118
  185SOL     hw  739   1.125   6.333   4.300 -1.6105  1.5398 -0.0519
  185SOL     vw  740   1.099   6.313   4.381 -0.4739 -0.3757 -0.0927
  186SOL     ow  741   6.764   4.810   7.083  0.6076 -0.0937 -0.7412
  186SOL     hw  742   6.828   4.754   7.127 -0.5282 -0.6116  0.3149
  186SOL     hw  743   6.778   4.897   7.120  1.5444  0.0869 -1.4737
  186SOL     vw  744   6.774   4.814   7.093  0.5817 -0.1383 -0.6983
  187SOL     ow  745   2.724   5.938   6.507 -0.0144 -0.3840  0.0796
  187SOL     hw  746   2.711   5.984   6.424  0.6171 -1.8263 -0.8543
  187SOL     hw  747   2.725   6.008   6.573  1.5190  1.0341 -1.3418
  187SOL     vw  748   2.723   5.953   6.505  0.2712 -0.3872 -0.2313
  188SOL     ow  749   5.214   5.451   1.259 -0.0689  0.3242  0.2139
  188SOL     hw  750   5.201   5.374   1.204 -1.2849  0.4163  0.3529
  188SOL     hw  751   5.213   5.418   1.349  0.4674  0.3708  0.2432
  188SOL     vw  752   5.212   5.436   1.264 -0.1588  0.3421  0.2362
  189SOL     ow  753   0.600   2.835   7.280 -0.3601  0.6507 -0.4928
  189SOL     hw  754   0.678   2.794   7.243 -0.9752 -0.8996 -0.1241
  189SOL     hw  755   0.533   2.768   7.275 -1.3785  1.5843  0.2504
  189SOL     vw  756   0.602   2.821   7.274 -0.5756  0.5695 -0.3459
  190SOL     ow  757   0.532   4.471   4.246  0.0980  0.0212  0.0986
  190SOL     hw  758   0.534   4.457   4.341 -1.1590 -0.2775  0.1044
  190SOL     hw  759   0.540   4.566   4.235 -0.1070  0.0942  0.5360
  190SOL     vw  760   0.533   4.482   4.257 -0.0949 -0.0086  0.1571
  191SOL     ow  761   7.205   2.262   5.320 -0.5993 -0.1978 -0.7237
  191SOL     hw  762   7.224   2.248   5.227  0.5221  0.6971 -0.6589
  191SOL     hw  763   7.291   2.261   5.362 -1.1422 -1.2408  0.4135
  191SOL     vw  764   7.219   2.260   5.313 -0.5226 -0.2173 -0.5648
  192SOL     ow  765   3.712   5.830   3.015 -0.1613  0.1872 -0.2449
  192SOL     hw  766   3.800   5.793   3.018 -0.4338 -0.5065 -0.5458
  192SOL     hw  767   3.654   5.755   3.002 -0.7804  0.6589 -0.3120
  192SOL     vw  768   3.716   5.816   3.014 -0.2791  0.1581 -0.2934
  193SOL     ow  769   4.474   6.755   1.933 -0.0454 -0.0073  0.3386
  193SOL     hw  770   4.538   6.799   1.877  0.2263 -1.6009 -0.6531
  193SOL     hw  771   4.392   6.762   1.884 -0.0661 -0.3269  0.3297
  193SOL     vw  772   4.472   6.762   1.919 -0.0122 -0.2596  0.2066
  194SOL     ow  773   4.514   7.354   6.629  0.0012  0.0315  0.2078
  194SOL     hw  774   4.474   7.365   6.715 -0.2095 -0.4112  0.1694
  194SOL     hw  775   4.604   7.385   6.640 -0.0155 -0.0518  0.5959
  194SOL     vw  776   4.521   7.359   6.642 -0.0286 -0.0377  0.2542
  195SOL     ow  777   1.363   5.327   1.043  0.5617  0.0619 -0.6768
  195SOL     hw  778   1.334   5.240   1.015 -3.3705  0.2376  2.0206
  195SOL     hw  779   1.310   5.388   0.992 -1.5000  0.5533  1.8778
  195SOL     vw  780   1.352   5.324   1.033 -0.2291  0.1500  0.0162
  196SOL     ow  781   1.428   0.283   1.271 -0.0023  0.1899 -0.2393
  196SOL     hw  782   1.501   0.331   1.233  0.5317 -0.4228 -0.0128
  196SOL     hw  783   1.464   0.243   1.350 -0.1767 -1.2832 -0.8668
  196SOL     vw  784   1.442   0.284   1.277  0.0451 -0.0853 -0.2922
  197SOL     ow  785   2.949   1.292   5.986  0.3441  0.0211 -0.1353
  197SOL     hw  786   2.904   1.209   6.004  0.3673  0.1879  0.7064
  197SOL     hw  787   3.040   1.266   5.971  0.2254 -0.1747 -0.5306
  197SOL     vw  788   2.955   1.278   5.986  0.3314  0.0174 -0.0763
  198SOL     ow  789   4.954   2.318   0.710  0.1662  0.1900 -0.5128
  198SOL     hw  790   4.875   2.372   0.704  0.3513  0.4112 -1.0338
  198SOL     hw  791   5.021   2.376   0.747 -0.0637 -0.1718  0.5014
  198SOL     vw  792   4.952   2.333   0.714  0.1605  0.1715 -0.4477
  199SOL     ow  793   3.578   0.590   6.355 -0.1051 -0.0421  0.4926
  199SOL     hw  794   3.522   0.538   6.298  2.0668 -0.8830 -1.0241
  199SOL     hw  795   3.562   0.556   6.443 -0.5240 -1.6400 -0.1646
  199SOL     vw  796   3.569   0.579   6.359  0.1261 -0.3639  0.2058
  200SOL     ow  797   6.239   6.414   2.553  0.2912  0.1103 -0.1618
  200SOL     hw  798   6.241   6.418   2.649 -1.5846  0.8068 -0.1141
  200SOL     hw  799   6.197   6.331   2.533 -0.3211  0.4659 -0.3570
  200SOL     vw  800   6.234   6.404   2.563 -0.0370  0.2489 -0.1812
  201SOL     ow  801   2.840   3.880   5.863 -0.1698  0.7748  0.2075
  201SOL     hw  802   2.840   3.826   5.943  1.4622 -1.8613 -1.4320
  201SOL     hw  803   2.930   3.913   5.857  0.0310  0.0593 -1.0495
  201SOL     vw  804   2.852   3.877   5.873  0.0720  0.3327 -0.1743
  202SOL     ow  805   5.462   1.940   0.189  0.0766 -0.1674 -0.3755
  202SOL     hw  806   5.391   1.936   0.126 -1.2944 -0.3226  1.1255
  202SOL     hw  807   5.512   1.860   0.173 -1.4413 -1.2422  0.0462
  202SOL     vw  808   5.460   1.929   0.179 -0.3047 -0.3297 -0.1218
  203SOL     ow  809   1.081   6.645   1.960  0.7050 -0.0768 -0.0624
  203SOL     hw  810   1.123   6.671   1.878 -0.0075  0.9674 -0.1142
  203SOL     hw  811   1.002   6.598   1.931  1.8283 -2.1496  0.0301
  203SOL     vw  812   1.076   6.642   1.945  0.7593 -0.2127 -0.0570
  204SOL     ow  813   5.581   5.630   1.425  0.1236  0.0419 -0.0475
  204SOL     hw  814   5.649   5.575   1.465  0.6375 -0.1489 -1.1484
  204SOL     hw  815   5.525   5.655   1.498  1.2361 -0.0008  0.8474
  204SOL     vw  816   5.582   5.626   1.440  0.3383  0.0110 -0.0747
  205SOL     ow  817   1.665   2.193   0.138  0.0167  0.4925 -0.1573
  205SOL     hw  818   1.639   2.198   0.045 -1.8389 -1.1254  0.2073
  205SOL     hw  819   1.619   2.266   0.179  2.0484  2.1778 -0.6708
  205SOL     vw  820   1.655   2.203   0.131  0.0399  0.5014 -0.1770
  206SOL     ow  821   1.651   1.922   0.924 -0.2391  0.4304 -0.1124
  206SOL     hw  822   1.562   1.951   0.904 -0.7423 -0.6384  0.5084
  206SOL     hw  823   1.661   1.937   1.018 -0.0383 -0.1369 -0.0379
  206SOL     vw  824   1.640   1.928   0.934 -0.2789  0.2146 -0.0207
  207SOL     ow  825   6.626   5.597   6.735 -0.7181 -0.1089  0.6818
  207SOL     hw  826   6.598   5.628   6.821  0.4367 -0.1073  1.0811
  207SOL     hw  827   6.614   5.502   6.738  1.0427 -0.3401  1.5507
  207SOL     vw  828   6.621   5.589   6.747 -0.3335 -0.1392  0.8492
  208SOL     ow  829   4.430   0.325   1.590  0.3503  0.5227  0.1975
  208SOL     hw  830   4.435   0.259   1.658  0.2467  0.6625  0.3411
  208SOL     hw  831   4.336   0.340   1.577  0.3700  0.5312  0.0588
  208SOL     vw  832   4.419   0.319   1.597  0.3388  0.5423  0.1981
  209SOL     ow  833   3.811   3.619   4.297 -0.1134  0.5816  0.4360
  209SOL     hw  834   3.753   3.568   4.240  0.9846  0.1351 -0.3370
  209SOL     hw  835   3.769   3.617   4.383 -1.0663  0.0100 -0.0259
  209SOL     vw  836   3.798   3.612   4.301 -0.0943  0.4473  0.2732
  210SOL     ow  837   1.903   2.929   3.864  0.4534 -0.2276 -1.0410
  210SOL     hw  838   1.953   2.870   3.809  0.7156 -1.0399  0.0298
  210SOL     hw  839   1.836   2.874   3.904  1.7167 -0.2191  1.2533
  210SOL     vw  840   1.901   2.914   3.862  0.6547 -0.3337 -0.5968
  211SOL     ow  841   5.361   7.197   0.393  0.2325 -0.1751 -0.3631
  211SOL     hw  842   5.412   7.235   0.465  0.1485 -1.0526  0.1706
  211SOL     hw  843   5.270   7.217   0.415  0.2356 -0.0441 -0.4666
  211SOL     vw  844   5.356   7.205   0.405  0.2217 -0.2735 -0.3063
  212SOL     ow  845   6.572   7.139   3.148 -0.0061  0.2371 -0.0795
  212SOL     hw  846   6.582   7.046   3.127  1.4575  0.6789 -1.5888
  212SOL     hw  847   6.647   7.181   3.105 -0.6596  2.1194  0.5320
  212SOL     vw  848   6.583   7.132   3.139  0.1011  0.5436 -0.1979
  213SOL     ow  849   5.972   6.650   2.802 -0.6820 -0.0499  0.7176
  213SOL     hw  850   5.953   6.581   2.738 -0.2411  1.0169 -0.6276
  213SOL     hw  851   6.018   6.605   2.873 -0.5307 -1.1650 -0.0549
  213SOL     vw  852   5.976   6.635   2.803 -0.6039 -0.0563  0.4382
  214SOL     ow  853   7.420   7.220   1.066 -0.0319 -0.0900 -0.4347
  214SOL     hw  854   7.437   7.249   1.155  0.7843 -1.0021 -0.2791
  214SOL     hw  855   7.474   7.277   1.011  0.2731 -0.2167 -0.2649
  214SOL     vw  856   7.429   7.232   1.070  0.1161 -0.2272 -0.3918
  215SOL     ow  857   1.451   1.228   0.198  0.1403  0.1073  0.5601
  215SOL     hw  858   1.486   1.179   0.123 -0.2461  1.4211 -0.4998
  215SOL     hw  859   1.376   1.276   0.163  0.6665  1.6779  1.4928
  215SOL     vw  860   1.446   1.228   0.184  0.1587  0.4878  0.5433
  216SOL     ow  861   3.535   5.174   1.223 -0.8443 -0.2882 -0.6466
  216SOL     hw  862   3.499   5.262   1.220 -0.1983 -0.0328 -1.5400
  216SOL     hw  863   3.531   5.143   1.133  1.2886 -0.1602 -0.8550
  216SOL     vw  864   3.530   5.182   1.211 -0.4777 -0.2377 -0.7920
  217SOL     ow  865   2.367   3.720   6.559  0.2786 -0.0367  0.4317
  217SOL     hw  866   2.429   3.764   6.618 -1.7764  1.0850  1.8595
  217SOL     hw  867   2.330   3.791   6.507  1.4040 -0.9159 -1.6849
  217SOL     vw  868   2.370   3.735   6.560  0.1559 -0.0049  0.3409
  218SOL     ow  869   4.823   6.944   1.205  0.0933  0.1820 -0.3752
  218SOL     hw  870   4.881   6.908   1.138  0.9836  2.3751 -0.8647
  218SOL     hw  871   4.840   6.892   1.283  1.4881 -0.3016 -0.9834
  218SOL     vw  872   4.833   6.933   1.207  0.3948  0.4075 -0.5201
  219SOL     ow  873   7.297   2.172   1.136  0.2492 -0.3963  0.7480
  219SOL     hw  874   7.212   2.157   1.093 -0.2604  0.6531  1.3340
  219SOL     hw  875   7.341   2.087   1.133  0.1596 -0.4364 -1.6478
  219SOL     vw  876   7.291   2.159   1.130  0.1702 -0.2632  0.5093
  220SOL     ow  877   0.259   6.140   0.616  0.0396  0.4775  0.5125
  220SOL     hw  878   0.306   6.113   0.537 -1.5029  0.2752 -0.3631
  220SOL     hw  879   0.269   6.067   0.676  0.2919  0.1643  0.0975
  220SOL     vw  880   0.267   6.127   0.613 -0.1306  0.4094  0.3422
  221SOL     ow  881   0.054   5.230   1.000 -0.0481  0.2382  0.0040
  221SOL     hw  882  -0.019   5.181   0.962  0.5054  0.7510 -1.8039
  221SOL     hw  883   0.012   5.308   1.038 -0.6037 -0.2280  0.3684
  221SOL     vw  884   0.039   5.234   1.000 -0.0484  0.2444 -0.1864
  222SOL     ow  885   4.904   2.426   2.049  0.4264 -0.2564  0.8397
  222SOL     hw  886   4.821   2.473   2.060  0.4003 -0.3168  0.8998
  222SOL     hw  887   4.907   2.365   2.123  0.5054 -0.2824  0.8146
  222SOL     vw  888   4.893   2.424   2.060  0.4334 -0.2677  0.8444
  223SOL     ow  889   2.196   0.431   3.733 -0.0245 -0.3229 -0.0913
  223SOL     hw  890   2.288   0.436   3.759  0.3371 -0.1851 -1.3415
  223SOL     hw  891   2.175   0.337   3.735  0.4387 -0.4428 -0.7730
  223SOL     vw  892   2.205   0.419   3.737  0.0844 -0.3206 -0.3462
  224SOL     ow  893   4.500   2.217   1.309 -0.0080 -0.6210  0.2106
  224SOL     hw  894   4.574   2.251   1.259  0.2313 -0.7454  0.4786
  224SOL     hw  895   4.451   2.163   1.247 -2.1631  2.5923 -1.2140
  224SOL     vw  896   4.503   2.214   1.294 -0.2608 -0.2135  0.0579
  225SOL     ow  897   5.074   3.739   4.123 -0.4182 -0.1714 -0.5377
  225SOL     hw  898   5.052   3.679   4.052 -0.2585 -1.1225  0.1853
  225SOL     hw  899   4.991   3.780   4.147 -0.3810  0.5827 -1.6246
  225SOL     vw  900   5.060   3.736   4.117 -0.3924 -0.1974 -0.5858
  226SOL     ow  901   5.463   3.060   3.687  0.0200 -0.4868  0.6658
  226SOL     hw  902   5.517   2.995   3.733  0.4369 -2.2808 -2.1036
  226SOL     hw  903   5.506   3.071   3.602 -1.4816  1.5402  0.1039
  226SOL     vw  904   5.476   3.053   3.682 -0.1230 -0.4561  0.2263
  227SOL     ow  905   2.130   2.150   0.143 -0.2050  0.5355  0.3295
  227SOL     hw  906   2.057   2.174   0.201 -0.2622 -0.5885  0.7507
  227SOL     hw  907   2.130   2.054   0.143 -1.4876  0.3844 -3.1240
  227SOL     vw  908   2.120   2.141   0.151 -0.3817  0.3673 -0.0706
  228SOL     ow  909   5.492   2.943   2.240  0.0440  0.1005 -0.1737
  228SOL     hw  910   5.564   2.929   2.301 -0.1068  0.3179  0.0534
  228SOL     hw  911   5.421   2.977   2.294  0.1838  1.1054 -0.6102
  228SOL     vw  912   5.492   2.946   2.255  0.0424  0.2617 -0.2013
  229SOL     ow  913   0.817   2.668   2.909 -0.9071 -0.1307  0.2839
  229SOL     hw  914   0.878   2.721   2.858  1.7679 -1.0814  2.3041
  229SOL     hw  915   0.829   2.579   2.876 -1.9076 -0.2223  0.1208
  229SOL     vw  916   0.826   2.664   2.898 -0.6862 -0.2683  0.5289
  230SOL     ow  917   4.696   6.913   6.754  0.3541 -0.1406  0.2796
  230SOL     hw  918   4.659   6.926   6.841  0.0678  2.2823 -0.1371
  230SOL     hw  919   4.788   6.936   6.763  0.8191 -1.8688  0.3383
  230SOL     vw  920   4.703   6.917   6.766  0.3779 -0.0486  0.2322
  231SOL     ow  921   3.398   3.531   5.233 -0.9662 -0.3151 -0.4329
  231SOL     hw  922   3.337   3.473   5.278 -1.1012 -0.1654 -0.4211
  231SOL     hw  923   3.343   3.603   5.201 -1.0979 -1.0312 -1.9225
  231SOL     vw  924   3.382   3.533   5.235 -1.0014 -0.3899 -0.6278
  232SOL     ow  925   3.643   3.353   1.246  0.2361  0.6404  0.3071
  232SOL     hw  926   3.596   3.278   1.211 -0.0851  1.5346 -1.2799
  232SOL     hw  927   3.732   3.344   1.213  0.2796  0.7975  0.3792
  232SOL     vw  928   3.649   3.342   1.237  0.1994  0.7790  0.1072
  233SOL     ow  929   0.468   4.700   6.041  0.6348 -0.0995 -0.0715
  233SOL     hw  930   0.563   4.699   6.047  0.5740  0.4001  1.2677
  233SOL     hw  931   0.438   4.717   6.130 -0.6584  2.6486 -0.9163
  233SOL     vw  932   0.477   4.702   6.054  0.4561  0.3293 -0.0064
  234SOL     ow  933   0.569   5.654   5.352  0.3345 -0.1499  0.2106
  234SOL     hw  934   0.563   5.561   5.329  0.0988 -0.0491 -0.1426
  234SOL     hw  935   0.566   5.700   5.268 -0.2755  0.2185  0.4294
  234SOL     vw  936   0.568   5.648   5.338  0.2229 -0.0877  0.1929
  235SOL     ow  937   1.503   5.305   7.379  0.4505 -0.1884  0.2157
  235SOL     hw  938   1.439   5.328   7.446  1.5269  2.3879  0.4796
  235SOL     hw  939   1.454   5.312   7.297  0.1808  1.1006  0.4582
  235SOL     vw  940   1.488   5.309   7.377  0.5569  0.3216  0.2828
  236SOL     ow  941   6.321   1.996   4.973 -0.1904 -0.6968 -0.4264
  236SOL     hw  942   6.347   1.915   4.927  0.1437  0.0623 -1.6320
  236SOL     hw  943   6.276   2.047   4.906  2.1988  1.3901 -0.6064
  236SOL     vw  944   6.319   1.992   4.958  0.1688 -0.3213 -0.6092
  237SOL     ow  945   2.225   3.905   2.380  0.1872 -0.1054  0.0513
  237SOL     hw  946   2.225   3.950   2.295 -0.8072 -0.9147 -0.3934
  237SOL     hw  947   2.310   3.927   2.419 -0.1508  1.9399 -0.2594
  237SOL     vw  948   2.236   3.914   2.374  0.0113  0.0576 -0.0484
  238SOL     ow  949   1.903   1.570   4.680 -0.2104  0.1984  0.5681
  238SOL     hw  950   1.915   1.659   4.646 -0.9262 -0.0479 -0.3713
  238SOL     hw  951   1.873   1.520   4.605  1.7227 -1.2380  0.6816
  238SOL     vw  952   1.901   1.575   4.666 -0.0498 -0.0237  0.4590
  239SOL     ow  953   2.017   2.575   0.302 -0.1742  0.2300 -0.2672
  239SOL     hw  954   2.106   2.572   0.337  0.3199 -1.8000 -1.5055
  239SOL     hw  955   1.961   2.591   0.378  1.2542  2.5784  0.4125
  239SOL     vw  956   2.021   2.577   0.316  0.0794  0.2720 -0.3409
  240SOL     ow  957   6.951   5.103   2.432  0.1486 -0.0263 -0.3136
  240SOL     hw  958   7.001   5.027   2.462 -0.3187 -0.2450 -0.0806
  240SOL     hw  959   6.964   5.169   2.500  3.9293  1.6488 -2.3638
  240SOL     vw  960   6.959   5.102   2.445  0.5858  0.1659 -0.5534
  241SOL     ow  961   5.218   0.430   3.744  0.3059 -0.6023 -0.2172
  241SOL     hw  962   5.248   0.357   3.798 -1.4324 -1.1573  0.0750
  241SOL     hw  963   5.132   0.401   3.711  1.2956 -0.3518 -3.3736
  241SOL     vw  964   5.210   0.416   3.746  0.2069 -0.6425 -0.5951
  242SOL     ow  965   4.026   6.249   0.919 -0.3769  0.4611 -0.1800
  242SOL     hw  966   3.980   6.199   0.987  0.7322 -1.2586 -0.6232
  242SOL     hw  967   4.059   6.326   0.965 -0.4817 -0.1762  1.0297
  242SOL     vw  968   4.025   6.252   0.934 -0.2444  0.1502 -0.0788
  243SOL     ow  969   7.076   7.226   1.560 -0.0833  0.3758 -0.0976
  243SOL     hw  970   7.044   7.156   1.616 -0.5704  1.7971  1.4844
  243SOL     hw  971   7.156   7.191   1.521 -1.3114 -1.7424 -0.9077
  243SOL     vw  972   7.082   7.212   1.562 -0.3095  0.2840  0.0042
  244SOL     ow  973   0.593   6.216   6.681  0.0029 -0.1586  0.8569
  244SOL     hw  974   0.579   6.126   6.711 -0.5491 -0.1466  0.6513
  244SOL     hw  975   0.624   6.206   6.590 -0.0765 -0.1402  0.8278
  244SOL     vw  976   0.595   6.203   6.673 -0.0804 -0.1547  0.8259
  245SOL     ow  977   4.135   6.091   0.677 -0.1055 -0.3778 -0.0366
  245SOL     hw  978   4.220   6.073   0.717  0.1712  3.9330  1.9690
  245SOL     hw  979   4.155   6.122   0.589  0.3660 -0.1373  0.1540
  245SOL     vw  980   4.149   6.093   0.671 -0.0067  0.2227  0.2532
  246SOL     ow  981   2.165   1.810   0.756  0.2889  0.0958  0.0648
  246SOL     hw  982   2.226   1.856   0.698  0.5612 -0.4742 -0.1020
  246SOL     hw  983   2.142   1.730   0.709  1.1948 -0.7993  1.1149
  246SOL     vw  984   2.170   1.806   0.742  0.4444 -0.0975  0.1813
  247SOL     ow  985   6.734   5.997   7.260 -0.2278  0.1749 -0.3852
  247SOL     hw  986   6.640   5.999   7.240 -0.2766  1.9819 -0.0959
  247SOL     hw  987   6.746   6.067   7.324  1.2602 -0.3071 -0.1139
  247SOL     vw  988   6.723   6.006   7.266 -0.0381  0.3495 -0.3114
  248SOL     ow  989   6.831   6.231   3.738 -0.1404 -0.2334 -0.0320
  248SOL     hw  990   6.920   6.246   3.709 -0.1328  1.8929  0.9500
  248SOL     hw  991   6.837   6.154   3.795  0.9578 -0.3926 -0.3418
  248SOL     vw  992   6.843   6.223   3.742  0.0055  0.0262  0.0566
  249SOL     ow  993   1.594   1.962   0.251  0.1227  0.2038 -0.2018
  249SOL     hw  994   1.597   1.882   0.198  0.3782  0.6852 -0.9273
  249SOL     hw  995   1.620   2.032   0.191  0.0980  0.8097  0.4770
  249SOL     vw  996   1.598   1.961   0.236  0.1531  0.3473 -0.2080
  250SOL     ow  997   1.396   2.521   6.544 -0.5376  0.4563 -0.5914
  250SOL     hw  998   1.312   2.553   6.579 -1.1158 -2.9333  1.6638
  250SOL     hw  999   1.373   2.479   6.462 -0.9227  0.2050 -0.3588
  250SOL     vw 1000   1.382   2.520   6.538 -0.6646 -0.0240 -0.2632
  251SOL     ow 1001   6.492   4.861   7.122 -0.1843  0.3183 -0.3865
  251SOL     hw 1002   6.488   4.946   7.166 -1.1196  0.6861 -1.1298
  251SOL     hw 1003   6.400   4.834   7.113 -0.0714  0.4357 -2.3942
  251SOL     vw 1004   6.480   4.869   7.127 -0.2930  0.3822 -0.7493
  252SOL     ow 1005   6.880   3.631   4.911 -0.2964 -0.4761  0.1296
  252SOL     hw 1006   6.803   3.584   4.881 -0.5401  0.2415 -0.3982
  252SOL     hw 1007   6.846   3.713   4.946  0.2874  0.2211 -0.8913
  252SOL     vw 1008   6.865   3.636   4.912 -0.2515 -0.2894 -0.0746
  253SOL     ow 1009   7.146   5.587   5.609 -0.1021 -0.1759 -0.4232
  253SOL     hw 1010   7.219   5.558   5.664 -0.2327 -1.1600 -0.7409
  253SOL     hw 1011   7.070   5.539   5.642 -0.0244 -1.4224 -1.9533
  253SOL     vw 1012   7.146   5.577   5.621 -0.1090 -0.4702 -0.6669
  254SOL     ow 1013   0.977   1.719   2.497  0.0102  0.6056  0.2263
  254SOL     hw 1014   0.980   1.760   2.410 -2.4721 -0.1387 -0.3023
  254SOL     hw 1015   0.897   1.755   2.537 -0.5687 -1.3705  0.9378
  254SOL     vw 1016   0.967   1.729   2.491 -0.3937  0.2466  0.2503
  255SOL     ow 1017   7.405   2.073   4.859  0.3620  0.1905 -0.1475
  255SOL     hw 1018   7.447   2.144   4.811  0.5610  1.2555  1.5189
  255SOL     hw 1019   7.472   2.042   4.920 -0.0657 -0.7391 -0.1237
  255SOL     vw 1020   7.420   2.078   4.861  0.3321  0.2084  0.0758
  256SOL     ow 1021   0.352   2.405   4.889  0.2834  0.2828  0.1036
  256SOL     hw 1022   0.390   2.479   4.935  2.0985  0.9454 -2.2406
  256SOL     hw 1023   0.343   2.435   4.798  1.3342 -2.3881 -0.9897
  256SOL     vw 1024   0.356   2.418   4.883  0.6615  0.0178 -0.3502
  257SOL     ow 1025   4.654   7.273   5.955 -0.1966  0.1454 -0.4118
  257SOL     hw 1026   4.627   7.295   6.044  1.1175 -0.6099  0.1944
  257SOL     hw 1027   4.701   7.351   5.925 -0.9882  0.5557 -0.6052
  257SOL     vw 1028   4.657   7.287   5.963 -0.1278  0.0999 -0.3572
  258SOL     ow 1029   0.533   0.646   1.688 -0.4488  0.4066 -0.3709
  258SOL     hw 1030   0.457   0.597   1.656 -1.4513  0.6974  1.4114
  258SOL     hw 1031   0.528   0.639   1.784  3.1117 -1.5457 -0.1574
  258SOL     vw 1032   0.522   0.639   1.697 -0.1113  0.1873 -0.1076
  259SOL     ow 1033   3.638   3.956   0.357 -0.2228 -0.1019  0.4656
  259SOL     hw 1034   3.701   3.976   0.287 -2.0877  2.1014 -0.7315
  259SOL     hw 1035   3.573   3.900   0.315 -0.1323 -0.6964  1.1125
  259SOL     vw 1036   3.638   3.951   0.342 -0.4570  0.1103  0.3930
  260SOL     ow 1037   4.046   7.397   2.169  0.3830  0.5116 -0.0443
  260SOL     hw 1038   4.107   7.427   2.237  0.2682 -1.7192  1.1382
  260SOL     hw 1039   4.095   7.330   2.121 -1.3220 -2.0256  1.5392
  260SOL     vw 1040   4.061   7.392   2.172  0.1433 -0.1175  0.3206
  261SOL     ow 1041   2.885   6.944   3.380  0.0190  0.1458  0.0147
  261SOL     hw 1042   2.834   7.024   3.364 -0.4249  0.0380  0.8261
  261SOL     hw 1043   2.956   6.972   3.437  0.6120  0.2012 -0.7360
  261SOL     vw 1044   2.888   6.958   3.386  0.0386  0.1390  0.0226
  262SOL     ow 1045   2.197   4.556   6.386  0.4764 -0.2865  0.1784
  262SOL     hw 1046   2.186   4.618   6.458  1.5774  0.6600 -0.4276
  262SOL     hw 1047   2.149   4.596   6.313 -1.5578 -1.7602  0.6177
  262SOL     vw 1048   2.189   4.570   6.386  0.3533 -0.3562  0.1566
  263SOL     ow 1049   2.780   5.208   3.508 -0.5837  0.4929  0.4717
  263SOL     hw 1050   2.873   5.218   3.488 -0.8383  1.4854 -0.2672
  263SOL     hw 1051   2.762   5.115   3.488  0.1391  0.4099  0.1570
  263SOL     vw 1052   2.790   5.197   3.502 -0.5220  0.6130  0.3327
  264SOL     ow 1053   4.220   7.334   3.946  0.3471  0.0804  0.7048
  264SOL     hw 1054   4.210   7.250   3.991  0.2532 -1.0606 -1.3223
  264SOL     hw 1055   4.267   7.389   4.008 -0.5771 -1.0927  2.5249
  264SOL     vw 1056   4.225   7.330   3.960  0.2129 -0.2251  0.6775
  265SOL     ow 1057   0.479   4.563   1.385  0.1163  0.8496  0.5892
  265SOL     hw 1058   0.442   4.578   1.472  1.5435 -1.3859  1.6790
  265SOL     hw 1059   0.566   4.526   1.402  1.7147  3.1215 -1.8346
  265SOL     vw 1060   0.485   4.560   1.399  0.5155  0.8545  0.4132
  266SOL     ow 1061   4.657   2.291   7.205  0.2914  0.3519  0.6676
  266SOL     hw 1062   4.661   2.218   7.266 -2.7185 -1.4236 -1.0272
  266SOL     hw 1063   4.633   2.366   7.259 -0.5540 -0.7771  1.9177
  266SOL     vw 1064   4.654   2.291   7.220 -0.2174 -0.0314  0.6089
  267SOL     ow 1065   2.970   3.782   1.629 -0.0119 -0.1033 -0.2867
  267SOL     hw 1066   2.910   3.721   1.586  0.0472 -0.4925  0.1866
  267SOL     hw 1067   2.950   3.775   1.722 -0.1519  0.7543 -0.2402
  267SOL     vw 1068   2.960   3.773   1.635 -0.0226 -0.0415 -0.2182
  268SOL     ow 1069   0.805   2.814   2.542 -0.4492 -0.3038  0.0054
  268SOL     hw 1070   0.882   2.865   2.516  0.3356 -1.9467 -1.0575
  268SOL     hw 1071   0.823   2.725   2.511 -2.5021 -0.8848  0.3005
  268SOL     vw 1072   0.817   2.809   2.534 -0.6165 -0.5972 -0.0958
  269SOL     ow 1073   2.695   5.492   2.741 -0.4001 -0.1574 -0.1360
  269SOL     hw 1074   2.603   5.515   2.725 -0.8326 -0.6393  1.4194
  269SOL     hw 1075   2.740   5.576   2.750 -0.3918  0.1043 -2.2425
  269SOL     vw 1076   2.689   5.506   2.740 -0.4561 -0.1864 -0.2087
  270SOL     ow 1077   1.616   5.870   0.431  0.0603 -0.0012  0.4723
  270SOL     hw 1078   1.666   5.893   0.509  2.5796 -0.4379 -0.9051
  270SOL     hw 1079   1.562   5.947   0.414  2.7150  1.9606  0.2248
  270SOL     vw 1080   1.616   5.883   0.439  0.7429  0.2000  0.2579
  271SOL     ow 1081   5.994   6.403   5.737 -0.1544  0.2755 -0.1055
  271SOL     hw 1082   6.009   6.371   5.826 -1.7632 -0.9769 -0.2546
  271SOL     hw 1083   6.052   6.350   5.682 -0.8740 -0.5888 -0.0482
  271SOL     vw 1084   6.004   6.392   5.741 -0.4616 -0.0038 -0.1178
  272SOL     ow 1085   6.681   5.890   1.371  0.3180 -0.7465  0.0061
  272SOL     hw 1086   6.680   5.796   1.385  1.0743 -0.7423  0.1087
  272SOL     hw 1087   6.607   5.923   1.422  2.4728 -0.8304  3.4451
  272SOL     vw 1088   6.671   5.882   1.379  0.7017 -0.7570  0.4734
  273SOL     ow 1089   4.126   3.347   2.861  0.1913  0.0697  0.8196
  273SOL     hw 1090   4.051   3.406   2.855 -0.1619 -0.5147 -0.8759
  273SOL     hw 1091   4.202   3.405   2.858 -0.1702  0.5237  0.1723
  273SOL     vw 1092   4.126   3.362   2.860  0.0970  0.0523  0.5105
  274SOL     ow 1093   3.680   3.116   2.617 -0.4396  0.3028 -0.0638
  274SOL     hw 1094   3.625   3.187   2.585 -1.5155 -0.4870 -0.0272
  274SOL     hw 1095   3.626   3.071   2.683  1.2285  1.1371  2.0205
  274SOL     vw 1096   3.666   3.119   2.622 -0.3616  0.3086  0.2161
  275SOL     ow 1097   6.441   6.030   2.078 -0.5853  0.0319  0.2461
  275SOL     hw 1098   6.411   5.994   2.162 -0.0098  0.3265  0.5832
  275SOL     hw 1099   6.360   6.044   2.028 -0.8238 -1.9304  0.0035
  275SOL     vw 1100   6.426   6.027   2.083 -0.5410 -0.1881  0.2586
  276SOL     ow 1101   0.243   2.230   4.564  0.3042 -0.6243  0.5590
  276SOL     hw 1102   0.189   2.162   4.525  2.0567 -2.0834  0.5365
  276SOL     hw 1103   0.246   2.299   4.498 -0.8922 -0.8184  0.2705
  276SOL     vw 1104   0.236   2.230   4.551  0.3776 -0.8425  0.5181
  277SOL     ow 1105   4.419   6.779   7.263  0.1682  0.1005 -0.0558
  277SOL     hw 1106   4.391   6.818   7.179  0.1169  1.2066  0.4573
  277SOL     hw 1107   4.388   6.840   7.329  1.9604  0.2958  0.6707
  277SOL     vw 1108   4.411   6.792   7.260  0.3977  0.2723  0.1078
  278SOL     ow 1109   5.241   7.358   6.495 -0.2163 -0.8164 -0.4837
  278SOL     hw 1110   5.257   7.440   6.543 -0.7235 -1.0355  0.0715
  278SOL     hw 1111   5.310   7.299   6.526 -2.3616 -1.9970  2.4619
  278SOL     vw 1112   5.252   7.361   6.505 -0.5665 -1.0009 -0.0219
  279SOL     ow 1113   6.853   4.347   3.553 -0.5281  0.1198 -0.0520
  279SOL     hw 1114   6.760   4.326   3.552 -1.1243  2.5444 -0.3863
  279SOL     hw 1115   6.863   4.418   3.489  1.3469  0.7344  0.8381
  279SOL     vw 1116   6.842   4.353   3.544 -0.3593  0.5207  0.0213
  280SOL     ow 1117   2.654   1.233   5.224  0.5383 -0.0319  0.2054
  280SOL     hw 1118   2.615   1.177   5.292 -1.5359  0.1149 -0.7850
  280SOL     hw 1119   2.741   1.196   5.210 -0.0888 -1.8868  0.8572
  280SOL     vw 1120   2.660   1.221   5.231  0.1819 -0.2572  0.1609
  281SOL     ow 1121   1.584   0.022   0.602 -0.4155 -0.4224  0.6338
  281SOL     hw 1122   1.500   0.054   0.633  1.1691  3.3620  1.5691
  281SOL     hw 1123   1.569  -0.001   0.510 -2.2697  0.8915  0.5644
  281SOL     vw 1124   1.571   0.023   0.594 -0.4511  0.2503  0.7480
  282SOL     ow 1125   6.211   3.702   5.496  0.1987 -0.4567  0.2644
  282SOL     hw 1126   6.233   3.713   5.588 -1.4525  1.2942  0.5156
  282SOL     hw 1127   6.284   3.742   5.449  1.0784 -1.4080  0.7899
  282SOL     vw 1128   6.223   3.709   5.502  0.0968 -0.3512  0.3669
  283SOL     ow 1129   2.742   5.388   1.360 -0.4166 -0.2063  0.0659
  283SOL     hw 1130   2.696   5.465   1.329 -1.6906 -1.3212 -0.9046
  283SOL     hw 1131   2.689   5.356   1.434 -0.7930 -1.0306 -0.5399
  283SOL     vw 1132   2.729   5.394   1.366 -0.6344 -0.4621 -0.1421
  284SOL     ow 1133   4.870   4.085   6.839  0.7263  0.4778  0.8808
  284SOL     hw 1134   4.822   4.005   6.862 -1.3776  0.4168 -2.9432
  284SOL     hw 1135   4.817   4.156   6.877 -0.8166  0.2464 -0.7074
  284SOL     vw 1136   4.856   4.084   6.847  0.2453  0.4396  0.1664
  285SOL     ow 1137   0.250   0.634   4.936 -0.0848  0.1484  0.4386
  285SOL     hw 1138   0.337   0.606   4.965  0.3018  1.4552  0.6166
  285SOL     hw 1139   0.238   0.721   4.975 -1.3062  0.1624  0.0879
  285SOL     vw 1140   0.260   0.642   4.945 -0.1950  0.3227  0.4156
  286SOL     ow 1141   6.322   1.615   2.501 -0.1716  0.2362  0.2803
  286SOL     hw 1142   6.349   1.530   2.536 -0.9862  0.3015  1.1135
  286SOL     hw 1143   6.296   1.597   2.411  1.5211 -0.0249 -0.1989
  286SOL     vw 1144   6.322   1.601   2.494 -0.0558  0.2104  0.3270
  287SOL     ow 1145   1.823   5.978   0.620  0.0657 -0.0819 -0.1725
  287SOL     hw 1146   1.892   6.019   0.673 -1.5109 -0.2357  2.1561
  287SOL     hw 1147   1.750   6.040   0.625 -0.5203 -0.6662 -1.2224
  287SOL     vw 1148   1.822   5.992   0.628 -0.2196 -0.1793 -0.0038
  288SOL     ow 1149   0.651   0.401   0.961 -0.3540  0.4670 -0.5169
  288SOL     hw 1150   0.633   0.495   0.967  0.1555  0.7541 -2.6173
  288SOL     hw 1151   0.746   0.395   0.976 -0.4346  0.2373 -0.0821
  288SOL     vw 1152   0.661   0.413   0.964 -0.2974  0.4746 -0.7367
  289SOL     ow 1153   0.531   1.311   1.652  0.4060 -0.3916  0.1822
  289SOL     hw 1154   0.456   1.320   1.594  0.4279  0.9878  0.3435
  289SOL     hw 1155   0.493   1.300   1.739  0.3680 -2.6820 -0.0600
  289SOL     vw 1156   0.516   1.311   1.656  0.4039 -0.5118  0.1715
  290SOL     ow 1157   5.789   5.639   2.279 -0.2134 -0.5488  0.7461
  290SOL     hw 1158   5.745   5.716   2.317 -0.4784 -0.5523  0.4478
  290SOL     hw 1159   5.865   5.675   2.234 -0.9841 -0.3158 -0.4194
  290SOL     vw 1160   5.793   5.654   2.278 -0.3500 -0.5186  0.5530
  291SOL     ow 1161   1.590   5.649   2.555 -0.4918 -0.0325  0.1939
  291SOL     hw 1162   1.593   5.614   2.466 -2.3522 -1.8664  0.7781
  291SOL     hw 1163   1.506   5.695   2.560 -0.7046 -0.5220  1.1981
  291SOL     vw 1164   1.580   5.651   2.544 -0.7653 -0.3390  0.4035
  292SOL     ow 1165   0.257   4.908   7.238  0.6919  0.8821  0.4347
  292SOL     hw 1166   0.265   4.822   7.280  0.7733  0.5711 -0.2166
  292SOL     hw 1167   0.178   4.902   7.185  0.4135  1.3847  0.7789
  292SOL     vw 1168   0.248   4.896   7.237  0.6659  0.9074  0.3941
  293SOL     ow 1169   3.907   3.296   6.866 -0.0768  0.5421  0.2115
  293SOL     hw 1170   3.932   3.270   6.777  1.4912  0.6441  0.6023
  293SOL     hw 1171   3.929   3.389   6.872  2.1703  0.0032  1.4429
  293SOL     vw 1172   3.913   3.305   6.855  0.4265  0.4845  0.4256
  294SOL     ow 1173   5.165   6.859   1.319 -0.2534  0.2617 -0.1368
  294SOL     hw 1174   5.124   6.935   1.278 -1.1986 -1.7508 -3.2710
  294SOL     hw 1175   5.110   6.840   1.395 -1.5660  1.1621 -0.8260
  294SOL     vw 1176   5.152   6.866   1.324 -0.5515  0.1149 -0.6412
  295SOL     ow 1177   4.933   3.743   0.095  0.3901  0.3552 -0.6106
  295SOL     hw 1178   5.011   3.772   0.048 -0.1865  3.0950 -0.0347
  295SOL     hw 1179   4.961   3.664   0.141  3.2171  1.8912  0.5317
  295SOL     vw 1180   4.947   3.736   0.095  0.6869  0.9193 -0.3839
  296SOL     ow 1181   1.061   4.611   4.502 -0.3759  0.2891 -0.0023
  296SOL     hw 1182   1.146   4.583   4.538  0.9630  2.1113 -1.5331
  296SOL     hw 1183   1.023   4.532   4.466  0.5196 -0.6343  1.0102
  296SOL     vw 1184   1.067   4.597   4.502 -0.0811  0.4079 -0.0706
  297SOL     ow 1185   6.555   3.456   4.485  0.0987 -0.1628  0.2519
  297SOL     hw 1186   6.586   3.368   4.463 -0.0424 -0.5204  1.4438
  297SOL     hw 1187   6.589   3.512   4.414 -0.7088 -1.3268 -1.1104
  297SOL     vw 1188   6.564   3.452   4.473 -0.0265 -0.3636  0.2294
  298SOL     ow 1189   6.131   3.978   5.853 -0.2092  0.0055  0.0679
  298SOL     hw 1190   6.131   4.047   5.786  1.6783 -0.2581 -0.2529
  298SOL     hw 1191   6.197   4.006   5.916 -0.6114 -0.7028  0.8206
  298SOL     vw 1192   6.140   3.991   5.852 -0.0129 -0.1227  0.1245
  299SOL     ow 1193   4.809   5.580   2.385 -0.0725 -0.1116 -0.4814
  299SOL     hw 1194   4.720   5.613   2.395 -0.5313 -0.0967 -3.7569
  299SOL     hw 1195   4.864   5.657   2.397 -0.5902  0.2283 -0.2198
  299SOL     vw 1196   4.804   5.595   2.388 -0.2015 -0.0651 -0.8789
  300SOL     ow 1197   2.530   1.950   6.065 -0.5637  0.4513 -0.2301
  300SOL     hw 1198   2.615   1.915   6.092 -0.5481  0.3525 -0.4064
  300SOL     hw 1199   2.473   1.873   6.062 -0.7164  0.5474  0.1008
  300SOL     vw 1200   2.534   1.935   6.068 -0.5819  0.4510 -0.2096
  301SOL     ow 1201   3.414   3.882   7.137 -0.0800  0.5363 -0.0799
  301SOL     hw 1202   3.454   3.872   7.223  0.8220  1.4136 -0.3679
  301SOL     hw 1203   3.481   3.851   7.076 -1.6309 -2.4845 -0.3987
  301SOL     vw 1204   3.428   3.877   7.140 -0.1656  0.2534 -0.1597
  302SOL     ow 1205   0.845   6.621   2.511  0.0478 -0.2342  0.0711
  302SOL     hw 1206   0.823   6.679   2.584 -0.0842 -1.5507  1.0944
  302SOL     hw 1207   0.772   6.631   2.450  0.7716  1.8716 -0.5630
  302SOL     vw 1208   0.832   6.630   2.512  0.1259 -0.1302  0.1224
  303SOL     ow 1209   0.116   6.796   3.851 -0.4121  0.1652 -0.1589
  303SOL     hw 1210   0.163   6.843   3.783  0.2229  0.2432  0.3228
  303SOL     hw 1211   0.117   6.855   3.927 -1.5749  0.3035 -0.2310
  303SOL     vw 1212   0.122   6.810   3.852 -0.4817  0.1936 -0.1049
  304SOL     ow 1213   2.126   6.967   5.133  0.1237  0.1044 -0.1204
  304SOL     hw 1214   2.113   6.961   5.039  1.5363  0.4805 -0.3549
  304SOL     hw 1215   2.202   7.023   5.144 -0.1970  0.3113  1.2638
  304SOL     vw 1216   2.134   6.973   5.122  0.2677  0.1812  0.0312
  305SOL     ow 1217   2.438   3.952   2.524  0.3804 -0.1855 -0.1077
  305SOL     hw 1218   2.501   3.888   2.489 -2.1170 -2.5638 -0.5936
  305SOL     hw 1219   2.417   3.919   2.611 -1.2477 -0.3165 -0.5225
  305SOL     vw 1220   2.444   3.939   2.531 -0.1639 -0.5165 -0.2265
  306SOL     ow 1221   6.287   5.709   0.914 -0.1477  0.4478 -0.1829
  306SOL     hw 1222   6.374   5.695   0.877 -0.2412 -1.2620  0.1822
  306SOL     hw 1223   6.266   5.627   0.958 -2.1697  0.6368 -0.7118
  306SOL     vw 1224   6.296   5.697   0.915 -0.4270  0.2470 -0.2046
  307SOL     ow 1225   6.725   6.152   0.355  0.1773 -0.5065 -0.0933
  307SOL     hw 1226   6.709   6.212   0.283  0.9173  0.0647  0.2032
  307SOL     hw 1227   6.707   6.204   0.434 -0.6922 -1.1428  0.1413
  307SOL     vw 1228   6.721   6.167   0.356  0.1605 -0.5150 -0.0232
  308SOL     ow 1229   3.340   7.174   5.411 -0.5463 -0.0233 -0.5066
  308SOL     hw 1230   3.381   7.153   5.327  2.2341  0.6197  0.5707
  308SOL     hw 1231   3.386   7.252   5.442 -1.3016 -0.3646  1.7106
  308SOL     vw 1232   3.351   7.181   5.404 -0.2792  0.0165 -0.0720
  309SOL     ow 1233   3.868   7.032   2.151  0.3211  0.1593 -0.3151
  309SOL     hw 1234   3.963   7.027   2.164 -0.0690 -1.4708  2.6477
  309SOL     hw 1235   3.851   7.124   2.133  2.3333  0.7169  0.3742
  309SOL     vw 1236   3.878   7.044   2.150  0.5350  0.0176  0.1668
  310SOL     ow 1237   6.418   5.200   2.382 -0.4847 -0.0426  0.0040
  310SOL     hw 1238   6.430   5.147   2.303 -3.1975 -0.7053 -0.0653
  310SOL     hw 1239   6.462   5.152   2.451 -1.7942 -1.8001 -0.3166
  310SOL     vw 1240   6.425   5.187   2.381 -1.0154 -0.3619 -0.0474
  311SOL     ow 1241   1.202   3.902   2.989 -0.3331 -0.2254  0.3183
  311SOL     hw 1242   1.127   3.918   3.047  0.7051 -0.0862  1.6812
  311SOL     hw 1243   1.205   3.807   2.981 -2.0730 -0.1930 -1.7593
  311SOL     vw 1244   1.192   3.892   2.996 -0.4257 -0.2027  0.2240
  312SOL     ow 1245   6.939   5.383   0.330 -0.4723  0.0017  0.4474
  312SOL     hw 1246   6.914   5.377   0.238 -1.2893  1.6151  0.5226
  312SOL     hw 1247   6.918   5.297   0.366  0.1045 -0.7373 -0.9225
  312SOL     vw 1248   6.933   5.371   0.323 -0.5043  0.1171  0.2766
  313SOL     ow 1249   5.774   2.485   2.978  0.2849 -0.3758 -0.0787
  313SOL     hw 1250   5.730   2.401   2.993  0.6654 -0.5959 -0.2074
  313SOL     hw 1251   5.782   2.492   2.883 -2.6664  1.2933 -0.3535
  313SOL     vw 1252   5.769   2.475   2.967 -0.0544 -0.1844 -0.1318
  314SOL     ow 1253   3.133   5.109   4.903  0.0289  0.6115  0.6781
  314SOL     hw 1254   3.052   5.142   4.864 -0.3657 -0.1030  0.8582
  314SOL     hw 1255   3.114   5.108   4.997 -0.0376 -0.2704  0.6641
  314SOL     vw 1256   3.120   5.113   4.910 -0.0319  0.4010  0.7000
  315SOL     ow 1257   7.128   5.347   3.127  0.1603  0.2501  0.1903
  315SOL     hw 1258   7.149   5.254   3.130  0.8517  0.4180  1.6734
  315SOL     hw 1259   7.157   5.376   3.041 -0.6447 -1.0148 -0.5423
  315SOL     vw 1260   7.135   5.338   3.116  0.1452  0.1054  0.2894
  316SOL     ow 1261   4.126   2.148   4.565 -0.1965 -0.7724 -0.0792
  316SOL     hw 1262   4.177   2.228   4.559 -0.1574 -0.6297  1.5988
  316SOL     hw 1263   4.187   2.079   4.539 -0.5767 -0.2182 -2.7363
  316SOL     vw 1264   4.141   2.149   4.561 -0.2415 -0.6804 -0.2081
  317SOL     ow 1265   5.745   0.232   4.760  0.4035  0.5494 -0.2026
  317SOL     hw 1266   5.767   0.276   4.842 -0.7247  1.1376 -0.1859
  317SOL     hw 1267   5.824   0.240   4.707  1.1327  0.1936  0.8067
  317SOL     vw 1268   5.758   0.239   4.764  0.3507  0.5800 -0.0672
  318SOL     ow 1269   1.592   0.644   3.441 -0.0176 -0.3344 -0.2034
  318SOL     hw 1270   1.534   0.593   3.498  0.4400 -0.4562  0.1589
  318SOL     hw 1271   1.577   0.609   3.354  1.1936 -1.9541  0.1992
  318SOL     vw 1272   1.582   0.633   3.437  0.2026 -0.5642 -0.1024
  319SOL     ow 1273   1.448   5.143   1.850  0.5050 -0.1683 -0.2101
  319SOL     hw 1274   1.463   5.236   1.829  0.2256 -0.0063  0.3166
  319SOL     hw 1275   1.468   5.098   1.768 -0.9554  0.4991 -0.9753
  319SOL     vw 1276   1.453   5.150   1.836  0.2755 -0.0589 -0.2415
  320SOL     ow 1277   5.385   2.333   0.479 -0.5135 -0.2598 -0.1084
  320SOL     hw 1278   5.297   2.301   0.499  0.3601 -1.8974  1.4010
  320SOL     hw 1279   5.412   2.379   0.559  0.0105  0.2366 -0.5628
  320SOL     vw 1280   5.377   2.335   0.492 -0.3293 -0.4106  0.0308
  321SOL     ow 1281   0.975   2.154   1.635  0.0620 -0.0266 -0.0009
  321SOL     hw 1282   0.888   2.120   1.616  0.2704 -0.8271  0.4584
  321SOL     hw 1283   1.034   2.081   1.615  0.5907  0.3606  0.1306
  321SOL     vw 1284   0.971   2.140   1.630  0.1592 -0.0811  0.0771
  322SOL     ow 1285   3.359   7.448   2.024 -0.0654 -0.0605  0.6236
  322SOL     hw 1286   3.320   7.525   2.065 -1.5526 -0.0687 -0.6531
  322SOL     hw 1287   3.297   7.377   2.043 -0.5138 -0.1729 -1.0838
  322SOL     vw 1288   3.345   7.449   2.032 -0.3207 -0.0764  0.2297
  323SOL     ow 1289   0.877   6.560   0.383 -0.9265  0.2238 -0.4145
  323SOL     hw 1290   0.962   6.517   0.368 -1.8921 -1.6691 -0.7239
  323SOL     hw 1291   0.889   6.648   0.347  1.1651  0.3054  0.3195
  323SOL     vw 1292   0.890   6.566   0.376 -0.7780 -0.0150 -0.3584
  324SOL     ow 1293   5.182   2.983   2.973 -0.0738 -0.3329  0.2930
  324SOL     hw 1294   5.092   3.013   2.989  0.5723  1.2452  1.2477
  324SOL     hw 1295   5.185   2.967   2.879 -0.9713  1.0120  0.0040
  324SOL     vw 1296   5.170   2.985   2.963 -0.1068  0.0528  0.3809
  325SOL     ow 1297   2.053   4.724   2.084 -0.1716 -0.1597  0.2425
  325SOL     hw 1298   2.036   4.672   2.162  0.9040 -0.9495 -0.0309
  325SOL     hw 1299   2.005   4.679   2.014  0.9360 -0.9218 -0.0361
  325SOL     vw 1300   2.044   4.712   2.085  0.1163 -0.3643  0.1698
  326SOL     ow 1301   5.164   6.664   0.018 -0.0027  0.0744 -0.4533
  326SOL     hw 1302   5.110   6.622  -0.050  0.9651  0.6466 -1.6103
  326SOL     hw 1303   5.244   6.612   0.020  0.5190  0.8465 -0.7131
  326SOL     vw 1304   5.167   6.652   0.009  0.1941  0.2520 -0.6403
  327SOL     ow 1305   4.087   2.367   1.358 -0.0652 -0.1639  0.1536
  327SOL     hw 1306   4.151   2.341   1.424 -0.0393 -0.2530  0.0933
  327SOL     hw 1307   4.090   2.463   1.359  0.1132 -0.1684  0.1101
  327SOL     vw 1308   4.096   2.376   1.367 -0.0381 -0.1762  0.1400
  328SOL     ow 1309   1.727   2.730   2.230  0.3473  0.3872  0.8702
  328SOL     hw 1310   1.688   2.660   2.177  1.6394  1.6123 -1.8525
  328SOL     hw 1311   1.675   2.807   2.209  1.4867  1.1027  0.6321
  328SOL     vw 1312   1.715   2.731   2.221  0.6681  0.6431  0.4796
  329SOL     ow 1313   5.721   1.040   3.515  0.1808 -0.4525 -0.2019
  329SOL     hw 1314   5.752   1.030   3.425  0.2341 -0.5437 -0.1729
  329SOL     hw 1315   5.777   0.982   3.567  0.6781  0.1995  0.0091
  329SOL     vw 1316   5.732   1.031   3.510  0.2532 -0.3785 -0.1702
  330SOL     ow 1317   0.744   0.473   1.640 -0.3037  0.5065  0.3897
  330SOL     hw 1318   0.689   0.543   1.674 -0.7335  0.7464 -0.7650
  330SOL     hw 1319   0.736   0.403   1.705 -0.7189  1.1251  1.0156
  330SOL     vw 1320   0.735   0.473   1.653 -0.4151  0.6198  0.3200
  331SOL     ow 1321   4.097   7.340   7.203  0.2698 -0.2925  0.1933
  331SOL     hw 1322   4.028   7.275   7.217 -0.1930  0.1454 -0.0075
  331SOL     hw 1323   4.051   7.424   7.201  0.8332  0.0260  0.2368
  331SOL     vw 1324   4.082   7.342   7.205  0.2832 -0.1929  0.1726
  332SOL     ow 1325   1.251   4.511   1.099 -0.1297  0.9118  0.5497
  332SOL     hw 1326   1.241   4.528   1.192 -0.1626  3.1797  0.2081
  332SOL     hw 1327   1.309   4.582   1.069  0.2893 -0.0666 -1.0548
  332SOL     vw 1328   1.258   4.523   1.107 -0.0787  1.0817  0.2930
  333SOL     ow 1329   1.384   6.401   3.100 -0.1903 -0.2196 -0.4891
  333SOL     hw 1330   1.296   6.376   3.127  0.0171  0.6454  1.0713
  333SOL     hw 1331   1.441   6.335   3.139  0.0284  0.5128  0.4761
  333SOL     vw 1332   1.380   6.389   3.108 -0.1341 -0.0093 -0.1559
  334SOL     ow 1333   3.260   6.197   4.389 -0.1535  0.0373 -0.2209
  334SOL     hw 1334   3.240   6.272   4.334  0.6082 -0.2551 -0.9183
  334SOL     hw 1335   3.260   6.231   4.478 -1.8121  0.4326 -0.3431
  334SOL     vw 1336   3.258   6.211   4.393 -0.2718  0.0508 -0.3290
  335SOL     ow 1337   0.377   1.636   7.282 -0.1327  0.3409  0.1851
  335SOL     hw 1338   0.418   1.666   7.201  0.3750 -1.0194 -0.0880
  335SOL     hw 1339   0.417   1.690   7.350 -0.5563  1.4895 -0.4614
  335SOL     vw 1340   0.388   1.647   7.280 -0.1216  0.3130  0.0639
  336SOL     ow 1341   5.782   2.379   5.704  0.6935  0.0166 -0.0182
  336SOL     hw 1342   5.725   2.362   5.630  1.0289 -1.6377  0.0711
  336SOL     hw 1343   5.757   2.315   5.770  1.3975  0.4927  0.7414
  336SOL     vw 1344   5.771   2.368   5.703  0.8304 -0.1389  0.0937
  337SOL     ow 1345   1.874   0.582   6.952  0.1066 -0.0983 -0.1276
  337SOL     hw 1346   1.913   0.584   6.864  0.7693  0.3085  0.1673
  337SOL     hw 1347   1.831   0.667   6.961  3.2155  1.4942  1.3142
  337SOL     vw 1348   1.873   0.593   6.941  0.6043  0.1655  0.1016
  338SOL     ow 1349   2.175   1.743   2.646 -0.2575 -0.3005  0.6814
  338SOL     hw 1350   2.110   1.808   2.620 -1.3324 -1.1917  1.0908
  338SOL     hw 1351   2.199   1.699   2.565 -2.8368 -2.3730  0.9024
  338SOL     vw 1352   2.170   1.746   2.632 -0.7397 -0.6915  0.7645
  339SOL     ow 1353   6.403   3.683   4.969 -0.0019 -0.0501 -0.5937
  339SOL     hw 1354   6.448   3.684   5.053  1.4561  0.2060 -1.3477
  339SOL     hw 1355   6.407   3.591   4.941 -2.6626 -0.6497  0.6892
  339SOL     vw 1356   6.409   3.671   4.976 -0.1607 -0.0955 -0.5238
  340SOL     ow 1357   0.632   7.191   1.413 -0.0546 -0.4735  0.3820
  340SOL     hw 1358   0.645   7.152   1.327 -0.2809 -0.6342  0.4212
  340SOL     hw 1359   0.559   7.142   1.451 -0.3804  0.0282  0.4070
  340SOL     vw 1360   0.624   7.179   1.407 -0.1274 -0.4284  0.3905
  341SOL     ow 1361   7.217   7.301   7.131 -0.4711  0.4139 -0.0395
  341SOL     hw 1362   7.193   7.253   7.210 -0.1565  2.2582  1.2472
  341SOL     hw 1363   7.136   7.341   7.100 -0.4244  0.4392 -0.1335
  341SOL     vw 1364   7.203   7.300   7.137 -0.4237  0.6609  0.1178
  342SOL     ow 1365   7.049   1.335   4.702  0.2541 -0.4670  0.1361
  342SOL     hw 1366   6.998   1.280   4.762 -0.7883  0.1587 -0.1388
  342SOL     hw 1367   7.045   1.289   4.618  1.1999 -1.0401  0.4032
  342SOL     vw 1368   7.042   1.322   4.699  0.2413 -0.4601  0.1352
  343SOL     ow 1369   1.168   1.668   2.710  0.3077 -0.3997 -0.4580
  343SOL     hw 1370   1.221   1.743   2.685  0.0489  0.1701  0.6818
  343SOL     hw 1371   1.150   1.680   2.803 -1.4916 -0.7724 -0.7166
  343SOL     vw 1372   1.173   1.679   2.719  0.0361 -0.3737 -0.3415
  344SOL     ow 1373   6.197   0.542   2.081  0.1835  0.2515 -0.3440
  344SOL     hw 1374   6.249   0.616   2.114 -0.5675  0.1459  1.1385
  344SOL     hw 1375   6.114   0.548   2.128 -0.1472 -1.1418 -0.7184
  344SOL     vw 1376   6.193   0.553   2.091  0.0408  0.0538 -0.1978
  345SOL     ow 1377   7.451   2.596   5.531 -0.3146  0.3832 -0.2368
  345SOL     hw 1378   7.410   2.564   5.451  0.3801  1.1925 -0.9442
  345SOL     hw 1379   7.534   2.635   5.502 -0.0401  0.6785  0.8761
  345SOL     vw 1380   7.457   2.597   5.517 -0.1867  0.5289 -0.1833
  346SOL     ow 1381   4.541   0.134   2.001  0.5312  0.0401 -0.6058
  346SOL     hw 1382   4.597   0.057   2.016 -0.4021 -0.5390  0.0212
  346SOL     hw 1383   4.520   0.130   1.908 -0.5493 -1.2177 -0.3367
  346SOL     vw 1384   4.546   0.123   1.991  0.2654 -0.2022 -0.4876
  347SOL     ow 1385   2.891   2.421   6.679 -0.3827 -0.1558 -0.3217
  347SOL     hw 1386   2.916   2.507   6.643 -1.9855  0.3574 -0.2896
  347SOL     hw 1387   2.906   2.429   6.773  1.2366 -0.5791 -0.5060
  347SOL     vw 1388   2.896   2.434   6.686 -0.3805 -0.1439 -0.3417
  348SOL     ow 1389   1.026   6.296   3.508  0.2255  0.3686  0.0816
  348SOL     hw 1390   0.943   6.342   3.494  0.0893  0.2477  0.4686
  348SOL     hw 1391   1.021   6.265   3.599  0.9928  0.9651  0.3345
  348SOL     vw 1392   1.014   6.298   3.519  0.3088  0.4315  0.1661
  349SOL     ow 1393   5.751   7.012   3.878  0.0548 -0.4180  0.0954
  349SOL     hw 1394   5.841   7.027   3.906  1.0112 -1.2117 -2.2764
  349SOL     hw 1395   5.738   6.918   3.891 -0.2724 -0.3743  0.0798
  349SOL     vw 1396   5.761   7.001   3.883  0.1378 -0.5167 -0.2197
  350SOL     ow 1397   4.505   1.951   6.953  0.2285  0.0103  0.4230
  350SOL     hw 1398   4.501   2.046   6.969  0.4419  0.0883  0.0311
  350SOL     hw 1399   4.416   1.921   6.971  0.3501  0.1561  1.3155
  350SOL     vw 1400   4.492   1.960   6.958  0.2728  0.0399  0.4890
  351SOL     ow 1401   1.140   2.757   1.454  0.1782 -0.1786  0.0140
  351SOL     hw 1402   1.126   2.828   1.390 -0.3734  0.2150  0.5602
  351SOL     hw 1403   1.226   2.722   1.432 -0.5235 -0.8996 -1.7599
  351SOL     vw 1404   1.150   2.762   1.443  0.0129 -0.2217 -0.1481
  352SOL     ow 1405   4.597   1.407   4.255  0.5340  0.1920 -0.1473
  352SOL     hw 1406   4.691   1.400   4.267  0.5252  1.2445  0.6118
  352SOL     hw 1407   4.562   1.422   4.343 -0.1129  2.1365 -0.6870
  352SOL     vw 1408   4.605   1.408   4.268  0.4475  0.5874 -0.1183
  353SOL     ow 1409   6.763   2.974   1.824 -0.6252  0.3277 -0.5115
  353SOL     hw 1410   6.778   2.889   1.865 -1.1356  0.0823 -0.8343
  353SOL     hw 1411   6.848   3.018   1.831 -0.5324  0.0534  0.2518
  353SOL     vw 1412   6.776   2.969   1.831 -0.6802  0.2590 -0.4534
  354SOL     ow 1413   5.078   2.938   5.816 -0.4193 -0.3533  0.1475
  354SOL     hw 1414   5.098   2.860   5.868 -3.5305 -2.0554 -0.9921
  354SOL     hw 1415   5.010   2.983   5.866 -0.4704  0.2675 -0.4680
  354SOL     vw 1416   5.072   2.934   5.830 -0.8366 -0.4959 -0.0839
  355SOL     ow 1417   2.060   4.182   3.242 -0.8688 -0.1820  0.0603
  355SOL     hw 1418   1.980   4.153   3.199 -0.8306 -0.9634  0.5007
  355SOL     hw 1419   2.063   4.133   3.324 -0.0672  0.0178  0.1633
  355SOL     vw 1420   2.050   4.172   3.247 -0.7579 -0.2587  0.1321
  356SOL     ow 1421   0.656   4.933   7.259  0.1063 -0.0477 -0.4444
  356SOL     hw 1422   0.624   4.999   7.198 -1.2923 -0.6441 -0.3849
  356SOL     hw 1423   0.626   4.963   7.345 -1.7152 -1.3747 -0.5527
  356SOL     vw 1424   0.648   4.945   7.262 -0.3186 -0.3016 -0.4511
  357SOL     ow 1425   7.055   5.803   5.759  0.3604 -0.5175  0.4118
  357SOL     hw 1426   7.060   5.734   5.694 -0.8795 -1.3449  1.1536
  357SOL     hw 1427   6.994   5.770   5.825  0.1982  1.0277  1.0911
  357SOL     vw 1428   7.047   5.790   5.759  0.1750 -0.4227  0.5991
  358SOL     ow 1429   2.429   5.415   4.867 -0.2628  0.0589 -0.0298
  358SOL     hw 1430   2.492   5.440   4.935  0.0851  0.5443 -0.5201
  358SOL     hw 1431   2.484   5.395   4.790 -0.6441 -0.5678 -0.1497
  358SOL     vw 1432   2.445   5.415   4.866 -0.2673  0.0403 -0.1104
  359SOL     ow 1433   3.616   6.324   5.215  0.0856 -0.0803 -0.0973
  359SOL     hw 1434   3.589   6.261   5.282  0.2101  0.6755  0.6787
  359SOL     hw 1435   3.669   6.272   5.154 -2.2792 -1.3967 -1.1692
  359SOL     vw 1436   3.620   6.309   5.216 -0.2100 -0.1543 -0.1364
  360SOL     ow 1437   0.436   1.972   3.229  0.3342  0.3905  0.2106
  360SOL     hw 1438   0.498   1.966   3.156  0.2747 -2.1329  0.3060
  360SOL     hw 1439   0.458   1.899   3.286 -1.8180  0.2851  0.9970
  360SOL     vw 1440   0.447   1.962   3.227  0.0423  0.0436  0.3270
  361SOL     ow 1441   1.143   2.881   7.342 -0.1839  0.1086  0.0027
  361SOL     hw 1442   1.050   2.872   7.361 -0.4016  0.0985 -1.0037
  361SOL     hw 1443   1.146   2.925   7.257  0.7018 -1.4492 -0.8083
  361SOL     vw 1444   1.131   2.886   7.333 -0.0958 -0.0982 -0.2372
  362SOL     ow 1445   1.441   1.237   4.247  0.1050 -0.3041  0.3952
  362SOL     hw 1446   1.418   1.318   4.292  0.3077 -0.9993  1.8259
  362SOL     hw 1447   1.388   1.237   4.168  0.1798  1.2633  0.3113
  362SOL     vw 1448   1.431   1.248   4.243  0.1416 -0.1890  0.5732
  363SOL     ow 1449   3.715   3.452   4.108  0.5571 -0.0387  0.2902
  363SOL     hw 1450   3.695   3.362   4.131  2.4763 -0.4365  0.5019
  363SOL     hw 1451   3.777   3.446   4.036  0.2638  1.1351 -0.0883
  363SOL     vw 1452   3.720   3.440   4.102  0.7718  0.0637  0.2682
  364SOL     ow 1453   1.250   5.932   2.618  0.5416  0.0600 -0.2759
  364SOL     hw 1454   1.161   5.913   2.650  0.1917  0.3572 -1.0415
  364SOL     hw 1455   1.239   6.010   2.563  1.8145  2.1010  2.1745
  364SOL     vw 1456   1.237   5.939   2.615  0.6635  0.3688 -0.0536
  365SOL     ow 1457   5.150   4.003   4.016  0.1811  0.5598  0.2436
  365SOL     hw 1458   5.246   3.995   4.020  0.1294 -1.7784 -1.4324
  365SOL     hw 1459   5.118   3.921   4.053 -1.0046 -0.7557 -3.3015
  365SOL     vw 1460   5.159   3.991   4.022  0.0179  0.0780 -0.4451
  366SOL     ow 1461   2.299   2.674   1.312  0.1148 -0.4256 -0.5450
  366SOL     hw 1462   2.297   2.696   1.218  3.0431 -0.8543 -0.7793
  366SOL     hw 1463   2.342   2.749   1.353 -0.1774 -0.7207  0.3185
  366SOL     vw 1464   2.304   2.687   1.305  0.4627 -0.5211 -0.4620
  367SOL     ow 1465   3.882   1.180   5.260 -0.3310 -0.9140  0.2025
  367SOL     hw 1466   3.796   1.169   5.220 -0.5146  0.8658  0.0221
  367SOL     hw 1467   3.869   1.247   5.327  0.9405 -0.4568  0.0252
  367SOL     vw 1468   3.869   1.187   5.263 -0.1875 -0.6188  0.1552
  368SOL     ow 1469   6.297   6.028   2.311 -0.2938  0.2640 -0.1674
  368SOL     hw 1470   6.231   6.075   2.364 -0.4757  0.5101 -0.6058
  368SOL     hw 1471   6.311   5.946   2.358 -2.0730 -0.4941 -0.8754
  368SOL     vw 1472   6.290   6.024   2.324 -0.5529  0.1965 -0.3186
  369SOL     ow 1473   7.376   5.233   2.929  0.5434 -0.2411 -0.4227
  369SOL     hw 1474   7.338   5.145   2.920  0.6822 -0.5120  1.2879
  369SOL     hw 1475   7.305   5.292   2.904 -1.2182 -0.7299  2.7803
  369SOL     vw 1476   7.361   5.229   2.925  0.3290 -0.3414  0.2257
  370SOL     ow 1477   6.365   7.262   5.863  0.0400 -0.1669 -0.6903
  370SOL     hw 1478   6.365   7.356   5.844  2.0118 -0.4257 -2.3117
  370SOL     hw 1479   6.289   7.249   5.920 -0.8975  2.2271 -1.2743
  370SOL     vw 1480   6.355   7.273   5.868  0.1764  0.1147 -0.9813
  371SOL     ow 1481   5.414   5.347   6.369  0.1819 -0.2713  0.1412
  371SOL     hw 1482   5.410   5.442   6.380  1.4038 -0.1736 -0.1592
  371SOL     hw 1483   5.373   5.331   6.284 -1.6367 -0.2105  0.9621
  371SOL     vw 1484   5.408   5.357   6.359  0.1032 -0.2506  0.2096
  372SOL     ow 1485   5.535   2.891   4.711 -0.6973  0.1769 -0.3216
  372SOL     hw 1486   5.580   2.807   4.701 -0.2239  0.2997  0.6483
  372SOL     hw 1487   5.448   2.876   4.675  0.1360 -0.0182 -2.3959
  372SOL     vw 1488   5.529   2.878   4.705 -0.5245  0.1674 -0.4673
  373SOL     ow 1489   3.156   7.121   0.536 -0.7808  0.0305  0.5524
  373SOL     hw 1490   3.090   7.140   0.602 -2.3953 -1.6112 -0.4665
  373SOL     hw 1491   3.155   7.025   0.528  0.6445  0.0686 -0.5769
  373SOL     vw 1492   3.147   7.111   0.544 -0.8057 -0.1812  0.2689
  374SOL     ow 1493   6.405   0.368   2.288 -0.2136  0.1513  0.4808
  374SOL     hw 1494   6.359   0.404   2.364  0.4567  0.8100  0.5809
  374SOL     hw 1495   6.451   0.442   2.250  1.0936 -0.5514  0.6160
  374SOL     vw 1496   6.405   0.382   2.293  0.0472  0.1455  0.5118
  375SOL     ow 1497   2.173   4.488   3.585  0.0682  0.6385 -0.2295
  375SOL     hw 1498   2.178   4.454   3.674  0.7270  0.6963 -0.2435
  375SOL     hw 1499   2.166   4.583   3.596 -1.5063  0.5424 -0.1986
  375SOL     vw 1500   2.173   4.496   3.598 -0.0527  0.6335 -0.2272
  376SOL     ow 1501   2.713   2.899   2.768  0.2812 -0.1936  0.6534
  376SOL     hw 1502   2.684   2.846   2.695  3.1687  0.0639 -0.8347
  376SOL     hw 1503   2.657   2.977   2.766 -2.2735 -1.9064  1.2788
  376SOL     vw 1504   2.702   2.903   2.758  0.3253 -0.3856  0.5397
  377SOL     ow 1505   3.359   0.590   3.546  0.2153 -0.5232 -0.5882
  377SOL     hw 1506   3.387   0.520   3.488 -0.8849 -0.4734 -1.2121
  377SOL     hw 1507   3.323   0.657   3.488  3.6797  1.8573 -0.2573
  377SOL     vw 1508   3.358   0.590   3.531  0.5274 -0.2026 -0.6268
  378SOL     ow 1509   3.015   0.328   4.891  0.8358  0.7327 -0.3670
  378SOL     hw 1510   2.971   0.271   4.829  1.4921  1.2114 -1.2949
  378SOL     hw 1511   2.952   0.340   4.962  1.2811 -2.4982  0.7202
  378SOL     vw 1512   3.001   0.322   4.893  0.9812  0.3696 -0.3459
  379SOL     ow 1513   3.659   2.662   3.875 -0.6405  0.5462 -0.2841
  379SOL     hw 1514   3.699   2.575   3.866 -0.9489  0.3598  0.1279
  379SOL     hw 1515   3.696   2.697   3.956 -1.2851  0.3836  0.0864
  379SOL     vw 1516   3.669   2.655   3.884 -0.7662  0.5002 -0.1808
  380SOL     ow 1517   3.020   0.427   2.724  0.0167  0.4116 -0.3790
  380SOL     hw 1518   3.071   0.502   2.753 -1.1816  1.5163 -1.0172
  380SOL     hw 1519   2.950   0.465   2.670 -1.1035 -1.0862 -0.0442
  380SOL     vw 1520   3.017   0.442   2.721 -0.2892  0.3598 -0.4191
  381SOL     ow 1521   2.895   3.488   1.856 -0.6181  0.0155 -0.3552
  381SOL     hw 1522   2.914   3.404   1.897  1.0492 -0.4457 -1.9605
  381SOL     hw 1523   2.799   3.492   1.854 -0.7368 -1.7408 -0.0112
  381SOL     vw 1524   2.885   3.477   1.861 -0.4138 -0.2770 -0.5216
  382SOL     ow 1525   1.983   6.744   5.457 -0.1193  0.1238  0.0841
  382SOL     hw 1526   2.009   6.732   5.549 -2.1560  0.1633  0.7157
  382SOL     hw 1527   2.065   6.746   5.409  1.1734  2.6206  2.1710
  382SOL     vw 1528   1.997   6.742   5.463 -0.2176  0.4582  0.4425
  383SOL     ow 1529   3.432   2.573   4.270  0.0406 -0.1291  0.0926
  383SOL     hw 1530   3.517   2.563   4.313 -0.5379 -0.1355  1.2657
  383SOL     hw 1531   3.371   2.592   4.341 -0.5817  2.2165 -0.9753
  383SOL     vw 1532   3.435   2.574   4.285 -0.1178  0.1795  0.1066
  384SOL     ow 1533   2.252   0.471   0.298  0.2045  0.6378  0.2072
  384SOL     hw 1534   2.167   0.509   0.277 -0.0765 -0.0726  0.0438
  384SOL     hw 1535   2.272   0.414   0.223 -0.1407 -0.7927  1.1591
  384SOL     vw 1536   2.243   0.469   0.285  0.1218  0.3554  0.3112
  385SOL     ow 1537   6.157   4.846   1.069 -0.0462  0.3465 -0.1460
  385SOL     hw 1538   6.128   4.822   1.157  0.3867 -0.7546 -0.2911
  385SOL     hw 1539   6.227   4.784   1.049  2.8629  3.1774  0.3877
  385SOL     vw 1540   6.163   4.835   1.078  0.3948  0.5748 -0.0947
  386SOL     ow 1541   5.583   2.287   1.134 -0.0597 -0.1386  0.2145
  386SOL     hw 1542   5.678   2.285   1.147  0.5241  0.4557 -3.0526
  386SOL     hw 1543   5.554   2.368   1.176  1.1339  0.4518 -0.0851
  386SOL     vw 1544   5.592   2.297   1.142  0.1750  0.0178 -0.2561
  387SOL     ow 1545   1.809   5.091   0.780  0.2783  0.3027  0.2692
  387SOL     hw 1546   1.810   4.996   0.769  1.8290  0.2598  0.4616
  387SOL     hw 1547   1.892   5.110   0.825  0.5701  1.8634 -0.8615
  387SOL     vw 1548   1.820   5.081   0.785  0.5213  0.5026  0.1454
  388SOL     ow 1549   5.156   2.734   3.072  0.1000 -0.1687 -0.4557
  388SOL     hw 1550   5.172   2.827   3.052  1.8148 -0.1096  1.0043
  388SOL     hw 1551   5.240   2.692   3.058 -0.4803 -1.3866 -0.3666
  388SOL     vw 1552   5.169   2.741   3.067  0.2499 -0.3215 -0.2513
  389SOL     ow 1553   3.405   3.817   4.993  0.0457  0.5553 -0.6713
  389SOL     hw 1554   3.488   3.776   5.016  0.3508  1.2949 -0.4395
  389SOL     hw 1555   3.344   3.786   5.060 -0.0086 -0.4189 -1.1499
  389SOL     vw 1556   3.408   3.807   5.005  0.0788  0.5244 -0.7038
  390SOL     ow 1557   4.684   2.453   0.668  0.5642 -0.1941  0.5594
  390SOL     hw 1558   4.660   2.403   0.590 -0.1726  1.2067 -0.1466
  390SOL     hw 1559   4.621   2.525   0.671  0.8728  0.0483  2.1971
  390SOL     vw 1560   4.672   2.456   0.658  0.5078  0.0229  0.6823
  391SOL     ow 1561   2.376   1.074   6.928  0.4054  0.7077  0.0672
  391SOL     hw 1562   2.407   1.146   6.874  0.3512  0.3309 -0.4727
  391SOL     hw 1563   2.286   1.058   6.898  0.9313 -0.5879 -0.8915
  391SOL     vw 1564   2.368   1.081   6.917  0.4677  0.4870 -0.1304
  392SOL     ow 1565   4.353   3.541   4.064 -0.6809  0.5240 -0.0285
  392SOL     hw 1566   4.356   3.448   4.085  0.5040  0.2406 -1.2894
  392SOL     hw 1567   4.323   3.583   4.144  1.4865 -0.6789  1.5252
  392SOL     vw 1568   4.349   3.534   4.077 -0.2389  0.3278  0.0103
  393SOL     ow 1569   1.860   5.607   3.770 -0.1523 -0.0583  0.4413
  393SOL     hw 1570   1.837   5.519   3.740  0.9542  0.1168 -1.0593
  393SOL     hw 1571   1.779   5.641   3.807 -0.4964 -1.8439  1.4618
  393SOL     vw 1572   1.846   5.600   3.771 -0.0517 -0.2706  0.3780
  394SOL     ow 1573   2.664   4.971   1.621 -0.3191  0.3281  0.2802
  394SOL     hw 1574   2.627   5.052   1.586 -0.2701  0.4512  0.5128
  394SOL     hw 1575   2.612   4.902   1.580 -0.1639  0.4617 -0.1571
  394SOL     vw 1576   2.652   4.973   1.611 -0.2922  0.3622  0.2532
  395SOL     ow 1577   3.185   3.991   4.861 -1.1389  1.0004 -0.4939
  395SOL     hw 1578   3.205   4.067   4.807 -0.6162  0.0493 -1.6695
  395SOL     hw 1579   3.092   3.974   4.845 -0.7507  0.0864 -1.9679
  395SOL     vw 1580   3.175   3.999   4.852 -1.0188  0.7544 -0.8435
  396SOL     ow 1581   6.049   6.544   1.420 -0.4388  0.1392 -0.2860
  396SOL     hw 1582   6.108   6.556   1.346  0.0250 -1.7449 -0.2808
  396SOL     hw 1583   6.048   6.629   1.465  1.5346  0.4884 -0.8220
  396SOL     vw 1584   6.057   6.557   1.416 -0.1173 -0.0634 -0.3560
  397SOL     ow 1585   2.056   2.576   5.845  0.4541  0.3415 -0.1421
  397SOL     hw 1586   1.994   2.575   5.917 -0.3436  0.3162 -0.8138
  397SOL     hw 1587   2.134   2.532   5.880  0.6633  1.6907  1.1820
  397SOL     vw 1588   2.058   2.570   5.859  0.3763  0.5162 -0.0563
  398SOL     ow 1589   6.240   0.537   0.541 -0.0781  0.1516  0.3490
  398SOL     hw 1590   6.188   0.603   0.496  0.8895  0.1943 -0.7660
  398SOL     hw 1591   6.317   0.524   0.485  0.2202 -1.2289  1.0165
  398SOL     vw 1592   6.243   0.544   0.528  0.0887 -0.0249  0.2899
  399SOL     ow 1593   4.468   1.574   7.245 -0.6427  0.0971  0.3263
  399SOL     hw 1594   4.380   1.545   7.267  0.1537 -1.2579  1.9955
  399SOL     hw 1595   4.481   1.653   7.297 -0.6910 -0.0147  0.5108
  399SOL     vw 1596   4.458   1.581   7.255 -0.5438 -0.0964  0.5710
  400SOL     ow 1597   3.379   1.170   2.185  0.4072  0.5409  0.0876
  400SOL     hw 1598   3.465   1.211   2.193  1.8925 -1.9880 -1.6712
  400SOL     hw 1599   3.333   1.223   2.120  2.0966 -0.1463 -1.7734
  400SOL     vw 1600   3.384   1.183   2.178  0.8260  0.1166 -0.3902
  401SOL     ow 1601   6.356   3.177   1.584  0.1586 -0.1023 -0.3427
  401SOL     hw 1602   6.357   3.217   1.497  1.1627 -2.2436 -1.3953
  401SOL     hw 1603   6.266   3.148   1.597  0.0649 -0.0142 -0.7865
  401SOL     vw 1604   6.344   3.178   1.574  0.2785 -0.3731 -0.5401
  402SOL     ow 1605   1.051   2.937   0.786  0.0294  0.1624  0.4063
  402SOL     hw 1606   0.977   2.993   0.811  0.1962  0.2471  0.7041
  402SOL     hw 1607   1.074   2.891   0.866  0.7190  0.6132  0.4708
  402SOL     vw 1608   1.044   2.939   0.800  0.1424  0.2331  0.4541
  403SOL     ow 1609   7.255   6.004   0.122  0.0755 -0.5635 -0.1057
  403SOL     hw 1610   7.349   5.992   0.131  0.0650 -0.0874  0.7359
  403SOL     hw 1611   7.233   6.073   0.185 -0.7880 -0.4597 -0.5006
  403SOL     vw 1612   7.264   6.012   0.131 -0.0401 -0.4869 -0.0467
  404SOL     ow 1613   1.806   4.832   0.730 -0.0602  0.7074  0.0637
  404SOL     hw 1614   1.872   4.766   0.747  1.0811  1.4954 -1.0551
  404SOL     hw 1615   1.780   4.817   0.639 -0.9425  0.8144  0.2903
  404SOL     vw 1616   1.811   4.822   0.720 -0.0260  0.8256 -0.0540
  405SOL     ow 1617   5.802   1.625   0.496 -0.8167 -0.5847 -0.0145
  405SOL     hw 1618   5.834   1.561   0.431 -0.0750 -0.0832 -0.1533
  405SOL     hw 1619   5.877   1.642   0.552 -1.0803 -0.0201  0.1749
  405SOL     vw 1620   5.816   1.619   0.495 -0.7539 -0.4440 -0.0079
  406SOL     ow 1621   4.880   6.713   2.637  0.6271 -0.0418 -0.2968
  406SOL     hw 1622   4.894   6.654   2.563  1.2074  0.2085 -0.3922
  406SOL     hw 1623   4.855   6.656   2.710  0.3751 -0.3194 -0.6007
  406SOL     vw 1624   4.878   6.698   2.637  0.6704 -0.0455 -0.3495
  407SOL     ow 1625   6.560   1.104   0.152  0.3833 -0.5523 -0.6795
  407SOL     hw 1626   6.581   1.027   0.099 -0.9772 -1.3623 -0.0929
  407SOL     hw 1627   6.555   1.071   0.242  1.0968  0.4994 -0.2242
  407SOL     vw 1628   6.562   1.089   0.157  0.2980 -0.5203 -0.5421
  408SOL     ow 1629   2.506   1.884   5.787  0.1860  0.2058 -0.5126
  408SOL     hw 1630   2.509   1.923   5.874  0.4262  1.0091 -0.8699
  408SOL     hw 1631   2.416   1.899   5.757  0.0420 -0.2585 -0.3299
  408SOL     vw 1632   2.494   1.891   5.795  0.1986  0.2506 -0.5357
  409SOL     ow 1633   1.491   5.524   2.054 -0.7193 -0.3565 -0.3193
  409SOL     hw 1634   1.418   5.585   2.065 -1.0909 -0.9535  0.6053
  409SOL     hw 1635   1.481   5.491   1.965 -2.1869 -1.1826  0.1190
  409SOL     vw 1636   1.480   5.528   2.044 -0.9619 -0.5441 -0.1395
  410SOL     ow 1637   0.580   3.039   5.198  0.0905  0.0608 -0.0632
  410SOL     hw 1638   0.568   3.054   5.104 -1.0768 -0.2530  0.0260
  410SOL     hw 1639   0.567   2.945   5.208 -0.8132  0.2498  0.5620
  410SOL     vw 1640   0.577   3.028   5.187 -0.1827  0.0442  0.0310
  411SOL     ow 1641   0.910   5.201   6.152  0.3076  0.6465 -0.4276
  411SOL     hw 1642   0.943   5.254   6.225 -0.5971  0.6318 -0.0010
  411SOL     hw 1643   0.889   5.117   6.192  2.1406 -0.2334 -1.1745
  411SOL     vw 1644   0.912   5.197   6.167  0.4301  0.5283 -0.4699
  412SOL     ow 1645   1.057   7.378   5.899  0.3872 -0.5159 -0.2878
  412SOL     hw 1646   1.111   7.403   5.974  1.1707 -0.8407 -0.7326
  412SOL     hw 1647   1.087   7.291   5.876 -0.4011 -0.7449 -0.4962
  412SOL     vw 1648   1.068   7.370   5.906  0.3865 -0.5889 -0.3741
  413SOL     ow 1649   3.778   2.590   0.663 -0.0907 -0.1292 -0.1623
  413SOL     hw 1650   3.833   2.667   0.673 -0.1365  0.1360 -1.7368
  413SOL     hw 1651   3.812   2.546   0.585 -1.7330 -0.2510 -0.8472
  413SOL     vw 1652   3.790   2.594   0.654 -0.3134 -0.1104 -0.4604
  414SOL     ow 1653   1.483   3.923   5.632 -0.4487  0.2091 -0.3721
  414SOL     hw 1654   1.577   3.939   5.622 -0.6201  2.1658  0.6785
  414SOL     hw 1655   1.471   3.833   5.602  2.1148 -0.8644  1.4591
  414SOL     vw 1656   1.494   3.913   5.627 -0.1331  0.3256  0.0079
  415SOL     ow 1657   2.431   7.293   3.691  0.6923 -0.5420  0.2972
  415SOL     hw 1658   2.466   7.379   3.670  0.4124 -0.5810 -0.3666
  415SOL     hw 1659   2.472   7.234   3.628 -0.6521 -0.5650 -0.5860
  415SOL     vw 1660   2.441   7.297   3.680  0.4780 -0.5503  0.0931
  416SOL     ow 1661   5.242   7.226   2.487 -0.0454  0.4079  0.1514
  416SOL     hw 1662   5.208   7.255   2.402  0.8576 -0.4786 -0.5508
  416SOL     hw 1663   5.336   7.247   2.483  0.4699 -1.6861 -0.0406
  416SOL     vw 1664   5.250   7.232   2.475  0.1419  0.0143  0.0334
  417SOL     ow 1665   6.650   1.126   0.891  0.1133 -0.1802 -0.1267
  417SOL     hw 1666   6.587   1.062   0.923 -0.9005  0.9615  0.2176
  417SOL     hw 1667   6.649   1.196   0.956  1.2688  0.1633 -0.4439
  417SOL     vw 1668   6.642   1.127   0.904  0.1318  0.0158 -0.1231
  418SOL     ow 1669   0.475   5.845   6.506  0.0828  0.1048 -0.1006
  418SOL     hw 1670   0.415   5.918   6.518 -1.0417 -0.7404 -0.4621
  418SOL     hw 1671   0.423   5.778   6.463  0.7424 -1.4022  1.3505
  418SOL     vw 1672   0.460   5.846   6.502  0.0215 -0.2055  0.0432
  419SOL     ow 1673   1.486   5.064   4.428 -0.5968  0.5741  0.4956
  419SOL     hw 1674   1.472   5.003   4.501  0.2776 -0.8360 -0.4483
  419SOL     hw 1675   1.581   5.079   4.428 -0.7071  1.2948  0.2060
  419SOL     vw 1676   1.497   5.058   4.438 -0.4960  0.4830  0.3328
  420SOL     ow 1677   1.672   2.266   6.190  0.8326 -0.0583  0.1411
  420SOL     hw 1678   1.601   2.290   6.130  2.3858  0.2531 -1.6747
  420SOL     hw 1679   1.697   2.178   6.162  1.0229 -0.2502  0.9106
  420SOL     vw 1680   1.666   2.258   6.178  1.0626 -0.0426  0.0026
  421SOL     ow 1681   5.737   5.073   4.755  0.0389  0.7422  0.1176
  421SOL     hw 1682   5.790   5.069   4.835 -1.3638  0.6084  1.0888
  421SOL     hw 1683   5.669   5.007   4.768 -0.9159  1.5314 -0.6549
  421SOL     vw 1684   5.735   5.064   4.767 -0.2720  0.8290  0.1435
  422SOL     ow 1685   1.548   1.257   5.946 -0.3049  0.7779  0.4280
  422SOL     hw 1686   1.609   1.331   5.939  1.0297 -0.4004 -1.0664
  422SOL     hw 1687   1.553   1.231   6.038  1.3529  0.8311  0.3908
  422SOL     vw 1688   1.557   1.263   5.957  0.0899  0.6295  0.2260
  423SOL     ow 1689   0.600   2.763   2.757  0.2640  0.0353  0.0693
  423SOL     hw 1690   0.531   2.724   2.811 -1.4410  0.5393 -1.6912
  423SOL     hw 1691   0.681   2.728   2.795 -0.9115 -0.5685  2.1868
  423SOL     vw 1692   0.602   2.753   2.769 -0.1161  0.0223  0.1163
  424SOL     ow 1693   1.695   5.280   4.845 -0.2561 -0.2875  0.3552
  424SOL     hw 1694   1.757   5.234   4.788 -0.4987 -0.4943  0.2569
  424SOL     hw 1695   1.735   5.365   4.861  0.7978 -0.9709  1.5368
  424SOL     vw 1696   1.708   5.285   4.839 -0.1490 -0.4048  0.4983
  425SOL     ow 1697   4.992   2.766   5.090 -0.2100  0.6058  0.3185
  425SOL     hw 1698   4.907   2.810   5.092 -0.3654  0.4202 -1.1097
  425SOL     hw 1699   5.054   2.834   5.061 -0.0761  0.4472  0.2294
  425SOL     vw 1700   4.989   2.781   5.086 -0.2129  0.5605  0.1180
  426SOL     ow 1701   2.491   5.179   2.826  0.2038 -0.5234  0.5468
  426SOL     hw 1702   2.432   5.246   2.792  1.3879 -0.2218 -1.0060
  426SOL     hw 1703   2.436   5.102   2.838 -0.4879 -0.3201 -1.0807
  426SOL     vw 1704   2.476   5.178   2.823  0.2687 -0.4568  0.1272
  427SOL     ow 1705   1.639   2.448   6.408 -0.0039  0.7426 -0.1486
  427SOL     hw 1706   1.592   2.525   6.440  2.5580  2.2389  0.2898
  427SOL     hw 1707   1.632   2.453   6.313  1.9407  2.8717 -0.2664
  427SOL     vw 1708   1.632   2.459   6.400  0.5907  1.2209 -0.1066
  428SOL     ow 1709   3.277   4.678   3.302 -0.4837  0.2589 -0.3859
  428SOL     hw 1710   3.356   4.700   3.252  0.3410  2.3276  1.6370
  428SOL     hw 1711   3.212   4.743   3.274 -0.8143 -0.1241 -0.5244
  428SOL     vw 1712   3.279   4.690   3.291 -0.4184  0.4814 -0.1373
  429SOL     ow 1713   1.294   5.695   2.090  0.3046 -0.2792  0.5224
  429SOL     hw 1714   1.203   5.718   2.112 -0.0737 -2.8371  1.9469
  429SOL     hw 1715   1.347   5.747   2.150 -0.2576  0.4345  0.4138
  429SOL     vw 1716   1.289   5.705   2.100  0.1804 -0.5224  0.6961
  430SOL     ow 1717   7.453   0.105   7.074 -0.0682  0.1558  0.4127
  430SOL     hw 1718   7.536   0.104   7.121  0.6694  0.7030 -0.8240
  430SOL     hw 1719   7.387   0.091   7.141  0.9966  0.0679  1.4739
  430SOL     vw 1720   7.456   0.103   7.089  0.1696  0.2164  0.3896
  431SOL     ow 1721   1.116   2.306   3.684  0.1722  0.4508  0.3080
  431SOL     hw 1722   1.204   2.321   3.649  0.6309  1.3312  1.7156
  431SOL     hw 1723   1.070   2.258   3.616  0.9849  2.0673 -1.4679
  431SOL     vw 1724   1.122   2.302   3.671  0.3399  0.7802  0.2595
  432SOL     ow 1725   3.923   2.461   1.977 -0.0549 -0.3402 -0.3496
  432SOL     hw 1726   3.870   2.528   1.934  3.1124  1.4380 -1.8640
  432SOL     hw 1727   3.909   2.383   1.924 -0.5297  0.3154 -1.2341
  432SOL     vw 1728   3.915   2.460   1.964  0.3003 -0.0192 -0.6661
  433SOL     ow 1729   0.358   0.704   4.686 -0.0909  0.6867  0.6359
  433SOL     hw 1730   0.351   0.720   4.780 -3.1455  0.4548  0.5488
  433SOL     hw 1731   0.287   0.643   4.666  0.6734  0.4740 -1.7940
  433SOL     vw 1732   0.348   0.698   4.695 -0.3931  0.6281  0.3037
  434SOL     ow 1733   0.788   4.367   5.995  0.4633  0.3075 -0.0739
  434SOL     hw 1734   0.747   4.453   5.988  1.4385  0.7029 -1.1471
  434SOL     hw 1735   0.821   4.348   5.907  1.1879 -0.6951  0.3885
  434SOL     vw 1736   0.787   4.375   5.983  0.6876  0.2275 -0.1545
  435SOL     ow 1737   7.266   5.155   0.877  0.2856  0.2142  0.2355
  435SOL     hw 1738   7.269   5.169   0.782  1.1676 -0.3269  0.1706
  435SOL     hw 1739   7.262   5.060   0.887  0.7134  0.2448  0.7408
  435SOL     vw 1740   7.266   5.145   0.866  0.4585  0.1471  0.2936
  436SOL     ow 1741   6.043   6.274   6.919 -0.0078  0.1379  0.0834
  436SOL     hw 1742   6.069   6.362   6.944 -0.0742  0.1555  0.0901
  436SOL     hw 1743   6.057   6.270   6.824  0.4843 -0.0108  0.1587
  436SOL     vw 1744   6.048   6.285   6.910  0.0482  0.1206  0.0942
  437SOL     ow 1745   3.403   4.303   1.864  0.2954 -0.1987  0.1017
  437SOL     hw 1746   3.327   4.359   1.878 -0.1234 -0.0458 -2.3381
  437SOL     hw 1747   3.370   4.214   1.874  0.4086 -0.0960  1.5608
  437SOL     vw 1748   3.389   4.299   1.867  0.2550 -0.1647 -0.0277
  438SOL     ow 1749   2.734   1.812   6.167  0.5849 -0.1765  0.5514
  438SOL     hw 1750   2.746   1.728   6.213  0.7618 -1.2716 -1.3871
  438SOL     hw 1751   2.813   1.822   6.114 -0.8940 -0.5940 -1.9006
  438SOL     vw 1752   2.746   1.802   6.166  0.4131 -0.3761 -0.0277
  439SOL     ow 1753   6.079   7.379   4.943  0.2130  0.0847  0.2371
  439SOL     hw 1754   6.118   7.292   4.928 -0.7112 -0.1819 -0.7633
  439SOL     hw 1755   6.095   7.426   4.861 -1.6118 -0.0589 -0.2394
  439SOL     vw 1756   6.086   7.374   4.930 -0.1497  0.0305  0.0420
  440SOL     ow 1757   1.388   5.360   7.158 -0.0758  0.5572 -0.1262
  440SOL     hw 1758   1.302   5.399   7.147 -0.9371 -1.1294  0.1908
  440SOL     hw 1759   1.380   5.272   7.120  1.3539  0.1862  0.3269
  440SOL     vw 1760   1.376   5.353   7.152 -0.0008  0.2859 -0.0248
  441SOL     ow 1761   3.923   3.136   7.382 -0.5225 -0.1162 -0.2567
  441SOL     hw 1762   4.000   3.134   7.439 -1.3641  0.9094  0.9835
  441SOL     hw 1763   3.866   3.067   7.416 -0.9997  0.4577  0.1300
  441SOL     vw 1764   3.926   3.127   7.394 -0.6965  0.0949 -0.0422
  442SOL     ow 1765   2.712   0.029   3.010  0.2535  0.4728  0.3362
  442SOL     hw 1766   2.712  -0.061   3.041 -0.1453  0.7842  1.2734
  442SOL     hw 1767   2.623   0.044   2.979  0.6802  0.1252 -1.1133
  442SOL     vw 1768   2.700   0.019   3.010  0.2570  0.4678  0.2687
  443SOL     ow 1769   3.510   0.740   2.473 -0.0266 -0.0329 -0.0550
  443SOL     hw 1770   3.456   0.665   2.447 -1.0118  0.1539  1.3192
  443SOL     hw 1771   3.600   0.714   2.452 -0.3252 -1.7150  0.6019
  443SOL     vw 1772   3.515   0.727   2.467 -0.1960 -0.2301  0.2130
  444SOL     ow 1773   5.593   6.068   0.817  0.0962  1.0408 -0.2506
  444SOL     hw 1774   5.647   5.999   0.778 -0.6768  0.0669  0.3646
  444SOL     hw 1775   5.638   6.090   0.899 -1.6148 -1.5195  1.5337
  444SOL     vw 1776   5.606   6.062   0.823 -0.2313  0.5744  0.0660
  445SOL     ow 1777   2.093   6.264   2.888  0.4274 -0.0934 -0.3181
  445SOL     hw 1778   2.012   6.313   2.903  0.2379 -0.0078 -1.5062
  445SOL     hw 1779   2.162   6.330   2.896  0.2875  0.0649 -0.3924
  445SOL     vw 1780   2.092   6.279   2.891  0.3840 -0.0613 -0.4847
  446SOL     ow 1781   2.143   7.165   5.417 -0.5133 -0.3029 -0.1671
  446SOL     hw 1782   2.112   7.091   5.469 -0.4177 -0.7553 -0.7412
  446SOL     hw 1783   2.236   7.146   5.402 -0.9296 -1.1231 -2.0201
  446SOL     vw 1784   2.151   7.153   5.422 -0.5556 -0.4706 -0.4871
  447SOL     ow 1785   2.670   4.451   1.904  0.1577  0.1062  0.4371
  447SOL     hw 1786   2.644   4.394   1.831  0.9700  0.9651 -0.5522
  447SOL     hw 1787   2.588   4.466   1.951 -0.5864  0.2600 -0.8311
  447SOL     vw 1788   2.656   4.446   1.900  0.1667  0.2401  0.1392
  448SOL     ow 1789   1.969   0.051   2.101  0.1356 -0.1091  0.0900
  448SOL     hw 1790   1.958   0.114   2.172 -0.2920 -0.9240  0.7563
  448SOL     hw 1791   2.034  -0.011   2.133  0.7785  0.1429 -0.6805
  448SOL     vw 1792   1.976   0.051   2.114  0.1640 -0.1834  0.0764
  449SOL     ow 1793   3.230   2.059   3.831  0.2908  0.3545  0.3273
  449SOL     hw 1794   3.149   2.008   3.834 -0.1330  1.0140  2.9703
  449SOL     hw 1795   3.296   1.998   3.801 -1.0702 -0.3592 -1.3533
  449SOL     vw 1796   3.228   2.044   3.828  0.0553  0.3474  0.4542
  450SOL     ow 1797   2.469   7.264   2.872 -0.3652 -0.4062  0.9019
  450SOL     hw 1798   2.423   7.187   2.905  0.1124 -1.1335 -0.0668
  450SOL     hw 1799   2.540   7.228   2.819 -0.8138  0.7039 -0.5167
  450SOL     vw 1800   2.473   7.249   2.870 -0.3614 -0.3560  0.5869
  451SOL     ow 1801   3.543   4.002   1.763  0.1954 -0.4971 -0.2032
  451SOL     hw 1802   3.505   3.968   1.682  0.1531  1.0626 -0.8599
  451SOL     hw 1803   3.471   3.997   1.826  0.2114 -1.6602 -0.2545
  451SOL     vw 1804   3.528   3.997   1.761  0.1919 -0.4448 -0.2967
  452SOL     ow 1805   5.720   3.146   4.418 -0.6434  0.4941 -0.2103
  452SOL     hw 1806   5.742   3.136   4.325 -1.6777  1.2574 -0.5532
  452SOL     hw 1807   5.637   3.192   4.418 -0.9985 -0.1035  1.0991
  452SOL     vw 1808   5.712   3.151   4.406 -0.8264  0.5158 -0.0825
  453SOL     ow 1809   3.812   2.654   1.211 -0.7755 -0.3033 -0.3037
  453SOL     hw 1810   3.896   2.683   1.245 -0.2052 -0.4251 -1.5545
  453SOL     hw 1811   3.748   2.683   1.276  0.2425 -0.3934  0.7646
  453SOL     vw 1812   3.814   2.662   1.224 -0.5660 -0.3312 -0.3278
  454SOL     ow 1813   2.326   3.609   1.621  0.1234 -0.1071  0.1562
  454SOL     hw 1814   2.275   3.686   1.598 -1.0411 -1.0639 -0.6164
  454SOL     hw 1815   2.376   3.635   1.698 -1.1149  1.0447  0.6018
  454SOL     vw 1816   2.326   3.622   1.628 -0.1936 -0.0814  0.1130
  455SOL     ow 1817   0.406   2.046   4.628 -0.9166 -0.1828 -0.2696
  455SOL     hw 1818   0.424   2.000   4.546 -2.2411 -2.5348  0.6508
  455SOL     hw 1819   0.342   2.113   4.604 -0.7529 -0.3695 -1.2786
  455SOL     vw 1820   0.400   2.049   4.614 -1.0698 -0.5177 -0.2813
  456SOL     ow 1821   2.997   2.649   6.588  0.0872 -0.5024  0.0667
  456SOL     hw 1822   2.980   2.743   6.575 -0.2153 -0.4897  0.5006
  456SOL     hw 1823   3.089   2.637   6.564 -0.1815 -0.3146 -1.0888
  456SOL     vw 1824   3.007   2.660   6.583  0.0119 -0.4759 -0.0286
  457SOL     ow 1825   2.436   1.404   1.773 -0.5610  0.2967 -0.1085
  457SOL     hw 1826   2.444   1.481   1.829  1.6704  1.0527 -1.3700
  457SOL     hw 1827   2.487   1.336   1.819 -0.5530  0.2764 -0.1472
  457SOL     vw 1828   2.444   1.405   1.787 -0.2655  0.3937 -0.2801
  458SOL     ow 1829   1.654   5.396   5.570  0.0187 -0.9836 -0.2374
  458SOL     hw 1830   1.562   5.396   5.596  0.1949  0.1479  0.4252
  458SOL     hw 1831   1.700   5.353   5.643  0.6470  3.0825  2.0477
  458SOL     vw 1832   1.648   5.390   5.583  0.1248 -0.2978  0.1516
  459SOL     ow 1833   3.091   4.335   7.014  0.2076  0.0486 -0.3661
  459SOL     hw 1834   3.010   4.292   6.984  0.4116 -0.9601  0.4777
  459SOL     hw 1835   3.129   4.371   6.934 -1.1403  0.6736 -0.7685
  459SOL     vw 1836   3.085   4.334   6.999  0.0569 -0.0019 -0.3078
  460SOL     ow 1837   1.531   5.799   7.268 -0.5815  0.5489  0.1794
  460SOL     hw 1838   1.443   5.761   7.262 -0.5259  0.4242  0.1424
  460SOL     hw 1839   1.517   5.887   7.301 -0.6078  0.0368  1.6064
  460SOL     vw 1840   1.517   5.805   7.271 -0.5777  0.4649  0.3631
  461SOL     ow 1841   5.159   3.671   1.540  0.4097 -0.1936 -0.5214
  461SOL     hw 1842   5.102   3.673   1.463  2.4624  2.5778 -2.1535
  461SOL     hw 1843   5.176   3.577   1.554 -3.4702 -1.0723 -0.5915
  461SOL     vw 1844   5.154   3.659   1.531  0.1686  0.0560 -0.7460
  462SOL     ow 1845   5.824   5.443   3.639  0.1371  0.3214  0.1089
  462SOL     hw 1846   5.906   5.395   3.644 -0.5462 -0.8259  0.7540
  462SOL     hw 1847   5.773   5.412   3.714 -0.7620  1.2444 -0.0937
  462SOL     vw 1848   5.828   5.433   3.650 -0.0718  0.2918  0.1673
  463SOL     ow 1849   2.167   1.441   1.579 -0.3950  0.0017 -0.0058
  463SOL     hw 1850   2.076   1.413   1.588 -0.7389 -0.1407 -2.9369
  463SOL     hw 1851   2.164   1.536   1.587 -0.4894 -0.1185  1.6723
  463SOL     vw 1852   2.155   1.450   1.581 -0.4529 -0.0330 -0.1712
  464SOL     ow 1853   1.286   6.713   3.919 -0.2453  0.1591  0.4255
  464SOL     hw 1854   1.311   6.765   3.843  0.9925 -1.3594 -0.2439
  464SOL     hw 1855   1.192   6.728   3.929 -0.0197  2.0987 -0.0405
  464SOL     vw 1856   1.277   6.722   3.911 -0.0523  0.2146  0.2756
  465SOL     ow 1857   1.821   6.025   1.186 -0.0713  0.4979  0.6720
  465SOL     hw 1858   1.908   5.986   1.174 -0.6352 -0.6193  0.1034
  465SOL     hw 1859   1.760   5.955   1.163 -1.1288  1.4846  0.4046
  465SOL     vw 1860   1.825   6.010   1.182 -0.2853  0.4807  0.5617
  466SOL     ow 1861   3.814   3.852   5.082  0.3810 -0.0059 -0.7948
  466SOL     hw 1862   3.884   3.804   5.038  1.1051  0.1541  0.1488
  466SOL     hw 1863   3.743   3.789   5.090  1.5489 -1.1941  1.0318
  466SOL     vw 1864   3.814   3.838   5.078  0.6306 -0.1415 -0.4294
  467SOL     ow 1865   3.251   6.556   5.744  0.2830 -0.1570  0.2810
  467SOL     hw 1866   3.246   6.517   5.832  1.6585  0.1668  0.5149
  467SOL     hw 1867   3.344   6.561   5.725 -0.0034 -1.1734 -1.6521
  467SOL     vw 1868   3.262   6.551   5.753  0.4267 -0.2482  0.0567
  468SOL     ow 1869   6.812   5.452   2.054 -0.4956 -0.1567  0.4167
  468SOL     hw 1870   6.833   5.537   2.016  0.2746 -0.1081  0.9251
  468SOL     hw 1871   6.752   5.411   1.991 -1.0089  0.8214  0.2525
  468SOL     vw 1872   6.807   5.458   2.041 -0.4618 -0.0212  0.4621
  469SOL     ow 1873   3.921   1.029   7.197  0.1184 -0.3720 -0.4077
  469SOL     hw 1874   4.003   0.992   7.165 -0.0232 -1.0437 -0.0099
  469SOL     hw 1875   3.928   1.123   7.179  1.4442 -0.2510  0.5884
  469SOL     vw 1876   3.933   1.037   7.191  0.2748 -0.4447 -0.2236
  470SOL     ow 1877   6.063   4.361   6.905  0.2615  0.5280  0.3157
  470SOL     hw 1878   6.042   4.342   6.814  2.0608  0.2341 -0.0673
  470SOL     hw 1879   5.977   4.369   6.948 -0.6460  1.5095 -1.5487
  470SOL     vw 1880   6.049   4.360   6.899  0.3791  0.6187  0.0191
  471SOL     ow 1881   0.626   1.604   6.022 -0.0673  0.4007 -0.4375
  471SOL     hw 1882   0.560   1.601   6.092 -0.9037  0.0316 -1.2265
  471SOL     hw 1883   0.651   1.513   6.010  0.4535  0.5191 -0.2841
  471SOL     vw 1884   0.621   1.592   6.030 -0.1089  0.3676 -0.5214
  472SOL     ow 1885   0.650   6.749   2.318 -0.2724  0.5759 -0.0746
  472SOL     hw 1886   0.709   6.788   2.253 -0.8164 -0.2973 -1.1192
  472SOL     hw 1887   0.564   6.751   2.276 -0.8182  0.8945  1.0232
  472SOL     vw 1888   0.647   6.755   2.304 -0.4161  0.5026 -0.0676
  473SOL     ow 1889   3.063   4.839   6.908  0.0281 -0.0891  0.6214
  473SOL     hw 1890   3.002   4.777   6.867 -1.0069  0.5953  1.0888
  473SOL     hw 1891   3.053   4.920   6.858 -0.3243  0.3784  1.4268
  473SOL     vw 1892   3.053   4.841   6.896 -0.1550  0.0632  0.7894
  474SOL     ow 1893   1.864   3.254   6.986  0.6130 -0.3387  0.1567
  474SOL     hw 1894   1.805   3.285   6.917  1.0619  1.0343  0.3651
  474SOL     hw 1895   1.922   3.192   6.941  1.4861  1.2041 -0.9446
  474SOL     vw 1896   1.864   3.250   6.971  0.7874  0.0460  0.0386
  475SOL     ow 1897   1.546   6.909   3.614 -0.1634  0.0436 -0.3618
  475SOL     hw 1898   1.513   6.861   3.539  0.2290 -0.3492 -0.2819
  475SOL     hw 1899   1.562   6.998   3.581  0.4251 -0.2407 -0.8486
  475SOL     vw 1900   1.544   6.915   3.600 -0.0339 -0.0458 -0.4154
  476SOL     ow 1901   2.845   3.918   2.503  0.9756 -0.4721  0.3027
  476SOL     hw 1902   2.902   3.907   2.427  1.5388 -1.7168  0.8700
  476SOL     hw 1903   2.778   3.980   2.475  2.5484  0.9719 -0.4179
  476SOL     vw 1904   2.844   3.924   2.489  1.2573 -0.4458  0.2824
  477SOL     ow 1905   6.563   7.242   6.048 -0.5736 -0.2678 -0.1158
  477SOL     hw 1906   6.502   7.271   5.981 -0.7033 -1.3458 -0.4883
  477SOL     hw 1907   6.509   7.197   6.113 -0.1658 -1.6481 -0.6809
  477SOL     vw 1908   6.548   7.240   6.048 -0.5369 -0.5925 -0.2396
  478SOL     ow 1909   7.080   0.966   1.976  0.3693 -0.1731  0.5970
  478SOL     hw 1910   7.108   0.952   2.066 -0.2516 -2.4103  0.5063
  478SOL     hw 1911   7.002   1.021   1.983  1.4347  1.3190  1.2403
  478SOL     vw 1912   7.073   0.972   1.989  0.4280 -0.2714  0.6698
  479SOL     ow 1913   1.900   1.196   6.608  0.4411  0.7096 -0.2015
  479SOL     hw 1914   1.842   1.267   6.581  0.3805  0.5424 -0.5172
  479SOL     hw 1915   1.846   1.142   6.666 -0.0066  0.0677 -1.1915
  479SOL     vw 1916   1.885   1.198   6.612  0.3741  0.6029 -0.3736
  480SOL     ow 1917   6.324   6.852   1.513  0.3686  0.6565  0.1752
  480SOL     hw 1918   6.277   6.804   1.582 -1.0972  3.1500  1.0689
  480SOL     hw 1919   6.317   6.797   1.436 -1.0520 -0.6484  1.1762
  480SOL     vw 1920   6.317   6.839   1.512 -0.0124  0.8135  0.4252
  481SOL     ow 1921   0.324   1.746   6.911 -0.0963  0.5635 -0.3043
  481SOL     hw 1922   0.286   1.769   6.826 -0.0681  0.1295 -0.4355
  481SOL     hw 1923   0.248   1.728   6.967 -0.1255  1.1656 -0.1437
  481SOL     vw 1924   0.309   1.747   6.907 -0.0965  0.5857 -0.3004
  482SOL     ow 1925   1.247   6.682   7.226 -0.3693 -0.0233 -0.0779
  482SOL     hw 1926   1.223   6.593   7.249  0.2858  0.2247  1.7322
  482SOL     hw 1927   1.329   6.698   7.273 -0.0982  1.2983 -0.9246
  482SOL     vw 1928   1.255   6.673   7.235 -0.2471  0.1836  0.0489
  483SOL     ow 1929   3.663   4.080   3.448 -0.2975 -0.5729  0.4515
  483SOL     hw 1930   3.587   4.022   3.458  0.3820 -1.4997  0.3341
  483SOL     hw 1931   3.738   4.027   3.476  0.2488  0.5144  1.0987
  483SOL     vw 1932   3.663   4.065   3.453 -0.1358 -0.5519  0.5214
  484SOL     ow 1933   0.046   4.169   0.909  0.4322  0.1627  0.1527
  484SOL     hw 1934   0.089   4.084   0.914 -1.6613 -0.9087  1.0889
  484SOL     hw 1935  -0.016   4.160   0.837 -0.3900  0.6164  0.7976
  484SOL     vw 1936   0.044   4.157   0.900  0.0475  0.0813  0.3613
  485SOL     ow 1937   6.850   0.542   3.042  0.3184  0.2222 -0.0794
  485SOL     hw 1938   6.934   0.498   3.029  0.0268 -0.1390 -0.7943
  485SOL     hw 1939   6.867   0.634   3.022  1.2217  0.7325  2.5627
  485SOL     vw 1940   6.864   0.548   3.038  0.3986  0.2418  0.1748
  486SOL     ow 1941   3.433   5.971   2.252 -0.5049  0.1433 -0.7906
  486SOL     hw 1942   3.510   5.914   2.253 -1.0444 -0.6271 -1.3501
  486SOL     hw 1943   3.464   6.056   2.283  0.0760 -0.7365  1.1726
  486SOL     vw 1944   3.447   5.975   2.256 -0.4994 -0.0746 -0.6053
  487SOL     ow 1945   6.641   4.653   4.731  0.3560  0.0665  0.6321
  487SOL     hw 1946   6.720   4.612   4.766  1.6565  2.0906  0.2762
  487SOL     hw 1947   6.660   4.665   4.638 -1.6183 -2.0527 -0.1257
  487SOL     vw 1948   6.654   4.649   4.723  0.2670  0.0539  0.4852
  488SOL     ow 1949   4.839   5.841   1.877  0.1437  0.0093 -0.0190
  488SOL     hw 1950   4.909   5.892   1.918 -0.1651 -0.1975  0.7937
  488SOL     hw 1951   4.763   5.900   1.878  0.5756  0.6736 -1.9868
  488SOL     vw 1952   4.838   5.855   1.883  0.1600  0.0696 -0.1714
  489SOL     ow 1953   3.388   1.573   1.049  0.5113 -0.1524  0.2132
  489SOL     hw 1954   3.333   1.499   1.071  0.7406 -0.4574 -0.2353
  489SOL     hw 1955   3.456   1.537   0.992  0.5595  0.4209 -0.0998
  489SOL     vw 1956   3.390   1.559   1.044  0.5479 -0.1169  0.1127
  490SOL     ow 1957   1.602   4.323   1.134 -0.2186 -0.2025  0.4201
  490SOL     hw 1958   1.541   4.341   1.062  1.4136  0.7543 -0.8161
  490SOL     hw 1959   1.590   4.230   1.152 -1.2292 -0.2944 -0.5524
  490SOL     vw 1960   1.592   4.313   1.127 -0.1365 -0.0882  0.1287
  491SOL     ow 1961   4.791   0.031   5.889  0.2902  0.1268  0.2057
  491SOL     hw 1962   4.719   0.087   5.918  0.3655  0.6897 -0.6361
  491SOL     hw 1963   4.861   0.045   5.953 -0.2888 -0.2959  0.9356
  491SOL     vw 1964   4.791   0.040   5.901  0.2239  0.1453  0.1912
  492SOL     ow 1965   1.924   5.814   2.050  0.0586 -0.5987  0.3679
  492SOL     hw 1966   2.004   5.793   2.001  1.6561  1.7692  1.7109
  492SOL     hw 1967   1.941   5.782   2.139 -1.2905 -1.6624  0.2726
  492SOL     vw 1968   1.937   5.807   2.056  0.0914 -0.4265  0.5325
  493SOL     ow 1969   4.614   0.399   2.113 -0.0649  0.9618 -0.2025
  493SOL     hw 1970   4.645   0.489   2.122 -1.5932  1.7695 -2.2131
  493SOL     hw 1971   4.686   0.353   2.071  0.7384  1.2265  0.8579
  493SOL     vw 1972   4.627   0.405   2.109 -0.1605  1.1033 -0.3278
  494SOL     ow 1973   4.576   3.336   4.672  0.2709 -0.6129 -0.1910
  494SOL     hw 1974   4.515   3.263   4.662 -0.8054 -0.4184  3.4849
  494SOL     hw 1975   4.529   3.400   4.724  3.0683  0.2157  1.5570
  494SOL     vw 1976   4.562   3.335   4.677  0.4981 -0.4780  0.5248
  495SOL     ow 1977   3.550   5.628   2.928 -0.6847 -0.1770 -0.1656
  495SOL     hw 1978   3.536   5.574   2.851 -1.0009  0.0981 -0.3031
  495SOL     hw 1979   3.532   5.570   3.002 -0.0622 -0.5337 -0.2845
  495SOL     vw 1980   3.546   5.614   2.928 -0.6442 -0.1879 -0.1997
  496SOL     ow 1981   4.316   7.192   1.623 -0.2401  0.1796  0.7102
  496SOL     hw 1982   4.326   7.114   1.569  0.2938 -0.5227  1.8057
  496SOL     hw 1983   4.222   7.211   1.620 -0.0974  0.8899 -1.4288
  496SOL     vw 1984   4.305   7.184   1.615 -0.1509  0.1810  0.5726
  497SOL     ow 1985   3.488   5.649   2.481 -0.0147  0.2977 -0.4418
  497SOL     hw 1986   3.462   5.724   2.534  0.9535 -0.5075  1.2505
  497SOL     hw 1987   3.533   5.590   2.542 -2.6181 -2.6964 -1.1359
  497SOL     vw 1988   3.490   5.651   2.496 -0.2304 -0.2036 -0.3099
  498SOL     ow 1989   0.072   5.267   5.431  0.2150 -0.0011 -0.3368
  498SOL     hw 1990   0.006   5.258   5.500  0.7413  0.2415  0.2153
  498SOL     hw 1991   0.104   5.178   5.417 -0.4039 -0.1586 -0.7929
  498SOL     vw 1992   0.068   5.254   5.439  0.2028  0.0098 -0.3240
  499SOL     ow 1993   3.855   0.445   2.237  0.0711  0.2496 -0.2407
  499SOL     hw 1994   3.866   0.437   2.142  0.6760 -0.8969 -0.0969
  499SOL     hw 1995   3.784   0.385   2.258  0.4599 -0.0903  0.1191
  499SOL     vw 1996   3.847   0.436   2.227  0.2022  0.0535 -0.1742
  500SOL     ow 1997   0.194   6.304   0.227  0.6732  0.2680 -0.3918
  500SOL     hw 1998   0.259   6.234   0.233  2.4345  1.7670 -0.8531
  500SOL     hw 1999   0.136   6.277   0.156  0.6038 -1.2452  0.2127
  500SOL     vw 2000   0.195   6.291   0.218  0.8964  0.2658 -0.3729
  501SOL     ow 2001   7.328   3.452   7.231  0.0664 -0.0591  0.2972
  501SOL     hw 2002   7.355   3.360   7.232  2.5800  0.5893  0.1783
  501SOL     hw 2003   7.324   3.477   7.323  0.9081  0.0717  0.3098
  501SOL     vw 2004   7.331   3.443   7.243  0.5088  0.0436  0.2832
  502SOL     ow 2005   0.290   1.468   2.712 -0.2183  0.6392 -0.2618
  502SOL     hw 2006   0.240   1.539   2.751  0.1602  0.5515  0.3952
  502SOL     hw 2007   0.375   1.471   2.756  0.3351  0.7270 -1.2884
  502SOL     vw 2008   0.295   1.478   2.723 -0.0954  0.6392 -0.3105
  503SOL     ow 2009   2.068   2.624   7.442  0.3109 -0.0521  0.3082
  503SOL     hw 2010   2.031   2.661   7.362 -1.1746  1.2460  1.5285
  503SOL     hw 2011   2.122   2.551   7.412 -1.7255 -0.8427 -1.7419
  503SOL     vw 2012   2.070   2.619   7.428 -0.1538  0.0148  0.1986
  504SOL     ow 2013   0.554   4.697   2.799  0.2444 -0.0614 -0.2952
  504SOL     hw 2014   0.609   4.639   2.747  1.6921  0.0285  1.0323
  504SOL     hw 2015   0.615   4.764   2.831 -0.4020 -0.4651  1.9726
  504SOL     vw 2016   0.570   4.698   2.797  0.3501 -0.1028  0.1792
  505SOL     ow 2017   3.196   7.386   2.783 -0.2384  0.0717  0.0907
  505SOL     hw 2018   3.231   7.303   2.750 -2.6958 -0.7388 -0.7198
  505SOL     hw 2019   3.190   7.373   2.878  1.0145  0.0056  0.1685
  505SOL     vw 2020   3.199   7.373   2.791 -0.3973 -0.0441 -0.0060
  506SOL     ow 2021   3.952   0.116   6.791  0.5123  0.3851 -1.0242
  506SOL     hw 2022   4.022   0.053   6.807  0.0979  0.1671 -0.0147
  506SOL     hw 2023   3.893   0.070   6.731  0.7982  0.2578 -1.2154
  506SOL     vw 2024   3.954   0.101   6.785  0.4953  0.3396 -0.9160
  507SOL     ow 2025   2.950   4.263   3.392  0.4779  0.6151  0.4708
  507SOL     hw 2026   2.978   4.228   3.307 -1.3712  1.4829 -0.5564
  507SOL     hw 2027   2.961   4.189   3.452 -0.1576 -0.7119 -0.9587
  507SOL     vw 2028   2.955   4.248   3.389  0.1501  0.5546  0.1466
  508SOL     ow 2029   5.548   4.930   1.648  0.1142  0.7358  0.1304
  508SOL     hw 2030   5.591   4.992   1.589 -0.7886  0.0292 -1.3259
  508SOL     hw 2031   5.545   4.975   1.733 -0.1993  2.5373 -0.7995
  508SOL     vw 2032   5.553   4.944   1.652 -0.0460  0.8802 -0.1844
  509SOL     ow 2033   0.957   6.660   2.999 -0.1260 -0.1192 -0.1422
  509SOL     hw 2034   0.909   6.701   2.928  0.4623 -0.5000 -0.7795
  509SOL     hw 2035   1.039   6.631   2.959  0.3434 -0.0813  0.7591
  509SOL     vw 2036   0.962   6.662   2.985  0.0135 -0.1643 -0.1073
  510SOL     ow 2037   1.631   5.645   6.708  0.3584 -0.9198  0.2621
  510SOL     hw 2038   1.615   5.672   6.618  0.7057 -1.3717  0.0620
  510SOL     hw 2039   1.725   5.658   6.721  0.1839 -0.1314  0.8057
  510SOL     vw 2040   1.642   5.650   6.698  0.3812 -0.8755  0.3076
  511SOL     ow 2041   3.416   3.500   4.749 -0.1730  0.3453  0.6834
  511SOL     hw 2042   3.336   3.475   4.703  0.5345 -0.2941 -0.2293
  511SOL     hw 2043   3.409   3.455   4.834 -0.3388 -0.4925  0.2378
  511SOL     vw 2044   3.404   3.490   4.754 -0.1014  0.1503  0.5043
  512SOL     ow 2045   7.444   0.399   2.585  0.0792  0.0279 -0.5192
  512SOL     hw 2046   7.370   0.408   2.645 -0.0021  0.1633 -0.6388
  512SOL     hw 2047   7.425   0.319   2.536 -0.7825  0.8945 -1.6456
  512SOL     vw 2048   7.432   0.390   2.586 -0.0453  0.1601 -0.6835
  513SOL     ow 2049   3.034   3.153   0.614  0.2097  0.4413  0.1278
  513SOL     hw 2050   2.962   3.151   0.678  0.7433  0.8035  0.7469
  513SOL     hw 2051   2.998   3.109   0.537  0.4817 -2.7442  1.6458
  513SOL     vw 2052   3.019   3.147   0.612  0.3160  0.0688  0.4098
  514SOL     ow 2053   4.011   5.084   0.631 -0.4638 -0.4131  0.7010
  514SOL     hw 2054   4.037   5.031   0.706  2.1899 -0.1516  0.0567
  514SOL     hw 2055   4.010   5.174   0.664 -0.5264 -0.4133  0.7013
  514SOL     vw 2056   4.014   5.089   0.645 -0.1216 -0.3784  0.6161
  515SOL     ow 2057   1.885   5.120   0.545  0.0162  0.2133 -0.3202
  515SOL     hw 2058   1.849   5.109   0.633 -2.3271 -1.2050 -1.3688
  515SOL     hw 2059   1.978   5.101   0.555 -0.3488 -0.8018  1.6880
  515SOL     vw 2060   1.892   5.116   0.558 -0.3411 -0.1080 -0.1936
  516SOL     ow 2061   7.315   5.255   5.268 -0.4168 -0.3906  0.3044
  516SOL     hw 2062   7.322   5.177   5.213  0.3553 -0.7675  0.9089
  516SOL     hw 2063   7.396   5.254   5.321  0.1190  1.3953 -0.4166
  516SOL     vw 2064   7.327   5.245   5.268 -0.2441 -0.2048  0.2887
  517SOL     ow 2065   4.622   1.400   1.751 -0.1608  0.5095 -0.1343
  517SOL     hw 2066   4.551   1.350   1.791 -0.1766 -0.1227 -0.9213
  517SOL     hw 2067   4.672   1.335   1.701  0.7682  1.0076  0.1230
  517SOL     vw 2068   4.619   1.384   1.750 -0.0403  0.4917 -0.2043
  518SOL     ow 2069   4.861   1.491   3.243 -0.1556  0.2484 -0.1994
  518SOL     hw 2070   4.905   1.423   3.294  0.0928  1.1161  0.7718
  518SOL     hw 2071   4.769   1.483   3.266 -0.3019 -0.5195 -1.0009
  518SOL     vw 2072   4.855   1.481   3.253 -0.1423  0.2615 -0.1770
  519SOL     ow 2073   3.314   6.062   3.373  0.1088  0.5712 -0.4635
  519SOL     hw 2074   3.284   6.146   3.410 -0.9593 -0.8459  2.1367
  519SOL     hw 2075   3.256   5.997   3.413  1.4357 -1.5149 -1.7890
  519SOL     vw 2076   3.302   6.065   3.383  0.1429  0.1087 -0.2952
  520SOL     ow 2077   5.015   2.783   3.308  0.2158  0.1938  0.2559
  520SOL     hw 2078   5.050   2.740   3.386 -0.5693 -0.4913  0.2423
  520SOL     hw 2079   5.091   2.829   3.271  0.5362  0.7683  1.5594
  520SOL     vw 2080   5.030   2.784   3.313  0.1545  0.1794  0.4261
  521SOL     ow 2081   2.166   1.188   4.661 -0.1620 -0.0086  0.2818
  521SOL     hw 2082   2.217   1.127   4.608  3.3033  2.4549  0.4050
  521SOL     hw 2083   2.181   1.162   4.751  0.2156  0.2045  0.2836
  521SOL     vw 2084   2.175   1.177   4.666  0.3450  0.3445  0.2983
  522SOL     ow 2085   5.709   6.908   4.757 -0.3430 -0.6423  0.4359
  522SOL     hw 2086   5.658   6.898   4.677  0.8954 -2.3960 -0.1984
  522SOL     hw 2087   5.652   6.958   4.816 -0.6697  2.3004 -2.0702
  522SOL     vw 2088   5.695   6.913   4.754 -0.2229 -0.4852  0.0215
  523SOL     ow 2089   2.883   2.193   0.273  0.1858 -0.1326 -0.0216
  523SOL     hw 2090   2.835   2.164   0.350  0.2473 -0.4530 -0.1008
  523SOL     hw 2091   2.879   2.288   0.276  0.2644 -0.1416  0.4276
  523SOL     vw 2092   2.876   2.202   0.284  0.2042 -0.1761  0.0273
  524SOL     ow 2093   2.629   6.696   0.103 -0.6250  0.0774  0.1076
  524SOL     hw 2094   2.548   6.654   0.130  0.1803 -0.6959  1.4305
  524SOL     hw 2095   2.652   6.755   0.175  1.5616 -2.0151  1.2687
  524SOL     vw 2096   2.621   6.698   0.116 -0.2304 -0.3006  0.4353
  525SOL     ow 2097   1.722   0.830   1.558  0.0469  0.2912  0.3037
  525SOL     hw 2098   1.729   0.741   1.593 -1.1301 -0.3196 -0.9395
  525SOL     hw 2099   1.641   0.830   1.507  1.6787  1.0577 -2.5132
  525SOL     vw 2100   1.713   0.818   1.556  0.1069  0.3118 -0.2320
  526SOL     ow 2101   5.497   6.668   4.188  0.4859  0.3482  0.7149
  526SOL     hw 2102   5.404   6.650   4.176  0.2546  1.1932  1.1528
  526SOL     hw 2103   5.525   6.605   4.254  0.5667 -0.8456 -0.4165
  526SOL     vw 2104   5.488   6.658   4.195  0.4659  0.3021  0.6235
  527SOL     ow 2105   2.778   3.714   4.061 -0.4130  0.6565 -0.0977
  527SOL     hw 2106   2.843   3.772   4.021  0.0524  1.3865  1.6070
  527SOL     hw 2107   2.818   3.627   4.056 -0.3004  0.7500 -1.0222
  527SOL     vw 2108   2.792   3.710   4.055 -0.3366  0.7652  0.0050
  528SOL     ow 2109   1.972   7.177   6.824 -0.3049  0.0207  0.5275
  528SOL     hw 2110   2.068   7.177   6.818 -0.3118  0.3534  0.3848
  528SOL     hw 2111   1.954   7.191   6.917 -0.2144 -0.5941  0.6424
  528SOL     vw 2112   1.983   7.179   6.835 -0.2939 -0.0167  0.5238
  529SOL     ow 2113   1.299   5.006   6.488 -0.0499  0.3265  0.0016
  529SOL     hw 2114   1.264   5.011   6.577 -0.0633 -0.8486  0.0727
  529SOL     hw 2115   1.228   4.967   6.436  0.6276 -0.7598 -0.1361
  529SOL     vw 2116   1.285   5.001   6.493  0.0377  0.0284 -0.0072
  530SOL     ow 2117   1.466   7.437   7.074  0.0878 -0.0428 -0.0190
  530SOL     hw 2118   1.439   7.473   7.159 -1.7737 -1.2315 -0.0567
  530SOL     hw 2119   1.543   7.383   7.094  0.3786  0.6247  0.7027
  530SOL     vw 2120   1.473   7.434   7.088 -0.1194 -0.1116  0.0713
  531SOL     ow 2121   2.074   4.655   0.235 -0.0813 -0.0610 -0.0755
  531SOL     hw 2122   2.086   4.748   0.256  2.0844 -0.5398  1.1422
  531SOL     hw 2123   2.017   4.622   0.304 -0.9696  0.3561 -0.5874
  531SOL     vw 2124   2.068   4.663   0.247  0.0873 -0.0691  0.0176
  532SOL     ow 2125   4.276   6.888   6.619  0.2837  0.7620 -0.0082
  532SOL     hw 2126   4.226   6.842   6.552  1.7556  1.7297 -1.8801
  532SOL     hw 2127   4.307   6.820   6.677  0.1642 -0.2969 -1.1468
  532SOL     vw 2128   4.273   6.873   6.618  0.4621  0.7501 -0.4055
  533SOL     ow 2129   2.806   6.054   1.985  0.1438  0.0045 -0.3095
  533SOL     hw 2130   2.847   5.983   1.936 -0.6947 -0.7081 -0.0099
  533SOL     hw 2131   2.727   6.015   2.022 -0.6406  1.2507 -0.6101
  533SOL     vw 2132   2.801   6.039   1.984 -0.0702  0.0746 -0.3096
  534SOL     ow 2133   0.763   1.526   7.243  0.3098  0.0626 -0.1593
  534SOL     hw 2134   0.679   1.483   7.260  0.5346 -0.6168 -0.7059
  534SOL     hw 2135   0.799   1.479   7.167  0.6459  1.1090 -0.6626
  534SOL     vw 2136   0.757   1.514   7.235  0.3838  0.1110 -0.2978
  535SOL     ow 2137   6.230   3.974   7.003  0.5285  0.6259  0.0021
  535SOL     hw 2138   6.193   3.923   6.930  1.1094  0.1810  0.0070
  535SOL     hw 2139   6.279   4.044   6.960  3.5391 -1.4072 -0.2473
  535SOL     vw 2140   6.232   3.976   6.987  1.0026  0.2990 -0.0300
  536SOL     ow 2141   2.093   3.289   2.628  0.0409 -0.0629  0.4370
  536SOL     hw 2142   2.159   3.329   2.571 -0.2588  0.4947  0.4829
  536SOL     hw 2143   2.009   3.314   2.589 -0.1719  0.4563  1.2136
  536SOL     vw 2144   2.091   3.297   2.615 -0.0267  0.0792  0.5455
  537SOL     ow 2145   7.030   3.984   1.078 -0.6372  0.4261  0.0899
  537SOL     hw 2146   7.058   3.896   1.105 -1.2888  0.0815 -0.3289
  537SOL     hw 2147   7.087   4.005   1.003 -0.8392  0.1322 -0.1500
  537SOL     vw 2148   7.041   3.975   1.071 -0.7496  0.3419  0.0030
  538SOL     ow 2149   6.259   0.723   0.173  0.1349 -0.3607  0.3961
  538SOL     hw 2150   6.268   0.785   0.100  0.2617  0.2099  0.8851
  538SOL     hw 2151   6.188   0.665   0.146 -1.0320  0.9180  0.5414
  538SOL     vw 2152   6.251   0.724   0.160 -0.0024 -0.1167  0.4798
  539SOL     ow 2153   5.501   2.170   2.762 -0.7726  0.0730  0.7058
  539SOL     hw 2154   5.470   2.164   2.853 -1.5581 -0.2841  0.4219
  539SOL     hw 2155   5.596   2.175   2.770 -0.8645  0.7980  1.5841
  539SOL     vw 2156   5.509   2.170   2.775 -0.8883  0.1215  0.7843
  540SOL     ow 2157   0.353   5.368   1.044 -0.5121  0.4331  0.2676
  540SOL     hw 2158   0.375   5.461   1.039 -0.0617  0.5357  2.7807
  540SOL     hw 2159   0.413   5.333   1.110  0.1496 -1.9429 -1.4798
  540SOL     vw 2160   0.364   5.376   1.052 -0.3653  0.1328  0.3687
  541SOL     ow 2161   4.429   2.141   2.085 -0.4635  0.1090 -0.0079
  541SOL     hw 2162   4.357   2.095   2.128 -0.7430  0.2448 -0.3297
  541SOL     hw 2163   4.387   2.208   2.032 -0.1006  0.1869 -0.2008
  541SOL     vw 2164   4.414   2.143   2.084 -0.4525  0.1372 -0.0757
  542SOL     ow 2165   5.556   2.255   0.861  0.2852  0.6927 -0.0820
  542SOL     hw 2166   5.597   2.337   0.831 -1.2028  1.4595 -0.1084
  542SOL     hw 2167   5.569   2.257   0.956  0.9867  0.5302 -0.1665
  542SOL     vw 2168   5.563   2.266   0.870  0.1812  0.7724 -0.0966
  543SOL     ow 2169   4.740   3.990   4.439  0.1985  0.3069  0.5049
  543SOL     hw 2170   4.679   4.053   4.477 -0.4630 -0.3786  0.6268
  543SOL     hw 2171   4.787   3.954   4.514  1.4640  1.5276  0.3256
  543SOL     vw 2172   4.738   3.993   4.454  0.2785  0.3777  0.4973
  544SOL     ow 2173   6.108   5.732   4.547  0.8301 -0.0305 -0.1366
  544SOL     hw 2174   6.188   5.680   4.542  1.1448  0.5400 -1.7241
  544SOL     hw 2175   6.037   5.669   4.539  1.0751 -0.5681  1.5164
  544SOL     vw 2176   6.109   5.717   4.545  0.9038 -0.0265 -0.1276
  545SOL     ow 2177   2.181   1.183   6.592  0.1215  0.1236 -0.4414
  545SOL     hw 2178   2.092   1.210   6.615  0.0726 -0.5860  0.2318
  545SOL     hw 2179   2.235   1.213   6.665  0.3406 -0.0057 -0.5485
  545SOL     vw 2180   2.177   1.191   6.605  0.1440  0.0129 -0.3667
  546SOL     ow 2181   7.371   6.974   1.067 -0.0119  0.2907  0.1032
  546SOL     hw 2182   7.394   7.067   1.064  0.5289  0.2786  2.3237
  546SOL     hw 2183   7.284   6.972   1.106 -0.2844 -0.1241 -0.5075
  546SOL     vw 2184   7.362   6.986   1.072  0.0236  0.2346  0.3156
  547SOL     ow 2185   5.785   4.387   0.407  0.2476 -0.6752 -0.5288
  547SOL     hw 2186   5.767   4.477   0.377 -0.4700 -1.2398 -1.8972
  547SOL     hw 2187   5.849   4.354   0.344  1.2980 -0.8189  0.5724
  547SOL     vw 2188   5.791   4.395   0.395  0.2916 -0.7687 -0.5640
  548SOL     ow 2189   2.893   0.155   1.440 -0.0571 -0.6337  0.1364
  548SOL     hw 2190   2.848   0.091   1.493  0.4506 -1.8266 -0.8301
  548SOL     hw 2191   2.827   0.222   1.422 -0.6379 -0.9475  1.0199
  548SOL     vw 2192   2.879   0.156   1.444 -0.0666 -0.8325  0.1255
  549SOL     ow 2193   2.377   6.546   7.237 -0.5374 -0.2018  0.2883
  549SOL     hw 2194   2.292   6.549   7.194 -0.6668  0.0697  0.5627
  549SOL     hw 2195   2.380   6.459   7.277 -1.5236  0.4905  1.9609
  549SOL     vw 2196   2.366   6.535   7.237 -0.6846 -0.0749  0.5450
  550SOL     ow 2197   5.605   1.958   3.830 -0.1375 -0.2919 -0.1920
  550SOL     hw 2198   5.569   2.029   3.778 -0.1126 -0.7385 -0.8273
  550SOL     hw 2199   5.636   1.894   3.766  0.2300 -0.6818  0.3646
  550SOL     vw 2200   5.604   1.959   3.815 -0.0856 -0.4023 -0.2024
  551SOL     ow 2201   2.678   3.305   4.208  0.6328 -0.1587 -0.1379
  551SOL     hw 2202   2.664   3.221   4.252  0.3794 -1.0037 -1.7547
  551SOL     hw 2203   2.773   3.313   4.201  0.6554 -0.3916 -0.1086
  551SOL     vw 2204   2.689   3.295   4.213  0.6022 -0.3009 -0.3474
  552SOL     ow 2205   2.061   2.894   2.228  0.2003 -0.1350 -0.1010
  552SOL     hw 2206   2.105   2.970   2.265  1.9405 -0.9611 -0.3569
  552SOL     hw 2207   2.012   2.927   2.153  1.4695  0.6343 -0.6043
  552SOL     vw 2208   2.060   2.908   2.223  0.5975 -0.1425 -0.2012
  553SOL     ow 2209   2.065   4.975   4.853 -0.0379 -0.2205  0.4970
  553SOL     hw 2210   2.050   4.970   4.947 -3.7384  1.0218  0.1154
  553SOL     hw 2211   1.988   4.933   4.814  0.3436  1.1841 -1.9549
  553SOL     vw 2212   2.053   4.968   4.860 -0.4758  0.1287  0.1235
  554SOL     ow 2213   1.753   1.960   0.651 -0.0873  0.4671  0.0758
  554SOL     hw 2214   1.698   2.038   0.650 -0.2376  0.3615 -0.2565
  554SOL     hw 2215   1.758   1.933   0.559  0.4719  0.4402  0.1143
  554SOL     vw 2216   1.746   1.966   0.639 -0.0334  0.4497  0.0370
  555SOL     ow 2217   4.604   0.695   1.880  0.0311  0.5566  0.1402
  555SOL     hw 2218   4.645   0.758   1.821  1.8193 -0.9673 -0.3260
  555SOL     hw 2219   4.676   0.663   1.934 -0.7444 -1.3396  0.1178
  555SOL     vw 2220   4.619   0.699   1.880  0.1647  0.1054  0.0757
  556SOL     ow 2221   7.163   0.858   5.950  0.6183 -0.5494 -0.3466
  556SOL     hw 2222   7.148   0.950   5.969 -2.0211 -0.8199 -0.6839
  556SOL     hw 2223   7.214   0.826   6.025 -0.6862  0.6349  1.1309
  556SOL     vw 2224   7.168   0.866   5.963  0.0980 -0.4288 -0.1962
  557SOL     ow 2225   6.969   1.591   0.033 -0.1886 -0.2580 -0.1211
  557SOL     hw 2226   6.945   1.532   0.104  0.8553 -0.8152 -0.2132
  557SOL     hw 2227   6.994   1.673   0.077  0.7736 -0.7085  0.1859
  557SOL     vw 2228   6.969   1.594   0.048  0.0761 -0.3909 -0.0928
  558SOL     ow 2229   6.599   4.726   7.358 -0.7411 -0.1045  0.6992
  558SOL     hw 2230   6.631   4.794   7.418 -2.0633 -0.2652  1.6167
  558SOL     hw 2231   6.648   4.647   7.384 -0.2008  0.1719  0.5427
  558SOL     vw 2232   6.610   4.724   7.370 -0.8440 -0.0894  0.7999
  559SOL     ow 2233   7.392   6.801   3.580  0.6072  0.0319  0.2763
  559SOL     hw 2234   7.409   6.733   3.515  2.0616 -0.2558  0.9263
  559SOL     hw 2235   7.392   6.883   3.530  0.5381 -0.2835 -0.2498
  559SOL     vw 2236   7.394   6.803   3.565  0.7896 -0.0479  0.2928
  560SOL     ow 2237   6.075   1.757   4.768  0.3301  0.3689 -0.7578
  560SOL     hw 2238   6.019   1.831   4.743 -0.9467 -0.8762 -1.7535
  560SOL     hw 2239   6.121   1.732   4.688  0.6128 -0.0326 -0.4796
  560SOL     vw 2240   6.074   1.763   4.755  0.1988  0.1516 -0.8521
  561SOL     ow 2241   3.927   2.752   3.677 -0.5293 -0.0919 -0.0536
  561SOL     hw 2242   3.973   2.796   3.606 -3.1729 -0.5360 -2.1931
  561SOL     hw 2243   3.884   2.822   3.726 -0.8903  0.0332 -0.5516
  561SOL     vw 2244   3.928   2.767   3.674 -0.9257 -0.1340 -0.4015
  562SOL     ow 2245   5.112   1.438   0.343  0.1622 -0.0434 -0.2846
  562SOL     hw 2246   5.135   1.492   0.267  0.8431 -3.1877 -2.5004
  562SOL     hw 2247   5.017   1.425   0.335  0.3470 -0.9691 -1.0503
  562SOL     vw 2248   5.102   1.443   0.332  0.2766 -0.5804 -0.6780
  563SOL     ow 2249   5.501   4.320   5.841 -0.3924 -0.0200 -0.4894
  563SOL     hw 2250   5.566   4.389   5.855 -0.9919  0.3746  0.4410
  563SOL     hw 2251   5.426   4.347   5.894 -0.9431 -0.9698 -0.7688
  563SOL     vw 2252   5.500   4.333   5.850 -0.5443 -0.0932 -0.4036
  564SOL     ow 2253   3.321   1.549   2.314 -0.6044  0.0674 -0.3232
  564SOL     hw 2254   3.310   1.521   2.223 -0.7772  0.4662 -0.4297
  564SOL     hw 2255   3.404   1.510   2.342  0.3296  1.3544 -1.1985
  564SOL     vw 2256   3.330   1.540   2.305 -0.5039  0.2898 -0.4528
  565SOL     ow 2257   4.397   0.119   5.341 -0.3165  0.1644  0.2310
  565SOL     hw 2258   4.344   0.168   5.278  0.6245 -0.4072 -1.0214
  565SOL     hw 2259   4.346   0.040   5.359 -2.2762  1.8342  2.9272
  565SOL     vw 2260   4.383   0.115   5.335 -0.4508  0.3093  0.4213
  566SOL     ow 2261   3.730   3.529   5.949 -0.3773  0.2293  0.0228
  566SOL     hw 2262   3.650   3.487   5.980  0.6737 -1.2900  0.8078
  566SOL     hw 2263   3.716   3.623   5.964 -2.1277  0.0349 -0.1922
  566SOL     vw 2264   3.717   3.536   5.955 -0.4694  0.0031  0.0980
  567SOL     ow 2265   5.335   0.239   3.898  0.1990 -0.1184  0.5931
  567SOL     hw 2266   5.329   0.144   3.907 -0.0182 -0.1321  0.3153
  567SOL     hw 2267   5.394   0.266   3.968 -0.1717 -0.3999  1.0173
  567SOL     vw 2268   5.342   0.230   3.908  0.1214 -0.1574  0.6124
  568SOL     ow 2269   6.285   4.201   6.888 -0.2327 -0.2349  0.4669
  568SOL     hw 2270   6.344   4.270   6.855 -0.5808 -0.2790 -0.2651
  568SOL     hw 2271   6.200   4.245   6.897 -1.5288 -1.3419 -3.7372
  568SOL     vw 2272   6.282   4.216   6.885 -0.4497 -0.3867 -0.1845
  569SOL     ow 2273   4.237   0.988   1.543  0.2960 -0.2910 -0.6022
  569SOL     hw 2274   4.281   0.951   1.466  1.6567  0.5758 -0.2846
  569SOL     hw 2275   4.298   0.971   1.615 -0.1165  0.5320 -0.0463
  569SOL     vw 2276   4.251   0.981   1.543  0.4213 -0.0681 -0.4869
  570SOL     ow 2277   1.088   2.778   1.018 -0.1109  0.6416  0.8982
  570SOL     hw 2278   1.003   2.734   1.019  0.4586 -0.6045 -0.7398
  570SOL     hw 2279   1.091   2.826   1.100 -0.9447 -2.0695  2.6608
  570SOL     vw 2280   1.077   2.778   1.029 -0.1457  0.1194  0.9147
  571SOL     ow 2281   3.312   7.056   3.621 -0.1211  0.7645 -0.4629
  571SOL     hw 2282   3.354   7.121   3.677 -1.2284  2.0738 -1.1147
  571SOL     hw 2283   3.275   7.106   3.549  1.7093 -0.9026 -2.7273
  571SOL     vw 2284   3.313   7.071   3.619 -0.0256  0.7174 -0.8477
  572SOL     ow 2285   7.364   2.331   4.223 -0.8135  0.0151  0.5175
  572SOL     hw 2286   7.297   2.389   4.187 -0.4148  0.3965  0.3866
  572SOL     hw 2287   7.417   2.306   4.147 -0.9369 -0.4591  0.5854
  572SOL     vw 2288   7.362   2.335   4.208 -0.7770  0.0029  0.5093
  573SOL     ow 2289   4.796   5.430   0.840 -0.3662  0.9039 -0.0942
  573SOL     hw 2290   4.764   5.424   0.930  0.4206 -0.8499  0.1135
  573SOL     hw 2291   4.879   5.477   0.847 -0.3129  0.7807  0.1097
  573SOL     vw 2292   4.803   5.435   0.853 -0.2551  0.6566 -0.0399
  574SOL     ow 2293   3.779   3.861   0.725 -0.6442  0.7204 -0.0058
  574SOL     hw 2294   3.842   3.932   0.728  0.1576  0.0239 -0.0445
  574SOL     hw 2295   3.783   3.822   0.812 -0.2811  0.0534 -0.3112
  574SOL     vw 2296   3.788   3.865   0.737 -0.4904  0.5406 -0.0512
  575SOL     ow 2297   1.645   6.965   5.245 -0.0845 -0.5611  0.2139
  575SOL     hw 2298   1.617   7.040   5.193  0.0377 -0.5836  0.1168
  575SOL     hw 2299   1.740   6.975   5.254 -0.0089 -0.9215 -0.1451
  575SOL     vw 2300   1.654   6.976   5.239 -0.0584 -0.6115  0.1540
  576SOL     ow 2301   3.649   1.100   1.907  0.1980 -0.4283  0.1618
  576SOL     hw 2302   3.672   1.086   1.999  1.6242 -0.7910 -0.2251
  576SOL     hw 2303   3.686   1.186   1.887 -0.9022  0.0604  0.1512
  576SOL     vw 2304   3.657   1.110   1.917  0.2409 -0.4117  0.1094
  577SOL     ow 2305   2.531   0.610   0.396  0.2670 -0.1152  0.4245
  577SOL     hw 2306   2.614   0.608   0.443  0.7151  0.3540 -0.3533
  577SOL     hw 2307   2.524   0.699   0.362  0.4085 -0.7185 -1.2324
  577SOL     vw 2308   2.541   0.621   0.398  0.3449 -0.1329  0.1033
  578SOL     ow 2309   0.173   1.475   2.404  0.2492 -0.3053 -0.1538
  578SOL     hw 2310   0.173   1.569   2.419 -3.7648 -0.5603  3.0811
  578SOL     hw 2311   0.148   1.466   2.312 -2.5465  1.9332  0.2459
  578SOL     vw 2312   0.170   1.486   2.394 -0.6493 -0.0436  0.3258
  579SOL     ow 2313   2.011   5.734   0.473 -0.0849 -0.9084 -0.0914
  579SOL     hw 2314   2.091   5.682   0.480  1.4359  1.4158  0.7379
  579SOL     hw 2315   1.988   5.755   0.563 -0.5503  0.0163 -0.4160
  579SOL     vw 2316   2.018   5.730   0.485  0.0544 -0.4797 -0.0248
  580SOL     ow 2317   4.640   7.396   3.450  0.1745 -0.3707 -0.9079
  580SOL     hw 2318   4.597   7.458   3.509  0.3136  0.5720 -1.7708
  580SOL     hw 2319   4.712   7.360   3.501 -0.4169 -0.4573 -0.1194
  580SOL     vw 2320   4.644   7.399   3.464  0.1147 -0.2577 -0.9177
  581SOL     ow 2321   4.663   7.255   7.155  0.1939  0.2316  0.3021
  581SOL     hw 2322   4.601   7.310   7.203  0.9829 -0.2828  2.0026
  581SOL     hw 2323   4.613   7.176   7.133  0.3862 -0.5596  2.4279
  581SOL     vw 2324   4.648   7.252   7.158  0.3233  0.0591  0.8070
  582SOL     ow 2325   2.113   2.915   4.886 -0.2074  0.3056 -0.3348
  582SOL     hw 2326   2.115   2.824   4.858 -2.7851  0.1694 -0.2691
  582SOL     hw 2327   2.193   2.926   4.938 -0.2935 -2.1787  0.4294
  582SOL     vw 2328   2.124   2.905   4.889 -0.5589 -0.0402 -0.2251
  583SOL     ow 2329   4.215   1.950   1.418  0.1111 -0.3457  0.2001
  583SOL     hw 2330   4.259   1.978   1.338  0.8843 -2.3294 -0.1236
  583SOL     hw 2331   4.130   1.918   1.389 -0.6071  1.1921  0.5178
  583SOL     vw 2332   4.210   1.949   1.404  0.1185 -0.4045  0.1993
  584SOL     ow 2333   3.391   0.320   1.346 -0.8601  0.0569 -0.1595
  584SOL     hw 2334   3.392   0.311   1.251 -0.1114 -0.4494 -0.1117
  584SOL     hw 2335   3.381   0.414   1.361 -1.4170  0.0921 -0.7332
  584SOL     vw 2336   3.390   0.331   1.336 -0.8348 -0.0052 -0.2289
  585SOL     ow 2337   1.312   2.006   1.331 -0.4941  0.0309  0.1434
  585SOL     hw 2338   1.247   2.072   1.306 -0.7037  0.1476  0.9575
  585SOL     hw 2339   1.376   2.054   1.383  0.7973  0.1152 -1.4459
  585SOL     vw 2340   1.312   2.021   1.334 -0.3515  0.0573  0.0412
  586SOL     ow 2341   5.071   3.386   4.783 -0.4104  0.2618 -0.9898
  586SOL     hw 2342   4.983   3.358   4.808 -1.1182  1.5251 -1.9656
  586SOL     hw 2343   5.113   3.305   4.752 -1.0103 -0.4604  0.0284
  586SOL     vw 2344   5.065   3.371   4.782 -0.5827  0.3333 -0.9844
  587SOL     ow 2345   3.631   0.877   6.453  0.0459  0.0939 -0.2009
  587SOL     hw 2346   3.580   0.952   6.484 -1.4186 -0.4729 -1.1685
  587SOL     hw 2347   3.654   0.830   6.533  0.0708  0.9782  0.3360
  587SOL     vw 2348   3.628   0.881   6.468 -0.1441  0.1357 -0.2575
  588SOL     ow 2349   6.441   3.825   5.407 -0.1498 -0.2898  0.2175
  588SOL     hw 2350   6.383   3.891   5.369 -0.6962  0.2070  1.8266
  588SOL     hw 2351   6.467   3.862   5.491  3.2412 -0.0789 -0.7513
  588SOL     vw 2352   6.437   3.839   5.413  0.2255 -0.1965  0.3016
  589SOL     ow 2353   0.696   1.121   3.596 -0.2908  0.3050 -0.2160
  589SOL     hw 2354   0.751   1.178   3.542  1.5745  0.1302  1.3650
  589SOL     hw 2355   0.687   1.168   3.679 -0.0874 -0.9378  0.5439
  589SOL     vw 2356   0.702   1.135   3.600 -0.0179  0.1180  0.0927
  590SOL     ow 2357   2.062   4.675   2.777  0.1374  0.8051 -0.4014
  590SOL     hw 2358   1.976   4.717   2.772 -0.0496  0.2963 -2.3839
  590SOL     hw 2359   2.043   4.584   2.800  0.1633  0.7636 -0.5420
  590SOL     vw 2360   2.048   4.668   2.780  0.1161  0.7327 -0.6815
  591SOL     ow 2361   4.707   3.018   3.966  0.3620 -0.1602  0.4641
  591SOL     hw 2362   4.665   2.970   4.037 -0.5771 -0.2226 -0.1119
  591SOL     hw 2363   4.703   3.109   3.993 -1.4960  0.0067 -0.1994
  591SOL     vw 2364   4.701   3.024   3.979 -0.0072 -0.1464  0.3005
  592SOL     ow 2365   2.080   3.559   3.640  0.0161  0.7251 -0.3826
  592SOL     hw 2366   2.150   3.620   3.665  1.0832 -0.3922 -0.5606
  592SOL     hw 2367   2.109   3.522   3.557 -1.1179  0.7132 -0.7904
  592SOL     vw 2368   2.093   3.562   3.632  0.0072  0.5761 -0.4599
  593SOL     ow 2369   2.340   1.849   4.368 -0.0391  0.8025 -0.2160
  593SOL     hw 2370   2.397   1.860   4.444  1.0076  0.5986 -0.9329
  593SOL     hw 2371   2.356   1.928   4.315 -1.2146  1.2360  0.0498
  593SOL     vw 2372   2.350   1.861   4.371 -0.0563  0.8327 -0.2756
  594SOL     ow 2373   1.663   4.303   3.238 -0.3175  0.3093 -0.0922
  594SOL     hw 2374   1.674   4.308   3.333 -0.7517  2.6492 -0.1192
  594SOL     hw 2375   1.568   4.300   3.225 -0.4101  2.8488 -0.4727
  594SOL     vw 2376   1.652   4.303   3.249 -0.3870  0.9532 -0.1460
  595SOL     ow 2377   7.308   7.054   6.468 -0.1726  0.3183  0.1782
  595SOL     hw 2378   7.250   7.080   6.540  0.7838 -0.6706  1.3557
  595SOL     hw 2379   7.339   7.136   6.430 -1.2384  0.8497  0.4425
  595SOL     vw 2380   7.305   7.068   6.473 -0.1872  0.2577  0.3684
  596SOL     ow 2381   5.071   6.187   4.314 -0.1911 -0.3989  0.0518
  596SOL     hw 2382   5.019   6.261   4.283  0.4411  0.0689  0.0715
  596SOL     hw 2383   5.027   6.159   4.394 -0.4245 -0.0213  0.0600
  596SOL     vw 2384   5.058   6.193   4.321 -0.1385 -0.2873  0.0556
  597SOL     ow 2385   4.077   0.208   2.054  0.4860 -0.0933  0.1680
  597SOL     hw 2386   4.103   0.119   2.080  0.3436  0.2420  1.5769
  597SOL     hw 2387   3.990   0.219   2.092 -0.4426 -0.0989 -1.8763
  597SOL     vw 2388   4.069   0.197   2.063  0.3448 -0.0498  0.0842
  598SOL     ow 2389   5.922   6.278   1.528  0.3612 -0.8975  0.2154
  598SOL     hw 2390   5.959   6.343   1.588  0.4930 -0.8986  0.1362
  598SOL     hw 2391   5.875   6.330   1.463 -0.2056 -0.9222  0.6059
  598SOL     vw 2392   5.921   6.293   1.527  0.3040 -0.9010  0.2564
  599SOL     ow 2393   1.528   2.130   1.492  0.7486  0.1665  0.0866
  599SOL     hw 2394   1.498   2.219   1.474  1.5274  0.1047 -1.6818
  599SOL     hw 2395   1.495   2.111   1.580 -0.7898  1.6143 -0.1275
  599SOL     vw 2396   1.519   2.139   1.501  0.6484  0.3494 -0.1749
  600SOL     ow 2397   5.944   6.623   4.650  0.0607 -0.1503 -0.3952
  600SOL     hw 2398   6.010   6.559   4.627  0.6287  0.0770  0.5562
  600SOL     hw 2399   5.940   6.682   4.575  0.7188 -0.3513 -0.5904
  600SOL     vw 2400   5.952   6.623   4.637  0.2224 -0.1466 -0.2956
  601SOL     ow 2401   2.778   0.723   6.005 -0.1774 -0.0200 -0.4969
  601SOL     hw 2402   2.765   0.653   5.942 -1.3089  0.8070 -1.2105
  601SOL     hw 2403   2.777   0.679   6.090 -0.7304 -0.8849 -0.9411
  601SOL     vw 2404   2.776   0.708   6.008 -0.3997 -0.0250 -0.6497
  602SOL     ow 2405   2.808   0.444   3.566  0.2906  0.2643  0.0132
  602SOL     hw 2406   2.824   0.360   3.609 -2.6328 -0.4886 -0.1011
  602SOL     hw 2407   2.806   0.423   3.472 -2.3847 -0.0523  0.0643
  602SOL     vw 2408   2.810   0.430   3.559 -0.4482  0.1232  0.0049
  603SOL     ow 2409   2.121   1.429   1.305  0.2336  0.5914  0.0374
  603SOL     hw 2410   2.026   1.440   1.315  0.1326  0.4642 -0.7463
  603SOL     hw 2411   2.153   1.418   1.395 -0.9641 -3.1403  0.1932
  603SOL     vw 2412   2.112   1.429   1.318  0.0622  0.0823 -0.0455
  604SOL     ow 2413   0.050   2.774   6.582 -0.0372  0.0163  0.3616
  604SOL     hw 2414   0.097   2.691   6.593 -0.9857 -0.6232 -0.2628
  604SOL     hw 2415  -0.042   2.749   6.582 -0.3815  1.2080  1.2129
  604SOL     vw 2416   0.044   2.760   6.584 -0.2077  0.0892  0.3915
  605SOL     ow 2417   2.525   7.145   3.464 -0.2776 -0.3668 -0.4114
  605SOL     hw 2418   2.450   7.172   3.410 -0.5813  1.0820  0.6797
  605SOL     hw 2419   2.601   7.156   3.407 -0.4275  2.5243 -0.2151
  605SOL     vw 2420   2.525   7.150   3.449 -0.3375  0.2060 -0.2415
  606SOL     ow 2421   5.849   2.375   5.409  0.3227 -0.5275  0.5345
  606SOL     hw 2422   5.905   2.298   5.421 -1.4889 -2.1578 -0.8804
  606SOL     hw 2423   5.832   2.378   5.315  0.8581  2.0625  0.4324
  606SOL     vw 2424   5.854   2.365   5.399  0.1545 -0.4008  0.3343
  607SOL     ow 2425   5.679   3.814   6.024 -0.0984  0.1101 -0.2226
  607SOL     hw 2426   5.731   3.789   6.100  0.3440 -0.9010 -0.8293
  607SOL     hw 2427   5.588   3.803   6.053  0.0561  0.1181  0.2802
  607SOL     vw 2428   5.673   3.809   6.038 -0.0198 -0.0223 -0.2363
  608SOL     ow 2429   0.868   7.352   1.362 -0.2500 -0.3844  0.3848
  608SOL     hw 2430   0.924   7.428   1.347 -0.3082 -0.3238  0.4646
  608SOL     hw 2431   0.917   7.278   1.328 -0.0158 -0.3662  0.6716
  608SOL     vw 2432   0.882   7.353   1.356 -0.2268 -0.3741  0.4332
  609SOL     ow 2433   4.476   2.373   2.502 -0.1429  0.1747  0.1946
  609SOL     hw 2434   4.426   2.408   2.428  1.2266  0.7786 -0.4702
  609SOL     hw 2435   4.509   2.450   2.547  0.4592 -0.2151  0.4305
  609SOL     vw 2436   4.474   2.388   2.498  0.1173  0.2029  0.1380
  610SOL     ow 2437   5.948   6.702   5.600 -0.1846  0.1533 -0.2183
  610SOL     hw 2438   5.966   6.703   5.506  2.3731  3.4743  0.0887
  610SOL     hw 2439   5.867   6.752   5.609  1.0539  2.4072 -0.6386
  610SOL     vw 2440   5.940   6.709   5.588  0.3161  0.8891 -0.2332
  611SOL     ow 2441   4.991   5.759   1.672  0.1541 -0.1834 -0.1647
  611SOL     hw 2442   4.929   5.784   1.741 -0.3837 -1.2895 -0.2276
  611SOL     hw 2443   5.008   5.666   1.688  0.7334 -0.2214 -0.9778
  611SOL     vw 2444   4.985   5.750   1.684  0.1595 -0.3343 -0.2803
  612SOL     ow 2445   2.395   1.707   6.117 -0.2352  0.5145 -0.1884
  612SOL     hw 2446   2.357   1.756   6.189 -0.3601 -0.6878  0.5978
  612SOL     hw 2447   2.476   1.670   6.152  1.1208  2.1003 -1.4992
  612SOL     vw 2448   2.400   1.708   6.131 -0.0727  0.5651 -0.2577
  613SOL     ow 2449   1.610   1.967   5.388 -0.5109  0.2935  0.2597
  613SOL     hw 2450   1.700   1.939   5.405 -0.1674  0.9847 -0.3365
  613SOL     hw 2451   1.568   1.968   5.474  0.3735  1.0274  0.6980
  613SOL     vw 2452   1.616   1.963   5.401 -0.3490  0.4815  0.2387
  614SOL     ow 2453   3.370   5.436   0.128 -0.0475 -0.5984 -0.5137
  614SOL     hw 2454   3.280   5.447   0.097 -0.4328 -0.9319  0.4287
  614SOL     hw 2455   3.360   5.416   0.221  1.0349 -0.0963 -0.2792
  614SOL     vw 2456   3.357   5.435   0.136  0.0445 -0.5760 -0.3584
  615SOL     ow 2457   3.382   5.039   1.406 -0.2815 -0.1182 -0.0865
  615SOL     hw 2458   3.430   5.076   1.332 -2.6005  0.5206 -1.3621
  615SOL     hw 2459   3.402   5.098   1.479  0.2060  0.5827 -0.7731
  615SOL     vw 2460   3.391   5.052   1.406 -0.5230  0.0584 -0.3454
  616SOL     ow 2461   5.228   0.817   5.242  0.0692 -0.8848 -0.6129
  616SOL     hw 2462   5.320   0.818   5.217  0.5968 -1.3560  1.1086
  616SOL     hw 2463   5.208   0.724   5.255 -0.6317 -0.7806 -0.8833
  616SOL     vw 2464   5.237   0.805   5.241  0.0465 -0.9332 -0.4215
  617SOL     ow 2465   6.331   1.546   2.214 -0.0362  0.1692  0.3238
  617SOL     hw 2466   6.409   1.495   2.236 -0.7718 -0.8429  0.6427
  617SOL     hw 2467   6.357   1.598   2.138  0.6684 -0.8270 -0.1334
  617SOL     vw 2468   6.345   1.546   2.207 -0.0403 -0.0958  0.3055
  618SOL     ow 2469   3.814   6.413   0.393 -1.1967 -0.2528 -0.4493
  618SOL     hw 2470   3.906   6.413   0.369 -1.2814  0.3333 -0.7998
  618SOL     hw 2471   3.786   6.504   0.382 -1.7341 -0.3604 -0.0310
  618SOL     vw 2472   3.822   6.425   0.388 -1.2788 -0.1898 -0.4404
  619SOL     ow 2473   5.380   6.917   0.304 -0.3915  0.4538  0.4865
  619SOL     hw 2474   5.454   6.906   0.364 -0.1122  0.6646  0.1854
  619SOL     hw 2475   5.302   6.902   0.358 -0.0882 -1.5606  0.4389
  619SOL     vw 2476   5.379   6.913   0.319 -0.3147  0.2160  0.4405
  620SOL     ow 2477   1.718   1.271   3.593 -0.1715  0.3064  0.6457
  620SOL     hw 2478   1.680   1.349   3.632  0.2274  0.5857  0.4827
  620SOL     hw 2479   1.651   1.204   3.603 -0.6337  0.7487  0.5048
  620SOL     vw 2480   1.704   1.272   3.600 -0.1799  0.4017  0.6057
  621SOL     ow 2481   0.641   3.305   3.945  0.5053  0.0577 -0.6701
  621SOL     hw 2482   0.644   3.271   3.856  3.3851 -0.0673 -0.6218
  621SOL     hw 2483   0.626   3.399   3.934  1.5961  0.1758 -1.3930
  621SOL     vw 2484   0.640   3.313   3.932  1.0292  0.0567 -0.7591
  622SOL     ow 2485   2.931   1.401   1.064 -0.1203  0.1292  0.5088
  622SOL     hw 2486   2.981   1.469   1.108  0.0887  0.3674 -0.0790
  622SOL     hw 2487   2.981   1.382   0.984  0.4497 -1.5321  1.2089
  622SOL     vw 2488   2.944   1.407   1.059 -0.0175 -0.0586  0.5236
  623SOL     ow 2489   4.207   1.736   1.938 -0.3279  0.1554  0.7096
  623SOL     hw 2490   4.275   1.769   1.996 -1.7415 -0.8674  3.1049
  623SOL     hw 2491   4.224   1.642   1.932  0.1464  0.3247 -1.0983
  623SOL     vw 2492   4.218   1.728   1.945 -0.4518  0.0428  0.7872
  624SOL     ow 2493   1.155   3.734   4.381 -0.1003  0.4037  0.6170
  624SOL     hw 2494   1.200   3.815   4.359 -0.1160  0.0467 -0.8197
  624SOL     hw 2495   1.063   3.752   4.362 -0.0153 -0.1543 -0.4174
  624SOL     vw 2496   1.149   3.747   4.376 -0.0911  0.2830  0.2911
  625SOL     ow 2497   6.234   4.800   7.092 -0.3859 -0.1423 -0.0165
  625SOL     hw 2498   6.215   4.870   7.029  0.6217  0.6170  0.4963
  625SOL     hw 2499   6.210   4.719   7.046 -2.8859  0.5778 -0.1376
  625SOL     vw 2500   6.228   4.798   7.077 -0.5827  0.0527  0.0353
  626SOL     ow 2501   2.530   7.064   3.911 -0.1727 -0.4423 -0.1412
  626SOL     hw 2502   2.550   7.059   4.005 -0.9538  0.0236  0.0624
  626SOL     hw 2503   2.576   6.990   3.873  1.0686  0.0040  0.4406
  626SOL     vw 2504   2.539   7.054   3.919 -0.1119 -0.3219 -0.0377
  627SOL     ow 2505   4.092   5.173   1.343 -0.1158 -0.2078 -0.2672
  627SOL     hw 2506   4.109   5.089   1.386  0.8140  0.2811  0.3659
  627SOL     hw 2507   4.159   5.231   1.378 -1.8166  1.2926  0.6518
  627SOL     vw 2508   4.103   5.169   1.353 -0.2174  0.0546 -0.0624
  628SOL     ow 2509   2.493   1.171   7.229 -0.0795 -0.2507  0.6754
  628SOL     hw 2510   2.533   1.247   7.187 -2.5840 -0.2965 -2.1710
  628SOL     hw 2511   2.424   1.207   7.284 -1.4785 -0.3607 -0.9205
  628SOL     vw 2512   2.489   1.186   7.231 -0.5944 -0.2713  0.0892
  629SOL     ow 2513   3.622   2.864   6.880  0.1704  0.4545 -0.0305
  629SOL     hw 2514   3.620   2.906   6.794  0.7201  1.3547  0.3835
  629SOL     hw 2515   3.641   2.935   6.942  2.0084 -0.4999  0.5987
  629SOL     vw 2516   3.624   2.879   6.877  0.4855  0.4473  0.1070
  630SOL     ow 2517   2.660   3.865   4.299  0.5376  0.6810 -0.2703
  630SOL     hw 2518   2.703   3.950   4.283  0.4668  0.6506 -0.6497
  630SOL     hw 2519   2.624   3.872   4.387  2.7944  0.0882  0.7899
  630SOL     vw 2520   2.661   3.877   4.308  0.8260  0.5988 -0.1807
  631SOL     ow 2521   0.456   2.555   3.162  0.0641  0.3712 -0.5952
  631SOL     hw 2522   0.422   2.564   3.252  0.2686  1.1234 -0.5920
  631SOL     hw 2523   0.431   2.466   3.137  0.5012 -0.0621  0.4169
  631SOL     vw 2524   0.448   2.544   3.171  0.1488  0.4133 -0.4612
  632SOL     ow 2525   4.682   5.480   3.192  0.5641 -0.1367 -0.4049
  632SOL     hw 2526   4.588   5.493   3.207  0.5459  0.8880 -1.2275
  632SOL     hw 2527   4.715   5.445   3.274 -0.4116  0.2079  0.1581
  632SOL     vw 2528   4.674   5.477   3.205  0.4332  0.0441 -0.4392
  633SOL     ow 2529   2.274   3.609   5.196 -0.1724 -0.1476  0.4368
  633SOL     hw 2530   2.326   3.543   5.152 -0.8058  0.0107 -0.5733
  633SOL     hw 2531   2.204   3.630   5.134  0.1273  1.6115  0.6464
  633SOL     vw 2532   2.271   3.603   5.182 -0.2162  0.1054  0.3312
  634SOL     ow 2533   6.232   7.096   1.117 -0.0908  0.0051 -0.1418
  634SOL     hw 2534   6.202   7.123   1.030 -1.3086 -0.6788  0.0484
  634SOL     hw 2535   6.152   7.076   1.165  0.6382 -1.1898  0.6285
  634SOL     vw 2536   6.217   7.097   1.111 -0.1552 -0.2427 -0.0151
  635SOL     ow 2537   6.142   0.763   0.426 -0.1681  0.5530  0.4526
  635SOL     hw 2538   6.157   0.781   0.333 -1.7731 -1.5465 -0.2955
  635SOL     hw 2539   6.084   0.834   0.455 -0.1738  0.8715 -0.3058
  635SOL     vw 2540   6.136   0.775   0.418 -0.3808  0.3180  0.2538
  636SOL     ow 2541   3.820   0.869   0.400 -0.2463 -0.1778 -0.0190
  636SOL     hw 2542   3.789   0.959   0.387 -0.1329 -0.2211 -0.6113
  636SOL     hw 2543   3.906   0.867   0.358 -0.2064 -0.5371  0.0764
  636SOL     vw 2544   3.827   0.881   0.393 -0.2260 -0.2309 -0.0846
  637SOL     ow 2545   1.400   7.379   5.991 -0.3645 -0.2571 -0.4602
  637SOL     hw 2546   1.368   7.321   5.922 -0.7733 -0.2644 -0.2670
  637SOL     hw 2547   1.326   7.388   6.051  0.4458 -1.4781  0.7890
  637SOL     vw 2548   1.386   7.373   5.990 -0.3115 -0.4191 -0.2697
  638SOL     ow 2549   0.245   5.785   1.794 -0.0327  0.3421 -0.5220
  638SOL     hw 2550   0.205   5.848   1.854 -0.5729  0.5480 -1.0798
  638SOL     hw 2551   0.235   5.825   1.707  0.4205 -0.1066 -0.7910
  638SOL     vw 2552   0.238   5.799   1.790 -0.0441  0.3102 -0.6311
  639SOL     ow 2553   3.663   2.361   1.426 -0.1823 -0.8244 -0.1132
  639SOL     hw 2554   3.709   2.438   1.459 -0.0418 -1.9220  2.4897
  639SOL     hw 2555   3.645   2.308   1.504 -4.1060 -1.4264 -1.2213
  639SOL     vw 2556   3.667   2.364   1.441 -0.6815 -1.0487  0.0840
  640SOL     ow 2557   2.153   4.719   6.601 -0.0966 -0.5558  0.4069
  640SOL     hw 2558   2.183   4.713   6.692 -3.1312  1.2320  1.6999
  640SOL     hw 2559   2.153   4.813   6.582  0.6384 -0.8994 -1.5810
  640SOL     vw 2560   2.157   4.731   6.610 -0.4002 -0.3653  0.3152
  641SOL     ow 2561   4.962   6.525   0.556 -0.0202 -0.0548 -0.3282
  641SOL     hw 2562   4.996   6.539   0.644 -1.5103  1.6427  0.0345
  641SOL     hw 2563   5.002   6.443   0.527  3.8222  1.4616  0.2317
  641SOL     vw 2564   4.972   6.516   0.564  0.2899  0.3693 -0.2065
  642SOL     ow 2565   6.835   6.152   6.066 -0.3331 -0.3486  0.3209
  642SOL     hw 2566   6.840   6.092   5.991 -0.0078  0.4343 -0.2990
  642SOL     hw 2567   6.825   6.238   6.027  0.9862  0.2085  1.1392
  642SOL     vw 2568   6.834   6.155   6.051 -0.1161 -0.1719  0.3469
  643SOL     ow 2569   4.696   6.063   6.468  0.0522  0.6651 -0.2234
  643SOL     hw 2570   4.734   6.138   6.513  2.2883 -0.1399 -0.6660
  643SOL     hw 2571   4.653   6.101   6.392 -1.5168  1.7647  1.1328
  643SOL     vw 2572   4.695   6.078   6.464  0.1402  0.7041 -0.1028
  644SOL     ow 2573   3.364   2.475   0.637 -0.2610 -0.2557 -0.3299
  644SOL     hw 2574   3.321   2.541   0.692  0.0373  1.0875 -1.6487
  644SOL     hw 2575   3.442   2.450   0.686 -0.6888 -0.0887  0.4568
  644SOL     vw 2576   3.369   2.480   0.651 -0.2781 -0.0566 -0.4001
  645SOL     ow 2577   0.077   6.902   6.298 -0.0382 -0.2753  0.0528
  645SOL     hw 2578   0.162   6.927   6.334 -1.1905  1.5722  1.7625
  645SOL     hw 2579   0.078   6.937   6.208  0.7546  0.3465  0.2905
  645SOL     vw 2580   0.088   6.910   6.291 -0.0856  0.0503  0.3097
  646SOL     ow 2581   7.020   3.225   5.417 -0.5401 -0.0480 -0.4671
  646SOL     hw 2582   7.052   3.145   5.459  1.7572  1.3644  0.6906
  646SOL     hw 2583   7.068   3.230   5.335 -1.4401 -0.3421 -1.0254
  646SOL     vw 2584   7.030   3.215   5.412 -0.3557  0.0993 -0.3881
  647SOL     ow 2585   7.202   0.728   5.695 -0.2089  0.6520 -0.2281
  647SOL     hw 2586   7.118   0.683   5.684 -0.2482  0.6773 -0.0377
  647SOL     hw 2587   7.199   0.763   5.784  0.5456 -0.4739  0.2655
  647SOL     vw 2588   7.191   0.726   5.705 -0.1147  0.5068 -0.1378
  648SOL     ow 2589   0.160   1.893   5.596 -0.5723  0.1666  0.1279
  648SOL     hw 2590   0.237   1.860   5.642 -0.7824 -0.6374 -0.0793
  648SOL     hw 2591   0.151   1.983   5.626  1.3854  0.8286 -1.0233
  648SOL     vw 2592   0.169   1.901   5.606 -0.3417  0.1479 -0.0513
  649SOL     ow 2593   0.811   0.036   0.608  0.7802 -0.5736  1.0045
  649SOL     hw 2594   0.904   0.050   0.624  0.7867 -0.4956  0.8995
  649SOL     hw 2595   0.800  -0.059   0.614  0.7949 -0.5498  1.4020
  649SOL     vw 2596   0.822   0.025   0.611  0.7830 -0.5600  1.0431
  650SOL     ow 2597   3.166   3.953   6.973 -0.5255  0.0132 -0.1032
  650SOL     hw 2598   3.197   4.038   6.942 -0.5986 -0.2269 -0.8526
  650SOL     hw 2599   3.191   3.892   6.903 -2.5073 -0.2174 -0.6636
  650SOL     vw 2600   3.174   3.956   6.959 -0.7967 -0.0488 -0.2761
  651SOL     ow 2601   7.171   0.666   1.969 -0.0375  0.7470  0.1979
  651SOL     hw 2602   7.217   0.605   1.912 -1.4363 -0.4524  0.3182
  651SOL     hw 2603   7.154   0.616   2.049 -0.7340  1.4655  0.5118
  651SOL     vw 2604   7.175   0.652   1.972 -0.3138  0.6835  0.2552
  652SOL     ow 2605   5.724   1.232   6.840 -0.0322  0.0695 -0.0006
  652SOL     hw 2606   5.637   1.199   6.817  0.2407 -0.6873  0.0023
  652SOL     hw 2607   5.710   1.324   6.863 -0.8430 -0.0693  0.0954
  652SOL     vw 2608   5.711   1.240   6.840 -0.1032 -0.0487  0.0124
  653SOL     ow 2609   5.474   4.037   2.750 -0.4545 -0.2500 -0.3040
  653SOL     hw 2610   5.559   4.060   2.787  1.0214 -0.1680 -3.4217
  653SOL     hw 2611   5.451   3.954   2.791  1.6146 -0.7731 -0.0971
  653SOL     vw 2612   5.482   4.029   2.760  0.0131 -0.3080 -0.6880
  654SOL     ow 2613   7.358   2.571   5.091  0.2392 -0.1894 -0.1314
  654SOL     hw 2614   7.292   2.580   5.022  0.6641  1.3090 -0.3682
  654SOL     hw 2615   7.416   2.646   5.079  1.2088 -0.7419  0.9184
  654SOL     vw 2616   7.357   2.582   5.080  0.4232 -0.0645 -0.0243
  655SOL     ow 2617   6.289   5.463   6.350 -1.0670  0.0772 -1.0697
  655SOL     hw 2618   6.256   5.524   6.416  0.5979 -1.7986  1.7289
  655SOL     hw 2619   6.277   5.377   6.389  1.0788 -1.0607 -2.6996
  655SOL     vw 2620   6.283   5.460   6.364 -0.5643 -0.3204 -0.9155
  656SOL     ow 2621   2.349   3.902   4.306  0.1776 -0.0911  0.1688
  656SOL     hw 2622   2.375   3.928   4.394 -2.5409  1.5235  0.6019
  656SOL     hw 2623   2.373   3.977   4.251 -1.3172  0.4321  0.1901
  656SOL     vw 2624   2.356   3.915   4.310 -0.3781  0.1910  0.2291
  657SOL     ow 2625   1.679   2.599   7.247 -0.6895 -0.2464 -0.1672
  657SOL     hw 2626   1.635   2.607   7.162 -0.6818  0.3239 -0.1239
  657SOL     hw 2627   1.766   2.637   7.231 -0.1812 -1.4087 -0.2674
  657SOL     vw 2628   1.685   2.605   7.233 -0.6214 -0.3245 -0.1748
  658SOL     ow 2629   0.729   0.267   2.668  0.2613  0.1240  0.2951
  658SOL     hw 2630   0.669   0.257   2.594  0.4890 -0.5605  0.1958
  658SOL     hw 2631   0.672   0.267   2.745  0.1925 -1.5713  0.2742
  658SOL     vw 2632   0.713   0.266   2.668  0.2823 -0.1900  0.2793
  659SOL     ow 2633   3.307   7.416   0.069 -0.1415 -0.3389 -0.0491
  659SOL     hw 2634   3.263   7.336   0.039 -1.1192  0.2751 -0.3328
  659SOL     hw 2635   3.246   7.486   0.045  1.0862  0.5816 -0.6229
  659SOL     vw 2636   3.293   7.415   0.062 -0.1086 -0.1364 -0.1622
  660SOL     ow 2637   1.578   1.128   2.064  0.4089  0.1413 -0.3483
  660SOL     hw 2638   1.627   1.070   2.122 -0.6797 -0.4937 -0.0508
  660SOL     hw 2639   1.588   1.089   1.977  0.1157 -0.2003 -0.2294
  660SOL     vw 2640   1.586   1.115   2.060  0.2266  0.0124 -0.2933
  661SOL     ow 2641   0.177   3.468   3.365  0.1598 -0.0520 -0.1256
  661SOL     hw 2642   0.134   3.452   3.281  0.4722 -1.9172  0.0344
  661SOL     hw 2643   0.130   3.543   3.402  0.7544  1.5665 -2.4411
  661SOL     vw 2644   0.165   3.476   3.359  0.2795 -0.0846 -0.4101
  662SOL     ow 2645   4.955   3.973   1.428 -0.3063 -0.2228  0.0977
  662SOL     hw 2646   4.977   3.961   1.520  2.3790  0.8561 -0.2975
  662SOL     hw 2647   4.951   4.068   1.417 -0.7962 -0.3396 -0.8810
  662SOL     vw 2648   4.957   3.984   1.439 -0.0165 -0.0958 -0.0836
  663SOL     ow 2649   1.205   0.141   6.963 -0.5138  0.2447  0.0444
  663SOL     hw 2650   1.191   0.200   7.037 -0.6931 -0.9528  0.9980
  663SOL     hw 2651   1.205   0.198   6.886 -1.5105  1.3746  0.8530
  663SOL     vw 2652   1.204   0.156   6.962 -0.6690  0.2358  0.2770
  664SOL     ow 2653   3.108   1.701   1.010 -0.1272  0.7112 -0.0371
  664SOL     hw 2654   3.079   1.667   1.094  0.4104  2.3420  0.8484
  664SOL     hw 2655   3.043   1.670   0.947  0.5513 -2.2868  0.5814
  664SOL     vw 2656   3.096   1.692   1.012  0.0331  0.5309  0.1613
  665SOL     ow 2657   0.477   4.413   6.090  0.2516  0.1052 -0.3518
  665SOL     hw 2658   0.408   4.347   6.103 -1.8531  2.0885 -0.7345
  665SOL     hw 2659   0.489   4.452   6.177 -0.1464  0.7071 -0.5632
  665SOL     vw 2660   0.469   4.410   6.103 -0.0786  0.4463 -0.4301
  666SOL     ow 2661   1.833   5.536   0.361 -0.1920  0.6587 -0.4700
  666SOL     hw 2662   1.881   5.612   0.394 -0.8326  0.4740  0.9290
  666SOL     hw 2663   1.900   5.486   0.314  0.3167  1.8917 -1.1187
  666SOL     vw 2664   1.848   5.540   0.359 -0.2094  0.7973 -0.3710
  667SOL     ow 2665   2.157   4.994   6.526  0.2876  0.0860  0.1402
  667SOL     hw 2666   2.122   5.047   6.455  0.6013  0.8564  0.5495
  667SOL     hw 2667   2.145   5.048   6.605 -1.0905 -1.1973  0.8659
  667SOL     vw 2668   2.150   5.008   6.527  0.1471  0.0184  0.2902
  668SOL     ow 2669   6.742   6.512   1.957 -0.1164  0.5993  0.1745
  668SOL     hw 2670   6.836   6.511   1.937 -0.2544  1.5913 -0.6048
  668SOL     hw 2671   6.705   6.449   1.896 -0.2595  2.0886 -1.3552
  668SOL     vw 2672   6.750   6.504   1.946 -0.1535  0.9267 -0.1301
  669SOL     ow 2673   0.465   7.313   3.766  0.4452 -0.7232 -0.3187
  669SOL     hw 2674   0.486   7.403   3.792 -0.6393 -0.2733 -0.9398
  669SOL     hw 2675   0.416   7.322   3.685 -1.5161 -1.7421  0.6859
  669SOL     vw 2676   0.461   7.326   3.759  0.0433 -0.7982 -0.2681
  670SOL     ow 2677   4.937   1.623   6.829 -0.2936  0.1234 -0.0341
  670SOL     hw 2678   4.909   1.533   6.810  0.8144  0.1582 -2.0914
  670SOL     hw 2679   5.032   1.620   6.823 -0.2945  1.7129 -1.5754
  670SOL     vw 2680   4.946   1.611   6.826 -0.1476  0.3377 -0.5090
  671SOL     ow 2681   1.706   4.345   2.089  0.3355 -0.1415  0.6055
  671SOL     hw 2682   1.623   4.374   2.052  0.7983 -0.3020 -0.6194
  671SOL     hw 2683   1.709   4.251   2.071  1.0321 -0.0351  0.0955
  671SOL     vw 2684   1.696   4.337   2.081  0.4885 -0.1483  0.3766
  672SOL     ow 2685   2.101   1.350   6.258  0.0565 -0.3719 -0.6236
  672SOL     hw 2686   2.007   1.356   6.242 -0.0978  0.1693  0.4004
  672SOL     hw 2687   2.137   1.423   6.208 -0.4543  1.4749  1.5315
  672SOL     vw 2688   2.093   1.361   6.249 -0.0312 -0.0568 -0.2043
  673SOL     ow 2689   4.042   0.365   2.442  0.0200  0.2979 -0.6390
  673SOL     hw 2690   4.056   0.432   2.510 -1.3799  0.0447 -0.0661
  673SOL     hw 2691   3.975   0.403   2.385 -2.3460 -1.3678  0.8588
  673SOL     vw 2692   4.035   0.379   2.444 -0.4768  0.0447 -0.3657
  674SOL     ow 2693   1.631   7.118   5.784  0.5499  0.6849 -0.5327
  674SOL     hw 2694   1.637   7.028   5.817 -1.2084  0.8116  0.3028
  674SOL     hw 2695   1.593   7.110   5.697  0.9977  0.5827 -0.7182
  674SOL     vw 2696   1.626   7.105   5.777  0.3770  0.6881 -0.4470
  675SOL     ow 2697   3.608   5.302   3.513  0.0052 -0.1815 -0.2787
  675SOL     hw 2698   3.524   5.315   3.555  0.5926  1.7570  0.3915
  675SOL     hw 2699   3.614   5.373   3.448  0.1991 -1.6002 -1.8842
  675SOL     vw 2700   3.598   5.313   3.510  0.1084 -0.1130 -0.4021
  676SOL     ow 2701   5.293   5.252   0.405  0.2010  0.2086 -0.0805
  676SOL     hw 2702   5.265   5.243   0.314 -0.0596  0.8445 -0.0719
  676SOL     hw 2703   5.310   5.163   0.435 -0.9455 -0.1172 -0.3652
  676SOL     vw 2704   5.292   5.239   0.397  0.0155  0.2496 -0.1170
  677SOL     ow 2705   7.114   1.832   4.187 -1.1006  0.0704 -0.0500
  677SOL     hw 2706   7.123   1.861   4.097 -0.5771  0.5563  0.1564
  677SOL     hw 2707   7.026   1.860   4.213 -1.0711  0.3548 -0.2570
  677SOL     vw 2708   7.103   1.839   4.179 -1.0278  0.1720 -0.0501
  678SOL     ow 2709   1.853   0.386   2.963 -0.1682  0.0741 -0.0540
  678SOL     hw 2710   1.940   0.408   2.931 -0.8652  0.2747 -1.8939
  678SOL     hw 2711   1.854   0.290   2.971  0.1518  0.0622 -0.2305
  678SOL     vw 2712   1.864   0.376   2.960 -0.2180  0.0990 -0.3200
  679SOL     ow 2713   5.596   1.288   1.877  0.0255 -0.0725  0.0544
  679SOL     hw 2714   5.622   1.197   1.863  0.5244 -0.0078  0.5481
  679SOL     hw 2715   5.550   1.287   1.961 -0.3749  0.0528 -0.1612
  679SOL     vw 2716   5.593   1.276   1.886  0.0384 -0.0474  0.0911
  680SOL     ow 2717   4.099   5.150   3.515  0.3939 -1.0296 -0.0280
  680SOL     hw 2718   4.010   5.185   3.522 -0.4621 -3.1328  0.2460
  680SOL     hw 2719   4.151   5.207   3.572 -0.1107  2.0232 -2.3193
  680SOL     vw 2720   4.094   5.162   3.523  0.2143 -0.9043 -0.2942
  681SOL     ow 2721   4.681   6.437   6.090  0.1256 -0.1352  0.0289
  681SOL     hw 2722   4.645   6.397   6.169  0.9904 -0.2536  0.3759
  681SOL     hw 2723   4.721   6.518   6.120 -2.6189  1.6904 -0.8395
  681SOL     vw 2724   4.681   6.443   6.104 -0.1221  0.0901 -0.0401
  682SOL     ow 2725   4.849   1.149   3.147  0.1607  0.0999 -0.1200
  682SOL     hw 2726   4.833   1.058   3.124 -0.6775 -0.1402  1.2459
  682SOL     hw 2727   4.766   1.193   3.132  0.5831  0.6667 -0.8505
  682SOL     vw 2728   4.836   1.143   3.142  0.1056  0.1430 -0.0362
  683SOL     ow 2729   4.240   7.045   5.903  0.1454  0.2837 -0.1235
  683SOL     hw 2730   4.202   7.101   5.835 -0.0442  1.4865  0.9247
  683SOL     hw 2731   4.267   7.107   5.971 -0.7875 -0.9589  1.4379
  683SOL     vw 2732   4.238   7.061   5.903 -0.0026  0.2789  0.2208
  684SOL     ow 2733   0.229   0.478   7.101 -0.1622 -0.3971 -0.2069
  684SOL     hw 2734   0.210   0.472   7.194  0.9386 -1.4929 -0.0433
  684SOL     hw 2735   0.150   0.444   7.058  0.0306 -1.6316  0.3809
  684SOL     vw 2736   0.216   0.473   7.108  0.0085 -0.7045 -0.1075
  685SOL     ow 2737   0.876   4.526   0.804  0.7230 -0.1663 -0.5510
  685SOL     hw 2738   0.898   4.605   0.756 -0.3066 -0.9581 -2.4208
  685SOL     hw 2739   0.827   4.472   0.742  1.1148 -2.1476  0.7423
  685SOL     vw 2740   0.872   4.529   0.790  0.6389 -0.5322 -0.6271
  686SOL     ow 2741   5.365   3.678   4.092 -0.1452  0.0231 -0.1144
  686SOL     hw 2742   5.326   3.641   4.013 -0.0631 -1.2228  0.3904
  686SOL     hw 2743   5.428   3.743   4.060 -0.8903  0.3220 -1.0183
  686SOL     vw 2744   5.369   3.682   4.077 -0.2329 -0.1019 -0.1671
  687SOL     ow 2745   6.339   0.300   2.015 -0.1532  0.1524  0.2207
  687SOL     hw 2746   6.357   0.209   1.989  1.1939  0.4662 -0.0065
  687SOL     hw 2747   6.343   0.298   2.111 -1.0005 -0.1904  0.2568
  687SOL     vw 2748   6.342   0.287   2.025 -0.0870  0.1486  0.1954
  688SOL     ow 2749   4.532   7.437   7.312  0.0871  0.0220  0.0622
  688SOL     hw 2750   4.472   7.451   7.385  0.7042  0.3051  0.5344
  688SOL     hw 2751   4.528   7.517   7.261  1.2737  0.7225  1.0137
  688SOL     vw 2752   4.524   7.449   7.315  0.3247  0.1516  0.2499
  689SOL     ow 2753   6.288   7.145   7.383  0.4762  0.1312  0.4859
  689SOL     hw 2754   6.212   7.093   7.409  2.0841 -3.0787 -0.7346
  689SOL     hw 2755   6.354   7.124   7.449  1.0623  0.9245  0.1566
  689SOL     vw 2756   6.287   7.135   7.395  0.7656 -0.1876  0.2816
  690SOL     ow 2757   0.979   6.295   1.963 -0.1459  0.7121  0.0183
  690SOL     hw 2758   0.975   6.372   1.906 -0.8084  0.7955  0.1680
  690SOL     hw 2759   0.892   6.291   2.004 -0.2331 -0.2896 -0.2279
  690SOL     vw 2760   0.967   6.305   1.961 -0.2448  0.5910  0.0056
  691SOL     ow 2761   0.049   6.123   7.193 -0.1164 -0.5959  0.7184
  691SOL     hw 2762  -0.033   6.137   7.146 -1.2312 -0.5354  2.5620
  691SOL     hw 2763   0.052   6.029   7.211  0.2550 -0.6099  0.5962
  691SOL     vw 2764   0.039   6.113   7.189 -0.2145 -0.5896  0.9456
  692SOL     ow 2765   1.028   2.780   2.780 -0.1211 -0.2763 -0.6768
  692SOL     hw 2766   1.076   2.855   2.813 -0.1567 -0.1299 -0.9557
  692SOL     hw 2767   1.071   2.758   2.697 -1.3299  0.6650 -1.5941
  692SOL     vw 2768   1.040   2.787   2.774 -0.2852 -0.1328 -0.8345
  693SOL     ow 2769   1.397   2.688   1.715 -1.3208 -0.7795  0.6651
  693SOL     hw 2770   1.416   2.614   1.772 -2.3740  0.0598  2.1781
  693SOL     hw 2771   1.422   2.765   1.767  2.1743 -0.0065 -1.7748
  693SOL     vw 2772   1.403   2.688   1.729 -0.9987 -0.5667  0.5428
  694SOL     ow 2773   3.785   2.580   5.645 -0.2253 -0.6038 -1.1672
  694SOL     hw 2774   3.805   2.553   5.734  1.0997 -0.4166 -1.3807
  694SOL     hw 2775   3.710   2.639   5.653  0.5607  0.2839 -0.0475
  694SOL     vw 2776   3.778   2.584   5.658  0.0533 -0.4622 -1.0476
  695SOL     ow 2777   6.255   6.757   2.750 -0.5020 -0.0369  0.1681
  695SOL     hw 2778   6.228   6.849   2.747  0.4167  0.3444  2.1710
  695SOL     hw 2779   6.179   6.709   2.715 -1.5604  1.3792  0.4317
  695SOL     vw 2780   6.241   6.763   2.745 -0.5202  0.2003  0.4673
  696SOL     ow 2781   2.805   6.485   0.034  0.2073  0.0356 -0.3025
  696SOL     hw 2782   2.817   6.486  -0.061 -0.2236 -0.1346 -0.3584
  696SOL     hw 2783   2.747   6.559   0.051 -1.8155 -1.4440 -0.4575
  696SOL     vw 2784   2.799   6.495   0.023 -0.1162 -0.1822 -0.3302
  697SOL     ow 2785   5.962   3.881   7.144 -0.5798  0.0340  0.6424
  697SOL     hw 2786   5.932   3.946   7.081 -0.0139 -2.1062 -2.0167
  697SOL     hw 2787   5.911   3.803   7.125 -1.5568 -0.3341  4.0354
  697SOL     vw 2788   5.952   3.880   7.133 -0.6340 -0.2970  0.7391
  698SOL     ow 2789   4.771   4.305   5.322 -0.2585 -0.0474  0.0247
  698SOL     hw 2790   4.809   4.328   5.407  0.5919 -1.6736  0.1100
  698SOL     hw 2791   4.683   4.272   5.344 -0.2157 -0.0311  0.2226
  698SOL     vw 2792   4.764   4.304   5.336 -0.1409 -0.2599  0.0618
  699SOL     ow 2793   4.052   5.720   2.251 -0.2629  0.6540  0.1072
  699SOL     hw 2794   4.121   5.729   2.317 -0.1996 -0.6155  0.2452
  699SOL     hw 2795   4.003   5.802   2.257 -0.4866  0.4467  2.0060
  699SOL     vw 2796   4.055   5.732   2.261 -0.2840  0.4592  0.3759
  700SOL     ow 2797   0.386   7.142   2.541 -0.2174  0.0047 -0.2179
  700SOL     hw 2798   0.317   7.208   2.547 -0.4386 -0.3185  1.1438
  700SOL     hw 2799   0.344   7.061   2.570  0.5047 -0.3763 -0.2152
  700SOL     vw 2800   0.371   7.140   2.545 -0.1513 -0.0882 -0.0379
  701SOL     ow 2801   0.762   3.337   4.218 -0.1178 -0.6052  0.1835
  701SOL     hw 2802   0.801   3.311   4.302  0.4869  0.4733  0.2593
  701SOL     hw 2803   0.715   3.418   4.238  0.2429 -0.1990 -0.5702
  701SOL     vw 2804   0.761   3.344   4.232  0.0096 -0.4091  0.0942
  702SOL     ow 2805   3.457   5.141   4.600  0.1041  0.3086 -0.4128
  702SOL     hw 2806   3.458   5.206   4.531 -1.9341  0.2343 -0.5550
  702SOL     hw 2807   3.374   5.095   4.590 -0.3881  0.4460  2.2176
  702SOL     vw 2808   3.446   5.143   4.590 -0.2298  0.3171 -0.0844
  703SOL     ow 2809   6.222   6.866   5.509  0.0384  0.0972 -0.8104
  703SOL     hw 2810   6.236   6.788   5.561 -1.1002  0.5370  0.1818
  703SOL     hw 2811   6.168   6.838   5.436 -1.7211  0.2406  0.3964
  703SOL     vw 2812   6.217   6.852   5.506 -0.3440  0.1745 -0.5200
  704SOL     ow 2813   4.117   1.852   2.614  0.3560 -0.5979 -0.2577
  704SOL     hw 2814   4.111   1.852   2.519 -1.8962 -2.2164 -0.1990
  704SOL     hw 2815   4.183   1.786   2.634 -0.0079 -1.0914 -0.6786
  704SOL     vw 2816   4.125   1.843   2.604  0.0110 -0.8766 -0.3054
  705SOL     ow 2817   0.981   1.441   2.642 -0.0971 -0.0457  0.4056
  705SOL     hw 2818   0.980   1.350   2.612 -1.4234  0.4346 -1.1942
  705SOL     hw 2819   0.923   1.441   2.719 -0.5147 -0.4675  0.0981
  705SOL     vw 2820   0.973   1.429   2.648 -0.3272 -0.0380  0.1541
  706SOL     ow 2821   6.824   7.245   6.197 -0.4207 -0.0155  0.3356
  706SOL     hw 2822   6.811   7.241   6.291  1.3846  2.1447  0.7633
  706SOL     hw 2823   6.895   7.182   6.180 -0.3322  0.0299  0.5299
  706SOL     vw 2824   6.832   7.236   6.207 -0.1709  0.2759  0.4175
  707SOL     ow 2825   6.065   0.553   6.354 -0.2386  0.1737  0.2396
  707SOL     hw 2826   6.050   0.534   6.261  0.0206 -0.4104  0.3112
  707SOL     hw 2827   6.154   0.586   6.358 -0.1956  0.0541  0.2949
  707SOL     vw 2828   6.074   0.555   6.342 -0.1988  0.0809  0.2563
  708SOL     ow 2829   1.617   7.211   5.143  0.6555  0.6327 -0.6906
  708SOL     hw 2830   1.626   7.279   5.209  0.7270  0.7916 -0.8624
  708SOL     hw 2831   1.700   7.212   5.095 -0.3741  2.4426 -2.5988
  708SOL     vw 2832   1.629   7.220   5.145  0.5291  0.8922 -0.9651
  709SOL     ow 2833   1.873   4.397   5.868  0.0596  0.4378 -0.0990
  709SOL     hw 2834   1.891   4.304   5.854 -1.5878  0.0463  0.1968
  709SOL     hw 2835   1.907   4.415   5.956 -0.8374 -0.2341  0.3923
  709SOL     vw 2836   1.880   4.387   5.878 -0.2761  0.2975  0.0045
  710SOL     ow 2837   0.769   2.420   0.337 -0.1693  0.1751 -0.0605
  710SOL     hw 2838   0.703   2.462   0.283 -1.6786 -1.3798  0.4908
  710SOL     hw 2839   0.762   2.463   0.422 -0.8635 -0.3226  0.1458
  710SOL     vw 2840   0.759   2.431   0.341 -0.4600 -0.0958  0.0394
  711SOL     ow 2841   0.673   5.874   7.046 -0.0721  0.6741 -0.4034
  711SOL     hw 2842   0.751   5.914   7.085 -0.2789 -1.1887  2.1653
  711SOL     hw 2843   0.695   5.781   7.040 -2.2048  0.0430  0.7393
  711SOL     vw 2844   0.686   5.867   7.050 -0.3808  0.3450  0.0861
  712SOL     ow 2845   4.016   3.579   6.917 -0.3026  0.1604 -0.0017
  712SOL     hw 2846   4.107   3.597   6.894 -0.0411  0.6264  1.3337
  712SOL     hw 2847   3.970   3.661   6.900 -0.2622  0.2543  0.3291
  712SOL     vw 2848   4.022   3.592   6.912 -0.2627  0.2342  0.2182
  713SOL     ow 2849   6.849   6.794   0.105 -0.3171 -0.8795 -0.2512
  713SOL     hw 2850   6.909   6.771   0.034 -0.9936  1.8544 -1.8059
  713SOL     hw 2851   6.890   6.869   0.148 -1.3909 -0.5761  0.2880
  713SOL     vw 2852   6.862   6.801   0.102 -0.5479 -0.4787 -0.3852
  714SOL     ow 2853   2.479   0.294   3.445  0.5163  0.2627  0.1256
  714SOL     hw 2854   2.472   0.371   3.502  1.7006  0.7548 -0.3719
  714SOL     hw 2855   2.394   0.289   3.401 -0.4609 -0.1547  1.9296
  714SOL     vw 2856   2.467   0.304   3.447  0.5437  0.2726  0.2980
  715SOL     ow 2857   5.288   2.556   0.368  0.5870  0.3944  0.4226
  715SOL     hw 2858   5.331   2.487   0.419  0.9578  0.1561 -0.1927
  715SOL     hw 2859   5.215   2.512   0.325  1.2786  0.1817 -0.5839
  715SOL     vw 2860   5.284   2.541   0.369  0.7274  0.3347  0.2086
  716SOL     ow 2861   4.467   3.955   4.104 -0.1179  0.2063  0.5411
  716SOL     hw 2862   4.495   3.867   4.081 -0.4514  0.4747 -1.0071
  716SOL     hw 2863   4.547   4.006   4.107 -0.1164  0.3526 -1.0209
  716SOL     vw 2864   4.481   3.950   4.101 -0.1616  0.2609  0.1309
  717SOL     ow 2865   0.780   6.757   2.773  0.6184  0.3394 -0.5749
  717SOL     hw 2866   0.709   6.813   2.802  0.1310 -1.1349  1.2989
  717SOL     hw 2867   0.741   6.670   2.766  2.0303 -0.3531 -0.3092
  717SOL     vw 2868   0.765   6.753   2.776  0.7404  0.0534 -0.2925
  718SOL     ow 2869   0.282   2.151   3.593  0.2698 -0.4057 -0.0271
  718SOL     hw 2870   0.332   2.233   3.592  1.6863 -1.2414 -1.1586
  718SOL     hw 2871   0.330   2.095   3.654 -2.0321  0.3048  2.6653
  718SOL     vw 2872   0.295   2.155   3.601  0.1530 -0.4222  0.1789
  719SOL     ow 2873   2.612   2.560   1.683 -0.8239  0.2479  0.2185
  719SOL     hw 2874   2.652   2.583   1.599  0.1902  1.5030  1.0080
  719SOL     hw 2875   2.675   2.591   1.749 -0.0573 -3.4117  1.4573
  719SOL     vw 2876   2.626   2.567   1.681 -0.5889 -0.0694  0.4861
  720SOL     ow 2877   0.299   5.491   3.501 -0.2000 -0.2020 -0.2118
  720SOL     hw 2878   0.383   5.470   3.541 -0.5648 -0.0070  0.6826
  720SOL     hw 2879   0.300   5.586   3.491 -0.9481  0.0060  1.3329
  720SOL     vw 2880   0.310   5.501   3.505 -0.3468 -0.1490  0.1100
  721SOL     ow 2881   6.538   5.670   0.818  0.4067 -0.8466  0.6771
  721SOL     hw 2882   6.604   5.634   0.877  0.9106 -1.2443 -0.1235
  721SOL     hw 2883   6.538   5.612   0.742  0.6505  0.3578 -0.2793
  721SOL     vw 2884   6.547   5.658   0.816  0.5054 -0.7403  0.4453
  722SOL     ow 2885   5.239   6.857   2.365  0.1564  0.1099 -0.1652
  722SOL     hw 2886   5.277   6.771   2.348  0.5338 -0.5103  3.1065
  722SOL     hw 2887   5.186   6.875   2.288  0.4654 -2.8234 -1.2054
  722SOL     vw 2888   5.237   6.848   2.353  0.2468 -0.3591  0.1292
  723SOL     ow 2889   3.663   1.928   5.337  0.1915 -0.6404  0.3826
  723SOL     hw 2890   3.673   1.972   5.253 -1.4271 -1.1474 -0.1136
  723SOL     hw 2891   3.688   1.993   5.402  0.0426  0.2466 -0.4321
  723SOL     vw 2892   3.668   1.942   5.335 -0.0417 -0.5903  0.2098
  724SOL     ow 2893   5.188   3.830   4.907 -0.2480  0.2851  0.6613
  724SOL     hw 2894   5.218   3.751   4.953 -1.8002 -0.4090  0.5454
  724SOL     hw 2895   5.264   3.887   4.907  1.0518 -1.3550  0.4161
  724SOL     vw 2896   5.202   3.827   4.913 -0.2813 -0.0228  0.6137
  725SOL     ow 2897   6.983   0.795   1.018 -0.0229 -0.0289  0.4964
  725SOL     hw 2898   6.956   0.865   0.959 -1.4987  0.3716  1.5635
  725SOL     hw 2899   7.062   0.828   1.060  0.4526  0.1105 -0.4896
  725SOL     vw 2900   6.990   0.809   1.016 -0.1550  0.0423  0.5071
  726SOL     ow 2901   5.936   4.485   0.046  0.0081  0.4376 -0.1288
  726SOL     hw 2902   5.858   4.466  -0.005 -1.7718  1.7596  1.9222
  726SOL     hw 2903   5.945   4.411   0.105 -0.8275  1.1089  0.8737
  726SOL     vw 2904   5.927   4.473   0.047 -0.3369  0.7005  0.2741
  727SOL     ow 2905   2.045   1.155   2.279 -0.6120  0.2125  0.0644
  727SOL     hw 2906   2.008   1.132   2.365 -2.6637  1.0719 -0.5192
  727SOL     hw 2907   2.002   1.238   2.257  0.5837  0.4662 -1.3918
  727SOL     vw 2908   2.034   1.163   2.288 -0.7249  0.3593 -0.2047
  728SOL     ow 2909   5.160   1.941   1.762  0.1250  0.0599  0.0562
  728SOL     hw 2910   5.209   1.926   1.681  1.2469  0.6354  0.5953
  728SOL     hw 2911   5.228   1.956   1.828 -0.7914  1.2481  0.7676
  728SOL     vw 2912   5.176   1.941   1.760  0.1519  0.2925  0.2212
  729SOL     ow 2913   6.363   1.358   2.605  0.0168 -0.2944 -0.0850
  729SOL     hw 2914   6.453   1.326   2.614  0.6494  0.9879 -1.5809
  729SOL     hw 2915   6.330   1.360   2.695  2.1591  1.0919  0.7580
  729SOL     vw 2916   6.371   1.354   2.618  0.3827  0.0576 -0.1712
  730SOL     ow 2917   3.129   4.925   4.096  0.1759 -0.1570  0.2035
  730SOL     hw 2918   3.120   4.968   4.182  0.2005 -0.9496  0.6165
  730SOL     hw 2919   3.106   4.993   4.033 -0.4517  0.2693  0.8656
  730SOL     vw 2920   3.125   4.940   4.099  0.0963 -0.2053  0.3452
  731SOL     ow 2921   0.762   7.297   5.954  0.0711  0.0125 -0.6104
  731SOL     hw 2922   0.803   7.211   5.966  0.2982 -0.1473 -2.3516
  731SOL     hw 2923   0.676   7.288   5.997  2.0634  0.7439  4.2327
  731SOL     vw 2924   0.756   7.284   5.961  0.3639  0.0880 -0.2012
  732SOL     ow 2925   2.742   1.860   6.821 -0.2080 -0.0360  0.1566
  732SOL     hw 2926   2.793   1.851   6.902 -0.9271  0.3947  0.6741
  732SOL     hw 2927   2.756   1.778   6.774  1.3720  0.2692  0.0334
  732SOL     vw 2928   2.750   1.848   6.826 -0.0943  0.0612  0.2086
  733SOL     ow 2929   0.837   5.416   5.117 -0.1152  1.1708  0.5139
  733SOL     hw 2930   0.881   5.467   5.048  0.2893  1.0780  0.7007
  733SOL     hw 2931   0.745   5.440   5.109 -0.2472  0.3561 -0.7689
  733SOL     vw 2932   0.831   5.426   5.107 -0.0793  1.0512  0.3695
  734SOL     ow 2933   3.391   1.975   0.245 -0.2476  0.7491 -0.4531
  734SOL     hw 2934   3.384   1.911   0.315 -0.8595 -3.2740 -3.7846
  734SOL     hw 2935   3.304   2.017   0.242  0.0437  1.5944  1.5504
  734SOL     vw 2936   3.378   1.972   0.254 -0.2898  0.3299 -0.6283
  735SOL     ow 2937   6.665   6.865   3.942  0.6992 -0.0510 -0.2776
  735SOL     hw 2938   6.606   6.892   4.013 -0.1884 -0.2345 -0.9251
  735SOL     hw 2939   6.740   6.825   3.986 -0.5383 -1.5712  0.5252
  735SOL     vw 2940   6.667   6.864   3.957  0.4187 -0.2759 -0.2570
  736SOL     ow 2941   6.464   5.072   3.792 -0.0035  0.3801 -0.1086
  736SOL     hw 2942   6.548   5.106   3.763 -0.1493  1.1824  0.3779
  736SOL     hw 2943   6.454   5.105   3.881 -0.5980 -0.1487  0.0302
  736SOL     vw 2944   6.474   5.080   3.800 -0.1011  0.4160 -0.0261
  737SOL     ow 2945   5.789   6.533   0.794 -0.2096  0.2007  0.3253
  737SOL     hw 2946   5.841   6.564   0.720 -0.3804 -0.0409  0.0982
  737SOL     hw 2947   5.698   6.540   0.763 -0.3160  0.7437  0.7644
  737SOL     vw 2948   5.784   6.538   0.780 -0.2463  0.2403  0.3533
  738SOL     ow 2949   5.974   1.140   1.334 -0.9105 -0.0432 -0.8381
  738SOL     hw 2950   6.068   1.160   1.328 -0.5854 -0.8634  0.9972
  738SOL     hw 2951   5.946   1.183   1.415 -1.6830 -1.3707 -0.3708
  738SOL     vw 2952   5.983   1.149   1.344 -0.9694 -0.3265 -0.5343
  739SOL     ow 2953   2.318   0.530   0.579 -0.7373 -0.0757 -0.2469
  739SOL     hw 2954   2.253   0.473   0.620 -0.7951  0.2760  0.1653
  739SOL     hw 2955   2.352   0.582   0.652  0.2819 -0.5194 -0.3950
  739SOL     vw 2956   2.314   0.529   0.594 -0.6104 -0.0878 -0.2121
  740SOL     ow 2957   0.499   1.405   7.279  0.2332 -0.2778  0.1428
  740SOL     hw 2958   0.469   1.350   7.351 -2.5042  0.8365 -0.0383
  740SOL     hw 2959   0.451   1.487   7.289  0.5010  0.2779 -2.3540
  740SOL     vw 2960   0.489   1.408   7.290 -0.0927 -0.0575 -0.2105
  741SOL     ow 2961   0.381   3.871   6.161  0.6928  0.2564 -0.4747
  741SOL     hw 2962   0.457   3.920   6.194  0.7059  0.9523 -1.5007
  741SOL     hw 2963   0.322   3.866   6.237  0.2221  2.8367 -0.5655
  741SOL     vw 2964   0.383   3.877   6.176  0.6324  0.6887 -0.6220
  742SOL     ow 2965   4.505   5.318   0.485 -0.6995  0.5217 -0.1749
  742SOL     hw 2966   4.526   5.294   0.394 -0.8683 -0.5305  0.0475
  742SOL     hw 2967   4.414   5.346   0.482 -1.1234 -0.7632 -0.1404
  742SOL     vw 2968   4.496   5.318   0.473 -0.7777  0.2131 -0.1411
  743SOL     ow 2969   3.172   1.637   5.436  0.4648  0.0616  0.1621
  743SOL     hw 2970   3.079   1.659   5.424  0.1771 -1.7520 -1.6096
  743SOL     hw 2971   3.171   1.565   5.499  0.5738 -0.3811 -0.3278
  743SOL     vw 2972   3.159   1.630   5.443  0.4412 -0.2360 -0.1364
  744SOL     ow 2973   1.386   2.910   0.005  0.0781 -0.6595  0.2676
  744SOL     hw 2974   1.450   2.900  -0.066 -1.4238 -0.3180 -1.1862
  744SOL     hw 2975   1.303   2.880  -0.032 -0.8307 -0.1661  1.7921
  744SOL     vw 2976   1.384   2.905  -0.009 -0.2400 -0.5493  0.2769
  745SOL     ow 2977   3.760   2.029   0.392 -0.1982 -0.0064  0.5421
  745SOL     hw 2978   3.823   1.965   0.423 -0.3288  0.0454  0.9204
  745SOL     hw 2979   3.731   1.995   0.307  0.6996  0.2206  0.1340
  745SOL     vw 2980   3.765   2.016   0.385 -0.0972  0.0303  0.5382
  746SOL     ow 2981   6.324   6.353   1.766  0.3593 -0.3493  0.4796
  746SOL     hw 2982   6.292   6.379   1.680  0.5794 -1.0745  0.1692
  746SOL     hw 2983   6.401   6.407   1.781 -0.3867  0.6752  0.7820
  746SOL     vw 2984   6.330   6.364   1.757  0.2899 -0.3097  0.4786
  747SOL     ow 2985   3.098   2.835   5.838  0.4298  0.0118  0.1820
  747SOL     hw 2986   3.142   2.782   5.771  0.3385 -0.0949  0.2042
  747SOL     hw 2987   3.137   2.806   5.920  1.2147  0.8080  0.1052
  747SOL     vw 2988   3.109   2.824   5.840  0.5214  0.1028  0.1745
  748SOL     ow 2989   1.280   4.045   5.789  0.5357 -0.0757 -0.1424
  748SOL     hw 2990   1.234   4.037   5.705 -1.6718  0.5729  0.9288
  748SOL     hw 2991   1.306   4.137   5.794  0.6768 -0.1170 -0.1237
  748SOL     vw 2992   1.277   4.056   5.778  0.2632  0.0043  0.0017
  749SOL     ow 2993   4.874   4.523   4.369  0.5121 -0.4368 -0.4879
  749SOL     hw 2994   4.921   4.594   4.413  0.0053 -0.5184  0.2237
  749SOL     hw 2995   4.896   4.445   4.420 -2.0025 -0.1557  1.2095
  749SOL     vw 2996   4.883   4.522   4.382  0.1132 -0.4106 -0.1700
  750SOL     ow 2997   0.697   5.866   2.984 -0.4263 -0.1851 -0.5558
  750SOL     hw 2998   0.633   5.851   2.915 -1.2282 -1.6324  0.4551
  750SOL     hw 2999   0.763   5.797   2.972 -0.5224 -0.3897  0.0672
  750SOL     vw 3000   0.698   5.855   2.973 -0.5448 -0.4032 -0.3402
  751SOL     ow 3001   2.643   3.553   4.313 -0.0271 -0.0992 -0.6426
  751SOL     hw 3002   2.622   3.560   4.406  0.9773  1.0124 -0.4860
  751SOL     hw 3003   2.675   3.463   4.303  1.4379  0.2562  0.4379
  751SOL     vw 3004   2.644   3.542   4.324  0.2989  0.0945 -0.4795
  752SOL     ow 3005   3.895   4.091   6.697 -0.6048 -0.2971  0.0642
  752SOL     hw 3006   3.858   4.179   6.710  0.0166  0.0053 -0.1778
  752SOL     hw 3007   3.946   4.098   6.616  1.5719 -0.1646  1.3696
  752SOL     vw 3008   3.897   4.104   6.688 -0.2356 -0.2398  0.2046
  753SOL     ow 3009   3.397   6.104   6.574  0.0163  0.4937 -0.0707
  753SOL     hw 3010   3.391   6.010   6.556 -3.1793  0.6612 -0.4333
  753SOL     hw 3011   3.480   6.131   6.535  0.6166 -2.0352 -0.6719
  753SOL     vw 3012   3.407   6.095   6.566 -0.3260  0.1822 -0.1976
  754SOL     ow 3013   4.494   7.243   5.758  0.5579  0.0021 -0.3145
  754SOL     hw 3014   4.547   7.252   5.837  1.6696 -1.4156 -0.8612
  754SOL     hw 3015   4.420   7.302   5.772  1.3840  0.7231  1.2225
  754SOL     vw 3016   4.491   7.252   5.771  0.8137 -0.0899 -0.1836
  755SOL     ow 3017   2.673   0.558   0.765 -0.8042  0.9281 -0.0329
  755SOL     hw 3018   2.699   0.571   0.674 -0.8985 -0.4274 -0.2769
  755SOL     hw 3019   2.587   0.601   0.772 -0.0036  2.6299 -0.0698
  755SOL     vw 3020   2.665   0.565   0.754 -0.7111  0.9738 -0.0700
  756SOL     ow 3021   1.357   1.808   3.264  0.2287 -0.3364 -0.4471
  756SOL     hw 3022   1.394   1.808   3.352  0.0687 -1.3991 -0.3573
  756SOL     hw 3023   1.298   1.732   3.264  0.2313 -0.3471 -1.4611
  756SOL     vw 3024   1.354   1.798   3.276  0.2079 -0.4780 -0.5690
  757SOL     ow 3025   1.336   5.071   3.799 -0.3531  0.1940  0.6116
  757SOL     hw 3026   1.396   5.143   3.815 -0.9175  0.6295  0.8173
  757SOL     hw 3027   1.319   5.033   3.885 -0.1193 -0.1330  0.5143
  757SOL     vw 3028   1.341   5.075   3.812 -0.3967  0.2081  0.6260
  758SOL     ow 3029   0.681   2.520   0.097  0.0629 -0.2348  0.5224
  758SOL     hw 3030   0.609   2.515   0.034  0.2910  2.0543 -0.0093
  758SOL     hw 3031   0.751   2.469   0.057 -0.5271 -0.6490 -0.0149
  758SOL     vw 3032   0.681   2.513   0.083  0.0151  0.0126  0.3814
  759SOL     ow 3033   0.067   5.050   0.340  0.2204 -1.0530  0.3792
  759SOL     hw 3034   0.162   5.060   0.346  0.1326 -0.5851  1.0566
  759SOL     hw 3035   0.035   5.138   0.323 -0.1353 -1.1208  0.6907
  759SOL     vw 3036   0.075   5.063   0.339  0.1618 -1.0002  0.5097
  760SOL     ow 3037   7.143   4.595   2.652 -0.2256  0.5510 -0.1239
  760SOL     hw 3038   7.199   4.529   2.611  0.5682  1.2338 -0.1601
  760SOL     hw 3039   7.072   4.609   2.590 -0.9126 -0.9382  0.2958
  760SOL     vw 3040   7.141   4.588   2.638 -0.2115  0.4449 -0.0732
  761SOL     ow 3041   6.433   6.272   1.232 -0.6947  0.2682  0.4725
  761SOL     hw 3042   6.343   6.283   1.200  0.4802  0.2663 -3.3952
  761SOL     hw 3043   6.459   6.358   1.263 -1.3542  0.8648 -0.5573
  761SOL     vw 3044   6.424   6.284   1.232 -0.6268  0.3467 -0.1736
  762SOL     ow 3045   1.839   4.340   0.225  0.0471  0.1635  0.5760
  762SOL     hw 3046   1.895   4.350   0.302  1.1863  0.7327 -0.3016
  762SOL     hw 3047   1.892   4.372   0.152 -1.7396  1.5966 -0.1673
  762SOL     vw 3048   1.854   4.346   0.226 -0.0384  0.4277  0.3621
  763SOL     ow 3049   5.760   3.221   2.204  0.5540 -0.0944 -0.6706
  763SOL     hw 3050   5.836   3.174   2.170  1.3382  0.7717 -0.1484
  763SOL     hw 3051   5.785   3.246   2.293 -0.3303  0.2422 -0.5060
  763SOL     vw 3052   5.774   3.218   2.211  0.5410  0.0644 -0.5801
  764SOL     ow 3053   2.037   4.633   7.251  0.3018  0.6619 -0.5577
  764SOL     hw 3054   2.048   4.570   7.179 -1.4435  0.2533 -0.5221
  764SOL     hw 3055   2.017   4.578   7.327 -1.4870  1.2085 -0.5747
  764SOL     vw 3056   2.036   4.617   7.252 -0.1645  0.6800 -0.5553
  765SOL     ow 3057   6.021   3.919   0.568 -0.1141 -0.7821 -0.1598
  765SOL     hw 3058   6.025   3.825   0.546  0.9648 -1.0512  1.0932
  765SOL     hw 3059   5.949   3.926   0.631  1.5646 -1.2916  1.9337
  765SOL     vw 3060   6.012   3.907   0.573  0.2499 -0.8850  0.2817
  766SOL     ow 3061   3.405   6.072   0.076  0.3336 -0.0122 -0.2312
  766SOL     hw 3062   3.462   6.148   0.080 -0.8232  0.8748  0.0294
  766SOL     hw 3063   3.376   6.068  -0.015 -0.3466  0.4387 -0.0420
  766SOL     vw 3064   3.409   6.081   0.064  0.0911  0.1643 -0.1719
  767SOL     ow 3065   6.528   3.245   6.860 -0.1714 -0.1585  0.4004
  767SOL     hw 3066   6.574   3.294   6.791  1.4993 -2.4097 -0.2355
  767SOL     hw 3067   6.582   3.257   6.938 -0.7750  0.4847  0.7261
  767SOL     vw 3068   6.541   3.253   6.861 -0.0308 -0.3706  0.3598
  768SOL     ow 3069   1.498   3.598   4.464  0.0222 -0.4173  0.1827
  768SOL     hw 3070   1.405   3.580   4.456 -0.1717  0.8925 -0.8833
  768SOL     hw 3071   1.534   3.584   4.376  0.7708 -0.6208  0.5078
  768SOL     vw 3072   1.491   3.594   4.451  0.0954 -0.2712  0.0849
  769SOL     ow 3073   3.585   3.503   5.426  0.0710 -0.2795  0.2192
  769SOL     hw 3074   3.525   3.521   5.354 -0.6226  1.8017  1.2385
  769SOL     hw 3075   3.664   3.468   5.383 -0.6301  0.0985 -1.4522
  769SOL     vw 3076   3.588   3.501   5.411 -0.1130  0.0451  0.1330
  770SOL     ow 3077   7.013   3.353   2.191 -0.0781  0.0147 -0.0421
  770SOL     hw 3078   6.961   3.432   2.179  0.4415  0.3333 -0.2462
  770SOL     hw 3079   7.104   3.383   2.189  0.1248 -0.5636  0.0579
  770SOL     vw 3080   7.018   3.367   2.189  0.0172 -0.0196 -0.0559
  771SOL     ow 3081   5.999   5.072   4.361  0.3625  0.3699 -0.0971
  771SOL     hw 3082   6.047   5.126   4.298  0.8602 -0.6853 -0.6571
  771SOL     hw 3083   6.066   5.044   4.424  0.4970 -1.0226 -0.8234
  771SOL     vw 3084   6.015   5.075   4.361  0.4458  0.0470 -0.2668
  772SOL     ow 3085   1.002   2.187   6.931  0.6640  0.1313 -0.5604
  772SOL     hw 3086   0.990   2.172   7.025  1.4746  0.2494 -0.4383
  772SOL     hw 3087   0.967   2.274   6.916 -2.0145 -0.8942 -0.8767
  772SOL     vw 3088   0.996   2.196   6.942  0.4175  0.0116 -0.5860
  773SOL     ow 3089   7.313   7.242   5.291 -0.6304 -0.3644  0.1167
  773SOL     hw 3090   7.314   7.147   5.303 -2.3421 -0.4057  0.1915
  773SOL     hw 3091   7.320   7.253   5.196 -1.3432 -0.6129  0.0287
  773SOL     vw 3092   7.314   7.231   5.280 -0.9503 -0.4027  0.1149
  774SOL     ow 3093   4.479   1.483   5.199  0.3455 -0.4425 -0.3269
  774SOL     hw 3094   4.434   1.551   5.148  0.7225 -0.7356 -1.0593
  774SOL     hw 3095   4.410   1.445   5.254  0.3395  1.3260  1.0136
  774SOL     vw 3096   4.464   1.487   5.200  0.3946 -0.2478 -0.2465
  775SOL     ow 3097   0.241   6.971   1.525  0.4145 -0.2853  0.3047
  775SOL     hw 3098   0.195   7.040   1.573  1.4761  0.1808  0.6686
  775SOL     hw 3099   0.333   6.984   1.546  0.7462 -1.0620 -0.6056
  775SOL     vw 3100   0.247   6.982   1.534  0.5983 -0.3264  0.2326
  776SOL     ow 3101   3.415   2.716   3.992  0.0467  0.1839  0.5861
  776SOL     hw 3102   3.490   2.703   3.933  0.3778  0.7366  0.8854
  776SOL     hw 3103   3.428   2.803   4.029 -0.3657 -0.0075  1.1889
  776SOL     vw 3104   3.427   2.726   3.989  0.0359  0.2317  0.7051
  777SOL     ow 3105   2.398   5.140   7.232 -0.0525 -0.7465  0.2760
  777SOL     hw 3106   2.323   5.115   7.286 -0.3336 -1.5449 -0.4721
  777SOL     hw 3107   2.473   5.102   7.277  0.0573  0.9563  1.6133
  777SOL     vw 3108   2.398   5.132   7.245 -0.0751 -0.6273  0.3538
  778SOL     ow 3109   1.448   5.268   5.190  0.1251 -0.3338 -0.2813
  778SOL     hw 3110   1.527   5.237   5.234  0.9724  0.8531 -0.9047
  778SOL     hw 3111   1.416   5.339   5.246  0.2184  0.0236 -0.6791
  778SOL     vw 3112   1.454   5.273   5.203  0.2492 -0.1299 -0.4160
  779SOL     ow 3113   4.747   5.937   0.989  0.3060  0.8005 -0.0453
  779SOL     hw 3114   4.808   5.894   1.049  0.0944  0.0351 -0.3641
  779SOL     hw 3115   4.719   6.015   1.036  0.8744  0.7178  0.4567
  779SOL     vw 3116   4.752   5.941   1.003  0.3531  0.6886 -0.0212
  780SOL     ow 3117   2.004   3.823   2.531  0.2910  0.3202  0.1703
  780SOL     hw 3118   1.943   3.895   2.548 -1.4632 -0.6223 -1.6695
  780SOL     hw 3119   2.081   3.866   2.493  1.1420  1.5932  3.0834
  780SOL     vw 3120   2.007   3.838   2.528  0.1720  0.3637  0.3119
  781SOL     ow 3121   6.952   7.221   0.876 -0.2068 -0.0408 -0.1805
  781SOL     hw 3122   6.935   7.313   0.898 -0.5266 -0.0072 -0.5555
  781SOL     hw 3123   7.047   7.213   0.881 -0.2568 -0.0073  1.0687
  781SOL     vw 3124   6.962   7.232   0.879 -0.2556 -0.0319 -0.0651
  782SOL     ow 3125   5.460   2.683   2.086  0.2236 -0.2422 -0.0147
  782SOL     hw 3126   5.463   2.770   2.126  1.7680 -0.9100  1.4384
  782SOL     hw 3127   5.525   2.688   2.015 -1.1425  0.3557 -1.2822
  782SOL     vw 3128   5.469   2.695   2.082  0.2470 -0.2514  0.0100
  783SOL     ow 3129   5.463   3.626   7.297  0.0023 -0.4502  0.3201
  783SOL     hw 3130   5.485   3.548   7.348 -0.9262 -0.2801  1.0065
  783SOL     hw 3131   5.378   3.607   7.259  0.6748 -0.5727 -1.2129
  783SOL     vw 3132   5.455   3.614   7.299 -0.0315 -0.4438  0.2084
  784SOL     ow 3133   7.442   6.400   6.818  0.5969 -0.0990  0.0000
  784SOL     hw 3134   7.533   6.397   6.848  0.9056 -0.5108 -0.9361
  784SOL     hw 3135   7.448   6.409   6.723 -0.3410 -0.4460 -0.1076
  784SOL     vw 3136   7.455   6.400   6.810  0.5140 -0.1993 -0.1376
  785SOL     ow 3137   2.908   4.469   7.411  0.1038 -0.2083 -0.2395
  785SOL     hw 3138   2.911   4.554   7.454  1.0434  0.4333 -1.5109
  785SOL     hw 3139   2.965   4.413   7.463  1.3613  0.5985 -0.7191
  785SOL     vw 3140   2.916   4.473   7.423  0.3936 -0.0172 -0.4704
  786SOL     ow 3141   3.663   3.606   4.825  0.4371  0.1137 -0.3004
  786SOL     hw 3142   3.603   3.543   4.785  0.4174  0.2136 -0.4290
  786SOL     hw 3143   3.750   3.568   4.810  0.4744  0.4569 -0.9938
  786SOL     vw 3144   3.666   3.593   4.818  0.4394  0.1723 -0.4089
  787SOL     ow 3145   6.256   7.397   1.383 -0.3805  0.1118  0.6347
  787SOL     hw 3146   6.277   7.455   1.310 -0.7798  1.3700  1.4702
  787SOL     hw 3147   6.176   7.352   1.356 -0.4626  0.4805  0.2492
  787SOL     vw 3148   6.248   7.399   1.370 -0.4442  0.3264  0.6941
  788SOL     ow 3149   6.255   3.311   4.720  0.0302  0.2624 -0.2879
  788SOL     hw 3150   6.304   3.231   4.703 -1.1142 -2.1820  5.6023
  788SOL     hw 3151   6.315   3.365   4.771 -0.5734  1.3212 -0.6662
  788SOL     vw 3152   6.269   3.308   4.724 -0.2005  0.0795  0.4394
  789SOL     ow 3153   1.984   3.846   6.057  0.0695  0.0734  0.3838
  789SOL     hw 3154   2.019   3.764   6.094 -0.7173  0.6651  2.6092
  789SOL     hw 3155   1.903   3.861   6.105 -0.5071  1.4825 -0.9524
  789SOL     vw 3156   1.978   3.837   6.069 -0.1104  0.3372  0.5012
  790SOL     ow 3157   1.858   3.392   2.552  0.1127  0.2016 -0.1568
  790SOL     hw 3158   1.811   3.354   2.478 -0.1647  0.4017 -0.0844
  790SOL     hw 3159   1.834   3.485   2.552  1.2292  0.5129 -0.6767
  790SOL     vw 3160   1.849   3.399   2.543  0.2234  0.2692 -0.2159
  791SOL     ow 3161   2.471   4.018   6.503  0.5168 -0.5260 -0.0549
  791SOL     hw 3162   2.488   4.074   6.427  0.3637  1.1224  1.0682
  791SOL     hw 3163   2.376   4.023   6.515  0.4991 -1.0684  0.0345
  791SOL     vw 3164   2.461   4.026   6.495  0.4941 -0.3800  0.1049
  792SOL     ow 3165   7.159   6.935   1.203 -0.3465 -0.0607  0.2254
  792SOL     hw 3166   7.116   6.859   1.240 -0.7150  0.7757  1.5827
  792SOL     hw 3167   7.087   6.995   1.181 -0.2948 -1.0208 -3.2278
  792SOL     vw 3168   7.144   6.933   1.205 -0.3881 -0.0770 -0.0511
  793SOL     ow 3169   4.334   0.319   2.810 -0.2805 -0.1660 -0.0195
  793SOL     hw 3170   4.381   0.328   2.893  0.3785  0.7065 -0.4779
  793SOL     hw 3171   4.360   0.395   2.758 -1.5587 -0.0972 -0.6141
  793SOL     vw 3172   4.343   0.330   2.814 -0.3619 -0.0418 -0.1584
  794SOL     ow 3173   5.342   0.906   7.451  0.2167 -0.2765  0.3986
  794SOL     hw 3174   5.250   0.914   7.424  0.1885 -1.4464  0.0838
  794SOL     hw 3175   5.340   0.849   7.527  0.7220 -0.7133  0.0909
  794SOL     vw 3176   5.329   0.900   7.457  0.2797 -0.4885  0.3164
  795SOL     ow 3177   5.415   6.616   0.196  0.3461 -0.2051 -0.2938
  795SOL     hw 3178   5.491   6.598   0.141  0.5379  0.1739 -0.1556
  795SOL     hw 3179   5.405   6.711   0.192 -0.5034 -0.3083 -0.8222
  795SOL     vw 3180   5.424   6.627   0.188  0.2592 -0.1686 -0.3453
  796SOL     ow 3181   1.988   1.107   6.366  0.8010 -0.0498  0.2037
  796SOL     hw 3182   1.950   1.020   6.353  0.7476 -0.1129  0.7748
  796SOL     hw 3183   1.961   1.133   6.454  0.9419  0.4831  0.0970
  796SOL     vw 3184   1.979   1.099   6.376  0.8125  0.0121  0.2651
  797SOL     ow 3185   3.866   6.978   1.614  0.0867 -0.3973 -0.1678
  797SOL     hw 3186   3.821   6.982   1.699 -0.4549  1.3685 -0.4970
  797SOL     hw 3187   3.920   6.899   1.619 -1.0158 -1.1044  1.2708
  797SOL     vw 3188   3.867   6.968   1.626 -0.1303 -0.2580 -0.0214
  798SOL     ow 3189   7.324   1.170   4.356  0.1387 -0.2393  0.0956
  798SOL     hw 3190   7.276   1.126   4.286 -1.2432 -0.1798  0.9654
  798SOL     hw 3191   7.409   1.127   4.357 -0.2301 -1.0422 -0.8524
  798SOL     vw 3192   7.329   1.158   4.347 -0.0923 -0.3374  0.0854
  799SOL     ow 3193   3.192   7.322   4.912 -0.2934  0.3397 -0.1779
  799SOL     hw 3194   3.167   7.246   4.964  0.2362 -0.9398 -1.7136
  799SOL     hw 3195   3.197   7.289   4.822  0.0609  2.1729 -0.8821
  799SOL     vw 3196   3.189   7.307   4.907 -0.1768  0.4125 -0.4735
  800SOL     ow 3197   3.217   3.198   0.113 -0.2327  0.4307  0.4405
  800SOL     hw 3198   3.238   3.217   0.022  0.3936 -0.6619  0.3377
  800SOL     hw 3199   3.300   3.172   0.152 -0.6099  0.2521  1.1486
  800SOL     vw 3200   3.230   3.197   0.106 -0.1999  0.2630  0.5203
  801SOL     ow 3201   5.543   1.086   5.343  0.1651 -0.5053 -0.1329
  801SOL     hw 3202   5.527   1.096   5.249  0.1689  0.7739 -0.0132
  801SOL     hw 3203   5.492   1.156   5.383  0.2972 -0.9425  0.8119
  801SOL     vw 3204   5.534   1.097   5.336  0.1833 -0.3942  0.0076
  802SOL     ow 3205   1.881   7.278   1.588 -0.0961  0.3992  0.5135
  802SOL     hw 3206   1.877   7.189   1.625 -0.3072  0.9760  1.9461
  802SOL     hw 3207   1.952   7.274   1.524  1.2922 -0.3087  2.0182
  802SOL     vw 3208   1.890   7.266   1.585  0.0592  0.3817  0.9011
  803SOL     ow 3209   5.287   1.232   0.828  0.4885 -0.0715 -0.9598
  803SOL     hw 3210   5.298   1.152   0.778 -2.1867 -0.7605 -0.5834
  803SOL     hw 3211   5.298   1.205   0.919  0.6908  0.2207 -0.8964
  803SOL     vw 3212   5.290   1.218   0.834  0.1621 -0.1239 -0.9018
  804SOL     ow 3213   3.322   6.237   5.138 -0.0703  0.4149  0.1318
  804SOL     hw 3214   3.356   6.153   5.167  0.1279  0.7722  0.9526
  804SOL     hw 3215   3.229   6.233   5.157  0.0664  0.6640  0.8696
  804SOL     vw 3216   3.314   6.225   5.144 -0.0260  0.4952  0.3376
  805SOL     ow 3217   5.758   3.825   0.808  0.6308  0.2110  0.1146
  805SOL     hw 3218   5.738   3.853   0.897  0.5506 -0.5419  0.3379
  805SOL     hw 3219   5.709   3.744   0.797 -0.6447  1.1147 -1.1684
  805SOL     vw 3220   5.749   3.818   0.818  0.4520  0.2308 -0.0252
  806SOL     ow 3221   3.929   2.385   3.443 -0.2358  0.7575  0.9064
  806SOL     hw 3222   3.887   2.328   3.379 -1.1782  0.6561  1.5918
  806SOL     hw 3223   4.008   2.417   3.399  0.5009 -1.3243  0.6215
  806SOL     vw 3224   3.934   2.382   3.429 -0.2630  0.4693  0.9593
  807SOL     ow 3225   4.197   4.914   0.494  0.0549 -0.6979  0.2221
  807SOL     hw 3226   4.135   4.976   0.532 -0.2444  0.0929 -1.4751
  807SOL     hw 3227   4.174   4.830   0.534 -1.8790 -0.3632 -0.0774
  807SOL     vw 3228   4.186   4.911   0.504 -0.2396 -0.5496 -0.0413
  808SOL     ow 3229   2.831   2.043   0.061  0.3862  0.5317  0.6737
  808SOL     hw 3230   2.858   2.111  -0.002 -0.4572  0.6229  0.3909
  808SOL     hw 3231   2.843   2.084   0.147  2.0395  0.2276  0.6177
  808SOL     vw 3232   2.836   2.057   0.064  0.4932  0.5034  0.6290
  809SOL     ow 3233   1.844   1.522   0.638  0.3257  0.3351 -0.8344
  809SOL     hw 3234   1.814   1.439   0.675 -0.5960  1.8247  2.0235
  809SOL     hw 3235   1.938   1.521   0.651  0.2269  0.0555 -0.0818
  809SOL     vw 3236   1.852   1.511   0.644  0.1911  0.4947 -0.3580
  810SOL     ow 3237   2.916   1.744   5.420  0.2533 -0.3556 -0.2293
  810SOL     hw 3238   2.852   1.711   5.358 -0.3863  1.1194 -0.4061
  810SOL     hw 3239   2.892   1.704   5.503 -1.2116  0.4883 -0.2055
  810SOL     vw 3240   2.905   1.735   5.423 -0.0244 -0.0497 -0.2494
  811SOL     ow 3241   5.056   6.295   0.469 -0.4017 -0.2104  0.0321
  811SOL     hw 3242   5.091   6.268   0.554 -1.2124  0.6131  0.6491
  811SOL     hw 3243   5.128   6.281   0.408  0.8479  0.9402  1.1650
  811SOL     vw 3244   5.070   6.290   0.472 -0.3440  0.0498  0.2630
  812SOL     ow 3245   6.034   3.682   0.791  0.4846 -0.3081 -0.1073
  812SOL     hw 3246   5.952   3.690   0.841  1.6815 -0.7104  2.0527
  812SOL     hw 3247   6.012   3.715   0.704 -1.9194 -0.2179  0.4553
  812SOL     vw 3248   6.020   3.688   0.787  0.3252 -0.3493  0.2519
  813SOL     ow 3249   4.080   4.989   6.511  0.0177 -0.3048  0.6262
  813SOL     hw 3250   4.146   4.942   6.562  1.1611  2.2563  1.6871
  813SOL     hw 3251   3.997   4.966   6.552  0.4145 -2.0730  0.5094
  813SOL     vw 3252   4.078   4.980   6.523  0.2210 -0.2003  0.7508
  814SOL     ow 3253   5.153   0.152   1.476 -0.2061  0.3468 -0.3348
  814SOL     hw 3254   5.108   0.236   1.471 -0.2176  0.3076 -0.9749
  814SOL     hw 3255   5.242   0.174   1.502  0.1066  0.6769 -1.6146
  814SOL     vw 3256   5.158   0.166   1.479 -0.1664  0.3852 -0.5881
  815SOL     ow 3257   2.215   1.333   2.045 -0.0592 -0.3361 -0.1700
  815SOL     hw 3258   2.268   1.412   2.036  0.0401 -0.3781  0.0395
  815SOL     hw 3259   2.265   1.278   2.106 -1.1741  0.3310  1.4199
  815SOL     vw 3260   2.228   1.336   2.052 -0.1932 -0.2536  0.0672
  816SOL     ow 3261   6.863   3.002   4.204  0.0274  0.0793  0.3908
  816SOL     hw 3262   6.851   2.921   4.254 -1.0438  0.5665  0.9562
  816SOL     hw 3263   6.955   2.999   4.176  0.0780 -1.2047  0.6061
  816SOL     vw 3264   6.874   2.991   4.207 -0.1073 -0.0257  0.4938
  817SOL     ow 3265   5.344   0.247   3.436 -0.4631 -1.1754  0.2947
  817SOL     hw 3266   5.284   0.185   3.478 -0.3529 -1.9924 -0.7294
  817SOL     hw 3267   5.347   0.220   3.345 -0.7494  0.6154 -0.2818
  817SOL     vw 3268   5.337   0.235   3.430 -0.4861 -1.0469  0.0834
  818SOL     ow 3269   5.550   4.804   1.349 -0.2012 -0.2100  0.6125
  818SOL     hw 3270   5.644   4.808   1.334 -0.1144  0.3550  1.2704
  818SOL     hw 3271   5.512   4.843   1.270  0.1332 -0.1006  0.5033
  818SOL     vw 3272   5.557   4.810   1.336 -0.1454 -0.1206  0.6849
  819SOL     ow 3273   4.661   7.267   6.879 -0.0719  0.6229 -0.4042
  819SOL     hw 3274   4.700   7.302   6.959  0.1591  0.3968 -0.4142
  819SOL     hw 3275   4.707   7.312   6.808 -0.3435  0.8920 -0.4073
  819SOL     vw 3276   4.672   7.277   6.880 -0.0770  0.6285 -0.4060
  820SOL     ow 3277   4.940   1.820   3.318  0.2269 -0.0322 -0.1000
  820SOL     hw 3278   4.969   1.812   3.409 -0.6192  1.2500  0.3208
  820SOL     hw 3279   4.887   1.900   3.317 -2.6340 -1.7636 -0.9449
  820SOL     vw 3280   4.937   1.829   3.330 -0.2623 -0.0916 -0.1558
  821SOL     ow 3281   6.227   4.094   6.289  0.0525  0.8540 -0.5658
  821SOL     hw 3282   6.133   4.107   6.274  0.0444  1.1950 -0.2232
  821SOL     hw 3283   6.241   4.122   6.379  0.7717  2.2989 -1.0976
  821SOL     vw 3284   6.216   4.099   6.299  0.1466  1.0898 -0.5908
  822SOL     ow 3285   2.363   5.048   6.948 -0.0120  0.1666 -0.7034
  822SOL     hw 3286   2.280   5.061   6.903 -0.2520 -0.8158 -0.5660
  822SOL     hw 3287   2.356   5.100   7.028 -0.5265  0.0268 -0.6558
  822SOL     vw 3288   2.351   5.057   6.953 -0.1115  0.0184 -0.6788
  823SOL     ow 3289   6.782   0.616   3.715  0.2390 -0.1212 -0.1477
  823SOL     hw 3290   6.703   0.612   3.661  0.0701  0.6247  0.0397
  823SOL     hw 3291   6.779   0.535   3.767 -1.2505  0.6409  1.0246
  823SOL     vw 3292   6.771   0.605   3.715  0.0203  0.0777  0.0316
  824SOL     ow 3293   0.814   0.080   5.781  0.1799 -0.2549 -0.3237
  824SOL     hw 3294   0.879   0.083   5.711  0.9915 -1.5101  0.3357
  824SOL     hw 3295   0.737   0.123   5.744  0.9449  0.0872 -1.5858
  824SOL     vw 3296   0.813   0.086   5.767  0.3879 -0.3754 -0.4032
  825SOL     ow 3297   0.557   0.469   0.701  0.1092  0.2402 -0.1373
  825SOL     hw 3298   0.487   0.494   0.641 -0.0786  0.6602  0.2530
  825SOL     hw 3299   0.636   0.507   0.662 -0.1400  1.2666  0.3304
  825SOL     vw 3300   0.558   0.477   0.688  0.0515  0.4311 -0.0241
  826SOL     ow 3301   4.110   1.597   1.580 -0.1239  0.2481 -0.5896
  826SOL     hw 3302   4.117   1.553   1.496  0.0194  0.4712 -0.6981
  826SOL     hw 3303   4.050   1.670   1.564 -0.0124  0.3551 -0.5293
  826SOL     vw 3304   4.103   1.601   1.567 -0.0901  0.2916 -0.5959
  827SOL     ow 3305   3.989   0.924   1.499  0.2140  0.5457 -0.0644
  827SOL     hw 3306   3.930   0.977   1.445 -0.7679 -1.4465 -1.0432
  827SOL     hw 3307   4.069   0.976   1.505 -0.8620  2.3530 -0.5238
  827SOL     vw 3308   3.992   0.938   1.493 -0.0576  0.5213 -0.2542
  828SOL     ow 3309   2.693   5.373   6.515 -0.4744  0.1818  0.4269
  828SOL     hw 3310   2.602   5.365   6.544 -0.7345 -1.9346 -0.7746
  828SOL     hw 3311   2.723   5.283   6.504  1.5225  0.8467  0.0039
  828SOL     vw 3312   2.685   5.360   6.517 -0.2452 -0.0098  0.2127
  829SOL     ow 3313   2.451   3.782   5.347 -0.6102  0.1867  0.2083
  829SOL     hw 3314   2.472   3.830   5.428 -0.7623  0.8943 -0.1595
  829SOL     hw 3315   2.395   3.843   5.298  1.5067  0.8397 -1.5845
  829SOL     vw 3316   2.446   3.797   5.351 -0.3511  0.3662 -0.0770
  830SOL     ow 3317   0.262   1.984   7.431  0.1702  0.4699 -0.3997
  830SOL     hw 3318   0.340   1.930   7.441  1.8249  2.7128 -0.3626
  830SOL     hw 3319   0.292   2.073   7.452 -1.9541  1.7035 -2.1747
  830SOL     vw 3320   0.276   1.989   7.435  0.1082  0.9286 -0.6289
  831SOL     ow 3321   1.604   5.979   2.419  0.3484  0.0309 -0.2783
  831SOL     hw 3322   1.671   5.917   2.446 -0.8232 -1.1121  0.0886
  831SOL     hw 3323   1.549   5.990   2.497  1.2890  2.6266  0.1310
  831SOL     vw 3324   1.606   5.972   2.433  0.3179  0.2222 -0.1758
  832SOL     ow 3325   7.161   5.086   0.282  0.0855 -0.2173  0.1955
  832SOL     hw 3326   7.099   5.134   0.337  0.7379 -0.2656  1.0043
  832SOL     hw 3327   7.218   5.041   0.345  1.9476  1.1007 -0.4609
  832SOL     vw 3328   7.161   5.086   0.298  0.4175 -0.0496  0.2156
  833SOL     ow 3329   1.889   2.590   0.553  0.6657 -0.1367 -0.0888
  833SOL     hw 3330   1.830   2.662   0.532 -1.3833 -2.2479 -2.2283
  833SOL     hw 3331   1.935   2.619   0.632 -1.2960  2.7578  0.1534
  833SOL     vw 3332   1.887   2.603   0.561  0.1366 -0.0333 -0.3391
  834SOL     ow 3333   3.165   2.631   4.156 -0.3447  0.3080  0.1448
  834SOL     hw 3334   3.099   2.675   4.210  0.4757  0.7393  0.8038
  834SOL     hw 3335   3.118   2.557   4.118 -0.2957 -1.8166  3.7759
  834SOL     vw 3336   3.150   2.627   4.158 -0.2300  0.0846  0.7110
  835SOL     ow 3337   5.922   6.795   4.447  0.3670  0.0249  0.6442
  835SOL     hw 3338   5.914   6.882   4.487 -0.0273  0.0648  0.4891
  835SOL     hw 3339   5.984   6.808   4.375 -0.5872  0.4652 -0.1277
  835SOL     vw 3340   5.929   6.808   4.443  0.1891  0.0882  0.5214
  836SOL     ow 3341   6.440   5.846   1.134 -0.3196 -0.1127 -0.1281
  836SOL     hw 3342   6.431   5.789   1.211  0.1040 -1.3914 -0.9892
  836SOL     hw 3343   6.354   5.843   1.092 -0.2431 -0.2671 -0.2735
  836SOL     vw 3344   6.427   5.838   1.139 -0.2537 -0.3018 -0.2609
  837SOL     ow 3345   3.840   2.426   0.468  0.3762  0.0386 -0.1771
  837SOL     hw 3346   3.763   2.443   0.414 -1.0859 -1.5135  1.3080
  837SOL     hw 3347   3.893   2.365   0.415 -0.5263 -0.6608 -0.3014
  837SOL     vw 3348   3.837   2.420   0.454  0.0643 -0.2583  0.0025
  838SOL     ow 3349   3.166   0.709   2.419 -0.6302 -0.0140  0.0294
  838SOL     hw 3350   3.139   0.718   2.510  0.3175  1.6258  0.1984
  838SOL     hw 3351   3.095   0.661   2.377 -0.9589 -1.0443  1.6716
  838SOL     vw 3352   3.153   0.704   2.425 -0.5486  0.0664  0.2683
  839SOL     ow 3353   0.621   3.265   2.459  0.7022  0.0199  0.1480
  839SOL     hw 3354   0.561   3.325   2.413 -0.5385 -1.2710  0.0031
  839SOL     hw 3355   0.691   3.248   2.397  0.0827 -0.1328 -0.5196
  839SOL     vw 3356   0.622   3.271   2.445  0.4568 -0.1706  0.0409
  840SOL     ow 3357   2.188   2.000   2.920  0.0554  0.3031  0.4031
  840SOL     hw 3358   2.200   2.010   2.826 -0.5980 -2.0020  0.0066
  840SOL     hw 3359   2.261   2.049   2.959 -0.4112  2.3936 -1.1987
  840SOL     vw 3360   2.199   2.008   2.913 -0.0923  0.2748  0.1396
  841SOL     ow 3361   1.403   2.092   0.451  0.3788 -0.1337  0.0524
  841SOL     hw 3362   1.447   2.070   0.369 -1.9458  0.6358 -1.5127
  841SOL     hw 3363   1.392   2.009   0.496  2.8544 -0.4170  0.2938
  841SOL     vw 3364   1.407   2.078   0.446  0.3986 -0.0696 -0.1222
  842SOL     ow 3365   7.101   0.057   5.661 -0.0073 -0.2979  0.0259
  842SOL     hw 3366   7.192   0.075   5.637  0.6480 -3.0944 -0.0178
  842SOL     hw 3367   7.068   0.139   5.698  2.3636  0.9309 -0.4283
  842SOL     vw 3368   7.109   0.070   5.663  0.3922 -0.5047 -0.0396
  843SOL     ow 3369   3.502   6.673   1.234 -0.3428  0.9601 -0.1091
  843SOL     hw 3370   3.440   6.641   1.168  0.2563 -0.4746 -0.0029
  843SOL     hw 3371   3.453   6.672   1.316 -0.0435 -0.8294  0.1010
  843SOL     vw 3372   3.487   6.669   1.236 -0.2242  0.5350 -0.0674
  844SOL     ow 3373   4.508   6.542   5.728 -0.0678 -0.1558  0.5193
  844SOL     hw 3374   4.428   6.502   5.762  0.4913 -1.7477  0.0727
  844SOL     hw 3375   4.569   6.469   5.718  0.7660  0.6972 -1.0827
  844SOL     vw 3376   4.506   6.527   5.731  0.1163 -0.2532  0.2489
  845SOL     ow 3377   0.856   2.032   4.597 -0.1295  0.4406  0.3283
  845SOL     hw 3378   0.780   2.066   4.646 -0.9223 -0.3600 -0.3110
  845SOL     hw 3379   0.822   1.954   4.553  1.1004  0.0303  0.0870
  845SOL     vw 3380   0.841   2.026   4.598 -0.0719  0.2809  0.2122
  846SOL     ow 3381   3.228   5.355   1.139 -0.2998 -0.2559 -0.4501
  846SOL     hw 3382   3.320   5.383   1.149 -0.5130 -0.0504  1.3216
  846SOL     hw 3383   3.228   5.300   1.061  1.1284  0.5814 -1.0874
  846SOL     vw 3384   3.240   5.352   1.130 -0.1396 -0.1183 -0.3004
  847SOL     ow 3385   2.051   4.820   5.604  0.7868 -0.3098  0.1035
  847SOL     hw 3386   2.074   4.872   5.680 -2.3282  0.7858  0.4259
  847SOL     hw 3387   2.101   4.859   5.532  1.0607  0.9553  0.9484
  847SOL     vw 3388   2.061   4.832   5.604  0.4117  0.0019  0.2575
  848SOL     ow 3389   6.796   3.694   1.752  0.2385 -0.8654 -0.4406
  848SOL     hw 3390   6.719   3.659   1.707 -0.5024  0.5172 -0.3007
  848SOL     hw 3391   6.769   3.703   1.843  0.7273 -0.8146 -0.2979
  848SOL     vw 3392   6.782   3.691   1.758  0.2050 -0.6763 -0.4033
  849SOL     ow 3393   5.122   7.384   5.835 -0.4405  0.3904 -0.1585
  849SOL     hw 3394   5.203   7.357   5.880 -0.7735  3.0709  2.3234
  849SOL     hw 3395   5.140   7.472   5.804 -1.5132 -0.0512 -2.2063
  849SOL     vw 3396   5.135   7.392   5.837 -0.6256  0.6859 -0.1011
  850SOL     ow 3397   1.920   1.123   1.769 -0.2166 -0.2351  0.0058
  850SOL     hw 3398   1.828   1.121   1.795  0.4511  1.0832  2.9170
  850SOL     hw 3399   1.926   1.060   1.698 -3.0911 -1.4010  0.6445
  850SOL     vw 3400   1.909   1.115   1.763 -0.5078 -0.2150  0.4741
  851SOL     ow 3401   0.275   7.229   3.999 -0.6840 -0.3771 -0.0479
  851SOL     hw 3402   0.220   7.307   4.002  0.8054  0.8422 -1.6172
  851SOL     hw 3403   0.214   7.156   3.988 -2.0612  0.6811  0.3570
  851SOL     vw 3404   0.260   7.230   3.998 -0.6692 -0.0768 -0.2016
  852SOL     ow 3405   7.265   5.527   5.369  0.2185 -0.6153  0.6974
  852SOL     hw 3406   7.238   5.566   5.453  0.7092 -1.9417  1.5030
  852SOL     hw 3407   7.356   5.554   5.359 -0.1266  0.3793  0.0626
  852SOL     vw 3408   7.273   5.536   5.379  0.2379 -0.6590  0.7200
  853SOL     ow 3409   3.622   5.785   2.307 -0.4565  0.6118  0.3993
  853SOL     hw 3410   3.693   5.820   2.361 -0.3390 -0.5549  1.0286
  853SOL     hw 3411   3.574   5.727   2.366 -0.2165 -0.8345 -0.7714
  853SOL     vw 3412   3.625   5.782   2.322 -0.4092  0.2666  0.3278
  854SOL     ow 3413   2.967   4.337   5.707 -0.4778  0.4263  0.3782
  854SOL     hw 3414   2.978   4.260   5.763 -2.3948 -1.4215 -1.5738
  854SOL     hw 3415   2.889   4.381   5.742 -1.6526 -0.7068 -0.6900
  854SOL     vw 3416   2.958   4.332   5.719 -0.8858  0.0329 -0.0205
  855SOL     ow 3417   2.724   3.756   5.656 -0.5951 -0.7786  0.3886
  855SOL     hw 3418   2.756   3.769   5.745  0.9122  0.8966 -0.3413
  855SOL     hw 3419   2.803   3.737   5.605 -1.3083 -0.6689 -0.7799
  855SOL     vw 3420   2.739   3.755   5.661 -0.4904 -0.5431  0.1383
  856SOL     ow 3421   4.240   4.937   0.229  0.4393  0.3769  1.1398
  856SOL     hw 3422   4.234   4.929   0.324 -1.1814  0.0959  1.0496
  856SOL     hw 3423   4.192   4.861   0.196  1.4718  0.1638  0.0894
  856SOL     vw 3424   4.233   4.926   0.237  0.3617  0.3119  0.9893
  857SOL     ow 3425   0.757   1.997   0.298 -0.0181 -0.0758 -0.0486
  857SOL     hw 3426   0.743   1.988   0.204 -1.2319 -0.7519  0.1897
  857SOL     hw 3427   0.770   1.908   0.330 -0.8781  0.0191  0.6085
  857SOL     vw 3428   0.757   1.984   0.290 -0.2918 -0.1525  0.0696
  858SOL     ow 3429   1.391   4.274   0.928  0.5913 -0.2273  0.3729
  858SOL     hw 3430   1.395   4.299   0.835  2.6135  1.9265  0.9672
  858SOL     hw 3431   1.399   4.178   0.926  1.4918 -0.1732 -1.6385
  858SOL     vw 3432   1.392   4.264   0.915  0.9769  0.0639  0.1859
  859SOL     ow 3433   3.338   0.055   3.601 -0.0251  0.3204  0.1236
  859SOL     hw 3434   3.267   0.024   3.544  0.6160 -0.8260 -0.0960
  859SOL     hw 3435   3.355  -0.019   3.659  1.2299  0.4493 -0.0656
  859SOL     vw 3436   3.331   0.041   3.601  0.2251  0.1862  0.0696
  860SOL     ow 3437   2.278   0.579   5.360 -0.1608 -0.5829 -0.2947
  860SOL     hw 3438   2.344   0.612   5.298 -1.6756 -0.5795 -1.9857
  860SOL     hw 3439   2.262   0.652   5.419  0.6243 -0.2478 -0.4805
  860SOL     vw 3440   2.285   0.593   5.360 -0.2571 -0.5382 -0.5422
  861SOL     ow 3441   5.683   0.817   5.277 -0.0829  0.0232 -0.5302
  861SOL     hw 3442   5.597   0.808   5.236 -0.5694  0.7099  0.3007
  861SOL     hw 3443   5.745   0.801   5.206 -0.8915  0.9233 -1.4768
  861SOL     vw 3444   5.680   0.814   5.262 -0.2537  0.2326 -0.5457
  862SOL     ow 3445   2.250   3.293   1.423 -0.6969  0.0064  0.2526
  862SOL     hw 3446   2.258   3.231   1.351  0.2137  0.5537 -0.1390
  862SOL     hw 3447   2.322   3.355   1.409 -1.1788  0.7562  1.0088
  862SOL     vw 3448   2.261   3.293   1.412 -0.6404  0.1775  0.3006
  863SOL     ow 3449   3.034   6.666   3.501 -0.3175 -0.4871 -0.2023
  863SOL     hw 3450   3.128   6.647   3.506 -0.4484 -1.4404 -1.1309
  863SOL     hw 3451   3.025   6.751   3.545  1.3875  0.9697 -2.4461
  863SOL     vw 3452   3.045   6.674   3.507 -0.1098 -0.4208 -0.6207
  864SOL     ow 3453   1.672   5.590   2.282 -0.1053 -0.3611 -0.3018
  864SOL     hw 3454   1.637   5.525   2.221  1.0268  0.9278 -2.4404
  864SOL     hw 3455   1.767   5.585   2.271  0.0847  0.4547  0.8017
  864SOL     vw 3456   1.680   5.581   2.273  0.0691 -0.0830 -0.4383
  865SOL     ow 3457   3.109   7.019   5.534 -0.5669 -0.4652 -0.1994
  865SOL     hw 3458   3.026   7.060   5.559  0.3103 -0.5994  3.5073
  865SOL     hw 3459   3.087   6.927   5.521 -0.8548 -0.8298  2.3663
  865SOL     vw 3460   3.095   7.012   5.536 -0.4891 -0.5312  0.6280
  866SOL     ow 3461   3.416   5.849   2.646 -0.1181  0.0118  0.1776
  866SOL     hw 3462   3.370   5.827   2.727  0.9088  1.1089  1.0974
  866SOL     hw 3463   3.351   5.897   2.594 -0.8402 -0.8490  0.2599
  866SOL     vw 3464   3.401   5.853   2.650 -0.0778  0.0429  0.3099
  867SOL     ow 3465   0.246   1.655   0.312 -0.2520 -0.0702  0.5461
  867SOL     hw 3466   0.235   1.567   0.275  1.4367  0.3885 -1.2157
  867SOL     hw 3467   0.195   1.711   0.254 -0.0992  0.3017  0.7713
  867SOL     vw 3468   0.238   1.651   0.299 -0.0091  0.0393  0.3434
  868SOL     ow 3469   5.326   0.254   4.632  0.4057 -0.2656 -0.4989
  868SOL     hw 3470   5.261   0.209   4.578 -0.0012 -0.7928  0.3957
  868SOL     hw 3471   5.274   0.309   4.691  0.8909  1.4751 -1.6052
  868SOL     vw 3472   5.310   0.255   4.633  0.4163 -0.1055 -0.5269
  869SOL     ow 3473   2.393   1.491   1.169  0.0485  0.9939  0.0389
  869SOL     hw 3474   2.387   1.537   1.253  1.1782 -0.1560  0.7703
  869SOL     hw 3475   2.363   1.556   1.105  0.4693  2.3525  1.1693
  869SOL     vw 3476   2.388   1.506   1.172  0.2528  1.0214  0.2845
  870SOL     ow 3477   6.096   4.647   3.017  0.0469  0.1034  0.0880
  870SOL     hw 3478   6.164   4.673   3.079  1.3149 -2.2587 -0.1693
  870SOL     hw 3479   6.140   4.646   2.932 -0.1501 -1.7731 -0.0362
  870SOL     vw 3480   6.111   4.650   3.014  0.1881 -0.4563  0.0376
  871SOL     ow 3481   5.039   4.148   2.755  0.0470  0.6639 -0.3226
  871SOL     hw 3482   4.997   4.231   2.735 -0.8926  0.1963 -0.3401
  871SOL     hw 3483   5.100   4.168   2.826  0.8398  1.6317 -1.2481
  871SOL     vw 3484   5.042   4.161   2.762  0.0277  0.7300 -0.4470
  872SOL     ow 3485   5.102   6.448   1.542 -0.5872 -0.2171  0.1131
  872SOL     hw 3486   5.192   6.418   1.529 -0.6371 -0.4086  0.2097
  872SOL     hw 3487   5.081   6.495   1.461 -0.6228 -0.7304 -0.1853
  872SOL     vw 3488   5.111   6.450   1.529 -0.5987 -0.3104  0.0864
  873SOL     ow 3489   3.042   3.401   1.425 -0.4186 -0.0595  0.6474
  873SOL     hw 3490   3.118   3.343   1.431  0.2221  0.5014 -1.2283
  873SOL     hw 3491   3.079   3.489   1.419 -1.2558  0.3019  0.6356
  873SOL     vw 3492   3.057   3.405   1.425 -0.4447  0.0622  0.3984
  874SOL     ow 3493   2.694   3.048   4.349  0.1710 -0.3752 -0.3173
  874SOL     hw 3494   2.599   3.031   4.346  0.4729 -2.2649 -0.4285
  874SOL     hw 3495   2.706   3.106   4.424 -1.0741  0.0096 -0.3846
  874SOL     vw 3496   2.683   3.054   4.358  0.0466 -0.5739 -0.3407
  875SOL     ow 3497   2.373   5.380   7.120 -0.0454 -0.5233  0.0154
  875SOL     hw 3498   2.385   5.307   7.180  1.1272 -0.4760 -0.1567
  875SOL     hw 3499   2.342   5.452   7.176 -0.3617 -0.8950  0.3193
  875SOL     vw 3500   2.370   5.380   7.135  0.0675 -0.5662  0.0329
  876SOL     ow 3501   3.763   7.428   1.831 -0.3395 -0.2436  0.4807
  876SOL     hw 3502   3.672   7.410   1.810  0.2510 -2.9182 -0.2759
  876SOL     hw 3503   3.782   7.370   1.905  0.9400 -0.3512  0.0937
  876SOL     vw 3504   3.754   7.418   1.838 -0.0927 -0.6108  0.3299
  877SOL     ow 3505   2.860   4.109   7.461  0.4193  0.6171 -0.3929
  877SOL     hw 3506   2.858   4.039   7.395 -0.0104 -0.0704  0.3235
  877SOL     hw 3507   2.948   4.146   7.455  0.0812  1.2646 -2.0441
  877SOL     vw 3508   2.871   4.105   7.451  0.3178  0.6118 -0.5163
  878SOL     ow 3509   4.153   1.924   1.742  0.1268  0.7468 -0.3923
  878SOL     hw 3510   4.184   1.873   1.817  1.2895  5.0092  2.4166
  878SOL     hw 3511   4.058   1.912   1.743  0.4192 -2.2034 -0.7107
  878SOL     vw 3512   4.144   1.916   1.752  0.3188  0.9200 -0.0637
  879SOL     ow 3513   3.240   4.335   1.372 -0.5729 -0.0560 -0.4711
  879SOL     hw 3514   3.228   4.420   1.415  0.2766  0.7626 -1.7993
  879SOL     hw 3515   3.164   4.327   1.315 -0.8547 -0.3825 -0.0552
  879SOL     vw 3516   3.228   4.346   1.370 -0.4979  0.0088 -0.5915
  880SOL     ow 3517   4.216   1.027   2.108 -0.0805  0.1716  0.2171
  880SOL     hw 3518   4.202   0.986   2.023 -2.5312 -0.5615  0.9005
  880SOL     hw 3519   4.309   1.050   2.108  0.5885 -2.0864 -1.6546
  880SOL     vw 3520   4.226   1.024   2.097 -0.3157 -0.2230  0.0603
  881SOL     ow 3521   2.876   3.879   7.284 -0.0421 -0.3189  0.0857
  881SOL     hw 3522   2.858   3.891   7.191  1.3384  0.7129 -0.0810
  881SOL     hw 3523   2.818   3.808   7.311 -0.4290 -0.6672 -1.5729
  881SOL     vw 3524   2.866   3.871   7.275  0.0889 -0.2286 -0.1554
  882SOL     ow 3525   6.484   7.083   2.659 -0.1050 -0.1875  0.1589
  882SOL     hw 3526   6.459   7.043   2.576  0.7376  1.4232 -0.9355
  882SOL     hw 3527   6.529   7.164   2.634 -0.9803  1.0176  2.2305
  882SOL     vw 3528   6.487   7.088   2.645 -0.1092  0.1838  0.2879
  883SOL     ow 3529   0.754   0.414   1.351 -0.4686 -0.4789 -0.1830
  883SOL     hw 3530   0.764   0.370   1.267 -0.1783 -0.7694  0.0012
  883SOL     hw 3531   0.661   0.407   1.371 -1.4235  3.1453 -2.4067
  883SOL     vw 3532   0.743   0.408   1.343 -0.5563 -0.0391 -0.4522
  884SOL     ow 3533   4.482   2.630   0.739  0.1057  0.0497 -0.0574
  884SOL     hw 3534   4.439   2.626   0.825  0.0128 -0.3906 -0.1215
  884SOL     hw 3535   4.474   2.722   0.713  1.1077  0.4271  0.8921
  884SOL     vw 3536   4.475   2.642   0.747  0.2258  0.0415  0.0595
  885SOL     ow 3537   1.152   5.492   7.061  0.1856  0.2901  0.0165
  885SOL     hw 3538   1.201   5.565   7.098 -0.9156  1.8658 -1.5023
  885SOL     hw 3539   1.132   5.519   6.971 -2.0048 -0.9891  0.0462
  885SOL     vw 3540   1.156   5.505   7.054 -0.2486  0.3290 -0.1800
  886SOL     ow 3541   7.433   0.909   0.389 -0.0915 -0.2292  0.0055
  886SOL     hw 3542   7.473   0.850   0.324 -0.5577 -0.0360 -0.4606
  886SOL     hw 3543   7.386   0.974   0.337 -3.2030 -1.8975  0.5080
  886SOL     vw 3544   7.432   0.910   0.373 -0.5636 -0.4238  0.0103
  887SOL     ow 3545   4.103   4.917   1.359  0.2406 -0.0661 -0.0314
  887SOL     hw 3546   4.106   4.825   1.385  0.3733 -0.3324 -0.9413
  887SOL     hw 3547   4.111   4.915   1.264  1.9729  0.9809  0.0434
  887SOL     vw 3548   4.105   4.905   1.350  0.4869  0.0370 -0.1416
  888SOL     ow 3549   0.616   5.518   1.709 -0.0190  0.0959  0.4700
  888SOL     hw 3550   0.523   5.532   1.696 -0.0371 -0.1575  0.3319
  888SOL     hw 3551   0.654   5.606   1.702 -0.1407  0.0900 -0.3540
  888SOL     vw 3552   0.609   5.531   1.707 -0.0375  0.0618  0.3430
  889SOL     ow 3553   0.640   4.130   3.974  0.0242 -0.1343 -0.8862
  889SOL     hw 3554   0.636   4.048   3.924 -2.7897 -0.9749  0.5227
  889SOL     hw 3555   0.616   4.198   3.911 -1.1187 -0.8645 -1.2667
  889SOL     vw 3556   0.637   4.128   3.959 -0.4978 -0.3414 -0.7504
  890SOL     ow 3557   3.598   1.611   5.384  0.0823 -0.1595 -0.2837
  890SOL     hw 3558   3.542   1.534   5.392  1.1594 -1.0424 -0.9288
  890SOL     hw 3559   3.668   1.584   5.325  0.6248  1.2445 -0.3298
  890SOL     vw 3560   3.600   1.597   5.377  0.2959 -0.0908 -0.3746
  891SOL     ow 3561   4.016   0.324   2.742  0.1443 -0.2142 -0.0643
  891SOL     hw 3562   4.053   0.402   2.700 -1.4229 -0.1050 -1.3571
  891SOL     hw 3563   3.938   0.356   2.787  1.1350 -0.5504  1.9989
  891SOL     vw 3564   4.011   0.339   2.743  0.0682 -0.2441  0.0373
  892SOL     ow 3565   5.669   1.926   1.941 -0.3198 -0.4383  0.1474
  892SOL     hw 3566   5.762   1.918   1.959  0.1844 -0.6757 -2.1855
  892SOL     hw 3567   5.653   2.020   1.934  0.6692 -0.3704 -3.1149
  892SOL     vw 3568   5.679   1.937   1.942 -0.1225 -0.4607 -0.5908
  893SOL     ow 3569   3.293   1.804   0.825 -0.1046  0.1462  0.0073
  893SOL     hw 3570   3.358   1.762   0.768  2.2556 -0.0699  2.6321
  893SOL     hw 3571   3.294   1.896   0.798  0.0159 -0.1619 -1.0881
  893SOL     vw 3572   3.302   1.811   0.814  0.2227  0.0770  0.2091
  894SOL     ow 3573   5.744   5.043   3.363  0.6092 -0.1307  0.1712
  894SOL     hw 3574   5.762   4.949   3.356 -1.0507 -0.4869  0.2174
  894SOL     hw 3575   5.761   5.077   3.275 -3.0958 -1.3643 -1.2485
  894SOL     vw 3576   5.749   5.035   3.350 -0.0989 -0.3405 -0.0100
  895SOL     ow 3577   5.963   5.087   1.130  0.1697 -0.2687  0.3176
  895SOL     hw 3578   5.975   5.088   1.225  0.8721  0.7741  0.2314
  895SOL     hw 3579   5.870   5.107   1.118  0.5527  2.0062  0.7494
  895SOL     vw 3580   5.952   5.090   1.141  0.3128  0.1690  0.3632
  896SOL     ow 3581   5.639   5.927   1.264 -0.1680 -0.0130  0.3901
  896SOL     hw 3582   5.647   5.845   1.312  3.5356  0.0900  0.2404
  896SOL     hw 3583   5.547   5.931   1.238 -1.0156 -2.8787  2.4726
  896SOL     vw 3584   5.628   5.917   1.267  0.2086 -0.3774  0.6452
  897SOL     ow 3585   0.052   2.615   6.872  0.2157 -0.5167  0.2332
  897SOL     hw 3586  -0.004   2.553   6.919 -2.7063  1.4650 -0.3418
  897SOL     hw 3587   0.044   2.589   6.780 -1.1952  0.7224 -0.0360
  897SOL     vw 3588   0.043   2.604   6.866 -0.3560 -0.0918  0.1218
  898SOL     ow 3589   1.606   6.232   1.240  0.3431  0.0580 -0.8198
  898SOL     hw 3590   1.574   6.224   1.149  1.0587 -0.3433 -1.0401
  898SOL     hw 3591   1.561   6.310   1.274  0.2421  0.3504 -1.5966
  898SOL     vw 3592   1.596   6.241   1.232  0.4242  0.0436 -0.9515
  899SOL     ow 3593   1.694   1.194   4.349 -0.3463 -0.0781 -0.2840
  899SOL     hw 3594   1.708   1.131   4.420  2.2149 -0.1031 -0.6823
  899SOL     hw 3595   1.601   1.187   4.328 -0.8633 -1.1462  2.0397
  899SOL     vw 3596   1.684   1.184   4.355 -0.0765 -0.2223 -0.0300
  900SOL     ow 3597   6.776   7.037   1.533 -0.4351  0.1540 -0.4466
  900SOL     hw 3598   6.848   6.999   1.583 -0.4505 -0.4107 -0.8498
  900SOL     hw 3599   6.818   7.094   1.469 -0.4469  1.7175  0.8550
  900SOL     vw 3600   6.791   7.039   1.531 -0.4387  0.2856 -0.3281
  901SOL     ow 3601   1.959   1.750   3.647  0.2019 -0.2322 -0.0762
  901SOL     hw 3602   1.864   1.752   3.632  0.0526  0.3003  0.8954
  901SOL     hw 3603   1.971   1.685   3.716  0.5699 -0.4553 -0.3474
  901SOL     vw 3604   1.948   1.742   3.654  0.2308 -0.1914  0.0163
  902SOL     ow 3605   3.844   0.656   5.563 -0.0661  0.6713  0.1224
  902SOL     hw 3606   3.884   0.612   5.637 -0.1562  0.6540  0.1613
  902SOL     hw 3607   3.765   0.604   5.544  0.5837 -0.0414 -0.7532
  902SOL     vw 3608   3.839   0.643   5.570  0.0080  0.5750  0.0117
  903SOL     ow 3609   0.109   1.795   0.138 -0.5259 -0.4578 -0.1638
  903SOL     hw 3610   0.024   1.769   0.101 -1.2767  1.6376 -0.0502
  903SOL     hw 3611   0.150   1.847   0.068  0.0064 -0.2150  0.3230
  903SOL     vw 3612   0.103   1.799   0.124 -0.5547 -0.1493 -0.0846
  904SOL     ow 3613   2.946   4.728   4.926  0.2404 -0.4123 -0.4216
  904SOL     hw 3614   3.038   4.754   4.921  0.4039 -1.0539 -0.9257
  904SOL     hw 3615   2.922   4.706   4.836 -0.5756  0.2741 -0.3962
  904SOL     vw 3616   2.955   4.729   4.913  0.1543 -0.4065 -0.4849
  905SOL     ow 3617   1.728   5.582   0.774 -0.0703  0.2005 -0.1137
  905SOL     hw 3618   1.779   5.510   0.737 -0.2019  0.6457 -1.1871
  905SOL     hw 3619   1.778   5.660   0.754 -0.0702  0.4442  0.8008
  905SOL     vw 3620   1.741   5.583   0.767 -0.0876  0.2911 -0.1347
  906SOL     ow 3621   2.390   1.379   5.972  0.3805 -0.6566  0.1662
  906SOL     hw 3622   2.339   1.451   6.009  0.7455 -0.4635  0.2990
  906SOL     hw 3623   2.358   1.371   5.882  0.0385 -0.6123  0.2836
  906SOL     vw 3624   2.379   1.388   5.965  0.3835 -0.6253  0.1991
  907SOL     ow 3625   2.878   1.485   2.754 -0.4840 -0.7178  0.2676
  907SOL     hw 3626   2.828   1.422   2.807 -0.4835 -1.9210 -1.0720
  907SOL     hw 3627   2.820   1.504   2.680 -0.2498  0.4436  0.3706
  907SOL     vw 3628   2.863   1.479   2.751 -0.4530 -0.7233  0.1043
  908SOL     ow 3629   0.271   4.834   0.161  0.3528  0.1867 -0.1902
  908SOL     hw 3630   0.314   4.867   0.240  1.0743 -0.1583 -0.4306
  908SOL     hw 3631   0.256   4.913   0.108  1.8042  0.2043 -0.6304
  908SOL     vw 3632   0.275   4.849   0.165  0.6394  0.1435 -0.2800
  909SOL     ow 3633   0.062   7.434   5.266  0.1878 -0.1298 -0.4855
  909SOL     hw 3634   0.037   7.503   5.205 -0.2394 -0.1957 -0.3925
  909SOL     hw 3635  -0.020   7.388   5.285 -0.3559  1.7404  2.4601
  909SOL     vw 3636   0.048   7.437   5.261  0.0597  0.1085 -0.0844
  910SOL     ow 3637   2.697   1.990   5.614 -0.1581  0.5738  0.0263
  910SOL     hw 3638   2.673   1.941   5.535  1.1998 -0.6823  0.3531
  910SOL     hw 3639   2.637   1.957   5.681  1.6253 -1.8142  0.5985
  910SOL     vw 3640   2.686   1.979   5.612  0.2564  0.0930  0.1450
  911SOL     ow 3641   2.205   3.409   1.729 -0.5920  0.4659 -0.1755
  911SOL     hw 3642   2.244   3.476   1.674 -1.5675  0.6984 -0.6154
  911SOL     hw 3643   2.111   3.429   1.728 -0.7747 -0.2790  0.5460
  911SOL     vw 3644   2.198   3.421   1.722 -0.7447  0.3984 -0.1384
  912SOL     ow 3645   3.528   3.922   7.399 -0.2644  0.3126  0.5622
  912SOL     hw 3646   3.493   3.914   7.487  1.5358 -0.1663  1.2829
  912SOL     hw 3647   3.616   3.958   7.411  0.2268 -0.2820 -0.9760
  912SOL     vw 3648   3.535   3.926   7.412  0.0379  0.1709  0.4547
  913SOL     ow 3649   0.987   6.062   1.806 -0.3741  0.1299 -0.2295
  913SOL     hw 3650   0.915   6.082   1.748 -2.0936 -2.1705  0.9437
  913SOL     hw 3651   0.985   6.131   1.872 -2.1423 -0.3791  0.2960
  913SOL     vw 3652   0.978   6.073   1.807 -0.8343 -0.2410 -0.0054
  914SOL     ow 3653   5.036   2.483   7.025 -0.5580 -0.4213  0.0362
  914SOL     hw 3654   5.061   2.478   6.933 -0.4234  0.0190  0.0495
  914SOL     hw 3655   4.945   2.513   7.023  0.2985  2.4418  0.1148
  914SOL     vw 3656   5.027   2.486   7.013 -0.4275  0.0145  0.0484
  915SOL     ow 3657   2.625   6.447   4.529  0.2836 -0.1536  0.5636
  915SOL     hw 3658   2.684   6.521   4.539  0.8404 -0.4625 -0.2805
  915SOL     hw 3659   2.572   6.468   4.452 -0.5351  0.0004  1.1557
  915SOL     vw 3660   2.626   6.459   4.520  0.2490 -0.1740  0.5305
  916SOL     ow 3661   6.167   2.098   2.501 -0.1825  0.3847 -0.2192
  916SOL     hw 3662   6.203   2.048   2.575  0.3338 -2.4554 -2.2161
  916SOL     hw 3663   6.231   2.168   2.487  0.9296 -0.4204  0.5917
  916SOL     vw 3664   6.180   2.100   2.509  0.0327 -0.0962 -0.3756
  917SOL     ow 3665   3.001   5.846   1.574  0.0953 -0.2018  0.2475
  917SOL     hw 3666   3.033   5.761   1.547 -2.1183 -0.8613 -0.5399
  917SOL     hw 3667   2.908   5.832   1.593 -0.4856  2.1399 -0.5012
  917SOL     vw 3668   2.993   5.833   1.573 -0.2735  0.0200  0.0449
  918SOL     ow 3669   0.058   1.968   7.225  0.3447 -0.5511 -0.0261
  918SOL     hw 3670   0.101   1.981   7.310  1.5483  0.3736 -0.7402
  918SOL     hw 3671   0.116   2.012   7.163  0.1958 -2.3370 -1.5102
  918SOL     vw 3672   0.072   1.975   7.228  0.4839 -0.6647 -0.3161
  919SOL     ow 3673   4.255   7.412   7.434  0.4480  0.2841 -0.1264
  919SOL     hw 3674   4.221   7.370   7.355  0.3007  1.5723 -0.7603
  919SOL     hw 3675   4.238   7.348   7.503  0.3847 -0.7723 -1.0884
  919SOL     vw 3676   4.248   7.398   7.433  0.4199  0.3147 -0.3369
  920SOL     ow 3677   1.005   1.356   4.611  0.5793 -0.4028 -0.0292
  920SOL     hw 3678   0.931   1.313   4.653  1.0449 -1.6403 -0.4393
  920SOL     hw 3679   0.976   1.446   4.597 -0.6368 -0.7318  0.2999
  920SOL     vw 3680   0.992   1.362   4.615  0.4803 -0.6095 -0.0401
  921SOL     ow 3681   5.786   0.472   2.748  0.6912  0.3279 -1.0118
  921SOL     hw 3682   5.745   0.434   2.670 -0.2603  0.5096 -0.6121
  921SOL     hw 3683   5.783   0.567   2.732  2.0868  0.3056 -1.5259
  921SOL     vw 3684   5.780   0.480   2.735  0.7501  0.3490 -1.0267
  922SOL     ow 3685   6.159   6.007   0.557 -0.3591 -0.7081 -0.0778
  922SOL     hw 3686   6.070   6.038   0.542  0.2884  0.9876 -0.5948
  922SOL     hw 3687   6.179   6.034   0.646 -0.7172 -2.0371  0.4232
  922SOL     vw 3688   6.150   6.015   0.567 -0.3211 -0.6595 -0.0799
  923SOL     ow 3689   0.010   2.258   4.691 -0.2526  0.4426 -0.1071
  923SOL     hw 3690   0.100   2.255   4.658  0.0799 -0.3497  0.8197
  923SOL     hw 3691  -0.039   2.301   4.621  0.7873  0.6267 -0.7574
  923SOL     vw 3692   0.016   2.263   4.677 -0.0715  0.3623 -0.0708
  924SOL     ow 3693   4.886   2.652   5.556 -0.6803 -0.1186  0.2978
  924SOL     hw 3694   4.937   2.624   5.632 -1.2340 -0.2983  0.6170
  924SOL     hw 3695   4.795   2.640   5.584 -0.8866 -0.3402 -0.4588
  924SOL     vw 3696   4.880   2.647   5.570 -0.7803 -0.1715  0.2401
  925SOL     ow 3697   6.880   6.428   7.117  0.2284  0.2528  0.5590
  925SOL     hw 3698   6.863   6.336   7.095  1.4648 -0.0663  0.8512
  925SOL     hw 3699   6.954   6.452   7.062  2.4803 -0.1379  3.2180
  925SOL     vw 3700   6.887   6.419   7.107  0.6886  0.1595  0.9487
  926SOL     ow 3701   2.560   0.071   3.560 -0.1349 -0.0808 -0.3543
  926SOL     hw 3702   2.622   0.097   3.629 -0.9313 -1.4164  0.9245
  926SOL     hw 3703   2.513   0.151   3.539 -0.0572  0.3054  0.8695
  926SOL     vw 3704   2.562   0.085   3.566 -0.2297 -0.2061 -0.0241
  927SOL     ow 3705   6.136   4.474   4.655 -0.4219 -0.3160  0.5426
  927SOL     hw 3706   6.077   4.400   4.668  0.7370 -1.3834  0.0506
  927SOL     hw 3707   6.081   4.552   4.662 -1.5610 -1.2036  1.7005
  927SOL     vw 3708   6.121   4.474   4.657 -0.4191 -0.5739  0.6304
  928SOL     ow 3709   5.168   6.872   0.459  0.4696  0.0844 -0.2703
  928SOL     hw 3710   5.147   6.830   0.542 -1.7475  1.0739 -0.2479
  928SOL     hw 3711   5.091   6.926   0.439  1.2385  0.4564 -2.5979
  928SOL     vw 3712   5.155   6.874   0.467  0.2787  0.2637 -0.5744
  929SOL     ow 3713   2.494   3.276   2.941 -0.1242  0.0748 -0.0882
  929SOL     hw 3714   2.495   3.370   2.923  1.6152 -0.0895 -1.1444
  929SOL     hw 3715   2.405   3.258   2.972 -0.0365  2.3353  1.7773
  929SOL     vw 3716   2.483   3.286   2.943  0.1169  0.3514  0.0186
  930SOL     ow 3717   4.414   1.700   3.325  0.2254  0.2410 -0.4359
  930SOL     hw 3718   4.355   1.698   3.250  0.0506  1.2569 -0.3409
  930SOL     hw 3719   4.440   1.791   3.333  0.4185  0.1155  0.5982
  930SOL     vw 3720   4.409   1.712   3.316  0.2279  0.3585 -0.2869
  931SOL     ow 3721   0.794   3.173   1.425  0.0913  0.4387 -0.1224
  931SOL     hw 3722   0.826   3.211   1.507  1.7374  1.2207 -1.0782
  931SOL     hw 3723   0.704   3.145   1.445 -0.5963  3.1864  1.1732
  931SOL     vw 3724   0.786   3.175   1.439  0.2178  0.9042 -0.0775
  932SOL     ow 3725   2.935   2.336   0.590 -0.1422 -0.1496 -0.3671
  932SOL     hw 3726   2.944   2.338   0.685 -0.5874 -0.6450 -0.3067
  932SOL     hw 3727   2.844   2.311   0.575 -0.3374  0.8309 -0.9290
  932SOL     vw 3728   2.924   2.333   0.601 -0.2267 -0.0857 -0.4333
  933SOL     ow 3729   1.698   3.918   7.111 -0.3106  0.7715 -0.0493
  933SOL     hw 3730   1.616   3.966   7.109  0.6294  2.4912  0.5093
  933SOL     hw 3731   1.728   3.918   7.020 -1.3465 -0.7193 -0.4345
  933SOL     vw 3732   1.692   3.924   7.099 -0.3233  0.8017 -0.0265
  934SOL     ow 3733   6.280   4.607   3.967  0.1363  0.4639  0.7336
  934SOL     hw 3734   6.197   4.580   4.007  0.3688 -0.5825  0.5385
  934SOL     hw 3735   6.340   4.614   4.040  1.0099 -3.0679  0.5568
  934SOL     vw 3736   6.277   4.604   3.982  0.2823 -0.1402  0.6846
  935SOL     ow 3737   2.247   2.714   2.083  0.0116  0.5161 -0.3540
  935SOL     hw 3738   2.186   2.752   2.146  0.2584  0.3503 -0.0079
  935SOL     hw 3739   2.192   2.663   2.024  0.0318 -1.8775  1.5552
  935SOL     vw 3740   2.232   2.712   2.083  0.0467  0.1786 -0.0564
  936SOL     ow 3741   2.549   3.564   6.433 -0.2777  0.1804 -0.0239
  936SOL     hw 3742   2.606   3.635   6.404 -0.2892  0.8865  1.5268
  936SOL     hw 3743   2.481   3.608   6.485 -1.4793 -0.7745 -0.7303
  936SOL     vw 3744   2.548   3.579   6.436 -0.4379  0.1477  0.0875
  937SOL     ow 3745   5.370   0.724   3.405  0.2363 -0.0980  0.3335
  937SOL     hw 3746   5.418   0.778   3.468 -1.5232  0.5048  1.2358
  937SOL     hw 3747   5.422   0.644   3.397  2.2696  1.2020 -0.1080
  937SOL     vw 3748   5.383   0.720   3.412  0.2723  0.1530  0.3943
  938SOL     ow 3749   7.196   1.216   7.189  0.1956  0.1378 -0.0708
  938SOL     hw 3750   7.257   1.175   7.250  0.5788 -0.2365 -0.7012
  938SOL     hw 3751   7.207   1.168   7.107  0.6219  1.4607 -0.8215
  938SOL     vw 3752   7.206   1.204   7.186  0.3023  0.2630 -0.2530
  939SOL     ow 3753   2.296   4.783   2.200  0.4827 -0.3950  0.6786
  939SOL     hw 3754   2.205   4.779   2.170  0.6306 -0.0574  0.1694
  939SOL     hw 3755   2.292   4.830   2.283  0.1430 -0.7673  0.8754
  939SOL     vw 3756   2.284   4.789   2.207  0.4575 -0.3996  0.6373
  940SOL     ow 3757   7.018   3.049   3.552 -0.2859  0.2225 -0.3544
  940SOL     hw 3758   7.068   3.100   3.616 -0.6956  0.6588 -0.3837
  940SOL     hw 3759   7.034   2.958   3.577  1.1479  0.3097 -0.8174
  940SOL     vw 3760   7.027   3.043   3.563 -0.1509  0.2916 -0.4193
  941SOL     ow 3761   0.443   2.057   0.288  0.1674  0.2814  0.1271
  941SOL     hw 3762   0.500   2.115   0.340  1.1172 -0.6002  0.1034
  941SOL     hw 3763   0.474   1.969   0.308  0.0065 -0.1246 -1.2938
  941SOL     vw 3764   0.455   2.053   0.297  0.2715  0.1115 -0.0635
  942SOL     ow 3765   4.818   6.690   4.768 -0.0558 -0.5728  0.5638
  942SOL     hw 3766   4.889   6.637   4.732 -1.2882 -0.9773 -1.3874
  942SOL     hw 3767   4.769   6.631   4.824  0.6279 -0.5099  1.2486
  942SOL     vw 3768   4.821   6.675   4.771 -0.1283 -0.6177  0.3967
  943SOL     ow 3769   6.651   6.265   0.599 -0.5090 -0.6090 -0.3228
  943SOL     hw 3770   6.577   6.326   0.609 -0.5004 -0.4068 -1.4221
  943SOL     hw 3771   6.693   6.265   0.685 -0.4246  1.0485 -0.3317
  943SOL     vw 3772   6.646   6.273   0.612 -0.4964 -0.3636 -0.4690
  944SOL     ow 3773   3.444   4.654   2.019  0.4624  0.1662 -0.0263
  944SOL     hw 3774   3.489   4.639   2.102 -1.0067  0.3932  0.8422
  944SOL     hw 3775   3.444   4.749   2.008 -0.5645  0.2307  0.4375
  944SOL     vw 3776   3.450   4.664   2.029  0.1330  0.2046  0.1495
  945SOL     ow 3777   2.883   1.066   0.340  0.1289 -0.1177 -0.0375
  945SOL     hw 3778   2.854   0.981   0.373  4.1885 -1.4054  0.8938
  945SOL     hw 3779   2.875   1.125   0.415  0.1512 -0.4993  0.2697
  945SOL     vw 3780   2.878   1.063   0.354  0.6676 -0.3380  0.1259
  946SOL     ow 3781   5.437   1.789   2.080 -0.1396 -0.3297 -0.1136
  946SOL     hw 3782   5.443   1.872   2.031  2.8907  0.5471  1.4970
  946SOL     hw 3783   5.526   1.773   2.111 -0.5637 -4.3405 -0.4462
  946SOL     vw 3784   5.449   1.798   2.078  0.2043 -0.7432  0.0550
  947SOL     ow 3785   3.799   4.176   5.269 -0.3053  0.4252  0.4893
  947SOL     hw 3786   3.726   4.211   5.218 -0.1041  0.8240  0.4745
  947SOL     hw 3787   3.843   4.253   5.304  1.0994  0.2721 -0.8492
  947SOL     vw 3788   3.795   4.190   5.267 -0.0935  0.4573  0.3107
  948SOL     ow 3789   1.990   3.248   3.534 -0.0694 -0.1010  0.2678
  948SOL     hw 3790   2.050   3.312   3.495  0.9489  0.2876  2.2803
  948SOL     hw 3791   2.002   3.169   3.482 -2.0175  1.4826 -2.8465
  948SOL     vw 3792   2.000   3.246   3.522 -0.1920  0.1594  0.1223
  949SOL     ow 3793   0.053   5.499   1.789  0.2302  0.0482 -0.4453
  949SOL     hw 3794   0.018   5.412   1.769 -1.5103  0.7499 -0.6224
  949SOL     hw 3795   0.036   5.550   1.710  1.8136  0.4181 -0.5828
  949SOL     vw 3796   0.046   5.494   1.776  0.2096  0.1895 -0.4868
  950SOL     ow 3797   6.076   2.710   1.060  0.4889  0.4996 -0.2770
  950SOL     hw 3798   6.040   2.654   0.992  1.4622  0.0239 -0.4257
  950SOL     hw 3799   6.169   2.687   1.063  0.3108 -0.2002  1.8672
  950SOL     vw 3800   6.084   2.700   1.052  0.5941  0.3445 -0.0136
  951SOL     ow 3801   1.137   6.273   6.151 -0.0139  0.1778  0.2020
  951SOL     hw 3802   1.084   6.223   6.089 -1.4825  0.5832  1.0780
  951SOL     hw 3803   1.124   6.229   6.235 -0.0018  1.0390  0.6690
  951SOL     vw 3804   1.128   6.261   6.154 -0.2061  0.3450  0.3788
  952SOL     ow 3805   2.527   6.454   0.353 -0.1105  0.5167  0.1712
  952SOL     hw 3806   2.467   6.452   0.428 -1.6333  1.1745 -0.9862
  952SOL     hw 3807   2.472   6.477   0.279  1.3887 -0.0095 -1.1539
  952SOL     vw 3808   2.512   6.457   0.353 -0.1135  0.5343 -0.1564
  953SOL     ow 3809   5.218   3.968   1.441 -0.6140  0.1235 -0.3416
  953SOL     hw 3810   5.243   4.060   1.427  0.3452 -0.2070 -0.9454
  953SOL     hw 3811   5.125   3.964   1.418 -0.2518  0.6080 -2.0480
  953SOL     vw 3812   5.209   3.980   1.436 -0.4399  0.1438 -0.6464
  954SOL     ow 3813   5.206   4.496   7.135 -0.4557 -0.1675  0.3555
  954SOL     hw 3814   5.267   4.439   7.183  0.7357  1.6678  1.1576
  954SOL     hw 3815   5.248   4.582   7.138 -2.9773  1.1231  0.6627
  954SOL     vw 3816   5.220   4.500   7.141 -0.6316  0.2446  0.5019
  955SOL     ow 3817   0.727   2.573   0.567 -0.7296 -0.5360  0.5761
  955SOL     hw 3818   0.815   2.552   0.598 -1.3939 -0.6932  2.4926
  955SOL     hw 3819   0.677   2.588   0.647 -2.0692  1.1371 -0.5098
  955SOL     vw 3820   0.732   2.572   0.582 -0.9940 -0.3361  0.6857
  956SOL     ow 3821   4.915   6.132   4.514 -0.3728  0.1414  0.2245
  956SOL     hw 3822   4.866   6.181   4.580 -3.1507  0.5942 -1.9751
  956SOL     hw 3823   4.869   6.048   4.507  0.1339 -0.0749 -0.7694
  956SOL     vw 3824   4.902   6.128   4.521 -0.6726  0.1724 -0.1972
  957SOL     ow 3825   6.281   6.461   1.526 -0.0422 -0.3490 -0.6258
  957SOL     hw 3826   6.300   6.537   1.581  0.1965 -1.8357  1.4421
  957SOL     hw 3827   6.190   6.474   1.497 -0.6546 -0.1528  1.2576
  957SOL     vw 3828   6.271   6.473   1.529 -0.0916 -0.5190 -0.1045
  958SOL     ow 3829   1.350   4.567   0.641  0.0498  0.2978 -0.1300
  958SOL     hw 3830   1.259   4.595   0.657 -0.1436 -0.5370  0.2798
  958SOL     hw 3831   1.397   4.596   0.719  0.5154  2.2751 -1.0905
  958SOL     vw 3832   1.344   4.575   0.654  0.0857  0.4485 -0.2027
  959SOL     ow 3833   0.113   4.430   0.927 -0.4131  0.0657 -0.5429
  959SOL     hw 3834   0.164   4.453   0.849  0.4557 -0.0106 -0.0211
  959SOL     hw 3835   0.113   4.334   0.927 -0.5391  0.0667 -0.5334
  959SOL     vw 3836   0.120   4.420   0.916 -0.3151  0.0556 -0.4728
  960SOL     ow 3837   2.620   6.175   0.395  0.4115  0.3878 -0.7893
  960SOL     hw 3838   2.528   6.155   0.413 -0.0866  0.1997 -3.1683
  960SOL     hw 3839   2.668   6.099   0.429 -0.6449 -0.9646 -2.1434
  960SOL     vw 3840   2.614   6.162   0.402  0.2065  0.1843 -1.2818
  961SOL     ow 3841   3.476   6.903   3.481  0.0820 -0.6230 -0.0048
  961SOL     hw 3842   3.428   6.968   3.532  1.0844 -0.3753  0.6394
  961SOL     hw 3843   3.436   6.907   3.394 -2.3911 -1.8147  0.9649
  961SOL     vw 3844   3.464   6.912   3.476 -0.1121 -0.7477  0.2080
  962SOL     ow 3845   5.467   6.144   6.904  0.2371 -0.6661  0.0641
  962SOL     hw 3846   5.452   6.221   6.848  0.8224 -0.2836  0.4301
  962SOL     hw 3847   5.435   6.170   6.990  3.2239  0.3279  0.9844
  962SOL     vw 3848   5.461   6.158   6.908  0.7083 -0.4845  0.2337
  963SOL     ow 3849   0.788   1.364   1.530  0.1170  0.3396 -0.0727
  963SOL     hw 3850   0.783   1.457   1.551 -1.1080  0.3641 -0.3774
  963SOL     hw 3851   0.820   1.362   1.440 -1.5269  0.5655 -0.6880
  963SOL     vw 3852   0.792   1.376   1.521 -0.2615  0.3726 -0.1941
  964SOL     ow 3853   4.405   7.385   4.274  0.1991 -0.0533  0.0178
  964SOL     hw 3854   4.359   7.318   4.326 -0.8090  0.5973  0.0061
  964SOL     hw 3855   4.379   7.468   4.315 -0.1086  0.4365 -1.1410
  964SOL     vw 3856   4.395   7.387   4.286  0.0255  0.0973 -0.1364
  965SOL     ow 3857   5.956   5.118   5.776 -0.0846  0.5818  0.1383
  965SOL     hw 3858   5.952   5.210   5.749  0.4988 -0.3267 -3.6167
  965SOL     hw 3859   6.033   5.113   5.832  2.7522  1.7390 -3.2857
  965SOL     vw 3860   5.966   5.130   5.780  0.3667  0.6149 -0.8090
  966SOL     ow 3861   5.063   4.252   2.475 -0.3389 -0.5755 -0.5325
  966SOL     hw 3862   5.051   4.257   2.380 -2.2482  2.7077 -0.2871
  966SOL     hw 3863   4.981   4.286   2.512  1.1319  0.3608  2.2139
  966SOL     vw 3864   5.051   4.257   2.468 -0.3967 -0.0186 -0.1378
  967SOL     ow 3865   6.300   3.795   5.726 -0.2968 -0.6758  0.4226
  967SOL     hw 3866   6.245   3.872   5.744 -1.6711 -1.4141 -0.4407
  967SOL     hw 3867   6.389   3.830   5.721 -0.9537  0.9821 -0.6046
  967SOL     vw 3868   6.304   3.810   5.728 -0.5648 -0.5546  0.1731
  968SOL     ow 3869   6.227   3.652   1.051 -0.0750 -0.1040 -0.2728
  968SOL     hw 3870   6.285   3.600   1.106 -1.1564 -0.9749  0.0866
  968SOL     hw 3871   6.139   3.617   1.069 -0.6479  0.7779 -1.2323
  968SOL     vw 3872   6.223   3.641   1.060 -0.2933 -0.1025 -0.3519
  969SOL     ow 3873   2.739   5.497   6.801  0.9390  0.1211  0.3384
  969SOL     hw 3874   2.679   5.572   6.797  1.7066  1.0507  3.4525
  969SOL     hw 3875   2.817   5.532   6.844  1.7271 -2.2495  0.9439
  969SOL     vw 3876   2.741   5.512   6.806  1.1443 -0.0691  0.8290
  970SOL     ow 3877   0.192   2.613   5.153  0.6675  0.2151 -0.0375
  970SOL     hw 3878   0.187   2.657   5.238  0.1901 -0.1898  0.1461
  970SOL     hw 3879   0.148   2.672   5.092  1.6664  0.8608 -0.1613
  970SOL     vw 3880   0.186   2.626   5.156  0.7363  0.2469 -0.0293
  971SOL     ow 3881   6.050   0.407   1.878  0.3707  0.3312 -0.0688
  971SOL     hw 3882   6.007   0.373   1.800  0.9564 -2.9626  0.8772
  971SOL     hw 3883   5.981   0.410   1.944  0.2947  1.2143 -0.1775
  971SOL     vw 3884   6.035   0.403   1.877  0.4380  0.0131  0.0417
  972SOL     ow 3885   5.888   2.881   6.028  0.8862 -0.0305  0.3379
  972SOL     hw 3886   5.808   2.934   6.026  0.2144 -1.0487 -0.1675
  972SOL     hw 3887   5.953   2.935   5.983 -0.1909 -0.2481 -1.5719
  972SOL     vw 3888   5.886   2.895   6.022  0.6554 -0.1935  0.0193
  973SOL     ow 3889   4.504   5.564   5.067  0.3552  0.0435 -0.2145
  973SOL     hw 3890   4.415   5.532   5.054 -0.5403  2.4845 -0.6530
  973SOL     hw 3891   4.543   5.562   4.979  1.0974 -1.8965  0.1239
  973SOL     vw 3892   4.497   5.560   5.054  0.3347  0.1094 -0.2277
  974SOL     ow 3893   7.283   6.097   7.052 -0.7146 -0.1522 -0.3299
  974SOL     hw 3894   7.253   6.166   6.993 -0.1031  1.7681  1.4707
  974SOL     hw 3895   7.271   6.016   7.003 -1.3365  1.2318 -2.5965
  974SOL     vw 3896   7.278   6.095   7.038 -0.7162  0.2837 -0.3912
  975SOL     ow 3897   3.306   4.611   3.556  0.1007 -0.0145 -0.2854
  975SOL     hw 3898   3.343   4.522   3.555 -2.6837 -1.3037  0.4881
  975SOL     hw 3899   3.308   4.638   3.465 -0.5793 -1.6314 -0.8228
  975SOL     vw 3900   3.311   4.603   3.544 -0.3563 -0.3979 -0.2543
  976SOL     ow 3901   7.026   2.612   1.655 -0.3874 -0.8766 -0.4796
  976SOL     hw 3902   6.980   2.681   1.608  0.2397 -0.5875 -0.6861
  976SOL     hw 3903   7.024   2.639   1.747  0.3657 -0.2727 -0.6296
  976SOL     vw 3904   7.020   2.624   1.661 -0.2053 -0.7589 -0.5266
  977SOL     ow 3905   2.104   2.896   2.729 -0.8084 -0.2176 -0.0183
  977SOL     hw 3906   2.026   2.841   2.727 -0.7712 -0.2763  0.1640
  977SOL     hw 3907   2.077   2.974   2.777 -0.4051 -0.7733  1.1436
  977SOL     vw 3908   2.090   2.899   2.735 -0.7502 -0.2986  0.1590
  978SOL     ow 3909   3.946   0.554   5.778  0.2519 -0.0965 -0.2826
  978SOL     hw 3910   3.997   0.564   5.858 -0.9635 -1.1381  0.6702
  978SOL     hw 3911   3.858   0.529   5.808 -0.0542 -1.2404 -1.9432
  978SOL     vw 3912   3.941   0.552   5.792  0.0511 -0.3848 -0.3762
  979SOL     ow 3913   6.787   6.765   6.568  0.0726  0.2661 -0.7417
  979SOL     hw 3914   6.751   6.768   6.479 -2.4253 -1.0548  0.1321
  979SOL     hw 3915   6.716   6.798   6.624  2.0882  2.5152  0.7196
  979SOL     vw 3916   6.773   6.770   6.564  0.0088  0.3886 -0.4337
  980SOL     ow 3917   4.281   3.388   5.968  0.8033 -0.2912 -0.3441
  980SOL     hw 3918   4.374   3.385   5.990  0.8437 -1.0070 -0.5528
  980SOL     hw 3919   4.279   3.366   5.875  0.4241 -0.3331 -0.3257
  980SOL     vw 3920   4.293   3.384   5.958  0.7586 -0.3911 -0.3693
  981SOL     ow 3921   4.380   0.717   4.488 -0.0887  0.1994 -0.0761
  981SOL     hw 3922   4.358   0.638   4.438 -0.9611 -0.3454  1.1324
  981SOL     hw 3923   4.394   0.687   4.577 -0.0829  1.3677  0.3393
  981SOL     vw 3924   4.379   0.703   4.493 -0.2029  0.2817  0.1383
  982SOL     ow 3925   3.167   4.129   5.478  0.2664  0.4024  0.8605
  982SOL     hw 3926   3.213   4.066   5.534  0.7180  0.9432  1.1103
  982SOL     hw 3927   3.211   4.123   5.394  0.5226  0.6112  0.9770
  982SOL     vw 3928   3.179   4.120   5.475  0.3598  0.5014  0.9089
  983SOL     ow 3929   0.936   6.860   6.170  0.0917 -0.0135  0.4525
  983SOL     hw 3930   0.916   6.786   6.113  3.3123 -0.8339  0.1997
  983SOL     hw 3931   0.918   6.828   6.258  1.0137 -0.9793  0.3084
  983SOL     vw 3932   0.931   6.846   6.174  0.6382 -0.2491  0.4001
  984SOL     ow 3933   1.450   4.876   4.637  0.3234 -0.2185 -0.6214
  984SOL     hw 3934   1.399   4.920   4.705  2.3427 -1.1659  1.6829
  984SOL     hw 3935   1.397   4.799   4.614 -1.2593  1.0943 -1.6008
  984SOL     vw 3936   1.436   4.871   4.643  0.3811 -0.1705 -0.4468
  985SOL     ow 3937   4.381   0.664   2.252  0.7298  0.0928 -0.4232
  985SOL     hw 3938   4.338   0.585   2.285  1.8893  0.4062  2.0615
  985SOL     hw 3939   4.389   0.721   2.328  0.5173  2.3858 -2.0147
  985SOL     vw 3940   4.377   0.661   2.266  0.8547  0.4367 -0.3054
  986SOL     ow 3941   2.407   4.528   6.197 -1.1714 -0.2228  0.2006
  986SOL     hw 3942   2.438   4.610   6.160  1.9947 -1.2831  0.2071
  986SOL     hw 3943   2.382   4.476   6.120  0.2929 -0.5048 -0.1163
  986SOL     vw 3944   2.407   4.532   6.182 -0.5605 -0.3998  0.1597
  987SOL     ow 3945   0.425   4.111   3.683  0.1900 -0.5532 -0.1236
  987SOL     hw 3946   0.499   4.066   3.643 -0.7514 -1.7388 -0.6165
  987SOL     hw 3947   0.380   4.043   3.733 -0.5796  0.1318  0.1365
  987SOL     vw 3948   0.429   4.096   3.684 -0.0357 -0.6192 -0.1543
  988SOL     ow 3949   3.443   1.523   6.189  0.3642  0.3323 -0.1800
  988SOL     hw 3950   3.351   1.548   6.193 -0.0164 -0.5846 -2.0232
  988SOL     hw 3951   3.480   1.580   6.121  1.2288  0.8049  0.6516
  988SOL     vw 3952   3.436   1.534   6.180  0.4280  0.2736 -0.3133
  989SOL     ow 3953   2.210   3.673   5.498  0.5106  0.4569 -0.1354
  989SOL     hw 3954   2.218   3.652   5.591  1.1069 -0.5399 -0.3942
  989SOL     hw 3955   2.192   3.767   5.496  2.6831  0.9751  0.9383
  989SOL     vw 3956   2.209   3.682   5.510  0.8758  0.3935 -0.0279
  990SOL     ow 3957   5.702   1.119   1.345 -0.3656  0.4307 -0.7452
  990SOL     hw 3958   5.638   1.137   1.276  0.5298  2.2466 -1.1583
  990SOL     hw 3959   5.706   1.200   1.396  1.3760  0.2508 -0.5469
  990SOL     vw 3960   5.694   1.132   1.343 -0.0174  0.6465 -0.7735
  991SOL     ow 3961   3.627   3.178   4.147 -0.0088  0.1239 -0.0818
  991SOL     hw 3962   3.584   3.174   4.233 -0.2978  1.3386 -0.1585
  991SOL     hw 3963   3.708   3.129   4.159 -0.5475 -0.6409  0.5756
  991SOL     vw 3964   3.632   3.171   4.160 -0.1180  0.1835 -0.0052
  992SOL     ow 3965   3.060   6.179   6.577 -0.2534 -0.1703  0.2064
  992SOL     hw 3966   3.044   6.151   6.486 -0.7728  0.0446  0.2250
  992SOL     hw 3967   2.997   6.250   6.591 -0.1628 -0.1895  0.7293
  992SOL     vw 3968   3.050   6.185   6.567 -0.3101 -0.1442  0.2778
  993SOL     ow 3969   2.840   6.914   3.854 -0.4862  0.6866 -0.3465
  993SOL     hw 3970   2.829   6.913   3.949 -1.3848  2.8157 -0.3559
  993SOL     hw 3971   2.830   7.007   3.830 -0.4250  0.1836 -2.5312
  993SOL     vw 3972   2.837   6.926   3.864 -0.5968  0.9010 -0.6360
  994SOL     ow 3973   7.005   7.362   2.123  0.0102 -0.2144  0.3945
  994SOL     hw 3974   7.079   7.407   2.163 -1.1530  1.9107  0.3079
  994SOL     hw 3975   6.952   7.332   2.197 -0.1861  0.2997  0.4668
  994SOL     vw 3976   7.008   7.364   2.138 -0.1693  0.1340  0.3927
  995SOL     ow 3977   4.423   0.005   6.377 -0.1418 -0.1374 -0.1272
  995SOL     hw 3978   4.455  -0.024   6.462  1.3254  3.1391  0.5786
  995SOL     hw 3979   4.328  -0.006   6.382  0.0316 -1.2948  1.3527
  995SOL     vw 3980   4.414  -0.000   6.389  0.0749  0.1421  0.1609
  996SOL     ow 3981   6.616   2.597   5.170 -0.1152 -0.0291 -0.4622
  996SOL     hw 3982   6.574   2.678   5.199 -0.9024 -0.9403  1.0518
  996SOL     hw 3983   6.543   2.536   5.157  0.4185 -0.3693 -2.1331
  996SOL     vw 3984   6.601   2.600   5.172 -0.1488 -0.1942 -0.4826
  997SOL     ow 3985   2.560   1.877   5.407  0.1158 -0.0769 -0.4082
  997SOL     hw 3986   2.557   1.785   5.433  1.4081  0.2271  0.8782
  997SOL     hw 3987   2.468   1.903   5.404 -0.1901 -0.7615  1.6158
  997SOL     vw 3988   2.547   1.868   5.410  0.2459 -0.1271  0.0286
  998SOL     ow 3989   1.668   7.215   6.795 -0.0220  0.4628  1.0505
  998SOL     hw 3990   1.578   7.233   6.765 -0.0627  1.2207  1.5928
  998SOL     hw 3991   1.658   7.147   6.861  0.0382 -1.0093 -0.3887
  998SOL     vw 3992   1.655   7.209   6.800 -0.0194  0.3686  0.9322
  999SOL     ow 3993   0.044   4.916   3.159  0.3099  0.4186  0.4329
  999SOL     hw 3994  -0.026   4.885   3.216  0.7178  0.5362  1.0071
  999SOL     hw 3995   0.124   4.885   3.200  0.5584 -0.5868 -0.7541
  999SOL     vw 3996   0.045   4.908   3.172  0.3965  0.3016  0.3520
 1000SOL     ow 3997   0.893   3.297   4.445  0.2183  0.4500  0.5442
 1000SOL     hw 3998   0.889   3.240   4.522  1.5104 -1.0611 -0.4452
 1000SOL     hw 3999   0.984   3.289   4.415 -0.7569 -0.8314 -2.4398
 1000SOL     vw 4000   0.905   3.288   4.451  0.2602  0.0815  0.0200
 1001SOL     ow 4001   2.422   6.306   4.749  0.5865 -0.6275  0.1307
 1001SOL     hw 4002   2.444   6.216   4.724 -0.4614 -1.2651  1.3835
 1001SOL     hw 4003   2.393   6.299   4.840  2.7386  1.3325  1.0660
 1001SOL     vw 4004   2.421   6.293   4.758  0.7321 -0.4530  0.4194
 1002SOL     ow 4005   5.920   6.337   3.380 -0.2505  0.0111  0.2681
 1002SOL     hw 4006   6.001   6.349   3.430  0.4814 -1.9734 -0.3454
 1002SOL     hw 4007   5.856   6.306   3.445  0.4317 -1.6162  0.2231
 1002SOL     vw 4008   5.922   6.334   3.395 -0.0639 -0.4654  0.1813
 1003SOL     ow 4009   1.598   5.050   6.402 -0.1836 -0.1756 -0.1908
 1003SOL     hw 4010   1.678   5.097   6.380 -0.7764  0.0457 -2.0594
 1003SOL     hw 4011   1.620   5.000   6.480  1.3163  1.0153  0.1864
 1003SOL     vw 4012   1.611   5.050   6.409 -0.0640  0.0107 -0.3874
 1004SOL     ow 4013   1.840   1.704   0.850 -0.6992 -0.2287 -0.1503
 1004SOL     hw 4014   1.817   1.640   0.782 -0.6825 -0.6847  0.2625
 1004SOL     hw 4015   1.900   1.656   0.908  0.9242  0.7749 -0.9331
 1004SOL     vw 4016   1.845   1.689   0.849 -0.4829 -0.1565 -0.1991
 1005SOL     ow 4017   1.006   2.073   0.474  0.4181  0.6928  0.0627
 1005SOL     hw 4018   1.084   2.117   0.440  0.4600  0.6745  0.1328
 1005SOL     hw 4019   0.945   2.072   0.401  0.7294  0.1207 -0.1918
 1005SOL     vw 4020   1.009   2.079   0.460  0.4647  0.6148  0.0383
 1006SOL     ow 4021   4.407   2.470   1.716 -0.3133  0.4099 -0.2263
 1006SOL     hw 4022   4.373   2.407   1.778 -0.1751  1.8144  1.3584
 1006SOL     hw 4023   4.341   2.540   1.713  0.8129  1.5521  0.3227
 1006SOL     vw 4024   4.394   2.471   1.724 -0.1464  0.7459  0.0551
 1007SOL     ow 4025   2.784   0.510   2.588  0.0521 -0.0128 -0.3969
 1007SOL     hw 4026   2.797   0.600   2.557  0.0997  0.6874  1.5420
 1007SOL     hw 4027   2.733   0.469   2.519 -0.3504  1.6356 -1.1400
 1007SOL     vw 4028   2.779   0.517   2.575  0.0054  0.2970 -0.2394
 1008SOL     ow 4029   1.835   5.466   2.993 -0.2323 -0.7618  0.4500
 1008SOL     hw 4030   1.764   5.454   2.931  0.0142 -0.2328  0.0587
 1008SOL     hw 4031   1.801   5.528   3.058  0.3186  0.5881 -0.4969
 1008SOL     vw 4032   1.822   5.473   2.994 -0.1271 -0.5138  0.2733
 1009SOL     ow 4033   3.561   1.449   2.392  0.3027  0.3001 -0.5586
 1009SOL     hw 4034   3.642   1.483   2.429  0.5210 -0.8198  0.0140
 1009SOL     hw 4035   3.589   1.380   2.331 -0.2290 -0.3088 -0.1218
 1009SOL     vw 4036   3.575   1.445   2.389  0.2614  0.0720 -0.4255
 1010SOL     ow 4037   4.515   4.448   6.393  0.4064  0.4449  0.0144
 1010SOL     hw 4038   4.577   4.512   6.429 -0.3977 -0.0027  2.4064
 1010SOL     hw 4039   4.569   4.387   6.343  1.6608  1.0955  0.5299
 1010SOL     vw 4040   4.530   4.448   6.391  0.4659  0.4718  0.3984
 1011SOL     ow 4041   3.078   0.305   1.221  0.2457  0.3704  0.1983
 1011SOL     hw 4042   3.048   0.341   1.137  0.9115 -0.6797 -0.5082
 1011SOL     hw 4043   3.090   0.382   1.276  0.5780  1.1587 -0.9290
 1011SOL     vw 4044   3.076   0.320   1.217  0.3773  0.3359 -0.0436
 1012SOL     ow 4045   2.225   1.325   4.241  0.2095  0.0591  0.3797
 1012SOL     hw 4046   2.290   1.354   4.177 -0.6290  0.4956 -0.2894
 1012SOL     hw 4047   2.251   1.235   4.263  1.6459  0.5781  0.9269
 1012SOL     vw 4048   2.237   1.317   4.236  0.2885  0.1852  0.3638
 1013SOL     ow 4049   1.398   5.117   7.030  0.3854 -0.4214 -0.0507
 1013SOL     hw 4050   1.460   5.047   7.048  1.0914 -0.1133 -1.2131
 1013SOL     hw 4051   1.329   5.075   6.978 -0.8489 -0.9448  1.8698
 1013SOL     vw 4052   1.397   5.102   7.026  0.3157 -0.4499  0.0491
 1014SOL     ow 4053   1.401   2.397   0.681 -0.4803  0.5506  0.9714
 1014SOL     hw 4054   1.394   2.492   0.683  0.7463  0.6697  0.8611
 1014SOL     hw 4055   1.493   2.380   0.701 -0.2244 -0.5209 -0.9062
 1014SOL     vw 4056   1.412   2.407   0.684 -0.2847  0.4249  0.7091
 1015SOL     ow 4057   0.415   7.333   3.470  0.4965  0.2961  0.2739
 1015SOL     hw 4058   0.451   7.420   3.456 -0.3459  0.4452 -1.0876
 1015SOL     hw 4059   0.475   7.274   3.424 -0.8697  0.5420 -1.9705
 1015SOL     vw 4060   0.428   7.337   3.462  0.2051  0.3481 -0.2018
 1016SOL     ow 4061   5.150   5.709   0.932  0.1320 -0.1511 -0.0325
 1016SOL     hw 4062   5.203   5.789   0.931  0.3010 -0.2684 -0.5011
 1016SOL     hw 4063   5.143   5.684   0.840  0.3323 -0.8451  0.1386
 1016SOL     vw 4064   5.156   5.717   0.920  0.1807 -0.2582 -0.0717
 1017SOL     ow 4065   4.833   3.436   5.789  0.3264 -0.1552  0.6682
 1017SOL     hw 4066   4.760   3.441   5.851 -0.8343 -0.9735 -0.6018
 1017SOL     hw 4067   4.908   3.410   5.844 -0.5788 -0.4816  1.7967
 1017SOL     vw 4068   4.833   3.434   5.805  0.0541 -0.3061  0.6495
 1018SOL     ow 4069   1.963   1.972   0.856 -0.3155  0.8196 -0.2870
 1018SOL     hw 4070   2.040   1.918   0.843 -1.7602 -1.7682  1.0912
 1018SOL     hw 4071   1.994   2.048   0.905  1.5565  0.6217 -1.1001
 1018SOL     vw 4072   1.977   1.975   0.861 -0.2592  0.4521 -0.2125
 1019SOL     ow 4073   5.605   5.619   3.554 -0.3448 -0.2990  0.3390
 1019SOL     hw 4074   5.695   5.593   3.573  0.6126  1.2398 -1.8275
 1019SOL     hw 4075   5.611   5.706   3.517 -2.8831  0.3800  1.2828
 1019SOL     vw 4076   5.618   5.627   3.552 -0.5531 -0.0064  0.1775
 1020SOL     ow 4077   1.788   5.178   3.284  0.4761  0.2583 -0.3804
 1020SOL     hw 4078   1.844   5.202   3.358  1.2894 -2.6320  0.0730
 1020SOL     hw 4079   1.705   5.222   3.301  1.9891  3.3077 -0.1848
 1020SOL     vw 4080   1.785   5.187   3.296  0.7830  0.2794 -0.2948
 1021SOL     ow 4081   4.795   2.786   2.857 -0.1884 -0.2916  0.1537
 1021SOL     hw 4082   4.721   2.841   2.884  1.3075  2.6916 -1.4064
 1021SOL     hw 4083   4.796   2.793   2.761  0.3650 -2.7671 -0.0792
 1021SOL     vw 4084   4.785   2.794   2.848  0.0818 -0.2247 -0.0829
 1022SOL     ow 4085   0.330   2.538   4.657  0.5955  0.1878 -0.1175
 1022SOL     hw 4086   0.289   2.499   4.579  1.8710  0.2246 -0.8379
 1022SOL     hw 4087   0.422   2.550   4.632  0.7603  1.3837  0.9556
 1022SOL     vw 4088   0.337   2.535   4.643  0.7855  0.3505 -0.0713
 1023SOL     ow 4089   6.759   3.609   3.351 -0.6407 -0.4272 -0.0803
 1023SOL     hw 4090   6.690   3.557   3.391 -0.6195 -1.4436 -1.2831
 1023SOL     hw 4091   6.748   3.595   3.257  0.1428  0.7650 -0.3736
 1023SOL     vw 4092   6.749   3.600   3.344 -0.5345 -0.4039 -0.2779
 1024SOL     ow 4093   4.014   5.417   2.194 -0.1109  0.7186 -0.4584
 1024SOL     hw 4094   3.959   5.372   2.258 -0.3675 -0.0696 -1.2075
 1024SOL     hw 4095   4.072   5.348   2.161  0.3581  1.2292 -0.7144
 1024SOL     vw 4096   4.014   5.402   2.198 -0.0827  0.6821 -0.5910
 1025SOL     ow 4097   5.144   0.791   4.963 -0.5906  0.1803  0.1895
 1025SOL     hw 4098   5.066   0.745   4.996 -1.7387  1.6074 -0.3998
 1025SOL     hw 4099   5.171   0.848   5.035 -0.4665  0.1194  0.1904
 1025SOL     vw 4100   5.137   0.793   4.977 -0.7255  0.3605  0.1121
 1026SOL     ow 4101   0.413   5.135   3.002 -0.3436  0.0381  0.0406
 1026SOL     hw 4102   0.506   5.147   2.983 -0.5973  0.3961 -1.0558
 1026SOL     hw 4103   0.411   5.067   3.069  0.6639 -0.7121 -0.6571
 1026SOL     vw 4104   0.425   5.127   3.009 -0.2441 -0.0136 -0.1960
 1027SOL     ow 4105   2.310   5.321   2.720 -0.3612  0.6246 -0.1498
 1027SOL     hw 4106   2.341   5.348   2.634  0.1860 -0.6181 -0.3611
 1027SOL     hw 4107   2.253   5.246   2.703  1.6628 -1.2092  0.6922
 1027SOL     vw 4108   2.307   5.314   2.706 -0.0221  0.2186 -0.0666
 1028SOL     ow 4109   6.991   4.655   2.423  0.3576  0.4635  0.6598
 1028SOL     hw 4110   7.010   4.689   2.336  1.6737 -1.4384  0.1207
 1028SOL     hw 4111   6.900   4.625   2.419  0.8165 -0.8842 -0.5610
 1028SOL     vw 4112   6.982   4.655   2.411  0.5915  0.0348  0.4276
 1029SOL     ow 4113   1.366   7.406   4.728 -0.7687  0.5816 -0.0598
 1029SOL     hw 4114   1.290   7.368   4.683  0.4329 -1.5305 -0.4242
 1029SOL     hw 4115   1.372   7.358   4.810  0.5416  0.2515 -0.3254
 1029SOL     vw 4116   1.357   7.395   4.733 -0.4373  0.2594 -0.1431
 1030SOL     ow 4117   2.639   3.745   2.822 -0.2982 -0.0736 -0.4902
 1030SOL     hw 4118   2.728   3.715   2.802  0.8057  0.5611  2.8232
 1030SOL     hw 4119   2.651   3.834   2.857 -2.2122 -0.0416  0.1941
 1030SOL     vw 4120   2.652   3.753   2.824 -0.4051  0.0144  0.0373
 1031SOL     ow 4121   0.283   4.538   1.114 -0.0904 -0.3968  0.7196
 1031SOL     hw 4122   0.239   4.495   1.041 -0.1926  1.1788 -0.2016
 1031SOL     hw 4123   0.218   4.540   1.184 -1.4529  1.5403 -0.4884
 1031SOL     vw 4124   0.268   4.533   1.114 -0.2837  0.0668  0.4387
 1032SOL     ow 4125   0.746   5.130   1.322  0.4250 -0.2337  0.0704
 1032SOL     hw 4126   0.704   5.046   1.336 -1.4515  0.5563 -0.4682
 1032SOL     hw 4127   0.773   5.128   1.230 -1.9980  0.6434 -0.7632
 1032SOL     vw 4128   0.744   5.119   1.312 -0.1423 -0.0138 -0.1107
 1033SOL     ow 4129   6.700   6.058   3.547  0.1648 -0.3403  0.0953
 1033SOL     hw 4130   6.730   6.124   3.609  1.5352  0.4018 -1.2805
 1033SOL     hw 4131   6.669   5.986   3.602  2.3649 -0.2017  1.6867
 1033SOL     vw 4132   6.700   6.057   3.562  0.6359 -0.2241  0.1239
 1034SOL     ow 4133   6.407   1.697   2.769  0.0550  0.6370 -0.1475
 1034SOL     hw 4134   6.473   1.737   2.826  0.1734 -0.0620  0.2235
 1034SOL     hw 4135   6.402   1.606   2.799  0.0631  0.2760 -1.2036
 1034SOL     vw 4136   6.415   1.690   2.781  0.0718  0.4972 -0.2379
 1035SOL     ow 4137   2.436   2.399   4.613 -0.1336 -0.1686 -0.1800
 1035SOL     hw 4138   2.422   2.392   4.708 -1.5956 -2.0773 -0.4562
 1035SOL     hw 4139   2.482   2.318   4.590  1.8866  1.1092 -0.9021
 1035SOL     vw 4140   2.440   2.387   4.623 -0.0600 -0.2519 -0.3116
 1036SOL     ow 4141   6.321   6.744   5.136  1.0713  0.0205 -0.4174
 1036SOL     hw 4142   6.240   6.743   5.187  1.1943 -1.0176 -0.2290
 1036SOL     hw 4143   6.352   6.834   5.143 -0.0425  0.4314 -0.4609
 1036SOL     vw 4144   6.314   6.756   5.143  0.9408 -0.0622 -0.3984
 1037SOL     ow 4145   7.204   6.696   1.389 -0.1761  0.2911 -0.1923
 1037SOL     hw 4146   7.293   6.693   1.353 -0.3598 -0.7426 -0.5925
 1037SOL     hw 4147   7.163   6.615   1.358 -1.0467  0.4391  0.5414
 1037SOL     vw 4148   7.210   6.685   1.380 -0.3152  0.1745 -0.1484
 1038SOL     ow 4149   2.456   0.428   3.849 -0.3205 -1.0787 -0.2288
 1038SOL     hw 4150   2.504   0.457   3.771 -1.8441  1.2173 -0.4136
 1038SOL     hw 4151   2.499   0.475   3.921 -1.6980  0.3715 -0.3016
 1038SOL     vw 4152   2.468   0.438   3.848 -0.7035 -0.5844 -0.2629
 1039SOL     ow 4153   2.739   6.398   0.749 -0.5124 -0.8720 -0.2823
 1039SOL     hw 4154   2.671   6.341   0.784 -0.3423 -0.3341  0.9804
 1039SOL     hw 4155   2.818   6.373   0.798  0.0460 -0.9865 -1.2143
 1039SOL     vw 4156   2.741   6.387   0.760 -0.4163 -0.8163 -0.2387
 1040SOL     ow 4157   6.749   5.226   2.251  0.1348 -0.5580 -0.1149
 1040SOL     hw 4158   6.790   5.168   2.316 -1.4083 -1.5404  0.0535
 1040SOL     hw 4159   6.671   5.177   2.223  0.0506  0.4560 -1.7089
 1040SOL     vw 4160   6.744   5.212   2.256 -0.0799 -0.5541 -0.3029
 1041SOL     ow 4161   2.154   1.327   1.013 -0.5313 -0.2806 -0.2655
 1041SOL     hw 4162   2.074   1.379   1.005 -0.3103 -0.1064 -1.5760
 1041SOL     hw 4163   2.123   1.238   1.028 -0.9194  0.1115  1.4900
 1041SOL     vw 4164   2.139   1.322   1.014 -0.5535 -0.2059 -0.2068
 1042SOL     ow 4165   1.923   5.751   0.726 -0.1005 -0.2693 -0.4395
 1042SOL     hw 4166   1.875   5.831   0.706 -0.7360 -0.7304 -0.7767
 1042SOL     hw 4167   1.940   5.756   0.820 -0.2778  0.1892 -0.4314
 1042SOL     vw 4168   1.919   5.762   0.736 -0.2077 -0.2694 -0.4829
 1043SOL     ow 4169   6.140   3.753   4.814  0.1597 -1.4170 -0.3080
 1043SOL     hw 4170   6.050   3.729   4.834 -1.1878  3.4373  0.8374
 1043SOL     hw 4171   6.143   3.761   4.719 -0.7704 -1.2332 -0.3320
 1043SOL     vw 4172   6.129   3.751   4.804 -0.1407 -0.7522 -0.1600
 1044SOL     ow 4173   6.113   6.218   1.307 -0.3327 -0.2591 -0.5755
 1044SOL     hw 4174   6.168   6.144   1.334  0.1313 -1.2899 -3.9117
 1044SOL     hw 4175   6.030   6.204   1.354  0.2448 -2.0539  0.0124
 1044SOL     vw 4176   6.109   6.206   1.317 -0.1953 -0.6318 -0.9381
 1045SOL     ow 4177   5.004   2.167   1.670 -0.6334  0.4679  0.9030
 1045SOL     hw 4178   5.048   2.093   1.711 -1.6228 -0.6475  0.0137
 1045SOL     hw 4179   5.075   2.220   1.633  0.0151 -1.0800 -0.1643
 1045SOL     vw 4180   5.019   2.164   1.671 -0.6785  0.1165  0.6448
 1046SOL     ow 4181   1.877   5.791   3.574 -0.2651 -0.1038  0.0929
 1046SOL     hw 4182   1.881   5.869   3.631  0.5571 -0.7247  0.9287
 1046SOL     hw 4183   1.894   5.718   3.634  0.0738 -0.8232 -0.8678
 1046SOL     vw 4184   1.880   5.792   3.590 -0.1119 -0.2806  0.0763
 1047SOL     ow 4185   3.092   2.547   0.498 -0.2028 -0.3516  0.2034
 1047SOL     hw 4186   3.058   2.635   0.511  3.0744  1.2783 -1.0025
 1047SOL     hw 4187   3.030   2.490   0.544 -2.8833  2.4385  0.3904
 1047SOL     vw 4188   3.079   2.551   0.506 -0.1241  0.2315  0.0690
 1048SOL     ow 4189   5.780   2.073   0.400  0.1095 -0.5160  0.1404
 1048SOL     hw 4190   5.847   2.090   0.466 -0.9489 -1.2462  1.4721
 1048SOL     hw 4191   5.805   1.988   0.362  0.4023 -0.3774  0.0210
 1048SOL     vw 4192   5.792   2.064   0.404  0.0086 -0.5939  0.3003
 1049SOL     ow 4193   5.084   3.604   0.284 -0.1519  0.0853 -0.1379
 1049SOL     hw 4194   5.167   3.650   0.270 -0.2078  0.1309 -0.3309
 1049SOL     hw 4195   5.107   3.526   0.334  0.1526 -0.3897 -0.9904
 1049SOL     vw 4196   5.098   3.600   0.289 -0.1190  0.0286 -0.2759
 1050SOL     ow 4197   0.068   3.043   6.446  0.1130  0.0270 -0.3157
 1050SOL     hw 4198  -0.019   3.053   6.485  0.3050  0.9961 -0.1053
 1050SOL     hw 4199   0.063   3.094   6.365  0.5652  0.3098 -0.1669
 1050SOL     vw 4200   0.056   3.051   6.440  0.1980  0.1920 -0.2685
 1051SOL     ow 4201   2.322   6.583   0.744 -0.4180 -0.0710 -0.4269
 1051SOL     hw 4202   2.234   6.608   0.774  0.0164 -0.1543  0.9993
 1051SOL     hw 4203   2.333   6.628   0.661 -1.0457  1.5877  0.3434
 1051SOL     vw 4204   2.311   6.592   0.737 -0.4436  0.1369 -0.1371
 1052SOL     ow 4205   4.942   2.797   3.874 -0.0285 -0.3545 -0.4048
 1052SOL     hw 4206   5.020   2.852   3.858 -0.1479  0.0873  0.4539
 1052SOL     hw 4207   4.947   2.777   3.967 -1.0598 -0.1413 -0.2962
 1052SOL     vw 4208   4.953   2.802   3.884 -0.1800 -0.2681 -0.2773
 1053SOL     ow 4209   5.108   6.933   0.015  0.0496 -0.1463  0.0135
 1053SOL     hw 4210   5.127   6.971  -0.070  1.2963  0.4225  0.5154
 1053SOL     hw 4211   5.147   6.846   0.012  2.6163  0.8541  0.8836
 1053SOL     vw 4212   5.116   6.927   0.004  0.5527  0.0608  0.1945
 1054SOL     ow 4213   3.488   0.965   7.007 -0.0568  0.4512  0.0176
 1054SOL     hw 4214   3.435   1.004   6.937  0.7604  0.2518 -0.7280
 1054SOL     hw 4215   3.529   0.889   6.966 -0.6748 -0.5072  1.1171
 1054SOL     vw 4216   3.486   0.961   6.992 -0.0304  0.2984  0.0644
 1055SOL     ow 4217   2.078   6.059   5.093  0.2407 -0.8783  0.9464
 1055SOL     hw 4218   2.067   6.120   5.020  1.3127 -0.7875  0.8342
 1055SOL     hw 4219   2.171   6.068   5.117 -0.2936 -0.2923  2.8917
 1055SOL     vw 4220   2.089   6.068   5.086  0.3115 -0.7892  1.1883
 1056SOL     ow 4221   7.125   0.808   1.695  0.5185 -0.6593 -0.3896
 1056SOL     hw 4222   7.089   0.724   1.667 -0.3724 -0.1303 -0.8938
 1056SOL     hw 4223   7.056   0.872   1.675  1.5658  0.3332 -0.9733
 1056SOL     vw 4224   7.111   0.806   1.688  0.5391 -0.4585 -0.5331
 1057SOL     ow 4225   3.163   1.809   2.276 -0.1431 -0.4431 -0.3247
 1057SOL     hw 4226   3.183   1.879   2.214  1.0539 -0.8786 -0.4674
 1057SOL     hw 4227   3.070   1.792   2.264 -0.8911  2.1891  0.8364
 1057SOL     vw 4228   3.154   1.816   2.267 -0.0838 -0.1534 -0.1905
 1058SOL     ow 4229   4.708   6.876   7.296  0.1705 -0.2451  0.0323
 1058SOL     hw 4230   4.730   6.843   7.209  1.1571  1.5267 -0.4459
 1058SOL     hw 4231   4.642   6.815   7.329  0.3086 -1.3731 -1.6444
 1058SOL     vw 4232   4.702   6.864   7.288  0.3190 -0.1602 -0.2518
 1059SOL     ow 4233   0.093   2.152   5.682  0.0515  0.2147  0.0432
 1059SOL     hw 4234   0.149   2.187   5.752 -1.7744 -1.2841  2.4300
 1059SOL     hw 4235   0.004   2.173   5.710 -0.7640 -0.3345 -1.9598
 1059SOL     vw 4236   0.089   2.159   5.695 -0.2970 -0.0556  0.0937
 1060SOL     ow 4237   7.056   7.145   3.021  0.6169  0.2689 -0.8374
 1060SOL     hw 4238   7.033   7.052   3.024  2.1134 -0.1043  1.4854
 1060SOL     hw 4239   7.069   7.163   2.928 -0.6382 -1.5683 -1.4357
 1060SOL     vw 4240   7.054   7.135   3.009  0.6487 -0.0229 -0.6098
 1061SOL     ow 4241   4.194   4.459   6.406  0.5894 -0.1513 -0.0883
 1061SOL     hw 4242   4.124   4.408   6.365  0.0940 -0.2456  0.8570
 1061SOL     hw 4243   4.233   4.399   6.470 -0.0265  0.6325  1.0718
 1061SOL     vw 4244   4.190   4.444   6.409  0.4427 -0.0603  0.1895
 1062SOL     ow 4245   1.320   2.660   7.300 -0.2028  0.1537 -0.2970
 1062SOL     hw 4246   1.339   2.575   7.261 -1.3896  0.2785 -1.2134
 1062SOL     hw 4247   1.230   2.679   7.272  0.3206  2.0688 -0.8042
 1062SOL     vw 4248   1.311   2.651   7.291 -0.2903  0.4227 -0.4849
 1063SOL     ow 4249   5.733   5.080   4.418 -0.1178  0.4939  0.1341
 1063SOL     hw 4250   5.824   5.058   4.399 -0.0497  1.6514 -0.9760
 1063SOL     hw 4251   5.695   5.100   4.332 -1.1576  0.9806  0.6964
 1063SOL     vw 4252   5.740   5.080   4.404 -0.2463  0.7110  0.0618
 1064SOL     ow 4253   1.119   6.715   6.385 -0.1218 -0.1626 -0.3594
 1064SOL     hw 4254   1.049   6.760   6.431 -1.1520 -2.2171  0.1994
 1064SOL     hw 4255   1.200   6.748   6.425 -0.9145 -0.4348  1.5772
 1064SOL     vw 4256   1.121   6.725   6.396 -0.3623 -0.4697 -0.0303
 1065SOL     ow 4257   0.263   2.190   5.032 -0.0815  0.1132 -0.0575
 1065SOL     hw 4258   0.177   2.224   5.058  1.3077  2.1350  2.3071
 1065SOL     hw 4259   0.302   2.261   4.980  0.3258 -0.6390 -0.8019
 1065SOL     vw 4260   0.257   2.204   5.028  0.1555  0.2806  0.1562
 1066SOL     ow 4261   6.473   1.371   0.274  0.3096  0.6278  0.3132
 1066SOL     hw 4262   6.539   1.418   0.326  1.4528 -0.7003  0.1038
 1066SOL     hw 4263   6.406   1.346   0.338  1.1695 -0.0543  0.9722
 1066SOL     vw 4264   6.473   1.374   0.289  0.5741  0.3626  0.3726
 1067SOL     ow 4265   1.538   2.868   7.266 -0.2734  0.4622 -0.2285
 1067SOL     hw 4266   1.480   2.792   7.261 -0.9210  0.7680  1.5643
 1067SOL     hw 4267   1.499   2.932   7.207  0.1217 -0.4882 -1.5432
 1067SOL     vw 4268   1.525   2.867   7.258 -0.3067  0.3772 -0.1655
 1068SOL     ow 4269   3.179   0.226   2.653  1.2388 -0.4141 -0.3120
 1068SOL     hw 4270   3.198   0.247   2.561  1.3143  0.6745 -0.0561
 1068SOL     hw 4271   3.128   0.301   2.685 -0.6725 -1.7439 -0.0483
 1068SOL     vw 4272   3.174   0.239   2.645  0.9966 -0.4459 -0.2435
 1069SOL     ow 4273   3.773   1.562   2.505  0.2250  0.5702 -0.3870
 1069SOL     hw 4274   3.720   1.618   2.562  0.2978  0.4548 -0.2056
 1069SOL     hw 4275   3.787   1.482   2.556 -1.2298 -0.2802 -1.2456
 1069SOL     vw 4276   3.768   1.559   2.519  0.0427  0.4427 -0.4764
 1070SOL     ow 4277   7.001   4.892   0.142 -0.6605 -0.1558 -0.1872
 1070SOL     hw 4278   6.998   4.801   0.172 -0.6935  0.4034  1.6939
 1070SOL     hw 4279   7.057   4.936   0.207 -3.0283  1.7346  0.7356
 1070SOL     vw 4280   7.008   4.886   0.155 -0.9770  0.1674  0.1827
 1071SOL     ow 4281   2.213   1.524   6.102  0.2744 -0.4329 -0.6766
 1071SOL     hw 4282   2.267   1.603   6.104 -1.1315  0.6697 -2.6706
 1071SOL     hw 4283   2.144   1.545   6.040 -1.5089 -2.3997  0.5530
 1071SOL     vw 4284   2.211   1.537   6.094 -0.1464 -0.5469 -0.7775
 1072SOL     ow 4285   4.881   3.744   0.402  0.0268 -0.6391 -0.6284
 1072SOL     hw 4286   4.961   3.692   0.398  0.7012  0.2592  0.7833
 1072SOL     hw 4287   4.888   3.795   0.482 -1.6765 -0.0597 -0.7940
 1072SOL     vw 4288   4.892   3.744   0.412 -0.1090 -0.4441 -0.4640
 1073SOL     ow 4289   3.807   1.784   4.390  0.0500  0.0298 -0.1221
 1073SOL     hw 4290   3.886   1.836   4.371  0.2385  0.0865  0.7874
 1073SOL     hw 4291   3.738   1.828   4.341  0.5326  0.1048 -0.7659
 1073SOL     vw 4292   3.809   1.796   4.381  0.1386  0.0473 -0.0870
 1074SOL     ow 4293   5.562   3.075   2.029  0.0979 -0.1253  0.4432
 1074SOL     hw 4294   5.570   3.013   1.956  0.9305  1.7198 -1.1056
 1074SOL     hw 4295   5.528   3.022   2.101 -2.8688 -1.6057 -1.8268
 1074SOL     vw 4296   5.558   3.059   2.029 -0.1838 -0.0774 -0.0606
 1075SOL     ow 4297   5.190   4.131   0.113  0.0160  0.5480  0.0881
 1075SOL     hw 4298   5.106   4.173   0.134  0.6304  1.8182  0.0435
 1075SOL     hw 4299   5.256   4.198   0.130  0.9346 -0.0067 -1.1582
 1075SOL     vw 4300   5.187   4.145   0.118  0.2184  0.6425 -0.0822
 1076SOL     ow 4301   6.771   2.077   6.488 -0.0074  0.2845  0.1067
 1076SOL     hw 4302   6.787   1.985   6.469  1.7610  0.4128  0.7816
 1076SOL     hw 4303   6.685   2.079   6.529  0.0524 -1.0898  0.3400
 1076SOL     vw 4304   6.762   2.065   6.491  0.2337  0.1200  0.2265
 1077SOL     ow 4305   6.549   3.606   1.624  0.0154 -0.2461  0.8432
 1077SOL     hw 4306   6.475   3.619   1.683 -0.4733 -1.1843  0.4543
 1077SOL     hw 4307   6.513   3.556   1.551  0.7548  0.3562  0.0482
 1077SOL     vw 4308   6.534   3.602   1.622  0.0484 -0.2903  0.6870
 1078SOL     ow 4309   2.786   0.096   7.246  0.7583 -0.7384  0.3023
 1078SOL     hw 4310   2.850   0.166   7.262  0.4240 -0.3250 -0.1331
 1078SOL     hw 4311   2.761   0.066   7.334  0.5056  0.0640  0.5129
 1078SOL     vw 4312   2.791   0.101   7.260  0.6808 -0.5780  0.2728
 1079SOL     ow 4313   6.142   0.791   2.479  0.0838  0.4428 -0.4775
 1079SOL     hw 4314   6.168   0.731   2.549  0.7833  0.0271 -1.0705
 1079SOL     hw 4315   6.108   0.733   2.410  0.8060  0.7079 -1.0714
 1079SOL     vw 4316   6.141   0.775   2.479  0.2713  0.4229 -0.6340
 1080SOL     ow 4317   0.989   6.255   3.028  0.5951 -0.3275  0.3220
 1080SOL     hw 4318   1.029   6.273   3.113 -0.1324  0.7257  0.4574
 1080SOL     hw 4319   0.923   6.323   3.017  0.6229 -0.4846 -1.0618
 1080SOL     vw 4320   0.985   6.266   3.037  0.5028 -0.2091  0.1574
 1081SOL     ow 4321   6.686   5.850   0.644 -0.2571  0.1117 -1.0501
 1081SOL     hw 4322   6.633   5.774   0.668  1.1726 -1.2777 -2.1304
 1081SOL     hw 4323   6.665   5.867   0.552 -0.2984  0.8162 -0.9178
 1081SOL     vw 4324   6.676   5.842   0.635 -0.0741  0.0212 -1.1752
 1082SOL     ow 4325   1.041   2.354   1.460  0.4706 -0.4563  0.3599
 1082SOL     hw 4326   1.004   2.280   1.509 -1.2642 -0.2958 -0.6373
 1082SOL     hw 4327   1.073   2.316   1.379  0.7122 -0.2843  0.3729
 1082SOL     vw 4328   1.040   2.340   1.456  0.2736 -0.4123  0.2301
 1083SOL     ow 4329   7.460   5.877   7.244 -0.2822 -0.0360 -0.9780
 1083SOL     hw 4330   7.376   5.897   7.283  1.0056  0.6405  1.6909
 1083SOL     hw 4331   7.509   5.832   7.313  2.8851  3.0380 -0.9037
 1083SOL     vw 4332   7.456   5.873   7.258  0.3054  0.4590 -0.6163
 1084SOL     ow 4333   4.909   5.553   6.781 -0.2169  0.2812 -0.7698
 1084SOL     hw 4334   4.948   5.466   6.789  2.4397  1.2668 -1.6186
 1084SOL     hw 4335   4.820   5.537   6.750 -0.5634 -2.1611  1.1200
 1084SOL     vw 4336   4.903   5.539   6.778  0.0880  0.0889 -0.6323
 1085SOL     ow 4337   6.477   5.989   7.211 -0.3610 -0.4988  0.0282
 1085SOL     hw 4338   6.450   5.997   7.120  0.3113 -1.6376 -0.2885
 1085SOL     hw 4339   6.439   6.066   7.254  2.1259  1.9971 -1.8619
 1085SOL     vw 4340   6.469   6.000   7.205  0.0558 -0.3197 -0.2627
 1086SOL     ow 4341   7.061   4.635   0.218  0.5667  0.2103  0.1146
 1086SOL     hw 4342   6.985   4.577   0.214  2.3674 -2.2852 -0.3876
 1086SOL     hw 4343   7.115   4.609   0.144  2.6380  0.7823  1.3371
 1086SOL     vw 4344   7.058   4.624   0.208  1.0774 -0.0434  0.2097
 1087SOL     ow 4345   2.153   5.086   2.420  0.1477  0.2112  0.0053
 1087SOL     hw 4346   2.238   5.042   2.420  1.2716  2.1805 -1.3488
 1087SOL     hw 4347   2.137   5.109   2.511  0.6174 -0.9708  0.3975
 1087SOL     vw 4348   2.162   5.084   2.432  0.3580  0.3152 -0.1215
 1088SOL     ow 4349   2.219   2.988   6.373 -0.1459  0.9983  0.7017
 1088SOL     hw 4350   2.132   2.957   6.349  0.7025  0.1023 -1.4202
 1088SOL     hw 4351   2.219   2.987   6.469 -1.2802 -2.4748  0.7874
 1088SOL     vw 4352   2.207   2.984   6.383 -0.1837  0.4219  0.4332
 1089SOL     ow 4353   5.423   4.263   6.732 -0.5602  0.0599 -0.1599
 1089SOL     hw 4354   5.486   4.302   6.794 -0.3303 -0.1557 -0.2571
 1089SOL     hw 4355   5.452   4.173   6.722 -0.5990  0.0907 -0.5785
 1089SOL     vw 4356   5.435   4.257   6.739 -0.5348  0.0355 -0.2282
 1090SOL     ow 4357   4.857   6.779   0.406 -0.2632 -0.3502 -0.0326
 1090SOL     hw 4358   4.874   6.873   0.393 -1.1684 -0.2405 -0.4912
 1090SOL     hw 4359   4.763   6.774   0.422 -0.6636 -1.4143 -2.3430
 1090SOL     vw 4360   4.847   6.791   0.407 -0.4356 -0.4761 -0.3979
 1091SOL     ow 4361   3.735   0.758   6.662  0.3789  0.3161  0.3148
 1091SOL     hw 4362   3.720   0.688   6.726 -1.7458  0.3063 -0.1183
 1091SOL     hw 4363   3.779   0.827   6.711 -0.6217  0.0526  1.6380
 1091SOL     vw 4364   3.739   0.758   6.677 -0.0335  0.2800  0.4320
 1092SOL     ow 4365   7.023   3.496   5.595 -0.0919  0.1085 -0.2211
 1092SOL     hw 4366   7.096   3.537   5.548  0.1969  0.5485  0.6000
 1092SOL     hw 4367   7.039   3.517   5.687 -0.7294 -0.6268  0.0616
 1092SOL     vw 4368   7.035   3.504   5.601 -0.1380  0.0695 -0.0756
 1093SOL     ow 4369   5.879   6.405   3.091 -0.1740 -0.4624 -0.3638
 1093SOL     hw 4370   5.801   6.452   3.122  0.5260  2.0428 -2.1079
 1093SOL     hw 4371   5.853   6.371   3.005 -0.3881 -2.7095  0.5164
 1093SOL     vw 4372   5.865   6.407   3.084 -0.1097 -0.4284 -0.4777
 1094SOL     ow 4373   3.503   1.900   6.568 -0.1765  0.5004  0.1860
 1094SOL     hw 4374   3.447   1.860   6.634 -0.8276 -0.8268 -1.0951
 1094SOL     hw 4375   3.592   1.887   6.600 -0.4956  0.4137  1.0637
 1094SOL     vw 4376   3.507   1.893   6.581 -0.3047  0.3139  0.1328
 1095SOL     ow 4377   0.695   0.494   4.422  0.2896 -0.5227 -0.1394
 1095SOL     hw 4378   0.610   0.520   4.385  0.5098  0.1222 -0.1902
 1095SOL     hw 4379   0.724   0.422   4.365 -0.2306 -0.7675 -0.1038
 1095SOL     vw 4380   0.687   0.488   4.409  0.2501 -0.4699 -0.1414
 1096SOL     ow 4381   0.996   5.002   3.234  0.1587 -0.2926  0.2632
 1096SOL     hw 4382   1.044   4.941   3.180  0.3625 -0.3648  0.5223
 1096SOL     hw 4383   0.958   4.948   3.304  0.1046 -0.1649  0.3344
 1096SOL     vw 4384   0.997   4.987   3.236  0.1784 -0.2854  0.3067
 1097SOL     ow 4385   1.859   5.095   5.231 -0.5217 -0.5369  0.8508
 1097SOL     hw 4386   1.894   5.173   5.275  2.1579 -1.9588  1.4584
 1097SOL     hw 4387   1.828   5.040   5.303  0.8070 -1.4671  0.7322
 1097SOL     vw 4388   1.859   5.098   5.246  0.0072 -0.8471  0.9151
 1098SOL     ow 4389   5.765   6.340   1.046  0.5710 -0.6393 -0.1685
 1098SOL     hw 4390   5.776   6.383   1.131 -2.6617 -1.8932  1.0214
 1098SOL     hw 4391   5.755   6.247   1.068  1.3610 -1.2366 -2.1276
 1098SOL     vw 4392   5.765   6.333   1.060  0.2484 -0.8836 -0.2700
 1099SOL     ow 4393   1.462   2.730   4.188  0.4983  0.3434  1.0489
 1099SOL     hw 4394   1.391   2.772   4.139  0.5337 -0.4367  0.3170
 1099SOL     hw 4395   1.418   2.691   4.264  0.1917  0.1728  0.7900
 1099SOL     vw 4396   1.447   2.731   4.191  0.4625  0.2180  0.9179
 1100SOL     ow 4397   4.944   0.561   2.901 -0.1214  0.3908 -0.0403
 1100SOL     hw 4398   4.858   0.524   2.922 -0.9578  2.3069  0.0655
 1100SOL     hw 4399   4.990   0.564   2.985 -0.1512 -0.0789 -0.0007
 1100SOL     vw 4400   4.938   0.556   2.915 -0.2360  0.5817 -0.0212
 1101SOL     ow 4401   7.042   3.334   1.489  0.8813 -0.2971  0.4307
 1101SOL     hw 4402   7.103   3.327   1.415  0.3564  0.2098 -0.0562
 1101SOL     hw 4403   7.031   3.243   1.519 -0.4055 -0.7920 -1.3651
 1101SOL     vw 4404   7.049   3.321   1.483  0.6421 -0.2955  0.1296
 1102SOL     ow 4405   1.622   5.238   1.145 -0.1527  0.1715 -0.1958
 1102SOL     hw 4406   1.606   5.276   1.232  0.3350 -2.2072  1.0093
 1102SOL     hw 4407   1.682   5.166   1.161  0.4769  0.0698 -2.6429
 1102SOL     vw 4408   1.628   5.234   1.159 -0.0053 -0.1559 -0.3597
 1103SOL     ow 4409   3.805   0.965   5.412 -0.0609  0.4328 -0.7053
 1103SOL     hw 4410   3.825   1.041   5.357 -0.8062  1.2085  0.0594
 1103SOL     hw 4411   3.713   0.946   5.394 -0.4187  0.9206  0.4916
 1103SOL     vw 4412   3.796   0.973   5.403 -0.2066  0.5995 -0.4468
 1104SOL     ow 4413   0.494   4.515   3.012 -0.1107  0.0646  0.4180
 1104SOL     hw 4414   0.506   4.564   2.930  0.9099  1.3541  1.2944
 1104SOL     hw 4415   0.549   4.437   3.001 -0.1134  0.1420 -0.1840
 1104SOL     vw 4416   0.503   4.511   2.999  0.0236  0.2449  0.4542
 1105SOL     ow 4417   2.960   5.864   1.874 -0.3143  0.0536 -0.5426
 1105SOL     hw 4418   2.925   5.846   1.787 -1.5312  1.3609 -0.3586
 1105SOL     hw 4419   2.972   5.777   1.913  1.7890 -0.6439 -2.5377
 1105SOL     vw 4420   2.957   5.850   1.868 -0.1973  0.1342 -0.7815
 1106SOL     ow 4421   2.825   2.643   1.868 -0.2336  0.0078  0.3935
 1106SOL     hw 4422   2.826   2.645   1.964 -1.1763  1.2793  0.3986
 1106SOL     hw 4423   2.872   2.721   1.841 -1.6460  0.7183 -0.1333
 1106SOL     vw 4424   2.831   2.654   1.877 -0.5443  0.2692  0.3246
 1107SOL     ow 4425   2.219   0.079   1.844  0.4225  0.1680 -0.2264
 1107SOL     hw 4426   2.171   0.073   1.926  0.6839  0.9226 -0.0085
 1107SOL     hw 4427   2.257  -0.008   1.831  0.7479  0.1658  0.6886
 1107SOL     vw 4428   2.218   0.067   1.853  0.5000  0.2673 -0.0768
 1108SOL     ow 4429   7.229   2.011   4.604  0.0667  0.0938  0.2753
 1108SOL     hw 4430   7.153   2.069   4.609 -0.2194 -0.3292  0.9241
 1108SOL     hw 4431   7.271   2.019   4.689  1.0785  0.7488 -0.2689
 1108SOL     vw 4432   7.225   2.020   4.616  0.1624  0.1242  0.2892
 1109SOL     ow 4433   3.996   4.323   6.292  0.4665  0.0353  0.0056
 1109SOL     hw 4434   3.988   4.246   6.347  1.6693 -0.7494 -0.8591
 1109SOL     hw 4435   3.928   4.313   6.225 -0.7890  0.8338  1.1185
 1109SOL     vw 4436   3.986   4.312   6.290  0.4596  0.0370  0.0386
 1110SOL     ow 4437   7.293   4.541   0.314 -0.5334  0.3897  0.2975
 1110SOL     hw 4438   7.264   4.594   0.388 -1.1611  0.0250  0.3188
 1110SOL     hw 4439   7.224   4.552   0.249 -1.7065 -1.9657  1.0389
 1110SOL     vw 4440   7.280   4.549   0.315 -0.7708  0.0308  0.3981
 1111SOL     ow 4441   1.981   4.634   0.736 -0.1357  0.2843  0.1133
 1111SOL     hw 4442   1.944   4.551   0.768  1.8491 -0.4269  0.7026
 1111SOL     hw 4443   1.980   4.625   0.641 -0.9093  0.0520  0.1304
 1111SOL     vw 4444   1.976   4.621   0.728  0.0241  0.1600  0.1933
 1112SOL     ow 4445   3.388   6.910   5.507  0.3409  0.0365 -0.4511
 1112SOL     hw 4446   3.449   6.887   5.577  1.3446  0.5193 -1.1527
 1112SOL     hw 4447   3.344   6.828   5.485  0.7899 -0.3277  0.0067
 1112SOL     vw 4448   3.390   6.896   5.514  0.5325  0.0525 -0.4833
 1113SOL     ow 4449   0.136   5.429   2.100  0.0806 -0.0306 -0.5907
 1113SOL     hw 4450   0.221   5.423   2.055  1.0982 -4.3055  1.3999
 1113SOL     hw 4451   0.101   5.341   2.095 -3.1368  1.0367  0.8790
 1113SOL     vw 4452   0.143   5.417   2.093 -0.2096 -0.4537 -0.1342
 1114SOL     ow 4453   3.057   4.806   1.817  0.0207 -0.4520  0.6752
 1114SOL     hw 4454   2.987   4.753   1.855  1.4066 -1.4846  1.9685
 1114SOL     hw 4455   3.130   4.744   1.807  0.4143  0.3178 -1.7069
 1114SOL     vw 4456   3.058   4.791   1.821  0.2555 -0.4866  0.5316
 1115SOL     ow 4457   2.513   0.668   5.859  0.4118 -0.1310  1.1170
 1115SOL     hw 4458   2.547   0.701   5.776  1.1770 -0.5823  1.2359
 1115SOL     hw 4459   2.418   0.672   5.850  0.4832  1.0747  0.7333
 1115SOL     vw 4460   2.505   0.673   5.847  0.5223 -0.0314  1.0819
 1116SOL     ow 4461   3.203   6.488   6.909 -0.4749  0.0667 -0.0893
 1116SOL     hw 4462   3.233   6.567   6.954  1.6196 -0.0665 -1.1176
 1116SOL     hw 4463   3.142   6.521   6.842  0.7393  0.9068 -0.8219
 1116SOL     vw 4464   3.199   6.503   6.906 -0.0385  0.1600 -0.3219
 1117SOL     ow 4465   6.056   6.724   0.965  0.8941  0.0493 -0.7443
 1117SOL     hw 4466   6.058   6.800   0.907 -0.5391  0.3062 -0.4930
 1117SOL     hw 4467   5.984   6.742   1.025  0.7255 -1.3788 -0.4897
 1117SOL     vw 4468   6.047   6.737   0.966  0.6828 -0.1051 -0.6776
 1118SOL     ow 4469   4.493   1.077   2.093  0.0148  0.3187 -0.0765
 1118SOL     hw 4470   4.484   0.982   2.088  0.0452  0.3600 -1.1461
 1118SOL     hw 4471   4.530   1.093   2.180 -0.0402 -0.6433  0.1333
 1118SOL     vw 4472   4.497   1.067   2.104  0.0114  0.1972 -0.1900
 1119SOL     ow 4473   0.923   5.576   2.337  0.2736 -0.5727  0.2047
 1119SOL     hw 4474   0.844   5.523   2.342 -0.7454  1.0129  1.7063
 1119SOL     hw 4475   0.983   5.537   2.401  0.9813 -2.0808 -1.2837
 1119SOL     vw 4476   0.921   5.564   2.346  0.2325 -0.5627  0.2065
 1120SOL     ow 4477   5.155   2.210   0.576  0.0888 -0.6494  0.6806
 1120SOL     hw 4478   5.069   2.238   0.606  1.2232  2.5211  1.3715
 1120SOL     hw 4479   5.213   2.228   0.650  1.7191 -0.2599 -0.6310
 1120SOL     vw 4480   5.152   2.216   0.590  0.4537 -0.1796  0.5987
 1121SOL     ow 4481   2.517   6.565   3.467  0.4343  0.6782 -0.2283
 1121SOL     hw 4482   2.612   6.562   3.452  0.2656  1.6995 -1.6772
 1121SOL     hw 4483   2.503   6.507   3.542  1.9553 -1.0882 -1.2262
 1121SOL     vw 4484   2.528   6.557   3.475  0.6126  0.5798 -0.5512
 1122SOL     ow 4485   4.040   5.466   1.247  0.5265  0.3670  0.1836
 1122SOL     hw 4486   4.045   5.538   1.311 -1.0327 -1.0579  2.0213
 1122SOL     hw 4487   4.086   5.500   1.170  2.1704  2.3237  1.8835
 1122SOL     vw 4488   4.047   5.480   1.245  0.5379  0.4373  0.6503
 1123SOL     ow 4489   5.783   4.401   3.394  0.3718  0.1465  0.3666
 1123SOL     hw 4490   5.707   4.381   3.340 -0.0468 -0.9617  1.3377
 1123SOL     hw 4491   5.747   4.436   3.475  0.9263  0.2679  0.5674
 1123SOL     vw 4492   5.768   4.403   3.397  0.3898  0.0162  0.5213
 1124SOL     ow 4493   6.043   6.460   0.955  0.3599  0.6331  0.0591
 1124SOL     hw 4494   6.103   6.436   0.884  0.8715 -1.0627  0.9972
 1124SOL     hw 4495   6.045   6.555   0.957  1.3941  0.6766 -1.3151
 1124SOL     vw 4496   6.052   6.469   0.946  0.5639  0.4153  0.0016
 1125SOL     ow 4497   7.062   4.506   5.224 -0.2509 -0.2190 -0.2405
 1125SOL     hw 4498   6.991   4.486   5.285  0.4573 -0.9318  0.3815
 1125SOL     hw 4499   7.072   4.426   5.173  0.4704 -0.3326  0.0664
 1125SOL     vw 4500   7.054   4.493   5.226 -0.0622 -0.3281 -0.1180
 1126SOL     ow 4501   6.854   4.884   0.485  0.1181  0.1974 -0.0151
 1126SOL     hw 4502   6.776   4.900   0.431  1.1260  1.2826 -1.2024
 1126SOL     hw 4503   6.830   4.915   0.572 -1.1411 -0.4899 -0.0985
 1126SOL     vw 4504   6.840   4.890   0.490  0.0849  0.2496 -0.1827
 1127SOL     ow 4505   6.291   6.889   2.243  0.8154  0.4358 -0.5008
 1127SOL     hw 4506   6.249   6.974   2.255 -0.3738 -0.3700  1.5488
 1127SOL     hw 4507   6.337   6.896   2.160 -1.1189  2.3117 -1.4839
 1127SOL     vw 4508   6.292   6.901   2.234  0.4034  0.5770 -0.3603
 1128SOL     ow 4509   4.616   1.656   1.629 -0.1401  0.4535  0.5179
 1128SOL     hw 4510   4.612   1.564   1.656 -0.7246  0.4535  0.4596
 1128SOL     hw 4511   4.698   1.664   1.581  1.0017  0.4901  2.3929
 1128SOL     vw 4512   4.626   1.645   1.626 -0.0663  0.4582  0.7576
 1129SOL     ow 4513   4.978   5.216   1.620  0.2871  0.0688 -0.5137
 1129SOL     hw 4514   4.984   5.200   1.715 -2.3765 -0.4534 -0.3534
 1129SOL     hw 4515   4.900   5.271   1.610 -1.4759 -2.5397 -2.5989
 1129SOL     vw 4516   4.969   5.221   1.632 -0.2968 -0.3443 -0.7677
 1130SOL     ow 4517   4.077   1.010   6.813  0.6590  0.1866  0.2763
 1130SOL     hw 4518   4.129   1.066   6.871 -0.3926  1.7382 -0.1995
 1130SOL     hw 4519   4.068   1.061   6.733 -1.0433 -0.2939  0.1162
 1130SOL     vw 4520   4.082   1.024   6.810  0.2959  0.3279  0.1926
 1131SOL     ow 4521   4.303   6.774   5.950 -0.2318  0.6059 -0.7425
 1131SOL     hw 4522   4.287   6.864   5.922 -0.0200  1.0132  0.3923
 1131SOL     hw 4523   4.249   6.764   6.029  1.3989  0.4599  0.3961
 1131SOL     vw 4524   4.294   6.785   5.957  0.0114  0.6402 -0.4425
 1132SOL     ow 4525   2.811   1.506   5.905 -0.5893 -0.5746  0.1678
 1132SOL     hw 4526   2.746   1.513   5.975  1.2777  0.7195  1.8816
 1132SOL     hw 4527   2.863   1.429   5.928 -0.3880 -0.5436 -0.1830
 1132SOL     vw 4528   2.809   1.497   5.917 -0.3165 -0.3998  0.3479
 1133SOL     ow 4529   6.580   2.840   1.622  0.2316 -0.4334  0.6925
 1133SOL     hw 4530   6.515   2.906   1.648  1.6297  0.4995  1.9908
 1133SOL     hw 4531   6.574   2.838   1.526  0.5504  2.0626  0.5422
 1133SOL     vw 4532   6.570   2.849   1.613  0.4580  0.0191  0.8439
 1134SOL     ow 4533   0.180   1.359   2.151 -0.5233 -0.6112 -0.1282
 1134SOL     hw 4534   0.157   1.326   2.064 -0.4806 -0.4167 -0.2113
 1134SOL     hw 4535   0.248   1.424   2.136 -0.1814 -0.9112  0.0905
 1134SOL     vw 4536   0.186   1.363   2.138 -0.4725 -0.6251 -0.1103
 1135SOL     ow 4537   4.622   0.533   6.722  0.5350 -0.2684 -0.9165
 1135SOL     hw 4538   4.609   0.451   6.768 -1.1166  0.5651  0.1974
 1135SOL     hw 4539   4.567   0.527   6.643 -1.1178  0.4515  0.1283
 1135SOL     vw 4540   4.613   0.522   6.717  0.0992 -0.0634 -0.6316
 1136SOL     ow 4541   1.956   1.203   3.714  0.6835  0.5871 -0.4795
 1136SOL     hw 4542   1.983   1.228   3.626  0.1894 -0.2944 -0.8926
 1136SOL     hw 4543   1.861   1.217   3.715  0.5443 -0.2980 -0.4053
 1136SOL     vw 4544   1.947   1.209   3.703  0.6000  0.3541 -0.5243
 1137SOL     ow 4545   5.036   3.959   1.729  0.2109 -0.4937 -0.7058
 1137SOL     hw 4546   5.002   3.926   1.812  1.4213 -2.2398 -0.8467
 1137SOL     hw 4547   5.048   4.053   1.744  0.1266 -0.7131  0.9904
 1137SOL     vw 4548   5.033   3.967   1.742  0.3595 -0.7529 -0.5006
 1138SOL     ow 4549   1.208   1.511   2.431  0.0453 -0.5460  0.1416
 1138SOL     hw 4550   1.228   1.423   2.400  1.3294  0.0785 -0.9514
 1138SOL     hw 4551   1.262   1.568   2.376  0.9576  0.7829  2.2781
 1138SOL     vw 4552   1.218   1.507   2.420  0.3352 -0.2883  0.2792
 1139SOL     ow 4553   1.955   5.767   7.445  0.0007 -0.4652 -0.7836
 1139SOL     hw 4554   1.968   5.843   7.388  1.5481  0.4328  0.6866
 1139SOL     hw 4555   1.863   5.770   7.468  0.0744  1.1023 -0.5971
 1139SOL     vw 4556   1.945   5.777   7.440  0.2146 -0.1400 -0.5653
 1140SOL     ow 4557   1.776   5.405   3.623 -0.8012 -0.6330  0.0301
 1140SOL     hw 4558   1.826   5.343   3.570  0.5099  0.1943  0.2496
 1140SOL     hw 4559   1.751   5.474   3.561 -0.0581 -0.1246  0.2827
 1140SOL     vw 4560   1.779   5.406   3.608 -0.5302 -0.4568  0.0924
 1141SOL     ow 4561   7.105   2.155   7.150 -0.4888  0.4151  0.1661
 1141SOL     hw 4562   7.112   2.221   7.220 -1.6824  0.8995 -0.1465
 1141SOL     hw 4563   7.065   2.203   7.077  1.4820  0.1354 -1.1613
 1141SOL     vw 4564   7.100   2.170   7.150 -0.3865  0.4421 -0.0503
 1142SOL     ow 4565   0.507   1.815   0.338 -0.1010  0.4859 -0.4414
 1142SOL     hw 4566   0.441   1.761   0.382 -0.1786 -0.1482 -1.3139
 1142SOL     hw 4567   0.591   1.778   0.366 -0.0891  1.3357  0.7236
 1142SOL     vw 4568   0.509   1.803   0.347 -0.1097  0.5144 -0.4028
 1143SOL     ow 4569   1.925   2.098   6.395 -0.4635  0.3004  0.1367
 1143SOL     hw 4570   1.832   2.082   6.406 -0.0223 -3.5030 -0.2814
 1143SOL     hw 4571   1.936   2.114   6.301 -0.5540 -1.0499 -0.1231
 1143SOL     vw 4572   1.915   2.098   6.384 -0.4172 -0.3794  0.0474
 1144SOL     ow 4573   1.010   2.168   3.495 -0.0052  0.3228  0.6275
 1144SOL     hw 4574   0.936   2.225   3.475  0.8027  1.1862 -0.0042
 1144SOL     hw 4575   0.994   2.088   3.446 -0.8993  0.1888  1.1195
 1144SOL     vw 4576   0.998   2.165   3.486 -0.0165  0.4191  0.6090
 1145SOL     ow 4577   3.807   1.328   1.881 -0.0071 -0.1226  0.0209
 1145SOL     hw 4578   3.886   1.324   1.828 -0.1919 -1.9413 -0.1890
 1145SOL     hw 4579   3.837   1.312   1.970 -0.0075  0.4063  0.1216
 1145SOL     vw 4580   3.821   1.325   1.886 -0.0314 -0.2928  0.0065
 1146SOL     ow 4581   6.673   6.474   6.940 -0.8806  0.4717 -0.0122
 1146SOL     hw 4582   6.722   6.450   7.018 -1.7130  1.3770  0.8313
 1146SOL     hw 4583   6.581   6.476   6.969 -1.1034  1.9436 -0.6938
 1146SOL     vw 4584   6.667   6.471   6.954 -1.0200  0.7851  0.0091
 1147SOL     ow 4585   0.100   2.017   1.398 -0.6854  0.1919  0.5309
 1147SOL     hw 4586   0.182   2.031   1.350 -1.1344  0.1920 -0.2532
 1147SOL     hw 4587   0.053   2.100   1.392 -0.5834  0.3214  1.3243
 1147SOL     vw 4588   0.105   2.030   1.391 -0.7312  0.2089  0.5322
 1148SOL     ow 4589   4.439   7.407   1.526 -0.3540  0.8415 -0.4105
 1148SOL     hw 4590   4.392   7.326   1.545  0.3426  0.3700 -0.6420
 1148SOL     hw 4591   4.389   7.448   1.455  0.0471 -0.0801 -1.2539
 1148SOL     vw 4592   4.427   7.402   1.519 -0.2091  0.6578 -0.5524
 1149SOL     ow 4593   5.130   3.793   4.611  0.0626  0.2339 -0.2337
 1149SOL     hw 4594   5.094   3.704   4.605 -1.1339  0.5519  1.3422
 1149SOL     hw 4595   5.173   3.796   4.697  0.8153  0.9424 -0.6195
 1149SOL     vw 4596   5.131   3.781   4.622  0.0041  0.3693 -0.0765
 1150SOL     ow 4597   6.066   2.665   6.115  0.3174 -0.0673 -0.4278
 1150SOL     hw 4598   6.085   2.571   6.105  0.4331 -0.1061  0.0889
 1150SOL     hw 4599   6.149   2.708   6.096  0.6687 -0.1702  0.7739
 1150SOL     vw 4600   6.080   2.658   6.112  0.3788 -0.0859 -0.2012
 1151SOL     ow 4601   2.322   0.741   3.826 -0.1191  0.3152 -0.1655
 1151SOL     hw 4602   2.325   0.832   3.854  0.6889  0.2606 -0.0440
 1151SOL     hw 4603   2.292   0.693   3.902  0.9415  0.3079  0.2705
 1151SOL     vw 4604   2.319   0.747   3.839  0.1274  0.3071 -0.0919
 1152SOL     ow 4605   5.838   5.297   0.585 -0.8902  0.0930  0.3039
 1152SOL     hw 4606   5.919   5.344   0.606 -1.0834  0.6725 -0.2508
 1152SOL     hw 4607   5.868   5.217   0.542 -0.5190 -0.7511  2.0161
 1152SOL     vw 4608   5.853   5.293   0.582 -0.8667  0.0582  0.4566
 1153SOL     ow 4609   4.457   7.073   6.733 -0.0044 -0.4295 -0.9824
 1153SOL     hw 4610   4.530   7.011   6.728  0.3136 -0.1421 -0.0874
 1153SOL     hw 4611   4.486   7.149   6.684 -0.3297 -0.9032 -1.9451
 1153SOL     vw 4612   4.470   7.075   6.726 -0.0052 -0.4539 -0.9911
 1154SOL     ow 4613   5.616   1.093   1.069  0.2371 -0.4601 -0.4157
 1154SOL     hw 4614   5.640   1.051   0.987 -0.9296 -4.5675  1.1384
 1154SOL     hw 4615   5.531   1.134   1.053 -0.3926 -1.9853 -1.0648
 1154SOL     vw 4616   5.608   1.093   1.056  0.0002 -1.2032 -0.2963
 1155SOL     ow 4617   1.543   4.850   5.124 -0.3581 -0.0520  0.5887
 1155SOL     hw 4618   1.462   4.805   5.149  0.1813 -2.2847 -1.3621
 1155SOL     hw 4619   1.611   4.807   5.176  0.0911 -1.2235 -0.8971
 1155SOL     vw 4620   1.542   4.839   5.134 -0.2277 -0.5012  0.1354
 1156SOL     ow 4621   3.426   7.376   4.253  0.8852 -0.4437 -0.4375
 1156SOL     hw 4622   3.436   7.348   4.162  2.6696  1.0360 -0.7480
 1156SOL     hw 4623   3.507   7.349   4.296 -0.1951 -1.7150  0.9305
 1156SOL     vw 4624   3.438   7.369   4.247  0.9781 -0.4160 -0.2980
 1157SOL     ow 4625   6.944   5.858   3.447  0.0291 -0.2495  0.2784
 1157SOL     hw 4626   7.016   5.820   3.396  0.3526  0.2626  0.3464
 1157SOL     hw 4627   6.892   5.783   3.474 -0.1680 -0.5358 -0.8403
 1157SOL     vw 4628   6.947   5.843   3.444  0.0460 -0.2196  0.1397
 1158SOL     ow 4629   0.417   1.279   6.646  0.2457  0.1560 -0.0241
 1158SOL     hw 4630   0.344   1.341   6.641  0.7969  0.7705 -0.4619
 1158SOL     hw 4631   0.436   1.272   6.740 -1.1597 -0.9475  0.2170
 1158SOL     vw 4632   0.410   1.286   6.658  0.1330  0.0914 -0.0501
 1159SOL     ow 4633   2.764   1.235   1.292  0.6840 -0.2124 -0.1524
 1159SOL     hw 4634   2.829   1.213   1.359  1.9382 -0.8069 -1.5117
 1159SOL     hw 4635   2.693   1.172   1.306  1.1343 -0.6195  0.3372
 1159SOL     vw 4636   2.763   1.224   1.303  0.9089 -0.3446 -0.2671
 1160SOL     ow 4637   6.047   4.354   6.637  0.2774  0.8962 -0.4936
 1160SOL     hw 4638   5.962   4.311   6.643  1.3110 -1.2426 -0.4464
 1160SOL     hw 4639   6.027   4.440   6.599 -1.9397  0.6839  0.0196
 1160SOL     vw 4640   6.033   4.360   6.633  0.1214  0.5860 -0.4194
 1161SOL     ow 4641   0.167   2.624   4.226 -0.1437  0.8130 -0.2971
 1161SOL     hw 4642   0.189   2.677   4.149 -1.8873 -0.0693 -1.4705
 1161SOL     hw 4643   0.089   2.575   4.200  0.3636 -1.0133  1.3508
 1161SOL     vw 4644   0.160   2.624   4.213 -0.3068  0.4557 -0.2344
 1162SOL     ow 4645   5.239   5.450   3.448  0.0444  0.4401  0.0885
 1162SOL     hw 4646   5.241   5.396   3.527  0.5046  0.8167  0.3374
 1162SOL     hw 4647   5.221   5.387   3.378  0.9032 -0.1041  0.3302
 1162SOL     vw 4648   5.237   5.434   3.449  0.2182  0.4179  0.1532
 1163SOL     ow 4649   4.687   2.643   1.477  0.0802  0.4946  0.2368
 1163SOL     hw 4650   4.640   2.631   1.560  0.4528 -0.4753  0.3183
 1163SOL     hw 4651   4.620   2.675   1.416 -0.6175 -0.5064  0.4506
 1163SOL     vw 4652   4.672   2.646   1.480  0.0372  0.2346  0.2757
 1164SOL     ow 4653   6.140   5.116   0.888  0.2649  0.0805  0.2766
 1164SOL     hw 4654   6.233   5.115   0.865  0.5739 -0.1054  1.4358
 1164SOL     hw 4655   6.124   5.205   0.917  0.1503  0.0424  0.3282
 1164SOL     vw 4656   6.150   5.127   0.889  0.2906  0.0510  0.4363
 1165SOL     ow 4657   7.001   4.662   0.491  0.0468  0.4575 -0.5474
 1165SOL     hw 4658   7.046   4.648   0.407  1.3116 -0.0891  0.1883
 1165SOL     hw 4659   6.959   4.747   0.481 -0.7633 -0.0811 -2.1297
 1165SOL     vw 4660   7.002   4.672   0.478  0.1070  0.3145 -0.6591
 1166SOL     ow 4661   4.046   6.379   0.647 -0.7565  0.3492 -0.0650
 1166SOL     hw 4662   4.061   6.394   0.554 -0.4832 -1.3273 -0.3146
 1166SOL     hw 4663   4.111   6.435   0.691  1.4083 -1.3041 -0.9777
 1166SOL     vw 4664   4.057   6.389   0.641 -0.4349 -0.0901 -0.2183
 1167SOL     ow 4665   4.054   3.765   4.197  0.0329  0.0548 -0.0113
 1167SOL     hw 4666   4.097   3.752   4.113 -2.2159 -2.0241 -0.9594
 1167SOL     hw 4667   4.107   3.716   4.260 -0.2927 -1.5696 -0.9508
 1167SOL     vw 4668   4.066   3.757   4.194 -0.3066 -0.4338 -0.2604
 1168SOL     ow 4669   4.641   2.525   2.157 -0.0197 -0.2061 -0.3171
 1168SOL     hw 4670   4.576   2.554   2.092  0.9749  1.2892 -0.7131
 1168SOL     hw 4671   4.642   2.596   2.222  0.7238 -0.5355  0.0374
 1168SOL     vw 4672   4.633   2.538   2.157  0.2096 -0.0523 -0.3226
 1169SOL     ow 4673   2.955   3.999   2.963  0.3498  0.4500 -0.2480
 1169SOL     hw 4674   2.993   3.912   2.952 -2.3704 -0.8802  0.2311
 1169SOL     hw 4675   2.978   4.045   2.882 -0.5885 -1.7057 -1.8376
 1169SOL     vw 4676   2.963   3.994   2.951 -0.1329 -0.0100 -0.3947
 1170SOL     ow 4677   1.034   6.041   2.256  0.0811 -0.2786  0.1988
 1170SOL     hw 4678   0.940   6.057   2.256  0.0687 -0.3438 -0.0934
 1170SOL     hw 4679   1.071   6.112   2.205  0.2417  0.0158  0.7212
 1170SOL     vw 4680   1.026   6.052   2.249  0.1006 -0.2484  0.2292
 1171SOL     ow 4681   3.511   7.323   7.281  0.0213 -0.2835  0.6397
 1171SOL     hw 4682   3.503   7.236   7.242  0.1527 -0.6165  1.3313
 1171SOL     hw 4683   3.579   7.366   7.230 -0.5799 -0.3011 -0.1973
 1171SOL     vw 4684   3.519   7.317   7.269 -0.0407 -0.3297  0.6204
 1172SOL     ow 4685   3.100   4.282   2.571  0.0749  0.0381 -0.3739
 1172SOL     hw 4686   3.063   4.205   2.615 -0.4783 -0.0598 -1.0009
 1172SOL     hw 4687   3.177   4.248   2.525 -0.5352 -0.2780 -1.1781
 1172SOL     vw 4688   3.106   4.267   2.571 -0.0787 -0.0167 -0.5628
 1173SOL     ow 4689   0.308   4.840   2.890 -0.0975  0.0144  0.1939
 1173SOL     hw 4690   0.328   4.849   2.983 -0.2504 -3.0134  0.5948
 1173SOL     hw 4691   0.381   4.792   2.853 -1.1301 -0.8956 -0.7555
 1173SOL     vw 4692   0.320   4.835   2.897 -0.2539 -0.5054  0.1216
 1174SOL     ow 4693   6.213   6.386   5.135 -0.4807 -0.5009  0.7196
 1174SOL     hw 4694   6.304   6.382   5.105  0.0779 -0.9129  2.3750
 1174SOL     hw 4695   6.163   6.347   5.064  0.4018  1.2734 -0.9727
 1174SOL     vw 4696   6.219   6.380   5.122 -0.2906 -0.3211  0.7148
 1175SOL     ow 4697   3.850   1.638   4.637 -0.4823 -0.3086 -0.4454
 1175SOL     hw 4698   3.858   1.557   4.588  0.0125 -0.7642  0.3646
 1175SOL     hw 4699   3.937   1.654   4.673 -0.9096 -0.1834  0.5734
 1175SOL     vw 4700   3.862   1.630   4.635 -0.4734 -0.3522 -0.2041
 1176SOL     ow 4701   4.749   2.389   1.393  0.4254  0.0167  0.6507
 1176SOL     hw 4702   4.733   2.480   1.417 -2.3631 -0.2964  0.4200
 1176SOL     hw 4703   4.748   2.389   1.297 -2.1494 -0.4849  0.5887
 1176SOL     vw 4704   4.747   2.401   1.383 -0.2820 -0.0908  0.6121
 1177SOL     ow 4705   3.983   3.692   4.953  0.2671 -0.1016 -0.4932
 1177SOL     hw 4706   4.060   3.658   4.999 -0.5782 -2.2907 -0.5421
 1177SOL     hw 4707   3.980   3.640   4.873 -0.6267  0.7684 -1.0316
 1177SOL     vw 4708   3.993   3.680   4.949  0.0374 -0.2757 -0.5705
 1178SOL     ow 4709   2.804   2.478   5.274 -0.4131 -0.2006 -0.3486
 1178SOL     hw 4710   2.824   2.488   5.367  1.4031 -1.2632 -0.5853
 1178SOL     hw 4711   2.729   2.418   5.272 -0.0062 -0.7402  0.3988
 1178SOL     vw 4712   2.796   2.472   5.286 -0.1197 -0.4119 -0.2816
 1179SOL     ow 4713   1.728   3.321   7.259  0.1503 -0.2170  0.3482
 1179SOL     hw 4714   1.707   3.322   7.352 -1.2808 -0.2834  0.0468
 1179SOL     hw 4715   1.645   3.338   7.215  0.4768 -1.7506 -0.9791
 1179SOL     vw 4716   1.715   3.323   7.265  0.0045 -0.4281  0.1330
 1180SOL     ow 4717   0.859   1.441   6.534  0.6057 -0.0325 -0.0542
 1180SOL     hw 4718   0.903   1.361   6.564  2.2152  0.5688 -0.6952
 1180SOL     hw 4719   0.824   1.480   6.614  3.8645  0.9836  1.0364
 1180SOL     vw 4720   0.860   1.435   6.549  1.2480  0.1810  0.0050
 1181SOL     ow 4721   5.885   4.031   5.966  0.0559 -0.3220 -0.5522
 1181SOL     hw 4722   5.976   4.005   5.948  0.0330 -2.8386  2.1813
 1181SOL     hw 4723   5.884   4.126   5.953  3.1903 -0.1492 -0.2838
 1181SOL     vw 4724   5.897   4.040   5.961  0.4663 -0.6311 -0.1562
 1182SOL     ow 4725   1.671   0.874   3.160 -0.3746 -0.3950 -0.2548
 1182SOL     hw 4726   1.665   0.964   3.128 -1.0045 -0.7656 -1.2207
 1182SOL     hw 4727   1.724   0.881   3.240 -2.8850  1.2878  1.4400
 1182SOL     vw 4728   1.677   0.887   3.167 -0.7889 -0.2219 -0.1588
 1183SOL     ow 4729   2.783   3.757   6.830 -0.5820  1.0489  0.2693
 1183SOL     hw 4730   2.749   3.721   6.911 -1.7038  1.3570 -0.0512
 1183SOL     hw 4731   2.707   3.796   6.786  0.0687  1.2325 -0.7467
 1183SOL     vw 4732   2.769   3.757   6.835 -0.6441  1.1138  0.0932
 1184SOL     ow 4733   2.054   5.003   2.107  0.0594 -0.5740  0.2221
 1184SOL     hw 4734   2.045   4.908   2.096 -0.8921 -0.3710 -0.9296
 1184SOL     hw 4735   2.014   5.040   2.028  0.3039  0.7926  0.7200
 1184SOL     vw 4736   2.048   4.995   2.095 -0.0339 -0.3669  0.1359
 1185SOL     ow 4737   6.282   3.479   4.521  0.0056 -0.1026 -0.0411
 1185SOL     hw 4738   6.253   3.417   4.588  0.9790 -2.6067 -1.7377
 1185SOL     hw 4739   6.378   3.472   4.522  0.1066  0.9956 -0.6287
 1185SOL     vw 4740   6.291   3.470   4.530  0.1473 -0.2880 -0.3424
 1186SOL     ow 4741   6.426   6.435   0.543  0.4011  0.6691  0.4283
 1186SOL     hw 4742   6.395   6.515   0.584  0.0905  0.9960 -0.4215
 1186SOL     hw 4743   6.477   6.465   0.467  1.4475  0.0959  0.8742
 1186SOL     vw 4744   6.429   6.449   0.538  0.4981  0.6366  0.3750
 1187SOL     ow 4745   1.389   3.704   0.160 -0.0358  0.1045 -0.5043
 1187SOL     hw 4746   1.355   3.693   0.071 -0.4517 -1.8072 -0.1511
 1187SOL     hw 4747   1.324   3.663   0.216  1.4901 -1.1034  0.4406
 1187SOL     vw 4748   1.376   3.697   0.155  0.1106 -0.3072 -0.3331
 1188SOL     ow 4749   7.285   0.844   6.706 -0.2874  0.1913  0.0587
 1188SOL     hw 4750   7.245   0.826   6.621  0.4075 -0.9743 -0.0450
 1188SOL     hw 4751   7.265   0.766   6.758 -1.1139  1.0858  1.1405
 1188SOL     vw 4752   7.277   0.831   6.702 -0.3049  0.1555  0.1876
 1189SOL     ow 4753   7.071   3.032   5.571 -0.3071 -0.6705  0.3796
 1189SOL     hw 4754   7.107   3.047   5.658 -1.4257  1.5087  0.5341
 1189SOL     hw 4755   6.984   2.995   5.588 -0.9318  0.6975  0.2516
 1189SOL     vw 4756   7.064   3.029   5.585 -0.5374 -0.2024  0.3827
 1190SOL     ow 4757   0.621   5.897   3.233  0.0576  0.2152  0.4463
 1190SOL     hw 4758   0.647   5.900   3.141  0.4376 -2.2237  0.3909
 1190SOL     hw 4759   0.531   5.930   3.234 -0.1809 -0.3202 -0.9309
 1190SOL     vw 4760   0.612   5.901   3.221  0.0763 -0.1771  0.2571
 1191SOL     ow 4761   7.410   6.649   6.979 -0.2434 -0.5694 -0.1102
 1191SOL     hw 4762   7.385   6.607   7.061 -0.8046 -1.2508 -0.6119
 1191SOL     hw 4763   7.426   6.577   6.919 -1.3667 -0.0895 -1.0365
 1191SOL     vw 4764   7.409   6.634   6.982 -0.4656 -0.5960 -0.2987
 1192SOL     ow 4765   6.002   5.308   4.712 -0.3256  0.8012 -0.1292
 1192SOL     hw 4766   6.024   5.344   4.798  1.0558  2.5185 -1.1184
 1192SOL     hw 4767   6.038   5.220   4.712  0.7802  1.2376  0.6265
 1192SOL     vw 4768   6.010   5.301   4.724  0.0024  1.0853 -0.1602
 1193SOL     ow 4769   5.885   4.511   2.709  0.3412 -0.6176  0.1983
 1193SOL     hw 4770   5.934   4.501   2.627  1.7141  3.4277  0.2861
 1193SOL     hw 4771   5.801   4.549   2.682  0.4559 -0.0870  0.5630
 1193SOL     vw 4772   5.880   4.515   2.695  0.5376 -0.0143  0.2580
 1194SOL     ow 4773   1.809   4.829   2.813 -0.2268 -0.0161  0.2714
 1194SOL     hw 4774   1.829   4.915   2.776  0.6838 -0.4353 -0.2561
 1194SOL     hw 4775   1.724   4.805   2.775 -0.0126  0.2192 -0.3638
 1194SOL     vw 4776   1.800   4.837   2.803 -0.0784 -0.0405  0.1180
 1195SOL     ow 4777   4.782   6.440   5.578  0.1150  0.1516 -0.0339
 1195SOL     hw 4778   4.733   6.487   5.510  0.2591  0.1060 -0.1709
 1195SOL     hw 4779   4.874   6.457   5.557  0.1517  0.7734  0.6045
 1195SOL     vw 4780   4.787   6.448   5.566  0.1392  0.2277  0.0322
 1196SOL     ow 4781   6.413   6.791   3.751 -0.0765 -0.4757 -0.3084
 1196SOL     hw 4782   6.399   6.835   3.667 -0.1898  1.4875  0.6915
 1196SOL     hw 4783   6.328   6.751   3.772 -0.9025  1.4280  0.1721
 1196SOL     vw 4784   6.400   6.791   3.742 -0.2005  0.0346 -0.1130
 1197SOL     ow 4785   0.503   2.821   2.479  0.0432 -1.0308  0.1997
 1197SOL     hw 4786   0.472   2.898   2.430 -1.3342 -0.8031  1.3764
 1197SOL     hw 4787   0.530   2.760   2.411 -0.3134 -0.1069 -0.8136
 1197SOL     vw 4788   0.502   2.823   2.463 -0.1855 -0.8789  0.2213
 1198SOL     ow 4789   3.650   6.670   3.444 -0.1834 -0.0219 -0.5278
 1198SOL     hw 4790   3.723   6.618   3.478 -0.0628  1.4129  1.5960
 1198SOL     hw 4791   3.660   6.665   3.348  1.9975 -0.8393 -0.3212
 1198SOL     vw 4792   3.661   6.662   3.436  0.1203  0.0596 -0.2204
 1199SOL     ow 4793   5.483   2.378   5.061  0.2156  0.7584 -0.1123
 1199SOL     hw 4794   5.431   2.320   5.006 -0.9489  0.7966  0.9198
 1199SOL     hw 4795   5.525   2.320   5.124 -0.2439  0.9393  0.3629
 1199SOL     vw 4796   5.482   2.363   5.062  0.0012  0.7873  0.0863
 1200SOL     ow 4797   6.023   0.684   2.270  0.0820  0.1520 -0.4587
 1200SOL     hw 4798   5.935   0.679   2.307  0.3613  0.9289  0.3496
 1200SOL     hw 4799   6.033   0.775   2.242  1.3021  0.6155  1.2694
 1200SOL     vw 4800   6.013   0.695   2.271  0.2799  0.3157 -0.1240
 1201SOL     ow 4801   4.577   7.136   1.777 -0.0380  1.5064 -0.6134
 1201SOL     hw 4802   4.612   7.056   1.738 -0.1821  0.9782  0.3041
 1201SOL     hw 4803   4.488   7.143   1.743 -0.7451  0.1696  0.7996
 1201SOL     vw 4804   4.570   7.126   1.767 -0.1502  1.2603 -0.3060
 1202SOL     ow 4805   3.219   0.116   1.396 -0.0953  0.1376 -0.3470
 1202SOL     hw 4806   3.228   0.084   1.485 -2.2207 -1.9925 -0.7693
 1202SOL     hw 4807   3.284   0.186   1.388  0.3491  0.2070  2.7346
 1202SOL     vw 4808   3.229   0.121   1.407 -0.3171 -0.1343  0.0039
 1203SOL     ow 4809   6.765   1.790   1.680  0.2364 -0.2884  0.2173
 1203SOL     hw 4810   6.700   1.860   1.692  1.1231  0.4199  1.0689
 1203SOL     hw 4811   6.713   1.711   1.663 -0.8364  0.3273  0.5725
 1203SOL     vw 4812   6.750   1.789   1.679  0.2115 -0.1137  0.3765
 1204SOL     ow 4813   3.333   0.743   4.747  0.4236 -0.1500  0.7758
 1204SOL     hw 4814   3.365   0.832   4.735  1.3052 -0.0853  3.0120
 1204SOL     hw 4815   3.343   0.702   4.661  0.5099  1.7310 -0.1625
 1204SOL     vw 4816   3.339   0.749   4.734  0.5512  0.1067  0.9470
 1205SOL     ow 4817   4.493   2.219   7.008  0.1119  0.3449 -0.3706
 1205SOL     hw 4818   4.411   2.218   7.057  1.1809 -1.3304  1.4954
 1205SOL     hw 4819   4.559   2.246   7.071  1.1812  0.7514 -1.6083
 1205SOL     vw 4820   4.491   2.223   7.023  0.3939  0.1775 -0.2878
 1206SOL     ow 4821   1.346   3.730   1.240 -0.2918  0.0970  0.1538
 1206SOL     hw 4822   1.334   3.681   1.159 -1.4058  0.5714  0.0196
 1206SOL     hw 4823   1.389   3.668   1.299  0.1073 -0.4012 -0.6334
 1206SOL     vw 4824   1.350   3.715   1.237 -0.3862  0.0938  0.0322
 1207SOL     ow 4825   5.324   0.912   4.446 -0.3184 -0.1031 -1.0116
 1207SOL     hw 4826   5.400   0.971   4.445 -1.3204  1.3139  0.9239
 1207SOL     hw 4827   5.354   0.837   4.498  0.4162 -0.5895 -2.0849
 1207SOL     vw 4828   5.338   0.910   4.453 -0.3536  0.0197 -0.8979
 1208SOL     ow 4829   6.861   0.856   0.185  0.0984 -0.4629  0.0842
 1208SOL     hw 4830   6.821   0.781   0.229  0.9210  0.3906  2.4484
 1208SOL     hw 4831   6.936   0.820   0.138 -0.6974 -1.3841 -0.5101
 1208SOL     vw 4832   6.866   0.842   0.185  0.1018 -0.4718  0.3177
 1209SOL     ow 4833   1.192   6.590   2.900 -0.2245 -0.3118  0.3823
 1209SOL     hw 4834   1.237   6.631   2.825 -1.4291 -0.0446 -0.2098
 1209SOL     hw 4835   1.256   6.596   2.971 -0.3263  2.6082  0.3450
 1209SOL     vw 4836   1.207   6.596   2.899 -0.3968  0.1087  0.2992
 1210SOL     ow 4837   0.812   3.290   2.270 -0.4336  0.0472 -0.2887
 1210SOL     hw 4838   0.786   3.351   2.201 -0.5724  0.4003  0.0687
 1210SOL     hw 4839   0.898   3.320   2.299 -0.0750 -0.5054 -0.7658
 1210SOL     vw 4840   0.820   3.302   2.265 -0.4045  0.0207 -0.3045
 1211SOL     ow 4841   5.846   1.000   5.414  0.5110 -0.4778 -0.0809
 1211SOL     hw 4842   5.899   1.061   5.465  2.3377  0.2453 -2.6335
 1211SOL     hw 4843   5.907   0.931   5.388 -0.1913 -0.5259 -1.6941
 1211SOL     vw 4844   5.861   0.999   5.417  0.6592 -0.3888 -0.6306
 1212SOL     ow 4845   1.995   1.850   3.101  0.3254  0.2303  0.2837
 1212SOL     hw 4846   1.957   1.932   3.134 -0.0711  0.4842 -0.7750
 1212SOL     hw 4847   1.922   1.788   3.099 -0.0173  0.6483 -1.5143
 1212SOL     vw 4848   1.981   1.853   3.105  0.2279  0.3189 -0.0932
 1213SOL     ow 4849   2.634   2.664   2.966 -0.3053 -0.4376  0.1668
 1213SOL     hw 4850   2.559   2.645   3.022 -0.8017 -1.3877 -0.7681
 1213SOL     hw 4851   2.691   2.588   2.976 -0.3527 -0.5691 -0.5338
 1213SOL     vw 4852   2.632   2.651   2.975 -0.3772 -0.5804 -0.0490
 1214SOL     ow 4853   3.434   1.842   0.018 -0.3409  0.0987 -0.1326
 1214SOL     hw 4854   3.351   1.805  -0.013 -0.4938  0.1407  0.2225
 1214SOL     hw 4855   3.411   1.891   0.097  0.3173 -1.6838  1.2504
 1214SOL     vw 4856   3.420   1.843   0.025 -0.2742 -0.1310  0.0967
 1215SOL     ow 4857   4.297   2.318   1.900  0.3693  0.0800 -0.2448
 1215SOL     hw 4858   4.245   2.238   1.911 -0.8928  0.9742  0.6123
 1215SOL     hw 4859   4.239   2.388   1.928  0.4996  1.6199 -3.4013
 1215SOL     vw 4860   4.283   2.316   1.905  0.2201  0.4013 -0.5481
 1216SOL     ow 4861   3.533   2.944   0.611 -0.4388  0.3622 -0.7200
 1216SOL     hw 4862   3.521   2.948   0.516  0.5715  2.1051 -0.8367
 1216SOL     hw 4863   3.469   3.006   0.646 -0.2896  0.3018 -0.3326
 1216SOL     vw 4864   3.523   2.953   0.603 -0.2859  0.5842 -0.6843
 1217SOL     ow 4865   0.977   6.509   3.259  0.3554  0.0615 -0.3347
 1217SOL     hw 4866   0.904   6.488   3.316  0.7219 -0.5967 -0.0973
 1217SOL     hw 4867   0.955   6.595   3.222 -1.1013 -0.6471 -1.1884
 1217SOL     vw 4868   0.964   6.518   3.261  0.2115 -0.1187 -0.4159
 1218SOL     ow 4869   6.974   2.140   5.428 -0.3268  0.0281 -0.0778
 1218SOL     hw 4870   6.960   2.194   5.506 -0.4251  0.1684 -0.1937
 1218SOL     hw 4871   7.042   2.185   5.378  0.4517 -0.5785  0.4102
 1218SOL     vw 4872   6.981   2.153   5.432 -0.2370 -0.0334 -0.0286
 1219SOL     ow 4873   6.050   5.677   5.608 -0.4781 -0.3976  0.0519
 1219SOL     hw 4874   6.070   5.667   5.701 -0.3351 -2.6814 -0.1781
 1219SOL     hw 4875   5.968   5.727   5.607  1.4010  3.0774  1.2053
 1219SOL     vw 4876   6.042   5.683   5.620 -0.2115 -0.2401  0.1740
 1220SOL     ow 4877   4.205   0.639   1.472 -0.1382  0.3825  0.6070
 1220SOL     hw 4878   4.188   0.677   1.558  0.9683  2.4855 -0.0109
 1220SOL     hw 4879   4.275   0.693   1.436  0.1261 -1.0759 -1.2149
 1220SOL     vw 4880   4.212   0.651   1.478  0.0429  0.4675  0.2851
 1221SOL     ow 4881   7.047   4.876   7.339 -0.0789 -0.1614 -0.2503
 1221SOL     hw 4882   6.997   4.952   7.309 -0.6937  0.0155  1.1307
 1221SOL     hw 4883   7.051   4.886   7.434  1.7493 -0.7074 -0.2433
 1221SOL     vw 4884   7.041   4.887   7.348  0.0815 -0.2103 -0.0670
 1222SOL     ow 4885   1.283   5.255   4.439  0.4885 -0.2347  0.6707
 1222SOL     hw 4886   1.252   5.297   4.359  0.6593 -1.0854  0.1476
 1222SOL     hw 4887   1.354   5.197   4.410  0.8664 -0.2090  1.5016
 1222SOL     vw 4888   1.288   5.253   4.424  0.5610 -0.3436  0.7114
 1223SOL     ow 4889   6.869   7.270   4.589 -0.4677  0.4422  0.4816
 1223SOL     hw 4890   6.950   7.319   4.574 -0.9442  0.7803 -1.3434
 1223SOL     hw 4891   6.897   7.182   4.615  0.6265 -0.1107 -2.2185
 1223SOL     vw 4892   6.883   7.265   4.590 -0.3865  0.4137 -0.1154
 1224SOL     ow 4893   6.017   5.989   1.514  0.1419 -0.7725 -0.1669
 1224SOL     hw 4894   6.088   5.967   1.574  0.7715 -0.0236 -0.6113
 1224SOL     hw 4895   6.028   5.929   1.440  1.0109  0.0588 -0.7428
 1224SOL     vw 4896   6.028   5.979   1.512  0.3395 -0.5641 -0.3015
 1225SOL     ow 4897   5.392   0.978   6.055 -0.0849 -0.2518 -0.4011
 1225SOL     hw 4898   5.485   1.002   6.056 -0.3700  0.9382 -0.2467
 1225SOL     hw 4899   5.374   0.947   6.144  0.2774 -0.9551 -0.5730
 1225SOL     vw 4900   5.402   0.977   6.067 -0.0746 -0.1876 -0.4036
 1226SOL     ow 4901   5.378   0.903   3.211  0.2535  0.6998  0.0758
 1226SOL     hw 4902   5.378   0.827   3.269 -0.8284  1.7366  1.4750
 1226SOL     hw 4903   5.416   0.974   3.263  0.2147  1.4109 -0.8240
 1226SOL     vw 4904   5.383   0.903   3.225  0.1056  0.9304  0.1417
 1227SOL     ow 4905   6.924   4.287   1.147 -0.1593  0.1250 -0.1807
 1227SOL     hw 4906   6.995   4.347   1.127  1.2327 -0.7163  1.7912
 1227SOL     hw 4907   6.885   4.265   1.063  1.3243  1.3503 -1.2267
 1227SOL     vw 4908   6.928   4.292   1.134  0.2201  0.1755 -0.0585
 1228SOL     ow 4909   7.441   5.852   6.436  0.1156  0.3769 -0.3397
 1228SOL     hw 4910   7.494   5.786   6.392  1.0622  0.8148  0.1023
 1228SOL     hw 4911   7.397   5.805   6.506  2.7726  0.5778  1.6526
 1228SOL     vw 4912   7.442   5.837   6.440  0.5910  0.4611 -0.0184
 1229SOL     ow 4913   2.843   4.230   7.019  0.0577 -0.0367  0.1041
 1229SOL     hw 4914   2.812   4.205   7.106  1.8130 -0.9954  0.5070
 1229SOL     hw 4915   2.851   4.148   6.971 -0.9507  0.4859 -1.0244
 1229SOL     vw 4916   2.840   4.216   7.024  0.1562 -0.0944  0.0083
 1230SOL     ow 4917   6.914   4.445   1.852 -0.2027  0.4628 -0.2081
 1230SOL     hw 4918   6.871   4.526   1.824 -1.8775 -0.9840 -2.2052
 1230SOL     hw 4919   7.005   4.455   1.824  0.4311  2.7704  2.2575
 1230SOL     vw 4920   6.920   4.457   1.844 -0.3402  0.5763 -0.1463
 1231SOL     ow 4921   1.929   5.519   5.507  0.2156 -0.3955  0.4692
 1231SOL     hw 4922   1.970   5.444   5.465  0.8892  1.5787 -2.8117
 1231SOL     hw 4923   1.998   5.586   5.510 -1.0837  1.0136  0.5157
 1231SOL     vw 4924   1.944   5.518   5.502  0.1331  0.0510  0.0424
 1232SOL     ow 4925   6.135   5.707   0.607  0.3911 -0.0336 -0.3726
 1232SOL     hw 4926   6.204   5.719   0.673 -1.7111  1.0107  1.7528
 1232SOL     hw 4927   6.100   5.620   0.626 -0.1490  0.2265 -0.1751
 1232SOL     vw 4928   6.140   5.697   0.618  0.0427  0.1385 -0.0661
 1233SOL     ow 4929   5.311   1.177   0.093 -0.1436  0.0870  0.6521
 1233SOL     hw 4930   5.334   1.216   0.177 -1.1681  0.5490  0.7336
 1233SOL     hw 4931   5.218   1.156   0.100  0.0303 -0.9469  0.0417
 1233SOL     vw 4932   5.302   1.179   0.105 -0.2558  0.0116  0.5823
 1234SOL     ow 4933   3.356   2.144   6.555 -0.0631 -0.1132 -0.1363
 1234SOL     hw 4934   3.413   2.206   6.508 -0.3493 -0.0755 -0.4348
 1234SOL     hw 4935   3.411   2.066   6.568 -0.5150 -0.8024 -2.0841
 1234SOL     vw 4936   3.371   2.142   6.551 -0.1606 -0.1992 -0.4327
 1235SOL     ow 4937   1.477   0.683   3.153 -0.6308 -0.0858  0.3328
 1235SOL     hw 4938   1.387   0.700   3.127  0.3218 -0.0545 -3.5101
 1235SOL     hw 4939   1.523   0.765   3.136  0.5176 -0.7375  0.1694
 1235SOL     vw 4940   1.471   0.696   3.147 -0.3536 -0.1676 -0.1956
 1236SOL     ow 4941   7.100   2.031   2.024 -0.0192 -0.0484 -0.5413
 1236SOL     hw 4942   7.107   1.986   2.109  0.4118  1.4641  0.2519
 1236SOL     hw 4943   7.189   2.059   2.005 -0.1727 -0.1118 -1.3648
 1236SOL     vw 4944   7.113   2.029   2.033  0.0172  0.1428 -0.5453
 1237SOL     ow 4945   6.988   6.499   7.349  0.0193 -0.3110  0.2796
 1237SOL     hw 4946   6.948   6.467   7.269  0.0770 -1.8345  0.8353
 1237SOL     hw 4947   6.913   6.519   7.406 -0.0100 -1.4957  0.6847
 1237SOL     vw 4948   6.972   6.498   7.346  0.0231 -0.6683  0.4063
 1238SOL     ow 4949   6.879   6.797   6.885  0.3102 -0.2456 -0.0548
 1238SOL     hw 4950   6.955   6.754   6.847  0.5507  1.2753 -1.3863
 1238SOL     hw 4951   6.870   6.878   6.835 -2.1099 -0.3221  0.1390
 1238SOL     vw 4952   6.888   6.802   6.873  0.0224 -0.0551 -0.2048
 1239SOL     ow 4953   0.117   1.812   0.529  0.2852 -0.1972  0.2279
 1239SOL     hw 4954   0.149   1.756   0.458 -0.1626 -0.3508  0.1434
 1239SOL     hw 4955   0.148   1.900   0.505 -1.1140  0.0241 -0.9767
 1239SOL     vw 4956   0.125   1.816   0.516  0.0415 -0.1883  0.0578
 1240SOL     ow 4957   5.654   5.300   3.456  0.8898 -0.6758 -0.1125
 1240SOL     hw 4958   5.723   5.352   3.496 -1.4620  1.8845  0.8832
 1240SOL     hw 4959   5.630   5.347   3.377 -0.8974 -0.4895  0.4917
 1240SOL     vw 4960   5.660   5.313   3.451  0.3438 -0.3133  0.0986
 1241SOL     ow 4961   3.885   0.498   1.962  0.5313  0.3775 -0.1621
 1241SOL     hw 4962   3.798   0.530   1.935  0.5493  0.2553 -0.3654
 1241SOL     hw 4963   3.939   0.577   1.965  0.7574  0.2912 -1.3534
 1241SOL     vw 4964   3.881   0.513   1.959  0.5635  0.3500 -0.3461
 1242SOL     ow 4965   1.098   1.777   1.230  0.3952  0.1067 -0.4908
 1242SOL     hw 4966   1.096   1.764   1.324 -2.3044  1.2308 -0.2842
 1242SOL     hw 4967   1.079   1.690   1.193 -1.3785  0.1790  0.1637
 1242SOL     vw 4968   1.095   1.764   1.237 -0.1950  0.2645 -0.3772
 1243SOL     ow 4969   4.744   4.476   0.053 -0.0433 -0.6143 -0.2747
 1243SOL     hw 4970   4.734   4.522   0.137  0.7918  0.7715 -0.8897
 1243SOL     hw 4971   4.809   4.528   0.006 -1.3949 -0.6350 -2.2812
 1243SOL     vw 4972   4.751   4.489   0.058 -0.1113 -0.4342 -0.6206
 1244SOL     ow 4973   4.111   2.970   3.240  0.2006 -0.1474 -0.3910
 1244SOL     hw 4974   4.173   2.900   3.221 -2.2618 -2.2911 -1.0071
 1244SOL     hw 4975   4.080   2.953   3.329  0.8397  1.2479  0.1382
 1244SOL     vw 4976   4.115   2.959   3.249 -0.0398 -0.2462 -0.4023
 1245SOL     ow 4977   3.798   3.788   0.975  0.2464  0.1826 -0.4662
 1245SOL     hw 4978   3.757   3.785   1.061 -2.1757 -1.4035 -1.5607
 1245SOL     hw 4979   3.861   3.716   0.975 -2.2915 -2.1994 -1.0667
 1245SOL     vw 4980   3.801   3.778   0.986 -0.4081 -0.3411 -0.6899
 1246SOL     ow 4981   7.118   7.461   3.102  0.3096  0.5933  1.0488
 1246SOL     hw 4982   7.070   7.505   3.172  1.2181 -0.1906  2.1992
 1246SOL     hw 4983   7.104   7.367   3.118  1.2396  0.3840  0.6974
 1246SOL     vw 4984   7.109   7.454   3.113  0.5524  0.4623  1.1543
 1247SOL     ow 4985   5.672   1.807   2.618 -0.0490 -0.3887 -0.1260
 1247SOL     hw 4986   5.630   1.723   2.631  0.1883 -0.5916 -0.6235
 1247SOL     hw 4987   5.692   1.839   2.706  0.1349 -0.9882  0.0497
 1247SOL     vw 4988   5.669   1.800   2.631  0.0064 -0.4945 -0.1686
 1248SOL     ow 4989   6.413   0.978   4.823  0.2887 -0.0339 -0.3069
 1248SOL     hw 4990   6.444   0.959   4.735 -1.5759 -3.3472 -0.4083
 1248SOL     hw 4991   6.449   0.908   4.877 -0.4253  0.6560  1.1250
 1248SOL     vw 4992   6.422   0.966   4.819 -0.0517 -0.3800 -0.1314
 1249SOL     ow 4993   0.114   1.941   5.058  0.2395  0.1319 -0.1407
 1249SOL     hw 4994   0.058   1.869   5.029  1.3186 -0.2453 -1.4165
 1249SOL     hw 4995   0.077   1.968   5.142  0.4799 -2.6740  0.9747
 1249SOL     vw 4996   0.102   1.935   5.065  0.4136 -0.2881 -0.1616
 1250SOL     ow 4997   5.992   6.565   4.945  0.7180  0.0967  0.7013
 1250SOL     hw 4998   5.984   6.471   4.934  1.5466 -0.0621  1.3751
 1250SOL     hw 4999   6.085   6.583   4.935  0.4502  1.0009 -0.5016
 1250SOL     vw 5000   6.003   6.555   4.942  0.7923  0.1950  0.6313
 1251SOL     ow 5001   6.572   4.180   0.927  0.4458  0.6233  0.1846
 1251SOL     hw 5002   6.547   4.155   1.015 -0.6164  0.7361 -0.0704
 1251SOL     hw 5003   6.557   4.102   0.874  2.2890  0.1502  0.2902
 1251SOL     vw 5004   6.566   4.167   0.931  0.5488  0.5755  0.1649
 1252SOL     ow 5005   5.580   5.404   1.013  0.2718 -1.2337 -0.3318
 1252SOL     hw 5006   5.525   5.469   1.057  0.8061  0.2147 -1.7166
 1252SOL     hw 5007   5.519   5.346   0.968 -0.1772 -0.0387 -1.3066
 1252SOL     vw 5008   5.565   5.405   1.013  0.2830 -0.8852 -0.6430
 1253SOL     ow 5009   3.653   0.651   1.922 -0.0233 -0.1027  0.3012
 1253SOL     hw 5010   3.581   0.590   1.938 -0.6836  0.2249 -1.2101
 1253SOL     hw 5011   3.610   0.730   1.890  1.0075 -0.1306 -1.2693
 1253SOL     vw 5012   3.638   0.653   1.920  0.0257 -0.0632 -0.1054
 1254SOL     ow 5013   5.711   4.506   5.897 -0.4326  0.0077 -0.1673
 1254SOL     hw 5014   5.719   4.575   5.830  0.4923  0.2010  0.1290
 1254SOL     hw 5015   5.689   4.554   5.977  1.6871  0.1648  0.3783
 1254SOL     vw 5016   5.709   4.522   5.899 -0.0312  0.0539 -0.0560
 1255SOL     ow 5017   5.182   5.675   2.008 -0.2276 -0.1544 -0.8495
 1255SOL     hw 5018   5.140   5.761   2.003 -1.9999 -0.9411 -0.3515
 1255SOL     hw 5019   5.118   5.619   2.052  1.1776 -1.5694 -0.4938
 1255SOL     vw 5020   5.168   5.679   2.013 -0.2761 -0.4451 -0.7368
 1256SOL     ow 5021   5.282   2.779   3.871  0.5375  0.2711  0.0270
 1256SOL     hw 5022   5.242   2.692   3.874  1.4711 -0.1551  2.2569
 1256SOL     hw 5023   5.359   2.772   3.927  0.8530  2.4553 -0.0380
 1256SOL     vw 5024   5.287   2.767   3.879  0.7024  0.5031  0.3127
 1257SOL     ow 5025   2.647   2.297   1.580  0.4365  0.6200  0.3972
 1257SOL     hw 5026   2.625   2.227   1.642 -0.1241 -0.5302 -1.0439
 1257SOL     hw 5027   2.617   2.377   1.624 -0.4918 -0.2212  1.3711
 1257SOL     vw 5028   2.640   2.299   1.594  0.2401  0.3573  0.3356
 1258SOL     ow 5029   1.308   6.868   3.716  0.0214 -0.0171  0.4952
 1258SOL     hw 5030   1.287   6.944   3.769 -2.0370 -0.1326 -0.0741
 1258SOL     hw 5031   1.393   6.889   3.676  0.7812  0.7954  2.4082
 1258SOL     vw 5032   1.317   6.880   3.717 -0.1499  0.0746  0.6725
 1259SOL     ow 5033   3.965   6.382   4.266  0.3494  0.6812  0.0290
 1259SOL     hw 5034   4.016   6.419   4.337 -0.6637  1.8310  0.1885
 1259SOL     hw 5035   3.888   6.344   4.308  0.1245  0.6712 -0.3817
 1259SOL     vw 5036   3.962   6.381   4.281  0.1860  0.8316 -0.0038
 1260SOL     ow 5037   3.855   3.177   7.096  0.6084 -0.2793 -0.2075
 1260SOL     hw 5038   3.881   3.223   7.016 -0.3809 -0.6835 -0.7712
 1260SOL     hw 5039   3.916   3.104   7.102  2.1800  1.0110  0.6786
 1260SOL     vw 5040   3.867   3.174   7.087  0.6853 -0.1622 -0.1650
 1261SOL     ow 5041   1.599   5.667   3.814 -0.1679  0.0306  0.1189
 1261SOL     hw 5042   1.617   5.758   3.839 -2.6351  1.3299 -2.2095
 1261SOL     hw 5043   1.534   5.637   3.877  0.0989  0.1763  0.4622
 1261SOL     vw 5044   1.593   5.675   3.825 -0.4582  0.2215 -0.1429
 1262SOL     ow 5045   4.207   6.698   3.269  0.8039  0.0753  0.1543
 1262SOL     hw 5046   4.180   6.770   3.326 -0.8567  0.1938 -0.7258
 1262SOL     hw 5047   4.282   6.659   3.314  2.2003  2.7208  0.3627
 1262SOL     vw 5048   4.213   6.703   3.282  0.7691  0.4401  0.0657
 1263SOL     ow 5049   3.270   7.374   5.178 -0.1317 -0.0075 -0.2918
 1263SOL     hw 5050   3.202   7.323   5.221 -0.7407  0.0095 -1.1987
 1263SOL     hw 5051   3.344   7.314   5.169 -0.3740 -0.3280 -0.1660
 1263SOL     vw 5052   3.271   7.360   5.183 -0.2441 -0.0474 -0.3948
 1264SOL     ow 5053   5.375   0.652   0.918 -0.1043  0.0324 -0.6037
 1264SOL     hw 5054   5.331   0.695   0.845 -1.0742  0.4494  0.1883
 1264SOL     hw 5055   5.338   0.563   0.919 -0.1267  0.0420 -0.5867
 1264SOL     vw 5056   5.364   0.646   0.909 -0.2353  0.0887 -0.4970
 1265SOL     ow 5057   4.551   0.123   3.593 -0.1292  0.0999  0.0350
 1265SOL     hw 5058   4.516   0.181   3.525  1.0536 -0.2211 -0.8770
 1265SOL     hw 5059   4.619   0.175   3.636 -0.4344  0.0746  0.5585
 1265SOL     vw 5060   4.555   0.137   3.590 -0.0134  0.0542 -0.0163
 1266SOL     ow 5061   4.169   5.070   4.633 -0.1800  0.1781  0.2989
 1266SOL     hw 5062   4.239   5.135   4.632  0.1442 -0.1660 -0.6253
 1266SOL     hw 5063   4.200   5.002   4.692 -0.4746  0.7994  1.1914
 1266SOL     vw 5064   4.182   5.070   4.640 -0.1762  0.2148  0.2949
 1267SOL     ow 5065   5.420   2.080   1.225  0.6976 -0.0776 -0.1400
 1267SOL     hw 5066   5.468   2.071   1.307  1.1682  2.2198 -0.1083
 1267SOL     hw 5067   5.463   2.152   1.179 -1.3330  0.5852 -1.1123
 1267SOL     vw 5068   5.432   2.088   1.229  0.4916  0.3129 -0.2640
 1268SOL     ow 5069   3.500   3.126   1.243  0.3648 -0.2090 -0.1836
 1268SOL     hw 5070   3.472   3.062   1.309  0.7259 -0.7833 -0.5845
 1268SOL     hw 5071   3.502   3.077   1.161  0.7439  0.2881 -0.4750
 1268SOL     vw 5072   3.497   3.111   1.241  0.4624 -0.2192 -0.2749
 1269SOL     ow 5073   7.329   1.693   0.714 -0.0606  0.6464  0.2243
 1269SOL     hw 5074   7.356   1.657   0.799  1.5073 -0.3846 -0.6710
 1269SOL     hw 5075   7.235   1.675   0.710 -0.0450  0.1413  1.4598
 1269SOL     vw 5076   7.320   1.686   0.725  0.1485  0.4437  0.2692
 1270SOL     ow 5077   6.372   4.721   4.874 -0.4713 -0.1199  0.3621
 1270SOL     hw 5078   6.291   4.743   4.920  0.0521  0.4999  0.9993
 1270SOL     hw 5079   6.400   4.803   4.834 -0.5570 -0.5044 -0.4962
 1270SOL     vw 5080   6.365   4.734   4.875 -0.4139 -0.0887  0.3326
 1271SOL     ow 5081   7.220   7.201   0.860 -0.4483 -0.2301  0.8582
 1271SOL     hw 5082   7.265   7.147   0.795 -1.8829 -2.1645  1.3712
 1271SOL     hw 5083   7.282   7.208   0.932  0.2069 -0.1723  0.2987
 1271SOL     vw 5084   7.234   7.195   0.861 -0.5512 -0.4776  0.8521
 1272SOL     ow 5085   0.575   5.456   3.591  0.0501 -0.2627  0.2776
 1272SOL     hw 5086   0.636   5.529   3.591  0.6444 -0.7458 -0.6671
 1272SOL     hw 5087   0.620   5.387   3.641  1.0674 -1.2239 -1.8551
 1272SOL     vw 5088   0.589   5.456   3.598  0.2628 -0.4532 -0.1285
 1273SOL     ow 5089   7.362   2.932   4.550  0.0556  0.3628  0.3098
 1273SOL     hw 5090   7.296   2.864   4.543  1.8004 -1.3007 -0.7354
 1273SOL     hw 5091   7.426   2.912   4.481 -0.4713  4.3721 -1.6580
 1273SOL     vw 5092   7.362   2.921   4.540  0.2162  0.6723 -0.0880
 1274SOL     ow 5093   6.069   6.169   3.171  0.0709 -1.1499 -0.2709
 1274SOL     hw 5094   6.133   6.190   3.239  0.9481  0.2498 -1.4653
 1274SOL     hw 5095   6.120   6.169   3.090 -1.2253 -1.3136 -1.1156
 1274SOL     vw 5096   6.084   6.172   3.169  0.0153 -0.9868 -0.5400
 1275SOL     ow 5097   4.581   7.205   1.051 -0.2717  0.7470 -0.2320
 1275SOL     hw 5098   4.529   7.141   1.003  0.2150  0.0670  0.1320
 1275SOL     hw 5099   4.517   7.267   1.085 -0.7200  0.6469 -0.8623
 1275SOL     vw 5100   4.566   7.205   1.049 -0.2666  0.6442 -0.2672
 1276SOL     ow 5101   4.438   3.768   4.634  0.4822  0.2830  0.3569
 1276SOL     hw 5102   4.457   3.742   4.724 -2.1339  0.5914  1.0681
 1276SOL     hw 5103   4.433   3.863   4.636  0.4449  0.2965 -0.1433
 1276SOL     vw 5104   4.440   3.777   4.646  0.1323  0.3256  0.3846
 1277SOL     ow 5105   6.015   2.899   1.269  0.2470  0.0881  0.1887
 1277SOL     hw 5106   6.037   2.834   1.202 -0.1637 -0.5185  0.6311
 1277SOL     hw 5107   6.095   2.950   1.279  1.5639 -2.1335  1.8313
 1277SOL     vw 5108   6.028   2.897   1.261  0.3664 -0.2850  0.4638
 1278SOL     ow 5109   4.222   1.428   1.932  0.1187 -0.2618  0.0443
 1278SOL     hw 5110   4.207   1.406   2.023 -0.1540  1.6910  0.5276
 1278SOL     hw 5111   4.303   1.382   1.909  1.8076  1.4053  2.1670
 1278SOL     vw 5112   4.231   1.419   1.941  0.3059  0.2158  0.3881
 1279SOL     ow 5113   1.719   6.433   2.282  0.8044  0.3341  0.2548
 1279SOL     hw 5114   1.648   6.420   2.344  0.3638  1.6784  0.0717
 1279SOL     hw 5115   1.785   6.367   2.306 -0.0274 -0.1996  1.1222
 1279SOL     vw 5116   1.719   6.423   2.293  0.6365  0.4411  0.3451
 1280SOL     ow 5117   3.410   5.222   1.575 -0.0101  0.2199  0.4316
 1280SOL     hw 5118   3.452   5.167   1.641 -1.2789 -0.2415  0.9028
 1280SOL     hw 5119   3.469   5.296   1.563  0.7839 -0.2645  1.2473
 1280SOL     vw 5120   3.423   5.224   1.582 -0.0726  0.0951  0.6014
 1281SOL     ow 5121   7.020   6.153   3.539 -0.1336 -0.0306 -0.0484
 1281SOL     hw 5122   7.098   6.167   3.593 -1.6374  0.9709  2.0329
 1281SOL     hw 5123   7.006   6.236   3.494 -0.3920  0.0354  0.1508
 1281SOL     vw 5124   7.028   6.166   3.541 -0.3662  0.1104  0.2525
 1282SOL     ow 5125   6.793   5.186   6.356 -0.1346  1.0559  0.1254
 1282SOL     hw 5126   6.705   5.193   6.319 -0.4997  0.9052  0.9652
 1282SOL     hw 5127   6.845   5.147   6.285 -1.1192 -0.5100  0.2221
 1282SOL     vw 5128   6.789   5.182   6.342 -0.3126  0.8292  0.2487
 1283SOL     ow 5129   3.368   3.409   4.984  0.4484 -0.2528 -0.6258
 1283SOL     hw 5130   3.280   3.378   5.004 -0.2980  1.0730 -1.7692
 1283SOL     hw 5131   3.403   3.437   5.069 -0.3944 -0.3347 -0.2410
 1283SOL     vw 5132   3.361   3.409   4.998  0.2388 -0.0887 -0.7260
 1284SOL     ow 5133   1.087   0.488   4.678  0.1935 -0.4858  0.2868
 1284SOL     hw 5134   1.110   0.521   4.765  0.5797  0.9826 -0.3421
 1284SOL     hw 5135   1.170   0.458   4.641  0.6732  1.8883 -0.7675
 1284SOL     vw 5136   1.101   0.489   4.684  0.3077  0.0212  0.0648
 1285SOL     ow 5137   5.443   5.459   0.606 -0.2045 -0.0202  0.1626
 1285SOL     hw 5138   5.445   5.410   0.688 -0.0811  0.6104  0.5438
 1285SOL     hw 5139   5.363   5.512   0.612 -0.4937 -0.3836 -0.3739
 1285SOL     vw 5140   5.433   5.459   0.617 -0.2265  0.0148  0.1421
 1286SOL     ow 5141   4.351   2.282   1.543  0.6133 -0.0324 -0.0089
 1286SOL     hw 5142   4.414   2.262   1.473  2.2260  1.0680  1.0674
 1286SOL     hw 5143   4.386   2.360   1.586 -1.0434  0.1029  1.1979
 1286SOL     vw 5144   4.364   2.290   1.539  0.6073  0.1305  0.2924
 1287SOL     ow 5145   4.910   6.977   7.042 -0.0255  0.3266 -0.1869
 1287SOL     hw 5146   4.893   6.882   7.043 -0.7826  0.4540 -0.4246
 1287SOL     hw 5147   4.938   6.994   6.952  0.9400  0.1950  0.0804
 1287SOL     vw 5148   4.911   6.967   7.030  0.0021  0.3262 -0.1829
 1288SOL     ow 5149   2.257   2.619   4.528 -0.0689  0.1322  0.3766
 1288SOL     hw 5150   2.230   2.711   4.527  2.0178  0.8142  1.2955
 1288SOL     hw 5151   2.176   2.571   4.548 -0.9733  1.8627  1.1676
 1288SOL     vw 5152   2.242   2.625   4.531  0.0871  0.4504  0.6020
 1289SOL     ow 5153   7.463   0.579   6.519  0.2165  0.3646 -0.5023
 1289SOL     hw 5154   7.433   0.546   6.434 -0.2332  0.6456 -0.4551
 1289SOL     hw 5155   7.421   0.664   6.528 -1.0953 -0.3762  0.7530
 1289SOL     vw 5156   7.454   0.586   6.509 -0.0157  0.3040 -0.3304
 1290SOL     ow 5157   5.667   0.301   3.910  0.2862 -0.7063  0.2270
 1290SOL     hw 5158   5.644   0.263   3.995  0.3046  0.0680  0.5809
 1290SOL     hw 5159   5.684   0.393   3.928  0.8978 -0.6644 -0.5152
 1290SOL     vw 5160   5.666   0.308   3.924  0.3693 -0.5986  0.1758
 1291SOL     ow 5161   7.163   5.205   4.403 -0.6513 -0.2631  0.8076
 1291SOL     hw 5162   7.147   5.283   4.455  0.6059 -0.1767  1.1020
 1291SOL     hw 5163   7.082   5.154   4.409 -0.8669  0.2006  2.0370
 1291SOL     vw 5164   7.150   5.208   4.410 -0.5140 -0.1907  1.0085
 1292SOL     ow 5165   1.900   0.480   3.241 -0.7733 -0.1083  0.6626
 1292SOL     hw 5166   1.935   0.393   3.257 -1.5688 -0.3303  1.1814
 1292SOL     hw 5167   1.968   0.539   3.274 -0.6331 -0.5297  1.1325
 1292SOL     vw 5168   1.914   0.477   3.247 -0.8598 -0.1932  0.7931
 1293SOL     ow 5169   6.941   1.067   5.079 -0.6758  0.3824 -0.6223
 1293SOL     hw 5170   6.863   1.027   5.118  1.1200  0.0754  2.9890
 1293SOL     hw 5171   6.992   0.993   5.045 -0.0274  0.1237  0.8649
 1293SOL     vw 5172   6.937   1.052   5.080 -0.3531  0.3077  0.0503
 1294SOL     ow 5173   5.963   4.050   6.214  0.7362 -0.1861  0.1191
 1294SOL     hw 5174   5.921   4.113   6.273 -0.0203 -0.6719  0.1102
 1294SOL     hw 5175   5.919   4.062   6.130  0.1770 -1.1250  0.2666
 1294SOL     vw 5176   5.952   4.060   6.211  0.5627 -0.3743  0.1378
 1295SOL     ow 5177   5.798   0.936   2.379  0.3066  0.0896  0.3275
 1295SOL     hw 5178   5.703   0.929   2.394  0.4342 -1.2875  0.6889
 1295SOL     hw 5179   5.832   0.976   2.459  0.1851 -0.7860  0.8281
 1295SOL     vw 5180   5.790   0.940   2.392  0.3073 -0.2075  0.4413
 1296SOL     ow 5181   1.315   2.379   1.497  0.2121 -0.2745 -0.7220
 1296SOL     hw 5182   1.324   2.473   1.481  0.5158 -0.0812  0.4758
 1296SOL     hw 5183   1.221   2.363   1.494  0.0060  0.4372  0.8462
 1296SOL     vw 5184   1.304   2.389   1.494  0.2249 -0.1551 -0.3570
 1297SOL     ow 5185   7.357   2.461   0.676 -0.0608  0.2946  0.3647
 1297SOL     hw 5186   7.363   2.512   0.595 -0.8872 -0.1074  0.0481
 1297SOL     hw 5187   7.292   2.507   0.729  0.6099  0.6605  0.8849
 1297SOL     vw 5188   7.350   2.474   0.673 -0.0815  0.2899  0.3916
 1298SOL     ow 5189   5.418   0.631   3.872  0.4198  0.0072  0.6291
 1298SOL     hw 5190   5.428   0.565   3.941 -0.8516 -0.4539  0.3981
 1298SOL     hw 5191   5.504   0.634   3.830  0.4967 -1.5720  0.5858
 1298SOL     vw 5192   5.431   0.622   3.876  0.2623 -0.2620  0.5929
 1299SOL     ow 5193   5.299   5.047   4.705 -0.2560  0.4150 -0.0810
 1299SOL     hw 5194   5.224   5.061   4.762 -0.1490  0.3051  0.0880
 1299SOL     hw 5195   5.261   5.006   4.627 -0.3750  0.3822 -0.0075
 1299SOL     vw 5196   5.284   5.043   4.702 -0.2577  0.3960 -0.0489
 1300SOL     ow 5197   6.548   4.617   0.768 -0.2623  0.7639  0.5521
 1300SOL     hw 5198   6.507   4.531   0.758  0.8165  0.3877 -0.8589
 1300SOL     hw 5199   6.551   4.653   0.679  2.1638  0.8825  0.6124
 1300SOL     vw 5200   6.543   4.610   0.755  0.2000  0.7300  0.3739
 1301SOL     ow 5201   0.408   5.755   7.157  0.2207  0.0819  0.1640
 1301SOL     hw 5202   0.375   5.742   7.068 -1.1836  2.6030  0.2325
 1301SOL     hw 5203   0.355   5.695   7.210  0.3278 -0.6669 -0.5541
 1301SOL     vw 5204   0.397   5.745   7.152  0.0496  0.3159  0.0782
 1302SOL     ow 5205   3.480   3.464   5.986  0.5326  0.1054 -0.5639
 1302SOL     hw 5206   3.423   3.517   6.042  0.0052  0.3788 -1.3572
 1302SOL     hw 5207   3.424   3.394   5.953  0.3844  0.9410 -2.1428
 1302SOL     vw 5208   3.465   3.462   5.989  0.4433  0.2517 -0.8769
 1303SOL     ow 5209   0.206   5.329   0.387 -0.2662  0.2055  0.2817
 1303SOL     hw 5210   0.291   5.296   0.414 -0.4674  0.4968  1.3247
 1303SOL     hw 5211   0.223   5.417   0.355 -0.1180  0.1127  0.1047
 1303SOL     vw 5212   0.219   5.336   0.387 -0.2732  0.2320  0.3960
 1304SOL     ow 5213   6.318   6.345   4.798  0.1970  0.0500  0.1571
 1304SOL     hw 5214   6.366   6.319   4.876 -1.6888  1.1042  1.7302
 1304SOL     hw 5215   6.293   6.436   4.814  1.1078  0.8441 -2.3971
 1304SOL     vw 5216   6.321   6.354   4.810  0.0684  0.2940  0.0277
 1305SOL     ow 5217   4.633   7.100   1.275  0.2876 -0.1186 -0.2628
 1305SOL     hw 5218   4.700   7.035   1.256  0.2310  0.1776 -1.5171
 1305SOL     hw 5219   4.610   7.138   1.190  0.0124  1.2397  0.3874
 1305SOL     vw 5220   4.638   7.097   1.261  0.2437  0.0999 -0.3425
 1306SOL     ow 5221   5.831   2.273   1.514  0.0403 -0.4918  0.1744
 1306SOL     hw 5222   5.893   2.285   1.586  0.6187  0.5486 -0.4836
 1306SOL     hw 5223   5.788   2.358   1.505 -0.2548 -0.7064 -0.5012
 1306SOL     vw 5224   5.833   2.286   1.522  0.0775 -0.3828 -0.0015
 1307SOL     ow 5225   3.796   4.605   3.605  0.1480  0.5089  0.1594
 1307SOL     hw 5226   3.852   4.677   3.635 -0.7855  0.9600  0.8546
 1307SOL     hw 5227   3.774   4.557   3.685 -1.8885  1.3734  0.1629
 1307SOL     vw 5228   3.801   4.608   3.620 -0.2439  0.6826  0.2517
 1308SOL     ow 5229   3.881   0.840   0.648  0.2946 -0.1604  0.2827
 1308SOL     hw 5230   3.836   0.828   0.564 -4.4254 -1.8651  2.6618
 1308SOL     hw 5231   3.880   0.935   0.663 -1.1992 -0.0258 -0.4976
 1308SOL     vw 5232   3.875   0.851   0.639 -0.5251 -0.3675  0.4936
 1309SOL     ow 5233   3.839   6.360   7.213 -0.3995  0.0152 -0.0921
 1309SOL     hw 5234   3.743   6.367   7.209 -0.4219 -0.0278  0.3302
 1309SOL     hw 5235   3.855   6.287   7.273 -0.1224 -1.4306 -1.8258
 1309SOL     vw 5236   3.828   6.351   7.220 -0.3659 -0.1814 -0.2651
 1310SOL     ow 5237   6.056   0.463   2.605 -0.2722 -0.2966  0.1127
 1310SOL     hw 5238   6.141   0.483   2.567 -0.2297 -1.7431 -0.6037
 1310SOL     hw 5239   5.999   0.448   2.530 -1.4246  1.5595  0.5573
 1310SOL     vw 5240   6.059   0.464   2.590 -0.4189 -0.2425  0.0769
 1311SOL     ow 5241   2.765   2.881   0.642 -0.5329  0.4202  0.3230
 1311SOL     hw 5242   2.714   2.961   0.655 -0.6117  0.3390  0.5195
 1311SOL     hw 5243   2.753   2.831   0.723 -1.2307 -0.2045 -0.1445
 1311SOL     vw 5244   2.756   2.885   0.655 -0.6355  0.3271  0.2873
 1312SOL     ow 5245   3.849   5.207   1.146  0.0517 -0.0678 -0.3058
 1312SOL     hw 5246   3.827   5.200   1.053  1.4405 -2.1775 -0.5308
 1312SOL     hw 5247   3.770   5.176   1.191 -0.4725  0.5504 -0.7707
 1312SOL     vw 5248   3.835   5.202   1.140  0.1657 -0.2646 -0.3968
 1313SOL     ow 5249   6.110   3.810   6.833  0.0427 -0.2343 -0.6695
 1313SOL     hw 5250   6.132   3.760   6.755 -1.6406  0.1584 -1.4568
 1313SOL     hw 5251   6.054   3.881   6.801 -0.3750  0.1657  0.8359
 1313SOL     vw 5252   6.105   3.813   6.819 -0.2344 -0.1297 -0.5748
 1314SOL     ow 5253   2.531   3.140   2.711  0.1030  0.4199 -0.7713
 1314SOL     hw 5254   2.531   3.204   2.639 -1.1958  0.9005 -0.3664
 1314SOL     hw 5255   2.490   3.186   2.784 -1.6098 -1.0940 -0.6950
 1314SOL     vw 5256   2.525   3.154   2.711 -0.2944  0.2836 -0.7076
 1315SOL     ow 5257   3.537   5.445   2.703 -0.6486  0.1410 -0.3469
 1315SOL     hw 5258   3.493   5.373   2.658  0.0078 -2.1208  2.3416
 1315SOL     hw 5259   3.620   5.408   2.733  1.0010  2.8856 -1.1647
 1315SOL     vw 5260   3.542   5.430   2.701 -0.3443  0.2046 -0.1001
 1316SOL     ow 5261   6.867   3.831   2.286  0.1897  0.7550  0.9280
 1316SOL     hw 5262   6.947   3.883   2.287  0.6435  0.1364  2.8764
 1316SOL     hw 5263   6.847   3.816   2.379  0.1090 -2.4771  0.5271
 1316SOL     vw 5264   6.875   3.836   2.298  0.2389  0.2470  1.1324
 1317SOL     ow 5265   6.323   6.092   5.718 -0.0318 -0.2158  0.1154
 1317SOL     hw 5266   6.324   6.097   5.814  2.6512 -1.5429  0.2559
 1317SOL     hw 5267   6.306   6.000   5.699 -1.3781  0.1862 -0.7458
 1317SOL     vw 5268   6.321   6.081   5.728  0.1442 -0.3381  0.0203
 1318SOL     ow 5269   6.308   6.708   1.298  0.3319  0.5585  0.2316
 1318SOL     hw 5270   6.311   6.739   1.207  1.6114  0.3153  0.1737
 1318SOL     hw 5271   6.372   6.637   1.301 -1.4086 -1.0802  0.7502
 1318SOL     vw 5272   6.317   6.703   1.286  0.2708  0.3104  0.2924
 1319SOL     ow 5273   1.329   0.562   5.148  0.2055 -0.0198 -0.0393
 1319SOL     hw 5274   1.351   0.653   5.166 -0.7150  0.1613  0.2530
 1319SOL     hw 5275   1.365   0.513   5.222 -0.6401  0.3110  0.6159
 1319SOL     vw 5276   1.337   0.567   5.160 -0.0274  0.0477  0.0856
 1320SOL     ow 5277   3.300   3.316   1.395  0.1462 -0.0727  0.1000
 1320SOL     hw 5278   3.380   3.341   1.440  0.1928 -0.5015  0.2614
 1320SOL     hw 5279   3.326   3.242   1.340  0.4155  1.2870 -1.6896
 1320SOL     vw 5280   3.314   3.310   1.393  0.1879  0.0502 -0.1148
 1321SOL     ow 5281   4.789   7.377   6.653  0.1359  0.4639  0.7164
 1321SOL     hw 5282   4.856   7.325   6.610  0.5688 -1.3051  3.2844
 1321SOL     hw 5283   4.809   7.467   6.628  1.1623 -0.3228 -1.5238
 1321SOL     vw 5284   4.801   7.382   6.644  0.3283  0.1268  0.7596
 1322SOL     ow 5285   6.157   5.103   2.302  0.3355 -0.4506  0.0387
 1322SOL     hw 5286   6.196   5.027   2.259 -1.2206  0.4553 -3.3414
 1322SOL     hw 5287   6.063   5.083   2.304  0.2431 -0.0700  2.4688
 1322SOL     vw 5288   6.150   5.090   2.297  0.1180 -0.2806 -0.0867
 1323SOL     ow 5289   6.678   5.721   7.337 -0.2723 -0.2804 -0.1817
 1323SOL     hw 5290   6.762   5.678   7.354 -0.2860 -0.2722 -0.0962
 1323SOL     hw 5291   6.702   5.802   7.292 -0.1499  0.3773  1.0428
 1323SOL     vw 5292   6.692   5.726   7.333 -0.2582 -0.1926 -0.0086
 1324SOL     ow 5293   3.849   2.682   3.394  0.0442 -0.5160  0.6618
 1324SOL     hw 5294   3.909   2.730   3.451  0.4954 -1.8696  1.3681
 1324SOL     hw 5295   3.896   2.674   3.311  0.2765 -0.3675  0.7767
 1324SOL     vw 5296   3.863   2.687   3.391  0.1343 -0.6750  0.7702
 1325SOL     ow 5297   4.636   1.205   5.162  0.1190 -0.4415  0.3302
 1325SOL     hw 5298   4.569   1.147   5.197  1.0077 -1.0723  1.0323
 1325SOL     hw 5299   4.717   1.177   5.205  0.7665  0.5574 -0.1999
 1325SOL     vw 5300   4.638   1.194   5.172  0.3216 -0.3930  0.3531
 1326SOL     ow 5301   5.126   7.306   1.110  0.1177  0.1945 -0.0637
 1326SOL     hw 5302   5.090   7.319   1.022 -0.6786  1.7561  0.4525
 1326SOL     hw 5303   5.218   7.330   1.103  0.2485 -0.4226 -0.6118
 1326SOL     vw 5304   5.133   7.311   1.098  0.0298  0.3190 -0.0679
 1327SOL     ow 5305   1.827   0.679   3.040 -0.2161  0.1784  0.1022
 1327SOL     hw 5306   1.884   0.695   2.965 -1.0900 -0.4543 -0.7340
 1327SOL     hw 5307   1.806   0.765   3.074  1.6300  0.4079  0.7511
 1327SOL     vw 5308   1.831   0.692   3.035 -0.0879  0.1252  0.0774
 1328SOL     ow 5309   2.079   5.675   6.926  0.6378 -0.6063  0.4046
 1328SOL     hw 5310   2.002   5.670   6.982 -0.5314  1.0842 -0.9834
 1328SOL     hw 5311   2.149   5.702   6.986 -0.0895 -0.8996  1.4295
 1328SOL     vw 5312   2.078   5.678   6.941  0.3875 -0.4220  0.3567
 1329SOL     ow 5313   5.253   2.904   3.641  0.4982 -0.5497  0.0177
 1329SOL     hw 5314   5.257   2.845   3.716  0.0831  0.9770  1.2800
 1329SOL     hw 5315   5.320   2.970   3.658  0.4383 -0.2079 -0.9827
 1329SOL     vw 5316   5.263   2.905   3.653  0.4354 -0.3031  0.0522
 1330SOL     ow 5317   6.967   6.906   3.002 -0.0694 -0.1007 -0.4155
 1330SOL     hw 5318   6.890   6.857   2.972 -1.2615  1.3664  0.1274
 1330SOL     hw 5319   7.041   6.852   2.976 -1.3045 -2.0134 -0.1650
 1330SOL     vw 5320   6.967   6.892   2.995 -0.3898 -0.1595 -0.3109
 1331SOL     ow 5321   1.293   5.733   1.474 -0.2550 -0.0298  0.2197
 1331SOL     hw 5322   1.327   5.703   1.390 -0.7786  0.7849 -0.2922
 1331SOL     hw 5323   1.303   5.657   1.532 -1.5501 -1.2226 -1.0396
 1331SOL     vw 5324   1.299   5.719   1.470 -0.4950 -0.0799 -0.0139
 1332SOL     ow 5325   7.175   2.745   5.633  0.2348  0.0875  0.5762
 1332SOL     hw 5326   7.128   2.819   5.595 -0.7376 -0.8911 -0.1759
 1332SOL     hw 5327   7.110   2.676   5.640  0.9583 -0.4889  1.9393
 1332SOL     vw 5328   7.161   2.746   5.629  0.2019 -0.1177  0.6571
 1333SOL     ow 5329   6.476   6.884   2.046 -0.6841 -0.0833 -0.1168
 1333SOL     hw 5330   6.539   6.930   2.101  0.7091 -1.0546 -0.8265
 1333SOL     hw 5331   6.459   6.944   1.973 -0.5608  0.1724  0.0646
 1333SOL     vw 5332   6.482   6.898   2.043 -0.4842 -0.1774 -0.1866
 1334SOL     ow 5333   4.634   7.017   6.999 -0.2545  0.8734 -0.0693
 1334SOL     hw 5334   4.639   7.095   6.944 -0.2964  0.6417 -0.4049
 1334SOL     hw 5335   4.724   7.003   7.029 -0.3836  1.5024  0.6358
 1334SOL     vw 5336   4.647   7.025   6.995 -0.2770  0.9258 -0.0205
 1335SOL     ow 5337   1.404   4.402   4.469 -0.0793  0.4285 -0.1480
 1335SOL     hw 5338   1.435   4.418   4.380 -1.1191 -1.4429 -0.8962
 1335SOL     hw 5339   1.403   4.307   4.478  0.9268  0.5657  2.2345
 1335SOL     vw 5340   1.408   4.392   4.458 -0.0838  0.1998  0.0677
 1336SOL     ow 5341   1.596   2.951   0.550 -0.1658 -0.3063 -0.2185
 1336SOL     hw 5342   1.611   2.903   0.632  1.4696  0.0133 -0.3038
 1336SOL     hw 5343   1.638   3.036   0.565 -1.7316  0.5796 -0.6182
 1336SOL     vw 5344   1.603   2.956   0.563 -0.1566 -0.1472 -0.2825
 1337SOL     ow 5345   3.821   0.633   4.879  0.0578 -0.1966 -0.5661
 1337SOL     hw 5346   3.840   0.542   4.854 -0.4771 -0.1063 -1.3227
 1337SOL     hw 5347   3.886   0.685   4.832  1.1779 -0.2631  0.8504
 1337SOL     vw 5348   3.832   0.628   4.870  0.1348 -0.1935 -0.4790
 1338SOL     ow 5349   3.238   0.006   4.460  0.1087 -0.4721 -0.2006
 1338SOL     hw 5350   3.279   0.083   4.501 -0.5419 -1.1806  1.9233
 1338SOL     hw 5351   3.144   0.028   4.457  0.2602  0.2536 -3.0290
 1338SOL     vw 5352   3.231   0.019   4.465  0.0428 -0.4699 -0.2935
 1339SOL     ow 5353   0.986   1.336   5.876  0.1502  0.3630 -0.2816
 1339SOL     hw 5354   0.957   1.306   5.962 -0.0588 -1.5870 -1.0034
 1339SOL     hw 5355   0.905   1.346   5.825  0.2923  1.2619 -0.3471
 1339SOL     vw 5356   0.971   1.334   5.881  0.1414  0.2243 -0.3855
 1340SOL     ow 5357   0.128   1.096   6.691  0.1536 -0.1299 -0.1233
 1340SOL     hw 5358   0.167   1.163   6.746  0.6828 -0.3760 -0.1945
 1340SOL     hw 5359   0.177   1.101   6.608  1.9830 -2.2972  0.7181
 1340SOL     vw 5360   0.140   1.105   6.687  0.4648 -0.4482 -0.0217
 1341SOL     ow 5361   2.097   2.252   7.191 -0.1373 -0.2208  0.3771
 1341SOL     hw 5362   2.074   2.326   7.134  2.3500 -1.5951 -2.7336
 1341SOL     hw 5363   2.016   2.203   7.199 -0.5540 -0.1841 -2.5027
 1341SOL     vw 5364   2.083   2.256   7.184  0.1359 -0.3973 -0.4134
 1342SOL     ow 5365   0.403   2.205   0.071 -0.2014 -0.2329  0.0843
 1342SOL     hw 5366   0.382   2.287   0.116  0.7700  0.1431 -0.1337
 1342SOL     hw 5367   0.423   2.144   0.142  0.4400  0.1118  0.2111
 1342SOL     vw 5368   0.403   2.208   0.086  0.0114 -0.1378  0.0722
 1343SOL     ow 5369   5.369   1.336   0.314  0.0102  0.3889  0.2466
 1343SOL     hw 5370   5.274   1.337   0.324 -0.2849 -0.2852 -1.8942
 1343SOL     hw 5371   5.391   1.423   0.280 -0.1721 -0.1540 -1.3484
 1343SOL     vw 5372   5.360   1.348   0.311 -0.0529  0.2282 -0.2463
 1344SOL     ow 5373   7.460   3.197   6.703  0.2238 -0.2695 -0.2829
 1344SOL     hw 5374   7.440   3.272   6.647 -1.9951  0.0046  0.7961
 1344SOL     hw 5375   7.397   3.130   6.677  1.7509 -1.5723 -0.7776
 1344SOL     vw 5376   7.449   3.198   6.692  0.1323 -0.4054 -0.2058
 1345SOL     ow 5377   2.475   4.766   5.512 -0.2943 -0.3013  0.0781
 1345SOL     hw 5378   2.446   4.810   5.592 -1.3131  0.0012 -0.4452
 1345SOL     hw 5379   2.421   4.687   5.508  0.8631 -1.1472  0.5091
 1345SOL     vw 5380   2.464   4.761   5.522 -0.2761 -0.3731  0.0660
 1346SOL     ow 5381   0.067   2.468   4.866  0.4449  0.5810 -0.1098
 1346SOL     hw 5382   0.161   2.484   4.873  0.4525  0.0264  1.5250
 1346SOL     hw 5383   0.059   2.397   4.801  1.2615 -0.1920  0.6066
 1346SOL     vw 5384   0.078   2.461   4.858  0.5537  0.4059  0.2005
 1347SOL     ow 5385   2.895   6.947   3.065 -0.4055  0.5689  0.7555
 1347SOL     hw 5386   2.856   6.892   2.996 -0.5994  0.0199  1.2961
 1347SOL     hw 5387   2.916   7.029   3.021  0.5116 -0.1706 -0.2292
 1347SOL     vw 5388   2.893   6.951   3.050 -0.3101  0.3989  0.6969
 1348SOL     ow 5389   5.841   1.222   1.575  0.6668  0.2257 -0.2236
 1348SOL     hw 5390   5.825   1.310   1.609  0.1117  0.4495 -1.0372
 1348SOL     hw 5391   5.834   1.165   1.652 -0.2514  0.7501  0.0882
 1348SOL     vw 5392   5.838   1.227   1.590  0.4723  0.3244 -0.2899
 1349SOL     ow 5393   5.746   5.131   0.786  0.3446 -0.1141  0.5503
 1349SOL     hw 5394   5.664   5.102   0.746  1.8992 -2.7774 -0.9734
 1349SOL     hw 5395   5.792   5.178   0.716  0.8678 -0.1978  0.8305
 1349SOL     vw 5396   5.741   5.133   0.772  0.6187 -0.4764  0.3862
 1350SOL     ow 5397   2.057   4.948   5.108 -0.3869 -0.1989  0.8184
 1350SOL     hw 5398   1.980   4.983   5.153 -0.4612 -1.6481  1.9084
 1350SOL     hw 5399   2.129   5.005   5.135 -0.9650  0.8487  0.2118
 1350SOL     vw 5400   2.057   4.960   5.118 -0.4730 -0.2520  0.8824
 1351SOL     ow 5401   0.879   0.067   6.096 -0.2037  0.1557  0.0364
 1351SOL     hw 5402   0.896   0.160   6.085 -0.2504  0.3565  1.4118
 1351SOL     hw 5403   0.807   0.063   6.160  0.3498 -0.8203  0.6290
 1351SOL     vw 5404   0.872   0.079   6.103 -0.1368  0.0534  0.2961
 1352SOL     ow 5405   1.351   2.287   1.746 -0.3971 -0.3241  0.0458
 1352SOL     hw 5406   1.352   2.322   1.657 -0.5879 -1.2079 -0.3122
 1352SOL     hw 5407   1.264   2.307   1.780  0.3537  1.9160  0.8321
 1352SOL     vw 5408   1.340   2.294   1.739 -0.3232 -0.1450  0.1023
 1353SOL     ow 5409   2.200   4.035   2.126  0.0810 -0.0499 -0.7115
 1353SOL     hw 5410   2.120   4.082   2.103 -0.1544 -0.5634 -0.9461
 1353SOL     hw 5411   2.205   3.964   2.063 -0.5080 -1.4025  0.6868
 1353SOL     vw 5412   2.190   4.032   2.115 -0.0279 -0.2959 -0.5580
 1354SOL     ow 5413   1.392   4.784   0.499 -0.1099  0.4492 -0.1175
 1354SOL     hw 5414   1.345   4.805   0.419  1.0204  0.5917 -0.7651
 1354SOL     hw 5415   1.384   4.689   0.508  0.2539  0.3606 -0.7228
 1354SOL     vw 5416   1.385   4.774   0.490  0.0871  0.4561 -0.2828
 1355SOL     ow 5417   6.718   2.323   5.189 -0.2404  0.3864 -0.4369
 1355SOL     hw 5418   6.644   2.303   5.132 -0.4401 -0.6777  0.1668
 1355SOL     hw 5419   6.691   2.292   5.276  0.7726  0.2989 -0.1362
 1355SOL     vw 5420   6.705   2.317   5.193 -0.1330  0.2345 -0.3176
 1356SOL     ow 5421   4.989   3.289   0.151 -0.2565  0.5165 -0.3210
 1356SOL     hw 5422   5.024   3.318   0.235  1.8073 -1.8411 -0.2785
 1356SOL     hw 5423   4.981   3.370   0.100 -1.8029  2.0459  2.1146
 1356SOL     vw 5424   4.992   3.304   0.155 -0.1884  0.4072  0.0059
 1357SOL     ow 5425   2.979   1.868   6.062 -0.3246  0.1686  0.7287
 1357SOL     hw 5426   3.038   1.811   6.014 -2.7410 -1.5680 -0.3708
 1357SOL     hw 5427   2.964   1.942   6.003 -1.6341 -0.9306 -0.3841
 1357SOL     vw 5428   2.985   1.871   6.048 -0.8161 -0.2056  0.4370
 1358SOL     ow 5429   6.639   1.886   4.813 -0.1414 -0.9424 -0.1961
 1358SOL     hw 5430   6.659   1.868   4.721 -1.2648  2.0442 -1.1334
 1358SOL     hw 5431   6.710   1.942   4.843 -0.7618 -0.3309  0.1600
 1358SOL     vw 5432   6.651   1.891   4.805 -0.3712 -0.4677 -0.2730
 1359SOL     ow 5433   1.052   6.763   7.439  0.0136  0.2125 -0.7093
 1359SOL     hw 5434   1.005   6.680   7.443 -0.5779  0.5169 -1.1873
 1359SOL     hw 5435   0.995   6.824   7.486  0.7119  0.2328  0.1371
 1359SOL     vw 5436   1.038   6.760   7.446  0.0277  0.2553 -0.6607
 1360SOL     ow 5437   0.079   4.601   0.085 -0.2147 -0.2930  0.0534
 1360SOL     hw 5438   0.132   4.527   0.115  0.7217  0.3949  0.1417
 1360SOL     hw 5439   0.058   4.581  -0.006  0.2200 -0.5571  0.0109
 1360SOL     vw 5440   0.083   4.588   0.077 -0.0338 -0.2372  0.0594
 1361SOL     ow 5441   0.845   0.350   4.674 -0.2940 -0.6429 -0.2354
 1361SOL     hw 5442   0.870   0.258   4.663  0.6750 -0.5952  1.3437
 1361SOL     hw 5443   0.925   0.399   4.653 -0.8343 -0.1344 -1.1704
 1361SOL     vw 5444   0.859   0.344   4.670 -0.2374 -0.5695 -0.1504
 1362SOL     ow 5445   4.917   4.801   5.246  0.5496 -0.0036 -0.1262
 1362SOL     hw 5446   5.012   4.794   5.239  0.5263 -0.0801 -0.3902
 1362SOL     hw 5447   4.890   4.720   5.290  0.8289  1.1023  2.2286
 1362SOL     vw 5448   4.926   4.789   5.251  0.5834  0.1321  0.1497
 1363SOL     ow 5449   4.390   4.430   6.140  0.2733  0.3708 -0.3935
 1363SOL     hw 5450   4.477   4.466   6.124  0.7790 -0.9407 -0.6281
 1363SOL     hw 5451   4.394   4.340   6.110 -0.5779 -0.3308  1.4304
 1363SOL     vw 5452   4.402   4.423   6.134  0.2275  0.1051 -0.1838
 1364SOL     ow 5453   3.805   5.143   0.864  0.0130 -0.2225 -0.3713
 1364SOL     hw 5454   3.723   5.192   0.858 -0.1113 -0.1906  1.1529
 1364SOL     hw 5455   3.811   5.096   0.781 -1.1452  0.3942 -0.8303
 1364SOL     vw 5456   3.795   5.143   0.852 -0.1560 -0.1371 -0.2307
 1365SOL     ow 5457   5.741   1.038   1.799  0.2688  0.0386 -0.3478
 1365SOL     hw 5458   5.703   1.020   1.713 -1.5798  1.5914  0.0699
 1365SOL     hw 5459   5.747   0.953   1.841 -0.6983 -0.5243 -1.2984
 1365SOL     vw 5460   5.736   1.025   1.793 -0.1030  0.1692 -0.4181
 1366SOL     ow 5461   2.925   1.754   7.332  0.2604 -0.0700 -0.7114
 1366SOL     hw 5462   3.011   1.788   7.357 -0.1000  1.0487 -0.9400
 1366SOL     hw 5463   2.863   1.802   7.387 -0.2372 -0.7973 -0.6175
 1366SOL     vw 5464   2.928   1.764   7.343  0.1472 -0.0184 -0.7288
 1367SOL     ow 5465   4.253   0.496   1.777 -0.0782  0.0154 -0.5649
 1367SOL     hw 5466   4.221   0.428   1.718  0.3966 -0.5983 -0.1277
 1367SOL     hw 5467   4.331   0.531   1.735 -0.5088  0.5321 -0.9504
 1367SOL     vw 5468   4.259   0.492   1.764 -0.0722  0.0026 -0.5581
 1368SOL     ow 5469   2.112   5.075   5.500  0.2564 -0.3205 -0.4458
 1368SOL     hw 5470   2.161   5.107   5.575 -0.0670 -1.1215  0.1330
 1368SOL     hw 5471   2.169   5.010   5.459  0.5846  0.3850 -1.1294
 1368SOL     vw 5472   2.126   5.071   5.505  0.2571 -0.3328 -0.4599
 1369SOL     ow 5473   4.740   3.189   0.134  0.4140  0.2907  0.2070
 1369SOL     hw 5474   4.687   3.269   0.128 -0.0096  0.0762  0.9834
 1369SOL     hw 5475   4.829   3.220   0.151  0.0450  0.5688  1.7573
 1369SOL     vw 5476   4.744   3.204   0.135  0.3092  0.2991  0.5140
 1370SOL     ow 5477   2.619   0.562   3.120  0.1133 -0.0093  0.1091
 1370SOL     hw 5478   2.637   0.492   3.183 -0.9035  0.2531  0.7302
 1370SOL     hw 5479   2.562   0.622   3.169 -0.4683  0.3433 -0.9826
 1370SOL     vw 5480   2.614   0.561   3.135 -0.0975  0.0719  0.0471
 1371SOL     ow 5481   1.348   1.482   0.391  0.3530  0.3493 -0.4510
 1371SOL     hw 5482   1.279   1.445   0.337 -0.8392  0.5998  0.8429
 1371SOL     hw 5483   1.326   1.575   0.397 -0.0080  0.1882  1.1006
 1371SOL     vw 5484   1.336   1.490   0.385  0.1481  0.3611 -0.0756
 1372SOL     ow 5485   2.360   5.439   2.488  0.7113 -0.0414  0.3132
 1372SOL     hw 5486   2.286   5.479   2.443  0.4122  1.2479  1.8505
 1372SOL     hw 5487   2.388   5.505   2.551  1.0608 -1.7610  2.0523
 1372SOL     vw 5488   2.354   5.453   2.490  0.7179 -0.0982  0.7453
 1373SOL     ow 5489   6.162   4.903   3.494 -0.1025  0.1155  0.1389
 1373SOL     hw 5490   6.158   4.828   3.435 -0.7852 -0.0280  0.3546
 1373SOL     hw 5491   6.102   4.881   3.565 -0.9401  1.2102 -0.2005
 1373SOL     vw 5492   6.154   4.891   3.496 -0.3033  0.2408  0.1227
 1374SOL     ow 5493   3.768   6.059   2.888  0.3245  0.1726  0.1361
 1374SOL     hw 5494   3.810   6.100   2.963 -1.7035 -0.9304  1.9614
 1374SOL     hw 5495   3.730   5.978   2.922 -0.5111 -0.4715 -2.1255
 1374SOL     vw 5496   3.769   6.053   2.902 -0.0533 -0.0582  0.0786
 1375SOL     ow 5497   0.211   2.090   3.293  0.4998  0.3316 -0.4503
 1375SOL     hw 5498   0.283   2.029   3.279  0.5428  0.6302 -1.6166
 1375SOL     hw 5499   0.135   2.047   3.254  0.1988  0.3555  0.0965
 1375SOL     vw 5500   0.210   2.076   3.286  0.4658  0.3741 -0.5322
 1376SOL     ow 5501   6.549   2.987   6.787 -0.0554  0.1638  0.1129
 1376SOL     hw 5502   6.586   2.940   6.862 -3.5753 -0.3896  1.6906
 1376SOL     hw 5503   6.540   3.078   6.817  1.1315  0.5918 -0.7407
 1376SOL     vw 5504   6.553   2.993   6.801 -0.3631  0.1473  0.2081
 1377SOL     ow 5505   2.839   4.708   6.774 -0.0806 -0.1060 -0.2830
 1377SOL     hw 5506   2.871   4.722   6.684  0.4309  1.3086  0.0948
 1377SOL     hw 5507   2.835   4.613   6.783 -1.0573 -0.2888 -2.1222
 1377SOL     vw 5508   2.843   4.697   6.763 -0.1420  0.0565 -0.4759
 1378SOL     ow 5509   6.984   6.323   6.732  0.0319 -0.6384  0.0871
 1378SOL     hw 5510   6.975   6.411   6.696 -2.1017 -1.1369 -0.7536
 1378SOL     hw 5511   6.998   6.268   6.655 -0.6506 -1.2521  0.3892
 1378SOL     vw 5512   6.985   6.327   6.717 -0.3400 -0.7851  0.0162
 1379SOL     ow 5513   4.042   1.180   2.233  0.6612  0.0855 -0.0683
 1379SOL     hw 5514   4.087   1.123   2.170  1.1288  0.4368 -0.0623
 1379SOL     hw 5515   4.095   1.260   2.234  0.5610  0.1506  0.6458
 1379SOL     vw 5516   4.055   1.183   2.225  0.7095  0.1405  0.0267
 1380SOL     ow 5517   1.225   6.827   1.256 -0.0881  0.3694 -0.0095
 1380SOL     hw 5518   1.192   6.738   1.272  3.4439 -1.4373 -1.5077
 1380SOL     hw 5519   1.268   6.851   1.337  2.0399 -0.9618 -0.6482
 1380SOL     vw 5520   1.226   6.818   1.269  0.6586 -0.0446 -0.2914
 1381SOL     ow 5521   1.179   4.033   2.696  0.4305 -0.2145 -0.4923
 1381SOL     hw 5522   1.152   3.950   2.655 -0.6559 -0.5915  0.9185
 1381SOL     hw 5523   1.146   4.100   2.635  0.1369 -0.7822 -0.9778
 1381SOL     vw 5524   1.171   4.030   2.682  0.2485 -0.3390 -0.3703
 1382SOL     ow 5525   4.148   0.350   1.576 -0.2634  0.3308 -0.3678
 1382SOL     hw 5526   4.150   0.258   1.550  0.0776  0.4283 -0.6903
 1382SOL     hw 5527   4.129   0.397   1.494 -1.2861  0.4887 -0.0605
 1382SOL     vw 5528   4.145   0.344   1.562 -0.3533  0.3645 -0.3698
 1383SOL     ow 5529   5.525   0.187   4.140 -0.4888 -0.6389 -0.2187
 1383SOL     hw 5530   5.470   0.216   4.213 -0.7409 -0.9273 -0.2966
 1383SOL     hw 5531   5.516   0.092   4.138  0.9592 -0.8277  0.5325
 1383SOL     vw 5532   5.517   0.179   4.150 -0.3312 -0.7019 -0.1299
 1384SOL     ow 5533   2.367   1.517   6.897  0.3263  0.4197  0.4128
 1384SOL     hw 5534   2.414   1.599   6.908  1.5204 -0.2703  0.5830
 1384SOL     hw 5535   2.289   1.540   6.845 -0.8396  2.1470  2.7819
 1384SOL     vw 5536   2.363   1.531   6.891  0.3301  0.5566  0.7479
 1385SOL     ow 5537   7.467   4.765   7.205 -0.2735  0.4375 -0.2146
 1385SOL     hw 5538   7.475   4.775   7.110 -0.1404  0.4200 -0.2057
 1385SOL     hw 5539   7.489   4.674   7.222 -1.3105  0.1650 -0.2742
 1385SOL     vw 5540   7.471   4.754   7.195 -0.3927  0.3994 -0.2213
 1386SOL     ow 5541   0.435   0.092   7.324  0.4406 -0.1865 -0.2090
 1386SOL     hw 5542   0.506   0.057   7.271  0.4225  0.1914 -0.4889
 1386SOL     hw 5543   0.478   0.152   7.385  0.6641 -1.7971  1.2908
 1386SOL     vw 5544   0.450   0.095   7.325  0.4677 -0.3492 -0.0482
 1387SOL     ow 5545   3.993   1.974   4.345 -0.5226  0.0870  0.7009
 1387SOL     hw 5546   4.085   1.951   4.346 -0.5861 -0.1521  1.6132
 1387SOL     hw 5547   3.975   1.998   4.254  0.4674  0.2824  0.5513
 1387SOL     vw 5548   4.003   1.974   4.333 -0.4003  0.0812  0.8016
 1388SOL     ow 5549   7.297   5.184   0.613  0.0583  0.3113  0.0870
 1388SOL     hw 5550   7.234   5.252   0.588  0.2218  0.3894 -0.1184
 1388SOL     hw 5551   7.383   5.225   0.598  0.1588 -0.0285 -0.2747
 1388SOL     vw 5552   7.300   5.199   0.607  0.0930  0.2768  0.0122
 1389SOL     ow 5553   3.524   2.786   0.829 -0.6949 -0.1440  0.6596
 1389SOL     hw 5554   3.457   2.729   0.791  0.0848 -1.0760  0.6275
 1389SOL     hw 5555   3.546   2.848   0.759 -1.4762  0.1379  0.6564
 1389SOL     vw 5556   3.518   2.787   0.815 -0.6952 -0.2298  0.6549
 1390SOL     ow 5557   2.372   1.209   1.545  0.0157 -0.3069  0.1948
 1390SOL     hw 5558   2.465   1.187   1.541  0.0117 -0.6205  1.4881
 1390SOL     hw 5559   2.333   1.156   1.475  0.9089  0.4781 -0.9338
 1390SOL     vw 5560   2.379   1.199   1.535  0.1330 -0.2447  0.2165
 1391SOL     ow 5561   5.020   6.863   1.055 -0.1065 -0.4872  0.5949
 1391SOL     hw 5562   5.114   6.877   1.039 -0.6709  2.1449 -1.0983
 1391SOL     hw 5563   4.985   6.843   0.968 -1.1929 -0.8261  1.1052
 1391SOL     vw 5564   5.028   6.862   1.041 -0.3242 -0.1843  0.4389
 1392SOL     ow 5565   3.611   2.516   0.283  0.4689 -0.3658  0.0250
 1392SOL     hw 5566   3.609   2.611   0.299 -0.6975 -0.3883  0.1028
 1392SOL     hw 5567   3.691   2.502   0.232  1.6005  0.4147  1.5018
 1392SOL     vw 5568   3.621   2.527   0.279  0.4643 -0.2658  0.2301
 1393SOL     ow 5569   0.028   0.807   0.670  0.0631  0.0839 -0.5405
 1393SOL     hw 5570   0.081   0.884   0.692  2.0320 -0.9197 -1.5596
 1393SOL     hw 5571   0.034   0.751   0.747  0.9080 -0.2419 -0.8387
 1393SOL     vw 5572   0.036   0.810   0.683  0.4344 -0.0915 -0.7143
 1394SOL     ow 5573   3.639   4.357   3.480  0.1617  0.7857  0.0256
 1394SOL     hw 5574   3.674   4.269   3.487  0.7387  1.0729  0.9013
 1394SOL     hw 5575   3.544   4.346   3.478  0.2349  0.1500  0.0937
 1394SOL     vw 5576   3.631   4.344   3.481  0.2475  0.7398  0.1501
 1395SOL     ow 5577   1.755   0.655   3.938  0.2265  0.2413  0.0692
 1395SOL     hw 5578   1.818   0.717   3.901 -0.4329  0.0878 -1.3788
 1395SOL     hw 5579   1.683   0.653   3.875 -0.0773 -1.4827  0.4158
 1395SOL     vw 5580   1.754   0.663   3.925  0.0994 -0.0064 -0.0762
 1396SOL     ow 5581   1.841   4.516   1.920 -0.4168 -0.1146 -0.2250
 1396SOL     hw 5582   1.884   4.467   1.850 -0.3431  0.3500 -0.5140
 1396SOL     hw 5583   1.791   4.451   1.969  0.3185 -0.6038 -0.1098
 1396SOL     vw 5584   1.840   4.501   1.917 -0.3101 -0.1175 -0.2480
 1397SOL     ow 5585   2.837   5.633   6.267 -0.4157  0.0168  0.3412
 1397SOL     hw 5586   2.923   5.602   6.240 -0.3717  0.8008 -0.4713
 1397SOL     hw 5587   2.779   5.559   6.253  0.4542 -1.2892  3.0132
 1397SOL     vw 5588   2.840   5.619   6.261 -0.2949 -0.0522  0.5865
 1398SOL     ow 5589   0.014   2.727   5.780  0.0395  0.2616 -0.5587
 1398SOL     hw 5590   0.105   2.742   5.755  0.1177 -0.0897 -0.4924
 1398SOL     hw 5591   0.006   2.763   5.868  0.4183 -0.7170 -0.1054
 1398SOL     vw 5592   0.025   2.733   5.788  0.0999  0.0862 -0.4904
 1399SOL     ow 5593   0.435   0.821   4.452  0.0218 -0.4314  0.6739
 1399SOL     hw 5594   0.383   0.889   4.409  1.5315  1.2931  1.4085
 1399SOL     hw 5595   0.382   0.793   4.526 -0.1769  0.7803  1.0126
 1399SOL     vw 5596   0.421   0.827   4.456  0.1948 -0.0440  0.8156
 1400SOL     ow 5597   6.251   5.996   4.506 -0.1642  0.0773 -0.0883
 1400SOL     hw 5598   6.236   6.041   4.589 -1.1254 -0.2909 -0.0443
 1400SOL     hw 5599   6.335   6.029   4.475 -0.4616  1.2913  0.3399
 1400SOL     vw 5600   6.260   6.006   4.513 -0.3302  0.1893 -0.0260
 1401SOL     ow 5601   7.080   0.636   0.803 -0.5216  0.2918 -0.3776
 1401SOL     hw 5602   7.075   0.553   0.755  2.1402  0.0453 -0.3507
 1401SOL     hw 5603   7.138   0.617   0.877 -1.2896  1.7463  0.6407
 1401SOL     vw 5604   7.087   0.622   0.806 -0.2718  0.4512 -0.2398
 1402SOL     ow 5605   3.809   4.949   1.273 -0.0185 -0.4379  0.1828
 1402SOL     hw 5606   3.814   4.923   1.181 -1.2039  0.4264 -0.1389
 1402SOL     hw 5607   3.899   4.939   1.305  0.6404  0.3209 -1.3639
 1402SOL     vw 5608   3.822   4.944   1.265 -0.0879 -0.2239 -0.0637
 1403SOL     ow 5609   5.974   2.889   6.319  0.1587  0.6692  0.2728
 1403SOL     hw 5610   5.956   2.891   6.413 -1.6356 -0.1671 -0.0185
 1403SOL     hw 5611   5.946   2.975   6.287  0.1875  0.7271  0.4018
 1403SOL     vw 5612   5.968   2.901   6.328 -0.0744  0.5665  0.2515
 1404SOL     ow 5613   6.534   2.015   6.582  0.1094 -0.1186  0.0540
 1404SOL     hw 5614   6.537   1.981   6.672 -0.7906 -2.1032 -0.6011
 1404SOL     hw 5615   6.477   2.092   6.588  0.1465 -0.1518  1.1977
 1404SOL     vw 5616   6.527   2.020   6.595 -0.0043 -0.3849  0.1185
 1405SOL     ow 5617   6.240   4.794   7.350  0.9772  0.2153  0.3197
 1405SOL     hw 5618   6.311   4.730   7.356  0.9485  0.1891  0.3865
 1405SOL     hw 5619   6.226   4.806   7.256 -1.1790 -2.3328  0.1857
 1405SOL     vw 5620   6.247   4.787   7.338  0.6890 -0.1245  0.3109
 1406SOL     ow 5621   5.843   1.489   1.675 -0.1723 -0.0114 -0.3794
 1406SOL     hw 5622   5.798   1.537   1.604 -0.3492 -1.7023 -1.4580
 1406SOL     hw 5623   5.799   1.518   1.755 -1.3610  0.3907 -1.1541
 1406SOL     vw 5624   5.832   1.499   1.676 -0.3524 -0.1814 -0.6239
 1407SOL     ow 5625   6.569   1.349   1.752 -0.3750 -0.2618 -0.5346
 1407SOL     hw 5626   6.478   1.331   1.776 -0.4251  1.8768  1.1180
 1407SOL     hw 5627   6.580   1.305   1.667 -2.3366 -2.1683  0.1131
 1407SOL     vw 5628   6.558   1.340   1.744 -0.6409 -0.2311 -0.2312
 1408SOL     ow 5629   1.040   5.460   2.006 -0.1440 -0.0653  0.0708
 1408SOL     hw 5630   1.053   5.523   1.934 -0.8268  1.4815  1.2321
 1408SOL     hw 5631   1.019   5.515   2.081 -0.8162 -1.7252  1.1393
 1408SOL     vw 5632   1.039   5.476   2.006 -0.3228 -0.0801  0.3650
 1409SOL     ow 5633   3.616   3.850   6.977  0.4809  0.6732  0.4680
 1409SOL     hw 5634   3.583   3.818   6.893  0.6066  0.0136  0.6649
 1409SOL     hw 5635   3.607   3.945   6.971  1.0953  0.6952 -0.5643
 1409SOL     vw 5636   3.611   3.859   6.965  0.5785  0.5890  0.3576
 1410SOL     ow 5637   5.984   3.577   1.124  0.2046  0.3394  0.0619
 1410SOL     hw 5638   5.940   3.493   1.129 -1.3936  1.1069 -0.5895
 1410SOL     hw 5639   5.950   3.626   1.199  0.4111  0.7282 -0.0951
 1410SOL     vw 5640   5.974   3.573   1.135  0.0210  0.4920 -0.0447
 1411SOL     ow 5641   3.427   0.088   3.344  0.1554  0.1898  0.0745
 1411SOL     hw 5642   3.417   0.095   3.439  1.6191  0.6873  0.2153
 1411SOL     hw 5643   3.369   0.155   3.309 -0.6609 -0.2291  0.5863
 1411SOL     vw 5644   3.418   0.098   3.352  0.2408  0.2002  0.1606
 1412SOL     ow 5645   6.576   6.490   0.336 -0.4877  0.5158  0.3063
 1412SOL     hw 5646   6.520   6.554   0.291 -2.6071 -0.8287  0.8714
 1412SOL     hw 5647   6.646   6.472   0.274 -1.6247  1.0185 -1.1933
 1412SOL     vw 5648   6.578   6.496   0.322 -0.9172  0.4046  0.1830
 1413SOL     ow 5649   6.054   7.332   5.216  0.0763  0.1787 -0.4821
 1413SOL     hw 5650   6.015   7.303   5.299  0.6450  0.0093 -0.2692
 1413SOL     hw 5651   6.095   7.254   5.180 -2.2545 -0.3568 -2.1488
 1413SOL     vw 5652   6.054   7.318   5.222 -0.1562  0.0856 -0.6738
 1414SOL     ow 5653   6.454   6.258   5.011  0.6501  0.1474 -0.2427
 1414SOL     hw 5654   6.508   6.223   4.941  0.2667 -0.4186 -0.2607
 1414SOL     hw 5655   6.514   6.269   5.085  0.5812 -1.5413  0.0954
 1414SOL     vw 5656   6.469   6.255   5.012  0.5906 -0.1500 -0.2005
 1415SOL     ow 5657   7.385   1.749   7.438  0.2546 -0.2716 -0.1578
 1415SOL     hw 5658   7.332   1.815   7.392  0.5079 -0.1601 -0.2916
 1415SOL     hw 5659   7.380   1.672   7.382 -0.5604 -0.5738  0.3099
 1415SOL     vw 5660   7.377   1.748   7.425  0.1802 -0.2968 -0.1138
 1416SOL     ow 5661   6.545   3.925   5.672  0.4480 -0.5218  0.0247
 1416SOL     hw 5662   6.522   4.015   5.646  0.8052 -0.5242 -0.3098
 1416SOL     hw 5663   6.641   3.925   5.678  0.4769 -0.9854 -0.3754
 1416SOL     vw 5664   6.555   3.937   5.669  0.4988 -0.5833 -0.0725
 1417SOL     ow 5665   5.372   2.345   1.768  0.4503 -0.0466 -0.1562
 1417SOL     hw 5666   5.446   2.309   1.816  0.2269 -1.0767 -0.5508
 1417SOL     hw 5667   5.410   2.379   1.687  0.2974 -2.4158 -1.3144
 1417SOL     vw 5668   5.387   2.345   1.763  0.4003 -0.4951 -0.3611
 1418SOL     ow 5669   4.138   3.761   3.699 -0.3320  0.0144  0.5209
 1418SOL     hw 5670   4.233   3.760   3.694 -0.2194  1.3858  1.6411
 1418SOL     hw 5671   4.110   3.813   3.624  0.0174  1.9985  1.6749
 1418SOL     vw 5672   4.147   3.768   3.689 -0.2708  0.4572  0.8209
 1419SOL     ow 5673   6.883   5.356   0.677 -0.0907  0.0733 -0.0899
 1419SOL     hw 5674   6.977   5.370   0.666  0.4720 -0.1424  3.3806
 1419SOL     hw 5675   6.845   5.443   0.667  0.4510  0.1550 -1.5631
 1419SOL     vw 5676   6.891   5.370   0.674  0.0553  0.0553  0.1736
 1420SOL     ow 5677   1.475   4.969   3.235  0.2452  0.0352  0.4264
 1420SOL     hw 5678   1.464   5.008   3.148  1.3760 -0.1490  0.1943
 1420SOL     hw 5679   1.447   4.878   3.223  2.9707 -0.7751 -0.4754
 1420SOL     vw 5680   1.470   4.962   3.222  0.7540 -0.0961  0.2768
 1421SOL     ow 5681   3.171   0.169   5.040 -0.1198 -0.2966 -0.4246
 1421SOL     hw 5682   3.202   0.223   5.113 -0.1636 -0.0509 -0.5896
 1421SOL     hw 5683   3.128   0.230   4.980  0.8227 -0.3472 -1.1661
 1421SOL     vw 5684   3.169   0.184   5.042 -0.0012 -0.2709 -0.5443
 1422SOL     ow 5685   3.467   7.191   5.155  0.3236  0.2169  0.1552
 1422SOL     hw 5686   3.465   7.143   5.073 -0.3052  2.7807 -1.4690
 1422SOL     hw 5687   3.557   7.226   5.160  0.4581 -0.2003  0.7423
 1422SOL     vw 5688   3.479   7.190   5.145  0.2584  0.5002  0.0181
 1423SOL     ow 5689   1.790   6.564   5.532 -0.2084  0.2190 -0.1433
 1423SOL     hw 5690   1.858   6.623   5.500  1.1724 -1.0643  0.3209
 1423SOL     hw 5691   1.789   6.492   5.469 -1.7774  0.6114 -0.6269
 1423SOL     vw 5692   1.799   6.562   5.520 -0.2333  0.1016 -0.1459
 1424SOL     ow 5693   7.320   4.952   0.466 -0.0508  0.0247  0.1560
 1424SOL     hw 5694   7.409   4.960   0.433 -0.0872  0.3265  0.1266
 1424SOL     hw 5695   7.306   5.033   0.516 -0.6605  0.4411 -0.6714
 1424SOL     vw 5696   7.330   4.964   0.468 -0.1361  0.1194  0.0429
 1425SOL     ow 5697   2.934   3.177   3.975 -0.1008  0.1353 -0.4366
 1425SOL     hw 5698   2.936   3.231   4.054 -2.7734 -0.5593  0.1990
 1425SOL     hw 5699   2.847   3.192   3.938  0.1408 -1.5432 -1.8195
 1425SOL     vw 5700   2.922   3.186   3.981 -0.4215 -0.1777 -0.5352
 1426SOL     ow 5701   2.092   3.692   0.917  0.3131  0.5745 -0.2997
 1426SOL     hw 5702   2.099   3.702   1.012  0.3366  0.1100 -0.2505
 1426SOL     hw 5703   2.009   3.734   0.895  0.0714  0.2566 -0.0082
 1426SOL     vw 5704   2.082   3.699   0.927  0.2843  0.4714 -0.2548
 1427SOL     ow 5705   3.461   5.673   1.441 -0.3005  0.1486 -0.2522
 1427SOL     hw 5706   3.484   5.685   1.349 -0.7015  0.0006 -0.3746
 1427SOL     hw 5707   3.539   5.700   1.489 -0.4024  1.0989 -0.6016
 1427SOL     vw 5708   3.474   5.678   1.435 -0.3669  0.2544 -0.3144
 1428SOL     ow 5709   5.271   4.210   3.696 -0.5121 -0.8683 -0.1911
 1428SOL     hw 5710   5.330   4.205   3.621  1.5417 -0.1267  1.2812
 1428SOL     hw 5711   5.326   4.188   3.772 -1.7561  1.0769  1.4015
 1428SOL     vw 5712   5.286   4.207   3.696 -0.4053 -0.5140  0.2133
 1429SOL     ow 5713   0.009   2.818   4.770 -0.6373  0.2187 -0.4677
 1429SOL     hw 5714  -0.035   2.866   4.699 -2.1782 -1.0011 -0.3849
 1429SOL     hw 5715   0.102   2.831   4.753 -0.9536  3.1321 -0.5101
 1429SOL     vw 5716   0.015   2.826   4.759 -0.8823  0.4421 -0.4623
 1430SOL     ow 5717   2.704   4.132   5.830  0.6145  0.6660 -0.1020
 1430SOL     hw 5718   2.762   4.058   5.851 -0.6941 -0.5924 -0.7311
 1430SOL     hw 5719   2.699   4.183   5.911  1.6736  0.1590  0.2978
 1430SOL     vw 5720   2.711   4.129   5.843  0.5815  0.4334 -0.1326
 1431SOL     ow 5721   6.281   3.327   7.331 -0.0134 -0.4400  0.3984
 1431SOL     hw 5722   6.282   3.323   7.426 -0.1041 -3.4759  0.3623
 1431SOL     hw 5723   6.286   3.421   7.311  2.9405  0.2110  3.2938
 1431SOL     vw 5724   6.282   3.339   7.340  0.3645 -0.7547  0.7756
 1432SOL     ow 5725   6.225   6.411   1.163 -0.2328  0.2031  0.5510
 1432SOL     hw 5726   6.167   6.355   1.214 -0.2456 -0.4522 -0.1737
 1432SOL     hw 5727   6.182   6.419   1.078  1.1870 -1.1045 -0.3383
 1432SOL     vw 5728   6.212   6.405   1.159 -0.0470 -0.0556  0.3380
 1433SOL     ow 5729   5.202   3.128   4.783  0.0645  0.5456  0.0654
 1433SOL     hw 5730   5.294   3.142   4.806  1.0932 -3.2807 -1.0351
 1433SOL     hw 5731   5.205   3.090   4.695 -2.4971 -0.4110  0.3176
 1433SOL     vw 5732   5.215   3.125   4.774 -0.1378 -0.0855 -0.0465
 1434SOL     ow 5733   0.268   5.548   7.276  0.4194  0.5274  0.0446
 1434SOL     hw 5734   0.191   5.541   7.220  1.8972 -0.1853 -2.0175
 1434SOL     hw 5735   0.310   5.463   7.269 -0.4750 -0.4565  4.1535
 1434SOL     vw 5736   0.264   5.536   7.268  0.4963  0.3040  0.3147
 1435SOL     ow 5737   6.525   3.076   1.813  0.1275  0.0922 -0.0682
 1435SOL     hw 5738   6.610   3.032   1.807  0.0883  0.1376 -1.1847
 1435SOL     hw 5739   6.489   3.047   1.897  0.9371 -0.4880  0.0891
 1435SOL     vw 5740   6.531   3.066   1.823  0.2289  0.0217 -0.1948
 1436SOL     ow 5741   4.774   3.574   5.300 -0.2035  0.2595 -0.3113
 1436SOL     hw 5742   4.689   3.535   5.320 -0.1459  1.1692  1.9052
 1436SOL     hw 5743   4.781   3.567   5.204 -1.9970 -1.3445 -0.3854
 1436SOL     vw 5744   4.764   3.568   5.290 -0.4325  0.1677 -0.0286
 1437SOL     ow 5745   0.001   3.277   4.386  0.2365  0.2116 -0.1756
 1437SOL     hw 5746   0.095   3.267   4.372 -0.0392 -1.5223 -0.9493
 1437SOL     hw 5747  -0.039   3.204   4.339 -1.4003 -0.0180  1.4511
 1437SOL     vw 5748   0.008   3.266   4.378 -0.0158 -0.0476 -0.0629
 1438SOL     ow 5749   4.997   2.949   1.806 -0.4618 -0.2563  0.0030
 1438SOL     hw 5750   4.971   2.917   1.892  2.8668 -0.2361  1.1312
 1438SOL     hw 5751   5.003   2.870   1.752 -0.5401 -0.5194  0.3762
 1438SOL     vw 5752   4.994   2.935   1.810 -0.0329 -0.2882  0.2010
 1439SOL     ow 5753   3.441   1.852   2.331 -0.0373  0.4808 -0.0542
 1439SOL     hw 5754   3.431   1.939   2.292  3.1113  0.8490 -0.3369
 1439SOL     hw 5755   3.524   1.820   2.296  0.6464 -1.1350  2.7450
 1439SOL     vw 5756   3.451   1.859   2.321  0.4683  0.3161  0.2778
 1440SOL     ow 5757   2.046   4.932   6.911  0.3744 -0.1167 -0.7850
 1440SOL     hw 5758   2.119   4.881   6.876 -0.2561 -2.8122  1.4579
 1440SOL     hw 5759   1.970   4.874   6.905 -0.3294  0.3061  2.1912
 1440SOL     vw 5760   2.045   4.918   6.906  0.1984 -0.4165 -0.0963
 1441SOL     ow 5761   6.564   0.319   3.811  0.2309 -0.0876  0.3441
 1441SOL     hw 5762   6.497   0.359   3.756 -0.4004 -0.1702  1.0341
 1441SOL     hw 5763   6.611   0.259   3.753  1.3169  1.7441 -0.7605
 1441SOL     vw 5764   6.561   0.317   3.796  0.2909  0.1432  0.2894
 1442SOL     ow 5765   5.620   4.122   5.982 -0.3717  0.5034  0.0548
 1442SOL     hw 5766   5.573   4.168   5.913  0.8393  1.5406 -0.1155
 1442SOL     hw 5767   5.625   4.185   6.054  0.9926  0.5445 -0.0447
 1442SOL     vw 5768   5.615   4.137   5.983 -0.0319  0.6459  0.0193
 1443SOL     ow 5769   5.720   3.374   3.035  0.4499 -0.7601 -0.1490
 1443SOL     hw 5770   5.709   3.341   3.124 -1.5960  0.3149  0.0391
 1443SOL     hw 5771   5.658   3.446   3.028  1.2874 -0.1702 -2.1417
 1443SOL     vw 5772   5.710   3.379   3.046  0.2904 -0.5405 -0.3871
 1444SOL     ow 5773   7.233   6.387   6.302  0.1593  0.3800 -0.3117
 1444SOL     hw 5774   7.152   6.337   6.287 -0.2375  1.1310 -0.7318
 1444SOL     hw 5775   7.249   6.431   6.218  1.0829  0.1298 -0.2740
 1444SOL     vw 5776   7.225   6.386   6.289  0.2289  0.4461 -0.3624
 1445SOL     ow 5777   0.714   3.054   4.144 -0.0782  0.1742 -0.5710
 1445SOL     hw 5778   0.700   3.036   4.237 -0.5817  1.6484 -0.3275
 1445SOL     hw 5779   0.697   2.971   4.100 -0.5660 -0.3581  0.5883
 1445SOL     vw 5780   0.710   3.041   4.151 -0.2090  0.2986 -0.3860
 1446SOL     ow 5781   4.827   7.075   1.694 -0.0564  0.3561  0.2082
 1446SOL     hw 5782   4.832   7.123   1.777  1.0469 -0.7769  0.8295
 1446SOL     hw 5783   4.896   7.113   1.640  1.7332 -1.3376  1.1853
 1446SOL     vw 5784   4.837   7.087   1.698  0.3252 -0.0169  0.4191
 1447SOL     ow 5785   2.625   6.544   1.996 -0.4580 -0.0057 -0.1092
 1447SOL     hw 5786   2.548   6.600   2.005 -0.3913 -0.1237  1.6601
 1447SOL     hw 5787   2.683   6.573   2.067  0.8994 -0.2767 -1.0813
 1447SOL     vw 5788   2.622   6.556   2.007 -0.2701 -0.0570 -0.0041
 1448SOL     ow 5789   5.390   3.551   6.860 -0.3508  0.1942 -0.1416
 1448SOL     hw 5790   5.465   3.566   6.918  0.2019  1.4268 -1.1424
 1448SOL     hw 5791   5.415   3.474   6.809 -0.0764  0.1761  0.0136
 1448SOL     vw 5792   5.403   3.543   6.861 -0.2418  0.3544 -0.2530
 1449SOL     ow 5793   2.397   2.911   2.760  0.5890 -0.0880 -0.3691
 1449SOL     hw 5794   2.439   2.993   2.734 -1.4868  1.4638  0.8568
 1449SOL     hw 5795   2.397   2.914   2.856 -0.3167 -1.0815 -0.3221
 1449SOL     vw 5796   2.403   2.922   2.769  0.1957 -0.0142 -0.2010
 1450SOL     ow 5797   4.026   5.155   2.033  0.4745  0.5072 -0.1631
 1450SOL     hw 5798   3.981   5.228   1.990 -0.3909 -0.3049 -0.6883
 1450SOL     hw 5799   3.972   5.078   2.012 -0.1513  0.0801  2.5842
 1450SOL     vw 5800   4.013   5.154   2.025  0.2778  0.3436  0.1301
 1451SOL     ow 5801   4.445   2.565   1.997  0.0787 -0.0573 -0.1919
 1451SOL     hw 5802   4.357   2.603   1.992 -0.5067 -1.1808  0.9418
 1451SOL     hw 5803   4.463   2.533   1.909  0.1373  1.8022 -0.9017
 1451SOL     vw 5804   4.436   2.566   1.985  0.0091  0.0398 -0.1359
 1452SOL     ow 5805   6.244   5.706   7.006 -0.2946  0.7247  0.4606
 1452SOL     hw 5806   6.165   5.657   7.025 -1.2068  1.1256 -1.9304
 1452SOL     hw 5807   6.225   5.795   7.035 -0.3871  0.6330  0.6777
 1452SOL     vw 5808   6.231   5.711   7.012 -0.4272  0.7656  0.1740
 1453SOL     ow 5809   6.273   0.448   3.033 -0.2041 -0.7510  0.2974
 1453SOL     hw 5810   6.285   0.356   3.054 -0.2270 -0.7031  0.5264
 1453SOL     hw 5811   6.327   0.495   3.097 -1.0139 -0.5673  0.8629
 1453SOL     vw 5812   6.281   0.442   3.044 -0.3142 -0.7205  0.4023
 1454SOL     ow 5813   0.305   3.947   0.390  0.1888 -0.0341 -0.0883
 1454SOL     hw 5814   0.227   3.936   0.335  0.3171 -0.5025 -0.1769
 1454SOL     hw 5815   0.344   4.029   0.359 -0.8098  0.7413  0.6360
 1454SOL     vw 5816   0.300   3.957   0.378  0.0740  0.0064 -0.0044
 1455SOL     ow 5817   4.638   5.749   0.803  0.1148  0.0959 -0.0418
 1455SOL     hw 5818   4.679   5.811   0.865  0.3671 -1.8594  1.8743
 1455SOL     hw 5819   4.711   5.714   0.752  0.0130  1.0608 -0.8852
 1455SOL     vw 5820   4.653   5.753   0.805  0.1349 -0.0346  0.0997
 1456SOL     ow 5821   5.694   5.272   6.442 -0.2066  0.6260 -0.1209
 1456SOL     hw 5822   5.759   5.231   6.385  0.4897  2.5705 -0.8112
 1456SOL     hw 5823   5.613   5.271   6.391  0.3073  1.9456 -1.0189
 1456SOL     vw 5824   5.692   5.266   6.428 -0.0465  1.0567 -0.3304
 1457SOL     ow 5825   0.682   5.269   1.565 -0.1361 -0.5375  0.2698
 1457SOL     hw 5826   0.617   5.209   1.602 -1.0718 -0.1297 -0.6447
 1457SOL     hw 5827   0.712   5.226   1.485 -2.0790  0.8786 -1.3363
 1457SOL     vw 5828   0.677   5.256   1.559 -0.5159 -0.2968 -0.0627
 1458SOL     ow 5829   0.048   3.160   6.954  0.4793 -0.4657 -0.2084
 1458SOL     hw 5830  -0.037   3.146   6.996 -0.2603 -0.0844 -1.5347
 1458SOL     hw 5831   0.027   3.176   6.862  2.1375 -3.4298 -1.2619
 1458SOL     vw 5832   0.034   3.160   6.947  0.6005 -0.8065 -0.5226
 1459SOL     ow 5833   7.267   6.881   7.136  0.3941  0.2070  0.6719
 1459SOL     hw 5834   7.175   6.887   7.110  0.8460  3.1651 -0.6437
 1459SOL     hw 5835   7.269   6.913   7.226  0.2054  0.7509  0.4849
 1459SOL     vw 5836   7.255   6.886   7.144  0.4289  0.6690  0.4737
 1460SOL     ow 5837   1.058   1.713   1.533  0.2393 -0.1805 -0.6382
 1460SOL     hw 5838   1.112   1.634   1.535 -0.9922 -1.0252  0.7974
 1460SOL     hw 5839   0.969   1.682   1.520 -0.0461  1.1589 -2.2888
 1460SOL     vw 5840   1.054   1.699   1.531  0.0392 -0.1152 -0.6666
 1461SOL     ow 5841   0.743   6.302   2.077 -0.1356 -0.2433 -0.2917
 1461SOL     hw 5842   0.706   6.228   2.029  1.1308  0.1184 -1.9238
 1461SOL     hw 5843   0.682   6.317   2.149 -1.8470 -1.1714 -1.4764
 1461SOL     vw 5844   0.730   6.295   2.080 -0.1943 -0.3178 -0.6633
 1462SOL     ow 5845   3.446   5.194   0.060 -0.9077  0.2518  0.2336
 1462SOL     hw 5846   3.459   5.190  -0.035  0.7197  0.7692  0.3986
 1462SOL     hw 5847   3.420   5.284   0.077 -3.4760 -0.3990  0.0781
 1462SOL     vw 5848   3.444   5.205   0.050 -1.0319  0.2341  0.2348
 1463SOL     ow 5849   3.517   6.258   2.895 -0.9214  0.7576  0.0757
 1463SOL     hw 5850   3.454   6.208   2.948 -1.2348  2.0329  0.9556
 1463SOL     hw 5851   3.485   6.348   2.899  1.1124  1.4965  0.7941
 1463SOL     vw 5852   3.504   6.263   2.903 -0.6944  1.0233  0.2867
 1464SOL     ow 5853   6.230   2.092   2.168  0.0984 -0.5389  0.1339
 1464SOL     hw 5854   6.167   2.030   2.203 -0.1935  0.3317  1.2099
 1464SOL     hw 5855   6.193   2.178   2.188  0.6639 -0.0085 -1.0034
 1464SOL     vw 5856   6.217   2.095   2.175  0.1345 -0.3542  0.1259
 1465SOL     ow 5857   3.382   0.016   3.079  0.2448 -0.4942  0.1331
 1465SOL     hw 5858   3.402   0.039   3.170  0.0930  0.2225 -0.0104
 1465SOL     hw 5859   3.416   0.089   3.028  2.0611 -1.7442 -0.5632
 1465SOL     vw 5860   3.390   0.028   3.085  0.4644 -0.5646  0.0223
 1466SOL     ow 5861   4.665   1.815   1.852  0.3220  0.7113  0.2000
 1466SOL     hw 5862   4.586   1.820   1.905  1.1054  1.3934  1.3390
 1466SOL     hw 5863   4.645   1.749   1.786 -0.2444 -1.1888  2.1401
 1466SOL     vw 5864   4.652   1.807   1.850  0.3507  0.5506  0.6063
 1467SOL     ow 5865   0.124   7.009   4.008  0.4604  0.2563  0.3867
 1467SOL     hw 5866   0.036   7.033   4.036 -0.0956 -0.7517 -0.4156
 1467SOL     hw 5867   0.170   6.985   4.088 -0.1765  0.2425  0.7517
 1467SOL     vw 5868   0.119   7.009   4.022  0.3030  0.1218  0.3290
 1468SOL     ow 5869   3.940   5.114   6.229  0.0636 -1.1871  0.1336
 1468SOL     hw 5870   3.850   5.123   6.262  0.2252 -0.4285  0.3807
 1468SOL     hw 5871   3.929   5.095   6.136 -0.3747  1.4634 -0.4536
 1468SOL     vw 5872   3.926   5.113   6.221  0.0272 -0.7372  0.0889
 1469SOL     ow 5873   3.052   2.246   1.207  0.1428  0.1377  0.1695
 1469SOL     hw 5874   3.076   2.164   1.249  0.4044  0.4274  0.5959
 1469SOL     hw 5875   3.090   2.240   1.119 -0.3240 -0.4285 -0.0016
 1469SOL     vw 5876   3.060   2.235   1.201  0.1156  0.1012  0.2031
 1470SOL     ow 5877   1.530   3.285   4.566  0.0142 -0.4727  0.0330
 1470SOL     hw 5878   1.463   3.238   4.616  0.2250 -1.0007 -0.1788
 1470SOL     hw 5879   1.547   3.230   4.490  0.4476 -0.1773 -0.0887
 1470SOL     vw 5880   1.523   3.272   4.563  0.0993 -0.5033 -0.0112
 1471SOL     ow 5881   4.461   0.815   2.055  0.2148  0.0144  0.1056
 1471SOL     hw 5882   4.525   0.775   1.996 -1.1979 -0.6431 -1.0563
 1471SOL     hw 5883   4.432   0.743   2.110 -0.6976 -0.0821 -0.4805
 1471SOL     vw 5884   4.466   0.800   2.054 -0.0923 -0.0851 -0.1249
 1472SOL     ow 5885   5.110   2.598   6.493  0.0290 -0.1082 -0.4508
 1472SOL     hw 5886   5.082   2.566   6.407  0.9965 -3.2434  0.2930
 1472SOL     hw 5887   5.205   2.601   6.488  0.1019 -0.4740  0.5622
 1472SOL     vw 5888   5.119   2.594   6.481  0.1664 -0.5702 -0.2191
 1473SOL     ow 5889   5.100   6.922   2.603 -0.1733 -0.4302 -0.5921
 1473SOL     hw 5890   5.119   6.862   2.531 -0.8269 -2.7032  1.0123
 1473SOL     hw 5891   5.009   6.903   2.627  0.0459  0.1867  0.8505
 1473SOL     vw 5892   5.090   6.911   2.597 -0.2308 -0.6485 -0.1900
 1474SOL     ow 5893   1.859   5.933   0.270  0.2265  0.2633  0.3768
 1474SOL     hw 5894   1.852   5.996   0.198 -0.5844 -0.4869 -0.2139
 1474SOL     hw 5895   1.769   5.910   0.291  0.5279 -1.4831 -0.1175
 1474SOL     vw 5896   1.846   5.938   0.263  0.1593 -0.0658  0.2337
 1475SOL     ow 5897   3.822   2.199   4.560  0.1960 -0.0263  0.2373
 1475SOL     hw 5898   3.754   2.149   4.604  0.1639  1.6933  2.2998
 1475SOL     hw 5899   3.797   2.290   4.573  1.8905  0.6107 -0.6320
 1475SOL     vw 5900   3.810   2.204   4.567  0.4152  0.2847  0.3948
 1476SOL     ow 5901   5.151   6.989   7.227  0.0667  0.0394  0.2704
 1476SOL     hw 5902   5.231   6.965   7.180 -0.3516 -1.1295  0.1153
 1476SOL     hw 5903   5.082   6.979   7.162 -0.2682  0.5564  0.5407
 1476SOL     vw 5904   5.152   6.984   7.212 -0.0327 -0.0465  0.2854
 1477SOL     ow 5905   3.706   0.733   5.161 -0.0971  0.1008  0.3054
 1477SOL     hw 5906   3.675   0.661   5.216  0.1531  0.3546  0.7859
 1477SOL     hw 5907   3.749   0.793   5.222  1.4249 -0.2737 -0.3410
 1477SOL     vw 5908   3.708   0.732   5.176  0.1366  0.0848  0.2835
 1478SOL     ow 5909   1.040   5.906   2.776  0.5645 -0.2829  0.3935
 1478SOL     hw 5910   0.971   5.973   2.774  0.6054 -0.2484 -1.1388
 1478SOL     hw 5911   1.096   5.931   2.849 -2.9616 -2.3376  4.2121
 1478SOL     vw 5912   1.038   5.918   2.785  0.1047 -0.5496  0.6950
 1479SOL     ow 5913   0.902   0.224   1.551  0.3876 -0.8683 -0.0538
 1479SOL     hw 5914   0.949   0.196   1.473  1.2386  2.1740 -0.7719
 1479SOL     hw 5915   0.970   0.239   1.617 -0.2248 -2.2873  0.9665
 1479SOL     vw 5916   0.917   0.222   1.550  0.4190 -0.6542 -0.0139
 1480SOL     ow 5917   4.571   5.467   0.697 -0.5888 -0.0072  0.5872
 1480SOL     hw 5918   4.662   5.454   0.722 -0.9340  0.2889  2.0889
 1480SOL     hw 5919   4.562   5.423   0.612  1.0506  0.3639  0.2025
 1480SOL     vw 5920   4.582   5.459   0.689 -0.4179  0.0811  0.7345
 1481SOL     ow 5921   6.945   6.196   2.166  0.5485  0.6223 -0.1669
 1481SOL     hw 5922   6.990   6.263   2.114  1.5712  0.8566  0.9492
 1481SOL     hw 5923   7.013   6.132   2.186 -0.0872 -0.0184 -0.0455
 1481SOL     vw 5924   6.960   6.197   2.162  0.5996  0.5686 -0.0037
 1482SOL     ow 5925   2.107   6.103   6.208  0.0318  0.1570  0.4112
 1482SOL     hw 5926   2.155   6.065   6.281  0.4217 -0.3246 -0.0889
 1482SOL     hw 5927   2.107   6.197   6.226  1.2719  0.1855  0.3615
 1482SOL     vw 5928   2.113   6.110   6.220  0.2468  0.0970  0.3386
 1483SOL     ow 5929   1.920   4.352   1.739 -0.2255 -0.3039 -0.4310
 1483SOL     hw 5930   1.998   4.297   1.746  0.5967  0.9125  0.2721
 1483SOL     hw 5931   1.863   4.305   1.678 -0.6986 -3.2678  2.0030
 1483SOL     vw 5932   1.922   4.338   1.732 -0.1794 -0.5343 -0.0172
 1484SOL     ow 5933   5.956   6.274   0.762  0.4450  0.0736  0.3253
 1484SOL     hw 5934   5.963   6.186   0.799 -3.2714 -0.9514 -0.9872
 1484SOL     hw 5935   5.954   6.260   0.667  4.2003  2.1323 -0.2684
 1484SOL     vw 5936   5.957   6.260   0.754  0.4501  0.2098  0.0738
 1485SOL     ow 5937   3.996   0.113   2.501  0.1667 -0.0649 -0.1740
 1485SOL     hw 5938   3.917   0.107   2.555 -0.3077  2.1116 -0.5171
 1485SOL     hw 5939   4.010   0.207   2.490  1.7882 -0.4255 -1.6234
 1485SOL     vw 5940   3.987   0.124   2.507  0.3181  0.1747 -0.4106
 1486SOL     ow 5941   6.874   1.060   0.805  0.1371 -0.0356 -0.3087
 1486SOL     hw 5942   6.788   1.072   0.846  0.4622 -1.0393  0.7197
 1486SOL     hw 5943   6.935   1.104   0.864  0.5655 -1.1664  0.1189
 1486SOL     vw 5944   6.871   1.067   0.818  0.2367 -0.3172 -0.1166
 1487SOL     ow 5945   4.386   6.905   7.034 -0.3758 -0.3531  0.5726
 1487SOL     hw 5946   4.478   6.916   7.011 -0.4426 -0.5132  0.2325
 1487SOL     hw 5947   4.356   6.993   7.058 -0.3296 -0.1681 -0.0294
 1487SOL     vw 5948   4.394   6.918   7.034 -0.3784 -0.3500  0.4482
 1488SOL     ow 5949   5.108   6.657   0.275  0.3020 -0.1540  0.3421
 1488SOL     hw 5950   5.128   6.652   0.181 -0.9265 -3.1164  0.1262
 1488SOL     hw 5951   5.182   6.705   0.313  0.4895  1.7423 -2.1707
 1488SOL     vw 5952   5.121   6.663   0.268  0.1645 -0.2947 -0.0179
 1489SOL     ow 5953   5.400   0.457   4.091 -0.2440  0.5419  0.0756
 1489SOL     hw 5954   5.374   0.380   4.142  1.7451 -0.8248 -0.8410
 1489SOL     hw 5955   5.438   0.516   4.156  1.9219 -1.0236  0.3571
 1489SOL     vw 5956   5.402   0.454   4.106  0.3042  0.1550 -0.0081
 1490SOL     ow 5957   3.609   6.393   1.182  0.2607 -0.4945  0.0846
 1490SOL     hw 5958   3.629   6.379   1.089  0.6147 -2.7038  0.4320
 1490SOL     hw 5959   3.522   6.355   1.194  0.3296 -0.4691  0.7029
 1490SOL     vw 5960   3.601   6.386   1.171  0.3166 -0.7827  0.2120
 1491SOL     ow 5961   1.946   6.814   6.258  0.0926  0.3197  0.0391
 1491SOL     hw 5962   1.992   6.787   6.179  0.2284  0.9550 -0.0995
 1491SOL     hw 5963   2.013   6.809   6.327 -0.1728 -0.8265  0.2493
 1491SOL     vw 5964   1.961   6.810   6.257  0.0754  0.2522  0.0484
 1492SOL     ow 5965   3.787   5.031   1.596  0.1453  0.0492 -0.4680
 1492SOL     hw 5966   3.877   5.009   1.617  0.0168  0.4213  0.5397
 1492SOL     hw 5967   3.755   4.957   1.544  0.2354 -1.3636  1.3887
 1492SOL     vw 5968   3.795   5.018   1.592  0.1403 -0.0880 -0.0901
 1493SOL     ow 5969   1.604   0.759   0.561 -0.3707  0.1158 -0.3295
 1493SOL     hw 5970   1.675   0.708   0.522 -1.7657 -1.8032 -0.4852
 1493SOL     hw 5971   1.561   0.699   0.622 -0.7205  1.8185  1.2090
 1493SOL     vw 5972   1.607   0.745   0.564 -0.6009  0.0873 -0.1471
 1494SOL     ow 5973   6.954   7.075   1.103 -0.3026  0.0122 -0.6316
 1494SOL     hw 5974   6.909   7.127   1.169 -2.0199 -1.5708 -0.4595
 1494SOL     hw 5975   6.951   7.129   1.024  0.8813  1.4973  0.2908
 1494SOL     vw 5976   6.948   7.089   1.101 -0.3731 -0.0005 -0.4871
 1495SOL     ow 5977   6.934   6.549   6.602  0.4604 -0.5639 -0.0423
 1495SOL     hw 5978   6.937   6.520   6.511 -0.7461 -0.2941 -0.1976
 1495SOL     hw 5979   6.875   6.625   6.601  0.5824 -0.4375  0.9315
 1495SOL     vw 5980   6.926   6.555   6.590  0.3173 -0.5119  0.0658
 1496SOL     ow 5981   3.303   4.671   1.750  0.0209 -0.2296 -0.0545
 1496SOL     hw 5982   3.348   4.678   1.666 -0.0565  0.4855 -0.0461
 1496SOL     hw 5983   3.274   4.580   1.755  2.3432 -1.0113  0.4002
 1496SOL     vw 5984   3.305   4.660   1.739  0.3172 -0.2384  0.0066
 1497SOL     ow 5985   5.393   5.166   1.474  0.2858  0.0053 -0.2973
 1497SOL     hw 5986   5.335   5.242   1.477  0.6131  0.2310  0.2480
 1497SOL     hw 5987   5.481   5.203   1.468  0.3967 -0.3378 -0.9804
 1497SOL     vw 5988   5.397   5.181   1.473  0.3436 -0.0100 -0.3155
 1498SOL     ow 5989   0.324   3.610   0.267 -0.0300  0.1085 -0.4714
 1498SOL     hw 5990   0.232   3.603   0.244 -0.4520  0.3400  1.0253
 1498SOL     hw 5991   0.355   3.520   0.272  0.6473  0.0133 -3.7888
 1498SOL     vw 5992   0.316   3.597   0.264  0.0037  0.1265 -0.7116
 1499SOL     ow 5993   6.544   3.028   4.452 -0.1797  0.0169  0.5135
 1499SOL     hw 5994   6.564   2.958   4.514 -2.1250 -1.0458  0.0290
 1499SOL     hw 5995   6.468   3.073   4.490 -1.3333 -0.5855 -1.0022
 1499SOL     vw 5996   6.536   3.025   4.465 -0.5889 -0.2029  0.2496
 1500SOL     ow 5997   0.527   5.069   1.666 -0.4877  0.1750  0.0204
 1500SOL     hw 5998   0.439   5.048   1.634 -1.2411 -0.4840  2.2910
 1500SOL     hw 5999   0.533   5.024   1.751  1.7480  0.8717  0.3050
 1500SOL     vw 6000   0.516   5.061   1.673 -0.2922  0.1800  0.3575
 1501SOL     ow 6001   5.703   6.582   4.869  0.2940 -0.1867 -0.1895
 1501SOL     hw 6002   5.686   6.545   4.955  0.9490  1.8742  0.8974
 1501SOL     hw 6003   5.616   6.602   4.833 -0.0258 -1.8715 -0.4484
 1501SOL     vw 6004   5.689   6.580   4.876  0.3383 -0.1371 -0.0801
 1502SOL     ow 6005   4.981   7.049   0.408  0.1691 -0.1465  0.0606
 1502SOL     hw 6006   4.993   7.129   0.356 -0.0861  0.3588  0.7499
 1502SOL     hw 6007   4.987   7.080   0.499 -1.2039 -0.6983  0.3601
 1502SOL     vw 6008   4.983   7.064   0.413 -0.0455 -0.1523  0.1911
 1503SOL     ow 6009   6.341   3.317   1.856 -0.1046  0.4617 -0.0018
 1503SOL     hw 6010   6.374   3.305   1.945 -0.3915 -0.1506  0.0293
 1503SOL     hw 6011   6.323   3.410   1.849 -0.5107  0.4421  0.7311
 1503SOL     vw 6012   6.343   3.328   1.867 -0.1960  0.3784  0.0990
 1504SOL     ow 6013   6.508   6.505   2.383 -0.2323  0.7538  0.2366
 1504SOL     hw 6014   6.540   6.572   2.443  1.6390 -0.6306  0.8870
 1504SOL     hw 6015   6.565   6.514   2.306  0.7755 -0.7156  0.7649
 1504SOL     vw 6016   6.520   6.515   2.380  0.1478  0.3772  0.3922
 1505SOL     ow 6017   5.461   0.791   5.113  0.2491 -0.0827 -0.2628
 1505SOL     hw 6018   5.424   0.868   5.071  1.3080  0.0467 -1.0138
 1505SOL     hw 6019   5.433   0.717   5.059 -0.3336 -0.1813  0.1616
 1505SOL     vw 6020   5.453   0.791   5.101  0.3116 -0.0786 -0.3057
 1506SOL     ow 6021   6.655   0.089   4.075 -0.0986  0.4602 -0.0771
 1506SOL     hw 6022   6.750   0.099   4.083 -0.2520  1.0437  1.3536
 1506SOL     hw 6023   6.640  -0.003   4.096  0.2869 -0.1069 -2.1003
 1506SOL     vw 6024   6.666   0.078   4.079 -0.0679  0.4623 -0.1552
 1507SOL     ow 6025   1.808   4.626   3.516  0.0379  0.1900 -0.2750
 1507SOL     hw 6026   1.833   4.669   3.597 -2.7535  0.1916  0.6856
 1507SOL     hw 6027   1.801   4.533   3.539  1.9202 -0.2484 -1.2720
 1507SOL     vw 6028   1.810   4.619   3.530 -0.0820  0.1326 -0.2798
 1508SOL     ow 6029   3.621   2.708   3.623 -0.0433  0.6009 -0.7107
 1508SOL     hw 6030   3.544   2.765   3.622 -0.2676  0.3241  0.1572
 1508SOL     hw 6031   3.635   2.688   3.715 -1.2034 -2.3630 -1.0504
 1508SOL     vw 6032   3.613   2.713   3.635 -0.2259  0.1732 -0.6409
 1509SOL     ow 6033   2.715   2.081   2.236  0.0914 -0.2237  0.4934
 1509SOL     hw 6034   2.676   2.161   2.272  0.4953 -1.2813  3.6328
 1509SOL     hw 6035   2.749   2.035   2.313  0.5089 -3.0839 -1.2706
 1509SOL     vw 6036   2.714   2.086   2.251  0.1997 -0.7405  0.6748
 1510SOL     ow 6037   0.681   5.107   2.962  0.3806 -0.4043  0.4773
 1510SOL     hw 6038   0.703   5.015   2.974 -0.1559 -0.7039 -0.7010
 1510SOL     hw 6039   0.696   5.123   2.869  1.8718  1.0932  0.9194
 1510SOL     vw 6040   0.686   5.097   2.952  0.5066 -0.2463  0.3803
 1511SOL     ow 6041   2.925   2.294   3.650 -0.1522 -0.0310  0.3322
 1511SOL     hw 6042   2.898   2.225   3.711 -1.5206 -0.5905 -0.8580
 1511SOL     hw 6043   3.002   2.259   3.606 -0.4182 -0.5025  0.2425
 1511SOL     vw 6044   2.931   2.280   3.652 -0.3679 -0.1671  0.1634
 1512SOL     ow 6045   2.418   1.279   6.736 -0.0250 -0.1753  0.2501
 1512SOL     hw 6046   2.404   1.356   6.790 -0.2317  0.5138 -0.7562
 1512SOL     hw 6047   2.489   1.303   6.676  0.1050 -0.8626  0.1141
 1512SOL     vw 6048   2.425   1.292   6.735 -0.0352 -0.1751  0.0994
 1513SOL     ow 6049   7.108   5.395   4.601  0.1444  0.6884 -0.0277
 1513SOL     hw 6050   7.142   5.390   4.690 -0.1079 -1.7439 -0.0052
 1513SOL     hw 6051   7.013   5.387   4.610  0.0377  1.3335 -0.4739
 1513SOL     vw 6052   7.100   5.393   4.614  0.0973  0.4525 -0.0839
 1514SOL     ow 6053   3.249   6.548   2.461  0.4315 -0.0151  0.2845
 1514SOL     hw 6054   3.338   6.523   2.439  0.2521  0.1128 -0.6195
 1514SOL     hw 6055   3.231   6.504   2.544  1.2446 -0.2407  0.3449
 1514SOL     vw 6056   3.258   6.539   2.469  0.5150 -0.0281  0.1732
 1515SOL     ow 6057   1.937   4.505   0.011  0.6055 -0.6258  0.1039
 1515SOL     hw 6058   1.955   4.572   0.077  0.5343 -1.0343  0.5387
 1515SOL     hw 6059   1.848   4.523  -0.018  0.5271 -0.6336  0.3406
 1515SOL     vw 6060   1.928   4.516   0.016  0.5857 -0.6812  0.1925
 1516SOL     ow 6061   6.150   5.907   5.407 -0.3328 -0.5178 -0.3441
 1516SOL     hw 6062   6.176   5.995   5.434  0.7556 -0.8365 -0.2897
 1516SOL     hw 6063   6.064   5.918   5.367 -1.2361  0.2083  1.7013
 1516SOL     vw 6064   6.142   5.920   5.405 -0.3083 -0.4640 -0.0672
 1517SOL     ow 6065   3.734   6.315   2.693 -0.5077  0.0529 -0.5235
 1517SOL     hw 6066   3.712   6.407   2.687 -0.1242  0.1114 -1.1586
 1517SOL     hw 6067   3.826   6.311   2.667 -0.9954 -0.7212 -2.2694
 1517SOL     vw 6068   3.744   6.326   2.688 -0.5214 -0.0412 -0.8377
 1518SOL     ow 6069   4.338   1.551   4.093  0.8892  0.0813  0.4657
 1518SOL     hw 6070   4.353   1.630   4.041 -0.7742  2.1525  2.8314
 1518SOL     hw 6071   4.249   1.523   4.069  0.9010 -0.1491  0.6876
 1518SOL     vw 6072   4.328   1.558   4.083  0.6709  0.3241  0.8073
 1519SOL     ow 6073   3.487   4.037   4.795  0.3355 -0.3202  0.2627
 1519SOL     hw 6074   3.568   3.985   4.799  0.3424 -0.3992 -0.6885
 1519SOL     hw 6075   3.513   4.123   4.826  0.6536 -0.4969  0.4964
 1519SOL     vw 6076   3.501   4.041   4.799  0.3784 -0.3538  0.1681
 1520SOL     ow 6077   5.111   2.905   1.054  0.4277 -0.4259 -0.3061
 1520SOL     hw 6078   5.089   2.927   0.963 -0.0936 -2.2178 -0.6558
 1520SOL     hw 6079   5.080   2.816   1.065 -1.4365  0.4185  2.2955
 1520SOL     vw 6080   5.104   2.897   1.043  0.1130 -0.5509 -0.0089
 1521SOL     ow 6081   6.634   5.437   6.153  0.6973  0.3836 -0.1067
 1521SOL     hw 6082   6.592   5.350   6.151 -0.1877  0.8069 -2.1122
 1521SOL     hw 6083   6.645   5.460   6.061 -0.0029  2.8416  0.3684
 1521SOL     vw 6084   6.630   5.428   6.140  0.4883  0.7639 -0.3085
 1522SOL     ow 6085   0.294   2.954   6.616  0.3759 -0.1227 -0.4599
 1522SOL     hw 6086   0.338   3.021   6.564  1.6863 -0.5092  0.1133
 1522SOL     hw 6087   0.309   2.980   6.707 -1.2719  0.1514 -0.2268
 1522SOL     vw 6088   0.302   2.966   6.621  0.3314 -0.1376 -0.3533
 1523SOL     ow 6089   5.149   7.421   6.249  0.0150  0.5083 -0.0188
 1523SOL     hw 6090   5.169   7.344   6.195  0.6187  0.4459  0.2905
 1523SOL     hw 6091   5.154   7.390   6.339 -0.8124  0.6585  0.0855
 1523SOL     vw 6092   5.152   7.407   6.254 -0.0145  0.5200  0.0358
 1524SOL     ow 6093   4.605   2.296   6.776 -0.0471  0.4189  0.2563
 1524SOL     hw 6094   4.641   2.385   6.783  0.7261 -0.0010  2.4086
 1524SOL     hw 6095   4.536   2.294   6.843 -0.0274 -0.6340  0.2489
 1524SOL     vw 6096   4.600   2.308   6.786  0.0575  0.2246  0.5393
 1525SOL     ow 6097   0.953   2.267   3.954 -0.0610 -0.3106  0.1358
 1525SOL     hw 6098   0.877   2.210   3.943 -0.2975 -0.2242  1.1818
 1525SOL     hw 6099   0.918   2.356   3.946 -0.0636 -0.2734  0.5144
 1525SOL     vw 6100   0.938   2.272   3.952 -0.0925 -0.2943  0.3237
 1526SOL     ow 6101   2.993   0.521   0.463 -0.1313 -0.2804  0.1247
 1526SOL     hw 6102   3.029   0.454   0.405  1.0558  1.1017 -0.8236
 1526SOL     hw 6103   3.065   0.546   0.520 -1.0925 -1.1129  1.7679
 1526SOL     vw 6104   3.007   0.516   0.463 -0.1014 -0.2079  0.2164
 1527SOL     ow 6105   4.537   7.319   6.185  0.0184  0.8168  0.1169
 1527SOL     hw 6106   4.515   7.382   6.253 -0.0562 -0.7786  1.6491
 1527SOL     hw 6107   4.469   7.251   6.192  1.2809 -0.5169  0.0151
 1527SOL     vw 6108   4.525   7.318   6.195  0.1752  0.4303  0.3054
 1528SOL     ow 6109   3.166   4.401   0.164 -0.0757  0.3875 -0.0564
 1528SOL     hw 6110   3.255   4.410   0.199  0.0182  2.0272 -0.5951
 1528SOL     hw 6111   3.110   4.441   0.231  0.0370  2.9373 -1.3555
 1528SOL     vw 6112   3.170   4.408   0.178 -0.0484  0.9403 -0.2989
 1529SOL     ow 6113   3.714   2.605   4.306 -0.4506  0.4504 -0.1949
 1529SOL     hw 6114   3.771   2.591   4.381 -2.0550 -0.0839  0.9653
 1529SOL     hw 6115   3.727   2.529   4.250  0.9197  0.9612 -0.6101
 1529SOL     vw 6116   3.723   2.593   4.309 -0.4815  0.4472 -0.0966
 1530SOL     ow 6117   6.195   1.753   0.839  0.1121 -0.0369  0.2126
 1530SOL     hw 6118   6.280   1.771   0.800  0.3216 -1.3022  0.0149
 1530SOL     hw 6119   6.205   1.773   0.932  0.9257 -1.0173  0.3588
 1530SOL     vw 6120   6.207   1.758   0.846  0.2475 -0.3332  0.2058
 1531SOL     ow 6121   4.935   1.872   1.939  0.0608  0.9238  0.0297
 1531SOL     hw 6122   4.956   1.901   2.028  1.0503 -0.1034  0.1615
 1531SOL     hw 6123   4.841   1.853   1.942 -0.0632  1.5706  0.6471
 1531SOL     vw 6124   4.926   1.873   1.951  0.1752  0.8736  0.1285
 1532SOL     ow 6125   2.039   0.554   7.209 -0.0123  0.6307 -0.6248
 1532SOL     hw 6126   2.018   0.569   7.301 -0.3861  1.6475 -0.8633
 1532SOL     hw 6127   2.134   0.544   7.208  0.2494  2.6434 -0.3618
 1532SOL     vw 6128   2.049   0.555   7.221 -0.0271  1.0304 -0.6218
 1533SOL     ow 6129   2.253   4.883   5.416 -0.0522  0.0863  0.0258
 1533SOL     hw 6130   2.342   4.858   5.444  0.6844  0.7959 -1.5853
 1533SOL     hw 6131   2.249   4.857   5.324 -0.9683  1.4963 -0.3482
 1533SOL     vw 6132   2.264   4.876   5.408 -0.0758  0.3660 -0.2360
 1534SOL     ow 6133   4.323   5.691   0.736 -0.0069 -0.4033  0.3430
 1534SOL     hw 6134   4.281   5.761   0.784  1.7284  0.7441  0.2685
 1534SOL     hw 6135   4.296   5.705   0.645 -0.0466 -0.1313  0.3957
 1534SOL     vw 6136   4.314   5.702   0.730  0.2170 -0.2158  0.3401
 1535SOL     ow 6137   6.417   4.869   3.576  0.2991 -0.8585  0.8123
 1535SOL     hw 6138   6.453   4.789   3.538  1.2955  1.0363 -2.7317
 1535SOL     hw 6139   6.337   4.886   3.525  1.5417  1.6782 -0.4991
 1535SOL     vw 6140   6.411   4.861   3.564  0.5949 -0.2737  0.1717
 1536SOL     ow 6141   3.772   2.414   3.905 -0.5731  0.2224 -0.8643
 1536SOL     hw 6142   3.865   2.439   3.905 -0.1166 -1.2810  0.2283
 1536SOL     hw 6143   3.754   2.389   3.814  0.3049 -0.0980 -0.9618
 1536SOL     vw 6144   3.782   2.414   3.893 -0.3970 -0.0182 -0.7330
 1537SOL     ow 6145   3.173   3.639   1.453  0.0789  0.1008 -0.3254
 1537SOL     hw 6146   3.096   3.679   1.493 -0.5974  0.6535 -2.0613
 1537SOL     hw 6147   3.247   3.688   1.488 -0.3425 -0.3334  1.2463
 1537SOL     vw 6148   3.173   3.650   1.463 -0.0659  0.1165 -0.3470
 1538SOL     ow 6149   1.433   0.884   3.423  0.2032  0.1865 -0.1239
 1538SOL     hw 6150   1.485   0.804   3.413  2.8824  1.6289  1.0247
 1538SOL     hw 6151   1.440   0.928   3.339 -0.7482 -0.4818 -0.5600
 1538SOL     vw 6152   1.441   0.879   3.411  0.4312  0.2886 -0.0297
 1539SOL     ow 6153   5.720   7.417   4.727  0.2023 -0.2039 -0.9290
 1539SOL     hw 6154   5.728   7.425   4.822 -0.8399  0.0105 -0.8544
 1539SOL     hw 6155   5.742   7.504   4.694 -2.4419  0.6675 -0.6617
 1539SOL     vw 6156   5.724   7.429   4.735 -0.2842 -0.0607 -0.8838
 1540SOL     ow 6157   4.982   7.222   1.506 -0.0342 -0.1911 -0.1407
 1540SOL     hw 6158   4.908   7.258   1.458 -0.0784  0.2393  0.2392
 1540SOL     hw 6159   5.026   7.165   1.444 -1.1401 -1.0814 -0.1320
 1540SOL     vw 6160   4.978   7.220   1.492 -0.1860 -0.2515 -0.0894
 1541SOL     ow 6161   5.176   5.703   1.490 -0.2612 -0.0907  0.0606
 1541SOL     hw 6162   5.126   5.671   1.414 -0.9479 -0.9652  0.8637
 1541SOL     hw 6163   5.110   5.745   1.545 -0.1117 -1.0883  1.0381
 1541SOL     vw 6164   5.160   5.704   1.487 -0.3321 -0.3376  0.2955
 1542SOL     ow 6165   1.886   5.837   2.776 -0.3696 -0.1061 -0.0540
 1542SOL     hw 6166   1.927   5.753   2.797 -0.8941 -0.4892 -0.5513
 1542SOL     hw 6167   1.958   5.900   2.779  0.2546 -0.7626 -0.8764
 1542SOL     vw 6168   1.901   5.834   2.779 -0.3565 -0.2434 -0.2280
 1543SOL     ow 6169   2.129   1.048   6.128 -0.0386  0.0964 -0.4693
 1543SOL     hw 6170   2.117   0.959   6.163  0.3625 -0.0594 -0.7180
 1543SOL     hw 6171   2.042   1.073   6.098 -0.1032 -0.3241 -0.6497
 1543SOL     vw 6172   2.116   1.039   6.129  0.0060  0.0203 -0.5260
 1544SOL     ow 6173   5.581   0.334   4.567 -0.0623  0.0104 -0.4759
 1544SOL     hw 6174   5.632   0.294   4.637  1.4311 -2.1500 -2.6453
 1544SOL     hw 6175   5.490   0.311   4.587  0.2038  0.2629  1.1946
 1544SOL     vw 6176   5.576   0.326   4.579  0.1695 -0.2413 -0.5417
 1545SOL     ow 6177   6.782   4.505   0.863 -0.1915 -0.1731  0.2245
 1545SOL     hw 6178   6.696   4.536   0.835 -0.3785  0.1683  1.1236
 1545SOL     hw 6179   6.841   4.579   0.847 -0.2704 -0.0302  0.5798
 1545SOL     vw 6180   6.779   4.519   0.857 -0.2265 -0.1090  0.3900
 1546SOL     ow 6181   1.110   6.793   2.240 -0.7296 -0.0532  0.1308
 1546SOL     hw 6182   1.139   6.854   2.172 -1.4869  0.7015  0.4712
 1546SOL     hw 6183   1.064   6.848   2.304 -0.7663 -0.8736  0.8311
 1546SOL     vw 6184   1.108   6.808   2.240 -0.8344 -0.0620  0.2681
 1547SOL     ow 6185   2.248   0.265   3.284 -0.1335 -0.0829  0.5113
 1547SOL     hw 6186   2.219   0.341   3.334 -0.4249 -0.0393  0.2824
 1547SOL     hw 6187   2.171   0.239   3.233  0.3990  0.3892 -0.5605
 1547SOL     vw 6188   2.234   0.271   3.283 -0.1016 -0.0148  0.3397
 1548SOL     ow 6189   1.906   1.382   1.621 -0.1357 -0.0369 -0.5227
 1548SOL     hw 6190   1.874   1.299   1.657  1.2942  0.3644  1.8943
 1548SOL     hw 6191   1.837   1.445   1.643 -0.1437 -0.1591 -0.1818
 1548SOL     vw 6192   1.893   1.380   1.629  0.0519  0.0000 -0.1588
 1549SOL     ow 6193   4.781   6.851   5.110  0.4698 -0.8721 -0.0868
 1549SOL     hw 6194   4.768   6.757   5.100  2.0020 -1.2163  0.8221
 1549SOL     hw 6195   4.789   6.865   5.204  0.8730  0.0765 -0.2472
 1549SOL     vw 6196   4.780   6.841   5.121  0.7253 -0.7923  0.0122
 1550SOL     ow 6197   2.846   0.899   0.546  0.5540 -0.3725  0.8768
 1550SOL     hw 6198   2.770   0.942   0.586 -1.2682 -2.2903 -0.3528
 1550SOL     hw 6199   2.904   0.881   0.620 -0.4283  0.6038  1.9392
 1550SOL     vw 6200   2.844   0.903   0.561  0.1841 -0.4967  0.8548
 1551SOL     ow 6201   0.071   5.529   5.362  0.1573 -0.2763  0.1024
 1551SOL     hw 6202   0.101   5.439   5.376 -1.7227 -0.9586  0.0366
 1551SOL     hw 6203   0.135   5.566   5.301 -0.4768 -2.4696 -2.0610
 1551SOL     vw 6204   0.083   5.522   5.356 -0.1744 -0.6559 -0.1917
 1552SOL     ow 6205   5.357   0.702   4.598 -0.0294  0.1732 -0.5665
 1552SOL     hw 6206   5.365   0.703   4.693  1.7153 -1.2189 -0.6352
 1552SOL     hw 6207   5.278   0.651   4.581  1.0168 -1.8408  0.1716
 1552SOL     vw 6208   5.348   0.695   4.608  0.3390 -0.2762 -0.4780
 1553SOL     ow 6209   0.222   5.496   0.146  0.2404  0.3254 -0.4262
 1553SOL     hw 6210   0.291   5.429   0.149  0.2199  0.3307  0.9801
 1553SOL     hw 6211   0.142   5.447   0.125  0.0337 -0.3094  1.6309
 1553SOL     vw 6212   0.221   5.481   0.144  0.2104  0.2422  0.0308
 1554SOL     ow 6213   6.416   6.377   2.042 -0.1153  0.0258 -0.2798
 1554SOL     hw 6214   6.390   6.341   1.957  3.0027  0.9257 -1.7417
 1554SOL     hw 6215   6.444   6.466   2.023 -1.9610  1.2890  2.2588
 1554SOL     vw 6216   6.416   6.384   2.029  0.0525  0.3111 -0.1378
 1555SOL     ow 6217   6.006   6.074   0.173 -0.0506  0.4879  0.2315
 1555SOL     hw 6218   6.065   6.136   0.215  0.9560  1.0082 -1.7957
 1555SOL     hw 6219   5.918   6.109   0.189  0.4195  1.6295  0.3807
 1555SOL     vw 6220   6.002   6.087   0.181  0.1442  0.7071 -0.0162
 1556SOL     ow 6221   4.270   4.740   1.994 -0.1177 -0.3252  0.8648
 1556SOL     hw 6222   4.221   4.659   2.004 -0.4133 -0.1841  0.5720
 1556SOL     hw 6223   4.357   4.720   2.030 -0.0801 -0.8688  0.4830
 1556SOL     vw 6224   4.275   4.727   2.000 -0.1516 -0.3784  0.7758
 1557SOL     ow 6225   2.082   4.279   4.603  0.3156 -0.0310  0.1682
 1557SOL     hw 6226   2.039   4.364   4.607 -0.0283 -0.1169 -1.2028
 1557SOL     hw 6227   2.064   4.239   4.689 -2.0099  0.0904 -0.1867
 1557SOL     vw 6228   2.074   4.285   4.615 -0.0365 -0.0260 -0.0596
 1558SOL     ow 6229   6.569   6.637   1.028 -0.4715  0.2972  0.2303
 1558SOL     hw 6230   6.500   6.700   1.006 -0.1575  0.0027 -1.8162
 1558SOL     hw 6231   6.629   6.686   1.084 -1.3112  1.1636  0.4114
 1558SOL     vw 6232   6.568   6.652   1.032 -0.5410  0.3729 -0.0158
 1559SOL     ow 6233   5.141   0.331   6.052  0.6677 -0.0952  0.2215
 1559SOL     hw 6234   5.086   0.255   6.033  1.9628 -0.8080 -0.8153
 1559SOL     hw 6235   5.176   0.357   5.967  1.3231  0.8334  0.7598
 1559SOL     vw 6236   5.138   0.325   6.038  0.9253 -0.0667  0.1557
 1560SOL     ow 6237   5.250   5.734   5.517  0.8994  0.1913  0.5307
 1560SOL     hw 6238   5.289   5.722   5.603  1.3072 -0.9777  0.2005
 1560SOL     hw 6239   5.319   5.776   5.465  0.5495  1.1745  0.8409
 1560SOL     vw 6240   5.264   5.738   5.521  0.9074  0.1669  0.5281
 1561SOL     ow 6241   4.416   5.052   0.587  0.1528 -0.8559 -0.1105
 1561SOL     hw 6242   4.445   4.998   0.661 -1.1426 -0.8164  0.4495
 1561SOL     hw 6243   4.350   4.998   0.543  1.0600 -0.9692 -1.3890
 1561SOL     vw 6244   4.411   5.038   0.591  0.1016 -0.8655 -0.2053
 1562SOL     ow 6245   6.781   2.955   3.413 -0.0324  0.1608  0.8115
 1562SOL     hw 6246   6.756   2.871   3.375  0.2855  0.4917 -0.1370
 1562SOL     hw 6247   6.701   3.008   3.410 -0.0084  0.1864  0.5949
 1562SOL     vw 6248   6.767   2.951   3.408  0.0126  0.2079  0.6578
 1563SOL     ow 6249   6.449   6.897   2.890 -0.1801 -0.0093  0.0211
 1563SOL     hw 6250   6.516   6.831   2.907 -0.3079 -0.2946 -0.5539
 1563SOL     hw 6251   6.375   6.847   2.855 -0.6406  0.3205  0.5134
 1563SOL     vw 6252   6.448   6.881   2.887 -0.2575 -0.0036  0.0103
 1564SOL     ow 6253   5.340   1.202   5.498 -0.0400  0.7684  0.1307
 1564SOL     hw 6254   5.296   1.121   5.472  0.5036  0.9022 -1.3268
 1564SOL     hw 6255   5.366   1.188   5.589 -1.9025  0.1772  0.6137
 1564SOL     vw 6256   5.337   1.190   5.506 -0.2139  0.7081  0.0021
 1565SOL     ow 6257   5.311   6.898   4.731  0.7749  0.4791  0.3045
 1565SOL     hw 6258   5.249   6.872   4.799  1.8288  0.6840  1.3841
 1565SOL     hw 6259   5.280   6.855   4.652  0.3046 -0.9248  1.2107
 1565SOL     vw 6260   5.299   6.889   4.730  0.8519  0.3209  0.5667
 1566SOL     ow 6261   6.574   3.165   0.153 -0.3257  0.2159 -0.1883
 1566SOL     hw 6262   6.633   3.162   0.078 -0.1989 -1.0552 -0.0593
 1566SOL     hw 6263   6.497   3.116   0.126  0.6029 -2.2021  1.1925
 1566SOL     vw 6264   6.572   3.158   0.140 -0.1867 -0.2708  0.0109
 1567SOL     ow 6265   5.798   4.780   3.398  0.7378 -0.7358 -0.1714
 1567SOL     hw 6266   5.861   4.795   3.468  0.4974  0.3252 -0.1653
 1567SOL     hw 6267   5.723   4.739   3.442  1.4635 -2.1257 -0.2056
 1567SOL     vw 6268   5.796   4.777   3.413  0.8018 -0.7792 -0.1751
 1568SOL     ow 6269   6.893   6.408   4.887 -0.6455  0.0064  0.4046
 1568SOL     hw 6270   6.956   6.478   4.902 -2.2854  1.8904 -0.8938
 1568SOL     hw 6271   6.808   6.449   4.901 -1.6760 -1.7282 -0.4383
 1568SOL     vw 6272   6.890   6.422   4.891 -0.9978  0.0260  0.1221
 1569SOL     ow 6273   4.147   3.950   6.887  0.2694  0.1902 -0.0781
 1569SOL     hw 6274   4.189   3.865   6.870  0.3905  0.3718 -0.7388
 1569SOL     hw 6275   4.139   3.955   6.982  0.2336 -0.5750 -0.0380
 1569SOL     vw 6276   4.152   3.940   6.897  0.2806  0.1132 -0.1600
 1570SOL     ow 6277   2.183   1.066   4.906  0.0621 -0.3501 -0.3314
 1570SOL     hw 6278   2.140   1.004   4.965 -0.2940  0.7141  0.5688
 1570SOL     hw 6279   2.225   1.011   4.839 -1.4736 -1.4905 -0.4212
 1570SOL     vw 6280   2.183   1.050   4.905 -0.1878 -0.3601 -0.2244
 1571SOL     ow 6281   5.071   2.431   6.754 -0.1682 -0.2686 -0.5979
 1571SOL     hw 6282   5.090   2.340   6.734  0.2679 -0.3297  0.0662
 1571SOL     hw 6283   5.066   2.474   6.668  2.3902 -0.3687 -0.8866
 1571SOL     vw 6284   5.073   2.425   6.740  0.2270 -0.2897 -0.5484
 1572SOL     ow 6285   2.974   6.669   2.555 -0.5819 -0.4028 -0.0863
 1572SOL     hw 6286   2.905   6.603   2.556  0.1483 -1.1750  0.8026
 1572SOL     hw 6287   2.991   6.688   2.647 -1.3463  1.6702 -0.3170
 1572SOL     vw 6288   2.967   6.662   2.567 -0.5864 -0.2310  0.0006
 1573SOL     ow 6289   2.973   3.080   0.321 -0.2902 -0.0582 -0.0867
 1573SOL     hw 6290   2.879   3.063   0.320 -0.4357  0.6209 -1.9056
 1573SOL     hw 6291   3.012   3.001   0.284 -0.0927 -0.4814  0.9895
 1573SOL     vw 6292   2.966   3.067   0.316 -0.2835 -0.0246 -0.1847
 1574SOL     ow 6293   1.831   5.526   7.315 -0.3580 -0.0376  0.2560
 1574SOL     hw 6294   1.771   5.587   7.357  0.7220  1.5150 -0.3660
 1574SOL     hw 6295   1.918   5.564   7.328  0.3388 -1.3735 -0.2692
 1574SOL     vw 6296   1.835   5.539   7.322 -0.1235 -0.0091  0.1047
 1575SOL     ow 6297   2.305   0.235   2.793 -0.0337 -0.5077 -0.4194
 1575SOL     hw 6298   2.348   0.246   2.708 -0.2223 -0.7681 -0.5516
 1575SOL     hw 6299   2.244   0.309   2.798  0.9129  0.2629  0.0798
 1575SOL     vw 6300   2.302   0.247   2.782  0.0662 -0.4404 -0.3710
 1576SOL     ow 6301   5.526   6.533   0.689  0.6650  0.3979  0.0772
 1576SOL     hw 6302   5.510   6.442   0.666  0.1372  0.4243  0.3436
 1576SOL     hw 6303   5.482   6.584   0.621  0.4226  0.4584  0.2766
 1576SOL     vw 6304   5.518   6.528   0.677  0.5634  0.4096  0.1387
 1577SOL     ow 6305   6.530   1.732   6.580 -0.1126 -0.5271  0.2758
 1577SOL     hw 6306   6.507   1.640   6.593 -0.8537 -0.2442  1.0737
 1577SOL     hw 6307   6.568   1.759   6.664 -1.6331  0.3793  0.7237
 1577SOL     vw 6308   6.532   1.724   6.593 -0.4110 -0.3702  0.4401
 1578SOL     ow 6309   0.395   1.924   4.865 -0.4665 -0.4825 -0.1815
 1578SOL     hw 6310   0.407   1.949   4.773 -1.2605  0.7600  0.0280
 1578SOL     hw 6311   0.430   1.835   4.870  0.3329 -0.2759 -1.4993
 1578SOL     vw 6312   0.401   1.916   4.853 -0.4658 -0.2913 -0.3276
 1579SOL     ow 6313   2.168   5.404   0.743 -0.3353  0.0339  0.0486
 1579SOL     hw 6314   2.158   5.444   0.829  0.5272  1.1107 -0.3279
 1579SOL     hw 6315   2.083   5.414   0.701 -0.0233  1.9464 -0.2129
 1579SOL     vw 6316   2.156   5.411   0.749 -0.1805  0.4284 -0.0356
 1580SOL     ow 6317   4.661   6.705   0.126  0.5042 -0.2920  0.0801
 1580SOL     hw 6318   4.605   6.644   0.078 -0.2560 -0.2047  0.8434
 1580SOL     hw 6319   4.601   6.772   0.159  1.1161  0.0393  0.5417
 1580SOL     vw 6320   4.646   6.706   0.124  0.4849 -0.2370  0.2417
 1581SOL     ow 6321   5.275   0.159   5.049  0.3551 -0.2314 -0.5617
 1581SOL     hw 6322   5.291   0.174   5.142  1.5571 -1.7926 -0.4538
 1581SOL     hw 6323   5.185   0.127   5.045  0.0400  0.5534 -0.0458
 1581SOL     vw 6324   5.265   0.156   5.061  0.4721 -0.3338 -0.4795
 1582SOL     ow 6325   1.768   0.982   2.245  0.5209 -0.4697 -0.2930
 1582SOL     hw 6326   1.716   0.917   2.293 -2.5529  1.9074 -0.1214
 1582SOL     hw 6327   1.812   1.032   2.313  0.1758 -0.2586 -0.2224
 1582SOL     vw 6328   1.767   0.980   2.261  0.0698 -0.1282 -0.2609
 1583SOL     ow 6329   2.973   0.099   6.122  0.1944 -0.4722 -0.7902
 1583SOL     hw 6330   2.909   0.050   6.174  0.0657 -0.4682 -0.9444
 1583SOL     hw 6331   3.037   0.130   6.186 -1.4455  1.9545 -0.1728
 1583SOL     vw 6332   2.973   0.096   6.138 -0.0389 -0.1515 -0.7288
 1584SOL     ow 6333   5.185   1.829   2.505 -0.8582 -0.0415 -0.0588
 1584SOL     hw 6334   5.119   1.794   2.565  0.5982 -1.9217  0.5648
 1584SOL     hw 6335   5.208   1.754   2.449 -0.2008  0.9259 -1.1212
 1584SOL     vw 6336   5.179   1.814   2.505 -0.5794 -0.1620 -0.1167
 1585SOL     ow 6337   0.594   2.247   0.686 -0.2408  0.2761 -0.2302
 1585SOL     hw 6338   0.568   2.166   0.731  1.2308 -0.5677 -0.8324
 1585SOL     hw 6339   0.591   2.225   0.593  1.3548  0.4913 -0.3696
 1585SOL     vw 6340   0.590   2.234   0.680  0.1639  0.1931 -0.3281
 1586SOL     ow 6341   6.163   2.305   1.269  0.2535  0.0111  0.0569
 1586SOL     hw 6342   6.239   2.310   1.326 -0.4004  0.3151  0.9389
 1586SOL     hw 6343   6.124   2.393   1.274 -0.3682 -0.2505 -0.0644
 1586SOL     vw 6344   6.168   2.318   1.277  0.0851  0.0168  0.1572
 1587SOL     ow 6345   0.264   3.698   0.559  0.1193  0.2329  0.4757
 1587SOL     hw 6346   0.330   3.649   0.608 -0.1759 -0.2508  0.3996
 1587SOL     hw 6347   0.186   3.643   0.562  0.5532 -0.6455 -1.9708
 1587SOL     vw 6348   0.263   3.684   0.566  0.1376  0.0532  0.1429
 1588SOL     ow 6349   1.426   6.284   2.685 -0.0153  0.2367  0.6365
 1588SOL     hw 6350   1.430   6.189   2.696 -1.3824  0.0279 -0.4384
 1588SOL     hw 6351   1.336   6.308   2.710  0.5959  1.4140  1.8772
 1588SOL     vw 6352   1.415   6.275   2.690 -0.1149  0.3645  0.6585
 1589SOL     ow 6353   6.386   1.704   2.003 -0.1012 -0.0315 -0.0311
 1589SOL     hw 6354   6.413   1.794   1.983 -0.1349  0.4847  1.9916
 1589SOL     hw 6355   6.298   1.697   1.966  0.5702  0.1555 -1.7425
 1589SOL     vw 6356   6.378   1.715   1.996 -0.0172  0.0613  0.0100
 1590SOL     ow 6357   7.253   1.423   4.554 -0.2366 -0.4298  0.2393
 1590SOL     hw 6358   7.252   1.518   4.548 -0.7609 -0.2765  2.2417
 1590SOL     hw 6359   7.195   1.402   4.627  1.7256 -2.1266  1.4379
 1590SOL     vw 6360   7.245   1.433   4.563 -0.0470 -0.6335  0.6616
 1591SOL     ow 6361   6.722   4.939   0.020  0.1135 -0.0525  0.1338
 1591SOL     hw 6362   6.682   5.018   0.057 -0.2427 -0.3311  0.3541
 1591SOL     hw 6363   6.813   4.942   0.052  0.7213  1.3338 -1.5489
 1591SOL     vw 6364   6.729   4.950   0.029  0.1466  0.0937 -0.0592
 1592SOL     ow 6365   0.319   3.073   1.467 -0.0323 -0.2180  0.2228
 1592SOL     hw 6366   0.404   3.080   1.510 -1.0110 -0.5342  2.2945
 1592SOL     hw 6367   0.281   2.993   1.502 -1.4449  0.2437 -0.2037
 1592SOL     vw 6368   0.325   3.064   1.477 -0.3478 -0.1990  0.4399
 1593SOL     ow 6369   2.755   3.637   7.365  0.2719 -0.2867  0.2665
 1593SOL     hw 6370   2.681   3.659   7.421 -1.4180 -0.7862 -1.6793
 1593SOL     hw 6371   2.767   3.543   7.376  2.1913  0.1068  2.3138
 1593SOL     vw 6372   2.747   3.628   7.374  0.3022 -0.3008  0.2799
 1594SOL     ow 6373   4.946   3.182   5.653 -0.0393 -0.0865 -0.2382
 1594SOL     hw 6374   5.041   3.190   5.641  0.0248  1.2748  0.9211
 1594SOL     hw 6375   4.935   3.170   5.748 -0.8951 -3.2191 -0.6049
 1594SOL     vw 6376   4.957   3.181   5.664 -0.1435 -0.3202 -0.1335
 1595SOL     ow 6377   2.344   6.072   5.165 -0.2180  0.0587 -0.2382
 1595SOL     hw 6378   2.418   6.065   5.225 -0.8644  0.6790  0.6518
 1595SOL     hw 6379   2.347   6.162   5.133  0.5568 -0.4633 -1.7485
 1595SOL     vw 6380   2.354   6.083   5.168 -0.2010  0.0715 -0.3202
 1596SOL     ow 6381   4.853   6.633   6.147 -0.2860 -0.2588  0.2184
 1596SOL     hw 6382   4.818   6.720   6.126  0.5542  0.2980  1.0571
 1596SOL     hw 6383   4.914   6.614   6.076  0.3766  0.3358  0.6303
 1596SOL     vw 6384   4.856   6.642   6.135 -0.0877 -0.1068  0.3831
 1597SOL     ow 6385   0.814   0.735   4.718 -0.7621  0.1399 -1.1417
 1597SOL     hw 6386   0.900   0.698   4.701 -1.1734  0.0001 -3.1678
 1597SOL     hw 6387   0.831   0.823   4.752  0.1611 -0.1614 -0.8037
 1597SOL     vw 6388   0.827   0.742   4.720 -0.6946  0.0817 -1.3645
 1598SOL     ow 6389   0.263   6.855   5.480 -0.1039  0.0726  0.4029
 1598SOL     hw 6390   0.196   6.900   5.531  0.3856  1.4908 -0.1563
 1598SOL     hw 6391   0.253   6.889   5.391 -0.3466 -1.6850 -0.2776
 1598SOL     vw 6392   0.253   6.865   5.475 -0.0713  0.0277  0.2394
 1599SOL     ow 6393   0.518   1.553   6.287  0.1792 -0.2447 -0.1691
 1599SOL     hw 6394   0.599   1.585   6.327 -0.4695 -0.2996  1.2716
 1599SOL     hw 6395   0.522   1.458   6.299 -0.6169 -0.1525  1.0035
 1599SOL     vw 6396   0.529   1.545   6.294 -0.0114 -0.2398  0.1757
 1600SOL     ow 6397   5.973   0.956   0.483  0.0881 -0.1472 -0.1827
 1600SOL     hw 6398   5.991   0.962   0.577 -2.0200  2.4850  0.1438
 1600SOL     hw 6399   6.035   1.017   0.443  0.0077 -0.1762 -0.3499
 1600SOL     vw 6400   5.984   0.964   0.490 -0.2005  0.1962 -0.1617
 1601SOL     ow 6401   4.540   4.640   2.512  0.3331  0.6937 -0.4219
 1601SOL     hw 6402   4.585   4.614   2.432  1.2949  0.4623  0.1848
 1601SOL     hw 6403   4.484   4.565   2.534  0.5956  0.4749 -0.4951
 1601SOL     vw 6404   4.539   4.627   2.504  0.4945  0.6344 -0.3515
 1602SOL     ow 6405   5.201   2.984   2.706 -0.0596  0.1965 -0.0250
 1602SOL     hw 6406   5.118   2.985   2.659  0.0540 -0.9933 -0.2805
 1602SOL     hw 6407   5.263   3.027   2.646 -0.2239 -0.0179 -0.3481
 1602SOL     vw 6408   5.198   2.990   2.691 -0.0663  0.0113 -0.1013
 1603SOL     ow 6409   4.869   3.075   5.926 -0.3811  0.1176 -0.5082
 1603SOL     hw 6410   4.859   3.048   6.017  0.1879  1.2597 -0.0847
 1603SOL     hw 6411   4.790   3.126   5.907  0.2559  1.3095 -0.0923
 1603SOL     vw 6412   4.857   3.078   5.935 -0.2220  0.4255 -0.3974
 1604SOL     ow 6413   2.042   3.670   3.244  0.8375 -0.0001  0.0457
 1604SOL     hw 6414   2.048   3.579   3.274  0.1273 -0.3422 -0.8088
 1604SOL     hw 6415   2.113   3.678   3.180  1.2181  0.1988  0.4904
 1604SOL     vw 6416   2.052   3.659   3.239  0.7941 -0.0190 -0.0082
 1605SOL     ow 6417   0.065   4.454   6.354  0.1337  0.7791 -0.2269
 1605SOL     hw 6418   0.147   4.404   6.359 -0.6136 -0.3780  1.5744
 1605SOL     hw 6419   0.066   4.493   6.267  1.1613 -1.7281 -1.4362
 1605SOL     vw 6420   0.076   4.453   6.343  0.1707  0.2959 -0.1488
 1606SOL     ow 6421   4.979   5.808   1.116 -0.3091  0.2040  0.0283
 1606SOL     hw 6422   5.034   5.773   1.045 -1.1091  2.3627 -1.7655
 1606SOL     hw 6423   4.955   5.731   1.167  0.6175 -1.4153 -1.8129
 1606SOL     vw 6424   4.983   5.793   1.113 -0.2925  0.2751 -0.4513
 1607SOL     ow 6425   0.776   4.208   4.186  0.2456  0.2546  0.2446
 1607SOL     hw 6426   0.753   4.182   4.097 -0.4189  1.1438  0.1461
 1607SOL     hw 6427   0.872   4.198   4.189  0.2380 -0.1098 -0.4526
 1607SOL     vw 6428   0.786   4.203   4.175  0.1569  0.3238  0.1397
 1608SOL     ow 6429   5.514   3.195   4.004  0.2122  0.0976 -0.5661
 1608SOL     hw 6430   5.484   3.127   4.064  0.8836 -1.3915 -1.8421
 1608SOL     hw 6431   5.580   3.244   4.054  0.7068 -1.0628 -0.0549
 1608SOL     vw 6432   5.519   3.193   4.019  0.3660 -0.2521 -0.6669
 1609SOL     ow 6433   5.421   5.812   4.725 -0.0219 -0.4906  0.3599
 1609SOL     hw 6434   5.329   5.839   4.725  0.0913 -0.0926  0.2903
 1609SOL     hw 6435   5.469   5.891   4.748  0.2915 -0.7485  0.6051
 1609SOL     vw 6436   5.416   5.826   4.728  0.0343 -0.4721  0.3829
 1610SOL     ow 6437   5.483   3.801   1.486  0.1171  0.1077  0.6820
 1610SOL     hw 6438   5.575   3.774   1.492 -0.2849 -1.5453  0.0001
 1610SOL     hw 6439   5.468   3.814   1.392 -0.6162 -0.7005  0.6785
 1610SOL     vw 6440   5.493   3.799   1.474 -0.0327 -0.2171  0.5916
 1611SOL     ow 6441   5.751   6.829   4.228  0.0911  0.5407  0.0125
 1611SOL     hw 6442   5.771   6.780   4.307  1.3391  0.5682 -0.2737
 1611SOL     hw 6443   5.835   6.840   4.184 -0.6276  0.2048 -1.5082
 1611SOL     vw 6444   5.765   6.824   4.233  0.1607  0.5000 -0.2258
 1612SOL     ow 6445   6.031   7.463   1.210 -0.2185 -0.5178  0.0886
 1612SOL     hw 6446   5.953   7.411   1.195 -0.7200  0.4562 -0.8026
 1612SOL     hw 6447   5.999   7.544   1.249  0.2820  0.0829 -0.7084
 1612SOL     vw 6448   6.017   7.467   1.213 -0.2186 -0.3102 -0.1342
 1613SOL     ow 6449   5.242   4.929   6.564  0.0516 -0.2004  0.0959
 1613SOL     hw 6450   5.223   4.839   6.537  0.8671 -0.7445  1.2188
 1613SOL     hw 6451   5.322   4.952   6.516 -0.5982  0.2255 -0.7934
 1613SOL     vw 6452   5.250   4.920   6.554  0.0734 -0.2160  0.1271
 1614SOL     ow 6453   1.702   0.449   2.292  0.1565  0.0616 -0.4665
 1614SOL     hw 6454   1.607   0.458   2.304  0.2701  1.9740 -0.6832
 1614SOL     hw 6455   1.712   0.424   2.200 -0.1255  0.3377 -0.5748
 1614SOL     vw 6456   1.691   0.447   2.282  0.1343  0.3504 -0.5094
 1615SOL     ow 6457   2.375   6.677   0.498 -0.5136  0.9316 -0.4826
 1615SOL     hw 6458   2.446   6.736   0.524 -2.2414  2.1357  1.8271
 1615SOL     hw 6459   2.325   6.726   0.432  0.6117  0.1543 -1.9740
 1615SOL     vw 6460   2.378   6.691   0.493 -0.5932  0.9878 -0.3746
 1616SOL     ow 6461   1.775   6.798   3.571 -0.0557 -0.3207 -0.0809
 1616SOL     hw 6462   1.840   6.867   3.582 -0.6404  0.2279 -0.0679
 1616SOL     hw 6463   1.693   6.837   3.600 -1.2218  0.3455 -3.7628
 1616SOL     vw 6464   1.773   6.812   3.576 -0.2867 -0.1602 -0.5649
 1617SOL     ow 6465   1.973   4.333   0.443  0.5051 -0.6041  0.3132
 1617SOL     hw 6466   2.059   4.306   0.412  1.6810  0.6314  2.2434
 1617SOL     hw 6467   1.935   4.254   0.482  1.4072 -0.8333  0.7555
 1617SOL     vw 6468   1.980   4.319   0.444  0.7793 -0.4711  0.6262
 1618SOL     ow 6469   6.554   0.608   3.564  0.3482 -0.3705 -0.0734
 1618SOL     hw 6470   6.505   0.632   3.643  1.1485 -0.1637  0.3738
 1618SOL     hw 6471   6.500   0.542   3.521  0.0929 -0.7800  0.8589
 1618SOL     vw 6472   6.540   0.602   3.569  0.4201 -0.3973  0.1086
 1619SOL     ow 6473   3.828   2.380   1.196 -0.2414  0.2253  0.0438
 1619SOL     hw 6474   3.770   2.349   1.266 -1.2852 -0.1783 -0.9740
 1619SOL     hw 6475   3.812   2.474   1.191 -1.7668 -0.0693 -1.0622
 1619SOL     vw 6476   3.819   2.389   1.205 -0.5804  0.1332 -0.2364
 1620SOL     ow 6477   3.691   1.149   6.969  0.0613 -0.1736 -0.0355
 1620SOL     hw 6478   3.727   1.074   6.920  0.6067 -1.1744  1.8069
 1620SOL     hw 6479   3.699   1.222   6.908  2.3816 -0.9956 -0.8613
 1620SOL     vw 6480   3.697   1.149   6.954  0.4393 -0.4141  0.0985
 1621SOL     ow 6481   1.768   6.127   1.483 -0.2569 -0.0199  0.4482
 1621SOL     hw 6482   1.854   6.143   1.523  0.8929 -0.2951 -1.7663
 1621SOL     hw 6483   1.745   6.038   1.510  2.2356 -1.6571 -2.2773
 1621SOL     vw 6484   1.777   6.117   1.492  0.2237 -0.2720 -0.2036
 1622SOL     ow 6485   5.178   1.886   1.217  0.4221 -0.2613  0.3554
 1622SOL     hw 6486   5.240   1.826   1.257  0.3330  1.4392  3.2983
 1622SOL     hw 6487   5.127   1.831   1.156  2.2292 -2.4664  0.7114
 1622SOL     vw 6488   5.180   1.871   1.214  0.6485 -0.3278  0.7907
 1623SOL     ow 6489   4.971   4.258   1.739 -0.2560 -0.2421  0.1680
 1623SOL     hw 6490   4.896   4.272   1.796 -1.0626 -0.5325 -0.7940
 1623SOL     hw 6491   4.942   4.287   1.652  0.5904 -0.7699 -0.3141
 1623SOL     vw 6492   4.958   4.264   1.735 -0.2511 -0.3502 -0.0225
 1624SOL     ow 6493   5.200   0.964   5.483 -0.2091 -0.4668  0.7215
 1624SOL     hw 6494   5.247   0.904   5.540  0.1331 -0.2130  0.7088
 1624SOL     hw 6495   5.207   0.924   5.396 -1.2250 -1.1499  0.9412
 1624SOL     vw 6496   5.207   0.951   5.479 -0.2980 -0.5235  0.7489
 1625SOL     ow 6497   1.625   2.785   0.785  0.3757  0.2455  0.6765
 1625SOL     hw 6498   1.593   2.832   0.863  1.0097  1.2111  0.3802
 1625SOL     hw 6499   1.717   2.768   0.805  0.1648 -0.8630  0.7558
 1625SOL     vw 6500   1.633   2.789   0.798  0.4315  0.2267  0.6479
 1626SOL     ow 6501   0.686   1.266   7.123  0.2027 -0.4534 -0.2366
 1626SOL     hw 6502   0.661   1.174   7.130 -1.1145 -0.1870 -1.0541
 1626SOL     hw 6503   0.605   1.314   7.143 -0.3299  0.4619 -3.8661
 1626SOL     vw 6504   0.672   1.260   7.127 -0.0414 -0.2975 -0.8233
 1627SOL     ow 6505   5.363   1.848   1.564 -0.2629  0.1654  0.2344
 1627SOL     hw 6506   5.316   1.771   1.532 -0.1160  0.2474 -0.1884
 1627SOL     hw 6507   5.430   1.813   1.623  0.2486 -0.0940 -0.4847
 1627SOL     vw 6508   5.365   1.833   1.567 -0.1757  0.1420  0.0837
 1628SOL     ow 6509   1.849   5.386   0.582 -0.3055 -0.5232  0.0328
 1628SOL     hw 6510   1.875   5.296   0.560  1.3131 -0.1262  0.2042
 1628SOL     hw 6511   1.839   5.429   0.496  1.7182 -0.1472 -0.0738
 1628SOL     vw 6512   1.851   5.380   0.567  0.1751 -0.4210  0.0414
 1629SOL     ow 6513   1.558   5.781   1.786  0.1175 -0.8491 -0.2848
 1629SOL     hw 6514   1.632   5.815   1.836 -1.3006  1.2195  0.5897
 1629SOL     hw 6515   1.569   5.816   1.698 -0.3520  0.4240  0.1358
 1629SOL     vw 6516   1.569   5.790   1.781 -0.1315 -0.4082 -0.1139
 1630SOL     ow 6517   2.730   3.571   1.367  0.6067 -0.1013 -0.7856
 1630SOL     hw 6518   2.774   3.544   1.447 -0.0504  2.6620  0.6072
 1630SOL     hw 6519   2.777   3.650   1.338 -0.5531  0.2329 -1.8635
 1630SOL     vw 6520   2.742   3.578   1.373  0.3668  0.3074 -0.7440
 1631SOL     ow 6521   0.953   4.020   7.014 -0.0611  0.1450 -0.0181
 1631SOL     hw 6522   0.989   3.949   6.961 -0.3098 -0.0588  0.0847
 1631SOL     hw 6523   0.938   3.981   7.100  0.9263  0.6395  0.3914
 1631SOL     vw 6524   0.956   4.006   7.018  0.0364  0.1831  0.0494
 1632SOL     ow 6525   5.369   2.006   1.942 -0.1793 -0.7527  0.1969
 1632SOL     hw 6526   5.443   2.054   1.906  0.2743 -1.8518 -0.4096
 1632SOL     hw 6527   5.303   2.072   1.961  0.5465  0.1223 -0.2959
 1632SOL     vw 6528   5.370   2.021   1.940 -0.0238 -0.7825  0.0519
 1633SOL     ow 6529   1.326   3.227   5.533 -0.4041  0.5011  0.5885
 1633SOL     hw 6530   1.399   3.166   5.525  1.0206  2.0497  0.9583
 1633SOL     hw 6531   1.275   3.195   5.608 -0.1182 -0.6198  0.3092
 1633SOL     vw 6532   1.329   3.215   5.542 -0.1784  0.5575  0.6003
 1634SOL     ow 6533   6.540   3.031   4.185  0.3432 -0.8477  0.2189
 1634SOL     hw 6534   6.511   2.944   4.158 -0.0579 -0.7258  0.2554
 1634SOL     hw 6535   6.551   3.025   4.280  2.4775 -1.4925 -0.0070
 1634SOL     vw 6536   6.538   3.019   4.194  0.5720 -0.9167  0.1938
 1635SOL     ow 6537   5.447   6.639   4.783  0.2261 -0.4010  0.2875
 1635SOL     hw 6538   5.375   6.612   4.841  0.0568 -1.3557 -0.3434
 1635SOL     hw 6539   5.409   6.709   4.730 -0.4582 -1.3207 -0.4720
 1635SOL     vw 6540   5.432   6.645   4.784  0.1135 -0.6485  0.1040
 1636SOL     ow 6541   2.944   4.990   1.617  0.6014  0.2321  0.1905
 1636SOL     hw 6542   2.968   4.906   1.657 -0.7420 -0.3439 -0.1588
 1636SOL     hw 6543   2.853   4.979   1.591  1.2282  0.7421 -2.5878
 1636SOL     vw 6544   2.935   4.977   1.619  0.5069  0.2234 -0.2221
 1637SOL     ow 6545   3.532   3.422   1.483  0.3777 -0.4289  0.6448
 1637SOL     hw 6546   3.579   3.392   1.406  1.2981 -0.3149  1.1444
 1637SOL     hw 6547   3.516   3.515   1.467  0.2480 -0.4888  0.4323
 1637SOL     vw 6548   3.536   3.430   1.471  0.4820 -0.4216  0.6827
 1638SOL     ow 6549   4.914   2.183   0.937  0.4925  1.1913 -0.1800
 1638SOL     hw 6550   4.895   2.090   0.921 -0.0887  1.1410  0.7335
 1638SOL     hw 6551   4.920   2.221   0.849 -0.4982  0.5241 -0.5611
 1638SOL     vw 6552   4.912   2.176   0.923  0.2851  1.0967 -0.1098
 1639SOL     ow 6553   4.849   4.806   6.281  0.2345 -0.0430 -0.1721
 1639SOL     hw 6554   4.873   4.746   6.211 -1.5894 -1.5030  0.3692
 1639SOL     hw 6555   4.776   4.857   6.245 -0.0338 -0.0805  0.3126
 1639SOL     vw 6556   4.843   4.805   6.267 -0.0415 -0.2408 -0.0367
 1640SOL     ow 6557   4.131   6.877   3.458  0.5441 -0.1550  0.4345
 1640SOL     hw 6558   4.073   6.829   3.516 -0.2004 -0.0025 -0.1644
 1640SOL     hw 6559   4.075   6.945   3.419  1.1391  0.0481 -0.0863
 1640SOL     vw 6560   4.116   6.880   3.461  0.5243 -0.1080  0.2868
 1641SOL     ow 6561   6.914   7.455   2.917 -0.5773  0.2272 -0.8576
 1641SOL     hw 6562   6.993   7.463   2.971 -0.4803  0.5703 -1.0477
 1641SOL     hw 6563   6.936   7.388   2.852 -0.6473 -0.0915 -0.5509
 1641SOL     vw 6564   6.927   7.447   2.915 -0.5736  0.2303 -0.8423
 1642SOL     ow 6565   2.570   1.819   7.231  0.0061 -0.9740 -0.3364
 1642SOL     hw 6566   2.622   1.899   7.221  0.7582 -1.4872 -0.5939
 1642SOL     hw 6567   2.566   1.804   7.325 -0.5016 -0.4107 -0.2554
 1642SOL     vw 6568   2.576   1.828   7.242  0.0383 -0.9674 -0.3598
 1643SOL     ow 6569   1.726   5.969   2.141  0.2395  0.3452 -0.3450
 1643SOL     hw 6570   1.755   6.053   2.106  0.0589 -0.8130 -3.6116
 1643SOL     hw 6571   1.798   5.909   2.121  1.1144 -0.1442  3.4021
 1643SOL     vw 6572   1.739   5.972   2.134  0.3311  0.1278 -0.2816
 1644SOL     ow 6573   1.913   6.975   5.327 -0.9786 -0.2235 -0.3336
 1644SOL     hw 6574   1.985   6.988   5.266 -2.0977 -0.0972 -1.6582
 1644SOL     hw 6575   1.932   6.891   5.369  0.0751 -0.0529 -0.4410
 1644SOL     vw 6576   1.925   6.965   5.325 -0.9872 -0.1845 -0.5224
 1645SOL     ow 6577   6.892   5.649   7.098  0.2953 -0.6570 -0.2753
 1645SOL     hw 6578   6.981   5.627   7.072 -0.0539 -0.7950 -1.4212
 1645SOL     hw 6579   6.883   5.612   7.186  1.0661 -1.4723 -0.5214
 1645SOL     vw 6580   6.903   5.641   7.106  0.3507 -0.7830 -0.4590
 1646SOL     ow 6581   2.399   6.528   0.136  0.2448 -0.1100 -0.8416
 1646SOL     hw 6582   2.317   6.571   0.161  1.1254  0.1974  1.7781
 1646SOL     hw 6583   2.373   6.441   0.108 -0.9914 -0.0166 -0.0587
 1646SOL     vw 6584   2.385   6.522   0.135  0.1978 -0.0572 -0.3927
 1647SOL     ow 6585   3.620   3.794   5.854  0.1172  0.0464  0.0441
 1647SOL     hw 6586   3.667   3.871   5.883 -1.3717  0.2535  2.1586
 1647SOL     hw 6587   3.528   3.822   5.850 -0.5640 -1.7785  1.6242
 1647SOL     vw 6588   3.614   3.808   5.857 -0.1690 -0.1670  0.5317
 1648SOL     ow 6589   0.316   1.332   1.477 -0.5670 -0.0576 -0.2286
 1648SOL     hw 6590   0.336   1.345   1.384 -1.2534 -1.5866 -0.6357
 1648SOL     hw 6591   0.291   1.239   1.483  1.1257 -0.4803  1.7971
 1648SOL     vw 6592   0.315   1.321   1.466 -0.4342 -0.3151 -0.0150
 1649SOL     ow 6593   3.234   6.694   5.472 -0.5758  0.3265  0.2048
 1649SOL     hw 6594   3.147   6.684   5.434 -0.4840 -0.9034  0.2587
 1649SOL     hw 6595   3.232   6.639   5.551  0.8732 -1.4884 -0.9308
 1649SOL     vw 6596   3.222   6.685   5.477 -0.3725 -0.0751  0.0622
 1650SOL     ow 6597   1.259   7.344   6.836  0.3825  0.6353  0.0588
 1650SOL     hw 6598   1.310   7.281   6.786  0.3581 -1.4270  2.4429
 1650SOL     hw 6599   1.168   7.325   6.814  0.4377  0.9442 -0.4404
 1650SOL     vw 6600   1.253   7.333   6.827  0.3866  0.4039  0.3073
 1651SOL     ow 6601   4.661   0.242   6.849  0.0942 -0.1175  0.5849
 1651SOL     hw 6602   4.730   0.257   6.914  1.1235  0.4252 -0.5849
 1651SOL     hw 6603   4.708   0.233   6.766 -1.2018 -0.5844 -0.1235
 1651SOL     vw 6604   4.676   0.243   6.847  0.0591 -0.1075  0.3369
 1652SOL     ow 6605   5.933   1.790   2.547 -0.4354 -0.6129 -0.0117
 1652SOL     hw 6606   5.847   1.809   2.583 -0.4790  0.2178 -0.5370
 1652SOL     hw 6607   5.916   1.751   2.461 -0.3111  1.9024 -1.2804
 1652SOL     vw 6608   5.920   1.787   2.540 -0.4246 -0.1715 -0.2484
 1653SOL     ow 6609   1.150   2.938   1.219 -0.2436 -0.4355 -0.4133
 1653SOL     hw 6610   1.231   2.975   1.182 -0.6844 -0.9844 -2.0107
 1653SOL     hw 6611   1.099   3.014   1.247 -0.5420  0.1309 -2.3699
 1653SOL     vw 6612   1.154   2.953   1.218 -0.3411 -0.4331 -0.8822
 1654SOL     ow 6613   7.191   5.514   0.890  0.0951 -0.1567  0.7384
 1654SOL     hw 6614   7.225   5.449   0.951  0.0251 -1.2718 -0.3766
 1654SOL     hw 6615   7.215   5.598   0.929  1.7933 -0.8591  1.3045
 1654SOL     vw 6616   7.198   5.517   0.903  0.3099 -0.3963  0.6660
 1655SOL     ow 6617   1.448   4.313   0.659  0.2436 -0.2722  0.3210
 1655SOL     hw 6618   1.428   4.274   0.574 -1.1046  0.6490  0.1917
 1655SOL     hw 6619   1.422   4.405   0.650  0.8311  0.0310  1.4838
 1655SOL     vw 6620   1.442   4.320   0.647  0.1433 -0.1104  0.4573
 1656SOL     ow 6621   5.328   7.368   1.775 -0.0783 -0.0029 -0.3847
 1656SOL     hw 6622   5.239   7.385   1.742 -0.3399  1.1179  0.8201
 1656SOL     hw 6623   5.342   7.435   1.842  0.9874 -1.2745  0.7316
 1656SOL     vw 6624   5.318   7.379   1.780  0.0274 -0.0226 -0.0784
 1657SOL     ow 6625   4.668   5.771   5.275 -0.2145  0.7036 -0.1271
 1657SOL     hw 6626   4.736   5.706   5.260 -1.2586 -0.2998 -0.7370
 1657SOL     hw 6627   4.668   5.785   5.369  0.3854  0.2235 -0.0503
 1657SOL     vw 6628   4.677   5.765   5.285 -0.2732  0.5076 -0.1974
 1658SOL     ow 6629   0.727   5.779   1.717  0.2011 -0.5241  0.1793
 1658SOL     hw 6630   0.794   5.801   1.782  0.9111 -1.9675 -0.0224
 1658SOL     hw 6631   0.648   5.823   1.749  0.6798 -0.6874  1.6877
 1658SOL     vw 6632   0.726   5.788   1.730  0.3579 -0.7358  0.3517
 1659SOL     ow 6633   4.965   5.495   2.000 -0.7306 -0.1595 -0.1373
 1659SOL     hw 6634   4.953   5.433   2.071 -1.4506 -0.7439 -0.7417
 1659SOL     hw 6635   4.876   5.517   1.973 -0.5391 -1.6521 -2.2750
 1659SOL     vw 6636   4.951   5.490   2.006 -0.8001 -0.4337 -0.4991
 1660SOL     ow 6637   5.866   4.891   5.541  0.0323 -0.8307  0.6380
 1660SOL     hw 6638   5.945   4.892   5.488  1.0729 -0.1413  2.1290
 1660SOL     hw 6639   5.803   4.943   5.492  1.1560  0.2980  0.3389
 1660SOL     vw 6640   5.868   4.898   5.528  0.3178 -0.5906  0.7951
 1661SOL     ow 6641   7.210   4.023   0.879 -0.5164  0.5799 -0.0575
 1661SOL     hw 6642   7.250   3.955   0.824 -1.2327 -0.4120  0.6207
 1661SOL     hw 6643   7.213   4.102   0.825 -0.4970 -0.1893 -1.2190
 1661SOL     vw 6644   7.216   4.024   0.865 -0.6082  0.3474 -0.1213
 1662SOL     ow 6645   1.269   2.227   0.875 -0.2080  0.3689  0.4057
 1662SOL     hw 6646   1.303   2.276   0.799 -1.1322  0.8146  0.2707
 1662SOL     hw 6647   1.196   2.177   0.840 -0.6237  0.5519  0.9901
 1662SOL     vw 6648   1.264   2.227   0.860 -0.3847  0.4519  0.4650
 1663SOL     ow 6649   3.214   4.353   2.988  0.1663 -0.3477  0.1912
 1663SOL     hw 6650   3.159   4.276   3.004  0.1676 -0.5527 -0.7344
 1663SOL     hw 6651   3.168   4.402   2.920  0.1069  0.5334  0.8627
 1663SOL     vw 6652   3.201   4.349   2.981  0.1587 -0.2584  0.1576
 1664SOL     ow 6653   3.922   0.591   0.815  0.4979  0.8100 -0.5370
 1664SOL     hw 6654   3.830   0.567   0.803  0.3926 -0.3457  1.9147
 1664SOL     hw 6655   3.971   0.520   0.772  0.2656  1.1687 -1.4134
 1664SOL     vw 6656   3.917   0.578   0.807  0.4534  0.7048 -0.3291
 1665SOL     ow 6657   6.685   4.437   1.125 -0.2223 -0.6657  0.2190
 1665SOL     hw 6658   6.696   4.494   1.049  1.0033  0.4976  1.2135
 1665SOL     hw 6659   6.772   4.402   1.142 -0.2881 -0.2617  1.5462
 1665SOL     vw 6660   6.698   4.440   1.117 -0.0691 -0.4587  0.5253
 1666SOL     ow 6661   6.312   6.642   0.696  0.0849 -0.7041 -0.1626
 1666SOL     hw 6662   6.219   6.658   0.678  0.3803 -1.9884 -3.6783
 1666SOL     hw 6663   6.350   6.729   0.702 -1.3260 -0.1367  1.8422
 1666SOL     vw 6664   6.304   6.656   0.694 -0.0625 -0.7987 -0.3619
 1667SOL     ow 6665   2.796   2.453   2.997  0.1667 -0.1597  0.0425
 1667SOL     hw 6666   2.753   2.398   2.931 -1.5866  1.3809 -0.1883
 1667SOL     hw 6667   2.767   2.417   3.080  1.1180 -1.1352 -0.0211
 1667SOL     vw 6668   2.786   2.441   2.999  0.0610 -0.0850  0.0037
 1668SOL     ow 6669   3.357   7.115   5.712 -0.5946  0.4963 -0.8270
 1668SOL     hw 6670   3.342   7.045   5.776  0.4912  1.3185  0.3898
 1668SOL     hw 6671   3.452   7.117   5.701 -0.4130  2.8142  0.4569
 1668SOL     vw 6672   3.368   7.106   5.719 -0.4274  0.9108 -0.4971
 1669SOL     ow 6673   2.061   2.419   2.893 -0.4065  0.2080  0.1379
 1669SOL     hw 6674   1.988   2.444   2.949 -2.1878  0.1208 -2.0023
 1669SOL     hw 6675   2.048   2.325   2.876  0.8669 -0.0717  0.6298
 1669SOL     vw 6676   2.050   2.410   2.898 -0.4733  0.1595 -0.0795
 1670SOL     ow 6677   3.488   6.027   0.372  0.4400 -0.4034 -0.1796
 1670SOL     hw 6678   3.431   6.022   0.449 -0.7748  0.3074 -0.9911
 1670SOL     hw 6679   3.565   6.076   0.402 -0.1117  0.0367  0.5420
 1670SOL     vw 6680   3.491   6.033   0.386  0.2068 -0.2515 -0.1914
 1671SOL     ow 6681   3.750   5.175   0.073 -0.1452  0.0239 -0.0007
 1671SOL     hw 6682   3.729   5.268   0.069  0.2991  0.0883 -2.3834
 1671SOL     hw 6683   3.834   5.170   0.119 -0.2814  0.7628  0.3364
 1671SOL     vw 6684   3.758   5.187   0.078 -0.1045  0.1299 -0.2706
 1672SOL     ow 6685   6.450   5.356   1.102 -0.3894 -0.5470  0.0725
 1672SOL     hw 6686   6.506   5.289   1.142 -0.0974 -0.8798 -0.8675
 1672SOL     hw 6687   6.428   5.320   1.016 -0.5742  0.3853 -0.2776
 1672SOL     vw 6688   6.455   5.343   1.096 -0.3753 -0.4678 -0.0978
 1673SOL     ow 6689   2.310   2.892   2.475  0.5394  0.0150 -0.3146
 1673SOL     hw 6690   2.240   2.953   2.451 -0.4728  0.0439  2.3162
 1673SOL     hw 6691   2.358   2.876   2.394 -0.1880  2.9733 -1.4404
 1673SOL     vw 6692   2.307   2.898   2.461  0.3098  0.4091 -0.1160
 1674SOL     ow 6693   3.045   3.396   0.491 -0.4194 -0.0248  0.6381
 1674SOL     hw 6694   3.039   3.311   0.535  0.4092 -0.8518 -0.7620
 1674SOL     hw 6695   3.138   3.419   0.497 -0.1630 -0.4471 -1.1110
 1674SOL     vw 6696   3.056   3.387   0.498 -0.2762 -0.1897  0.2226
 1675SOL     ow 6697   6.297   6.415   3.761  0.2186 -0.4375 -0.2998
 1675SOL     hw 6698   6.265   6.498   3.796 -0.7188 -1.1428  0.5711
 1675SOL     hw 6699   6.241   6.397   3.685  0.5099 -0.2158 -0.5703
 1675SOL     vw 6700   6.286   6.423   3.756  0.1330 -0.5012 -0.2205
 1676SOL     ow 6701   5.436   4.523   5.323 -0.1289 -0.1328 -0.2789
 1676SOL     hw 6702   5.471   4.452   5.268 -0.7016 -1.0805  0.5364
 1676SOL     hw 6703   5.458   4.603   5.276  1.1026 -0.8137 -0.9222
 1676SOL     vw 6704   5.444   4.524   5.309 -0.0420 -0.3476 -0.2561
 1677SOL     ow 6705   0.650   4.723   4.261 -0.3478  0.2591 -0.2880
 1677SOL     hw 6706   0.708   4.671   4.206 -0.4460 -0.7614  0.5502
 1677SOL     hw 6707   0.666   4.692   4.350 -2.0591  0.0456 -0.0141
 1677SOL     vw 6708   0.660   4.712   4.265 -0.5865  0.0963 -0.1416
 1678SOL     ow 6709   5.486   0.825   1.299  0.0296 -0.3294  0.1345
 1678SOL     hw 6710   5.497   0.730   1.290  1.4720 -0.0407 -1.6621
 1678SOL     hw 6711   5.431   0.850   1.225 -0.4842  0.2160  0.6952
 1678SOL     vw 6712   5.480   0.816   1.288  0.1519 -0.2193 -0.0286
 1679SOL     ow 6713   5.774   2.298   2.011 -0.1983  0.5058  0.4892
 1679SOL     hw 6714   5.847   2.294   1.949 -0.5907 -1.1193  0.0699
 1679SOL     hw 6715   5.815   2.320   2.095  1.1669 -2.3059  0.6883
 1679SOL     vw 6716   5.789   2.300   2.014 -0.0699 -0.0795  0.4600
 1680SOL     ow 6717   5.359   2.719   5.437 -0.0507  0.1800  0.3422
 1680SOL     hw 6718   5.418   2.779   5.391 -0.5170  0.2698 -0.1513
 1680SOL     hw 6719   5.343   2.761   5.522  0.8252  0.0097  0.5965
 1680SOL     vw 6720   5.365   2.733   5.442  0.0033  0.1694  0.3107
 1681SOL     ow 6721   7.387   3.194   4.656 -0.2311  0.0085 -0.0225
 1681SOL     hw 6722   7.438   3.175   4.735 -2.2010 -0.7174  1.1470
 1681SOL     hw 6723   7.373   3.109   4.615 -0.8775  0.1357 -0.0750
 1681SOL     vw 6724   7.392   3.180   4.661 -0.5763 -0.0707  0.1249
 1682SOL     ow 6725   1.225   3.968   0.643  0.1519 -0.4612  0.1142
 1682SOL     hw 6726   1.196   3.879   0.626  1.6750 -1.2042  1.1459
 1682SOL     hw 6727   1.269   3.963   0.729 -0.1588  1.3774  0.4229
 1682SOL     vw 6728   1.227   3.956   0.652  0.3118 -0.3166  0.2911
 1683SOL     ow 6729   3.006   2.767   0.613  0.5613 -0.5461 -0.4287
 1683SOL     hw 6730   3.007   2.712   0.692  1.5683 -1.6219 -1.1626
 1683SOL     hw 6731   2.921   2.812   0.617 -0.5501 -2.5385 -0.0379
 1683SOL     vw 6732   2.995   2.765   0.624  0.5475 -0.9511 -0.4740
 1684SOL     ow 6733   5.027   1.620   1.747 -0.3246 -0.4861 -0.1856
 1684SOL     hw 6734   5.020   1.596   1.654 -2.1008 -0.8564  0.0013
 1684SOL     hw 6735   5.063   1.543   1.789  0.1592 -0.4429 -0.5167
 1684SOL     vw 6736   5.031   1.607   1.740 -0.4950 -0.5292 -0.2047
 1685SOL     ow 6737   2.111   3.820   2.788 -0.4270 -0.2172  0.2817
 1685SOL     hw 6738   2.083   3.789   2.702 -1.5574  0.3829  0.4075
 1685SOL     hw 6739   2.207   3.812   2.787 -0.1388  2.1447 -2.0098
 1685SOL     vw 6740   2.120   3.815   2.777 -0.5380  0.1736 -0.0039
 1686SOL     ow 6741   6.960   2.315   6.623  0.3547  0.0581  0.1996
 1686SOL     hw 6742   6.927   2.394   6.580 -0.3988  0.3720  1.2891
 1686SOL     hw 6743   6.998   2.348   6.705 -1.0061 -0.7809  1.2222
 1686SOL     vw 6744   6.960   2.330   6.628  0.0758 -0.0112  0.4785
 1687SOL     ow 6745   5.574   5.480   2.145 -0.0881  0.4663 -0.4945
 1687SOL     hw 6746   5.526   5.563   2.152 -1.0499  0.0198 -1.4343
 1687SOL     hw 6747   5.521   5.427   2.085 -0.0972 -1.2648  0.9651
 1687SOL     vw 6748   5.560   5.484   2.138 -0.2160  0.1791 -0.4258
 1688SOL     ow 6749   1.380   0.119   4.998 -0.5472 -0.2171 -0.1140
 1688SOL     hw 6750   1.465   0.116   5.040 -0.2889  1.5944 -0.4558
 1688SOL     hw 6751   1.362   0.027   4.976  1.4110 -0.6219 -0.2503
 1688SOL     vw 6752   1.389   0.106   5.000 -0.2548 -0.0315 -0.1769
 1689SOL     ow 6753   1.015   1.161   4.411  0.5382 -0.7017  0.2309
 1689SOL     hw 6754   1.001   1.237   4.467 -0.5653 -0.7289  0.0025
 1689SOL     hw 6755   0.928   1.136   4.381  1.1908  0.4196 -2.9688
 1689SOL     vw 6756   1.002   1.167   4.415  0.4787 -0.5573 -0.2215
 1690SOL     ow 6757   3.335   0.315   3.727  0.2180 -0.1591  0.2076
 1690SOL     hw 6758   3.337   0.236   3.672  0.1183 -0.9354  1.2907
 1690SOL     hw 6759   3.386   0.292   3.805  0.0156  0.7836  0.6363
 1690SOL     vw 6760   3.342   0.302   3.730  0.1782 -0.1372  0.4071
 1691SOL     ow 6761   4.817   6.906   2.114  0.9461  0.6754  0.1595
 1691SOL     hw 6762   4.908   6.934   2.105  1.5128 -1.2185 -0.5465
 1691SOL     hw 6763   4.820   6.811   2.103 -0.9801  0.4251  1.2553
 1691SOL     vw 6764   4.829   6.897   2.111  0.7665  0.3927  0.2109
 1692SOL     ow 6765   6.092   4.115   0.879  0.4219  0.1911  0.3781
 1692SOL     hw 6766   6.138   4.033   0.862 -0.3589 -0.2677  0.4563
 1692SOL     hw 6767   6.011   4.108   0.829  0.6893  1.2438 -0.2310
 1692SOL     vw 6768   6.087   4.103   0.870  0.3543  0.2694  0.3080
 1693SOL     ow 6769   5.830   3.047   1.143 -0.3279 -0.2587  0.0524
 1693SOL     hw 6770   5.841   3.033   1.049  0.7401  1.6621 -0.1335
 1693SOL     hw 6771   5.885   2.980   1.183  0.2777 -0.2274 -0.7028
 1693SOL     vw 6772   5.839   3.036   1.136 -0.1070 -0.0011 -0.0718
 1694SOL     ow 6773   3.330   4.164   6.919 -0.2558  0.1245  0.5927
 1694SOL     hw 6774   3.411   4.138   6.877 -1.7940 -0.4066 -2.3037
 1694SOL     hw 6775   3.355   4.235   6.978  2.1986  0.3797 -0.6425
 1694SOL     vw 6776   3.344   4.170   6.921 -0.1349  0.0882  0.0474
 1695SOL     ow 6777   1.629   5.666   0.250  0.4605  0.8438 -0.2142
 1695SOL     hw 6778   1.625   5.731   0.320 -2.6036 -0.7397  1.2746
 1695SOL     hw 6779   1.709   5.616   0.267 -0.3726  0.2832  2.4607
 1695SOL     vw 6780   1.639   5.668   0.261 -0.0537  0.5610  0.3351
 1696SOL     ow 6781   6.781   0.691   0.808 -0.2420 -0.0599  0.1757
 1696SOL     hw 6782   6.780   0.765   0.747 -0.6245 -0.0735  0.1652
 1696SOL     hw 6783   6.690   0.663   0.814  0.0438 -1.2112 -0.6420
 1696SOL     vw 6784   6.769   0.697   0.801 -0.2549 -0.2137  0.0664
 1697SOL     ow 6785   2.077   1.960   6.102 -0.4398  0.0298 -0.2821
 1697SOL     hw 6786   1.994   1.944   6.058 -0.0319 -2.3123 -0.3303
 1697SOL     hw 6787   2.104   2.047   6.072 -1.6968 -0.1725 -2.1641
 1697SOL     vw 6788   2.069   1.970   6.092 -0.5519 -0.3060 -0.5367
 1698SOL     ow 6789   1.713   2.921   4.282  0.7204  0.7865  0.7627
 1698SOL     hw 6790   1.796   2.945   4.322  0.9590 -0.6715  1.2081
 1698SOL     hw 6791   1.658   2.999   4.292  1.6677  1.3867  1.4711
 1698SOL     vw 6792   1.716   2.934   4.289  0.8768  0.6735  0.9151
 1699SOL     ow 6793   4.298   0.427   2.345 -0.0757  0.9179 -0.5900
 1699SOL     hw 6794   4.219   0.418   2.398 -0.8974  2.0427 -1.5918
 1699SOL     hw 6795   4.370   0.431   2.408 -1.0365  2.2843  0.4499
 1699SOL     vw 6796   4.297   0.426   2.360 -0.3107  1.2466 -0.5851
 1700SOL     ow 6797   5.294   0.046   4.464 -0.3005  0.6284  0.0462
 1700SOL     hw 6798   5.358  -0.004   4.515 -1.5497  0.0181  1.0902
 1700SOL     hw 6799   5.290   0.002   4.380  1.2420  1.1871 -0.3563
 1700SOL     vw 6800   5.302   0.034   4.460 -0.2618  0.6216  0.1309
 1701SOL     ow 6801   5.267   3.809   4.359 -0.3988  0.9354 -0.3394
 1701SOL     hw 6802   5.231   3.797   4.447  1.1121  1.3095  0.3631
 1701SOL     hw 6803   5.345   3.863   4.372  0.8686 -0.4662 -1.6878
 1701SOL     vw 6804   5.273   3.815   4.372 -0.0322  0.7998 -0.4249
 1702SOL     ow 6805   5.094   6.147   4.002  0.4328  0.0659 -0.1369
 1702SOL     hw 6806   5.076   6.101   3.920 -0.8124  0.2804 -0.0070
 1702SOL     hw 6807   5.177   6.191   3.988  0.6376 -0.5772 -0.9877
 1702SOL     vw 6808   5.102   6.147   3.989  0.2956  0.0095 -0.2322
 1703SOL     ow 6809   5.247   7.145   0.111  0.2317  0.0997 -0.3211
 1703SOL     hw 6810   5.184   7.076   0.092  0.4211  0.0358 -0.7271
 1703SOL     hw 6811   5.229   7.213   0.045  0.5387  0.1095 -0.3961
 1703SOL     vw 6812   5.237   7.145   0.100  0.2971  0.0925 -0.3846
 1704SOL     ow 6813   4.085   3.342   3.420  0.2822  0.4018  0.0891
 1704SOL     hw 6814   3.996   3.370   3.397  0.8573  0.4182 -2.4879
 1704SOL     hw 6815   4.116   3.408   3.482 -1.9556 -0.4217  2.2164
 1704SOL     vw 6816   4.077   3.354   3.425  0.0627  0.2953  0.0298
 1705SOL     ow 6817   3.559   5.631   7.462 -0.2755 -0.3657  0.3378
 1705SOL     hw 6818   3.535   5.692   7.392  0.2797 -0.7147 -0.1677
 1705SOL     hw 6819   3.484   5.572   7.469  0.2405 -1.2186 -0.9676
 1705SOL     vw 6820   3.546   5.631   7.454 -0.1341 -0.5243  0.0989
 1706SOL     ow 6821   4.573   6.717   5.942  0.2936 -0.4168 -0.0324
 1706SOL     hw 6822   4.480   6.723   5.965  0.3951 -0.5835  0.4301
 1706SOL     hw 6823   4.576   6.652   5.872  0.1557 -1.0862  0.5584
 1706SOL     vw 6824   4.561   6.709   5.936  0.2890 -0.5269  0.1066
 1707SOL     ow 6825   2.303   1.087   6.382  0.2693 -0.3786 -0.1649
 1707SOL     hw 6826   2.273   1.107   6.471  0.2826  0.0342 -0.2485
 1707SOL     hw 6827   2.393   1.122   6.380 -0.0506  0.4598 -0.6247
 1707SOL     vw 6828   2.311   1.095   6.394  0.2289 -0.2135 -0.2367
 1708SOL     ow 6829   1.683   5.328   4.479 -0.0278 -0.2205  0.2585
 1708SOL     hw 6830   1.703   5.420   4.492  0.7535 -0.1786 -1.0373
 1708SOL     hw 6831   1.673   5.319   4.384 -1.4385 -1.2114  0.4546
 1708SOL     vw 6832   1.684   5.339   4.468 -0.1109 -0.3457  0.1132
 1709SOL     ow 6833   2.143   5.119   2.701  0.5590 -0.1092 -0.3993
 1709SOL     hw 6834   2.191   5.078   2.773 -0.4919  0.7399  0.8307
 1709SOL     hw 6835   2.051   5.101   2.720 -0.0487  3.2473  0.6181
 1709SOL     vw 6836   2.137   5.111   2.713  0.3402  0.4458 -0.1028
 1710SOL     ow 6837   2.050   0.069   1.654  0.3416 -0.3623  0.2651
 1710SOL     hw 6838   2.082   0.140   1.599  0.8454  0.4486  1.5640
 1710SOL     hw 6839   2.114   0.062   1.725 -0.0034 -1.7402  0.4705
 1710SOL     vw 6840   2.062   0.078   1.656  0.3625 -0.4371  0.4635
 1711SOL     ow 6841   7.468   2.250   5.400  0.4104 -0.5127 -0.3236
 1711SOL     hw 6842   7.521   2.178   5.366  1.4040  0.0478 -0.0133
 1711SOL     hw 6843   7.500   2.263   5.489 -0.7324 -0.6013  0.1110
 1711SOL     vw 6844   7.479   2.243   5.407  0.3907 -0.4504 -0.2253
 1712SOL     ow 6845   1.366   1.876   2.935  0.2632  0.8099 -0.2883
 1712SOL     hw 6846   1.300   1.931   2.893  0.6924 -0.5764 -3.0196
 1712SOL     hw 6847   1.354   1.789   2.896  1.6700 -0.2618  1.4774
 1712SOL     vw 6848   1.356   1.871   2.924  0.5055  0.4856 -0.4158
 1713SOL     ow 6849   5.097   1.122   7.095 -0.4389 -0.0707 -0.1301
 1713SOL     hw 6850   5.123   1.213   7.077  0.4086  0.2002  2.1038
 1713SOL     hw 6851   5.168   1.069   7.058 -0.4138  0.2389 -0.5287
 1713SOL     vw 6852   5.110   1.127   7.088 -0.3238  0.0059  0.1123
 1714SOL     ow 6853   3.122   1.668   2.790 -0.2871 -1.2167 -0.6622
 1714SOL     hw 6854   3.168   1.691   2.871 -0.4440  1.8093 -1.3493
 1714SOL     hw 6855   3.035   1.707   2.799 -1.2456 -3.0577 -1.2777
 1714SOL     vw 6856   3.117   1.676   2.802 -0.4343 -1.0603 -0.8340
 1715SOL     ow 6857   7.019   7.453   6.980  0.0028  0.1712 -0.0393
 1715SOL     hw 6858   6.990   7.509   6.909  1.3114  0.4991 -0.3337
 1715SOL     hw 6859   6.940   7.407   7.008 -0.3648 -0.7584 -2.3970
 1715SOL     vw 6860   7.005   7.454   6.974  0.1266  0.0916 -0.3893
 1716SOL     ow 6861   5.199   2.199   2.001  0.0103  0.1265  0.7396
 1716SOL     hw 6862   5.129   2.223   2.061 -1.1097  0.9851 -0.8150
 1716SOL     hw 6863   5.210   2.276   1.946  2.7178  0.2690  1.3793
 1716SOL     vw 6864   5.191   2.212   2.001  0.2198  0.2586  0.6188
 1717SOL     ow 6865   1.275   0.476   1.400 -0.4616 -0.4557 -0.0368
 1717SOL     hw 6866   1.343   0.512   1.457  1.2269 -0.3803 -1.9973
 1717SOL     hw 6867   1.312   0.394   1.367 -2.2756 -1.5695  0.5637
 1717SOL     vw 6868   1.289   0.470   1.403 -0.4781 -0.5927 -0.2162
 1718SOL     ow 6869   2.778   2.035   5.254 -0.2282  0.0635  0.6789
 1718SOL     hw 6870   2.707   2.098   5.238  0.2561  0.5699  0.4727
 1718SOL     hw 6871   2.736   1.950   5.250 -0.9806  0.3874  1.3868
 1718SOL     vw 6872   2.763   2.032   5.251 -0.2636  0.1731  0.7451
 1719SOL     ow 6873   2.685   7.238   3.065  0.2031  0.7285  0.2824
 1719SOL     hw 6874   2.609   7.225   3.007  0.0459  1.1809  0.3805
 1719SOL     hw 6875   2.760   7.215   3.011 -0.0269 -0.0110  0.2749
 1719SOL     vw 6876   2.685   7.234   3.050  0.1520  0.6909  0.2944
 1720SOL     ow 6877   5.466   5.440   0.248 -0.6546  0.1129 -0.1995
 1720SOL     hw 6878   5.549   5.430   0.203 -0.4981 -0.0831  0.1282
 1720SOL     hw 6879   5.402   5.395   0.193 -0.2397 -1.3311  0.4420
 1720SOL     vw 6880   5.469   5.433   0.235 -0.5794 -0.1035 -0.0716
 1721SOL     ow 6881   6.499   2.400   2.275  0.4543  0.4358 -0.0090
 1721SOL     hw 6882   6.439   2.447   2.217  0.9467 -1.8444 -2.5582
 1721SOL     hw 6883   6.575   2.457   2.284  0.0747  1.1281 -1.0740
 1721SOL     vw 6884   6.501   2.414   2.269  0.4692  0.2263 -0.4858
 1722SOL     ow 6885   0.014   5.077   6.107  0.5089  0.0037  0.1533
 1722SOL     hw 6886  -0.028   5.160   6.089  0.7486  0.0253 -0.3295
 1722SOL     hw 6887   0.013   5.030   6.023 -1.6474 -1.4319  0.8855
 1722SOL     vw 6888   0.009   5.082   6.093  0.2561 -0.1826  0.1864
 1723SOL     ow 6889   5.806   5.316   4.555  0.2827 -0.2286 -0.4700
 1723SOL     hw 6890   5.885   5.318   4.610  0.9027 -0.8549 -1.3110
 1723SOL     hw 6891   5.839   5.329   4.466 -0.7889  1.5606 -0.6496
 1723SOL     vw 6892   5.821   5.318   4.550  0.2234 -0.0749 -0.6044
 1724SOL     ow 6893   3.688   2.639   6.499  0.4392 -0.3984  0.3897
 1724SOL     hw 6894   3.698   2.667   6.408  0.4474  0.6250  0.6826
 1724SOL     hw 6895   3.777   2.621   6.529  0.6031  0.6594  0.5937
 1724SOL     vw 6896   3.701   2.641   6.491  0.4619 -0.1239  0.4551
 1725SOL     ow 6897   0.406   5.356   4.189 -0.3612  0.5034  0.5282
 1725SOL     hw 6898   0.388   5.439   4.145 -0.0637  0.6506  0.6747
 1725SOL     hw 6899   0.412   5.379   4.282 -1.5167  0.1044  0.7085
 1725SOL     vw 6900   0.405   5.370   4.195 -0.4744  0.4699  0.5715
 1726SOL     ow 6901   3.679   2.423   4.600  0.9195  0.0240  0.1358
 1726SOL     hw 6902   3.626   2.495   4.566  2.3351  0.8251 -0.4815
 1726SOL     hw 6903   3.621   2.377   4.661 -1.1977 -0.4968 -2.1058
 1726SOL     vw 6904   3.664   2.427   4.604  0.8270  0.0610 -0.2413
 1727SOL     ow 6905   5.005   0.845   2.878  0.4355  0.2505  0.2105
 1727SOL     hw 6906   4.993   0.751   2.869  0.6572  0.2052  0.3814
 1727SOL     hw 6907   4.917   0.881   2.876  0.3983  0.1604 -1.2592
 1727SOL     vw 6908   4.992   0.837   2.876  0.4597  0.2326  0.0392
 1728SOL     ow 6909   0.857   2.273   0.704  0.4570  0.4650  0.5611
 1728SOL     hw 6910   0.762   2.268   0.699  0.4215  1.5411 -0.3479
 1728SOL     hw 6911   0.874   2.345   0.765  0.6691  0.5779  0.3743
 1728SOL     vw 6912   0.847   2.282   0.711  0.4803  0.6219  0.4166
 1729SOL     ow 6913   5.318   3.201   6.938  0.5351 -0.3492 -0.0948
 1729SOL     hw 6914   5.329   3.156   7.022 -0.0537 -0.7282 -0.2153
 1729SOL     hw 6915   5.406   3.226   6.913  1.0003 -2.2398 -0.4700
 1729SOL     vw 6916   5.331   3.199   6.946  0.5186 -0.6486 -0.1602
 1730SOL     ow 6917   4.632   6.553   5.377  0.5304  0.5231 -0.0205
 1730SOL     hw 6918   4.603   6.499   5.303  0.7101 -0.2801  0.4852
 1730SOL     hw 6919   4.551   6.590   5.412  0.6059  2.6676 -1.9181
 1730SOL     vw 6920   4.617   6.550   5.372  0.5641  0.6998 -0.2041
 1731SOL     ow 6921   7.197   5.291   4.142  0.2943  0.0538  0.1437
 1731SOL     hw 6922   7.194   5.257   4.231  3.1114 -1.2320 -0.1415
 1731SOL     hw 6923   7.216   5.214   4.088 -0.8222  0.8918 -1.5447
 1731SOL     vw 6924   7.199   5.276   4.146  0.5190 -0.0057 -0.1168
 1732SOL     ow 6925   4.591   2.265   2.256 -0.2904  0.2951 -0.5050
 1732SOL     hw 6926   4.606   2.350   2.215  0.0072  0.8267  0.6714
 1732SOL     hw 6927   4.536   2.218   2.193 -0.9402  1.5576 -0.9277
 1732SOL     vw 6928   4.585   2.270   2.242 -0.3369  0.5318 -0.4055
 1733SOL     ow 6929   6.602   3.961   5.954  0.3925 -0.1362 -0.2367
 1733SOL     hw 6930   6.583   3.917   5.871  2.2793  0.1980 -0.8995
 1733SOL     hw 6931   6.642   4.044   5.928 -1.1119  1.0501  1.0197
 1733SOL     vw 6932   6.604   3.966   5.939  0.4430  0.0645 -0.1585
 1734SOL     ow 6933   3.198   6.584   4.941 -0.2316  0.1665 -0.2619
 1734SOL     hw 6934   3.140   6.623   5.007 -0.3382 -1.2919  0.5441
 1734SOL     hw 6935   3.192   6.643   4.867 -1.4347  0.9627  0.4309
 1734SOL     vw 6936   3.189   6.597   4.940 -0.4044  0.0789 -0.0644
 1735SOL     ow 6937   6.977   5.288   2.642 -0.3130  0.0823 -0.4227
 1735SOL     hw 6938   6.991   5.383   2.641  2.2547 -0.2086  1.1138
 1735SOL     hw 6939   6.942   5.269   2.729  1.8313 -0.6201  0.3517
 1735SOL     vw 6940   6.974   5.298   2.653  0.3083 -0.0486 -0.1179
 1736SOL     ow 6941   1.349   5.693   6.814 -0.0283  0.3085 -0.4655
 1736SOL     hw 6942   1.318   5.686   6.724 -3.4504  0.4149  0.5434
 1736SOL     hw 6943   1.305   5.771   6.849  0.4239 -0.2686  1.5492
 1736SOL     vw 6944   1.339   5.702   6.807 -0.4201  0.2460 -0.0668
 1737SOL     ow 6945   2.426   6.357   0.592 -0.5931  0.1606  0.1472
 1737SOL     hw 6946   2.396   6.443   0.623 -1.2109 -0.2444  0.7268
 1737SOL     hw 6947   2.465   6.317   0.669  0.6310  0.3129 -0.3795
 1737SOL     vw 6948   2.427   6.363   0.606 -0.5131  0.1271  0.1542
 1738SOL     ow 6949   5.245   1.559   0.820 -0.0441  0.4200  0.1381
 1738SOL     hw 6950   5.219   1.575   0.910 -0.8812  0.8104 -0.1666
 1738SOL     hw 6951   5.237   1.645   0.777  1.1815  0.4282 -0.1082
 1738SOL     vw 6952   5.241   1.573   0.826  0.0069  0.4726  0.0654
 1739SOL     ow 6953   0.472   4.367   3.858 -0.2953 -0.4619 -0.1746
 1739SOL     hw 6954   0.555   4.408   3.836 -0.4625 -0.1482 -0.2263
 1739SOL     hw 6955   0.466   4.373   3.953 -0.4574 -0.0916 -0.2053
 1739SOL     vw 6956   0.482   4.373   3.867 -0.3387 -0.3717 -0.1855
 1740SOL     ow 6957   0.094   5.746   7.461 -0.0032  0.0664  0.2919
 1740SOL     hw 6958   0.089   5.832   7.502  0.7997  0.2661 -0.0235
 1740SOL     hw 6959   0.011   5.704   7.484  0.8241 -0.2589  3.0594
 1740SOL     vw 6960   0.082   5.752   7.469  0.2119  0.0501  0.6154
 1741SOL     ow 6961   6.410   1.797   0.678 -0.4105 -0.3403 -0.3608
 1741SOL     hw 6962   6.453   1.865   0.626  1.0074 -1.3216 -0.5396
 1741SOL     hw 6963   6.462   1.793   0.758 -1.7403  0.1905  0.5608
 1741SOL     vw 6964   6.423   1.806   0.681 -0.3989 -0.3998 -0.2628
 1742SOL     ow 6965   5.936   0.528   4.175 -0.7363  0.2230 -0.2418
 1742SOL     hw 6966   5.937   0.618   4.208 -1.3974  0.4395 -0.7947
 1742SOL     hw 6967   5.981   0.477   4.243  0.0337  1.0350 -0.1319
 1742SOL     vw 6968   5.942   0.533   4.188 -0.7217  0.3587 -0.3002
 1743SOL     ow 6969   0.480   3.351   6.282  0.2662 -0.3253  0.6481
 1743SOL     hw 6970   0.464   3.347   6.188  0.4675 -0.8374  0.6273
 1743SOL     hw 6971   0.497   3.443   6.300  1.1636 -0.3452  0.0173
 1743SOL     vw 6972   0.480   3.362   6.272  0.4112 -0.3955  0.5622
 1744SOL     ow 6973   0.564   4.738   3.751  0.1245 -0.7286  0.4825
 1744SOL     hw 6974   0.526   4.705   3.669  0.9305 -1.0530  0.2283
 1744SOL     hw 6975   0.488   4.763   3.804 -0.4159 -0.7480 -0.2640
 1744SOL     vw 6976   0.549   4.737   3.747  0.1596 -0.7741  0.3505
 1745SOL     ow 6977   2.422   2.187   6.032 -0.0481  0.2272 -0.0865
 1745SOL     hw 6978   2.438   2.096   6.057 -0.3272  0.0984 -0.3614
 1745SOL     hw 6979   2.329   2.200   6.047  0.3591  1.1370  2.0346
 1745SOL     vw 6980   2.412   2.176   6.037 -0.0311  0.3302  0.1571
 1746SOL     ow 6981   0.606   0.568   4.693 -0.2112 -0.1203  0.1125
 1746SOL     hw 6982   0.666   0.640   4.715 -1.7080  0.5262  2.3837
 1746SOL     hw 6983   0.525   0.612   4.667 -1.2532 -0.9406  1.8491
 1746SOL     vw 6984   0.603   0.584   4.693 -0.5462 -0.1432  0.6413
 1747SOL     ow 6985   3.612   0.086   1.341 -0.1971  0.6139 -0.3166
 1747SOL     hw 6986   3.562   0.146   1.287 -0.6102  1.3934  0.8935
 1747SOL     hw 6987   3.592  -0.001   1.306 -1.1749  1.0312 -0.8239
 1747SOL     vw 6988   3.603   0.082   1.329 -0.3806  0.7720 -0.2239
 1748SOL     ow 6989   1.199   5.004   1.930  0.8166  0.3272  0.0459
 1748SOL     hw 6990   1.172   4.918   1.960 -0.8812  0.5919 -0.6409
 1748SOL     hw 6991   1.170   5.009   1.839  1.0853  1.5284  0.0027
 1748SOL     vw 6992   1.192   4.993   1.922  0.6280  0.5209 -0.0505
 1749SOL     ow 6993   5.395   3.071   7.157  0.0258  0.1227 -0.1276
 1749SOL     hw 6994   5.462   3.005   7.144  0.9371  1.1268 -0.7454
 1749SOL     hw 6995   5.382   3.074   7.252 -0.2910 -1.1658 -0.1151
 1749SOL     vw 6996   5.402   3.063   7.168  0.1040  0.0852 -0.2074
 1750SOL     ow 6997   6.952   5.585   0.960 -0.0210 -0.6989  0.6748
 1750SOL     hw 6998   7.039   5.553   0.937 -0.5021 -0.4882 -1.6458
 1750SOL     hw 6999   6.963   5.624   1.047  2.7337  1.1902 -0.3750
 1750SOL     vw 7000   6.965   5.586   0.968  0.2787 -0.4218  0.2301
 1751SOL     ow 7001   1.814   6.333   2.942 -0.2912 -0.2521  0.1867
 1751SOL     hw 7002   1.730   6.375   2.923 -0.0743  1.0694  1.8588
 1751SOL     hw 7003   1.799   6.241   2.924 -1.5302  0.2057 -1.3540
 1751SOL     vw 7004   1.801   6.327   2.937 -0.4261 -0.0172  0.2041
 1752SOL     ow 7005   5.238   5.376   2.934 -0.6536  0.3499 -0.1511
 1752SOL     hw 7006   5.332   5.365   2.926 -0.2874  2.6483  0.3603
 1752SOL     hw 7007   5.209   5.398   2.845 -0.4907  0.9092 -0.0709
 1752SOL     vw 7008   5.246   5.378   2.921 -0.5839  0.7272 -0.0730
 1753SOL     ow 7009   6.619   3.313   1.663 -0.0413  0.5920 -0.3320
 1753SOL     hw 7010   6.607   3.383   1.598  0.5971  1.1918  0.1953
 1753SOL     hw 7011   6.686   3.256   1.625 -0.4863  0.3154 -0.7133
 1753SOL     vw 7012   6.626   3.315   1.649 -0.0160  0.6346 -0.3127
 1754SOL     ow 7013   7.309   2.613   4.808 -0.3902 -0.1695 -0.2287
 1754SOL     hw 7014   7.361   2.692   4.794 -0.7572 -0.2374 -2.1558
 1754SOL     hw 7015   7.373   2.546   4.832  0.3073  0.0309 -1.4405
 1754SOL     vw 7016   7.324   2.615   4.809 -0.3467 -0.1521 -0.6428
 1755SOL     ow 7017   7.131   4.728   4.362 -0.2665 -0.2831 -0.3290
 1755SOL     hw 7018   7.178   4.665   4.308 -0.8591  0.5352 -1.8817
 1755SOL     hw 7019   7.044   4.733   4.322 -1.2052 -0.6617  1.5760
 1755SOL     vw 7020   7.126   4.721   4.349 -0.4685 -0.2248 -0.2823
 1756SOL     ow 7021   1.699   4.385   5.619 -0.0153  0.6597  0.4467
 1756SOL     hw 7022   1.605   4.370   5.609 -0.3153  2.8304 -0.6776
 1756SOL     hw 7023   1.738   4.339   5.544 -0.4163  1.3813 -0.2275
 1756SOL     vw 7024   1.692   4.377   5.608 -0.1078  1.0412  0.2096
 1757SOL     ow 7025   0.009   3.007   3.018  0.0382 -0.1764 -0.1553
 1757SOL     hw 7026  -0.073   2.960   3.001 -0.3494  0.2272  0.5378
 1757SOL     hw 7027  -0.012   3.098   2.996  0.1785 -0.0076  0.3951
 1757SOL     vw 7028  -0.005   3.013   3.013  0.0057 -0.1009  0.0088
 1758SOL     ow 7029   0.377   1.210   2.214 -0.7553  0.0936 -0.1550
 1758SOL     hw 7030   0.353   1.123   2.247 -0.2917  1.0752  3.1621
 1758SOL     hw 7031   0.294   1.257   2.210 -0.8356 -0.0810 -0.5245
 1758SOL     vw 7032   0.363   1.205   2.218 -0.7047  0.2001  0.2339
 1759SOL     ow 7033   3.521   4.292   1.251 -0.0649  0.0378  0.2074
 1759SOL     hw 7034   3.557   4.381   1.254 -0.5389  0.2434 -0.1974
 1759SOL     hw 7035   3.427   4.304   1.264 -0.2771 -0.3109 -0.9382
 1759SOL     vw 7036   3.513   4.306   1.253 -0.1554  0.0188  0.0029
 1760SOL     ow 7037   6.873   3.916   3.415  0.2715 -0.2325 -0.0351
 1760SOL     hw 7038   6.906   3.993   3.461 -3.0333  1.0996  0.3545
 1760SOL     hw 7039   6.862   3.946   3.324 -2.1699  0.2850  0.3541
 1760SOL     vw 7040   6.876   3.930   3.409 -0.4866  0.0116  0.0677
 1761SOL     ow 7041   0.488   6.633   1.637  0.2553  0.1418  0.3953
 1761SOL     hw 7042   0.517   6.677   1.556  0.0161  0.1705  0.3259
 1761SOL     hw 7043   0.540   6.553   1.640  1.7988  1.1152  1.2854
 1761SOL     vw 7044   0.499   6.629   1.627  0.4274  0.2739  0.5035
 1762SOL     ow 7045   5.796   4.933   3.814  0.7755  0.3837 -0.9191
 1762SOL     hw 7046   5.761   4.906   3.899 -0.5944 -1.3873 -1.9803
 1762SOL     hw 7047   5.834   5.019   3.831 -1.8590  1.3288  0.9425
 1762SOL     vw 7048   5.796   4.941   3.828  0.2470  0.2749 -0.8135
 1763SOL     ow 7049   0.136   5.181   3.069  0.3532  0.4259  0.2805
 1763SOL     hw 7050   0.054   5.206   3.027 -0.3282 -1.1625  0.5916
 1763SOL     hw 7051   0.120   5.094   3.104  2.7941 -0.8148 -1.4023
 1763SOL     vw 7052   0.123   5.173   3.068  0.5854  0.0525  0.0997
 1764SOL     ow 7053   4.014   5.623   1.979  0.1631  0.1464  0.2776
 1764SOL     hw 7054   3.996   5.683   1.907 -1.8900  1.4373  1.7416
 1764SOL     hw 7055   4.077   5.560   1.943  0.6066  1.7814 -2.0349
 1764SOL     vw 7056   4.020   5.623   1.965 -0.0491  0.5324  0.1656
 1765SOL     ow 7057   1.120   6.866   0.957  0.7235  0.1134  0.0147
 1765SOL     hw 7058   1.070   6.785   0.956 -1.6495  1.4819 -0.2289
 1765SOL     hw 7059   1.133   6.887   0.864 -0.3765  0.9390  0.0222
 1765SOL     vw 7060   1.115   6.858   0.945  0.2653  0.4027 -0.0164
 1766SOL     ow 7061   0.379   3.690   7.130 -0.1666 -0.1696 -0.2724
 1766SOL     hw 7062   0.304   3.633   7.109 -1.1355  0.9770 -0.0307
 1766SOL     hw 7063   0.368   3.765   7.071  0.1662  0.5322  0.5532
 1766SOL     vw 7064   0.367   3.692   7.119 -0.2505  0.0743 -0.1314
 1767SOL     ow 7065   4.079   0.110   1.489  0.2306 -0.0099  0.1709
 1767SOL     hw 7066   4.038   0.062   1.561 -1.4630  1.6628  0.3876
 1767SOL     hw 7067   4.110   0.042   1.429 -1.7767 -1.3783  0.6048
 1767SOL     vw 7068   4.078   0.094   1.491 -0.2577  0.0302  0.2567
 1768SOL     ow 7069   5.293   5.715   3.382  0.0832 -0.9903  0.3427
 1768SOL     hw 7070   5.240   5.766   3.444  2.6130  0.0941  1.7809
 1768SOL     hw 7071   5.278   5.624   3.407 -2.1200 -0.8345 -0.2334
 1768SOL     vw 7072   5.284   5.710   3.394  0.1261 -0.8268  0.4563
 1769SOL     ow 7073   3.804   2.987   2.322  0.5561  0.4434 -0.2285
 1769SOL     hw 7074   3.755   3.047   2.266  1.2546  1.8447  0.6038
 1769SOL     hw 7075   3.756   2.905   2.317 -0.3018  0.9932 -1.5974
 1769SOL     vw 7076   3.791   2.984   2.314  0.5350  0.7008 -0.2992
 1770SOL     ow 7077   5.507   7.094   1.819  0.5299  0.3718 -0.1853
 1770SOL     hw 7078   5.440   7.072   1.884  2.4786 -0.2422  1.7470
 1770SOL     hw 7079   5.493   7.032   1.748 -0.8012  0.1222  0.2588
 1770SOL     vw 7080   5.496   7.083   1.818  0.6111  0.2577  0.1282
 1771SOL     ow 7081   0.135   5.565   5.611  0.3754  0.1960 -0.3357
 1771SOL     hw 7082   0.107   5.552   5.520 -1.2799  1.8649 -0.1338
 1771SOL     hw 7083   0.075   5.512   5.663  0.6480  0.0681 -0.1509
 1771SOL     vw 7084   0.123   5.557   5.606  0.1930  0.3994 -0.2847
 1772SOL     ow 7085   3.397   4.890   1.865  0.2788  0.3528  0.3042
 1772SOL     hw 7086   3.369   4.804   1.833  0.2916  0.3979  0.1717
 1772SOL     hw 7087   3.440   4.931   1.790  3.0899 -0.7507  1.2101
 1772SOL     vw 7088   3.399   4.884   1.851  0.6515  0.2131  0.4063
 1773SOL     ow 7089   4.632   4.301   7.323 -0.1030 -0.2626 -0.8337
 1773SOL     hw 7090   4.628   4.206   7.311 -1.6280  0.0088 -3.0123
 1773SOL     hw 7091   4.585   4.337   7.248  0.6965  2.2495 -0.2348
 1773SOL     vw 7092   4.626   4.293   7.312 -0.1986  0.1047 -1.0419
 1774SOL     ow 7093   5.724   7.063   7.237 -0.0477  0.7278 -0.0243
 1774SOL     hw 7094   5.735   7.022   7.151  0.3719  0.7612  0.0122
 1774SOL     hw 7095   5.675   6.999   7.288  0.8192  0.1619  0.1092
 1774SOL     vw 7096   5.719   7.049   7.232  0.1221  0.6578 -0.0019
 1775SOL     ow 7097   1.472   1.886   0.585 -0.8769  0.4354  0.3028
 1775SOL     hw 7098   1.428   1.900   0.669  0.8799 -0.0459  1.3589
 1775SOL     hw 7099   1.565   1.891   0.606 -0.3822 -0.3540 -1.5097
 1775SOL     vw 7100   1.478   1.889   0.599 -0.5799  0.2677  0.2030
 1776SOL     ow 7101   0.388   4.656   3.248  0.0149  0.1994 -0.1013
 1776SOL     hw 7102   0.319   4.596   3.275  1.6342 -1.3471  0.7601
 1776SOL     hw 7103   0.433   4.612   3.176  0.9114  0.5847  0.1993
 1776SOL     vw 7104   0.385   4.642   3.242  0.3468  0.0460  0.0521
 1777SOL     ow 7105   1.055   2.014   1.087  0.4137 -0.2031  0.3188
 1777SOL     hw 7106   0.961   2.020   1.071  0.5386 -2.1288 -1.6749
 1777SOL     hw 7107   1.067   1.925   1.122  1.3966  0.4003  1.5816
 1777SOL     vw 7108   1.044   2.003   1.089  0.5597 -0.3775  0.2224
 1778SOL     ow 7109   4.755   2.932   1.662  0.3037  0.2980  0.1060
 1778SOL     hw 7110   4.683   2.901   1.718  1.0106 -0.7835  0.4454
 1778SOL     hw 7111   4.795   2.853   1.628  0.7414  0.9161 -0.8692
 1778SOL     vw 7112   4.751   2.918   1.665  0.4547  0.2370  0.0221
 1779SOL     ow 7113   6.915   1.093   2.414  0.5017 -0.5554  0.1915
 1779SOL     hw 7114   6.905   1.121   2.505  1.0884 -0.7169  0.3083
 1779SOL     hw 7115   6.826   1.095   2.378  0.2203 -0.8219  0.8638
 1779SOL     vw 7116   6.902   1.097   2.421  0.5419 -0.6120  0.2954
 1780SOL     ow 7117   0.909   3.022   7.184 -0.0458  0.7750 -1.4287
 1780SOL     hw 7118   0.981   3.055   7.129  1.5840 -0.3545 -0.0934
 1780SOL     hw 7119   0.879   3.099   7.232  2.6233  0.7922  0.4746
 1780SOL     vw 7120   0.915   3.036   7.183  0.5214  0.6282 -1.0016
 1781SOL     ow 7121   4.123   1.385   2.948 -0.3897  0.1492  0.4013
 1781SOL     hw 7122   4.171   1.332   3.012  1.0382  1.4270  0.4234
 1781SOL     hw 7123   4.117   1.329   2.871  3.7362  0.8772 -0.6695
 1781SOL     vw 7124   4.128   1.370   2.947  0.3431  0.4138  0.2630
 1782SOL     ow 7125   4.491   0.877   4.248 -0.3997 -0.3535 -0.6913
 1782SOL     hw 7126   4.528   0.865   4.161  0.0970  0.8228 -0.6588
 1782SOL     hw 7127   4.411   0.928   4.233  0.9049  1.9282 -0.2932
 1782SOL     vw 7128   4.485   0.882   4.234 -0.1619  0.1028 -0.6347
 1783SOL     ow 7129   3.891   3.882   6.993  0.4178 -0.0168  0.5658
 1783SOL     hw 7130   3.908   3.884   7.087  1.3119  0.0297  0.4183
 1783SOL     hw 7131   3.807   3.838   6.984 -0.3361  1.1681  1.4654
 1783SOL     vw 7132   3.882   3.876   7.004  0.4363  0.1457  0.6647
 1784SOL     ow 7133   4.737   0.677   6.929  0.2084  0.2217  0.7216
 1784SOL     hw 7134   4.678   0.637   6.866  0.2354 -0.0006  0.8380
 1784SOL     hw 7135   4.800   0.726   6.875 -0.6360  1.2386  0.6287
 1784SOL     vw 7136   4.738   0.678   6.914  0.1006  0.3265  0.7246
 1785SOL     ow 7137   7.070   6.963   0.477 -0.5265 -0.1360  0.4299
 1785SOL     hw 7138   7.141   7.025   0.462 -0.1958 -0.1461  1.8096
 1785SOL     hw 7139   7.086   6.929   0.565 -1.8626 -0.6508  0.4994
 1785SOL     vw 7140   7.082   6.966   0.487 -0.6590 -0.2050  0.6211
 1786SOL     ow 7141   2.281   0.949   7.185 -0.1172 -0.0184  0.3471
 1786SOL     hw 7142   2.296   0.946   7.279  1.0880  0.6812  0.2062
 1786SOL     hw 7143   2.205   1.005   7.174  0.8053  1.3832  0.8430
 1786SOL     vw 7144   2.273   0.956   7.196  0.1636  0.2588  0.3939
 1787SOL     ow 7145   6.629   5.226   0.748  0.2416  0.2014  0.2426
 1787SOL     hw 7146   6.636   5.136   0.716 -0.5356  0.0032  0.5961
 1787SOL     hw 7147   6.718   5.252   0.769  0.2855 -1.1904  2.0296
 1787SOL     vw 7148   6.641   5.218   0.746  0.1450 -0.0081  0.5250
 1788SOL     ow 7149   4.660   7.172   4.289 -0.0421  0.1197 -0.2408
 1788SOL     hw 7150   4.618   7.091   4.258  1.3201 -0.5356 -0.4482
 1788SOL     hw 7151   4.753   7.158   4.272  0.3404  1.2670  0.8023
 1788SOL     vw 7152   4.667   7.159   4.282  0.1884  0.1845 -0.1304
 1789SOL     ow 7153   6.858   2.803   1.540  0.1701  0.0123 -0.3948
 1789SOL     hw 7154   6.776   2.827   1.584 -0.4956  1.0774 -2.1175
 1789SOL     hw 7155   6.860   2.857   1.461  4.5675  3.2885  1.5234
 1789SOL     vw 7156   6.848   2.813   1.535  0.6626  0.5851 -0.3690
 1790SOL     ow 7157   3.231   4.351   5.570 -0.2112 -0.2920  0.0675
 1790SOL     hw 7158   3.264   4.397   5.493  1.0586 -1.3055 -0.0360
 1790SOL     hw 7159   3.202   4.266   5.538 -0.7611 -0.2888  0.5359
 1790SOL     vw 7160   3.232   4.346   5.556 -0.1161 -0.4253  0.1154
 1791SOL     ow 7161   2.140   1.462   4.622  0.0684  0.7740  0.0001
 1791SOL     hw 7162   2.064   1.507   4.659  0.2853  2.2666 -1.2853
 1791SOL     hw 7163   2.127   1.370   4.646 -1.3535  1.2199  1.0934
 1791SOL     vw 7164   2.129   1.456   4.630 -0.0905  1.0297 -0.0255
 1792SOL     ow 7165   0.968   2.351   0.167 -0.0189  0.0416 -0.1144
 1792SOL     hw 7166   1.029   2.315   0.232 -1.3039 -2.1257 -0.0435
 1792SOL     hw 7167   0.896   2.387   0.220  0.8119  1.9954 -0.2279
 1792SOL     vw 7168   0.966   2.351   0.183 -0.0788  0.0134 -0.1200
 1793SOL     ow 7169   3.621   3.683   5.067 -0.4956 -0.1755  0.1586
 1793SOL     hw 7170   3.576   3.615   5.119  2.0122 -1.5261  0.7120
 1793SOL     hw 7171   3.637   3.642   4.982  2.4084 -0.9977  0.9842
 1793SOL     vw 7172   3.617   3.668   5.063  0.2184 -0.4622  0.3405
 1794SOL     ow 7173   3.329   3.322   0.588 -0.4585  0.0131 -0.5129
 1794SOL     hw 7174   3.401   3.369   0.629  1.3402 -1.4090 -1.9090
 1794SOL     hw 7175   3.339   3.232   0.619 -2.0020 -0.1127 -0.2928
 1794SOL     vw 7176   3.340   3.316   0.598 -0.4249 -0.1911 -0.6681
 1795SOL     ow 7177   0.055   7.130   3.217  0.6743  0.2661  0.4660
 1795SOL     hw 7178   0.004   7.070   3.271 -0.3694 -0.5841 -1.3832
 1795SOL     hw 7179   0.132   7.079   3.191  0.3756  0.1330 -0.1523
 1795SOL     vw 7180   0.059   7.116   3.221  0.4972  0.1366  0.1405
 1796SOL     ow 7181   0.351   4.201   1.749 -0.5033 -0.2677 -0.3578
 1796SOL     hw 7182   0.273   4.206   1.694  1.3544  0.5285 -3.1385
 1796SOL     hw 7183   0.368   4.292   1.773 -0.7971 -0.5202  0.8807
 1796SOL     vw 7184   0.343   4.214   1.745 -0.2970 -0.1960 -0.5612
 1797SOL     ow 7185   7.299   2.565   3.030 -0.1085  0.1968  0.1994
 1797SOL     hw 7186   7.388   2.532   3.016  0.1877  0.3721  1.6050
 1797SOL     hw 7187   7.276   2.538   3.119 -0.0804  3.2133  1.2220
 1797SOL     vw 7188   7.308   2.557   3.040 -0.0656  0.6180  0.5198
 1798SOL     ow 7189   2.165   0.812   3.068 -0.2332  0.0246 -0.2005
 1798SOL     hw 7190   2.136   0.902   3.074 -0.4447 -0.0839  0.4156
 1798SOL     hw 7191   2.106   0.763   3.124  0.5429 -0.3422  0.3219
 1798SOL     vw 7192   2.154   0.817   3.076 -0.1588 -0.0381 -0.0502
 1799SOL     ow 7193   4.642   3.289   6.254 -0.1341 -0.1827 -0.4696
 1799SOL     hw 7194   4.608   3.378   6.241  0.3285  0.3008  1.3079
 1799SOL     hw 7195   4.606   3.262   6.338  1.0406 -1.0323 -0.2215
 1799SOL     vw 7196   4.633   3.297   6.263  0.0820 -0.2309 -0.2024
 1800SOL     ow 7197   1.804   1.393   4.136 -0.7730  0.6099 -0.2297
 1800SOL     hw 7198   1.889   1.363   4.104  0.0275  3.1883 -0.6882
 1800SOL     hw 7199   1.775   1.457   4.071 -2.8329  0.2015  0.2057
 1800SOL     vw 7200   1.811   1.397   4.123 -0.9391  0.8962 -0.2327
 1801SOL     ow 7201   7.042   5.334   5.407  0.4000  0.2161 -0.6474
 1801SOL     hw 7202   6.959   5.366   5.444  1.0575  0.2677  0.8342
 1801SOL     hw 7203   7.093   5.305   5.483  1.4273 -0.5788 -1.6108
 1801SOL     vw 7204   7.038   5.334   5.422  0.6223  0.1180 -0.5791
 1802SOL     ow 7205   2.359   4.978   0.128 -0.1999  0.0306 -0.1569
 1802SOL     hw 7206   2.409   5.038   0.183  3.3791 -0.5181 -2.4597
 1802SOL     hw 7207   2.322   5.035   0.060 -2.6218  0.3886  1.3578
 1802SOL     vw 7208   2.361   4.994   0.126 -0.0471  0.0055 -0.2609
 1803SOL     ow 7209   1.718   1.356   2.458  0.3674 -0.1636  0.0589
 1803SOL     hw 7210   1.789   1.365   2.523  0.3844  0.4795 -0.0518
 1803SOL     hw 7211   1.642   1.329   2.510  0.7841 -1.2761  0.1280
 1803SOL     vw 7212   1.718   1.353   2.474  0.4246 -0.2255  0.0533
 1804SOL     ow 7213   0.871   5.718   1.483 -0.0164 -0.1198  0.2062
 1804SOL     hw 7214   0.810   5.710   1.410 -0.3705  0.0868  0.4730
 1804SOL     hw 7215   0.821   5.764   1.551  0.3059 -0.3051  0.5746
 1804SOL     vw 7216   0.856   5.723   1.483 -0.0206 -0.1171  0.2900
 1805SOL     ow 7217   6.839   6.141   0.013  0.1458 -0.0285  0.0838
 1805SOL     hw 7218   6.921   6.187  -0.004  0.4488 -0.9797 -1.1531
 1805SOL     hw 7219   6.780   6.209   0.048  1.2231  0.8136  0.3230
 1805SOL     vw 7220   6.842   6.156   0.016  0.3281 -0.0429 -0.0479
 1806SOL     ow 7221   4.419   2.080   2.431  0.0427 -0.0045  0.4106
 1806SOL     hw 7222   4.422   1.991   2.396 -1.3947 -0.0105  0.2490
 1806SOL     hw 7223   4.355   2.077   2.501  0.6597  0.7120  1.0298
 1806SOL     vw 7224   4.411   2.068   2.435 -0.0656  0.0893  0.4709
 1807SOL     ow 7225   6.385   3.925   4.759 -0.7719  0.7312  0.8994
 1807SOL     hw 7226   6.399   4.017   4.781 -0.8620  0.8777  0.3653
 1807SOL     hw 7227   6.438   3.911   4.681  0.2142 -0.0048  1.6767
 1807SOL     vw 7228   6.394   3.935   4.752 -0.6535  0.6535  0.9313
 1808SOL     ow 7229   1.966   4.417   2.847 -0.0835  0.1525 -0.2614
 1808SOL     hw 7230   2.036   4.352   2.856  0.9740  1.2083 -0.7289
 1808SOL     hw 7231   1.921   4.393   2.766 -1.1254 -1.3002  0.6888
 1808SOL     vw 7232   1.969   4.405   2.838 -0.0814  0.1001 -0.1975
 1809SOL     ow 7233   5.746   2.895   1.357 -0.3815  0.1028  0.9768
 1809SOL     hw 7234   5.836   2.862   1.362 -0.9402 -1.6528  0.3667
 1809SOL     hw 7235   5.707   2.872   1.441 -0.9973 -1.6355  0.2716
 1809SOL     vw 7236   5.753   2.887   1.369 -0.5364 -0.3581  0.8032
 1810SOL     ow 7237   0.668   3.293   7.317  0.2956 -0.2679  0.2968
 1810SOL     hw 7238   0.611   3.221   7.343 -2.3963  1.6569  0.0877
 1810SOL     hw 7239   0.757   3.260   7.334 -0.8446 -3.0922  1.4520
 1810SOL     vw 7240   0.672   3.279   7.322 -0.2100 -0.3865  0.4213
 1811SOL     ow 7241   5.527   5.396   3.223  0.3234  0.1153 -0.1635
 1811SOL     hw 7242   5.556   5.378   3.133 -1.9172  0.1603 -0.9634
 1811SOL     hw 7243   5.440   5.357   3.228  0.1067  0.7414  1.7851
 1811SOL     vw 7244   5.519   5.388   3.211 -0.0012  0.2041 -0.0119
 1812SOL     ow 7245   3.784   1.000   3.811 -0.0897 -0.3357  0.2638
 1812SOL     hw 7246   3.858   0.953   3.773 -0.3536 -2.0365  1.6806
 1812SOL     hw 7247   3.781   0.969   3.902 -2.6977 -0.5789  0.1647
 1812SOL     vw 7248   3.793   0.990   3.818 -0.4686 -0.5922  0.4376
 1813SOL     ow 7249   5.346   0.169   6.166 -0.5265 -0.9249 -0.3305
 1813SOL     hw 7250   5.317   0.091   6.213 -1.3288 -0.6748 -0.4020
 1813SOL     hw 7251   5.442   0.165   6.170 -0.5512 -0.8090  1.5300
 1813SOL     vw 7252   5.355   0.159   6.173 -0.6359 -0.8766 -0.0949
 1814SOL     ow 7253   4.707   5.033   4.168  0.0850 -0.2147  0.5576
 1814SOL     hw 7254   4.799   5.025   4.193  0.2577 -0.1842 -0.0660
 1814SOL     hw 7255   4.664   4.959   4.212  0.3403 -0.0073  1.1571
 1814SOL     vw 7256   4.714   5.022   4.177  0.1414 -0.1831  0.5546
 1815SOL     ow 7257   5.270   4.562   6.880 -0.6381 -0.5362 -0.2262
 1815SOL     hw 7258   5.242   4.511   6.956 -2.0518  0.7139  0.1343
 1815SOL     hw 7259   5.245   4.509   6.805  2.7533 -2.8660  0.0290
 1815SOL     vw 7260   5.263   4.548   6.880 -0.3772 -0.6785 -0.1450
 1816SOL     ow 7261   2.775   5.124   7.137 -0.7833  0.7124  0.4336
 1816SOL     hw 7262   2.722   5.107   7.215  0.3301 -1.0114  0.8577
 1816SOL     hw 7263   2.836   5.051   7.132 -0.7243  0.8340 -1.9985
 1816SOL     vw 7264   2.776   5.112   7.147 -0.6286  0.5009  0.1688
 1817SOL     ow 7265   1.705   6.391   4.885  0.0260 -0.3655  0.1554
 1817SOL     hw 7266   1.652   6.470   4.881 -0.1373 -0.4078  1.2150
 1817SOL     hw 7267   1.679   6.349   4.967  1.0087 -0.8690  0.2227
 1817SOL     vw 7268   1.695   6.396   4.896  0.1341 -0.4375  0.3040
 1818SOL     ow 7269   6.544   0.960   0.678  0.2141 -0.1761 -0.4615
 1818SOL     hw 7270   6.547   1.043   0.726  0.6757  1.5261 -3.2538
 1818SOL     hw 7271   6.453   0.931   0.688 -0.6450  1.9823 -1.4577
 1818SOL     vw 7272   6.532   0.967   0.686  0.1616  0.3333 -0.9614
 1819SOL     ow 7273   6.318   6.460   7.265  0.4291  0.4788 -0.5456
 1819SOL     hw 7274   6.316   6.365   7.252 -0.6739  0.0932  1.8493
 1819SOL     hw 7275   6.227   6.488   7.254  0.4264  0.9396  0.5062
 1819SOL     vw 7276   6.306   6.451   7.262  0.2832  0.4888 -0.0908
 1820SOL     ow 7277   6.111   1.696   1.932 -0.6289  0.1326  0.0981
 1820SOL     hw 7278   6.039   1.759   1.936 -0.6189  0.0949  1.3754
 1820SOL     hw 7279   6.106   1.650   2.016 -0.3072 -1.2006 -0.5953
 1820SOL     vw 7280   6.101   1.698   1.944 -0.5853 -0.0483  0.1751
 1821SOL     ow 7281   1.251   1.367   5.859 -0.0917  0.2334 -0.3318
 1821SOL     hw 7282   1.156   1.367   5.867 -0.0097  1.4049  1.1668
 1821SOL     hw 7283   1.275   1.459   5.852  0.9787  0.0207  0.2408
 1821SOL     vw 7284   1.241   1.379   5.859  0.0603  0.3600 -0.0584
 1822SOL     ow 7285   4.858   7.038   2.741 -0.0146  0.2828  0.7710
 1822SOL     hw 7286   4.808   6.958   2.728 -0.7357  1.0387 -1.8756
 1822SOL     hw 7287   4.795   7.100   2.779 -0.3175  0.3975  0.1077
 1822SOL     vw 7288   4.843   7.036   2.744 -0.1500  0.3977  0.3344
 1823SOL     ow 7289   7.311   4.954   7.324  0.0273  0.0304  0.0820
 1823SOL     hw 7290   7.221   4.922   7.315 -0.3590  1.3523 -1.1061
 1823SOL     hw 7291   7.364   4.889   7.278 -0.6040  0.4580 -1.2820
 1823SOL     vw 7292   7.306   4.941   7.317 -0.1068  0.2611 -0.2549
 1824SOL     ow 7293   4.410   7.366   6.881 -0.3802  0.3564  0.2697
 1824SOL     hw 7294   4.412   7.462   6.887  0.6465  0.3867 -0.2444
 1824SOL     hw 7295   4.500   7.339   6.896 -0.0358 -0.3177 -2.3721
 1824SOL     vw 7296   4.422   7.375   6.884 -0.1993  0.2716 -0.1469
 1825SOL     ow 7297   7.095   1.124   5.986  0.8626  0.4585  0.2090
 1825SOL     hw 7298   7.160   1.194   5.976 -1.4578  2.7831  0.2277
 1825SOL     hw 7299   7.042   1.150   6.061 -0.8161 -0.6760 -0.5049
 1825SOL     vw 7300   7.096   1.137   5.994  0.3350  0.6155  0.1173
 1826SOL     ow 7301   2.932   3.322   4.194 -0.3615 -0.0632  0.6635
 1826SOL     hw 7302   2.984   3.328   4.274  1.1854 -0.1563 -0.2857
 1826SOL     hw 7303   2.943   3.408   4.152  0.5970 -0.6878 -0.4419
 1826SOL     vw 7304   2.940   3.334   4.199 -0.0310 -0.1580  0.3924
 1827SOL     ow 7305   4.119   0.728   1.723  0.6617  0.6957  0.1422
 1827SOL     hw 7306   4.163   0.788   1.783  0.2382  0.1731  0.9892
 1827SOL     hw 7307   4.137   0.641   1.758 -1.3013  0.4628  0.7341
 1827SOL     vw 7308   4.127   0.725   1.736  0.3469  0.5960  0.3320
 1828SOL     ow 7309   4.450   1.057   1.728 -0.4752 -0.7433 -0.1175
 1828SOL     hw 7310   4.447   1.127   1.662 -0.0670 -0.3575  0.2678
 1828SOL     hw 7311   4.543   1.047   1.748 -0.5400 -1.3449 -0.1066
 1828SOL     vw 7312   4.461   1.065   1.722 -0.4299 -0.7718 -0.0653
 1829SOL     ow 7313   4.910   3.394   1.353  0.1826  0.1585  0.2657
 1829SOL     hw 7314   4.843   3.431   1.411 -0.5812  2.3064 -1.8479
 1829SOL     hw 7315   4.861   3.331   1.298  0.5041 -0.4028  0.6128
 1829SOL     vw 7316   4.894   3.390   1.353  0.1242  0.3679  0.0325
 1830SOL     ow 7317   2.477   2.492   1.336 -0.4933 -0.4806  0.3095
 1830SOL     hw 7318   2.416   2.563   1.313  1.3721  1.1350  0.0230
 1830SOL     hw 7319   2.431   2.440   1.401 -1.9647  0.9783  0.4888
 1830SOL     vw 7320   2.463   2.495   1.341 -0.4413 -0.0750  0.2953
 1831SOL     ow 7321   3.502   0.687   4.931 -0.3422 -0.8217 -0.8436
 1831SOL     hw 7322   3.443   0.709   4.859 -2.3534 -2.1307  0.2863
 1831SOL     hw 7323   3.465   0.606   4.968  1.0607 -0.6208  1.1664
 1831SOL     vw 7324   3.489   0.679   4.926 -0.4224 -0.9679 -0.4292
 1832SOL     ow 7325   0.364   3.043   3.166 -0.0197  0.1458  0.6184
 1832SOL     hw 7326   0.320   3.116   3.121  0.1957  0.5317  1.0309
 1832SOL     hw 7327   0.307   2.968   3.149 -0.6760  0.5732  0.8658
 1832SOL     vw 7328   0.351   3.043   3.158 -0.0779  0.2531  0.7055
 1833SOL     ow 7329   0.553   7.346   4.054  0.4438 -0.1500 -0.0738
 1833SOL     hw 7330   0.567   7.316   4.144 -0.8491 -0.0613  0.1753
 1833SOL     hw 7331   0.642   7.356   4.018  1.0789  1.6791  1.7784
 1833SOL     vw 7332   0.567   7.343   4.061  0.3570  0.1030  0.2034
 1834SOL     ow 7333   5.945   3.896   4.389 -0.2157  0.0439  0.0975
 1834SOL     hw 7334   5.870   3.934   4.343 -1.1548 -0.1800  1.3937
 1834SOL     hw 7335   6.021   3.937   4.347 -1.0855  1.0411 -0.5724
 1834SOL     vw 7336   5.945   3.906   4.377 -0.4544  0.1459  0.1802
 1835SOL     ow 7337   0.221   5.197   1.745 -0.5318 -0.3664  0.8661
 1835SOL     hw 7338   0.133   5.227   1.722 -1.2124  0.2918  3.8341
 1835SOL     hw 7339   0.218   5.102   1.732 -1.1386 -0.1796 -0.5583
 1835SOL     vw 7340   0.209   5.188   1.740 -0.7016 -0.2549  1.0698
 1836SOL     ow 7341   2.747   5.588   3.550  0.0400  0.4028  0.1583
 1836SOL     hw 7342   2.759   5.663   3.607  2.9526  0.0140  0.2140
 1836SOL     hw 7343   2.780   5.514   3.601 -1.1763 -0.6460 -0.5222
 1836SOL     vw 7344   2.753   5.588   3.564  0.2638  0.2131  0.0758
 1837SOL     ow 7345   5.168   5.757   4.598 -0.5920  0.6072  0.2633
 1837SOL     hw 7346   5.101   5.739   4.532 -0.4659  1.7860 -0.2251
 1837SOL     hw 7347   5.124   5.810   4.664 -0.4537  0.3144  0.5961
 1837SOL     vw 7348   5.154   5.762   4.598 -0.5572  0.7241  0.2429
 1838SOL     ow 7349   6.551   1.206   4.885  0.2007  0.0759 -0.6972
 1838SOL     hw 7350   6.640   1.180   4.861 -0.4508 -1.0183 -2.0897
 1838SOL     hw 7351   6.497   1.130   4.864 -1.3544  1.4143 -1.8526
 1838SOL     vw 7352   6.555   1.192   4.879 -0.0901  0.1081 -1.0333
 1839SOL     ow 7353   1.708   5.613   3.178  0.1244 -0.0555  0.1043
 1839SOL     hw 7354   1.616   5.633   3.197 -0.1353 -0.9912 -0.0879
 1839SOL     hw 7355   1.743   5.581   3.262  0.0372 -0.4898 -0.0194
 1839SOL     vw 7356   1.700   5.611   3.192  0.0786 -0.2363  0.0627
 1840SOL     ow 7357   5.568   1.743   1.736  0.7607  0.1203 -0.1591
 1840SOL     hw 7358   5.606   1.820   1.778  0.5367  0.3467 -0.3618
 1840SOL     hw 7359   5.628   1.722   1.664 -0.4416  1.6452 -1.6978
 1840SOL     vw 7360   5.581   1.750   1.732  0.5727  0.3514 -0.3889
 1841SOL     ow 7361   0.743   0.572   0.528  0.0031 -0.1202  0.0947
 1841SOL     hw 7362   0.704   0.624   0.458 -1.2607 -1.2844 -0.0974
 1841SOL     hw 7363   0.814   0.523   0.486 -1.4531 -1.6578 -0.6663
 1841SOL     vw 7364   0.748   0.572   0.513 -0.3558 -0.4767 -0.0310
 1842SOL     ow 7365   6.631   5.894   0.393 -0.2772  0.1497 -0.6226
 1842SOL     hw 7366   6.647   5.852   0.308 -0.8565  1.6011 -1.4951
 1842SOL     hw 7367   6.645   5.988   0.376  0.2668  0.4091  1.0650
 1842SOL     vw 7368   6.635   5.901   0.380 -0.2818  0.3755 -0.5151
 1843SOL     ow 7369   7.305   1.854   4.380  0.0782  0.1111  0.2888
 1843SOL     hw 7370   7.240   1.830   4.314  0.6899  0.6978 -0.5417
 1843SOL     hw 7371   7.286   1.796   4.454 -0.2795 -0.9362 -0.5970
 1843SOL     vw 7372   7.294   1.843   4.381  0.1116  0.0504  0.0620
 1844SOL     ow 7373   7.112   4.468   1.124 -0.1693  0.1482 -0.3853
 1844SOL     hw 7374   7.204   4.481   1.102  0.3058 -0.9737  0.8047
 1844SOL     hw 7375   7.069   4.549   1.097  1.2491  0.8873 -0.5096
 1844SOL     vw 7376   7.118   4.481   1.117  0.0806  0.0975 -0.2447
 1845SOL     ow 7377   2.509   0.011   4.201  0.1021  0.2366  0.0910
 1845SOL     hw 7378   2.582   0.019   4.262 -1.3697  0.5847  1.9296
 1845SOL     hw 7379   2.518   0.086   4.143 -1.1600  2.9864  3.1127
 1845SOL     vw 7380   2.520   0.022   4.202 -0.2586  0.6453  0.7324
 1846SOL     ow 7381   0.772   1.084   4.343 -0.0679  0.2396  0.1142
 1846SOL     hw 7382   0.731   1.045   4.420 -0.2788  0.6089  0.1914
 1846SOL     hw 7383   0.754   1.178   4.351  0.5267  0.3684 -0.0105
 1846SOL     vw 7384   0.764   1.091   4.355 -0.0173  0.3053  0.1078
 1847SOL     ow 7385   3.658   0.575   0.787 -0.6750  0.0424 -0.0913
 1847SOL     hw 7386   3.640   0.662   0.824 -0.4217  0.0191  0.0849
 1847SOL     hw 7387   3.639   0.514   0.858  3.1340  0.1627  1.2348
 1847SOL     vw 7388   3.653   0.579   0.801 -0.1389  0.0552  0.1069
 1848SOL     ow 7389   3.631   0.827   6.135  0.5751  0.5233  0.0361
 1848SOL     hw 7390   3.693   0.900   6.138 -0.6832  1.5893  1.0414
 1848SOL     hw 7391   3.574   0.847   6.060  1.0435 -0.1276 -0.5010
 1848SOL     vw 7392   3.632   0.839   6.125  0.4710  0.5780  0.0975
 1849SOL     ow 7393   1.176   4.201   1.134  0.0621 -0.4812 -0.2440
 1849SOL     hw 7394   1.102   4.204   1.195 -0.4886 -0.8161 -0.8802
 1849SOL     hw 7395   1.185   4.108   1.114 -0.2617 -0.2985 -1.2687
 1849SOL     vw 7396   1.167   4.189   1.140 -0.0533 -0.5014 -0.4631
 1850SOL     ow 7397   2.120   6.093   3.417  0.2114 -0.3590 -0.4743
 1850SOL     hw 7398   2.167   6.167   3.378  3.3910 -1.0734  1.6885
 1850SOL     hw 7399   2.084   6.128   3.498  0.2049 -0.7631 -0.3014
 1850SOL     vw 7400   2.121   6.108   3.422  0.6300 -0.5066 -0.1661
 1851SOL     ow 7401   4.064   3.132   3.595  0.1129 -0.2422 -0.7959
 1851SOL     hw 7402   4.084   3.207   3.540  1.3831  0.0173 -0.0153
 1851SOL     hw 7403   4.138   3.126   3.655 -1.9891  0.5557  2.0575
 1851SOL     vw 7404   4.076   3.141   3.596  0.0033 -0.1026 -0.3164
 1852SOL     ow 7405   0.086   2.628   2.036  0.6167  0.0117  0.2790
 1852SOL     hw 7406   0.104   2.672   1.952 -0.3717  0.3250  0.2198
 1852SOL     hw 7407   0.031   2.554   2.012  1.3400 -0.6087  0.5185
 1852SOL     vw 7408   0.081   2.624   2.022  0.5818 -0.0288  0.3029
 1853SOL     ow 7409   6.210   1.083   4.965  0.1282 -0.5295  0.4709
 1853SOL     hw 7410   6.271   1.090   5.039 -0.3777 -2.2026  1.1043
 1853SOL     hw 7411   6.256   1.028   4.901 -0.2531 -0.8707  0.4792
 1853SOL     vw 7412   6.224   1.076   4.967  0.0112 -0.7953  0.5555
 1854SOL     ow 7413   6.864   2.967   0.526  0.0094  0.2191  0.1750
 1854SOL     hw 7414   6.872   2.953   0.431 -1.0625  0.4880  0.0333
 1854SOL     hw 7415   6.851   2.879   0.562 -1.1819  0.2710 -0.1102
 1854SOL     vw 7416   6.864   2.953   0.518 -0.2894  0.2615  0.1187
 1855SOL     ow 7417   0.237   0.150   7.153  0.3978 -0.1639  0.4497
 1855SOL     hw 7418   0.262   0.233   7.112  0.6094 -0.7197 -0.5697
 1855SOL     hw 7419   0.308   0.131   7.214  0.4802  0.2666  0.4933
 1855SOL     vw 7420   0.250   0.159   7.156  0.4366 -0.1804  0.3211
 1856SOL     ow 7421   5.814   4.809   1.263  0.2891 -0.2628 -0.0298
 1856SOL     hw 7422   5.856   4.741   1.211  0.7747  0.7309 -0.9719
 1856SOL     hw 7423   5.887   4.857   1.302 -0.0671 -0.8408  1.3950
 1856SOL     vw 7424   5.829   4.807   1.261  0.3064 -0.2079  0.0340
 1857SOL     ow 7425   5.336   6.187   5.966 -0.0786 -0.0247 -0.4450
 1857SOL     hw 7426   5.337   6.244   5.889  0.2096  1.1760  0.4290
 1857SOL     hw 7427   5.428   6.160   5.977  0.0139  0.4460 -0.0575
 1857SOL     vw 7428   5.349   6.191   5.957 -0.0284  0.1960 -0.2782
 1858SOL     ow 7429   1.211   5.073   3.382  0.1544 -0.1485 -0.0864
 1858SOL     hw 7430   1.173   5.061   3.470  0.0549  0.0714 -0.0983
 1858SOL     hw 7431   1.141   5.046   3.323  0.7499 -1.8274 -0.0910
 1858SOL     vw 7432   1.196   5.068   3.386  0.2198 -0.3412 -0.0885
 1859SOL     ow 7433   5.709   6.979   3.322  0.7247 -0.2011 -0.3319
 1859SOL     hw 7434   5.804   6.970   3.321  0.6734 -0.7658 -0.5640
 1859SOL     hw 7435   5.676   6.891   3.301  0.1498 -0.0871  0.0528
 1859SOL     vw 7436   5.717   6.966   3.319  0.6416 -0.2606 -0.3119
 1860SOL     ow 7437   1.548   2.393   6.738  0.0099  0.1032 -0.3230
 1860SOL     hw 7438   1.638   2.406   6.706  0.5235 -4.9388 -1.7487
 1860SOL     hw 7439   1.494   2.440   6.674  1.5180  1.5873 -0.5951
 1860SOL     vw 7440   1.553   2.401   6.725  0.2766 -0.3661 -0.5469
 1861SOL     ow 7441   1.295   1.118   3.725  0.0700 -0.0104  0.1975
 1861SOL     hw 7442   1.363   1.110   3.658 -1.2147 -0.8134 -1.0470
 1861SOL     hw 7443   1.213   1.125   3.677 -0.8529 -0.0967  1.6744
 1861SOL     vw 7444   1.293   1.118   3.710 -0.2213 -0.1278  0.2283
 1862SOL     ow 7445   5.594   0.240   6.161 -0.1398 -0.0536  0.0418
 1862SOL     hw 7446   5.631   0.206   6.080 -0.4692 -0.9470  0.2511
 1862SOL     hw 7447   5.597   0.335   6.152  0.4497 -0.1426 -0.7288
 1862SOL     vw 7448   5.599   0.248   6.149 -0.1054 -0.1832 -0.0319
 1863SOL     ow 7449   6.591   7.046   2.248 -0.1090  0.3156 -0.2650
 1863SOL     hw 7450   6.672   6.997   2.235  0.0774  0.5502 -0.0045
 1863SOL     hw 7451   6.550   7.005   2.325  0.7846  1.5101  0.8842
 1863SOL     vw 7452   6.596   7.034   2.257  0.0336  0.5043 -0.0790
 1864SOL     ow 7453   6.275   6.104   3.734  0.3455 -0.6389  0.5982
 1864SOL     hw 7454   6.189   6.094   3.693 -0.0929  0.3175  1.2767
 1864SOL     hw 7455   6.336   6.107   3.660 -0.6600  4.0591 -0.3307
 1864SOL     vw 7456   6.272   6.103   3.719  0.1547  0.1070  0.5652
 1865SOL     ow 7457   4.099   4.854   6.232  0.4801 -0.3056  0.4137
 1865SOL     hw 7458   4.052   4.804   6.165  1.4933 -1.2934  0.4072
 1865SOL     hw 7459   4.173   4.798   6.256  1.0922  0.7767  1.1326
 1865SOL     vw 7460   4.103   4.840   6.226  0.6945 -0.2933  0.5078
 1866SOL     ow 7461   1.396   1.014   0.630 -0.0971  0.4495  0.8110
 1866SOL     hw 7462   1.414   1.108   0.639 -0.1287  0.5272  0.0563
 1866SOL     hw 7463   1.301   1.009   0.617 -0.0439  0.3407  0.4631
 1866SOL     vw 7464   1.386   1.026   0.630 -0.0942  0.4453  0.6655
 1867SOL     ow 7465   6.954   5.144   0.443 -0.1416 -1.1398 -0.2525
 1867SOL     hw 7466   6.937   5.052   0.465 -0.2541 -0.8904  0.7406
 1867SOL     hw 7467   6.937   5.191   0.524 -1.7653 -0.0211 -1.1966
 1867SOL     vw 7468   6.950   5.138   0.456 -0.3705 -0.9592 -0.2460
 1868SOL     ow 7469   3.879   0.426   1.703 -0.1017 -0.3263  0.1176
 1868SOL     hw 7470   3.896   0.438   1.797 -1.5989  2.1457  0.1619
 1868SOL     hw 7471   3.966   0.430   1.663  0.4648 -0.2725  1.3096
 1868SOL     vw 7472   3.893   0.428   1.710 -0.2246  0.0070  0.2807
 1869SOL     ow 7473   3.267   7.138   2.703 -0.5024  0.1067 -0.1696
 1869SOL     hw 7474   3.352   7.149   2.662 -0.0046 -1.9849  0.1651
 1869SOL     hw 7475   3.275   7.057   2.754 -2.1441  0.7972  1.3024
 1869SOL     vw 7476   3.279   7.129   2.704 -0.6534 -0.0777  0.0688
 1870SOL     ow 7477   5.700   0.684   6.370  0.2016  0.4147 -0.5392
 1870SOL     hw 7478   5.630   0.700   6.434  1.0692 -1.5944  0.9966
 1870SOL     hw 7479   5.711   0.769   6.326 -0.7588  1.7589  1.6307
 1870SOL     vw 7480   5.692   0.697   6.373  0.1895  0.3270 -0.0503
 1871SOL     ow 7481   7.078   6.274   7.440  0.0404  0.1321 -0.4130
 1871SOL     hw 7482   7.042   6.362   7.426 -0.9671 -0.3594 -1.0577
 1871SOL     hw 7483   7.101   6.244   7.352  0.4656 -0.2197 -0.1842
 1871SOL     vw 7484   7.076   6.282   7.426 -0.0362  0.0210 -0.4680
 1872SOL     ow 7485   1.772   2.922   1.162 -0.0684  0.7974 -0.0293
 1872SOL     hw 7486   1.825   2.925   1.083  0.2594  2.3477  0.2094
 1872SOL     hw 7487   1.688   2.886   1.134  0.1168  1.1182 -1.0353
 1872SOL     vw 7488   1.768   2.918   1.148 -0.0007  1.0444 -0.1305
 1873SOL     ow 7489   6.233   6.522   0.204  0.1874 -0.1126  0.4467
 1873SOL     hw 7490   6.308   6.582   0.199 -0.1686  0.3992  1.0885
 1873SOL     hw 7491   6.171   6.557   0.141  0.2044 -0.1274  0.4217
 1873SOL     vw 7492   6.235   6.535   0.195  0.1428 -0.0470  0.5281
 1874SOL     ow 7493   1.235   5.641   7.466  0.5972 -0.8874 -0.2214
 1874SOL     hw 7494   1.156   5.615   7.512  0.0475  0.8331 -0.1174
 1874SOL     hw 7495   1.259   5.726   7.504  0.2921  0.4642 -2.8023
 1874SOL     vw 7496   1.228   5.649   7.477  0.4844 -0.4821 -0.5482
 1875SOL     ow 7497   4.494   1.955   5.927 -0.2727 -0.3675 -0.4698
 1875SOL     hw 7498   4.491   2.017   6.000  0.7404 -1.1317  0.2456
 1875SOL     hw 7499   4.549   1.998   5.862 -0.9328  0.1854 -0.6834
 1875SOL     vw 7500   4.501   1.969   5.928 -0.2263 -0.3954 -0.4034
 1876SOL     ow 7501   4.876   3.867   4.911  0.2549  0.5292  0.2068
 1876SOL     hw 7502   4.872   3.776   4.941 -0.0342 -0.5277 -2.6924
 1876SOL     hw 7503   4.969   3.885   4.903  0.3174  0.5717  0.9654
 1876SOL     vw 7504   4.888   3.857   4.914  0.2251  0.3954 -0.0753
 1877SOL     ow 7505   3.521   4.815   7.197 -0.1295  0.0827  0.4825
 1877SOL     hw 7506   3.575   4.891   7.221 -0.4653 -0.2574  2.4794
 1877SOL     hw 7507   3.575   4.740   7.220 -1.8134 -0.2947  3.7987
 1877SOL     vw 7508   3.535   4.815   7.204 -0.3960 -0.0117  1.1835
 1878SOL     ow 7509   2.909   3.023   5.804 -0.3832  0.2154 -0.4127
 1878SOL     hw 7510   2.951   3.108   5.790 -0.2141  0.2565  0.3124
 1878SOL     hw 7511   2.982   2.961   5.809 -0.4513  0.1688  0.0302
 1878SOL     vw 7512   2.924   3.026   5.802 -0.3698  0.2146 -0.2584
 1879SOL     ow 7513   1.151   3.114   5.713  0.3327  0.0334 -0.8667
 1879SOL     hw 7514   1.162   3.170   5.789  1.8600 -0.8950 -0.3574
 1879SOL     hw 7515   1.202   3.035   5.733  0.2121 -0.5273 -2.5553
 1879SOL     vw 7516   1.159   3.111   5.725  0.5183 -0.1631 -1.0223
 1880SOL     ow 7517   4.440   6.961   5.757 -0.0897  0.2621 -0.3650
 1880SOL     hw 7518   4.373   6.982   5.823  0.0873 -2.1219  0.6834
 1880SOL     hw 7519   4.463   6.870   5.775  0.8257 -0.1136 -3.0222
 1880SOL     vw 7520   4.434   6.952   5.768  0.0546 -0.1020 -0.5770
 1881SOL     ow 7521   0.566   3.051   2.607  0.9195  0.5348 -0.0964
 1881SOL     hw 7522   0.553   3.123   2.545 -0.6922  0.2479 -0.1529
 1881SOL     hw 7523   0.571   3.094   2.693 -0.4650  0.7299 -0.0833
 1881SOL     vw 7524   0.565   3.066   2.610  0.5242  0.5227 -0.1022
 1882SOL     ow 7525   7.263   2.748   6.582  0.3616  0.5827  0.3724
 1882SOL     hw 7526   7.189   2.723   6.637  1.3340  0.3477  1.6031
 1882SOL     hw 7527   7.234   2.727   6.493 -0.2101 -1.6864  1.0203
 1882SOL     vw 7528   7.249   2.742   6.577  0.4146  0.2522  0.6204
 1883SOL     ow 7529   3.688   0.942   7.216  0.1335  0.1636 -0.3187
 1883SOL     hw 7530   3.778   0.962   7.192  0.0874 -0.0913 -0.7262
 1883SOL     hw 7531   3.686   0.847   7.225  0.5861  0.3415  2.5432
 1883SOL     vw 7532   3.700   0.932   7.214  0.1870  0.1534  0.0048
 1884SOL     ow 7533   7.010   1.819   1.856  0.2609 -0.0313 -0.2453
 1884SOL     hw 7534   7.026   1.877   1.930  0.4828 -0.5086  0.0888
 1884SOL     hw 7535   7.035   1.870   1.780  0.6708  0.2288  0.0595
 1884SOL     vw 7536   7.015   1.833   1.856  0.3443 -0.0600 -0.1610
 1885SOL     ow 7537   2.518   3.546   2.965 -0.1862 -0.2099  0.3931
 1885SOL     hw 7538   2.555   3.620   2.918  0.1918  0.1967  1.3070
 1885SOL     hw 7539   2.586   3.521   3.029 -0.5226 -0.9971  0.4592
 1885SOL     vw 7540   2.532   3.552   2.967 -0.1807 -0.2600  0.5225
 1886SOL     ow 7541   5.846   2.267   1.221 -0.0139  0.2646  0.0699
 1886SOL     hw 7542   5.805   2.239   1.302  0.5869 -0.5228  0.1158
 1886SOL     hw 7543   5.867   2.359   1.234 -1.6071  0.6471  0.0979
 1886SOL     vw 7544   5.844   2.275   1.233 -0.1447  0.2111  0.0796
 1887SOL     ow 7545   4.418   2.405   6.499 -0.2884 -0.0623 -0.5108
 1887SOL     hw 7546   4.349   2.397   6.434 -0.1000  0.4049 -0.7715
 1887SOL     hw 7547   4.466   2.485   6.475  0.0934 -0.1585 -0.1008
 1887SOL     vw 7548   4.415   2.415   6.487 -0.2134 -0.0132 -0.4911
 1888SOL     ow 7549   6.235   7.116   1.445  0.2975  0.1305  0.2254
 1888SOL     hw 7550   6.245   7.050   1.377 -1.3072 -0.6009  0.6579
 1888SOL     hw 7551   6.233   7.066   1.527  0.1546  0.8191  0.6527
 1888SOL     vw 7552   6.236   7.100   1.447  0.0670  0.1249  0.3389
 1889SOL     ow 7553   6.332   3.624   0.483 -0.1526  0.0932  0.2274
 1889SOL     hw 7554   6.357   3.716   0.490  0.3347 -0.1680  2.7738
 1889SOL     hw 7555   6.310   3.612   0.391 -0.1452  2.7269 -0.1836
 1889SOL     vw 7556   6.333   3.634   0.472 -0.0873  0.4063  0.5092
 1890SOL     ow 7557   4.169   6.484   1.012 -0.1337  0.0018  0.5053
 1890SOL     hw 7558   4.200   6.524   0.931 -0.5855  0.1764  0.4215
 1890SOL     hw 7559   4.243   6.430   1.041 -0.0879 -0.3269 -0.1958
 1890SOL     vw 7560   4.183   6.482   1.005 -0.1874 -0.0186  0.4018
 1891SOL     ow 7561   5.331   2.864   6.511  0.4319  0.2188  0.1192
 1891SOL     hw 7562   5.364   2.792   6.566 -0.5221 -0.2611  0.0893
 1891SOL     hw 7563   5.359   2.841   6.423 -0.9967 -0.8317 -0.0900
 1891SOL     vw 7564   5.339   2.851   6.507  0.1178  0.0169  0.0875
 1892SOL     ow 7565   2.652   4.801   5.323 -0.8026  0.1703 -0.2608
 1892SOL     hw 7566   2.590   4.786   5.395 -0.8174  0.6205 -0.1760
 1892SOL     hw 7567   2.659   4.897   5.316 -0.2230  0.1293 -0.3604
 1892SOL     vw 7568   2.645   4.812   5.332 -0.7280  0.2244 -0.2630
 1893SOL     ow 7569   4.231   2.737   3.557  0.1793  0.1878  0.7338
 1893SOL     hw 7570   4.278   2.716   3.477 -0.4884 -1.1011  0.6452
 1893SOL     hw 7571   4.203   2.652   3.591 -0.1622  0.7654  1.9567
 1893SOL     vw 7572   4.233   2.723   3.551  0.0463  0.0941  0.8833
 1894SOL     ow 7573   5.586   2.172   1.843 -0.1992 -0.2440 -0.5871
 1894SOL     hw 7574   5.642   2.155   1.767  0.1661  1.0685 -0.6450
 1894SOL     hw 7575   5.647   2.199   1.911 -0.4435 -2.1774  0.4442
 1894SOL     vw 7576   5.602   2.173   1.842 -0.1831 -0.3259 -0.4586
 1895SOL     ow 7577   0.016   5.352   0.004 -0.3100  0.0780 -0.2447
 1895SOL     hw 7578   0.031   5.328  -0.087 -1.3776 -1.7739  0.0283
 1895SOL     hw 7579  -0.059   5.412   0.001 -0.1751  0.2267 -0.6089
 1895SOL     vw 7580   0.008   5.357  -0.008 -0.4327 -0.1469 -0.2568
 1896SOL     ow 7581   3.224   4.130   7.200 -0.0305  0.6699  0.1600
 1896SOL     hw 7582   3.210   4.161   7.290  0.9102 -1.2823  1.0420
 1896SOL     hw 7583   3.194   4.202   7.145  0.4518  2.3900  2.0376
 1896SOL     vw 7584   3.218   4.143   7.205  0.1574  0.6392  0.5243
 1897SOL     ow 7585   1.308   2.353   1.114  0.7354 -0.3817 -0.4993
 1897SOL     hw 7586   1.282   2.328   1.025  2.2483  0.2704 -1.1665
 1897SOL     hw 7587   1.398   2.320   1.123  0.1796 -1.5883  1.2959
 1897SOL     vw 7588   1.316   2.345   1.103  0.8616 -0.4549 -0.3505
 1898SOL     ow 7589   1.047   5.488   0.121  0.4203 -0.7745 -0.2333
 1898SOL     hw 7590   1.131   5.449   0.146 -0.6267 -3.7107 -0.8776
 1898SOL     hw 7591   0.992   5.479   0.199 -0.1737 -1.7252 -0.7406
 1898SOL     vw 7592   1.051   5.482   0.135  0.2037 -1.2872 -0.3853
 1899SOL     ow 7593   1.219   0.351   5.021  0.2236 -0.1252 -0.6114
 1899SOL     hw 7594   1.258   0.411   5.084  0.6430 -0.8897 -0.1350
 1899SOL     hw 7595   1.124   0.359   5.036  0.2868  0.2037 -0.3710
 1899SOL     vw 7596   1.211   0.360   5.031  0.2874 -0.1827 -0.5167
 1900SOL     ow 7597   3.004   6.904   3.635  0.0904  0.4477  0.8199
 1900SOL     hw 7598   2.942   6.911   3.708 -0.2536  1.1027  0.4742
 1900SOL     hw 7599   3.089   6.927   3.672  0.0829 -0.1700  1.2321
 1900SOL     vw 7600   3.007   6.908   3.649  0.0440  0.4525  0.8286
 1901SOL     ow 7601   5.750   3.115   4.671  0.0831 -0.2839 -0.0426
 1901SOL     hw 7602   5.832   3.165   4.674  0.1400 -0.3984  0.4070
 1901SOL     hw 7603   5.723   3.119   4.580 -0.3967  1.3513  0.1286
 1901SOL     vw 7604   5.757   3.122   4.660  0.0269 -0.0832  0.0396
 1902SOL     ow 7605   5.950   2.655   3.112 -0.2560  0.4657 -0.4556
 1902SOL     hw 7606   5.886   2.598   3.071  0.5173 -0.7980  0.0166
 1902SOL     hw 7607   5.998   2.598   3.172 -1.2099  2.1681  2.1055
 1902SOL     vw 7608   5.948   2.640   3.114 -0.2799  0.5234 -0.0553
 1903SOL     ow 7609   0.650   0.881   6.726 -0.2210 -0.2263  0.0314
 1903SOL     hw 7610   0.691   0.967   6.730 -0.2575 -0.0847 -1.7161
 1903SOL     hw 7611   0.676   0.838   6.807  2.0702  0.4438 -0.2793
 1903SOL     vw 7612   0.659   0.886   6.737  0.0765 -0.1192 -0.2401
 1904SOL     ow 7613   3.811   4.073   2.054 -0.0321  1.1187  0.1782
 1904SOL     hw 7614   3.737   4.046   2.109  0.4825  2.7559  1.7358
 1904SOL     hw 7615   3.777   4.146   2.003 -0.5075 -0.3871 -1.8024
 1904SOL     vw 7616   3.797   4.079   2.055 -0.0268  1.1361  0.1223
 1905SOL     ow 7617   3.278   6.378   6.507 -0.0259  0.0555  0.1385
 1905SOL     hw 7618   3.228   6.414   6.434  1.1759 -0.1933 -0.8330
 1905SOL     hw 7619   3.361   6.425   6.506 -0.4130  0.8994  2.1087
 1905SOL     vw 7620   3.283   6.389   6.497  0.0817  0.1340  0.2704
 1906SOL     ow 7621   6.156   1.835   2.674 -0.0667  0.3916 -0.0072
 1906SOL     hw 7622   6.089   1.812   2.609  0.4073 -0.7384 -0.1223
 1906SOL     hw 7623   6.109   1.832   2.758 -0.3403  0.3946 -0.1576
 1906SOL     vw 7624   6.141   1.832   2.676 -0.0403  0.2429 -0.0422
 1907SOL     ow 7625   3.348   3.654   6.113  0.0205 -0.2273 -0.3558
 1907SOL     hw 7626   3.252   3.660   6.115  0.0633  0.7561 -0.5557
 1907SOL     hw 7627   3.373   3.647   6.205 -0.1336  2.3659 -0.0333
 1907SOL     vw 7628   3.338   3.654   6.126  0.0058  0.2446 -0.3397
 1908SOL     ow 7629   6.260   0.085   5.145  0.1197  0.7446 -0.1946
 1908SOL     hw 7630   6.348   0.048   5.139  0.1788  0.9795 -0.8686
 1908SOL     hw 7631   6.267   0.150   5.215 -0.0656 -0.6895  1.1947
 1908SOL     vw 7632   6.273   0.089   5.153  0.1032  0.5864 -0.1001
 1909SOL     ow 7633   1.097   3.263   5.365 -0.0617  0.6538 -0.6505
 1909SOL     hw 7634   1.068   3.208   5.438  2.1130 -0.8859 -0.8298
 1909SOL     hw 7635   1.017   3.286   5.318 -1.3643  0.4720  1.3790
 1909SOL     vw 7636   1.083   3.259   5.368  0.0533  0.4267 -0.4065
 1910SOL     ow 7637   6.102   3.273   7.118 -0.1711  0.1949  0.2864
 1910SOL     hw 7638   6.027   3.236   7.163 -0.9235 -0.3219 -1.3243
 1910SOL     hw 7639   6.171   3.276   7.185 -1.2866 -0.3360  1.5020
 1910SOL     vw 7640   6.101   3.268   7.133 -0.4172  0.0566  0.2341
 1911SOL     ow 7641   6.264   6.366   0.808  0.4681 -0.4254  0.4968
 1911SOL     hw 7642   6.333   6.373   0.874 -1.8187  1.9027  2.8872
 1911SOL     hw 7643   6.285   6.434   0.744 -1.0631  2.6088  2.9319
 1911SOL     vw 7644   6.276   6.376   0.808 -0.0353  0.2820  1.1335
 1912SOL     ow 7645   6.702   5.196   3.667 -0.2095 -0.6676  0.3324
 1912SOL     hw 7646   6.704   5.291   3.656  0.6971 -0.8605 -1.6071
 1912SOL     hw 7647   6.714   5.161   3.578 -0.6459 -2.5985  0.9819
 1912SOL     vw 7648   6.704   5.204   3.654 -0.1476 -0.9477  0.1621
 1913SOL     ow 7649   3.416   3.315   5.596 -0.2261 -0.3357 -0.0172
 1913SOL     hw 7650   3.460   3.231   5.612  0.9734  0.0946 -0.8825
 1913SOL     hw 7651   3.383   3.307   5.506 -0.2313  0.0683 -0.0509
 1913SOL     vw 7652   3.418   3.303   5.586 -0.0688 -0.2258 -0.1359
 1914SOL     ow 7653   0.625   6.543   6.744  0.0295  0.1445 -0.3953
 1914SOL     hw 7654   0.640   6.612   6.679 -1.1980 -0.5150 -1.4182
 1914SOL     hw 7655   0.712   6.509   6.763  0.5372  1.2149 -0.7331
 1914SOL     vw 7656   0.639   6.548   6.738 -0.0655  0.1986 -0.5751
 1915SOL     ow 7657   1.715   4.065   7.391 -0.3400  0.2990  0.1442
 1915SOL     hw 7658   1.621   4.067   7.408 -0.2160 -1.4815  1.3390
 1915SOL     hw 7659   1.753   4.028   7.471  0.9265 -2.9838 -1.7697
 1915SOL     vw 7660   1.708   4.061   7.404 -0.1565 -0.3691  0.0496
 1916SOL     ow 7661   0.218   4.535   5.979 -0.3056  0.1703 -0.1707
 1916SOL     hw 7662   0.172   4.579   5.907 -0.0116 -0.0597 -0.5063
 1916SOL     hw 7663   0.177   4.568   6.058 -0.2341  0.8835 -0.4276
 1916SOL     vw 7664   0.207   4.545   5.980 -0.2574  0.2341 -0.2489
 1917SOL     ow 7665   2.748   1.695   5.193  0.0162  0.4033  0.0948
 1917SOL     hw 7666   2.822   1.708   5.134  0.0074 -0.9432 -0.2420
 1917SOL     hw 7667   2.673   1.733   5.147  0.1050 -0.1690 -0.5337
 1917SOL     vw 7668   2.748   1.702   5.179  0.0267  0.1501 -0.0327
 1918SOL     ow 7669   4.657   6.639   6.814  0.2140 -0.0025 -0.3678
 1918SOL     hw 7670   4.698   6.702   6.756  2.3916 -0.5790  0.4343
 1918SOL     hw 7671   4.687   6.554   6.782 -1.6445 -0.5990 -0.6663
 1918SOL     vw 7672   4.667   6.636   6.802  0.2563 -0.1574 -0.3011
 1919SOL     ow 7673   0.633   2.615   5.388 -0.0236  0.3422 -0.3952
 1919SOL     hw 7674   0.564   2.550   5.399  0.0487  0.5237  1.3742
 1919SOL     hw 7675   0.712   2.563   5.371  0.1360 -0.1256  1.5237
 1919SOL     vw 7676   0.634   2.599   5.387  0.0070  0.3043  0.0913
 1920SOL     ow 7677   2.008   1.548   0.994 -0.1445  0.1866 -0.2638
 1920SOL     hw 7678   2.086   1.601   0.975 -0.0186 -0.3532 -1.3355
 1920SOL     hw 7679   1.982   1.574   1.083  2.1479 -0.7115  0.7502
 1920SOL     vw 7680   2.015   1.558   1.003  0.1745 -0.0031 -0.2714
 1921SOL     ow 7681   2.923   3.181   0.017 -0.3035  0.9483 -0.1885
 1921SOL     hw 7682   2.840   3.143  -0.013  0.3919  0.2089 -1.2506
 1921SOL     hw 7683   2.952   3.235  -0.057 -0.0156  1.5061  0.3272
 1921SOL     vw 7684   2.916   3.183   0.003 -0.1737  0.9245 -0.2606
 1922SOL     ow 7685   7.073   4.004   2.292 -0.0689 -0.2894 -0.2378
 1922SOL     hw 7686   7.093   4.050   2.374 -1.0175 -1.3793  0.6585
 1922SOL     hw 7687   7.158   3.975   2.259  0.5082  1.7065 -0.6259
 1922SOL     vw 7688   7.087   4.006   2.299 -0.1180 -0.1700 -0.1708
 1923SOL     ow 7689   1.416   4.085   1.791  0.2050  0.4220 -0.2881
 1923SOL     hw 7690   1.489   4.038   1.751  0.3367 -1.1729  1.6574
 1923SOL     hw 7691   1.448   4.110   1.878 -1.0405  1.0755  0.0044
 1923SOL     vw 7692   1.430   4.082   1.797  0.0580  0.2978  0.0071
 1924SOL     ow 7693   6.502   2.014   0.560 -0.3572  0.0195 -0.1106
 1924SOL     hw 7694   6.588   1.982   0.587  0.5668  0.9130 -1.8486
 1924SOL     hw 7695   6.473   2.069   0.633  0.1006 -1.0127  0.8909
 1924SOL     vw 7696   6.510   2.017   0.573 -0.1745  0.0012 -0.2078
 1925SOL     ow 7697   4.144   3.656   6.633  0.5525  0.2201 -0.1857
 1925SOL     hw 7698   4.089   3.580   6.612 -0.7166  1.5152 -1.8240
 1925SOL     hw 7699   4.221   3.646   6.576  0.3884  0.1672 -0.3994
 1925SOL     vw 7700   4.147   3.644   6.622  0.3631  0.3840 -0.4303
 1926SOL     ow 7701   6.890   0.243   6.215 -0.0074 -0.2024  0.6216
 1926SOL     hw 7702   6.862   0.310   6.152 -1.0759  1.2281  2.5162
 1926SOL     hw 7703   6.833   0.256   6.290  1.1111 -1.9661  1.8387
 1926SOL     vw 7704   6.879   0.254   6.216 -0.0012 -0.2463  1.0324
 1927SOL     ow 7705   2.779   5.651   6.526  0.5737  0.3816 -0.1210
 1927SOL     hw 7706   2.758   5.744   6.526 -2.1108 -0.1418  0.7215
 1927SOL     hw 7707   2.790   5.629   6.433  2.2332  1.6775 -0.2807
 1927SOL     vw 7708   2.778   5.660   6.513  0.4383  0.4835 -0.0312
 1928SOL     ow 7709   2.605   6.607   0.923 -0.0899 -0.2229  0.1497
 1928SOL     hw 7710   2.673   6.562   0.873  0.3779 -2.1275  2.3174
 1928SOL     hw 7711   2.622   6.583   1.014 -3.1262 -0.0911  0.8780
 1928SOL     vw 7712   2.616   6.598   0.928 -0.4287 -0.4568  0.5318
 1929SOL     ow 7713   2.495   4.283   2.774 -0.4971  0.2201 -0.4794
 1929SOL     hw 7714   2.434   4.245   2.712 -0.4130  0.6111 -0.8056
 1929SOL     hw 7715   2.490   4.226   2.851 -0.5218 -0.3298 -0.8797
 1929SOL     vw 7716   2.487   4.270   2.776 -0.4891  0.1993 -0.5752
 1930SOL     ow 7717   1.960   2.076   6.846 -0.4265 -0.3846  0.1768
 1930SOL     hw 7718   1.970   2.119   6.761 -0.9773  0.1478  0.3731
 1930SOL     hw 7719   1.896   2.131   6.893 -0.4081 -0.8825  0.7901
 1930SOL     vw 7720   1.953   2.089   6.841 -0.4967 -0.3802  0.2837
 1931SOL     ow 7721   0.941   2.572   2.467  0.1388  0.3070 -0.2731
 1931SOL     hw 7722   0.970   2.512   2.398  0.1814  0.7432 -0.6359
 1931SOL     hw 7723   1.018   2.625   2.487  0.6489 -0.9656  1.3503
 1931SOL     vw 7724   0.955   2.571   2.460  0.2118  0.1967 -0.1068
 1932SOL     ow 7725   4.570   3.720   4.057 -0.2861  0.0642  0.2916
 1932SOL     hw 7726   4.479   3.691   4.061  0.2396 -1.5743  1.2320
 1932SOL     hw 7727   4.587   3.732   3.964 -1.1870 -0.5553  0.0373
 1932SOL     vw 7728   4.560   3.718   4.045 -0.3355 -0.2338  0.3822
 1933SOL     ow 7729   1.611   6.212   7.003  0.7189  0.5358 -0.0873
 1933SOL     hw 7730   1.523   6.187   7.033  0.4206  2.8862  1.2159
 1933SOL     hw 7731   1.659   6.129   7.002 -1.4964 -0.8388 -0.9206
 1933SOL     vw 7732   1.606   6.198   7.007  0.3873  0.6645 -0.0255
 1934SOL     ow 7733   6.765   6.951   2.680  0.0692 -0.0470  0.3160
 1934SOL     hw 7734   6.737   7.013   2.612  0.1095  0.7625  1.0218
 1934SOL     hw 7735   6.828   6.893   2.636  0.2275  0.5780 -0.2912
 1934SOL     vw 7736   6.770   6.951   2.665  0.0956  0.1421  0.3290
 1935SOL     ow 7737   3.637   0.733   0.253  0.2462 -0.3935 -0.4227
 1935SOL     hw 7738   3.589   0.786   0.188  0.1961 -0.2444 -0.2657
 1935SOL     hw 7739   3.708   0.791   0.283  0.6641 -0.6940 -0.8204
 1935SOL     vw 7740   3.640   0.748   0.248  0.2947 -0.4135 -0.4545
 1936SOL     ow 7741   3.003   3.553   1.024  0.2946  0.3040 -0.1926
 1936SOL     hw 7742   3.058   3.619   1.067  1.2708 -0.7979  0.3101
 1936SOL     hw 7743   2.979   3.492   1.094  0.0666 -0.3056 -0.7892
 1936SOL     vw 7744   3.007   3.553   1.039  0.3934  0.0781 -0.2050
 1937SOL     ow 7745   2.208   0.015   5.139 -0.1319 -0.2672 -0.4789
 1937SOL     hw 7746   2.115  -0.006   5.139 -0.1528 -0.3806  1.4914
 1937SOL     hw 7747   2.243  -0.031   5.215  0.9038  2.2520  0.7199
 1937SOL     vw 7748   2.201   0.006   5.149  0.0019  0.0505 -0.0608
 1938SOL     ow 7749   5.508   2.938   5.341  0.1156 -0.1836 -0.2972
 1938SOL     hw 7750   5.577   2.884   5.303  0.3248 -1.6533  2.0113
 1938SOL     hw 7751   5.553   2.989   5.408 -0.4526  1.5189 -1.1426
 1938SOL     vw 7752   5.523   2.938   5.345  0.0684 -0.1528 -0.1042
 1939SOL     ow 7753   2.059   0.775   6.133 -0.1900  0.0310 -0.1191
 1939SOL     hw 7754   2.042   0.741   6.045  0.1390 -0.9388  0.1695
 1939SOL     hw 7755   2.144   0.737   6.156 -0.7160 -0.5154  0.9845
 1939SOL     vw 7756   2.068   0.765   6.124 -0.2159 -0.1691  0.0644
 1940SOL     ow 7757   2.559   0.460   1.028  0.4150  0.1516 -0.3852
 1940SOL     hw 7758   2.467   0.487   1.024  0.2348 -0.5652 -2.4684
 1940SOL     hw 7759   2.607   0.541   1.045 -0.5636  0.6022  0.3431
 1940SOL     vw 7760   2.553   0.475   1.030  0.2621  0.1165 -0.5640
 1941SOL     ow 7761   0.053   5.953   0.136  0.2501 -0.0312  0.5507
 1941SOL     hw 7762   0.057   5.953   0.232 -1.7304  0.4865  0.6664
 1941SOL     hw 7763   0.060   6.045   0.111  2.3877 -0.2735  0.0572
 1941SOL     vw 7764   0.054   5.965   0.145  0.2708  0.0052  0.5008
 1942SOL     ow 7765   4.350   3.359   4.414 -0.9870 -0.3170 -0.4802
 1942SOL     hw 7766   4.376   3.283   4.465 -1.3011  0.4351  0.8664
 1942SOL     hw 7767   4.380   3.341   4.325  2.0982 -0.5136  0.4809
 1942SOL     vw 7768   4.358   3.347   4.409 -0.6216 -0.2435 -0.1757
 1943SOL     ow 7769   0.672   6.519   2.763  0.1709  0.1730  0.7152
 1943SOL     hw 7770   0.715   6.465   2.697  1.5538  0.5959  1.2312
 1943SOL     hw 7771   0.689   6.474   2.846 -1.4953 -0.3252  0.8168
 1943SOL     vw 7772   0.680   6.506   2.765  0.1335  0.1633  0.7968
 1944SOL     ow 7773   7.362   2.958   2.221  0.2243 -0.0652 -0.5944
 1944SOL     hw 7774   7.350   3.051   2.236  2.0031  0.2803 -1.0564
 1944SOL     hw 7775   7.274   2.923   2.210 -0.4985  1.4534  0.1392
 1944SOL     vw 7776   7.349   2.965   2.222  0.3636  0.1807 -0.5586
 1945SOL     ow 7777   0.036   4.313   2.504  0.6773 -0.0221 -0.3298
 1945SOL     hw 7778   0.082   4.392   2.533 -1.3332  0.9688  0.4015
 1945SOL     hw 7779  -0.057   4.334   2.518  0.0960 -2.5859  0.0147
 1945SOL     vw 7780   0.030   4.326   2.510  0.3353 -0.2298 -0.1879
 1946SOL     ow 7781   2.071   5.776   5.079  0.1144  0.1640  0.2034
 1946SOL     hw 7782   2.064   5.869   5.101 -1.5564 -0.3658  2.1842
 1946SOL     hw 7783   1.981   5.746   5.070  0.6468 -1.0514 -1.5758
 1946SOL     vw 7784   2.058   5.784   5.081 -0.0356 -0.0660  0.2298
 1947SOL     ow 7785   5.387   4.847   6.808 -0.2545  0.0153 -0.1119
 1947SOL     hw 7786   5.375   4.899   6.728 -0.3661 -0.2102 -0.2433
 1947SOL     hw 7787   5.441   4.902   6.864 -0.6403  0.4161 -0.1208
 1947SOL     vw 7788   5.392   4.861   6.805 -0.3200  0.0386 -0.1302
 1948SOL     ow 7789   1.027   4.179   4.298  0.5169  0.6742 -0.1175
 1948SOL     hw 7790   1.093   4.114   4.322  0.5905  0.5871 -0.5376
 1948SOL     hw 7791   0.999   4.216   4.381 -0.2166 -0.5576  0.2067
 1948SOL     vw 7792   1.032   4.175   4.312  0.4298  0.5002 -0.1299
 1949SOL     ow 7793   3.507   4.023   1.102  0.4922  0.1837 -0.0319
 1949SOL     hw 7794   3.586   3.983   1.137 -0.5915 -3.0902 -0.8725
 1949SOL     hw 7795   3.520   4.117   1.113  3.8418 -0.2696  1.1020
 1949SOL     vw 7796   3.519   4.030   1.108  0.7912 -0.3076  0.0068
 1950SOL     ow 7797   7.115   5.571   1.178  0.6559 -0.1020  0.5012
 1950SOL     hw 7798   7.138   5.663   1.161  1.8531 -0.7752 -2.0892
 1950SOL     hw 7799   7.182   5.540   1.238  0.4747  0.6036  1.0825
 1950SOL     vw 7800   7.126   5.579   1.183  0.7904 -0.0980  0.2361
 1951SOL     ow 7801   2.572   4.979   1.280 -0.0713 -0.1674  0.1264
 1951SOL     hw 7802   2.510   4.907   1.291  1.1217 -1.0649  1.2302
 1951SOL     hw 7803   2.569   5.000   1.187 -1.8406 -0.3276  0.1003
 1951SOL     vw 7804   2.563   4.972   1.269 -0.1473 -0.3068  0.2686
 1952SOL     ow 7805   6.714   5.990   2.200  0.0539  0.2395  0.3487
 1952SOL     hw 7806   6.704   5.914   2.142 -0.1958  0.1691  0.4832
 1952SOL     hw 7807   6.677   5.961   2.284 -1.9227  1.1742 -0.1504
 1952SOL     vw 7808   6.708   5.976   2.204 -0.2398  0.3536  0.3005
 1953SOL     ow 7809   6.783   6.854   2.168 -0.4410  0.3972 -0.2589
 1953SOL     hw 7810   6.856   6.873   2.227  0.3643  0.1994 -1.1659
 1953SOL     hw 7811   6.769   6.760   2.177  0.2378  0.2199 -0.9955
 1953SOL     vw 7812   6.791   6.844   2.177 -0.2451  0.3476 -0.4758
 1954SOL     ow 7813   3.639   1.524   2.856  0.2733 -0.1548  0.5583
 1954SOL     hw 7814   3.723   1.525   2.902  0.7237 -1.3551 -0.2186
 1954SOL     hw 7815   3.598   1.441   2.881 -0.3850  0.1067  0.3817
 1954SOL     vw 7816   3.645   1.513   2.866  0.2460 -0.2787  0.4325
 1955SOL     ow 7817   0.438   6.715   1.914 -0.3928  0.2479  0.5143
 1955SOL     hw 7818   0.443   6.810   1.905 -1.2096  0.4773  2.1250
 1955SOL     hw 7819   0.524   6.690   1.948  0.2617  0.2227 -1.0756
 1955SOL     vw 7820   0.450   6.724   1.918 -0.4142  0.2749  0.5171
 1956SOL     ow 7821   2.867   1.849   7.078 -0.2079 -0.1048 -0.1248
 1956SOL     hw 7822   2.876   1.800   7.160  1.0358  0.7350  0.2818
 1956SOL     hw 7823   2.957   1.867   7.051 -0.6160  1.0803 -0.7791
 1956SOL     vw 7824   2.880   1.845   7.085 -0.0979  0.1624 -0.1576
 1957SOL     ow 7825   0.002   1.581   5.726  0.2315  0.0555  0.2550
 1957SOL     hw 7826  -0.087   1.573   5.762 -0.9758 -2.0697 -2.7191
 1957SOL     hw 7827   0.055   1.524   5.782 -0.6143  0.0758  1.1117
 1957SOL     vw 7828  -0.003   1.572   5.738 -0.0393 -0.2222 -0.0243
 1958SOL     ow 7829   6.589   6.093   6.150 -0.0829  0.4194 -0.3276
 1958SOL     hw 7830   6.682   6.103   6.129 -0.2007 -0.7314 -1.6213
 1958SOL     hw 7831   6.570   6.163   6.211  1.5972  0.7932 -0.1818
 1958SOL     vw 7832   6.599   6.103   6.155  0.1233  0.3171 -0.4792
 1959SOL     ow 7833   1.991   5.717   0.993 -0.1659  0.8614 -0.2238
 1959SOL     hw 7834   1.901   5.697   1.017 -0.2439  0.8111 -0.5566
 1959SOL     hw 7835   2.017   5.787   1.053 -0.1827  0.3818  0.3604
 1959SOL     vw 7836   1.983   5.723   1.004 -0.1784  0.7913 -0.1907
 1960SOL     ow 7837   6.551   5.052   2.193  0.8979 -0.1594  0.0451
 1960SOL     hw 7838   6.562   5.016   2.105  0.5159 -0.2567  0.0332
 1960SOL     hw 7839   6.543   4.975   2.250  0.4646 -0.0978  0.0717
 1960SOL     vw 7840   6.551   5.037   2.189  0.7901 -0.1638  0.0471
 1961SOL     ow 7841   6.010   1.023   0.752  0.0789  0.1024  0.2373
 1961SOL     hw 7842   5.975   1.112   0.757 -0.2082  0.1263 -1.5203
 1961SOL     hw 7843   5.945   0.970   0.797 -0.8221  0.5312 -0.5039
 1961SOL     vw 7844   5.996   1.028   0.758 -0.0777  0.1621 -0.0924
 1962SOL     ow 7845   6.380   2.379   4.028  0.5899 -0.6516 -0.3871
 1962SOL     hw 7846   6.339   2.323   4.093  0.1504 -0.9779 -0.9386
 1962SOL     hw 7847   6.469   2.344   4.019  0.2994 -1.3054 -0.7755
 1962SOL     vw 7848   6.387   2.367   4.035  0.4935 -0.7808 -0.5109
 1963SOL     ow 7849   5.705   5.705   4.352 -0.5300 -0.4706 -0.2437
 1963SOL     hw 7850   5.660   5.789   4.356 -1.8531 -1.1487 -0.2136
 1963SOL     hw 7851   5.728   5.694   4.260 -1.0556 -0.4179 -0.3873
 1963SOL     vw 7852   5.702   5.714   4.341 -0.7739 -0.5534 -0.2587
 1964SOL     ow 7853   0.488   4.520   5.788 -0.1427 -0.2163 -0.3014
 1964SOL     hw 7854   0.582   4.538   5.782 -0.2311  0.3220 -0.1219
 1964SOL     hw 7855   0.449   4.576   5.721 -0.6045  1.6963  1.4668
 1964SOL     vw 7856   0.495   4.530   5.778 -0.2153  0.1073 -0.0446
 1965SOL     ow 7857   6.728   6.865   1.151 -0.0525  0.1582 -0.3589
 1965SOL     hw 7858   6.797   6.922   1.184 -0.0858  0.4553 -0.8008
 1965SOL     hw 7859   6.664   6.861   1.223 -0.0171  0.6157 -0.2990
 1965SOL     vw 7860   6.728   6.872   1.165 -0.0525  0.2575 -0.4092
 1966SOL     ow 7861   3.698   1.227   3.624 -0.1137  0.4687  0.2966
 1966SOL     hw 7862   3.709   1.214   3.530  1.8903 -0.5349  0.6254
 1966SOL     hw 7863   3.676   1.319   3.633 -0.6501  0.5066 -1.1695
 1966SOL     vw 7864   3.696   1.237   3.613  0.0800  0.3414  0.1465
 1967SOL     ow 7865   6.452   4.134   7.333  0.4410  0.0006  0.3130
 1967SOL     hw 7866   6.414   4.113   7.419 -1.6918  0.8760 -0.3433
 1967SOL     hw 7867   6.487   4.222   7.343 -1.0361  0.6618 -0.0284
 1967SOL     vw 7868   6.451   4.143   7.346 -0.0353  0.2029  0.1814
 1968SOL     ow 7869   1.331   2.899   5.811 -0.0281 -0.2232  0.0858
 1968SOL     hw 7870   1.417   2.908   5.770 -1.5634 -1.7730 -3.8794
 1968SOL     hw 7871   1.334   2.814   5.855  0.1331 -0.8333 -1.0711
 1968SOL     vw 7872   1.343   2.889   5.812 -0.2093 -0.5081 -0.5901
 1969SOL     ow 7873   1.901   4.828   3.689 -0.7417  0.8247 -0.4780
 1969SOL     hw 7874   1.993   4.800   3.686 -1.6513 -2.5903  0.0271
 1969SOL     hw 7875   1.891   4.864   3.778 -0.1299  0.2531 -0.1626
 1969SOL     vw 7876   1.912   4.829   3.701 -0.7809  0.2987 -0.3697
 1970SOL     ow 7877   0.878   6.212   3.735 -0.1613 -0.8216 -0.4220
 1970SOL     hw 7878   0.796   6.165   3.720 -0.5323 -0.1275 -0.6215
 1970SOL     hw 7879   0.867   6.253   3.820  1.0700 -2.9339  0.8676
 1970SOL     vw 7880   0.866   6.211   3.744 -0.0478 -1.0087 -0.2782
 1971SOL     ow 7881   0.558   3.533   4.284  0.1709  0.1956  0.2799
 1971SOL     hw 7882   0.553   3.544   4.379 -0.2568  1.6892  0.1109
 1971SOL     hw 7883   0.469   3.553   4.253 -0.2638 -2.3488 -0.2760
 1971SOL     vw 7884   0.545   3.537   4.292  0.0571  0.0569  0.1843
 1972SOL     ow 7885   1.759   0.882   3.653  0.9460 -0.0082  0.1232
 1972SOL     hw 7886   1.721   0.795   3.665 -0.4066  0.4937 -0.4621
 1972SOL     hw 7887   1.825   0.888   3.723  0.4257 -1.1464  0.7424
 1972SOL     vw 7888   1.763   0.871   3.664  0.6989 -0.0922  0.1277
 1973SOL     ow 7889   6.269   3.896   0.887  0.9176  0.1484  0.2263
 1973SOL     hw 7890   6.266   3.893   0.983 -0.4488 -1.6389  0.1917
 1973SOL     hw 7891   6.359   3.921   0.866  1.2728  0.4517  1.9674
 1973SOL     vw 7892   6.280   3.899   0.897  0.7842 -0.0473  0.4514
 1974SOL     ow 7893   7.281   3.861   2.175  0.2754 -0.2882  0.1586
 1974SOL     hw 7894   7.313   3.881   2.087  0.2059 -2.6038 -0.4448
 1974SOL     hw 7895   7.353   3.815   2.217 -1.1370 -3.1910 -0.3064
 1974SOL     vw 7896   7.294   3.858   2.169  0.0796 -0.9769  0.0178
 1975SOL     ow 7897   3.514   1.990   4.880 -0.0060 -0.4118  0.1734
 1975SOL     hw 7898   3.537   2.066   4.933 -0.7413 -0.7232  0.9642
 1975SOL     hw 7899   3.533   1.915   4.936 -1.4145 -0.7276  0.2609
 1975SOL     vw 7900   3.520   1.990   4.894 -0.2888 -0.4945  0.2894
 1976SOL     ow 7901   2.450   0.169   3.961  0.0860 -0.1639  0.5554
 1976SOL     hw 7902   2.490   0.249   3.925  1.3648 -0.2972  1.5966
 1976SOL     hw 7903   2.361   0.195   3.984 -0.0995  0.4600 -0.7830
 1976SOL     vw 7904   2.444   0.183   3.960  0.2303 -0.0992  0.5163
 1977SOL     ow 7905   3.648   1.192   5.140  0.2293 -0.3069 -0.0947
 1977SOL     hw 7906   3.601   1.181   5.058  0.2339  2.1945 -0.5094
 1977SOL     hw 7907   3.587   1.239   5.197  1.2405  0.5839  0.2994
 1977SOL     vw 7908   3.634   1.197   5.137  0.3633  0.1407 -0.0975
 1978SOL     ow 7909   5.724   2.061   1.636 -0.2703 -0.0048  0.2209
 1978SOL     hw 7910   5.764   2.141   1.600 -1.3604  0.9390  1.0431
 1978SOL     hw 7911   5.796   1.998   1.638  0.6432  0.9725 -0.3766
 1978SOL     vw 7912   5.739   2.064   1.632 -0.2937  0.2487  0.2506
 1979SOL     ow 7913   3.099   5.096   5.165 -0.1749  0.3919 -0.2050
 1979SOL     hw 7914   3.064   5.161   5.225 -0.9702  0.2615 -0.5202
 1979SOL     hw 7915   3.194   5.096   5.182 -0.3795  0.3592  1.0228
 1979SOL     vw 7916   3.107   5.105   5.175 -0.3068  0.3705 -0.0846
 1980SOL     ow 7917   6.668   0.884   7.463  0.1118  0.2966  0.5611
 1980SOL     hw 7918   6.684   0.951   7.396 -0.3276  0.0698  0.2238
 1980SOL     hw 7919   6.744   0.889   7.521 -0.5321  2.0163  1.3343
 1980SOL     vw 7920   6.680   0.893   7.462 -0.0312  0.4936  0.6187
 1981SOL     ow 7921   7.261   1.940   7.271 -0.6660  0.3484 -0.6901
 1981SOL     hw 7922   7.206   2.013   7.241 -0.1012  1.7141  1.4319
 1981SOL     hw 7923   7.350   1.965   7.247 -0.6196 -0.4101 -1.3537
 1981SOL     vw 7924   7.265   1.953   7.264 -0.5853  0.4285 -0.4976
 1982SOL     ow 7925   5.175   3.959   2.559  0.0997  0.2725  0.1165
 1982SOL     hw 7926   5.164   3.894   2.629  1.1980  0.8087  0.8102
 1982SOL     hw 7927   5.194   3.908   2.481 -0.6478 -0.3118  0.3062
 1982SOL     vw 7928   5.176   3.944   2.558  0.1459  0.2662  0.2331
 1983SOL     ow 7929   1.868   3.076   7.189 -0.0223 -0.5212 -0.2618
 1983SOL     hw 7930   1.801   3.071   7.121 -0.8231 -0.8885  0.5402
 1983SOL     hw 7931   1.827   3.039   7.267  0.9344 -0.2573  0.3916
 1983SOL     vw 7932   1.854   3.070   7.190 -0.0018 -0.5349 -0.0699
 1984SOL     ow 7933   5.749   3.218   1.358  0.4902  0.4664 -0.0234
 1984SOL     hw 7934   5.789   3.279   1.295  0.5692 -0.2631 -0.6913
 1984SOL     hw 7935   5.686   3.272   1.406  0.8976  1.1874 -0.2805
 1984SOL     vw 7936   5.746   3.233   1.356  0.5543  0.4652 -0.1454
 1985SOL     ow 7937   2.658   5.288   1.100  0.0871  0.2258  0.2503
 1985SOL     hw 7938   2.566   5.301   1.124  0.5766  1.9218  1.4304
 1985SOL     hw 7939   2.664   5.317   1.010 -0.5791 -0.1450  0.0796
 1985SOL     vw 7940   2.647   5.293   1.092  0.0639  0.4008  0.3836
 1986SOL     ow 7941   5.784   6.217   6.991 -0.2310 -0.4137  0.5541
 1986SOL     hw 7942   5.761   6.310   6.995 -0.7698 -0.5195  0.0638
 1986SOL     hw 7943   5.879   6.216   6.979 -0.4145  0.1237 -1.2837
 1986SOL     vw 7944   5.793   6.230   6.990 -0.3262 -0.3567  0.2468
 1987SOL     ow 7945   0.664   5.109   4.473 -0.7425 -0.2157 -0.2440
 1987SOL     hw 7946   0.720   5.110   4.551 -0.4026  2.3345 -0.4591
 1987SOL     hw 7947   0.575   5.111   4.507 -0.6119  0.1566  0.0791
 1987SOL     vw 7948   0.660   5.109   4.488 -0.6804  0.1700 -0.2296
 1988SOL     ow 7949   4.830   6.940   0.080  0.9703  0.2545 -0.2047
 1988SOL     hw 7950   4.922   6.922   0.062  0.8865 -1.1892  0.6045
 1988SOL     hw 7951   4.788   6.854   0.079 -0.3882  0.8906 -0.6057
 1988SOL     vw 7952   4.836   6.926   0.078  0.7801  0.1481 -0.1509
 1989SOL     ow 7953   4.965   0.832   6.811 -0.2212  0.2135  0.1310
 1989SOL     hw 7954   4.921   0.846   6.727 -0.5034 -0.9027  0.0838
 1989SOL     hw 7955   5.056   0.855   6.794 -0.3791  0.5101 -0.3370
 1989SOL     vw 7956   4.971   0.837   6.797 -0.2792  0.1053  0.0629
 1990SOL     ow 7957   2.221   5.136   7.417  0.2954 -0.0310 -0.3859
 1990SOL     hw 7958   2.216   5.232   7.421  1.6243  0.0543 -0.0820
 1990SOL     hw 7959   2.131   5.107   7.401 -0.2082  1.2411  0.0271
 1990SOL     vw 7960   2.209   5.145   7.416  0.4042  0.1483 -0.2913
 1991SOL     ow 7961   2.418   4.800   7.030  0.5690 -0.4809  0.8240
 1991SOL     hw 7962   2.514   4.795   7.024  0.6420  0.8217  0.5246
 1991SOL     hw 7963   2.397   4.887   6.997 -0.8409 -1.2112 -0.2837
 1991SOL     vw 7964   2.428   4.811   7.025  0.3927 -0.4055  0.6385
 1992SOL     ow 7965   4.406   6.397   0.603 -0.2020  0.0275  0.3361
 1992SOL     hw 7966   4.399   6.439   0.517 -0.9012 -1.0932 -0.1756
 1992SOL     hw 7967   4.499   6.405   0.626  0.5820 -1.9288 -1.7311
 1992SOL     vw 7968   4.417   6.404   0.594 -0.1907 -0.3781 -0.0041
 1993SOL     ow 7969   7.089   6.523   6.985 -0.3509 -0.2643 -0.1065
 1993SOL     hw 7970   7.134   6.548   7.065 -1.9190  0.3710  0.6347
 1993SOL     hw 7971   7.134   6.445   6.955 -0.0968 -0.8837  1.7432
 1993SOL     vw 7972   7.101   6.516   6.992 -0.5243 -0.2620  0.2353
 1994SOL     ow 7973   4.028   2.362   5.156 -0.2562  0.4930 -0.3571
 1994SOL     hw 7974   4.053   2.270   5.160 -0.3670  0.4926  0.6965
 1994SOL     hw 7975   3.967   2.367   5.083  0.1638 -0.1642 -0.7634
 1994SOL     vw 7976   4.023   2.350   5.147 -0.2153  0.4060 -0.2718
 1995SOL     ow 7977   2.540   4.223   3.058 -0.8774 -0.0219  0.2530
 1995SOL     hw 7978   2.453   4.186   3.073 -0.5523 -1.1325 -0.4224
 1995SOL     hw 7979   2.595   4.146   3.042 -0.0000  0.7259 -0.4014
 1995SOL     vw 7980   2.536   4.208   3.058 -0.7188 -0.0699  0.0775
 1996SOL     ow 7981   5.856   1.706   4.992 -0.2774  0.0940  0.2659
 1996SOL     hw 7982   5.830   1.615   5.004 -0.6563  0.2880  0.9577
 1996SOL     hw 7983   5.829   1.750   5.072  0.4283  0.7024  0.1800
 1996SOL     vw 7984   5.849   1.700   5.004 -0.2344  0.1999  0.3457
 1997SOL     ow 7985   1.121   5.044   3.642  0.0833 -0.5420  0.0358
 1997SOL     hw 7986   1.198   5.048   3.699  0.2469  0.2751 -0.2290
 1997SOL     hw 7987   1.096   5.136   3.629 -0.3750 -0.7520 -0.6348
 1997SOL     vw 7988   1.128   5.057   3.648  0.0445 -0.4621 -0.0875
 1998SOL     ow 7989   2.161   6.009   5.915  0.3571  0.0901 -0.1481
 1998SOL     hw 7990   2.152   6.080   5.850 -4.2605  0.8654  0.9597
 1998SOL     hw 7991   2.144   5.930   5.865  2.7499 -0.0636 -0.8520
 1998SOL     vw 7992   2.157   6.008   5.899  0.0635  0.1719 -0.0947
 1999SOL     ow 7993   0.094   7.440   3.099 -0.0038 -0.3505 -0.1509
 1999SOL     hw 7994   0.046   7.468   3.022 -0.9705 -1.9337 -0.1856
 1999SOL     hw 7995   0.185   7.433   3.070  0.3027  2.5431 -0.1229
 1999SOL     vw 7996   0.100   7.442   3.085 -0.0909 -0.1776 -0.1518
 2000SOL     ow 7997   4.775   5.741   4.212 -0.3010  0.1761  0.2138
 2000SOL     hw 7998   4.722   5.755   4.134 -0.4097 -3.0830 -0.4157
 2000SOL     hw 7999   4.757   5.818   4.267 -2.3757  1.2021 -1.7380
 2000SOL     vw 8000   4.765   5.753   4.209 -0.5891 -0.1183 -0.1266
 2001SOL     ow 8001   3.369   7.164   0.712 -0.1677 -0.5032  0.3296
 2001SOL     hw 8002   3.350   7.075   0.742 -2.4724  0.4269  1.9132
 2001SOL     hw 8003   3.385   7.213   0.792  1.6326  0.4530 -0.5563
 2001SOL     vw 8004   3.368   7.158   0.726 -0.2342 -0.2544  0.4216
 2002SOL     ow 8005   0.932   6.506   2.213 -0.7107  0.4221  0.1435
 2002SOL     hw 8006   0.898   6.422   2.183 -0.5855  0.5646 -0.4041
 2002SOL     hw 8007   0.985   6.484   2.290  0.1052 -0.1188 -0.5602
 2002SOL     vw 8008   0.935   6.492   2.219 -0.5866  0.3698 -0.0216
 2003SOL     ow 8009   4.174   2.568   1.955 -0.0539  0.1493  0.0192
 2003SOL     hw 8010   4.184   2.631   1.884 -1.9217  0.5998  0.1013
 2003SOL     hw 8011   4.081   2.544   1.953  0.5066 -2.2516  0.3031
 2003SOL     vw 8012   4.163   2.573   1.946 -0.2263 -0.1079  0.0675
 2004SOL     ow 8013   1.400   6.377   6.143  0.7877  0.4006 -0.0238
 2004SOL     hw 8014   1.455   6.436   6.194 -1.8741  2.4998  0.6262
 2004SOL     hw 8015   1.425   6.290   6.171  1.1913  1.4025  3.0360
 2004SOL     vw 8016   1.410   6.374   6.153  0.4898  0.8101  0.4656
 2005SOL     ow 8017   2.567   5.226   4.635  0.0373  0.9926 -0.5803
 2005SOL     hw 8018   2.477   5.211   4.604 -1.1829  2.7024  1.8389
 2005SOL     hw 8019   2.599   5.299   4.581  0.1704  0.1361 -1.7060
 2005SOL     vw 8020   2.559   5.234   4.624 -0.1061  1.1053 -0.4098
 2006SOL     ow 8021   7.236   3.847   6.267  0.5453  0.1282 -0.5427
 2006SOL     hw 8022   7.331   3.849   6.265  0.5345  2.0332 -1.4826
 2006SOL     hw 8023   7.210   3.822   6.179  0.1407 -1.1435 -0.0931
 2006SOL     vw 8024   7.245   3.844   6.255  0.4904  0.2117 -0.6073
 2007SOL     ow 8025   6.795   5.876   7.024 -0.0913 -0.3926  0.1654
 2007SOL     hw 8026   6.823   5.789   7.052 -0.9024 -0.2522  1.5479
 2007SOL     hw 8027   6.784   5.925   7.106 -0.6276  0.7007 -0.5259
 2007SOL     vw 8028   6.797   5.871   7.039 -0.2692 -0.2298  0.2568
 2008SOL     ow 8029   3.214   2.918   0.884 -0.5323  0.7381  0.1432
 2008SOL     hw 8030   3.132   2.893   0.925 -0.7977  1.9686  0.4114
 2008SOL     hw 8031   3.280   2.908   0.952 -0.2662 -1.2145 -0.3570
 2008SOL     vw 8032   3.212   2.914   0.898 -0.5323  0.6428  0.1126
 2009SOL     ow 8033   6.642   6.221   2.056 -0.2551 -0.0541 -0.1942
 2009SOL     hw 8034   6.587   6.298   2.041  0.4542  0.5701  0.3228
 2009SOL     hw 8035   6.580   6.150   2.070 -0.9314  0.5253 -0.1674
 2009SOL     vw 8036   6.627   6.222   2.056 -0.2511  0.1047 -0.1224
 2010SOL     ow 8037   1.950   1.164   3.335 -0.0639  0.5854 -0.5860
 2010SOL     hw 8038   2.013   1.213   3.387 -1.3350  0.5755  1.0171
 2010SOL     hw 8039   1.879   1.226   3.316 -0.7968 -0.0966 -0.1425
 2010SOL     vw 8040   1.949   1.179   3.339 -0.3282  0.4941 -0.3160
 2011SOL     ow 8041   4.107   3.280   3.155 -0.1767  0.1025  0.4184
 2011SOL     hw 8042   4.110   3.351   3.091  2.1395 -1.1581 -1.0414
 2011SOL     hw 8043   4.080   3.321   3.237 -4.9588  1.5313 -1.5381
 2011SOL     vw 8044   4.104   3.294   3.157 -0.5019  0.1247 -0.0324
 2012SOL     ow 8045   4.205   7.423   1.310  0.0067 -0.0341  0.3514
 2012SOL     hw 8046   4.147   7.348   1.313 -1.4586  1.0621  0.3860
 2012SOL     hw 8047   4.164   7.483   1.247  0.8022  1.0066  0.7843
 2012SOL     vw 8048   4.192   7.421   1.302 -0.0815  0.2477  0.4130
 2013SOL     ow 8049   2.924   2.404   1.806  0.2060 -0.4647 -0.9790
 2013SOL     hw 8050   3.018   2.420   1.809  0.0314  0.5578  1.3581
 2013SOL     hw 8051   2.885   2.490   1.825 -1.1676 -1.0725 -0.9358
 2013SOL     vw 8052   2.931   2.418   1.809  0.0018 -0.4101 -0.6649
 2014SOL     ow 8053   5.674   0.198   3.455 -0.2810  0.7457  0.1351
 2014SOL     hw 8054   5.753   0.230   3.500 -0.9769  0.1121  1.9257
 2014SOL     hw 8055   5.701   0.114   3.418  0.0814  0.8711  0.1028
 2014SOL     vw 8056   5.688   0.191   3.456 -0.3250  0.6787  0.3672
 2015SOL     ow 8057   3.260   2.315   3.410  0.3554 -0.5508 -0.2732
 2015SOL     hw 8058   3.226   2.244   3.464 -0.9416 -0.4636 -0.9370
 2015SOL     hw 8059   3.350   2.288   3.390 -0.1910 -2.1636 -0.7431
 2015SOL     vw 8060   3.267   2.302   3.414  0.1122 -0.7521 -0.4228
 2016SOL     ow 8061   5.869   5.605   2.973  0.3079 -0.3012  0.5334
 2016SOL     hw 8062   5.946   5.660   2.988 -1.2673  1.8711  1.1214
 2016SOL     hw 8063   5.896   5.518   3.002  2.5743  0.3599  0.5945
 2016SOL     vw 8064   5.883   5.601   2.979  0.3991  0.0725  0.6191
 2017SOL     ow 8065   3.185   0.313   1.797  0.0946 -0.1473 -0.3072
 2017SOL     hw 8066   3.155   0.224   1.780  1.0007 -0.7241  1.0079
 2017SOL     hw 8067   3.281   0.307   1.800  0.1260  0.6272  1.0139
 2017SOL     vw 8068   3.194   0.301   1.795  0.2183 -0.1213  0.0407
 2018SOL     ow 8069   0.333   2.776   2.124  0.1420  0.4207  0.0340
 2018SOL     hw 8070   0.415   2.802   2.166  0.0600 -0.8309  1.0428
 2018SOL     hw 8071   0.360   2.739   2.040  0.6225  0.0333  0.3513
 2018SOL     vw 8072   0.347   2.775   2.118  0.1946  0.2044  0.2089
 2019SOL     ow 8073   2.516   1.608   5.465 -0.0702 -0.0322 -0.3880
 2019SOL     hw 8074   2.547   1.549   5.397  0.1394  0.4519 -0.7165
 2019SOL     hw 8075   2.432   1.570   5.493 -1.8063  1.4282 -3.1513
 2019SOL     vw 8076   2.509   1.595   5.460 -0.2718  0.2244 -0.7961
 2020SOL     ow 8077   7.172   7.436   5.397 -0.0302 -0.3132 -0.4410
 2020SOL     hw 8078   7.231   7.503   5.361  2.3007 -1.4085  1.0762
 2020SOL     hw 8079   7.214   7.353   5.376 -1.4183 -1.1934  0.0975
 2020SOL     vw 8080   7.185   7.434   5.390  0.0942 -0.5736 -0.1700
 2021SOL     ow 8081   4.545   0.233   6.441 -0.4464 -0.4328  0.4916
 2021SOL     hw 8082   4.480   0.303   6.450 -0.4891 -0.4752  0.5118
 2021SOL     hw 8083   4.500   0.165   6.391 -0.0440  0.0168 -0.5031
 2021SOL     vw 8084   4.531   0.233   6.436 -0.3986 -0.3791  0.3629
 2022SOL     ow 8085   1.450   3.491   4.761 -0.4826  0.1083 -0.3439
 2022SOL     hw 8086   1.450   3.427   4.832  0.0094  0.7921  0.2792
 2022SOL     hw 8087   1.365   3.534   4.767  0.0743  1.0989  0.6942
 2022SOL     vw 8088   1.439   3.488   4.771 -0.3442  0.3291 -0.1247
 2023SOL     ow 8089   0.451   2.553   0.472 -0.1472 -0.2090  0.5086
 2023SOL     hw 8090   0.547   2.555   0.483  0.0085  0.9473 -0.7968
 2023SOL     hw 8091   0.421   2.488   0.536  1.5080 -0.5977  0.9410
 2023SOL     vw 8092   0.460   2.545   0.482  0.0917 -0.1078  0.3934
 2024SOL     ow 8093   6.460   4.428   4.892  0.1843  0.1056  0.5547
 2024SOL     hw 8094   6.402   4.440   4.967 -1.3171  0.8504 -0.6563
 2024SOL     hw 8095   6.448   4.337   4.867 -2.6242  0.8088 -1.2398
 2024SOL     vw 8096   6.451   4.418   4.899 -0.3843  0.2964  0.1583
 2025SOL     ow 8097   2.138   1.659   5.735  0.0679 -0.2555 -0.3256
 2025SOL     hw 8098   2.088   1.671   5.654 -0.0180  0.7631 -0.1373
 2025SOL     hw 8099   2.194   1.583   5.717 -1.4239 -1.3283 -0.5795
 2025SOL     vw 8100   2.139   1.651   5.722 -0.1403 -0.2627 -0.3343
 2026SOL     ow 8101   4.032   2.850   2.219 -0.5032 -0.0132 -0.7089
 2026SOL     hw 8102   4.008   2.823   2.130 -2.4806 -0.0541 -0.2184
 2026SOL     hw 8103   3.962   2.910   2.245  0.4180  0.5288  0.5716
 2026SOL     vw 8104   4.019   2.854   2.211 -0.6423  0.0528 -0.4752
 2027SOL     ow 8105   5.225   2.542   5.076  0.0382  0.4925  0.1775
 2027SOL     hw 8106   5.307   2.589   5.066  0.5491 -0.3397  0.3409
 2027SOL     hw 8107   5.221   2.483   5.001  1.5504 -2.3049  2.0985
 2027SOL     vw 8108   5.235   2.540   5.065  0.3052  0.0136  0.4525
 2028SOL     ow 8109   1.620   4.203   0.304 -0.3178 -0.4763 -0.6206
 2028SOL     hw 8110   1.688   4.257   0.263  0.0007  0.3069  0.8508
 2028SOL     hw 8111   1.538   4.243   0.276 -0.0936  0.4309 -0.0346
 2028SOL     vw 8112   1.618   4.216   0.295 -0.2462 -0.2534 -0.3492
 2029SOL     ow 8113   0.281   2.830   4.710  0.1885  0.3345  0.1646
 2029SOL     hw 8114   0.325   2.867   4.787  0.6078  1.5940 -0.6387
 2029SOL     hw 8115   0.311   2.739   4.707  0.3869  0.3472  1.3255
 2029SOL     vw 8116   0.291   2.823   4.720  0.2700  0.5023  0.2115
 2030SOL     ow 8117   0.931   5.435   5.961 -0.3947  0.2001  0.7240
 2030SOL     hw 8118   1.007   5.413   5.908 -1.7111 -1.5241 -0.5338
 2030SOL     hw 8119   0.958   5.514   6.009  2.1054 -0.2705  0.2335
 2030SOL     vw 8120   0.944   5.443   5.960 -0.2385 -0.0894  0.4935
 2031SOL     ow 8121   6.495   6.629   1.950 -0.5534 -0.0118 -0.3327
 2031SOL     hw 8122   6.587   6.604   1.941 -0.5071  0.0266  0.0141
 2031SOL     hw 8123   6.497   6.713   1.996 -0.8546 -1.6730  3.0091
 2031SOL     vw 8124   6.507   6.636   1.955 -0.5867 -0.2260  0.1540
 2032SOL     ow 8125   4.797   2.047   2.108 -0.3005 -0.0166  0.2508
 2032SOL     hw 8126   4.852   2.114   2.149 -0.0048  0.1702 -0.4363
 2032SOL     hw 8127   4.799   1.974   2.170  0.7644 -0.0313  0.2192
 2032SOL     vw 8128   4.804   2.046   2.122 -0.1214  0.0061  0.1560
 2033SOL     ow 8129   6.289   3.636   2.104  0.5301  0.6997 -0.3499
 2033SOL     hw 8130   6.301   3.600   2.192 -2.1121  1.7957  0.5349
 2033SOL     hw 8131   6.366   3.692   2.090  1.0847  0.3528  1.1511
 2033SOL     vw 8132   6.301   3.638   2.114  0.2549  0.7986 -0.0352
 2034SOL     ow 8133   4.522   5.237   7.063  0.5624 -0.2406  0.5179
 2034SOL     hw 8134   4.594   5.246   7.126 -0.4179 -1.8057  1.9490
 2034SOL     hw 8135   4.561   5.191   6.989  1.0685 -1.0123  1.2456
 2034SOL     vw 8136   4.537   5.232   7.061  0.4997 -0.5488  0.8028
 2035SOL     ow 8137   5.356   6.556   0.438  0.0892 -0.2960  0.7705
 2035SOL     hw 8138   5.313   6.471   0.434  1.0650 -0.8442  1.6495
 2035SOL     hw 8139   5.372   6.579   0.346 -2.1785  0.0155  0.3865
 2035SOL     vw 8140   5.352   6.548   0.425 -0.0813 -0.3271  0.8358
 2036SOL     ow 8141   7.328   1.109   6.742 -0.1502 -0.0096 -0.3837
 2036SOL     hw 8142   7.422   1.116   6.725 -0.1678  0.5425 -0.2740
 2036SOL     hw 8143   7.306   1.019   6.720  0.3915 -0.1177 -0.4864
 2036SOL     vw 8144   7.337   1.098   6.737 -0.0811  0.0490 -0.3827
 2037SOL     ow 8145   4.273   0.887   1.874  0.0531 -1.0336 -0.7561
 2037SOL     hw 8146   4.334   0.946   1.831 -0.3412 -0.0729 -0.0331
 2037SOL     hw 8147   4.327   0.830   1.928  0.2618  0.6247  0.8585
 2037SOL     vw 8148   4.288   0.887   1.875  0.0286 -0.6880 -0.4477
 2038SOL     ow 8149   6.009   3.721   0.172  0.1226  0.1529 -0.1651
 2038SOL     hw 8150   6.044   3.636   0.198  0.3740 -0.0233 -1.0460
 2038SOL     hw 8151   5.934   3.735   0.230 -0.6376 -1.2210 -0.7660
 2038SOL     vw 8152   6.003   3.712   0.183  0.0556 -0.0515 -0.3606
 2039SOL     ow 8153   6.220   3.932   4.352  0.0339 -0.2135 -0.2502
 2039SOL     hw 8154   6.251   3.920   4.262  1.8921 -2.1162  0.5448
 2039SOL     hw 8155   6.199   4.025   4.358 -2.1115 -0.3873 -3.1771
 2039SOL     vw 8156   6.221   3.942   4.341 -0.0041 -0.4873 -0.5317
 2040SOL     ow 8157   1.068   4.838   4.929  0.0908 -0.4308 -0.0956
 2040SOL     hw 8158   1.120   4.760   4.910 -0.5823 -0.7789 -0.5409
 2040SOL     hw 8159   1.043   4.829   5.020  0.5897 -0.3838  0.0526
 2040SOL     vw 8160   1.072   4.827   4.938  0.0679 -0.4706 -0.1347
 2041SOL     ow 8161   0.521   3.641   6.276  0.2680 -0.4460 -0.3048
 2041SOL     hw 8162   0.608   3.631   6.315  0.3956 -1.7538 -0.8480
 2041SOL     hw 8163   0.468   3.681   6.344  1.0137 -0.7106  0.4517
 2041SOL     vw 8164   0.525   3.645   6.290  0.3832 -0.6534 -0.2766
 2042SOL     ow 8165   6.103   3.631   3.027  0.0592 -0.1971 -0.1741
 2042SOL     hw 8166   6.163   3.706   3.022 -0.1011 -0.1089 -0.8799
 2042SOL     hw 8167   6.032   3.661   3.083 -0.4589  0.5154 -1.1743
 2042SOL     vw 8168   6.102   3.645   3.033 -0.0305 -0.0914 -0.3992
 2043SOL     ow 8169   2.457   2.644   6.005 -0.0179  0.4118  0.8461
 2043SOL     hw 8170   2.422   2.716   6.057  0.3261  1.5705 -0.4734
 2043SOL     hw 8171   2.534   2.680   5.962 -1.1788  0.0199 -1.7231
 2043SOL     vw 8172   2.462   2.658   6.007 -0.1256  0.5131  0.3331
 2044SOL     ow 8173   5.952   3.319   4.432  0.3993 -0.5909 -0.4290
 2044SOL     hw 8174   6.027   3.306   4.374 -0.3071 -0.2507 -1.4615
 2044SOL     hw 8175   5.880   3.272   4.389 -0.0154 -0.7921  0.4655
 2044SOL     vw 8176   5.953   3.311   4.419  0.2515 -0.5727 -0.4475
 2045SOL     ow 8177   5.713   3.684   5.593  0.0390 -0.9049 -0.7807
 2045SOL     hw 8178   5.735   3.634   5.672 -0.3051  0.6357  0.3494
 2045SOL     hw 8179   5.631   3.645   5.562 -1.4686  0.2977  1.3914
 2045SOL     vw 8180   5.705   3.672   5.599 -0.2053 -0.5430 -0.3450
 2046SOL     ow 8181   3.161   0.916   2.236 -0.7664 -0.0683 -0.2007
 2046SOL     hw 8182   3.158   0.860   2.314  0.3289  0.1557  0.0142
 2046SOL     hw 8183   3.116   0.865   2.168 -0.9358 -0.6469  0.3385
 2046SOL     vw 8184   3.155   0.902   2.237 -0.6442 -0.1150 -0.1013
 2047SOL     ow 8185   2.465   2.280   5.765 -0.1249 -0.5931 -0.9752
 2047SOL     hw 8186   2.467   2.232   5.849 -1.7184  0.1302 -0.4893
 2047SOL     hw 8187   2.393   2.240   5.717  0.5270 -0.7307 -1.8604
 2047SOL     vw 8188   2.456   2.268   5.770 -0.2491 -0.5158 -1.0278
 2048SOL     ow 8189   4.665   7.389   1.650  0.0484 -0.2935  0.2905
 2048SOL     hw 8190   4.657   7.308   1.700  1.3977 -1.4000 -1.1722
 2048SOL     hw 8191   4.579   7.402   1.611 -0.2274 -0.9430  0.6651
 2048SOL     vw 8192   4.653   7.380   1.652  0.1903 -0.5252  0.1469
 2049SOL     ow 8193   1.401   6.861   5.437 -0.8510 -0.0847 -0.1417
 2049SOL     hw 8194   1.451   6.784   5.464  1.5428  1.6928  0.9596
 2049SOL     hw 8195   1.320   6.857   5.487 -0.9252 -2.0052 -0.3603
 2049SOL     vw 8196   1.397   6.850   5.447 -0.5449 -0.1037 -0.0253
 2050SOL     ow 8197   0.970   0.136   1.322  0.4225  0.0013 -0.1656
 2050SOL     hw 8198   1.060   0.114   1.298  0.6233  0.5447  0.0633
 2050SOL     hw 8199   0.926   0.154   1.239  0.5324 -0.2372 -0.2758
 2050SOL     vw 8200   0.976   0.135   1.308  0.4635  0.0415 -0.1500
 2051SOL     ow 8201   5.524   0.485   3.461 -0.8486  0.3521 -0.1054
 2051SOL     hw 8202   5.561   0.515   3.544 -0.0900 -0.7309 -0.0301
 2051SOL     hw 8203   5.592   0.504   3.396  0.1194 -2.0984  0.1086
 2051SOL     vw 8204   5.538   0.492   3.463 -0.6206 -0.1141 -0.0674
 2052SOL     ow 8205   5.658   2.269   5.930 -0.2321 -0.4146 -0.3738
 2052SOL     hw 8206   5.572   2.227   5.937 -0.8281  0.8928  0.4289
 2052SOL     hw 8207   5.699   2.254   6.015  0.0578 -0.4174 -0.5116
 2052SOL     vw 8208   5.652   2.261   5.942 -0.2725 -0.2426 -0.2861
 2053SOL     ow 8209   2.754   6.557   1.715 -1.1708  0.0649  0.1720
 2053SOL     hw 8210   2.770   6.651   1.718  1.2212 -0.2698  0.1401
 2053SOL     hw 8211   2.816   6.524   1.650 -0.9852 -1.6837  1.1635
 2053SOL     vw 8212   2.764   6.565   1.707 -0.8305 -0.2098  0.2986
 2054SOL     ow 8213   6.174   6.221   3.993  0.3551 -0.4179 -0.0151
 2054SOL     hw 8214   6.159   6.242   4.085 -0.5961  1.2969 -0.5169
 2054SOL     hw 8215   6.100   6.166   3.968  1.9283 -3.1133  0.8368
 2054SOL     vw 8216   6.162   6.216   4.001  0.4373 -0.5472  0.0312
 2055SOL     ow 8217   0.346   5.335   1.936 -0.3230 -0.2685  0.2906
 2055SOL     hw 8218   0.298   5.259   1.903 -3.4664  1.1453  1.2323
 2055SOL     hw 8219   0.349   5.396   1.862 -0.7756 -0.0110  0.4822
 2055SOL     vw 8220   0.340   5.333   1.922 -0.7974 -0.0479  0.4401
 2056SOL     ow 8221   1.959   2.786   5.634 -0.1272  0.0466 -0.2970
 2056SOL     hw 8222   1.868   2.807   5.615 -0.5142 -0.5606  0.8046
 2056SOL     hw 8223   1.985   2.851   5.700 -0.1726 -0.5813  0.3481
 2056SOL     vw 8224   1.951   2.798   5.640 -0.1844 -0.1163 -0.0668
 2057SOL     ow 8225   4.636   1.888   7.196 -0.3263 -0.3871 -0.7441
 2057SOL     hw 8226   4.586   1.903   7.116  0.0071 -0.8308 -1.0464
 2057SOL     hw 8227   4.630   1.970   7.245 -2.5335 -0.8717 -0.1019
 2057SOL     vw 8228   4.629   1.900   7.192 -0.5734 -0.5096 -0.6993
 2058SOL     ow 8229   7.416   0.860   6.998 -0.2528 -0.2964 -0.0261
 2058SOL     hw 8230   7.349   0.927   6.985  0.5347  0.3311 -1.0707
 2058SOL     hw 8231   7.460   0.885   7.079 -1.5685 -0.9997  0.9454
 2058SOL     vw 8232   7.413   0.872   7.007 -0.3226 -0.3064 -0.0355
 2059SOL     ow 8233   3.415   0.003   4.908 -0.2491 -0.5037 -0.4285
 2059SOL     hw 8234   3.454  -0.084   4.914  1.1146  0.1562  0.6841
 2059SOL     hw 8235   3.432   0.031   4.819 -1.3110 -1.6372 -1.0131
 2059SOL     vw 8236   3.422  -0.005   4.897 -0.2092 -0.5662 -0.3588
 2060SOL     ow 8237   2.893   4.173   5.518 -0.3264  0.7646  0.2917
 2060SOL     hw 8238   2.922   4.233   5.587  0.8609  0.0697  0.4195
 2060SOL     hw 8239   2.970   4.120   5.499 -1.9090 -2.2817  1.7445
 2060SOL     vw 8240   2.907   4.174   5.524 -0.3786  0.2708  0.5004
 2061SOL     ow 8241   3.447   0.834   5.967 -0.3386 -0.3808  0.3021
 2061SOL     hw 8242   3.411   0.747   5.985 -2.3686  0.6418  1.6586
 2061SOL     hw 8243   3.381   0.894   6.003  1.4557  1.7024  0.2759
 2061SOL     vw 8244   3.433   0.830   5.974 -0.3697  0.0290  0.4778
 2062SOL     ow 8245   7.004   7.018   1.705 -0.3680  0.5933  0.1673
 2062SOL     hw 8246   7.054   6.937   1.705 -0.0257  0.8047 -0.1219
 2062SOL     hw 8247   6.940   7.006   1.775  1.6640  1.3017  2.2774
 2062SOL     vw 8248   7.002   7.005   1.714 -0.0546  0.7148  0.4075
 2063SOL     ow 8249   3.037   6.183   6.311 -0.5263  0.8235 -0.1138
 2063SOL     hw 8250   3.003   6.228   6.234  0.7664  1.8532 -0.1082
 2063SOL     hw 8251   3.112   6.133   6.278  0.3344  1.6519  0.5305
 2063SOL     vw 8252   3.042   6.182   6.296 -0.2421  1.0691 -0.0279
 2064SOL     ow 8253   3.480   5.458   3.134  0.0532  0.5637 -0.1476
 2064SOL     hw 8254   3.400   5.406   3.131  0.4560 -0.0904  0.1256
 2064SOL     hw 8255   3.550   5.396   3.115  0.4126  1.3772 -1.6539
 2064SOL     vw 8256   3.479   5.443   3.131  0.1538  0.5848 -0.3102
 2065SOL     ow 8257   5.451   3.339   2.124 -0.5592  0.0567 -0.3495
 2065SOL     hw 8258   5.439   3.399   2.050  1.1476 -0.9124 -1.4906
 2065SOL     hw 8259   5.363   3.311   2.146 -1.2294  1.4073 -1.1218
 2065SOL     vw 8260   5.438   3.343   2.117 -0.4222  0.1072 -0.6020
 2066SOL     ow 8261   4.798   2.113   6.768 -0.3775  0.2192 -0.0316
 2066SOL     hw 8262   4.724   2.173   6.772 -2.0116 -1.6781 -0.0352
 2066SOL     hw 8263   4.833   2.123   6.680  0.1586  1.9741  0.3471
 2066SOL     vw 8264   4.793   2.122   6.757 -0.5224  0.2004  0.0179
 2067SOL     ow 8265   0.373   2.398   0.672  0.4701 -0.6196  0.3849
 2067SOL     hw 8266   0.444   2.343   0.704 -0.6766 -1.2471  1.9655
 2067SOL     hw 8267   0.366   2.468   0.738 -0.0657 -0.2917 -0.0130
 2067SOL     vw 8268   0.382   2.400   0.685  0.2481 -0.6590  0.5409
 2068SOL     ow 8269   0.304   3.579   6.107  0.7870 -0.1797 -0.5214
 2068SOL     hw 8270   0.275   3.549   6.193  0.4425 -0.1713 -0.6322
 2068SOL     hw 8271   0.229   3.562   6.050  0.6408  0.7488 -0.6138
 2068SOL     vw 8272   0.290   3.573   6.111  0.7223 -0.0561 -0.5481
 2069SOL     ow 8273   5.680   5.664   4.702  0.3750 -0.5573 -0.6099
 2069SOL     hw 8274   5.729   5.673   4.784  1.9758  0.2247 -1.6095
 2069SOL     hw 8275   5.747   5.654   4.635 -0.8574  0.2080 -1.9991
 2069SOL     vw 8276   5.695   5.664   4.704  0.4237 -0.3533 -0.9253
 2070SOL     ow 8277   1.301   0.837   0.441  0.4284 -0.3247 -0.2338
 2070SOL     hw 8278   1.262   0.851   0.354 -2.6711  1.7466  1.3136
 2070SOL     hw 8279   1.285   0.745   0.460  2.0806 -1.0847 -2.1931
 2070SOL     vw 8280   1.293   0.827   0.432  0.2374 -0.1517 -0.2881
 2071SOL     ow 8281   0.727   3.061   2.927  0.2032 -0.1892  1.2563
 2071SOL     hw 8282   0.769   3.112   2.997 -0.7657 -0.5081  2.1064
 2071SOL     hw 8283   0.688   2.986   2.973 -2.3290  0.6983  0.7406
 2071SOL     vw 8284   0.727   3.058   2.943 -0.2587 -0.1142  1.3005
 2072SOL     ow 8285   4.515   6.596   7.412 -0.3030  0.3402 -0.2617
 2072SOL     hw 8286   4.455   6.649   7.359 -0.1724  0.4546 -0.2979
 2072SOL     hw 8287   4.554   6.535   7.350  0.2576  0.8346 -0.4100
 2072SOL     vw 8288   4.512   6.595   7.397 -0.2120  0.4203 -0.2861
 2073SOL     ow 8289   3.772   4.889   3.301 -0.3123  0.1016  0.0928
 2073SOL     hw 8290   3.785   4.915   3.210  2.4020 -2.9138 -0.5546
 2073SOL     hw 8291   3.717   4.958   3.338 -0.0136  2.3935 -3.3040
 2073SOL     vw 8292   3.766   4.901   3.294  0.0852  0.0064 -0.4408
 2074SOL     ow 8293   3.848   1.294   2.134  0.7978  0.3784  0.3977
 2074SOL     hw 8294   3.837   1.382   2.171  0.6314 -0.1799  1.7281
 2074SOL     hw 8295   3.914   1.253   2.189 -0.3255 -0.8989  0.8349
 2074SOL     vw 8296   3.855   1.300   2.146  0.6276  0.1363  0.6310
 2075SOL     ow 8297   4.513   3.500   5.453 -0.2598  0.5186 -0.2681
 2075SOL     hw 8298   4.479   3.533   5.369  1.0416 -0.0011 -1.0306
 2075SOL     hw 8299   4.459   3.423   5.471 -1.7438  1.6513  0.3205
 2075SOL     vw 8300   4.501   3.494   5.444 -0.2840  0.5995 -0.2909
 2076SOL     ow 8301   5.892   0.330   3.558 -0.1015 -0.5253 -0.0579
 2076SOL     hw 8302   5.897   0.371   3.472 -0.8986 -1.1808 -0.4323
 2076SOL     hw 8303   5.960   0.264   3.558  1.0410  0.6127  0.4652
 2076SOL     vw 8304   5.901   0.327   3.547 -0.0560 -0.4616 -0.0383
 2077SOL     ow 8305   4.575   1.415   0.206 -0.6841  0.2889  0.1885
 2077SOL     hw 8306   4.521   1.426   0.284  0.4969 -0.5560  1.1711
 2077SOL     hw 8307   4.572   1.500   0.162 -2.7275  0.2815  0.2156
 2077SOL     vw 8308   4.568   1.428   0.210 -0.7977  0.1764  0.3217
 2078SOL     ow 8309   4.064   1.675   2.166 -0.1081  0.2406  0.0742
 2078SOL     hw 8310   4.087   1.687   2.074 -0.3128  0.2736  0.0273
 2078SOL     hw 8311   3.977   1.635   2.165 -0.5561  1.1885  0.2573
 2078SOL     vw 8312   4.056   1.671   2.154 -0.1941  0.3700  0.0923
 2079SOL     ow 8313   3.471   4.643   1.530 -0.0160 -0.0722 -0.5830
 2079SOL     hw 8314   3.538   4.706   1.501  0.3118 -0.1103  0.0610
 2079SOL     hw 8315   3.422   4.622   1.451 -0.6605  1.6311 -0.6801
 2079SOL     vw 8316   3.473   4.649   1.516 -0.0577  0.1478 -0.5109
 2080SOL     ow 8317   5.114   0.976   7.320 -0.3132  0.2010 -0.1542
 2080SOL     hw 8318   5.121   1.050   7.259  1.6664 -0.1868 -0.4541
 2080SOL     hw 8319   5.143   0.900   7.269 -1.4549 -0.6544  0.4237
 2080SOL     vw 8320   5.118   0.976   7.305 -0.2027  0.0370 -0.1175
 2081SOL     ow 8321   7.329   2.176   0.636  0.2993  0.1800  0.0524
 2081SOL     hw 8322   7.328   2.131   0.552 -1.2828 -1.4997  0.8863
 2081SOL     hw 8323   7.236   2.191   0.656  0.5859 -0.0838  1.7848
 2081SOL     vw 8324   7.316   2.172   0.628  0.1283 -0.0764  0.3910
 2082SOL     ow 8325   1.453   6.549   4.922 -0.2573  0.4565 -0.8059
 2082SOL     hw 8326   1.459   6.608   4.998  0.1786  0.8395 -1.1362
 2082SOL     hw 8327   1.403   6.473   4.955  1.1955 -0.0674  0.2937
 2082SOL     vw 8328   1.447   6.547   4.937 -0.0081  0.4380 -0.7043
 2083SOL     ow 8329   1.818   5.813   2.508 -0.0938 -0.2485 -0.5620
 2083SOL     hw 8330   1.848   5.856   2.587  0.0666  0.4923 -1.0174
 2083SOL     hw 8331   1.763   5.741   2.539 -0.8176  0.6215  0.2000
 2083SOL     vw 8332   1.815   5.809   2.522 -0.1681 -0.0358 -0.5217
 2084SOL     ow 8333   1.700   4.819   4.413  0.6839 -0.6483  0.0876
 2084SOL     hw 8334   1.743   4.863   4.339 -0.1534 -1.0002 -0.6331
 2084SOL     hw 8335   1.714   4.726   4.396 -1.3764 -0.8489 -0.8610
 2084SOL     vw 8336   1.707   4.813   4.401  0.3015 -0.7212 -0.1326
 2085SOL     ow 8337   3.088   5.589   1.543 -0.0331  0.1518 -0.1320
 2085SOL     hw 8338   3.177   5.585   1.576 -0.2968  0.0016  0.5765
 2085SOL     hw 8339   3.079   5.510   1.489 -0.6004 -1.3579  2.0444
 2085SOL     vw 8340   3.098   5.578   1.540 -0.1426 -0.0672  0.2487
 2086SOL     ow 8341   2.978   5.993   1.321  0.0001  0.6703 -0.7642
 2086SOL     hw 8342   3.011   6.056   1.257 -0.6021  0.9853 -0.7718
 2086SOL     hw 8343   2.970   5.911   1.273  0.4081  0.6794 -0.8552
 2086SOL     vw 8344   2.982   5.990   1.306 -0.0254  0.7131 -0.7771
 2087SOL     ow 8345   2.484   0.329   0.786  0.0537  0.4258  1.2372
 2087SOL     hw 8346   2.487   0.259   0.721  1.1650 -0.1168  1.8538
 2087SOL     hw 8347   2.394   0.328   0.819 -0.4334  0.4896 -0.0270
 2087SOL     vw 8348   2.473   0.320   0.782  0.1360  0.3626  1.1517
 2088SOL     ow 8349   6.532   5.740   6.327  0.4104 -0.1271  0.3253
 2088SOL     hw 8350   6.458   5.733   6.387  0.3180  0.3928  0.2744
 2088SOL     hw 8351   6.512   5.679   6.256  1.0674 -1.6427  1.3745
 2088SOL     vw 8352   6.520   5.731   6.326  0.4847 -0.2584  0.4570
 2089SOL     ow 8353   2.354   1.788   3.058  0.1478  0.4471  0.2178
 2089SOL     hw 8354   2.411   1.770   2.984 -0.5179  0.6074 -0.3363
 2089SOL     hw 8355   2.406   1.764   3.135  1.4651  1.8185 -0.2011
 2089SOL     vw 8356   2.368   1.783   3.059  0.2338  0.6492  0.0894
 2090SOL     ow 8357   2.560   5.303   2.381  0.0970 -0.0216  0.8034
 2090SOL     hw 8358   2.483   5.353   2.408  1.1595  0.4064  3.3011
 2090SOL     hw 8359   2.559   5.224   2.435  0.4544 -0.9182 -0.4427
 2090SOL     vw 8360   2.550   5.299   2.392  0.2844 -0.0834  0.9687
 2091SOL     ow 8361   5.594   7.351   7.278 -0.1280 -0.1933 -0.0764
 2091SOL     hw 8362   5.577   7.436   7.237 -4.3349 -0.8308 -0.1116
 2091SOL     hw 8363   5.517   7.299   7.258  1.4811 -3.4832  1.4684
 2091SOL     vw 8364   5.582   7.356   7.270 -0.4706 -0.7114  0.1230
 2092SOL     ow 8365   7.405   6.140   6.239  0.5493  0.3668 -0.2471
 2092SOL     hw 8366   7.396   6.145   6.143 -0.0644  0.2900 -0.1971
 2092SOL     hw 8367   7.351   6.212   6.272 -0.7176 -0.7006  0.1034
 2092SOL     vw 8368   7.397   6.150   6.230  0.3011  0.2158 -0.1943
 2093SOL     ow 8369   4.548   2.354   0.897 -0.2303  0.0014  0.2469
 2093SOL     hw 8370   4.531   2.438   0.939  0.2342 -0.5021  1.4905
 2093SOL     hw 8371   4.584   2.377   0.812 -1.1961  1.0514  0.0885
 2093SOL     vw 8372   4.550   2.368   0.891 -0.2964  0.0733  0.3901
 2094SOL     ow 8373   3.048   4.118   5.823  0.3117  0.3332  0.0418
 2094SOL     hw 8374   3.101   4.141   5.900  1.9038 -1.6822 -0.3534
 2094SOL     hw 8375   3.091   4.040   5.787 -2.6890 -1.1883 -0.5979
 2094SOL     vw 8376   3.061   4.111   5.829  0.1259 -0.1333 -0.0947
 2095SOL     ow 8377   5.343   0.643   4.862  0.6294  0.3695 -0.0076
 2095SOL     hw 8378   5.268   0.694   4.893 -0.6559 -0.9753 -0.7656
 2095SOL     hw 8379   5.321   0.553   4.884  1.2169 -0.2414 -1.7850
 2095SOL     vw 8380   5.330   0.638   4.869  0.5372  0.1115 -0.3419
 2096SOL     ow 8381   1.162   5.009   6.732 -0.4966 -0.0994 -0.2836
 2096SOL     hw 8382   1.129   4.978   6.816  1.6646  1.3827  1.2325
 2096SOL     hw 8383   1.099   5.075   6.703 -1.0527 -0.3389  0.3775
 2096SOL     vw 8384   1.150   5.014   6.739 -0.2849  0.0646  0.0036
 2097SOL     ow 8385   1.513   3.097   6.036  0.2706 -0.1562 -0.1440
 2097SOL     hw 8386   1.528   3.023   6.095 -3.1254 -0.1255  0.9685
 2097SOL     hw 8387   1.535   3.063   5.949  0.6428 -1.8292  0.5614
 2097SOL     vw 8388   1.518   3.083   6.032 -0.1283 -0.3729  0.0958
 2098SOL     ow 8389   6.356   6.029   6.022 -0.1391 -0.1478  0.0021
 2098SOL     hw 8390   6.298   6.091   6.067  0.0476 -0.3150  0.4806
 2098SOL     hw 8391   6.443   6.052   6.054 -0.0514 -0.5415  0.0456
 2098SOL     vw 8392   6.360   6.040   6.032 -0.1025 -0.2220  0.0708
 2099SOL     ow 8393   6.488   3.339   0.417 -0.0479  0.2214  0.0396
 2099SOL     hw 8394   6.504   3.424   0.456 -2.5248  0.5382  0.5278
 2099SOL     hw 8395   6.413   3.304   0.465  1.5462 -2.7772  0.6345
 2099SOL     vw 8396   6.480   3.345   0.428 -0.1647 -0.1323  0.1825
 2100SOL     ow 8397   4.200   7.002   6.294 -0.1229 -0.2631 -0.2162
 2100SOL     hw 8398   4.206   6.925   6.350  0.0612  1.1503  1.8092
 2100SOL     hw 8399   4.106   7.010   6.275 -0.2154 -0.6293  0.0671
 2100SOL     vw 8400   4.188   6.993   6.298 -0.1109 -0.1249  0.0887
 2101SOL     ow 8401   6.527   5.978   6.525 -0.1800 -0.1206 -0.2164
 2101SOL     hw 8402   6.591   6.024   6.579 -0.9222  0.1376  0.4537
 2101SOL     hw 8403   6.489   6.047   6.470  1.1336 -0.4999 -1.6762
 2101SOL     vw 8404   6.531   5.993   6.525 -0.1044 -0.1369 -0.3207
 2102SOL     ow 8405   6.163   1.348   4.896 -0.0596 -0.9437 -0.7523
 2102SOL     hw 8406   6.098   1.383   4.836  1.4678 -0.4626 -2.1944
 2102SOL     hw 8407   6.159   1.253   4.884  0.1676 -0.8550 -1.5520
 2102SOL     vw 8408   6.154   1.340   4.887  0.1717 -0.8685 -1.0481
 2103SOL     ow 8409   3.728   3.433   5.660 -0.3330  0.4383 -0.0783
 2103SOL     hw 8410   3.730   3.483   5.742  0.1734  1.2736 -0.5827
 2103SOL     hw 8411   3.815   3.446   5.622 -0.6526  0.2783 -0.8732
 2103SOL     vw 8412   3.740   3.442   5.666 -0.3082  0.5276 -0.2496
 2104SOL     ow 8413   6.828   6.967   1.902  0.1460  0.1737 -0.0753
 2104SOL     hw 8414   6.853   6.919   1.980 -0.1908  0.2219  0.0643
 2104SOL     hw 8415   6.754   7.022   1.930 -0.1829 -0.0454 -0.5040
 2104SOL     vw 8416   6.821   6.968   1.916  0.0582  0.1512 -0.1134
 2105SOL     ow 8417   3.893   1.476   6.106 -0.3969 -0.1411  0.1145
 2105SOL     hw 8418   3.973   1.430   6.079 -0.5763 -1.1724  1.2676
 2105SOL     hw 8419   3.882   1.545   6.041  1.9617  0.6418  0.4588
 2105SOL     vw 8420   3.902   1.479   6.094 -0.1096 -0.1739  0.3119
 2106SOL     ow 8421   6.414   4.158   4.865 -0.5589  0.0028 -0.0971
 2106SOL     hw 8422   6.320   4.155   4.884 -0.5835 -2.2874 -0.2534
 2106SOL     hw 8423   6.455   4.138   4.949 -0.1794  1.2547  0.0281
 2106SOL     vw 8424   6.407   4.155   4.879 -0.5119 -0.1342 -0.1011
 2107SOL     ow 8425   6.738   5.757   6.515 -0.1047 -0.7498  0.0704
 2107SOL     hw 8426   6.700   5.731   6.599 -0.5285 -1.5840 -0.3640
 2107SOL     hw 8427   6.746   5.675   6.466  0.7636 -0.3606 -0.4513
 2107SOL     vw 8428   6.734   5.743   6.519 -0.0463 -0.8085 -0.0556
 2108SOL     ow 8429   2.070   5.169   0.812 -0.2550 -0.4147 -0.1387
 2108SOL     hw 8430   2.120   5.138   0.888  1.8503 -1.8665 -1.9845
 2108SOL     hw 8431   2.115   5.249   0.785 -1.4245  0.4893  0.4809
 2108SOL     vw 8432   2.083   5.176   0.819 -0.1315 -0.4871 -0.3004
 2109SOL     ow 8433   4.281   0.329   6.707  0.0247  0.3508  0.1535
 2109SOL     hw 8434   4.315   0.338   6.618 -0.1908  1.3833  0.1625
 2109SOL     hw 8435   4.334   0.260   6.747  1.1647  0.9633 -0.2828
 2109SOL     vw 8436   4.292   0.321   6.701  0.1466  0.5678  0.0970
 2110SOL     ow 8437   5.131   3.352   1.539 -0.1104 -0.1957  0.0775
 2110SOL     hw 8438   5.053   3.383   1.494 -0.3747  0.1296  0.7492
 2110SOL     hw 8439   5.157   3.273   1.490 -0.5805 -0.0425 -0.4313
 2110SOL     vw 8440   5.124   3.345   1.527 -0.2077 -0.1326  0.0990
 2111SOL     ow 8441   2.462   3.497   1.411 -0.0443 -0.1766 -0.5835
 2111SOL     hw 8442   2.546   3.535   1.387  0.3050 -0.2248  0.5407
 2111SOL     hw 8443   2.434   3.544   1.489 -1.1497 -0.0474 -1.0255
 2111SOL     vw 8444   2.469   3.508   1.418 -0.1440 -0.1661 -0.4935
 2112SOL     ow 8445   5.804   1.821   0.287 -0.0731  0.2560  0.8236
 2112SOL     hw 8446   5.790   1.778   0.372 -1.1555 -3.5654 -1.0618
 2112SOL     hw 8447   5.888   1.787   0.256 -0.7360 -0.2221 -0.5430
 2112SOL     vw 8448   5.813   1.811   0.294 -0.3035 -0.3113  0.3945
 2113SOL     ow 8449   6.573   5.531   0.160  0.5883 -0.3059 -0.1832
 2113SOL     hw 8450   6.513   5.605   0.146  1.9206  0.9551  0.4534
 2113SOL     hw 8451   6.532   5.479   0.229 -0.2298 -0.0072 -0.4310
 2113SOL     vw 8452   6.560   5.534   0.167  0.6561 -0.1001 -0.1319
 2114SOL     ow 8453   5.887   3.993   7.380  0.3658  0.6392 -0.1990
 2114SOL     hw 8454   5.887   3.919   7.320  0.4826 -1.1658  1.8979
 2114SOL     hw 8455   5.804   3.987   7.427  0.7711  1.2956  0.6353
 2114SOL     vw 8456   5.876   3.983   7.378  0.4346  0.4878  0.1876
 2115SOL     ow 8457   0.827   3.694   2.995 -0.6093  0.1792 -0.3203
 2115SOL     hw 8458   0.861   3.744   2.920  1.3676 -0.9047 -0.2031
 2115SOL     hw 8459   0.899   3.694   3.058 -2.0335  0.5695  1.3816
 2115SOL     vw 8460   0.841   3.701   2.993 -0.5364  0.0877 -0.0802
 2116SOL     ow 8461   2.942   7.184   2.919 -0.3615 -0.1495 -0.1522
 2116SOL     hw 8462   3.022   7.235   2.926 -1.0253  0.9314 -0.0871
 2116SOL     hw 8463   2.939   7.156   2.828  1.3050 -2.3440  0.3793
 2116SOL     vw 8464   2.952   7.187   2.908 -0.2294 -0.2966 -0.0734
 2117SOL     ow 8465   0.517   3.098   5.502 -0.2644 -0.3036 -0.1180
 2117SOL     hw 8466   0.560   3.025   5.547  3.3771  1.3099 -0.6009
 2117SOL     hw 8467   0.501   3.162   5.571  0.5605  0.1112 -0.2954
 2117SOL     vw 8468   0.520   3.096   5.517  0.3249 -0.0360 -0.2050
 2118SOL     ow 8469   6.817   7.081   7.161 -0.0157  0.1978  0.1202
 2118SOL     hw 8470   6.864   7.160   7.186 -0.7042  0.7815 -0.3745
 2118SOL     hw 8471   6.778   7.049   7.242 -0.1478  0.6550  0.2384
 2118SOL     vw 8472   6.818   7.087   7.175 -0.1237  0.3352  0.0706
 2119SOL     ow 8473   0.058   0.898   7.239  0.2804 -0.5811 -0.5491
 2119SOL     hw 8474   0.033   0.954   7.313  2.0833  0.0982 -0.4086
 2119SOL     hw 8475   0.091   0.818   7.279 -1.4076 -1.4033 -0.7278
 2119SOL     vw 8476   0.059   0.895   7.254  0.2956 -0.5999 -0.5538
 2120SOL     ow 8477   7.289   2.216   5.056  0.0909  0.2633  0.4555
 2120SOL     hw 8478   7.365   2.273   5.064  1.1453 -0.9420 -0.4893
 2120SOL     hw 8479   7.312   2.155   4.985 -0.3961 -2.1828  2.2365
 2120SOL     vw 8480   7.302   2.215   5.048  0.1655 -0.2184  0.5660
 2121SOL     ow 8481   4.648   2.109   7.374  0.0266  0.4927 -0.2678
 2121SOL     hw 8482   4.718   2.089   7.436  1.5854 -0.0904 -2.1345
 2121SOL     hw 8483   4.575   2.136   7.429  0.6632 -1.9134  1.9514
 2121SOL     vw 8484   4.648   2.110   7.389  0.3161  0.0983 -0.2213
 2122SOL     ow 8485   5.944   1.951   1.976  0.1654  0.0341 -0.4806
 2122SOL     hw 8486   5.947   1.976   2.068 -1.3686  2.7441 -1.0717
 2122SOL     hw 8487   6.008   2.008   1.933  1.1714 -1.4875 -1.0921
 2122SOL     vw 8488   5.953   1.962   1.982  0.0956  0.1909 -0.6393
 2123SOL     ow 8489   1.160   0.608   4.913  0.4162  0.4305 -0.0894
 2123SOL     hw 8490   1.168   0.531   4.969 -0.1885 -0.0414 -0.6429
 2123SOL     hw 8491   1.095   0.663   4.955 -1.2737 -0.6805 -1.1456
 2123SOL     vw 8492   1.153   0.605   4.926  0.1134  0.2217 -0.3018
 2124SOL     ow 8493   0.135   2.020   5.331 -0.0503 -0.4049  0.6103
 2124SOL     hw 8494   0.152   1.977   5.415  1.0115  1.6284  1.4967
 2124SOL     hw 8495   0.199   1.981   5.271 -0.9422 -2.0089  0.6398
 2124SOL     vw 8496   0.146   2.009   5.334 -0.0279 -0.3483  0.7312
 2125SOL     ow 8497   3.243   4.629   7.248  0.3767  0.3370  0.2979
 2125SOL     hw 8498   3.224   4.613   7.340  0.8414  1.4707  0.6074
 2125SOL     hw 8499   3.160   4.616   7.204 -0.0463  0.6373  0.9931
 2125SOL     vw 8500   3.230   4.625   7.254  0.3823  0.5262  0.4301
 2126SOL     ow 8501   1.615   3.525   4.216 -0.6617 -0.3651 -0.1751
 2126SOL     hw 8502   1.687   3.463   4.211  0.5980  0.9599  0.6486
 2126SOL     hw 8503   1.544   3.483   4.168  0.4179 -2.0283 -0.4047
 2126SOL     vw 8504   1.615   3.511   4.209 -0.3530 -0.4097 -0.0968
 2127SOL     ow 8505   5.317   5.314   6.624  0.4486  0.4609  0.2845
 2127SOL     hw 8506   5.365   5.231   6.630  1.3511  0.9426 -0.0401
 2127SOL     hw 8507   5.323   5.339   6.532 -0.7969  0.3309  0.1597
 2127SOL     vw 8508   5.324   5.306   6.613  0.4036  0.5074  0.2251
 2128SOL     ow 8509   6.253   5.132   2.612 -0.2437 -0.5789 -0.0587
 2128SOL     hw 8510   6.234   5.052   2.660 -1.7123  0.0992  0.5496
 2128SOL     hw 8511   6.312   5.182   2.669 -0.4755 -0.5947  0.1931
 2128SOL     vw 8512   6.258   5.128   2.626 -0.4675 -0.4914  0.0547
 2129SOL     ow 8513   4.468   0.197   7.203  0.3173  0.1249 -0.1784
 2129SOL     hw 8514   4.437   0.266   7.262  1.1486  1.4754 -1.2710
 2129SOL     hw 8515   4.388   0.149   7.179  0.1024 -1.4675  3.1532
 2129SOL     vw 8516   4.453   0.200   7.207  0.3984  0.0930  0.1173
 2130SOL     ow 8517   5.503   3.421   0.035  0.6197  0.6440 -0.3582
 2130SOL     hw 8518   5.417   3.379   0.030  1.9316 -2.2395 -1.0169
 2130SOL     hw 8519   5.522   3.428   0.129  0.9147 -1.7271 -0.1743
 2130SOL     vw 8520   5.494   3.417   0.047  0.8316 -0.0492 -0.4208
 2131SOL     ow 8521   3.226   2.248   5.147  0.4015  0.1027  0.0402
 2131SOL     hw 8522   3.216   2.304   5.070  0.7193  0.3565  0.1772
 2131SOL     hw 8523   3.176   2.292   5.215  0.2466 -0.0409  0.0194
 2131SOL     vw 8524   3.218   2.261   5.146  0.4230  0.1172  0.0558
 2132SOL     ow 8525   0.906   5.476   1.606  0.3545 -0.0343  0.6575
 2132SOL     hw 8526   0.900   5.557   1.555  2.5908  0.4889  1.1304
 2132SOL     hw 8527   0.968   5.422   1.557 -0.1824 -0.9898  1.0045
 2132SOL     vw 8528   0.913   5.479   1.592  0.5787 -0.0916  0.7657
 2133SOL     ow 8529   4.704   0.703   4.389 -0.1499 -0.0721 -0.3497
 2133SOL     hw 8530   4.694   0.645   4.314 -0.3532  0.1341 -0.4865
 2133SOL     hw 8531   4.755   0.653   4.452  0.0177 -0.2495 -0.6238
 2133SOL     vw 8532   4.709   0.689   4.387 -0.1545 -0.0683 -0.4039
 2134SOL     ow 8533   1.016   4.142   0.706  0.3630  0.4278 -0.5097
 2134SOL     hw 8534   0.952   4.120   0.773 -0.1422  0.1093 -1.0847
 2134SOL     hw 8535   1.080   4.071   0.710 -0.1003 -0.0178 -0.9032
 2134SOL     vw 8536   1.016   4.130   0.715  0.2352  0.3266 -0.6374
 2135SOL     ow 8537   6.430   3.104   4.707 -0.0318 -1.0380  0.7678
 2135SOL     hw 8538   6.522   3.130   4.707 -0.1448 -0.6031  1.5402
 2135SOL     hw 8539   6.421   3.047   4.784 -0.3287 -1.3883  0.4785
 2135SOL     vw 8540   6.441   3.100   4.717 -0.0858 -1.0269  0.8316
 2136SOL     ow 8541   6.594   5.562   7.171  0.3383  0.4058 -0.1254
 2136SOL     hw 8542   6.616   5.637   7.226  0.0820  0.3520  0.0525
 2136SOL     hw 8543   6.511   5.530   7.206  0.8338 -0.4497  0.3138
 2136SOL     vw 8544   6.586   5.567   7.183  0.3698  0.2856 -0.0436
 2137SOL     ow 8545   5.674   1.568   1.907  0.3718 -0.4076 -0.0531
 2137SOL     hw 8546   5.645   1.477   1.903  0.9070 -0.6179  0.6215
 2137SOL     hw 8547   5.622   1.613   1.840 -1.4072 -0.7845  1.0099
 2137SOL     vw 8548   5.663   1.562   1.897  0.2079 -0.4851  0.1762
 2138SOL     ow 8549   2.526   1.731   6.960 -0.1735 -0.0704  0.8150
 2138SOL     hw 8550   2.558   1.720   7.050  1.0580  1.8449  0.6661
 2138SOL     hw 8551   2.597   1.776   6.915 -1.8907  1.5591 -0.3757
 2138SOL     vw 8552   2.540   1.735   6.966 -0.2376  0.3973  0.6385
 2139SOL     ow 8553   6.339   5.560   6.734  0.0119  0.0649 -0.0692
 2139SOL     hw 8554   6.256   5.561   6.686  0.3436  2.1541 -0.6966
 2139SOL     hw 8555   6.402   5.522   6.674 -0.0076  0.6879 -0.4830
 2139SOL     vw 8556   6.336   5.555   6.720  0.0534  0.4230 -0.2065
 2140SOL     ow 8557   2.992   3.536   4.049  0.2340  0.3274 -0.4258
 2140SOL     hw 8558   3.041   3.618   4.051  0.9001  0.1376 -3.7608
 2140SOL     hw 8559   3.036   3.483   3.982 -1.0502 -2.1919  0.6041
 2140SOL     vw 8560   3.004   3.540   4.040  0.1525 -0.0300 -0.7298
 2141SOL     ow 8561   3.973   3.454   6.539 -0.6973 -0.5064 -0.6435
 2141SOL     hw 8562   4.016   3.370   6.558 -0.2068  0.0421  0.8404
 2141SOL     hw 8563   3.890   3.450   6.586  0.0024  0.4146  0.7303
 2141SOL     vw 8564   3.968   3.442   6.548 -0.5403 -0.3124 -0.2663
 2142SOL     ow 8565   6.432   5.762   0.152  0.3524 -0.0637  0.0450
 2142SOL     hw 8566   6.519   5.801   0.148  1.7239 -2.7877  0.9808
 2142SOL     hw 8567   6.399   5.767   0.062  2.1655 -0.3703 -0.6827
 2142SOL     vw 8568   6.439   5.768   0.139  0.7727 -0.4635  0.0725
 2143SOL     ow 8569   1.226   3.980   4.249  0.2964  0.2981  0.3134
 2143SOL     hw 8570   1.319   3.988   4.271  0.5623  0.3154 -0.7295
 2143SOL     hw 8571   1.221   4.012   4.159 -0.6632 -0.0381  0.2405
 2143SOL     vw 8572   1.238   3.985   4.240  0.2049  0.2561  0.1662
 2144SOL     ow 8573   5.526   0.874   3.582 -0.4196 -0.2186  0.1308
 2144SOL     hw 8574   5.574   0.947   3.543 -1.4018 -0.7310 -2.1831
 2144SOL     hw 8575   5.476   0.913   3.653 -0.4735  1.2690 -0.6823
 2144SOL     vw 8576   5.526   0.889   3.586 -0.5565 -0.0899 -0.2818
 2145SOL     ow 8577   3.297   4.035   1.900  0.2159  0.4453 -0.2210
 2145SOL     hw 8578   3.284   3.976   1.974  0.1458  1.6957  0.7922
 2145SOL     hw 8579   3.221   4.021   1.844 -0.0619 -0.0298  0.2732
 2145SOL     vw 8580   3.285   4.026   1.902  0.1700  0.5476 -0.0221
 2146SOL     ow 8581   5.305   0.968   2.955 -0.6608 -0.6347  0.6524
 2146SOL     hw 8582   5.356   0.936   3.030  0.1739 -0.3289  0.2271
 2146SOL     hw 8583   5.347   1.050   2.931 -2.9821  1.0327  1.9475
 2146SOL     vw 8584   5.318   0.974   2.962 -0.8569 -0.3743  0.7671
 2147SOL     ow 8585   5.692   2.536   5.996  0.2319 -0.1149  0.6068
 2147SOL     hw 8586   5.686   2.442   5.977  0.1500  0.0396 -0.1550
 2147SOL     hw 8587   5.619   2.575   5.948  2.2305  0.7462 -1.9780
 2147SOL     vw 8588   5.682   2.529   5.987  0.4847  0.0190  0.1650
 2148SOL     ow 8589   1.762   5.050   4.993  0.1219 -0.5685  0.1222
 2148SOL     hw 8590   1.758   5.135   4.949 -0.4934 -0.6354  0.0444
 2148SOL     hw 8591   1.790   5.071   5.083  1.2078 -0.4151 -0.2332
 2148SOL     vw 8592   1.766   5.064   4.999  0.1840 -0.5572  0.0651
 2149SOL     ow 8593   1.682   6.573   4.676 -0.7625  0.1629 -0.1353
 2149SOL     hw 8594   1.591   6.603   4.673 -0.4256  1.2536  0.1660
 2149SOL     hw 8595   1.733   6.648   4.648  0.0522 -0.4615 -0.3593
 2149SOL     vw 8596   1.676   6.587   4.672 -0.6105  0.2244 -0.1252
 2150SOL     ow 8597   6.455   2.071   2.319  0.3357 -0.1144 -0.2114
 2150SOL     hw 8598   6.383   2.077   2.257 -0.3697 -0.7414  0.5297
 2150SOL     hw 8599   6.516   2.009   2.279 -0.8956 -1.8229  0.4367
 2150SOL     vw 8600   6.454   2.063   2.306  0.0801 -0.4226 -0.0281
 2151SOL     ow 8601   0.436   3.154   6.469  0.4797  0.4351  0.1354
 2151SOL     hw 8602   0.520   3.173   6.511  0.0578  0.7303  0.8562
 2151SOL     hw 8603   0.439   3.204   6.387  0.1407  2.2274  1.1572
 2151SOL     vw 8604   0.448   3.163   6.464  0.3793  0.7105  0.3653
 2152SOL     ow 8605   5.627   4.630   6.111 -0.1192  0.5919  0.4585
 2152SOL     hw 8606   5.537   4.604   6.130  0.1689 -1.3425 -0.6071
 2152SOL     hw 8607   5.679   4.589   6.181  0.2554 -1.1314 -0.7825
 2152SOL     vw 8608   5.622   4.621   6.123 -0.0317  0.1092  0.1543
 2153SOL     ow 8609   5.516   5.211   4.612  0.4853  0.0605 -0.2475
 2153SOL     hw 8610   5.452   5.159   4.661  1.5429 -0.3604  0.7260
 2153SOL     hw 8611   5.467   5.244   4.536 -1.5044  1.6555  1.6204
 2153SOL     vw 8612   5.501   5.208   4.608  0.3624  0.2153  0.1273
 2154SOL     ow 8613   4.270   7.169   7.044  0.5725 -1.1024 -0.3043
 2154SOL     hw 8614   4.320   7.216   6.977  0.5525 -1.7206 -0.7592
 2154SOL     hw 8615   4.212   7.236   7.081  1.8113 -0.3326  0.3243
 2154SOL     vw 8616   4.269   7.184   7.040  0.7334 -1.0824 -0.2811
 2155SOL     ow 8617   6.714   3.757   2.007 -0.8858 -0.2867  0.1067
 2155SOL     hw 8618   6.761   3.702   2.070  2.0111  2.2382  0.3759
 2155SOL     hw 8619   6.700   3.840   2.053  0.8704  1.4708 -2.2560
 2155SOL     vw 8620   6.719   3.761   2.021 -0.2720  0.2784 -0.1695
 2156SOL     ow 8621   0.098   6.395   7.220  0.1396  0.2058 -0.5549
 2156SOL     hw 8622   0.144   6.381   7.303 -0.9635  2.2071  0.4681
 2156SOL     hw 8623   0.099   6.309   7.178 -1.2241 -1.5275  2.5762
 2156SOL     vw 8624   0.104   6.382   7.226 -0.1859  0.2410 -0.0069
 2157SOL     ow 8625   4.861   5.590   5.350  0.1938  0.0544  0.8153
 2157SOL     hw 8626   4.943   5.543   5.367 -0.0844 -0.8064 -0.1003
 2157SOL     hw 8627   4.793   5.529   5.379 -0.1865 -0.2287 -0.6222
 2157SOL     vw 8628   4.863   5.575   5.356  0.1073 -0.0968  0.5050
 2158SOL     ow 8629   0.991   5.046   3.968  0.3587  0.0122  0.1799
 2158SOL     hw 8630   0.958   4.966   3.928 -0.4052 -0.2948  1.3798
 2158SOL     hw 8631   1.085   5.031   3.978  0.2122 -0.7570  0.4560
 2158SOL     vw 8632   0.999   5.034   3.964  0.2386 -0.1295  0.3748
 2159SOL     ow 8633   2.544   0.493   3.614 -0.4585 -0.2979 -0.6174
 2159SOL     hw 8634   2.637   0.473   3.604 -0.5365 -0.9237 -0.1070
 2159SOL     hw 8635   2.539   0.589   3.606  0.6460  0.1008  2.3068
 2159SOL     vw 8636   2.555   0.503   3.611 -0.3233 -0.3279 -0.1643
 2160SOL     ow 8637   6.701   7.046   2.916  1.1341 -0.3729  0.4635
 2160SOL     hw 8638   6.748   7.006   2.843  0.4025 -1.8346  0.7488
 2160SOL     hw 8639   6.749   7.126   2.935  2.2260 -0.7378 -0.6280
 2160SOL     vw 8640   6.713   7.051   2.909  1.1816 -0.6142  0.3572
 2161SOL     ow 8641   4.956   1.699   5.560  0.3282 -0.3606 -0.1209
 2161SOL     hw 8642   4.932   1.608   5.543 -3.3748  0.4289 -0.1112
 2161SOL     hw 8643   4.989   1.699   5.650  0.8508 -1.7463 -0.2973
 2161SOL     vw 8644   4.957   1.687   5.570 -0.0916 -0.4393 -0.1428
 2162SOL     ow 8645   6.945   3.640   1.504  0.4753  0.1111 -0.1620
 2162SOL     hw 8646   6.967   3.645   1.410 -0.1439  1.7876 -0.2474
 2162SOL     hw 8647   6.930   3.547   1.520  3.3507 -0.6156 -1.0762
 2162SOL     vw 8648   6.946   3.628   1.493  0.7730  0.2364 -0.2939
 2163SOL     ow 8649   2.872   3.521   1.590  0.0269 -0.1638  0.1335
 2163SOL     hw 8650   2.936   3.455   1.561  0.3142  0.1388  0.0769
 2163SOL     hw 8651   2.887   3.529   1.684  3.6572  3.6104 -0.4917
 2163SOL     vw 8652   2.882   3.513   1.599  0.5438  0.3741  0.0436
 2164SOL     ow 8653   7.426   1.957   0.738  0.2123 -0.3311 -0.2883
 2164SOL     hw 8654   7.386   2.041   0.715  0.1354  0.2393  1.7647
 2164SOL     hw 8655   7.387   1.933   0.822  1.1609 -1.8069 -0.2284
 2164SOL     vw 8656   7.416   1.965   0.746  0.3276 -0.4506 -0.0095
 2165SOL     ow 8657   2.197   6.770   5.291  0.2856  0.2526 -0.5274
 2165SOL     hw 8658   2.262   6.816   5.345  0.3333  1.7401 -1.7659
 2165SOL     hw 8659   2.166   6.837   5.230 -1.9159 -0.6030 -0.4256
 2165SOL     vw 8660   2.202   6.785   5.290  0.0014  0.3359 -0.6776
 2166SOL     ow 8661   1.532   1.037   3.628 -0.9327  0.0989  0.2315
 2166SOL     hw 8662   1.601   0.976   3.652  1.3548  1.8000 -1.6327
 2166SOL     hw 8663   1.492   0.998   3.550  0.3910  0.8119 -0.8381
 2166SOL     vw 8664   1.536   1.024   3.621 -0.4562  0.4174 -0.1556
 2167SOL     ow 8665   3.881   1.614   1.908  0.1379  0.2965  0.5172
 2167SOL     hw 8666   3.809   1.553   1.902 -0.3139  0.6849  1.7734
 2167SOL     hw 8667   3.949   1.577   1.851 -1.1374  0.0909 -0.9345
 2167SOL     vw 8668   3.881   1.601   1.899 -0.0900  0.3206  0.4914
 2168SOL     ow 8669   1.837   7.138   5.025  0.4799 -0.3358  0.6489
 2168SOL     hw 8670   1.860   7.203   4.959 -1.0287 -1.1000 -0.7200
 2168SOL     hw 8671   1.915   7.083   5.034  0.0908 -1.5392 -2.1923
 2168SOL     vw 8672   1.850   7.139   5.018  0.2295 -0.5953  0.0932
 2169SOL     ow 8673   5.954   0.137   5.131  0.4437 -0.2631 -0.2931
 2169SOL     hw 8674   5.975   0.189   5.208  0.2864 -1.4242  0.5531
 2169SOL     hw 8675   5.878   0.181   5.093 -1.0185 -1.0279  1.6033
 2169SOL     vw 8676   5.947   0.150   5.136  0.2303 -0.5172  0.0689
 2170SOL     ow 8677   4.030   3.907   2.098 -0.0114 -0.4744 -0.1602
 2170SOL     hw 8678   4.020   3.912   2.193  1.0220 -1.9227  0.0612
 2170SOL     hw 8679   4.124   3.909   2.084 -0.1814  1.1559 -1.2794
 2170SOL     vw 8680   4.041   3.908   2.109  0.1025 -0.4504 -0.2787
 2171SOL     ow 8681   3.184   1.018   2.595  0.6349  0.0765 -0.5467
 2171SOL     hw 8682   3.129   1.086   2.556  0.3738  0.1142 -0.1129
 2171SOL     hw 8683   3.125   0.968   2.650  1.3522  1.1730  1.3111
 2171SOL     vw 8684   3.169   1.020   2.597  0.6952  0.2261 -0.2444
 2172SOL     ow 8685   3.309   4.846   0.138 -0.1232  0.5891 -0.2053
 2172SOL     hw 8686   3.268   4.764   0.112 -0.1128  0.9362 -1.3920
 2172SOL     hw 8687   3.241   4.895   0.183 -0.0858 -0.1221  0.6387
 2172SOL     vw 8688   3.295   4.842   0.140 -0.1168  0.5410 -0.2505
 2173SOL     ow 8689   3.226   3.110   3.974  0.2898  0.1544  0.2129
 2173SOL     hw 8690   3.253   3.202   3.985  0.3611  0.2197 -0.5028
 2173SOL     hw 8691   3.308   3.060   3.981  0.2872  0.1644  0.3224
 2173SOL     vw 8692   3.241   3.116   3.977  0.2989  0.1644  0.1328
 2174SOL     ow 8693   6.573   1.190   6.013 -0.2971 -0.2250  0.0026
 2174SOL     hw 8694   6.628   1.132   6.065  0.3475 -1.1063 -1.5859
 2174SOL     hw 8695   6.518   1.131   5.960 -2.1801  0.6310  0.8891
 2174SOL     vw 8696   6.573   1.175   6.013 -0.4604 -0.2283 -0.0901
 2175SOL     ow 8697   0.408   1.500   2.214 -0.4324 -0.7764  0.1513
 2175SOL     hw 8698   0.497   1.477   2.242  0.1691 -0.4919 -1.3680
 2175SOL     hw 8699   0.376   1.559   2.281  0.6769 -0.6066  0.5525
 2175SOL     vw 8700   0.416   1.505   2.226 -0.2067 -0.7165  0.0039
 2176SOL     ow 8701   4.122   2.374   1.052  0.0285 -0.0199 -0.3695
 2176SOL     hw 8702   4.170   2.320   0.990 -2.2687 -0.6774 -1.7068
 2176SOL     hw 8703   4.080   2.441   0.998 -1.5888 -0.2652  0.5127
 2176SOL     vw 8704   4.122   2.376   1.037 -0.4878 -0.1389 -0.4296
 2177SOL     ow 8705   4.874   7.322   5.702  0.4489  0.2864 -0.5065
 2177SOL     hw 8706   4.799   7.262   5.696 -0.6828  1.7097 -1.1514
 2177SOL     hw 8707   4.841   7.396   5.752  0.8256  1.7867 -2.3850
 2177SOL     vw 8708   4.860   7.324   5.708  0.3495  0.6719 -0.8395
 2178SOL     ow 8709   4.788   6.735   7.047 -0.2495 -0.1798  0.4522
 2178SOL     hw 8710   4.735   6.703   6.975  0.0639 -1.6627  0.8542
 2178SOL     hw 8711   4.857   6.669   7.058  0.7930  0.9319  0.9236
 2178SOL     vw 8712   4.790   6.722   7.039 -0.0703 -0.2289  0.5672
 2179SOL     ow 8713   4.865   1.920   0.846 -0.4705  0.0176  0.1040
 2179SOL     hw 8714   4.807   1.855   0.885  0.5282 -1.6231 -1.0040
 2179SOL     hw 8715   4.900   1.877   0.768 -0.0938  2.0675 -0.9234
 2179SOL     vw 8716   4.862   1.906   0.841 -0.2890  0.0716 -0.1778
 2180SOL     ow 8717   4.320   1.638   3.601 -0.0791 -0.1805  0.2114
 2180SOL     hw 8718   4.365   1.644   3.516 -0.4453 -1.0418 -0.0516
 2180SOL     hw 8719   4.389   1.655   3.665  0.1404  0.7873 -0.2635
 2180SOL     vw 8720   4.335   1.641   3.598 -0.0985 -0.1664  0.1140
 2181SOL     ow 8721   3.327   1.420   3.919 -0.1887  0.9274  0.3643
 2181SOL     hw 8722   3.358   1.367   3.846 -2.0820  0.2905 -0.0118
 2181SOL     hw 8723   3.343   1.511   3.890 -0.9464  0.6912 -0.8643
 2181SOL     vw 8724   3.333   1.425   3.905 -0.5385  0.8122  0.1525
 2182SOL     ow 8725   6.060   3.628   4.277  0.4496 -0.3339 -0.0845
 2182SOL     hw 8726   6.070   3.534   4.285  0.4378 -0.5646 -2.1369
 2182SOL     hw 8727   6.131   3.655   4.218  0.5132  0.9552  0.5512
 2182SOL     vw 8728   6.071   3.619   4.270  0.4566 -0.1943 -0.2718
 2183SOL     ow 8729   6.510   0.055   6.231  0.2623 -0.1843 -0.1094
 2183SOL     hw 8730   6.550   0.129   6.277 -0.3491  0.5900 -0.7902
 2183SOL     hw 8731   6.502  -0.014   6.297  2.7514 -0.4155  0.0508
 2183SOL     vw 8732   6.514   0.055   6.246  0.5100 -0.1127 -0.1781
 2184SOL     ow 8733   3.728   0.181   2.008  0.1148  0.1381 -0.2982
 2184SOL     hw 8734   3.726   0.111   1.943  2.6075 -0.7657  0.4800
 2184SOL     hw 8735   3.683   0.145   2.084 -0.4553  0.1904 -0.6084
 2184SOL     vw 8736   3.722   0.167   2.010  0.3685  0.0258 -0.2365
 2185SOL     ow 8737   3.474   0.258   1.940  0.3888  0.4662 -0.3296
 2185SOL     hw 8738   3.467   0.350   1.967  3.2013  0.8210 -0.4948
 2185SOL     hw 8739   3.559   0.229   1.974 -0.6081 -2.2643  0.1331
 2185SOL     vw 8740   3.484   0.266   1.948  0.6282  0.1527 -0.2904
 2186SOL     ow 8741   2.981   2.093   5.092 -0.5343 -0.0847  0.0572
 2186SOL     hw 8742   2.952   2.126   5.007  0.0754  2.0185  0.6001
 2186SOL     hw 8743   2.900   2.073   5.139 -0.9936  1.3388 -0.0768
 2186SOL     vw 8744   2.967   2.095   5.087 -0.5146  0.3808  0.1109
 2187SOL     ow 8745   0.665   4.984   4.175 -0.8361 -0.2625 -0.2029
 2187SOL     hw 8746   0.696   4.901   4.210  1.2646 -0.0511 -1.4002
 2187SOL     hw 8747   0.569   4.976   4.176 -0.8053 -1.5319  2.3422
 2187SOL     vw 8748   0.656   4.972   4.180 -0.5549 -0.4022 -0.0250
 2188SOL     ow 8749   6.205   4.156   6.541  0.2027 -0.5108  0.3646
 2188SOL     hw 8750   6.278   4.127   6.596 -0.5155 -0.1805  1.5371
 2188SOL     hw 8751   6.181   4.241   6.578 -1.6209 -1.2087  0.8653
 2188SOL     vw 8752   6.212   4.164   6.554 -0.1328 -0.5593  0.5853
 2189SOL     ow 8753   2.482   6.030   2.920  0.2627 -0.3026  0.0250
 2189SOL     hw 8754   2.546   6.094   2.952  0.3017 -1.1676  1.7879
 2189SOL     hw 8755   2.427   6.079   2.860  1.5699  0.8652 -0.2738
 2189SOL     vw 8756   2.484   6.045   2.916  0.4402 -0.2627  0.2182
 2190SOL     ow 8757   3.987   1.862   4.809 -0.3041 -0.1516 -0.4438
 2190SOL     hw 8758   4.070   1.840   4.766 -0.1028 -0.9958  0.3385
 2190SOL     hw 8759   4.012   1.884   4.899 -1.0570 -2.1136  0.3139
 2190SOL     vw 8760   4.001   1.862   4.815 -0.3769 -0.5219 -0.2406
 2191SOL     ow 8761   4.879   3.185   6.331  0.1751 -0.3347 -0.3284
 2191SOL     hw 8762   4.799   3.228   6.300 -1.0418 -2.3258 -0.1893
 2191SOL     hw 8763   4.877   3.198   6.426 -1.8605 -3.0679  0.1492
 2191SOL     vw 8764   4.868   3.192   6.340 -0.2539 -0.9580 -0.2470
 2192SOL     ow 8765   5.345   0.020   4.818  0.3538  0.2001 -0.1115
 2192SOL     hw 8766   5.317   0.055   4.902 -2.7226 -1.1993 -0.4209
 2192SOL     hw 8767   5.337   0.094   4.757  0.6837  0.7090  0.4547
 2192SOL     vw 8768   5.340   0.035   4.821 -0.0086  0.0827 -0.0780
 2193SOL     ow 8769   7.092   3.094   0.628 -0.0109  0.4033  0.2938
 2193SOL     hw 8770   7.076   3.188   0.619 -1.3216  0.2835  1.1275
 2193SOL     hw 8771   7.022   3.053   0.577  0.1993 -0.1281  0.4275
 2193SOL     vw 8772   7.081   3.101   0.620 -0.1562  0.3173  0.4214
 2194SOL     ow 8773   3.778   0.265   1.451  0.4487 -0.4587  0.2026
 2194SOL     hw 8774   3.723   0.208   1.398 -1.1368 -0.8840  2.1829
 2194SOL     hw 8775   3.865   0.227   1.446 -0.1615 -1.8431 -0.2057
 2194SOL     vw 8776   3.782   0.253   1.444  0.1590 -0.6975  0.4100
 2195SOL     ow 8777   4.498   2.592   5.318 -0.1665 -0.6288 -0.0479
 2195SOL     hw 8778   4.525   2.626   5.403  1.1079 -1.1085 -0.2418
 2195SOL     hw 8779   4.410   2.559   5.332  0.5221 -1.9434  1.4310
 2195SOL     vw 8780   4.490   2.592   5.331  0.0923 -0.8656  0.1218
 2196SOL     ow 8781   2.027   6.137   3.120  0.1070 -0.1289 -0.2323
 2196SOL     hw 8782   1.941   6.103   3.093  0.3606 -0.7291 -0.2934
 2196SOL     hw 8783   2.063   6.176   3.041 -1.1317  2.3414  0.3379
 2196SOL     vw 8784   2.020   6.137   3.106 -0.0231  0.1178 -0.1651
 2197SOL     ow 8785   3.795   0.729   1.623 -0.4909  0.3075 -0.0510
 2197SOL     hw 8786   3.729   0.773   1.569  0.5712  1.0960 -0.7755
 2197SOL     hw 8787   3.763   0.640   1.632 -1.0545  0.3331 -1.4349
 2197SOL     vw 8788   3.782   0.723   1.617 -0.4252  0.4150 -0.3293
 2198SOL     ow 8789   6.375   5.881   6.755 -0.2046  0.0714  0.3061
 2198SOL     hw 8790   6.348   5.963   6.796 -0.5240  0.2175 -0.1864
 2198SOL     hw 8791   6.412   5.907   6.671 -2.0447 -0.4116 -0.7034
 2198SOL     vw 8792   6.376   5.895   6.749 -0.4895  0.0269  0.1078
 2199SOL     ow 8793   5.414   4.301   5.597  0.1665  0.2638  0.2832
 2199SOL     hw 8794   5.443   4.222   5.553 -3.7438 -2.2012  1.6117
 2199SOL     hw 8795   5.441   4.290   5.688 -2.3431 -0.8629  0.9868
 2199SOL     vw 8796   5.421   4.289   5.603 -0.6804 -0.2098  0.5512
 2200SOL     ow 8797   2.640   2.633   5.103 -0.3990  0.5949 -0.3175
 2200SOL     hw 8798   2.596   2.558   5.063 -1.6088  0.4422  1.1776
 2200SOL     hw 8799   2.574   2.702   5.104 -0.4400  0.5801  1.3713
 2200SOL     vw 8800   2.626   2.633   5.098 -0.5640  0.5728  0.1025
 2201SOL     ow 8801   3.229   1.984   5.279 -0.2268 -0.0997 -1.1078
 2201SOL     hw 8802   3.202   1.900   5.240 -1.8302 -0.3017  0.3260
 2201SOL     hw 8803   3.169   1.997   5.352  1.3211  1.2978 -0.0026
 2201SOL     vw 8804   3.218   1.974   5.284 -0.2342  0.0581 -0.7727
 2202SOL     ow 8805   0.493   1.170   2.753 -0.4995 -0.6550 -0.6853
 2202SOL     hw 8806   0.580   1.129   2.751 -0.2306 -0.2494  1.1027
 2202SOL     hw 8807   0.508   1.255   2.795 -1.6037 -0.1079 -1.3514
 2202SOL     vw 8808   0.507   1.176   2.758 -0.6097 -0.5293 -0.5373
 2203SOL     ow 8809   1.726   0.800   6.933  0.0847 -0.0447 -0.5227
 2203SOL     hw 8810   1.718   0.860   6.859  0.8725  0.0050 -0.5741
 2203SOL     hw 8811   1.682   0.846   7.005 -1.5757 -0.5260 -1.1821
 2203SOL     vw 8812   1.719   0.814   6.933 -0.0305 -0.1017 -0.6168
 2204SOL     ow 8813   5.759   1.394   4.343 -0.2920 -0.0615 -0.5643
 2204SOL     hw 8814   5.834   1.419   4.289 -0.7752  0.8718 -0.8281
 2204SOL     hw 8815   5.784   1.309   4.381  0.5044 -0.2114 -1.3792
 2204SOL     vw 8816   5.772   1.386   4.341 -0.2506  0.0418 -0.7064
 2205SOL     ow 8817   3.202   2.263   0.969  0.6570  0.1882 -0.0959
 2205SOL     hw 8818   3.139   2.269   0.898  0.3001 -0.6907  0.1328
 2205SOL     hw 8819   3.265   2.197   0.940  1.0323  0.4949  0.0095
 2205SOL     vw 8820   3.202   2.255   0.956  0.6596  0.1129 -0.0518
 2206SOL     ow 8821   6.924   6.452   2.372 -0.0912 -0.3255  0.3289
 2206SOL     hw 8822   6.957   6.521   2.431 -0.6147 -0.4840  0.8104
 2206SOL     hw 8823   6.998   6.392   2.362 -0.4616 -1.1378  2.0971
 2206SOL     vw 8824   6.938   6.454   2.378 -0.2089 -0.4535  0.6257
 2207SOL     ow 8825   5.827   0.728   1.502 -0.0051 -0.0331  0.0729
 2207SOL     hw 8826   5.904   0.740   1.557 -1.1059  0.6291  1.5419
 2207SOL     hw 8827   5.811   0.634   1.503  0.2927 -0.0817  0.4409
 2207SOL     vw 8828   5.835   0.717   1.509 -0.1109  0.0478  0.3152
 2208SOL     ow 8829   5.798   5.340   2.317 -0.2087  0.1792  0.0383
 2208SOL     hw 8830   5.829   5.297   2.237  1.3112  2.3861 -0.6389
 2208SOL     hw 8831   5.836   5.288   2.388  0.5175 -0.3442 -0.7157
 2208SOL     vw 8832   5.807   5.327   2.316  0.0877  0.4015 -0.1507
 2209SOL     ow 8833   4.826   2.394   1.646  0.5134 -0.4310 -0.4788
 2209SOL     hw 8834   4.775   2.466   1.683 -0.3768 -0.9916 -0.5687
 2209SOL     hw 8835   4.808   2.397   1.552 -0.2681 -1.3118 -0.3733
 2209SOL     vw 8836   4.817   2.404   1.639  0.2930 -0.6212 -0.4768
 2210SOL     ow 8837   5.844   4.051   0.773 -0.1910 -0.0770  0.2515
 2210SOL     hw 8838   5.794   3.970   0.785 -0.2143 -0.1487 -0.2761
 2210SOL     hw 8839   5.794   4.118   0.820  0.4801 -0.5895  1.7380
 2210SOL     vw 8840   5.831   4.049   0.781 -0.1056 -0.1540  0.3780
 2211SOL     ow 8841   2.292   0.970   5.933  0.2551  0.2268  0.5048
 2211SOL     hw 8842   2.239   1.016   5.999 -0.3471 -2.0489  1.6845
 2211SOL     hw 8843   2.282   1.024   5.854 -1.7222  1.2680  1.3821
 2211SOL     vw 8844   2.283   0.983   5.931 -0.0851  0.0639  0.7763
 2212SOL     ow 8845   3.028   7.437   1.229  0.8364 -0.6624  0.1319
 2212SOL     hw 8846   3.109   7.402   1.192  1.9274  1.4009  0.3713
 2212SOL     hw 8847   2.963   7.426   1.160  1.5705 -1.4507 -0.4554
 2212SOL     vw 8848   3.030   7.431   1.215  1.0771 -0.4940  0.0860
 2213SOL     ow 8849   3.247   5.452   2.869 -0.4153  0.4578  0.1382
 2213SOL     hw 8850   3.210   5.461   2.956 -1.6306 -1.0053 -0.1779
 2213SOL     hw 8851   3.289   5.366   2.869 -0.8733  0.2160 -0.8560
 2213SOL     vw 8852   3.248   5.442   2.880 -0.6361  0.2327 -0.0348
 2214SOL     ow 8853   1.268   1.753   1.003 -0.7813 -0.3872  0.1252
 2214SOL     hw 8854   1.356   1.769   1.039  0.2336 -2.1616 -1.4141
 2214SOL     hw 8855   1.211   1.751   1.080  0.7130 -0.3425  1.2791
 2214SOL     vw 8856   1.272   1.755   1.018 -0.4503 -0.6155  0.0743
 2215SOL     ow 8857   2.126   5.154   6.761 -0.5789  0.3511 -0.5739
 2215SOL     hw 8858   2.072   5.098   6.817  1.3856  0.6153  1.7306
 2215SOL     hw 8859   2.115   5.242   6.796  3.3907  0.0994  2.0155
 2215SOL     vw 8860   2.118   5.158   6.773  0.2041  0.3531  0.0718
 2216SOL     ow 8861   2.026   0.697   3.348 -0.6439 -0.2083  0.2621
 2216SOL     hw 8862   1.958   0.761   3.368 -0.1378  0.1940  0.7731
 2216SOL     hw 8863   2.090   0.709   3.418  0.4769  0.1749 -0.7933
 2216SOL     vw 8864   2.026   0.707   3.360 -0.4292 -0.1047  0.1903
 2217SOL     ow 8865   5.170   7.252   7.350 -0.2939  0.0278 -0.0791
 2217SOL     hw 8866   5.233   7.188   7.317  0.0307 -0.3309  1.1426
 2217SOL     hw 8867   5.214   7.336   7.340 -0.1086 -0.0997 -0.3405
 2217SOL     vw 8868   5.184   7.254   7.345 -0.2267 -0.0362  0.0477
 2218SOL     ow 8869   0.369   0.983   1.994 -0.1802  0.1443 -0.1178
 2218SOL     hw 8870   0.331   0.976   1.906 -1.1561  1.7563  0.1414
 2218SOL     hw 8871   0.297   0.962   2.053  0.1639  0.2086  0.3274
 2218SOL     vw 8872   0.354   0.979   1.990 -0.2636  0.3655 -0.0248
 2219SOL     ow 8873   7.047   1.760   7.249 -0.3922  0.1185 -0.4960
 2219SOL     hw 8874   7.130   1.807   7.261 -1.6291  2.2761  0.1926
 2219SOL     hw 8875   6.981   1.829   7.241 -2.1312 -1.5209 -1.2675
 2219SOL     vw 8876   7.049   1.775   7.249 -0.7851  0.1869 -0.5069
 2220SOL     ow 8877   4.923   4.628   6.671  0.4725 -0.3065 -0.7764
 2220SOL     hw 8878   4.849   4.626   6.610 -1.2063 -1.0995  1.1624
 2220SOL     hw 8879   5.000   4.639   6.615 -1.0369 -0.0661 -2.9333
 2220SOL     vw 8880   4.923   4.629   6.655  0.0520 -0.3793 -0.8054
 2221SOL     ow 8881   7.406   7.014   3.420  0.3829 -0.8052  0.1465
 2221SOL     hw 8882   7.428   7.070   3.494  0.5313 -0.0260 -0.4660
 2221SOL     hw 8883   7.313   7.029   3.405  0.5312 -0.3217 -0.3319
 2221SOL     vw 8884   7.397   7.023   3.427  0.4220 -0.6385  0.0026
 2222SOL     ow 8885   6.738   6.305   0.851  0.5879 -0.5457 -0.3681
 2222SOL     hw 8886   6.672   6.297   0.920 -1.4462 -2.1312 -2.3356
 2222SOL     hw 8887   6.811   6.251   0.882 -0.6952 -2.0867  0.1544
 2222SOL     vw 8888   6.739   6.296   0.865  0.1502 -0.9582 -0.5588
 2223SOL     ow 8889   2.221   2.249   6.647  0.1904 -0.2584 -0.3321
 2223SOL     hw 8890   2.250   2.189   6.578  0.3902 -0.9685  0.3527
 2223SOL     hw 8891   2.126   2.252   6.639  0.2030 -0.4393 -0.5487
 2223SOL     vw 8892   2.212   2.242   6.637  0.2184 -0.3760 -0.2701
 2224SOL     ow 8893   7.007   5.155   0.800  0.0936 -0.4674  0.2252
 2224SOL     hw 8894   7.091   5.161   0.844  0.2256 -1.0421  0.0693
 2224SOL     hw 8895   6.952   5.222   0.842  0.0156 -1.4106  1.7155
 2224SOL     vw 8896   7.011   5.164   0.812  0.1006 -0.6676  0.4013
 2225SOL     ow 8897   3.743   1.497   6.320 -0.0774  0.5708  0.5088
 2225SOL     hw 8898   3.797   1.487   6.242 -1.2728  0.7955 -0.3593
 2225SOL     hw 8899   3.790   1.563   6.372  0.8719  0.2135  0.1358
 2225SOL     vw 8900   3.756   1.504   6.317 -0.1099  0.5533  0.3452
 2226SOL     ow 8901   1.784   6.550   1.840 -0.3424 -0.8912 -0.4447
 2226SOL     hw 8902   1.858   6.518   1.789 -0.9718 -0.6555 -1.5510
 2226SOL     hw 8903   1.714   6.562   1.775 -1.4867 -1.5365  0.6180
 2226SOL     vw 8904   1.784   6.547   1.825 -0.5764 -0.9453 -0.4504
 2227SOL     ow 8905   3.622   0.499   1.584  0.5003 -0.3630 -0.2675
 2227SOL     hw 8906   3.634   0.536   1.496  0.5413  0.2139 -0.0222
 2227SOL     hw 8907   3.536   0.530   1.612  1.2168  0.9193  0.5967
 2227SOL     vw 8908   3.612   0.508   1.576  0.6001 -0.1177 -0.1211
 2228SOL     ow 8909   2.634   3.548   1.846 -0.4565  0.5238  0.2353
 2228SOL     hw 8910   2.575   3.477   1.872  0.9687 -0.5275  0.7522
 2228SOL     hw 8911   2.579   3.626   1.846 -1.9441 -0.4855  0.2186
 2228SOL     vw 8912   2.619   3.549   1.850 -0.4647  0.2519  0.3012
 2229SOL     ow 8913   7.447   5.665   2.283 -0.6061  0.3991 -0.3558
 2229SOL     hw 8914   7.481   5.697   2.367  0.1919  1.6300 -1.1134
 2229SOL     hw 8915   7.362   5.709   2.273 -1.0941 -0.3883  0.1614
 2229SOL     vw 8916   7.440   5.675   2.293 -0.5652  0.4578 -0.3874
 2230SOL     ow 8917   6.157   7.368   7.219  0.1701  0.2346 -0.3788
 2230SOL     hw 8918   6.153   7.424   7.297  2.5221 -0.4371  0.3163
 2230SOL     hw 8919   6.174   7.429   7.147 -0.1288  0.6874 -0.0712
 2230SOL     vw 8920   6.159   7.383   7.220  0.4408  0.2060 -0.2468
 2231SOL     ow 8921   3.718   4.091   0.890 -0.3797  0.1318  0.3055
 2231SOL     hw 8922   3.814   4.092   0.900 -0.0276 -0.7496 -2.2091
 2231SOL     hw 8923   3.695   4.183   0.878  0.4393  0.2088 -0.8738
 2231SOL     vw 8924   3.728   4.103   0.890 -0.2252  0.0260 -0.1819
 2232SOL     ow 8925   6.631   5.311   6.734  0.3737  0.3730  0.0268
 2232SOL     hw 8926   6.719   5.280   6.716  0.8260  2.2252 -1.2510
 2232SOL     hw 8927   6.597   5.338   6.648 -0.1439  2.7960  0.9096
 2232SOL     vw 8928   6.638   5.311   6.720  0.3653  0.9372 -0.0253
 2233SOL     ow 8929   4.599   6.728   0.454 -0.1405  0.4363  0.5379
 2233SOL     hw 8930   4.573   6.770   0.536  0.0108 -0.7133  1.2006
 2233SOL     hw 8931   4.627   6.640   0.480  1.5057  0.5957 -0.5457
 2233SOL     vw 8932   4.599   6.722   0.468  0.0966  0.3057  0.4824
 2234SOL     ow 8933   2.271   1.623   0.961  0.1392 -0.0711 -0.2874
 2234SOL     hw 8934   2.271   1.604   0.867  0.1999  0.6627 -0.4382
 2234SOL     hw 8935   2.260   1.718   0.966  2.0535  0.1383  0.4081
 2234SOL     vw 8936   2.269   1.633   0.949  0.3998  0.0533 -0.2156
 2235SOL     ow 8937   2.969   2.289   0.848 -0.0051  0.2944  0.1681
 2235SOL     hw 8938   2.967   2.355   0.917 -2.4421 -1.1313  1.6075
 2235SOL     hw 8939   2.888   2.239   0.861  2.5839 -4.3100  0.5629
 2235SOL     vw 8940   2.958   2.291   0.859  0.0150 -0.5013  0.4101
 2236SOL     ow 8941   5.389   6.374   1.539 -0.2526 -0.1977  0.3932
 2236SOL     hw 8942   5.430   6.378   1.625 -0.5467  2.7077  0.4780
 2236SOL     hw 8943   5.454   6.413   1.480 -1.0158  0.0634 -0.2881
 2236SOL     vw 8944   5.403   6.380   1.542 -0.3920  0.2201  0.3145
 2237SOL     ow 8945   6.144   4.999   0.104  0.1922 -1.0611  0.3695
 2237SOL     hw 8946   6.223   5.027   0.151  1.3124 -3.0078 -0.2418
 2237SOL     hw 8947   6.103   5.081   0.076  0.6941  0.0986  2.7197
 2237SOL     vw 8948   6.149   5.013   0.107  0.4063 -1.1652  0.5989
 2238SOL     ow 8949   2.301   5.027   4.748 -0.3433 -0.0007 -0.3831
 2238SOL     hw 8950   2.218   5.005   4.789  1.0486 -2.3714  1.4710
 2238SOL     hw 8951   2.346   5.082   4.812  0.9040 -1.7386  0.2912
 2238SOL     vw 8952   2.296   5.031   4.762  0.0048 -0.5426 -0.0494
 2239SOL     ow 8953   7.178   7.089   6.711 -0.0714  0.6596  0.5039
 2239SOL     hw 8954   7.192   7.179   6.740 -2.1700  1.6674 -1.3335
 2239SOL     hw 8955   7.088   7.069   6.736  0.0193 -0.5443 -0.0696
 2239SOL     vw 8956   7.168   7.098   6.718 -0.3362  0.6335  0.1860
 2240SOL     ow 8957   0.404   2.670   1.904 -0.0838  0.2178  0.5888
 2240SOL     hw 8958   0.387   2.590   1.855  0.8271 -0.2406  0.9780
 2240SOL     hw 8959   0.437   2.732   1.838 -3.2225  1.1896 -0.2018
 2240SOL     vw 8960   0.406   2.667   1.889 -0.3778  0.2856  0.5358
 2241SOL     ow 8961   0.841   2.869   5.011  0.3944 -0.0856  0.0706
 2241SOL     hw 8962   0.816   2.943   4.955 -2.2959 -0.5792  0.4618
 2241SOL     hw 8963   0.830   2.792   4.955  0.2239 -0.3930  0.5213
 2241SOL     vw 8964   0.836   2.868   4.996  0.0170 -0.1913  0.1814
 2242SOL     ow 8965   0.009   6.945   1.825 -0.0179 -0.0914  0.2028
 2242SOL     hw 8966  -0.005   7.030   1.782  0.3184  0.1765  0.6198
 2242SOL     hw 8967  -0.079   6.918   1.853 -0.3884 -0.6590 -1.3477
 2242SOL     vw 8968  -0.005   6.952   1.823 -0.0224 -0.1309  0.0532
 2243SOL     ow 8969   5.853   4.195   6.712  0.3204 -0.1950  0.0830
 2243SOL     hw 8970   5.899   4.121   6.673 -0.3334 -0.7895  0.4123
 2243SOL     hw 8971   5.760   4.171   6.706  0.1280  0.3851  0.6229
 2243SOL     vw 8972   5.847   4.182   6.706  0.2089 -0.1967  0.1976
 2244SOL     ow 8973   0.858   6.075   2.844  0.4148 -0.0567  0.2843
 2244SOL     hw 8974   0.905   6.136   2.902  2.8638 -1.9394  0.4200
 2244SOL     hw 8975   0.816   6.013   2.904  0.2788 -0.1559  0.0869
 2244SOL     vw 8976   0.858   6.075   2.860  0.7200 -0.3183  0.2762
 2245SOL     ow 8977   2.107   5.407   6.925 -0.1018 -0.2599  0.4903
 2245SOL     hw 8978   2.102   5.502   6.928  2.4747 -0.0605  0.5354
 2245SOL     hw 8979   2.149   5.382   7.008 -0.0949 -1.3817  0.1726
 2245SOL     vw 8980   2.112   5.416   6.936  0.2391 -0.3817  0.4544
 2246SOL     ow 8981   6.578   5.477   0.652 -0.0410  0.8316  0.5334
 2246SOL     hw 8982   6.602   5.494   0.560 -1.2268  0.8399  0.2158
 2246SOL     hw 8983   6.580   5.382   0.659  0.2299  0.8370  0.5549
 2246SOL     vw 8984   6.582   5.467   0.640 -0.1619  0.8333  0.4943
 2247SOL     ow 8985   5.599   5.439   6.698 -0.3551 -0.3384 -0.9288
 2247SOL     hw 8986   5.664   5.509   6.692  0.9589 -1.5829 -1.7959
 2247SOL     hw 8987   5.517   5.484   6.720  0.4985  1.4213 -1.2012
 2247SOL     vw 8988   5.597   5.455   6.700 -0.0694 -0.2704 -1.0793
 2248SOL     ow 8989   0.023   5.378   0.572 -0.5977  0.1175 -0.1780
 2248SOL     hw 8990   0.097   5.358   0.515  0.0439 -1.0245  1.0134
 2248SOL     hw 8991  -0.039   5.425   0.515  0.8452  0.7389 -1.2881
 2248SOL     vw 8992   0.024   5.382   0.557 -0.3226  0.0489 -0.1673
 2249SOL     ow 8993   6.772   4.536   7.379  0.5501  0.1821  0.0174
 2249SOL     hw 8994   6.831   4.512   7.451 -1.1509 -1.1141  1.0455
 2249SOL     hw 8995   6.703   4.470   7.382 -0.8105  1.4788 -1.3242
 2249SOL     vw 8996   6.771   4.524   7.389  0.1462  0.1822 -0.0238
 2250SOL     ow 8997   0.654   4.106   6.063 -0.0585 -0.1245 -0.4356
 2250SOL     hw 8998   0.638   4.013   6.080  0.8525 -0.1970  0.0914
 2250SOL     hw 8999   0.597   4.128   5.990 -0.6369 -0.9813 -0.2457
 2250SOL     vw 9000   0.645   4.097   6.056 -0.0146 -0.2470 -0.3412
 2251SOL     ow 9001   5.663   7.277   3.415  0.5535 -0.1066  0.0516
 2251SOL     hw 9002   5.661   7.333   3.337 -0.3062  0.9825  0.8185
 2251SOL     hw 9003   5.723   7.321   3.475 -0.5025  0.2859  0.8517
 2251SOL     vw 9004   5.671   7.290   3.413  0.3009  0.0885  0.2582
 2252SOL     ow 9005   2.924   6.722   5.163  0.0401 -0.4514  0.3621
 2252SOL     hw 9006   2.899   6.761   5.079 -3.1620  1.0854  1.8624
 2252SOL     hw 9007   2.842   6.713   5.211  1.6131 -2.2884  2.9737
 2252SOL     vw 9008   2.910   6.726   5.158 -0.1749 -0.4909  0.9046
 2253SOL     ow 9009   6.483   3.871   7.220 -0.1772  0.0878  0.0275
 2253SOL     hw 9010   6.511   3.958   7.249 -0.2325 -0.2506  1.1258
 2253SOL     hw 9011   6.565   3.825   7.200 -0.0972  0.0554  0.4307
 2253SOL     vw 9012   6.498   3.877   7.221 -0.1740  0.0389  0.2255
 2254SOL     ow 9013   1.843   3.072   5.081 -0.0167  0.0383  0.4849
 2254SOL     hw 9014   1.882   3.158   5.064  0.5627  0.1847  2.3361
 2254SOL     hw 9015   1.750   3.083   5.061 -0.0082  1.2254  1.0164
 2254SOL     vw 9016   1.836   3.085   5.076  0.0609  0.2142  0.7997
 2255SOL     ow 9017   3.201   5.283   1.944  0.0261  0.7754 -0.1553
 2255SOL     hw 9018   3.222   5.373   1.970  0.3357  0.9894 -1.0939
 2255SOL     hw 9019   3.178   5.290   1.851 -0.9030  0.0264  0.0072
 2255SOL     vw 9020   3.201   5.296   1.935 -0.0556  0.7045 -0.2577
 2256SOL     ow 9021   5.149   1.310   5.362  0.0219 -0.7510  0.1418
 2256SOL     hw 9022   5.209   1.282   5.432 -0.1742  0.7299  0.9366
 2256SOL     hw 9023   5.204   1.315   5.284  0.6780 -0.5995  0.6032
 2256SOL     vw 9024   5.164   1.307   5.361  0.0825 -0.5356  0.3076
 2257SOL     ow 9025   4.730   2.304   1.095 -0.2822  0.1732 -0.4420
 2257SOL     hw 9026   4.664   2.316   1.028 -0.9654  1.1731  0.3816
 2257SOL     hw 9027   4.801   2.257   1.051 -1.0077  0.1813 -1.6552
 2257SOL     vw 9028   4.731   2.299   1.081 -0.4680  0.3062 -0.4933
 2258SOL     ow 9029   6.560   5.453   2.241 -0.4061 -0.3112 -0.2887
 2258SOL     hw 9030   6.487   5.481   2.186 -0.4501 -0.0991 -0.1235
 2258SOL     hw 9031   6.525   5.381   2.292 -1.5622  1.8522  2.2265
 2258SOL     vw 9032   6.546   5.447   2.240 -0.5643  0.0021  0.0650
 2259SOL     ow 9033   0.402   6.569   5.559 -0.1661 -0.2638 -0.5764
 2259SOL     hw 9034   0.446   6.518   5.626  1.7274  0.9325 -0.8189
 2259SOL     hw 9035   0.421   6.523   5.477 -1.6212 -1.1734 -0.4197
 2259SOL     vw 9036   0.411   6.556   5.557 -0.1082 -0.2260 -0.5879
 2260SOL     ow 9037   5.336   3.719   0.282 -0.0430 -0.2373 -0.1900
 2260SOL     hw 9038   5.299   3.801   0.315 -1.1063 -1.5595  2.2535
 2260SOL     hw 9039   5.425   3.716   0.319  0.3966  0.2808 -1.1823
 2260SOL     vw 9040   5.343   3.729   0.291 -0.1252 -0.3434  0.0014
 2261SOL     ow 9041   6.075   5.883   1.288 -0.5401 -0.0873 -0.5871
 2261SOL     hw 9042   6.108   5.922   1.208 -1.1817  1.4538 -0.1308
 2261SOL     hw 9043   6.026   5.806   1.259 -0.4564  0.2512 -1.6390
 2261SOL     vw 9044   6.073   5.878   1.274 -0.6137  0.1607 -0.6657
 2262SOL     ow 9045   3.451   7.102   0.437  0.2429 -0.0167  0.2971
 2262SOL     hw 9046   3.481   7.012   0.433  1.2452  0.3212 -0.0644
 2262SOL     hw 9047   3.532   7.154   0.438 -0.2307  0.8067  2.7632
 2262SOL     vw 9048   3.466   7.097   0.437  0.3127  0.1364  0.5748
 2263SOL     ow 9049   1.801   4.206   5.478 -0.1222  0.1044 -0.2527
 2263SOL     hw 9050   1.847   4.216   5.395 -0.6107  0.6302 -0.4682
 2263SOL     hw 9051   1.713   4.176   5.453 -0.4640  0.8525  0.0286
 2263SOL     vw 9052   1.796   4.203   5.464 -0.2317  0.2725 -0.2441
 2264SOL     ow 9053   6.224   4.543   7.010  0.0601  0.3445  0.2476
 2264SOL     hw 9054   6.167   4.476   6.972  0.9054 -1.2633  1.6788
 2264SOL     hw 9055   6.308   4.530   6.967  0.0425  1.0235 -0.0108
 2264SOL     vw 9056   6.228   4.533   7.000  0.1695  0.2220  0.4022
 2265SOL     ow 9057   2.732   0.029   1.653 -0.3958 -0.6354 -0.2391
 2265SOL     hw 9058   2.669   0.072   1.596 -0.8264 -1.8947 -0.7506
 2265SOL     hw 9059   2.724   0.074   1.737 -1.7279 -0.5389 -0.3939
 2265SOL     vw 9060   2.723   0.040   1.657 -0.6284 -0.7888 -0.3270
 2266SOL     ow 9061   1.299   0.459   6.379  0.4413  0.3896  0.0383
 2266SOL     hw 9062   1.371   0.518   6.400  0.1022  0.6608  0.4530
 2266SOL     hw 9063   1.306   0.445   6.285  0.5747  1.0258 -0.0475
 2266SOL     vw 9064   1.309   0.465   6.370  0.4142  0.5093  0.0815
 2267SOL     ow 9065   4.919   3.588   3.951 -0.2865 -0.1865  0.1593
 2267SOL     hw 9066   4.859   3.594   3.876 -1.4776  1.5397  1.1755
 2267SOL     hw 9067   4.864   3.610   4.026  1.3979  0.3028  1.2842
 2267SOL     vw 9068   4.904   3.592   3.951 -0.2213  0.1057  0.4418
 2268SOL     ow 9069   2.036   5.322   5.378 -0.3518  0.5249  0.1526
 2268SOL     hw 9070   2.061   5.236   5.412 -1.8622 -0.0332 -0.0445
 2268SOL     hw 9071   2.103   5.342   5.313  0.5990 -0.0204  0.9386
 2268SOL     vw 9072   2.048   5.313   5.374 -0.4257  0.3793  0.2303
 2269SOL     ow 9073   3.378   0.565   3.881 -0.1074  0.0673 -0.9636
 2269SOL     hw 9074   3.460   0.553   3.930 -0.6853 -2.7194 -0.4748
 2269SOL     hw 9075   3.316   0.598   3.947  0.3257  1.1010 -1.0619
 2269SOL     vw 9076   3.380   0.568   3.896 -0.1265 -0.1640 -0.9121
 2270SOL     ow 9077   2.586   4.181   5.597  0.0738  0.5847  0.5051
 2270SOL     hw 9078   2.557   4.094   5.570  0.8088  0.6982 -0.6662
 2270SOL     hw 9079   2.615   4.169   5.688  2.6410 -0.9875 -0.4361
 2270SOL     vw 9080   2.586   4.168   5.606  0.5096  0.3924  0.2267
 2271SOL     ow 9081   4.774   1.682   7.092 -0.0908  0.4639  0.4294
 2271SOL     hw 9082   4.753   1.746   7.160  0.1150  1.4068 -0.3708
 2271SOL     hw 9083   4.690   1.643   7.068 -0.2389  0.5568  0.8020
 2271SOL     vw 9084   4.760   1.685   7.097 -0.0832  0.6006  0.3731
 2272SOL     ow 9085   0.923   5.151   4.318 -0.7780  0.7401 -0.5536
 2272SOL     hw 9086   0.982   5.166   4.392 -0.5772 -1.3493 -0.2098
 2272SOL     hw 9087   0.967   5.190   4.243  0.1959  0.7575  0.0097
 2272SOL     vw 9088   0.937   5.158   4.318 -0.6230  0.4666 -0.4342
 2273SOL     ow 9089   0.366   4.393   3.597  0.2853 -0.7699  0.7802
 2273SOL     hw 9090   0.412   4.476   3.605  2.7567 -1.8817 -0.7022
 2273SOL     hw 9091   0.388   4.362   3.509 -2.0858 -2.1555  0.6011
 2273SOL     vw 9092   0.375   4.400   3.586  0.2985 -1.0993  0.5610
 2274SOL     ow 9093   4.394   0.189   2.257 -0.3577  0.8536  0.1452
 2274SOL     hw 9094   4.356   0.270   2.292  0.6423  0.3701  2.5399
 2274SOL     hw 9095   4.335   0.120   2.288  0.2292  0.4655  0.4249
 2274SOL     vw 9096   4.381   0.191   2.266 -0.1481  0.7386  0.4979
 2275SOL     ow 9097   5.746   0.620   4.556  0.1621 -0.3244  0.1028
 2275SOL     hw 9098   5.741   0.716   4.558  0.3625 -0.2855 -0.9439
 2275SOL     hw 9099   5.813   0.598   4.620  0.8863  0.3047 -0.4173
 2275SOL     vw 9100   5.754   0.630   4.565  0.2842 -0.2363 -0.1040
 2276SOL     ow 9101   5.474   3.116   2.974  0.1564 -0.5426  0.2549
 2276SOL     hw 9102   5.522   3.145   2.896  0.4911  2.0296  1.3072
 2276SOL     hw 9103   5.541   3.086   3.035  0.0126 -1.1783  0.1103
 2276SOL     vw 9104   5.489   3.116   2.972  0.1814 -0.2871  0.3747
 2277SOL     ow 9105   2.917   5.226   6.854  0.6289  0.0537 -0.0050
 2277SOL     hw 9106   2.985   5.159   6.846  0.5581 -0.1177  0.6912
 2277SOL     hw 9107   2.935   5.288   6.784  0.3631 -0.9813 -1.0199
 2277SOL     vw 9108   2.928   5.225   6.844  0.5845 -0.1056 -0.0472
 2278SOL     ow 9109   1.609   1.598   0.498 -0.1572 -0.2933  0.0809
 2278SOL     hw 9110   1.623   1.683   0.456 -1.0626  0.0672  0.4872
 2278SOL     hw 9111   1.694   1.576   0.537 -0.0174  0.6083  0.3032
 2278SOL     vw 9112   1.622   1.606   0.497 -0.2582 -0.1268  0.1638
 2279SOL     ow 9113   7.344   5.521   0.322  0.0318  0.2141 -0.5179
 2279SOL     hw 9114   7.259   5.545   0.359  0.6502  1.6626  0.0135
 2279SOL     hw 9115   7.336   5.427   0.304 -0.9899 -0.1179  1.3847
 2279SOL     vw 9116   7.331   5.512   0.324 -0.0215  0.3614 -0.1968
 2280SOL     ow 9117   2.427   2.884   2.243  0.2140  0.1522  0.8630
 2280SOL     hw 9118   2.382   2.829   2.179  0.3551  0.1076  0.8022
 2280SOL     hw 9119   2.484   2.940   2.191 -0.7258  1.1081  0.8424
 2280SOL     vw 9120   2.428   2.884   2.228  0.1085  0.2726  0.8522
 2281SOL     ow 9121   3.437   0.866   2.142 -0.6771 -0.3804 -0.1817
 2281SOL     hw 9122   3.525   0.838   2.170 -1.4306 -3.7804 -0.7278
 2281SOL     hw 9123   3.444   0.874   2.047 -1.0872 -1.5002 -0.3280
 2281SOL     vw 9124   3.450   0.863   2.133 -0.8307 -0.9767 -0.2730
 2282SOL     ow 9125   3.199   4.820   4.956 -0.3144  0.1541 -0.3214
 2282SOL     hw 9126   3.195   4.897   4.900  2.0073  1.2453  0.8506
 2282SOL     hw 9127   3.261   4.762   4.913 -1.1839 -0.5671 -0.6198
 2282SOL     vw 9128   3.207   4.823   4.943 -0.1229  0.2029 -0.2062
 2283SOL     ow 9129   2.917   5.324   4.916 -0.2291  0.4354  0.3675
 2283SOL     hw 9130   2.869   5.335   4.998 -2.2993  0.5090 -0.7838
 2283SOL     hw 9131   2.886   5.396   4.861  1.3984  0.6006 -0.3828
 2283SOL     vw 9132   2.906   5.335   4.920 -0.2875  0.4668  0.1168
 2284SOL     ow 9133   4.589   6.754   1.430  0.5909 -0.6742 -0.1675
 2284SOL     hw 9134   4.542   6.673   1.408 -0.7041 -0.2966  1.1257
 2284SOL     hw 9135   4.532   6.824   1.399  0.9809 -0.2289  0.1133
 2284SOL     vw 9136   4.575   6.752   1.423  0.4714 -0.5658  0.0402
 2285SOL     ow 9137   3.331   2.418   0.326  0.4420  0.0670 -0.5604
 2285SOL     hw 9138   3.277   2.387   0.254 -0.8567  0.3778  0.2465
 2285SOL     hw 9139   3.416   2.439   0.286 -0.4289  0.7981 -2.0875
 2285SOL     vw 9140   3.335   2.416   0.311  0.1557  0.2046 -0.6554
 2286SOL     ow 9141   1.357   3.352   1.159 -0.1164 -0.2420  0.1879
 2286SOL     hw 9142   1.281   3.377   1.212  0.9115 -0.3776  1.7886
 2286SOL     hw 9143   1.384   3.433   1.116 -2.0497 -0.4873 -1.6657
 2286SOL     vw 9144   1.350   3.366   1.161 -0.2360 -0.2923  0.1546
 2287SOL     ow 9145   1.807   6.219   4.674  0.1855  0.0442 -0.5341
 2287SOL     hw 9146   1.900   6.242   4.673 -0.0427  1.0575  0.3199
 2287SOL     hw 9147   1.800   6.149   4.739  0.1779  0.8150  0.3101
 2287SOL     vw 9148   1.818   6.212   4.682  0.1544  0.2799 -0.3102
 2288SOL     ow 9149   7.302   6.895   3.845  0.1825  0.2368 -0.4557
 2288SOL     hw 9150   7.277   6.974   3.796 -1.1305 -0.1825 -0.4869
 2288SOL     hw 9151   7.285   6.917   3.936  1.7647  0.6947 -0.2480
 2288SOL     vw 9152   7.297   6.909   3.850  0.2182  0.2420 -0.4324
 2289SOL     ow 9153   0.261   4.156   2.651 -0.1222 -0.4777 -0.4112
 2289SOL     hw 9154   0.190   4.156   2.716 -0.3278  1.3715 -0.5861
 2289SOL     hw 9155   0.340   4.171   2.703  0.0707 -1.7708 -0.3040
 2289SOL     vw 9156   0.262   4.158   2.667 -0.1239 -0.4044 -0.4200
 2290SOL     ow 9157   1.801   1.572   2.225 -0.0659 -0.0725 -0.3066
 2290SOL     hw 9158   1.787   1.646   2.167  0.7361  0.5215  0.2270
 2290SOL     hw 9159   1.876   1.525   2.188  0.5674  0.4142  0.3254
 2290SOL     vw 9160   1.809   1.575   2.213  0.1234  0.0700 -0.1528
 2291SOL     ow 9161   2.432   4.838   4.893 -0.4734  0.2857 -0.5450
 2291SOL     hw 9162   2.381   4.904   4.846 -0.8368 -0.0931 -0.6937
 2291SOL     hw 9163   2.375   4.811   4.965  0.1570  0.9974  0.2336
 2291SOL     vw 9164   2.418   4.843   4.896 -0.4381  0.3295 -0.4616
 2292SOL     ow 9165   1.961   5.854   6.111  0.1722 -0.0311  0.0340
 2292SOL     hw 9166   1.874   5.828   6.143 -0.0667 -0.5290 -0.9674
 2292SOL     hw 9167   2.016   5.778   6.128  0.1650 -0.0989 -0.2319
 2292SOL     vw 9168   1.957   5.840   6.117  0.1397 -0.1056 -0.1333
 2293SOL     ow 9169   0.846   5.016   5.423 -0.1685  0.1278 -0.6751
 2293SOL     hw 9170   0.898   4.972   5.491  1.1107  0.1489 -1.5970
 2293SOL     hw 9171   0.758   4.979   5.432 -0.5798  1.5917  2.2856
 2293SOL     vw 9172   0.841   5.005   5.433 -0.0540  0.3238 -0.4063
 2294SOL     ow 9173   4.420   2.536   4.777 -0.0883 -0.6301 -0.3607
 2294SOL     hw 9174   4.505   2.492   4.767 -0.3935 -1.3006 -0.0770
 2294SOL     hw 9175   4.380   2.530   4.690  0.3798  0.1868 -0.6447
 2294SOL     vw 9176   4.426   2.529   4.764 -0.0668 -0.6107 -0.3607
 2295SOL     ow 9177   5.737   1.013   0.354  0.2564 -0.2122 -0.1492
 2295SOL     hw 9178   5.821   0.971   0.372  0.1572 -0.2975  0.1270
 2295SOL     hw 9179   5.673   0.957   0.399  0.1159  0.1907  0.1555
 2295SOL     vw 9180   5.739   1.000   0.362  0.2246 -0.1702 -0.0725
 2296SOL     ow 9181   5.039   0.138   6.762 -0.5553  0.2936  0.3324
 2296SOL     hw 9182   5.057   0.232   6.763 -0.0694  0.2642  2.9751
 2296SOL     hw 9183   5.012   0.118   6.852 -0.0102 -2.2081  0.0181
 2296SOL     vw 9184   5.038   0.148   6.774 -0.4194 -0.0404  0.6394
 2297SOL     ow 9185   2.868   2.859   3.034 -0.3255  0.7778 -0.2086
 2297SOL     hw 9186   2.919   2.778   3.033 -1.0982  0.2810 -1.8006
 2297SOL     hw 9187   2.876   2.891   3.124  0.5124 -0.7228  0.2836
 2297SOL     vw 9188   2.876   2.853   3.046 -0.3170  0.5144 -0.3537
 2298SOL     ow 9189   4.426   5.544   0.962  0.3752 -0.0571 -0.0090
 2298SOL     hw 9190   4.362   5.480   0.932 -0.3679  0.0081  1.3241
 2298SOL     hw 9191   4.479   5.497   1.027 -1.8098  1.2252  2.9308
 2298SOL     vw 9192   4.425   5.530   0.967 -0.0112  0.1206  0.5547
 2299SOL     ow 9193   4.111   2.645   2.413 -0.2464  0.4007 -0.0872
 2299SOL     hw 9194   4.092   2.733   2.381 -1.3553  0.9064  1.7967
 2299SOL     hw 9195   4.193   2.620   2.369  0.3663  2.5695 -0.2807
 2299SOL     vw 9196   4.120   2.653   2.403 -0.3119  0.7536  0.1358
 2300SOL     ow 9197   1.403   0.679   4.885  0.2657  0.0997 -0.4767
 2300SOL     hw 9198   1.440   0.708   4.969 -0.3310  0.0969 -0.2135
 2300SOL     hw 9199   1.309   0.672   4.901  0.3198 -1.4595 -0.6955
 2300SOL     vw 9200   1.396   0.682   4.898  0.1942 -0.1063 -0.4711
 2301SOL     ow 9201   3.316   5.754   2.874 -0.2490  0.0783  0.2014
 2301SOL     hw 9202   3.257   5.692   2.832  0.5723  0.8371 -2.2430
 2301SOL     hw 9203   3.397   5.704   2.888  0.0565  0.2735 -0.7846
 2301SOL     vw 9204   3.319   5.739   2.870 -0.1003  0.2041 -0.2512
 2302SOL     ow 9205   7.419   5.241   1.675  0.3618 -0.5305  0.7572
 2302SOL     hw 9206   7.385   5.160   1.714 -3.6825  0.5491 -0.0460
 2302SOL     hw 9207   7.355   5.263   1.607  2.6092  2.1286 -0.6937
 2302SOL     vw 9208   7.406   5.233   1.671  0.1247 -0.0372  0.4598
 2303SOL     ow 9209   0.829   1.225   4.789  0.1375 -0.2968 -0.0848
 2303SOL     hw 9210   0.736   1.203   4.795  0.3125 -0.6424  1.8030
 2303SOL     hw 9211   0.856   1.241   4.879  2.3073 -1.9436 -0.3551
 2303SOL     vw 9212   0.820   1.224   4.802  0.4469 -0.5596  0.1285
 2304SOL     ow 9213   6.917   7.201   1.356 -0.0155 -0.2222  0.6835
 2304SOL     hw 9214   6.981   7.229   1.421  1.7223  0.1838 -1.1208
 2304SOL     hw 9215   6.865   7.280   1.338  1.9354  0.7365 -1.0834
 2304SOL     vw 9216   6.918   7.215   1.362  0.4714 -0.0422  0.2123
 2305SOL     ow 9217   5.307   4.227   2.657 -0.2296  0.2556  0.6998
 2305SOL     hw 9218   5.360   4.164   2.705  1.2111  1.1918  0.3777
 2305SOL     hw 9219   5.369   4.276   2.603 -1.5911  0.3453 -0.8886
 2305SOL     vw 9220   5.322   4.225   2.656 -0.2191  0.3910  0.4478
 2306SOL     ow 9221   5.368   0.714   1.571  0.2928 -0.2668 -0.0082
 2306SOL     hw 9222   5.288   0.683   1.613 -1.2984  1.0830 -1.8469
 2306SOL     hw 9223   5.428   0.639   1.575 -0.5058 -0.8628  2.6538
 2306SOL     vw 9224   5.366   0.700   1.577 -0.0224 -0.1673  0.1004
 2307SOL     ow 9225   1.850   4.820   7.323  0.1903 -0.2991  0.0738
 2307SOL     hw 9226   1.814   4.789   7.406 -0.8346  0.1003 -0.2047
 2307SOL     hw 9227   1.910   4.751   7.296 -0.1889 -0.8844  0.6795
 2307SOL     vw 9228   1.853   4.807   7.330  0.0051 -0.3235  0.1168
 2308SOL     ow 9229   6.320   1.586   5.269  0.6721  0.1283  0.7878
 2308SOL     hw 9230   6.321   1.492   5.288 -0.9725 -0.3395 -1.0440
 2308SOL     hw 9231   6.270   1.625   5.341 -2.7594 -1.1364 -0.6969
 2308SOL     vw 9232   6.314   1.579   5.281  0.0024 -0.1002  0.3502
 2309SOL     ow 9233   0.703   5.410   2.325  0.2983  0.2174  0.1079
 2309SOL     hw 9234   0.612   5.407   2.356  0.6281 -0.3555  1.0363
 2309SOL     hw 9235   0.715   5.327   2.278 -0.5285  1.5114 -2.6075
 2309SOL     vw 9236   0.692   5.399   2.323  0.2327  0.3126 -0.1280
 2310SOL     ow 9237   0.710   0.861   6.433  0.1371 -0.0354  0.1714
 2310SOL     hw 9238   0.730   0.814   6.352  0.1720 -0.4338  0.4063
 2310SOL     hw 9239   0.666   0.941   6.404 -3.0680 -1.7546 -0.1409
 2310SOL     vw 9240   0.707   0.865   6.418 -0.2812 -0.3148  0.1614
 2311SOL     ow 9241   3.253   0.213   2.126  0.2253  0.1805 -0.2793
 2311SOL     hw 9242   3.176   0.184   2.077  0.5590  0.7117 -1.1464
 2311SOL     hw 9243   3.305   0.261   2.062  0.0354  2.0795  0.9193
 2311SOL     vw 9244   3.250   0.215   2.111  0.2441  0.5011 -0.2354
 2312SOL     ow 9245   3.546   5.146   5.524 -0.4209  0.6251 -0.4017
 2312SOL     hw 9246   3.502   5.193   5.594 -0.6667  0.7545 -0.6438
 2312SOL     hw 9247   3.481   5.140   5.454 -0.9045 -1.2749  0.1251
 2312SOL     vw 9248   3.532   5.151   5.524 -0.5171  0.3915 -0.3641
 2313SOL     ow 9249   7.100   1.888   1.622  0.2082  0.0536  0.4526
 2313SOL     hw 9250   7.065   1.910   1.536 -1.2199 -2.7419  0.1904
 2313SOL     hw 9251   7.135   1.799   1.612  1.7684  0.3674  2.3141
 2313SOL     vw 9252   7.100   1.879   1.610  0.2255 -0.2739  0.6636
 2314SOL     ow 9253   0.906   1.640   0.206  0.4441 -0.0207  0.4199
 2314SOL     hw 9254   0.889   1.683   0.122 -0.1231  1.6536  1.3344
 2314SOL     hw 9255   0.857   1.558   0.201 -1.4588  1.0851 -0.0518
 2314SOL     vw 9256   0.897   1.635   0.194  0.1182  0.3462  0.4783
 2315SOL     ow 9257   0.036   4.522   7.297 -0.3971 -0.4444  0.1956
 2315SOL     hw 9258   0.125   4.491   7.277 -0.7441 -0.7495 -0.9426
 2315SOL     hw 9259  -0.021   4.465   7.246 -1.2491 -0.2023  0.8736
 2315SOL     vw 9260   0.040   4.511   7.287 -0.5553 -0.4528  0.1349
 2316SOL     ow 9261   1.264   6.668   4.662  0.3800 -0.0720 -0.3930
 2316SOL     hw 9262   1.253   6.752   4.616  0.4271  0.0939 -0.1070
 2316SOL     hw 9263   1.198   6.611   4.624 -0.0380  0.2712 -0.1884
 2316SOL     vw 9264   1.254   6.672   4.651  0.3310 -0.0048 -0.3283
 2317SOL     ow 9265   0.885   5.322   3.936 -0.7492  0.0717  0.1902
 2317SOL     hw 9266   0.943   5.397   3.950 -0.5997  0.5399 -2.4566
 2317SOL     hw 9267   0.944   5.246   3.938 -0.3690  0.3442 -0.3232
 2317SOL     vw 9268   0.900   5.322   3.938 -0.6793  0.1693 -0.2269
 2318SOL     ow 9269   4.847   2.827   2.022 -0.0530  0.3461 -0.4093
 2318SOL     hw 9270   4.812   2.784   2.100 -0.4610  0.4228 -0.5476
 2318SOL     hw 9271   4.899   2.760   1.979  1.3018  0.6846  0.6331
 2318SOL     vw 9272   4.849   2.813   2.027  0.0722  0.4007 -0.2900
 2319SOL     ow 9273   5.413   4.956   1.137  0.0382  0.1885  0.2520
 2319SOL     hw 9274   5.332   4.990   1.100  0.4462  2.3872  1.2282
 2319SOL     hw 9275   5.482   5.009   1.095  0.6821  0.8683  2.0773
 2319SOL     vw 9276   5.412   4.967   1.127  0.1771  0.5682  0.6216
 2320SOL     ow 9277   4.589   2.645   5.598 -0.0276 -0.1069  0.1147
 2320SOL     hw 9278   4.553   2.695   5.672  0.1526 -0.3765  0.3889
 2320SOL     hw 9279   4.565   2.554   5.617 -1.0413 -0.0460 -0.7809
 2320SOL     vw 9280   4.581   2.639   5.611 -0.1373 -0.1345  0.0327
 2321SOL     ow 9281   3.432   1.414   2.627  0.6909  0.0873 -0.1176
 2321SOL     hw 9282   3.477   1.436   2.545 -0.3274 -0.7781 -0.9335
 2321SOL     hw 9283   3.471   1.330   2.654  1.6764  0.8045  0.8136
 2321SOL     vw 9284   3.443   1.405   2.620  0.6865  0.0678 -0.1024
 2322SOL     ow 9285   2.865   4.390   2.870  0.5294 -0.1027  0.0819
 2322SOL     hw 9286   2.940   4.418   2.818  0.3754 -0.6752 -0.4597
 2322SOL     hw 9287   2.824   4.320   2.819 -1.2389  1.1912 -0.3713
 2322SOL     vw 9288   2.869   4.384   2.857  0.2757 -0.0074 -0.0492
 2323SOL     ow 9289   5.200   3.443   6.979  0.6566 -0.0568 -0.1844
 2323SOL     hw 9290   5.217   3.350   6.960 -1.7680 -0.6485  0.1898
 2323SOL     hw 9291   5.266   3.490   6.929  1.7642 -1.9657 -0.6328
 2323SOL     vw 9292   5.211   3.437   6.970  0.4828 -0.3866 -0.1943
 2324SOL     ow 9293   1.876   5.198   3.027  0.2695  0.1479 -0.9199
 2324SOL     hw 9294   1.893   5.291   3.013  2.0043 -0.0911 -0.6353
 2324SOL     hw 9295   1.830   5.194   3.112 -2.1922  0.8893 -2.1152
 2324SOL     vw 9296   1.872   5.210   3.037  0.1737  0.2141 -1.0401
 2325SOL     ow 9297   5.121   1.395   0.616 -0.4660  0.2942  0.3233
 2325SOL     hw 9298   5.035   1.401   0.657 -0.2237  1.0216  0.7478
 2325SOL     hw 9299   5.106   1.422   0.525 -1.0418 -1.5120 -0.1795
 2325SOL     vw 9300   5.108   1.399   0.609 -0.5102  0.1519  0.3129
 2326SOL     ow 9301   0.700   2.020   7.231  0.6208 -0.3312 -0.2742
 2326SOL     hw 9302   0.622   2.038   7.179  0.8207  0.8953 -0.1888
 2326SOL     hw 9303   0.742   1.946   7.188  0.8957  0.7762 -2.0099
 2326SOL     vw 9304   0.695   2.013   7.219  0.6835 -0.0232 -0.4921
 2327SOL     ow 9305   3.512   5.649   1.890 -0.3037 -0.3358  0.4013
 2327SOL     hw 9306   3.592   5.701   1.881  1.2464 -2.5156  0.9015
 2327SOL     hw 9307   3.476   5.646   1.801  0.6452 -0.0467 -0.0123
 2327SOL     vw 9308   3.518   5.656   1.877  0.0260 -0.5853  0.4128
 2328SOL     ow 9309   3.980   1.049   2.452  0.1378  0.2364 -0.6303
 2328SOL     hw 9310   3.895   1.081   2.481 -0.0326 -1.1583  0.5222
 2328SOL     hw 9311   3.995   1.093   2.369 -1.7379  0.4579 -0.8924
 2328SOL     vw 9312   3.971   1.059   2.445 -0.1321  0.0817 -0.5130
 2329SOL     ow 9313   4.457   7.397   1.188 -0.2480 -0.4928  0.1330
 2329SOL     hw 9314   4.493   7.483   1.209  0.7059 -1.1295  1.1872
 2329SOL     hw 9315   4.368   7.399   1.224 -0.0581 -0.1253  0.5928
 2329SOL     vw 9316   4.450   7.409   1.195 -0.0973 -0.5283  0.3328
 2330SOL     ow 9317   6.536   5.725   6.961 -0.7223  0.6415  0.4141
 2330SOL     hw 9318   6.549   5.666   7.035 -2.4132  0.3667  0.5359
 2330SOL     hw 9319   6.605   5.790   6.969  1.8565 -1.8069 -0.2757
 2330SOL     vw 9320   6.547   5.725   6.972 -0.6051  0.2823  0.3393
 2331SOL     ow 9321   6.704   0.626   0.295  0.1893  0.1138 -0.4310
 2331SOL     hw 9322   6.615   0.625   0.330  0.6514 -0.7259  0.8256
 2331SOL     hw 9323   6.750   0.560   0.347  1.1821 -0.5390 -2.0594
 2331SOL     vw 9324   6.698   0.617   0.307  0.3812 -0.0831 -0.4801
 2332SOL     ow 9325   0.507   3.229   6.908 -0.1134  0.8659  0.0381
 2332SOL     hw 9326   0.580   3.180   6.945 -0.6857 -0.1609 -0.1530
 2332SOL     hw 9327   0.530   3.242   6.816  0.4079  1.6900  0.2727
 2332SOL     vw 9328   0.520   3.224   6.901 -0.1201  0.8391  0.0441
 2333SOL     ow 9329   0.692   0.770   3.900 -0.5030 -0.1460 -0.3990
 2333SOL     hw 9330   0.752   0.797   3.831 -2.2131 -0.1155 -1.9568
 2333SOL     hw 9331   0.713   0.827   3.974  1.6452 -0.4386 -0.7111
 2333SOL     vw 9332   0.703   0.781   3.901 -0.4452 -0.1806 -0.6456
 2334SOL     ow 9333   5.369   5.552   1.836 -0.3784 -0.3872  0.2088
 2334SOL     hw 9334   5.331   5.605   1.906  1.0432  0.6263  0.2473
 2334SOL     hw 9335   5.379   5.465   1.874 -2.0785 -0.5564  0.3774
 2334SOL     vw 9336   5.365   5.548   1.850 -0.4151 -0.2761  0.2361
 2335SOL     ow 9337   2.817   6.332   0.247 -0.1846 -1.1164  0.5900
 2335SOL     hw 9338   2.891   6.276   0.223  0.9625 -0.1795  1.7236
 2335SOL     hw 9339   2.821   6.405   0.185 -0.0108 -0.9621  0.7789
 2335SOL     vw 9340   2.827   6.334   0.236 -0.0104 -0.9723  0.7645
 2336SOL     ow 9341   6.424   6.058   3.522  0.0926  0.4653 -0.1394
 2336SOL     hw 9342   6.520   6.051   3.528  0.0587 -0.0365 -0.1417
 2336SOL     hw 9343   6.396   5.971   3.495 -0.4180  0.4097  0.5421
 2336SOL     vw 9344   6.433   6.046   3.520  0.0210  0.3917 -0.0497
 2337SOL     ow 9345   3.436   1.368   5.286  0.2243 -0.3132 -0.2020
 2337SOL     hw 9346   3.358   1.413   5.253  1.1454  1.0545 -0.6273
 2337SOL     hw 9347   3.407   1.327   5.368 -1.2852 -1.0467 -1.0623
 2337SOL     vw 9348   3.422   1.369   5.293  0.1467 -0.2295 -0.3715
 2338SOL     ow 9349   2.977   4.947   7.145 -0.7804 -0.0164 -0.6120
 2338SOL     hw 9350   3.021   4.912   7.067  1.3113 -1.0148  0.9081
 2338SOL     hw 9351   2.946   4.869   7.192 -0.5445  0.4406  0.3424
 2338SOL     vw 9352   2.979   4.932   7.141 -0.4734 -0.0875 -0.2851
 2339SOL     ow 9353   1.958   7.306   5.260 -0.1570 -0.5210  0.2463
 2339SOL     hw 9354   1.908   7.245   5.206 -1.1584 -0.1023  0.6758
 2339SOL     hw 9355   2.033   7.255   5.291  0.6209 -0.6978 -1.7368
 2339SOL     vw 9356   1.962   7.291   5.257 -0.1864 -0.4890  0.0415
 2340SOL     ow 9357   0.731   1.870   5.932  0.3982  0.1267  0.2945
 2340SOL     hw 9358   0.695   1.940   5.986  0.0119 -0.2908  0.5852
 2340SOL     hw 9359   0.741   1.910   5.845 -0.2336  0.4177  0.3474
 2340SOL     vw 9360   0.727   1.884   5.927  0.2639  0.1101  0.3400
 2341SOL     ow 9361   6.082   5.043   4.648 -0.4753  0.0574  0.0502
 2341SOL     hw 9362   6.137   4.985   4.595 -0.2693  0.8752 -0.6461
 2341SOL     hw 9363   6.079   5.000   4.734 -0.7626 -1.2604 -0.5842
 2341SOL     vw 9364   6.089   5.029   4.653 -0.4859 -0.0088 -0.1254
 2342SOL     ow 9365   4.546   1.570   7.000  0.0107  0.0311 -0.3332
 2342SOL     hw 9366   4.516   1.576   7.091  0.2743  1.8699 -0.3347
 2342SOL     hw 9367   4.478   1.612   6.949  0.5739  0.3694 -0.8130
 2342SOL     vw 9368   4.533   1.576   7.005  0.1199  0.3183 -0.3965
 2343SOL     ow 9369   0.917   4.907   3.550  0.1336 -0.0139 -0.4641
 2343SOL     hw 9370   0.947   4.818   3.531  0.6025 -0.2195  1.1340
 2343SOL     hw 9371   0.983   4.942   3.610 -0.9352  0.8214  0.2431
 2343SOL     vw 9372   0.930   4.900   3.555  0.0544  0.0691 -0.1600
 2344SOL     ow 9373   6.865   5.251   6.603  0.0710 -0.5052  0.7595
 2344SOL     hw 9374   6.910   5.175   6.641  0.0096 -0.7305  0.3978
 2344SOL     hw 9375   6.824   5.216   6.523  1.2180  0.2083 -0.1768
 2344SOL     vw 9376   6.865   5.236   6.597  0.2141 -0.4411  0.5884
 2345SOL     ow 9377   0.366   0.878   6.710  0.4920 -0.3082 -0.3443
 2345SOL     hw 9378   0.459   0.858   6.698  0.5955  0.3611 -0.7537
 2345SOL     hw 9379   0.343   0.929   6.632  0.2372  1.0833  0.6037
 2345SOL     vw 9380   0.376   0.883   6.698  0.4721 -0.0363 -0.2732
 2346SOL     ow 9381   3.107   5.184   2.236  0.3826  0.2480 -0.2182
 2346SOL     hw 9382   3.123   5.120   2.306  0.1859 -0.0679 -0.4598
 2346SOL     hw 9383   3.063   5.257   2.279 -0.5220 -0.3221 -0.1732
 2346SOL     vw 9384   3.104   5.185   2.251  0.2372  0.1314 -0.2443
 2347SOL     ow 9385   5.431   5.599   1.194 -0.4529  0.5497  0.0769
 2347SOL     hw 9386   5.356   5.546   1.222 -0.2988 -0.2053 -0.8806
 2347SOL     hw 9387   5.485   5.606   1.272 -1.2336  0.6080  0.6295
 2347SOL     vw 9388   5.428   5.593   1.208 -0.5360  0.4582  0.0234
 2348SOL     ow 9389   2.072   4.093   6.030 -0.1824 -0.0168 -0.1923
 2348SOL     hw 9390   2.035   4.141   6.103  0.7789 -1.2183  1.1442
 2348SOL     hw 9391   2.064   4.001   6.055 -0.6071 -0.5151 -1.9960
 2348SOL     vw 9392   2.066   4.087   6.043 -0.1116 -0.2410 -0.2537
 2349SOL     ow 9393   1.913   7.380   4.620  0.6765  0.1133  0.2296
 2349SOL     hw 9394   1.847   7.427   4.671 -0.7221 -1.5520  0.0263
 2349SOL     hw 9395   1.945   7.311   4.678 -0.0322 -1.0144 -0.6751
 2349SOL     vw 9396   1.908   7.377   4.634  0.3985 -0.2556  0.0832
 2350SOL     ow 9397   4.032   1.617   3.779  0.1991 -0.1952 -0.2598
 2350SOL     hw 9398   3.995   1.668   3.852  1.8008 -1.9389  1.9404
 2350SOL     hw 9399   4.006   1.527   3.798  2.1692 -0.9290 -0.8110
 2350SOL     vw 9400   4.023   1.612   3.791  0.6702 -0.5221 -0.0423
 2351SOL     ow 9401   6.846   5.333   0.969 -0.7786 -0.1296  0.8292
 2351SOL     hw 9402   6.875   5.287   1.048  0.3010 -0.6259  0.1752
 2351SOL     hw 9403   6.914   5.400   0.955  0.9146 -2.1569 -1.4793
 2351SOL     vw 9404   6.859   5.336   0.978 -0.4129 -0.4625  0.4383
 2352SOL     ow 9405   4.610   6.835   1.698  0.4634  0.0324 -0.3502
 2352SOL     hw 9406   4.706   6.837   1.693  0.5247 -1.1279  0.1420
 2352SOL     hw 9407   4.581   6.808   1.611  0.6451 -0.7700 -0.1683
 2352SOL     vw 9408   4.619   6.832   1.686  0.4954 -0.2265 -0.2612
 2353SOL     ow 9409   3.810   6.798   5.395  0.1704  0.2457  0.0449
 2353SOL     hw 9410   3.816   6.703   5.402  0.0170  0.1402 -0.9793
 2353SOL     hw 9411   3.722   6.814   5.359  0.9433  0.6140 -1.8263
 2353SOL     vw 9412   3.799   6.788   5.391  0.2520  0.2806 -0.3371
 2354SOL     ow 9413   3.882   4.169   3.078 -0.4037  0.0903 -0.4435
 2354SOL     hw 9414   3.797   4.188   3.118 -0.6378 -0.9952 -0.3898
 2354SOL     hw 9415   3.939   4.150   3.152 -0.3342 -0.0108 -0.5238
 2354SOL     vw 9416   3.878   4.169   3.093 -0.4255 -0.0663 -0.4470
 2355SOL     ow 9417   3.304   2.436   3.116 -0.4058 -0.0588 -0.0155
 2355SOL     hw 9418   3.288   2.410   3.025  1.5058 -2.1645  0.1535
 2355SOL     hw 9419   3.360   2.514   3.109 -1.5616  0.7479 -0.5952
 2355SOL     vw 9420   3.310   2.443   3.103 -0.3060 -0.2303 -0.0696
 2356SOL     ow 9421   2.848   3.791   1.297 -0.3284  0.3397 -0.2970
 2356SOL     hw 9422   2.934   3.756   1.275  0.0271 -0.5555  2.1576
 2356SOL     hw 9423   2.864   3.883   1.320 -0.2110  0.4537 -0.8300
 2356SOL     vw 9424   2.861   3.799   1.297 -0.2661  0.2367 -0.0435
 2357SOL     ow 9425   1.622   4.487   1.351  0.0218  0.3979  0.0799
 2357SOL     hw 9426   1.575   4.568   1.331 -0.1207 -0.0750 -1.5930
 2357SOL     hw 9427   1.599   4.427   1.280  0.2449 -1.0778  1.1941
 2357SOL     vw 9428   1.613   4.490   1.339  0.0324  0.1407  0.0062
 2358SOL     ow 9429   3.132   0.532   3.712  0.0983 -0.0739 -0.1954
 2358SOL     hw 9430   3.069   0.462   3.727  0.3212 -0.1512  0.4173
 2358SOL     hw 9431   3.079   0.608   3.689 -0.0882 -0.7148 -2.0339
 2358SOL     vw 9432   3.117   0.533   3.711  0.1032 -0.1687 -0.3572
 2359SOL     ow 9433   1.390   3.979   0.923  0.0467 -0.7578 -0.7431
 2359SOL     hw 9434   1.444   3.900   0.926 -0.5983 -1.1919  2.3848
 2359SOL     hw 9435   1.329   3.969   0.995 -1.5377  1.6173 -1.6486
 2359SOL     vw 9436   1.389   3.967   0.933 -0.2475 -0.5016 -0.4499
 2360SOL     ow 9437   1.768   1.364   1.949  0.1083  0.5746 -0.3397
 2360SOL     hw 9438   1.675   1.350   1.970  0.0013  0.5114 -0.8574
 2360SOL     hw 9439   1.768   1.429   1.879  0.4100 -0.0647 -0.9461
 2360SOL     vw 9440   1.755   1.371   1.943  0.1339  0.4818 -0.4880
 2361SOL     ow 9441   4.656   5.413   5.402  0.1415  0.3136  0.6038
 2361SOL     hw 9442   4.562   5.395   5.396  0.0032  1.0575  0.4814
 2361SOL     hw 9443   4.676   5.401   5.495  0.2007 -1.0939  0.4404
 2361SOL     vw 9444   4.646   5.409   5.414  0.1311  0.2260  0.5660
 2362SOL     ow 9445   5.631   5.629   3.168 -0.5297  0.1599 -0.0601
 2362SOL     hw 9446   5.604   5.692   3.235 -0.2819 -0.1400  0.3276
 2362SOL     hw 9447   5.594   5.546   3.196 -0.0648 -0.0525 -0.0619
 2362SOL     vw 9448   5.623   5.626   3.180 -0.4356  0.0923 -0.0092
 2363SOL     ow 9449   2.788   2.261   1.312  0.2329  0.0116 -0.1302
 2363SOL     hw 9450   2.867   2.267   1.258  0.8645 -1.0007  0.6564
 2363SOL     hw 9451   2.716   2.255   1.249  0.6342  2.1437 -0.8782
 2363SOL     vw 9452   2.789   2.261   1.297  0.3692  0.1593 -0.1251
 2364SOL     ow 9453   7.279   3.027   6.572  0.1601  0.3799  0.1352
 2364SOL     hw 9454   7.237   2.947   6.602  1.2620  0.7944  3.1464
 2364SOL     hw 9455   7.207   3.085   6.548 -0.9103 -0.0162  2.1471
 2364SOL     vw 9456   7.264   3.024   6.573  0.1645  0.3823  0.7977
 2365SOL     ow 9457   1.651   2.420   1.611  0.3853  0.6357  0.2955
 2365SOL     hw 9458   1.722   2.357   1.620 -0.8015 -0.7001  0.7921
 2365SOL     hw 9459   1.637   2.428   1.517  2.5104  2.5371  0.0542
 2365SOL     vw 9460   1.658   2.413   1.600  0.5091  0.7105  0.3291
 2366SOL     ow 9461   1.821   4.889   4.653 -0.2997 -0.2725 -0.3609
 2366SOL     hw 9462   1.777   4.869   4.570 -1.5019  0.4591  0.0707
 2366SOL     hw 9463   1.754   4.874   4.720 -0.2725  1.8911  0.2434
 2366SOL     vw 9464   1.806   4.884   4.651 -0.4547  0.1097 -0.2241
 2367SOL     ow 9465   4.442   0.122   1.746 -0.4339 -0.1317 -0.4712
 2367SOL     hw 9466   4.457   0.048   1.687  1.1165 -0.2990  0.0886
 2367SOL     hw 9467   4.348   0.120   1.764 -0.4642 -1.7919 -0.6795
 2367SOL     vw 9468   4.432   0.112   1.740 -0.2332 -0.3728 -0.4248
 2368SOL     ow 9469   2.014   2.116   1.302  0.0196  0.3590 -0.3025
 2368SOL     hw 9470   1.957   2.143   1.230  1.6335  1.6241 -1.1876
 2368SOL     hw 9471   2.102   2.143   1.274  1.0992 -1.6648  0.9279
 2368SOL     vw 9472   2.018   2.123   1.289  0.3750  0.2588 -0.2569
 2369SOL     ow 9473   3.327   6.631   3.459 -0.1485 -0.0985 -0.0106
 2369SOL     hw 9474   3.310   6.597   3.371 -2.2634  0.3146  0.1859
 2369SOL     hw 9475   3.320   6.555   3.516  1.9234 -0.4996 -0.2161
 2369SOL     vw 9476   3.324   6.616   3.455 -0.1541 -0.0968 -0.0117
 2370SOL     ow 9477   7.029   2.167   2.780 -0.5081 -0.4734  0.4218
 2370SOL     hw 9478   6.940   2.202   2.778 -0.7334 -1.0530  0.1487
 2370SOL     hw 9479   7.040   2.125   2.694  1.0540  2.1046 -0.7716
 2370SOL     vw 9480   7.019   2.166   2.768 -0.3321 -0.2097  0.2284
 2371SOL     ow 9481   3.834   6.156   0.668 -0.3888 -0.1679 -0.2791
 2371SOL     hw 9482   3.775   6.196   0.604 -1.0990 -0.8236 -0.0517
 2371SOL     hw 9483   3.809   6.064   0.670 -0.0941 -0.2427  0.6302
 2371SOL     vw 9484   3.823   6.149   0.660 -0.4436 -0.2644 -0.1291
 2372SOL     ow 9485   5.250   2.945   3.338 -0.4976 -0.4757 -0.6091
 2372SOL     hw 9486   5.298   2.868   3.306  2.4086  0.9482 -0.0635
 2372SOL     hw 9487   5.251   2.935   3.433  0.4336  0.4560 -0.4982
 2372SOL     vw 9488   5.256   2.933   3.346  0.0088 -0.1649 -0.5225
 2373SOL     ow 9489   0.801   4.833   3.910 -0.3698 -0.1168 -0.3037
 2373SOL     hw 9490   0.731   4.788   3.863 -0.8501  0.4824 -0.1645
 2373SOL     hw 9491   0.758   4.872   3.986  0.2634 -0.4368  0.2249
 2373SOL     vw 9492   0.786   4.832   3.914 -0.3496 -0.0799 -0.2156
 2374SOL     ow 9493   6.664   7.293   2.665 -0.5033 -0.0469  0.1002
 2374SOL     hw 9494   6.757   7.304   2.646 -0.3802  0.8529  1.1159
 2374SOL     hw 9495   6.648   7.352   2.739 -1.8134 -0.4208  0.1325
 2374SOL     vw 9496   6.674   7.302   2.672 -0.6602  0.0224  0.2384
 2375SOL     ow 9497   1.329   1.196   4.023  0.2275  0.1134  0.2660
 2375SOL     hw 9498   1.239   1.214   4.049  0.9215 -1.7995  5.0794
 2375SOL     hw 9499   1.359   1.277   3.982 -2.8450  1.7913  1.0471
 2375SOL     vw 9500   1.321   1.209   4.021 -0.0863  0.0824  1.0042
 2376SOL     ow 9501   6.699   3.284   7.047  0.0482 -0.2291 -0.0020
 2376SOL     hw 9502   6.653   3.317   7.124  0.0208  0.6545 -0.3773
 2376SOL     hw 9503   6.729   3.363   7.002  2.4420 -0.7515  0.5195
 2376SOL     vw 9504   6.697   3.299   7.051  0.3603 -0.1814  0.0174
 2377SOL     ow 9505   4.737   6.868   6.092 -0.3891 -0.0506 -0.0626
 2377SOL     hw 9506   4.668   6.828   6.040 -0.6690  0.3321  0.0118
 2377SOL     hw 9507   4.714   6.849   6.183  1.6656 -3.3846 -0.0508
 2377SOL     vw 9508   4.725   6.861   6.097 -0.1550 -0.4401 -0.0513
 2378SOL     ow 9509   6.901   0.753   1.905 -0.0051 -0.4028  0.1817
 2378SOL     hw 9510   6.856   0.737   1.822  0.6493 -1.2168 -0.0310
 2378SOL     hw 9511   6.846   0.713   1.972  0.6272 -1.8333 -0.1311
 2378SOL     vw 9512   6.888   0.746   1.903  0.1647 -0.6989  0.1124
 2379SOL     ow 9513   2.252   3.179   3.062 -0.0603 -0.3239  0.3926
 2379SOL     hw 9514   2.223   3.111   3.123 -1.5350 -1.3756 -1.3725
 2379SOL     hw 9515   2.225   3.261   3.103 -1.0625 -0.9943  1.1314
 2379SOL     vw 9516   2.244   3.181   3.076 -0.3870 -0.5511  0.2571
 2380SOL     ow 9517   6.673   3.140   3.724  0.0310  0.0159 -0.5203
 2380SOL     hw 9518   6.705   3.137   3.634  0.6725 -0.4104 -0.2935
 2380SOL     hw 9519   6.627   3.223   3.732  0.1095  0.1236 -1.1976
 2380SOL     vw 9520   6.671   3.150   3.713  0.1259 -0.0260 -0.5796
 2381SOL     ow 9521   4.388   5.835   5.152  0.1802 -0.3896 -0.1074
 2381SOL     hw 9522   4.436   5.915   5.131 -0.0940 -0.3232 -0.4876
 2381SOL     hw 9523   4.311   5.865   5.200 -0.8503 -0.2526 -1.7737
 2381SOL     vw 9524   4.384   5.850   5.156  0.0079 -0.3626 -0.3777
 2382SOL     ow 9525   5.797   0.537   3.950 -0.7568  0.5270  0.1469
 2382SOL     hw 9526   5.836   0.531   3.863  0.1322 -0.4196  0.5989
 2382SOL     hw 9527   5.868   0.517   4.010 -1.4374  0.8652  1.0852
 2382SOL     vw 9528   5.811   0.534   3.946 -0.7291  0.4468  0.3302
 2383SOL     ow 9529   4.860   7.159   7.340  0.0380  0.2431  0.3952
 2383SOL     hw 9530   4.842   7.201   7.256  0.8152  1.1357  0.6570
 2383SOL     hw 9531   4.956   7.163   7.349  0.0767 -1.0414  0.7194
 2383SOL     vw 9532   4.871   7.165   7.330  0.1454  0.1915  0.4723
 2384SOL     ow 9533   6.160   1.577   5.032  0.4151  0.0254 -0.0791
 2384SOL     hw 9534   6.183   1.494   4.991 -3.1638 -1.4033  0.3789
 2384SOL     hw 9535   6.214   1.580   5.111  2.0893 -0.7825 -1.1269
 2384SOL     vw 9536   6.170   1.567   5.037  0.1640 -0.2697 -0.1571
 2385SOL     ow 9537   5.522   5.133   6.658  0.2613  0.0450 -0.1667
 2385SOL     hw 9538   5.543   5.076   6.732 -2.3234 -2.2041 -1.0004
 2385SOL     hw 9539   5.538   5.079   6.581 -0.4022  1.1331 -1.1022
 2385SOL     vw 9540   5.527   5.118   6.657 -0.1674 -0.1082 -0.4005
 2386SOL     ow 9541   5.907   4.391   2.941 -0.2855 -0.0630  0.6263
 2386SOL     hw 9542   5.902   4.430   2.853 -0.8949 -0.9172  0.2587
 2386SOL     hw 9543   5.964   4.315   2.930 -2.0783 -1.4584  0.4239
 2386SOL     vw 9544   5.914   4.386   2.928 -0.6027 -0.3598  0.5511
 2387SOL     ow 9545   4.371   2.031   1.177  0.3962  0.7238 -0.5034
 2387SOL     hw 9546   4.436   1.961   1.179  1.4705  1.6885  1.6312
 2387SOL     hw 9547   4.360   2.051   1.084  1.9903 -0.5253 -0.9966
 2387SOL     vw 9548   4.378   2.025   1.165  0.7482  0.6863 -0.2869
 2388SOL     ow 9549   2.460   1.095   5.086  0.2371 -0.2280  0.3797
 2388SOL     hw 9550   2.537   1.147   5.110  0.9662 -0.6443 -0.9508
 2388SOL     hw 9551   2.483   1.005   5.112  0.5733 -0.4960 -0.8079
 2388SOL     vw 9552   2.473   1.090   5.093  0.3777 -0.3183  0.0472
 2389SOL     ow 9553   7.270   6.171   0.343  0.0265  0.3743 -0.2742
 2389SOL     hw 9554   7.209   6.198   0.412 -2.8933 -0.5322 -2.2820
 2389SOL     hw 9555   7.277   6.247   0.286  0.6151  0.3969 -0.1775
 2389SOL     vw 9556   7.263   6.185   0.345 -0.2811  0.2575 -0.5263
 2390SOL     ow 9557   3.973   4.126   4.195  0.7243  0.4047 -0.5554
 2390SOL     hw 9558   3.914   4.061   4.231  1.6795  0.2473  0.7885
 2390SOL     hw 9559   3.915   4.192   4.156 -0.2783 -0.5479 -0.7106
 2390SOL     vw 9560   3.958   4.126   4.195  0.7182  0.2584 -0.3989
 2391SOL     ow 9561   1.336   4.428   3.923  0.3936  0.2570  0.5951
 2391SOL     hw 9562   1.345   4.523   3.920  1.7992  0.1978  1.7975
 2391SOL     hw 9563   1.277   4.407   3.851  1.2344  1.9218 -0.6469
 2391SOL     vw 9564   1.329   4.437   3.913  0.6900  0.4687  0.5897
 2392SOL     ow 9565   5.247   4.777   7.081  0.3268 -0.5327 -0.7028
 2392SOL     hw 9566   5.157   4.768   7.112  0.7552 -1.7773  0.2275
 2392SOL     hw 9567   5.290   4.830   7.147 -0.0381  1.2873 -1.8583
 2392SOL     vw 9568   5.241   4.783   7.094  0.3352 -0.4568 -0.7327
 2393SOL     ow 9569   0.236   4.157   5.230  0.1234 -0.7100  0.2651
 2393SOL     hw 9570   0.163   4.114   5.275  0.1383 -1.2327 -0.1984
 2393SOL     hw 9571   0.283   4.202   5.300 -1.0669  0.2691  0.4715
 2393SOL     vw 9572   0.232   4.157   5.245 -0.0317 -0.6502  0.2313
 2394SOL     ow 9573   0.911   3.205   5.629 -0.2979  0.2048  0.4260
 2394SOL     hw 9574   0.903   3.286   5.679  1.6042  0.7548 -0.0408
 2394SOL     hw 9575   0.993   3.166   5.660  1.2978  0.8584 -2.4894
 2394SOL     vw 9576   0.921   3.210   5.640  0.1636  0.3637 -0.0200
 2395SOL     ow 9577   5.712   2.051   4.256 -0.7644 -0.4010 -0.2007
 2395SOL     hw 9578   5.639   2.100   4.294 -0.9482 -0.3926 -0.5595
 2395SOL     hw 9579   5.777   2.046   4.327  0.5247  2.8251 -0.9625
 2395SOL     vw 9580   5.711   2.057   4.271 -0.6182  0.0257 -0.3488
 2396SOL     ow 9581   0.915   4.226   6.760  0.3888  0.7760  0.3342
 2396SOL     hw 9582   0.838   4.226   6.702 -0.5324  4.1120  1.3204
 2396SOL     hw 9583   0.986   4.257   6.705  0.0992  1.4808  0.3481
 2396SOL     vw 9584   0.914   4.230   6.745  0.2290  1.3092  0.4663
 2397SOL     ow 9585   1.079   5.751   3.438  0.3912 -0.2827  0.2472
 2397SOL     hw 9586   1.159   5.797   3.411 -0.1784  0.6429  0.0893
 2397SOL     hw 9587   1.091   5.733   3.531  0.5474  0.3694  0.3581
 2397SOL     vw 9588   1.091   5.755   3.447  0.3367 -0.0746  0.2410
 2398SOL     ow 9589   6.631   7.159   1.727  0.0119  0.5993 -0.1862
 2398SOL     hw 9590   6.681   7.102   1.668  0.1401  0.1151  0.3734
 2398SOL     hw 9591   6.552   7.108   1.748  0.6073  0.1669  1.1338
 2398SOL     vw 9592   6.627   7.145   1.722  0.1075  0.4783  0.0618
 2399SOL     ow 9593   2.254   1.391   0.771  0.8229  0.0290 -0.1192
 2399SOL     hw 9594   2.247   1.367   0.863  1.7634  0.8174  0.1757
 2399SOL     hw 9595   2.343   1.366   0.746  1.1854  1.4344 -0.3094
 2399SOL     vw 9596   2.265   1.385   0.780  0.9948  0.3183 -0.1054
 2400SOL     ow 9597   2.150   1.656   2.923 -0.7040 -0.4295 -0.0860
 2400SOL     hw 9598   2.142   1.685   2.832  0.4068  2.5408  0.6791
 2400SOL     hw 9599   2.237   1.616   2.927 -1.6492 -2.7497 -0.7788
 2400SOL     vw 9600   2.160   1.654   2.911 -0.6821 -0.3437 -0.0764
 2401SOL     ow 9601   4.416   3.290   4.146  0.1778 -0.2255 -0.3239
 2401SOL     hw 9602   4.501   3.291   4.101 -0.4877 -0.0038 -1.6148
 2401SOL     hw 9603   4.374   3.209   4.116  0.3515 -0.8940  1.1532
 2401SOL     vw 9604   4.422   3.279   4.136  0.1128 -0.2843 -0.2990
 2402SOL     ow 9605   1.924   5.702   2.275  0.9347 -0.0833  0.2245
 2402SOL     hw 9606   1.991   5.643   2.309 -0.7983 -0.8200  2.6682
 2402SOL     hw 9607   1.900   5.757   2.350 -1.4582 -0.1449 -0.3883
 2402SOL     vw 9608   1.929   5.702   2.290  0.3904 -0.1888  0.4661
 2403SOL     ow 9609   0.208   5.729   2.098 -0.6070  0.1364 -0.1191
 2403SOL     hw 9610   0.301   5.725   2.074 -0.6625 -0.6754 -0.2312
 2403SOL     hw 9611   0.191   5.822   2.113  0.4847  0.1998  0.9105
 2403SOL     vw 9612   0.218   5.741   2.097 -0.4703  0.0377  0.0020
 2404SOL     ow 9613   4.925   1.436   5.475 -0.0263 -0.1601  0.0960
 2404SOL     hw 9614   4.849   1.385   5.500 -0.1368  0.1552  0.4099
 2404SOL     hw 9615   4.992   1.371   5.453 -0.6920 -0.4463 -1.1627
 2404SOL     vw 9616   4.924   1.420   5.475 -0.1287 -0.1563 -0.0288
 2405SOL     ow 9617   2.071   2.025   3.741  0.3092 -0.0262 -0.1940
 2405SOL     hw 9618   2.130   2.085   3.785 -0.3257  1.5689 -1.4249
 2405SOL     hw 9619   2.001   2.080   3.706 -0.7297 -1.5757 -0.7045
 2405SOL     vw 9620   2.069   2.040   3.742  0.0883 -0.0200 -0.4237
 2406SOL     ow 9621   4.942   4.248   1.425  0.1098  0.0493  0.3350
 2406SOL     hw 9622   4.851   4.253   1.397 -0.0350  3.6768  0.8552
 2406SOL     hw 9623   4.992   4.238   1.344 -0.7010 -1.2416 -0.0248
 2406SOL     vw 9624   4.936   4.248   1.411 -0.0162  0.3574  0.3562
 2407SOL     ow 9625   4.071   7.153   1.316 -0.0697 -0.5102  0.0225
 2407SOL     hw 9626   3.982   7.163   1.282  1.5080  2.3349 -4.0018
 2407SOL     hw 9627   4.099   7.067   1.284 -0.3137  0.0322 -1.7650
 2407SOL     vw 9628   4.063   7.143   1.307  0.1063 -0.0634 -0.7443
 2408SOL     ow 9629   6.247   0.803   7.369  0.2791 -0.2107 -0.5946
 2408SOL     hw 9630   6.219   0.847   7.290  0.8980  0.5355 -0.4115
 2408SOL     hw 9631   6.201   0.719   7.368  1.8055 -1.1104 -2.7876
 2408SOL     vw 9632   6.237   0.798   7.359  0.5622 -0.2310 -0.8597
 2409SOL     ow 9633   2.592   2.954   6.376  0.4503 -0.1501  0.2777
 2409SOL     hw 9634   2.529   3.009   6.423 -0.3071  0.8283 -1.7740
 2409SOL     hw 9635   2.675   2.969   6.421 -0.0390  1.5342  0.6778
 2409SOL     vw 9636   2.595   2.963   6.388  0.2859  0.2012  0.0598
 2410SOL     ow 9637   4.028   4.016   2.852  0.0605  0.0959  0.5688
 2410SOL     hw 9638   4.110   4.037   2.896  0.9555 -0.0220 -0.9378
 2410SOL     hw 9639   4.051   3.945   2.791 -1.1399  0.1048  0.0646
 2410SOL     vw 9640   4.042   4.009   2.850  0.0203  0.0815  0.3036
 2411SOL     ow 9641   6.649   7.445   2.880 -0.2798 -0.3895 -0.3692
 2411SOL     hw 9642   6.611   7.492   2.954 -0.7590 -1.2211 -0.0762
 2411SOL     hw 9643   6.742   7.469   2.882 -0.4591  0.3048 -0.0509
 2411SOL     vw 9644   6.656   7.455   2.890 -0.3667 -0.4077 -0.2886
 2412SOL     ow 9645   5.046   6.015   1.600 -0.0011 -0.1821 -0.2703
 2412SOL     hw 9646   4.982   6.062   1.653  0.4536  0.5480 -0.3715
 2412SOL     hw 9647   5.035   5.923   1.626  0.3892  0.1782  1.2625
 2412SOL     vw 9648   5.036   6.009   1.610  0.1104 -0.0381 -0.0814
 2413SOL     ow 9649   3.651   5.334   4.790  0.0612 -0.3710  0.0386
 2413SOL     hw 9650   3.739   5.298   4.785  0.2963  0.3198 -1.0126
 2413SOL     hw 9651   3.663   5.426   4.813 -0.4683 -0.5901  1.2923
 2413SOL     vw 9652   3.664   5.341   4.792  0.0223 -0.3090  0.0653
 2414SOL     ow 9653   0.624   0.237   2.913 -0.3095 -0.3831 -0.3016
 2414SOL     hw 9654   0.695   0.205   2.970  0.1757  0.3672 -0.4769
 2414SOL     hw 9655   0.577   0.300   2.967 -0.1737 -0.0618 -0.5601
 2414SOL     vw 9656   0.627   0.241   2.928 -0.2276 -0.2417 -0.3588
 2415SOL     ow 9657   6.048   6.636   0.647 -0.2842 -0.5951  0.6577
 2415SOL     hw 9658   6.007   6.642   0.561  0.9472 -2.2035 -0.0738
 2415SOL     hw 9659   6.013   6.712   0.695 -1.2373  0.1487 -1.1237
 2415SOL     vw 9660   6.038   6.647   0.642 -0.2475 -0.7093  0.3261
 2416SOL     ow 9661   5.196   0.717   3.632 -0.3731 -0.0201  0.2208
 2416SOL     hw 9662   5.143   0.796   3.624 -0.1881  0.0123 -0.9837
 2416SOL     hw 9663   5.252   0.718   3.554  0.2726 -0.8722  0.6526
 2416SOL     vw 9664   5.197   0.728   3.620 -0.2637 -0.1283  0.1189
 2417SOL     ow 9665   3.724   2.386   4.175  0.0663 -0.0807  0.0824
 2417SOL     hw 9666   3.721   2.375   4.080 -1.0300  1.8282 -0.1429
 2417SOL     hw 9667   3.644   2.344   4.207  1.1753 -2.1144  0.3934
 2417SOL     vw 9668   3.713   2.379   4.167  0.0679 -0.0972  0.0937
 2418SOL     ow 9669   6.547   0.119   3.095 -0.1788  0.3537  0.3843
 2418SOL     hw 9670   6.608   0.192   3.089  0.5875 -0.4010 -2.3045
 2418SOL     hw 9671   6.462   0.155   3.070  0.0018  0.5139  0.0090
 2418SOL     vw 9672   6.544   0.133   3.091 -0.0541  0.2753 -0.0200
 2419SOL     ow 9673   4.234   6.545   0.743  0.2936 -0.1546 -0.7311
 2419SOL     hw 9674   4.287   6.471   0.713  2.4396  0.3896  1.4579
 2419SOL     hw 9675   4.283   6.623   0.717 -0.6857  0.4591 -0.8120
 2419SOL     vw 9676   4.247   6.546   0.735  0.4475 -0.0017 -0.4530
 2420SOL     ow 9677   0.552   3.648   4.560  0.6411  0.1397  0.5537
 2420SOL     hw 9678   0.502   3.629   4.640 -1.0133 -0.3298 -0.5446
 2420SOL     hw 9679   0.635   3.601   4.573 -0.1178 -1.0319  1.4444
 2420SOL     vw 9680   0.556   3.639   4.572  0.3227 -0.0769  0.5264
 2421SOL     ow 9681   2.019   4.240   6.240 -0.2233 -0.1877  0.3030
 2421SOL     hw 9682   2.022   4.327   6.199  0.5327  0.5703  1.8940
 2421SOL     hw 9683   1.936   4.239   6.288 -0.1127 -0.2496  0.4921
 2421SOL     vw 9684   2.008   4.251   6.241 -0.1090 -0.0961  0.5379
 2422SOL     ow 9685   0.452   1.794   0.007  0.1050 -0.2435  0.7666
 2422SOL     hw 9686   0.535   1.834   0.033  0.7640 -1.1926  0.1767
 2422SOL     hw 9687   0.430   1.734   0.079 -0.2755  0.2819  1.0976
 2422SOL     vw 9688   0.460   1.791   0.020  0.1418 -0.2995  0.7324
 2423SOL     ow 9689   1.893   2.263   1.544  0.2298  0.3379 -0.6137
 2423SOL     hw 9690   1.867   2.335   1.486 -1.7360  0.7201  0.6346
 2423SOL     hw 9691   1.940   2.306   1.616  0.2055  0.2261 -0.5299
 2423SOL     vw 9692   1.896   2.278   1.546 -0.0327  0.3735 -0.4379
 2424SOL     ow 9693   6.743   2.435   6.881 -0.1766 -0.5088  0.0004
 2424SOL     hw 9694   6.741   2.515   6.933  1.8825 -0.2587 -0.2446
 2424SOL     hw 9695   6.676   2.379   6.921  0.2505  0.2730  1.9216
 2424SOL     vw 9696   6.734   2.438   6.893  0.1514 -0.3728  0.2215
 2425SOL     ow 9697   2.632   5.085   6.906 -0.6542  0.0903 -0.9306
 2425SOL     hw 9698   2.540   5.091   6.933 -0.7318  0.2011 -1.2143
 2425SOL     hw 9699   2.655   4.993   6.919 -0.5129  0.2552  0.0652
 2425SOL     vw 9700   2.623   5.074   6.911 -0.6458  0.1266 -0.8366
 2426SOL     ow 9701   0.955   5.819   1.908  0.0510  0.4018 -0.0388
 2426SOL     hw 9702   1.001   5.810   1.992  2.6493 -0.9028 -1.4886
 2426SOL     hw 9703   0.958   5.913   1.890 -1.1559  0.7983  1.5956
 2426SOL     vw 9704   0.962   5.831   1.917  0.2346  0.2818 -0.0144
 2427SOL     ow 9705   0.940   5.428   2.928 -0.1328 -0.2433 -0.1547
 2427SOL     hw 9706   0.965   5.363   2.995  1.1152  0.1441 -0.2132
 2427SOL     hw 9707   0.970   5.389   2.846 -2.0476 -0.9162 -0.5909
 2427SOL     vw 9708   0.947   5.414   2.926 -0.2208 -0.2811 -0.2199
 2428SOL     ow 9709   6.501   3.970   0.786 -0.0902  0.0198  0.2739
 2428SOL     hw 9710   6.485   3.935   0.698  2.7378 -0.8610  0.0043
 2428SOL     hw 9711   6.575   3.919   0.819 -1.1159  0.2403  3.2604
 2428SOL     vw 9712   6.509   3.958   0.779  0.1473 -0.0674  0.6324
 2429SOL     ow 9713   2.965   6.931   6.195  0.7166 -0.3321  0.5881
 2429SOL     hw 9714   3.059   6.933   6.216  1.2180  1.0066 -1.4232
 2429SOL     hw 9715   2.962   6.904   6.103 -0.9048 -0.6368  0.7049
 2429SOL     vw 9716   2.977   6.928   6.186  0.5689 -0.1957  0.3381
 2430SOL     ow 9717   6.509   7.285   1.522 -0.0928 -0.0286 -0.0453
 2430SOL     hw 9718   6.590   7.313   1.480 -0.5954 -1.5324 -2.1688
 2430SOL     hw 9719   6.538   7.242   1.603  1.0428  1.3423  0.3173
 2430SOL     vw 9720   6.524   7.283   1.527 -0.0095 -0.0460 -0.2776
 2431SOL     ow 9721   2.187   0.762   5.546 -0.2678 -0.4079  0.1852
 2431SOL     hw 9722   2.220   0.761   5.636 -0.7852 -0.1171  0.3866
 2431SOL     hw 9723   2.146   0.848   5.537  1.3072  0.2745 -0.9055
 2431SOL     vw 9724   2.186   0.774   5.557 -0.1283 -0.2795  0.0677
 2432SOL     ow 9725   5.010   2.649   1.896 -0.1848 -0.2733 -0.1604
 2432SOL     hw 9726   4.970   2.575   1.941 -1.2622 -0.3806 -1.2326
 2432SOL     hw 9727   5.103   2.640   1.912 -0.3197 -1.7404 -0.0848
 2432SOL     vw 9728   5.017   2.638   1.904 -0.3448 -0.4810 -0.2918
 2433SOL     ow 9729   1.751   3.946   5.601  0.2576 -0.4664  0.0512
 2433SOL     hw 9730   1.807   3.918   5.673 -1.0999 -0.2595  1.2164
 2433SOL     hw 9731   1.784   4.033   5.578  0.7366 -0.5559  0.3803
 2433SOL     vw 9732   1.763   3.954   5.607  0.1417 -0.4508  0.2480
 2434SOL     ow 9733   4.704   4.091   4.105 -0.0543 -0.1728 -0.2464
 2434SOL     hw 9734   4.731   4.096   4.013  1.4615 -1.9497  0.0422
 2434SOL     hw 9735   4.729   4.003   4.132  0.4309  0.6490  2.1519
 2434SOL     vw 9736   4.711   4.080   4.096  0.2098 -0.2985  0.1080
 2435SOL     ow 9737   5.768   2.662   6.201 -0.2632 -0.3649  0.0169
 2435SOL     hw 9738   5.733   2.614   6.126  0.3567 -0.5993 -0.1298
 2435SOL     hw 9739   5.779   2.596   6.269 -0.6185 -0.1932  0.2373
 2435SOL     vw 9740   5.765   2.647   6.200 -0.2284 -0.3731  0.0262
 2436SOL     ow 9741   2.631   5.282   1.584 -0.5201  0.0444 -0.4820
 2436SOL     hw 9742   2.680   5.295   1.665  0.4130  0.3570 -1.0837
 2436SOL     hw 9743   2.540   5.297   1.609 -0.1441  1.1816  0.2920
 2436SOL     vw 9744   2.625   5.286   1.598 -0.3474  0.2360 -0.4593
 2437SOL     ow 9745   4.602   0.189   6.015  0.6154 -0.6933 -0.3089
 2437SOL     hw 9746   4.569   0.278   6.027  3.0009  0.1564  0.5297
 2437SOL     hw 9747   4.570   0.141   6.090 -1.0427 -0.6896 -0.9824
 2437SOL     vw 9748   4.594   0.195   6.026  0.7119 -0.5807 -0.2871
 2438SOL     ow 9749   1.083   0.630   6.429  0.4038  0.3066 -0.1374
 2438SOL     hw 9750   1.159   0.573   6.414 -0.3819 -0.3212 -1.9223
 2438SOL     hw 9751   1.064   0.668   6.344 -0.9802  0.8539  0.3947
 2438SOL     vw 9752   1.091   0.627   6.416  0.1176  0.2959 -0.3030
 2439SOL     ow 9753   4.667   2.165   2.589 -0.2752  0.2880 -0.1734
 2439SOL     hw 9754   4.662   2.196   2.679 -1.9349  0.4704 -0.3055
 2439SOL     hw 9755   4.706   2.078   2.595 -2.1821 -0.5453  0.9639
 2439SOL     vw 9756   4.672   2.158   2.601 -0.7458  0.2021 -0.0409
 2440SOL     ow 9757   4.650   1.328   6.983  0.1276  0.4599 -0.2069
 2440SOL     hw 9758   4.717   1.362   6.924 -2.4237  1.6258 -2.7019
 2440SOL     hw 9759   4.591   1.402   6.997 -1.5009 -0.8977  0.5176
 2440SOL     vw 9760   4.651   1.342   6.977 -0.4239  0.4346 -0.4404
 2441SOL     ow 9761   1.722   6.727   5.758 -0.1236 -0.3654 -0.7020
 2441SOL     hw 9762   1.776   6.717   5.837 -0.9227  0.9914  0.0721
 2441SOL     hw 9763   1.760   6.667   5.694  0.0099 -2.2004  0.9986
 2441SOL     vw 9764   1.734   6.718   5.760 -0.2113 -0.4287 -0.3757
 2442SOL     ow 9765   7.272   0.457   4.894  0.1674 -0.0755 -0.0676
 2442SOL     hw 9766   7.198   0.465   4.834  0.3366 -0.3368 -0.3139
 2442SOL     hw 9767   7.321   0.382   4.861  0.6628  0.2347 -0.0404
 2442SOL     vw 9768   7.269   0.448   4.881  0.2551 -0.0691 -0.0963
 2443SOL     ow 9769   4.885   0.893   6.565 -0.2168  0.3262 -0.6446
 2443SOL     hw 9770   4.819   0.858   6.507 -0.5696  1.3980 -0.9181
 2443SOL     hw 9771   4.968   0.878   6.520 -0.4206  0.4395 -1.0595
 2443SOL     vw 9772   4.888   0.887   6.552 -0.2902  0.4826 -0.7355
 2444SOL     ow 9773   4.339   6.949   3.213 -0.1857 -0.2967 -0.3027
 2444SOL     hw 9774   4.404   6.940   3.144  1.3620  0.1853  1.0226
 2444SOL     hw 9775   4.309   6.860   3.230 -0.2933 -0.4614 -1.3140
 2444SOL     vw 9776   4.344   6.936   3.206  0.0045 -0.2549 -0.2613
 2445SOL     ow 9777   4.154   6.465   3.118 -0.4222  0.1363 -0.1930
 2445SOL     hw 9778   4.174   6.402   3.188 -2.6242 -0.1155  0.2624
 2445SOL     hw 9779   4.154   6.412   3.038  2.1769  0.4370 -0.4796
 2445SOL     vw 9780   4.157   6.449   3.117 -0.3700  0.1428 -0.1708
 2446SOL     ow 9781   1.161   2.752   0.621 -0.2174 -0.6821  0.1761
 2446SOL     hw 9782   1.238   2.723   0.670  0.4938  0.7667 -0.0409
 2446SOL     hw 9783   1.127   2.826   0.672 -0.2191  0.0265 -0.8291
 2446SOL     vw 9784   1.167   2.758   0.634 -0.1238 -0.3976  0.0148
 2447SOL     ow 9785   7.008   2.717   2.796 -1.0743 -0.2530  0.6849
 2447SOL     hw 9786   6.977   2.648   2.737 -0.1339 -0.8033  0.8102
 2447SOL     hw 9787   6.968   2.695   2.881 -0.3946 -0.9293  0.8364
 2447SOL     vw 9788   6.998   2.705   2.800 -0.8607 -0.4150  0.7215
 2448SOL     ow 9789   0.414   1.297   2.498  0.0472  0.0174  0.1713
 2448SOL     hw 9790   0.455   1.269   2.417 -0.0086 -0.5659  0.3375
 2448SOL     hw 9791   0.441   1.232   2.563 -0.6630 -0.0601  0.4093
 2448SOL     vw 9792   0.423   1.285   2.496 -0.0539 -0.0699  0.2246
 2449SOL     ow 9793   6.082   0.476   0.770 -0.2983  1.3236 -0.1187
 2449SOL     hw 9794   6.114   0.491   0.859  0.2359  1.4854 -0.3349
 2449SOL     hw 9795   6.152   0.507   0.714  0.4769 -1.0769 -0.5966
 2449SOL     vw 9796   6.095   0.482   0.774 -0.1256  1.0282 -0.2103
 2450SOL     ow 9797   5.032   7.095   1.279 -0.2110  0.8670 -0.0021
 2450SOL     hw 9798   4.955   7.044   1.253 -0.2444  1.2052 -0.6050
 2450SOL     hw 9799   5.041   7.161   1.210 -0.2018  1.7089  0.7867
 2450SOL     vw 9800   5.023   7.097   1.266 -0.2143  1.0226  0.0225
 2451SOL     ow 9801   5.543   6.526   1.377  0.0974  0.2779 -0.3486
 2451SOL     hw 9802   5.598   6.604   1.368  0.4176  0.0239 -0.6282
 2451SOL     hw 9803   5.456   6.554   1.350 -0.2247  1.0364  1.3425
 2451SOL     vw 9804   5.539   6.540   1.372  0.0973  0.3445 -0.1624
 2452SOL     ow 9805   7.278   5.416   7.177  0.5808 -0.4401  0.5901
 2452SOL     hw 9806   7.347   5.481   7.164 -0.3293  0.0125 -2.7992
 2452SOL     hw 9807   7.325   5.333   7.183  1.5310  0.0040 -0.2857
 2452SOL     vw 9808   7.293   5.414   7.176  0.5858 -0.3219  0.0277
 2453SOL     ow 9809   6.536   3.696   5.207  0.2765  0.2465 -0.4031
 2453SOL     hw 9810   6.516   3.750   5.283  2.4934 -0.7532  0.9597
 2453SOL     hw 9811   6.611   3.738   5.166  0.2421 -0.2475 -0.9967
 2453SOL     vw 9812   6.543   3.709   5.211  0.5646  0.0494 -0.3016
 2454SOL     ow 9813   5.534   1.653   0.573  0.4271 -0.2347 -0.1329
 2454SOL     hw 9814   5.624   1.636   0.545  0.6729  1.4602 -0.4837
 2454SOL     hw 9815   5.542   1.681   0.664  0.3962  0.8766 -0.4517
 2454SOL     vw 9816   5.547   1.654   0.581  0.4554  0.1355 -0.2212
 2455SOL     ow 9817   3.916   0.094   7.226  0.3707  0.4617  0.1105
 2455SOL     hw 9818   3.879   0.182   7.216  2.6506  1.8651  2.6079
 2455SOL     hw 9819   3.952   0.094   7.315  1.4579 -2.6338 -0.2352
 2455SOL     vw 9820   3.916   0.106   7.237  0.8149  0.2384  0.3943
 2456SOL     ow 9821   5.261   2.145   2.429 -0.0094 -0.0877 -0.1072
 2456SOL     hw 9822   5.200   2.186   2.490  1.5463 -0.9455  2.1276
 2456SOL     hw 9823   5.301   2.218   2.381 -0.3079  0.7007  0.8252
 2456SOL     vw 9824   5.258   2.160   2.430  0.1564 -0.0970  0.3108
 2457SOL     ow 9825   0.972   4.441   3.985 -0.3517 -0.3505  0.1849
 2457SOL     hw 9826   0.900   4.473   4.040 -0.7881 -2.6913  1.1115
 2457SOL     hw 9827   0.933   4.430   3.898 -0.8357 -0.5812  0.4258
 2457SOL     vw 9828   0.957   4.443   3.981 -0.4731 -0.6900  0.3389
 2458SOL     ow 9829   7.377   6.576   3.796 -0.4258 -0.3209 -0.2831
 2458SOL     hw 9830   7.295   6.526   3.792 -0.7582  0.1546  0.3250
 2458SOL     hw 9831   7.444   6.510   3.808 -0.8292 -0.6565  0.1862
 2458SOL     vw 9832   7.375   6.561   3.797 -0.5229 -0.3026 -0.1409
 2459SOL     ow 9833   1.972   4.463   6.109  0.5668 -0.1415  0.2362
 2459SOL     hw 9834   2.035   4.512   6.056 -0.0570  0.4458  0.0357
 2459SOL     hw 9835   1.924   4.530   6.158 -1.6859 -0.3686 -1.5339
 2459SOL     vw 9836   1.974   4.478   6.109  0.1873 -0.0939 -0.0238
 2460SOL     ow 9837   4.986   0.033   1.288  0.1353 -0.3849  0.1992
 2460SOL     hw 9838   5.047   0.004   1.220 -2.3083 -1.9327 -1.5234
 2460SOL     hw 9839   5.041   0.053   1.364  3.1254  2.2854 -2.3913
 2460SOL     vw 9840   5.001   0.032   1.289  0.2074 -0.2367 -0.3698
 2461SOL     ow 9841   0.464   2.789   0.353  0.0139 -0.4313  0.0940
 2461SOL     hw 9842   0.390   2.832   0.396  0.4152  0.0625  0.3164
 2461SOL     hw 9843   0.471   2.704   0.396  0.2110 -0.0680  0.7921
 2461SOL     vw 9844   0.455   2.784   0.364  0.0928 -0.3181  0.2155
 2462SOL     ow 9845   4.593   1.484   3.287  0.1376  0.1654 -0.4492
 2462SOL     hw 9846   4.528   1.554   3.291  0.9834  0.9371 -0.1169
 2462SOL     hw 9847   4.569   1.426   3.360 -1.5691 -0.8240 -1.7173
 2462SOL     vw 9848   4.581   1.485   3.297  0.0241  0.1367 -0.5727
 2463SOL     ow 9849   5.888   4.072   6.973 -0.2558  0.0141  0.4734
 2463SOL     hw 9850   5.883   4.149   7.030 -0.3780 -0.8297  1.6310
 2463SOL     hw 9851   5.896   4.108   6.885  0.7556  1.3655  1.0822
 2463SOL     vw 9852   5.889   4.087   6.969 -0.1383  0.0811  0.7062
 2464SOL     ow 9853   5.683   3.938   5.736 -0.4417  0.3946 -0.1112
 2464SOL     hw 9854   5.614   3.985   5.690 -0.7076 -0.1124 -0.2354
 2464SOL     hw 9855   5.699   3.861   5.682  1.2629  1.2336 -0.8869
 2464SOL     vw 9856   5.676   3.934   5.723 -0.2520  0.4383 -0.2301
 2465SOL     ow 9857   0.822   0.747   4.356 -0.3682 -0.5225 -0.3136
 2465SOL     hw 9858   0.778   0.811   4.411  0.2242 -1.0459  0.7978
 2465SOL     hw 9859   0.807   0.663   4.400  2.1180 -0.6724  0.3989
 2465SOL     vw 9860   0.814   0.744   4.369  0.0380 -0.6114 -0.0730
 2466SOL     ow 9861   1.466   5.018   3.566  0.5046  0.4795 -0.1535
 2466SOL     hw 9862   1.428   5.041   3.651  2.2433  1.7274  0.3477
 2466SOL     hw 9863   1.555   4.987   3.587  0.9546  0.7857 -1.4928
 2466SOL     vw 9864   1.473   5.017   3.580  0.7933  0.6845 -0.2639
 2467SOL     ow 9865   2.890   7.304   1.799 -0.4391 -0.0177 -0.4351
 2467SOL     hw 9866   2.835   7.339   1.869 -0.2052  0.2631 -0.3899
 2467SOL     hw 9867   2.945   7.239   1.842 -1.3487 -0.9646 -0.6429
 2467SOL     vw 9868   2.890   7.300   1.814 -0.5282 -0.1059 -0.4565
 2468SOL     ow 9869   6.895   5.836   0.832  0.3494  0.5343 -0.3629
 2468SOL     hw 9870   6.824   5.839   0.767 -0.1706  1.3326  0.2206
 2468SOL     hw 9871   6.934   5.750   0.820 -1.3799 -0.3450 -0.0314
 2468SOL     vw 9872   6.891   5.825   0.822  0.0527  0.5236 -0.2421
 2469SOL     ow 9873   4.670   3.441   0.717 -0.2248 -0.4569  0.5618
 2469SOL     hw 9874   4.683   3.486   0.801  0.4611 -1.5064  1.0307
 2469SOL     hw 9875   4.755   3.405   0.696 -0.2766  0.1785 -0.8405
 2469SOL     vw 9876   4.683   3.442   0.725 -0.1411 -0.5115  0.4387
 2470SOL     ow 9877   1.438   2.173   6.680  0.3573 -0.1755  0.5405
 2470SOL     hw 9878   1.350   2.196   6.708  0.1085 -0.0345 -0.3364
 2470SOL     hw 9879   1.491   2.250   6.700  0.0475  0.1797  0.0069
 2470SOL     vw 9880   1.434   2.186   6.686  0.2836 -0.1101  0.3545
 2471SOL     ow 9881   6.350   4.510   7.271 -0.4808  0.1647  0.3095
 2471SOL     hw 9882   6.294   4.525   7.194 -1.2090 -0.2165  0.7489
 2471SOL     hw 9883   6.291   4.471   7.335  0.1152  0.5082  1.0774
 2471SOL     vw 9884   6.335   4.507   7.269 -0.4983  0.1600  0.4687
 2472SOL     ow 9885   1.737   4.971   3.544 -0.5961  0.0747 -0.3798
 2472SOL     hw 9886   1.729   4.926   3.460  0.8814  0.4547 -0.7589
 2472SOL     hw 9887   1.802   4.921   3.592 -1.0321  0.1777  0.3345
 2472SOL     vw 9888   1.745   4.959   3.539 -0.4587  0.1385 -0.3356
 2473SOL     ow 9889   5.144   6.773   0.716 -0.2395 -0.3403  0.3663
 2473SOL     hw 9890   5.143   6.688   0.761  0.4562 -0.6988 -0.2640
 2473SOL     hw 9891   5.065   6.818   0.747 -0.8540 -1.3967  0.3716
 2473SOL     vw 9892   5.134   6.768   0.726 -0.2286 -0.5269  0.2838
 2474SOL     ow 9893   4.155   7.419   6.872  0.3097 -0.4006  0.6119
 2474SOL     hw 9894   4.093   7.347   6.886  0.8389 -1.0388 -0.2593
 2474SOL     hw 9895   4.238   7.376   6.854  0.1936  0.3281 -2.1224
 2474SOL     vw 9896   4.157   7.404   6.871  0.3641 -0.3889  0.1361
 2475SOL     ow 9897   5.597   1.034   0.069  0.1849 -0.5504 -0.5061
 2475SOL     hw 9898   5.623   1.067   0.155  0.2642 -1.8453 -0.0056
 2475SOL     hw 9899   5.628   0.943   0.067  0.9862 -0.2870 -2.2723
 2475SOL     vw 9900   5.604   1.026   0.080  0.3009 -0.6865 -0.6731
 2476SOL     ow 9901   5.311   0.557   5.460  0.7951  0.0174  0.1763
 2476SOL     hw 9902   5.240   0.559   5.396  1.1438  1.0296 -0.1975
 2476SOL     hw 9903   5.292   0.480   5.514 -0.3437  0.0241 -0.1833
 2476SOL     vw 9904   5.299   0.547   5.459  0.6907  0.1518  0.0794
 2477SOL     ow 9905   7.316   6.127   6.516 -0.2815 -0.1870  0.0720
 2477SOL     hw 9906   7.342   6.211   6.553  0.4376 -0.7618  0.8878
 2477SOL     hw 9907   7.229   6.111   6.553 -0.2903  0.0403  0.1540
 2477SOL     vw 9908   7.308   6.136   6.525 -0.1879 -0.2327  0.1905
 2478SOL     ow 9909   4.263   6.480   5.864  0.1481  0.2063 -0.0284
 2478SOL     hw 9910   4.216   6.414   5.915  1.0982 -0.1610  0.4029
 2478SOL     hw 9911   4.291   6.544   5.928  1.1476 -0.1344 -0.1092
 2478SOL     vw 9912   4.261   6.480   5.879  0.4048  0.1130  0.0179
 2479SOL     ow 9913   5.857   2.282   0.279 -0.6222 -0.2821 -0.0500
 2479SOL     hw 9914   5.890   2.339   0.347 -3.2523  0.9078  0.3608
 2479SOL     hw 9915   5.832   2.201   0.324  0.3412 -0.6408 -0.1363
 2479SOL     vw 9916   5.858   2.279   0.294 -0.8419 -0.1725 -0.0072
 2480SOL     ow 9917   6.407   6.166   6.371  0.7476 -0.0489  0.7591
 2480SOL     hw 9918   6.321   6.151   6.333  0.7168  0.5785  0.5596
 2480SOL     hw 9919   6.413   6.261   6.379  1.2842 -0.1062  1.0929
 2480SOL     vw 9920   6.396   6.177   6.367  0.8144  0.0262  0.7768
 2481SOL     ow 9921   1.099   1.721   2.954  0.5014  0.0038  0.4720
 2481SOL     hw 9922   1.109   1.657   3.024  0.5187  0.7314  1.1435
 2481SOL     hw 9923   1.004   1.727   2.941  0.4804  0.1853  0.7221
 2481SOL     vw 9924   1.087   1.713   2.961  0.5010  0.1237  0.5937
 2482SOL     ow 9925   1.406   1.987   0.846 -0.5415 -0.2804  0.5029
 2482SOL     hw 9926   1.356   1.933   0.908 -0.1930 -1.5720 -0.3018
 2482SOL     hw 9927   1.368   2.074   0.855 -1.3776 -0.7244  1.5816
 2482SOL     vw 9928   1.394   1.991   0.855 -0.6059 -0.5094  0.5391
 2483SOL     ow 9929   6.549   1.610   1.797 -0.2799 -0.3837  0.1615
 2483SOL     hw 9930   6.572   1.519   1.777 -1.1716 -1.4450  3.3308
 2483SOL     hw 9931   6.472   1.603   1.853  1.3661  2.0747  3.0006
 2483SOL     vw 9932   6.542   1.597   1.802 -0.1805 -0.1994  0.9543
 2484SOL     ow 9933   1.593   1.978   6.495 -0.6118 -0.0383  0.4324
 2484SOL     hw 9934   1.605   1.901   6.440  2.0677  0.3414  0.3477
 2484SOL     hw 9935   1.646   1.961   6.572 -0.5216  1.4292  0.7311
 2484SOL     vw 9936   1.601   1.966   6.498 -0.2464  0.2053  0.4606
 2485SOL     ow 9937   3.355   3.822   5.881  0.5918 -0.1674 -0.6494
 2485SOL     hw 9938   3.345   3.782   5.967  1.7473  0.3438 -0.2681
 2485SOL     hw 9939   3.379   3.913   5.898  0.1254  0.1346 -1.5144
 2485SOL     vw 9940   3.357   3.829   5.894  0.6827 -0.0600 -0.7133
 2486SOL     ow 9941   5.361   5.322   4.024  0.0924 -0.4747  0.4151
 2486SOL     hw 9942   5.278   5.365   4.005  0.2930 -0.8268 -1.4972
 2486SOL     hw 9943   5.353   5.235   3.983  1.1018 -0.8013  0.8826
 2486SOL     vw 9944   5.349   5.316   4.016  0.2520 -0.5643  0.2246
 2487SOL     ow 9945   3.593   3.963   2.159  0.0405 -0.1887  0.1848
 2487SOL     hw 9946   3.612   3.884   2.210 -1.1937 -1.1415 -0.7802
 2487SOL     hw 9947   3.528   4.010   2.212  0.2677 -0.1540  0.4369
 2487SOL     vw 9948   3.587   3.959   2.173 -0.0924 -0.3098  0.0907
 2488SOL     ow 9949   4.139   7.074   6.834  0.1958  0.2314  0.0417
 2488SOL     hw 9950   4.192   7.091   6.912  0.2828 -1.0776  0.2817
 2488SOL     hw 9951   4.064   7.133   6.842  0.2188  0.1236  1.1005
 2488SOL     vw 9952   4.136   7.084   6.845  0.2103  0.0448  0.2131
 2489SOL     ow 9953   3.739   2.647   0.949 -0.1752  0.0774 -0.1979
 2489SOL     hw 9954   3.758   2.679   1.037  0.0061 -1.0167  0.1703
 2489SOL     hw 9955   3.673   2.708   0.915 -1.8219 -0.6657  1.4773
 2489SOL     vw 9956   3.733   2.660   0.956 -0.3685 -0.1651  0.0717
 2490SOL     ow 9957   2.425   5.747   0.965  0.2528 -0.0594 -0.2016
 2490SOL     hw 9958   2.420   5.798   1.046  2.1073 -0.1403  0.0023
 2490SOL     hw 9959   2.519   5.743   0.944 -0.1981  0.4746 -2.6839
 2490SOL     vw 9960   2.437   5.753   0.973  0.4379  0.0002 -0.5022
 2491SOL     ow 9961   5.905   3.593   4.521 -0.3954 -0.4153  0.2585
 2491SOL     hw 9962   5.917   3.504   4.488  0.9345 -0.0798 -0.2071
 2491SOL     hw 9963   5.913   3.585   4.616  0.1743 -0.7300  0.1865
 2491SOL     vw 9964   5.907   3.580   4.529 -0.1447 -0.4123  0.1874
 2492SOL     ow 9965   6.544   4.266   1.319 -0.4046 -0.4662 -0.1402
 2492SOL     hw 9966   6.480   4.220   1.265  0.3421 -2.1354  0.3416
 2492SOL     hw 9967   6.556   4.210   1.396  1.8550 -0.3754 -0.3599
 2492SOL     vw 9968   6.537   4.253   1.322 -0.0076 -0.6745 -0.1056
 2493SOL     ow 9969   1.114   3.323   6.345 -0.0181  0.3623  0.5725
 2493SOL     hw 9970   1.061   3.402   6.355  1.2953  1.3153  0.1545
 2493SOL     hw 9971   1.204   3.353   6.351  0.5226 -1.0093 -0.3030
 2493SOL     vw 9972   1.119   3.337   6.347  0.2266  0.3071  0.4015
 2494SOL     ow 9973   6.354   3.990   6.042  0.2366 -0.0642  0.8999
 2494SOL     hw 9974   6.330   3.917   6.100  0.1394 -0.8362 -0.0770
 2494SOL     hw 9975   6.442   3.969   6.012 -0.8238 -1.3651 -1.6641
 2494SOL     vw 9976   6.362   3.977   6.046  0.0839 -0.3378  0.4325
 2495SOL     ow 9977   7.350   0.016   2.927 -0.0931  0.9511  0.5114
 2495SOL     hw 9978   7.321   0.015   2.836 -2.1755  2.0469  1.1063
 2495SOL     hw 9979   7.269   0.020   2.978  0.9836 -0.5489  2.4699
 2495SOL     vw 9980   7.335   0.016   2.922 -0.2258  0.8974  0.8483
 2496SOL     ow 9981   2.131   5.798   0.181 -0.6326  0.2643 -0.1955
 2496SOL     hw 9982   2.218   5.824   0.153  0.4363 -1.8019  1.0256
 2496SOL     hw 9983   2.081   5.789   0.100  0.1155  1.8752 -0.8810
 2496SOL     vw 9984   2.136   5.801   0.167 -0.3930  0.2043 -0.1248
 2497SOL     ow 9985   6.802   7.295   1.919 -0.0273  0.4529  0.0773
 2497SOL     hw 9986   6.735   7.304   1.988  0.2949  1.8877  0.2328
 2497SOL     hw 9987   6.756   7.249   1.848 -1.2014  1.4130  0.1762
 2497SOL     vw 9988   6.787   7.290   1.919 -0.1395  0.7689  0.1109
 2498SOL     ow 9989   6.153   6.159   2.503  0.7510 -0.7069  0.1242
 2498SOL     hw 9990   6.196   6.102   2.567  0.6477 -1.0467 -0.1132
 2498SOL     hw 9991   6.063   6.128   2.499 -0.2119  1.4217  2.3359
 2498SOL     vw 9992   6.147   6.148   2.511  0.6104 -0.4709  0.3847
 2499SOL     ow 9993   5.586   5.945   4.367  0.1458  0.3236  0.2783
 2499SOL     hw 9994   5.580   5.941   4.272  0.6325  0.3451  0.2477
 2499SOL     hw 9995   5.500   5.914   4.398 -0.4548  1.4490 -0.1908
 2499SOL     vw 9996   5.574   5.941   4.359  0.1304  0.4749  0.2122
 2500SOL     ow 9997   1.913   2.235   0.271  0.6683  0.0115 -0.5493
 2500SOL     hw 9998   1.833   2.193   0.239  0.1005  0.4182  0.2912
 2500SOL     hw 9999   1.887   2.275   0.354  1.8292 -0.1444 -0.0892
 2500SOL     vw10000   1.899   2.235   0.278  0.7465  0.0446 -0.3777
 2501SOL     ow10001   7.437   5.469   1.112 -0.3885 -0.7014 -0.1240
 2501SOL     hw10002   7.408   5.463   1.203 -0.8823 -0.8869 -0.2888
 2501SOL     hw10003   7.430   5.561   1.090  2.7420 -0.0626  0.9787
 2501SOL     vw10004   7.432   5.480   1.121 -0.0403 -0.6413 -0.0002
 2502SOL     ow10005   2.279   1.869   6.275 -0.2786  0.1130  0.5783
 2502SOL     hw10006   2.227   1.826   6.342 -0.7945 -0.9568 -0.4885
 2502SOL     hw10007   2.215   1.906   6.214  0.1889 -0.3287 -0.1940
 2502SOL     vw10008   2.264   1.868   6.276 -0.2850 -0.0865  0.3359
 2503SOL     ow10009   0.488   2.409   7.352 -0.0283 -0.4947 -0.4960
 2503SOL     hw10010   0.539   2.355   7.292 -2.0141 -0.7611 -2.0443
 2503SOL     hw10011   0.442   2.346   7.408 -0.8623 -0.3586 -1.0205
 2503SOL     vw10012   0.489   2.393   7.352 -0.4003 -0.5119 -0.7696
 2504SOL     ow10013   0.725   2.574   3.213  0.2592  0.0358 -0.3710
 2504SOL     hw10014   0.745   2.583   3.306 -0.0781  0.0960 -0.3010
 2504SOL     hw10015   0.630   2.562   3.211  0.0974  1.2430 -0.7840
 2504SOL     vw10016   0.715   2.573   3.225  0.1933  0.2030 -0.4162
 2505SOL     ow10017   7.249   7.046   1.439 -0.2422 -0.4086 -0.7247
 2505SOL     hw10018   7.216   6.997   1.515  2.0528 -1.2983 -0.2441
 2505SOL     hw10019   7.214   6.999   1.363  0.6945 -1.9236 -0.2499
 2505SOL     vw10020   7.240   7.033   1.439  0.1843 -0.7257 -0.5986
 2506SOL     ow10021   1.133   4.063   1.807 -0.4693  0.4415 -0.3667
 2506SOL     hw10022   1.106   4.126   1.741 -0.1035 -0.5277 -1.4580
 2506SOL     hw10023   1.227   4.081   1.819 -0.2562 -0.2019 -1.0322
 2506SOL     vw10024   1.142   4.074   1.800 -0.3930  0.2284 -0.5986
 2507SOL     ow10025   2.069   5.804   5.791 -0.9116  0.4798 -0.0609
 2507SOL     hw10026   2.099   5.715   5.776 -0.6653  0.2456  1.6979
 2507SOL     hw10027   2.057   5.840   5.703 -2.3803 -1.7091 -0.8405
 2507SOL     vw10028   2.071   5.797   5.777 -1.0730  0.1602  0.0682
 2508SOL     ow10029   4.719   5.555   1.903 -0.6215 -0.1242  0.2203
 2508SOL     hw10030   4.732   5.650   1.893  0.3783 -0.4299 -1.8387
 2508SOL     hw10031   4.737   5.519   1.816 -0.5083 -2.2692  1.0841
 2508SOL     vw10032   4.723   5.563   1.890 -0.4749 -0.4475  0.0625
 2509SOL     ow10033   2.784   2.293   2.023  0.0399 -0.0128 -0.1173
 2509SOL     hw10034   2.718   2.362   2.032 -1.3692 -1.2694 -0.4140
 2509SOL     hw10035   2.841   2.324   1.952  1.4950  2.3543  1.8853
 2509SOL     vw10036   2.783   2.306   2.015  0.0461  0.1338  0.1078
 2510SOL     ow10037   5.996   3.994   6.635 -0.2396 -0.2783 -0.1388
 2510SOL     hw10038   6.063   4.039   6.583  0.4431  0.0327  0.9731
 2510SOL     hw10039   5.965   3.923   6.578 -0.2672  0.6773 -1.3497
 2510SOL     vw10040   6.001   3.990   6.621 -0.1531 -0.1110 -0.1519
 2511SOL     ow10041   6.227   5.516   1.121  0.1720  0.4307  0.2322
 2511SOL     hw10042   6.214   5.545   1.211 -0.3335  0.0209  0.2945
 2511SOL     hw10043   6.305   5.460   1.124  0.0328  0.2483  0.4525
 2511SOL     vw10044   6.236   5.513   1.133  0.0870  0.3526  0.2695
 2512SOL     ow10045   4.844   1.387   6.790 -0.6193 -0.0828  0.5280
 2512SOL     hw10046   4.878   1.305   6.754  0.7099  1.0229 -0.8789
 2512SOL     hw10047   4.776   1.414   6.728 -0.1958  0.4665  0.2858
 2512SOL     vw10048   4.840   1.380   6.777 -0.3881  0.1356  0.3104
 2513SOL     ow10049   6.180   6.674   3.831  0.1089 -0.3945 -0.1264
 2513SOL     hw10050   6.178   6.707   3.921  1.2520 -0.8012  0.0732
 2513SOL     hw10051   6.106   6.716   3.788 -0.5671 -0.3291  1.0478
 2513SOL     vw10052   6.170   6.684   3.837  0.1705 -0.4394  0.0550
 2514SOL     ow10053   6.346   5.644   5.470 -0.1408  0.3353  0.0622
 2514SOL     hw10054   6.436   5.618   5.449  0.1664  1.3405  0.1111
 2514SOL     hw10055   6.354   5.697   5.549 -0.7245  0.8529 -0.2186
 2514SOL     vw10056   6.359   5.647   5.478 -0.1771  0.5362  0.0317
 2515SOL     ow10057   6.019   4.136   3.011  0.1431 -0.0436  0.1983
 2515SOL     hw10058   6.031   4.088   2.929 -0.9311  0.5348 -0.3111
 2515SOL     hw10059   6.108   4.163   3.036  0.4852 -0.2312 -0.7659
 2515SOL     vw10060   6.032   4.133   3.004  0.0463  0.0079  0.0039
 2516SOL     ow10061   4.197   7.270   3.629  0.4471  0.2164  0.1546
 2516SOL     hw10062   4.256   7.195   3.626  2.8618  2.0087  0.1160
 2516SOL     hw10063   4.159   7.275   3.542  0.8228 -0.5213 -0.0546
 2516SOL     vw10064   4.200   7.261   3.617  0.8149  0.3552  0.1220
 2517SOL     ow10065   2.246   0.716   5.800 -0.0212  0.0267 -0.2156
 2517SOL     hw10066   2.174   0.680   5.852  0.8685  0.2664  1.2390
 2517SOL     hw10067   2.261   0.803   5.836 -0.3985  0.8657 -1.9505
 2517SOL     vw10068   2.238   0.723   5.811  0.0465  0.1690 -0.2527
 2518SOL     ow10069   5.280   4.908   1.550  0.9206 -0.1127 -0.2005
 2518SOL     hw10070   5.279   4.910   1.645  0.1918  0.3620 -0.2043
 2518SOL     hw10071   5.320   4.991   1.524 -0.3631  0.5156 -0.2930
 2518SOL     vw10072   5.285   4.920   1.559  0.6554  0.0329 -0.2133
 2519SOL     ow10073   2.031   0.712   2.851  0.2241 -0.2528  0.1817
 2519SOL     hw10074   2.025   0.767   2.773  1.2907 -0.3206  0.0396
 2519SOL     hw10075   2.097   0.754   2.906 -0.4900 -0.2204  1.0550
 2519SOL     vw10076   2.039   0.725   2.848  0.2705 -0.2575  0.2782
 2520SOL     ow10077   0.211   2.877   1.599  0.1484  0.1308  0.3906
 2520SOL     hw10078   0.148   2.913   1.662  0.4316  1.7152 -0.1868
 2520SOL     hw10079   0.186   2.785   1.589 -1.4909  0.5040  0.8661
 2520SOL     vw10080   0.200   2.870   1.606 -0.0305  0.3890  0.3772
 2521SOL     ow10081   7.416   3.086   0.581 -0.4992 -0.1374  0.4271
 2521SOL     hw10082   7.508   3.096   0.605 -0.4553  0.1242  0.1545
 2521SOL     hw10083   7.413   3.107   0.488 -1.0523  1.2659  0.7421
 2521SOL     vw10084   7.428   3.090   0.572 -0.5662  0.0823  0.4327
 2522SOL     ow10085   5.729   2.994   4.953 -0.6197  0.2292  0.3237
 2522SOL     hw10086   5.714   2.948   5.035 -0.5301 -0.8286 -0.2390
 2522SOL     hw10087   5.815   3.035   4.963  0.0668 -1.1577  0.1864
 2522SOL     vw10088   5.738   2.994   4.965 -0.5176 -0.0932  0.2310
 2523SOL     ow10089   3.283   2.078   0.763  0.6079 -0.2255 -0.3653
 2523SOL     hw10090   3.238   2.108   0.684  1.1043  0.0979 -0.5282
 2523SOL     hw10091   3.376   2.087   0.743  0.8533 -3.0923 -0.9359
 2523SOL     vw10092   3.289   2.083   0.750  0.7058 -0.5610 -0.4621
 2524SOL     ow10093   7.241   4.563   4.197 -0.1821  0.4791  0.0575
 2524SOL     hw10094   7.313   4.614   4.161 -0.4568  1.5001  0.9006
 2524SOL     hw10095   7.280   4.515   4.270 -0.0063 -0.2601 -0.5090
 2524SOL     vw10096   7.256   4.563   4.202 -0.1953  0.5164  0.0939
 2525SOL     ow10097   4.349   0.049   3.772 -0.2609  0.1375  0.3721
 2525SOL     hw10098   4.381   0.086   3.854  0.1099 -1.7211  1.1117
 2525SOL     hw10099   4.400   0.094   3.704  0.3515  0.7803  1.2329
 2525SOL     vw10100   4.360   0.060   3.774 -0.1314 -0.0229  0.5832
 2526SOL     ow10101   5.376   7.145   4.819 -0.2956 -0.2341 -0.2528
 2526SOL     hw10102   5.396   7.135   4.912  2.4319 -2.3734 -0.9135
 2526SOL     hw10103   5.365   7.055   4.787  0.1483  0.3590 -2.2209
 2526SOL     vw10104   5.377   7.132   4.827  0.1230 -0.4380 -0.5999
 2527SOL     ow10105   6.018   1.728   0.635  0.0736  0.1251 -0.0360
 2527SOL     hw10106   6.074   1.731   0.713 -0.8184 -0.6438  0.6631
 2527SOL     hw10107   6.032   1.813   0.593  2.1437 -0.2575 -0.1856
 2527SOL     vw10108   6.027   1.740   0.640  0.2291 -0.0268  0.0365
 2528SOL     ow10109   3.810   7.300   2.079  0.1874 -0.3418  0.0886
 2528SOL     hw10110   3.743   7.361   2.108  1.2049  0.1149  1.5524
 2528SOL     hw10111   3.891   7.333   2.116  0.7162 -2.8195  1.4142
 2528SOL     vw10112   3.812   7.312   2.088  0.3914 -0.6082  0.4566
 2529SOL     ow10113   1.860   4.137   0.582  0.6360 -0.3142 -0.4416
 2529SOL     hw10114   1.952   4.139   0.606  0.3096  1.4553  0.8559
 2529SOL     hw10115   1.817   4.195   0.645 -1.3669 -1.0771 -1.0272
 2529SOL     vw10116   1.866   4.145   0.593  0.3287 -0.1814 -0.3477
 2530SOL     ow10117   7.345   5.000   1.774 -0.3204 -0.2387  0.0442
 2530SOL     hw10118   7.250   4.994   1.769 -0.1883 -2.1100 -0.7821
 2530SOL     hw10119   7.365   4.996   1.867 -1.0240 -0.1298  0.2042
 2530SOL     vw10120   7.335   4.999   1.786 -0.3960 -0.4711 -0.0437
 2531SOL     ow10121   6.129   2.109   1.895 -0.2096 -0.8183 -0.1263
 2531SOL     hw10122   6.174   2.109   1.980 -2.4155 -1.5631  1.1496
 2531SOL     hw10123   6.175   2.044   1.843  1.2189 -0.3288  0.4692
 2531SOL     vw10124   6.141   2.101   1.900 -0.3123 -0.8520  0.1206
 2532SOL     ow10125   2.670   4.448   3.041  0.1166 -0.0372 -0.4885
 2532SOL     hw10126   2.605   4.378   3.035  1.0113 -1.0095  0.5375
 2532SOL     hw10127   2.738   4.423   2.979  0.6074 -0.2921  0.1369
 2532SOL     vw10128   2.670   4.435   3.032  0.2993 -0.1988 -0.2707
 2533SOL     ow10129   5.410   1.040   3.770  0.1930  0.3835 -0.2221
 2533SOL     hw10130   5.464   1.108   3.732  1.7399 -0.0822  1.0404
 2533SOL     hw10131   5.352   1.086   3.830  1.8872  0.5504  1.3602
 2533SOL     vw10132   5.409   1.055   3.773  0.6206  0.3441  0.1532
 2534SOL     ow10133   1.777   4.444   2.358  0.1829 -0.2252  0.0909
 2534SOL     hw10134   1.683   4.447   2.379  0.1521 -1.0158  0.0875
 2534SOL     hw10135   1.779   4.426   2.264  0.3388  1.3388 -0.2387
 2534SOL     vw10136   1.765   4.442   2.348  0.1994 -0.1233  0.0472
 2535SOL     ow10137   1.176   6.224   2.146 -0.1113  0.3153 -0.2825
 2535SOL     hw10138   1.230   6.293   2.186  0.1785 -0.0272 -0.0799
 2535SOL     hw10139   1.147   6.262   2.063  1.6332  0.0083 -1.0874
 2535SOL     vw10140   1.180   6.238   2.140  0.1571  0.2296 -0.3618
 2536SOL     ow10141   6.379   4.142   1.146 -0.1510 -0.0404  0.1234
 2536SOL     hw10142   6.346   4.186   1.067  0.0356  0.6466  0.4221
 2536SOL     hw10143   6.338   4.056   1.144  0.1628 -0.1904 -0.9468
 2536SOL     vw10144   6.370   4.136   1.135 -0.0851  0.0305  0.0215
 2537SOL     ow10145   2.090   6.018   2.793 -0.6109 -0.0567  0.2679
 2537SOL     hw10146   2.093   6.112   2.812 -0.4296 -0.0379  0.1504
 2537SOL     hw10147   2.155   6.006   2.724  0.8110 -0.5640  1.6236
 2537SOL     vw10148   2.099   6.029   2.787 -0.3992 -0.1209  0.4313
 2538SOL     ow10149   2.543   6.366   1.799 -0.1502  0.4302 -0.2232
 2538SOL     hw10150   2.511   6.276   1.811  0.6653  0.1100 -0.3685
 2538SOL     hw10151   2.472   6.421   1.831 -0.6111 -0.2711 -0.0098
 2538SOL     vw10152   2.529   6.361   1.805 -0.1035  0.2956 -0.2143
 2539SOL     ow10153   2.430   2.321   6.333  0.3687  0.2837  0.0389
 2539SOL     hw10154   2.364   2.390   6.334  0.0325  0.0362 -1.7939
 2539SOL     hw10155   2.409   2.269   6.256  2.8889  0.4209 -0.8367
 2539SOL     vw10156   2.419   2.324   6.323  0.6568  0.2692 -0.3185
 2540SOL     ow10157   6.053   0.501   2.890  0.1276 -0.2303 -0.3669
 2540SOL     hw10158   6.136   0.483   2.933  0.9309  1.2093 -1.2315
 2540SOL     hw10159   6.026   0.586   2.925 -0.3870 -0.1371 -0.9650
 2540SOL     vw10160   6.060   0.510   2.900  0.1655 -0.0281 -0.5599
 2541SOL     ow10161   4.010   2.112   1.160  0.1833  0.3846 -0.1257
 2541SOL     hw10162   3.920   2.085   1.178 -0.3509  1.3327 -1.2936
 2541SOL     hw10163   4.031   2.071   1.076  0.9396 -0.0355  0.2584
 2541SOL     vw10164   4.001   2.103   1.151  0.2127  0.4542 -0.2291
 2542SOL     ow10165   4.525   6.847   2.189 -1.0865 -0.3895 -0.0069
 2542SOL     hw10166   4.486   6.779   2.135 -1.7663  0.1660 -0.2312
 2542SOL     hw10167   4.549   6.802   2.270 -2.5757 -0.6825  0.3014
 2542SOL     vw10168   4.523   6.832   2.193 -1.3728 -0.3550  0.0041
 2543SOL     ow10169   1.531   6.708   5.170  0.1087  0.2531 -0.5736
 2543SOL     hw10170   1.576   6.787   5.199 -2.7982  1.6373  0.5284
 2543SOL     hw10171   1.506   6.664   5.251 -3.7934  1.5973 -0.8592
 2543SOL     vw10172   1.534   6.712   5.184 -0.7897  0.6130 -0.4659
 2544SOL     ow10173   7.191   4.893   0.902  0.3825 -0.3301 -0.3886
 2544SOL     hw10174   7.213   4.816   0.849  1.1787  0.7039 -1.6240
 2544SOL     hw10175   7.100   4.879   0.928  0.3784 -1.4891 -0.9464
 2544SOL     vw10176   7.182   4.881   0.898  0.4871 -0.3464 -0.6252
 2545SOL     ow10177   2.822   2.440   3.428  0.4205 -0.4432  0.2314
 2545SOL     hw10178   2.836   2.393   3.510  0.4504  0.5368  0.8013
 2545SOL     hw10179   2.770   2.516   3.452  1.0918  0.2730 -0.5298
 2545SOL     vw10180   2.817   2.444   3.442  0.5130 -0.2195  0.2060
 2546SOL     ow10181   3.486   2.986   3.997  0.3384 -0.2077  0.2162
 2546SOL     hw10182   3.537   3.003   3.917  1.3765  1.3362  1.1474
 2546SOL     hw10183   3.540   3.020   4.068 -1.3809  0.2005  1.4098
 2546SOL     vw10184   3.500   2.993   3.996  0.2484  0.0499  0.4965
 2547SOL     ow10185   6.770   6.548   7.467 -0.7165 -0.1993 -0.0932
 2547SOL     hw10186   6.782   6.627   7.520  1.4792  0.8367 -1.9399
 2547SOL     hw10187   6.697   6.570   7.409 -0.5481  0.2414 -0.1442
 2547SOL     vw10188   6.762   6.562   7.466 -0.4044 -0.0043 -0.3436
 2548SOL     ow10189   4.798   3.351   4.869 -0.9893 -0.9702 -0.0071
 2548SOL     hw10190   4.721   3.323   4.818 -1.0976 -0.4011 -0.1673
 2548SOL     hw10191   4.764   3.367   4.956 -1.2946  0.4011 -0.3615
 2548SOL     vw10192   4.783   3.349   4.874 -1.0438 -0.7142 -0.0751
 2549SOL     ow10193   3.110   1.601   4.004 -0.1429  0.5934 -0.4269
 2549SOL     hw10194   3.153   1.685   3.990 -0.9627  0.8894 -1.2809
 2549SOL     hw10195   3.166   1.537   3.961 -1.0171  1.0988 -2.4550
 2549SOL     vw10196   3.123   1.604   3.997 -0.3664  0.6991 -0.8072
 2550SOL     ow10197   3.099   2.331   5.394 -0.1509  0.5564  0.0318
 2550SOL     hw10198   3.164   2.332   5.464 -0.4916  0.7163  0.3553
 2550SOL     hw10199   3.015   2.342   5.440 -0.4028  0.3598 -0.3754
 2550SOL     vw10200   3.096   2.333   5.409 -0.2291  0.5516  0.0207
 2551SOL     ow10201   2.316   7.070   3.014  0.3354  0.3521 -0.1903
 2551SOL     hw10202   2.224   7.048   2.998  0.9004 -1.0075 -1.7874
 2551SOL     hw10203   2.313   7.125   3.092 -1.8581  0.5719 -0.3534
 2551SOL     vw10204   2.303   7.074   3.023  0.1204  0.2017 -0.4226
 2552SOL     ow10205   5.079   1.147   3.008  0.1185 -0.6304  0.2647
 2552SOL     hw10206   5.012   1.178   3.068  1.0898  1.2877  0.4600
 2552SOL     hw10207   5.137   1.223   2.997  1.0201 -1.5347 -1.5952
 2552SOL     vw10208   5.078   1.161   3.014  0.3657 -0.4967  0.0451
 2553SOL     ow10209   3.641   3.134   2.183  0.0690 -0.0632 -0.4153
 2553SOL     hw10210   3.547   3.139   2.200 -0.0083  0.9315 -1.0531
 2553SOL     hw10211   3.662   3.216   2.139  1.1957 -0.3820 -0.5099
 2553SOL     vw10212   3.632   3.145   2.180  0.2074  0.0262 -0.5119
 2554SOL     ow10213   5.517   4.041   5.505  0.5290  0.1208  0.0346
 2554SOL     hw10214   5.530   4.075   5.416  0.7113  0.8392  0.3266
 2554SOL     hw10215   5.460   3.966   5.494  2.5336 -1.3504 -0.9870
 2554SOL     vw10216   5.511   4.036   5.491  0.8175  0.0217 -0.0618
 2555SOL     ow10217   2.456   0.051   2.976  0.2522  0.1333 -0.0314
 2555SOL     hw10218   2.443  -0.024   2.918  0.2087  0.1095  0.0095
 2555SOL     hw10219   2.412   0.124   2.932 -0.4152 -0.0465  0.3248
 2555SOL     vw10220   2.449   0.051   2.963  0.1583  0.1065  0.0211
 2556SOL     ow10221   3.589   3.557   1.758 -0.5240 -0.5617 -0.2318
 2556SOL     hw10222   3.499   3.564   1.790 -0.6722 -0.2958 -0.6871
 2556SOL     hw10223   3.610   3.645   1.726 -1.0101 -1.2057 -2.4794
 2556SOL     vw10224   3.580   3.570   1.758 -0.6076 -0.6114 -0.5885
 2557SOL     ow10225   2.365   2.161   3.037  0.0594  0.1838 -0.4290
 2557SOL     hw10226   2.346   2.255   3.035 -1.5779  0.0811  2.8161
 2557SOL     hw10227   2.426   2.150   3.110  2.2384 -1.1099 -2.3099
 2557SOL     vw10228   2.370   2.172   3.046  0.1309 -0.0005 -0.2489
 2558SOL     ow10229   3.373   0.472   5.016  0.7297 -0.6448 -0.1129
 2558SOL     hw10230   3.406   0.388   4.984 -0.0867 -1.1003  0.2306
 2558SOL     hw10231   3.380   0.467   5.111 -0.0492 -0.6458 -0.0442
 2558SOL     vw10232   3.378   0.460   5.024  0.5194 -0.7050 -0.0584
 2559SOL     ow10233   4.059   0.118   7.446 -0.0618  0.2183  0.4406
 2559SOL     hw10234   4.072   0.183   7.515  0.5243  0.2290  0.3241
 2559SOL     hw10235   4.142   0.071   7.441 -0.3547 -0.2918  0.2627
 2559SOL     vw10236   4.072   0.120   7.455 -0.0229  0.1524  0.4017
 2560SOL     ow10237   6.909   5.985   0.221  0.0555 -0.4667  0.4607
 2560SOL     hw10238   6.857   6.030   0.288 -1.0907 -1.5765  0.3737
 2560SOL     hw10239   6.901   6.040   0.144  0.0749  0.0338  0.8117
 2560SOL     vw10240   6.901   5.998   0.220 -0.0932 -0.5472  0.4956
 2561SOL     ow10241   2.388   5.335   1.124  0.0518  0.5153  0.1811
 2561SOL     hw10242   2.404   5.263   1.063 -2.0561 -1.1442  1.4484
 2561SOL     hw10243   2.323   5.390   1.081 -0.7188 -0.1302  0.4902
 2561SOL     vw10244   2.382   5.333   1.111 -0.3279  0.2110  0.3890
 2562SOL     ow10245   7.204   0.750   6.454  0.3135  0.9372 -0.1036
 2562SOL     hw10246   7.110   0.737   6.441  0.4088  0.9801 -0.8447
 2562SOL     hw10247   7.225   0.829   6.404  0.7906  0.7833 -0.1553
 2562SOL     vw10248   7.194   0.759   6.446  0.3891  0.9226 -0.2081
 2563SOL     ow10249   0.828   0.906   3.705 -0.4216 -0.0940 -0.1376
 2563SOL     hw10250   0.772   0.971   3.663 -0.2203 -0.3470 -0.8159
 2563SOL     hw10251   0.915   0.947   3.708 -0.6245  0.2822  0.8756
 2563SOL     vw10252   0.832   0.920   3.700 -0.4218 -0.0778 -0.0936
 2564SOL     ow10253   6.020   5.134   3.429  0.2186  0.1369  0.4084
 2564SOL     hw10254   6.080   5.058   3.430 -0.6032 -0.5804 -0.9691
 2564SOL     hw10255   5.933   5.095   3.422 -0.2572  1.2115  0.2401
 2564SOL     vw10256   6.017   5.119   3.428  0.0477  0.1841  0.2044
 2565SOL     ow10257   2.058   0.524   5.515 -0.6955 -0.2882  0.3901
 2565SOL     hw10258   1.967   0.501   5.533 -1.1811  0.6548 -0.6986
 2565SOL     hw10259   2.066   0.615   5.545 -0.4213 -0.0291 -0.4286
 2565SOL     vw10260   2.047   0.533   5.521 -0.7234 -0.1296  0.1383
 2566SOL     ow10261   3.230   2.639   0.783 -0.3980 -0.2171 -0.5376
 2566SOL     hw10262   3.246   2.618   0.875 -2.1129 -0.6118 -0.2942
 2566SOL     hw10263   3.225   2.734   0.781  0.3936 -0.1650 -0.3719
 2566SOL     vw10264   3.232   2.649   0.795 -0.5199 -0.2623 -0.4836
 2567SOL     ow10265   4.625   0.772   1.508 -0.1386  0.4193  0.0349
 2567SOL     hw10266   4.710   0.727   1.513  0.8948  2.3335  1.5546
 2567SOL     hw10267   4.566   0.719   1.561  0.8010  0.3414  1.0343
 2567SOL     vw10268   4.629   0.759   1.516  0.1216  0.6616  0.3673
 2568SOL     ow10269   2.803   6.504   3.473  0.4288 -0.0123  0.5368
 2568SOL     hw10270   2.880   6.548   3.510 -1.2377  2.0686  1.7410
 2568SOL     hw10271   2.839   6.449   3.403  3.1108  0.0003  1.7801
 2568SOL     vw10272   2.818   6.503   3.468  0.5625  0.2639  0.8597
 2569SOL     ow10273   3.643   4.389   1.602 -0.1899  0.3137 -0.4168
 2569SOL     hw10274   3.736   4.410   1.610  0.9574 -3.2016 -2.3286
 2569SOL     hw10275   3.603   4.470   1.570  2.7543  1.1903 -2.2983
 2569SOL     vw10276   3.650   4.403   1.599  0.3500 -0.0346 -0.9173
 2570SOL     ow10277   5.753   3.448   7.396 -0.0077  0.0482  0.0754
 2570SOL     hw10278   5.784   3.367   7.355  1.2812 -2.0970  4.5946
 2570SOL     hw10279   5.665   3.427   7.427 -0.6814  1.3477 -0.8680
 2570SOL     vw10280   5.745   3.435   7.394  0.0734 -0.0633  0.5472
 2571SOL     ow10281   1.192   3.018   0.191  0.8980  0.3550 -0.3102
 2571SOL     hw10282   1.139   2.947   0.228  1.5488  0.6528  1.2553
 2571SOL     hw10283   1.159   3.097   0.234  0.1219  1.0781 -2.0935
 2571SOL     vw10284   1.180   3.019   0.201  0.8816  0.4898 -0.3389
 2572SOL     ow10285   4.297   4.888   1.739 -0.5060  0.0056 -0.1633
 2572SOL     hw10286   4.287   4.818   1.803  0.4495  1.3100  1.4925
 2572SOL     hw10287   4.377   4.866   1.692 -0.6668 -0.4374 -0.2334
 2572SOL     vw10288   4.306   4.876   1.741 -0.4013  0.1192  0.0459
 2573SOL     ow10289   1.727   5.020   0.332 -0.5683  0.0067  0.5283
 2573SOL     hw10290   1.707   4.930   0.355  0.8548 -0.7257 -0.8727
 2573SOL     hw10291   1.761   5.059   0.413  1.7411 -1.6663  0.4686
 2573SOL     vw10292   1.729   5.014   0.346 -0.0758 -0.3109  0.3356
 2574SOL     ow10293   7.278   0.504   6.339 -0.0139 -0.2815  0.6089
 2574SOL     hw10294   7.229   0.499   6.257  0.9110  3.0449 -0.2688
 2574SOL     hw10295   7.229   0.566   6.393  1.6122  0.8293  0.8743
 2574SOL     vw10296   7.265   0.511   6.335  0.3226  0.3039  0.5279
 2575SOL     ow10297   0.279   6.410   7.466  0.4624  0.6730  0.1511
 2575SOL     hw10298   0.289   6.504   7.455 -0.0374  0.6685 -0.3750
 2575SOL     hw10299   0.267   6.397   7.560 -3.2535  1.5351 -0.0529
 2575SOL     vw10300   0.279   6.420   7.477 -0.0938  0.7863  0.0551
 2576SOL     ow10301   6.701   3.991   2.154 -0.1373  0.3075  0.0774
 2576SOL     hw10302   6.759   3.937   2.208  0.5192 -0.8282 -1.6874
 2576SOL     hw10303   6.614   3.978   2.192 -0.1725 -2.8343 -0.8446
 2576SOL     vw10304   6.697   3.982   2.166 -0.0548 -0.2568 -0.2770
 2577SOL     ow10305   3.531   3.317   2.527  0.7237 -0.3640  0.5437
 2577SOL     hw10306   3.495   3.292   2.442 -1.7722  0.3112  1.3233
 2577SOL     hw10307   3.585   3.393   2.508  0.6506 -0.5492 -0.5029
 2577SOL     vw10308   3.533   3.324   2.513  0.3848 -0.2992  0.5085
 2578SOL     ow10309   0.896   5.096   5.111 -0.3126  0.0787  0.5745
 2578SOL     hw10310   0.924   5.134   5.028 -1.7533 -0.2528 -0.0810
 2578SOL     hw10311   0.859   5.011   5.088  0.5957 -0.6781  1.7385
 2578SOL     vw10312   0.895   5.090   5.097 -0.3828 -0.0651  0.6416
 2579SOL     ow10313   0.458   0.552   4.303  0.1996  0.5828  0.1313
 2579SOL     hw10314   0.389   0.489   4.322  1.9443 -1.8480 -1.1083
 2579SOL     hw10315   0.426   0.635   4.340 -2.3393 -0.9170  1.5464
 2579SOL     vw10316   0.445   0.555   4.311  0.0949  0.0642  0.1545
 2580SOL     ow10317   5.095   6.614   1.066  0.2389 -0.3960 -0.2243
 2580SOL     hw10318   5.189   6.614   1.049 -0.0075 -0.5651 -1.6401
 2580SOL     hw10319   5.072   6.706   1.073  0.5297 -0.3583  0.2744
 2580SOL     vw10320   5.105   6.626   1.065  0.2446 -0.4132 -0.3453
 2581SOL     ow10321   0.625   5.949   6.749 -0.1612  0.1354 -0.5875
 2581SOL     hw10322   0.598   5.905   6.669 -0.5929 -0.8932  0.1058
 2581SOL     hw10323   0.654   5.879   6.807  0.0460  0.8509  0.2006
 2581SOL     vw10324   0.625   5.934   6.746 -0.1908  0.0939 -0.3922
 2582SOL     ow10325   5.546   1.858   4.122  0.2238 -0.0442  0.6791
 2582SOL     hw10326   5.475   1.886   4.180 -1.0771 -0.0907 -0.8312
 2582SOL     hw10327   5.625   1.900   4.158 -0.6797  0.6194  1.9502
 2582SOL     vw10328   5.547   1.867   4.135 -0.0670  0.0373  0.6475
 2583SOL     ow10329   6.706   3.226   4.420 -0.1066  0.1500 -0.0336
 2583SOL     hw10330   6.680   3.136   4.440 -1.7772  0.7772  0.8883
 2583SOL     hw10331   6.759   3.219   4.341 -0.7453 -1.5687 -0.3557
 2583SOL     vw10332   6.710   3.213   4.412 -0.4113  0.0060  0.0458
 2584SOL     ow10333   2.962   3.365   0.238  0.2477  0.3659  0.6424
 2584SOL     hw10334   2.871   3.393   0.228  0.1805  1.1095  2.8640
 2584SOL     hw10335   2.983   3.382   0.330  2.4521 -0.3593  0.3379
 2584SOL     vw10336   2.952   3.371   0.249  0.5295  0.3684  0.8954
 2585SOL     ow10337   0.532   7.053   3.907  0.7838 -0.1773 -0.0142
 2585SOL     hw10338   0.543   7.002   3.988 -0.8033 -0.3780  0.1108
 2585SOL     hw10339   0.595   7.014   3.846  1.5925 -0.4119  0.9434
 2585SOL     vw10340   0.541   7.041   3.910  0.6811 -0.2348  0.1285
 2586SOL     ow10341   4.615   2.825   1.876 -0.5218 -0.5138  0.4709
 2586SOL     hw10342   4.690   2.851   1.929 -0.0932 -0.6471 -0.0632
 2586SOL     hw10343   4.542   2.875   1.911 -0.2183 -0.5147  1.1115
 2586SOL     vw10344   4.615   2.835   1.887 -0.4253 -0.5316  0.4849
 2587SOL     ow10345   0.336   4.913   3.183 -0.5656 -0.0860  0.3699
 2587SOL     hw10346   0.363   4.822   3.197  0.9950  0.0735 -1.2297
 2587SOL     hw10347   0.350   4.956   3.267 -1.0703 -1.2459  1.0776
 2587SOL     vw10348   0.341   4.907   3.196 -0.4262 -0.2177  0.2522
 2588SOL     ow10349   1.272   5.688   7.189 -0.2029  0.2778 -0.3464
 2588SOL     hw10350   1.205   5.750   7.158 -0.3330  0.2000 -0.2221
 2588SOL     hw10351   1.253   5.678   7.282  1.5870  2.2923  0.3184
 2588SOL     vw10352   1.261   5.695   7.197  0.0161  0.5331 -0.2422
 2589SOL     ow10353   5.142   3.862   7.459  0.3510  0.5528 -0.7373
 2589SOL     hw10354   5.232   3.830   7.470 -0.5407 -1.7815  0.6209
 2589SOL     hw10355   5.148   3.956   7.474  2.6393  0.5550 -1.3030
 2589SOL     vw10356   5.154   3.870   7.463  0.5352  0.2450 -0.6327
 2590SOL     ow10357   5.189   1.159   4.493 -0.0735 -0.5793 -0.3637
 2590SOL     hw10358   5.237   1.144   4.575  1.0088 -0.3628 -0.9419
 2590SOL     hw10359   5.129   1.230   4.513  1.0130  0.2849 -0.0653
 2590SOL     vw10360   5.188   1.166   4.507  0.2127 -0.4367 -0.4008
 2591SOL     ow10361   2.405   4.116   4.182 -0.0608  0.3773 -0.4978
 2591SOL     hw10362   2.488   4.138   4.141  0.2812 -0.7109 -0.4416
 2591SOL     hw10363   2.343   4.109   4.109  0.0783  0.4458 -0.6227
 2591SOL     vw10364   2.407   4.118   4.167  0.0026  0.2429 -0.5069
 2592SOL     ow10365   6.596   1.392   5.776  0.4249  0.6062  0.2779
 2592SOL     hw10366   6.622   1.468   5.724 -1.1425  0.1305 -1.2902
 2592SOL     hw10367   6.507   1.412   5.806 -0.5761 -1.1184 -1.3236
 2592SOL     vw10368   6.588   1.404   5.773  0.0861  0.3158 -0.1404
 2593SOL     ow10369   4.825   2.660   3.105 -0.2816 -0.2110 -0.2507
 2593SOL     hw10370   4.825   2.703   3.020  0.0069  1.1554  0.4112
 2593SOL     hw10371   4.746   2.693   3.148 -1.9167 -2.9088 -0.9174
 2593SOL     vw10372   4.814   2.670   3.100 -0.4594 -0.3867 -0.2514
 2594SOL     ow10373   1.117   4.332   6.589  0.0298 -0.5045  0.2818
 2594SOL     hw10374   1.199   4.308   6.546 -0.4236 -0.5628 -0.5850
 2594SOL     hw10375   1.101   4.423   6.563 -0.4425 -0.6607  0.0004
 2594SOL     vw10376   1.125   4.341   6.580 -0.0924 -0.5331  0.1302
 2595SOL     ow10377   0.398   3.227   3.382 -0.3104 -0.2816 -0.0298
 2595SOL     hw10378   0.392   3.158   3.316 -0.1104 -0.1140 -0.2219
 2595SOL     hw10379   0.456   3.293   3.344 -0.6080  0.0585  0.0945
 2595SOL     vw10380   0.405   3.227   3.368 -0.3233 -0.2147 -0.0386
 2596SOL     ow10381   4.826   6.280   1.835 -0.4376  0.1083  0.0172
 2596SOL     hw10382   4.884   6.353   1.861 -1.3951  1.2497 -0.9300
 2596SOL     hw10383   4.790   6.248   1.917  1.0056 -0.1930  0.5726
 2596SOL     vw10384   4.829   6.286   1.849 -0.3736  0.2193 -0.0345
 2597SOL     ow10385   3.270   2.540   6.578 -0.1607  0.0994  0.0377
 2597SOL     hw10386   3.325   2.510   6.650 -1.0180  0.8776  1.0673
 2597SOL     hw10387   3.329   2.547   6.503  0.6865 -1.0419  0.5772
 2597SOL     vw10388   3.285   2.537   6.577 -0.1621  0.0516  0.2449
 2598SOL     ow10389   6.186   5.940   1.729 -0.2821  0.1213  0.1280
 2598SOL     hw10390   6.258   5.889   1.767 -2.1045 -1.7622  1.2509
 2598SOL     hw10391   6.165   6.005   1.797  1.0773  1.5072 -0.7043
 2598SOL     vw10392   6.193   5.942   1.743 -0.3433  0.0556  0.1664
 2599SOL     ow10393   5.092   1.963   2.245 -0.1742  0.3861 -0.7521
 2599SOL     hw10394   5.185   1.946   2.263 -0.2124 -0.5675 -1.3993
 2599SOL     hw10395   5.049   1.879   2.262 -0.9618  0.8856 -0.2365
 2599SOL     vw10396   5.099   1.950   2.250 -0.2830  0.3262 -0.7695
 2600SOL     ow10397   3.922   4.309   2.776  0.0021 -0.5769 -0.4965
 2600SOL     hw10398   3.899   4.307   2.683  0.0299 -1.3424 -0.4927
 2600SOL     hw10399   4.005   4.357   2.778 -1.1186  1.4847 -0.5919
 2600SOL     vw10400   3.930   4.315   2.764 -0.1422 -0.4058 -0.5084
 2601SOL     ow10401   2.992   2.628   3.027  0.4622  0.1864 -0.1584
 2601SOL     hw10402   3.044   2.649   2.949 -0.9715  1.8895 -0.7207
 2601SOL     hw10403   2.930   2.561   2.999 -0.4379  1.2125 -0.6786
 2601SOL     vw10404   2.991   2.622   3.013  0.1543  0.5466 -0.3012
 2602SOL     ow10405   4.962   5.726   5.547 -0.1590  0.0869 -0.1528
 2602SOL     hw10406   4.896   5.749   5.613  0.1130  0.8859 -0.1484
 2602SOL     hw10407   4.914   5.673   5.483 -0.9998  1.2852 -0.5469
 2602SOL     vw10408   4.947   5.722   5.547 -0.2339  0.3502 -0.2043
 2603SOL     ow10409   4.159   0.793   0.741  0.1969  0.6094  0.4245
 2603SOL     hw10410   4.135   0.860   0.677 -1.0065 -1.1326 -1.0620
 2603SOL     hw10411   4.255   0.794   0.743  0.4179 -0.4539 -2.8720
 2603SOL     vw10412   4.169   0.802   0.733  0.0672  0.2393 -0.2066
 2604SOL     ow10413   7.382   4.949   2.912  0.1172 -0.1747 -0.1142
 2604SOL     hw10414   7.465   4.959   2.865  0.0380 -0.2787 -0.2796
 2604SOL     hw10415   7.408   4.925   3.001  0.2901  0.9312  0.1401
 2604SOL     vw10416   7.397   4.947   2.917  0.1297 -0.0424 -0.1025
 2605SOL     ow10417   6.620   7.290   2.120 -0.9490 -0.0369 -0.4071
 2605SOL     hw10418   6.562   7.366   2.131  0.3175  0.9436 -0.2343
 2605SOL     hw10419   6.588   7.226   2.183 -1.4453  0.7378  0.1499
 2605SOL     vw10420   6.608   7.292   2.130 -0.8473  0.1948 -0.3108
 2606SOL     ow10421   6.381   5.520   7.314  0.2562 -0.3236  0.1206
 2606SOL     hw10422   6.379   5.477   7.400  1.0460  2.4330  1.6357
 2606SOL     hw10423   6.291   5.513   7.282  0.1683 -2.3007  0.6416
 2606SOL     vw10424   6.369   5.513   7.321  0.3486 -0.2210  0.3893
 2607SOL     ow10425   5.528   1.586   4.169 -0.8453  0.0802  0.4072
 2607SOL     hw10426   5.435   1.591   4.144 -0.6355  1.5641 -0.1631
 2607SOL     hw10427   5.568   1.662   4.129  0.4672 -0.0535  1.3857
 2607SOL     vw10428   5.521   1.597   4.161 -0.6444  0.2583  0.4611
 2608SOL     ow10429   2.715   5.330   3.751 -0.3043 -0.5528 -0.0796
 2608SOL     hw10430   2.700   5.264   3.683  0.5305 -0.6902 -0.1380
 2608SOL     hw10431   2.807   5.319   3.775 -0.7223 -0.8834  1.4669
 2608SOL     vw10432   2.725   5.320   3.745 -0.2494 -0.6144  0.1167
 2609SOL     ow10433   2.987   5.460   1.764 -0.2931 -0.4386  0.1516
 2609SOL     hw10434   3.042   5.383   1.753  2.6973  1.4089  1.0593
 2609SOL     hw10435   2.994   5.507   1.681  0.6316  0.4325  0.6966
 2609SOL     vw10436   2.995   5.456   1.751  0.2234 -0.0799  0.3433
 2610SOL     ow10437   5.668   1.677   2.169 -0.1401 -0.1865 -0.2922
 2610SOL     hw10438   5.600   1.617   2.200  1.5075 -2.0579 -0.0856
 2610SOL     hw10439   5.683   1.651   2.078 -0.9085  1.4241 -0.9139
 2610SOL     vw10440   5.661   1.665   2.161 -0.0241 -0.2210 -0.3470
 2611SOL     ow10441   7.416   6.128   0.658  0.0483 -0.2262 -0.6697
 2611SOL     hw10442   7.322   6.143   0.650  0.0587  0.3437  0.1349
 2611SOL     hw10443   7.430   6.041   0.621 -0.5771  0.2276 -2.0363
 2611SOL     vw10444   7.406   6.118   0.652 -0.0329 -0.0908 -0.7439
 2612SOL     ow10445   1.332   5.723   2.469 -0.0763 -0.4148 -0.1347
 2612SOL     hw10446   1.284   5.645   2.494  0.0322 -0.9425 -1.4865
 2612SOL     hw10447   1.271   5.795   2.482 -1.9436 -1.2088 -3.3767
 2612SOL     vw10448   1.318   5.722   2.474 -0.3084 -0.5891 -0.7408
 2613SOL     ow10449   7.080   7.211   5.591 -0.2562  0.0931 -0.5913
 2613SOL     hw10450   7.174   7.195   5.598 -0.2590  0.3223  0.0360
 2613SOL     hw10451   7.041   7.124   5.581 -0.1218 -0.1747  0.9620
 2613SOL     vw10452   7.087   7.198   5.591 -0.2389  0.0877 -0.3040
 2614SOL     ow10453   1.962   2.681   2.336 -0.0646  0.0379  0.0514
 2614SOL     hw10454   1.889   2.671   2.276  0.7570 -0.3093 -0.9202
 2614SOL     hw10455   2.005   2.762   2.310  0.1226  0.0418  0.3636
 2614SOL     vw10456   1.958   2.690   2.325  0.0685 -0.0074 -0.0356
 2615SOL     ow10457   4.493   2.876   5.774  0.1399 -0.2542 -0.1137
 2615SOL     hw10458   4.540   2.916   5.847  0.7646 -0.1766 -0.5427
 2615SOL     hw10459   4.439   2.946   5.738 -1.4360 -0.7115  1.2721
 2615SOL     vw10460   4.492   2.890   5.778  0.0145 -0.3042  0.0129
 2616SOL     ow10461   6.298   4.139   0.112 -0.1115 -0.3996 -0.9162
 2616SOL     hw10462   6.243   4.060   0.114  0.4404 -0.7956 -0.9826
 2616SOL     hw10463   6.309   4.163   0.204  1.2952 -1.5452 -0.7359
 2616SOL     vw10464   6.292   4.132   0.125  0.1469 -0.6030 -0.9012
 2617SOL     ow10465   0.696   5.287   4.196 -0.2166 -0.3179 -0.0474
 2617SOL     hw10466   0.608   5.321   4.180 -0.7400 -1.4648  0.2709
 2617SOL     hw10467   0.745   5.308   4.116 -1.2077 -0.9921 -0.8672
 2617SOL     vw10468   0.691   5.294   4.183 -0.4165 -0.5584 -0.1137
 2618SOL     ow10469   4.476   6.488   1.956 -0.0969  0.5009 -0.0920
 2618SOL     hw10470   4.385   6.460   1.952  0.4415 -1.4568  0.2854
 2618SOL     hw10471   4.472   6.583   1.943 -2.0083  0.2569 -1.9451
 2618SOL     vw10472   4.463   6.497   1.954 -0.2780  0.2103 -0.2867
 2619SOL     ow10473   4.688   6.492   0.534  0.9689 -0.2605 -0.1944
 2619SOL     hw10474   4.677   6.424   0.467  2.2735  1.8076 -2.6649
 2619SOL     hw10475   4.778   6.482   0.564  0.2448 -1.5208  1.8212
 2619SOL     vw10476   4.698   6.482   0.529  1.0452 -0.1538 -0.2545
 2620SOL     ow10477   2.693   5.151   4.855  0.0079 -0.2846  0.4062
 2620SOL     hw10478   2.643   5.190   4.783  0.2905  0.7090  0.7350
 2620SOL     hw10479   2.766   5.211   4.868  0.4368 -0.9208  0.9506
 2620SOL     vw10480   2.696   5.164   4.847  0.1019 -0.2375  0.5214
 2621SOL     ow10481   0.870   1.733   6.171 -0.0557 -0.6914 -0.0010
 2621SOL     hw10482   0.956   1.772   6.186 -0.8022  1.2446 -0.4797
 2621SOL     hw10483   0.831   1.727   6.258  0.0671 -0.3470  0.0809
 2621SOL     vw10484   0.876   1.738   6.184 -0.1380 -0.3905 -0.0536
 2622SOL     ow10485   0.607   2.936   3.132 -0.0606  0.3438 -0.0339
 2622SOL     hw10486   0.554   2.869   3.091 -1.9605  1.7095  0.0687
 2622SOL     hw10487   0.545   3.004   3.158  1.7596  2.1592 -0.1412
 2622SOL     vw10488   0.592   2.936   3.130 -0.0711  0.7633 -0.0345
 2623SOL     ow10489   3.548   5.056   1.720 -0.2999 -0.3775 -0.4796
 2623SOL     hw10490   3.628   5.022   1.679  0.2519 -1.0516  1.0696
 2623SOL     hw10491   3.578   5.100   1.799 -1.2988  1.2410 -0.9650
 2623SOL     vw10492   3.563   5.057   1.725 -0.3588 -0.2527 -0.3393
 2624SOL     ow10493   4.404   2.236   7.446 -0.0523 -0.3880 -0.2261
 2624SOL     hw10494   4.384   2.250   7.538 -0.1304  1.5066 -0.4992
 2624SOL     hw10495   4.330   2.274   7.399 -1.0793 -3.2102 -1.1082
 2624SOL     vw10496   4.392   2.243   7.452 -0.1981 -0.5105 -0.3785
 2625SOL     ow10497   3.409   3.905   0.178 -0.4092 -0.4060 -0.2146
 2625SOL     hw10498   3.367   3.827   0.142 -1.3533  0.7111 -1.6543
 2625SOL     hw10499   3.336   3.962   0.204  0.2144  0.7882 -0.9874
 2625SOL     vw10500   3.394   3.902   0.177 -0.4514 -0.1012 -0.5065
 2626SOL     ow10501   0.155   6.441   6.452 -0.2073  0.0389 -0.7525
 2626SOL     hw10502   0.249   6.435   6.467 -0.4450 -2.0131  0.2952
 2626SOL     hw10503   0.147   6.469   6.361  1.3518  2.3161 -0.2869
 2626SOL     vw10504   0.166   6.444   6.442 -0.0329  0.0687 -0.5527
 2627SOL     ow10505   3.703   3.862   1.232 -0.2726 -1.1696 -0.3314
 2627SOL     hw10506   3.678   3.779   1.274  1.4306 -1.6700 -0.2461
 2627SOL     hw10507   3.745   3.912   1.302 -0.4600 -0.6119 -0.6156
 2627SOL     vw10508   3.705   3.858   1.247 -0.0726 -1.1621 -0.3576
 2628SOL     ow10509   1.499   5.289   4.674 -0.0831  0.3256  0.1580
 2628SOL     hw10510   1.557   5.281   4.598 -1.0702 -0.8699 -0.4959
 2628SOL     hw10511   1.559   5.301   4.748  0.9546  0.0826 -0.6120
 2628SOL     vw10512   1.515   5.290   4.674 -0.0764  0.1357 -0.0296
 2629SOL     ow10513   7.430   2.277   0.902 -0.1986 -0.3712  0.4199
 2629SOL     hw10514   7.359   2.265   0.965 -0.0415 -2.0913  0.2993
 2629SOL     hw10515   7.509   2.246   0.948  0.0130 -1.0526 -0.3842
 2629SOL     vw10516   7.431   2.271   0.917 -0.1499 -0.6881  0.2979
 2630SOL     ow10517   2.834   4.671   1.931 -0.0134 -0.3278  0.3883
 2630SOL     hw10518   2.868   4.684   2.019  1.9275 -1.0972 -0.2040
 2630SOL     hw10519   2.776   4.596   1.938  0.3439 -0.5543  0.9631
 2630SOL     vw10520   2.831   4.663   1.943  0.2897 -0.4592  0.3860
 2631SOL     ow10521   5.647   3.346   4.873 -0.1599  0.1245 -0.5564
 2631SOL     hw10522   5.742   3.356   4.877 -0.1943  0.5785 -0.8000
 2631SOL     hw10523   5.614   3.408   4.938 -0.3247  0.6420 -1.1297
 2631SOL     vw10524   5.655   3.355   4.882 -0.1862  0.2526 -0.6642
 2632SOL     ow10525   3.169   4.460   1.868  0.0708  0.1544  0.2413
 2632SOL     hw10526   3.103   4.418   1.813  0.7084 -1.5385  0.7142
 2632SOL     hw10527   3.118   4.517   1.926 -0.7307  0.8118 -1.0341
 2632SOL     vw10528   3.153   4.462   1.868  0.0492  0.0176  0.1354
 2633SOL     ow10529   0.187   5.415   0.794  0.2924  0.0812  0.4763
 2633SOL     hw10530   0.130   5.412   0.717 -0.1180 -0.4393  0.7917
 2633SOL     hw10531   0.231   5.499   0.788  0.1655  0.0989 -0.2587
 2633SOL     vw10532   0.185   5.426   0.783  0.2215  0.0148  0.4209
 2634SOL     ow10533   2.748   0.265   0.927 -0.3397 -0.1790 -0.2569
 2634SOL     hw10534   2.759   0.178   0.964  1.1416  0.2501  0.3968
 2634SOL     hw10535   2.825   0.314   0.956  1.1586  0.1417 -4.1595
 2634SOL     vw10536   2.759   0.260   0.935  0.0535 -0.0801 -0.6856
 2635SOL     ow10537   1.283   4.822   0.773  0.1071  0.0276 -0.2939
 2635SOL     hw10538   1.195   4.805   0.806  0.3292 -1.3067 -0.3478
 2635SOL     hw10539   1.281   4.789   0.683  0.5462  0.3642 -0.4312
 2635SOL     vw10540   1.271   4.815   0.765  0.1943 -0.1044 -0.3191
 2636SOL     ow10541   1.163   3.313   5.926 -0.4955 -0.1724 -0.4989
 2636SOL     hw10542   1.102   3.375   5.967  0.5307  0.9545 -0.6299
 2636SOL     hw10543   1.247   3.330   5.970 -0.2627 -1.7397 -0.2789
 2636SOL     vw10544   1.166   3.323   5.937 -0.3294 -0.2306 -0.4873
 2637SOL     ow10545   4.444   1.275   1.907  0.1050  0.1918  0.4825
 2637SOL     hw10546   4.458   1.235   1.993 -0.8436 -1.7449 -0.1989
 2637SOL     hw10547   4.432   1.201   1.848  0.8639  1.4616 -1.3779
 2637SOL     vw10548   4.445   1.260   1.910  0.0799  0.1038  0.1471
 2638SOL     ow10549   4.274   4.097   4.301  0.5890 -0.1252 -0.1151
 2638SOL     hw10550   4.314   4.017   4.334  1.1053  0.8036  1.6021
 2638SOL     hw10551   4.315   4.167   4.351 -0.8174  1.1134 -0.6297
 2638SOL     vw10552   4.284   4.095   4.312  0.4718  0.1609  0.0434
 2639SOL     ow10553   5.293   1.310   2.981 -0.2642 -0.0226 -0.2759
 2639SOL     hw10554   5.315   1.287   2.891  0.0381  0.9708 -0.4610
 2639SOL     hw10555   5.377   1.310   3.027 -0.2485  0.8225 -0.3028
 2639SOL     vw10556   5.307   1.307   2.976 -0.2224  0.2199 -0.3039
 2640SOL     ow10557   6.248   4.254   3.094 -0.3776 -0.1741  0.3552
 2640SOL     hw10558   6.316   4.203   3.138 -1.4362 -2.0708 -0.0980
 2640SOL     hw10559   6.280   4.266   3.005 -0.9841 -1.8633 -0.1255
 2640SOL     vw10560   6.261   4.249   3.088 -0.5970 -0.6471  0.2321
 2641SOL     ow10561   5.092   2.064   5.722 -0.3369  0.3303 -0.3292
 2641SOL     hw10562   5.106   2.154   5.750  0.9776  0.5851 -1.6893
 2641SOL     hw10563   5.082   2.015   5.804  0.1034  1.5214  0.4702
 2641SOL     vw10564   5.092   2.069   5.737 -0.1051  0.5212 -0.4032
 2642SOL     ow10565   5.705   5.335   3.880  0.5733  0.1830 -0.0220
 2642SOL     hw10566   5.630   5.374   3.835 -0.0984 -1.4916 -0.4364
 2642SOL     hw10567   5.684   5.341   3.973  1.2113  2.1625  0.0423
 2642SOL     vw10568   5.693   5.341   3.886  0.5691  0.2232 -0.0683
 2643SOL     ow10569   0.227   1.223   3.343  0.1637 -0.0995 -0.1741
 2643SOL     hw10570   0.238   1.241   3.250 -1.2757  0.1694 -0.3107
 2643SOL     hw10571   0.181   1.139   3.346  0.4167 -0.2253  0.2992
 2643SOL     vw10572   0.222   1.214   3.331  0.0072 -0.0806 -0.1296
 2644SOL     ow10573   5.303   2.891   5.656 -0.4946 -0.1565  0.0482
 2644SOL     hw10574   5.372   2.950   5.688 -1.3269 -0.1246  1.8954
 2644SOL     hw10575   5.226   2.915   5.708 -1.5454 -1.1026 -1.0408
 2644SOL     vw10576   5.302   2.902   5.667 -0.7429 -0.2770  0.1481
 2645SOL     ow10577   5.990   6.737   2.403 -0.1350  0.2941 -0.3060
 2645SOL     hw10578   5.974   6.704   2.314  0.4375 -0.3899 -0.1593
 2645SOL     hw10579   6.003   6.831   2.391 -0.0546  0.2093 -0.9505
 2645SOL     vw10580   5.989   6.745   2.389 -0.0491  0.1926 -0.3717
 2646SOL     ow10581   2.313   4.088   4.599  0.1075  0.3330  0.2838
 2646SOL     hw10582   2.370   4.130   4.663 -0.5416  0.8217  0.5484
 2646SOL     hw10583   2.245   4.045   4.651 -0.7954  1.2773 -0.0836
 2646SOL     vw10584   2.311   4.088   4.614 -0.0974  0.5221  0.2704
 2647SOL     ow10585   0.494   3.799   5.761  0.1508 -0.1369 -0.6252
 2647SOL     hw10586   0.549   3.780   5.685 -0.2164 -3.7536 -0.1417
 2647SOL     hw10587   0.413   3.750   5.745 -0.7833  0.7414  1.1589
 2647SOL     vw10588   0.491   3.790   5.749 -0.0209 -0.4982 -0.3264
 2648SOL     ow10589   4.611   5.171   1.897  0.2404  0.5550 -0.2724
 2648SOL     hw10590   4.622   5.244   1.959  2.0027  0.2349 -0.1753
 2648SOL     hw10591   4.685   5.113   1.915 -1.3896 -1.5584  0.0104
 2648SOL     vw10592   4.622   5.173   1.908  0.2580  0.2339 -0.2223
 2649SOL     ow10593   6.014   1.962   2.268  0.3631 -0.0678  0.5685
 2649SOL     hw10594   5.978   1.873   2.275 -0.9920  0.1778 -2.0094
 2649SOL     hw10595   6.001   2.000   2.355 -1.0500 -1.6830  1.1249
 2649SOL     vw10596   6.008   1.955   2.280 -0.0021 -0.2485  0.3018
 2650SOL     ow10597   2.219   0.453   3.459 -0.3473 -0.5308  0.3456
 2650SOL     hw10598   2.247   0.539   3.430  0.4360 -1.0773 -0.5883
 2650SOL     hw10599   2.230   0.455   3.554  0.0757  0.2450  0.2883
 2650SOL     vw10600   2.224   0.464   3.468 -0.1881 -0.5006  0.2148
 2651SOL     ow10601   0.916   6.648   6.016 -0.7568  0.5618  0.1826
 2651SOL     hw10602   0.872   6.565   5.996  1.3696 -0.4035 -0.7692
 2651SOL     hw10603   0.928   6.691   5.931  1.4902  0.0353  0.1732
 2651SOL     vw10604   0.912   6.643   6.002 -0.1798  0.3650  0.0558
 2652SOL     ow10605   3.739   1.947   0.112 -0.0370  0.5748  0.2991
 2652SOL     hw10606   3.707   2.011   0.048  0.6106  1.3002  0.6834
 2652SOL     hw10607   3.835   1.952   0.105  0.0682  1.1995  1.8167
 2652SOL     vw10608   3.748   1.956   0.102  0.0625  0.7530  0.5500
 2653SOL     ow10609   7.361   2.001   1.649 -0.2817 -0.0270 -0.1765
 2653SOL     hw10610   7.381   2.059   1.723 -0.1946 -0.9903  0.5786
 2653SOL     hw10611   7.270   1.974   1.663 -0.0730 -0.6986 -0.0626
 2653SOL     vw10612   7.352   2.005   1.661 -0.2427 -0.2426 -0.0618
 2654SOL     ow10613   2.525   4.554   2.840  0.1069 -0.5517  0.4341
 2654SOL     hw10614   2.497   4.467   2.811 -1.8240  0.1112  0.1589
 2654SOL     hw10615   2.580   4.538   2.916  2.3114 -2.1552 -1.3298
 2654SOL     vw10616   2.529   4.540   2.846  0.1429 -0.6759  0.1651
 2655SOL     ow10617   0.970   5.292   5.322  0.4016  0.0945 -0.2610
 2655SOL     hw10618   0.936   5.348   5.253  0.0064 -0.7319 -0.7502
 2655SOL     hw10619   1.035   5.347   5.367 -1.2910  1.5975  0.4832
 2655SOL     vw10620   0.974   5.307   5.319  0.1262  0.1838 -0.2272
 2656SOL     ow10621   0.602   7.467   1.518 -0.4619  0.3747 -0.3298
 2656SOL     hw10622   0.619   7.552   1.559 -0.1074  0.4446 -0.6214
 2656SOL     hw10623   0.511   7.448   1.540 -0.1530  0.2033  0.8836
 2656SOL     vw10624   0.592   7.476   1.526 -0.3744  0.3612 -0.2082
 2657SOL     ow10625   7.300   2.655   4.533 -0.1496 -0.1116  0.4975
 2657SOL     hw10626   7.206   2.653   4.520 -0.4818  2.8547  1.6582
 2657SOL     hw10627   7.311   2.654   4.629  0.9915 -0.4182  0.3805
 2657SOL     vw10628   7.289   2.655   4.544 -0.0432  0.2394  0.6351
 2658SOL     ow10629   2.138   5.098   3.378  0.1724  0.0395  0.2764
 2658SOL     hw10630   2.111   5.049   3.301  1.7346  0.2613 -0.4548
 2658SOL     hw10631   2.192   5.036   3.428  1.5519  0.7252 -0.2887
 2658SOL     vw10632   2.142   5.083   3.375  0.5604  0.1593  0.1055
 2659SOL     ow10633   7.276   0.505   7.198 -0.3985  0.2529  0.0231
 2659SOL     hw10634   7.324   0.567   7.254 -0.6567  0.9508 -0.5103
 2659SOL     hw10635   7.184   0.519   7.221 -0.4569  0.0785 -0.1120
 2659SOL     vw10636   7.270   0.515   7.209 -0.4404  0.3220 -0.0648
 2660SOL     ow10637   1.400   6.468   4.371 -0.0693 -0.2469  0.4650
 2660SOL     hw10638   1.478   6.417   4.390 -0.2764 -0.1321  1.7143
 2660SOL     hw10639   1.327   6.407   4.384 -0.2900  0.2110  1.4883
 2660SOL     vw10640   1.401   6.454   4.376 -0.1257 -0.1712  0.7648
 2661SOL     ow10641   5.867   7.343   7.144  0.9242 -0.0056 -0.2541
 2661SOL     hw10642   5.851   7.398   7.068  0.8681 -0.3801 -0.5142
 2661SOL     hw10643   5.962   7.341   7.153  0.9259  0.1392 -0.2422
 2661SOL     vw10644   5.878   7.350   7.136  0.9170 -0.0358 -0.2868
 2662SOL     ow10645   5.050   1.742   1.017 -0.7335  0.0373  0.3004
 2662SOL     hw10646   4.998   1.677   1.065  0.2425 -1.5140 -0.6420
 2662SOL     hw10647   4.991   1.774   0.949 -0.9808 -0.5055  0.2481
 2662SOL     vw10648   5.036   1.737   1.014 -0.6373 -0.2390  0.1692
 2663SOL     ow10649   6.889   6.184   6.970 -0.9547  0.1628  0.1258
 2663SOL     hw10650   6.797   6.167   6.951 -0.6757 -0.2386 -0.9104
 2663SOL     hw10651   6.928   6.209   6.886 -0.1336  0.4347  0.5658
 2663SOL     vw10652   6.882   6.185   6.956 -0.8094  0.1457  0.0470
 2664SOL     ow10653   1.259   3.498   4.468 -0.0713 -0.3190 -0.0497
 2664SOL     hw10654   1.227   3.563   4.406  2.7320 -0.9738 -2.4227
 2664SOL     hw10655   1.247   3.538   4.554  0.6850  2.9652 -1.3451
 2664SOL     vw10656   1.253   3.511   4.471  0.3983  0.0279 -0.5336
 2665SOL     ow10657   7.085   6.747   7.377  0.0582  0.3334  0.4562
 2665SOL     hw10658   7.049   6.659   7.364 -0.1879  0.2494  1.6221
 2665SOL     hw10659   7.070   6.791   7.293  0.0067 -0.6666 -0.0794
 2665SOL     vw10660   7.079   6.741   7.364  0.0191  0.1903  0.5393
 2666SOL     ow10661   2.443   0.778   3.112 -0.0336 -0.1097  0.4669
 2666SOL     hw10662   2.488   0.816   3.037 -0.2102 -2.1798 -0.7484
 2666SOL     hw10663   2.351   0.800   3.099 -0.0677 -0.4934  0.0362
 2666SOL     vw10664   2.437   0.786   3.101 -0.0615 -0.4335  0.2497
 2667SOL     ow10665   4.626   0.816   7.140  0.1640 -0.3180  0.7019
 2667SOL     hw10666   4.562   0.775   7.198 -0.5535 -0.5324 -0.2252
 2667SOL     hw10667   4.646   0.748   7.076  2.8482 -0.9955  2.0751
 2667SOL     vw10668   4.620   0.802   7.139  0.4234 -0.4357  0.7608
 2668SOL     ow10669   5.461   3.048   5.094 -0.0146 -0.2557 -0.3127
 2668SOL     hw10670   5.431   2.968   5.052  0.7863 -0.4932 -0.4588
 2668SOL     hw10671   5.477   3.023   5.185  0.9397 -0.4709 -0.5208
 2668SOL     vw10672   5.459   3.034   5.100  0.2167 -0.3154 -0.3593
 2669SOL     ow10673   6.076   4.149   7.202  0.3210 -0.4113 -0.3313
 2669SOL     hw10674   6.117   4.234   7.219  0.0439  0.0359 -1.7368
 2669SOL     hw10675   6.007   4.142   7.268  1.1539 -0.1237  0.5861
 2669SOL     vw10676   6.072   4.159   7.213  0.3946 -0.3145 -0.3958
 2670SOL     ow10677   3.654   4.849   5.568  0.0435  0.9690  0.8526
 2670SOL     hw10678   3.700   4.783   5.516  1.5603  3.0619 -0.6363
 2670SOL     hw10679   3.625   4.803   5.646  1.0020 -1.4334 -0.1247
 2670SOL     vw10680   3.656   4.834   5.571  0.3700  0.9284  0.5271
 2671SOL     ow10681   1.131   1.811   0.768  0.3111 -0.3814 -0.4947
 2671SOL     hw10682   1.173   1.783   0.849  0.4686  1.7420  0.2179
 2671SOL     hw10683   1.048   1.764   0.766  0.4366 -0.6897  0.7229
 2671SOL     vw10684   1.126   1.801   0.778  0.3483 -0.1420 -0.2400
 2672SOL     ow10685   6.882   1.155   2.071 -0.1210 -0.4137  0.8038
 2672SOL     hw10686   6.961   1.208   2.068  0.7460 -1.6662 -1.9154
 2672SOL     hw10687   6.846   1.169   2.158  1.7156  2.1578  1.2428
 2672SOL     vw10688   6.888   1.164   2.082  0.2358 -0.2398  0.5029
 2673SOL     ow10689   6.833   5.496   2.387 -0.3153  0.4785 -0.3243
 2673SOL     hw10690   6.816   5.565   2.451 -0.9573  1.9565 -1.9904
 2673SOL     hw10691   6.928   5.495   2.378  0.0120 -1.4287  2.3279
 2673SOL     vw10692   6.843   5.505   2.394 -0.3569  0.4220 -0.1942
 2674SOL     ow10693   6.791   1.506   1.505  0.4744  0.0007 -0.0925
 2674SOL     hw10694   6.738   1.585   1.498 -1.5078 -1.2890 -0.6377
 2674SOL     hw10695   6.744   1.441   1.452  2.6328 -1.2502 -0.5891
 2674SOL     vw10696   6.778   1.508   1.497  0.4976 -0.3345 -0.2300
 2675SOL     ow10697   2.160   5.977   0.432 -0.2504  0.1077 -0.0151
 2675SOL     hw10698   2.221   6.045   0.404 -1.1248  1.1253  0.4791
 2675SOL     hw10699   2.188   5.955   0.521 -1.3819  1.5521  0.7362
 2675SOL     vw10700   2.171   5.983   0.440 -0.5151  0.4325  0.1493
 2676SOL     ow10701   0.394   6.800   2.195  0.0011  0.5263  0.0523
 2676SOL     hw10702   0.368   6.749   2.119  0.6702 -0.2357  0.3243
 2676SOL     hw10703   0.312   6.817   2.242 -0.2756  0.0520 -0.2533
 2676SOL     vw10704   0.379   6.796   2.191  0.0529  0.3629  0.0478
 2677SOL     ow10705   0.417   2.233   3.101  0.3675 -0.4649 -0.1765
 2677SOL     hw10706   0.398   2.156   3.155 -2.5145  0.6945  0.6413
 2677SOL     hw10707   0.373   2.215   3.018 -0.9102  0.5312  0.2585
 2677SOL     vw10708   0.409   2.220   3.097 -0.1813 -0.1807 -0.0112
 2678SOL     ow10709   1.338   2.623   1.049 -0.7943  0.1450  0.2562
 2678SOL     hw10710   1.323   2.532   1.072 -1.4227 -0.1195 -1.1289
 2678SOL     hw10711   1.251   2.663   1.050 -0.6417  0.4960 -0.0602
 2678SOL     vw10712   1.325   2.617   1.052 -0.8570  0.1563  0.0317
 2679SOL     ow10713   6.837   7.037   0.688 -0.1745  0.0091 -0.0699
 2679SOL     hw10714   6.860   7.100   0.757 -1.5861  0.8100 -0.3076
 2679SOL     hw10715   6.767   6.984   0.727  0.6537 -1.1147 -0.0577
 2679SOL     vw10716   6.831   7.038   0.703 -0.2513 -0.0334 -0.0997
 2680SOL     ow10717   3.040   2.464   3.275  0.6605  0.4976  0.1537
 2680SOL     hw10718   2.962   2.450   3.330  0.7739 -2.0616 -0.2179
 2680SOL     hw10719   3.016   2.537   3.218 -0.8576  0.8064  1.1083
 2680SOL     vw10720   3.026   2.472   3.275  0.4750  0.2007  0.2306
 2681SOL     ow10721   6.801   1.945   5.359 -0.1530  0.0409 -0.2171
 2681SOL     hw10722   6.832   1.877   5.418  0.4583 -1.2989 -1.9763
 2681SOL     hw10723   6.861   2.018   5.372 -1.6530  0.8768  2.7145
 2681SOL     vw10724   6.813   1.946   5.368 -0.2704 -0.0257 -0.0625
 2682SOL     ow10725   1.896   5.651   6.720  0.4359 -0.1857 -0.1636
 2682SOL     hw10726   1.969   5.677   6.776 -0.7208  1.1430  0.7940
 2682SOL     hw10727   1.903   5.555   6.714  1.4688 -0.2052  1.0000
 2682SOL     vw10728   1.907   5.642   6.726  0.4196 -0.0129  0.1161
 2683SOL     ow10729   5.902   5.910   5.279  0.2862  0.0658  0.1925
 2683SOL     hw10730   5.841   5.983   5.280 -0.1412 -0.1387 -2.3378
 2683SOL     hw10731   5.849   5.833   5.300  0.1030  0.1438  0.0175
 2683SOL     vw10732   5.887   5.909   5.282  0.2053  0.0491 -0.1647
 2684SOL     ow10733   6.056   5.833   0.335  0.2945 -0.1997 -0.1910
 2684SOL     hw10734   5.972   5.790   0.343 -0.8782  2.0469  0.5872
 2684SOL     hw10735   6.040   5.906   0.275  1.9791 -0.3614 -0.8921
 2684SOL     vw10736   6.043   5.837   0.328  0.3619  0.0753 -0.1808
 2685SOL     ow10737   5.760   6.495   7.008  0.2705  0.1384 -0.3178
 2685SOL     hw10738   5.808   6.578   6.999 -0.9910  0.7173 -2.4083
 2685SOL     hw10739   5.769   6.472   7.100  1.6231  2.0012  0.0748
 2685SOL     vw10740   5.767   6.503   7.019  0.2828  0.4604 -0.5419
 2686SOL     ow10741   7.322   1.878   1.396  0.7459 -0.4567  0.5280
 2686SOL     hw10742   7.329   1.909   1.306  0.4472 -0.1648  0.6054
 2686SOL     hw10743   7.257   1.808   1.391  0.5626 -0.2880  0.5570
 2686SOL     vw10744   7.314   1.873   1.383  0.6824 -0.3959  0.5420
 2687SOL     ow10745   4.480   3.300   0.503  0.2665  0.3913  0.2437
 2687SOL     hw10746   4.426   3.246   0.561  0.9847 -0.6371 -0.0225
 2687SOL     hw10747   4.432   3.303   0.421 -0.1562  0.8202  0.5041
 2687SOL     vw10748   4.467   3.293   0.500  0.3054  0.3122  0.2429
 2688SOL     ow10749   3.958   0.877   0.954 -0.0879  0.6135  0.0060
 2688SOL     hw10750   3.863   0.869   0.954  0.0651 -3.0014  0.4177
 2688SOL     hw10751   3.986   0.836   1.036  1.8609 -0.6022 -1.1681
 2688SOL     vw10752   3.949   0.871   0.964  0.1892 -0.0238 -0.0946
 2689SOL     ow10753   2.794   4.737   7.212 -0.0049  0.8738  0.0293
 2689SOL     hw10754   2.832   4.653   7.236 -0.4921  1.0265  1.4175
 2689SOL     hw10755   2.718   4.747   7.269 -1.6555  0.9815 -2.0756
 2689SOL     vw10756   2.789   4.728   7.223 -0.2868  0.9084 -0.0656
 2690SOL     ow10757   3.501   1.232   7.207  0.1508 -0.1361 -0.1129
 2690SOL     hw10758   3.495   1.261   7.298 -0.5431  0.4641 -0.3458
 2690SOL     hw10759   3.472   1.307   7.155  0.9198 -0.3305 -0.8552
 2690SOL     vw10760   3.497   1.245   7.212  0.1607 -0.0825 -0.2415
 2691SOL     ow10761   0.972   4.073   0.454 -0.1423 -0.3362 -0.6156
 2691SOL     hw10762   0.979   4.104   0.544  1.8784 -0.6291 -0.6444
 2691SOL     hw10763   1.005   3.983   0.457 -1.1287 -0.7442 -1.4608
 2691SOL     vw10764   0.977   4.065   0.466 -0.0059 -0.4287 -0.7309
 2692SOL     ow10765   4.451   6.225   5.265  0.0766  0.6499  0.3862
 2692SOL     hw10766   4.478   6.308   5.226 -0.2693  0.6373  0.1141
 2692SOL     hw10767   4.487   6.158   5.207  0.4550  0.6036  0.6696
 2692SOL     vw10768   4.459   6.227   5.252  0.0808  0.6421  0.3877
 2693SOL     ow10769   2.816   6.702   6.338 -0.0580  0.0757 -0.6143
 2693SOL     hw10770   2.844   6.678   6.426 -1.0599 -0.7566 -0.5115
 2693SOL     hw10771   2.873   6.650   6.280 -0.3945 -0.4974 -0.4327
 2693SOL     vw10772   2.827   6.692   6.342 -0.2347 -0.1094 -0.5767
 2694SOL     ow10773   0.520   3.065   7.361  0.1189 -0.1005  0.3325
 2694SOL     hw10774   0.453   3.030   7.419 -2.1770 -0.2854 -2.2129
 2694SOL     hw10775   0.573   2.990   7.336  0.0834 -0.3177  0.9147
 2694SOL     vw10776   0.518   3.051   7.365 -0.1887 -0.1535  0.0734
 2695SOL     ow10777   0.451   6.378   6.879  0.0379  0.4765  0.2812
 2695SOL     hw10778   0.454   6.282   6.888  0.3799  0.3338 -1.0696
 2695SOL     hw10779   0.493   6.411   6.958 -3.0328 -0.3626  2.4035
 2695SOL     vw10780   0.457   6.369   6.890 -0.3221  0.3469  0.3831
 2696SOL     ow10781   6.996   0.525   7.230  0.0261 -0.1560  0.0746
 2696SOL     hw10782   6.944   0.601   7.257 -2.0154 -1.7823  0.9665
 2696SOL     hw10783   6.949   0.490   7.154  1.1306 -0.3490 -0.5309
 2696SOL     vw10784   6.983   0.531   7.223 -0.0973 -0.3960  0.1123
 2697SOL     ow10785   3.947   3.779   6.729  0.6431 -0.2548 -0.0288
 2697SOL     hw10786   4.019   3.737   6.683  1.1156 -0.0905  0.5409
 2697SOL     hw10787   3.874   3.718   6.720  0.9028 -0.5087 -0.4560
 2697SOL     vw10788   3.947   3.765   6.722  0.7398 -0.2666 -0.0103
 2698SOL     ow10789   2.985   7.436   2.604  0.0672  0.2961  0.0440
 2698SOL     hw10790   2.960   7.443   2.512 -0.4419 -2.2039 -0.0971
 2698SOL     hw10791   2.957   7.348   2.630  2.1376  0.1029  1.9857
 2698SOL     vw10792   2.978   7.425   2.596  0.2730 -0.0589  0.2816
 2699SOL     ow10793   4.767   0.625   2.127 -0.2439 -0.3743  0.2579
 2699SOL     hw10794   4.852   0.654   2.094 -0.0535  1.0863  1.8596
 2699SOL     hw10795   4.749   0.684   2.201 -3.5245  0.6289 -1.1553
 2699SOL     vw10796   4.776   0.637   2.132 -0.6516 -0.0493  0.2828
 2700SOL     ow10797   1.307   3.030   4.324  0.0853 -0.2921 -0.3935
 2700SOL     hw10798   1.302   2.972   4.400 -1.5632 -0.1217 -0.3383
 2700SOL     hw10799   1.277   2.976   4.251  0.8182 -0.1900 -0.7803
 2700SOL     vw10800   1.302   3.015   4.324 -0.0355 -0.2562 -0.4375
 2701SOL     ow10801   6.394   2.278   2.516  0.1784  0.5112  0.0154
 2701SOL     hw10802   6.371   2.370   2.507 -3.1334  0.0779  2.1924
 2701SOL     hw10803   6.382   2.259   2.609  1.6912 -1.9248 -0.1917
 2701SOL     vw10804   6.389   2.287   2.527 -0.0589  0.1326  0.2753
 2702SOL     ow10805   3.631   4.163   3.175 -0.2802 -0.6050 -0.7515
 2702SOL     hw10806   3.632   4.165   3.271 -1.5658  2.1828 -0.6970
 2702SOL     hw10807   3.622   4.071   3.153 -0.6414 -1.2643  1.8176
 2702SOL     vw10808   3.630   4.151   3.185 -0.4976 -0.3240 -0.4052
 2703SOL     ow10809   5.362   2.061   3.952 -0.0722 -0.1747 -0.4239
 2703SOL     hw10810   5.275   2.100   3.938 -0.1666 -0.0700  0.4061
 2703SOL     hw10811   5.421   2.137   3.957 -0.4864  0.0714  2.9165
 2703SOL     vw10812   5.358   2.076   3.951 -0.1392 -0.1285  0.1265
 2704SOL     ow10813   1.033   5.922   1.434 -0.6184 -0.0793 -0.6259
 2704SOL     hw10814   1.029   5.950   1.343 -1.2636  0.8465 -0.3242
 2704SOL     hw10815   0.982   5.842   1.437 -1.2890  0.3281 -0.9291
 2704SOL     vw10816   1.026   5.915   1.423 -0.7921  0.0966 -0.6261
 2705SOL     ow10817   7.466   5.210   7.232  0.9093  0.4810  0.2506
 2705SOL     hw10818   7.503   5.191   7.146  0.5212  0.6522  0.0432
 2705SOL     hw10819   7.423   5.129   7.259 -1.0507  1.0968 -0.7867
 2705SOL     vw10820   7.465   5.197   7.224  0.5994  0.5851  0.0865
 2706SOL     ow10821   6.864   6.150   4.974 -0.5079 -0.0526 -0.6345
 2706SOL     hw10822   6.775   6.130   4.944  0.6617 -1.8892 -3.2575
 2706SOL     hw10823   6.885   6.234   4.933 -0.7831  0.0467 -0.5737
 2706SOL     vw10824   6.855   6.159   4.965 -0.3898 -0.2818 -0.9723
 2707SOL     ow10825   1.120   2.622   1.706  0.2131 -0.3908 -0.6394
 2707SOL     hw10826   1.116   2.533   1.740  0.2320 -0.8881 -1.8774
 2707SOL     hw10827   1.207   2.653   1.729  0.8715 -1.3586 -1.7196
 2707SOL     vw10828   1.131   2.615   1.713  0.3024 -0.5842 -0.9453
 2708SOL     ow10829   6.142   2.676   2.857 -0.0845 -0.0884 -0.0760
 2708SOL     hw10830   6.110   2.679   2.767 -1.2543 -1.0638  0.2862
 2708SOL     hw10831   6.235   2.652   2.848  0.1391  1.0193 -1.0565
 2708SOL     vw10832   6.150   2.674   2.844 -0.2091 -0.0709 -0.1576
 2709SOL     ow10833   1.546   6.446   2.481  0.2081 -0.0960 -0.5484
 2709SOL     hw10834   1.614   6.494   2.528 -1.9384  2.3721  0.2294
 2709SOL     hw10835   1.505   6.391   2.548 -0.6293  0.8595 -0.2560
 2709SOL     vw10836   1.549   6.445   2.496 -0.1856  0.3557 -0.4072
 2710SOL     ow10837   6.870   2.502   4.994  0.0651  0.1420  0.2663
 2710SOL     hw10838   6.964   2.492   4.978  0.5690  0.9068  2.3194
 2710SOL     hw10839   6.842   2.569   4.932  1.3163  1.2126  0.8015
 2710SOL     vw10840   6.879   2.510   4.984  0.2966  0.3841  0.6077
 2711SOL     ow10841   3.762   0.661   2.345  0.3542 -0.0384 -0.1503
 2711SOL     hw10842   3.804   0.585   2.303 -0.3308  0.8109 -2.5465
 2711SOL     hw10843   3.835   0.715   2.376  0.9265 -0.4234 -0.7994
 2711SOL     vw10844   3.777   0.658   2.343  0.3393  0.0229 -0.5521
 2712SOL     ow10845   5.012   5.916   4.164  0.5679  0.4928 -0.1271
 2712SOL     hw10846   5.000   5.880   4.076 -0.6204  0.5350 -0.0011
 2712SOL     hw10847   4.938   5.881   4.214  0.8076  1.0795  0.6599
 2712SOL     vw10848   5.001   5.906   4.159  0.4425  0.5758 -0.0064
 2713SOL     ow10849   3.366   5.151   5.344  0.7701  0.0392  0.5596
 2713SOL     hw10850   3.358   5.239   5.308  1.4986  1.2076  3.0522
 2713SOL     hw10851   3.370   5.094   5.267 -2.7125  1.8218 -1.1578
 2713SOL     vw10852   3.366   5.155   5.329  0.4067  0.4282  0.6616
 2714SOL     ow10853   4.234   5.040   3.267  0.3198 -0.4180 -1.1331
 2714SOL     hw10854   4.305   5.099   3.241 -1.5138  1.5768 -1.8554
 2714SOL     hw10855   4.203   5.003   3.185  1.3616 -2.4268 -0.7032
 2714SOL     vw10856   4.239   5.043   3.253  0.2153 -0.4196 -1.1716
 2715SOL     ow10857   5.000   0.860   5.646 -0.4893  0.1334 -0.4976
 2715SOL     hw10858   4.917   0.829   5.608  0.0140 -0.7603 -0.9058
 2715SOL     hw10859   5.039   0.913   5.577 -0.2648 -0.2656 -0.6804
 2715SOL     vw10860   4.994   0.863   5.632 -0.3936 -0.0371 -0.5758
 2716SOL     ow10861   6.814   2.355   2.666 -0.0770 -0.9432  0.3519
 2716SOL     hw10862   6.745   2.409   2.706 -2.6637 -0.3352 -4.1828
 2716SOL     hw10863   6.878   2.418   2.635  0.3471 -1.1368  0.8236
 2716SOL     vw10864   6.813   2.371   2.668 -0.3626 -0.8886 -0.1842
 2717SOL     ow10865   6.062   6.057   5.114 -0.4800  0.3568 -0.2378
 2717SOL     hw10866   5.997   5.998   5.153  0.6992 -0.2481  0.9021
 2717SOL     hw10867   6.013   6.137   5.094 -1.8776 -0.5789 -0.7732
 2717SOL     vw10868   6.047   6.060   5.117 -0.5088  0.1535 -0.1581
 2718SOL     ow10869   5.619   5.069   3.656 -0.1634  0.4219  0.6513
 2718SOL     hw10870   5.579   5.092   3.740  1.5920 -1.8332  2.2545
 2718SOL     hw10871   5.698   5.020   3.680  0.6198  0.0114 -2.3434
 2718SOL     vw10872   5.624   5.065   3.670  0.1717  0.0703  0.4678
 2719SOL     ow10873   3.065   3.147   3.703  0.2900 -0.0349 -0.2266
 2719SOL     hw10874   3.011   3.226   3.711  2.1279  1.3743 -1.0540
 2719SOL     hw10875   3.058   3.123   3.611  0.8064 -0.0525 -0.2607
 2719SOL     vw10876   3.057   3.154   3.692  0.6005  0.1487 -0.3403
 2720SOL     ow10877   6.956   5.954   6.822 -0.4363  0.3301 -0.4585
 2720SOL     hw10878   7.041   5.938   6.862  0.3583  0.6709 -1.9300
 2720SOL     hw10879   6.892   5.923   6.886  0.8479 -2.4485 -0.3891
 2720SOL     vw10880   6.959   5.947   6.836 -0.1619  0.0083 -0.6435
 2721SOL     ow10881   7.153   3.513   4.800  0.6804  0.0964 -0.4204
 2721SOL     hw10882   7.205   3.478   4.872 -0.0330 -0.0547  0.0268
 2721SOL     hw10883   7.200   3.485   4.721  1.2794 -0.0248 -0.0289
 2721SOL     vw10884   7.166   3.505   4.799  0.6652  0.0604 -0.3097
 2722SOL     ow10885   5.088   5.066   6.350 -0.6324  0.0818 -0.3013
 2722SOL     hw10886   5.011   5.096   6.303  0.0516 -1.6752 -2.6774
 2722SOL     hw10887   5.119   4.990   6.301  2.6128  0.7099  0.5441
 2722SOL     vw10888   5.082   5.060   6.338 -0.1140 -0.0668 -0.5033
 2723SOL     ow10889   7.274   4.593   2.937 -0.2452  0.8029  0.1585
 2723SOL     hw10890   7.324   4.619   3.015 -3.0118  1.1191  1.9581
 2723SOL     hw10891   7.318   4.513   2.906  1.5731  1.2752  1.3444
 2723SOL     vw10892   7.286   4.586   2.943 -0.3703  0.9069  0.5523
 2724SOL     ow10893   3.302   3.750   4.714 -0.2210 -0.0933  0.1215
 2724SOL     hw10894   3.214   3.730   4.682 -0.5600 -2.1871  2.1126
 2724SOL     hw10895   3.337   3.666   4.744  1.9127  0.9197  0.7021
 2724SOL     vw10896   3.295   3.736   4.714  0.0156 -0.2360  0.4609
 2725SOL     ow10897   2.673   5.359   7.014  0.5384  0.1496  0.1583
 2725SOL     hw10898   2.590   5.368   7.061  1.3300 -0.0463  1.6682
 2725SOL     hw10899   2.670   5.426   6.946 -0.3966  0.8707  0.8906
 2725SOL     vw10900   2.662   5.369   7.011  0.5195  0.2191  0.4539
 2726SOL     ow10901   6.198   6.158   5.329  0.2031 -0.4462 -0.1296
 2726SOL     hw10902   6.133   6.125   5.267  0.8965 -0.7841 -0.6974
 2726SOL     hw10903   6.267   6.195   5.274  0.0137  0.8970  0.4731
 2726SOL     vw10904   6.199   6.159   5.314  0.2697 -0.3135 -0.1247
 2727SOL     ow10905   4.656   2.486   5.129 -0.1534 -0.0319  0.6057
 2727SOL     hw10906   4.601   2.416   5.093  0.7016  0.0282 -0.8574
 2727SOL     hw10907   4.602   2.526   5.197 -1.0447 -1.4515  0.7700
 2727SOL     vw10908   4.642   2.482   5.133 -0.1585 -0.2114  0.4344
 2728SOL     ow10909   2.318   2.419   2.979  0.1462  0.1127 -0.3137
 2728SOL     hw10910   2.234   2.423   2.933  0.1767  0.5952 -0.3330
 2728SOL     hw10911   2.380   2.456   2.917  0.0742  1.4351  0.3771
 2728SOL     vw10912   2.315   2.424   2.964  0.1408  0.3507 -0.2249
 2729SOL     ow10913   2.136   4.908   0.291  0.7874  0.2051 -0.4188
 2729SOL     hw10914   2.126   4.926   0.385 -1.0862  0.2886 -0.5839
 2729SOL     hw10915   2.221   4.944   0.268  1.0198  0.7196  1.1305
 2729SOL     vw10916   2.146   4.915   0.300  0.5708  0.2840 -0.2362
 2730SOL     ow10917   1.428   5.629   1.241 -0.0266 -0.3316  0.2470
 2730SOL     hw10918   1.415   5.534   1.239 -1.0191 -0.2506  1.5328
 2730SOL     hw10919   1.398   5.659   1.156 -0.7638 -1.0554  0.2428
 2730SOL     vw10920   1.423   5.621   1.229 -0.2548 -0.4168  0.4161
 2731SOL     ow10921   1.044   4.714   3.887  0.1798  0.1726 -0.6020
 2731SOL     hw10922   0.956   4.751   3.891  0.4249  0.6660  1.5390
 2731SOL     hw10923   1.034   4.626   3.923  0.8303  0.8929  1.4430
 2731SOL     vw10924   1.031   4.707   3.892  0.2980  0.3326 -0.0496
 2732SOL     ow10925   6.418   5.598   6.138  0.1087  0.2365 -0.0368
 2732SOL     hw10926   6.468   5.517   6.142  0.1829  0.2789 -0.1197
 2732SOL     hw10927   6.339   5.580   6.191 -0.6579 -0.4453 -1.3590
 2732SOL     vw10928   6.414   5.585   6.146  0.0174  0.1521 -0.2222
 2733SOL     ow10929   6.168   6.247   5.581  0.9795  0.2229 -0.1267
 2733SOL     hw10930   6.170   6.223   5.488 -2.7874 -2.1281  0.2081
 2733SOL     hw10931   6.242   6.200   5.620  2.0854  0.5371 -1.7590
 2733SOL     vw10932   6.178   6.238   5.574  0.6285 -0.0458 -0.2980
 2734SOL     ow10933   0.190   3.539   6.356 -0.0958 -0.0232 -0.4904
 2734SOL     hw10934   0.234   3.470   6.405  0.1780 -0.0873 -0.8192
 2734SOL     hw10935   0.097   3.516   6.358  0.0769 -0.8373 -1.2696
 2734SOL     vw10936   0.183   3.527   6.363 -0.0369 -0.1391 -0.6366
 2735SOL     ow10937   5.892   4.293   5.923  0.0177  1.0673 -0.1212
 2735SOL     hw10938   5.979   4.328   5.941  0.0786  0.0952  1.7216
 2735SOL     hw10939   5.835   4.369   5.923  0.7722  1.6522 -0.7643
 2735SOL     vw10940   5.896   4.307   5.925  0.1254  1.0161  0.0370
 2736SOL     ow10941   2.275   2.165   5.645  0.3316 -0.1245  0.1691
 2736SOL     hw10942   2.293   2.072   5.632 -0.7613 -0.2893 -0.2737
 2736SOL     hw10943   2.202   2.167   5.707  0.5761  0.4477  0.4454
 2736SOL     vw10944   2.267   2.153   5.651  0.2197 -0.0708  0.1473
 2737SOL     ow10945   7.430   2.230   1.370 -0.9995 -1.3326  0.0051
 2737SOL     hw10946   7.423   2.324   1.385 -0.1582 -1.2558 -0.0039
 2737SOL     hw10947   7.366   2.212   1.301 -1.7934 -0.9292  0.6242
 2737SOL     vw10948   7.421   2.240   1.363 -0.9933 -1.2691  0.0856
 2738SOL     ow10949   5.925   4.066   0.337  0.0585 -0.0238  0.4533
 2738SOL     hw10950   5.858   3.997   0.336 -0.6448  0.6142  1.5638
 2738SOL     hw10951   5.958   4.065   0.427  0.4706  0.6950  0.3130
 2738SOL     vw10952   5.921   4.057   0.349  0.0203  0.1552  0.5813
 2739SOL     ow10953   2.170   4.556   0.911 -0.9054 -0.4422 -0.2380
 2739SOL     hw10954   2.161   4.463   0.891 -0.6640 -0.3851 -0.6227
 2739SOL     hw10955   2.114   4.600   0.846 -1.3024 -0.3422  0.1728
 2739SOL     vw10956   2.161   4.550   0.899 -0.9258 -0.4213 -0.2345
 2740SOL     ow10957   5.118   5.948   1.300  0.0451  0.0343 -0.2717
 2740SOL     hw10958   5.202   5.925   1.259  0.1096 -0.3550  0.0732
 2740SOL     hw10959   5.052   5.902   1.248  0.2448 -1.8479  1.0392
 2740SOL     vw10960   5.121   5.939   1.288  0.0801 -0.2654 -0.0533
 2741SOL     ow10961   2.521   3.909   5.567 -0.1022 -0.0138 -0.4107
 2741SOL     hw10962   2.453   3.907   5.634  0.6414 -2.1901  0.3625
 2741SOL     hw10963   2.596   3.866   5.607  1.4874  1.5544 -1.5404
 2741SOL     vw10964   2.522   3.903   5.581  0.2058 -0.0939 -0.4578
 2742SOL     ow10965   5.851   3.643   7.072 -0.0432  0.3516 -0.4189
 2742SOL     hw10966   5.757   3.643   7.056 -0.2552 -0.8356  0.6755
 2742SOL     hw10967   5.860   3.616   7.163  1.3408  0.9100 -0.3699
 2742SOL     vw10968   5.840   3.639   7.082  0.1113  0.2686 -0.2680
 2743SOL     ow10969   0.071   6.719   1.129 -0.2705  0.3689 -0.0628
 2743SOL     hw10970   0.002   6.652   1.135  0.5556 -0.4476  0.8574
 2743SOL     hw10971   0.100   6.715   1.038 -0.9674  0.2476 -0.2921
 2743SOL     vw10972   0.065   6.709   1.118 -0.2535  0.2449  0.0283
 2744SOL     ow10973   2.281   2.197   1.153  0.3789 -0.0832 -0.1392
 2744SOL     hw10974   2.354   2.143   1.121  0.5520  0.3663 -0.5295
 2744SOL     hw10975   2.321   2.283   1.168  0.0620 -0.0094  0.2678
 2744SOL     vw10976   2.296   2.201   1.151  0.3599 -0.0143 -0.1370
 2745SOL     ow10977   3.932   2.810   1.945  0.3819 -0.2857  0.1014
 2745SOL     hw10978   3.857   2.780   1.893  0.2069 -0.1910  0.2985
 2745SOL     hw10979   3.948   2.900   1.915  0.9870 -0.6026 -0.5809
 2745SOL     vw10980   3.924   2.818   1.934  0.4386 -0.3150  0.0374
 2746SOL     ow10981   2.493   0.064   5.015 -0.1792 -0.1274 -0.3354
 2746SOL     hw10982   2.508  -0.017   5.064 -0.1610  1.6513  2.8627
 2746SOL     hw10983   2.551   0.057   4.939  1.4420 -2.1770  0.9924
 2746SOL     vw10984   2.503   0.052   5.011  0.0371 -0.1631  0.2618
 2747SOL     ow10985   6.410   5.779   5.941 -0.2757  0.3686  0.0655
 2747SOL     hw10986   6.415   5.700   5.994  0.0321  0.6780  0.4982
 2747SOL     hw10987   6.391   5.850   6.003 -2.4740  0.3875 -0.5319
 2747SOL     vw10988   6.408   5.778   5.956 -0.5250  0.4120  0.0436
 2748SOL     ow10989   2.438   2.174   3.294  0.0615 -0.0495  0.0319
 2748SOL     hw10990   2.458   2.096   3.345 -0.7575 -0.4646 -0.2717
 2748SOL     hw10991   2.345   2.190   3.309 -0.4457 -0.7250 -2.0239
 2748SOL     vw10992   2.428   2.166   3.303 -0.1136 -0.1934 -0.2794
 2749SOL     ow10993   1.760   1.915   6.705 -0.2610  0.1823  0.6460
 2749SOL     hw10994   1.706   1.865   6.767 -1.0086  1.5460  1.1548
 2749SOL     hw10995   1.834   1.947   6.757 -1.1814  1.8032  1.0432
 2749SOL     vw10996   1.762   1.913   6.720 -0.4811  0.5761  0.7656
 2750SOL     ow10997   1.422   7.212   6.642 -0.1194 -0.5193 -0.1934
 2750SOL     hw10998   1.424   7.261   6.559  0.7908 -0.9926 -0.4750
 2750SOL     hw10999   1.387   7.126   6.619  1.7466 -1.2660 -0.4853
 2750SOL     vw11000   1.418   7.207   6.628  0.2469 -0.6802 -0.2689
 2751SOL     ow11001   0.895   1.680   0.639  0.7040 -0.1047  0.1537
 2751SOL     hw11002   0.973   1.666   0.586  0.6929  2.1313 -0.5470
 2751SOL     hw11003   0.849   1.596   0.636  1.8424 -0.7217 -1.4669
 2751SOL     vw11004   0.899   1.667   0.632  0.8527  0.1089 -0.1526
 2752SOL     ow11005   5.334   1.142   1.058 -0.2686 -0.6114  0.1709
 2752SOL     hw11006   5.246   1.178   1.075 -1.0646 -2.0985 -0.5581
 2752SOL     hw11007   5.320   1.047   1.056  1.5066 -0.9056  0.7550
 2752SOL     vw11008   5.320   1.134   1.060 -0.1395 -0.8464  0.1518
 2753SOL     ow11009   2.662   2.921   5.647 -0.3434  0.1685  0.1583
 2753SOL     hw11010   2.667   2.916   5.551  2.1125 -2.4101  0.3049
 2753SOL     hw11011   2.745   2.960   5.673 -0.3867 -0.4854  1.3109
 2753SOL     vw11012   2.673   2.926   5.638 -0.0252 -0.2577  0.3297
 2754SOL     ow11013   6.314   1.297   1.760 -0.3620  0.3358  0.0625
 2754SOL     hw11014   6.330   1.270   1.670 -1.2304  1.2748 -0.3894
 2754SOL     hw11015   6.241   1.359   1.755 -0.4046  0.4409  1.4053
 2754SOL     vw11016   6.306   1.302   1.748 -0.4821  0.4736  0.1800
 2755SOL     ow11017   5.856   0.586   3.674  0.0838  0.0574 -1.2271
 2755SOL     hw11018   5.909   0.653   3.631  2.3546 -1.1390 -0.4497
 2755SOL     hw11019   5.887   0.503   3.638 -0.1325 -0.7908  0.4187
 2755SOL     vw11020   5.867   0.584   3.664  0.3552 -0.2123 -0.9074
 2756SOL     ow11021   2.635   1.662   3.755 -0.8838  0.5253 -0.0547
 2756SOL     hw11022   2.708   1.656   3.693 -0.0985 -0.4490  0.9244
 2756SOL     hw11023   2.571   1.599   3.722  0.7509 -2.2045  1.6084
 2756SOL     vw11024   2.636   1.653   3.742 -0.5646  0.0366  0.2940
 2757SOL     ow11025   2.486   0.324   0.325 -0.0725 -0.4990  0.3784
 2757SOL     hw11026   2.561   0.297   0.378 -0.8403 -1.6132  0.9245
 2757SOL     hw11027   2.510   0.301   0.235 -0.0833 -1.6010  0.6523
 2757SOL     vw11028   2.499   0.318   0.320 -0.1751 -0.7914  0.4866
 2758SOL     ow11029   6.586   5.940   4.597  0.4281  0.2939  0.0359
 2758SOL     hw11030   6.547   5.861   4.561 -0.2923  0.8773 -0.5090
 2758SOL     hw11031   6.575   6.006   4.529  2.1358  0.5740 -0.0276
 2758SOL     vw11032   6.580   5.938   4.584  0.5581  0.4077 -0.0443
 2759SOL     ow11033   4.825   4.775   1.410 -0.3867 -0.0566  0.3705
 2759SOL     hw11034   4.878   4.847   1.444  0.4981 -1.6115  2.5551
 2759SOL     hw11035   4.884   4.728   1.351  0.0115 -0.6273  1.2131
 2759SOL     vw11036   4.840   4.778   1.407 -0.2177 -0.3374  0.7698
 2760SOL     ow11037   5.886   7.277   7.429  0.2006  0.1841  0.1033
 2760SOL     hw11038   5.928   7.358   7.456  0.8996  0.5449 -1.8500
 2760SOL     hw11039   5.910   7.214   7.496 -2.5415  2.0750  3.1338
 2760SOL     vw11040   5.895   7.279   7.441 -0.0691  0.4814  0.2456
 2761SOL     ow11041   5.887   6.051   1.760 -0.3123 -0.7542  0.3165
 2761SOL     hw11042   5.836   5.976   1.790 -2.5776  1.1209  1.4492
 2761SOL     hw11043   5.903   6.103   1.839  0.1407  0.5812 -0.6081
 2761SOL     vw11044   5.883   6.048   1.774 -0.5512 -0.3309  0.3440
 2762SOL     ow11045   3.582   1.692   2.654 -0.2147 -0.0127  0.1605
 2762SOL     hw11046   3.578   1.616   2.712 -0.6369 -0.7905 -0.8532
 2762SOL     hw11047   3.561   1.766   2.710  3.8945 -0.0266  2.1270
 2762SOL     vw11048   3.579   1.692   2.669  0.2718 -0.1172  0.2861
 2763SOL     ow11049   0.032   4.726   0.336 -0.0602 -0.1072 -0.1304
 2763SOL     hw11050   0.098   4.686   0.393  0.4241  1.0563  0.1526
 2763SOL     hw11051  -0.031   4.656   0.320  1.3911 -1.3559 -0.6578
 2763SOL     vw11052   0.032   4.711   0.342  0.1951 -0.1185 -0.1627
 2764SOL     ow11053   6.128   6.271   0.306  0.0390  0.3992  0.8052
 2764SOL     hw11054   6.215   6.245   0.337  0.0517 -1.5512 -0.6739
 2764SOL     hw11055   6.142   6.355   0.262  0.6414  1.4386  2.8608
 2764SOL     vw11056   6.142   6.279   0.304  0.1202  0.2789  0.8813
 2765SOL     ow11057   3.419   0.521   0.308 -0.1590 -0.0833  0.1018
 2765SOL     hw11058   3.366   0.467   0.367  0.2427 -0.1536  0.4079
 2765SOL     hw11059   3.375   0.606   0.308  0.0801  0.0576  0.8763
 2765SOL     vw11060   3.407   0.525   0.316 -0.0744 -0.0740  0.2443
 2766SOL     ow11061   6.814   5.435   0.087  0.4603 -0.1110  0.2458
 2766SOL     hw11062   6.738   5.478   0.126 -0.1649  0.2924 -1.3254
 2766SOL     hw11063   6.779   5.355   0.048  1.0858 -0.5613  0.5891
 2766SOL     vw11064   6.800   5.430   0.087  0.4601 -0.1171  0.0838
 2767SOL     ow11065   4.651   3.508   2.772 -0.2646 -0.0199  0.1177
 2767SOL     hw11066   4.576   3.449   2.761 -1.1042  1.1049 -0.4101
 2767SOL     hw11067   4.711   3.482   2.702 -0.8809  0.1073 -0.4780
 2767SOL     vw11068   4.649   3.497   2.761 -0.4568  0.1452 -0.0305
 2768SOL     ow11069   5.769   6.133   3.160 -0.2286  0.3370  0.2090
 2768SOL     hw11070   5.697   6.167   3.106 -1.5088  0.0614  1.6979
 2768SOL     hw11071   5.788   6.047   3.123  0.0525  0.8181 -0.8230
 2768SOL     vw11072   5.762   6.126   3.148 -0.3603  0.3641  0.2692
 2769SOL     ow11073   1.151   4.161   0.291  0.0686 -0.4343 -0.0688
 2769SOL     hw11074   1.122   4.158   0.201 -0.4353  0.3615  0.0667
 2769SOL     hw11075   1.077   4.128   0.342  0.0583 -0.1216  0.1213
 2769SOL     vw11076   1.138   4.156   0.286  0.0008 -0.2882 -0.0258
 2770SOL     ow11077   2.977   3.479   0.724  0.2671  0.0005  0.2999
 2770SOL     hw11078   3.007   3.470   0.634  1.5258  0.2407  0.6769
 2770SOL     hw11079   2.926   3.560   0.724 -0.1110 -0.2336 -0.2915
 2770SOL     vw11080   2.974   3.489   0.712  0.3833  0.0012  0.2716
 2771SOL     ow11081   5.589   5.511   2.459 -0.0464 -0.2850 -0.2563
 2771SOL     hw11082   5.493   5.514   2.461 -0.0641 -1.0332  0.5784
 2771SOL     hw11083   5.614   5.487   2.548  0.9095 -0.2987 -0.5218
 2771SOL     vw11084   5.580   5.508   2.471  0.0772 -0.3858 -0.1813
 2772SOL     ow11085   4.586   6.027   5.139 -0.1371  0.0653  0.3443
 2772SOL     hw11086   4.629   6.027   5.054 -0.8280 -1.0741 -0.0227
 2772SOL     hw11087   4.632   5.960   5.190 -0.9243 -0.5864  0.2200
 2772SOL     vw11088   4.598   6.018   5.135 -0.3321 -0.1709  0.2797
 2773SOL     ow11089   2.148   3.106   1.662  0.8608 -0.2668 -0.3335
 2773SOL     hw11090   2.074   3.098   1.722  1.0771 -1.5909 -0.2052
 2773SOL     hw11091   2.162   3.017   1.630  2.4887 -0.0645 -0.2471
 2773SOL     vw11092   2.140   3.093   1.665  1.1042 -0.4148 -0.3052
 2774SOL     ow11093   3.641   1.216   2.278 -0.0044 -0.6684 -0.0900
 2774SOL     hw11094   3.726   1.225   2.235 -0.1644  0.6227 -0.1728
 2774SOL     hw11095   3.659   1.166   2.357  0.9508  0.1127  0.1980
 2774SOL     vw11096   3.654   1.211   2.283  0.1005 -0.3949 -0.0628
 2775SOL     ow11097   6.411   3.443   4.887 -0.2047  0.4286  0.0293
 2775SOL     hw11098   6.411   3.383   4.961 -0.2661  0.0844 -0.2444
 2775SOL     hw11099   6.503   3.461   4.871 -0.0959 -0.7320 -0.7850
 2775SOL     vw11100   6.423   3.438   4.895 -0.1984  0.2301 -0.1140
 2776SOL     ow11101   6.408   6.997   1.775  0.2868 -0.1386 -0.1661
 2776SOL     hw11102   6.379   6.949   1.698 -0.5983 -2.6004  1.5789
 2776SOL     hw11103   6.328   7.031   1.815  0.2380 -2.1892  1.6668
 2776SOL     vw11104   6.394   6.995   1.770  0.1636 -0.7341  0.3060
 2777SOL     ow11105   6.103   5.380   0.914  0.6304  0.0745 -0.1261
 2777SOL     hw11106   6.010   5.383   0.938 -0.2467  3.5753 -3.0183
 2777SOL     hw11107   6.148   5.425   0.986 -0.1320 -0.2818  0.5835
 2777SOL     vw11108   6.097   5.387   0.926  0.4139  0.4895 -0.4141
 2778SOL     ow11109   3.645   2.178   5.030  0.4164  0.4830  0.5155
 2778SOL     hw11110   3.731   2.151   5.062  0.5564 -0.7415 -0.7731
 2778SOL     hw11111   3.634   2.267   5.063  2.5515  1.0090  0.0002
 2778SOL     vw11112   3.655   2.186   5.038  0.7166  0.3909  0.2775
 2779SOL     ow11113   2.284   4.481   0.119  0.2232 -0.7125 -0.3682
 2779SOL     hw11114   2.276   4.478   0.023 -0.2287 -1.9353 -0.3178
 2779SOL     hw11115   2.203   4.523   0.148  0.8735  0.7243 -0.5562
 2779SOL     vw11116   2.272   4.486   0.110  0.2494 -0.6845 -0.3863
 2780SOL     ow11117   1.551   6.236   6.484  0.0186  0.2535  0.7549
 2780SOL     hw11118   1.513   6.177   6.418  0.3444  1.1590 -0.2777
 2780SOL     hw11119   1.522   6.323   6.457  0.2405  0.6477  1.7729
 2780SOL     vw11120   1.542   6.239   6.471  0.0909  0.4253  0.7527
 2781SOL     ow11121   6.971   4.103   3.565  0.3252  0.1153 -0.2264
 2781SOL     hw11122   6.947   4.195   3.553  1.5461  0.3363 -1.1606
 2781SOL     hw11123   7.063   4.106   3.591  0.9625 -0.9137 -2.2307
 2781SOL     vw11124   6.980   4.116   3.567  0.5703  0.0088 -0.6140
 2782SOL     ow11125   3.494   3.925   0.852 -0.1908  0.7457 -0.0828
 2782SOL     hw11126   3.513   3.968   0.935  0.7044  2.8093 -1.2829
 2782SOL     hw11127   3.399   3.930   0.842 -0.7233 -2.1066  2.0512
 2782SOL     vw11128   3.484   3.931   0.862 -0.1429  0.6417  0.0404
 2783SOL     ow11129   5.359   5.869   1.166  0.0122 -0.0234 -0.2002
 2783SOL     hw11130   5.370   5.776   1.186  0.8499 -0.1165 -1.0055
 2783SOL     hw11131   5.360   5.873   1.070 -0.6236  0.7521 -0.1803
 2783SOL     vw11132   5.361   5.857   1.156  0.0386  0.0665 -0.3039
 2784SOL     ow11133   1.537   2.867   1.050 -0.2581  0.1631 -0.1503
 2784SOL     hw11134   1.487   2.948   1.060  1.1926  1.0219  0.4466
 2784SOL     hw11135   1.473   2.797   1.063 -1.1279  1.2151  1.5731
 2784SOL     vw11136   1.522   2.869   1.053 -0.1814  0.4152  0.1559
 2785SOL     ow11137   4.831   1.444   5.223  0.2162  0.2507 -0.4682
 2785SOL     hw11138   4.886   1.382   5.174  0.3524 -0.5457  0.6565
 2785SOL     hw11139   4.878   1.457   5.305 -0.6352  0.5798 -0.0268
 2785SOL     vw11140   4.845   1.437   5.227  0.1221  0.1891 -0.2618
 2786SOL     ow11141   5.170   7.311   4.673 -0.1470 -0.0741  0.0198
 2786SOL     hw11142   5.156   7.299   4.579  0.8163  0.4672 -0.2100
 2786SOL     hw11143   5.099   7.367   4.701  0.6721  1.4358 -0.8081
 2786SOL     vw11144   5.159   7.317   4.664  0.0882  0.1962 -0.1199
 2787SOL     ow11145   3.982   0.764   2.016 -0.0016  0.7189 -0.5680
 2787SOL     hw11146   4.042   0.755   2.090 -0.1831 -0.2401 -0.5220
 2787SOL     hw11147   3.895   0.761   2.055 -0.1066 -0.1659 -0.8412
 2787SOL     vw11148   3.978   0.762   2.031 -0.0395  0.4757 -0.5980
 2788SOL     ow11149   7.448   7.207   7.015  0.0401  0.3329  0.2201
 2788SOL     hw11150   7.372   7.240   7.063 -0.5576  0.3871 -0.7393
 2788SOL     hw11151   7.485   7.284   6.972  1.0807  0.4322  1.2631
 2788SOL     vw11152   7.443   7.222   7.015  0.0985  0.3533  0.2310
 2789SOL     ow11153   4.297   0.342   2.015 -0.5575 -0.0114  0.5128
 2789SOL     hw11154   4.217   0.301   2.047 -1.4993  1.3524 -0.0215
 2789SOL     hw11155   4.268   0.403   1.947  0.8513  1.0443  0.7954
 2789SOL     vw11156   4.283   0.345   2.010 -0.4959  0.3078  0.4796
 2790SOL     ow11157   7.113   2.435   4.951 -0.2585 -0.3531  0.4632
 2790SOL     hw11158   7.166   2.361   4.981  0.1778 -0.3497 -0.2738
 2790SOL     hw11159   7.160   2.469   4.875 -1.0974 -0.0865  0.0477
 2790SOL     vw11160   7.126   2.430   4.945 -0.3114 -0.3176  0.3111
 2791SOL     ow11161   2.731   2.556   1.426 -0.4129 -0.3013 -0.0871
 2791SOL     hw11162   2.658   2.560   1.364 -0.6213  0.0474  0.1779
 2791SOL     hw11163   2.801   2.607   1.384  0.2699 -1.9904 -1.0968
 2791SOL     vw11164   2.731   2.563   1.412 -0.3504 -0.4781 -0.1854
 2792SOL     ow11165   1.020   2.558   7.253 -0.0595 -0.0043  0.0390
 2792SOL     hw11166   0.978   2.484   7.297  0.4706 -0.1674  0.2795
 2792SOL     hw11167   1.002   2.544   7.160 -2.0918  0.8995  0.2329
 2792SOL     vw11168   1.012   2.546   7.247 -0.2577  0.0933  0.0963
 2793SOL     ow11169   4.659   6.323   5.810 -0.3252  0.3221 -0.0534
 2793SOL     hw11170   4.715   6.376   5.753 -0.7590  0.2663 -0.5373
 2793SOL     hw11171   4.709   6.314   5.891  0.5986 -0.1853 -0.6686
 2793SOL     vw11172   4.673   6.329   5.813 -0.2606  0.2480 -0.1984
 2794SOL     ow11173   0.326   3.761   6.411  0.0497  0.2951  0.2161
 2794SOL     hw11174   0.342   3.780   6.503  1.3773  0.0322  0.0689
 2794SOL     hw11175   0.286   3.674   6.410  1.2818 -0.2916  0.4879
 2794SOL     vw11176   0.323   3.752   6.423  0.3875  0.1830  0.2322
 2795SOL     ow11177   6.540   1.676   5.167 -0.1149 -0.5489  0.2473
 2795SOL     hw11178   6.612   1.615   5.151  0.0050 -0.0318 -1.2595
 2795SOL     hw11179   6.471   1.621   5.204  1.4031 -0.8701  2.8875
 2795SOL     vw11180   6.541   1.661   5.170  0.1011 -0.5231  0.3967
 2796SOL     ow11181   1.286   6.692   2.673 -0.0148  0.5285 -0.3622
 2796SOL     hw11182   1.342   6.768   2.687 -1.6053  1.2696  3.2826
 2796SOL     hw11183   1.197   6.728   2.668 -0.7713 -0.9424  1.1455
 2796SOL     vw11184   1.281   6.707   2.674 -0.3245  0.4323  0.3175
 2797SOL     ow11185   1.773   4.962   5.448 -0.0998 -0.2659  1.0110
 2797SOL     hw11186   1.852   4.937   5.496  0.5481 -1.4710 -0.5943
 2797SOL     hw11187   1.719   4.883   5.450  0.1932 -0.5475 -0.6739
 2797SOL     vw11188   1.776   4.948   5.455  0.0243 -0.4621  0.5767
 2798SOL     ow11189   4.790   7.355   1.087 -0.5135  0.1073  0.2512
 2798SOL     hw11190   4.843   7.380   1.011 -0.8840 -0.4731 -0.2071
 2798SOL     hw11191   4.740   7.279   1.057 -1.4828  0.5409  0.7276
 2798SOL     vw11192   4.791   7.348   1.073 -0.6902  0.0880  0.2536
 2799SOL     ow11193   6.401   2.224   6.607 -0.6618  0.3701 -0.6605
 2799SOL     hw11194   6.326   2.250   6.553  0.6208  3.3095 -1.2597
 2799SOL     hw11195   6.378   2.256   6.695 -0.8387 -0.3176 -0.4540
 2799SOL     vw11196   6.388   2.232   6.612 -0.5157  0.6672 -0.7124
 2800SOL     ow11197   0.576   3.093   4.933  0.5301 -0.3376 -0.1730
 2800SOL     hw11198   0.615   3.091   4.845  0.6896 -1.4068 -0.0986
 2800SOL     hw11199   0.502   3.033   4.928  0.8333 -0.7834  0.5497
 2800SOL     vw11200   0.572   3.085   4.921  0.5911 -0.5375 -0.0679
 2801SOL     ow11201   3.946   0.977   5.037 -0.0907 -0.2927 -0.0632
 2801SOL     hw11202   3.940   1.054   5.094  0.5609  0.0165 -0.4050
 2801SOL     hw11203   4.040   0.968   5.018 -0.4105  0.5922 -2.4163
 2801SOL     vw11204   3.958   0.986   5.042 -0.0467 -0.1352 -0.4189
 2802SOL     ow11205   4.120   0.570   2.620  0.4636  0.3095 -0.4145
 2802SOL     hw11206   4.102   0.612   2.704  1.1621  0.7659 -0.4788
 2802SOL     hw11207   4.104   0.639   2.556 -0.3511 -0.1187 -0.6921
 2802SOL     vw11208   4.115   0.585   2.623  0.4485  0.3132 -0.4596
 2803SOL     ow11209   0.063   3.882   6.256 -0.2542  0.2779  0.0968
 2803SOL     hw11210   0.103   3.820   6.317  1.9658  0.3206 -1.2153
 2803SOL     hw11211   0.073   3.841   6.170 -1.2205  1.2499 -0.5035
 2803SOL     vw11212   0.069   3.869   6.253 -0.0888  0.4117 -0.1557
 2804SOL     ow11213   2.193   4.446   3.322 -1.0787 -0.3242 -0.5253
 2804SOL     hw11214   2.208   4.454   3.416 -2.7485 -0.9145 -0.1911
 2804SOL     hw11215   2.160   4.358   3.310 -0.7760 -0.2939 -1.7004
 2804SOL     vw11216   2.191   4.436   3.333 -1.2592 -0.3979 -0.6361
 2805SOL     ow11217   6.130   1.583   3.561  0.1886 -0.2596 -0.0464
 2805SOL     hw11218   6.039   1.608   3.570  0.4361  0.1373  1.8820
 2805SOL     hw11219   6.172   1.659   3.519 -0.0860  0.2139  0.5232
 2805SOL     vw11220   6.124   1.596   3.557  0.1850 -0.1448  0.2831
 2806SOL     ow11221   6.776   6.902   0.409 -0.4150 -0.3010 -0.1963
 2806SOL     hw11222   6.707   6.902   0.342  0.7631 -2.1769 -1.5021
 2806SOL     hw11223   6.752   6.831   0.468  0.2073 -0.7542 -0.4767
 2806SOL     vw11224   6.764   6.892   0.408 -0.1776 -0.6082 -0.4056
 2807SOL     ow11225   4.289   5.348   7.236 -0.5996 -0.6640  0.3753
 2807SOL     hw11226   4.219   5.296   7.275  0.0018 -0.9358  1.1160
 2807SOL     hw11227   4.252   5.437   7.230 -0.9817 -0.7925  0.8064
 2807SOL     vw11228   4.275   5.353   7.240 -0.5708 -0.7167  0.5300
 2808SOL     ow11229   5.090   7.413   1.652 -0.2482 -0.5226 -0.0921
 2808SOL     hw11230   5.115   7.491   1.603 -0.0612 -0.5194  0.0056
 2808SOL     hw11231   5.053   7.353   1.587 -0.6692 -0.2360 -0.1183
 2808SOL     vw11232   5.089   7.415   1.637 -0.2789 -0.4845 -0.0827
 2809SOL     ow11233   5.673   3.816   0.026  0.3529  0.1938  0.4171
 2809SOL     hw11234   5.704   3.743  -0.028 -0.0579 -0.9284  1.6211
 2809SOL     hw11235   5.578   3.814   0.017  0.4226  2.3627 -1.6883
 2809SOL     vw11236   5.664   3.806   0.018  0.3078  0.3320  0.2982
 2810SOL     ow11237   1.829   5.620   7.052 -0.5572 -0.2947 -0.2073
 2810SOL     hw11238   1.745   5.663   7.034 -0.7846 -0.4242  0.5043
 2810SOL     hw11239   1.816   5.577   7.136  0.0602 -0.7598 -0.3462
 2810SOL     vw11240   1.816   5.620   7.061 -0.5059 -0.3729 -0.1318
 2811SOL     ow11241   2.149   5.064   0.569 -0.0238 -0.0210 -0.5123
 2811SOL     hw11242   2.215   5.123   0.533  0.8257  0.0461  1.0441
 2811SOL     hw11243   2.145   5.088   0.662  0.0276 -2.0988  0.0714
 2811SOL     vw11244   2.158   5.075   0.577  0.0950 -0.2863 -0.2299
 2812SOL     ow11245   2.228   3.078   1.219 -0.0696  0.6223 -0.7381
 2812SOL     hw11246   2.287   3.036   1.282  0.8818  0.7035 -1.5399
 2812SOL     hw11247   2.259   3.047   1.134  0.5303  2.7660 -1.3514
 2812SOL     vw11248   2.240   3.068   1.216  0.1351  0.9159 -0.9248
 2813SOL     ow11249   1.799   6.048   2.959 -0.1130  0.3593 -0.1846
 2813SOL     hw11250   1.845   5.991   2.898  0.2180  0.6404 -0.2008
 2813SOL     hw11251   1.714   6.006   2.972  0.4112 -0.5529  0.4085
 2813SOL     vw11252   1.793   6.035   2.952 -0.0001  0.2759 -0.1085
 2814SOL     ow11253   3.475   3.604   5.678  0.2597  0.7973 -0.1697
 2814SOL     hw11254   3.527   3.659   5.736 -0.5903  2.0387 -0.5376
 2814SOL     hw11255   3.386   3.607   5.714 -0.1179  0.9393 -1.0692
 2814SOL     vw11256   3.470   3.611   5.690  0.0978  0.9799 -0.3366
 2815SOL     ow11257   4.875   6.823   1.679 -0.3603 -0.4104  0.0527
 2815SOL     hw11258   4.931   6.791   1.750 -0.3756  0.1634  0.3262
 2815SOL     hw11259   4.868   6.917   1.694  0.0047 -0.2025 -0.9601
 2815SOL     vw11260   4.882   6.831   1.690 -0.3142 -0.3073 -0.0448
 2816SOL     ow11261   3.426   1.895   3.660 -0.2560 -0.1251 -0.0231
 2816SOL     hw11262   3.391   1.911   3.573 -0.8493  1.1289  0.4106
 2816SOL     hw11263   3.493   1.961   3.672 -0.5635  0.0761  0.6654
 2816SOL     vw11264   3.430   1.906   3.650 -0.3747  0.0669  0.1249
 2817SOL     ow11265   4.812   2.231   1.889 -0.5196 -0.2150 -0.0088
 2817SOL     hw11266   4.861   2.306   1.923 -0.3077  0.1348 -1.0367
 2817SOL     hw11267   4.802   2.173   1.964  0.3314  0.3146  0.5384
 2817SOL     vw11268   4.817   2.233   1.903 -0.3791 -0.0989 -0.0722
 2818SOL     ow11269   1.718   4.368   0.695  0.0859  0.2277  0.4877
 2818SOL     hw11270   1.634   4.327   0.675 -0.3094  1.7421 -1.2312
 2818SOL     hw11271   1.702   4.417   0.776 -0.7999  0.7096  0.0401
 2818SOL     vw11272   1.705   4.369   0.703 -0.0831  0.4911  0.2019
 2819SOL     ow11273   2.721   7.256   6.809 -0.3855 -0.2873  0.0359
 2819SOL     hw11274   2.647   7.207   6.773  0.1686 -0.2549 -1.2096
 2819SOL     hw11275   2.734   7.328   6.747  1.6799 -1.1936 -0.6839
 2819SOL     vw11276   2.713   7.259   6.796 -0.0399 -0.4027 -0.2232
 2820SOL     ow11277   6.470   3.877   0.528  0.0007  0.2122 -0.0453
 2820SOL     hw11278   6.407   3.943   0.497 -0.4780 -0.4857 -0.6175
 2820SOL     hw11279   6.543   3.883   0.467 -0.0604  0.1891 -0.1213
 2820SOL     vw11280   6.471   3.887   0.516 -0.0703  0.1169 -0.1308
 2821SOL     ow11281   4.538   2.371   5.613 -0.4658  0.7132  0.1118
 2821SOL     hw11282   4.608   2.315   5.646  0.8349  1.2002 -1.6833
 2821SOL     hw11283   4.478   2.380   5.687  1.6340  0.7495  1.9194
 2821SOL     vw11284   4.539   2.365   5.627 -0.0172  0.7823  0.1132
 2822SOL     ow11285   5.327   0.863   1.075  0.2244 -0.2009  0.7434
 2822SOL     hw11286   5.365   0.794   1.020 -0.2171 -0.0079  0.1904
 2822SOL     hw11287   5.243   0.826   1.104 -1.4404  1.1491 -1.9207
 2822SOL     vw11288   5.321   0.849   1.071 -0.0532  0.0027  0.3189
 2823SOL     ow11289   0.354   1.934   5.186 -0.0233  0.3949  0.1747
 2823SOL     hw11290   0.366   1.842   5.211 -1.0035  0.2409  0.1009
 2823SOL     hw11291   0.439   1.975   5.205  1.2068 -0.9834 -1.8909
 2823SOL     vw11292   0.367   1.927   5.191  0.0097  0.1927 -0.1075
 2824SOL     ow11293   5.483   3.151   4.851  0.3437 -0.1970 -1.1509
 2824SOL     hw11294   5.540   3.228   4.851 -0.1172  0.1516 -0.8652
 2824SOL     hw11295   5.489   3.117   4.940 -2.5652  1.8922  0.0051
 2824SOL     vw11296   5.491   3.157   4.863 -0.1009  0.1247 -0.9608
 2825SOL     ow11297   3.663   1.758   2.191  0.2118  0.0647  0.1927
 2825SOL     hw11298   3.616   1.726   2.113  1.4519  0.4210 -0.7323
 2825SOL     hw11299   3.693   1.845   2.166  2.0483 -0.4553  0.4306
 2825SOL     vw11300   3.661   1.765   2.177  0.6176  0.0430  0.1020
 2826SOL     ow11301   4.004   0.782   2.437  0.0078 -0.1735 -0.3351
 2826SOL     hw11302   4.059   0.787   2.359 -0.5737  0.0990 -0.7381
 2826SOL     hw11303   3.992   0.873   2.464  0.4094 -0.2830  0.2195
 2826SOL     vw11304   4.009   0.795   2.431 -0.0160 -0.1520 -0.3151
 2827SOL     ow11305   6.490   6.850   7.237 -0.0548  0.2344  0.6734
 2827SOL     hw11306   6.476   6.811   7.150  1.5449 -0.8905  0.8974
 2827SOL     hw11307   6.405   6.842   7.280 -0.9651  1.0661 -0.8621
 2827SOL     vw11308   6.477   6.844   7.231  0.0362  0.1957  0.5002
 2828SOL     ow11309   0.630   2.194   0.425  0.1275 -0.0699  0.0067
 2828SOL     hw11310   0.682   2.126   0.382 -0.1200  0.8334 -1.8216
 2828SOL     hw11311   0.673   2.276   0.400  0.0106  0.5115  1.5968
 2828SOL     vw11312   0.642   2.196   0.416  0.0794  0.1259 -0.0247
 2829SOL     ow11313   1.160   1.920   4.548 -0.0544 -0.5282  0.5843
 2829SOL     hw11314   1.126   1.855   4.610  1.6283 -1.2820  0.7701
 2829SOL     hw11315   1.240   1.880   4.513  0.6753  1.1646  0.2122
 2829SOL     vw11316   1.166   1.906   4.552  0.2639 -0.4044  0.5596
 2830SOL     ow11317   2.627   5.596   3.286  0.4035  0.3272  0.6629
 2830SOL     hw11318   2.532   5.586   3.284  0.4079  0.3463 -0.8894
 2830SOL     hw11319   2.647   5.619   3.376 -0.8657 -1.5161  1.4674
 2830SOL     vw11320   2.617   5.598   3.297  0.2365  0.0863  0.5642
 2831SOL     ow11321   1.727   3.169   0.532 -0.5932 -0.2559 -0.5710
 2831SOL     hw11322   1.793   3.168   0.463 -0.5253  0.5749 -0.5276
 2831SOL     hw11323   1.741   3.251   0.578 -1.9328  0.1674 -0.8459
 2831SOL     vw11324   1.737   3.179   0.529 -0.7610 -0.0905 -0.6015
 2832SOL     ow11325   4.609   1.256   3.097 -0.2349 -0.4690 -0.2139
 2832SOL     hw11326   4.593   1.330   3.155 -0.3769  0.4044 -1.3237
 2832SOL     hw11327   4.525   1.211   3.091 -0.1661 -0.6827  0.4139
 2832SOL     vw11328   4.596   1.260   3.104 -0.2446 -0.3820 -0.2774
 2833SOL     ow11329   2.151   2.217   0.926 -0.0121  0.0794  0.1538
 2833SOL     hw11330   2.187   2.210   1.014  1.4817 -0.4521 -0.4622
 2833SOL     hw11331   2.152   2.311   0.907 -2.7469  0.4832  1.6068
 2833SOL     vw11332   2.156   2.229   0.935 -0.1760  0.0626  0.2643
 2834SOL     ow11333   4.650   3.199   5.832 -0.0027 -0.3893  0.0131
 2834SOL     hw11334   4.696   3.277   5.804  2.3621 -1.9388 -0.7608
 2834SOL     hw11335   4.593   3.228   5.904  1.7723  1.7746  0.6317
 2834SOL     vw11336   4.648   3.213   5.838  0.5431 -0.3082 -0.0069
 2835SOL     ow11337   0.055   6.217   0.020  0.1598 -0.4311 -0.4829
 2835SOL     hw11338   0.062   6.198  -0.074 -1.6035 -0.5601 -0.6143
 2835SOL     hw11339  -0.029   6.261   0.029 -0.3740 -1.7165  1.2335
 2835SOL     vw11340   0.045   6.220   0.009 -0.1433 -0.6177 -0.2738
 2836SOL     ow11341   5.229   3.175   1.325 -0.0435  0.5649 -0.4651
 2836SOL     hw11342   5.174   3.216   1.258 -0.6244 -0.5586 -0.6936
 2836SOL     hw11343   5.318   3.183   1.291 -0.4639 -1.5361 -2.2592
 2836SOL     vw11344   5.234   3.182   1.312 -0.1755  0.1395 -0.7319
 2837SOL     ow11345   2.129   0.265   5.402 -0.0185 -0.6830 -0.0120
 2837SOL     hw11346   2.094   0.189   5.450  0.9115 -0.6088  0.8285
 2837SOL     hw11347   2.060   0.288   5.340 -0.5565 -1.8604  0.1186
 2837SOL     vw11348   2.115   0.258   5.400  0.0331 -0.8286  0.1159
 2838SOL     ow11349   7.180   3.835   1.470  0.3992 -0.1097  0.1721
 2838SOL     hw11350   7.165   3.817   1.377 -1.0896 -2.2583  0.7450
 2838SOL     hw11351   7.258   3.889   1.472  0.4460  0.0163 -2.3290
 2838SOL     vw11352   7.188   3.840   1.458  0.2089 -0.3766 -0.0824
 2839SOL     ow11353   6.402   4.493   1.161 -0.2903 -0.1333 -0.3271
 2839SOL     hw11354   6.419   4.574   1.114 -0.1016 -0.0671 -0.1463
 2839SOL     hw11355   6.347   4.442   1.102  1.8239 -1.0182 -1.6503
 2839SOL     vw11356   6.397   4.497   1.147  0.0134 -0.2415 -0.4779
 2840SOL     ow11357   7.062   2.032   6.543  0.5961  0.3429  0.2342
 2840SOL     hw11358   7.127   1.985   6.596  1.1577 -0.2762 -0.9769
 2840SOL     hw11359   7.085   2.012   6.453  0.4267  2.4101 -0.3171
 2840SOL     vw11360   7.074   2.023   6.538  0.6478  0.5339  0.0017
 2841SOL     ow11361   7.207   7.337   6.818 -0.1058  0.1623  0.4028
 2841SOL     hw11362   7.276   7.315   6.881 -0.4977  0.2326  0.8562
 2841SOL     hw11363   7.153   7.402   6.863 -0.5576 -0.0062  0.1019
 2841SOL     vw11364   7.209   7.343   6.832 -0.2170  0.1495  0.4230
 2842SOL     ow11365   7.387   5.614   1.993  0.0982 -0.0269  0.1640
 2842SOL     hw11366   7.428   5.580   1.913 -0.6979 -0.0486 -0.2401
 2842SOL     hw11367   7.327   5.682   1.962  0.0950  0.2518  0.7833
 2842SOL     vw11368   7.385   5.618   1.978 -0.0072  0.0069  0.1925
 2843SOL     ow11369   1.791   4.464   0.940  0.1583  0.5956  0.2558
 2843SOL     hw11370   1.745   4.546   0.956 -1.8666 -0.0200 -1.8194
 2843SOL     hw11371   1.758   4.405   1.009 -0.6600  0.7301 -0.0074
 2843SOL     vw11372   1.780   4.467   0.951 -0.2168  0.5324 -0.0528
 2844SOL     ow11373   7.304   2.117   0.352 -0.5271 -0.2189 -0.1563
 2844SOL     hw11374   7.345   2.195   0.315 -1.6913  0.5085  0.0116
 2844SOL     hw11375   7.212   2.142   0.363 -0.7388 -1.3182  0.7425
 2844SOL     vw11376   7.297   2.131   0.348 -0.7086 -0.2679 -0.0155
 2845SOL     ow11377   2.737   1.186   0.978  0.7809  0.0456  0.0890
 2845SOL     hw11378   2.724   1.094   0.998  2.5457  0.0513  1.5794
 2845SOL     hw11379   2.766   1.188   0.887  1.0295 -0.9044  0.1414
 2845SOL     vw11380   2.739   1.174   0.969  1.0464 -0.0789  0.2925
 2846SOL     ow11381   1.584   5.229   0.834 -0.4053 -0.1104  0.1917
 2846SOL     hw11382   1.509   5.170   0.822  0.0092 -0.5136 -0.4938
 2846SOL     hw11383   1.660   5.174   0.815  0.0786  0.2767  0.9420
 2846SOL     vw11384   1.584   5.214   0.830 -0.2868 -0.1125  0.2002
 2847SOL     ow11385   5.287   3.867   1.706 -0.3162  0.6201  0.4431
 2847SOL     hw11386   5.193   3.884   1.719  0.0349  4.1440 -0.5934
 2847SOL     hw11387   5.330   3.912   1.778  0.7202 -4.3839  3.4668
 2847SOL     vw11388   5.280   3.875   1.717 -0.1333  0.4249  0.7053
 2848SOL     ow11389   0.711   1.146   6.718 -0.7409 -0.1666 -0.2884
 2848SOL     hw11390   0.788   1.196   6.745  0.3999 -1.8079 -0.3420
 2848SOL     hw11391   0.639   1.184   6.768  0.2063  0.9931  0.2523
 2848SOL     vw11392   0.711   1.158   6.728 -0.4654 -0.2301 -0.2241
 2849SOL     ow11393   6.842   1.543   7.201 -0.4594 -0.0221  0.4949
 2849SOL     hw11394   6.863   1.498   7.119 -1.1615  1.3671 -0.4761
 2849SOL     hw11395   6.764   1.595   7.181 -0.7298  0.2420  2.0888
 2849SOL     vw11396   6.835   1.544   7.187 -0.5875  0.1960  0.5772
 2850SOL     ow11397   5.876   2.664   5.823 -0.0664 -0.5484  0.1667
 2850SOL     hw11398   5.872   2.753   5.858  0.2460 -0.1958 -0.6847
 2850SOL     hw11399   5.825   2.612   5.885 -1.2465  0.4171  0.0463
 2850SOL     vw11400   5.869   2.669   5.836 -0.1810 -0.3746  0.0384
 2851SOL     ow11401   7.141   5.360   2.858 -0.8493 -0.1516  0.4415
 2851SOL     hw11402   7.060   5.404   2.884 -1.0121  0.4566 -0.9759
 2851SOL     hw11403   7.124   5.330   2.768  1.3476  2.3644 -0.9706
 2851SOL     vw11404   7.128   5.362   2.849 -0.5810  0.2606  0.0681
 2852SOL     ow11405   1.337   5.408   0.099 -0.1075 -0.2315 -0.4871
 2852SOL     hw11406   1.397   5.423   0.172 -0.3151 -0.9669 -0.1499
 2852SOL     hw11407   1.346   5.485   0.043  0.9707 -0.2197 -0.3169
 2852SOL     vw11408   1.346   5.420   0.101  0.0073 -0.3269 -0.4201
 2853SOL     ow11409   4.109   2.112   1.930 -0.1162 -0.3515  0.3152
 2853SOL     hw11410   4.123   2.033   1.877  0.3469 -0.9918  1.3685
 2853SOL     hw11411   4.014   2.126   1.927 -0.0185  0.1383 -1.3827
 2853SOL     vw11412   4.098   2.103   1.923 -0.0420 -0.3712  0.2303
 2854SOL     ow11413   7.218   5.900   7.350 -0.7823 -0.2713  0.1397
 2854SOL     hw11414   7.237   5.938   7.436 -0.1010 -0.4894  0.0958
 2854SOL     hw11415   7.144   5.950   7.317  0.0485  1.0001  0.1100
 2854SOL     vw11416   7.211   5.912   7.357 -0.5827 -0.1323  0.1297
 2855SOL     ow11417   7.426   4.859   5.954  0.1934  0.7200  0.2484
 2855SOL     hw11418   7.472   4.781   5.921 -1.2606 -0.3759  0.7150
 2855SOL     hw11419   7.381   4.894   5.878  1.1552  1.3593 -0.0465
 2855SOL     vw11420   7.426   4.853   5.940  0.1283  0.6597  0.2708
 2856SOL     ow11421   6.708   6.674   0.546  0.2544 -0.3730  0.3557
 2856SOL     hw11422   6.640   6.633   0.493  0.8339 -0.6920 -0.1550
 2856SOL     hw11423   6.690   6.644   0.635 -0.2929 -0.4163  0.2357
 2856SOL     vw11424   6.696   6.665   0.551  0.2587 -0.4210  0.2725
 2857SOL     ow11425   2.687   4.877   4.840 -0.6891  0.0556  0.2695
 2857SOL     hw11426   2.591   4.875   4.849 -0.8142  2.2345  0.0122
 2857SOL     hw11427   2.706   4.967   4.812  1.2850 -0.8665 -1.5898
 2857SOL     vw11428   2.677   4.889   4.838 -0.4451  0.2215 -0.0098
 2858SOL     ow11429   7.272   2.141   2.950 -0.7688 -0.3207  0.0049
 2858SOL     hw11430   7.353   2.158   2.902 -0.8689 -0.1823 -0.1185
 2858SOL     hw11431   7.253   2.049   2.933 -1.1507 -0.1079 -0.7637
 2858SOL     vw11432   7.280   2.131   2.941 -0.8326 -0.2744 -0.1127
 2859SOL     ow11433   5.947   6.141   0.489  0.2269 -0.1496  0.0214
 2859SOL     hw11434   6.018   6.181   0.439 -1.3284  2.4380 -0.3156
 2859SOL     hw11435   5.891   6.101   0.422 -1.2749  2.3603 -0.3534
 2859SOL     vw11436   5.949   6.141   0.473 -0.1767  0.5231 -0.0725
 2860SOL     ow11437   4.869   3.628   5.008 -0.1657  0.2615 -0.4237
 2860SOL     hw11438   4.937   3.611   5.073 -0.1880  3.2413  0.5322
 2860SOL     hw11439   4.889   3.568   4.936  0.3185 -2.6218  1.9064
 2860SOL     vw11440   4.881   3.618   5.007 -0.1047  0.2743  0.0098
 2861SOL     ow11441   1.471   5.779   2.256  0.3540  0.1536  0.0577
 2861SOL     hw11442   1.542   5.715   2.250 -0.1593 -0.3669 -0.6039
 2861SOL     hw11443   1.420   5.752   2.332  0.8175  0.4963  0.5016
 2861SOL     vw11444   1.474   5.767   2.265  0.3474  0.1304  0.0292
 2862SOL     ow11445   4.659   1.140   7.169  0.1751 -0.4125  0.2286
 2862SOL     hw11446   4.662   1.201   7.095  0.1424 -0.7595 -0.0616
 2862SOL     hw11447   4.614   1.189   7.239 -0.2324 -0.2509 -0.1400
 2862SOL     vw11448   4.653   1.154   7.168  0.1171 -0.4370  0.1416
 2863SOL     ow11449   2.830   4.972   5.075 -0.7767  0.0680  0.0037
 2863SOL     hw11450   2.784   5.044   5.118 -1.9328  0.0105 -1.0627
 2863SOL     hw11451   2.919   4.976   5.109 -1.1927  1.1097  1.0342
 2863SOL     vw11452   2.835   4.982   5.085 -0.9840  0.1981 -0.0010
 2864SOL     ow11453   1.169   4.338   4.133 -0.2607 -0.0900 -0.3384
 2864SOL     hw11454   1.118   4.289   4.198 -1.0471 -2.2310 -2.4349
 2864SOL     hw11455   1.103   4.373   4.073  0.3730  2.8313  0.5288
 2864SOL     vw11456   1.153   4.336   4.134 -0.2809  0.0131 -0.5004
 2865SOL     ow11457   5.759   6.721   2.555  0.8851  0.3765  0.1035
 2865SOL     hw11458   5.698   6.736   2.481  2.1349 -1.3223 -1.3426
 2865SOL     hw11459   5.846   6.730   2.516  1.5758 -0.1709  1.4726
 2865SOL     vw11460   5.762   6.724   2.540  1.1413  0.0801  0.0933
 2866SOL     ow11461   5.464   6.261   0.679  0.0860 -0.1017 -0.1041
 2866SOL     hw11462   5.498   6.247   0.590  1.0795  0.3864  0.1784
 2866SOL     hw11463   5.507   6.194   0.731  0.0513  0.0588  0.1316
 2866SOL     vw11464   5.475   6.251   0.674  0.2122 -0.0165 -0.0358
 2867SOL     ow11465   2.013   4.593   2.305 -0.5394 -0.2291  0.2843
 2867SOL     hw11466   2.056   4.510   2.282 -0.9405 -0.2997 -0.2505
 2867SOL     hw11467   1.921   4.569   2.319 -1.2779  0.4957 -2.6081
 2867SOL     vw11468   2.007   4.579   2.304 -0.6899 -0.1428 -0.1678
 2868SOL     ow11469   7.142   1.463   7.280  0.3052  0.1295  0.0092
 2868SOL     hw11470   7.140   1.369   7.259  0.9427  0.0202  0.4040
 2868SOL     hw11471   7.224   1.494   7.243  0.5273  0.3369  0.6508
 2868SOL     vw11472   7.153   1.454   7.273  0.4182  0.1424  0.1459
 2869SOL     ow11473   1.034   6.790   2.706  0.3647 -0.3881 -0.6353
 2869SOL     hw11474   1.055   6.840   2.785  0.3144 -1.5006  0.1154
 2869SOL     hw11475   0.943   6.763   2.719  0.4948 -0.9498 -0.8568
 2869SOL     vw11476   1.024   6.793   2.718  0.3752 -0.6089 -0.5656
 2870SOL     ow11477   3.485   1.438   6.487 -0.5185 -0.8270  0.6431
 2870SOL     hw11478   3.498   1.482   6.571  0.3676 -0.9095  0.5656
 2870SOL     hw11479   3.500   1.345   6.507  1.4975 -0.6829  0.0884
 2870SOL     vw11480   3.489   1.431   6.501 -0.1357 -0.8189  0.5598
 2871SOL     ow11481   0.660   0.936   4.541  0.1985  0.5830  0.0400
 2871SOL     hw11482   0.572   0.913   4.510  0.3909  0.1497 -0.1907
 2871SOL     hw11483   0.648   0.957   4.633  0.1631 -1.4862  0.5554
 2871SOL     vw11484   0.647   0.935   4.549  0.2192  0.2529  0.0775
 2872SOL     ow11485   1.645   1.982   1.172 -1.0222 -0.0065 -0.5523
 2872SOL     hw11486   1.597   2.060   1.142 -1.1484 -0.1151 -0.6351
 2872SOL     hw11487   1.577   1.924   1.206 -0.7386  0.7499  1.4251
 2872SOL     vw11488   1.630   1.985   1.172 -1.0014  0.0789 -0.3024
 2873SOL     ow11489   5.363   5.564   6.721 -0.5048  0.2464  0.0594
 2873SOL     hw11490   5.331   5.605   6.640 -0.9282 -1.4429 -0.6802
 2873SOL     hw11491   5.334   5.473   6.715  0.0298 -0.0839  1.8244
 2873SOL     vw11492   5.355   5.557   6.709 -0.4902 -0.0203  0.1948
 2874SOL     ow11493   2.935   1.991   2.033 -0.0459  0.0883 -0.0058
 2874SOL     hw11494   3.025   2.016   2.051  0.0307 -1.1367  1.5104
 2874SOL     hw11495   2.941   1.899   2.007 -0.8241  0.0913 -0.2192
 2874SOL     vw11496   2.947   1.982   2.032 -0.1384 -0.0730  0.1661
 2875SOL     ow11497   6.839   4.058   1.313 -0.2930  0.0436  0.7063
 2875SOL     hw11498   6.840   4.098   1.400 -0.1885  1.6207  0.0112
 2875SOL     hw11499   6.757   4.009   1.310  0.1729 -0.8759  2.0353
 2875SOL     vw11500   6.828   4.056   1.324 -0.2177  0.1307  0.7899
 2876SOL     ow11501   1.357   5.099   0.805  0.2605  0.3273  0.2579
 2876SOL     hw11502   1.331   5.007   0.809 -0.0077  0.2165 -2.3728
 2876SOL     hw11503   1.274   5.147   0.802  0.4034  0.5643  0.1212
 2876SOL     vw11504   1.342   5.093   0.805  0.2439  0.3438 -0.1073
 2877SOL     ow11505   1.683   5.296   0.217 -0.0019 -0.1949 -0.0097
 2877SOL     hw11506   1.701   5.203   0.232 -2.0234 -0.8681 -1.3646
 2877SOL     hw11507   1.718   5.314   0.130 -1.2703 -0.2245 -0.5527
 2877SOL     vw11508   1.690   5.286   0.208 -0.4360 -0.2875 -0.2601
 2878SOL     ow11509   2.816   1.579   3.951 -0.1652 -0.9075  0.3521
 2878SOL     hw11510   2.834   1.493   3.913 -1.4756 -1.1473  0.2307
 2878SOL     hw11511   2.760   1.623   3.887 -1.4617 -0.8891  1.4357
 2878SOL     vw11512   2.811   1.573   3.938 -0.5091 -0.9367  0.4792
 2879SOL     ow11513   3.349   2.500   1.010 -0.2142 -0.3137  0.2947
 2879SOL     hw11514   3.378   2.500   1.101  0.7166  0.3330  0.0063
 2879SOL     hw11515   3.286   2.428   1.006  0.1379 -0.7038  1.3112
 2879SOL     vw11516   3.344   2.490   1.022 -0.0448 -0.2798  0.3907
 2880SOL     ow11517   7.314   6.366   0.104 -0.1534  0.0903  0.0357
 2880SOL     hw11518   7.311   6.458   0.077 -0.8886  0.2267  0.5561
 2880SOL     hw11519   7.243   6.325   0.054 -0.2434 -0.0569  0.2867
 2880SOL     vw11520   7.304   6.373   0.094 -0.2625  0.0889  0.1375
 2881SOL     ow11521   1.591   0.652   3.733  0.5847  0.0935 -0.1824
 2881SOL     hw11522   1.504   0.611   3.738 -0.4132  1.4345 -3.4072
 2881SOL     hw11523   1.646   0.585   3.692 -0.0339  0.5094 -1.7963
 2881SOL     vw11524   1.586   0.637   3.728  0.3715  0.3253 -0.8208
 2882SOL     ow11525   4.756   6.215   1.559  0.2463 -0.1121 -0.6022
 2882SOL     hw11526   4.777   6.212   1.466  0.9989 -1.5924 -0.4099
 2882SOL     hw11527   4.712   6.132   1.577  0.2330  0.0932  0.3969
 2882SOL     vw11528   4.753   6.204   1.549  0.3440 -0.2804 -0.4449
 2883SOL     ow11529   5.712   0.158   5.937  0.2997  0.1127  0.0211
 2883SOL     hw11530   5.796   0.112   5.944  1.3544  1.9942  0.4686
 2883SOL     hw11531   5.694   0.160   5.843  0.7510 -0.2933 -0.0838
 2883SOL     vw11532   5.721   0.152   5.926  0.4983  0.3074  0.0660
 2884SOL     ow11533   1.847   0.116   3.002  0.0589  0.1577 -0.3319
 2884SOL     hw11534   1.915   0.089   2.939  0.5828 -0.9541  0.6731
 2884SOL     hw11535   1.789   0.040   3.007 -0.7962  0.7892 -0.5410
 2884SOL     vw11536   1.849   0.103   2.994  0.0152  0.0943 -0.2269
 2885SOL     ow11537   6.051   5.445   0.651 -0.5452 -0.0684  0.5062
 2885SOL     hw11538   6.067   5.425   0.743 -0.4001  0.3059  0.5656
 2885SOL     hw11539   6.122   5.400   0.603  0.0427  0.6580  0.6740
 2885SOL     vw11540   6.063   5.436   0.656 -0.4485  0.0770  0.5361
 2886SOL     ow11541   5.840   2.603   5.518 -0.1161  0.4977  0.4112
 2886SOL     hw11542   5.857   2.518   5.478 -1.0485  0.5809 -0.1760
 2886SOL     hw11543   5.746   2.616   5.510  0.0174  1.6181  0.4399
 2886SOL     vw11544   5.830   2.594   5.512 -0.2215  0.6565  0.3376
 2887SOL     ow11545   4.318   7.026   3.624  0.1245 -0.4633 -0.0925
 2887SOL     hw11546   4.266   6.974   3.563 -0.3604 -0.8901  0.6789
 2887SOL     hw11547   4.308   6.982   3.708 -0.1268  0.7560  0.5352
 2887SOL     vw11548   4.310   7.013   3.627  0.0277 -0.3586  0.0920
 2888SOL     ow11549   1.284   6.350   4.814  0.6197 -0.1271 -0.5430
 2888SOL     hw11550   1.244   6.275   4.859 -0.8199  0.5294 -0.6797
 2888SOL     hw11551   1.210   6.400   4.780  1.4757  1.9705  0.4929
 2888SOL     vw11552   1.269   6.347   4.815  0.5428  0.2365 -0.4244
 2889SOL     ow11553   5.599   1.729   0.130  0.7592  0.2971  0.0639
 2889SOL     hw11554   5.661   1.762   0.194  0.6243 -0.7314  0.7442
 2889SOL     hw11555   5.653   1.707   0.054  1.0021  0.9326  0.0483
 2889SOL     vw11556   5.615   1.730   0.128  0.7734  0.2452  0.1516
 2890SOL     ow11557   0.913   5.712   2.946  0.4591  0.2931  0.1495
 2890SOL     hw11558   0.939   5.620   2.938  0.8473  0.2395  1.7490
 2890SOL     hw11559   0.948   5.753   2.867 -0.7178 -1.1202 -1.1899
 2890SOL     vw11560   0.921   5.705   2.935  0.3551  0.0997  0.1837
 2891SOL     ow11561   0.081   6.352   0.458 -0.0740  0.5932  0.8700
 2891SOL     hw11562   0.022   6.425   0.439  0.2852  0.7434  0.3140
 2891SOL     hw11563   0.113   6.325   0.372 -0.6577 -0.6084  1.0110
 2891SOL     vw11564   0.077   6.358   0.444 -0.1036  0.4544  0.8153
 2892SOL     ow11565   2.542   5.126   2.580  0.3592 -0.0006 -0.4459
 2892SOL     hw11566   2.637   5.114   2.581  0.1499 -2.1575 -0.5485
 2892SOL     hw11567   2.517   5.135   2.672  0.4193 -2.4242 -0.1338
 2892SOL     vw11568   2.551   5.125   2.593  0.3395 -0.6051 -0.4182
 2893SOL     ow11569   2.765   1.517   1.312  0.3452  0.1715 -0.3926
 2893SOL     hw11570   2.709   1.570   1.369  0.9618  0.4484 -0.0470
 2893SOL     hw11571   2.745   1.427   1.336  0.2722  0.2785 -0.0559
 2893SOL     vw11572   2.755   1.512   1.322  0.4170  0.2221 -0.3026
 2894SOL     ow11573   1.768   2.017   1.426 -0.1245  0.2405  0.4504
 2894SOL     hw11574   1.748   2.007   1.333 -1.3396 -0.0556  0.7272
 2894SOL     hw11575   1.686   2.047   1.466 -0.9297 -3.4642  2.0514
 2894SOL     vw11576   1.754   2.019   1.419 -0.3911 -0.2873  0.6981
 2895SOL     ow11577   4.452   7.140   3.363  0.1470 -0.1035 -0.2164
 2895SOL     hw11578   4.406   7.078   3.308  3.1196 -1.7832 -1.0086
 2895SOL     hw11579   4.442   7.105   3.452  1.6991 -1.7447 -0.6413
 2895SOL     vw11580   4.445   7.127   3.368  0.7441 -0.5419 -0.3769
 2896SOL     ow11581   0.645   3.349   5.358 -0.3021  0.1341 -0.1767
 2896SOL     hw11582   0.595   3.415   5.406 -0.5468  0.5568 -0.9872
 2896SOL     hw11583   0.727   3.393   5.336 -0.2254 -0.0314 -0.2232
 2896SOL     vw11584   0.649   3.363   5.361 -0.3243  0.1680 -0.2899
 2897SOL     ow11585   0.304   3.652   4.291  0.4363  0.1148  0.6958
 2897SOL     hw11586   0.266   3.660   4.378 -0.7046 -0.5624  0.2719
 2897SOL     hw11587   0.234   3.618   4.236  1.3100 -0.0443 -0.3699
 2897SOL     vw11588   0.290   3.649   4.295  0.4011  0.0045  0.4995
 2898SOL     ow11589   7.225   1.690   4.572  0.3227 -0.7696  0.4113
 2898SOL     hw11590   7.234   1.687   4.667  1.4507 -3.2061  0.3195
 2898SOL     hw11591   7.132   1.705   4.556  0.3731  1.5396  1.8243
 2898SOL     vw11592   7.214   1.691   4.583  0.4783 -0.7864  0.5853
 2899SOL     ow11593   2.599   6.820   3.800  0.3110  0.3787 -0.5263
 2899SOL     hw11594   2.574   6.775   3.881 -1.7152  0.2045 -1.2001
 2899SOL     hw11595   2.695   6.821   3.803  0.3499 -1.1424  1.0447
 2899SOL     vw11596   2.608   6.814   3.811  0.0488  0.1550 -0.4079
 2900SOL     ow11597   6.812   5.015   7.259  0.2608 -0.1338  0.0956
 2900SOL     hw11598   6.776   5.088   7.210  0.9836  0.6006  0.6335
 2900SOL     hw11599   6.745   4.994   7.324  0.1276  0.1672  0.0536
 2900SOL     vw11600   6.798   5.022   7.261  0.3388  0.0029  0.1609
 2901SOL     ow11601   3.166   6.986   3.233 -0.7033 -0.3035  0.1518
 2901SOL     hw11602   3.226   7.056   3.259  0.4194 -1.0792 -0.2677
 2901SOL     hw11603   3.185   6.971   3.141 -0.6616 -1.4082  0.3238
 2901SOL     vw11604   3.177   6.993   3.224 -0.5496 -0.5519  0.1191
 2902SOL     ow11605   6.876   0.469   0.963 -0.0092  0.4103  0.1593
 2902SOL     hw11606   6.934   0.430   1.028  0.9186 -0.0356 -0.9083
 2902SOL     hw11607   6.860   0.399   0.900 -1.6071  0.5691  0.3292
 2902SOL     vw11608   6.881   0.455   0.964 -0.0975  0.3724  0.0409
 2903SOL     ow11609   1.479   5.060   2.114  0.4160 -0.5501  0.8584
 2903SOL     hw11610   1.555   5.012   2.081  1.4167  1.0636  0.6661
 2903SOL     hw11611   1.506   5.090   2.201  1.3530  2.7070 -0.3944
 2903SOL     vw11612   1.493   5.058   2.121  0.6716  0.0923  0.6678
 2904SOL     ow11613   6.895   4.451   0.127 -0.2542  0.2007  0.1558
 2904SOL     hw11614   6.818   4.417   0.174 -0.7717  0.2671 -0.6219
 2904SOL     hw11615   6.946   4.373   0.105 -1.1884 -0.0825 -1.1837
 2904SOL     vw11616   6.892   4.436   0.130 -0.4456  0.1721 -0.1235
 2905SOL     ow11617   3.806   7.168   1.337 -0.1903 -0.3569 -0.1389
 2905SOL     hw11618   3.724   7.218   1.332  0.3357  0.7911  1.5770
 2905SOL     hw11619   3.790   7.105   1.407  0.4835  0.1001  0.4362
 2905SOL     vw11620   3.793   7.166   1.346 -0.0319 -0.1450  0.1634
 2906SOL     ow11621   2.562   4.044   7.434  0.2449 -0.5920  0.2424
 2906SOL     hw11622   2.562   4.029   7.340  0.0285  1.7982 -0.2151
 2906SOL     hw11623   2.488   3.993   7.467  0.1617 -1.2499 -0.9077
 2906SOL     vw11624   2.552   4.036   7.426  0.2054 -0.3636  0.0303
 2907SOL     ow11625   3.044   4.505   3.511  0.1744 -0.2663 -0.6220
 2907SOL     hw11626   3.131   4.541   3.523  0.3705 -0.7294 -0.6533
 2907SOL     hw11627   3.042   4.426   3.565  0.0247 -0.6597 -1.1912
 2907SOL     vw11628   3.055   4.500   3.520  0.1806 -0.3796 -0.7012
 2908SOL     ow11629   4.096   3.081   2.930 -0.2184 -0.1232 -0.1677
 2908SOL     hw11630   4.089   3.168   2.889 -0.0238  0.5909  1.2655
 2908SOL     hw11631   4.181   3.048   2.902  0.2378  0.6735  0.2257
 2908SOL     vw11632   4.106   3.088   2.921 -0.1326  0.0762  0.0733
 2909SOL     ow11633   2.641   5.072   7.357 -0.1537  0.1675  0.0828
 2909SOL     hw11634   2.660   5.121   7.437 -1.4765  0.1584  0.4213
 2909SOL     hw11635   2.661   4.981   7.380 -2.0746 -0.0819  0.9837
 2909SOL     vw11636   2.646   5.066   7.371 -0.5816  0.1335  0.2463
 2910SOL     ow11637   0.082   2.822   4.394 -0.4127 -0.3785  0.3145
 2910SOL     hw11638   0.090   2.771   4.313  0.2201 -1.3002  0.9380
 2910SOL     hw11639   0.157   2.795   4.447  0.0778  1.3931  0.5837
 2910SOL     vw11640   0.093   2.812   4.390 -0.2645 -0.2663  0.4323
 2911SOL     ow11641   3.417   5.770   0.188  0.4904 -0.2762 -0.4409
 2911SOL     hw11642   3.342   5.711   0.194  0.9907 -1.0588 -1.6189
 2911SOL     hw11643   3.477   5.728   0.127 -0.3895  2.7442 -3.7728
 2911SOL     vw11644   3.415   5.757   0.181  0.4401  0.0188 -1.0359
 2912SOL     ow11645   1.537   4.119   5.901  0.2233 -0.1201  0.5798
 2912SOL     hw11646   1.521   4.210   5.877 -0.5603 -0.2692  0.5392
 2912SOL     hw11647   1.576   4.124   5.989 -3.8591  0.1012  2.6167
 2912SOL     vw11648   1.540   4.132   5.910 -0.4187 -0.1106  0.8430
 2913SOL     ow11649   1.535   6.632   5.445  0.2750  0.3823  0.5158
 2913SOL     hw11650   1.493   6.554   5.482 -1.1129  0.1647 -1.3691
 2913SOL     hw11651   1.623   6.632   5.483 -0.5988 -0.5012  2.7399
 2913SOL     vw11652   1.541   6.622   5.455 -0.0234  0.2370  0.5605
 2914SOL     ow11653   2.971   5.389   6.633  0.4408  0.0289  0.1696
 2914SOL     hw11654   3.005   5.360   6.548  0.1716  1.3755 -0.4340
 2914SOL     hw11655   3.048   5.424   6.678  0.5808 -0.6698  0.4694
 2914SOL     vw11656   2.986   5.390   6.628  0.4237  0.1142  0.1295
 2915SOL     ow11657   2.633   3.771   2.477  0.2050 -0.4616  0.5939
 2915SOL     hw11658   2.722   3.803   2.490  0.5117 -1.4445  0.9668
 2915SOL     hw11659   2.637   3.723   2.394 -0.5550  1.4836 -0.6366
 2915SOL     vw11660   2.645   3.769   2.468  0.1450 -0.3346  0.4808
 2916SOL     ow11661   1.390   6.834   4.894  0.4656 -0.0551 -0.5890
 2916SOL     hw11662   1.330   6.907   4.880 -0.3174  0.3991  3.6513
 2916SOL     hw11663   1.477   6.871   4.883  0.0521  0.8922 -0.7573
 2916SOL     vw11664   1.393   6.848   4.891  0.3077  0.1299 -0.0515
 2917SOL     ow11665   0.533   1.695   7.061 -0.3412 -0.2348 -0.0839
 2917SOL     hw11666   0.560   1.780   7.094  0.5176  0.4011 -2.2437
 2917SOL     hw11667   0.455   1.713   7.009 -0.7450 -0.9430  0.2590
 2917SOL     vw11668   0.526   1.708   7.058 -0.2812 -0.2443 -0.3235
 2918SOL     ow11669   1.770   0.373   3.995  0.0861  0.3847  0.6998
 2918SOL     hw11670   1.748   0.321   4.073 -1.4164 -0.1273 -0.0196
 2918SOL     hw11671   1.732   0.323   3.923  2.2341  0.3812 -0.4915
 2918SOL     vw11672   1.762   0.359   3.996  0.1712  0.3167  0.4476
 2919SOL     ow11673   5.699   0.412   4.278 -0.7291 -0.3340 -0.1874
 2919SOL     hw11674   5.661   0.364   4.203 -0.5782 -0.6930 -0.0378
 2919SOL     hw11675   5.781   0.448   4.244 -0.0034 -1.5904  0.1488
 2919SOL     vw11676   5.705   0.410   4.263 -0.6135 -0.5471 -0.1233
 2920SOL     ow11677   7.214   1.222   2.247 -0.4368 -0.4380 -0.3831
 2920SOL     hw11678   7.161   1.144   2.262 -0.0995 -0.3249  1.6491
 2920SOL     hw11679   7.181   1.286   2.311  1.1019  0.1483 -0.1411
 2920SOL     vw11680   7.202   1.221   2.258 -0.1893 -0.3458 -0.0832
 2921SOL     ow11681   5.000   3.496   7.445 -0.4092 -0.2947 -0.2649
 2921SOL     hw11682   5.080   3.516   7.397 -0.7596 -0.6848 -1.0197
 2921SOL     hw11683   4.949   3.577   7.442  0.8022  0.6349  1.9774
 2921SOL     vw11684   5.004   3.509   7.439 -0.2954 -0.2236 -0.0687
 2922SOL     ow11685   1.155   2.184   6.710  0.1216  0.4359  0.0284
 2922SOL     hw11686   1.108   2.267   6.709 -0.0750  0.3226 -0.2871
 2922SOL     hw11687   1.106   2.129   6.771 -0.5623  0.0920 -0.8005
 2922SOL     vw11688   1.143   2.187   6.718  0.0054  0.3756 -0.1225
 2923SOL     ow11689   1.559   5.616   0.554 -0.1286  0.0779 -0.7522
 2923SOL     hw11690   1.530   5.706   0.539 -0.3027  0.1192 -0.2025
 2923SOL     hw11691   1.609   5.620   0.635  0.8397 -0.1258 -1.3231
 2923SOL     vw11692   1.561   5.629   0.562 -0.0238  0.0565 -0.7550
 2924SOL     ow11693   4.932   5.659   3.190 -0.1940  0.1121 -0.0981
 2924SOL     hw11694   4.935   5.740   3.240  0.6717  1.8129 -2.7114
 2924SOL     hw11695   5.019   5.653   3.150 -0.7046 -1.3957 -1.0467
 2924SOL     vw11696   4.944   5.669   3.191 -0.1473  0.1376 -0.5680
 2925SOL     ow11697   5.912   3.690   3.232  0.7222  0.3623 -0.1711
 2925SOL     hw11698   5.920   3.743   3.311 -1.6887  1.7087 -0.7500
 2925SOL     hw11699   5.876   3.607   3.263 -2.1984  1.5895  0.0280
 2925SOL     vw11700   5.908   3.686   3.247  0.0188  0.7018 -0.2214
 2926SOL     ow11701   5.038   5.804   5.279 -0.3451 -0.4034 -1.0391
 2926SOL     hw11702   5.120   5.799   5.230  1.5536 -1.0215  1.9338
 2926SOL     hw11703   5.002   5.715   5.275  1.5050 -1.3512  1.2146
 2926SOL     vw11704   5.044   5.792   5.272  0.1495 -0.6101 -0.3493
 2927SOL     ow11705   0.838   6.158   4.798 -0.0422  0.2321  0.0897
 2927SOL     hw11706   0.908   6.122   4.743 -0.7718  0.1955 -0.8379
 2927SOL     hw11707   0.827   6.248   4.767 -1.5720 -0.2791 -0.9961
 2927SOL     vw11708   0.846   6.165   4.786 -0.3403  0.1595 -0.1757
 2928SOL     ow11709   6.410   1.329   7.446 -0.3594 -0.4894 -0.2896
 2928SOL     hw11710   6.466   1.343   7.370 -1.6775  0.9005 -1.0666
 2928SOL     hw11711   6.321   1.343   7.413 -1.2154 -2.4958  0.9128
 2928SOL     vw11712   6.405   1.332   7.431 -0.6464 -0.5708 -0.2332
 2929SOL     ow11713   6.224   1.793   1.111  0.6436  0.2303 -0.3345
 2929SOL     hw11714   6.238   1.722   1.173  2.0696 -0.6896 -1.6325
 2929SOL     hw11715   6.301   1.849   1.121  0.0224  1.0534 -0.0430
 2929SOL     vw11716   6.236   1.791   1.120  0.7498  0.2176 -0.4673
 2930SOL     ow11717   2.775   0.144   3.234  0.2418 -0.0424 -0.1792
 2930SOL     hw11718   2.740   0.091   3.306 -1.0619  1.0798  0.0439
 2930SOL     hw11719   2.736   0.107   3.155  0.0130  0.0481 -0.1080
 2930SOL     vw11720   2.766   0.132   3.233  0.0396  0.1176 -0.1403
 2931SOL     ow11721   1.421   3.350   5.993 -0.3762 -0.0713 -0.1413
 2931SOL     hw11722   1.477   3.273   6.000  0.4860  0.6629  1.4338
 2931SOL     hw11723   1.472   3.412   5.940  0.1563  0.4296  0.9212
 2931SOL     vw11724   1.435   3.348   5.987 -0.1922  0.0918  0.2067
 2932SOL     ow11725   0.331   2.441   0.235  0.1268  0.0026  0.2225
 2932SOL     hw11726   0.374   2.463   0.317  1.8842 -0.1214 -0.6314
 2932SOL     hw11727   0.248   2.401   0.261 -0.0493  1.3674  1.8904
 2932SOL     vw11728   0.325   2.438   0.249  0.3354  0.1663  0.3299
 2933SOL     ow11729   0.800   1.646   1.546  0.1389  0.0605 -0.3054
 2933SOL     hw11730   0.746   1.667   1.470  1.4079  1.2771 -0.9144
 2933SOL     hw11731   0.767   1.702   1.616 -0.1974 -0.1332 -0.3065
 2933SOL     vw11732   0.789   1.656   1.546  0.2620  0.1954 -0.3858
 2934SOL     ow11733   5.205   0.697   5.824  0.3222  0.0376 -0.2672
 2934SOL     hw11734   5.217   0.606   5.799 -0.5472 -1.1968  3.2028
 2934SOL     hw11735   5.264   0.710   5.899 -0.5705  1.8669  0.1889
 2934SOL     vw11736   5.214   0.687   5.831  0.0894  0.1161  0.2508
 2935SOL     ow11737   2.202   4.244   0.374  0.0939 -0.5957  0.1223
 2935SOL     hw11738   2.289   4.271   0.348  0.4592  0.7009  2.3891
 2935SOL     hw11739   2.215   4.161   0.420  0.0081 -0.8045 -0.2248
 2935SOL     vw11740   2.215   4.237   0.377  0.1307 -0.4523  0.3756
 2936SOL     ow11741   3.160   2.134   3.577 -0.8397  1.1531  0.1671
 2936SOL     hw11742   3.207   2.102   3.655  1.6830 -0.5626 -1.8900
 2936SOL     hw11743   3.115   2.056   3.544  0.6066  1.0455 -1.6973
 2936SOL     vw11744   3.160   2.119   3.583 -0.3160  0.9127 -0.3504
 2937SOL     ow11745   3.032   6.355   2.086  0.0866 -0.3307  0.2434
 2937SOL     hw11746   3.118   6.396   2.096 -0.3814  0.0265  5.0330
 2937SOL     hw11747   3.047   6.262   2.102 -0.1699 -0.6624 -1.2790
 2937SOL     vw11748   3.045   6.348   2.089 -0.0091 -0.3273  0.6745
 2938SOL     ow11749   2.545   1.345   2.119  0.6307  0.2367 -0.8918
 2938SOL     hw11750   2.538   1.258   2.081 -1.4744 -0.3000  0.5216
 2938SOL     hw11751   2.588   1.331   2.204 -0.8837  0.3097 -0.0725
 2938SOL     vw11752   2.549   1.332   2.125  0.1532  0.1754 -0.5971
 2939SOL     ow11753   1.775   5.300   2.395  0.3480  0.1332 -1.1187
 2939SOL     hw11754   1.802   5.326   2.483 -0.7393 -0.5981 -0.5410
 2939SOL     hw11755   1.686   5.265   2.406  0.5478 -0.8582 -2.3425
 2939SOL     vw11756   1.766   5.299   2.408  0.2308 -0.0942 -1.2041
 2940SOL     ow11757   0.543   3.435   7.110 -0.1218  0.2543  0.3440
 2940SOL     hw11758   0.596   3.379   7.166  1.0158  1.1588  0.1963
 2940SOL     hw11759   0.520   3.379   7.036  2.3760  0.3932 -0.6203
 2940SOL     vw11760   0.547   3.420   7.108  0.3578  0.3920  0.1974
 2941SOL     ow11761   5.910   1.832   1.612 -0.1069 -0.1245 -0.1243
 2941SOL     hw11762   5.871   1.774   1.547 -0.7580  0.6214 -0.4102
 2941SOL     hw11763   5.979   1.779   1.653  1.1399 -0.2629 -2.2306
 2941SOL     vw11764   5.914   1.817   1.609 -0.0284 -0.0443 -0.4399
 2942SOL     ow11765   4.694   0.139   1.263  0.1060 -0.3021  0.0997
 2942SOL     hw11766   4.740   0.223   1.258 -0.1471 -0.1594  0.2140
 2942SOL     hw11767   4.608   0.159   1.299 -0.8363 -0.2526 -2.0445
 2942SOL     vw11768   4.689   0.152   1.267 -0.0517 -0.2767 -0.1681
 2943SOL     ow11769   1.635   7.389   5.829 -0.3372 -0.3763 -0.0442
 2943SOL     hw11770   1.608   7.410   5.739 -0.2223  1.3880  0.3114
 2943SOL     hw11771   1.665   7.298   5.823  0.1794 -0.1302 -1.9081
 2943SOL     vw11772   1.635   7.380   5.816 -0.2539 -0.1111 -0.2434
 2944SOL     ow11773   5.400   5.722   1.619 -0.3233 -0.0605  0.6120
 2944SOL     hw11774   5.323   5.709   1.564  1.6135 -1.8979 -1.9630
 2944SOL     hw11775   5.390   5.658   1.690 -0.9313 -0.6617 -0.0002
 2944SOL     vw11776   5.389   5.712   1.621 -0.1478 -0.3822  0.1915
 2945SOL     ow11777   6.588   6.414   1.744 -0.3536  0.1709 -0.0912
 2945SOL     hw11778   6.603   6.322   1.723 -0.7030  0.5065 -1.9949
 2945SOL     hw11779   6.636   6.462   1.677 -2.3175  1.3435 -0.7287
 2945SOL     vw11780   6.596   6.408   1.733 -0.6588  0.3698 -0.4264
 2946SOL     ow11781   2.305   4.165   2.645  0.1625 -0.1543  0.4534
 2946SOL     hw11782   2.344   4.087   2.607  2.8206  0.5808  1.4559
 2946SOL     hw11783   2.256   4.205   2.573 -1.2877 -2.6750 -0.0625
 2946SOL     vw11784   2.303   4.160   2.630  0.3219 -0.3898  0.5176
 2947SOL     ow11785   1.335   6.182   3.778  0.0446 -0.1183  0.1784
 2947SOL     hw11786   1.255   6.130   3.791  0.3639 -1.4581 -2.3836
 2947SOL     hw11787   1.394   6.154   3.848 -0.3839 -2.0831 -0.1755
 2947SOL     vw11788   1.332   6.172   3.789  0.0302 -0.5543 -0.2062
 2948SOL     ow11789   1.429   4.483   4.196 -0.5015  0.6219 -0.4215
 2948SOL     hw11790   1.491   4.538   4.148 -2.1348 -0.0441 -3.5130
 2948SOL     hw11791   1.354   4.541   4.213 -0.8050  0.2760 -0.5755
 2948SOL     vw11792   1.427   4.498   4.192 -0.7572  0.4885 -0.8497
 2949SOL     ow11793   3.183   2.240   0.503  0.1092 -0.2977  0.7537
 2949SOL     hw11794   3.097   2.250   0.544 -0.0209 -0.6888  0.5852
 2949SOL     hw11795   3.173   2.163   0.446  0.8229 -0.8731  1.3939
 2949SOL     vw11796   3.170   2.231   0.501  0.1861 -0.4252  0.8159
 2950SOL     ow11797   4.176   2.265   2.301 -0.1748  0.6055 -0.5177
 2950SOL     hw11798   4.181   2.207   2.377  1.7141  3.1219  1.4158
 2950SOL     hw11799   4.092   2.310   2.310  0.6116  1.8641  0.9135
 2950SOL     vw11800   4.165   2.263   2.312  0.1781  1.1036 -0.0739
 2951SOL     ow11801   1.621   6.538   7.014 -0.1012  0.5839 -0.3848
 2951SOL     hw11802   1.546   6.570   6.964 -1.9763  0.5729  2.2175
 2951SOL     hw11803   1.651   6.615   7.063 -0.3100 -0.0406  0.7618
 2951SOL     vw11804   1.615   6.552   7.014 -0.3760  0.5000  0.1097
 2952SOL     ow11805   2.923   5.452   2.917  0.3066 -0.6779 -0.0812
 2952SOL     hw11806   2.978   5.454   2.838  1.9365  1.1460  1.0046
 2952SOL     hw11807   2.985   5.464   2.989 -1.2073 -1.7435  1.4608
 2952SOL     vw11808   2.939   5.454   2.916  0.3220 -0.5779  0.2655
 2953SOL     ow11809   1.523   6.331   4.656 -0.0472 -0.5448 -0.0574
 2953SOL     hw11810   1.456   6.353   4.721 -0.9037  1.0457 -1.3977
 2953SOL     hw11811   1.491   6.250   4.617 -1.1575  0.1193 -0.5798
 2953SOL     vw11812   1.510   6.323   4.660 -0.3067 -0.2472 -0.3028
 2954SOL     ow11813   1.161   3.261   4.430 -0.6020 -0.5032 -0.5447
 2954SOL     hw11814   1.205   3.345   4.437 -1.4474 -0.1297  0.7047
 2954SOL     hw11815   1.223   3.204   4.384  0.7161  0.2995  0.1879
 2954SOL     vw11816   1.175   3.264   4.425 -0.5396 -0.3481 -0.2830
 2955SOL     ow11817   6.465   6.184   3.946  0.0216 -0.4034 -0.3208
 2955SOL     hw11818   6.465   6.089   3.934 -3.0042 -0.3576 -1.4323
 2955SOL     hw11819   6.476   6.197   4.040  2.7825 -1.6750 -0.3605
 2955SOL     vw11820   6.467   6.173   3.957 -0.0134 -0.5653 -0.4727
 2956SOL     ow11821   2.295   2.821   6.149  0.7263 -0.2790 -0.5889
 2956SOL     hw11822   2.273   2.886   6.215  1.1345 -0.6380 -0.0963
 2956SOL     hw11823   2.260   2.739   6.183 -1.2663 -0.0654 -1.9759
 2956SOL     vw11824   2.288   2.819   6.162  0.5171 -0.2983 -0.7069
 2957SOL     ow11825   5.836   4.574   3.188  0.7684 -0.4537 -0.1443
 2957SOL     hw11826   5.837   4.668   3.205 -0.7291 -0.4107 -0.2025
 2957SOL     hw11827   5.824   4.534   3.274 -2.3707 -0.4046 -0.4657
 2957SOL     vw11828   5.835   4.581   3.201  0.1566 -0.4413 -0.1943
 2958SOL     ow11829   0.793   1.985   0.676  0.4700  0.4856  0.0722
 2958SOL     hw11830   0.751   1.986   0.762  1.7871 -0.0755  0.7578
 2958SOL     hw11831   0.791   1.892   0.650 -2.1337  0.9223 -1.6944
 2958SOL     vw11832   0.787   1.973   0.684  0.3003  0.4692 -0.0704
 2959SOL     ow11833   1.238   6.735   1.716  0.5337 -0.0875  0.0016
 2959SOL     hw11834   1.185   6.691   1.649 -0.3292 -0.2467  0.7717
 2959SOL     hw11835   1.213   6.827   1.711  0.4651 -0.1004  0.1101
 2959SOL     vw11836   1.228   6.741   1.706  0.4108 -0.1104  0.1174
 2960SOL     ow11837   6.697   6.943   7.387 -0.1130 -0.7394 -0.0573
 2960SOL     hw11838   6.639   6.887   7.334  0.2191 -2.6539  1.4938
 2960SOL     hw11839   6.755   6.882   7.432  2.3732  1.0389 -0.6125
 2960SOL     vw11840   6.697   6.928   7.386  0.2589 -0.7575  0.0741
 2961SOL     ow11841   5.376   1.370   1.715  0.1837  0.0119 -0.2220
 2961SOL     hw11842   5.434   1.321   1.774  1.0641  0.2493 -0.8722
 2961SOL     hw11843   5.413   1.356   1.628 -0.2837  0.8190 -0.5590
 2961SOL     vw11844   5.389   1.362   1.712  0.2382  0.1496 -0.3522
 2962SOL     ow11845   2.601   3.087   5.847  0.3548 -0.4652  0.1126
 2962SOL     hw11846   2.642   3.169   5.821 -0.5898 -0.2710 -0.8723
 2962SOL     hw11847   2.585   3.041   5.765  0.1223 -1.2695  0.5927
 2962SOL     vw11848   2.604   3.091   5.833  0.1996 -0.5457  0.0460
 2963SOL     ow11849   5.159   0.290   6.372  0.3569  0.4954  0.0292
 2963SOL     hw11850   5.078   0.331   6.401 -1.3959 -1.8095 -1.2526
 2963SOL     hw11851   5.182   0.230   6.444 -1.2266 -1.5532 -1.0565
 2963SOL     vw11852   5.151   0.287   6.385 -0.0834 -0.0790 -0.2832
 2964SOL     ow11853   3.438   7.235   0.973 -0.1237 -0.2478  0.0788
 2964SOL     hw11854   3.452   7.144   0.946 -0.1437 -0.0818 -0.4875
 2964SOL     hw11855   3.523   7.263   1.006  0.1015 -0.2087 -0.5258
 2964SOL     vw11856   3.451   7.226   0.974 -0.0966 -0.2210 -0.0757
 2965SOL     ow11857   4.398   2.036   1.662 -0.3461 -0.1115 -0.0783
 2965SOL     hw11858   4.490   2.041   1.690 -0.8779  1.2936  1.5803
 2965SOL     hw11859   4.382   2.120   1.618 -0.4728 -0.9557 -1.7473
 2965SOL     vw11860   4.408   2.048   1.660 -0.4330 -0.0374 -0.0796
 2966SOL     ow11861   0.807   5.361   1.863  0.0717 -0.1167 -0.3484
 2966SOL     hw11862   0.744   5.396   1.925  0.7280 -1.1975  0.9661
 2966SOL     hw11863   0.893   5.382   1.900  0.5462  1.3014 -2.0842
 2966SOL     vw11864   0.810   5.369   1.876  0.2209 -0.0720 -0.4041
 2967SOL     ow11865   4.909   5.257   6.818  0.1576 -0.4941 -0.2451
 2967SOL     hw11866   4.935   5.258   6.910  0.8035  2.2759 -0.3788
 2967SOL     hw11867   4.814   5.251   6.820  0.0202  1.2923  0.7208
 2967SOL     vw11868   4.900   5.256   6.830  0.2246  0.1068 -0.1352
 2968SOL     ow11869   6.587   0.963   0.415 -0.4543 -0.5013  0.0899
 2968SOL     hw11870   6.655   0.896   0.411 -0.4934 -0.5548  0.2959
 2968SOL     hw11871   6.544   0.949   0.500 -2.0126 -1.7161 -0.8394
 2968SOL     vw11872   6.590   0.953   0.426 -0.6652 -0.6687 -0.0055
 2969SOL     ow11873   1.564   3.203   1.259  0.4578  0.2900  0.1756
 2969SOL     hw11874   1.520   3.137   1.313 -0.9661  0.4436 -0.7317
 2969SOL     hw11875   1.497   3.270   1.245  1.2617  0.9584 -0.5675
 2969SOL     vw11876   1.549   3.203   1.264  0.3760  0.3983 -0.0421
 2970SOL     ow11877   7.365   4.658   6.454  0.3336 -0.0365  0.2929
 2970SOL     hw11878   7.440   4.600   6.437  0.5858  0.4803 -0.4286
 2970SOL     hw11879   7.350   4.651   6.548  0.8963 -0.6245  0.3468
 2970SOL     vw11880   7.373   4.649   6.464  0.4411 -0.0458  0.2048
 2971SOL     ow11881   4.578   2.912   6.028 -0.1461  0.2292  0.8131
 2971SOL     hw11882   4.646   2.892   6.092 -0.6898  0.4259  1.4659
 2971SOL     hw11883   4.541   2.827   6.005 -0.5235  0.2168  1.4234
 2971SOL     vw11884   4.582   2.898   6.033 -0.2680  0.2536  0.9797
 2972SOL     ow11885   4.018   5.078   0.146  0.2019  0.1696 -0.0594
 2972SOL     hw11886   4.094   5.035   0.185 -0.2695 -1.3177 -0.7040
 2972SOL     hw11887   3.971   5.008   0.101  0.0225  1.5679 -2.2095
 2972SOL     vw11888   4.022   5.063   0.145  0.1161  0.1576 -0.4281
 2973SOL     ow11889   6.901   3.606   2.151  0.0786 -0.1066  0.0175
 2973SOL     hw11890   6.887   3.674   2.218 -1.5559  0.7575 -1.1301
 2973SOL     hw11891   6.986   3.628   2.113  1.6182 -1.2846  2.4728
 2973SOL     vw11892   6.910   3.618   2.155  0.0658 -0.1481  0.1901
 2974SOL     ow11893   4.679   2.056   1.696  0.2020 -0.0821 -0.1504
 2974SOL     hw11894   4.660   2.023   1.608 -0.3840  1.0154 -0.4594
 2974SOL     hw11895   4.692   1.978   1.749 -1.8711 -0.8404 -0.6628
 2974SOL     vw11896   4.678   2.042   1.691 -0.1488 -0.0373 -0.2587
 2975SOL     ow11897   3.802   2.497   3.634  0.0107  0.0946  0.0976
 2975SOL     hw11898   3.855   2.564   3.676 -0.2126 -0.1643  0.8050
 2975SOL     hw11899   3.861   2.455   3.570 -0.1371  1.6446 -1.1168
 2975SOL     vw11900   3.817   2.500   3.631 -0.0383  0.2650  0.0306
 2976SOL     ow11901   1.225   4.659   4.280 -0.4334  0.5598 -0.0665
 2976SOL     hw11902   1.263   4.745   4.290 -0.0590  0.3716  0.1440
 2976SOL     hw11903   1.190   4.638   4.367  0.0646  0.2231  0.0547
 2976SOL     vw11904   1.225   4.667   4.293 -0.3183  0.4904 -0.0229
 2977SOL     ow11905   2.164   5.873   3.207 -0.3832  0.1997 -0.4810
 2977SOL     hw11906   2.188   5.871   3.114  0.5468  1.0479 -0.2650
 2977SOL     hw11907   2.247   5.875   3.254 -0.8071 -1.8021  0.4502
 2977SOL     vw11908   2.178   5.873   3.201 -0.3165  0.0474 -0.3295
 2978SOL     ow11909   2.807   0.389   2.939 -0.4347 -0.6764  0.4402
 2978SOL     hw11910   2.866   0.384   3.014  1.4002  1.0950 -0.7929
 2978SOL     hw11911   2.862   0.369   2.863 -1.9429 -1.1452 -0.5688
 2978SOL     vw11912   2.822   0.386   2.939 -0.3915 -0.5046  0.1444
 2979SOL     ow11913   3.321   1.857   1.148  0.2433  0.0485 -0.4165
 2979SOL     hw11914   3.291   1.946   1.168 -1.5636 -0.4807 -0.5860
 2979SOL     hw11915   3.404   1.849   1.194 -0.4129  1.2339  1.0605
 2979SOL     vw11916   3.328   1.868   1.157 -0.0817  0.1350 -0.2440
 2980SOL     ow11917   6.328   4.051   5.319 -0.0985 -0.1987 -0.6998
 2980SOL     hw11918   6.383   4.126   5.298 -2.3177  1.8416  0.2342
 2980SOL     hw11919   6.264   4.085   5.382 -1.7727 -2.6427 -0.9194
 2980SOL     vw11920   6.327   4.066   5.325 -0.6123 -0.2518 -0.6056
 2981SOL     ow11921   1.916   0.138   4.419 -0.0195 -0.2116 -0.1888
 2981SOL     hw11922   1.847   0.149   4.353  0.2540  0.8429 -0.3127
 2981SOL     hw11923   1.900   0.208   4.482  0.9863  0.1018 -0.2648
 2981SOL     vw11924   1.904   0.149   4.419  0.1494 -0.0312 -0.2153
 2982SOL     ow11925   2.401   4.492   2.230  0.2306  0.3962  0.7166
 2982SOL     hw11926   2.414   4.481   2.324  2.0665  1.4530  0.6380
 2982SOL     hw11927   2.385   4.403   2.197 -2.1834  0.1902  2.1995
 2982SOL     vw11928   2.401   4.479   2.238  0.1543  0.5083  0.9019
 2983SOL     ow11929   6.285   4.860   3.875  0.1103  0.1348 -0.1660
 2983SOL     hw11930   6.205   4.902   3.905 -0.5795  1.0824 -3.0794
 2983SOL     hw11931   6.274   4.768   3.899 -1.6441  0.3188 -0.1355
 2983SOL     vw11932   6.273   4.854   3.882 -0.2120  0.2842 -0.5462
 2984SOL     ow11933   6.731   1.704   1.963 -0.3647  0.5369  0.3072
 2984SOL     hw11934   6.748   1.654   2.044  0.6754 -0.2640 -0.3780
 2984SOL     hw11935   6.671   1.648   1.913  0.2781  0.2803 -0.1778
 2984SOL     vw11936   6.725   1.690   1.967 -0.1426  0.3974  0.1528
 2985SOL     ow11937   3.508   6.670   3.709  0.3828 -0.1922  0.5900
 2985SOL     hw11938   3.540   6.726   3.780  2.2314 -0.0900 -0.2613
 2985SOL     hw11939   3.514   6.581   3.743  0.7632 -0.1048  0.7581
 2985SOL     vw11940   3.513   6.666   3.723  0.6769 -0.1674  0.4997
 2986SOL     ow11941   7.163   6.061   4.855  0.2805 -0.5110 -0.0730
 2986SOL     hw11942   7.257   6.075   4.850  0.3637 -1.2241 -0.6997
 2986SOL     hw11943   7.127   6.114   4.784  0.2798 -0.8218 -0.3048
 2986SOL     vw11944   7.170   6.070   4.845  0.2913 -0.6459 -0.1860
 2987SOL     ow11945   6.209   6.153   1.899  0.2396 -0.4995  0.0182
 2987SOL     hw11946   6.171   6.206   1.969  0.8271 -0.7430  0.5261
 2987SOL     hw11947   6.257   6.215   1.844 -0.0803 -0.3346 -0.0761
 2987SOL     vw11948   6.210   6.168   1.901  0.2747 -0.5097  0.0727
 2988SOL     ow11949   2.826   3.029   6.062 -0.2230  0.2816  0.0740
 2988SOL     hw11950   2.905   3.015   6.115 -0.7095 -2.6373  0.1991
 2988SOL     hw11951   2.858   3.030   5.971 -0.0065 -1.1942  0.1032
 2988SOL     vw11952   2.841   3.027   6.057 -0.2586 -0.2983  0.0942
 2989SOL     ow11953   5.391   0.680   6.008  0.9677  0.0908 -0.2060
 2989SOL     hw11954   5.409   0.766   6.046  1.8123  0.4219 -1.3010
 2989SOL     hw11955   5.473   0.654   5.966  1.5938 -2.4765  2.2779
 2989SOL     vw11956   5.404   0.688   6.008  1.1618 -0.2043 -0.0226
 2990SOL     ow11957   1.991   6.503   2.353 -0.3212  0.4838  0.1876
 2990SOL     hw11958   2.082   6.518   2.330 -0.1157 -0.6215  0.2154
 2990SOL     hw11959   1.993   6.430   2.415 -1.3085 -0.5567 -0.9414
 2990SOL     vw11960   2.003   6.495   2.358 -0.4244  0.2007  0.0423
 2991SOL     ow11961   0.825   5.650   3.369 -0.0001  0.0566 -0.4206
 2991SOL     hw11962   0.880   5.580   3.335  0.9791  0.9559 -0.7229
 2991SOL     hw11963   0.811   5.627   3.461  0.9210 -0.1626 -0.3280
 2991SOL     vw11964   0.830   5.637   3.377  0.2506  0.1464 -0.4481
 2992SOL     ow11965   0.124   1.535   1.425 -0.0184 -0.1242  0.5798
 2992SOL     hw11966   0.168   1.451   1.437 -0.5770 -0.1071  3.2874
 2992SOL     hw11967   0.051   1.516   1.366  0.2665 -1.3683  0.6118
 2992SOL     vw11968   0.120   1.521   1.419 -0.0545 -0.2861  0.9413
 2993SOL     ow11969   2.810   4.450   6.821 -0.0104  0.2581 -0.1038
 2993SOL     hw11970   2.759   4.390   6.876  2.5926  0.5064  2.8234
 2993SOL     hw11971   2.878   4.395   6.782  1.0303  0.8578  0.8081
 2993SOL     vw11972   2.812   4.434   6.823  0.4703  0.3700  0.4029
 2994SOL     ow11973   5.658   1.475   6.915  0.6510  0.4631  0.0552
 2994SOL     hw11974   5.686   1.453   7.004  2.7967  0.8456 -0.4766
 2994SOL     hw11975   5.715   1.547   6.888 -0.9792  1.4008 -1.1033
 2994SOL     vw11976   5.669   1.481   6.923  0.7188  0.6374 -0.1678
 2995SOL     ow11977   6.488   6.512   1.355 -0.4699  0.2174 -0.2479
 2995SOL     hw11978   6.416   6.483   1.412  0.3991 -0.9404  0.3088
 2995SOL     hw11979   6.567   6.487   1.403  0.3164  1.5027 -0.8339
 2995SOL     vw11980   6.489   6.505   1.369 -0.2515  0.2341 -0.2518
 2996SOL     ow11981   1.747   3.519   4.642 -0.3672 -0.1429  0.5593
 2996SOL     hw11982   1.818   3.532   4.578 -0.5605 -0.2977  0.3127
 2996SOL     hw11983   1.767   3.581   4.712 -0.3519  0.2843  0.1792
 2996SOL     vw11984   1.759   3.529   4.643 -0.3907 -0.1069  0.4764
 2997SOL     ow11985   0.753   1.658   6.408 -0.2453  0.0477 -0.2096
 2997SOL     hw11986   0.795   1.580   6.445  1.2301  0.6782 -0.4590
 2997SOL     hw11987   0.765   1.725   6.476 -0.3688  0.3784 -0.5149
 2997SOL     vw11988   0.760   1.657   6.422 -0.0669  0.1745 -0.2825
 2998SOL     ow11989   1.244   0.726   0.892 -0.0163 -0.2133  0.3725
 2998SOL     hw11990   1.310   0.679   0.842  0.3845 -1.4498  1.9844
 2998SOL     hw11991   1.287   0.745   0.976 -0.9494  1.0399  0.6021
 2998SOL     vw11992   1.259   0.723   0.896 -0.0865 -0.2111  0.6155
 2999SOL     ow11993   4.225   5.138   6.271  0.0356 -0.4106  0.2323
 2999SOL     hw11994   4.277   5.090   6.206  0.1781 -0.9280  0.7205
 2999SOL     hw11995   4.261   5.226   6.270 -0.8472 -0.0343 -1.3592
 2999SOL     vw11996   4.237   5.143   6.262 -0.0622 -0.4292  0.0865
 3000SOL     ow11997   5.098   0.521   5.233  0.0489  0.3998  0.1227
 3000SOL     hw11998   5.071   0.430   5.226 -1.4024  0.7939  0.0891
 3000SOL     hw11999   5.041   0.567   5.171  0.1756  1.4335  0.7454
 3000SOL     vw12000   5.087   0.515   5.224 -0.1259  0.5882  0.2003
 3001SOL     ow12001   7.285   0.746   5.269  0.1483  0.4855 -0.2293
 3001SOL     hw12002   7.310   0.706   5.352  1.3617  0.3042 -0.6724
 3001SOL     hw12003   7.202   0.704   5.247  0.1998 -0.0213  0.5112
 3001SOL     vw12004   7.277   0.735   5.277  0.3150  0.3947 -0.1900
 3002SOL     ow12005   2.127   3.425   4.036  0.2393  0.3794 -0.3065
 3002SOL     hw12006   2.090   3.512   4.019  0.7294  0.5049 -0.7696
 3002SOL     hw12007   2.219   3.442   4.057  0.4719 -0.0751 -0.9464
 3002SOL     vw12008   2.134   3.439   4.037  0.3346  0.3359 -0.4518
 3003SOL     ow12009   7.181   6.844   1.612 -0.3466  0.3360  0.3730
 3003SOL     hw12010   7.226   6.806   1.688 -0.9043 -0.9587  0.0847
 3003SOL     hw12011   7.204   6.786   1.540 -1.6742  0.2292  0.0203
 3003SOL     vw12012   7.190   6.831   1.613 -0.5951  0.1512  0.2884
 3004SOL     ow12013   6.697   2.206   2.467 -0.5260 -0.3430 -0.0058
 3004SOL     hw12014   6.731   2.120   2.491 -0.7661 -0.1404  1.1231
 3004SOL     hw12015   6.734   2.265   2.532 -1.6521  0.1445  0.2179
 3004SOL     vw12016   6.706   2.202   2.479 -0.7062 -0.2521  0.1727
 3005SOL     ow12017   6.378   6.320   6.785  0.4582 -0.2122  0.2312
 3005SOL     hw12018   6.299   6.297   6.737  1.3504 -0.5818 -1.0911
 3005SOL     hw12019   6.345   6.361   6.866 -1.1117 -2.2050  0.6898
 3005SOL     vw12020   6.363   6.322   6.790  0.3688 -0.5240  0.1173
 3006SOL     ow12021   4.165   3.727   3.962  0.1133  0.0984  0.3442
 3006SOL     hw12022   4.198   3.637   3.969  0.5662  0.3183  1.1670
 3006SOL     hw12023   4.157   3.742   3.868  2.2434 -0.0231  0.0984
 3006SOL     vw12024   4.169   3.717   3.951  0.4539  0.1115  0.4202
 3007SOL     ow12025   1.017   0.516   1.514 -0.6047 -0.4356 -0.7489
 3007SOL     hw12026   1.103   0.493   1.477  0.0729 -1.2251  1.1934
 3007SOL     hw12027   0.995   0.599   1.472  1.1875 -0.1156 -1.1708
 3007SOL     vw12028   1.026   0.524   1.503 -0.2789 -0.4975 -0.5483
 3008SOL     ow12029   0.491   6.068   7.187  0.5514 -0.1147  0.2125
 3008SOL     hw12030   0.472   6.103   7.100  0.5047 -1.5723 -0.3814
 3008SOL     hw12031   0.486   6.144   7.245 -2.1612  0.4434 -0.6411
 3008SOL     vw12032   0.488   6.083   7.183  0.1873 -0.2334  0.0215
 3009SOL     ow12033   4.533   6.942   2.998  1.1978 -0.0880 -0.3386
 3009SOL     hw12034   4.566   6.883   2.930  1.7650 -0.2580  0.0716
 3009SOL     hw12035   4.488   7.011   2.950 -2.9808 -2.7773 -0.7747
 3009SOL     vw12036   4.532   6.943   2.983  0.7215 -0.4652 -0.3420
 3010SOL     ow12037   4.979   0.003   0.918  0.2226 -0.2799 -0.0933
 3010SOL     hw12038   4.919   0.042   0.855 -0.2006  0.5959  0.8295
 3010SOL     hw12039   5.061   0.051   0.906  1.5925 -3.0132 -2.9985
 3010SOL     vw12040   4.982   0.014   0.908  0.3476 -0.5252 -0.3548
 3011SOL     ow12041   0.192   6.368   6.975  0.2339 -0.0693  0.5721
 3011SOL     hw12042   0.285   6.385   6.958  0.1297  1.0476  1.0571
 3011SOL     hw12043   0.172   6.420   7.052 -1.4326  1.7855 -1.0137
 3011SOL     vw12044   0.202   6.377   6.983  0.0003  0.3231  0.4270
 3012SOL     ow12045   7.109   5.381   5.094 -0.2181  0.3768 -0.1097
 3012SOL     hw12046   7.133   5.318   5.027  2.1866  1.3567 -0.2860
 3012SOL     hw12047   7.020   5.407   5.072 -0.6751 -1.7277 -0.9563
 3012SOL     vw12048   7.101   5.376   5.083  0.0391  0.2286 -0.2444
 3013SOL     ow12049   5.100   6.520   0.795 -0.0037 -0.3636  0.2022
 3013SOL     hw12050   5.142   6.438   0.770  0.3098 -0.4813  1.0678
 3013SOL     hw12051   5.086   6.512   0.889 -1.0436  0.1010  0.0938
 3013SOL     vw12052   5.104   6.508   0.804 -0.0997 -0.3178  0.3021
 3014SOL     ow12053   2.128   0.471   2.902 -0.3114 -0.2744  1.0256
 3014SOL     hw12054   2.194   0.494   2.967  1.8222  0.6695 -1.2953
 3014SOL     hw12055   2.078   0.552   2.889 -2.7297 -1.2155  3.4302
 3014SOL     vw12056   2.130   0.485   2.909 -0.3490 -0.2741  1.0366
 3015SOL     ow12057   5.647   2.794   5.145  0.4392  0.0222 -0.2575
 3015SOL     hw12058   5.577   2.748   5.098  0.4050  1.4119 -1.6706
 3015SOL     hw12059   5.712   2.726   5.164  0.1575 -0.7294 -1.8186
 3015SOL     vw12060   5.646   2.779   5.141  0.3977  0.1065 -0.6499
 3016SOL     ow12061   3.453   1.676   0.657 -0.6809  0.0226 -0.3550
 3016SOL     hw12062   3.540   1.699   0.624 -1.5464  3.0930 -0.8122
 3016SOL     hw12063   3.414   1.623   0.588  0.2280  0.0160 -0.8726
 3016SOL     vw12064   3.459   1.672   0.644 -0.6752  0.4268 -0.4836
 3017SOL     ow12065   5.792   5.248   6.722 -0.0885 -0.1207 -0.1720
 3017SOL     hw12066   5.823   5.240   6.812  0.0037  0.1203 -0.1818
 3017SOL     hw12067   5.867   5.219   6.669  0.8480  2.2306 -0.2760
 3017SOL     vw12068   5.806   5.243   6.727  0.0472  0.2213 -0.1867
 3018SOL     ow12069   1.517   1.017   0.356  0.6424  0.1089 -0.5979
 3018SOL     hw12070   1.469   1.095   0.329  1.1206  0.2161 -1.1341
 3018SOL     hw12071   1.552   0.981   0.275 -0.3800 -1.2089 -0.4918
 3018SOL     vw12072   1.515   1.022   0.342  0.5707 -0.0509 -0.6546
 3019SOL     ow12073   4.865   4.272   4.184 -0.3270 -0.5983  0.1647
 3019SOL     hw12074   4.804   4.201   4.161  0.2083 -1.0210  0.0330
 3019SOL     hw12075   4.952   4.232   4.176  0.0188  0.2956 -0.7100
 3019SOL     vw12076   4.868   4.257   4.180 -0.2108 -0.5362  0.0317
 3020SOL     ow12077   5.508   0.279   3.677 -0.2465 -0.3510 -0.4979
 3020SOL     hw12078   5.425   0.242   3.708  0.7994 -1.6256  0.9648
 3020SOL     hw12079   5.555   0.303   3.757 -0.1564  2.7029 -1.3422
 3020SOL     vw12080   5.503   0.277   3.692 -0.0966 -0.1162 -0.4163
 3021SOL     ow12081   1.817   4.570   1.562  0.2759 -0.6032 -0.1974
 3021SOL     hw12082   1.761   4.648   1.554 -0.4144 -1.0111  0.5529
 3021SOL     hw12083   1.853   4.576   1.651  0.4867 -0.9777 -0.2577
 3021SOL     vw12084   1.815   4.581   1.573  0.2127 -0.7060 -0.1064
 3022SOL     ow12085   6.296   2.158   3.835 -0.3248  0.1189 -0.8509
 3022SOL     hw12086   6.213   2.109   3.828 -0.7447  0.8719 -1.2745
 3022SOL     hw12087   6.349   2.106   3.896 -1.7579  0.5029  0.8149
 3022SOL     vw12088   6.292   2.145   3.842 -0.5691  0.2691 -0.6870
 3023SOL     ow12089   3.843   6.497   5.367 -0.6467  0.6614 -0.6373
 3023SOL     hw12090   3.928   6.459   5.341 -0.8750  0.5368 -1.2204
 3023SOL     hw12091   3.779   6.451   5.313 -1.1696  0.2238  0.3315
 3023SOL     vw12092   3.846   6.486   5.356 -0.7460  0.5872 -0.5863
 3024SOL     ow12093   6.150   3.485   0.242 -0.3038  0.2883 -0.3964
 3024SOL     hw12094   6.192   3.419   0.187 -0.8346  0.2789 -0.8031
 3024SOL     hw12095   6.066   3.445   0.268 -0.8204  0.9538 -0.9931
 3024SOL     vw12096   6.144   3.471   0.238 -0.4420  0.3748 -0.5288
 3025SOL     ow12097   0.394   3.897   4.267 -0.0897  0.6114 -0.5708
 3025SOL     hw12098   0.330   3.939   4.210 -1.3836  1.8342  1.6759
 3025SOL     hw12099   0.370   3.804   4.265 -0.7289  0.7816 -1.2134
 3025SOL     vw12100   0.382   3.890   4.259 -0.3448  0.7950 -0.3591
 3026SOL     ow12101   4.999   4.955   1.504  0.2473 -0.5032  0.0707
 3026SOL     hw12102   4.983   5.046   1.529 -2.0482 -0.7311 -0.3578
 3026SOL     hw12103   5.092   4.941   1.522  0.3424  1.5097  1.4115
 3026SOL     vw12104   5.009   4.965   1.509 -0.0429 -0.2677  0.1910
 3027SOL     ow12105   6.233   3.862   7.275  0.4567 -0.3833  0.3270
 3027SOL     hw12106   6.231   3.872   7.371 -0.3024 -2.1094  0.5354
 3027SOL     hw12107   6.326   3.865   7.253  0.5696  1.7393  0.8637
 3027SOL     vw12108   6.245   3.864   7.285  0.3715 -0.3310  0.4251
 3028SOL     ow12109   7.170   3.469   1.699  0.3921 -0.4414  0.1009
 3028SOL     hw12110   7.239   3.511   1.646  1.8974 -0.7709  1.7135
 3028SOL     hw12111   7.115   3.425   1.634  0.7237  1.1835 -1.3777
 3028SOL     vw12112   7.172   3.468   1.683  0.6344 -0.2705  0.1186
 3029SOL     ow12113   1.175   1.957   1.548  0.1050  0.2322 -0.0455
 3029SOL     hw12114   1.129   1.874   1.542  0.5295 -0.0800  0.7525
 3029SOL     hw12115   1.220   1.967   1.464 -1.4686  0.5949 -0.8702
 3029SOL     vw12116   1.175   1.947   1.536 -0.0466  0.2388 -0.0490
 3030SOL     ow12117   0.041   7.413   6.842 -0.4939 -0.0761  0.1147
 3030SOL     hw12118   0.124   7.435   6.800 -1.2404 -0.8742 -1.9592
 3030SOL     hw12119   0.021   7.488   6.898  1.1305  0.5658 -0.1138
 3030SOL     vw12120   0.049   7.426   6.844 -0.3780 -0.0963 -0.1893
 3031SOL     ow12121   3.137   3.830   7.238 -0.0205  0.8587 -0.3057
 3031SOL     hw12122   3.148   3.739   7.211  0.5570  0.7010  0.4441
 3031SOL     hw12123   3.042   3.841   7.246 -0.1383  0.5575 -1.1695
 3031SOL     vw12124   3.126   3.820   7.235  0.0402  0.7981 -0.3207
 3032SOL     ow12125   6.203   2.458   7.410  0.5265  0.0377 -0.3778
 3032SOL     hw12126   6.242   2.521   7.350  0.8854  0.2020  0.0216
 3032SOL     hw12127   6.268   2.447   7.479  1.1564 -1.9290 -1.2079
 3032SOL     vw12128   6.217   2.465   7.411  0.6571 -0.2002 -0.4344
 3033SOL     ow12129   4.853   2.140   1.435  0.1861  0.0231 -0.7029
 3033SOL     hw12130   4.785   2.079   1.406 -0.0429  0.2952 -0.7375
 3033SOL     hw12131   4.822   2.226   1.407  0.3049  0.2041 -0.2778
 3033SOL     vw12132   4.840   2.143   1.427  0.1717  0.0830 -0.6514
 3034SOL     ow12133   4.234   5.395   0.486  0.5448  0.6084  0.4207
 3034SOL     hw12134   4.186   5.417   0.406 -0.9182  0.1490  1.1186
 3034SOL     hw12135   4.208   5.462   0.549  0.8049  0.3403  0.8207
 3034SOL     vw12136   4.224   5.406   0.484  0.3860  0.5126  0.5656
 3035SOL     ow12137   3.524   1.760   5.136  0.0046 -0.1274 -0.5917
 3035SOL     hw12138   3.560   1.694   5.077 -1.7610 -2.3813  0.6467
 3035SOL     hw12139   3.430   1.744   5.135 -0.2298  0.6422  1.7558
 3035SOL     vw12140   3.516   1.749   5.128 -0.2593 -0.3232 -0.1187
 3036SOL     ow12141   1.038   5.772   2.163  0.0754 -0.5506  0.0704
 3036SOL     hw12142   0.989   5.710   2.217  1.4153 -1.9928 -0.2703
 3036SOL     hw12143   1.034   5.854   2.211 -3.0934 -0.4274 -0.2400
 3036SOL     vw12144   1.031   5.774   2.177 -0.1658 -0.7246 -0.0155
 3037SOL     ow12145   0.811   4.684   7.340  0.1752 -0.2136 -0.2994
 3037SOL     hw12146   0.760   4.685   7.421  1.4496 -0.3631  0.5540
 3037SOL     hw12147   0.902   4.696   7.370  0.5648  0.8660 -1.8115
 3037SOL     vw12148   0.816   4.685   7.355  0.3947 -0.0908 -0.3860
 3038SOL     ow12149   1.083   4.225   2.502  0.3593 -0.0536 -0.0429
 3038SOL     hw12150   1.139   4.301   2.504  1.6769 -0.9518 -1.1430
 3038SOL     hw12151   0.995   4.260   2.486  0.7807  1.2725  0.4332
 3038SOL     vw12152   1.079   4.239   2.500  0.5887  0.0031 -0.1252
 3039SOL     ow12153   1.454   5.099   4.964 -0.1249 -0.7875  0.4738
 3039SOL     hw12154   1.420   5.155   5.033 -0.0623 -2.0824  1.6010
 3039SOL     hw12155   1.377   5.074   4.913 -0.2470 -0.2480  0.3941
 3039SOL     vw12156   1.440   5.103   4.966 -0.1327 -0.8869  0.6120
 3040SOL     ow12157   2.886   2.713   5.943 -0.2169 -0.6664  0.5701
 3040SOL     hw12158   2.950   2.709   6.014  0.1884  1.8512  0.4469
 3040SOL     hw12159   2.939   2.721   5.864 -0.6564 -0.2245  0.3146
 3040SOL     vw12160   2.901   2.714   5.942 -0.2214 -0.2759  0.5202
 3041SOL     ow12161   1.925   5.006   0.161 -0.0078 -0.4996  0.0959
 3041SOL     hw12162   1.856   5.023   0.226 -1.0907 -4.8112  0.3947
 3041SOL     hw12163   2.001   4.981   0.213  0.1181 -0.9221 -0.2915
 3041SOL     vw12164   1.926   5.005   0.176 -0.1340 -1.1241  0.0843
 3042SOL     ow12165   3.717   6.169   0.413  0.5850  0.1736 -0.0187
 3042SOL     hw12166   3.782   6.099   0.411  0.5454  0.1043  0.8684
 3042SOL     hw12167   3.767   6.250   0.402  0.7528  0.0814  0.0627
 3042SOL     vw12168   3.732   6.170   0.411  0.6020  0.1523  0.1091
 3043SOL     ow12169   2.873   1.779   5.711 -0.3185 -0.1178  0.0428
 3043SOL     hw12170   2.824   1.856   5.683  0.7294  0.4243 -0.3476
 3043SOL     hw12171   2.956   1.813   5.745  0.3906 -1.0836 -0.6378
 3043SOL     vw12172   2.878   1.794   5.712 -0.0868 -0.1737 -0.0985
 3044SOL     ow12173   1.836   2.316   0.515  0.0445 -0.4814  0.0206
 3044SOL     hw12174   1.893   2.263   0.572 -0.4536  0.4982  1.5019
 3044SOL     hw12175   1.850   2.406   0.544 -1.5785 -0.1305 -0.1801
 3044SOL     vw12176   1.845   2.321   0.527 -0.2353 -0.3059  0.1895
 3045SOL     ow12177   2.508   5.274   2.119  0.1999 -0.9458 -0.7181
 3045SOL     hw12178   2.586   5.219   2.115  0.8491 -0.0317 -0.9652
 3045SOL     hw12179   2.500   5.298   2.211  0.7097 -0.3682 -0.8130
 3045SOL     vw12180   2.517   5.270   2.131  0.3529 -0.7489 -0.7632
 3046SOL     ow12181   0.200   2.733   7.387  0.0366 -0.0782  0.6537
 3046SOL     hw12182   0.120   2.681   7.392  0.4197 -0.6362  1.0947
 3046SOL     hw12183   0.169   2.822   7.370 -0.7476 -0.1028  1.8503
 3046SOL     vw12184   0.185   2.738   7.385 -0.0163 -0.1551  0.8700
 3047SOL     ow12185   6.671   6.323   0.117 -0.1827 -0.0529 -0.5727
 3047SOL     hw12186   6.577   6.329   0.100 -0.2691  3.4075  0.4155
 3047SOL     hw12187   6.709   6.395   0.068  1.6126  0.1281  0.9676
 3047SOL     vw12188   6.663   6.333   0.109  0.0427  0.4275 -0.2391
 3048SOL     ow12189   2.933   6.797   5.491 -0.1191 -0.2358 -0.4905
 3048SOL     hw12190   2.941   6.705   5.466  0.0082  0.2507 -2.3956
 3048SOL     hw12191   2.865   6.832   5.433  0.1229  0.9677 -0.0736
 3048SOL     vw12192   2.925   6.789   5.480 -0.0705 -0.0129 -0.6869
 3049SOL     ow12193   7.463   0.378   7.035 -0.2565 -0.3924 -0.4987
 3049SOL     hw12194   7.461   0.285   7.059 -0.0897 -0.2526  0.0702
 3049SOL     hw12195   7.394   0.418   7.088 -0.7365 -0.2941 -1.1936
 3049SOL     vw12196   7.454   0.371   7.045 -0.2978 -0.3610 -0.5155
 3050SOL     ow12197   6.995   3.984   6.439  0.3681 -0.6913 -0.0914
 3050SOL     hw12198   6.970   3.961   6.529  2.2670 -0.7015  0.4779
 3050SOL     hw12199   6.945   3.925   6.384 -0.3506 -1.1280  0.9945
 3050SOL     vw12200   6.985   3.973   6.444  0.5238 -0.7502  0.1268
 3051SOL     ow12201   2.002   2.509   2.566 -0.8891 -0.2248 -0.5156
 3051SOL     hw12202   1.993   2.456   2.645 -2.2865 -1.1213 -1.2534
 3051SOL     hw12203   1.947   2.586   2.582 -2.5617 -1.2189 -1.2573
 3051SOL     vw12204   1.994   2.512   2.579 -1.2942 -0.4742 -0.7107
 3052SOL     ow12205   2.424   5.614   2.695  0.3836  0.3268  0.0985
 3052SOL     hw12206   2.477   5.693   2.708 -1.9333  2.4156 -2.1572
 3052SOL     hw12207   2.370   5.608   2.774 -0.2955  1.7968 -0.2142
 3052SOL     vw12208   2.424   5.624   2.707 -0.0118  0.7963 -0.2403
 3053SOL     ow12209   0.517   0.593   4.947  0.3709  0.1448 -0.0805
 3053SOL     hw12210   0.548   0.588   4.856 -0.1605 -0.6034 -0.2336
 3053SOL     hw12211   0.544   0.680   4.977  1.8327 -0.1446 -0.4733
 3053SOL     vw12212   0.525   0.604   4.939  0.4937  0.0079 -0.1526
 3054SOL     ow12213   0.340   1.050   6.505 -0.1898 -0.1385 -0.1030
 3054SOL     hw12214   0.376   1.138   6.513  2.0578 -0.9536 -0.5220
 3054SOL     hw12215   0.365   1.022   6.417  2.4941 -2.5170  1.2402
 3054SOL     vw12216   0.348   1.058   6.494  0.4609 -0.5598  0.0188
 3055SOL     ow12217   0.269   3.335   1.289 -0.5238  0.3736  0.0899
 3055SOL     hw12218   0.306   3.424   1.285 -1.0915  0.5624 -2.4774
 3055SOL     hw12219   0.313   3.287   1.219 -1.5615 -0.8310  0.2259
 3055SOL     vw12220   0.280   3.341   1.280 -0.7356  0.2395 -0.2309
 3056SOL     ow12221   4.962   7.056   6.775 -0.0545 -0.3123 -0.2535
 3056SOL     hw12222   5.015   7.001   6.717  1.0829 -0.6787  1.0733
 3056SOL     hw12223   4.976   7.145   6.742  0.7753 -0.4874 -0.4007
 3056SOL     vw12224   4.971   7.061   6.763  0.2048 -0.3841 -0.0978
 3057SOL     ow12225   4.680   0.918   1.767  0.3309  0.2147  0.2489
 3057SOL     hw12226   4.757   0.968   1.792 -0.1403  1.4113 -0.6334
 3057SOL     hw12227   4.694   0.893   1.676 -0.3487  0.4998  0.0569
 3057SOL     vw12228   4.692   0.921   1.759  0.1788  0.4102  0.1072
 3058SOL     ow12229   4.448   1.852   2.300 -0.2813  0.4101 -0.2174
 3058SOL     hw12230   4.357   1.830   2.320 -0.6546  1.1440 -1.0446
 3058SOL     hw12231   4.499   1.780   2.339 -0.9479  1.5154  3.0004
 3058SOL     vw12232   4.443   1.839   2.308 -0.4187  0.6528  0.0979
 3059SOL     ow12233   0.765   5.659   3.630  0.0667  0.6238  0.4810
 3059SOL     hw12234   0.708   5.734   3.647 -0.5424  0.0426  1.0637
 3059SOL     hw12235   0.822   5.654   3.707  0.1153  0.4917  0.4376
 3059SOL     vw12236   0.765   5.668   3.642 -0.0072  0.5298  0.5522
 3060SOL     ow12237   1.579   3.066   5.017  0.2743 -0.5587 -0.9491
 3060SOL     hw12238   1.573   2.990   4.958 -1.6492 -1.4939  0.3325
 3060SOL     hw12239   1.567   3.028   5.105  1.3474  1.0002 -0.0934
 3060SOL     vw12240   1.576   3.051   5.021  0.1621 -0.4764 -0.6673
 3061SOL     ow12241   2.741   1.565   3.173  0.3427  0.0203 -0.3723
 3061SOL     hw12242   2.745   1.512   3.252 -0.4454  0.5888  0.0564
 3061SOL     hw12243   2.755   1.655   3.203 -1.0002  0.3599 -0.7260
 3061SOL     vw12244   2.744   1.570   3.187  0.0615  0.1402 -0.3624
 3062SOL     ow12245   5.509   5.979   1.633 -0.4430  0.2786  0.2651
 3062SOL     hw12246   5.524   5.992   1.726  0.4923 -0.5561  0.2526
 3062SOL     hw12247   5.466   5.893   1.627  1.9726 -0.9968 -0.1922
 3062SOL     vw12248   5.505   5.969   1.644 -0.0010  0.0002  0.2030
 3063SOL     ow12249   4.557   6.922   0.252  0.1003  0.3576  0.0990
 3063SOL     hw12250   4.472   6.959   0.278 -0.9339 -1.6471 -0.2715
 3063SOL     hw12251   4.581   6.863   0.323  0.8315  0.3262 -0.1606
 3063SOL     vw12252   4.549   6.919   0.264  0.0603  0.0892  0.0158
 3064SOL     ow12253   0.549   4.138   4.312 -0.3324  0.0239 -0.2874
 3064SOL     hw12254   0.634   4.152   4.271 -0.1278 -0.4589 -0.0342
 3064SOL     hw12255   0.549   4.197   4.388  0.6491 -1.5012  0.9492
 3064SOL     vw12256   0.560   4.148   4.317 -0.1759 -0.2410 -0.0911
 3065SOL     ow12257   6.702   1.461   6.065  0.7026  0.3386 -0.2680
 3065SOL     hw12258   6.770   1.449   6.132  0.6063 -1.5425 -0.4398
 3065SOL     hw12259   6.620   1.442   6.111  0.5888 -0.4243 -0.7667
 3065SOL     vw12260   6.701   1.457   6.080  0.6747 -0.0102 -0.3564
 3066SOL     ow12261   6.920   0.832   3.045  0.5778  0.1858 -0.2145
 3066SOL     hw12262   6.901   0.922   3.019  0.7417 -0.0028 -0.9946
 3066SOL     hw12263   7.015   0.830   3.060  0.6385  0.0457 -0.6020
 3066SOL     vw12264   6.930   0.843   3.044  0.6075  0.1424 -0.3687
 3067SOL     ow12265   6.066   4.420   3.222  0.4485  0.3014 -0.6013
 3067SOL     hw12266   6.136   4.360   3.196 -0.4030 -0.7471 -0.5594
 3067SOL     hw12267   6.069   4.420   3.317  0.1507 -0.0588 -0.5879
 3067SOL     vw12268   6.076   4.412   3.231  0.2968  0.1156 -0.5940
 3068SOL     ow12269   4.590   4.628   1.554 -0.1412 -0.1589 -0.4821
 3068SOL     hw12270   4.495   4.617   1.546 -0.1348 -0.2962 -0.3768
 3068SOL     hw12271   4.609   4.598   1.643  0.1411 -1.1045 -0.8447
 3068SOL     vw12272   4.580   4.622   1.565 -0.1035 -0.3018 -0.5160
 3069SOL     ow12273   1.177   7.419   6.140 -0.0109  0.0104  0.1911
 3069SOL     hw12274   1.148   7.510   6.140  1.5843  0.5461 -0.1903
 3069SOL     hw12275   1.116   7.374   6.199  0.0734  1.6350  1.5750
 3069SOL     vw12276   1.165   7.425   6.148  0.2107  0.2954  0.3233
 3070SOL     ow12277   4.873   0.975   7.042  0.5644  0.2245  0.5770
 3070SOL     hw12278   4.949   1.033   7.051  0.2173  0.9153 -0.6991
 3070SOL     hw12279   4.888   0.930   6.958 -0.5521  0.5485  0.1966
 3070SOL     vw12280   4.885   0.977   7.032  0.3715  0.3584  0.3583
 3071SOL     ow12281   6.613   2.159   5.426  0.1616 -0.5557 -0.2140
 3071SOL     hw12282   6.679   2.163   5.495  0.7218 -1.0005 -0.7210
 3071SOL     hw12283   6.561   2.239   5.438  2.1872  0.9946 -1.1914
 3071SOL     vw12284   6.615   2.170   5.436  0.5026 -0.4100 -0.4098
 3072SOL     ow12285   1.405   7.296   4.974 -0.9681 -0.3843 -0.8196
 3072SOL     hw12286   1.487   7.267   5.014 -0.7526  0.7552 -0.3928
 3072SOL     hw12287   1.338   7.241   5.014 -0.7104  0.4534  0.8511
 3072SOL     vw12288   1.407   7.285   4.985 -0.9058 -0.1233 -0.5429
 3073SOL     ow12289   7.448   6.867   5.176 -0.0714 -0.3158  0.2920
 3073SOL     hw12290   7.380   6.879   5.243 -1.1652 -0.6308 -0.7276
 3073SOL     hw12291   7.412   6.802   5.117  0.6193  0.3745 -0.9285
 3073SOL     vw12292   7.434   6.860   5.177 -0.1245 -0.2661 -0.0036
 3074SOL     ow12293   7.338   6.519   7.193 -0.6496  0.2807  0.3191
 3074SOL     hw12294   7.349   6.570   7.274  1.7941  0.3772  0.0021
 3074SOL     hw12295   7.419   6.468   7.186 -1.9607 -1.7836 -0.6964
 3074SOL     vw12296   7.350   6.519   7.203 -0.5000  0.0212  0.1433
 3075SOL     ow12297   7.209   1.076   6.955  0.1535 -0.0279  0.2530
 3075SOL     hw12298   7.122   1.115   6.949  0.1038 -0.2707 -1.0082
 3075SOL     hw12299   7.251   1.099   6.871  1.1729 -0.2234  0.6892
 3075SOL     vw12300   7.203   1.085   6.943  0.2818 -0.0857  0.1442
 3076SOL     ow12301   4.111   1.223   2.628 -0.5253  0.2837 -0.4382
 3076SOL     hw12302   4.197   1.244   2.591 -0.0042 -0.2253  0.4623
 3076SOL     hw12303   4.082   1.147   2.578 -0.7570  0.8480 -1.1843
 3076SOL     vw12304   4.118   1.216   2.616 -0.4871  0.2910 -0.4178
 3077SOL     ow12305   3.463   6.538   5.031 -0.2898  0.6824 -0.1884
 3077SOL     hw12306   3.374   6.532   4.995 -0.1402 -0.4531 -0.4082
 3077SOL     hw12307   3.519   6.511   4.958  0.0297 -1.5268  0.8130
 3077SOL     vw12308   3.458   6.534   5.016 -0.2280  0.2410 -0.0856
 3078SOL     ow12309   3.755   1.910   4.695 -0.4839 -0.3709  0.2421
 3078SOL     hw12310   3.846   1.900   4.725 -0.3945 -0.9270 -0.1795
 3078SOL     hw12311   3.707   1.938   4.773  0.3409  1.6642  0.0713
 3078SOL     vw12312   3.761   1.912   4.709 -0.3632 -0.1758  0.1643
 3079SOL     ow12313   2.943   0.201   5.623 -0.1258 -0.0292 -0.2712
 3079SOL     hw12314   2.899   0.140   5.563 -1.1251  0.8522 -0.4648
 3079SOL     hw12315   3.018   0.233   5.572  1.1832 -1.9955  0.2725
 3079SOL     vw12316   2.947   0.197   5.608 -0.0850 -0.1724 -0.2253
 3080SOL     ow12317   6.691   1.165   2.272 -0.0333  0.3892 -0.0961
 3080SOL     hw12318   6.630   1.092   2.273 -0.3162  0.2942 -4.7857
 3080SOL     hw12319   6.637   1.242   2.252  0.9241  0.8764 -0.9201
 3080SOL     vw12320   6.676   1.166   2.270  0.0558  0.4410 -0.8235
 3081SOL     ow12321   4.035   7.207   1.572 -0.2812  0.6952  0.3608
 3081SOL     hw12322   4.044   7.196   1.478 -0.3234  0.6753  0.3592
 3081SOL     hw12323   3.976   7.136   1.599  0.4613  0.1281  0.5373
 3081SOL     vw12324   4.029   7.196   1.563 -0.1888  0.6175  0.3839
 3082SOL     ow12325   0.913   3.429   5.274  0.5378 -0.3026  0.7772
 3082SOL     hw12326   0.916   3.507   5.330 -0.3962 -0.3399  0.8948
 3082SOL     hw12327   0.916   3.463   5.185 -1.4908 -0.0116  0.7929
 3082SOL     vw12328   0.914   3.444   5.270  0.1469 -0.2692  0.7949
 3083SOL     ow12329   4.368   0.845   1.370 -0.2491  0.4600  0.3885
 3083SOL     hw12330   4.453   0.835   1.413  0.6615  0.0328 -1.4215
 3083SOL     hw12331   4.388   0.880   1.284 -1.7414 -1.2359 -0.7320
 3083SOL     vw12332   4.382   0.848   1.365 -0.3254  0.1799  0.0018
 3084SOL     ow12333   5.774   3.840   0.271 -0.0868 -0.5109  0.2079
 3084SOL     hw12334   5.699   3.789   0.300 -0.5371  0.2655  0.4313
 3084SOL     hw12335   5.775   3.831   0.176 -1.5016  0.8508  0.0193
 3084SOL     vw12336   5.764   3.832   0.262 -0.3326 -0.2289  0.2125
 3085SOL     ow12337   6.037   3.650   0.513 -0.0848 -0.0243 -0.1686
 3085SOL     hw12338   5.998   3.574   0.469  0.7595 -1.3282  1.2158
 3085SOL     hw12339   6.131   3.639   0.500  0.1464 -0.1103  1.3695
 3085SOL     vw12340   6.044   3.638   0.506  0.0572 -0.2078  0.2170
 3086SOL     ow12341   1.107   5.788   3.710 -0.5096 -0.0996  0.5553
 3086SOL     hw12342   1.113   5.877   3.745  0.9376  0.0354  0.0471
 3086SOL     hw12343   1.039   5.746   3.762  1.5210  0.0459  3.6156
 3086SOL     vw12344   1.099   5.795   3.721 -0.0507 -0.0622  0.8920
 3087SOL     ow12345   1.441   0.614   0.727 -0.0547 -0.1522  0.2363
 3087SOL     hw12346   1.403   0.528   0.710 -1.6225  0.1913  1.6645
 3087SOL     hw12347   1.493   0.602   0.806  0.7449 -0.0465 -0.2662
 3087SOL     vw12348   1.443   0.601   0.735 -0.1560 -0.0929  0.3584
 3088SOL     ow12349   7.311   5.499   1.345 -0.0810 -0.2869  0.6925
 3088SOL     hw12350   7.374   5.558   1.386 -1.0584  1.8129 -0.6518
 3088SOL     hw12351   7.235   5.501   1.403 -1.6788  3.1203 -1.2302
 3088SOL     vw12352   7.309   5.507   1.358 -0.4206  0.4396  0.2615
 3089SOL     ow12353   5.958   2.283   1.778 -0.1323 -0.2385  0.2448
 3089SOL     hw12354   6.008   2.364   1.770 -1.4833  0.7548  1.3412
 3089SOL     hw12355   6.021   2.219   1.811  0.6191  0.7357  0.7594
 3089SOL     vw12356   5.973   2.286   1.781 -0.2115  0.0211  0.4574
 3090SOL     ow12357   3.661   0.545   0.510  0.8033  0.4763 -0.1745
 3090SOL     hw12358   3.651   0.557   0.604  0.0111  1.5061 -0.3712
 3090SOL     hw12359   3.719   0.469   0.501  0.2900 -0.0908  1.1260
 3090SOL     vw12360   3.667   0.537   0.521  0.6310  0.5374 -0.0289
 3091SOL     ow12361   2.616   5.293   3.291 -0.0921  0.1416  0.6605
 3091SOL     hw12362   2.647   5.382   3.274  0.5680  0.1485  1.8037
 3091SOL     hw12363   2.671   5.262   3.363 -0.8434 -0.9042  0.7990
 3091SOL     vw12364   2.627   5.301   3.298 -0.1042  0.0045  0.8297
 3092SOL     ow12365   2.639   2.333   6.576  0.4407 -0.3278 -0.3862
 3092SOL     hw12366   2.633   2.251   6.625 -2.2617  0.9222  1.5663
 3092SOL     hw12367   2.718   2.376   6.610 -0.3287 -0.3567  1.5431
 3092SOL     vw12368   2.649   2.328   6.587 -0.0174 -0.1665  0.1259
 3093SOL     ow12369   7.085   3.703   1.796 -0.0474  0.2884  0.4073
 3093SOL     hw12370   7.137   3.702   1.876  0.4030  1.7321  0.1544
 3093SOL     hw12371   7.090   3.613   1.763  0.1942 -0.1899  1.7113
 3093SOL     vw12372   7.092   3.691   1.802  0.0439  0.4159  0.5459
 3094SOL     ow12373   6.841   6.052   3.269 -0.1259 -0.4633  0.1289
 3094SOL     hw12374   6.776   6.108   3.226 -1.0277 -1.8706 -0.3856
 3094SOL     hw12375   6.847   5.975   3.214 -0.4758 -1.8261  1.8932
 3094SOL     vw12376   6.833   6.049   3.256 -0.2911 -0.8290  0.2936
 3095SOL     ow12377   3.826   1.561   2.232 -0.0392  0.5223 -0.0414
 3095SOL     hw12378   3.801   1.554   2.325 -1.3933 -0.9432 -0.4630
 3095SOL     hw12379   3.767   1.627   2.197 -0.7718 -0.2152 -0.2244
 3095SOL     vw12380   3.815   1.569   2.240 -0.3145  0.2316 -0.1211
 3096SOL     ow12381   7.066   2.318   3.065  0.3727 -0.6133  0.1712
 3096SOL     hw12382   7.113   2.375   3.126  3.3308 -2.3320 -0.2826
 3096SOL     hw12383   6.982   2.301   3.107  1.2510  0.3751  2.4858
 3096SOL     vw12384   7.061   2.323   3.079  0.8786 -0.7095  0.4168
 3097SOL     ow12385   5.164   1.412   1.876  0.2517  0.7903  0.4421
 3097SOL     hw12386   5.197   1.377   1.959  2.1671  0.5044 -0.3760
 3097SOL     hw12387   5.236   1.398   1.814 -1.5875 -0.2469 -1.6085
 3097SOL     vw12388   5.178   1.405   1.879  0.2618  0.6158  0.0636
 3098SOL     ow12389   2.463   4.318   0.291 -0.3922 -0.7121 -0.2195
 3098SOL     hw12390   2.487   4.382   0.359 -1.2252 -0.8688  0.2439
 3098SOL     hw12391   2.409   4.368   0.230  0.6635 -0.4805 -0.9845
 3098SOL     vw12392   2.459   4.333   0.292 -0.3629 -0.7021 -0.2593
 3099SOL     ow12393   5.340   7.030   2.740 -0.5895 -0.0712  0.1368
 3099SOL     hw12394   5.384   7.091   2.800  0.3650  0.4082 -1.0155
 3099SOL     hw12395   5.331   6.949   2.790  1.0689  0.0173  0.6220
 3099SOL     vw12396   5.345   7.028   2.755 -0.2446  0.0036  0.0489
 3100SOL     ow12397   1.101   0.928   0.798 -0.3977 -0.6459  0.0350
 3100SOL     hw12398   1.130   1.012   0.832  0.3286 -0.8163 -0.1420
 3100SOL     hw12399   1.165   0.865   0.831 -1.8158 -1.3977  1.5242
 3100SOL     vw12400   1.113   0.931   0.807 -0.4890 -0.7676  0.2082
 3101SOL     ow12401   3.809   6.738   2.062  0.3347  0.5173 -0.2047
 3101SOL     hw12402   3.883   6.677   2.058  0.1165  0.2971 -0.9065
 3101SOL     hw12403   3.731   6.684   2.051 -0.0044  0.6394  1.2936
 3101SOL     vw12404   3.809   6.723   2.060  0.2611  0.5045 -0.0994
 3102SOL     ow12405   1.776   3.127   3.703  0.1998 -0.2569  0.5080
 3102SOL     hw12406   1.812   3.048   3.743  0.1949 -0.9439 -0.7993
 3102SOL     hw12407   1.740   3.098   3.619  0.1455  1.1225  0.0209
 3102SOL     vw12408   1.776   3.113   3.697  0.1920 -0.1655  0.2713
 3103SOL     ow12409   2.208   5.342   5.155  0.8280 -0.3639  0.1073
 3103SOL     hw12410   2.153   5.309   5.084  0.3102  0.7399 -0.0444
 3103SOL     hw12411   2.270   5.272   5.173  0.2185 -1.1194 -0.6385
 3103SOL     vw12412   2.209   5.329   5.148  0.6791 -0.3178 -0.0107
 3104SOL     ow12413   2.168   1.235   1.791  0.0021  0.7102  0.2945
 3104SOL     hw12414   2.177   1.262   1.883 -1.4834 -1.5216  1.1921
 3104SOL     hw12415   2.075   1.217   1.781  0.4345 -1.1445 -0.9946
 3104SOL     vw12416   2.157   1.236   1.802 -0.1370  0.1711  0.2429
 3105SOL     ow12417   0.064   2.056   4.455  0.3032  0.5099 -0.2767
 3105SOL     hw12418   0.103   1.970   4.472  0.7389  0.5270 -1.1628
 3105SOL     hw12419   0.087   2.076   4.364  1.1361  2.0666  0.2482
 3105SOL     vw12420   0.072   2.047   4.445  0.4706  0.7174 -0.3240
 3106SOL     ow12421   3.968   1.772   2.927  0.9062  0.0734 -0.1938
 3106SOL     hw12422   3.947   1.678   2.931  3.6249 -0.6175 -0.0505
 3106SOL     hw12423   3.907   1.813   2.988 -0.1247 -1.6392  0.0012
 3106SOL     vw12424   3.957   1.765   2.935  1.1289 -0.2438 -0.1491
 3107SOL     ow12425   2.345   4.296   6.374 -0.3314  0.0974 -0.1372
 3107SOL     hw12426   2.268   4.274   6.321 -1.2274 -0.0963  1.1918
 3107SOL     hw12427   2.346   4.231   6.444  0.9256  0.2411  0.0065
 3107SOL     vw12428   2.335   4.285   6.377 -0.2837  0.0908  0.0570
 3108SOL     ow12429   0.685   4.525   3.812 -0.1144  0.2450 -0.3274
 3108SOL     hw12430   0.638   4.596   3.768 -0.0388  0.3746 -0.1976
 3108SOL     hw12431   0.766   4.516   3.763  0.0291  0.4780 -0.1356
 3108SOL     vw12432   0.690   4.533   3.800 -0.0854  0.2930 -0.2849
 3109SOL     ow12433   5.612   5.284   0.422 -0.1989  0.2661  0.3583
 3109SOL     hw12434   5.637   5.223   0.352  1.0814  0.9348  0.2016
 3109SOL     hw12435   5.691   5.294   0.475 -1.1280 -0.1486  1.8674
 3109SOL     vw12436   5.626   5.277   0.419 -0.1526  0.2997  0.5368
 3110SOL     ow12437   5.656   3.265   2.782  0.0080 -0.0531 -0.2500
 3110SOL     hw12438   5.685   3.320   2.709  0.6107  0.7837  0.5966
 3110SOL     hw12439   5.675   3.317   2.860 -0.3385 -1.0631  0.5264
 3110SOL     vw12440   5.662   3.279   2.782  0.0417 -0.0761 -0.0359
 3111SOL     ow12441   3.604   4.164   1.477 -0.7232 -0.0733  0.3947
 3111SOL     hw12442   3.591   4.206   1.392  2.1123 -0.1243 -0.1784
 3111SOL     hw12443   3.606   4.236   1.540  0.4805  0.3192 -0.0728
 3111SOL     vw12444   3.603   4.179   1.474 -0.1904 -0.0281  0.2574
 3112SOL     ow12445   6.761   0.006   4.405 -0.1356 -0.3998 -0.0798
 3112SOL     hw12446   6.708   0.067   4.354  0.3775  1.4154  1.4407
 3112SOL     hw12447   6.787  -0.061   4.343 -0.4215  1.1320 -1.9277
 3112SOL     vw12448   6.757   0.005   4.390 -0.1056  0.0415 -0.1230
 3113SOL     ow12449   0.082   1.747   1.574 -0.2662 -0.0496 -0.2362
 3113SOL     hw12450   0.077   1.711   1.662 -1.3589  0.1204 -0.2162
 3113SOL     hw12451   0.107   1.673   1.519 -0.9180 -0.4772  0.0331
 3113SOL     vw12452   0.085   1.732   1.578 -0.4964 -0.0836 -0.1981
 3114SOL     ow12453   6.442   7.191   1.237 -0.5573  0.9534 -0.3249
 3114SOL     hw12454   6.527   7.182   1.194 -0.5547  2.5932 -0.7669
 3114SOL     hw12455   6.379   7.158   1.173 -0.4425  2.1847 -1.1129
 3114SOL     vw12456   6.444   7.186   1.223 -0.5417  1.3323 -0.4872
 3115SOL     ow12457   2.313   4.282   2.092  0.3126  0.0115 -0.0518
 3115SOL     hw12458   2.296   4.189   2.104  1.0555  0.0500  1.6229
 3115SOL     hw12459   2.297   4.298   1.999  1.2719 -2.0199 -0.6179
 3115SOL     vw12460   2.309   4.272   2.082  0.5373 -0.2515  0.0943
 3116SOL     ow12461   1.856   5.044   2.328  0.1011  0.6089 -0.3893
 3116SOL     hw12462   1.810   4.960   2.325 -2.8147  2.0890 -0.3966
 3116SOL     hw12463   1.787   5.109   2.335  2.3127  2.9123  2.8110
 3116SOL     vw12464   1.841   5.041   2.329  0.0081  1.1079  0.0321
 3117SOL     ow12465   2.744   1.460   5.355  0.4266 -0.6885 -0.1511
 3117SOL     hw12466   2.765   1.531   5.295  0.2804 -0.0307  0.5666
 3117SOL     hw12467   2.711   1.390   5.298  0.7758 -0.2673 -0.8824
 3117SOL     vw12468   2.742   1.460   5.340  0.4535 -0.5462 -0.1528
 3118SOL     ow12469   3.111   4.458   2.759 -0.1302 -0.4473  0.1549
 3118SOL     hw12470   3.109   4.401   2.683 -0.8667 -0.5431  0.2403
 3118SOL     hw12471   3.093   4.545   2.724  0.8635 -0.2698  0.0429
 3118SOL     vw12472   3.109   4.462   2.745 -0.0963 -0.4365  0.1514
 3119SOL     ow12473   1.090   6.063   3.790  0.2979 -0.1585 -0.2179
 3119SOL     hw12474   1.005   6.088   3.755 -0.1559 -0.2103  0.8053
 3119SOL     hw12475   1.077   6.061   3.885  1.4769 -0.0452 -0.0408
 3119SOL     vw12476   1.077   6.066   3.798  0.3936 -0.1504 -0.0596
 3120SOL     ow12477   4.460   3.786   2.814 -0.3783  0.5398 -0.3557
 3120SOL     hw12478   4.398   3.726   2.854  1.9216 -0.3887  2.0982
 3120SOL     hw12479   4.425   3.873   2.833 -0.8558  0.0457  1.1202
 3120SOL     vw12480   4.447   3.790   2.822 -0.1378  0.3520  0.1627
 3121SOL     ow12481   4.558   3.544   6.192  0.1774  0.2908 -0.1181
 3121SOL     hw12482   4.495   3.609   6.160  1.8237  2.5531  1.0104
 3121SOL     hw12483   4.616   3.592   6.250  1.9513 -2.0629  0.2283
 3121SOL     vw12484   4.558   3.559   6.195  0.6287  0.2787  0.0765
 3122SOL     ow12485   0.395   5.608   5.632 -0.0558 -0.4471  0.0051
 3122SOL     hw12486   0.407   5.617   5.727 -0.5129  1.6415 -0.0781
 3122SOL     hw12487   0.300   5.608   5.621 -0.0122  1.0391 -0.5454
 3122SOL     vw12488   0.384   5.609   5.643 -0.1104  0.0246 -0.0784
 3123SOL     ow12489   5.244   5.299   0.147  0.0417 -0.3157  0.0211
 3123SOL     hw12490   5.227   5.253   0.065 -0.3365 -1.1299  0.5374
 3123SOL     hw12491   5.162   5.341   0.169  0.0546 -0.3408  0.1218
 3123SOL     vw12492   5.231   5.298   0.139 -0.0067 -0.4263  0.1025
 3124SOL     ow12493   1.352   6.639   2.421  0.2389  0.6085  0.6404
 3124SOL     hw12494   1.318   6.665   2.506  1.5387  0.9442  1.0788
 3124SOL     hw12495   1.422   6.578   2.440 -0.7542 -0.8933 -0.2864
 3124SOL     vw12496   1.356   6.635   2.435  0.2794  0.4547  0.5760
 3125SOL     ow12497   2.343   6.292   5.011  0.1422 -0.1615  0.2415
 3125SOL     hw12498   2.265   6.254   4.971  0.0891 -0.2319  0.4097
 3125SOL     hw12499   2.310   6.365   5.063  0.2235 -0.0004  0.0674
 3125SOL     vw12500   2.328   6.297   5.013  0.1459 -0.1495  0.2406
 3126SOL     ow12501   2.351   6.824   0.907  0.3454  0.4608 -1.2512
 3126SOL     hw12502   2.406   6.898   0.932 -0.2725  0.7285 -0.6524
 3126SOL     hw12503   2.265   6.843   0.945  0.3092 -0.7994 -0.6309
 3126SOL     vw12504   2.347   6.836   0.915  0.2592  0.3295 -1.0904
 3127SOL     ow12505   0.003   6.216   5.288  0.1742  0.5678  0.0910
 3127SOL     hw12506  -0.024   6.276   5.219 -1.2174 -0.3849 -0.2152
 3127SOL     hw12507   0.029   6.136   5.242  0.6619  0.4295  0.5861
 3127SOL     vw12508   0.003   6.213   5.273  0.0550  0.4237  0.1159
 3128SOL     ow12509   3.814   3.748   1.949  0.1694  0.0650  0.2670
 3128SOL     hw12510   3.786   3.737   1.858 -1.9255  0.0322  0.8769
 3128SOL     hw12511   3.881   3.680   1.961  0.0547 -0.3250 -1.0669
 3128SOL     vw12512   3.819   3.737   1.939 -0.1221  0.0091  0.1715
 3129SOL     ow12513   6.169   3.390   4.279 -0.4041 -0.0164 -0.0928
 3129SOL     hw12514   6.218   3.321   4.236 -0.4247  0.1783 -0.4296
 3129SOL     hw12515   6.207   3.395   4.367  0.7559  0.7124 -0.6213
 3129SOL     vw12516   6.180   3.382   4.285 -0.2539  0.1054 -0.2069
 3130SOL     ow12517   0.193   4.210   3.825 -0.8743  0.3926 -0.0215
 3130SOL     hw12518   0.171   4.188   3.915  0.3186 -0.3059  0.1229
 3130SOL     hw12519   0.126   4.166   3.772  0.3157 -2.0448  0.3763
 3130SOL     vw12520   0.181   4.201   3.830 -0.5599 -0.0210  0.0501
 3131SOL     ow12521   6.915   1.174   6.162 -0.3813 -0.3230 -0.2056
 3131SOL     hw12522   6.843   1.116   6.188 -0.9791  0.4084 -0.1729
 3131SOL     hw12523   6.897   1.256   6.207 -1.6720  1.1331 -3.0857
 3131SOL     vw12524   6.903   1.177   6.171 -0.6304 -0.0343 -0.5813
 3132SOL     ow12525   2.155   2.513   0.956 -0.2671 -0.6436 -0.5135
 3132SOL     hw12526   2.182   2.604   0.946 -1.4988 -0.2974 -0.8996
 3132SOL     hw12527   2.079   2.516   1.013 -1.3633 -1.2182 -1.8812
 3132SOL     vw12528   2.149   2.525   0.962 -0.5742 -0.6738 -0.7449
 3133SOL     ow12529   3.888   7.140   7.158  0.3044  0.1639  0.1141
 3133SOL     hw12530   3.881   7.048   7.134 -1.2549  0.5210 -0.9201
 3133SOL     hw12531   3.799   7.166   7.182  0.5680  1.5907 -0.3416
 3133SOL     vw12532   3.876   7.132   7.158  0.1335  0.3994 -0.0825
 3134SOL     ow12533   1.363   6.624   4.169 -0.1825 -0.1482  0.2358
 3134SOL     hw12534   1.315   6.694   4.212 -0.8969 -1.8814  2.4787
 3134SOL     hw12535   1.376   6.558   4.238 -0.2806 -2.5677 -1.9040
 3134SOL     vw12536   1.359   6.624   4.184 -0.2896 -0.6959  0.2494
 3135SOL     ow12537   5.797   6.421   1.332 -0.2495 -0.2878  0.5580
 3135SOL     hw12538   5.717   6.458   1.369 -0.8982 -1.1388  0.0476
 3135SOL     hw12539   5.868   6.467   1.377 -1.0080  1.9804 -0.4736
 3135SOL     vw12540   5.796   6.432   1.343 -0.4351 -0.1009  0.3545
 3136SOL     ow12541   4.259   2.629   5.024  0.4147  0.1841 -0.0438
 3136SOL     hw12542   4.170   2.665   5.023  0.4323  0.2198 -1.2466
 3136SOL     hw12543   4.258   2.566   5.096 -0.7948 -0.3549 -0.5095
 3136SOL     vw12544   4.247   2.626   5.034  0.2573  0.1177 -0.2637
 3137SOL     ow12545   1.875   5.174   4.644  0.1402  0.5633 -0.2515
 3137SOL     hw12546   1.826   5.201   4.566 -1.0631 -0.2252  0.2050
 3137SOL     hw12547   1.870   5.079   4.644  1.2424  0.4878  0.1044
 3137SOL     vw12548   1.868   5.165   4.634  0.1269  0.4494 -0.1445
 3138SOL     ow12549   0.133   2.331   0.588  0.1764 -0.2932  0.5815
 3138SOL     hw12550   0.140   2.297   0.499  0.6942 -0.4038  0.6605
 3138SOL     hw12551   0.224   2.332   0.620  0.1576  0.9063  0.6662
 3138SOL     vw12552   0.146   2.327   0.580  0.2422 -0.1497  0.6032
 3139SOL     ow12553   3.129   2.175   3.161  0.2080 -0.5108 -0.4389
 3139SOL     hw12554   3.073   2.106   3.197  1.5547 -1.5898 -0.3259
 3139SOL     hw12555   3.171   2.135   3.085  1.7616 -0.1599  0.2005
 3139SOL     vw12556   3.127   2.161   3.156  0.5907 -0.6068 -0.3396
 3140SOL     ow12557   0.081   6.962   6.995 -0.1480  1.1437  0.0404
 3140SOL     hw12558   0.176   6.968   6.986  0.0066  0.2004  0.7507
 3140SOL     hw12559   0.052   7.051   7.012  0.5827  1.4784 -0.4372
 3140SOL     vw12560   0.089   6.974   6.996 -0.0312  1.0636  0.0710
 3141SOL     ow12561   1.334   1.760   0.394  0.1014 -0.3419 -0.2319
 3141SOL     hw12562   1.382   1.806   0.463 -0.7796 -0.0632  0.2069
 3141SOL     hw12563   1.365   1.800   0.312 -0.3694  0.7651  0.1218
 3141SOL     vw12564   1.345   1.771   0.392 -0.0769 -0.1591 -0.1273
 3142SOL     ow12565   6.902   5.547   7.343 -0.6240  0.5017 -0.1253
 3142SOL     hw12566   6.868   5.504   7.421  0.1499 -0.8102 -0.4742
 3142SOL     hw12567   6.991   5.573   7.367  0.2442 -1.4138 -1.0376
 3142SOL     vw12568   6.909   5.545   7.356 -0.4075  0.0758 -0.2918
 3143SOL     ow12569   6.274   1.083   2.503 -0.3873 -0.1139 -0.3354
 3143SOL     hw12570   6.282   1.177   2.518  0.4857 -0.0476 -1.1465
 3143SOL     hw12571   6.364   1.053   2.491 -0.7674 -0.7641 -1.7271
 3143SOL     vw12572   6.287   1.091   2.504 -0.3226 -0.1909 -0.6260
 3144SOL     ow12573   3.245   2.026   4.954  0.2114 -0.2365 -0.0123
 3144SOL     hw12574   3.205   1.989   4.875  1.2313 -1.1704 -0.1128
 3144SOL     hw12575   3.336   2.041   4.930  0.1952  0.8211  0.5603
 3144SOL     vw12576   3.252   2.023   4.940  0.3438 -0.2203  0.0498
 3145SOL     ow12577   6.971   4.691   0.756  0.2037 -0.0455  0.2832
 3145SOL     hw12578   6.958   4.682   0.661 -0.1575 -0.3312  0.3598
 3145SOL     hw12579   7.063   4.668   0.769  0.2021 -0.2107  0.0266
 3145SOL     vw12580   6.982   4.687   0.745  0.1557 -0.1051  0.2595
 3146SOL     ow12581   6.252   6.662   2.379 -0.2161 -0.5056  0.2760
 3146SOL     hw12582   6.280   6.722   2.309  0.8365  0.2676  1.3181
 3146SOL     hw12583   6.160   6.685   2.394 -0.0134  0.3871  0.1973
 3146SOL     vw12584   6.243   6.673   2.372 -0.0503 -0.2856  0.4032
 3147SOL     ow12585   6.110   1.875   5.045  0.1720 -0.2167 -0.3913
 3147SOL     hw12586   6.064   1.934   5.105 -0.1143 -1.9698  1.2163
 3147SOL     hw12587   6.183   1.927   5.012 -0.4240  1.2358  0.4620
 3147SOL     vw12588   6.114   1.890   5.049  0.0558 -0.2564 -0.0668
 3148SOL     ow12589   1.628   1.332   0.390 -0.0141  0.0224  0.3351
 3148SOL     hw12590   1.714   1.294   0.408 -0.0456  0.2688  1.0075
 3148SOL     hw12591   1.606   1.301   0.302 -0.9668 -3.2406  1.5766
 3148SOL     vw12592   1.636   1.323   0.381 -0.1439 -0.3756  0.5877
 3149SOL     ow12593   5.915   4.903   0.891 -0.3594 -0.0384  0.0659
 3149SOL     hw12594   5.855   4.829   0.899  1.4186 -1.8651 -2.1441
 3149SOL     hw12595   5.870   4.964   0.832 -0.1580 -1.3703 -1.5472
 3149SOL     vw12596   5.901   4.902   0.884 -0.0985 -0.4549 -0.4385
 3150SOL     ow12597   3.744   4.079   2.806  0.5617  1.0843 -0.3465
 3150SOL     hw12598   3.735   4.109   2.716  0.3034  1.1440 -0.3002
 3150SOL     hw12599   3.659   4.097   2.846  1.1394  2.4284  0.3167
 3150SOL     vw12600   3.732   4.085   2.799  0.6038  1.2696 -0.2531
 3151SOL     ow12601   0.245   2.774   7.025 -0.3632 -0.6433 -0.5001
 3151SOL     hw12602   0.287   2.702   7.072 -0.3523 -0.2533  0.0954
 3151SOL     hw12603   0.176   2.733   6.974 -2.0760 -0.8076  1.8053
 3151SOL     vw12604   0.242   2.759   7.024 -0.5877 -0.6135 -0.1173
 3152SOL     ow12605   4.352   4.681   6.330  0.7488 -0.5615 -0.0965
 3152SOL     hw12606   4.411   4.732   6.274  1.6305 -1.3128  0.1220
 3152SOL     hw12607   4.365   4.718   6.417 -0.0560  0.1031 -0.2467
 3152SOL     vw12608   4.362   4.692   6.334  0.7591 -0.5729 -0.0875
 3153SOL     ow12609   5.217   0.968   5.850  0.3014 -0.5843  0.0418
 3153SOL     hw12610   5.275   0.987   5.925 -0.2522  1.5774 -0.0250
 3153SOL     hw12611   5.201   1.053   5.810 -1.9980 -1.2753 -0.6422
 3153SOL     vw12612   5.223   0.982   5.855 -0.0751 -0.3902 -0.0570
 3154SOL     ow12613   3.533   2.992   2.808  0.0532 -0.4202 -0.1314
 3154SOL     hw12614   3.553   2.995   2.901 -1.9991  0.8225  0.3464
 3154SOL     hw12615   3.464   2.926   2.800  0.7917 -1.1241 -0.9308
 3154SOL     vw12616   3.526   2.984   2.819 -0.1202 -0.3492 -0.1738
 3155SOL     ow12617   6.857   1.410   6.279  0.3971 -0.3101 -0.2086
 3155SOL     hw12618   6.914   1.486   6.293 -1.6335  0.8886  2.2243
 3155SOL     hw12619   6.822   1.389   6.366 -2.4909 -1.2857 -1.4951
 3155SOL     vw12620   6.860   1.417   6.292 -0.2518 -0.2807 -0.0572
 3156SOL     ow12621   5.291   6.015   4.247 -0.0152  0.1333 -0.1444
 3156SOL     hw12622   5.315   5.930   4.283 -1.0217  0.1292  0.5709
 3156SOL     hw12623   5.374   6.063   4.240  0.3573 -0.3117  1.0350
 3156SOL     vw12624   5.305   6.010   4.251 -0.0989  0.0739  0.1054
 3157SOL     ow12625   4.458   0.193   1.345  0.4587  0.2487  0.1028
 3157SOL     hw12626   4.450   0.239   1.429  1.4209  1.3362 -0.3711
 3157SOL     hw12627   4.435   0.260   1.280  1.2366 -0.1231 -0.5708
 3157SOL     vw12628   4.454   0.208   1.347  0.6881  0.3431 -0.0486
 3158SOL     ow12629   3.571   1.721   6.380  0.3305 -0.3753  0.4921
 3158SOL     hw12630   3.548   1.771   6.458  1.6688  0.3776  0.4252
 3158SOL     hw12631   3.570   1.784   6.309 -0.2462 -0.9284 -0.0072
 3158SOL     vw12632   3.568   1.736   6.381  0.4309 -0.3489  0.4172
 3159SOL     ow12633   7.328   4.155   1.086 -0.1895 -0.1862  0.5993
 3159SOL     hw12634   7.406   4.183   1.037  0.5847 -0.0464  1.8782
 3159SOL     hw12635   7.280   4.100   1.024  1.4609 -1.1509  0.1075
 3159SOL     vw12636   7.332   4.152   1.071  0.1302 -0.2952  0.7032
 3160SOL     ow12637   5.183   3.531   4.329  0.2196 -0.0231 -0.1498
 3160SOL     hw12638   5.141   3.547   4.414  0.6136  0.0515  0.0320
 3160SOL     hw12639   5.144   3.449   4.298 -0.6548  0.4518 -0.3591
 3160SOL     vw12640   5.172   3.523   4.336  0.1562  0.0494 -0.1538
 3161SOL     ow12641   6.939   6.064   0.940  0.7540  0.2758  0.1913
 3161SOL     hw12642   7.035   6.065   0.942  0.7397  1.3297  0.5466
 3161SOL     hw12643   6.918   5.991   0.881  1.7934  0.7722 -0.8518
 3161SOL     vw12644   6.949   6.054   0.932  0.8891  0.4804  0.1006
 3162SOL     ow12645   0.807   5.955   3.398  0.2026  0.5163  0.1604
 3162SOL     hw12646   0.721   5.951   3.356  1.0483  0.7999 -1.6945
 3162SOL     hw12647   0.789   5.939   3.491 -1.7643 -0.0719 -0.2711
 3162SOL     vw12648   0.793   5.952   3.405  0.0547  0.4759 -0.1414
 3163SOL     ow12649   6.744   5.991   6.320  0.1367  0.0721 -1.0556
 3163SOL     hw12650   6.786   6.076   6.334 -0.6344  0.3182 -0.1827
 3163SOL     hw12651   6.676   6.008   6.255  0.3713 -0.0108 -1.3268
 3163SOL     vw12652   6.741   6.005   6.313  0.0660  0.0937 -0.9763
 3164SOL     ow12653   2.714   0.395   3.318  0.0983  0.0735  0.1632
 3164SOL     hw12654   2.739   0.308   3.288 -0.1223 -0.2070  0.7709
 3164SOL     hw12655   2.630   0.382   3.362 -0.2429  0.6979 -0.2842
 3164SOL     vw12656   2.706   0.382   3.320  0.0242  0.1189  0.1842
 3165SOL     ow12657   0.928   3.220   3.960 -0.3520 -0.1423 -0.3089
 3165SOL     hw12658   0.935   3.271   3.879  0.5575  1.8779  0.9834
 3165SOL     hw12659   0.965   3.134   3.937  1.4014  0.9020 -1.6201
 3165SOL     vw12660   0.934   3.215   3.946 -0.0007  0.2620 -0.3113
 3166SOL     ow12661   0.331   5.534   1.757 -0.1556 -0.2803 -0.3428
 3166SOL     hw12662   0.238   5.514   1.754 -0.4910  0.7367  1.5158
 3166SOL     hw12663   0.335   5.625   1.788  1.4574 -0.3598 -0.2397
 3166SOL     vw12664   0.319   5.544   1.761  0.0130 -0.1566 -0.0840
 3167SOL     ow12665   4.238   7.159   6.529 -0.0522  0.8452 -0.0347
 3167SOL     hw12666   4.153   7.203   6.526 -1.1528 -0.9231  1.8455
 3167SOL     hw12667   4.247   7.118   6.443 -0.7467  1.6556 -0.5100
 3167SOL     vw12668   4.228   7.159   6.517 -0.2892  0.7188  0.1507
 3168SOL     ow12669   2.671   4.709   5.074  0.0825 -0.0210 -0.0336
 3168SOL     hw12670   2.602   4.642   5.071 -0.8156  0.7950  1.3641
 3168SOL     hw12671   2.673   4.738   5.165 -0.2603  2.5681 -0.7597
 3168SOL     vw12672   2.662   4.704   5.085 -0.0814  0.4284  0.0548
 3169SOL     ow12673   0.577   3.946   6.291  0.2580 -0.1801 -0.2075
 3169SOL     hw12674   0.626   3.866   6.308 -1.3425 -0.8262  1.8043
 3169SOL     hw12675   0.546   3.974   6.377 -1.6304  1.0119 -1.2000
 3169SOL     vw12676   0.580   3.939   6.304 -0.2024 -0.1080 -0.0732
 3170SOL     ow12677   3.597   0.002   2.165 -0.1158  0.0975  0.5317
 3170SOL     hw12678   3.515  -0.023   2.123  1.1176 -0.0321 -1.9849
 3170SOL     hw12679   3.599  -0.048   2.247 -1.9600 -0.7819  0.0856
 3170SOL     vw12680   3.586  -0.008   2.171 -0.1965 -0.0358  0.1408
 3171SOL     ow12681   1.391   3.275   4.967 -0.1299  0.5563  0.1273
 3171SOL     hw12682   1.308   3.233   4.942  0.0152  0.7042 -0.6439
 3171SOL     hw12683   1.452   3.202   4.977 -0.0105  0.5340 -0.6901
 3171SOL     vw12684   1.388   3.260   4.965 -0.0951  0.5729 -0.0820
 3172SOL     ow12685   3.023   1.603   1.234  0.5642  0.5711 -0.4153
 3172SOL     hw12686   3.088   1.567   1.295  0.9845 -0.6003 -1.5090
 3172SOL     hw12687   2.939   1.572   1.267  0.1954  3.8083  2.2450
 3172SOL     vw12688   3.021   1.594   1.246  0.5710  0.8437 -0.2086
 3173SOL     ow12689   6.629   3.022   0.424  0.5295 -0.0483  0.7858
 3173SOL     hw12690   6.700   3.009   0.487  0.7339 -1.5664  0.2739
 3173SOL     hw12691   6.616   2.936   0.385 -0.2981  0.6399 -0.5029
 3173SOL     vw12692   6.637   3.009   0.427  0.4473 -0.1578  0.5482
 3174SOL     ow12693   4.835   5.381   2.222  0.3615 -0.0652 -0.3375
 3174SOL     hw12694   4.847   5.451   2.287 -1.0447  0.1366 -0.2614
 3174SOL     hw12695   4.890   5.309   2.253  2.0613  1.0669 -0.5577
 3174SOL     vw12696   4.844   5.381   2.235  0.4003  0.1109 -0.3566
 3175SOL     ow12697   6.704   6.593   0.807 -0.1695 -0.1678 -0.0720
 3175SOL     hw12698   6.725   6.502   0.829  0.9492  0.2037  0.4887
 3175SOL     hw12699   6.654   6.624   0.882 -0.6229 -0.3405 -0.3005
 3175SOL     vw12700   6.700   6.585   0.820 -0.0818 -0.1414 -0.0281
 3176SOL     ow12701   3.810   3.754   4.038  0.0409  0.5311 -0.1580
 3176SOL     hw12702   3.718   3.777   4.047  0.6031  2.3970  1.9111
 3176SOL     hw12703   3.814   3.699   3.960 -2.8627 -0.0256 -0.0243
 3176SOL     vw12704   3.799   3.750   4.029 -0.2681  0.7037  0.1326
 3177SOL     ow12705   0.910   1.611   5.907  0.2147  0.1607 -0.7420
 3177SOL     hw12706   0.948   1.657   5.832  1.9596  0.1600  0.0878
 3177SOL     hw12707   0.928   1.518   5.890  0.4241  0.1440 -0.4545
 3177SOL     vw12708   0.918   1.605   5.895  0.4725  0.1584 -0.5946
 3178SOL     ow12709   7.248   4.712   0.546  0.4910 -0.4673  0.5055
 3178SOL     hw12710   7.290   4.793   0.518  0.2766  0.2122  2.0710
 3178SOL     hw12711   7.155   4.728   0.534  0.3114  0.2274  2.4542
 3178SOL     vw12712   7.241   4.725   0.541  0.4389 -0.2861  0.9691
 3179SOL     ow12713   1.341   5.359   3.788 -0.3445  0.0001 -0.4484
 3179SOL     hw12714   1.383   5.358   3.874 -0.8442  1.9710 -0.1397
 3179SOL     hw12715   1.413   5.370   3.726 -0.1326  0.3397 -0.1459
 3179SOL     vw12716   1.356   5.360   3.792 -0.3825  0.3049 -0.3679
 3180SOL     ow12717   1.100   3.054   5.122 -0.4740  0.1938  0.0081
 3180SOL     hw12718   1.181   3.072   5.171  1.5438  0.3270 -3.1044
 3180SOL     hw12719   1.074   3.139   5.085 -1.0637 -0.1586 -0.4085
 3180SOL     vw12720   1.107   3.068   5.124 -0.2856  0.1650 -0.4575
 3181SOL     ow12721   3.952   2.440   2.290  0.2188 -0.2424 -0.3352
 3181SOL     hw12722   4.003   2.518   2.312 -1.8532  1.0078  0.3285
 3181SOL     hw12723   3.938   2.446   2.195  2.2674 -1.2710 -0.7551
 3181SOL     vw12724   3.957   2.451   2.280  0.2158 -0.2131 -0.3031
 3182SOL     ow12725   2.205   5.410   7.426  0.2260 -0.2170 -0.3542
 3182SOL     hw12726   2.210   5.494   7.381 -0.0134  0.0850  0.1651
 3182SOL     hw12727   2.274   5.415   7.492  0.1383 -0.3820 -0.2502
 3182SOL     vw12728   2.215   5.422   7.429  0.1829 -0.1988 -0.2720
 3183SOL     ow12729   4.756   1.312   6.242 -0.1671  0.8811  0.0825
 3183SOL     hw12730   4.674   1.267   6.221  0.1787  1.0232 -1.7594
 3183SOL     hw12731   4.756   1.390   6.185  1.4275  0.6493 -0.2903
 3183SOL     vw12732   4.745   1.317   6.232  0.0889  0.8692 -0.2098
 3184SOL     ow12733   5.278   6.612   1.319 -0.4260 -0.0888 -0.1292
 3184SOL     hw12734   5.199   6.567   1.288 -0.9387  1.0805 -0.6183
 3184SOL     hw12735   5.253   6.705   1.320  0.8441  0.2703  0.0295
 3184SOL     vw12736   5.264   6.618   1.315 -0.3262  0.1128 -0.1728
 3185SOL     ow12737   6.567   2.052   5.112 -0.2878  0.1159 -0.1243
 3185SOL     hw12738   6.628   2.064   5.039 -0.5619  0.1019 -0.3583
 3185SOL     hw12739   6.480   2.053   5.071 -0.4686  0.5462  0.2525
 3185SOL     vw12740   6.563   2.054   5.097 -0.3481  0.1708 -0.1056
 3186SOL     ow12741   5.524   4.892   4.774  0.0337 -0.5155 -0.2331
 3186SOL     hw12742   5.538   4.805   4.811  0.2715  0.2812  1.7141
 3186SOL     hw12743   5.439   4.920   4.808 -0.6532 -0.4831 -1.9170
 3186SOL     vw12744   5.515   4.885   4.784 -0.0257 -0.4063 -0.1986
 3187SOL     ow12745   1.062   2.074   0.795 -0.3280 -0.0836 -0.2811
 3187SOL     hw12746   1.112   1.994   0.780  3.2854  1.1335  3.3048
 3187SOL     hw12747   1.033   2.067   0.887 -0.2698  2.4697 -0.0031
 3187SOL     vw12748   1.065   2.062   0.805  0.1565  0.4138  0.2287
 3188SOL     ow12749   0.269   5.346   2.805 -0.2263  0.1217 -0.0796
 3188SOL     hw12750   0.347   5.377   2.758 -0.3060 -0.1736 -0.4131
 3188SOL     hw12751   0.209   5.421   2.804  0.9675  1.2277  2.3398
 3188SOL     vw12752   0.271   5.360   2.799 -0.0792  0.2289  0.1956
 3189SOL     ow12753   2.631   7.216   1.679  0.2347  0.3508 -0.4476
 3189SOL     hw12754   2.615   7.158   1.753  0.8303 -1.7705 -1.8816
 3189SOL     hw12755   2.547   7.260   1.665  0.1307  0.8705  1.4797
 3189SOL     vw12756   2.618   7.214   1.687  0.2996  0.1395 -0.3824
 3190SOL     ow12757   3.714   3.866   4.839 -0.2780 -0.0409  0.9111
 3190SOL     hw12758   3.695   3.773   4.828 -1.2520  0.1517  0.9534
 3190SOL     hw12759   3.754   3.872   4.926  2.2349 -0.7715 -0.1045
 3190SOL     vw12760   3.717   3.854   4.849 -0.0749 -0.1121  0.7830
 3191SOL     ow12761   1.650   3.305   2.700  0.3630 -0.1337 -0.3351
 3191SOL     hw12762   1.615   3.225   2.661 -0.5585 -0.3184  0.8166
 3191SOL     hw12763   1.710   3.340   2.634  0.2742 -1.4178 -1.1212
 3191SOL     vw12764   1.653   3.299   2.686  0.2297 -0.3276 -0.2869
 3192SOL     ow12765   5.933   4.843   7.443  0.2090  0.4026  0.7512
 3192SOL     hw12766   5.887   4.926   7.456 -0.6715  0.1314 -0.4277
 3192SOL     hw12767   5.882   4.798   7.376  0.2952 -1.3976  1.8469
 3192SOL     vw12768   5.920   4.848   7.436  0.1042  0.1295  0.7403
 3193SOL     ow12769   5.982   3.098   6.636 -0.0706 -0.5073  0.3855
 3193SOL     hw12770   5.900   3.076   6.592 -0.2806 -0.7500  0.8859
 3193SOL     hw12771   5.964   3.083   6.729  0.1073  0.7686  0.6424
 3193SOL     vw12772   5.969   3.093   6.643 -0.0749 -0.3711  0.4854
 3194SOL     ow12773   2.487   3.314   1.936  0.6004 -0.2052 -0.4717
 3194SOL     hw12774   2.408   3.290   1.984  0.9480  1.9796  1.3524
 3194SOL     hw12775   2.558   3.271   1.983  0.8227  0.9005  0.2288
 3194SOL     vw12776   2.486   3.305   1.948  0.6757  0.2291 -0.1386
 3195SOL     ow12777   3.098   5.065   6.766 -0.7488 -0.0197  0.1911
 3195SOL     hw12778   3.054   5.083   6.683 -2.1307 -1.4800  0.5681
 3195SOL     hw12779   3.169   5.005   6.742 -1.7619 -1.2515  0.1522
 3195SOL     vw12780   3.102   5.060   6.752 -1.0647 -0.3748  0.2356
 3196SOL     ow12781   6.988   6.283   6.287  0.1292 -0.3257  0.2307
 3196SOL     hw12782   6.918   6.347   6.300 -0.5887 -1.1324  0.4060
 3196SOL     hw12783   6.958   6.229   6.215  1.5301  0.5935 -1.1029
 3196SOL     vw12784   6.975   6.285   6.280  0.2193 -0.3107  0.0780
 3197SOL     ow12785   0.917   5.621   3.829  0.4099  0.3930  0.4506
 3197SOL     hw12786   0.976   5.557   3.787 -0.5845 -0.5765  0.4873
 3197SOL     hw12787   0.943   5.620   3.921 -0.0735 -0.5008  0.5813
 3197SOL     vw12788   0.928   5.612   3.835  0.2149  0.1471  0.4727
 3198SOL     ow12789   2.531   3.031   6.146 -0.2153  0.0840 -0.2573
 3198SOL     hw12790   2.462   3.093   6.169  0.2194  0.1077  1.0457
 3198SOL     hw12791   2.559   2.994   6.230  1.7032  0.4306 -0.7060
 3198SOL     vw12792   2.525   3.034   6.160  0.0952  0.1329 -0.1447
 3199SOL     ow12793   4.209   6.911   1.267  0.1624  0.4527 -0.4594
 3199SOL     hw12794   4.219   6.910   1.172 -4.8071  0.0997 -1.2443
 3199SOL     hw12795   4.204   6.819   1.292  1.3062  0.5447  0.1822
 3199SOL     vw12796   4.209   6.899   1.258 -0.3424  0.4182 -0.4783
 3200SOL     ow12797   5.531   2.666   5.835  0.1666 -0.1214 -0.2739
 3200SOL     hw12798   5.471   2.740   5.827 -1.0294 -0.9914  0.3929
 3200SOL     hw12799   5.558   2.647   5.745 -0.9292 -0.0065 -0.6425
 3200SOL     vw12800   5.527   2.674   5.822 -0.1359 -0.2210 -0.2344
 3201SOL     ow12801   0.937   2.854   5.284 -0.0258  0.1981  0.2737
 3201SOL     hw12802   0.907   2.931   5.332  1.6397  1.2866 -0.3626
 3201SOL     hw12803   0.967   2.794   5.353 -0.2684  0.5904  0.7314
 3201SOL     vw12804   0.937   2.856   5.300  0.1619  0.3934  0.2499
 3202SOL     ow12805   0.815   4.761   7.058 -0.8679  0.3091 -0.4244
 3202SOL     hw12806   0.823   4.856   7.050 -0.4524  0.4975  1.6568
 3202SOL     hw12807   0.899   4.727   7.026 -0.2886  0.7944  0.5301
 3202SOL     vw12808   0.827   4.769   7.053 -0.7367  0.3979 -0.0238
 3203SOL     ow12809   5.104   0.657   3.931  0.1586  0.3861 -0.4032
 3203SOL     hw12810   5.121   0.646   4.024 -0.7732 -2.4702 -0.4811
 3203SOL     hw12811   5.009   0.673   3.925 -0.2079 -1.6386 -0.9005
 3203SOL     vw12812   5.093   0.658   3.942 -0.0126 -0.2579 -0.4792
 3204SOL     ow12813   4.845   4.567   5.338 -0.0607  0.5501 -0.4863
 3204SOL     hw12814   4.834   4.484   5.292  0.2724  0.9052 -1.2413
 3204SOL     hw12815   4.805   4.554   5.423  0.0108 -0.3927 -0.5892
 3204SOL     vw12816   4.838   4.555   5.343 -0.0072  0.4725 -0.5996
 3205SOL     ow12817   1.450   0.120   6.810 -0.3445  0.2349  0.3331
 3205SOL     hw12818   1.482   0.100   6.722  0.9518 -1.8938  1.2248
 3205SOL     hw12819   1.465   0.214   6.820  2.9533 -0.0831 -0.4338
 3205SOL     vw12820   1.456   0.130   6.800  0.2616 -0.0879  0.3493
 3206SOL     ow12821   3.113   5.367   1.402  0.2201  0.5046  0.0539
 3206SOL     hw12822   3.156   5.379   1.317  0.1008  0.4297 -0.0171
 3206SOL     hw12823   3.112   5.273   1.415 -1.0661  0.4200 -0.5366
 3206SOL     vw12824   3.119   5.356   1.392  0.0347  0.4833 -0.0334
 3207SOL     ow12825   2.759   5.316   1.821  0.3335  0.6544 -0.0732
 3207SOL     hw12826   2.838   5.358   1.787  0.9934  0.4428  1.1488
 3207SOL     hw12827   2.716   5.384   1.872 -0.3926  0.8277 -0.9021
 3207SOL     vw12828   2.764   5.330   1.823  0.3247  0.6495 -0.0214
 3208SOL     ow12829   5.417   3.103   7.453 -0.3604 -0.7097 -0.1822
 3208SOL     hw12830   5.388   3.034   7.514 -1.1482 -1.1175 -1.0049
 3208SOL     hw12831   5.509   3.082   7.437  0.2139  0.0714  1.7448
 3208SOL     vw12832   5.425   3.091   7.459 -0.3884 -0.6603 -0.0367
 3209SOL     ow12833   2.430   5.677   3.969  0.0162  0.4319  0.0692
 3209SOL     hw12834   2.475   5.633   3.897 -1.3441  1.8132 -1.7400
 3209SOL     hw12835   2.491   5.743   3.999  0.3173  0.3429 -0.3378
 3209SOL     vw12836   2.444   5.680   3.963 -0.1235  0.6025 -0.2230
 3210SOL     ow12837   2.291   2.369   0.237 -0.6435 -0.4268  0.1560
 3210SOL     hw12838   2.277   2.308   0.310 -0.8782 -1.3544 -0.6338
 3210SOL     hw12839   2.354   2.432   0.270  0.9207 -2.0706  0.5104
 3210SOL     vw12840   2.297   2.369   0.251 -0.4680 -0.7660  0.0986
 3211SOL     ow12841   1.709   5.583   3.449 -0.3065 -0.0653 -0.3196
 3211SOL     hw12842   1.621   5.609   3.476 -0.1226  1.5854 -1.1784
 3211SOL     hw12843   1.767   5.651   3.483  0.6442 -1.0641  0.1418
 3211SOL     vw12844   1.705   5.595   3.457 -0.1568  0.0212 -0.3719
 3212SOL     ow12845   5.071   4.797   6.827 -0.0568 -0.2932  0.4824
 3212SOL     hw12846   5.012   4.732   6.788 -0.4368 -0.8125  1.8398
 3212SOL     hw12847   5.014   4.855   6.876  0.4481 -0.0048  0.7393
 3212SOL     vw12848   5.056   4.796   6.828 -0.0403 -0.3235  0.6952
 3213SOL     ow12849   7.416   2.435   4.468 -0.1189 -0.0232  0.1206
 3213SOL     hw12850   7.394   2.400   4.382 -0.8424 -1.3573  0.8180
 3213SOL     hw12851   7.370   2.518   4.473 -1.4034 -0.6952 -0.1813
 3213SOL     vw12852   7.407   2.441   4.458 -0.3839 -0.2880  0.1729
 3214SOL     ow12853   1.691   6.862   5.517  0.1811  0.2895 -0.1830
 3214SOL     hw12854   1.682   6.814   5.599  0.5874 -0.9553 -0.8455
 3214SOL     hw12855   1.783   6.888   5.514  0.8764 -2.0440 -1.4705
 3214SOL     vw12856   1.702   6.859   5.527  0.3264 -0.1826 -0.4401
 3215SOL     ow12857   1.138   6.328   4.117 -0.2630  0.0105 -0.1338
 3215SOL     hw12858   1.149   6.236   4.092 -1.7427 -0.0131 -0.8154
 3215SOL     hw12859   1.049   6.350   4.089 -0.0380  1.5751  0.2785
 3215SOL     vw12860   1.127   6.319   4.110 -0.4286  0.2136 -0.1695
 3216SOL     ow12861   3.640   4.532   1.886  0.2732 -0.3162 -0.0050
 3216SOL     hw12862   3.582   4.596   1.927  0.5874  0.2679 -0.4677
 3216SOL     hw12863   3.722   4.579   1.873  0.5404 -0.8482 -0.2472
 3216SOL     vw12864   3.643   4.547   1.890  0.3499 -0.3092 -0.0980
 3217SOL     ow12865   5.956   3.433   6.911  0.1394  0.1770  0.2444
 3217SOL     hw12866   5.921   3.509   6.957  3.1972  1.8839  0.0106
 3217SOL     hw12867   5.950   3.455   6.819  1.6563  0.5226  0.1919
 3217SOL     vw12868   5.951   3.446   6.905  0.7429  0.4478  0.2067
 3218SOL     ow12869   2.320   5.316   3.369  0.6153 -0.2508  0.2120
 3218SOL     hw12870   2.260   5.245   3.389  0.8299 -1.1122 -1.9863
 3218SOL     hw12871   2.407   5.275   3.371  0.8224  0.1627 -0.1314
 3218SOL     vw12872   2.324   5.301   3.372  0.6708 -0.3097 -0.1233
 3219SOL     ow12873   6.253   3.061   6.672 -0.2320 -0.1690 -0.1658
 3219SOL     hw12874   6.301   3.107   6.603 -1.5226  1.2505 -0.1789
 3219SOL     hw12875   6.162   3.064   6.643 -1.0364  1.7485  2.2017
 3219SOL     vw12876   6.247   3.068   6.659 -0.5083  0.2713  0.1450
 3220SOL     ow12877   4.828   6.508   1.623 -0.6568 -0.2482  0.2723
 3220SOL     hw12878   4.822   6.602   1.641 -0.3295  0.2450 -1.9192
 3220SOL     hw12879   4.920   6.494   1.599 -0.8672 -0.9614 -0.1668
 3220SOL     vw12880   4.839   6.518   1.622 -0.6413 -0.2770 -0.0748
 3221SOL     ow12881   6.422   4.715   1.015  0.2450  0.3496 -0.0949
 3221SOL     hw12882   6.438   4.680   0.927 -1.1171  1.3427 -0.7848
 3221SOL     hw12883   6.448   4.807   1.010 -1.4576  0.8824 -0.0274
 3221SOL     vw12884   6.427   4.722   1.002 -0.1595  0.5510 -0.1770
 3222SOL     ow12885   6.617   4.530   1.431  0.2030  0.1824  0.4993
 3222SOL     hw12886   6.677   4.604   1.441 -0.4753  0.6572  1.2161
 3222SOL     hw12887   6.591   4.508   1.521 -0.2315 -0.3972  0.2407
 3222SOL     vw12888   6.621   4.537   1.444  0.0560  0.1683  0.5597
 3223SOL     ow12889   2.146   2.208   6.049 -0.9306 -0.5135  0.4523
 3223SOL     hw12890   2.128   2.202   5.955  1.1356 -2.4322  0.0950
 3223SOL     hw12891   2.085   2.274   6.081 -1.9838 -0.1104 -2.1555
 3223SOL     vw12892   2.136   2.216   6.041 -0.7969 -0.7133  0.0610
 3224SOL     ow12893   6.240   3.303   3.078 -0.3753  0.0533  0.0670
 3224SOL     hw12894   6.269   3.286   3.168  1.6376  2.2645 -0.0531
 3224SOL     hw12895   6.318   3.286   3.024 -0.1932  2.7924 -0.7149
 3224SOL     vw12896   6.254   3.299   3.083 -0.0856  0.7063 -0.0520
 3225SOL     ow12897   2.682   2.361   3.212 -0.2909  0.6165  0.7103
 3225SOL     hw12898   2.743   2.369   3.285  0.3056  1.1609  0.1559
 3225SOL     hw12899   2.637   2.278   3.228 -0.0737  0.6660  1.6223
 3225SOL     vw12900   2.684   2.351   3.223 -0.1835  0.6949  0.7573
 3226SOL     ow12901   1.201   5.913   1.704  0.4553  0.2646  0.3606
 3226SOL     hw12902   1.129   5.962   1.744  1.1244  0.4038  1.4390
 3226SOL     hw12903   1.258   5.890   1.777  1.4645  0.0705 -0.4645
 3226SOL     vw12904   1.199   5.916   1.719  0.6768  0.2573  0.3940
 3227SOL     ow12905   7.201   6.293   6.890 -0.6154  0.2816 -0.1233
 3227SOL     hw12906   7.283   6.327   6.854 -1.7773  2.1546 -1.1985
 3227SOL     hw12907   7.137   6.306   6.819 -1.9178 -0.8297  0.7885
 3227SOL     vw12908   7.203   6.299   6.876 -0.9406  0.3822 -0.1450
 3228SOL     ow12909   6.756   1.367   1.952  0.0151 -0.0313  0.1015
 3228SOL     hw12910   6.668   1.335   1.934 -0.4990  0.1301  2.1078
 3228SOL     hw12911   6.810   1.287   1.956 -0.6053 -0.3892  1.6980
 3228SOL     vw12912   6.752   1.352   1.950 -0.1345 -0.0573  0.5769
 3229SOL     ow12913   4.002   4.092   6.447 -0.2088 -0.3335 -0.0597
 3229SOL     hw12914   3.949   4.022   6.410  0.6061  0.8227 -3.8679
 3229SOL     hw12915   4.092   4.068   6.425  0.0292  2.3023 -2.6904
 3229SOL     vw12916   4.007   4.079   6.439 -0.0701  0.1669 -0.9096
 3230SOL     ow12917   3.055   3.808   4.003 -0.0303  0.1403 -0.2583
 3230SOL     hw12918   3.051   3.889   4.053 -0.5519  0.3843 -0.6870
 3230SOL     hw12919   3.047   3.835   3.911  0.6510 -0.3219 -0.4635
 3230SOL     vw12920   3.053   3.822   3.997 -0.0092  0.1116 -0.3420
 3231SOL     ow12921   4.251   3.510   6.229  0.3799  0.1928  0.1668
 3231SOL     hw12922   4.267   3.477   6.318  2.8330 -1.6428 -0.8498
 3231SOL     hw12923   4.257   3.606   6.238  0.0443  0.0843  2.0310
 3231SOL     vw12924   4.253   3.519   6.242  0.6595 -0.0638  0.2789
 3232SOL     ow12925   3.052   5.623   1.958  0.4942 -0.0809  0.4072
 3232SOL     hw12926   3.028   5.578   1.877  0.6831 -0.3566  0.5056
 3232SOL     hw12927   3.148   5.617   1.960  0.7118  2.0187 -0.5957
 3232SOL     vw12928   3.062   5.617   1.947  0.5478  0.1597  0.2879
 3233SOL     ow12929   6.904   2.529   5.308 -0.0610 -0.0873 -0.2841
 3233SOL     hw12930   6.939   2.618   5.303 -1.3295  0.3663 -1.7262
 3233SOL     hw12931   6.961   2.485   5.371  1.2338  1.4428 -0.3097
 3233SOL     vw12932   6.916   2.535   5.316 -0.0577  0.1744 -0.4776
 3234SOL     ow12933   5.830   5.354   0.946  0.1820 -0.2458  0.0949
 3234SOL     hw12934   5.775   5.306   0.883  1.4476 -0.5415 -0.8117
 3234SOL     hw12935   5.767   5.392   1.007 -0.9826 -1.4750 -0.2745
 3234SOL     vw12936   5.814   5.353   0.945  0.1955 -0.4470 -0.0735
 3235SOL     ow12937   4.331   2.147   0.948 -0.7983  0.6658 -0.0713
 3235SOL     hw12938   4.398   2.201   0.906  1.2552 -2.1117 -0.6679
 3235SOL     hw12939   4.308   2.082   0.882 -3.1251  0.7123  0.6140
 3235SOL     vw12940   4.337   2.146   0.934 -0.8340  0.3055 -0.0596
 3236SOL     ow12941   3.544   2.421   0.838  0.3115  0.0038  0.0181
 3236SOL     hw12942   3.573   2.330   0.846  0.4025 -0.1287 -1.5263
 3236SOL     hw12943   3.473   2.430   0.902 -1.0023 -1.7032 -1.1284
 3236SOL     vw12944   3.539   2.410   0.848  0.1502 -0.2388 -0.3370
 3237SOL     ow12945   1.758   4.589   0.286 -0.6706 -0.0071  0.0890
 3237SOL     hw12946   1.723   4.641   0.213 -2.8242 -0.6619  0.5908
 3237SOL     hw12947   1.775   4.503   0.247  2.1705  0.7346 -0.5570
 3237SOL     vw12948   1.756   4.584   0.271 -0.5799  0.0043  0.0700
 3238SOL     ow12949   6.839   1.173   4.852  0.3957 -0.0476  0.6532
 3238SOL     hw12950   6.873   1.134   4.933  0.4737  0.0072  0.6478
 3238SOL     hw12951   6.800   1.099   4.805 -2.5843  0.4000  2.1803
 3238SOL     vw12952   6.839   1.158   4.856  0.0131  0.0187  0.8540
 3239SOL     ow12953   4.623   5.366   2.069  0.1617 -0.2234  0.6414
 3239SOL     hw12954   4.705   5.349   2.116 -0.8848 -2.1782  1.9165
 3239SOL     hw12955   4.645   5.435   2.006  2.7488 -0.6069  1.0067
 3239SOL     vw12956   4.637   5.373   2.067  0.3650 -0.5319  0.8577
 3240SOL     ow12957   5.904   1.723   2.289  0.6546  1.0488 -0.4814
 3240SOL     hw12958   5.812   1.720   2.264 -0.3173 -0.0892  2.7828
 3240SOL     hw12959   5.946   1.655   2.237 -0.8083  0.1061 -0.4692
 3240SOL     vw12960   5.897   1.714   2.279  0.3333  0.7743 -0.0492
 3241SOL     ow12961   6.119   6.236   6.660 -0.2876  0.2400  0.2176
 3241SOL     hw12962   6.133   6.288   6.581  2.4310 -1.0489 -0.2529
 3241SOL     hw12963   6.140   6.146   6.634 -1.7218 -0.6183  1.8167
 3241SOL     vw12964   6.124   6.231   6.646 -0.1178 -0.0434  0.3664
 3242SOL     ow12965   3.917   6.689   3.265  0.0818  0.6631 -0.2164
 3242SOL     hw12966   3.912   6.645   3.350 -0.3891  0.0120 -0.5692
 3242SOL     hw12967   3.826   6.706   3.242  0.2718  2.2020  0.0878
 3242SOL     vw12968   3.904   6.685   3.274  0.0448  0.7801 -0.2228
 3243SOL     ow12969   1.154   6.049   4.067  0.0203  0.3539 -0.7076
 3243SOL     hw12970   1.080   6.028   4.124  0.6312  0.0331 -0.0092
 3243SOL     hw12971   1.222   5.987   4.093  0.8278  1.2067 -0.7177
 3243SOL     vw12972   1.154   6.038   4.078  0.2075  0.4239 -0.6166
 3244SOL     ow12973   0.291   3.065   6.882 -0.0535  0.3097 -0.1431
 3244SOL     hw12974   0.350   3.138   6.899 -1.3666  1.3123  0.2638
 3244SOL     hw12975   0.205   3.097   6.910 -0.4308 -1.9215  1.5214
 3244SOL     vw12976   0.287   3.079   6.888 -0.2765  0.1476  0.1302
 3245SOL     ow12977   4.019   7.021   5.264 -0.1644  0.2214  0.5541
 3245SOL     hw12978   4.094   7.027   5.205 -1.8989  0.1806 -1.8321
 3245SOL     hw12979   3.981   7.109   5.264  0.7951  0.7125  3.1455
 3245SOL     vw12980   4.024   7.034   5.256 -0.2666  0.2809  0.5813
 3246SOL     ow12981   0.768   5.907   4.993  0.2053 -0.3801  0.2263
 3246SOL     hw12982   0.814   5.823   4.983 -0.9337 -1.4518  3.0090
 3246SOL     hw12983   0.786   5.934   5.083 -0.4757  1.7671 -0.2264
 3246SOL     vw12984   0.776   5.899   5.003 -0.0348 -0.2379  0.5336
 3247SOL     ow12985   0.468   3.432   2.312 -0.3040 -0.1069  0.7024
 3247SOL     hw12986   0.503   3.389   2.234  1.6015 -1.7225  2.3263
 3247SOL     hw12987   0.392   3.481   2.281  0.0172 -1.1827 -2.0317
 3247SOL     vw12988   0.463   3.433   2.298 -0.0102 -0.4621  0.5560
 3248SOL     ow12989   2.642   2.048   1.936  0.0877  0.0154  0.2304
 3248SOL     hw12990   2.646   1.964   1.890 -0.6572  0.3651 -0.5061
 3248SOL     hw12991   2.568   2.093   1.896 -0.1845  0.5965  1.3578
 3248SOL     vw12992   2.633   2.043   1.924 -0.0466  0.1382  0.2820
 3249SOL     ow12993   1.158   6.816   3.483  0.3962 -0.4076  0.4615
 3249SOL     hw12994   1.066   6.836   3.469  0.8846  1.8717  0.1497
 3249SOL     hw12995   1.170   6.823   3.578  0.4550  0.3104  0.4024
 3249SOL     vw12996   1.148   6.820   3.494  0.4684 -0.0124  0.4125
 3250SOL     ow12997   3.884   6.152   4.015 -0.0692 -0.1762  0.8434
 3250SOL     hw12998   3.913   6.063   3.997  1.0152  0.0852  1.1944
 3250SOL     hw12999   3.801   6.161   3.968  0.7764 -0.7321 -0.8116
 3250SOL     vw13000   3.877   6.142   4.007  0.1854 -0.2151  0.6714
 3251SOL     ow13001   7.232   5.558   4.041  0.1042 -0.0539  0.4216
 3251SOL     hw13002   7.317   5.514   4.041 -0.0188 -0.3054  1.0670
 3251SOL     hw13003   7.232   5.611   3.962  0.3113 -1.1022 -0.2981
 3251SOL     vw13004   7.243   5.559   4.031  0.1154 -0.2253  0.4117
 3252SOL     ow13005   2.395   3.860   2.762 -0.0785  0.5753 -0.2836
 3252SOL     hw13006   2.472   3.809   2.783  0.0077  0.8749  0.1389
 3252SOL     hw13007   2.384   3.919   2.836 -0.7563  0.4857 -0.3058
 3252SOL     vw13008   2.404   3.861   2.774 -0.1565  0.6028 -0.2306
 3253SOL     ow13009   5.475   0.561   4.413  0.5954  0.1628  0.1866
 3253SOL     hw13010   5.418   0.484   4.406 -0.2620  0.9293 -2.6833
 3253SOL     hw13011   5.441   0.608   4.489 -0.7021 -0.8884  0.3133
 3253SOL     vw13012   5.463   0.557   4.422  0.3111  0.1252 -0.1752
 3254SOL     ow13013   4.526   0.390   5.366 -0.0191  0.3422 -0.4896
 3254SOL     hw13014   4.540   0.405   5.272 -0.4453  0.5861 -0.5180
 3254SOL     hw13015   4.555   0.471   5.407  0.7975 -0.0151 -0.3471
 3254SOL     vw13016   4.532   0.403   5.359  0.0324  0.3273 -0.4745
 3255SOL     ow13017   0.266   6.909   1.143 -0.6920 -0.1771 -0.1194
 3255SOL     hw13018   0.313   6.851   1.083 -0.9776 -0.4851 -0.0449
 3255SOL     hw13019   0.323   6.986   1.151 -0.3958 -0.3698 -0.3543
 3255SOL     vw13020   0.280   6.912   1.136 -0.6906 -0.2432 -0.1406
 3256SOL     ow13021   5.168   4.176   6.804  0.7297 -0.8687  0.0759
 3256SOL     hw13022   5.261   4.193   6.813  0.9181 -2.1201  0.6982
 3256SOL     hw13023   5.147   4.203   6.714  2.1193 -2.3650 -0.7439
 3256SOL     vw13024   5.177   4.182   6.793  0.9379 -1.2312  0.0498
 3257SOL     ow13025   6.542   3.389   7.239 -0.7538  0.3578 -0.2032
 3257SOL     hw13026   6.573   3.474   7.270 -0.9221  0.9616 -1.6105
 3257SOL     hw13027   6.473   3.364   7.301 -0.7240  1.2589  0.2021
 3257SOL     vw13028   6.537   3.397   7.251 -0.7720  0.5565 -0.3357
 3258SOL     ow13029   0.642   0.580   6.562  0.3247 -0.1398 -0.0783
 3258SOL     hw13030   0.628   0.503   6.618 -3.9070  0.1105 -0.4798
 3258SOL     hw13031   0.624   0.549   6.474  1.6151  0.7006 -0.6696
 3258SOL     vw13032   0.638   0.566   6.558 -0.0634  0.0041 -0.2093
 3259SOL     ow13033   7.333   7.059   4.078 -0.3504  0.3391 -0.1530
 3259SOL     hw13034   7.300   6.994   4.140 -0.9630 -0.6825 -1.4770
 3259SOL     hw13035   7.295   7.142   4.106 -0.3696 -0.0416  0.9864
 3259SOL     vw13036   7.324   7.061   4.090 -0.4339  0.1538 -0.1771
 3260SOL     ow13037   0.537   6.960   1.571  0.0250 -0.1628 -0.1641
 3260SOL     hw13038   0.591   6.898   1.521  1.8076  0.8578  0.4172
 3260SOL     hw13039   0.576   6.960   1.658 -0.4906  1.1376  0.0828
 3260SOL     vw13040   0.549   6.952   1.576  0.1921  0.1438 -0.0548
 3261SOL     ow13041   0.626   1.026   2.077  0.2954  0.1676  0.8745
 3261SOL     hw13042   0.683   0.988   2.145 -1.7365 -1.3553  1.8266
 3261SOL     hw13043   0.636   0.966   2.003 -1.1655 -1.0061  1.5801
 3261SOL     vw13044   0.635   1.013   2.076 -0.1654 -0.1882  1.0934
 3262SOL     ow13045   1.766   1.821   0.428 -0.0226  0.1406  0.1157
 3262SOL     hw13046   1.851   1.790   0.398 -0.1954  0.2794 -0.5446
 3262SOL     hw13047   1.739   1.884   0.361  0.0636  1.2832  1.1255
 3262SOL     vw13048   1.774   1.825   0.415 -0.0340  0.3096  0.1618
 3263SOL     ow13049   5.348   5.794   4.398  0.1280  0.2948 -0.1585
 3263SOL     hw13050   5.423   5.737   4.416  0.7000  0.6475 -1.3759
 3263SOL     hw13051   5.302   5.799   4.482  1.3574 -0.0794  0.5647
 3263SOL     vw13052   5.352   5.787   4.412  0.3657  0.2921 -0.2236
 3264SOL     ow13053   4.024   4.860   3.399  0.1085  0.5038  0.1304
 3264SOL     hw13054   4.043   4.766   3.400 -0.4143  0.3467 -1.4100
 3264SOL     hw13055   3.934   4.865   3.368  0.3551  1.5378 -0.4435
 3264SOL     vw13056   4.015   4.848   3.395  0.0720  0.6194 -0.1485
 3265SOL     ow13057   4.480   5.330   2.307 -0.3781  0.1348  0.4968
 3265SOL     hw13058   4.515   5.392   2.371  0.2586  0.6250 -0.3091
 3265SOL     hw13059   4.520   5.356   2.224 -0.8605 -0.7562 -0.0278
 3265SOL     vw13060   4.490   5.342   2.304 -0.3579  0.0820  0.3214
 3266SOL     ow13061   1.951   5.108   7.397 -0.0443 -0.2311  0.1980
 3266SOL     hw13062   1.896   5.185   7.403  1.0849  0.6612 -0.4123
 3266SOL     hw13063   1.929   5.056   7.474 -2.2196 -0.2723 -0.3785
 3266SOL     vw13064   1.941   5.111   7.408 -0.1823 -0.1185  0.0415
 3267SOL     ow13065   3.577   7.275   1.254 -0.0703 -0.5341 -0.1788
 3267SOL     hw13066   3.519   7.208   1.289 -0.1432 -1.1465 -1.3893
 3267SOL     hw13067   3.617   7.233   1.177 -0.1668  0.8230 -0.9990
 3267SOL     vw13068   3.575   7.260   1.248 -0.0925 -0.4361 -0.4467
 3268SOL     ow13069   0.045   1.097   2.817  0.0086 -0.1431  0.1332
 3268SOL     hw13070   0.024   1.029   2.881  0.6888  1.0786  1.7287
 3268SOL     hw13071  -0.034   1.151   2.814 -0.3447 -0.6795 -0.7572
 3268SOL     vw13072   0.032   1.095   2.825  0.0517 -0.0527  0.2264
 3269SOL     ow13073   6.046   1.539   2.146 -0.4623 -0.1627 -0.2816
 3269SOL     hw13074   6.137   1.541   2.177 -0.8768  0.3069  0.9837
 3269SOL     hw13075   6.019   1.448   2.156 -1.2063  0.2836  2.8057
 3269SOL     vw13076   6.055   1.528   2.152 -0.6151 -0.0418  0.2928
 3270SOL     ow13077   3.180   7.321   3.041 -0.4165 -0.7010  0.1778
 3270SOL     hw13078   3.136   7.375   3.106  1.4870 -0.0006  0.9507
 3270SOL     hw13079   3.271   7.350   3.044  0.0266 -1.7708 -1.6716
 3270SOL     vw13080   3.186   7.332   3.050 -0.1069 -0.7498  0.0358
 3271SOL     ow13081   0.528   2.897   7.008  0.8922  0.1100  0.6785
 3271SOL     hw13082   0.594   2.958   6.975  0.2379 -0.2260 -1.3496
 3271SOL     hw13083   0.579   2.832   7.057  2.0550  0.0745 -0.5066
 3271SOL     vw13084   0.544   2.896   7.010  0.9593  0.0610  0.2546
 3272SOL     ow13085   3.487   0.875   1.853  0.6695  0.1084  0.3368
 3272SOL     hw13086   3.544   0.952   1.857  0.7386  0.0565  0.3535
 3272SOL     hw13087   3.408   0.906   1.808 -0.3353  0.8378  2.4533
 3272SOL     vw13088   3.484   0.890   1.848  0.5461  0.1978  0.6183
 3273SOL     ow13089   6.504   0.697   7.266  0.2384 -0.3159 -0.1491
 3273SOL     hw13090   6.416   0.723   7.293  0.1851  0.3051 -0.8852
 3273SOL     hw13091   6.499   0.687   7.171  0.9910 -0.1622 -0.2172
 3273SOL     vw13092   6.492   0.699   7.257  0.3307 -0.2137 -0.2551
 3274SOL     ow13093   5.316   6.113   1.470  0.1549  0.2553 -0.1018
 3274SOL     hw13094   5.383   6.064   1.518  1.2427  0.9430 -0.8843
 3274SOL     hw13095   5.339   6.205   1.484  1.6452  0.5109 -3.4205
 3274SOL     vw13096   5.328   6.119   1.478  0.4952  0.3798 -0.6429
 3275SOL     ow13097   0.820   3.535   4.508 -0.1899  0.3065 -0.0756
 3275SOL     hw13098   0.851   3.552   4.597 -0.7668  0.7745  0.0450
 3275SOL     hw13099   0.836   3.441   4.495  0.3506  0.3386  0.3380
 3275SOL     vw13100   0.826   3.525   4.518 -0.1947  0.3725 -0.0050
 3276SOL     ow13101   4.230   1.866   2.903  0.0095  0.1730  0.0170
 3276SOL     hw13102   4.234   1.943   2.960  0.3378 -0.2579  0.5826
 3276SOL     hw13103   4.322   1.840   2.891 -0.1156 -0.2999  0.0636
 3276SOL     vw13104   4.243   1.873   2.909  0.0360  0.0538  0.0979
 3277SOL     ow13105   1.163   6.334   3.230  0.1335  0.1256 -0.3026
 3277SOL     hw13106   1.172   6.284   3.311 -0.5453  0.7472  0.1734
 3277SOL     hw13107   1.102   6.404   3.252 -0.0580  0.3069 -1.3575
 3277SOL     vw13108   1.156   6.337   3.244  0.0188  0.2317 -0.3790
 3278SOL     ow13109   3.709   0.903   4.900 -0.4610  0.3739 -0.4904
 3278SOL     hw13110   3.644   0.973   4.902 -1.6605 -0.6983  1.6858
 3278SOL     hw13111   3.791   0.945   4.926 -0.9926  1.1208  0.0145
 3278SOL     vw13112   3.711   0.918   4.904 -0.6895  0.3310 -0.1366
 3279SOL     ow13113   1.311   6.590   3.323 -0.1390 -0.6738  0.3229
 3279SOL     hw13114   1.347   6.524   3.264  1.2783 -1.0326  1.5134
 3279SOL     hw13115   1.267   6.539   3.391 -2.1433 -0.2565 -0.6034
 3279SOL     vw13116   1.310   6.574   3.324 -0.2164 -0.6661  0.3576
 3280SOL     ow13117   1.905   7.394   1.870  0.6804  0.0899 -0.2603
 3280SOL     hw13118   1.869   7.311   1.902  1.1552  0.2599  0.7735
 3280SOL     hw13119   1.939   7.436   1.949  0.2132  1.3887 -0.7342
 3280SOL     vw13120   1.904   7.388   1.885  0.6814  0.2835 -0.1864
 3281SOL     ow13121   2.451   0.642   6.159 -0.3434 -0.3242  0.0080
 3281SOL     hw13122   2.397   0.564   6.159  1.2805 -1.5080  1.3598
 3281SOL     hw13123   2.411   0.699   6.225 -0.4802 -0.7718  0.3127
 3281SOL     vw13124   2.438   0.640   6.168 -0.1473 -0.5394  0.2263
 3282SOL     ow13125   6.184   7.061   5.731 -0.0257 -0.2202 -0.2573
 3282SOL     hw13126   6.176   6.980   5.681 -2.0749  2.5952 -5.3347
 3282SOL     hw13127   6.108   7.060   5.790 -0.7381 -1.5145 -1.1395
 3282SOL     vw13128   6.173   7.050   5.732 -0.3901 -0.0193 -1.0433
 3283SOL     ow13129   1.948   4.604   0.479  0.2587 -0.3060 -0.5577
 3283SOL     hw13130   1.965   4.510   0.471 -2.6733 -0.7760 -3.1637
 3283SOL     hw13131   1.877   4.621   0.418 -0.2612  3.4128  0.8102
 3283SOL     vw13132   1.941   4.594   0.470 -0.1968  0.1225 -0.7210
 3284SOL     ow13133   6.320   0.474   2.538  0.1165  0.4959  0.6632
 3284SOL     hw13134   6.372   0.436   2.609  0.1430  1.2363  1.0496
 3284SOL     hw13135   6.342   0.568   2.540  0.6061  0.4323 -0.7257
 3284SOL     vw13136   6.330   0.482   2.547  0.1845  0.5852  0.5311
 3285SOL     ow13137   3.405   2.881   1.067  0.1907 -0.2853 -0.5470
 3285SOL     hw13138   3.470   2.816   1.039  0.6605 -0.6584  1.2773
 3285SOL     hw13139   3.350   2.834   1.130  0.0409  0.8639  0.2047
 3285SOL     vw13140   3.406   2.866   1.072  0.2331 -0.1829 -0.2072
 3286SOL     ow13141   0.396   2.952   0.106 -0.0209  0.2370 -0.1641
 3286SOL     hw13142   0.304   2.966   0.128  0.3506  0.1139  1.5705
 3286SOL     hw13143   0.445   3.007   0.168  1.0741  0.8753 -1.5323
 3286SOL     vw13144   0.390   2.961   0.117  0.1726  0.3049 -0.1158
 3287SOL     ow13145   1.606   5.762   7.007 -0.0988  0.0732  0.0691
 3287SOL     hw13146   1.671   5.830   6.989 -0.8516  0.9857  0.6442
 3287SOL     hw13147   1.572   5.785   7.094 -1.2303 -0.3421 -0.2524
 3287SOL     vw13148   1.610   5.774   7.016 -0.3474  0.1388  0.1023
 3288SOL     ow13149   1.772   5.954   6.945  0.0494 -0.6764  0.8133
 3288SOL     hw13150   1.865   5.943   6.966 -0.0806 -1.8575  0.8249
 3288SOL     hw13151   1.772   5.995   6.858  0.5699  0.8758  1.5048
 3288SOL     vw13152   1.784   5.958   6.936  0.1009 -0.6273  0.9060
 3289SOL     ow13153   1.861   0.573   4.214 -0.7891  0.1298  0.3945
 3289SOL     hw13154   1.944   0.590   4.258 -0.7280  0.9073 -0.0145
 3289SOL     hw13155   1.795   0.612   4.272 -1.1345 -2.3776  1.8650
 3289SOL     vw13156   1.863   0.580   4.228 -0.8265 -0.0984  0.5343
 3290SOL     ow13157   4.577   4.801   5.183  0.3611 -0.1184 -0.3173
 3290SOL     hw13158   4.558   4.718   5.139  0.4976 -0.3714  0.0945
 3290SOL     hw13159   4.548   4.787   5.274  0.9644  0.0641 -0.0938
 3290SOL     vw13160   4.570   4.788   5.190  0.4585 -0.1278 -0.2337
 3291SOL     ow13161   5.365   1.923   2.300  0.1058  0.2431 -0.4055
 3291SOL     hw13162   5.388   1.872   2.222  0.3614  1.9076 -1.4736
 3291SOL     hw13163   5.434   1.990   2.306 -0.3219  0.5998  0.8207
 3291SOL     vw13164   5.378   1.925   2.290  0.0830  0.5098 -0.3846
 3292SOL     ow13165   0.404   2.641   5.005 -0.7616 -0.0793 -0.5112
 3292SOL     hw13166   0.334   2.629   5.069 -1.0136  0.6898 -0.6421
 3292SOL     hw13167   0.474   2.683   5.055 -0.1171 -1.4407 -0.2116
 3292SOL     vw13168   0.404   2.645   5.020 -0.7098 -0.1576 -0.4890
 3293SOL     ow13169   4.932   3.487   5.504 -0.5538  0.6306 -0.5319
 3293SOL     hw13170   4.876   3.513   5.430  0.5020  4.4145 -0.2107
 3293SOL     hw13171   5.012   3.454   5.462 -1.8525 -2.3351 -0.9577
 3293SOL     vw13172   4.935   3.486   5.488 -0.5856  0.7386 -0.5455
 3294SOL     ow13173   3.552   2.083   0.752  0.0112 -0.0352 -0.0752
 3294SOL     hw13174   3.556   1.994   0.718 -1.4424 -1.1054  2.3187
 3294SOL     hw13175   3.609   2.134   0.694  1.8682 -2.7217 -0.7731
 3294SOL     vw13176   3.560   2.078   0.740  0.0645 -0.5308  0.1486
 3295SOL     ow13177   7.269   5.785   6.664  0.0530 -0.4759  0.2097
 3295SOL     hw13178   7.300   5.697   6.644  0.5064  0.2234 -2.6784
 3295SOL     hw13179   7.175   5.783   6.644  0.5630  0.3056 -2.6985
 3295SOL     vw13180   7.261   5.773   6.659  0.1800 -0.2804 -0.5553
 3296SOL     ow13181   4.998   6.562   1.312 -0.4633 -0.2357 -0.2790
 3296SOL     hw13182   5.032   6.576   1.224 -0.2405 -1.1484 -0.3537
 3296SOL     hw13183   4.936   6.634   1.326  0.8679  0.9809 -0.4527
 3296SOL     vw13184   4.994   6.573   1.302 -0.2584 -0.1955 -0.3118
 3297SOL     ow13185   6.013   6.306   4.917 -0.1159  0.1212 -0.2636
 3297SOL     hw13186   6.049   6.255   4.844  0.2685  0.3903 -0.2653
 3297SOL     hw13187   5.920   6.287   4.916  0.1332 -1.2152  0.2399
 3297SOL     vw13188   6.006   6.297   4.907 -0.0324 -0.0193 -0.1972
 3298SOL     ow13189   2.386   1.526   1.990  0.6160 -0.2151 -0.5144
 3298SOL     hw13190   2.447   1.466   2.032  0.3489  0.2417  0.5494
 3298SOL     hw13191   2.371   1.595   2.054 -0.2597  0.1932 -1.1313
 3298SOL     vw13192   2.392   1.527   2.004  0.4652 -0.1010 -0.4554
 3299SOL     ow13193   1.904   6.558   2.073  0.0410  0.2682  0.1314
 3299SOL     hw13194   1.853   6.548   1.993  0.9672 -0.3188 -0.4160
 3299SOL     hw13195   1.995   6.546   2.045  0.4339  0.6853  1.1683
 3299SOL     vw13196   1.909   6.555   2.059  0.2151  0.2456  0.1959
 3300SOL     ow13197   3.314   4.767   3.856  0.1841  0.4969  0.0186
 3300SOL     hw13198   3.378   4.835   3.840 -0.1485  1.0978  1.1189
 3300SOL     hw13199   3.315   4.713   3.777  1.1343  1.2187 -0.4748
 3300SOL     vw13200   3.322   4.769   3.843  0.2655  0.6714  0.0987
 3301SOL     ow13201   2.464   3.701   4.138  0.2216  0.1464 -0.4861
 3301SOL     hw13202   2.418   3.617   4.143  1.9023 -0.7604  1.1286
 3301SOL     hw13203   2.418   3.757   4.200  1.9580 -1.1963  2.2187
 3301SOL     vw13204   2.452   3.697   4.147  0.6725 -0.1504  0.0837
 3302SOL     ow13205   5.500   5.591   4.493 -0.3469 -0.5926 -0.0541
 3302SOL     hw13206   5.585   5.602   4.449  0.1474 -0.4322  0.9051
 3302SOL     hw13207   5.466   5.509   4.458 -1.5874  1.1535 -3.2809
 3302SOL     vw13208   5.507   5.581   4.483 -0.4451 -0.3412 -0.3536
 3303SOL     ow13209   7.096   6.663   6.769 -0.0606  0.6124 -0.1572
 3303SOL     hw13210   7.085   6.619   6.854  2.1775 -1.0569 -0.6340
 3303SOL     hw13211   7.036   6.618   6.710 -0.5689  0.8033  0.2086
 3303SOL     vw13212   7.087   6.652   6.773  0.1678  0.4175 -0.1719
 3304SOL     ow13213   0.786   6.436   3.006 -0.1477 -0.0949  0.0413
 3304SOL     hw13214   0.829   6.522   3.014  0.1174 -0.1971 -0.2401
 3304SOL     hw13215   0.729   6.430   3.082 -0.1579  0.3278  0.0698
 3304SOL     vw13216   0.784   6.447   3.017 -0.1141 -0.0525  0.0080
 3305SOL     ow13217   5.367   3.040   1.024  0.4287  0.1928 -0.8068
 3305SOL     hw13218   5.298   2.976   1.042  0.7195  0.1017  0.0036
 3305SOL     hw13219   5.325   3.106   0.968 -0.7279  0.9257  0.8662
 3305SOL     vw13220   5.352   3.040   1.019  0.3142  0.2774 -0.4792
 3306SOL     ow13221   1.700   4.708   0.940 -0.3322 -0.1166  0.2388
 3306SOL     hw13222   1.721   4.758   0.862 -1.2706 -1.2836 -0.8029
 3306SOL     hw13223   1.713   4.770   1.012 -0.1840  1.2113 -0.8801
 3306SOL     vw13224   1.705   4.723   0.939 -0.4364 -0.0951 -0.0462
 3307SOL     ow13225   7.057   7.243   2.771 -0.3903  0.4672 -0.7657
 3307SOL     hw13226   7.127   7.307   2.773 -0.4893  0.6173 -1.9097
 3307SOL     hw13227   7.071   7.194   2.690 -1.4249  0.3063 -0.8601
 3307SOL     vw13228   7.068   7.245   2.761 -0.5398  0.4659 -0.9291
 3308SOL     ow13229   1.591   0.461   3.106  0.2247 -0.7241 -0.4378
 3308SOL     hw13230   1.541   0.542   3.120  1.7946  0.3825 -0.9943
 3308SOL     hw13231   1.525   0.398   3.076 -0.8793  0.6457 -1.0332
 3308SOL     vw13232   1.575   0.464   3.104  0.2862 -0.3974 -0.5896
 3309SOL     ow13233   2.539   1.814   5.102  0.0919 -0.1119 -0.1208
 3309SOL     hw13234   2.458   1.770   5.127 -0.5041 -0.2637 -2.0970
 3309SOL     hw13235   2.526   1.838   5.010  1.8677  0.8608 -0.1798
 3309SOL     vw13236   2.527   1.812   5.093  0.2475 -0.0036 -0.3896
 3310SOL     ow13237   1.944   0.983   1.556 -0.3771 -0.6553 -0.5783
 3310SOL     hw13238   2.024   0.939   1.528  0.8587  0.1902  1.4435
 3310SOL     hw13239   1.875   0.918   1.541  1.0636 -2.4361  0.1800
 3310SOL     vw13240   1.945   0.968   1.550 -0.0240 -0.7787 -0.2115
 3311SOL     ow13241   2.242   5.601   4.834 -0.0328 -0.0138  0.1102
 3311SOL     hw13242   2.157   5.557   4.821  0.3975 -0.9510  0.3808
 3311SOL     hw13243   2.305   5.530   4.835  0.7547  0.6766  0.0172
 3311SOL     vw13244   2.239   5.586   4.832  0.1279 -0.0463  0.1338
 3312SOL     ow13245   0.181   5.058   2.789  0.0486  0.3460  0.8607
 3312SOL     hw13246   0.222   4.973   2.805  1.1030  0.7701  0.5071
 3312SOL     hw13247   0.189   5.072   2.695  0.5277  1.1501  1.0105
 3312SOL     vw13248   0.187   5.049   2.779  0.2509  0.5078  0.8339
 3313SOL     ow13249   7.178   7.158   3.291  0.6742  0.2125 -0.2162
 3313SOL     hw13250   7.173   7.167   3.196  1.3253 -2.8958 -0.6300
 3313SOL     hw13251   7.090   7.182   3.321 -1.0914 -3.0859 -2.1425
 3313SOL     vw13252   7.166   7.162   3.283  0.5271 -0.6330 -0.5249
 3314SOL     ow13253   2.647   1.064   1.571 -0.5344 -0.1080  0.2150
 3314SOL     hw13254   2.695   1.130   1.621 -0.2184  0.5186 -0.8611
 3314SOL     hw13255   2.673   0.981   1.610  1.0820  0.2376 -0.0222
 3314SOL     vw13256   2.657   1.062   1.583 -0.2794  0.0203  0.0417
 3315SOL     ow13257   5.729   4.217   3.065 -0.2672  0.1452  0.2863
 3315SOL     hw13258   5.637   4.238   3.047 -0.0744  0.6891 -0.0713
 3315SOL     hw13259   5.779   4.286   3.022  0.3183 -0.1995  0.3979
 3315SOL     vw13260   5.723   4.229   3.057 -0.1645  0.1712  0.2539
 3316SOL     ow13261   3.633   5.058   5.792  0.3177 -0.1689  0.2407
 3316SOL     hw13262   3.548   5.022   5.819 -0.2163 -0.0530 -1.2331
 3316SOL     hw13263   3.688   5.049   5.870 -1.1410  0.0976  1.3474
 3316SOL     vw13264   3.629   5.052   5.806  0.0548 -0.1183  0.1924
 3317SOL     ow13265   1.770   6.762   2.224 -0.0446 -0.1713  0.9518
 3317SOL     hw13266   1.806   6.848   2.244 -0.5943  0.1083  0.7577
 3317SOL     hw13267   1.679   6.779   2.198  0.4195 -0.6031 -1.0650
 3317SOL     vw13268   1.762   6.775   2.223 -0.0558 -0.1915  0.6601
 3318SOL     ow13269   3.260   7.327   1.154 -0.6793  0.3444  0.1053
 3318SOL     hw13270   3.324   7.302   1.087 -0.3071  2.4024 -0.3889
 3318SOL     hw13271   3.298   7.297   1.236 -1.1585 -2.2606 -0.5558
 3318SOL     vw13272   3.274   7.320   1.156 -0.6934  0.2720 -0.0471
 3319SOL     ow13273   1.650   4.783   0.433  0.4639 -0.1482 -0.5965
 3319SOL     hw13274   1.654   4.691   0.407  1.2801 -1.3998  3.2594
 3319SOL     hw13275   1.561   4.795   0.467  0.7923  0.0393  0.2218
 3319SOL     vw13276   1.639   4.772   0.434  0.6149 -0.2885  0.0202
 3320SOL     ow13277   6.352   5.799   7.376  0.5998 -0.1688  0.0872
 3320SOL     hw13278   6.363   5.705   7.361  1.5894  0.1769 -1.5931
 3320SOL     hw13279   6.397   5.840   7.302 -2.7117  1.5989 -1.1692
 3320SOL     vw13280   6.359   5.792   7.364  0.2937  0.1104 -0.3002
 3321SOL     ow13281   6.233   6.024   6.943 -0.5945 -0.1054  1.3772
 3321SOL     hw13282   6.165   5.997   7.005 -1.2232  0.9529  1.1829
 3321SOL     hw13283   6.231   6.120   6.947 -2.1065  0.1113 -1.7681
 3321SOL     vw13284   6.223   6.033   6.952 -0.8769  0.0629  0.9365
 3322SOL     ow13285   4.248   1.890   4.377  0.1527  0.1307 -0.0225
 3322SOL     hw13286   4.282   1.808   4.413 -0.2563  0.1704  0.4804
 3322SOL     hw13287   4.252   1.879   4.282 -2.1622 -1.4789 -0.0334
 3322SOL     vw13288   4.253   1.878   4.369 -0.2065 -0.0765  0.0422
 3323SOL     ow13289   3.194   4.580   2.104  0.3164  0.5473  0.1027
 3323SOL     hw13290   3.278   4.612   2.072  0.3339 -1.1435 -1.7334
 3323SOL     hw13291   3.208   4.487   2.122 -1.6458 -0.4306 -2.6203
 3323SOL     vw13292   3.207   4.572   2.102  0.0597  0.1953 -0.4989
 3324SOL     ow13293   6.258   5.996   4.947  0.2165 -0.4067  0.2572
 3324SOL     hw13294   6.199   6.025   5.017  1.6845  1.7081  0.7124
 3324SOL     hw13295   6.330   5.952   4.992  0.1301 -0.9260 -0.1047
 3324SOL     vw13296   6.260   5.994   4.962  0.3989 -0.1962  0.2697
 3325SOL     ow13297   0.525   7.039   2.245 -0.4085 -0.6704  0.0998
 3325SOL     hw13298   0.620   7.033   2.240 -0.2924 -1.6026  2.1890
 3325SOL     hw13299   0.494   6.951   2.226 -0.7374 -0.7402  0.9228
 3325SOL     vw13300   0.533   7.027   2.242 -0.4366 -0.8028  0.4841
 3326SOL     ow13301   2.027   1.281   4.022  0.0367  0.0671  0.5664
 3326SOL     hw13302   2.080   1.281   4.102  2.2242  0.0023 -0.7918
 3326SOL     hw13303   2.055   1.203   3.975  0.9777  1.6238 -1.5746
 3326SOL     vw13304   2.038   1.271   4.027  0.4494  0.2640  0.1044
 3327SOL     ow13305   3.567   6.817   5.298 -0.3917  0.4550 -0.1262
 3327SOL     hw13306   3.503   6.854   5.358  0.9292  0.3108  1.4426
 3327SOL     hw13307   3.515   6.761   5.240 -1.7673  0.8946  0.6226
 3327SOL     vw13308   3.552   6.814   5.298 -0.3989  0.4940  0.1795
 3328SOL     ow13309   1.084   6.478   4.642 -0.5954 -0.5303  0.2814
 3328SOL     hw13310   1.080   6.417   4.569  0.8673 -0.4575  0.1065
 3328SOL     hw13311   1.007   6.534   4.632 -0.9240 -1.1374 -0.6404
 3328SOL     vw13312   1.074   6.478   4.631 -0.4458 -0.6008  0.1366
 3329SOL     ow13313   2.638   3.516   5.654 -0.3433 -0.2098 -0.1014
 3329SOL     hw13314   2.660   3.609   5.648 -1.7491  0.2833  1.4709
 3329SOL     hw13315   2.591   3.497   5.573 -1.5161  0.9183  0.2798
 3329SOL     vw13316   2.635   3.526   5.642 -0.6834  0.0042  0.1564
 3330SOL     ow13317   4.567   4.855   0.742 -0.2424  0.0665  0.3276
 3330SOL     hw13318   4.531   4.767   0.753  1.2459 -0.7784 -1.1182
 3330SOL     hw13319   4.652   4.851   0.785 -0.2262  0.8431  0.3727
 3330SOL     vw13320   4.574   4.843   0.749 -0.0441  0.0575  0.1428
 3331SOL     ow13321   0.104   2.282   0.317  0.1594 -0.0871  0.3553
 3331SOL     hw13322   0.124   2.189   0.322 -0.2562 -0.1192  2.0529
 3331SOL     hw13323   0.046   2.290   0.241  0.8868 -1.0666 -0.3278
 3331SOL     vw13324   0.099   2.271   0.307  0.2005 -0.2205  0.4891
 3332SOL     ow13325   6.727   0.588   0.025 -0.2390 -0.1279  0.3995
 3332SOL     hw13326   6.733   0.592   0.121  1.2146  0.3432  0.3244
 3332SOL     hw13327   6.771   0.506   0.002 -0.9503 -0.4437  0.1515
 3332SOL     vw13328   6.734   0.578   0.035 -0.1414 -0.1074  0.3568
 3333SOL     ow13329   0.541   4.649   7.199  0.3269 -0.2931 -0.0814
 3333SOL     hw13330   0.491   4.633   7.119  0.0173  1.1891 -0.2109
 3333SOL     hw13331   0.474   4.667   7.266  0.6212  3.0029 -0.5457
 3333SOL     vw13332   0.525   4.649   7.197  0.3249  0.3374 -0.1597
 3334SOL     ow13333   3.188   2.067   2.152  0.5366 -0.1795 -0.0646
 3334SOL     hw13334   3.276   2.100   2.134  0.3943  1.2878  1.7018
 3334SOL     hw13335   3.152   2.128   2.216 -2.1172 -0.2222 -1.3747
 3334SOL     vw13336   3.195   2.080   2.158  0.1676  0.0085 -0.0044
 3335SOL     ow13337   1.293   3.617   0.998 -0.0161  0.4921  0.6943
 3335SOL     hw13338   1.358   3.679   0.964  0.5845  0.4157  1.6658
 3335SOL     hw13339   1.276   3.558   0.925  2.0413 -0.3143  0.7798
 3335SOL     vw13340   1.300   3.617   0.984  0.3346  0.3756  0.8338
 3336SOL     ow13341   5.001   6.540   7.299 -0.3531 -0.1014 -0.0054
 3336SOL     hw13342   5.007   6.521   7.206  1.4720  1.5968 -0.2977
 3336SOL     hw13343   4.937   6.477   7.333  1.3017 -2.9153 -1.7799
 3336SOL     vw13344   4.993   6.529   7.291  0.1063 -0.2487 -0.2780
 3337SOL     ow13345   3.592   1.204   3.904  0.1278  0.2603 -0.0614
 3337SOL     hw13346   3.505   1.193   3.942 -0.8542 -0.6010 -2.3801
 3337SOL     hw13347   3.614   1.296   3.921 -0.2455 -0.0370  2.4047
 3337SOL     vw13348   3.584   1.215   3.911 -0.0510  0.1074 -0.0421
 3338SOL     ow13349   1.028   0.182   2.772  0.4878  0.6488 -0.2472
 3338SOL     hw13350   1.062   0.098   2.804 -3.0275 -0.4470  1.1619
 3338SOL     hw13351   1.015   0.234   2.851  1.7398  2.2375 -1.0325
 3338SOL     vw13352   1.030   0.178   2.787  0.1892  0.7138 -0.1649
 3339SOL     ow13353   2.686   4.670   0.243 -1.0834 -0.0512 -0.0824
 3339SOL     hw13354   2.653   4.600   0.299 -1.4834 -2.6349 -3.2758
 3339SOL     hw13355   2.608   4.703   0.198 -0.5477  0.6555 -0.5074
 3339SOL     vw13356   2.671   4.665   0.244 -1.0655 -0.2990 -0.5598
 3340SOL     ow13357   7.399   1.567   7.230  0.3229 -0.0108 -0.0168
 3340SOL     hw13358   7.434   1.500   7.289 -0.8419 -0.6025  0.0184
 3340SOL     hw13359   7.477   1.612   7.196  1.0200  0.9460  2.6196
 3340SOL     vw13360   7.414   1.564   7.233  0.2613  0.0373  0.3357
 3341SOL     ow13361   4.708   7.111   5.595  0.0893  0.0599  0.2389
 3341SOL     hw13362   4.754   7.028   5.588 -0.4440 -0.3529  1.3872
 3341SOL     hw13363   4.705   7.144   5.506 -0.6700 -1.6900 -0.4270
 3341SOL     vw13364   4.714   7.105   5.583 -0.0813 -0.2253  0.3026
 3342SOL     ow13365   7.140   4.107   1.321 -0.2541 -0.0994 -0.1256
 3342SOL     hw13366   7.196   4.101   1.397 -0.2887 -0.6330 -0.1391
 3342SOL     hw13367   7.198   4.133   1.249 -0.1101 -0.2046 -0.0459
 3342SOL     vw13368   7.155   4.109   1.321 -0.2398 -0.1838 -0.1168
 3343SOL     ow13369   1.905   2.400   0.066  0.5210 -0.5802  0.5810
 3343SOL     hw13370   1.825   2.382   0.016  0.0611  2.1244  0.2266
 3343SOL     hw13371   1.894   2.349   0.147 -0.8216 -1.4501 -0.1093
 3343SOL     vw13372   1.893   2.391   0.070  0.2832 -0.3382  0.4431
 3344SOL     ow13373   4.733   5.187   0.645 -0.0030  0.4298 -0.1340
 3344SOL     hw13374   4.795   5.122   0.614  0.2915  1.1414 -1.0877
 3344SOL     hw13375   4.785   5.244   0.702 -0.0587  0.3395  0.0074
 3344SOL     vw13376   4.748   5.186   0.649  0.0286  0.5116 -0.2412
 3345SOL     ow13377   3.765   5.460   0.060 -0.0055 -0.5573 -0.1138
 3345SOL     hw13378   3.710   5.529   0.025  1.5467 -0.8743 -3.6259
 3345SOL     hw13379   3.846   5.504   0.086  0.0856 -0.7519 -0.0609
 3345SOL     vw13380   3.768   5.475   0.059  0.2114 -0.6249 -0.5702
 3346SOL     ow13381   7.143   5.590   7.034  0.7241 -0.2611 -0.2363
 3346SOL     hw13382   7.179   5.520   7.089  1.4664  0.5905  0.3964
 3346SOL     hw13383   7.121   5.546   6.952 -1.0282 -1.7092  0.9137
 3346SOL     vw13384   7.145   5.575   7.031  0.5908 -0.3397 -0.0012
 3347SOL     ow13385   0.871   2.795   7.365 -0.2974  0.2062 -0.1148
 3347SOL     hw13386   0.919   2.717   7.334 -0.5002  0.3937 -0.9392
 3347SOL     hw13387   0.872   2.854   7.289 -0.7640  0.7146  0.2752
 3347SOL     vw13388   0.878   2.792   7.351 -0.3857  0.2980 -0.1719
 3348SOL     ow13389   4.394   6.715   6.825 -0.2736 -0.0578  0.1147
 3348SOL     hw13390   4.482   6.678   6.827  0.4746  1.5787 -0.6055
 3348SOL     hw13391   4.390   6.771   6.903 -1.4006 -1.6107  1.2174
 3348SOL     vw13392   4.405   6.718   6.836 -0.3238 -0.0465  0.1652
 3349SOL     ow13393   1.638   7.037   4.846 -0.7050 -0.1126  0.2050
 3349SOL     hw13394   1.705   7.048   4.914 -0.9028 -1.8028  0.7151
 3349SOL     hw13395   1.683   7.061   4.765  0.5103 -1.0740  0.5580
 3349SOL     vw13396   1.653   7.041   4.844 -0.5707 -0.4625  0.3188
 3350SOL     ow13397   5.328   2.594   0.079  0.3773  0.2498 -0.3143
 3350SOL     hw13398   5.258   2.604   0.015  0.3103 -0.2334 -0.3245
 3350SOL     hw13399   5.355   2.502   0.071  0.2007  0.1164  0.5189
 3350SOL     vw13400   5.323   2.583   0.070  0.3450  0.1684 -0.2057
 3351SOL     ow13401   6.582   4.538   7.116 -0.5850 -0.2789 -0.6144
 3351SOL     hw13402   6.510   4.477   7.133  0.1574 -1.6285 -2.0977
 3351SOL     hw13403   6.657   4.482   7.096  0.9547  1.0846  0.9431
 3351SOL     vw13404   6.583   4.522   7.116 -0.2837 -0.2773 -0.6046
 3352SOL     ow13405   0.550   1.290   6.411 -0.1323  0.1858 -0.1510
 3352SOL     hw13406   0.513   1.282   6.499 -0.9899  0.0281 -0.5173
 3352SOL     hw13407   0.640   1.319   6.426 -1.1829  3.5065  0.6899
 3352SOL     vw13408   0.557   1.293   6.425 -0.3841  0.6031 -0.0882
 3353SOL     ow13409   1.442   4.614   0.894 -0.2381 -0.0512  0.0016
 3353SOL     hw13410   1.397   4.697   0.877  0.3495 -0.0530 -1.8289
 3353SOL     hw13411   1.526   4.639   0.931  0.1460  0.2312 -1.0182
 3353SOL     vw13412   1.447   4.628   0.897 -0.1099 -0.0145 -0.3745
 3354SOL     ow13413   3.846   2.378   5.372 -0.3934 -0.1956  0.2512
 3354SOL     hw13414   3.763   2.332   5.363 -0.2930 -0.7539  1.8571
 3354SOL     hw13415   3.899   2.347   5.299 -1.0288 -1.1012  0.1611
 3354SOL     vw13416   3.842   2.368   5.362 -0.4641 -0.3887  0.4511
 3355SOL     ow13417   2.077   1.049   3.897 -0.3531 -0.2174 -0.3653
 3355SOL     hw13418   2.170   1.055   3.872 -0.3464  0.3924 -0.2150
 3355SOL     hw13419   2.031   1.094   3.826 -0.5314 -0.4867 -0.4206
 3355SOL     vw13420   2.084   1.056   3.884 -0.3756 -0.1724 -0.3529
 3356SOL     ow13421   7.250   0.661   6.955 -0.8823 -0.6282 -0.4787
 3356SOL     hw13422   7.256   0.606   7.033 -3.5394 -0.2242  0.1171
 3356SOL     hw13423   7.309   0.734   6.972 -0.7933 -0.9781  0.7990
 3356SOL     vw13424   7.258   0.663   6.968 -1.2207 -0.6211 -0.2317
 3357SOL     ow13425   2.513   3.888   4.548 -0.0375 -0.2857 -0.4874
 3357SOL     hw13426   2.459   3.955   4.590 -0.9129 -0.4747 -1.2654
 3357SOL     hw13427   2.490   3.807   4.594 -0.2521 -0.3294 -0.6707
 3357SOL     vw13428   2.503   3.886   4.560 -0.1813 -0.3164 -0.6139
 3358SOL     ow13429   5.182   1.586   0.122  0.0100  0.4133 -0.0856
 3358SOL     hw13430   5.186   1.533   0.042  0.6968 -1.2268  0.9804
 3358SOL     hw13431   5.124   1.659   0.100 -2.8351 -1.9256 -1.0150
 3358SOL     vw13432   5.175   1.589   0.109 -0.2751 -0.1117 -0.0676
 3359SOL     ow13433   6.760   5.489   6.386 -0.4661  0.1482 -0.3908
 3359SOL     hw13434   6.733   5.464   6.298 -1.4775  0.5954 -0.2234
 3359SOL     hw13435   6.795   5.409   6.424  1.1214  0.2119 -1.5902
 3359SOL     vw13436   6.762   5.475   6.379 -0.3898  0.2155 -0.5269
 3360SOL     ow13437   2.168   4.564   3.087  0.3089  0.4421 -0.8445
 3360SOL     hw13438   2.222   4.538   3.162  0.8696  0.0068 -1.3947
 3360SOL     hw13439   2.216   4.638   3.048 -1.5767  2.8823  1.0832
 3360SOL     vw13440   2.182   4.571   3.092  0.1341  0.7064 -0.6627
 3361SOL     ow13441   1.764   5.311   7.437  0.1707 -0.2843 -0.0008
 3361SOL     hw13442   1.798   5.391   7.396 -0.0398  0.0655  0.4859
 3361SOL     hw13443   1.669   5.320   7.431  0.1332 -0.1577  0.6793
 3361SOL     vw13444   1.756   5.323   7.431  0.1379 -0.2210  0.1531
 3362SOL     ow13445   3.944   7.250   6.914 -0.3388  0.0350  0.2854
 3362SOL     hw13446   3.924   7.234   7.006  0.0213 -0.6619  0.2468
 3362SOL     hw13447   3.865   7.293   6.879 -1.3185 -1.5702  0.4244
 3362SOL     vw13448   3.931   7.254   6.921 -0.4205 -0.2687  0.2987
 3363SOL     ow13449   0.395   2.642   7.235 -0.0873  0.4300  0.3244
 3363SOL     hw13450   0.417   2.558   7.277  0.8870 -0.5873 -2.0391
 3363SOL     hw13451   0.325   2.678   7.288  0.0459 -1.4850  1.9025
 3363SOL     vw13452   0.389   2.635   7.248  0.0589  0.0433  0.2208
 3364SOL     ow13453   0.588   5.387   2.016 -0.7306  0.3697 -0.1700
 3364SOL     hw13454   0.582   5.424   2.104  0.0140  2.4199 -0.9197
 3364SOL     hw13455   0.497   5.377   1.988 -0.9622  0.4136  0.5454
 3364SOL     vw13456   0.576   5.390   2.024 -0.6630  0.6456 -0.1746
 3365SOL     ow13457   5.829   6.877   2.814  0.0254 -0.1869 -0.1610
 3365SOL     hw13458   5.876   6.796   2.831 -1.0678 -1.1265 -1.3892
 3365SOL     hw13459   5.856   6.937   2.884  2.0311 -1.0908 -0.1207
 3365SOL     vw13460   5.839   6.875   2.825  0.1457 -0.4301 -0.3176
 3366SOL     ow13461   3.294   4.849   7.033  0.0328 -0.1390 -0.3085
 3366SOL     hw13462   3.338   4.888   6.958  0.2555 -1.4766 -0.9177
 3366SOL     hw13463   3.207   4.826   7.001  0.1250 -0.7084 -0.1672
 3366SOL     vw13464   3.288   4.851   7.019  0.0744 -0.3908 -0.3703
 3367SOL     ow13465   7.077   6.132   7.210 -0.0943  0.6391  0.6578
 3367SOL     hw13466   7.005   6.151   7.150  0.1058  1.0361  0.5345
 3367SOL     hw13467   7.152   6.116   7.152 -0.4255 -1.3668  0.7258
 3367SOL     vw13468   7.078   6.132   7.194 -0.1116  0.4270  0.6506
 3368SOL     ow13469   6.125   6.015   7.384 -0.0009 -0.0618 -0.2398
 3368SOL     hw13470   6.087   6.045   7.467  1.6231  1.1439  0.1223
 3368SOL     hw13471   6.199   5.962   7.410  1.1361  1.1537 -0.8829
 3368SOL     vw13472   6.129   6.012   7.399  0.3633  0.2575 -0.2768
 3369SOL     ow13473   1.507   5.239   3.355 -0.3577  0.0428  0.8035
 3369SOL     hw13474   1.460   5.305   3.303  0.7030  0.6510  0.5991
 3369SOL     hw13475   1.509   5.276   3.443 -3.4861 -1.6572  1.7318
 3369SOL     vw13476   1.501   5.253   3.360 -0.6306 -0.1016  0.8990
 3370SOL     ow13477   2.533   3.859   6.709 -0.3416  0.0273 -0.0327
 3370SOL     hw13478   2.519   3.924   6.777 -1.2822  1.2648 -1.3367
 3370SOL     hw13479   2.530   3.909   6.627 -1.6942 -1.7162 -1.1260
 3370SOL     vw13480   2.531   3.874   6.707 -0.6441 -0.0393 -0.3488
 3371SOL     ow13481   0.514   1.321   3.433 -0.3025  0.0190 -0.4743
 3371SOL     hw13482   0.593   1.299   3.384  0.2927 -0.8021  0.7942
 3371SOL     hw13483   0.531   1.408   3.468  0.6050 -0.6554  0.8354
 3371SOL     vw13484   0.526   1.329   3.431 -0.1043 -0.1783 -0.1342
 3372SOL     ow13485   3.922   6.814   5.102  0.0120  0.5692 -0.0722
 3372SOL     hw13486   3.947   6.885   5.044  0.5845  1.0495  0.7597
 3372SOL     hw13487   3.914   6.738   5.044 -0.2248  1.2122 -0.9013
 3372SOL     vw13488   3.924   6.813   5.086  0.0563  0.7174 -0.0720
 3373SOL     ow13489   0.670   6.592   2.001 -0.1146  0.1219  0.5326
 3373SOL     hw13490   0.722   6.644   2.063  3.1901 -0.2449 -1.7161
 3373SOL     hw13491   0.632   6.522   2.055  1.6710  0.4679  2.3752
 3373SOL     vw13492   0.672   6.590   2.016  0.5571  0.1192  0.4791
 3374SOL     ow13493   2.089   5.013   3.109 -0.6269 -0.0972 -0.2151
 3374SOL     hw13494   2.037   5.085   3.076 -1.9634 -0.8760  0.1404
 3374SOL     hw13495   2.035   4.935   3.097  0.8996 -1.1153 -0.8821
 3374SOL     vw13496   2.075   5.012   3.103 -0.6018 -0.3340 -0.2562
 3375SOL     ow13497   5.400   7.183   7.188  0.3553  0.4697  0.4233
 3375SOL     hw13498   5.424   7.091   7.194 -1.7252 -0.1459  0.3681
 3375SOL     hw13499   5.383   7.197   7.094 -0.6997  0.4842  0.5971
 3375SOL     vw13500   5.401   7.173   7.176 -0.0582  0.3905  0.4387
 3376SOL     ow13501   2.699   4.817   6.986  0.0854  0.0460  0.2474
 3376SOL     hw13502   2.748   4.784   7.062  1.1588 -0.9427 -0.8318
 3376SOL     hw13503   2.743   4.778   6.911 -2.3030 -0.8155 -0.8020
 3376SOL     vw13504   2.712   4.807   6.986 -0.0882 -0.1984 -0.0334
 3377SOL     ow13505   0.859   5.084   4.652  0.0486  0.0588  0.0110
 3377SOL     hw13506   0.792   5.094   4.719 -0.8040  2.9852 -1.0942
 3377SOL     hw13507   0.889   4.994   4.660 -4.0231 -1.4267  0.5611
 3377SOL     vw13508   0.855   5.074   4.662 -0.6011  0.2489 -0.0620
 3378SOL     ow13509   5.163   2.165   1.049  0.2902  0.4090 -0.0213
 3378SOL     hw13510   5.219   2.176   0.972 -1.4943  1.3388 -1.2596
 3378SOL     hw13511   5.074   2.176   1.016 -0.5666  0.3809  2.1124
 3378SOL     vw13512   5.159   2.168   1.034 -0.0584  0.5280  0.0969
 3379SOL     ow13513   2.489   6.819   7.362 -0.3962 -0.0014 -0.2765
 3379SOL     hw13514   2.449   6.903   7.387 -2.5860 -0.7291 -1.0644
 3379SOL     hw13515   2.536   6.791   7.440  0.3290  1.8925  0.0342
 3379SOL     vw13516   2.490   6.827   7.375 -0.5895  0.1523 -0.3395
 3380SOL     ow13517   5.185   3.094   6.729 -0.8534 -0.2488 -0.1227
 3380SOL     hw13518   5.182   3.177   6.680 -4.5570 -1.2297 -1.9797
 3380SOL     hw13519   5.223   3.118   6.814 -0.2849  2.9990 -1.1376
 3380SOL     vw13520   5.189   3.108   6.734 -1.2672  0.0504 -0.5016
 3381SOL     ow13521   0.589   6.930   2.503 -0.4945 -0.3189 -0.2524
 3381SOL     hw13522   0.586   6.885   2.588  2.9902  0.9132  0.7100
 3381SOL     hw13523   0.626   6.865   2.444  0.6084 -0.0584  0.1277
 3381SOL     vw13524   0.594   6.915   2.507  0.1108 -0.1218 -0.0753
 3382SOL     ow13525   6.260   3.570   1.852 -0.0063 -0.3243  0.5181
 3382SOL     hw13526   6.257   3.590   1.945  0.1635  0.6790  0.3205
 3382SOL     hw13527   6.231   3.651   1.809 -1.1240 -1.1158 -0.2732
 3382SOL     vw13528   6.256   3.584   1.859 -0.1314 -0.2965  0.3876
 3383SOL     ow13529   4.182   3.222   6.186 -0.2022  0.1170  0.2012
 3383SOL     hw13530   4.148   3.161   6.251 -1.2731  0.6557  0.1755
 3383SOL     hw13531   4.267   3.186   6.161 -0.3765 -0.8198  0.9028
 3383SOL     vw13532   4.189   3.210   6.191 -0.3664  0.0645  0.2904
 3384SOL     ow13533   0.490   0.112   3.517  0.0803 -0.5547 -0.7481
 3384SOL     hw13534   0.434   0.136   3.591  1.1519 -1.6113  0.4530
 3384SOL     hw13535   0.501   0.193   3.467  0.4592  0.5293  1.0336
 3384SOL     vw13536   0.484   0.126   3.520  0.2717 -0.5510 -0.3545
 3385SOL     ow13537   5.566   2.589   5.540  0.2435 -0.1498 -0.5849
 3385SOL     hw13538   5.537   2.499   5.554 -0.5331  0.0310 -0.9823
 3385SOL     hw13539   5.490   2.633   5.503  0.7580  0.5637 -0.8124
 3385SOL     vw13540   5.552   2.583   5.537  0.2089 -0.0318 -0.6673
 3386SOL     ow13541   1.481   4.197   4.085  0.0632 -0.3236 -0.0656
 3386SOL     hw13542   1.467   4.108   4.051 -0.6148  0.3815 -1.7201
 3386SOL     hw13543   1.568   4.194   4.125  0.8424 -1.2564 -1.7409
 3386SOL     vw13544   1.490   4.185   4.086  0.0764 -0.3538 -0.5047
 3387SOL     ow13545   4.626   6.526   4.020 -0.0880 -0.0022  0.0957
 3387SOL     hw13546   4.583   6.483   4.093 -3.2193  0.5444 -1.2667
 3387SOL     hw13547   4.585   6.612   4.015  1.5114  0.7462 -1.0852
 3387SOL     vw13548   4.615   6.531   4.029 -0.2902  0.1690 -0.2396
 3388SOL     ow13549   3.221   4.074   1.433 -0.0482 -0.0039  0.3749
 3388SOL     hw13550   3.235   4.031   1.348 -2.4443  1.1427 -0.7060
 3388SOL     hw13551   3.234   4.167   1.414 -0.2436  0.2337  1.3788
 3388SOL     vw13552   3.225   4.081   1.419 -0.3901  0.1786  0.3648
 3389SOL     ow13553   3.534   5.095   4.903 -0.2149 -0.0394 -0.0839
 3389SOL     hw13554   3.562   5.142   4.982  1.4439  0.7870 -1.1153
 3389SOL     hw13555   3.594   5.021   4.896  0.0855  0.2684 -0.9109
 3389SOL     vw13556   3.545   5.091   4.913  0.0436  0.1101 -0.3290
 3390SOL     ow13557   2.140   1.942   3.463 -0.3577  0.1072 -0.9242
 3390SOL     hw13558   2.105   2.001   3.396  0.3384 -0.7352 -2.0632
 3390SOL     hw13559   2.234   1.941   3.447  0.1393  1.4968  1.4161
 3390SOL     vw13560   2.148   1.950   3.452 -0.2002  0.1794 -0.7659
 3391SOL     ow13561   5.423   5.864   0.895  0.5659 -0.3401  0.3237
 3391SOL     hw13562   5.474   5.801   0.843  1.8502 -1.2294  2.5496
 3391SOL     hw13563   5.454   5.949   0.865 -0.6169 -0.6612 -2.1601
 3391SOL     vw13564   5.434   5.867   0.884  0.5794 -0.4997  0.2897
 3392SOL     ow13565   7.351   5.594   0.053  0.7808  0.0450  0.2580
 3392SOL     hw13566   7.343   5.576   0.147  3.1988  1.6620  0.8756
 3392SOL     hw13567   7.262   5.615   0.025  0.1783  0.7531  2.4956
 3392SOL     vw13568   7.339   5.595   0.062  1.0204  0.3519  0.6347
 3393SOL     ow13569   4.403   3.862   4.344  0.2383  0.4787  0.6403
 3393SOL     hw13570   4.446   3.896   4.266  0.7164  0.2628  0.8077
 3393SOL     hw13571   4.472   3.818   4.393 -0.5972 -1.7513 -0.1081
 3393SOL     vw13572   4.418   3.861   4.340  0.1910  0.1560  0.5634
 3394SOL     ow13573   4.724   0.094   0.494 -0.0174 -0.5303  0.0364
 3394SOL     hw13574   4.690   0.005   0.484 -1.3177 -0.6598  3.9143
 3394SOL     hw13575   4.760   0.096   0.583 -0.0678  2.8469  0.1128
 3394SOL     vw13576   4.724   0.083   0.505 -0.1957 -0.1018  0.5581
 3395SOL     ow13577   2.635   4.122   0.243 -0.2605  0.5412 -0.4729
 3395SOL     hw13578   2.578   4.198   0.253 -0.3747  0.2586  1.3896
 3395SOL     hw13579   2.609   4.063   0.314  0.7211 -0.6682 -1.0707
 3395SOL     vw13580   2.624   4.124   0.254 -0.1459  0.3443 -0.3061
 3396SOL     ow13581   3.603   4.329   2.092  0.2849 -0.3773  0.6799
 3396SOL     hw13582   3.587   4.409   2.143  4.8559 -0.0168  1.9567
 3396SOL     hw13583   3.537   4.267   2.125 -2.9414  2.4544  0.1747
 3396SOL     vw13584   3.592   4.332   2.103  0.4623  0.0439  0.7818
 3397SOL     ow13585   6.444   4.523   6.836  0.4994 -0.2844 -0.1041
 3397SOL     hw13586   6.389   4.568   6.771 -0.3607 -1.9109 -0.5401
 3397SOL     hw13587   6.533   4.539   6.807  0.2870  1.8242  0.2294
 3397SOL     vw13588   6.448   4.531   6.824  0.3579 -0.2208 -0.1175
 3398SOL     ow13589   0.242   4.941   1.660  0.5143 -0.1320 -0.1030
 3398SOL     hw13590   0.239   4.871   1.725 -1.9019  0.2710  0.3204
 3398SOL     hw13591   0.156   4.939   1.618  1.5365  0.4935 -2.3939
 3398SOL     vw13592   0.231   4.932   1.663  0.3303  0.0038 -0.3494
 3399SOL     ow13593   1.556   5.467   6.945  0.5781 -0.7714 -0.3959
 3399SOL     hw13594   1.494   5.442   7.014 -0.1956  2.0695  0.0710
 3399SOL     hw13595   1.638   5.424   6.970 -0.5749 -2.6494  0.3102
 3399SOL     vw13596   1.559   5.458   6.958  0.3238 -0.6444 -0.2410
 3400SOL     ow13597   0.487   7.311   0.008 -0.1119 -0.2365 -0.3549
 3400SOL     hw13598   0.575   7.319  -0.028  0.1801  1.1051  0.5488
 3400SOL     hw13599   0.499   7.328   0.102 -1.2351 -0.7246 -0.1136
 3400SOL     vw13600   0.500   7.315   0.016 -0.2216 -0.1240 -0.2038
 3401SOL     ow13601   3.858   4.927   1.965  0.2743  0.0483  0.0897
 3401SOL     hw13602   3.833   4.901   2.054 -0.8052 -1.1117 -0.5189
 3401SOL     hw13603   3.779   4.969   1.930  0.3172 -0.5010 -0.6865
 3401SOL     vw13604   3.844   4.929   1.972  0.1374 -0.1774 -0.0930
 3402SOL     ow13605   2.437   3.462   5.430 -0.0437 -0.5753  0.3869
 3402SOL     hw13606   2.475   3.382   5.393  0.2148 -0.4500  0.3744
 3402SOL     hw13607   2.362   3.432   5.480  0.6668 -0.9428  1.2551
 3402SOL     vw13608   2.432   3.447   5.432  0.0843 -0.6074  0.4995
 3403SOL     ow13609   4.755   0.189   6.608  0.1818  0.2152  0.5319
 3403SOL     hw13610   4.702   0.194   6.528  1.7359 -1.7862 -0.7274
 3403SOL     hw13611   4.842   0.217   6.580  0.5534  0.3150  1.7527
 3403SOL     vw13612   4.760   0.193   6.593  0.4358 -0.0357  0.5271
 3404SOL     ow13613   4.385   5.624   5.354 -0.1017 -0.3785 -0.6886
 3404SOL     hw13614   4.313   5.561   5.356 -0.7677  0.3854  0.5924
 3404SOL     hw13615   4.366   5.685   5.425  0.7193  1.0593 -1.6376
 3404SOL     vw13616   4.373   5.624   5.364 -0.0815 -0.0880 -0.6449
 3405SOL     ow13617   4.273   3.708   6.879 -0.4615  0.4211  0.7594
 3405SOL     hw13618   4.364   3.710   6.910 -0.1344 -0.0437 -0.1330
 3405SOL     hw13619   4.279   3.671   6.791 -1.7728 -1.8045  1.5496
 3405SOL     vw13620   4.286   3.704   6.871 -0.5913  0.0660  0.7460
 3406SOL     ow13621   2.677   4.326   0.021  0.2384  0.1938 -0.1769
 3406SOL     hw13622   2.606   4.334  -0.042  0.1052 -0.1708 -0.0788
 3406SOL     hw13623   2.756   4.350  -0.028  0.8275 -4.1754 -1.8548
 3406SOL     vw13624   2.678   4.330   0.006  0.2985 -0.4306 -0.3853
 3407SOL     ow13625   4.628   6.476   2.222  0.5587  0.1317 -0.1754
 3407SOL     hw13626   4.597   6.488   2.132  1.7120  0.6090 -0.5204
 3407SOL     hw13627   4.722   6.462   2.214  0.9275  1.5989  1.0343
 3407SOL     vw13628   4.636   6.476   2.209  0.7596  0.3884 -0.0614
 3408SOL     ow13629   2.483   1.877   3.688 -0.6061  0.2426 -0.2129
 3408SOL     hw13630   2.523   1.957   3.723  0.9456  0.7291 -2.8126
 3408SOL     hw13631   2.551   1.810   3.697 -0.9190 -0.1171 -0.4937
 3408SOL     vw13632   2.497   1.879   3.694 -0.4427  0.2593 -0.5928
 3409SOL     ow13633   4.041   2.891   3.486  0.4100  0.6383  0.1702
 3409SOL     hw13634   4.065   2.976   3.525  0.2957  0.2481  1.1194
 3409SOL     hw13635   4.115   2.834   3.506 -0.2259  0.0783  0.9982
 3409SOL     vw13636   4.054   2.895   3.494  0.3111  0.5128  0.4047
 3410SOL     ow13637   3.138   5.746   2.197  0.8163  0.2790 -0.3007
 3410SOL     hw13638   3.198   5.803   2.148  0.5015 -0.8972 -2.1399
 3410SOL     hw13639   3.082   5.707   2.130 -1.6004  0.8125  1.2896
 3410SOL     vw13640   3.139   5.749   2.181  0.4560  0.1941 -0.3335
 3411SOL     ow13641   4.614   3.735   4.427 -0.2479 -0.2632  0.3128
 3411SOL     hw13642   4.659   3.819   4.417 -0.7911  0.0910  0.8198
 3411SOL     hw13643   4.571   3.741   4.512 -1.0858 -0.6762 -0.0730
 3411SOL     vw13644   4.615   3.747   4.437 -0.4301 -0.2710  0.3288
 3412SOL     ow13645   1.563   6.423   3.461 -0.0292  0.2801 -0.7150
 3412SOL     hw13646   1.472   6.394   3.468 -0.5974  1.6933 -1.6929
 3412SOL     hw13647   1.615   6.345   3.478 -1.4163 -0.5073  0.1011
 3412SOL     vw13648   1.558   6.409   3.465 -0.2872  0.3626 -0.7365
 3413SOL     ow13649   3.320   5.644   1.672  0.2567 -0.0991 -0.6417
 3413SOL     hw13650   3.286   5.727   1.703 -0.1805 -0.5572  0.1481
 3413SOL     hw13651   3.371   5.666   1.594  0.7129  0.9901 -0.0551
 3413SOL     vw13652   3.322   5.658   1.666  0.2590 -0.0160 -0.4600
 3414SOL     ow13653   3.303   7.181   3.381 -0.2131 -0.2179  0.1957
 3414SOL     hw13654   3.390   7.215   3.358 -0.0791  0.1372  1.1778
 3414SOL     hw13655   3.246   7.258   3.376 -0.4396 -0.4089 -0.2364
 3414SOL     vw13656   3.307   7.196   3.377 -0.2253 -0.1962  0.2682
 3415SOL     ow13657   4.834   0.968   7.335  0.0714  0.1464 -0.1948
 3415SOL     hw13658   4.791   0.924   7.408 -0.8674  1.0689 -0.1636
 3415SOL     hw13659   4.927   0.951   7.347 -0.2015 -1.1590  0.2416
 3415SOL     vw13660   4.840   0.960   7.346 -0.0885  0.0959 -0.1333
 3416SOL     ow13661   0.868   6.508   1.849 -0.0176 -0.4031  0.2851
 3416SOL     hw13662   0.792   6.537   1.900 -0.1164  1.7245 -0.9009
 3416SOL     hw13663   0.829   6.473   1.768  0.1929 -2.3224  0.9670
 3416SOL     vw13664   0.853   6.507   1.845 -0.0028 -0.3757  0.2185
 3417SOL     ow13665   5.212   5.365   1.510  0.1181 -0.0882 -0.3780
 3417SOL     hw13666   5.151   5.301   1.547 -1.1878  1.2646 -0.0852
 3417SOL     hw13667   5.189   5.448   1.553 -0.7017  1.3635 -3.3158
 3417SOL     vw13668   5.201   5.368   1.521 -0.1619  0.2820 -0.7270
 3418SOL     ow13669   7.385   1.919   1.130 -0.6826 -0.5608  0.0711
 3418SOL     hw13670   7.481   1.918   1.128 -0.6714  0.7239 -1.2753
 3418SOL     hw13671   7.360   1.838   1.084 -0.1930  0.6549 -2.5118
 3418SOL     vw13672   7.395   1.908   1.124 -0.6168 -0.2309 -0.4474
 3419SOL     ow13673   0.183   0.715   6.958  0.0384  0.2374  0.1616
 3419SOL     hw13674   0.091   0.740   6.959 -0.1416 -0.4163  0.5748
 3419SOL     hw13675   0.191   0.649   7.027  1.2010  1.6318  1.4145
 3419SOL     vw13676   0.172   0.709   6.967  0.1680  0.3351  0.3815
 3420SOL     ow13677   3.414   2.387   1.253 -0.1441  0.4866  0.3556
 3420SOL     hw13678   3.345   2.386   1.320 -1.3233 -2.9006 -0.7471
 3420SOL     hw13679   3.496   2.385   1.303 -0.9237  0.3347  1.6798
 3420SOL     vw13680   3.416   2.387   1.268 -0.4025  0.0197  0.3849
 3421SOL     ow13681   1.969   4.161   2.078 -0.1104 -0.1387 -0.4929
 3421SOL     hw13682   1.893   4.106   2.097  0.3835 -0.0436  2.1435
 3421SOL     hw13683   1.959   4.186   1.987 -2.0936 -1.8885 -0.8191
 3421SOL     vw13684   1.958   4.157   2.069 -0.3069 -0.3569 -0.1881
 3422SOL     ow13685   2.462   2.005   7.024  0.1668 -0.8158 -0.3557
 3422SOL     hw13686   2.465   1.909   7.021  0.0878 -0.7943 -1.2793
 3422SOL     hw13687   2.538   2.029   7.078  0.7625 -1.3599 -0.9297
 3422SOL     vw13688   2.473   1.995   7.031  0.2348 -0.8848 -0.5534
 3423SOL     ow13689   1.923   2.321   6.121 -0.3716 -0.4606  1.1413
 3423SOL     hw13690   1.847   2.275   6.157 -0.2430 -1.0380  0.6972
 3423SOL     hw13691   1.889   2.407   6.095 -1.6165 -1.6945 -1.7339
 3423SOL     vw13692   1.908   2.326   6.122 -0.5189 -0.6994  0.7033
 3424SOL     ow13693   6.646   7.214   1.069 -0.3171 -0.3448  0.1253
 3424SOL     hw13694   6.610   7.148   1.010 -1.2139  0.3148 -0.0924
 3424SOL     hw13695   6.608   7.296   1.038 -1.8663 -0.1141  2.4322
 3424SOL     vw13696   6.636   7.216   1.057 -0.6399 -0.2272  0.4010
 3425SOL     ow13697   6.174   3.560   7.018  0.4129  0.0873 -0.1666
 3425SOL     hw13698   6.163   3.571   7.112  0.4995 -0.0998 -0.1338
 3425SOL     hw13699   6.133   3.638   6.979  2.1928  1.2416  0.1119
 3425SOL     vw13700   6.168   3.572   7.025  0.6592  0.2149 -0.1254
 3426SOL     ow13701   6.032   4.601   4.083  0.0762  0.0840  0.1943
 3426SOL     hw13702   5.949   4.564   4.053 -0.4788 -0.4354  2.2237
 3426SOL     hw13703   6.008   4.687   4.118  0.6077  0.4456 -0.3175
 3426SOL     vw13704   6.018   4.608   4.084  0.0730  0.0632  0.3946
 3427SOL     ow13705   2.077   5.360   4.675  0.1070 -0.2524  0.1004
 3427SOL     hw13706   2.043   5.449   4.667 -0.9390 -0.4134  2.2495
 3427SOL     hw13707   2.001   5.304   4.664  0.8989 -0.9997 -2.1683
 3427SOL     vw13708   2.063   5.365   4.672  0.0734 -0.3719  0.0846
 3428SOL     ow13709   5.587   3.657   7.057 -0.5146  0.1311  0.1245
 3428SOL     hw13710   5.601   3.751   7.062  0.4912  0.0513 -0.7587
 3428SOL     hw13711   5.550   3.633   7.142 -0.4435  1.2616  0.4856
 3428SOL     vw13712   5.584   3.666   7.069 -0.3726  0.2698  0.0556
 3429SOL     ow13713   6.441   2.337   6.917 -0.1027  0.0189 -0.4697
 3429SOL     hw13714   6.433   2.247   6.949 -2.0563  0.5330  0.6654
 3429SOL     hw13715   6.454   2.390   6.996 -2.4234  1.0546 -0.7091
 3429SOL     vw13716   6.442   2.332   6.932 -0.6666  0.2234 -0.3517
 3430SOL     ow13717   5.932   6.830   4.853 -0.4608 -0.3231  0.0610
 3430SOL     hw13718   6.001   6.841   4.788 -0.0488  1.8152  0.7841
 3430SOL     hw13719   5.854   6.869   4.814 -1.0442 -1.8316 -0.3491
 3430SOL     vw13720   5.931   6.836   4.840 -0.4835 -0.2403  0.1023
 3431SOL     ow13721   0.905   0.734   6.597 -0.4694  0.3327  0.3270
 3431SOL     hw13722   0.950   0.721   6.680 -0.2102  3.3879  0.7688
 3431SOL     hw13723   0.951   0.677   6.535 -1.7885 -3.3971  2.4978
 3431SOL     vw13724   0.917   0.725   6.600 -0.6092  0.2437  0.6719
 3432SOL     ow13725   3.925   1.792   1.538  0.0624 -0.0939 -0.0254
 3432SOL     hw13726   3.900   1.807   1.629  1.0822  1.8505 -0.0142
 3432SOL     hw13727   3.853   1.740   1.501 -1.3705  0.8360  1.3373
 3432SOL     vw13728   3.912   1.787   1.545  0.0080  0.2853  0.1559
 3433SOL     ow13729   7.213   5.871   6.925  0.3319  0.2265 -0.4776
 3433SOL     hw13730   7.245   5.844   6.838 -1.5140 -0.8258 -0.8926
 3433SOL     hw13731   7.184   5.790   6.966 -2.1810  1.0991 -0.3496
 3433SOL     vw13732   7.213   5.857   6.919 -0.2429  0.2029 -0.5155
 3434SOL     ow13733   0.296   3.371   6.548  0.2119 -0.6390  0.3816
 3434SOL     hw13734   0.345   3.291   6.533 -0.4695 -0.9044 -0.5132
 3434SOL     hw13735   0.230   3.347   6.613  0.4533 -0.6090  0.6413
 3434SOL     vw13736   0.294   3.357   6.555  0.1539 -0.6700  0.2978
 3435SOL     ow13737   1.330   1.709   2.262  0.0421  0.0553  0.2457
 3435SOL     hw13738   1.296   1.713   2.172  0.6622  2.4434  0.0529
 3435SOL     hw13739   1.280   1.776   2.309 -1.9945 -2.7278  2.4086
 3435SOL     vw13740   1.319   1.718   2.256 -0.1448  0.0032  0.5056
 3436SOL     ow13741   1.506   5.400   1.780  0.2617  0.1664 -0.1917
 3436SOL     hw13742   1.596   5.410   1.750  0.0794  0.4318 -0.6613
 3436SOL     hw13743   1.457   5.468   1.733 -0.3279 -0.5096 -0.5724
 3436SOL     vw13744   1.511   5.410   1.770  0.1599  0.1118 -0.3039
 3437SOL     ow13745   2.070   0.669   6.398  0.2295  0.3957  0.1677
 3437SOL     hw13746   2.093   0.585   6.359  1.6810  0.4407  0.8515
 3437SOL     hw13747   1.982   0.688   6.365 -0.1121 -1.3548 -0.0390
 3437SOL     vw13748   2.061   0.661   6.389  0.3759  0.1706  0.2306
 3438SOL     ow13749   2.653   4.103   2.455  0.0631 -0.5320  0.1144
 3438SOL     hw13750   2.647   4.134   2.364  1.3565 -0.2431  0.1076
 3438SOL     hw13751   2.569   4.061   2.472 -1.0686  1.3419 -0.4993
 3438SOL     vw13752   2.641   4.102   2.445  0.0845 -0.2465  0.0327
 3439SOL     ow13753   0.718   5.291   3.744  0.1009  0.4676  0.5508
 3439SOL     hw13754   0.714   5.200   3.716 -1.2720  0.5375  0.4386
 3439SOL     hw13755   0.766   5.289   3.826 -1.5742 -0.6470  1.5593
 3439SOL     vw13756   0.724   5.279   3.751 -0.3013  0.3297  0.6690
 3440SOL     ow13757   0.595   2.752   5.165 -0.3053  0.4058 -0.5897
 3440SOL     hw13758   0.682   2.771   5.130  0.1977 -1.3453 -0.3699
 3440SOL     hw13759   0.611   2.717   5.253 -1.1110 -1.0691 -0.9915
 3440SOL     vw13760   0.608   2.750   5.172 -0.3452 -0.0198 -0.6137
 3441SOL     ow13761   1.978   0.211   3.224  0.4463 -0.3464 -0.1262
 3441SOL     hw13762   1.971   0.145   3.293 -0.1342  0.3088  0.4551
 3441SOL     hw13763   1.909   0.189   3.162 -0.2043  0.1216  0.4242
 3441SOL     vw13764   1.968   0.199   3.225  0.2839 -0.1982  0.0230
 3442SOL     ow13765   0.678   1.918   0.030 -0.1723 -0.1485 -0.0159
 3442SOL     hw13766   0.661   1.969  -0.049 -1.4641 -0.9897 -0.3182
 3442SOL     hw13767   0.732   1.844   0.000 -2.4873 -1.7057 -0.6310
 3442SOL     vw13768   0.683   1.915   0.016 -0.6482 -0.4649 -0.1370
 3443SOL     ow13769   2.585   2.967   3.028 -0.1574 -0.5544 -0.4414
 3443SOL     hw13770   2.582   3.062   3.022 -1.2365 -0.6338 -1.8819
 3443SOL     hw13771   2.499   2.943   3.063  0.0179 -1.0164 -0.3218
 3443SOL     vw13772   2.573   2.976   3.032 -0.2768 -0.6260 -0.6157
 3444SOL     ow13773   2.640   4.971   4.422  0.0250 -0.1698  0.0411
 3444SOL     hw13774   2.640   5.007   4.511 -0.4023 -0.0857  0.0065
 3444SOL     hw13775   2.685   4.887   4.431 -0.1656 -0.2394  0.3668
 3444SOL     vw13776   2.646   4.965   4.435 -0.0565 -0.1681  0.0794
 3445SOL     ow13777   6.876   3.403   4.562 -0.1074 -0.0328  0.2455
 3445SOL     hw13778   6.964   3.377   4.535 -0.5133 -0.9112 -0.2987
 3445SOL     hw13779   6.819   3.363   4.497 -0.9270  0.2672  0.7672
 3445SOL     vw13780   6.880   3.394   4.550 -0.2692 -0.1091  0.2425
 3446SOL     ow13781   6.163   5.927   1.034 -0.3446  0.2607 -0.0261
 3446SOL     hw13782   6.197   5.861   0.974  3.0464  0.5004  1.3733
 3446SOL     hw13783   6.193   6.010   0.997  0.2547  0.5413  1.0587
 3446SOL     vw13784   6.172   5.929   1.021  0.1822  0.3293  0.3017
 3447SOL     ow13785   4.865   5.800   6.514  0.1191  0.1876 -0.3529
 3447SOL     hw13786   4.854   5.706   6.501 -1.5909  0.6129 -2.5226
 3447SOL     hw13787   4.921   5.828   6.442 -0.2582  0.9810 -0.3512
 3447SOL     vw13788   4.871   5.792   6.503 -0.1562  0.3486 -0.6390
 3448SOL     ow13789   2.967   0.125   2.848  0.6597 -0.1059  0.2769
 3448SOL     hw13790   2.999   0.183   2.918  0.2822  0.5467 -0.0797
 3448SOL     hw13791   2.876   0.107   2.872  0.4559  0.3159 -0.1662
 3448SOL     vw13792   2.960   0.131   2.860  0.5829  0.0359  0.1714
 3449SOL     ow13793   2.751   7.413   3.418  0.0847  0.4669  0.0847
 3449SOL     hw13794   2.818   7.430   3.483  0.7433 -0.6621 -0.2618
 3449SOL     hw13795   2.673   7.456   3.451  0.9646  1.8008  0.5042
 3449SOL     vw13796   2.750   7.421   3.431  0.2877  0.4940  0.0944
 3450SOL     ow13797   6.060   2.013   1.183 -0.1306  0.2354  0.3857
 3450SOL     hw13798   6.038   1.989   1.273 -0.6933  0.7810  0.4031
 3450SOL     hw13799   6.111   1.939   1.150 -0.1427 -0.0851  1.0647
 3450SOL     vw13800   6.064   2.000   1.191 -0.2065  0.2651  0.4776
 3451SOL     ow13801   1.124   6.575   6.162 -0.8465  0.2847  0.0896
 3451SOL     hw13802   1.143   6.626   6.240  0.1841  0.7927 -0.4690
 3451SOL     hw13803   1.052   6.622   6.119 -0.0763  1.1394 -0.2905
 3451SOL     vw13804   1.117   6.588   6.166 -0.6089  0.4644 -0.0343
 3452SOL     ow13805   2.388   0.007   3.224 -0.5650  0.1799  0.5140
 3452SOL     hw13806   2.338   0.082   3.254 -0.7739  0.1849  0.1558
 3452SOL     hw13807   2.415   0.029   3.135 -1.1663 -0.4269  0.1715
 3452SOL     vw13808   2.385   0.020   3.216 -0.6719  0.1005  0.4215
 3453SOL     ow13809   6.517   0.619   0.841  0.2175 -0.1929 -0.6167
 3453SOL     hw13810   6.533   0.535   0.799 -1.6932 -0.5622 -0.6691
 3453SOL     hw13811   6.470   0.597   0.922  0.1624  0.7944 -0.3696
 3453SOL     vw13812   6.513   0.605   0.846 -0.0420 -0.1113 -0.5910
 3454SOL     ow13813   6.644   6.990   0.929 -0.3670 -0.0366  0.1001
 3454SOL     hw13814   6.579   6.930   0.893 -0.0341  0.1150 -0.7876
 3454SOL     hw13815   6.680   6.944   1.005  1.1018 -1.7667 -1.5264
 3454SOL     vw13816   6.640   6.976   0.935 -0.1295 -0.2446 -0.2316
 3455SOL     ow13817   1.066   6.286   2.565 -0.0459 -0.0638  0.1602
 3455SOL     hw13818   1.079   6.298   2.659 -0.8474  0.0561  0.2583
 3455SOL     hw13819   0.971   6.283   2.553  0.0408  0.1544 -0.6765
 3455SOL     vw13820   1.055   6.287   2.576 -0.1401 -0.0191  0.0627
 3456SOL     ow13821   3.276   3.328   5.377  0.1619 -0.1120  0.2984
 3456SOL     hw13822   3.181   3.326   5.393  0.4122  1.9259  2.7418
 3456SOL     hw13823   3.293   3.252   5.322 -3.1496  0.4533 -1.8173
 3456SOL     vw13824   3.265   3.318   5.372 -0.2420  0.2315  0.3419
 3457SOL     ow13825   1.882   5.096   2.766 -0.1459  0.1420 -0.3978
 3457SOL     hw13826   1.875   5.133   2.855  0.1203 -0.9945  0.1119
 3457SOL     hw13827   1.860   5.169   2.708  2.1781  1.6787  0.4927
 3457SOL     vw13828   1.879   5.111   2.770  0.1958  0.1948 -0.2130
 3458SOL     ow13829   6.780   3.121   1.590 -0.3458 -0.0535  0.0289
 3458SOL     hw13830   6.825   3.073   1.521 -0.2275  0.7109 -0.4449
 3458SOL     hw13831   6.769   3.058   1.661  0.7632 -0.4673 -0.1507
 3458SOL     vw13832   6.784   3.107   1.590 -0.1838 -0.0072 -0.0573
 3459SOL     ow13833   0.083   0.830   6.687  0.3763 -0.4468 -1.1156
 3459SOL     hw13834   0.118   0.919   6.690  0.2714 -0.4149 -0.8566
 3459SOL     hw13835  -0.011   0.841   6.700  0.4863 -0.6810 -0.0986
 3459SOL     vw13836   0.075   0.843   6.689  0.3770 -0.4735 -0.9472
 3460SOL     ow13837   6.044   5.281   3.648  0.0208 -0.3239 -0.1105
 3460SOL     hw13838   6.051   5.220   3.575 -0.5334 -2.1787  1.3015
 3460SOL     hw13839   6.132   5.318   3.657  0.3302 -0.7846 -1.0850
 3460SOL     vw13840   6.057   5.278   3.639 -0.0114 -0.6292 -0.0527
 3461SOL     ow13841   2.253   2.634   2.661  0.9639  0.5389  1.3968
 3461SOL     hw13842   2.187   2.578   2.619 -0.7769  1.2063  3.0767
 3461SOL     hw13843   2.326   2.575   2.679  1.2431 -0.0424 -1.2742
 3461SOL     vw13844   2.254   2.619   2.658  0.7712  0.5503  1.2660
 3462SOL     ow13845   6.580   7.341   4.667 -0.8017  0.5687  0.9407
 3462SOL     hw13846   6.565   7.288   4.746 -0.6171  0.8912  1.1941
 3462SOL     hw13847   6.496   7.382   4.649 -0.4951  1.6398  1.8199
 3462SOL     vw13848   6.567   7.339   4.675 -0.7370  0.7524  1.0903
 3463SOL     ow13849   0.837   1.717   7.422 -0.3391 -0.1563 -0.1809
 3463SOL     hw13850   0.928   1.744   7.417 -0.2217 -0.3356  0.8676
 3463SOL     hw13851   0.831   1.641   7.364 -0.1227  0.6110 -1.2457
 3463SOL     vw13852   0.848   1.711   7.414 -0.2951 -0.0787 -0.1831
 3464SOL     ow13853   5.607   0.506   6.213  0.1327  0.8360  0.1042
 3464SOL     hw13854   5.667   0.552   6.272  1.7742  0.2729 -1.0402
 3464SOL     hw13855   5.616   0.554   6.130 -0.9493  0.6800 -0.1073
 3464SOL     vw13856   5.616   0.519   6.210  0.2065  0.7411 -0.0746
 3465SOL     ow13857   5.054   2.840   6.641  0.2973 -0.3150  0.2469
 3465SOL     hw13858   5.050   2.760   6.590  0.6402  0.5629 -1.2087
 3465SOL     hw13859   4.969   2.844   6.686 -0.0466 -1.0511 -0.3269
 3465SOL     vw13860   5.042   2.830   6.640  0.2973 -0.2964 -0.0207
 3466SOL     ow13861   4.971   1.277   3.363  0.1749 -0.4845  0.0303
 3466SOL     hw13862   4.964   1.225   3.282 -2.0084  2.2325 -1.7028
 3466SOL     hw13863   4.917   1.230   3.426 -1.9088 -0.3641 -1.5412
 3466SOL     vw13864   4.963   1.264   3.361 -0.3881 -0.1101 -0.4057
 3467SOL     ow13865   2.006   1.563   5.949  0.0811  0.2419 -0.0795
 3467SOL     hw13866   2.052   1.590   5.869  0.7528 -1.5716 -0.3428
 3467SOL     hw13867   1.959   1.642   5.977  1.6960  1.5831 -0.9440
 3467SOL     vw13868   2.006   1.577   5.942  0.3827  0.1795 -0.2284
 3468SOL     ow13869   5.919   3.523   5.459 -0.0422 -0.2539 -0.6244
 3468SOL     hw13870   5.894   3.435   5.487 -1.4764  0.4451  0.4275
 3468SOL     hw13871   5.853   3.580   5.498  1.2185  1.3610 -0.7624
 3468SOL     vw13872   5.907   3.519   5.468 -0.0648  0.0514 -0.5038
 3469SOL     ow13873   4.602   1.997   1.429 -0.4500 -0.4208  0.2379
 3469SOL     hw13874   4.568   1.921   1.383 -1.0747  0.4488 -0.7890
 3469SOL     hw13875   4.554   2.071   1.392  0.1437  0.4768  1.2041
 3469SOL     vw13876   4.591   1.997   1.418 -0.4539 -0.1876  0.2298
 3470SOL     ow13877   4.125   6.772   5.344 -0.5773  0.9597 -0.2982
 3470SOL     hw13878   4.127   6.718   5.423  1.2435  2.6410  0.9059
 3470SOL     hw13879   4.216   6.775   5.314 -0.9390  1.8490 -1.3831
 3470SOL     vw13880   4.137   6.766   5.351 -0.3848  1.2989 -0.2823
 3471SOL     ow13881   2.551   5.531   3.784  0.3461 -0.0531  0.6275
 3471SOL     hw13882   2.516   5.534   3.695  0.8620  2.0052  0.4505
 3471SOL     hw13883   2.609   5.455   3.784 -1.2067 -1.3128 -0.1451
 3471SOL     vw13884   2.554   5.521   3.773  0.2093  0.0522  0.5022
 3472SOL     ow13885   3.214   3.911   0.868 -0.0649  0.0913  0.0913
 3472SOL     hw13886   3.178   3.999   0.853  1.6813  0.7358 -0.6101
 3472SOL     hw13887   3.192   3.862   0.789 -0.5164  0.0799  0.2225
 3472SOL     vw13888   3.206   3.916   0.856  0.1059  0.1749  0.0161
 3473SOL     ow13889   1.217   6.540   2.158 -0.0301  0.9669 -0.0757
 3473SOL     hw13890   1.151   6.573   2.097 -0.1533  1.4588  0.3144
 3473SOL     hw13891   1.300   6.545   2.110 -0.3922 -0.5613 -0.9062
 3473SOL     vw13892   1.220   6.545   2.144 -0.0942  0.8304 -0.1340
 3474SOL     ow13893   2.336   0.610   1.002 -0.2435 -0.2591  0.3753
 3474SOL     hw13894   2.292   0.610   1.087 -0.6120 -1.4350  0.2083
 3474SOL     hw13895   2.270   0.579   0.940  0.8853 -2.5353  0.1989
 3474SOL     vw13896   2.322   0.606   1.005 -0.1433 -0.7146  0.3300
 3475SOL     ow13897   0.085   6.370   0.749 -0.2513 -0.3326  0.2112
 3475SOL     hw13898   0.085   6.460   0.719 -0.0848 -0.1883  0.6282
 3475SOL     hw13899   0.067   6.376   0.843 -0.8447 -0.7746  0.1314
 3475SOL     vw13900   0.083   6.382   0.758 -0.3076 -0.3717  0.2557
 3476SOL     ow13901   6.280   3.486   2.851 -0.4527  0.4373  0.1432
 3476SOL     hw13902   6.263   3.512   2.761  0.6079 -1.2886 -0.6120
 3476SOL     hw13903   6.374   3.504   2.864  0.1323 -2.0157 -0.1469
 3476SOL     vw13904   6.290   3.492   2.841 -0.2356 -0.1141  0.0052
 3477SOL     ow13905   0.738   4.633   6.014 -0.0722 -0.4317 -0.3079
 3477SOL     hw13906   0.787   4.685   5.952 -0.9324  0.6208 -0.1388
 3477SOL     hw13907   0.795   4.626   6.091  0.2657 -0.1899 -0.5368
 3477SOL     vw13908   0.752   4.639   6.016 -0.1411 -0.2608 -0.3157
 3478SOL     ow13909   1.471   0.186   5.838 -1.1658 -0.0639 -0.1193
 3478SOL     hw13910   1.441   0.223   5.755  2.2060 -0.6158 -1.7923
 3478SOL     hw13911   1.499   0.262   5.889  0.6658  0.1394 -1.3175
 3478SOL     vw13912   1.471   0.201   5.834 -0.4793 -0.1099 -0.4983
 3479SOL     ow13913   2.295   3.993   3.225  0.5538 -0.3075 -0.2176
 3479SOL     hw13914   2.211   4.032   3.251  0.9343  0.9694 -0.8256
 3479SOL     hw13915   2.353   4.012   3.299  0.4098 -0.8814  0.0491
 3479SOL     vw13916   2.291   4.001   3.238  0.5851 -0.2146 -0.2626
 3480SOL     ow13917   5.644   7.040   3.634  0.5872  0.0986 -0.3170
 3480SOL     hw13918   5.604   6.954   3.619 -0.0554  0.0973  1.2154
 3480SOL     hw13919   5.690   7.030   3.717  1.7249  0.8342 -0.8508
 3480SOL     vw13920   5.645   7.027   3.643  0.6523  0.1955 -0.1853
 3481SOL     ow13921   6.682   5.862   0.114 -0.1890  0.2890 -0.1890
 3481SOL     hw13922   6.758   5.900   0.158 -0.5287  1.2297 -0.4106
 3481SOL     hw13923   6.720   5.815   0.039  0.1405  1.1512 -0.5704
 3481SOL     vw13924   6.697   5.861   0.110 -0.1903  0.5271 -0.2686
 3482SOL     ow13925   2.999   3.303   5.753 -0.5439  0.1559  0.3417
 3482SOL     hw13926   3.079   3.319   5.803  1.2579  0.0428 -2.3142
 3482SOL     hw13927   3.001   3.370   5.684 -2.6035 -0.0339  0.0522
 3482SOL     vw13928   3.010   3.314   5.750 -0.5778  0.1160 -0.0467
 3483SOL     ow13929   4.180   4.297   4.066 -0.3389  0.2923 -0.1622
 3483SOL     hw13930   4.132   4.371   4.104 -0.8458  0.0545 -0.3349
 3483SOL     hw13931   4.136   4.280   3.983 -0.2403 -0.2186 -0.1118
 3483SOL     vw13932   4.168   4.305   4.060 -0.3929  0.1938 -0.1783
 3484SOL     ow13933   2.491   0.764   3.586  0.1422 -0.8899  0.4352
 3484SOL     hw13934   2.428   0.742   3.654 -0.6142 -0.3521 -0.0623
 3484SOL     hw13935   2.560   0.812   3.631  0.3575 -1.7646  1.0416
 3484SOL     vw13936   2.492   0.767   3.601  0.0709 -0.9344  0.4495
 3485SOL     ow13937   6.538   5.435   6.522 -0.7600 -0.5150 -0.0629
 3485SOL     hw13938   6.474   5.411   6.454 -0.7374  2.7206 -1.4223
 3485SOL     hw13939   6.615   5.463   6.473  0.7080 -1.6893  1.4942
 3485SOL     vw13940   6.539   5.436   6.506 -0.5631 -0.2429 -0.0370
 3486SOL     ow13941   1.556   4.953   7.386 -0.0991 -0.1479 -0.4279
 3486SOL     hw13942   1.487   4.902   7.429  0.4059 -0.0640  0.5121
 3486SOL     hw13943   1.526   5.044   7.393 -1.2010 -0.2783 -2.4685
 3486SOL     vw13944   1.543   4.958   7.392 -0.1779 -0.1540 -0.5731
 3487SOL     ow13945   1.839   2.838   0.360 -0.0190  0.1866  0.3303
 3487SOL     hw13946   1.915   2.875   0.315 -0.3456  0.0111 -0.3805
 3487SOL     hw13947   1.792   2.914   0.395 -0.2730  0.3927 -0.4535
 3487SOL     vw13948   1.843   2.853   0.359 -0.0955  0.1906  0.1331
 3488SOL     ow13949   3.818   5.031   5.996  0.3766 -0.1604  0.0783
 3488SOL     hw13950   3.774   4.967   6.052 -1.6418  0.9050 -0.1928
 3488SOL     hw13951   3.871   4.979   5.936 -1.3941 -1.6167 -0.2917
 3488SOL     vw13952   3.819   5.016   5.996 -0.1235 -0.2122 -0.0062
 3489SOL     ow13953   3.584   0.234   1.692  0.1613  0.0072  0.0067
 3489SOL     hw13954   3.553   0.147   1.668 -1.3819  0.4688  0.2268
 3489SOL     hw13955   3.556   0.245   1.783 -1.6012  1.5355 -0.6552
 3489SOL     vw13956   3.576   0.224   1.701 -0.2748  0.2698 -0.0516
 3490SOL     ow13957   2.425   4.650   0.856  0.1210  0.3812  0.1734
 3490SOL     hw13958   2.413   4.677   0.765 -0.8936  0.2142  0.2503
 3490SOL     hw13959   2.344   4.604   0.879  0.5483  0.0203  1.0215
 3490SOL     vw13960   2.413   4.647   0.847  0.0435  0.3116  0.2954
 3491SOL     ow13961   7.005   4.394   2.153 -0.4422  0.0743  0.3007
 3491SOL     hw13962   7.077   4.451   2.179  0.8136 -0.4357 -1.7996
 3491SOL     hw13963   6.940   4.403   2.222  0.6840  2.2883  1.1382
 3491SOL     vw13964   7.006   4.402   2.165 -0.1278  0.2990  0.1340
 3492SOL     ow13965   1.372   2.660   0.776  0.1475 -0.2214 -0.2838
 3492SOL     hw13966   1.461   2.691   0.760  0.3459 -0.0072  1.1085
 3492SOL     hw13967   1.368   2.647   0.871 -1.5595  0.5795 -0.2088
 3492SOL     vw13968   1.383   2.663   0.786 -0.0515 -0.0875 -0.0902
 3493SOL     ow13969   3.362   1.172   4.041 -0.1717  0.0494  0.2247
 3493SOL     hw13970   3.408   1.177   4.125  0.5899  0.3332 -0.1949
 3493SOL     hw13971   3.334   1.262   4.023 -2.4671 -0.3777  1.3001
 3493SOL     vw13972   3.364   1.185   4.050 -0.3740  0.0305  0.3111
 3494SOL     ow13973   5.006   0.057   6.030  0.1559 -0.0639  0.0975
 3494SOL     hw13974   5.027   0.023   6.117 -0.5976  0.4376  0.4835
 3494SOL     hw13975   5.055   0.001   5.970 -1.1899 -1.9540  0.6951
 3494SOL     vw13976   5.015   0.045   6.033 -0.1211 -0.2471  0.2270
 3495SOL     ow13977   2.054   1.968   1.576  0.7660  0.6452 -0.6239
 3495SOL     hw13978   2.096   2.015   1.648  1.3979  0.5377 -0.9180
 3495SOL     hw13979   2.105   1.888   1.566  0.3200  0.3793 -0.8042
 3495SOL     vw13980   2.066   1.964   1.584  0.7905  0.5960 -0.6866
 3496SOL     ow13981   2.264   1.901   5.647 -0.1901  0.0731 -0.0473
 3496SOL     hw13982   2.207   1.828   5.673 -2.1080  1.5097  0.0105
 3496SOL     hw13983   2.252   1.908   5.552 -1.0026  1.0663  0.1126
 3496SOL     vw13984   2.255   1.892   5.638 -0.5503  0.3937 -0.0184
 3497SOL     ow13985   2.259   5.861   2.948 -0.4421 -0.2698 -0.3496
 3497SOL     hw13986   2.338   5.914   2.960 -1.0313  0.5629 -0.0665
 3497SOL     hw13987   2.204   5.913   2.889 -0.1217 -1.5700 -1.8562
 3497SOL     vw13988   2.262   5.875   2.942 -0.4776 -0.3314 -0.5111
 3498SOL     ow13989   7.374   6.375   6.548 -0.0587 -0.2345 -0.0302
 3498SOL     hw13990   7.459   6.396   6.508 -0.0331  1.9061  1.0035
 3498SOL     hw13991   7.313   6.375   6.474  0.3346  1.5580 -0.4199
 3498SOL     vw13992   7.377   6.378   6.533 -0.0033  0.2847  0.0551
 3499SOL     ow13993   1.966   1.040   2.017  0.3701  0.6215 -0.2883
 3499SOL     hw13994   1.999   1.110   2.074  0.1168  0.3016  0.2616
 3499SOL     hw13995   1.934   1.086   1.939  0.1991  1.1279  0.0715
 3499SOL     vw13996   1.966   1.056   2.014  0.3141  0.6461 -0.1684
 3500SOL     ow13997   3.933   0.940   1.808 -0.3419 -0.0605  0.7665
 3500SOL     hw13998   3.952   0.912   1.898  1.9163  1.0003  0.7012
 3500SOL     hw13999   3.865   1.008   1.819  2.1168  2.4051  2.1378
 3500SOL     vw14000   3.926   0.945   1.821  0.2804  0.4048  0.9388
 3501SOL     ow14001   4.212   0.024   2.368 -0.7241  0.3139  0.7930
 3501SOL     hw14002   4.135   0.061   2.410  0.7814  1.4351  2.7415
 3501SOL     hw14003   4.268  -0.005   2.441  0.6151 -0.6707 -0.5467
 3501SOL     vw14004   4.209   0.025   2.383 -0.3486  0.3319  0.8733
 3502SOL     ow14005   2.118   0.610   4.291 -0.0682  0.1430 -0.1559
 3502SOL     hw14006   2.181   0.644   4.227  0.2004 -0.7865 -0.4131
 3502SOL     hw14007   2.151   0.639   4.376  1.7901 -1.8532 -0.1071
 3502SOL     vw14008   2.131   0.618   4.293  0.2123 -0.2430 -0.1833
 3503SOL     ow14009   1.153   2.192   1.247  0.2448  0.2114 -0.1046
 3503SOL     hw14010   1.135   2.130   1.176  0.7728 -0.2171  0.1220
 3503SOL     hw14011   1.211   2.257   1.209 -1.0708  1.1278 -0.6081
 3503SOL     vw14012   1.158   2.192   1.233  0.1408  0.2759 -0.1411
 3504SOL     ow14013   1.229   4.934   4.013 -0.0087 -0.6272 -0.3506
 3504SOL     hw14014   1.273   4.938   4.098 -0.8270  1.5532  0.0577
 3504SOL     hw14015   1.203   4.843   4.002  1.5963 -1.2811  0.9387
 3504SOL     vw14016   1.231   4.923   4.022  0.0951 -0.4256 -0.1266
 3505SOL     ow14017   4.174   2.123   2.540  0.0887 -0.3605  0.0893
 3505SOL     hw14018   4.124   2.042   2.556 -0.0360 -0.5029 -0.9513
 3505SOL     hw14019   4.127   2.190   2.589 -1.1355 -0.4944 -0.8784
 3505SOL     vw14020   4.161   2.121   2.549 -0.0894 -0.3968 -0.1756
 3506SOL     ow14021   0.473   4.568   6.329 -0.7212 -0.1244  0.3686
 3506SOL     hw14022   0.550   4.621   6.351  0.0854 -1.2796  0.4410
 3506SOL     hw14023   0.408   4.592   6.394 -0.9146  1.8394 -0.4704
 3506SOL     vw14024   0.475   4.578   6.340 -0.6403 -0.0176  0.2675
 3507SOL     ow14025   5.489   7.334   4.600  0.5710  0.3944  0.3978
 3507SOL     hw14026   5.543   7.303   4.527  0.6887 -3.3576  1.8554
 3507SOL     hw14027   5.552   7.366   4.665  0.5799  1.7932 -0.2637
 3507SOL     vw14028   5.505   7.334   4.599  0.5877  0.0839  0.5031
 3508SOL     ow14029   1.440   1.822   1.219  0.4766 -0.1886 -0.1845
 3508SOL     hw14030   1.392   1.895   1.259  0.6773 -0.0907 -0.1168
 3508SOL     hw14031   1.453   1.760   1.291  0.3664 -0.2588 -0.2255
 3508SOL     vw14032   1.435   1.823   1.234  0.4885 -0.1850 -0.1810
 3509SOL     ow14033   6.539   6.577   7.327 -0.5052 -0.7291 -0.0366
 3509SOL     hw14034   6.531   6.662   7.283  0.6912 -0.9399 -0.7008
 3509SOL     hw14035   6.454   6.536   7.314 -0.9052  0.1287 -0.2279
 3509SOL     vw14036   6.527   6.583   7.319 -0.3998 -0.6435 -0.1495
 3510SOL     ow14037   6.296   6.202   3.337 -0.3050  0.2727  0.2257
 3510SOL     hw14038   6.355   6.237   3.270  1.6608 -1.1241  1.1547
 3510SOL     hw14039   6.351   6.147   3.392 -2.2268 -0.0414  1.9630
 3510SOL     vw14040   6.311   6.200   3.336 -0.2992  0.0470  0.5776
 3511SOL     ow14041   4.974   5.751   6.960 -0.2281  0.0134 -0.0445
 3511SOL     hw14042   4.907   5.738   7.028  0.7610 -2.0381  0.6237
 3511SOL     hw14043   4.948   5.693   6.889  0.5618 -0.4502  0.0310
 3511SOL     vw14044   4.961   5.741   6.960  0.0067 -0.3183  0.0536
 3512SOL     ow14045   4.600   3.466   5.929  0.1172 -0.5980  0.1179
 3512SOL     hw14046   4.555   3.541   5.890 -0.6845 -0.0085  2.0835
 3512SOL     hw14047   4.616   3.492   6.020  0.8638 -2.3738  0.5285
 3512SOL     vw14048   4.597   3.479   5.936  0.1101 -0.7545  0.4313
 3513SOL     ow14049   4.209   4.024   4.013 -0.3733  0.4962  0.0421
 3513SOL     hw14050   4.300   3.994   4.020 -0.6794 -0.3139  0.7844
 3513SOL     hw14051   4.189   4.019   3.920  0.5217  1.2482 -0.1977
 3513SOL     vw14052   4.218   4.019   4.002 -0.2956  0.4888  0.1085
 3514SOL     ow14053   7.426   1.942   3.240 -0.3937  0.0585  0.2188
 3514SOL     hw14054   7.343   1.907   3.273  0.6825 -1.3527  1.6156
 3514SOL     hw14055   7.439   1.896   3.157 -0.4037 -0.7064  0.6280
 3514SOL     vw14056   7.417   1.931   3.234 -0.2532 -0.2285  0.4570
 3515SOL     ow14057   1.696   6.021   4.843  0.0893  0.1748 -0.0787
 3515SOL     hw14058   1.745   5.978   4.913  0.0787 -1.3015 -0.9337
 3515SOL     hw14059   1.613   5.974   4.839 -1.2137  2.2753  0.9683
 3515SOL     vw14060   1.691   6.009   4.851 -0.0839  0.2570 -0.0534
 3516SOL     ow14061   1.781   5.348   6.985 -0.0710 -0.0295  0.6805
 3516SOL     hw14062   1.836   5.419   7.018 -0.5565  0.1067  1.2016
 3516SOL     hw14063   1.807   5.339   6.893 -1.6765  2.4732 -0.1220
 3516SOL     vw14064   1.792   5.356   6.977 -0.3468  0.3185  0.6433
 3517SOL     ow14065   1.777   2.889   7.390 -0.0627 -0.9448  0.1247
 3517SOL     hw14066   1.688   2.871   7.359 -0.9986  0.9991  1.4909
 3517SOL     hw14067   1.778   2.857   7.480  0.0491  0.4936  0.6647
 3517SOL     vw14068   1.765   2.882   7.398 -0.1715 -0.4985  0.3762
 3518SOL     ow14069   5.984   4.281   0.212  0.5269  0.2867 -1.0372
 3518SOL     hw14070   5.962   4.196   0.250 -2.5007  2.3122  2.4313
 3518SOL     hw14071   6.053   4.315   0.269  0.7296  0.7379 -1.5455
 3518SOL     vw14072   5.990   4.274   0.225  0.1540  0.6137 -0.6466
 3519SOL     ow14073   2.211   3.611   2.988 -0.3010 -0.2974  0.4321
 3519SOL     hw14074   2.306   3.610   2.982 -0.3260 -0.8826  0.0451
 3519SOL     hw14075   2.185   3.694   2.948  0.0080 -0.4963 -0.1945
 3519SOL     vw14076   2.220   3.622   2.982 -0.2636 -0.4010  0.2985
 3520SOL     ow14077   4.308   4.915   3.568  0.5137 -0.1203  0.3100
 3520SOL     hw14078   4.282   4.824   3.582  0.2314 -0.4049 -1.6974
 3520SOL     hw14079   4.386   4.909   3.512 -0.1556  0.8487 -0.7816
 3520SOL     vw14080   4.315   4.903   3.562  0.3881 -0.0300 -0.0988
 3521SOL     ow14081   4.837   3.227   1.826  0.0495  0.1441  0.3264
 3521SOL     hw14082   4.877   3.314   1.821  1.4004 -0.5092 -1.0407
 3521SOL     hw14083   4.825   3.212   1.920  2.5583  0.6292  0.8055
 3521SOL     vw14084   4.840   3.237   1.838  0.5589  0.1220  0.2093
 3522SOL     ow14085   1.518   1.567   2.372  0.0888 -0.2928  0.5671
 3522SOL     hw14086   1.455   1.616   2.319  0.4349 -0.9004 -0.4174
 3522SOL     hw14087   1.497   1.593   2.462 -1.5398 -0.4441  0.2684
 3522SOL     vw14088   1.507   1.577   2.377 -0.0804 -0.3930  0.3978
 3523SOL     ow14089   6.216   0.040   7.005 -0.1703 -0.3157  0.2283
 3523SOL     hw14090   6.222   0.122   7.055 -2.3789 -0.5112  0.9640
 3523SOL     hw14091   6.150   0.058   6.938 -2.2484 -1.9893  1.6609
 3523SOL     vw14092   6.208   0.053   7.003 -0.7358 -0.5623  0.5145
 3524SOL     ow14093   2.851   5.081   1.284 -0.0111 -0.0398  0.1119
 3524SOL     hw14094   2.942   5.080   1.315 -0.0190 -0.5444  0.1204
 3524SOL     hw14095   2.800   5.045   1.356  0.0091 -1.5128 -0.5796
 3524SOL     vw14096   2.856   5.077   1.297 -0.0095 -0.3006  0.0218
 3525SOL     ow14097   6.958   4.651   2.897 -0.0079 -0.4247  0.1230
 3525SOL     hw14098   6.904   4.585   2.853  0.1865 -0.5766  0.1101
 3525SOL     hw14099   6.964   4.622   2.988 -1.3729  0.5001  0.5385
 3525SOL     vw14100   6.952   4.639   2.903 -0.1624 -0.3226  0.1762
 3526SOL     ow14101   3.583   4.082   0.603  0.3505 -0.2382  0.9973
 3526SOL     hw14102   3.607   4.040   0.520 -0.1256  3.9984 -1.6004
 3526SOL     hw14103   3.646   4.153   0.612 -2.2484  2.1436  1.8076
 3526SOL     vw14104   3.595   4.086   0.593 -0.0552  0.6351  0.7614
 3527SOL     ow14105   6.541   4.373   7.404  0.0313 -0.4181 -0.4370
 3527SOL     hw14106   6.537   4.416   7.489  0.9013 -1.9472  0.4256
 3527SOL     hw14107   6.489   4.429   7.346  0.8834  1.5959  0.6549
 3527SOL     vw14108   6.534   4.386   7.408  0.2582 -0.3545 -0.1791
 3528SOL     ow14109   1.381   4.277   0.160  0.2953 -0.0774  0.1544
 3528SOL     hw14110   1.294   4.268   0.199 -0.2240  0.5368 -0.8177
 3528SOL     hw14111   1.386   4.369   0.135  0.7953 -0.3446 -0.7721
 3528SOL     vw14112   1.370   4.288   0.162  0.2928 -0.0317 -0.0961
 3529SOL     ow14113   3.727   0.793   2.124 -0.0051  0.6824  0.1705
 3529SOL     hw14114   3.734   0.737   2.202  0.1847 -0.6051 -0.7360
 3529SOL     hw14115   3.699   0.733   2.055 -2.9982  2.3161 -0.1753
 3529SOL     vw14116   3.724   0.777   2.125 -0.3750  0.7281  0.0052
 3530SOL     ow14117   7.241   2.408   2.810 -0.2348 -0.1560 -0.1894
 3530SOL     hw14118   7.235   2.465   2.887  0.3415 -1.9992  1.2945
 3530SOL     hw14119   7.307   2.449   2.754  0.1102  0.6699  0.7977
 3530SOL     vw14120   7.249   2.421   2.813 -0.1132 -0.2902  0.1367
 3531SOL     ow14121   3.816   0.938   6.850  0.7648  0.3296  0.4503
 3531SOL     hw14122   3.810   0.851   6.888  1.1204 -0.3400 -0.9547
 3531SOL     hw14123   3.909   0.961   6.857  0.7939  0.2933  0.2020
 3531SOL     vw14124   3.828   0.930   6.856  0.8155  0.2365  0.2325
 3532SOL     ow14125   2.398   2.266   6.831 -0.1988 -0.0801 -0.4254
 3532SOL     hw14126   2.432   2.356   6.829 -2.0705  0.6607 -0.5161
 3532SOL     hw14127   2.331   2.263   6.763 -2.5564 -0.5012  1.7519
 3532SOL     vw14128   2.394   2.277   6.822 -0.7570 -0.0380 -0.1500
 3533SOL     ow14129   0.435   2.754   2.987  0.0104 -0.4347 -0.1248
 3533SOL     hw14130   0.355   2.805   2.996  1.6219  2.2964 -0.2494
 3533SOL     hw14131   0.423   2.680   3.047 -2.0691  0.5794  0.8076
 3533SOL     vw14132   0.423   2.751   2.996 -0.0514  0.0594 -0.0182
 3534SOL     ow14133   2.324   5.613   5.136 -0.1185  0.4085  0.2538
 3534SOL     hw14134   2.301   5.520   5.130  0.9497  0.2050 -1.2919
 3534SOL     hw14135   2.418   5.613   5.154  0.2367  1.1482 -1.4193
 3534SOL     vw14136   2.334   5.600   5.138  0.0693  0.4792 -0.1709
 3535SOL     ow14137   1.442   1.311   0.616  0.1008  0.0578  0.4201
 3535SOL     hw14138   1.474   1.334   0.703 -0.1279  0.7129  0.3380
 3535SOL     hw14139   1.347   1.324   0.621  0.1270  0.4464 -0.0263
 3535SOL     vw14140   1.434   1.316   0.628  0.0741  0.1954  0.3504
 3536SOL     ow14141   5.190   2.307   1.572  0.0251  0.2467 -0.2990
 3536SOL     hw14142   5.156   2.394   1.550 -1.3335 -0.2605 -0.3404
 3536SOL     hw14143   5.230   2.318   1.658 -1.6248  0.5955  0.4760
 3536SOL     vw14144   5.191   2.320   1.581 -0.3719  0.2259 -0.2022
 3537SOL     ow14145   4.940   3.177   1.567  0.1905  0.3969  0.0439
 3537SOL     hw14146   4.880   3.203   1.498  0.5878 -2.0194 -1.3226
 3537SOL     hw14147   4.999   3.251   1.578 -1.3522  1.7519 -0.4827
 3537SOL     vw14148   4.940   3.190   1.560  0.0393  0.2568 -0.2059
 3538SOL     ow14149   7.331   5.516   6.631  0.0985 -0.2927 -0.0314
 3538SOL     hw14150   7.414   5.470   6.644  0.2739  0.1687  0.5502
 3538SOL     hw14151   7.273   5.481   6.699  0.5726  1.0903  1.1667
 3538SOL     vw14152   7.334   5.505   6.642  0.1845 -0.0491  0.2036
 3539SOL     ow14153   6.084   2.378   3.915  0.0156 -0.0228  0.4058
 3539SOL     hw14154   6.060   2.380   4.007  0.8475  0.8949  0.6165
 3539SOL     hw14155   6.010   2.335   3.872 -0.9002  0.5756  1.3359
 3539SOL     vw14156   6.071   2.373   3.921  0.0048  0.1773  0.5562
 3540SOL     ow14157   1.888   5.929   3.330  0.0329  0.3457 -0.1720
 3540SOL     hw14158   1.801   5.970   3.330  0.1759  0.7049  1.3166
 3540SOL     hw14159   1.882   5.861   3.396  0.8823  0.3648 -0.0676
 3540SOL     vw14160   1.875   5.926   3.339  0.1639  0.3958  0.0381
 3541SOL     ow14161   5.027   4.162   3.864  0.1563 -0.0788  0.3694
 3541SOL     hw14162   4.939   4.123   3.859 -0.5673  1.5254  0.0083
 3541SOL     hw14163   5.075   4.105   3.924 -1.7860  0.1773  2.2969
 3541SOL     vw14164   5.022   4.149   3.872 -0.1953  0.1667  0.5761
 3542SOL     ow14165   7.302   2.213   3.301  1.1605 -0.0176  0.2618
 3542SOL     hw14166   7.318   2.144   3.237 -0.4818 -0.2579  0.0754
 3542SOL     hw14167   7.239   2.175   3.362  1.5328  0.7415  1.1480
 3542SOL     vw14168   7.296   2.199   3.301  0.9928  0.0508  0.3541
 3543SOL     ow14169   3.326   5.292   4.832 -0.2284  0.3815 -0.2898
 3543SOL     hw14170   3.274   5.222   4.870 -0.5225  0.3675 -0.7232
 3543SOL     hw14171   3.278   5.320   4.754 -1.1672  2.4266  0.9399
 3543SOL     vw14172   3.313   5.287   4.827 -0.3911  0.6495 -0.1845
 3544SOL     ow14173   3.385   0.982   2.438 -0.0300 -0.1489  0.4227
 3544SOL     hw14174   3.409   0.891   2.452 -0.2589 -0.1873  0.5779
 3544SOL     hw14175   3.305   0.994   2.490  0.6479  0.4464  1.3776
 3544SOL     vw14176   3.378   0.972   2.447  0.0292 -0.0754  0.5691
 3545SOL     ow14177   5.360   1.781   0.418  0.0501 -0.4217 -0.4463
 3545SOL     hw14178   5.410   1.745   0.491  0.1127 -0.2362 -0.3981
 3545SOL     hw14179   5.363   1.712   0.351  0.2552 -0.4640 -0.3943
 3545SOL     vw14180   5.367   1.767   0.419  0.0851 -0.4028 -0.4331
 3546SOL     ow14181   3.016   6.090   2.134 -0.0361  0.0196  0.0158
 3546SOL     hw14182   3.003   6.052   2.221  0.6087 -3.4950 -1.2462
 3546SOL     hw14183   2.941   6.059   2.083  0.9543 -0.3084 -1.2979
 3546SOL     vw14184   3.005   6.081   2.139  0.1796 -0.4876 -0.3241
 3547SOL     ow14185   2.391   2.006   6.734  0.0938  0.2969 -0.1179
 3547SOL     hw14186   2.385   2.047   6.648  4.0606 -0.0852 -0.7797
 3547SOL     hw14187   2.480   2.025   6.764 -1.2285  0.7685  4.1775
 3547SOL     vw14188   2.402   2.014   6.726  0.4427  0.3086  0.3617
 3548SOL     ow14189   4.345   5.098   1.929  0.2035  0.1609 -0.1538
 3548SOL     hw14190   4.429   5.139   1.909  0.2478  0.6162  0.9092
 3548SOL     hw14191   4.343   5.020   1.874  1.4944 -0.0660  0.0856
 3548SOL     vw14192   4.356   5.093   1.919  0.3796  0.1910  0.0181
 3549SOL     ow14193   6.856   6.101   1.184  0.5552  0.0904  0.0670
 3549SOL     hw14194   6.904   6.086   1.102 -0.7665  0.1728 -0.7488
 3549SOL     hw14195   6.920   6.145   1.241  1.5577 -0.1400 -0.8436
 3549SOL     vw14196   6.871   6.105   1.181  0.5131  0.0708 -0.1608
 3550SOL     ow14197   2.451   3.775   1.832  0.3193 -0.0931  0.6490
 3550SOL     hw14198   2.378   3.803   1.887  2.2271  2.0154  2.3002
 3550SOL     hw14199   2.486   3.856   1.796  1.3394 -1.1284 -0.7852
 3550SOL     vw14200   2.446   3.789   1.835  0.7055  0.0485  0.6776
 3551SOL     ow14201   3.102   3.728   1.202 -0.5853  0.3151 -0.7629
 3551SOL     hw14202   3.151   3.681   1.269 -0.3589 -0.5343 -1.4896
 3551SOL     hw14203   3.143   3.814   1.198  0.8096 -0.3266 -1.2701
 3551SOL     vw14204   3.114   3.733   1.210 -0.3715  0.1185 -0.9258
 3552SOL     ow14205   2.746   4.207   2.706  0.1708  0.0572 -0.1510
 3552SOL     hw14206   2.728   4.171   2.619  0.8811  0.7629 -0.6156
 3552SOL     hw14207   2.661   4.218   2.747 -0.3393  1.3902 -1.4657
 3552SOL     vw14208   2.733   4.204   2.700  0.1972  0.3259 -0.3858
 3553SOL     ow14209   7.154   3.681   2.046 -1.1885 -0.8191  0.2754
 3553SOL     hw14210   7.223   3.617   2.027  0.8475  1.3467 -0.0223
 3553SOL     hw14211   7.197   3.749   2.098 -2.7378  1.2798 -1.0107
 3553SOL     vw14212   7.169   3.681   2.051 -1.1246 -0.2563  0.0664
 3554SOL     ow14213   5.567   4.125   2.026 -0.2679 -0.5613  0.3018
 3554SOL     hw14214   5.488   4.088   1.986 -0.7925 -0.9201  1.6141
 3554SOL     hw14215   5.538   4.155   2.112  0.3892  1.9211 -0.2591
 3554SOL     vw14216   5.553   4.124   2.032 -0.2503 -0.2811  0.4010
 3555SOL     ow14217   0.204   6.789   1.721 -0.5966 -0.3605  0.4163
 3555SOL     hw14218   0.223   6.851   1.651  0.4109  0.0080  0.9966
 3555SOL     hw14219   0.144   6.836   1.779 -0.4273 -0.2034  0.4645
 3555SOL     vw14220   0.198   6.803   1.719 -0.4413 -0.2913  0.4992
 3556SOL     ow14221   5.107   0.903   3.151 -0.2747  0.4311  0.2957
 3556SOL     hw14222   5.191   0.930   3.188 -0.1193  0.4952 -0.0934
 3556SOL     hw14223   5.072   0.840   3.213 -0.2569  0.9132  0.8063
 3556SOL     vw14224   5.114   0.898   3.164 -0.2518  0.5031  0.3119
 3557SOL     ow14225   6.081   0.028   7.453 -0.2895 -0.2797  0.1785
 3557SOL     hw14226   6.106   0.120   7.466  3.3238 -0.7310 -2.1705
 3557SOL     hw14227   6.136  -0.020   7.515  0.0824 -0.9894 -0.6830
 3557SOL     vw14228   6.092   0.034   7.463  0.2363 -0.4329 -0.2451
 3558SOL     ow14229   1.736   1.019   6.748  0.1527  0.1268  0.1209
 3558SOL     hw14230   1.683   1.007   6.669  0.9417  0.1031 -0.4130
 3558SOL     hw14231   1.686   1.082   6.800 -0.8882 -0.6432  0.0848
 3558SOL     vw14232   1.722   1.026   6.744  0.1195  0.0221  0.0455
 3559SOL     ow14233   7.387   1.130   2.447  0.2010 -0.2345 -0.6295
 3559SOL     hw14234   7.337   1.169   2.376 -0.8167  1.0163  0.7081
 3559SOL     hw14235   7.320   1.094   2.506  0.8379  1.0871  0.9782
 3559SOL     vw14236   7.371   1.130   2.446  0.1507  0.1049 -0.2410
 3560SOL     ow14237   3.163   2.419   1.390 -0.0456  0.5148  0.6108
 3560SOL     hw14238   3.137   2.368   1.314  0.6723  0.0162  0.6933
 3560SOL     hw14239   3.154   2.510   1.362 -2.7827  0.4297  0.9279
 3560SOL     vw14240   3.158   2.424   1.376 -0.3120  0.4379  0.6636
 3561SOL     ow14241   1.308   5.532   1.646 -0.2069  0.1787 -0.5630
 3561SOL     hw14242   1.237   5.585   1.681  0.6142  0.2701  1.0591
 3561SOL     hw14243   1.273   5.443   1.642 -0.5593  0.2988 -0.1905
 3561SOL     vw14244   1.294   5.527   1.650 -0.1451  0.2065 -0.2999
 3562SOL     ow14245   6.887   5.529   6.684  0.3873  0.3504  0.6527
 3562SOL     hw14246   6.868   5.444   6.644 -0.3714  0.0468  1.6035
 3562SOL     hw14247   6.802   5.560   6.716  0.5626  1.7253 -0.1429
 3562SOL     vw14248   6.873   5.522   6.683  0.3104  0.4916  0.6731
 3563SOL     ow14249   2.853   5.831   6.082  0.7843 -0.1856 -0.2130
 3563SOL     hw14250   2.860   5.746   6.125 -0.0158 -0.3079 -0.3041
 3563SOL     hw14251   2.831   5.892   6.153  1.4585 -0.0313 -0.1307
 3563SOL     vw14252   2.851   5.828   6.097  0.7677 -0.1814 -0.2139
 3564SOL     ow14253   6.387   1.406   3.594 -0.7652 -0.1294 -0.2264
 3564SOL     hw14254   6.439   1.372   3.667 -0.9465  2.5831  1.2821
 3564SOL     hw14255   6.451   1.454   3.540 -1.3545  1.7815  0.7152
 3564SOL     vw14256   6.403   1.408   3.596 -0.8669  0.4806  0.0968
 3565SOL     ow14257   4.990   4.215   5.552  0.0072  0.5058 -0.1331
 3565SOL     hw14258   4.947   4.211   5.637  1.3554  1.6474  0.6328
 3565SOL     hw14259   5.075   4.172   5.565  0.8358  1.9760 -0.4795
 3565SOL     vw14260   4.995   4.209   5.565  0.2942  0.8502 -0.0777
 3566SOL     ow14261   4.415   3.141   4.566  0.1967 -0.2213  0.0270
 3566SOL     hw14262   4.452   3.055   4.587  0.3080 -0.3622 -0.7425
 3566SOL     hw14263   4.320   3.128   4.569  0.1764 -0.8719 -1.9909
 3566SOL     vw14264   4.407   3.128   4.570  0.2089 -0.3257 -0.3409
 3567SOL     ow14265   1.808   4.280   1.440  0.1643 -0.2987 -0.2567
 3567SOL     hw14266   1.716   4.255   1.441 -0.4990  1.6946 -2.4022
 3567SOL     hw14267   1.844   4.237   1.363  0.6504  0.0531 -0.2356
 3567SOL     vw14268   1.801   4.271   1.430  0.1409  0.0105 -0.5370
 3568SOL     ow14269   4.893   6.327   3.996  0.2904 -0.2654 -0.5234
 3568SOL     hw14270   4.975   6.278   3.989  1.2538  1.1898  0.1402
 3568SOL     hw14271   4.913   6.399   4.055 -1.3041  0.4863 -0.8464
 3568SOL     vw14272   4.907   6.330   4.003  0.2072  0.0257 -0.4783
 3569SOL     ow14273   3.599   5.433   1.539  0.1639  0.1862 -0.2436
 3569SOL     hw14274   3.663   5.473   1.598  0.7159  0.2602 -0.8739
 3569SOL     hw14275   3.548   5.507   1.505 -2.1961 -0.0616  2.3768
 3569SOL     vw14276   3.601   5.448   1.542 -0.0747  0.1633  0.0190
 3570SOL     ow14277   1.610   4.853   4.843 -0.1296  0.7024 -0.0272
 3570SOL     hw14278   1.590   4.760   4.833 -0.4189  0.8430 -0.8264
 3570SOL     hw14279   1.563   4.895   4.771 -2.0400  1.7540  1.7541
 3570SOL     vw14280   1.601   4.846   4.832 -0.4198  0.8597  0.1025
 3571SOL     ow14281   1.814   3.757   3.043 -0.4487 -0.5359 -0.0500
 3571SOL     hw14282   1.729   3.759   3.088 -1.2739 -2.1628 -1.4167
 3571SOL     hw14283   1.877   3.745   3.113 -1.4929 -0.8312  0.8790
 3571SOL     vw14284   1.811   3.756   3.058 -0.6954 -0.7896 -0.1076
 3572SOL     ow14285   6.374   7.171   2.952  0.1354 -0.0860 -0.6432
 3572SOL     hw14286   6.374   7.227   3.030 -0.0064 -0.8967 -0.0518
 3572SOL     hw14287   6.303   7.205   2.898 -0.3019 -0.0334 -0.0413
 3572SOL     vw14288   6.365   7.183   2.955  0.0591 -0.1860 -0.4857
 3573SOL     ow14289   0.565   0.161   0.764  0.3142  0.3147 -0.3985
 3573SOL     hw14290   0.544   0.068   0.775  0.4243  0.3087 -0.2271
 3573SOL     hw14291   0.608   0.166   0.679 -3.2558  0.8203 -2.3545
 3573SOL     vw14292   0.568   0.149   0.755 -0.1423  0.3807 -0.6339
 3574SOL     ow14293   3.289   5.559   2.306 -0.3399 -0.2684  0.1134
 3574SOL     hw14294   3.228   5.633   2.296 -0.3035 -0.4118 -1.4984
 3574SOL     hw14295   3.345   5.584   2.379 -1.0167  0.8059  0.2951
 3574SOL     vw14296   3.288   5.572   2.314 -0.4244 -0.1454 -0.0752
 3575SOL     ow14297   5.076   7.181   2.744  0.3836 -0.1867  0.1089
 3575SOL     hw14298   5.120   7.167   2.827 -0.5693  0.1589  0.6859
 3575SOL     hw14299   4.992   7.135   2.753 -1.0198  2.2961  0.4802
 3575SOL     vw14300   5.071   7.173   2.756  0.0725  0.1864  0.2339
 3576SOL     ow14301   3.071   2.883   3.928 -0.3169 -0.7085 -0.1870
 3576SOL     hw14302   3.023   2.835   3.861 -0.4262 -0.5183 -0.2466
 3576SOL     hw14303   3.050   2.839   4.010  2.8089 -3.4107 -0.6214
 3576SOL     vw14304   3.062   2.871   3.930  0.0811 -1.0400 -0.2521
 3577SOL     ow14305   3.879   1.506   2.978  0.1656  0.1991  0.5499
 3577SOL     hw14306   3.836   1.455   3.047 -0.2633  0.9608  0.8595
 3577SOL     hw14307   3.964   1.463   2.966  0.6618  0.6168  2.2444
 3577SOL     vw14308   3.884   1.493   2.986  0.1745  0.3547  0.8142
 3578SOL     ow14309   1.546   7.384   5.537  0.6890  0.3129  0.0355
 3578SOL     hw14310   1.463   7.431   5.532  0.0003 -0.7464  0.9746
 3578SOL     hw14311   1.596   7.415   5.462 -0.1268  1.7622  0.0521
 3578SOL     vw14312   1.542   7.394   5.527  0.4905  0.3645  0.1616
 3579SOL     ow14313   7.093   4.763   6.379  0.1352  0.1048 -0.0866
 3579SOL     hw14314   7.011   4.777   6.332  0.1068 -0.3307 -0.1716
 3579SOL     hw14315   7.077   4.686   6.433  0.4509  0.0822 -0.0226
 3579SOL     vw14316   7.080   4.755   6.380  0.1731  0.0443 -0.0896
 3580SOL     ow14317   1.323   6.893   1.498  0.2558 -0.0157 -0.1561
 3580SOL     hw14318   1.368   6.977   1.496  2.3466 -1.0901 -0.8922
 3580SOL     hw14319   1.363   6.845   1.570 -2.4030  0.3042  1.6774
 3580SOL     vw14320   1.334   6.897   1.507  0.1808 -0.1152 -0.0113
 3581SOL     ow14321   6.248   6.088   0.817 -0.3020 -0.0308  0.2469
 3581SOL     hw14322   6.251   6.181   0.840 -0.2675 -0.2792  1.2847
 3581SOL     hw14323   6.334   6.070   0.779 -0.3219  0.3691  0.0158
 3581SOL     vw14324   6.260   6.098   0.815 -0.3002 -0.0107  0.3533
 3582SOL     ow14325   0.765   0.893   4.131  0.8243  0.1664 -0.4277
 3582SOL     hw14326   0.740   0.968   4.184  1.2929  0.9120 -1.2483
 3582SOL     hw14327   0.771   0.821   4.194  1.2868  1.0121  0.5291
 3582SOL     vw14328   0.763   0.893   4.146  0.9471  0.3763 -0.4096
 3583SOL     ow14329   4.473   3.193   6.061  0.1375  0.6472  0.1426
 3583SOL     hw14330   4.540   3.213   6.126  0.3915  0.1905  0.0310
 3583SOL     hw14331   4.484   3.099   6.044  0.1574  0.7811 -0.6424
 3583SOL     vw14332   4.483   3.183   6.067  0.1736  0.6046  0.0243
 3584SOL     ow14333   4.676   7.055   2.370  0.1783 -0.3219  0.1265
 3584SOL     hw14334   4.662   7.143   2.406 -0.5679  0.2007 -1.3124
 3584SOL     hw14335   4.674   6.997   2.445  0.7152  0.8999  1.1187
 3584SOL     vw14336   4.674   7.059   2.384  0.1507 -0.0916  0.0675
 3585SOL     ow14337   1.627   5.183   5.371 -0.0881 -0.0101  0.8102
 3585SOL     hw14338   1.659   5.273   5.371 -0.0408 -0.0247  1.3057
 3585SOL     hw14339   1.692   5.134   5.421 -1.7916  0.3051  3.5429
 3585SOL     vw14340   1.640   5.188   5.378 -0.3066  0.0296  1.2360
 3586SOL     ow14341   3.411   0.615   1.747  0.5031 -0.1593  0.6899
 3586SOL     hw14342   3.428   0.708   1.762 -0.4157  0.2450 -0.5816
 3586SOL     hw14343   3.317   0.606   1.763  0.5573 -0.8302  0.6410
 3586SOL     vw14344   3.401   0.626   1.751  0.3890 -0.1945  0.5158
 3587SOL     ow14345   6.442   0.976   0.986 -0.2450  0.7110 -0.4832
 3587SOL     hw14346   6.358   0.954   0.946 -1.1580  1.9380  0.6977
 3587SOL     hw14347   6.440   0.933   1.072  0.1503  1.0977 -0.2750
 3587SOL     vw14348   6.431   0.967   0.992 -0.3133  0.9239 -0.2999
 3588SOL     ow14349   6.457   4.375   0.797  0.2895  0.5202 -0.0738
 3588SOL     hw14350   6.413   4.334   0.722 -0.1371 -0.0214  0.4584
 3588SOL     hw14351   6.509   4.305   0.835 -1.2617  0.1222  1.4737
 3588SOL     vw14352   6.458   4.360   0.792  0.0286  0.3963  0.2006
 3589SOL     ow14353   7.447   6.443   2.938  0.0487  0.2152  0.1792
 3589SOL     hw14354   7.505   6.520   2.932 -0.8948  1.1198  1.8018
 3589SOL     hw14355   7.421   6.440   3.031 -2.3295 -0.2662 -0.4374
 3589SOL     vw14356   7.451   6.453   2.950 -0.3896  0.2708  0.3119
 3590SOL     ow14357   6.742   7.371   1.271 -0.3861  0.1107  0.3814
 3590SOL     hw14358   6.702   7.309   1.210  0.8251 -0.9055  0.5956
 3590SOL     hw14359   6.742   7.454   1.223 -1.6966 -0.1092 -0.0401
 3590SOL     vw14360   6.737   7.374   1.257 -0.3991 -0.0525  0.3541
 3591SOL     ow14361   4.941   4.005   0.263  0.0428  0.8176 -0.1481
 3591SOL     hw14362   4.974   4.010   0.353 -2.9702  3.1449  1.0191
 3591SOL     hw14363   4.943   4.095   0.232 -0.5528  0.2971 -1.8051
 3591SOL     vw14364   4.946   4.017   0.271 -0.4330  1.0560 -0.2127
 3592SOL     ow14365   3.112   2.335   6.494  0.4785 -0.1980 -0.0006
 3592SOL     hw14366   3.033   2.360   6.543  1.2739 -1.3900  2.0230
 3592SOL     hw14367   3.177   2.400   6.519  1.1789 -1.3760  1.4744
 3592SOL     vw14368   3.110   2.347   6.504  0.6758 -0.5106  0.4611
 3593SOL     ow14369   1.933   5.195   3.503  0.0892 -0.3453  0.3779
 3593SOL     hw14370   1.899   5.132   3.566  0.7832  0.9875  2.1488
 3593SOL     hw14371   2.011   5.154   3.467  0.5347 -0.5246  1.5141
 3593SOL     vw14372   1.938   5.181   3.506  0.2395 -0.1931  0.7614
 3594SOL     ow14373   2.428   5.154   4.925 -0.0336 -0.0296 -0.0112
 3594SOL     hw14374   2.401   5.245   4.921  0.8580  0.3107 -4.4686
 3594SOL     hw14375   2.524   5.157   4.924  0.0742 -0.7837 -2.7797
 3594SOL     vw14376   2.437   5.166   4.924  0.0983 -0.0842 -0.9646
 3595SOL     ow14377   1.251   6.887   3.174  0.4279 -0.1622 -0.5018
 3595SOL     hw14378   1.171   6.890   3.121 -0.1627  1.2107  0.4182
 3595SOL     hw14379   1.320   6.917   3.115  0.1568 -0.6722 -1.0926
 3595SOL     vw14380   1.249   6.891   3.159  0.3141 -0.0482 -0.4582
 3596SOL     ow14381   6.672   0.241   6.378  0.7208 -0.3161 -0.2057
 3596SOL     hw14382   6.660   0.196   6.461  1.1672  0.1448  0.1099
 3596SOL     hw14383   6.624   0.323   6.388 -0.7036 -0.9901 -1.0369
 3596SOL     vw14384   6.664   0.246   6.390  0.5918 -0.3442 -0.2739
 3597SOL     ow14385   1.597   4.946   7.104 -0.0109  0.4062 -0.4554
 3597SOL     hw14386   1.601   4.947   7.199  2.4342  0.0967 -0.4857
 3597SOL     hw14387   1.591   4.853   7.081 -0.4562  0.4730 -0.6309
 3597SOL     vw14388   1.597   4.934   7.113  0.2529  0.3741 -0.4826
 3598SOL     ow14389   1.170   3.136   6.124  0.6297  0.6049 -0.0315
 3598SOL     hw14390   1.158   3.202   6.056  0.2471 -1.0739 -1.6830
 3598SOL     hw14391   1.263   3.116   6.123  0.2658 -1.3133 -2.0212
 3598SOL     vw14392   1.180   3.142   6.115  0.5313  0.1302 -0.5116
 3599SOL     ow14393   6.501   1.329   5.124 -0.0877  0.3361  0.4557
 3599SOL     hw14394   6.513   1.332   5.219  0.6353 -0.1745  0.3881
 3599SOL     hw14395   6.468   1.241   5.107 -0.6077  0.5618  0.2680
 3599SOL     vw14396   6.498   1.318   5.134 -0.0610  0.2985  0.4222
 3600SOL     ow14397   0.233   0.594   6.649 -0.1428 -0.5665  0.1725
 3600SOL     hw14398   0.264   0.504   6.641  0.5865 -0.1637 -2.7517
 3600SOL     hw14399   0.146   0.593   6.608 -0.2476 -0.0152  0.3745
 3600SOL     vw14400   0.226   0.582   6.642 -0.0604 -0.4406 -0.1869
 3601SOL     ow14401   5.197   2.481   0.874  0.0183  0.0037 -0.6169
 3601SOL     hw14402   5.161   2.549   0.818 -0.4543  1.2056  1.0603
 3601SOL     hw14403   5.204   2.522   0.960  4.2782 -0.5093 -0.4950
 3601SOL     vw14404   5.193   2.495   0.878  0.5178  0.0947 -0.3796
 3602SOL     ow14405   6.051   0.965   2.250 -0.1055  0.8952  0.1109
 3602SOL     hw14406   5.960   0.968   2.281 -1.1663 -1.2985 -2.3894
 3602SOL     hw14407   6.057   1.036   2.186  0.1521  1.4571  0.7555
 3602SOL     vw14408   6.040   0.975   2.246 -0.2115  0.6799 -0.1341
 3603SOL     ow14409   2.000   5.294   2.264 -1.1837  0.5821 -0.0019
 3603SOL     hw14410   1.911   5.305   2.295 -1.1639  1.6812 -0.3128
 3603SOL     hw14411   1.995   5.308   2.170 -0.8228 -0.2178 -0.1473
 3603SOL     vw14412   1.988   5.297   2.256 -1.1336  0.6216 -0.0621
 3604SOL     ow14413   0.625   2.170   4.709 -0.2511  0.0384  0.2079
 3604SOL     hw14414   0.607   2.250   4.758  0.1458 -0.6184  1.4607
 3604SOL     hw14415   0.538   2.133   4.692 -0.4169  0.5396 -0.0726
 3604SOL     vw14416   0.611   2.176   4.713 -0.2207  0.0179  0.3359
 3605SOL     ow14417   3.976   2.039   2.799 -0.3568 -0.1387 -0.6921
 3605SOL     hw14418   3.903   2.057   2.740 -2.1126 -2.2407  0.6548
 3605SOL     hw14419   3.991   2.121   2.846 -0.9688  0.6840 -1.9037
 3605SOL     vw14420   3.969   2.052   2.797 -0.6691 -0.3074 -0.6741
 3606SOL     ow14421   0.274   5.259   3.306  0.2258 -0.8528 -0.1379
 3606SOL     hw14422   0.367   5.273   3.287 -0.0404  1.2682 -0.0105
 3606SOL     hw14423   0.235   5.241   3.221  0.4810 -0.1193 -0.4115
 3606SOL     vw14424   0.281   5.258   3.293  0.2243 -0.4761 -0.1571
 3607SOL     ow14425   4.991   0.522   2.639  0.2163 -0.3683  0.3177
 3607SOL     hw14426   4.971   0.526   2.732 -0.2435  1.6490  0.1725
 3607SOL     hw14427   4.951   0.600   2.602  1.0560 -0.7141 -1.4539
 3607SOL     vw14428   4.983   0.533   2.646  0.2663 -0.1478  0.0648
 3608SOL     ow14429   1.510   5.374   3.595  0.4566  0.2638  0.7923
 3608SOL     hw14430   1.605   5.373   3.611  1.2127  0.9973 -2.8778
 3608SOL     hw14431   1.487   5.467   3.592  0.4978  0.2696 -2.1140
 3608SOL     vw14432   1.520   5.387   3.597  0.5618  0.3612 -0.0753
 3609SOL     ow14433   1.628   0.901   0.153  0.2121 -0.1508  0.2384
 3609SOL     hw14434   1.707   0.849   0.139 -0.2168 -0.5276 -0.8694
 3609SOL     hw14435   1.597   0.923   0.066 -1.3564 -0.7248  0.6051
 3609SOL     vw14436   1.634   0.897   0.140 -0.0515 -0.2763  0.1406
 3610SOL     ow14437   4.201   4.967   2.160 -0.0506  0.5906 -0.5447
 3610SOL     hw14438   4.133   4.954   2.226  0.4160  1.5297  0.1428
 3610SOL     hw14439   4.202   4.886   2.110 -0.3466 -0.1948  0.6836
 3610SOL     vw14440   4.192   4.955   2.162 -0.0281  0.6111 -0.2919
 3611SOL     ow14441   2.453   0.675   0.758  0.6904  0.1123 -0.3913
 3611SOL     hw14442   2.488   0.759   0.729  2.3607 -0.1228  0.7550
 3611SOL     hw14443   2.438   0.686   0.852  1.9148 -1.1385 -0.0064
 3611SOL     vw14444   2.456   0.687   0.767  1.0724 -0.0837 -0.1892
 3612SOL     ow14445   0.551   3.695   3.010  0.7616  0.7665 -0.0516
 3612SOL     hw14446   0.640   3.712   3.040  0.0825  0.1718  2.5451
 3612SOL     hw14447   0.496   3.748   3.068 -0.6517 -0.0743 -0.5838
 3612SOL     vw14448   0.555   3.705   3.022  0.4855  0.5771  0.2208
 3613SOL     ow14449   1.920   7.395   0.650 -0.2451 -0.1619  0.2099
 3613SOL     hw14450   1.984   7.345   0.700  0.1191  0.4446  0.3658
 3613SOL     hw14451   1.962   7.411   0.566 -0.8315 -1.1257 -0.2838
 3613SOL     vw14452   1.934   7.391   0.646 -0.2744 -0.2093  0.1653
 3614SOL     ow14453   3.880   6.554   3.514  0.1094  0.6574 -0.1341
 3614SOL     hw14454   3.909   6.619   3.578 -0.2397  1.1124 -0.4291
 3614SOL     hw14455   3.928   6.474   3.537 -0.0694  0.7932  0.7398
 3614SOL     vw14456   3.890   6.552   3.525  0.0398  0.7355 -0.0578
 3615SOL     ow14457   4.547   6.417   1.721  0.1106 -0.5639  0.1642
 3615SOL     hw14458   4.515   6.442   1.808 -0.6689  0.8179 -0.4894
 3615SOL     hw14459   4.470   6.426   1.664  1.3702  2.0479 -1.2990
 3615SOL     vw14460   4.532   6.421   1.725  0.1740 -0.0367 -0.1151
 3616SOL     ow14461   0.716   3.070   6.985  0.3031  0.0792 -0.7998
 3616SOL     hw14462   0.781   3.121   6.935  0.8900  1.2560  1.0653
 3616SOL     hw14463   0.768   3.018   7.046 -0.4597  0.4226  0.1688
 3616SOL     vw14464   0.731   3.070   6.986  0.2799  0.2798 -0.4258
 3617SOL     ow14465   6.285   3.943   5.031  0.4588  0.4220  0.0906
 3617SOL     hw14466   6.238   4.026   5.019 -0.8727 -0.3805 -0.4004
 3617SOL     hw14467   6.324   3.949   5.118 -2.9305  0.0039  1.7661
 3617SOL     vw14468   6.284   3.955   5.041 -0.1645  0.2608  0.2470
 3618SOL     ow14469   5.198   6.292   0.695 -0.6669  0.1699 -0.2789
 3618SOL     hw14470   5.165   6.235   0.764  0.6130 -1.8718 -1.2469
 3618SOL     hw14471   5.290   6.266   0.685 -0.8641  0.2199 -2.8565
 3618SOL     vw14472   5.206   6.281   0.703 -0.5240 -0.0930 -0.7467
 3619SOL     ow14473   6.793   0.893   0.620 -0.7249  0.3687 -0.2053
 3619SOL     hw14474   6.844   0.955   0.672 -0.8029  2.5598 -2.5536
 3619SOL     hw14475   6.702   0.921   0.631 -0.8801 -0.0210 -0.4370
 3619SOL     vw14476   6.788   0.905   0.628 -0.7555  0.6064 -0.5457
 3620SOL     ow14477   4.697   1.863   6.823  0.3173 -0.0127  0.6727
 3620SOL     hw14478   4.614   1.890   6.863 -0.2991  0.0923 -0.6092
 3620SOL     hw14479   4.731   1.944   6.784 -0.1003 -0.4749 -0.7052
 3620SOL     vw14480   4.691   1.878   6.823  0.1807 -0.0598  0.3219
 3621SOL     ow14481   1.442   2.978   0.318 -0.1858 -0.2852 -0.2382
 3621SOL     hw14482   1.360   2.953   0.360 -0.1315 -0.7640 -0.4153
 3621SOL     hw14483   1.508   2.969   0.387  0.0417 -1.9121 -0.6400
 3621SOL     vw14484   1.440   2.974   0.333 -0.1486 -0.5630 -0.3146
 3622SOL     ow14485   6.302   1.484   2.862 -0.0073 -0.6237  0.0929
 3622SOL     hw14486   6.371   1.457   2.922  0.3855 -0.7275 -0.3957
 3622SOL     hw14487   6.243   1.538   2.915  0.4796 -0.4870  0.4997
 3622SOL     vw14488   6.303   1.488   2.877  0.1092 -0.6193  0.0820
 3623SOL     ow14489   2.212   2.382   7.399  0.1942 -0.3798 -0.2203
 3623SOL     hw14490   2.156   2.342   7.333 -0.0659  1.7732 -1.3757
 3623SOL     hw14491   2.288   2.415   7.351  0.4759  0.3593  0.6822
 3623SOL     vw14492   2.215   2.381   7.384  0.1971  0.0018 -0.2537
 3624SOL     ow14493   5.980   6.913   5.113  0.3408 -0.1013  0.0438
 3624SOL     hw14494   5.888   6.919   5.137  0.2162  0.8555 -0.5918
 3624SOL     hw14495   5.979   6.883   5.021  0.5000  2.6891 -0.9567
 3624SOL     vw14496   5.968   6.910   5.104  0.3455  0.3929 -0.1719
 3625SOL     ow14497   5.285   2.577   1.903 -0.3849  0.0999  0.6707
 3625SOL     hw14498   5.349   2.609   1.967 -0.6929  2.1889  0.0023
 3625SOL     hw14499   5.336   2.520   1.845  0.7479  1.1973  0.5448
 3625SOL     vw14500   5.300   2.574   1.904 -0.2763  0.5202  0.5658
 3626SOL     ow14501   2.664   3.982   2.976  0.5371 -0.5857  0.0284
 3626SOL     hw14502   2.759   3.993   2.976  0.2619  3.7310  1.1604
 3626SOL     hw14503   2.644   3.955   3.066  0.5900  0.6770  0.4318
 3626SOL     vw14504   2.674   3.980   2.988  0.5080  0.1504  0.2309
 3627SOL     ow14505   0.193   2.720   5.418 -0.2892  0.0587  0.2003
 3627SOL     hw14506   0.178   2.802   5.464 -1.3463 -0.3579  0.6390
 3627SOL     hw14507   0.242   2.666   5.480  0.0704  0.2189  0.0571
 3627SOL     vw14508   0.197   2.723   5.432 -0.3812  0.0249  0.2394
 3628SOL     ow14509   1.179   2.231   0.360 -0.5666 -0.1104  0.1127
 3628SOL     hw14510   1.245   2.163   0.369  0.7472  1.1797  0.6059
 3628SOL     hw14511   1.173   2.271   0.446 -0.0729  1.4669 -0.5432
 3628SOL     vw14512   1.187   2.227   0.372 -0.3281  0.2680  0.0913
 3629SOL     ow14513   6.342   3.644   0.759 -0.2771  0.9958  0.1401
 3629SOL     hw14514   6.312   3.650   0.668  1.0896  2.4825 -0.2471
 3629SOL     hw14515   6.405   3.572   0.759  0.3699  1.5572 -0.2880
 3629SOL     vw14516   6.346   3.635   0.747 -0.0112  1.2660  0.0325
 3630SOL     ow14517   1.932   4.013   2.900  0.2679 -0.8765 -0.1128
 3630SOL     hw14518   1.981   3.938   2.867 -0.1462 -1.0890 -0.2548
 3630SOL     hw14519   1.856   3.975   2.944  1.1303 -0.6406  1.6800
 3630SOL     vw14520   1.929   3.998   2.901  0.3271 -0.8734  0.1049
 3631SOL     ow14521   5.248   0.394   4.898 -0.4474 -0.1324  0.0923
 3631SOL     hw14522   5.277   0.321   4.953  0.0815  1.0433  1.4369
 3631SOL     hw14523   5.157   0.408   4.923  0.0864  1.0865  1.5408
 3631SOL     vw14524   5.240   0.386   4.909 -0.3071  0.1835  0.4611
 3632SOL     ow14525   5.579   5.075   4.154 -0.0379  0.5252 -0.4473
 3632SOL     hw14526   5.500   5.035   4.192 -0.9228  0.4410 -2.2889
 3632SOL     hw14527   5.626   5.002   4.114 -0.2198  0.8858 -1.3528
 3632SOL     vw14528   5.574   5.060   4.154 -0.1786  0.5617 -0.8097
 3633SOL     ow14529   2.608   1.498   6.085 -0.8224  0.6443  0.5148
 3633SOL     hw14530   2.646   1.455   6.162 -0.3441  1.7199  0.8972
 3633SOL     hw14531   2.550   1.432   6.047  0.7096 -0.7243  0.4460
 3633SOL     vw14532   2.606   1.484   6.091 -0.5571  0.6056  0.5558
 3634SOL     ow14533   0.448   1.032   3.470 -0.4684  0.1174  0.0274
 3634SOL     hw14534   0.536   1.049   3.503 -0.4769 -1.0096  0.6978
 3634SOL     hw14535   0.459   0.960   3.408 -0.7263  0.9519 -1.0083
 3634SOL     vw14536   0.461   1.025   3.466 -0.5036  0.0787 -0.0207
 3635SOL     ow14537   1.975   3.382   3.799  0.1804  0.1710 -0.6746
 3635SOL     hw14538   1.999   3.461   3.750  0.2344  0.9961  0.6306
 3635SOL     hw14539   2.042   3.373   3.866 -0.6154 -0.1361  0.1089
 3635SOL     vw14540   1.987   3.392   3.801  0.0826  0.2394 -0.3991
 3636SOL     ow14541   4.845   1.159   6.551 -0.1418  0.5337 -0.0552
 3636SOL     hw14542   4.857   1.064   6.552 -0.7405  0.4531  0.0782
 3636SOL     hw14543   4.761   1.172   6.594  1.4760  1.3836  3.1403
 3636SOL     vw14544   4.835   1.148   6.557 -0.0076  0.6353  0.3841
 3637SOL     ow14545   5.837   0.499   6.555  0.2610  0.1729  0.5007
 3637SOL     hw14546   5.826   0.572   6.493 -0.7001 -1.0625 -0.8366
 3637SOL     hw14547   5.765   0.509   6.617 -1.8298 -1.3165 -1.4976
 3637SOL     vw14548   5.826   0.510   6.555 -0.1416 -0.1866  0.0606
 3638SOL     ow14549   3.154   4.636   0.055 -0.2516  0.0221 -0.1696
 3638SOL     hw14550   3.162   4.550   0.096  1.3227 -0.3517 -1.1792
 3638SOL     hw14551   3.066   4.666   0.079 -0.8138 -1.8327  0.2504
 3638SOL     vw14552   3.143   4.629   0.063 -0.1180 -0.2720 -0.2474
 3639SOL     ow14553   7.002   2.522   2.602  0.2720  0.1786  0.0881
 3639SOL     hw14554   6.987   2.578   2.525  2.9750  1.2615  0.2307
 3639SOL     hw14555   7.086   2.481   2.585  0.9136  0.3884  2.4180
 3639SOL     vw14556   7.011   2.524   2.589  0.7136  0.3490  0.4144
 3640SOL     ow14557   1.209   3.934   1.132 -0.1732  0.4487  0.1012
 3640SOL     hw14558   1.137   3.877   1.104 -1.0425  0.8457  1.4309
 3640SOL     hw14559   1.271   3.876   1.175  0.0994  0.1718 -0.6501
 3640SOL     vw14560   1.207   3.919   1.134 -0.2519  0.4646  0.1774
 3641SOL     ow14561   2.199   1.566   4.400 -0.2042  0.0582  0.4845
 3641SOL     hw14562   2.216   1.485   4.353  0.9912  0.0333  0.9190
 3641SOL     hw14563   2.204   1.542   4.492  0.7669  0.7149  0.6249
 3641SOL     vw14564   2.202   1.552   4.406  0.0817  0.1415  0.5605
 3642SOL     ow14565   0.792   6.590   0.667 -0.4405  0.5964  0.3003
 3642SOL     hw14566   0.828   6.678   0.651 -1.0678  0.8070 -0.0084
 3642SOL     hw14567   0.712   6.606   0.717 -0.9722  0.2691 -0.4135
 3642SOL     vw14568   0.786   6.604   0.671 -0.5934  0.5810  0.1654
 3643SOL     ow14569   4.699   5.798   5.628 -0.2453  0.0854  0.5846
 3643SOL     hw14570   4.682   5.885   5.666  0.9353 -0.6651  3.0548
 3643SOL     hw14571   4.631   5.742   5.666 -1.5641  0.0325 -1.7056
 3643SOL     vw14572   4.687   5.802   5.638 -0.2637 -0.0205  0.6082
 3644SOL     ow14573   5.495   5.439   3.740  0.5481 -0.0066 -0.3420
 3644SOL     hw14574   5.401   5.424   3.739  0.3516  1.0401  0.5572
 3644SOL     hw14575   5.513   5.486   3.658  0.2218  0.1472 -0.3256
 3644SOL     vw14576   5.485   5.443   3.729  0.4787  0.1519 -0.2210
 3645SOL     ow14577   5.004   7.236   6.564 -0.1618 -0.0461  0.2523
 3645SOL     hw14578   5.090   7.279   6.565 -1.2323  2.3153 -0.9584
 3645SOL     hw14579   4.994   7.204   6.474 -0.0461 -1.4737  0.7295
 3645SOL     vw14580   5.014   7.238   6.552 -0.2875  0.0772  0.1557
 3646SOL     ow14581   0.840   6.761   2.129 -0.0409  0.2406  0.4769
 3646SOL     hw14582   0.899   6.693   2.162 -0.2407  0.3169  1.0062
 3646SOL     hw14583   0.896   6.836   2.112  0.1112  0.0965  0.3385
 3646SOL     vw14584   0.855   6.762   2.131 -0.0472  0.2315  0.5283
 3647SOL     ow14585   4.780   4.068   3.848  0.0501 -0.0033  0.0589
 3647SOL     hw14586   4.735   3.993   3.809  1.3675  0.3621 -2.3530
 3647SOL     hw14587   4.735   4.144   3.811  0.8421  0.3639 -0.1648
 3647SOL     vw14588   4.768   4.068   3.838  0.3288  0.0932 -0.2888
 3648SOL     ow14589   6.710   1.542   2.185 -0.3666  0.3550  0.4592
 3648SOL     hw14590   6.761   1.495   2.250 -1.1122  0.5179  1.1841
 3648SOL     hw14591   6.710   1.485   2.108 -2.2335 -1.4763  1.6888
 3648SOL     vw14592   6.716   1.528   2.183 -0.7112  0.1348  0.7170
 3649SOL     ow14593   4.845   0.045   1.824 -0.2712  0.1284  0.2075
 3649SOL     hw14594   4.799   0.015   1.746  1.2052  0.8147 -0.9865
 3649SOL     hw14595   4.937   0.023   1.807  0.0309 -0.0267  1.9212
 3649SOL     vw14596   4.851   0.038   1.811 -0.0365  0.1984  0.2761
 3650SOL     ow14597   1.015   2.533   3.127  0.0714  0.3117 -0.8639
 3650SOL     hw14598   1.077   2.552   3.197 -0.7693 -0.5058  0.1297
 3650SOL     hw14599   1.059   2.468   3.073 -0.6042 -1.7507  0.9340
 3650SOL     vw14600   1.029   2.527   3.129 -0.1286 -0.0682 -0.4956
 3651SOL     ow14601   4.830   6.546   0.269 -0.0708  1.0825 -0.9105
 3651SOL     hw14602   4.834   6.478   0.202  1.2449 -0.7937  0.9625
 3651SOL     hw14603   4.760   6.604   0.240 -1.1117 -0.9392 -2.6986
 3651SOL     vw14604   4.821   6.545   0.256 -0.0348  0.5682 -0.8993
 3652SOL     ow14605   7.347   7.364   3.286 -0.3803 -0.3165 -0.1748
 3652SOL     hw14606   7.297   7.438   3.252 -0.1359 -0.0668  0.0144
 3652SOL     hw14607   7.281   7.296   3.301 -0.7442  0.1915  0.5769
 3652SOL     vw14608   7.332   7.365   3.284 -0.3960 -0.2165 -0.0505
 3653SOL     ow14609   5.299   5.749   6.896 -0.0615 -0.3678 -0.2305
 3653SOL     hw14610   5.342   5.706   6.970 -0.6236 -1.6045 -0.6016
 3653SOL     hw14611   5.323   5.695   6.820  0.6994  1.0072 -1.0017
 3653SOL     vw14612   5.308   5.736   6.896 -0.0353 -0.3495 -0.3812
 3654SOL     ow14613   1.968   2.232   6.632  0.2182 -0.2798  0.5867
 3654SOL     hw14614   1.903   2.300   6.618  0.6705 -0.0347 -0.4826
 3654SOL     hw14615   1.974   2.187   6.547 -1.0793 -2.5816  1.6435
 3654SOL     vw14616   1.960   2.235   6.619  0.1067 -0.5512  0.5851
 3655SOL     ow14617   2.418   1.500   3.400  0.1876  0.8972  0.3582
 3655SOL     hw14618   2.334   1.465   3.371  0.7973 -1.5846  1.3236
 3655SOL     hw14619   2.479   1.427   3.389  2.3124  2.6889 -0.5423
 3655SOL     vw14620   2.415   1.486   3.395  0.5484  0.8062  0.3668
 3656SOL     ow14621   3.875   5.318   3.531 -0.5093 -0.3737 -0.2854
 3656SOL     hw14622   3.781   5.301   3.524 -0.3434 -0.7537 -1.8518
 3656SOL     hw14623   3.883   5.375   3.608 -2.3717  2.1025 -1.7676
 3656SOL     vw14624   3.863   5.323   3.540 -0.7331 -0.0970 -0.6876
 3657SOL     ow14625   6.011   1.231   6.903 -0.1614  0.0851  0.6598
 3657SOL     hw14626   6.019   1.293   6.975 -1.7644  0.4774  0.5370
 3657SOL     hw14627   6.013   1.145   6.945  0.9999  0.2388  0.9410
 3657SOL     vw14628   6.012   1.228   6.918 -0.2196  0.1571  0.6807
 3658SOL     ow14629   5.771   6.083   1.076 -0.0352 -0.7140 -0.2763
 3658SOL     hw14630   5.832   6.030   1.026  2.1579 -0.3753  1.8583
 3658SOL     hw14631   5.734   6.023   1.140 -0.7775 -0.5558 -0.5423
 3658SOL     vw14632   5.774   6.068   1.078  0.1559 -0.6483 -0.0298
 3659SOL     ow14633   4.760   3.523   4.544 -0.3591 -0.2856 -0.1344
 3659SOL     hw14634   4.701   3.462   4.589 -0.9009 -0.5150 -1.1250
 3659SOL     hw14635   4.704   3.597   4.519 -0.3016 -0.6105 -1.2808
 3659SOL     vw14636   4.745   3.524   4.547 -0.4230 -0.3587 -0.4163
 3660SOL     ow14637   3.568   1.678   4.565  0.1159  0.1256 -0.3134
 3660SOL     hw14638   3.537   1.665   4.655 -1.0427  1.6291 -0.4538
 3660SOL     hw14639   3.497   1.646   4.510  0.1441  0.6726 -0.6767
 3660SOL     vw14640   3.555   1.672   4.570 -0.0333  0.3962 -0.3798
 3661SOL     ow14641   4.831   0.144   0.746  0.7720  0.5825 -0.2934
 3661SOL     hw14642   4.877   0.215   0.701 -0.6110  0.7946 -1.4535
 3661SOL     hw14643   4.753   0.186   0.783  0.4991 -0.1306 -0.0432
 3661SOL     vw14644   4.826   0.159   0.745  0.5534  0.5164 -0.4135
 3662SOL     ow14645   2.540   1.080   1.319 -0.1871  0.1729 -0.5268
 3662SOL     hw14646   2.581   1.059   1.403  0.9424  0.1121 -1.0795
 3662SOL     hw14647   2.493   1.000   1.295 -0.3199  0.1094 -0.0688
 3662SOL     vw14648   2.539   1.067   1.327 -0.0556  0.1565 -0.5393
 3663SOL     ow14649   1.304   4.635   4.630  0.3402 -0.3819  0.2419
 3663SOL     hw14650   1.353   4.568   4.583  0.4855 -0.3714  0.3785
 3663SOL     hw14651   1.310   4.610   4.722  1.9828  0.8277  0.5139
 3663SOL     vw14652   1.311   4.623   4.636  0.5760 -0.2208  0.2954
 3664SOL     ow14653   1.087   6.544   2.443  0.3452  0.2398  0.2495
 3664SOL     hw14654   1.096   6.453   2.469 -1.1733 -0.2166 -0.6569
 3664SOL     hw14655   0.997   6.567   2.468 -0.5541  0.3440 -2.6052
 3664SOL     vw14656   1.076   6.535   2.449  0.0262  0.1934 -0.2466
 3665SOL     ow14657   3.535   3.091   5.644 -0.5420  0.0369 -0.0804
 3665SOL     hw14658   3.597   3.064   5.712 -1.2384  0.0883  0.5822
 3665SOL     hw14659   3.479   3.015   5.631 -0.5643  0.1109 -0.4353
 3665SOL     vw14660   3.536   3.077   5.651 -0.6368  0.0534 -0.0398
 3666SOL     ow14661   6.713   6.578   2.197 -0.0959  0.7425  0.4783
 3666SOL     hw14662   6.798   6.563   2.239  0.3338  0.6398 -0.3942
 3666SOL     hw14663   6.727   6.554   2.106 -1.2173  0.2262  0.4282
 3666SOL     vw14664   6.726   6.573   2.191 -0.1872  0.6609  0.3567
 3667SOL     ow14665   3.757   1.397   6.838 -0.1856 -0.0496 -0.1453
 3667SOL     hw14666   3.829   1.388   6.776 -0.0999  0.0924 -0.0680
 3667SOL     hw14667   3.787   1.464   6.900 -0.0115 -0.6395  0.4172
 3667SOL     vw14668   3.770   1.405   6.838 -0.1513 -0.1087 -0.0608
 3668SOL     ow14669   7.384   1.271   3.427  0.1028  0.3237  0.1933
 3668SOL     hw14670   7.393   1.187   3.381 -1.0992 -0.0083  0.5301
 3668SOL     hw14671   7.466   1.317   3.410  1.4087 -1.5151  1.2070
 3668SOL     vw14672   7.396   1.266   3.419  0.1163  0.0373  0.3716
 3669SOL     ow14673   3.027   0.017   3.178  0.4049 -0.3615 -0.0190
 3669SOL     hw14674   3.097   0.082   3.178  0.2507 -0.1932 -0.1660
 3669SOL     hw14675   2.947   0.069   3.187  0.2419 -0.4829 -0.7182
 3669SOL     vw14676   3.026   0.033   3.179  0.3631 -0.3553 -0.1308
 3670SOL     ow14677   0.588   3.908   4.520 -0.0241 -0.2510 -0.0717
 3670SOL     hw14678   0.569   3.816   4.538 -2.2603  0.4012  1.3949
 3670SOL     hw14679   0.679   3.920   4.546  1.2594 -2.6133 -2.9699
 3670SOL     vw14680   0.597   3.897   4.526 -0.1498 -0.4766 -0.2606
 3671SOL     ow14681   0.036   2.843   6.030  0.0275  0.2620 -0.1789
 3671SOL     hw14682   0.111   2.900   6.047  1.0355 -0.8484 -0.7515
 3671SOL     hw14683   0.047   2.771   6.093 -2.2471  1.5344  1.8513
 3671SOL     vw14684   0.047   2.841   6.041 -0.1396  0.2834  0.0131
 3672SOL     ow14685   2.650   0.615   2.795 -0.6123 -0.1155  0.0373
 3672SOL     hw14686   2.692   0.578   2.718  0.7112  1.3548  0.0014
 3672SOL     hw14687   2.584   0.676   2.761  1.5566  2.3338 -0.0740
 3672SOL     vw14688   2.647   0.618   2.781 -0.1515  0.4016  0.0179
 3673SOL     ow14689   4.272   3.632   4.322 -0.7339  0.5213 -0.2309
 3673SOL     hw14690   4.316   3.556   4.361 -2.4444 -0.6305 -0.4397
 3673SOL     hw14691   4.324   3.707   4.351  0.1611 -0.5974  1.2073
 3673SOL     vw14692   4.285   3.632   4.331 -0.8419  0.2218 -0.0689
 3674SOL     ow14693   2.737   1.366   2.953 -0.3724 -0.2200 -0.1537
 3674SOL     hw14694   2.737   1.280   2.994  0.8815  0.0612  0.4801
 3674SOL     hw14695   2.731   1.428   3.025  0.0786  0.2522 -0.5151
 3674SOL     vw14696   2.736   1.363   2.968 -0.1475 -0.1206 -0.1179
 3675SOL     ow14697   0.205   5.045   0.009 -0.3553  0.1526  0.4512
 3675SOL     hw14698   0.163   5.131  -0.002 -1.0100 -0.2913 -0.7189
 3675SOL     hw14699   0.205   5.007  -0.079 -1.5353 -1.7164  1.2047
 3675SOL     vw14700   0.200   5.052  -0.004 -0.5974 -0.1526  0.3960
 3676SOL     ow14701   6.149   4.635   3.711  0.0811 -0.0251 -0.2067
 3676SOL     hw14702   6.184   4.614   3.798  0.6565 -1.4114 -0.7484
 3676SOL     hw14703   6.193   4.574   3.652  1.2974  2.2573 -1.8045
 3676SOL     vw14704   6.160   4.624   3.715  0.3176  0.0930 -0.4890
 3677SOL     ow14705   3.510   0.258   3.929 -0.4555  0.0451 -0.7424
 3677SOL     hw14706   3.517   0.303   4.014  0.2113 -1.1962 -0.1167
 3677SOL     hw14707   3.556   0.175   3.942  1.4161  0.6719 -2.9479
 3677SOL     vw14708   3.517   0.253   3.942 -0.1206 -0.0360 -0.9508
 3678SOL     ow14709   7.119   3.532   7.007  0.2295 -0.4080  0.5259
 3678SOL     hw14710   7.073   3.577   6.936  0.2527 -0.5146  0.4444
 3678SOL     hw14711   7.094   3.440   6.997 -0.1886 -0.3463  0.9723
 3678SOL     vw14712   7.109   3.526   6.996  0.1774 -0.4140  0.5739
 3679SOL     ow14713   6.756   0.305   3.117 -0.3049 -0.1105 -0.3563
 3679SOL     hw14714   6.831   0.264   3.160 -0.0655  1.4062  0.7322
 3679SOL     hw14715   6.789   0.388   3.083 -1.3354  0.2956 -0.4040
 3679SOL     vw14716   6.770   0.310   3.118 -0.4091  0.1432 -0.2190
 3680SOL     ow14717   2.164   4.580   2.529  0.0196 -0.0639  0.5201
 3680SOL     hw14718   2.116   4.612   2.606 -1.1577 -2.5742  0.9163
 3680SOL     hw14719   2.104   4.594   2.456 -0.7879 -1.8330  0.7947
 3680SOL     vw14720   2.150   4.586   2.530 -0.2424 -0.6287  0.6087
 3681SOL     ow14721   4.197   3.517   3.613  0.5494 -0.0754  0.3510
 3681SOL     hw14722   4.166   3.603   3.640 -0.7632 -1.1658  2.6881
 3681SOL     hw14723   4.292   3.524   3.614  0.4599  1.6571 -0.7180
 3681SOL     vw14724   4.205   3.529   3.617  0.3645  0.0092  0.5183
 3682SOL     ow14725   0.071   4.675   5.795 -0.3218  0.7574 -0.7735
 3682SOL     hw14726   0.123   4.715   5.725  0.6585 -0.0964 -0.5661
 3682SOL     hw14727  -0.006   4.640   5.750  1.6823 -2.4830 -2.1034
 3682SOL     vw14728   0.068   4.676   5.780  0.0719  0.2170 -0.9217
 3683SOL     ow14729   4.398   5.196   4.196  0.0392 -0.3190 -0.5522
 3683SOL     hw14730   4.412   5.204   4.290 -0.1110  0.9747 -0.6250
 3683SOL     hw14731   4.309   5.228   4.182 -0.0767 -0.8694 -1.0896
 3683SOL     vw14732   4.388   5.201   4.207  0.0041 -0.2210 -0.6325
 3684SOL     ow14733   5.966   3.400   2.948  0.2065  0.1541  0.4515
 3684SOL     hw14734   5.880   3.405   2.989  0.1194  0.5661  0.2198
 3684SOL     hw14735   5.948   3.407   2.854  0.5779  1.4062  0.4528
 3684SOL     vw14736   5.952   3.402   2.941  0.2439  0.3737  0.4210
 3685SOL     ow14737   4.662   6.948   4.905 -0.2822 -0.0366 -0.2951
 3685SOL     hw14738   4.585   7.002   4.918 -1.5039 -1.8299  0.3126
 3685SOL     hw14739   4.700   6.938   4.992  0.0312 -0.0522 -0.4283
 3685SOL     vw14740   4.657   6.954   4.918 -0.4020 -0.2751 -0.2325
 3686SOL     ow14741   3.298   5.537   1.996  0.3611 -0.4526 -0.3332
 3686SOL     hw14742   3.287   5.559   2.088 -0.3000  0.6018 -0.6501
 3686SOL     hw14743   3.370   5.593   1.966 -0.0586 -0.1011 -0.6876
 3686SOL     vw14744   3.306   5.547   2.004  0.2185 -0.2673 -0.4218
 3687SOL     ow14745   6.032   2.254   1.004 -0.3597  0.1898  0.0873
 3687SOL     hw14746   5.983   2.323   0.959  1.4453  1.5352  0.0600
 3687SOL     hw14747   6.111   2.243   0.952  0.5816 -0.0554  1.5210
 3687SOL     vw14748   6.036   2.262   0.992  0.0026  0.3349  0.2729
 3688SOL     ow14749   2.022   1.522   3.851 -0.0391  0.1905  0.2432
 3688SOL     hw14750   2.003   1.430   3.868  1.2547 -0.2058 -0.3466
 3688SOL     hw14751   2.096   1.542   3.908 -0.8533  1.1305  1.0169
 3688SOL     vw14752   2.029   1.513   3.861  0.0241  0.2623  0.2675
 3689SOL     ow14753   3.191   3.922   5.689  0.1820 -0.0920  0.2837
 3689SOL     hw14754   3.246   3.871   5.749 -0.4497 -0.2440  0.7444
 3689SOL     hw14755   3.164   3.860   5.622  0.3325 -0.0879  0.2190
 3689SOL     vw14756   3.195   3.907   5.688  0.1184 -0.1116  0.3359
 3690SOL     ow14757   3.189   0.548   1.969  0.4021  0.0534  0.4983
 3690SOL     hw14758   3.120   0.614   1.974  0.1946 -0.0145 -1.0267
 3690SOL     hw14759   3.160   0.488   1.900  0.4135 -1.8642  2.0508
 3690SOL     vw14760   3.176   0.549   1.961  0.3763 -0.2086  0.5019
 3691SOL     ow14761   0.881   7.062   5.964 -0.3738  0.3392  0.1515
 3691SOL     hw14762   0.949   7.067   5.898 -0.0679  1.8014  0.5266
 3691SOL     hw14763   0.915   7.002   6.030 -0.6674 -1.0972 -0.9615
 3691SOL     vw14764   0.894   7.055   5.964 -0.3722  0.3426  0.0539
 3692SOL     ow14765   1.222   6.127   2.435  0.1862  0.4788 -0.1773
 3692SOL     hw14766   1.161   6.091   2.371  0.0737  0.7714 -0.2362
 3692SOL     hw14767   1.167   6.182   2.492 -0.1041 -1.3903  1.4446
 3692SOL     vw14768   1.207   6.130   2.434  0.1330  0.2708  0.0290
 3693SOL     ow14769   4.931   4.254   0.158 -0.5521  0.1135  0.1497
 3693SOL     hw14770   4.938   4.290   0.246  0.1800  0.9779 -0.2392
 3693SOL     hw14771   4.881   4.319   0.109 -0.3413 -0.0092 -0.2397
 3693SOL     vw14772   4.926   4.267   0.163 -0.4275  0.2112  0.0470
 3694SOL     ow14773   7.141   1.115   5.245 -0.0129  0.7597 -0.3495
 3694SOL     hw14774   7.196   1.171   5.191  0.9406 -1.1293 -1.4437
 3694SOL     hw14775   7.058   1.110   5.198  0.4163  0.0712 -1.0610
 3694SOL     vw14776   7.137   1.122   5.232  0.1693  0.4196 -0.5877
 3695SOL     ow14777   1.342   3.072   1.055 -0.2057  0.1191  0.3784
 3695SOL     hw14778   1.354   3.166   1.072  0.0239 -0.0438  1.1197
 3695SOL     hw14779   1.336   3.067   0.959  0.0959  0.8535  0.3080
 3695SOL     vw14780   1.343   3.084   1.044 -0.1357  0.1945  0.4669
 3696SOL     ow14781   2.783   6.049   6.247  0.0604 -0.1666 -0.0528
 3696SOL     hw14782   2.736   6.127   6.218  0.4178  0.2432  0.4521
 3696SOL     hw14783   2.875   6.076   6.252  0.1085 -0.4370  0.7066
 3696SOL     vw14784   2.789   6.063   6.244  0.1141 -0.1481  0.1140
 3697SOL     ow14785   6.446   6.678   0.167  0.4637 -0.1649 -0.1470
 3697SOL     hw14786   6.481   6.658   0.080 -1.7048  2.6448 -1.8382
 3697SOL     hw14787   6.487   6.761   0.191 -0.6680  0.2496  0.4307
 3697SOL     vw14788   6.456   6.686   0.159  0.0281  0.2606 -0.2939
 3698SOL     ow14789   2.676   4.803   7.441 -0.2137  0.0783  0.3705
 3698SOL     hw14790   2.751   4.775   7.494  0.3125 -2.2766 -1.4424
 3698SOL     hw14791   2.600   4.788   7.498  0.1884 -3.8064  0.1753
 3698SOL     vw14792   2.676   4.797   7.456 -0.0913 -0.7448  0.1054
 3699SOL     ow14793   0.896   2.347   7.375  0.0881 -0.0687  0.3988
 3699SOL     hw14794   0.930   2.334   7.464 -2.8050 -2.0576  1.3907
 3699SOL     hw14795   0.910   2.263   7.331 -0.2438  0.2584 -0.3525
 3699SOL     vw14796   0.902   2.334   7.381 -0.3375 -0.2880  0.4306
 3700SOL     ow14797   6.781   3.269   0.349  0.3714  0.6546 -0.1984
 3700SOL     hw14798   6.792   3.363   0.336  1.4452  0.7728  1.3662
 3700SOL     hw14799   6.870   3.233   0.343  0.0504 -0.1763 -0.1156
 3700SOL     vw14800   6.794   3.277   0.346  0.4704  0.5606  0.0190
 3701SOL     ow14801   4.921   2.480   5.097  0.2196  0.6679 -0.7491
 3701SOL     hw14802   4.830   2.505   5.084  0.0948 -0.0634 -1.3545
 3701SOL     hw14803   4.928   2.394   5.058  1.2662  0.8743 -1.0476
 3701SOL     vw14804   4.910   2.472   5.090  0.3409  0.5987 -0.8683
 3702SOL     ow14805   4.275   5.279   2.150  0.2644  0.0881 -0.1434
 3702SOL     hw14806   4.298   5.360   2.105  1.0229  0.3531  0.6795
 3702SOL     hw14807   4.334   5.277   2.226 -0.2085 -0.8969  0.2091
 3702SOL     vw14808   4.286   5.289   2.154  0.3023 -0.0069  0.0118
 3703SOL     ow14809   1.458   1.848   3.507 -0.0900  0.0103 -0.2390
 3703SOL     hw14810   1.519   1.827   3.577  0.8161  1.0469 -0.6983
 3703SOL     hw14811   1.443   1.942   3.514 -0.4384  0.0287 -1.0771
 3703SOL     vw14812   1.464   1.857   3.517 -0.0165  0.1495 -0.4101
 3704SOL     ow14813   4.631   5.871   6.727 -0.4365  0.3622  0.3854
 3704SOL     hw14814   4.674   5.945   6.769 -0.8595  0.1594  1.1858
 3704SOL     hw14815   4.607   5.813   6.798  4.0952 -3.0094 -0.4242
 3704SOL     vw14816   4.633   5.873   6.742  0.1056 -0.1094  0.3841
 3705SOL     ow14817   6.300   0.184   3.021  0.3045  0.3893  0.4295
 3705SOL     hw14818   6.226   0.139   3.060  1.1641 -1.6060 -0.1261
 3705SOL     hw14819   6.284   0.179   2.926  0.5561  1.0198  0.3496
 3705SOL     vw14820   6.288   0.178   3.013  0.4511  0.2093  0.3456
 3706SOL     ow14821   4.072   6.389   0.350  0.0161 -0.3158 -0.0615
 3706SOL     hw14822   4.122   6.470   0.355  0.0796 -0.3695  0.2054
 3706SOL     hw14823   4.137   6.320   0.368  0.0043 -0.4381 -0.4869
 3706SOL     vw14824   4.088   6.390   0.353  0.0229 -0.3393 -0.0824
 3707SOL     ow14825   1.152   2.367   0.575  1.0186  0.4151 -0.1162
 3707SOL     hw14826   1.091   2.422   0.622  2.1949  1.3302  0.3756
 3707SOL     hw14827   1.239   2.402   0.596  1.6839 -0.3097 -1.4608
 3707SOL     vw14828   1.156   2.379   0.584  1.2616  0.4402 -0.2287
 3708SOL     ow14829   4.634   0.384   0.438  0.5213  0.7732  0.6282
 3708SOL     hw14830   4.554   0.389   0.489 -1.2454 -0.4013 -1.8419
 3708SOL     hw14831   4.648   0.473   0.406  0.6291  1.1260  1.6362
 3708SOL     vw14832   4.625   0.396   0.440  0.3021  0.6648  0.4353
 3709SOL     ow14833   1.345   6.404   3.961 -0.3609  0.5972 -0.0489
 3709SOL     hw14834   1.278   6.369   4.020  1.3638 -0.1051  1.5830
 3709SOL     hw14835   1.345   6.343   3.887 -2.6833  1.6024 -0.9876
 3709SOL     vw14836   1.336   6.391   3.959 -0.4398  0.6373  0.0427
 3710SOL     ow14837   1.512   7.122   5.495 -0.2738 -0.1554  0.5071
 3710SOL     hw14838   1.541   7.213   5.507  0.4198 -0.5560  2.0121
 3710SOL     hw14839   1.439   7.112   5.555 -3.3804  0.6550 -2.7929
 3710SOL     vw14840   1.506   7.133   5.504 -0.5922 -0.1013  0.2701
 3711SOL     ow14841   1.474   6.022   2.694 -0.1496 -0.1306 -0.1831
 3711SOL     hw14842   1.499   5.997   2.783 -0.9109 -0.8633 -0.1681
 3711SOL     hw14843   1.388   5.983   2.681 -0.8141  1.4097 -0.6323
 3711SOL     vw14844   1.466   6.014   2.704 -0.3378 -0.0243 -0.2403
 3712SOL     ow14845   5.247   0.135   6.590 -0.0925  0.0939 -0.4602
 3712SOL     hw14846   5.323   0.159   6.642 -0.1089 -0.6117 -0.1017
 3712SOL     hw14847   5.175   0.133   6.652  0.1788 -2.3806 -0.1365
 3712SOL     vw14848   5.248   0.138   6.605 -0.0587 -0.3257 -0.3700
 3713SOL     ow14849   2.478   6.873   3.554  0.5551 -0.1369 -0.1140
 3713SOL     hw14850   2.535   6.871   3.631 -0.2977 -0.6688  0.5218
 3713SOL     hw14851   2.509   6.948   3.503  0.2824  1.0850  1.4214
 3713SOL     vw14852   2.490   6.883   3.557  0.4067 -0.0458  0.1726
 3714SOL     ow14853   4.653   3.282   4.009  0.0447 -0.2950 -0.0248
 3714SOL     hw14854   4.623   3.310   3.923 -0.6926  1.6224  0.8172
 3714SOL     hw14855   4.744   3.309   4.013 -0.6161  2.0865  0.7258
 3714SOL     vw14856   4.661   3.289   3.999 -0.1397  0.2722  0.1854
 3715SOL     ow14857   3.570   6.071   2.640  0.3062 -0.0445  0.0992
 3715SOL     hw14858   3.555   6.091   2.548  0.5668  0.3048  0.1291
 3715SOL     hw14859   3.516   5.994   2.657 -1.6623  1.3263  0.2833
 3715SOL     vw14860   3.561   6.063   2.630  0.0808  0.1822  0.1276
 3716SOL     ow14861   7.086   0.986   2.263 -0.2986  0.2637  0.1655
 3716SOL     hw14862   7.137   0.915   2.301  0.4539  0.4713 -0.4225
 3716SOL     hw14863   7.017   1.003   2.327  1.1944  0.9182  1.6872
 3716SOL     vw14864   7.084   0.979   2.277 -0.0021  0.3774  0.2886
 3717SOL     ow14865   4.010   5.675   5.889 -0.0347 -0.8316 -0.1376
 3717SOL     hw14866   4.050   5.597   5.927  2.0842  0.3821  0.3074
 3717SOL     hw14867   4.008   5.659   5.795  2.4882 -0.5796 -0.2827
 3717SOL     vw14868   4.015   5.663   5.882  0.5777 -0.6382 -0.0980
 3718SOL     ow14869   5.062   5.186   6.628 -0.0809 -0.6902  0.1183
 3718SOL     hw14870   5.004   5.204   6.702 -0.0577 -2.0413  0.4874
 3718SOL     hw14871   5.137   5.243   6.642  0.0335 -1.1017  1.2837
 3718SOL     vw14872   5.064   5.196   6.640 -0.0625 -0.9227  0.3207
 3719SOL     ow14873   4.999   3.656   1.327 -0.8033 -0.1710  0.4830
 3719SOL     hw14874   4.965   3.568   1.311 -1.5058 -0.0284  1.1230
 3719SOL     hw14875   4.954   3.712   1.264  0.2698 -0.3868 -0.4967
 3719SOL     vw14876   4.988   3.652   1.317 -0.7544 -0.1808  0.4382
 3720SOL     ow14877   7.301   3.066   0.864 -0.3684 -0.0258 -0.0767
 3720SOL     hw14878   7.291   3.138   0.926 -1.4360  0.0599 -0.3205
 3720SOL     hw14879   7.311   2.988   0.919 -1.1763  0.0660  0.2203
 3720SOL     vw14880   7.301   3.065   0.879 -0.6158 -0.0024 -0.0697
 3721SOL     ow14881   1.624   0.116   6.084  0.1605 -0.5911 -0.3981
 3721SOL     hw14882   1.673   0.196   6.062  1.7459 -1.8600 -1.8166
 3721SOL     hw14883   1.687   0.063   6.133 -1.0433 -0.8011  0.9837
 3721SOL     vw14884   1.639   0.120   6.087  0.2109 -0.7862 -0.4032
 3722SOL     ow14885   4.766   3.184   2.071 -0.0831 -0.1457 -0.4020
 3722SOL     hw14886   4.766   3.136   2.153 -1.4536  0.5846  0.0655
 3722SOL     hw14887   4.673   3.196   2.050  0.2210  1.2964 -1.0770
 3722SOL     vw14888   4.754   3.179   2.079 -0.2239  0.1409 -0.4293
 3723SOL     ow14889   3.243   5.952   2.064 -0.3608 -0.8205 -0.5978
 3723SOL     hw14890   3.176   6.020   2.072  0.7953  0.2746  0.3418
 3723SOL     hw14891   3.304   5.971   2.135  1.6628 -0.9248 -2.2127
 3723SOL     vw14892   3.242   5.964   2.074  0.0587 -0.6897 -0.6869
 3724SOL     ow14893   6.315   7.283   3.189 -0.0754 -1.1911 -0.3527
 3724SOL     hw14894   6.255   7.209   3.198  0.4331 -1.4151  1.4433
 3724SOL     hw14895   6.259   7.360   3.201 -0.0365 -1.3999  1.4421
 3724SOL     vw14896   6.299   7.283   3.192 -0.0033 -1.2479  0.1210
 3725SOL     ow14897   5.418   1.577   0.254 -0.0433  0.1276  0.2532
 3725SOL     hw14898   5.334   1.578   0.208 -1.4779  0.2976  2.7321
 3725SOL     hw14899   5.479   1.617   0.192 -1.8969  0.5528 -1.4127
 3725SOL     vw14900   5.415   1.583   0.239 -0.4771  0.2061  0.3604
 3726SOL     ow14901   2.677   2.265   5.590 -0.6994  0.6513  0.1442
 3726SOL     hw14902   2.613   2.283   5.658 -1.1167  1.1209 -0.3647
 3726SOL     hw14903   2.697   2.172   5.601  1.8236  1.3750  3.0864
 3726SOL     vw14904   2.671   2.255   5.600 -0.4215  0.8087  0.4654
 3727SOL     ow14905   6.815   1.482   0.234  0.2164 -0.0345 -0.3149
 3727SOL     hw14906   6.759   1.550   0.272  0.6157 -0.1146  0.4443
 3727SOL     hw14907   6.842   1.429   0.309  1.8122  0.3729 -0.5717
 3727SOL     vw14908   6.811   1.484   0.249  0.4797  0.0086 -0.2486
 3728SOL     ow14909   4.854   3.852   4.634  0.1751 -0.0987 -0.2888
 3728SOL     hw14910   4.821   3.868   4.722  1.1439 -1.3898  0.3345
 3728SOL     hw14911   4.947   3.832   4.647  0.1094 -1.2781 -1.4976
 3728SOL     vw14912   4.862   3.852   4.647  0.2944 -0.4247 -0.3660
 3729SOL     ow14913   0.430   6.413   6.519  0.1249 -0.0739  0.1106
 3729SOL     hw14914   0.463   6.368   6.442  1.1112  0.1437  0.3988
 3729SOL     hw14915   0.433   6.506   6.497 -3.3751 -0.0922 -1.0806
 3729SOL     vw14916   0.435   6.419   6.506 -0.2067 -0.0477 -0.0086
 3730SOL     ow14917   1.718   1.485   4.425 -0.7865 -0.6016 -0.4777
 3730SOL     hw14918   1.642   1.445   4.469 -1.1902  0.8077  0.1660
 3730SOL     hw14919   1.683   1.566   4.387  0.2148 -0.3732 -0.9280
 3730SOL     vw14920   1.703   1.491   4.426 -0.7076 -0.3855 -0.4520
 3731SOL     ow14921   7.130   7.291   1.823 -0.4420  0.1560  0.1392
 3731SOL     hw14922   7.095   7.277   1.735 -1.2973 -0.6368  0.5912
 3731SOL     hw14923   7.225   7.280   1.812 -0.3931  1.4346 -0.9245
 3731SOL     vw14924   7.138   7.288   1.810 -0.5484  0.2201  0.0585
 3732SOL     ow14925   3.601   4.879   1.436 -0.0330 -0.3208 -0.2322
 3732SOL     hw14926   3.669   4.886   1.368  0.1715 -0.2968 -0.0241
 3732SOL     hw14927   3.529   4.933   1.403  0.3439  0.2829 -0.0926
 3732SOL     vw14928   3.600   4.887   1.422  0.0436 -0.2382 -0.1863
 3733SOL     ow14929   4.583   7.058   7.466 -0.2413 -0.1265 -0.0557
 3733SOL     hw14930   4.568   7.015   7.550 -0.5978  1.1308  0.5316
 3733SOL     hw14931   4.498   7.092   7.440  0.0263  0.1825 -0.5446
 3733SOL     vw14932   4.570   7.057   7.473 -0.2530  0.0803 -0.0427
 3734SOL     ow14933   3.265   3.944   1.179  0.1644  0.2436 -0.1994
 3734SOL     hw14934   3.359   3.958   1.175  0.4182 -0.8976  1.0237
 3734SOL     hw14935   3.228   4.011   1.122  1.7548  0.1630 -1.4025
 3734SOL     vw14936   3.272   3.954   1.171  0.4077  0.0823 -0.1968
 3735SOL     ow14937   6.723   0.964   4.719  0.4310  0.5094  0.1667
 3735SOL     hw14938   6.757   0.882   4.682 -0.7803 -0.5344  1.2416
 3735SOL     hw14939   6.656   0.992   4.656  0.6411  0.5107 -0.0569
 3735SOL     vw14940   6.718   0.957   4.706  0.2987  0.3719  0.2787
 3736SOL     ow14941   2.094   5.512   2.387 -0.6789 -0.2466 -0.6699
 3736SOL     hw14942   2.076   5.431   2.339  0.7696 -0.9940 -0.0307
 3736SOL     hw14943   2.077   5.490   2.479 -1.2311  0.4802 -0.5921
 3736SOL     vw14944   2.090   5.499   2.393 -0.5606 -0.2494 -0.5752
 3737SOL     ow14945   2.884   1.487   5.592  0.0802 -0.3533  0.2616
 3737SOL     hw14946   2.834   1.475   5.512  0.2819  1.0589 -0.1014
 3737SOL     hw14947   2.941   1.411   5.597 -1.2568 -1.4076  0.0797
 3737SOL     vw14948   2.885   1.475   5.582 -0.0697 -0.3061  0.1900
 3738SOL     ow14949   6.616   6.082   4.884  0.5467 -0.1938 -0.0221
 3738SOL     hw14950   6.560   6.028   4.940  1.3505 -0.9063  0.1248
 3738SOL     hw14951   6.603   6.047   4.796 -0.9059  1.0871 -0.3514
 3738SOL     vw14952   6.607   6.070   4.879  0.4611 -0.1190 -0.0463
 3739SOL     ow14953   6.818   0.722   7.249  0.0051  0.0300 -0.0050
 3739SOL     hw14954   6.834   0.700   7.157 -1.6903 -0.4550 -0.2233
 3739SOL     hw14955   6.875   0.797   7.266  2.3522 -1.5028 -0.6491
 3739SOL     vw14956   6.828   0.729   7.239  0.0911 -0.2362 -0.1185
 3740SOL     ow14957   3.496   1.119   2.645 -0.4470  0.1371  0.2774
 3740SOL     hw14958   3.445   1.051   2.601  2.0497 -1.6519 -0.0850
 3740SOL     hw14959   3.505   1.088   2.735 -0.5052  0.7571  0.5029
 3740SOL     vw14960   3.491   1.106   2.651 -0.1253 -0.0172  0.2594
 3741SOL     ow14961   3.062   5.417   2.354  0.3798 -0.2917  0.1986
 3741SOL     hw14962   3.062   5.396   2.447  0.1507 -1.7572 -0.0988
 3741SOL     hw14963   3.144   5.465   2.340 -1.0149  2.7827  1.6748
 3741SOL     vw14964   3.073   5.420   2.364  0.1656 -0.0796  0.3541
 3742SOL     ow14965   3.175   4.995   1.954  0.3847  0.0052  0.0332
 3742SOL     hw14966   3.136   4.955   1.877  2.3894  0.4428 -1.3012
 3742SOL     hw14967   3.268   4.971   1.949  1.1287  2.4094  0.6982
 3742SOL     vw14968   3.182   4.987   1.943  0.7472  0.3805 -0.0551
 3743SOL     ow14969   5.405   4.683   1.642 -0.6204  0.3847  0.5488
 3743SOL     hw14970   5.317   4.653   1.663 -0.0428 -1.4369  0.4824
 3743SOL     hw14971   5.462   4.635   1.701  0.3442  1.7186  0.7591
 3743SOL     vw14972   5.401   4.673   1.653 -0.4170  0.3204  0.5679
 3744SOL     ow14973   2.168   4.325   2.483  0.1714 -0.7344 -0.2318
 3744SOL     hw14974   2.199   4.410   2.513  0.2211 -1.5354  2.2180
 3744SOL     hw14975   2.144   4.339   2.391  1.5471  1.5263 -0.3264
 3744SOL     vw14976   2.169   4.338   2.475  0.3595 -0.5417  0.0789
 3745SOL     ow14977   1.388   2.021   5.154 -0.1902 -0.2708  0.1001
 3745SOL     hw14978   1.408   1.931   5.127 -1.8978 -1.2453  1.8086
 3745SOL     hw14979   1.302   2.014   5.196 -0.8041  2.3660 -0.5780
 3745SOL     vw14980   1.379   2.008   5.156 -0.4965 -0.0513  0.2363
 3746SOL     ow14981   2.444   2.582   3.135 -0.0858  0.0455 -0.0112
 3746SOL     hw14982   2.489   2.520   3.193  1.0613 -0.2581 -1.1680
 3746SOL     hw14983   2.379   2.529   3.090  0.7751 -0.3050 -0.8698
 3746SOL     vw14984   2.441   2.567   3.137  0.1792 -0.0408 -0.2770
 3747SOL     ow14985   6.219   6.170   2.951 -0.0405 -0.2172 -0.2145
 3747SOL     hw14986   6.237   6.256   2.913  0.0572  0.4136  1.1851
 3747SOL     hw14987   6.306   6.131   2.965  0.0725  0.4896  1.3495
 3747SOL     vw14988   6.233   6.176   2.948 -0.0126 -0.0408  0.1764
 3748SOL     ow14989   0.197   2.470   4.439  0.3238 -0.5693  0.2688
 3748SOL     hw14990   0.103   2.466   4.455  0.2204  0.5280  0.0608
 3748SOL     hw14991   0.206   2.535   4.369  1.1771 -1.2536 -0.2651
 3748SOL     vw14992   0.186   2.478   4.432  0.4227 -0.5147  0.1709
 3749SOL     ow14993   3.098   5.109   1.421 -0.3930  0.0091  0.0907
 3749SOL     hw14994   3.188   5.083   1.398  0.6394  2.2685  1.2607
 3749SOL     hw14995   3.070   5.045   1.486  0.3615 -0.7186 -0.2838
 3749SOL     vw14996   3.106   5.097   1.426 -0.1574  0.2112  0.1957
 3750SOL     ow14997   2.642   6.271   6.179 -0.4468  0.0117  0.5634
 3750SOL     hw14998   2.571   6.287   6.116 -0.2162  0.2916  0.3704
 3750SOL     hw14999   2.656   6.356   6.221  0.0181  0.0450  0.3438
 3750SOL     vw15000   2.634   6.284   6.176 -0.3550  0.0532  0.5093
 3751SOL     ow15001   5.185   1.740   2.002  0.0414 -0.0749 -0.0227
 3751SOL     hw15002   5.281   1.740   2.004  0.1807 -2.9292 -1.0912
 3751SOL     hw15003   5.160   1.659   2.047 -1.5897 -1.3109 -2.8190
 3751SOL     vw15004   5.194   1.729   2.008 -0.1554 -0.6146 -0.5326
 3752SOL     ow15005   2.985   1.710   5.062  0.6321  0.0571 -0.4722
 3752SOL     hw15006   2.971   1.619   5.036  0.2978  0.1279 -0.5552
 3752SOL     hw15007   2.966   1.760   4.982 -0.5865  0.2907 -0.0655
 3752SOL     vw15008   2.980   1.705   5.048  0.4271  0.0972 -0.4294
 3753SOL     ow15009   4.847   2.949   6.173 -0.0043  0.1142  0.1098
 3753SOL     hw15010   4.876   3.004   6.246 -1.0961 -0.1057  0.7229
 3753SOL     hw15011   4.914   2.881   6.167  1.7590  1.8193 -1.1105
 3753SOL     vw15012   4.860   2.948   6.182  0.0844  0.3099  0.0296
 3754SOL     ow15013   6.111   5.664   5.277  0.1482 -0.2968 -0.3500
 3754SOL     hw15014   6.122   5.665   5.181 -1.1668 -0.6605 -0.5254
 3754SOL     hw15015   6.130   5.754   5.304  2.3417 -0.6037 -0.6980
 3754SOL     vw15016   6.115   5.676   5.268  0.2644 -0.3855 -0.4189
 3755SOL     ow15017   1.148   1.014   4.653 -0.2582  0.0643 -0.0654
 3755SOL     hw15018   1.211   0.995   4.723 -1.1302 -0.9461  0.4641
 3755SOL     hw15019   1.062   1.007   4.694 -0.7591  1.0385 -0.8749
 3755SOL     vw15020   1.145   1.011   4.668 -0.4393  0.0595 -0.1023
 3756SOL     ow15021   0.357   2.917   4.960  0.1279  0.5324 -0.2566
 3756SOL     hw15022   0.363   2.834   5.005  2.6682 -0.0920 -1.5678
 3756SOL     hw15023   0.279   2.959   4.996 -1.5279 -2.5869  0.0872
 3756SOL     vw15024   0.348   2.912   4.970  0.2446  0.0385 -0.3843
 3757SOL     ow15025   5.407   5.694   2.168  0.1399  0.2892  0.4534
 3757SOL     hw15026   5.376   5.715   2.256  0.7131 -0.7413  0.9182
 3757SOL     hw15027   5.329   5.705   2.112 -1.0855 -1.9797  1.5628
 3757SOL     vw15028   5.392   5.698   2.172  0.0539 -0.1462  0.6611
 3758SOL     ow15029   5.092   5.525   1.746 -1.2096 -0.0706  0.0105
 3758SOL     hw15030   5.044   5.501   1.825  0.0362  0.3827  0.9288
 3758SOL     hw15031   5.184   5.530   1.773 -0.6320 -0.7471 -1.6615
 3758SOL     vw15032   5.098   5.523   1.760 -0.9689 -0.1001 -0.0890
 3759SOL     ow15033   2.667   4.900   1.917  0.1305  0.1396 -0.3460
 3759SOL     hw15034   2.724   4.824   1.909  1.8244  1.3795 -0.6569
 3759SOL     hw15035   2.658   4.933   1.827  1.2101  1.5376  0.0313
 3759SOL     vw15036   2.673   4.894   1.904  0.4964  0.4876 -0.3372
 3760SOL     ow15037   5.992   3.241   4.688 -0.4268 -0.0899  0.5679
 3760SOL     hw15038   6.085   3.250   4.708 -0.6121  0.8872  1.0718
 3760SOL     hw15039   5.979   3.295   4.610 -0.8048  0.8845  1.2793
 3760SOL     vw15040   6.003   3.249   4.681 -0.5012  0.1676  0.7284
 3761SOL     ow15041   6.579   6.896   1.393  0.1532 -0.8516  0.1437
 3761SOL     hw15042   6.647   6.917   1.456  0.2390  0.3433 -0.3225
 3761SOL     hw15043   6.506   6.864   1.446 -0.0945  0.9304  0.9527
 3761SOL     vw15044   6.578   6.894   1.408  0.1316 -0.4590  0.1889
 3762SOL     ow15045   1.809   2.452   6.610  0.4913 -0.3044  0.2081
 3762SOL     hw15046   1.772   2.451   6.522  0.2127  1.2748  0.2754
 3762SOL     hw15047   1.833   2.543   6.625  1.2266 -0.6779  1.4930
 3762SOL     vw15048   1.807   2.464   6.600  0.5516 -0.1453  0.3862
 3763SOL     ow15049   3.795   3.944   4.273  0.1040 -0.2925  0.1175
 3763SOL     hw15050   3.703   3.941   4.246 -0.0948 -4.6509  0.6257
 3763SOL     hw15051   3.792   3.977   4.363 -0.8861  0.1505 -0.0578
 3763SOL     vw15052   3.782   3.948   4.281 -0.0529 -0.8092  0.1614
 3764SOL     ow15053   6.173   3.592   7.281 -0.5484  0.1934  0.1043
 3764SOL     hw15054   6.208   3.680   7.276 -2.1244  0.8718  0.4135
 3764SOL     hw15055   6.086   3.603   7.319 -1.0587 -1.4208 -0.5174
 3764SOL     vw15056   6.166   3.605   7.286 -0.8237  0.0701  0.0632
 3765SOL     ow15057   1.180   6.332   2.841  0.7276 -0.2421 -0.0961
 3765SOL     hw15058   1.198   6.424   2.862  0.7180 -0.3432  0.3639
 3765SOL     hw15059   1.119   6.303   2.910  0.0214 -0.3410 -0.7433
 3765SOL     vw15060   1.174   6.340   2.853  0.6332 -0.2687 -0.1208
 3766SOL     ow15061   5.626   6.749   3.929 -0.5516  0.1817  0.5308
 3766SOL     hw15062   5.546   6.707   3.897  0.1452  0.2417 -1.4876
 3766SOL     hw15063   5.697   6.692   3.898  0.3247  1.8230 -0.6872
 3766SOL     vw15064   5.625   6.736   3.920 -0.3440  0.4063  0.1037
 3767SOL     ow15065   5.976   0.255   6.419  0.5268 -0.3818 -0.3803
 3767SOL     hw15066   6.011   0.169   6.439 -2.3474 -1.6155 -0.2254
 3767SOL     hw15067   5.937   0.246   6.332 -1.9662 -0.0379  0.6182
 3767SOL     vw15068   5.975   0.243   6.410 -0.1812 -0.4992 -0.2284
 3768SOL     ow15069   4.288   7.217   6.131  0.8205  0.4744  0.1975
 3768SOL     hw15070   4.241   7.295   6.161  0.6893  0.0016  1.2391
 3768SOL     hw15071   4.253   7.145   6.184  3.2865  0.2297  1.6519
 3768SOL     vw15072   4.277   7.218   6.142  1.1289  0.3793  0.5269
 3769SOL     ow15073   2.959   4.712   2.174 -0.2271  0.1986  0.1675
 3769SOL     hw15074   2.938   4.709   2.267 -2.5971 -1.2155 -0.3154
 3769SOL     hw15075   3.050   4.682   2.169 -0.0889  0.2122  2.0157
 3769SOL     vw15076   2.968   4.707   2.185 -0.5217  0.0136  0.3476
 3770SOL     ow15077   2.059   3.123   2.846 -0.3819  0.5193  0.4463
 3770SOL     hw15078   2.106   3.184   2.789  0.8075 -0.5965  0.1720
 3770SOL     hw15079   2.106   3.126   2.929 -1.1550  0.9782  0.8782
 3770SOL     vw15080   2.071   3.131   2.850 -0.3269  0.4327  0.4671
 3771SOL     ow15081   6.915   3.018   2.779 -0.3847 -0.3599 -0.2268
 3771SOL     hw15082   6.832   3.055   2.809  0.8935  0.3388  2.8111
 3771SOL     hw15083   6.903   2.923   2.790 -0.5219 -0.2136  1.0769
 3771SOL     vw15084   6.902   3.010   2.785 -0.2339 -0.2483  0.3459
 3772SOL     ow15085   1.804   1.399   6.002  0.3700  0.5737  0.1239
 3772SOL     hw15086   1.881   1.445   5.970  0.8832 -0.4496 -0.1653
 3772SOL     hw15087   1.791   1.433   6.091 -0.3751  2.5830 -0.6873
 3772SOL     vw15088   1.813   1.409   6.010  0.3394  0.7038 -0.0215
 3773SOL     ow15089   1.374   4.101   0.455  0.1114  0.3390  0.3663
 3773SOL     hw15090   1.322   4.046   0.514 -0.3164 -0.6941 -0.9325
 3773SOL     hw15091   1.309   4.146   0.401  0.5377 -0.0171 -0.4468
 3773SOL     vw15092   1.358   4.100   0.456  0.1113  0.1559  0.0877
 3774SOL     ow15093   1.903   4.138   5.830  0.4028  0.2582  0.5884
 3774SOL     hw15094   1.847   4.064   5.807  0.9384 -0.2560  0.9023
 3774SOL     hw15095   1.951   4.108   5.907  1.2500  0.6222  0.2108
 3774SOL     vw15096   1.902   4.125   5.837  0.5853  0.2384  0.5801
 3775SOL     ow15097   2.251   3.930   5.206  0.3166  0.2768  0.2793
 3775SOL     hw15098   2.203   3.901   5.283  1.2645  0.4192  0.9409
 3775SOL     hw15099   2.197   3.902   5.132  0.1942 -1.3398  0.9377
 3775SOL     vw15100   2.238   3.923   5.206  0.4255  0.0824  0.4535
 3776SOL     ow15101   5.625   5.327   4.140 -0.1432  0.8642  0.2174
 3776SOL     hw15102   5.627   5.232   4.155 -0.3180  1.1093  2.0383
 3776SOL     hw15103   5.541   5.343   4.098 -0.6046  0.3156  0.9027
 3776SOL     vw15104   5.614   5.317   4.137 -0.2270  0.8242  0.5479
 3777SOL     ow15105   1.606   2.523   2.106 -0.3884 -0.4644 -0.0553
 3777SOL     hw15106   1.604   2.495   2.015 -1.5865  0.0011 -0.1927
 3777SOL     hw15107   1.540   2.469   2.150 -1.1639  0.5804  0.1212
 3777SOL     vw15108   1.597   2.512   2.100 -0.6487 -0.2650 -0.0501
 3778SOL     ow15109   7.240   2.207   4.414 -0.2054  0.6007 -0.4613
 3778SOL     hw15110   7.148   2.210   4.385 -0.0075 -1.1058 -1.4142
 3778SOL     hw15111   7.287   2.261   4.351 -0.4985  1.1529 -0.2104
 3778SOL     vw15112   7.234   2.215   4.402 -0.2179  0.4485 -0.5541
 3779SOL     ow15113   2.263   0.680   4.076 -0.0500  0.2549  0.4586
 3779SOL     hw15114   2.316   0.604   4.101  1.3564  0.9887 -0.1970
 3779SOL     hw15115   2.314   0.755   4.105  0.1468  1.0362 -1.7623
 3779SOL     vw15116   2.276   0.680   4.083  0.1615  0.4548  0.0792
 3780SOL     ow15117   3.531   7.304   3.301  0.7970  0.4228  0.0101
 3780SOL     hw15118   3.509   7.313   3.208  1.1002 -0.2436 -0.1317
 3780SOL     hw15119   3.504   7.387   3.340  0.2915  0.5541 -0.6010
 3780SOL     vw15120   3.524   7.316   3.294  0.7702  0.3521 -0.0892
 3781SOL     ow15121   4.358   1.742   1.569 -0.1412  0.2742  0.0836
 3781SOL     hw15122   4.291   1.677   1.591  0.2657  0.4977  2.1945
 3781SOL     hw15123   4.439   1.705   1.605  0.5356  0.8839 -0.7691
 3781SOL     vw15124   4.360   1.728   1.576  0.0017  0.3842  0.2496
 3782SOL     ow15125   7.274   0.199   7.257 -0.0013  0.4297  0.2470
 3782SOL     hw15126   7.260   0.294   7.257  0.7181  0.6334 -2.4242
 3782SOL     hw15127   7.195   0.163   7.298 -0.5836  2.1400  0.7221
 3782SOL     vw15128   7.262   0.207   7.262  0.0169  0.6822 -0.0427
 3783SOL     ow15129   4.147   0.082   2.721 -0.0756 -0.2539 -0.1134
 3783SOL     hw15130   4.099   0.081   2.638  0.7941  0.4598 -0.6525
 3783SOL     hw15131   4.204   0.006   2.716 -0.7542 -0.7964  0.2912
 3783SOL     vw15132   4.148   0.072   2.709 -0.0503 -0.2313 -0.1310
 3784SOL     ow15133   1.088   5.622   1.767  0.5038 -0.2943 -0.7002
 3784SOL     hw15134   1.050   5.705   1.797  1.6413 -0.5909  1.8548
 3784SOL     hw15135   1.015   5.574   1.729 -0.8660  0.6309  0.6337
 3784SOL     vw15136   1.074   5.627   1.766  0.4731 -0.2112 -0.1872
 3785SOL     ow15137   2.012   1.057   3.111  0.5642  0.2675 -0.1570
 3785SOL     hw15138   1.985   1.126   3.051 -0.3728 -0.6566 -0.8277
 3785SOL     hw15139   1.988   1.090   3.198 -2.5724 -0.3622 -0.6795
 3785SOL     vw15140   2.006   1.070   3.115  0.0267  0.0625 -0.3144
 3786SOL     ow15141   5.304   2.252   0.802  0.5377 -0.2225  0.2984
 3786SOL     hw15142   5.268   2.325   0.852  0.0098 -0.4100  0.1982
 3786SOL     hw15143   5.398   2.254   0.821  0.7436  1.2773 -0.7215
 3786SOL     vw15144   5.311   2.262   0.811  0.4950 -0.0495  0.1506
 3787SOL     ow15145   4.614   5.055   0.393  0.3131  0.3294 -0.2294
 3787SOL     hw15146   4.544   5.047   0.327  0.8483  0.0971 -0.7824
 3787SOL     hw15147   4.693   5.073   0.342  0.4455  1.8944  0.4800
 3787SOL     vw15148   4.615   5.056   0.377  0.4008  0.5050 -0.2088
 3788SOL     ow15149   5.389   1.735   3.910  0.3641  0.0029  0.0892
 3788SOL     hw15150   5.335   1.679   3.965 -0.3589  1.3863  0.8434
 3788SOL     hw15151   5.419   1.678   3.840 -1.2268 -1.0637  0.2224
 3788SOL     vw15152   5.386   1.720   3.908  0.0587  0.0447  0.2064
 3789SOL     ow15153   2.785   6.455   0.500  0.7044 -0.5105 -0.4599
 3789SOL     hw15154   2.778   6.437   0.594  1.3985  1.2422 -0.0289
 3789SOL     hw15155   2.878   6.472   0.486  0.4017  0.6489 -1.1703
 3789SOL     vw15156   2.796   6.455   0.511  0.7561 -0.1264 -0.4967
 3790SOL     ow15157   6.676   3.173   7.373 -0.0479  0.3969 -0.2669
 3790SOL     hw15158   6.693   3.105   7.308 -2.2730  0.7029 -1.2653
 3790SOL     hw15159   6.639   3.246   7.323 -2.6453  0.3284  1.3329
 3790SOL     vw15160   6.673   3.174   7.358 -0.6840  0.4282 -0.1874
 3791SOL     ow15161   4.664   1.440   4.965 -0.3613  0.1048 -0.0119
 3791SOL     hw15162   4.598   1.425   4.898  0.0617 -0.1984 -0.3642
 3791SOL     hw15163   4.744   1.461   4.916 -0.1357  0.2288  0.4042
 3791SOL     vw15164   4.666   1.441   4.950 -0.2759  0.0811 -0.0036
 3792SOL     ow15165   1.695   4.670   5.820 -0.7322 -0.6963  0.3064
 3792SOL     hw15166   1.639   4.738   5.782 -0.1884  0.3702  1.3219
 3792SOL     hw15167   1.683   4.679   5.915  0.1294 -1.3381  0.4916
 3792SOL     vw15168   1.686   4.681   5.828 -0.5468 -0.6402  0.4647
 3793SOL     ow15169   6.945   4.644   7.215  0.0467  0.7514  0.0997
 3793SOL     hw15170   6.978   4.694   7.290 -1.5570  1.0112  0.6675
 3793SOL     hw15171   6.880   4.585   7.253 -0.0578  0.1797 -0.9589
 3793SOL     vw15172   6.941   4.643   7.230 -0.1788  0.7107  0.0348
 3794SOL     ow15173   2.315   0.310   5.003 -0.0298  0.0940 -0.0209
 3794SOL     hw15174   2.233   0.358   4.993  0.7602  1.6373  0.5841
 3794SOL     hw15175   2.379   0.377   5.025  1.5267 -1.0006 -1.0413
 3794SOL     vw15176   2.312   0.325   5.005  0.2799  0.1532 -0.0758
 3795SOL     ow15177   3.138   5.232   1.689 -0.1691  0.2384  0.0499
 3795SOL     hw15178   3.085   5.163   1.649  1.4607 -1.2634  0.4164
 3795SOL     hw15179   3.211   5.244   1.629  0.5782  0.2797  0.9556
 3795SOL     vw15180   3.141   5.225   1.676  0.1444  0.0455  0.2177
 3796SOL     ow15181   2.025   2.177   0.662 -0.1254  0.0268 -0.3578
 3796SOL     hw15182   2.018   2.088   0.695  0.8828 -0.8376 -2.2903
 3796SOL     hw15183   2.066   2.226   0.733 -0.3884 -1.1214  0.6114
 3796SOL     vw15184   2.029   2.172   0.675 -0.0272 -0.2388 -0.4849
 3797SOL     ow15185   6.159   3.920   0.070 -0.2072  0.7432  0.3364
 3797SOL     hw15186   6.080   3.968   0.044 -0.8327 -0.5842 -0.2739
 3797SOL     hw15187   6.127   3.855   0.133  0.4035  0.1937  0.0817
 3797SOL     vw15188   6.144   3.918   0.075 -0.2091  0.4956  0.2222
 3798SOL     ow15189   2.639   4.715   2.227  0.3787 -0.2413 -0.2523
 3798SOL     hw15190   2.676   4.650   2.286  2.0774 -0.6480 -1.6680
 3798SOL     hw15191   2.690   4.794   2.243 -0.8549  0.4102  0.5860
 3798SOL     vw15192   2.650   4.717   2.237  0.4402 -0.2093 -0.3285
 3799SOL     ow15193   0.942   0.984   4.811 -0.2989 -0.2271  0.0012
 3799SOL     hw15194   0.886   1.061   4.808  1.0476  0.9038  1.5588
 3799SOL     hw15195   1.003   1.002   4.883 -0.0262 -2.8225  0.5185
 3799SOL     vw15196   0.943   0.997   4.820 -0.0853 -0.4203  0.2749
 3800SOL     ow15197   3.821   1.335   2.653  0.4074 -0.1007  0.1959
 3800SOL     hw15198   3.904   1.289   2.667  0.3489 -0.0509  0.7252
 3800SOL     hw15199   3.774   1.326   2.736  1.1050  2.3582  0.9748
 3800SOL     vw15200   3.826   1.328   2.666  0.4917  0.2303  0.3686
 3801SOL     ow15201   5.262   3.172   3.197 -0.4955  0.4710  0.2815
 3801SOL     hw15202   5.248   3.093   3.249 -0.1056  0.1110 -0.1514
 3801SOL     hw15203   5.182   3.223   3.209 -0.7743 -0.0167  0.5164
 3801SOL     vw15204   5.250   3.169   3.205 -0.4809  0.3593  0.2555
 3802SOL     ow15205   4.374   2.297   5.396 -0.4635  0.1506  0.0167
 3802SOL     hw15206   4.442   2.303   5.462 -0.7275  0.9903  0.2275
 3802SOL     hw15207   4.413   2.246   5.325 -0.3137 -1.1153  0.9738
 3802SOL     vw15208   4.388   2.291   5.395 -0.4785  0.0943  0.1709
 3803SOL     ow15209   0.998   0.901   0.476 -0.0518  0.2764  0.5362
 3803SOL     hw15210   1.085   0.894   0.436 -0.3373 -0.3992  0.0207
 3803SOL     hw15211   0.940   0.852   0.417 -0.8505  1.0191  0.6858
 3803SOL     vw15212   1.002   0.894   0.463 -0.1948  0.2853  0.4879
 3804SOL     ow15213   3.157   0.542   4.875  0.0291 -0.5469  0.0754
 3804SOL     hw15214   3.104   0.463   4.877  1.2960 -1.4460 -0.1486
 3804SOL     hw15215   3.235   0.519   4.926  0.8334  0.2289 -0.7564
 3804SOL     vw15216   3.161   0.529   4.882  0.3023 -0.5631 -0.0639
 3805SOL     ow15217   6.062   2.464   5.658 -0.4155  0.0483 -0.1163
 3805SOL     hw15218   6.134   2.476   5.720 -0.3723  0.5044 -0.2517
 3805SOL     hw15219   6.065   2.371   5.635 -0.3483 -0.0968  0.4608
 3805SOL     vw15220   6.072   2.453   5.663 -0.4010  0.0894 -0.0579
 3806SOL     ow15221   1.172   0.901   3.471 -0.0823  0.1723 -0.1957
 3806SOL     hw15222   1.251   0.868   3.427  0.5378  0.0844  0.9488
 3806SOL     hw15223   1.146   0.831   3.530 -1.1502  0.1234 -0.7049
 3806SOL     vw15224   1.179   0.888   3.473 -0.1414  0.1543 -0.1119
 3807SOL     ow15225   3.178   6.316   5.476 -0.8702  0.4729 -0.3089
 3807SOL     hw15226   3.104   6.356   5.522 -1.0250 -1.3723  1.2048
 3807SOL     hw15227   3.141   6.238   5.434 -0.0396  0.2393 -0.6345
 3807SOL     vw15228   3.164   6.311   5.477 -0.7811  0.1988 -0.1521
 3808SOL     ow15229   1.902   4.314   2.582  0.1416 -0.4506  0.2436
 3808SOL     hw15230   1.991   4.323   2.549  0.5253  2.8869  1.8350
 3808SOL     hw15231   1.848   4.361   2.518 -0.2171 -0.7364  0.3331
 3808SOL     vw15232   1.907   4.321   2.569  0.1449 -0.0479  0.4654
 3809SOL     ow15233   2.998   4.546   7.166 -0.3447 -0.5680 -0.0083
 3809SOL     hw15234   3.014   4.483   7.096 -0.4675 -1.7572  1.0146
 3809SOL     hw15235   2.974   4.493   7.242  0.1956  0.6589  1.0608
 3809SOL     vw15236   2.997   4.531   7.167 -0.2896 -0.5629  0.2675
 3810SOL     ow15237   3.799   7.414   6.626 -0.4207  0.6003 -0.1189
 3810SOL     hw15238   3.741   7.339   6.639  0.9662 -0.4219  0.3132
 3810SOL     hw15239   3.876   7.378   6.582 -0.5386  2.1264 -1.6775
 3810SOL     vw15240   3.801   7.400   6.622 -0.2533  0.6666 -0.2675
 3811SOL     ow15241   2.892   4.708   0.083  0.2744  0.0122 -0.1473
 3811SOL     hw15242   2.831   4.679   0.150 -1.7710  0.9635 -1.5001
 3811SOL     hw15243   2.904   4.801   0.100  3.3549 -0.5265  1.5238
 3811SOL     vw15244   2.886   4.716   0.094  0.4109  0.0665 -0.1053
 3812SOL     ow15245   6.445   0.631   0.391  0.0015  0.4766 -0.2549
 3812SOL     hw15246   6.433   0.708   0.447 -1.0667 -0.1070  0.3416
 3812SOL     hw15247   6.396   0.651   0.311 -0.1738  0.4619 -0.1502
 3812SOL     vw15248   6.437   0.644   0.388 -0.1624  0.3977 -0.1624
 3813SOL     ow15249   6.632   1.443   2.547 -0.2652 -0.0929  0.0475
 3813SOL     hw15250   6.666   1.500   2.616 -0.8148 -0.6998  0.8342
 3813SOL     hw15251   6.710   1.405   2.507  0.0265 -0.8768  1.3210
 3813SOL     vw15252   6.647   1.446   2.551 -0.2992 -0.2764  0.3194
 3814SOL     ow15253   6.532   1.393   2.293 -0.4744 -0.0478  0.5625
 3814SOL     hw15254   6.543   1.393   2.388  0.6687 -0.2901  0.4463
 3814SOL     hw15255   6.597   1.456   2.262  0.6952 -1.5434 -0.1830
 3814SOL     vw15256   6.542   1.401   2.302 -0.1695 -0.2771  0.4488
 3815SOL     ow15257   3.043   0.985   0.116  0.0841  0.4079 -0.1041
 3815SOL     hw15258   3.007   1.012   0.200  0.0264  0.1073 -0.0331
 3815SOL     hw15259   3.099   1.058   0.089 -0.7430  0.9815 -0.3219
 3815SOL     vw15260   3.046   0.998   0.123 -0.0327  0.4439 -0.1235
 3816SOL     ow15261   2.445   3.445   5.082 -0.0451 -0.2397 -0.1382
 3816SOL     hw15262   2.460   3.358   5.045  2.3869  0.8090 -1.8904
 3816SOL     hw15263   2.517   3.458   5.143  0.7693  1.2274 -1.3457
 3816SOL     vw15264   2.457   3.435   5.085  0.3833  0.0923 -0.5286
 3817SOL     ow15265   0.611   0.624   5.464  0.4466  0.0862 -0.4885
 3817SOL     hw15266   0.519   0.617   5.491  0.2737  1.3291 -0.6770
 3817SOL     hw15267   0.639   0.534   5.451 -0.8185 -0.3044 -0.6537
 3817SOL     vw15268   0.603   0.611   5.466  0.2569  0.1986 -0.5352
 3818SOL     ow15269   7.355   0.617   5.499  0.2947  0.2207 -0.0690
 3818SOL     hw15270   7.432   0.565   5.519  0.0137 -0.8751 -1.6473
 3818SOL     hw15271   7.319   0.641   5.585  1.6834 -0.2935  0.6817
 3818SOL     vw15272   7.360   0.614   5.513  0.4411  0.0083 -0.1783
 3819SOL     ow15273   1.570   3.347   3.018 -0.7219  0.2111 -0.5160
 3819SOL     hw15274   1.547   3.379   3.105  0.4030 -0.6061  0.0990
 3819SOL     hw15275   1.491   3.301   2.988 -1.4708  1.3552 -0.3806
 3819SOL     vw15276   1.556   3.345   3.025 -0.6723  0.2542 -0.4169
 3820SOL     ow15277   2.369   5.866   4.989 -0.3468 -0.1351 -0.1092
 3820SOL     hw15278   2.386   5.939   5.048  0.0215 -0.1328 -0.2165
 3820SOL     hw15279   2.455   5.843   4.954 -0.5592 -0.1420 -0.6372
 3820SOL     vw15280   2.383   5.873   4.992 -0.3264 -0.1359 -0.1931
 3821SOL     ow15281   1.893   3.846   5.794  0.0026  0.4024  0.2392
 3821SOL     hw15282   1.927   3.871   5.880  0.3825 -0.9013  0.4895
 3821SOL     hw15283   1.908   3.751   5.789 -1.7762  0.1132 -0.4567
 3821SOL     vw15284   1.899   3.837   5.805 -0.1819  0.1923  0.1805
 3822SOL     ow15285   3.691   4.648   3.329 -0.6936  0.5873 -0.6221
 3822SOL     hw15286   3.650   4.633   3.244 -0.7039 -1.6230 -0.3046
 3822SOL     hw15287   3.727   4.736   3.324  1.9628 -0.4515 -4.1121
 3822SOL     vw15288   3.691   4.658   3.317 -0.3445  0.1585 -1.0407
 3823SOL     ow15289   1.457   4.085   7.451  0.1523  0.1026  0.1485
 3823SOL     hw15290   1.378   4.033   7.437  0.5344 -0.8590  1.3569
 3823SOL     hw15291   1.427   4.164   7.495 -0.1094 -0.4724  1.0324
 3823SOL     vw15292   1.443   4.088   7.455  0.1682 -0.1004  0.4246
 3824SOL     ow15293   3.957   5.768   6.148  0.8456 -0.1975 -0.0536
 3824SOL     hw15294   3.982   5.821   6.224  0.8364 -0.5239  0.1776
 3824SOL     hw15295   3.944   5.680   6.183  0.0154 -0.1716 -0.2929
 3824SOL     vw15296   3.959   5.763   6.163  0.7348 -0.2370 -0.0548
 3825SOL     ow15297   1.258   4.990   4.799  0.1899 -0.3204  0.3707
 3825SOL     hw15298   1.220   5.000   4.712 -1.0456 -2.0278  0.6689
 3825SOL     hw15299   1.189   4.949   4.851  1.2445 -0.2487  1.9069
 3825SOL     vw15300   1.244   4.986   4.795  0.1659 -0.5364  0.6127
 3826SOL     ow15301   2.149   2.479   2.265 -0.1336  0.0155  0.1721
 3826SOL     hw15302   2.220   2.442   2.318  0.1778  2.6917  1.8246
 3826SOL     hw15303   2.193   2.516   2.189  0.0722  0.3612  0.4542
 3826SOL     vw15304   2.164   2.479   2.262 -0.0653  0.4144  0.4275
 3827SOL     ow15305   0.623   1.153   1.385 -0.0155 -0.2160 -0.6312
 3827SOL     hw15306   0.669   1.152   1.301  0.4085  0.5163 -0.4159
 3827SOL     hw15307   0.564   1.077   1.380 -1.5807  1.0111 -2.4698
 3827SOL     vw15308   0.621   1.143   1.373 -0.1661  0.0426 -0.8454
 3828SOL     ow15309   3.318   1.697   2.570  0.4622 -0.3113 -0.4467
 3828SOL     hw15310   3.247   1.701   2.634  0.8572  0.8830 -0.0659
 3828SOL     hw15311   3.389   1.653   2.615  0.1991 -0.9158 -0.6104
 3828SOL     vw15312   3.318   1.692   2.584  0.4796 -0.2335 -0.4181
 3829SOL     ow15313   5.880   0.257   6.171  0.1261 -0.4486 -0.3137
 3829SOL     hw15314   5.924   0.326   6.122 -0.2521 -1.1591 -1.7087
 3829SOL     hw15315   5.791   0.255   6.137 -0.6090  0.0096  1.4660
 3829SOL     vw15316   5.874   0.266   6.160 -0.0207 -0.4819 -0.2630
 3830SOL     ow15317   6.402   4.544   4.630  0.1718  0.2381 -0.0846
 3830SOL     hw15318   6.308   4.528   4.636  0.1513  0.0340 -0.8594
 3830SOL     hw15319   6.429   4.498   4.550  1.5239 -2.5071  1.8072
 3830SOL     vw15320   6.393   4.536   4.620  0.3476 -0.1512  0.0627
 3831SOL     ow15321   6.096   6.764   5.296  0.2500  0.1180  0.2341
 3831SOL     hw15322   6.054   6.800   5.218 -0.7492  1.1167  1.1777
 3831SOL     hw15323   6.066   6.673   5.300  0.7864 -0.1148 -0.8469
 3831SOL     vw15324   6.086   6.757   5.286  0.1888  0.2191  0.2158
 3832SOL     ow15325   5.714   6.039   1.492 -0.0650  0.3256 -0.1094
 3832SOL     hw15326   5.641   6.000   1.540  0.2467 -0.2897 -0.1195
 3832SOL     hw15327   5.692   6.024   1.400  0.3436 -0.3871 -0.1007
 3832SOL     vw15328   5.701   6.032   1.487  0.0300  0.1507 -0.1095
 3833SOL     ow15329   4.850   3.878   4.220 -0.2176 -0.4005  0.5784
 3833SOL     hw15330   4.821   3.934   4.293  0.1636  2.7895 -1.5035
 3833SOL     hw15331   4.812   3.792   4.239 -1.7989  0.7837  3.4634
 3833SOL     vw15332   4.842   3.874   4.232 -0.3760  0.1765  0.6843
 3834SOL     ow15333   1.760   0.809   1.971 -0.5044 -0.0309 -0.4091
 3834SOL     hw15334   1.692   0.757   2.015 -0.1424  0.7051  1.0915
 3834SOL     hw15335   1.804   0.746   1.913 -0.9133 -1.0938  0.3947
 3834SOL     vw15336   1.757   0.794   1.969 -0.5106 -0.0741 -0.1051
 3835SOL     ow15337   1.250   2.029   6.509  0.3859  0.3058 -0.5665
 3835SOL     hw15338   1.212   1.943   6.524  0.9848  0.4235  2.0666
 3835SOL     hw15339   1.203   2.087   6.567  0.7233  1.5729 -1.5179
 3835SOL     vw15340   1.239   2.025   6.519  0.5095  0.4885 -0.3445
 3836SOL     ow15341   4.915   2.773   1.519  0.3819 -0.1462  0.3501
 3836SOL     hw15342   4.830   2.745   1.485 -0.3548  0.6461  1.4665
 3836SOL     hw15343   4.951   2.830   1.451  0.6559 -1.5578 -0.7267
 3836SOL     vw15344   4.908   2.777   1.506  0.3209 -0.2279  0.3553
 3837SOL     ow15345   6.496   6.373   0.979  0.3978 -0.3897 -0.4837
 3837SOL     hw15346   6.463   6.314   1.046 -4.8339  2.2851 -0.2106
 3837SOL     hw15347   6.525   6.450   1.026  0.6763 -0.0853 -1.1334
 3837SOL     vw15348   6.496   6.375   0.994 -0.2556  0.0036 -0.5333
 3838SOL     ow15349   2.367   3.734   0.739 -0.2556 -0.2971 -0.4616
 3838SOL     hw15350   2.403   3.822   0.744 -2.4957  0.6880 -0.3708
 3838SOL     hw15351   2.413   3.693   0.666 -0.5777  1.6638 -1.8234
 3838SOL     vw15352   2.378   3.740   0.730 -0.5938  0.0918 -0.6293
 3839SOL     ow15353   1.661   5.805   1.125 -0.1698 -0.1519  0.3168
 3839SOL     hw15354   1.664   5.725   1.177  0.7689 -1.2013 -1.2638
 3839SOL     hw15355   1.576   5.803   1.081 -0.3584 -0.0176  0.6758
 3839SOL     vw15356   1.651   5.794   1.126 -0.0708 -0.2725  0.1557
 3840SOL     ow15357   7.098   5.573   0.428  0.0011  0.0947 -0.3498
 3840SOL     hw15358   7.052   5.501   0.387 -1.8256 -0.0588  1.7622
 3840SOL     hw15359   7.068   5.651   0.381  1.3807 -0.4025 -2.1268
 3840SOL     vw15360   7.088   5.574   0.417 -0.0579  0.0086 -0.3056
 3841SOL     ow15361   6.007   0.280   0.535 -0.2477 -0.1753  0.0842
 3841SOL     hw15362   6.017   0.291   0.441 -0.4202 -1.7740 -0.1472
 3841SOL     hw15363   6.076   0.219   0.559  0.2627  0.7863  1.1341
 3841SOL     vw15364   6.017   0.274   0.526 -0.2031 -0.2594  0.1922
 3842SOL     ow15365   7.328   6.636   7.452 -0.4655 -0.2486 -0.0059
 3842SOL     hw15366   7.252   6.677   7.411  0.0097  0.2740 -0.3702
 3842SOL     hw15367   7.403   6.688   7.422 -0.1195  0.2890  1.7048
 3842SOL     vw15368   7.328   6.648   7.443 -0.3574 -0.1085  0.1717
 3843SOL     ow15369   0.217   7.188   5.384  0.7499  0.2256  0.0241
 3843SOL     hw15370   0.194   7.117   5.324  1.2725  1.2527 -1.4405
 3843SOL     hw15371   0.194   7.154   5.471  1.8442 -2.0916 -0.5028
 3843SOL     vw15372   0.211   7.174   5.388  0.9632  0.0556 -0.2389
 3844SOL     ow15373   5.561   5.814   3.341  0.4435  0.1791 -0.2728
 3844SOL     hw15374   5.468   5.796   3.354  0.4508  0.1114 -0.3118
 3844SOL     hw15375   5.575   5.899   3.383  0.0290  0.9442 -1.6369
 3844SOL     vw15376   5.551   5.823   3.349  0.3898  0.2711 -0.4579
 3845SOL     ow15377   4.632   6.039   5.717 -0.3867  0.0271 -0.4005
 3845SOL     hw15378   4.636   6.054   5.623  0.1067 -0.5475 -0.4755
 3845SOL     hw15379   4.648   6.126   5.755 -1.0975  0.3576 -0.8381
 3845SOL     vw15380   4.635   6.053   5.710 -0.4156 -0.0050 -0.4680
 3846SOL     ow15381   2.392   0.203   5.284 -0.3197  0.2221 -0.6398
 3846SOL     hw15382   2.320   0.209   5.347  0.5204 -1.2853  0.5523
 3846SOL     hw15383   2.468   0.236   5.332  0.1528 -0.0470 -1.1970
 3846SOL     vw15384   2.393   0.208   5.299 -0.1464 -0.0123 -0.5555
 3847SOL     ow15385   2.896   2.405   5.527  0.3523 -0.2355 -0.4684
 3847SOL     hw15386   2.818   2.349   5.536  0.1186  0.1432 -0.1170
 3847SOL     hw15387   2.916   2.433   5.616  0.6874 -0.0536 -0.6009
 3847SOL     vw15388   2.888   2.401   5.540  0.3656 -0.1615 -0.4396
 3848SOL     ow15389   2.647   2.119   6.780 -0.5478 -0.2735 -0.1806
 3848SOL     hw15390   2.666   2.170   6.859 -0.8991  1.1010 -0.9475
 3848SOL     hw15391   2.700   2.040   6.790 -0.6234 -0.1594  1.4456
 3848SOL     vw15392   2.657   2.116   6.792 -0.6040 -0.0770 -0.0675
 3849SOL     ow15393   6.631   6.766   6.798  0.0707 -0.0606  0.2224
 3849SOL     hw15394   6.718   6.776   6.837  1.5576 -1.4368 -2.5029
 3849SOL     hw15395   6.615   6.672   6.801 -1.1427  0.1382  0.2347
 3849SOL     vw15396   6.641   6.755   6.804  0.1070 -0.2158 -0.1357
 3850SOL     ow15397   3.695   0.449   0.187 -0.3878  0.4015  0.1895
 3850SOL     hw15398   3.702   0.490   0.101 -1.2917 -1.3241 -0.7460
 3850SOL     hw15399   3.770   0.389   0.191 -0.6576  0.0703  0.3618
 3850SOL     vw15400   3.706   0.447   0.176 -0.5428  0.1302  0.0888
 3851SOL     ow15401   6.032   2.021   1.442 -0.3792 -0.2771  0.0021
 3851SOL     hw15402   6.083   2.090   1.483  0.4941 -1.3149  0.7257
 3851SOL     hw15403   6.005   1.965   1.515  0.3153 -1.5861 -0.7102
 3851SOL     vw15404   6.035   2.023   1.457 -0.1721 -0.5866  0.0036
 3852SOL     ow15405   4.687   7.390   2.022  0.0197  0.7089  0.4544
 3852SOL     hw15406   4.748   7.376   2.094  0.2982  0.0270  0.0917
 3852SOL     hw15407   4.741   7.417   1.948  0.1066 -1.3299 -0.2980
 3852SOL     vw15408   4.702   7.391   2.022  0.0679  0.3498  0.3072
 3853SOL     ow15409   6.111   1.513   1.728 -0.0575 -0.2973  0.0676
 3853SOL     hw15410   6.020   1.505   1.700  0.2486  1.7737 -1.8036
 3853SOL     hw15411   6.110   1.582   1.795  0.2826  1.0613 -1.2547
 3853SOL     vw15412   6.099   1.521   1.734  0.0277  0.1552 -0.3537
 3854SOL     ow15413   4.252   2.456   5.224  0.0634 -0.1369 -0.4592
 3854SOL     hw15414   4.282   2.394   5.290 -1.0963  0.7607  0.9891
 3854SOL     hw15415   4.166   2.423   5.197 -0.0864  0.2490 -0.4681
 3854SOL     vw15416   4.244   2.443   5.229 -0.1094  0.0324 -0.2692
 3855SOL     ow15417   4.201   6.620   1.312 -0.0089  0.1432  0.2217
 3855SOL     hw15418   4.235   6.559   1.378  2.1479  0.6446 -0.3497
 3855SOL     hw15419   4.221   6.579   1.228 -1.9738 -0.0916 -0.1756
 3855SOL     vw15420   4.208   6.607   1.310  0.0160  0.1783  0.0939
 3856SOL     ow15421   6.174   6.398   3.486  0.0392 -0.2519 -0.0407
 3856SOL     hw15422   6.212   6.483   3.461  2.1419  0.0578  3.4852
 3856SOL     hw15423   6.229   6.333   3.442  1.5556  0.2698  0.9726
 3856SOL     vw15424   6.186   6.401   3.477  0.5167 -0.1419  0.5583
 3857SOL     ow15425   3.099   4.487   3.226 -0.0003 -0.0390  0.1890
 3857SOL     hw15426   3.135   4.433   3.157 -1.3607 -0.0802 -0.5269
 3857SOL     hw15427   3.160   4.561   3.233  0.1095  0.0175 -1.1289
 3857SOL     vw15428   3.112   4.490   3.218 -0.1653 -0.0370 -0.0793
 3858SOL     ow15429   1.044   2.719   5.502 -0.1873 -0.0662 -0.2665
 3858SOL     hw15430   1.123   2.752   5.545 -0.4829  0.8397 -0.3925
 3858SOL     hw15431   1.013   2.649   5.560 -0.4231  0.9464  0.8640
 3858SOL     vw15432   1.050   2.714   5.515 -0.2574  0.1870 -0.1342
 3859SOL     ow15433   6.676   3.223   4.740 -0.2217 -0.2322  0.1657
 3859SOL     hw15434   6.708   3.179   4.819 -1.2463 -0.1354  0.6590
 3859SOL     hw15435   6.752   3.227   4.682  0.7819  0.4788  1.4834
 3859SOL     vw15436   6.690   3.217   4.743 -0.2244 -0.1256  0.4048
 3860SOL     ow15437   1.900   4.784   3.087  0.3566  0.2172 -0.5557
 3860SOL     hw15438   1.875   4.809   2.998  0.2742  0.0550 -0.5794
 3860SOL     hw15439   1.835   4.826   3.143 -0.2451 -0.5630 -0.6467
 3860SOL     vw15440   1.888   4.793   3.082  0.2663  0.0927 -0.5709
 3861SOL     ow15441   5.244   5.060   3.250  0.0655  0.2484  0.0327
 3861SOL     hw15442   5.314   5.054   3.316 -0.5523  0.8043  0.7622
 3861SOL     hw15443   5.174   5.006   3.284 -0.4014  0.8339  0.0193
 3861SOL     vw15444   5.244   5.052   3.263 -0.0780  0.3991  0.1273
 3862SOL     ow15445   1.311   4.926   4.282  0.5393 -0.1682 -0.0465
 3862SOL     hw15446   1.240   4.948   4.342 -1.7704 -3.0402 -1.5060
 3862SOL     hw15447   1.391   4.953   4.328 -1.1939 -0.7100  3.5764
 3862SOL     vw15448   1.312   4.932   4.296  0.0058 -0.6187  0.2389
 3863SOL     ow15449   5.234   4.418   6.649  0.4856 -0.0477  0.4213
 3863SOL     hw15450   5.315   4.369   6.666 -0.0938 -1.4981 -0.8457
 3863SOL     hw15451   5.176   4.356   6.606 -0.8586  1.3321  0.1395
 3863SOL     vw15452   5.237   4.404   6.646  0.2315 -0.0570  0.2170
 3864SOL     ow15453   1.676   4.106   1.970  0.0232 -0.5899 -0.5157
 3864SOL     hw15454   1.627   4.074   2.046  0.7631 -0.8461 -0.1296
 3864SOL     hw15455   1.698   4.027   1.921 -0.2704 -0.4429 -0.8883
 3864SOL     vw15456   1.672   4.091   1.974  0.0821 -0.6044 -0.5139
 3865SOL     ow15457   2.399   2.955   1.403  0.2438 -0.0141  0.7761
 3865SOL     hw15458   2.467   3.021   1.387 -0.5244  0.6778  0.3133
 3865SOL     hw15459   2.410   2.931   1.494 -0.3889  1.8438  1.3944
 3865SOL     vw15460   2.410   2.961   1.413  0.0589  0.3225  0.7967
 3866SOL     ow15461   1.360   0.923   4.816  0.0725  0.1736 -0.2638
 3866SOL     hw15462   1.430   0.970   4.862  0.6650 -0.4967 -0.4666
 3866SOL     hw15463   1.374   0.831   4.839  0.5529 -0.2134 -1.9958
 3866SOL     vw15464   1.371   0.917   4.825  0.2140  0.0341 -0.5188
 3867SOL     ow15465   0.099   2.639   6.203  0.6784 -0.6611 -0.0987
 3867SOL     hw15466   0.070   2.575   6.268 -0.2954 -0.6000 -0.4683
 3867SOL     hw15467   0.133   2.586   6.131  0.5937 -0.7504 -0.0735
 3867SOL     vw15468   0.100   2.624   6.202  0.5387 -0.6649 -0.1440
 3868SOL     ow15469   4.748   5.353   1.703 -0.5573  0.1418  0.2110
 3868SOL     hw15470   4.664   5.354   1.656 -0.3283 -1.1608 -0.2699
 3868SOL     hw15471   4.736   5.286   1.770 -0.2734  0.7533  0.8800
 3868SOL     vw15472   4.735   5.344   1.706 -0.4895  0.0505  0.2358
 3869SOL     ow15473   2.247   2.179   0.456 -0.2666 -0.4974  0.3819
 3869SOL     hw15474   2.286   2.092   0.453  0.1554 -0.3057  0.2386
 3869SOL     hw15475   2.193   2.179   0.535  0.4532 -0.5856  0.8783
 3869SOL     vw15476   2.245   2.168   0.466 -0.1160 -0.4838  0.4285
 3870SOL     ow15477   7.169   4.771   5.053  0.4011  0.4804 -0.3645
 3870SOL     hw15478   7.254   4.798   5.020  0.2580 -0.5409 -1.6780
 3870SOL     hw15479   7.120   4.852   5.065  1.5689  1.0841  0.5007
 3870SOL     vw15480   7.173   4.785   5.051  0.5364  0.4251 -0.4237
 3871SOL     ow15481   7.074   3.838   4.811  0.4113 -0.1142 -0.3159
 3871SOL     hw15482   7.113   3.909   4.762 -3.8382  1.0144 -2.4800
 3871SOL     hw15483   7.069   3.870   4.901  2.8919  0.2109 -0.2289
 3871SOL     vw15484   7.078   3.851   4.817  0.1781  0.0776 -0.5903
 3872SOL     ow15485   3.742   3.700   4.559 -0.7373 -0.2116 -0.3289
 3872SOL     hw15486   3.828   3.741   4.566 -0.1752 -1.4248  0.1597
 3872SOL     hw15487   3.709   3.699   4.648 -0.3823 -1.5224 -0.1864
 3872SOL     vw15488   3.749   3.705   4.571 -0.6163 -0.5447 -0.2458
 3873SOL     ow15489   6.253   3.297   6.855  0.3664  0.0628  0.8389
 3873SOL     hw15490   6.345   3.286   6.878  0.4643  0.4413  0.6358
 3873SOL     hw15491   6.241   3.242   6.778  0.4962  0.2299  0.6964
 3873SOL     vw15492   6.264   3.289   6.848  0.3965  0.1348  0.7935
 3874SOL     ow15493   2.967   5.316   1.108  0.3229 -0.0782  0.1713
 3874SOL     hw15494   3.049   5.346   1.148  0.8949 -0.4723 -0.6858
 3874SOL     hw15495   2.984   5.317   1.014 -0.6529 -0.2003 -0.0172
 3874SOL     vw15496   2.980   5.320   1.101  0.2697 -0.1464  0.0334
 3875SOL     ow15497   2.550   0.915   6.037  0.2365  0.1841 -0.2598
 3875SOL     hw15498   2.475   0.959   5.997  0.3130  1.0574  0.5099
 3875SOL     hw15499   2.626   0.957   5.997  0.3281  1.7300  1.3969
 3875SOL     vw15500   2.550   0.927   6.027  0.2588  0.5032  0.0603
 3876SOL     ow15501   4.987   2.914   5.559  0.2861  0.4691 -0.1876
 3876SOL     hw15502   4.977   2.825   5.525 -0.4626  1.1087 -1.7105
 3876SOL     hw15503   5.022   2.902   5.648 -0.4385 -1.3645 -0.1106
 3876SOL     vw15504   4.990   2.901   5.567  0.0918  0.3115 -0.3784
 3877SOL     ow15505   2.702   2.069   7.148  0.1340 -0.1178 -0.0801
 3877SOL     hw15506   2.738   2.150   7.185  0.6092 -0.3745  0.0268
 3877SOL     hw15507   2.779   2.014   7.130 -0.1089 -0.1632 -1.0690
 3877SOL     vw15508   2.717   2.073   7.150  0.1645 -0.1577 -0.1967
 3878SOL     ow15509   4.010   7.265   6.546 -0.0889 -0.4313  0.5477
 3878SOL     hw15510   3.943   7.197   6.537  0.2221 -0.7991  0.9941
 3878SOL     hw15511   3.990   7.327   6.475  0.8726 -2.0321 -1.2270
 3878SOL     vw15512   3.999   7.265   6.535  0.0789 -0.6909  0.3726
 3879SOL     ow15513   6.066   0.156   6.818 -0.3139  0.3655  0.2930
 3879SOL     hw15514   6.009   0.187   6.889  1.1067 -1.9198  2.6128
 3879SOL     hw15515   6.013   0.090   6.773 -0.5457  0.4161  0.4841
 3879SOL     vw15516   6.051   0.152   6.821 -0.1571  0.0706  0.6244
 3880SOL     ow15517   7.430   0.646   4.971 -0.1948 -0.2443 -0.0831
 3880SOL     hw15518   7.366   0.588   4.931 -0.6457  1.0545 -1.3706
 3880SOL     hw15519   7.515   0.612   4.943 -0.4930  0.6910 -2.4148
 3880SOL     vw15520   7.433   0.634   4.962 -0.2935  0.0504 -0.5603
 3881SOL     ow15521   6.196   4.730   3.274  0.3386  0.0588 -0.4139
 3881SOL     hw15522   6.290   4.749   3.267  0.7495 -1.8666 -0.8234
 3881SOL     hw15523   6.191   4.635   3.276 -1.7215  0.0470 -2.1815
 3881SOL     vw15524   6.208   4.720   3.273  0.1209 -0.1969 -0.7011
 3882SOL     ow15525   0.350   5.294   7.278  0.6045  0.4727 -0.2587
 3882SOL     hw15526   0.313   5.226   7.222 -2.5258  0.9581  1.0475
 3882SOL     hw15527   0.433   5.257   7.308 -0.0204 -1.8909 -1.2192
 3882SOL     vw15528   0.356   5.280   7.274  0.1090  0.2248 -0.2129
 3883SOL     ow15529   2.071   5.448   2.651 -0.4645 -0.0333 -0.4159
 3883SOL     hw15530   2.139   5.401   2.700 -0.2548 -0.1120 -0.7737
 3883SOL     hw15531   2.051   5.525   2.704  0.6718  0.5589 -0.8064
 3883SOL     vw15532   2.077   5.452   2.664 -0.2869  0.0343 -0.5145
 3884SOL     ow15533   7.372   5.251   0.240  0.0404 -0.7616  0.5285
 3884SOL     hw15534   7.294   5.195   0.241  0.0693 -0.8050  1.7482
 3884SOL     hw15535   7.397   5.255   0.147 -4.1751  3.1762 -0.8726
 3884SOL     vw15536   7.365   5.244   0.228 -0.5121 -0.2477  0.5046
 3885SOL     ow15537   3.208   0.076   1.650  0.2362  0.5809 -0.0009
 3885SOL     hw15538   3.304   0.080   1.656  0.2446 -0.4476  0.8371
 3885SOL     hw15539   3.188  -0.017   1.654 -0.8391  0.8220  0.5217
 3885SOL     vw15540   3.218   0.065   1.651  0.0955  0.4768  0.1786
 3886SOL     ow15541   6.721   6.020   6.703 -0.0022 -0.5332  0.3197
 3886SOL     hw15542   6.683   6.098   6.744 -0.3629 -1.0196  0.9368
 3886SOL     hw15543   6.799   6.001   6.755 -0.7852 -1.4997  1.2065
 3886SOL     vw15544   6.726   6.028   6.716 -0.1531 -0.7248  0.5183
 3887SOL     ow15545   6.872   1.530   1.759  0.0225 -0.2260 -0.0453
 3887SOL     hw15546   6.841   1.464   1.822 -0.1304  0.6470  0.8260
 3887SOL     hw15547   6.844   1.497   1.674 -1.0380 -0.7464  0.4756
 3887SOL     vw15548   6.864   1.517   1.756 -0.1376 -0.1795  0.1384
 3888SOL     ow15549   5.708   4.852   4.096 -0.0120  0.1400  0.2607
 3888SOL     hw15550   5.793   4.850   4.141 -0.6815  1.9206  1.6806
 3888SOL     hw15551   5.649   4.805   4.154  0.2021 -2.3924 -1.3946
 3888SOL     vw15552   5.712   4.845   4.109 -0.0722  0.0408  0.2296
 3889SOL     ow15553   7.353   4.519   1.037 -0.5908  1.1647 -0.0280
 3889SOL     hw15554   7.415   4.585   1.068 -1.2888  0.3681  3.5487
 3889SOL     hw15555   7.408   4.449   1.002  0.4762  1.2189  1.4610
 3889SOL     vw15556   7.369   4.518   1.037 -0.5419  1.0669  0.6404
 3890SOL     ow15557   2.945   2.409   1.538  0.0393 -0.2580 -0.3009
 3890SOL     hw15558   3.032   2.416   1.500  0.3479 -0.3773  0.3645
 3890SOL     hw15559   2.957   2.433   1.630 -0.7077  0.1363 -0.2967
 3890SOL     vw15560   2.958   2.413   1.545 -0.0186 -0.2217 -0.2126
 3891SOL     ow15561   0.916   5.400   3.340  0.4113 -0.0894 -0.1356
 3891SOL     hw15562   0.915   5.330   3.274 -0.2991 -1.7307  1.5224
 3891SOL     hw15563   0.926   5.354   3.423 -0.8693  1.7114  1.0859
 3891SOL     vw15564   0.917   5.385   3.342  0.1486 -0.0684  0.2444
 3892SOL     ow15565   2.352   5.031   4.311  0.7057  0.1461  0.8376
 3892SOL     hw15566   2.353   5.088   4.388  0.5038 -0.5532  1.3683
 3892SOL     hw15567   2.281   4.968   4.328 -2.9423  2.9343 -2.0978
 3892SOL     vw15568   2.343   5.030   4.323  0.1978  0.4215  0.5205
 3893SOL     ow15569   0.012   5.997   0.406 -0.3870  0.3275 -0.1821
 3893SOL     hw15570  -0.056   6.062   0.390 -0.8340 -0.5877 -2.3098
 3893SOL     hw15571  -0.034   5.924   0.449 -1.0108 -0.6072 -2.2866
 3893SOL     vw15572  -0.003   5.996   0.409 -0.5286  0.0832 -0.7405
 3894SOL     ow15573   6.264   6.377   2.267  0.3575  0.2638 -0.5766
 3894SOL     hw15574   6.192   6.315   2.257  0.9904 -0.9066  1.5554
 3894SOL     hw15575   6.307   6.378   2.182 -1.8870  0.6970 -1.7895
 3894SOL     vw15576   6.260   6.369   2.255  0.1450  0.1664 -0.4553
 3895SOL     ow15577   0.235   3.877   5.078  0.2055  0.1567  0.2042
 3895SOL     hw15578   0.197   3.850   5.161  0.3829  0.4749  0.3915
 3895SOL     hw15579   0.160   3.903   5.024  0.2001  1.7698  0.9261
 3895SOL     vw15580   0.221   3.877   5.082  0.2282  0.4115  0.3242
 3896SOL     ow15581   2.488   2.521   6.799  0.1849 -0.2276 -0.0766
 3896SOL     hw15582   2.479   2.616   6.791 -0.9019 -0.2787  0.4358
 3896SOL     hw15583   2.534   2.494   6.719  2.1452  0.9276  0.5904
 3896SOL     vw15584   2.493   2.530   6.787  0.3002 -0.0820  0.0789
 3897SOL     ow15585   0.035   5.590   7.107 -0.3541  0.4157 -0.1614
 3897SOL     hw15586   0.080   5.590   7.022 -3.3831 -1.6249 -1.9265
 3897SOL     hw15587   0.020   5.683   7.126 -0.1191  0.9055 -2.1622
 3897SOL     vw15588   0.039   5.602   7.098 -0.7228  0.2112 -0.6583
 3898SOL     ow15589   0.195   2.856   3.097  0.1363  0.6122 -0.3446
 3898SOL     hw15590   0.156   2.812   3.173 -1.9810 -0.6204 -2.0149
 3898SOL     hw15591   0.125   2.909   3.061  1.9403  3.5688  0.1385
 3898SOL     vw15592   0.181   2.857   3.103  0.0950  0.8397 -0.5012
 3899SOL     ow15593   3.829   3.407   6.337 -0.1911 -0.2009  0.2383
 3899SOL     hw15594   3.877   3.425   6.418 -0.4833 -0.1726  0.4055
 3899SOL     hw15595   3.744   3.376   6.366  0.5564 -2.7370 -0.0127
 3899SOL     vw15596   3.824   3.405   6.351 -0.1310 -0.5318  0.2272
 3900SOL     ow15597   6.437   7.161   3.429 -0.1922  0.2201  0.3947
 3900SOL     hw15598   6.427   7.170   3.524  1.7730 -0.8132  0.7531
 3900SOL     hw15599   6.388   7.081   3.407  0.0749 -0.0291  0.6955
 3900SOL     vw15600   6.430   7.151   3.439  0.1023  0.0508  0.4817
 3901SOL     ow15601   1.154   2.728   2.544 -0.4386  0.0702  0.0001
 3901SOL     hw15602   1.212   2.657   2.514  0.8653 -0.7676  3.9208
 3901SOL     hw15603   1.155   2.791   2.472  0.5800 -2.5743 -2.5393
 3901SOL     vw15604   1.162   2.727   2.530 -0.1322 -0.3892  0.1824
 3902SOL     ow15605   6.824   7.300   2.314 -0.2032  0.0455  0.3261
 3902SOL     hw15606   6.748   7.296   2.257 -0.5450  0.0583  0.7772
 3902SOL     hw15607   6.857   7.210   2.317 -0.9180 -0.1945  1.0922
 3902SOL     vw15608   6.819   7.288   2.307 -0.3426  0.0155  0.4867
 3903SOL     ow15609   5.578   2.326   5.534 -0.1248 -0.1742  0.3560
 3903SOL     hw15610   5.490   2.307   5.500 -0.1748 -1.6797  1.2404
 3903SOL     hw15611   5.634   2.328   5.456 -0.5478 -1.7176 -0.0347
 3903SOL     vw15612   5.574   2.324   5.520 -0.1872 -0.5764  0.4208
 3904SOL     ow15613   0.221   6.974   5.232  0.4913  0.3837 -0.5468
 3904SOL     hw15614   0.268   6.979   5.149 -0.4260  0.3749 -1.0804
 3904SOL     hw15615   0.132   6.949   5.208  0.1201  0.7349  0.4079
 3904SOL     vw15616   0.216   6.971   5.218  0.3213  0.4289 -0.4911
 3905SOL     ow15617   1.357   5.887   1.910 -0.0146 -0.2546  0.0813
 3905SOL     hw15618   1.440   5.854   1.874  0.2039  0.8003 -0.4083
 3905SOL     hw15619   1.320   5.812   1.956  0.1902 -1.3895 -1.4952
 3905SOL     vw15620   1.363   5.873   1.911  0.0412 -0.2654 -0.1913
 3906SOL     ow15621   7.091   5.795   0.233  0.4320 -0.4172 -0.3721
 3906SOL     hw15622   7.006   5.837   0.218  0.9574 -0.0137 -2.5276
 3906SOL     hw15623   7.155   5.856   0.197  1.6799 -0.7250  1.2028
 3906SOL     vw15624   7.088   5.808   0.226  0.6659 -0.4046 -0.4487
 3907SOL     ow15625   2.504   3.253   6.448 -0.8319  0.7807  0.6196
 3907SOL     hw15626   2.456   3.240   6.530 -0.2774  0.7834  0.9486
 3907SOL     hw15627   2.440   3.234   6.380 -0.7692 -1.2338  1.0617
 3907SOL     vw15628   2.489   3.249   6.450 -0.7504  0.5153  0.7215
 3908SOL     ow15629   2.356   5.567   3.263 -0.1655 -0.0435 -0.0027
 3908SOL     hw15630   2.327   5.476   3.274  0.7550 -0.4364 -0.5956
 3908SOL     hw15631   2.335   5.609   3.346  2.7120 -1.7712  1.7962
 3908SOL     vw15632   2.350   5.560   3.275  0.3357 -0.3233  0.1563
 3909SOL     ow15633   0.953   4.825   4.667 -0.2263 -0.3266 -0.6184
 3909SOL     hw15634   0.967   4.820   4.761  2.3029 -1.3060 -0.9579
 3909SOL     hw15635   0.988   4.742   4.633 -2.2376 -0.5552 -2.3179
 3909SOL     vw15636   0.960   4.813   4.675 -0.1580 -0.4859 -0.8872
 3910SOL     ow15637   4.656   2.598   1.741  0.2701  0.0644 -0.4578
 3910SOL     hw15638   4.572   2.556   1.724  0.8001 -0.9119 -0.7148
 3910SOL     hw15639   4.634   2.673   1.797 -0.8623  0.3072 -1.1858
 3910SOL     vw15640   4.642   2.602   1.746  0.1905 -0.0323 -0.5878
 3911SOL     ow15641   2.345   6.181   0.415 -0.6010 -0.0979  0.4828
 3911SOL     hw15642   2.354   6.230   0.333 -0.2304 -0.7676  0.1177
 3911SOL     hw15643   2.346   6.249   0.483  2.1150  0.3018  0.1493
 3911SOL     vw15644   2.346   6.197   0.414 -0.1938 -0.1335  0.3906
 3912SOL     ow15645   5.101   7.252   5.532 -0.5381 -0.3744 -0.3268
 3912SOL     hw15646   5.149   7.212   5.459  1.8634 -1.2852  1.6015
 3912SOL     hw15647   5.100   7.346   5.511 -1.8267 -0.8086 -2.5070
 3912SOL     vw15648   5.107   7.260   5.520 -0.3912 -0.5517 -0.3598
 3913SOL     ow15649   0.165   7.389   3.391  0.9121  0.3067 -0.1459
 3913SOL     hw15650   0.253   7.372   3.423  1.6060  0.6904 -1.7286
 3913SOL     hw15651   0.154   7.484   3.399  1.3440  0.5053 -1.5075
 3913SOL     vw15652   0.175   7.399   3.396  1.0607  0.3834 -0.5343
 3914SOL     ow15653   3.729   2.209   0.582 -0.2407  0.2983 -0.3533
 3914SOL     hw15654   3.767   2.288   0.544  2.8397 -0.8135  0.1007
 3914SOL     hw15655   3.738   2.142   0.514  0.5559 -0.4735  0.4712
 3914SOL     vw15656   3.735   2.210   0.568  0.2708  0.0497 -0.1846
 3915SOL     ow15657   0.980   2.546   0.681  0.4372 -0.4281  0.3367
 3915SOL     hw15658   0.989   2.558   0.775  1.0112 -0.4557  0.2858
 3915SOL     hw15659   1.026   2.620   0.642  1.9529 -1.4767  0.0552
 3915SOL     vw15660   0.987   2.557   0.688  0.7129 -0.5701  0.2929
 3916SOL     ow15661   3.788   5.574   2.265  0.3449 -0.5001 -0.1725
 3916SOL     hw15662   3.827   5.580   2.352  1.2875  0.5169 -0.6348
 3916SOL     hw15663   3.715   5.637   2.267 -0.0346 -0.9455  0.0762
 3916SOL     vw15664   3.784   5.583   2.277  0.4191 -0.4249 -0.2006
 3917SOL     ow15665   3.300   3.070   0.687 -0.1152 -0.2784  0.3029
 3917SOL     hw15666   3.215   3.097   0.651  0.1838  0.0647 -0.1600
 3917SOL     hw15667   3.278   3.019   0.765 -0.8040 -1.2701 -0.5090
 3917SOL     vw15668   3.285   3.067   0.692 -0.1667 -0.3641  0.1347
 3918SOL     ow15669   1.970   0.814   3.826 -0.5789  0.3461  0.2920
 3918SOL     hw15670   2.020   0.890   3.858  1.8506 -1.4149  0.9453
 3918SOL     hw15671   2.021   0.781   3.752 -2.1951 -0.0669 -0.6894
 3918SOL     vw15672   1.983   0.820   3.821 -0.4716  0.0593  0.2488
 3919SOL     ow15673   3.250   5.856   1.815 -0.0681  0.3628 -0.1066
 3919SOL     hw15674   3.156   5.865   1.829  0.0899 -0.0586  1.3531
 3919SOL     hw15675   3.290   5.900   1.890  0.8762 -0.4334 -0.1192
 3919SOL     vw15676   3.243   5.863   1.826  0.0774  0.2024  0.0843
 3920SOL     ow15677   7.195   6.037   0.965 -0.4989  0.6739  0.0897
 3920SOL     hw15678   7.221   6.085   1.044  0.8813 -0.5021  0.3831
 3920SOL     hw15679   7.266   6.051   0.904  0.0250 -1.1088  0.2422
 3920SOL     vw15680   7.207   6.046   0.967 -0.2480  0.2835  0.1485
 3921SOL     ow15681   0.797   1.817   7.100  0.1905  0.1657 -0.9230
 3921SOL     hw15682   0.890   1.815   7.119  0.0671  0.4188 -0.2894
 3921SOL     hw15683   0.767   1.727   7.116  0.0790  0.3809  0.1596
 3921SOL     vw15684   0.805   1.805   7.104  0.1595  0.2275 -0.6969
 3922SOL     ow15685   2.308   5.078   5.175  0.1604 -0.0312 -0.9738
 3922SOL     hw15686   2.388   5.060   5.126  1.1875 -0.0776  0.6515
 3922SOL     hw15687   2.332   5.063   5.266 -1.0161  2.2994 -0.2051
 3922SOL     vw15688   2.322   5.074   5.180  0.1405  0.2701 -0.6578
 3923SOL     ow15689   5.896   1.083   1.035 -0.3270  0.6639  0.5471
 3923SOL     hw15690   5.829   1.099   0.969 -0.5854 -3.2628 -0.4084
 3923SOL     hw15691   5.969   1.140   1.010 -1.7781  2.0013 -0.8403
 3923SOL     vw15692   5.897   1.093   1.023 -0.5527  0.3222  0.2379
 3924SOL     ow15693   1.287   1.061   4.372 -0.3629  0.1848  0.5243
 3924SOL     hw15694   1.351   0.991   4.362  0.1766  0.8804 -1.4154
 3924SOL     hw15695   1.324   1.134   4.322 -1.6245  1.3573  1.2277
 3924SOL     vw15696   1.301   1.062   4.364 -0.4582  0.4312  0.3612
 3925SOL     ow15697   3.534   1.122   4.894  0.6369  0.0781  0.1989
 3925SOL     hw15698   3.568   1.175   4.821 -0.4729 -0.0286 -0.4233
 3925SOL     hw15699   3.473   1.061   4.852  0.7809 -0.6935  1.0997
 3925SOL     vw15700   3.530   1.121   4.879  0.5094 -0.0378  0.2358
 3926SOL     ow15701   7.104   5.676   7.450 -0.1143  0.4966  0.3844
 3926SOL     hw15702   7.059   5.695   7.533 -2.1149 -0.6334 -0.3529
 3926SOL     hw15703   7.115   5.761   7.408  0.7135  1.0573  1.6735
 3926SOL     vw15704   7.099   5.689   7.455 -0.2689  0.4215  0.4572
 3927SOL     ow15705   0.048   2.325   5.136 -0.1185  0.3783 -0.3675
 3927SOL     hw15706   0.053   2.416   5.107 -2.6788  0.6164 -0.2581
 3927SOL     hw15707   0.003   2.329   5.220 -2.4927 -1.1208 -1.4718
 3927SOL     vw15708   0.043   2.338   5.143 -0.7696  0.2121 -0.4985
 3928SOL     ow15709   3.102   2.052   0.338  0.5090  0.1707  0.5299
 3928SOL     hw15710   3.075   1.961   0.346  3.1695 -0.6518  0.9303
 3928SOL     hw15711   3.021   2.099   0.314 -0.5045 -2.5735 -2.0191
 3928SOL     vw15712   3.088   2.046   0.336  0.7263 -0.2998  0.2465
 3929SOL     ow15713   3.168   1.841   7.380 -0.1019  0.6297 -0.1259
 3929SOL     hw15714   3.189   1.782   7.308  0.6093  0.2914  0.3474
 3929SOL     hw15715   3.196   1.927   7.350  2.0393  0.1993  0.4737
 3929SOL     vw15716   3.174   1.845   7.367  0.2744  0.5283  0.0153
 3930SOL     ow15717   0.484   6.301   7.319 -0.3884  0.9703  0.1462
 3930SOL     hw15718   0.418   6.339   7.377 -0.4345  0.5842  0.3538
 3930SOL     hw15719   0.558   6.280   7.376 -0.6844 -0.0063  0.1909
 3930SOL     vw15720   0.485   6.303   7.334 -0.4335  0.7908  0.1798
 3931SOL     ow15721   6.837   4.963   0.737 -0.2015  0.3541 -0.0165
 3931SOL     hw15722   6.901   5.033   0.748  0.4999  0.2378 -2.6087
 3931SOL     hw15723   6.887   4.883   0.753  0.3941  0.2637 -2.0402
 3931SOL     vw15724   6.852   4.961   0.740 -0.0303  0.3269 -0.6255
 3932SOL     ow15725   2.281   2.443   5.928 -0.0055 -0.4509  0.4104
 3932SOL     hw15726   2.347   2.509   5.949  0.2551 -0.7854  0.6600
 3932SOL     hw15727   2.326   2.384   5.867 -0.4070 -0.1008 -0.2299
 3932SOL     vw15728   2.296   2.444   5.923 -0.0238 -0.4488  0.3591
 3933SOL     ow15729   2.837   6.334   1.906 -0.1596 -0.1842 -0.9241
 3933SOL     hw15730   2.814   6.242   1.921 -0.5263  0.2018  1.2241
 3933SOL     hw15731   2.915   6.348   1.959 -0.6676  0.9646 -0.4519
 3933SOL     vw15732   2.844   6.324   1.915 -0.2750  0.0184 -0.5784
 3934SOL     ow15733   0.742   4.077   0.842 -0.7185 -0.5963 -0.0309
 3934SOL     hw15734   0.671   4.115   0.790 -1.2011 -1.8188 -0.3015
 3934SOL     hw15735   0.702   4.058   0.927 -0.1432  0.6555  0.5377
 3934SOL     vw15736   0.727   4.079   0.847 -0.7062 -0.5922  0.0084
 3935SOL     ow15737   4.697   4.628   6.469 -0.9169  0.0611  0.3602
 3935SOL     hw15738   4.636   4.680   6.521  0.9537  1.4201  1.3188
 3935SOL     hw15739   4.744   4.692   6.416 -0.5685 -0.9912 -0.6447
 3935SOL     vw15740   4.695   4.643   6.469 -0.6242  0.1016  0.3541
 3936SOL     ow15741   2.332   7.223   3.251  0.1123 -0.1353 -0.7229
 3936SOL     hw15742   2.263   7.241   3.315  0.6460  0.2056 -0.2278
 3936SOL     hw15743   2.373   7.308   3.237 -0.2212 -0.1396 -1.7950
 3936SOL     vw15744   2.328   7.237   3.258  0.1388 -0.0908 -0.7991
 3937SOL     ow15745   2.867   0.788   7.336  0.3054 -0.5972  0.4592
 3937SOL     hw15746   2.921   0.806   7.260  1.4153 -0.8632  1.1673
 3937SOL     hw15747   2.869   0.693   7.346  2.3421 -0.4431  2.3038
 3937SOL     vw15748   2.874   0.778   7.328  0.7205 -0.6120  0.7963
 3938SOL     ow15749   2.130   3.114   2.402  0.2301  0.4060  0.0710
 3938SOL     hw15750   2.149   3.198   2.360  0.6651  0.0465 -0.4764
 3938SOL     hw15751   2.100   3.136   2.490  2.4760  1.0564  0.7314
 3938SOL     vw15752   2.129   3.128   2.408  0.5838  0.4444  0.0859
 3939SOL     ow15753   3.454   3.683   1.433 -0.5660  0.0878 -0.2196
 3939SOL     hw15754   3.503   3.677   1.351  1.5840 -1.3105  1.0621
 3939SOL     hw15755   3.482   3.767   1.472 -1.2932  0.5700 -0.7254
 3939SOL     vw15756   3.464   3.693   1.428 -0.3783 -0.0331 -0.1173
 3940SOL     ow15757   6.558   6.903   0.248  0.4778 -0.0730 -0.1488
 3940SOL     hw15758   6.533   6.966   0.180  1.6636  0.4681 -0.1144
 3940SOL     hw15759   6.507   6.928   0.324  0.7795  0.7294 -0.2002
 3940SOL     vw15760   6.548   6.914   0.249  0.6742  0.1042 -0.1511
 3941SOL     ow15761   4.872   6.566   2.857 -0.2781 -0.2077  0.1277
 3941SOL     hw15762   4.844   6.485   2.816 -0.2376 -0.4422  0.5664
 3941SOL     hw15763   4.792   6.606   2.890 -0.1365 -0.7816  1.2038
 3941SOL     vw15764   4.858   6.561   2.856 -0.2539 -0.3147  0.3276
 3942SOL     ow15765   5.300   0.342   2.563 -0.6044  0.0335  0.1251
 3942SOL     hw15766   5.356   0.300   2.497 -0.2363  0.5546  0.1007
 3942SOL     hw15767   5.354   0.412   2.599 -0.9902  0.0816  0.6157
 3942SOL     vw15768   5.314   0.345   2.559 -0.6065  0.1086  0.1866
 3943SOL     ow15769   3.348   1.705   3.844 -0.1999 -0.0268 -0.3725
 3943SOL     hw15770   3.377   1.770   3.780 -1.0957  1.6210  0.8104
 3943SOL     hw15771   3.349   1.751   3.927 -2.3554 -1.0473  0.3020
 3943SOL     vw15772   3.352   1.719   3.846 -0.6024  0.0560 -0.1274
 3944SOL     ow15773   2.779   4.493   3.275 -0.5767 -0.2427  0.5261
 3944SOL     hw15774   2.714   4.557   3.306  0.5421  2.0999 -1.5907
 3944SOL     hw15775   2.749   4.468   3.188 -0.1981 -1.4793  0.7385
 3944SOL     vw15776   2.766   4.498   3.268 -0.3792 -0.0970  0.2749
 3945SOL     ow15777   3.816   5.290   1.425 -0.2841 -0.0662  0.1392
 3945SOL     hw15778   3.738   5.335   1.459 -0.7808 -1.0277  0.3252
 3945SOL     hw15779   3.805   5.200   1.454  1.1517 -0.1237  0.5663
 3945SOL     vw15780   3.804   5.284   1.433 -0.1601 -0.2005  0.2201
 3946SOL     ow15781   1.883   1.108   6.018  0.1776  0.3455 -0.3353
 3946SOL     hw15782   1.794   1.080   6.039 -0.2187  1.2740 -0.7418
 3946SOL     hw15783   1.874   1.200   5.991  1.2036  0.3374 -0.7498
 3946SOL     vw15784   1.870   1.116   6.017  0.2607  0.4669 -0.4437
 3947SOL     ow15785   1.239   0.112   1.272  0.1738  0.2800 -0.0925
 3947SOL     hw15786   1.293   0.034   1.284  2.0378  1.8616  3.0266
 3947SOL     hw15787   1.301   0.182   1.251 -0.8574  1.7369  1.4250
 3947SOL     vw15788   1.254   0.111   1.271  0.2837  0.6808  0.5193
 3948SOL     ow15789   3.632   3.071   7.034 -0.1642 -0.5190 -0.0885
 3948SOL     hw15790   3.712   3.112   7.067 -0.1243  0.6942 -1.5839
 3948SOL     hw15791   3.565   3.140   7.042 -0.6598 -0.9543 -0.4246
 3948SOL     vw15792   3.634   3.086   7.040 -0.2242 -0.4164 -0.3302
 3949SOL     ow15793   2.390   3.452   4.144  0.1559 -0.6007 -0.2515
 3949SOL     hw15794   2.473   3.417   4.111 -0.8264 -1.2894 -2.1243
 3949SOL     hw15795   2.375   3.404   4.226  0.6544 -1.9324 -0.9071
 3949SOL     vw15796   2.399   3.441   4.150  0.0921 -0.8674 -0.5848
 3950SOL     ow15797   6.521   0.196   4.335 -0.0511  0.2991 -0.4238
 3950SOL     hw15798   6.449   0.180   4.396  0.0888  0.8478 -0.1058
 3950SOL     hw15799   6.560   0.278   4.365  0.3036  0.3408 -0.9821
 3950SOL     vw15800   6.517   0.205   4.347  0.0141  0.3770 -0.4556
 3951SOL     ow15801   2.616   5.512   1.990 -0.2270  0.4172  0.0142
 3951SOL     hw15802   2.562   5.439   2.019  0.3986 -0.2416 -0.4385
 3951SOL     hw15803   2.558   5.588   1.993 -0.8523 -0.0788  0.5985
 3951SOL     vw15804   2.601   5.513   1.994 -0.2270  0.2649  0.0316
 3952SOL     ow15805   3.136   7.386   3.410  0.0006  0.0850 -0.1689
 3952SOL     hw15806   3.079   7.374   3.487  0.8466 -0.8468  0.3360
 3952SOL     hw15807   3.075   7.393   3.337 -0.7898 -1.4047  0.2971
 3952SOL     vw15808   3.120   7.385   3.410  0.0079 -0.2346 -0.0407
 3953SOL     ow15809   1.077   1.660   0.424  0.4486  0.3689  0.1768
 3953SOL     hw15810   1.037   1.686   0.341 -1.0796 -0.1667  0.7262
 3953SOL     hw15811   1.161   1.706   0.425  0.3423  0.6551 -1.5027
 3953SOL     vw15812   1.083   1.670   0.413  0.2329  0.3361  0.0277
 3954SOL     ow15813   6.331   5.824   5.688 -0.1630 -0.0748  0.5402
 3954SOL     hw15814   6.238   5.805   5.699  0.2800 -1.3440  2.9540
 3954SOL     hw15815   6.369   5.805   5.774  2.3714  0.1558 -0.4475
 3954SOL     vw15816   6.324   5.819   5.701  0.2298 -0.2120  0.7284
 3955SOL     ow15817   1.573   1.960   3.127  0.3542 -0.7230  0.0408
 3955SOL     hw15818   1.624   1.986   3.050  0.4537  0.4894  0.4869
 3955SOL     hw15819   1.634   1.908   3.179  1.0768  0.4656  0.4242
 3955SOL     vw15820   1.588   1.957   3.124  0.4627 -0.4062  0.1501
 3956SOL     ow15821   6.619   6.227   6.861  0.5621  0.4365 -0.5065
 3956SOL     hw15822   6.529   6.248   6.835  0.4788 -0.5609 -1.0612
 3956SOL     hw15823   6.662   6.312   6.867 -0.1743  0.8731 -1.1456
 3956SOL     vw15824   6.613   6.241   6.858  0.4537  0.3624 -0.6640
 3957SOL     ow15825   2.323   0.811   6.315 -0.1167 -0.3599 -0.0941
 3957SOL     hw15826   2.341   0.901   6.344  0.9138 -0.4043 -0.5601
 3957SOL     hw15827   2.246   0.784   6.366  0.7210  0.1062  1.4542
 3957SOL     vw15828   2.315   0.819   6.326  0.1297 -0.3043  0.0486
 3958SOL     ow15829   1.393   2.644   1.449 -0.6881 -0.0658 -0.0574
 3958SOL     hw15830   1.479   2.672   1.416 -0.8126  0.3368 -0.0460
 3958SOL     hw15831   1.394   2.668   1.542 -0.4428 -0.9491  0.1774
 3958SOL     vw15832   1.405   2.651   1.457 -0.6722 -0.1292 -0.0250
 3959SOL     ow15833   4.408   0.171   6.876  0.7123 -0.2852  0.0393
 3959SOL     hw15834   4.356   0.157   6.955  0.9923  1.7532  0.6455
 3959SOL     hw15835   4.491   0.208   6.908  0.5400  1.3019 -1.2330
 3959SOL     vw15836   4.412   0.174   6.891  0.7262  0.1931 -0.0484
 3960SOL     ow15837   5.074   2.587   5.355 -0.3235 -0.4680  0.1296
 3960SOL     hw15838   5.165   2.591   5.383 -0.3740  0.0329  0.2270
 3960SOL     hw15839   5.024   2.626   5.427 -0.6170 -0.7355  0.0772
 3960SOL     vw15840   5.079   2.592   5.368 -0.3691 -0.4371  0.1354
 3961SOL     ow15841   0.107   1.259   2.604 -0.1448 -0.4306  0.3976
 3961SOL     hw15842   0.113   1.216   2.689 -1.5666  1.0819  1.2993
 3961SOL     hw15843   0.036   1.215   2.559  0.4614 -1.0801  0.0489
 3961SOL     vw15844   0.099   1.248   2.609 -0.2524 -0.3168  0.4705
 3962SOL     ow15845   1.879   4.475   3.099 -0.4398 -0.1393 -0.7579
 3962SOL     hw15846   1.818   4.419   3.147 -0.7068  1.0720  0.3712
 3962SOL     hw15847   1.897   4.427   3.018 -0.5911 -1.8891  0.1954
 3962SOL     vw15848   1.874   4.461   3.095 -0.4951 -0.2105 -0.4832
 3963SOL     ow15849   3.103   6.814   2.348 -0.4891  0.2818 -0.2447
 3963SOL     hw15850   3.114   6.879   2.279 -1.2266  0.2118 -0.4319
 3963SOL     hw15851   3.064   6.862   2.420 -0.7760  0.1038 -0.2822
 3963SOL     vw15852   3.100   6.829   2.348 -0.6243  0.2491 -0.2744
 3964SOL     ow15853   3.391   4.973   5.124  0.2681  0.0944  0.2078
 3964SOL     hw15854   3.451   4.967   5.050  0.3913 -3.3336  0.3948
 3964SOL     hw15855   3.310   4.933   5.092 -1.4513  3.1022  0.4790
 3964SOL     vw15856   3.388   4.967   5.110  0.0573  0.0393  0.2682
 3965SOL     ow15857   0.108   3.436   4.607 -0.3309  0.8944  0.0034
 3965SOL     hw15858   0.179   3.378   4.636 -1.0524  0.1095  0.2396
 3965SOL     hw15859   0.108   3.507   4.671  0.2729  0.9272 -0.0273
 3965SOL     vw15860   0.117   3.438   4.620 -0.3464  0.7951  0.0305
 3966SOL     ow15861   2.451   4.716   0.107 -0.3439 -0.5520  0.0133
 3966SOL     hw15862   2.388   4.788   0.104  0.0546 -0.1276  1.2415
 3966SOL     hw15863   2.399   4.637   0.095 -0.7357 -0.0720 -1.8077
 3966SOL     vw15864   2.436   4.715   0.105 -0.3431 -0.4325 -0.0649
 3967SOL     ow15865   3.396   3.714   1.032  0.2702 -0.3938 -0.0316
 3967SOL     hw15866   3.347   3.759   1.101 -0.9017 -0.8826 -0.5178
 3967SOL     hw15867   3.420   3.784   0.970  0.2001 -0.1484  0.2163
 3967SOL     vw15868   3.393   3.729   1.033  0.1062 -0.4258 -0.0631
 3968SOL     ow15869   0.525   1.288   1.935  0.0797  0.2585 -0.5616
 3968SOL     hw15870   0.593   1.353   1.953  0.9206 -0.6372 -0.4138
 3968SOL     hw15871   0.445   1.340   1.921  0.8890  1.3603 -1.2462
 3968SOL     vw15872   0.523   1.304   1.936  0.2974  0.2857 -0.6325
 3969SOL     ow15873   3.843   5.087   5.539 -0.5886 -0.3898 -0.1559
 3969SOL     hw15874   3.886   5.006   5.512 -0.0936 -0.6216  1.2168
 3969SOL     hw15875   3.902   5.157   5.511  0.5359 -0.6844  1.3278
 3969SOL     vw15876   3.856   5.086   5.532 -0.3749 -0.4592  0.2210
 3970SOL     ow15877   1.219   3.597   4.710  0.5714 -0.3666  0.4708
 3970SOL     hw15878   1.132   3.560   4.724  0.3418  0.0712  0.2008
 3970SOL     hw15879   1.204   3.683   4.670  1.1068 -0.0529  0.9200
 3970SOL     vw15880   1.206   3.603   4.707  0.6118 -0.2675  0.4942
 3971SOL     ow15881   1.699   5.704   7.445  0.0402 -0.7767 -0.2340
 3971SOL     hw15882   1.630   5.751   7.397  1.1376  0.2538 -0.8668
 3971SOL     hw15883   1.665   5.696   7.534 -1.2999 -1.1648 -0.7640
 3971SOL     vw15884   1.685   5.709   7.450  0.0081 -0.6919 -0.3872
 3972SOL     ow15885   0.075   2.782   2.309  0.1599 -0.6196  0.2119
 3972SOL     hw15886   0.011   2.839   2.264  1.7182 -0.7214 -2.3350
 3972SOL     hw15887   0.126   2.842   2.363 -0.5213 -0.1880  0.3993
 3972SOL     vw15888   0.073   2.798   2.310  0.2757 -0.5760 -0.0994
 3973SOL     ow15889   3.586   5.991   3.483  0.7199 -0.1556  0.1215
 3973SOL     hw15890   3.642   5.930   3.532 -1.0516  0.3193  2.9904
 3973SOL     hw15891   3.613   6.078   3.513 -0.0298  0.1970 -0.1945
 3973SOL     vw15892   3.597   5.994   3.493  0.3873 -0.0465  0.4584
 3974SOL     ow15893   1.569   3.136   4.342 -0.3575  0.6802  0.3645
 3974SOL     hw15894   1.479   3.108   4.322 -0.0293 -0.0088 -0.1800
 3974SOL     hw15895   1.602   3.173   4.261  0.6115 -1.1460 -0.1325
 3974SOL     vw15896   1.561   3.137   4.329 -0.1863  0.3483  0.2270
 3975SOL     ow15897   6.684   2.972   3.928  0.4770  0.3991 -0.4481
 3975SOL     hw15898   6.692   3.030   3.852 -0.8695  2.7973  1.1364
 3975SOL     hw15899   6.613   2.911   3.904 -1.2290  2.2940 -0.4953
 3975SOL     vw15900   6.676   2.971   3.915  0.0741  0.9655 -0.2452
 3976SOL     ow15901   3.386   0.496   2.307  0.1785  0.2084 -0.2430
 3976SOL     hw15902   3.343   0.422   2.349  2.4618  0.8957  3.8635
 3976SOL     hw15903   3.331   0.572   2.328  0.8203  0.4157  0.7684
 3976SOL     vw15904   3.373   0.497   2.315  0.5643  0.3264  0.4323
 3977SOL     ow15905   7.344   4.978   6.349 -0.5898  0.6390  0.0731
 3977SOL     hw15906   7.273   5.041   6.359 -0.1061  0.8091  3.2044
 3977SOL     hw15907   7.414   5.028   6.307 -0.4837  2.0189  1.8036
 3977SOL     vw15908   7.344   4.993   6.345 -0.5121  0.8435  0.7148
 3978SOL     ow15909   6.289   4.057   0.469  0.0335 -0.1761  0.0839
 3978SOL     hw15910   6.200   4.022   0.464  0.1895 -0.7606  1.0356
 3978SOL     hw15911   6.281   4.135   0.524  0.0683 -0.1061 -0.0112
 3978SOL     vw15912   6.277   4.063   0.476  0.0591 -0.2441  0.1969
 3979SOL     ow15913   2.527   6.243   0.837 -0.2463 -0.5213 -0.3639
 3979SOL     hw15914   2.548   6.157   0.801 -0.2157 -0.3003 -0.8897
 3979SOL     hw15915   2.494   6.225   0.925  0.0134 -1.0479 -0.3674
 3979SOL     vw15916   2.526   6.229   0.844 -0.2081 -0.5615 -0.4337
 3980SOL     ow15917   6.308   2.461   3.726 -0.7198 -0.2960 -0.3345
 3980SOL     hw15918   6.244   2.518   3.684 -0.4479  0.3969  0.1592
 3980SOL     hw15919   6.385   2.464   3.669 -0.3817  0.5734  0.1490
 3980SOL     vw15920   6.310   2.469   3.713 -0.6394 -0.0899 -0.2055
 3981SOL     ow15921   6.512   4.127   6.288  0.1672  0.0057  0.0182
 3981SOL     hw15922   6.510   4.210   6.336  1.0882  0.0876 -0.0545
 3981SOL     hw15923   6.552   4.065   6.349  1.2182  0.0764 -0.5746
 3981SOL     vw15924   6.517   4.130   6.302  0.4277  0.0260 -0.0696
 3982SOL     ow15925   2.479   1.714   3.266 -0.4090 -0.1188 -0.1761
 3982SOL     hw15926   2.539   1.675   3.203  0.8419  3.0442 -1.1420
 3982SOL     hw15927   2.430   1.640   3.301  0.6042 -2.3104 -2.9763
 3982SOL     vw15928   2.480   1.699   3.262 -0.1103  0.0094 -0.6729
 3983SOL     ow15929   5.517   1.624   6.178 -0.1229  0.1580  0.0739
 3983SOL     hw15930   5.532   1.529   6.175 -0.5293  0.0989 -0.0833
 3983SOL     hw15931   5.483   1.639   6.266 -0.9889  0.0195 -0.2326
 3983SOL     vw15932   5.515   1.613   6.189 -0.2909  0.1320  0.0129
 3984SOL     ow15933   1.771   1.361   3.351  0.0205  0.3880 -0.0373
 3984SOL     hw15934   1.749   1.320   3.435  1.5663  1.4960  0.9499
 3984SOL     hw15935   1.686   1.385   3.314 -0.6498  1.4065  2.0035
 3984SOL     vw15936   1.757   1.359   3.357  0.1360  0.6686  0.3624
 3985SOL     ow15937   4.762   4.416   5.569 -0.1159 -0.2812 -0.6619
 3985SOL     hw15938   4.822   4.381   5.635  0.9935  1.4264 -0.7151
 3985SOL     hw15939   4.700   4.470   5.619  0.4150  0.6006 -0.9344
 3985SOL     vw15940   4.761   4.419   5.585  0.1004  0.0606 -0.7050
 3986SOL     ow15941   6.655   5.547   1.020  0.1086 -0.5637 -0.6759
 3986SOL     hw15942   6.728   5.488   1.003 -0.5979 -1.6780  0.0769
 3986SOL     hw15943   6.581   5.490   1.042 -0.3521  0.6001  1.0472
 3986SOL     vw15944   6.654   5.532   1.021 -0.0455 -0.5569 -0.3492
 3987SOL     ow15945   0.528   1.042   6.310  0.2904 -0.1674 -0.1761
 3987SOL     hw15946   0.514   1.134   6.330  1.3705  0.0770 -0.4679
 3987SOL     hw15947   0.452   1.016   6.257  0.3855  0.7858 -0.7981
 3987SOL     vw15948   0.516   1.051   6.305  0.4455 -0.0094 -0.2964
 3988SOL     ow15949   2.875   0.053   5.822  0.1084  0.6296  1.1224
 3988SOL     hw15950   2.788   0.016   5.809  0.5393 -0.4886  1.3335
 3988SOL     hw15951   2.888   0.111   5.747 -1.2832  1.7730  1.6941
 3988SOL     vw15952   2.865   0.056   5.811 -0.0184  0.6329  1.2259
 3989SOL     ow15953   5.345   0.265   4.318 -0.1534  0.2765 -0.2825
 3989SOL     hw15954   5.344   0.189   4.376  0.8565  0.7561  0.3971
 3989SOL     hw15955   5.254   0.296   4.318 -0.4495 -0.5782 -0.0893
 3989SOL     vw15956   5.333   0.259   4.326 -0.0591  0.2270 -0.1674
 3990SOL     ow15957   2.079   5.588   3.929 -0.0275  0.1455 -0.3700
 3990SOL     hw15958   1.989   5.602   3.901 -0.2401  0.8066  0.5918
 3990SOL     hw15959   2.103   5.503   3.893 -0.5669  0.5622 -1.7808
 3990SOL     vw15960   2.070   5.579   3.921 -0.1268  0.2880 -0.4292
 3991SOL     ow15961   2.178   2.065   6.988  0.4187 -0.4065 -0.0138
 3991SOL     hw15962   2.168   2.131   7.057  1.9393  1.7384 -1.6888
 3991SOL     hw15963   2.094   2.065   6.942  0.2317 -0.0195  0.3259
 3991SOL     vw15964   2.166   2.074   6.991  0.5947 -0.0725 -0.1900
 3992SOL     ow15965   0.046   1.975   3.567  0.1431  0.4430 -0.4946
 3992SOL     hw15966   0.099   1.907   3.606 -1.0719 -0.6925 -0.7544
 3992SOL     hw15967  -0.009   2.007   3.639  1.8590  2.3883  0.0488
 3992SOL     vw15968   0.046   1.971   3.582  0.2091  0.5499 -0.4572
 3993SOL     ow15969   1.821   3.489   2.892  0.0985 -0.3636  0.2012
 3993SOL     hw15970   1.820   3.579   2.923 -1.5709  0.0447 -0.9000
 3993SOL     hw15971   1.884   3.489   2.819 -0.5112  0.1202 -0.3311
 3993SOL     vw15972   1.829   3.501   2.886 -0.2022 -0.2459 -0.0143
 3994SOL     ow15973   3.764   1.972   1.158 -0.1010 -0.8154 -0.1509
 3994SOL     hw15974   3.721   2.031   1.096  0.0735 -0.0108  0.4804
 3994SOL     hw15975   3.809   1.908   1.104  2.9108  1.8115 -1.0036
 3994SOL     vw15976   3.764   1.971   1.143  0.3192 -0.3627 -0.1802
 3995SOL     ow15977   1.719   6.380   6.774 -0.3783  0.2261  0.6482
 3995SOL     hw15978   1.676   6.432   6.706 -0.1206  0.4052  0.6222
 3995SOL     hw15979   1.788   6.332   6.727 -0.4914  0.0072  0.7048
 3995SOL     vw15980   1.723   6.380   6.759 -0.3592  0.2208  0.6521
 3996SOL     ow15981   3.268   6.250   6.785  0.6465  0.0863  0.0480
 3996SOL     hw15982   3.264   6.334   6.832 -2.9227  0.0368  0.1276
 3996SOL     hw15983   3.292   6.186   6.852  0.7734  0.7106  0.6049
 3996SOL     vw15984   3.270   6.253   6.800  0.1924  0.1621  0.1316
 3997SOL     ow15985   3.610   4.127   6.869  0.1011 -0.1130 -0.2024
 3997SOL     hw15986   3.589   4.174   6.788 -1.9385  1.8447  1.3103
 3997SOL     hw15987   3.611   4.195   6.937  0.0241 -1.8647  1.6749
 3997SOL     vw15988   3.607   4.142   6.868 -0.1781 -0.0858  0.2449
 3998SOL     ow15989   5.023   0.882   4.515 -0.0922 -0.0397  0.4393
 3998SOL     hw15990   4.945   0.895   4.462 -0.0265  1.9848  0.7570
 3998SOL     hw15991   4.990   0.857   4.601 -0.2134 -2.8714 -0.3385
 3998SOL     vw15992   5.009   0.881   4.519 -0.0997 -0.1462  0.3786
 3999SOL     ow15993   7.449   5.629   1.563  0.8418 -0.6078  0.2406
 3999SOL     hw15994   7.374   5.688   1.570  1.2200 -0.2248  1.3578
 3999SOL     hw15995   7.514   5.680   1.514  0.8956 -0.3782  0.5458
 3999SOL     vw15996   7.448   5.644   1.557  0.8991 -0.5269  0.4283
 4000SOL     ow15997   6.415   1.464   4.870 -0.1293 -0.2234 -0.5355
 4000SOL     hw15998   6.399   1.559   4.870 -1.1356 -0.3621  0.9177
 4000SOL     hw15999   6.331   1.426   4.844 -0.2121 -0.7610  0.4917
 4000SOL     vw16000   6.401   1.472   4.866 -0.2732 -0.3127 -0.2084
 4001SOL     ow16001   2.332   5.177   4.522  0.6372  0.6828  0.3267
 4001SOL     hw16002   2.302   5.114   4.588  1.7354 -0.4857 -0.2553
 4001SOL     hw16003   2.276   5.254   4.536 -1.5567 -0.8009  0.3334
 4001SOL     vw16004   2.320   5.179   4.533  0.4926  0.3328  0.2508
 4002SOL     ow16005   1.940   2.727   7.223  0.0228  0.3123 -0.2279
 4002SOL     hw16006   1.897   2.802   7.262 -0.7489  0.3723 -1.1458
 4002SOL     hw16007   1.961   2.755   7.134  0.9893 -0.0927 -0.1400
 4002SOL     vw16008   1.937   2.740   7.216  0.0485  0.2669 -0.3374
 4003SOL     ow16009   0.532   1.274   6.899  0.5634 -0.5823  0.3916
 4003SOL     hw16010   0.451   1.245   6.943  0.9802 -0.2380  1.4215
 4003SOL     hw16011   0.600   1.265   6.966  0.8002  2.4042  0.6791
 4003SOL     vw16012   0.530   1.269   6.914  0.6497 -0.1428  0.5655
 4004SOL     ow16013   2.275   4.743   2.923  0.0682 -0.1237  0.1374
 4004SOL     hw16014   2.345   4.681   2.903  1.1190  0.4015  1.9556
 4004SOL     hw16015   2.209   4.726   2.856  0.8163 -2.3891 -0.1250
 4004SOL     vw16016   2.276   4.733   2.911  0.3057 -0.3529  0.3426
 4005SOL     ow16017   6.332   3.348   0.114  0.7086  0.1588 -0.1529
 4005SOL     hw16018   6.375   3.280   0.165 -2.3198 -0.4679  1.8271
 4005SOL     hw16019   6.381   3.428   0.134  1.9000 -0.7509  0.6815
 4005SOL     vw16020   6.344   3.350   0.123  0.4663 -0.0439  0.2185
 4006SOL     ow16021   1.834   5.352   6.699  0.0811 -0.2266 -0.3017
 4006SOL     hw16022   1.871   5.314   6.620  1.4116  0.9322 -0.2756
 4006SOL     hw16023   1.740   5.357   6.681  0.0704 -2.0377 -0.8913
 4006SOL     vw16024   1.826   5.348   6.686  0.2552 -0.3128 -0.3765
 4007SOL     ow16025   6.017   2.534   1.272 -0.0339  0.3921  0.0879
 4007SOL     hw16026   6.045   2.591   1.201  0.7376  0.1540  0.1942
 4007SOL     hw16027   6.000   2.593   1.345  0.0419  0.5540 -0.0259
 4007SOL     vw16028   6.018   2.549   1.272  0.0780  0.3821  0.0870
 4008SOL     ow16029   3.571   5.573   3.389  0.4982  0.4071 -0.2487
 4008SOL     hw16030   3.661   5.600   3.409  1.0678 -1.0932 -0.6826
 4008SOL     hw16031   3.567   5.570   3.294  0.3456 -0.6461 -0.2227
 4008SOL     vw16032   3.582   5.576   3.379  0.5531  0.0701 -0.3026
 4009SOL     ow16033   2.087   6.241   4.911  0.2390  0.5622 -0.6414
 4009SOL     hw16034   2.108   6.201   4.827  0.8283  0.9751 -0.6915
 4009SOL     hw16035   2.102   6.335   4.898  0.7930  0.5806  0.0606
 4009SOL     vw16036   2.091   6.249   4.899  0.3897  0.6189 -0.5555
 4010SOL     ow16037   6.914   7.261   3.310  0.1765  0.4872  0.1680
 4010SOL     hw16038   6.875   7.314   3.380  0.4491 -1.7059  2.1225
 4010SOL     hw16039   6.843   7.244   3.249 -0.7092  0.4980  1.1781
 4010SOL     vw16040   6.900   7.266   3.311  0.0956  0.1993  0.5591
 4011SOL     ow16041   4.248   0.114   7.077 -0.4822  0.0289 -0.1175
 4011SOL     hw16042   4.170   0.139   7.126 -0.1921  0.6393  0.0430
 4011SOL     hw16043   4.216   0.058   7.007 -1.0491  0.1839  0.0152
 4011SOL     vw16044   4.234   0.110   7.074 -0.5190  0.1299 -0.0789
 4012SOL     ow16045   2.574   2.668   4.526 -0.1846 -0.4253  0.0775
 4012SOL     hw16046   2.650   2.617   4.500  0.2519 -0.5474  1.4899
 4012SOL     hw16047   2.609   2.735   4.585 -1.0286  0.1710 -0.0761
 4012SOL     vw16048   2.589   2.670   4.531 -0.2384 -0.3629  0.2437
 4013SOL     ow16049   6.547   0.001   1.036 -0.3315  0.3014  0.6521
 4013SOL     hw16050   6.465   0.036   1.071 -0.6731  2.0032 -1.5525
 4013SOL     hw16051   6.613   0.067   1.058 -0.0812  0.1965  0.2419
 4013SOL     vw16052   6.545   0.015   1.043 -0.3436  0.5121  0.3072
 4014SOL     ow16053   6.886   7.349   5.448  0.5122 -0.0361 -0.3771
 4014SOL     hw16054   6.912   7.274   5.395  0.2077 -0.7930  0.5232
 4014SOL     hw16055   6.801   7.375   5.412 -0.2844 -1.3191  0.4913
 4014SOL     vw16056   6.878   7.343   5.436  0.3669 -0.3052 -0.1440
 4015SOL     ow16057   1.667   2.370   7.406 -0.1236 -0.2378 -0.3640
 4015SOL     hw16058   1.572   2.367   7.417  0.0585  1.7875  2.7588
 4015SOL     hw16059   1.683   2.452   7.359  0.1183 -0.2381 -0.2825
 4015SOL     vw16060   1.656   2.380   7.401 -0.0676  0.0293  0.0589
 4016SOL     ow16061   2.064   2.211   5.789 -0.3470  0.2991 -0.1962
 4016SOL     hw16062   1.994   2.149   5.766 -0.8568  0.5681  0.5740
 4016SOL     hw16063   2.018   2.294   5.805  0.2492  0.6919 -0.4957
 4016SOL     vw16064   2.049   2.214   5.788 -0.3355  0.3864 -0.1342
 4017SOL     ow16065   6.000   2.510   0.919  0.2260  0.4159 -0.4462
 4017SOL     hw16066   5.976   2.531   0.829 -0.6236 -0.9267 -0.5660
 4017SOL     hw16067   6.094   2.491   0.916  0.1507  0.1274 -1.1074
 4017SOL     vw16068   6.009   2.510   0.907  0.1040  0.2006 -0.5492
 4018SOL     ow16069   2.771   7.170   3.315  0.6852  0.8288 -0.1087
 4018SOL     hw16070   2.728   7.187   3.231 -1.0921  1.3774  0.8724
 4018SOL     hw16071   2.778   7.255   3.357  2.1133  0.6437  0.0887
 4018SOL     vw16072   2.766   7.183   3.309  0.6392  0.8769  0.0466
 4019SOL     ow16073   0.301   0.010   5.446  0.7714  0.2494 -0.5266
 4019SOL     hw16074   0.312   0.101   5.475  0.2259  0.6825 -1.5868
 4019SOL     hw16075   0.371  -0.038   5.489 -1.1655  0.3961  3.1814
 4019SOL     vw16076   0.312   0.016   5.455  0.4439  0.3259 -0.1774
 4020SOL     ow16077   0.856   0.736   0.714 -0.0976 -0.3884  0.2094
 4020SOL     hw16078   0.813   0.703   0.792 -0.3470 -1.3713 -0.3311
 4020SOL     hw16079   0.821   0.683   0.643  1.1912 -0.4766 -0.3832
 4020SOL     vw16080   0.846   0.725   0.715  0.0395 -0.5297  0.0599
 4021SOL     ow16081   0.612   3.763   5.988 -0.1240 -0.0531 -0.0771
 4021SOL     hw16082   0.588   3.775   5.896 -0.3746 -0.4730 -0.0692
 4021SOL     hw16083   0.703   3.733   5.986 -0.4297 -0.9984 -0.2413
 4021SOL     vw16084   0.621   3.761   5.976 -0.1974 -0.2333 -0.0980
 4022SOL     ow16085   4.767   6.349   3.299  0.4258  0.3198 -0.0958
 4022SOL     hw16086   4.686   6.383   3.337  0.9433  0.3693  1.0017
 4022SOL     hw16087   4.772   6.258   3.331  0.9944  0.4407  0.1756
 4022SOL     vw16088   4.757   6.341   3.309  0.5693  0.3421  0.0848
 4023SOL     ow16089   6.375   6.204   0.378  0.2583 -0.0448  0.1407
 4023SOL     hw16090   6.356   6.134   0.441 -0.6772  0.3189  0.2863
 4023SOL     hw16091   6.391   6.281   0.433 -3.4218  1.0080  0.0120
 4023SOL     vw16092   6.374   6.205   0.394 -0.3510  0.1419  0.1429
 4024SOL     ow16093   5.921   4.151   3.299  0.5630  0.1823 -0.3522
 4024SOL     hw16094   5.867   4.208   3.354  0.0370 -1.7214  1.2208
 4024SOL     hw16095   6.005   4.148   3.343  1.1080  0.9678 -1.3043
 4024SOL     vw16096   5.925   4.158   3.312  0.5653  0.0346 -0.2702
 4025SOL     ow16097   5.908   3.631   4.784 -0.5228 -0.1178 -0.6516
 4025SOL     hw16098   5.820   3.663   4.802 -1.2512 -0.7749 -2.7558
 4025SOL     hw16099   5.913   3.547   4.831 -0.8882  0.0757 -0.2620
 4025SOL     vw16100   5.897   3.624   4.792 -0.6671 -0.1791 -0.8781
 4026SOL     ow16101   5.488   4.422   0.337 -0.1709  0.1975  0.3274
 4026SOL     hw16102   5.507   4.516   0.337  0.9083  0.0022 -0.4472
 4026SOL     hw16103   5.393   4.417   0.338 -0.2531  1.3046 -0.0458
 4026SOL     vw16104   5.478   4.434   0.337 -0.0396  0.3178  0.1760
 4027SOL     ow16105   0.167   2.025   0.338  0.2327  0.3018  0.2934
 4027SOL     hw16106   0.260   2.020   0.316  0.4894 -0.3661  1.4438
 4027SOL     hw16107   0.126   1.954   0.288  0.6184 -0.4465  1.0161
 4027SOL     vw16108   0.174   2.015   0.329  0.3175  0.1149  0.5405
 4028SOL     ow16109   2.641   1.830   0.030 -0.3868 -0.1690 -0.6845
 4028SOL     hw16110   2.575   1.822   0.099 -1.0015 -0.0225 -1.2501
 4028SOL     hw16111   2.704   1.893   0.065 -1.4719  1.0613 -0.8406
 4028SOL     vw16112   2.640   1.837   0.044 -0.6109  0.0126 -0.7797
 4029SOL     ow16113   4.445   2.870   0.621  0.0788  0.4079  0.1989
 4029SOL     hw16114   4.462   2.952   0.669  0.6277  0.4710 -0.0908
 4029SOL     hw16115   4.361   2.884   0.578 -0.1174  0.5912  0.6441
 4029SOL     vw16116   4.436   2.883   0.622  0.1252  0.4405  0.2194
 4030SOL     ow16117   5.019   2.221   2.208  0.2220  0.1545 -0.2468
 4030SOL     hw16118   5.047   2.137   2.243 -0.5367 -0.5899 -1.3822
 4030SOL     hw16119   5.056   2.285   2.269  1.1786 -0.9622  0.3933
 4030SOL     vw16120   5.028   2.219   2.221  0.2480 -0.0911 -0.3122
 4031SOL     ow16121   2.878   1.761   2.808 -0.3217 -0.2573 -0.3654
 4031SOL     hw16122   2.835   1.678   2.831  0.2962 -0.3272  0.5945
 4031SOL     hw16123   2.822   1.828   2.847 -0.0685 -0.2997  0.0744
 4031SOL     vw16124   2.865   1.758   2.816 -0.2067 -0.2722 -0.1806
 4032SOL     ow16125   4.676   6.836   2.552 -0.9712 -0.1822  0.1449
 4032SOL     hw16126   4.757   6.800   2.588 -1.4378 -0.1488  1.2768
 4032SOL     hw16127   4.638   6.764   2.501 -0.8426 -0.5934  0.6291
 4032SOL     vw16128   4.682   6.822   2.550 -1.0159 -0.2317  0.3582
 4033SOL     ow16129   7.273   6.884   6.844  0.2303  0.3916 -0.1034
 4033SOL     hw16130   7.234   6.961   6.803 -1.8537 -0.4900  0.0726
 4033SOL     hw16131   7.228   6.810   6.802 -1.1049 -0.5875  2.8098
 4033SOL     vw16132   7.262   6.884   6.833 -0.2208  0.1459  0.3040
 4034SOL     ow16133   2.925   5.161   1.997 -0.2835  0.1373 -0.2068
 4034SOL     hw16134   2.866   5.215   1.945 -0.2961  1.2290  0.9045
 4034SOL     hw16135   2.869   5.091   2.031 -0.3015 -0.5052 -1.5107
 4034SOL     vw16136   2.910   5.159   1.995 -0.2875  0.1962 -0.2322
 4035SOL     ow16137   4.859   2.974   7.410  0.5178  0.4861 -0.3197
 4035SOL     hw16138   4.909   3.047   7.373 -0.5957  1.5683  0.2125
 4035SOL     hw16139   4.826   2.927   7.334  1.3439  0.4649 -0.6747
 4035SOL     vw16140   4.861   2.978   7.395  0.4797  0.6261 -0.2964
 4036SOL     ow16141   3.725   1.119   2.519  0.1761 -0.0830  0.1951
 4036SOL     hw16142   3.752   1.196   2.569 -0.4501 -0.4421  1.1155
 4036SOL     hw16143   3.638   1.098   2.554 -0.2835 -0.3453 -1.0527
 4036SOL     vw16144   3.717   1.127   2.530  0.0329 -0.1649  0.1519
 4037SOL     ow16145   7.255   2.856   0.647  0.8705  0.1009 -0.0456
 4037SOL     hw16146   7.202   2.786   0.609  0.9726  0.3290 -0.6225
 4037SOL     hw16147   7.343   2.819   0.653  0.7825 -0.0582  0.3148
 4037SOL     vw16148   7.260   2.842   0.643  0.8724  0.1099 -0.0742
 4038SOL     ow16149   5.087   2.942   1.352  0.1848 -0.5662 -0.1317
 4038SOL     hw16150   5.103   2.919   1.260  0.8416  2.2163 -0.8086
 4038SOL     hw16151   5.153   3.008   1.372  0.2539 -1.3011  2.4874
 4038SOL     vw16152   5.098   2.947   1.343  0.2806 -0.2960  0.1245
 4039SOL     ow16153   1.948   1.354   2.146  0.0463  0.0221  0.0950
 4039SOL     hw16154   2.035   1.377   2.114 -0.3974  0.9036 -0.5099
 4039SOL     hw16155   1.891   1.362   2.069 -0.0820 -3.9953 -0.4899
 4039SOL     vw16156   1.952   1.358   2.131 -0.0292 -0.3916 -0.0621
 4040SOL     ow16157   6.845   2.111   6.768 -0.2685 -0.3134  0.3500
 4040SOL     hw16158   6.898   2.036   6.796  2.6570  0.6795 -1.9163
 4040SOL     hw16159   6.884   2.186   6.812  0.7424  0.5183 -1.8065
 4040SOL     vw16160   6.858   2.111   6.777  0.2506 -0.0728 -0.2334
 4041SOL     ow16161   5.349   0.777   5.614  0.2336 -0.3196  0.3448
 4041SOL     hw16162   5.287   0.758   5.685  0.3370 -0.1558  0.4795
 4041SOL     hw16163   5.348   0.698   5.559 -2.0311  0.6083 -1.0958
 4041SOL     vw16164   5.340   0.764   5.616 -0.0515 -0.1756  0.1726
 4042SOL     ow16165   6.399   1.946   2.589 -0.1398  0.3974  0.2118
 4042SOL     hw16166   6.435   1.977   2.506  0.7481 -0.4422  0.2659
 4042SOL     hw16167   6.469   1.959   2.652  0.0570 -1.1145  0.3480
 4042SOL     vw16168   6.413   1.951   2.586  0.0036  0.0871  0.2370
 4043SOL     ow16169   4.252   1.646   3.117 -0.3496 -0.2091  0.1089
 4043SOL     hw16170   4.218   1.712   3.056 -0.4831 -0.7104 -0.3663
 4043SOL     hw16171   4.207   1.565   3.092  0.4717 -0.6707  0.0993
 4043SOL     vw16172   4.242   1.644   3.106 -0.2589 -0.3361  0.0449
 4044SOL     ow16173   3.014   6.562   5.373  0.0582  0.3884  0.3961
 4044SOL     hw16174   2.934   6.513   5.394 -1.1437  2.1996  0.3138
 4044SOL     hw16175   2.999   6.593   5.284  0.3172  1.7105  0.7942
 4044SOL     vw16176   3.001   6.560   5.364 -0.0662  0.8018  0.4375
 4045SOL     ow16177   1.723   7.396   5.326  0.4634  0.3256 -0.2142
 4045SOL     hw16178   1.815   7.375   5.311  0.5053  1.2088 -1.3204
 4045SOL     hw16179   1.701   7.459   5.257 -0.8875  0.3598  0.2176
 4045SOL     vw16180   1.732   7.402   5.315  0.2907  0.4468 -0.3033
 4046SOL     ow16181   5.204   2.983   5.010  0.0084  0.0170  0.1500
 4046SOL     hw16182   5.268   3.034   5.059  0.5923  0.3093 -0.8839
 4046SOL     hw16183   5.182   3.038   4.935 -1.6212  0.0086  0.5893
 4046SOL     vw16184   5.210   2.997   5.006 -0.1297  0.0546  0.0718
 4047SOL     ow16185   6.173   3.727   4.537 -0.6329  0.0388 -0.6684
 4047SOL     hw16186   6.216   3.645   4.513 -0.5052  0.4503 -1.9103
 4047SOL     hw16187   6.230   3.796   4.501 -2.2895  0.6001 -2.3486
 4047SOL     vw16188   6.187   3.726   4.529 -0.8345  0.1671 -1.0540
 4048SOL     ow16189   6.990   2.313   6.911  0.4853  0.1691  0.1282
 4048SOL     hw16190   6.903   2.352   6.912 -0.2349 -1.3404  2.2647
 4048SOL     hw16191   7.049   2.386   6.930 -0.1984  1.2760 -1.7053
 4048SOL     vw16192   6.986   2.328   6.913  0.3002  0.1160  0.1681
 4049SOL     ow16193   1.932   0.226   2.323 -0.3984 -0.3234  0.5587
 4049SOL     hw16194   1.960   0.151   2.375  0.8549 -0.8519 -0.8307
 4049SOL     hw16195   2.013   0.274   2.303 -0.9344  0.2297 -0.3531
 4049SOL     vw16196   1.946   0.223   2.327 -0.3038 -0.3202  0.2552
 4050SOL     ow16197   0.444   5.354   1.463 -0.2083 -0.4132  0.2753
 4050SOL     hw16198   0.382   5.393   1.524  0.0012 -0.3599  0.4547
 4050SOL     hw16199   0.530   5.377   1.497 -0.0885 -0.3219 -0.0796
 4050SOL     vw16200   0.447   5.362   1.475 -0.1649 -0.3941  0.2521
 4051SOL     ow16201   0.624   0.926   1.816 -0.6918 -0.2377  0.4006
 4051SOL     hw16202   0.544   0.873   1.814  0.5009 -2.1467  0.1045
 4051SOL     hw16203   0.695   0.861   1.825  0.9247  1.2585 -0.8514
 4051SOL     vw16204   0.623   0.910   1.817 -0.3211 -0.2922  0.1964
 4052SOL     ow16205   2.492   0.395   2.949  0.0345 -0.5494 -0.1901
 4052SOL     hw16206   2.454   0.434   3.028 -0.8973  3.9518 -2.5477
 4052SOL     hw16207   2.420   0.347   2.909 -0.0319 -1.1917  0.6669
 4052SOL     vw16208   2.477   0.394   2.954 -0.0974 -0.0403 -0.3880
 4053SOL     ow16209   2.328   1.205   1.221  0.4267  0.2403 -0.0547
 4053SOL     hw16210   2.413   1.172   1.250  0.6101 -0.5182 -1.3485
 4053SOL     hw16211   2.292   1.134   1.167 -1.3893  0.2288  1.0855
 4053SOL     vw16212   2.335   1.191   1.217  0.2112  0.1387 -0.0750
 4054SOL     ow16213   3.219   0.267   2.385 -0.0579 -0.4119  0.3418
 4054SOL     hw16214   3.284   0.206   2.418 -1.0931 -1.9348 -0.3159
 4054SOL     hw16215   3.222   0.257   2.290  0.0359  0.8972  0.1776
 4054SOL     vw16216   3.228   0.258   2.376 -0.1820 -0.4401  0.2333
 4055SOL     ow16217   1.474   5.648   3.572 -0.5267  0.5382 -0.3068
 4055SOL     hw16218   1.520   5.667   3.654  0.9896  0.2108 -1.0544
 4055SOL     hw16219   1.445   5.734   3.541 -0.7682  0.7080  0.3716
 4055SOL     vw16220   1.476   5.662   3.579 -0.3585  0.5171 -0.3158
 4056SOL     ow16221   7.251   6.189   5.522 -0.1747 -0.5635 -0.3428
 4056SOL     hw16222   7.204   6.272   5.522  0.7641 -0.0110 -0.0224
 4056SOL     hw16223   7.185   6.124   5.548 -0.5021  0.3424  1.2578
 4056SOL     vw16224   7.236   6.191   5.526 -0.0937 -0.3712 -0.0894
 4057SOL     ow16225   0.276   2.804   6.355  0.4158  0.5174 -0.3205
 4057SOL     hw16226   0.346   2.759   6.403  0.3668  1.5394  0.7801
 4057SOL     hw16227   0.242   2.739   6.294  1.2861 -0.4778  0.2263
 4057SOL     vw16228   0.281   2.790   6.354  0.5242  0.5211 -0.1032
 4058SOL     ow16229   0.025   2.280   3.484 -0.2266  0.3028 -0.3628
 4058SOL     hw16230   0.044   2.368   3.517 -1.2357  0.1381  0.7185
 4058SOL     hw16231  -0.062   2.286   3.446  0.1580  0.0297 -1.2981
 4058SOL     vw16232   0.016   2.292   3.484 -0.3090  0.2452 -0.3434
 4059SOL     ow16233   2.331   6.592   1.053 -0.0880  0.4676 -0.0246
 4059SOL     hw16234   2.352   6.654   1.123  0.3082  1.8795 -1.3282
 4059SOL     hw16235   2.297   6.515   1.098 -0.3029  1.5133  1.6820
 4059SOL     vw16236   2.330   6.590   1.068 -0.0641  0.7918  0.0286
 4060SOL     ow16237   1.553   6.400   2.908 -0.3238 -0.7247 -0.1988
 4060SOL     hw16238   1.506   6.364   2.832 -1.8907 -0.9300  0.8265
 4060SOL     hw16239   1.484   6.435   2.964  0.9407  1.3461  0.1878
 4060SOL     vw16240   1.538   6.400   2.905 -0.3637 -0.4785 -0.0124
 4061SOL     ow16241   0.717   3.910   4.241 -0.5272 -0.2585 -0.6704
 4061SOL     hw16242   0.764   3.845   4.294 -1.3837 -0.0658  0.3570
 4061SOL     hw16243   0.699   3.865   4.159  0.2779 -0.7776 -0.5839
 4061SOL     vw16244   0.721   3.896   4.237 -0.5340 -0.3016 -0.5236
 4062SOL     ow16245   3.912   4.432   3.348 -0.1025 -0.2191  0.4921
 4062SOL     hw16246   3.947   4.512   3.308 -0.4753  0.0196  0.6369
 4062SOL     hw16247   3.989   4.385   3.379  0.0234  1.0064  2.1663
 4062SOL     vw16248   3.927   4.437   3.347 -0.1351 -0.0260  0.7322
 4063SOL     ow16249   3.590   3.617   1.214  0.1603  0.0044 -0.4403
 4063SOL     hw16250   3.535   3.649   1.142  0.4423  0.6412 -0.3794
 4063SOL     hw16251   3.579   3.522   1.212 -0.5621  0.0860 -0.7398
 4063SOL     vw16252   3.581   3.609   1.204  0.1023  0.0991 -0.4718
 4064SOL     ow16253   1.947   3.854   7.231 -0.4358 -0.0189 -0.2890
 4064SOL     hw16254   1.891   3.788   7.272 -0.8950 -0.8731 -2.1823
 4064SOL     hw16255   2.028   3.850   7.282 -0.9580 -1.0112  0.5338
 4064SOL     vw16256   1.950   3.845   7.243 -0.5653 -0.2625 -0.4301
 4065SOL     ow16257   5.525   6.975   4.028  0.0444  0.3564  0.3657
 4065SOL     hw16258   5.444   7.022   4.007 -0.0076 -0.0454 -0.3850
 4065SOL     hw16259   5.588   7.005   3.963 -0.0734 -0.7951 -0.3304
 4065SOL     vw16260   5.522   6.985   4.016  0.0217  0.1516  0.1750
 4066SOL     ow16261   3.683   5.127   6.350 -0.0297  0.0195 -0.6612
 4066SOL     hw16262   3.630   5.158   6.422 -0.1932  0.2282 -0.8702
 4066SOL     hw16263   3.620   5.092   6.287  0.0467  0.6224 -1.0805
 4066SOL     vw16264   3.668   5.126   6.351 -0.0412  0.1268 -0.7441
 4067SOL     ow16265   7.166   0.234   6.321  0.2535  0.1825  0.2937
 4067SOL     hw16266   7.075   0.210   6.306  0.6009 -0.4717 -0.9288
 4067SOL     hw16267   7.209   0.220   6.236  1.7224 -0.5800  1.1144
 4067SOL     vw16268   7.160   0.229   6.308  0.4933 -0.0044  0.2408
 4068SOL     ow16269   4.586   2.665   4.974 -0.1086  0.1258 -0.4625
 4068SOL     hw16270   4.633   2.593   5.015 -0.8886 -1.4642 -2.1801
 4068SOL     hw16271   4.646   2.739   4.979 -0.1048  0.0490  3.2496
 4068SOL     vw16272   4.600   2.665   4.980 -0.2112 -0.0942 -0.1996
 4069SOL     ow16273   6.471   6.912   2.447 -0.2291 -0.3170  0.2440
 4069SOL     hw16274   6.402   6.922   2.381 -0.0663 -0.5792  0.0372
 4069SOL     hw16275   6.455   6.826   2.486 -0.0064 -0.3881  0.1806
 4069SOL     vw16276   6.460   6.902   2.443 -0.1781 -0.3610  0.2084
 4070SOL     ow16277   4.288   3.598   2.920 -0.0255 -0.4752 -0.5014
 4070SOL     hw16278   4.209   3.623   2.967  0.5688  1.3513 -0.3779
 4070SOL     hw16279   4.340   3.549   2.983  0.3600  1.1565  0.5013
 4070SOL     vw16280   4.284   3.595   2.934  0.1040 -0.0188 -0.3527
 4071SOL     ow16281   3.379   4.313   3.190  0.0658 -0.6229 -0.2250
 4071SOL     hw16282   3.448   4.248   3.175 -0.3816 -1.2452  0.3388
 4071SOL     hw16283   3.348   4.336   3.103 -1.6521 -3.2382 -0.4047
 4071SOL     vw16284   3.384   4.308   3.177 -0.2201 -1.0502 -0.1743
 4072SOL     ow16285   2.306   0.493   3.117  0.1870  0.0819  0.1388
 4072SOL     hw16286   2.345   0.559   3.175 -1.8243  0.3961  1.2515
 4072SOL     hw16287   2.303   0.414   3.170 -1.3727  0.2864  0.4116
 4072SOL     vw16288   2.310   0.492   3.132 -0.2842  0.1503  0.3216
 4073SOL     ow16289   4.002   7.439   1.709 -0.6468 -0.0497 -0.0480
 4073SOL     hw16290   4.013   7.352   1.671 -0.1326 -0.2206  0.4770
 4073SOL     hw16291   3.909   7.442   1.734 -0.9759  0.0432 -1.2187
 4073SOL     vw16292   3.991   7.428   1.707 -0.6223 -0.0601 -0.1332
 4074SOL     ow16293   6.432   1.756   4.907 -0.4016  0.6039 -0.2416
 4074SOL     hw16294   6.492   1.816   4.861  2.4038 -1.5517  0.3389
 4074SOL     hw16295   6.470   1.747   4.994 -0.0965 -2.6986 -0.6047
 4074SOL     vw16296   6.445   1.763   4.912  0.0088 -0.1162 -0.2131
 4075SOL     ow16297   7.165   1.544   3.524 -0.2755 -0.3547 -0.5395
 4075SOL     hw16298   7.124   1.622   3.485 -0.9562 -0.5099 -0.1500
 4075SOL     hw16299   7.147   1.552   3.618  1.2567 -0.0367 -0.2442
 4075SOL     vw16300   7.157   1.556   3.531 -0.1633 -0.3332 -0.4492
 4076SOL     ow16301   7.251   5.761   0.999 -0.2479 -0.5117 -0.3028
 4076SOL     hw16302   7.344   5.778   1.016  0.2753 -1.8600 -1.6025
 4076SOL     hw16303   7.215   5.846   0.976  0.6928  0.0069  0.0927
 4076SOL     vw16304   7.259   5.774   0.998 -0.0548 -0.6213 -0.4221
 4077SOL     ow16305   4.782   7.046   5.886 -0.2244  0.9845  0.2646
 4077SOL     hw16306   4.779   6.975   5.950 -0.1110 -0.3184 -1.1064
 4077SOL     hw16307   4.748   7.122   5.932  0.4224  0.2438  2.0326
 4077SOL     vw16308   4.777   7.046   5.900 -0.1242  0.7150  0.3169
 4078SOL     ow16309   2.292   5.003   2.887  0.0673 -0.2734  0.2587
 4078SOL     hw16310   2.291   4.907   2.892 -0.3325 -0.3857 -1.3773
 4078SOL     hw16311   2.255   5.032   2.970  0.4373 -1.5270  0.8886
 4078SOL     vw16312   2.287   4.994   2.899  0.0634 -0.4537  0.1260
 4079SOL     ow16313   6.895   3.071   2.533  0.2657  0.1911  0.1923
 4079SOL     hw16314   6.838   3.148   2.535 -1.9256 -1.2885 -0.8494
 4079SOL     hw16315   6.913   3.051   2.625 -1.0996  0.6015  0.5707
 4079SOL     vw16316   6.890   3.078   2.545 -0.2031  0.0501  0.1045
 4080SOL     ow16317   1.634   0.994   6.138  0.0210  0.8522  0.0210
 4080SOL     hw16318   1.612   1.081   6.172  1.6349  1.6729 -0.9190
 4080SOL     hw16319   1.549   0.949   6.130 -1.0926  2.9975 -1.2132
 4080SOL     vw16320   1.620   1.000   6.141  0.0870  1.2435 -0.2656
 4081SOL     ow16321   2.349   4.032   2.972  0.5352 -0.2396  0.2220
 4081SOL     hw16322   2.270   4.080   2.947 -1.4004 -2.4312  1.7349
 4081SOL     hw16323   2.339   4.015   3.065  1.3469 -3.0060 -0.1016
 4081SOL     vw16324   2.337   4.036   2.981  0.3870 -0.8938  0.3788
 4082SOL     ow16325   6.979   3.937   1.612  0.2776 -0.6630 -0.1899
 4082SOL     hw16326   7.047   3.917   1.548 -0.1679 -0.3425 -0.7684
 4082SOL     hw16327   6.948   4.025   1.588 -0.7569 -1.0409 -0.3089
 4082SOL     vw16328   6.984   3.946   1.601  0.0823 -0.6704 -0.2819
 4083SOL     ow16329   6.035   6.516   5.294 -0.0131 -0.0200 -0.0940
 4083SOL     hw16330   5.967   6.522   5.227 -0.5957 -1.1224  0.3796
 4083SOL     hw16331   6.108   6.472   5.250 -0.1949 -0.2616 -0.1553
 4083SOL     vw16332   6.036   6.511   5.279 -0.1137 -0.1974 -0.0393
 4084SOL     ow16333   1.702   6.663   3.347  0.4416  0.0535 -0.7845
 4084SOL     hw16334   1.757   6.693   3.419  0.0039 -0.5313 -0.2016
 4084SOL     hw16335   1.685   6.571   3.365 -2.3649  0.6294  0.1637
 4084SOL     vw16336   1.707   6.655   3.358  0.0135  0.0525 -0.5826
 4085SOL     ow16337   3.721   2.823   4.094 -0.5777  0.8035 -0.1214
 4085SOL     hw16338   3.756   2.910   4.112 -2.0533  1.6571 -1.1285
 4085SOL     hw16339   3.720   2.780   4.179  2.0880  0.9882  0.0842
 4085SOL     vw16340   3.726   2.829   4.108 -0.4207  0.9406 -0.2272
 4086SOL     ow16341   0.505   5.237   1.222 -0.3069  0.0662  0.2156
 4086SOL     hw16342   0.589   5.196   1.245  0.9074  1.8361 -0.8336
 4086SOL     hw16343   0.471   5.270   1.304 -0.5519 -1.6434  0.8341
 4086SOL     vw16344   0.512   5.236   1.236 -0.1790  0.0741  0.1587
 4087SOL     ow16345   3.179   7.225   4.662 -0.5381  0.3289  0.0880
 4087SOL     hw16346   3.177   7.130   4.651 -0.3275  0.2452  0.7232
 4087SOL     hw16347   3.094   7.255   4.631 -0.1048  0.0949 -1.4358
 4087SOL     vw16348   3.168   7.217   4.656 -0.4531  0.2873 -0.0291
 4088SOL     ow16349   3.697   4.224   1.835 -0.1901  0.1450  0.3057
 4088SOL     hw16350   3.643   4.153   1.801  0.9220 -0.5592 -0.0184
 4088SOL     hw16351   3.736   4.265   1.758  1.0792 -0.4397  0.6054
 4088SOL     vw16352   3.695   4.220   1.821  0.1241 -0.0253  0.3024
 4089SOL     ow16353   5.956   4.819   3.634  0.4012 -0.1395  1.0449
 4089SOL     hw16354   5.906   4.836   3.714  0.8385 -0.7887  1.4583
 4089SOL     hw16355   6.017   4.749   3.657 -1.0633 -2.0542 -0.4945
 4089SOL     vw16356   5.958   4.812   3.647  0.2656 -0.4778  0.8963
 4090SOL     ow16357   4.221   6.181   0.438  0.1811 -0.1387  0.8237
 4090SOL     hw16358   4.291   6.200   0.499 -0.5667 -0.4572  1.8134
 4090SOL     hw16359   4.236   6.090   0.411  0.4002 -0.0582  0.6660
 4090SOL     vw16360   4.232   6.171   0.442  0.1113 -0.1702  0.9335
 4091SOL     ow16361   3.352   6.008   2.965  0.1893  0.2467  0.6482
 4091SOL     hw16362   3.314   5.923   2.941  2.0781 -0.2226 -0.9763
 4091SOL     hw16363   3.277   6.066   2.973 -1.0036 -1.0382 -0.6042
 4091SOL     vw16364   3.337   6.004   2.963  0.2811  0.0153  0.2687
 4092SOL     ow16365   1.147   0.905   0.213  0.1916  0.7842 -0.6218
 4092SOL     hw16366   1.186   0.885   0.128  1.4995 -0.7811  0.2834
 4092SOL     hw16367   1.056   0.927   0.193  0.4177  0.2810 -2.3931
 4092SOL     vw16368   1.140   0.905   0.199  0.3940  0.5113 -0.7361
 4093SOL     ow16369   4.953   6.514   7.036 -0.1225  0.6284  0.6156
 4093SOL     hw16370   4.895   6.465   6.977 -0.3381  0.9212  0.5812
 4093SOL     hw16371   5.032   6.529   6.984  0.4165 -0.6937  1.0208
 4093SOL     vw16372   4.956   6.510   7.021 -0.0801  0.4928  0.6647
 4094SOL     ow16373   4.065   0.763   1.206 -0.1661 -0.6002 -0.3415
 4094SOL     hw16374   4.068   0.691   1.269 -1.2558 -1.6400 -1.4156
 4094SOL     hw16375   4.064   0.842   1.260  3.8057 -1.1708  0.8355
 4094SOL     vw16376   4.065   0.764   1.222  0.2141 -0.8127 -0.3279
 4095SOL     ow16377   6.813   0.927   3.701 -0.1587  0.2553  0.0588
 4095SOL     hw16378   6.783   0.954   3.614 -1.2625  0.5678  0.5225
 4095SOL     hw16379   6.791   1.001   3.757 -0.2200 -0.2886  0.7559
 4095SOL     vw16380   6.806   0.941   3.697 -0.3123  0.2248  0.2121
 4096SOL     ow16381   3.532   1.535   6.719  0.0532  0.4422  0.0088
 4096SOL     hw16382   3.603   1.500   6.773 -2.5849 -2.4139  2.0044
 4096SOL     hw16383   3.472   1.575   6.781 -1.3847  0.3453 -1.2555
 4096SOL     vw16384   3.534   1.535   6.734 -0.4846  0.0526  0.1054
 4097SOL     ow16385   5.430   5.355   4.396 -0.2662 -0.3839  0.4715
 4097SOL     hw16386   5.345   5.344   4.355 -0.5606  1.9840  0.2853
 4097SOL     hw16387   5.493   5.347   4.324 -0.5885  1.0206  0.0054
 4097SOL     vw16388   5.427   5.353   4.381 -0.3476  0.1137  0.3850
 4098SOL     ow16389   3.378   4.377   3.454 -0.1564 -0.1732 -0.2475
 4098SOL     hw16390   3.319   4.309   3.485  1.0318 -0.3667  1.7643
 4098SOL     hw16391   3.365   4.379   3.359 -0.6072 -2.8505 -0.3215
 4098SOL     vw16392   3.369   4.368   3.445 -0.0590 -0.5522  0.0082
 4099SOL     ow16393   6.735   0.047   6.111 -0.7460  0.7170  0.3881
 4099SOL     hw16394   6.647   0.057   6.147 -0.5672  0.9328  0.7757
 4099SOL     hw16395   6.785   0.118   6.151 -0.4938  0.8422 -0.1455
 4099SOL     vw16396   6.730   0.057   6.121 -0.6893  0.7620  0.3686
 4100SOL     ow16397   5.059   6.245   1.382  1.0385 -0.7373  0.3265
 4100SOL     hw16398   5.053   6.318   1.443  3.8509  0.9379 -1.1840
 4100SOL     hw16399   4.989   6.260   1.319 -0.0748 -0.8852  1.5032
 4100SOL     vw16400   5.049   6.257   1.381  1.2627 -0.5357  0.2825
 4101SOL     ow16401   7.013   5.847   6.587 -0.5903  0.3205 -0.8709
 4101SOL     hw16402   6.987   5.889   6.669 -0.9160  0.7450 -1.1861
 4101SOL     hw16403   6.953   5.773   6.577  0.2565 -0.5034 -0.1006
 4101SOL     vw16404   7.002   5.843   6.596 -0.5217  0.2677 -0.8106
 4102SOL     ow16405   2.399   4.946   2.436  0.9381 -0.1055  0.0939
 4102SOL     hw16406   2.444   5.002   2.498  2.1867 -2.9946  2.0385
 4102SOL     hw16407   2.392   4.861   2.481 -0.8596 -1.5216 -2.5770
 4102SOL     vw16408   2.404   4.942   2.450  0.8657 -0.6733 -0.0019
 4103SOL     ow16409   7.016   3.086   2.263 -0.5724  0.1480  0.2411
 4103SOL     hw16410   7.043   3.016   2.203 -2.3071 -1.3713  1.1128
 4103SOL     hw16411   7.021   3.166   2.211 -0.0749 -0.8369 -1.2855
 4103SOL     vw16412   7.020   3.087   2.248 -0.7355 -0.1825  0.1547
 4104SOL     ow16413   6.081   5.011   3.971  0.0764 -0.1072 -0.2683
 4104SOL     hw16414   6.017   5.063   3.923 -0.6490  0.3845  1.1495
 4104SOL     hw16415   6.147   5.074   4.000  0.4830 -0.3876 -0.5770
 4104SOL     vw16416   6.081   5.026   3.969  0.0343 -0.0794 -0.1221
 4105SOL     ow16417   2.642   5.606   5.959  0.2251  0.5978  0.1717
 4105SOL     hw16418   2.716   5.546   5.950  0.8193  1.2029  0.7938
 4105SOL     hw16419   2.605   5.586   6.045 -0.7474 -0.1280 -0.3969
 4105SOL     vw16420   2.647   5.596   5.969  0.1752  0.5817  0.1783
 4106SOL     ow16421   7.228   0.562   1.000  0.0671 -0.8518 -0.6477
 4106SOL     hw16422   7.216   0.572   1.094  0.4148  0.3345 -0.7160
 4106SOL     hw16423   7.252   0.470   0.989  0.9022 -0.7977  0.5145
 4106SOL     vw16424   7.230   0.551   1.011  0.2232 -0.6882 -0.5034
 4107SOL     ow16425   1.941   4.572   5.636  0.3533 -0.0715 -0.3895
 4107SOL     hw16426   1.982   4.658   5.633 -0.3621  0.2827 -0.2860
 4107SOL     hw16427   1.993   4.518   5.576 -0.2221  0.8890 -1.8091
 4107SOL     vw16428   1.953   4.576   5.628  0.1830  0.1020 -0.5631
 4108SOL     ow16429   6.779   6.253   6.477 -0.1741 -0.0064  0.3053
 4108SOL     hw16430   6.775   6.344   6.447 -1.4158 -0.1527 -0.0328
 4108SOL     hw16431   6.774   6.260   6.572  1.4254  0.3380  0.4028
 4108SOL     vw16432   6.778   6.266   6.486 -0.1266  0.0196  0.2735
 4109SOL     ow16433   6.587   6.068   1.113 -0.2133 -0.7355  0.2587
 4109SOL     hw16434   6.540   6.130   1.168  1.2968  1.9409 -1.2543
 4109SOL     hw16435   6.524   5.997   1.096 -2.1806  0.5897  1.6933
 4109SOL     vw16436   6.572   6.066   1.118 -0.2737 -0.2072  0.2483
 4110SOL     ow16437   3.223   3.600   0.822 -0.5002 -0.1115 -0.0154
 4110SOL     hw16438   3.262   3.650   0.894 -0.9088 -2.2143  1.8105
 4110SOL     hw16439   3.273   3.626   0.745  0.1496  2.0691  1.0379
 4110SOL     vw16440   3.235   3.610   0.822 -0.4683 -0.1012  0.3645
 4111SOL     ow16441   4.247   2.681   1.707  0.8796  0.3064  0.7001
 4111SOL     hw16442   4.239   2.776   1.721  1.6725  0.3589  0.8493
 4111SOL     hw16443   4.240   2.671   1.612  1.4337  0.5833  0.6303
 4111SOL     vw16444   4.245   2.692   1.696  1.0576  0.3499  0.7106
 4112SOL     ow16445   3.470   3.938   1.513 -0.9684  0.2750  0.3154
 4112SOL     hw16446   3.527   4.015   1.512 -0.8966  0.2761  1.9249
 4112SOL     hw16447   3.381   3.974   1.513 -0.9452  0.3319  0.3336
 4112SOL     vw16448   3.466   3.953   1.513 -0.9558  0.2826  0.5302
 4113SOL     ow16449   1.287   5.308   2.051 -0.8559 -0.5492  0.7542
 4113SOL     hw16450   1.198   5.336   2.069 -0.7937  0.5208 -0.4920
 4113SOL     hw16451   1.339   5.388   2.059 -0.2001 -0.9154  0.2082
 4113SOL     vw16452   1.282   5.322   2.055 -0.7612 -0.4563  0.5177
 4114SOL     ow16453   0.991   6.900   2.452 -0.1252 -0.8222  0.3662
 4114SOL     hw16454   1.028   6.981   2.489  2.9849 -1.9821  0.0805
 4114SOL     hw16455   0.998   6.836   2.523  1.9865 -2.0074 -0.8229
 4114SOL     vw16456   0.997   6.903   2.466  0.5637 -1.1318  0.1718
 4115SOL     ow16457   2.160   3.435   3.430  0.2267  0.5310 -0.8121
 4115SOL     hw16458   2.249   3.444   3.464 -0.0608  3.7610 -0.5745
 4115SOL     hw16459   2.172   3.421   3.336  1.0275  2.1237 -0.9784
 4115SOL     vw16460   2.173   3.434   3.422  0.2944  1.1672 -0.8028
 4116SOL     ow16461   2.229   1.764   3.705  0.0126  0.0421 -0.7480
 4116SOL     hw16462   2.311   1.810   3.723  1.1664 -1.7620 -1.1155
 4116SOL     hw16463   2.255   1.674   3.689 -2.2830 -1.1014  1.2989
 4116SOL     vw16464   2.243   1.758   3.705 -0.1380 -0.3467 -0.5264
 4117SOL     ow16465   3.025   6.726   3.222 -0.4860  0.0470  0.5423
 4117SOL     hw16466   3.101   6.678   3.190 -0.6326 -0.2136  0.5794
 4117SOL     hw16467   3.011   6.692   3.311  0.0807  0.9550  0.9935
 4117SOL     vw16468   3.033   6.715   3.230 -0.4305  0.1323  0.6067
 4118SOL     ow16469   0.792   2.025   1.014  0.2124 -0.1181  0.7442
 4118SOL     hw16470   0.731   2.019   1.087  2.1835  0.0358  2.4873
 4118SOL     hw16471   0.767   2.107   0.969  0.3811  1.0207  2.6303
 4118SOL     vw16472   0.780   2.035   1.017  0.4947  0.0525  1.2230
 4119SOL     ow16473   1.704   0.230   4.237  0.1229 -0.2808  0.0643
 4119SOL     hw16474   1.649   0.161   4.200 -0.1429  0.2725 -0.5830
 4119SOL     hw16475   1.644   0.284   4.289  0.1211  0.0715 -0.2936
 4119SOL     vw16476   1.689   0.228   4.239  0.0875 -0.1613 -0.0682
 4120SOL     ow16477   3.719   3.825   1.700  0.6250 -1.0043 -0.7931
 4120SOL     hw16478   3.654   3.892   1.722 -0.7561 -2.6723  0.5819
 4120SOL     hw16479   3.761   3.857   1.620 -2.3265 -0.1102 -2.1184
 4120SOL     vw16480   3.716   3.838   1.693  0.0532 -1.1063 -0.7866
 4121SOL     ow16481   6.397   6.325   0.119 -0.4411  0.3306  0.2620
 4121SOL     hw16482   6.393   6.266   0.194 -0.2015  1.7919  1.4767
 4121SOL     hw16483   6.337   6.396   0.141 -1.0260  0.3713 -1.3352
 4121SOL     vw16484   6.388   6.327   0.132 -0.4866  0.5291  0.2116
 4122SOL     ow16485   3.187   4.445   5.907 -0.9340  0.3020  0.2865
 4122SOL     hw16486   3.182   4.465   6.001 -1.2124 -0.9247  0.5609
 4122SOL     hw16487   3.274   4.407   5.896 -0.3058  1.8326 -0.2727
 4122SOL     vw16488   3.198   4.443   5.918 -0.8878  0.3421  0.2489
 4123SOL     ow16489   1.061   0.856   4.411 -0.1705  0.3699 -0.7635
 4123SOL     hw16490   0.973   0.825   4.394  0.0849  0.1759 -1.8501
 4123SOL     hw16491   1.118   0.783   4.386  0.3019  0.5735 -0.3008
 4123SOL     vw16492   1.057   0.842   4.405 -0.0744  0.3712 -0.8457
 4124SOL     ow16493   2.958   3.737   1.883  0.6325  0.3039 -0.3768
 4124SOL     hw16494   3.017   3.749   1.958 -0.4966 -0.2228  0.6288
 4124SOL     hw16495   2.945   3.642   1.879 -1.3160  0.4925  0.3839
 4124SOL     vw16496   2.964   3.726   1.892  0.2264  0.2593 -0.1438
 4125SOL     ow16497   7.348   6.168   2.923  0.4580  0.1503 -0.6904
 4125SOL     hw16498   7.254   6.181   2.919 -0.0797 -1.4624  2.9701
 4125SOL     hw16499   7.360   6.073   2.916  1.9410  0.3700 -1.8454
 4125SOL     vw16500   7.337   6.157   2.921  0.5825 -0.0336 -0.3598
 4126SOL     ow16501   4.478   1.671   5.817  0.3126 -0.0109 -0.2840
 4126SOL     hw16502   4.426   1.593   5.799 -0.1592  0.7573 -2.6324
 4126SOL     hw16503   4.568   1.639   5.824  0.2020 -0.7294 -1.7844
 4126SOL     vw16504   4.483   1.656   5.816  0.2358 -0.0044 -0.7920
 4127SOL     ow16505   3.134   4.178   0.001  0.0666 -0.6223 -0.2914
 4127SOL     hw16506   3.172   4.108   0.054  0.9485 -1.2995 -1.7413
 4127SOL     hw16507   3.163   4.259   0.043  2.1742 -1.1294 -0.6678
 4127SOL     vw16508   3.143   4.179   0.014  0.4609 -0.7787 -0.5323
 4128SOL     ow16509   3.189   3.947   1.661 -0.4498 -0.5302  0.2214
 4128SOL     hw16510   3.198   3.997   1.579  0.4521 -0.9669  0.0399
 4128SOL     hw16511   3.103   3.906   1.655 -1.5276  1.4992  0.6685
 4128SOL     vw16512   3.179   3.948   1.649 -0.4728 -0.3201  0.2565
 4129SOL     ow16513   6.322   3.168   4.188 -0.0943 -0.1818  0.5516
 4129SOL     hw16514   6.265   3.092   4.198  0.4551 -0.7856 -0.6547
 4129SOL     hw16515   6.410   3.130   4.180  0.4510  0.7059  1.9609
 4129SOL     vw16516   6.326   3.153   4.188  0.0503 -0.1444  0.5784
 4130SOL     ow16517   6.209   3.931   1.157 -0.2051 -0.0650 -0.2954
 4130SOL     hw16518   6.206   3.853   1.212  1.2050  0.7265  0.9807
 4130SOL     hw16519   6.117   3.955   1.145 -0.5926 -1.0016  0.6514
 4130SOL     vw16520   6.197   3.924   1.163 -0.0701 -0.0843 -0.0021
 4131SOL     ow16521   3.163   5.913   4.479 -0.1715 -0.3485 -0.3919
 4131SOL     hw16522   3.155   5.818   4.474 -0.3912 -0.2788 -1.5777
 4131SOL     hw16523   3.160   5.932   4.573 -0.3684 -1.4872 -0.1519
 4131SOL     vw16524   3.161   5.903   4.491 -0.2265 -0.4895 -0.5167
 4132SOL     ow16525   4.857   6.793   1.417 -0.7389 -0.1650 -0.4305
 4132SOL     hw16526   4.766   6.766   1.415 -1.2654  1.4521 -0.1288
 4132SOL     hw16527   4.884   6.781   1.508 -0.2703 -1.7180 -0.7458
 4132SOL     vw16528   4.849   6.788   1.429 -0.7467 -0.1566 -0.4323
 4133SOL     ow16529   0.467   2.825   1.686  0.0138  0.9484 -0.1235
 4133SOL     hw16530   0.378   2.847   1.659 -0.1485  0.8916  0.3587
 4133SOL     hw16531   0.496   2.761   1.621  0.0269  1.6151 -0.7898
 4133SOL     vw16532   0.459   2.819   1.674 -0.0059  1.0288 -0.1478
 4134SOL     ow16533   4.195   0.131   1.811  0.0944  0.1730  0.5310
 4134SOL     hw16534   4.167   0.167   1.895  1.3879 -0.2468  1.1784
 4134SOL     hw16535   4.126   0.069   1.787  0.2967 -0.6368  1.9205
 4134SOL     vw16536   4.182   0.128   1.819  0.2918  0.0108  0.7998
 4135SOL     ow16537   1.630   5.434   2.757 -0.1196 -0.2927  0.2144
 4135SOL     hw16538   1.572   5.363   2.728  0.9239 -0.8610 -0.5680
 4135SOL     hw16539   1.595   5.512   2.714 -0.1647 -0.6696 -0.4459
 4135SOL     vw16540   1.618   5.435   2.747  0.0122 -0.4175  0.0241
 4136SOL     ow16541   6.177   4.351   7.403  0.3880 -0.1158 -1.0444
 4136SOL     hw16542   6.224   4.293   7.464  1.4020  2.1293  0.4514
 4136SOL     hw16543   6.099   4.379   7.451 -0.9035 -1.3379 -2.3290
 4136SOL     vw16544   6.173   4.347   7.418  0.3514  0.0193 -1.0164
 4137SOL     ow16545   3.627   5.095   3.307  0.9470  0.5120 -0.6876
 4137SOL     hw16546   3.585   5.156   3.368  1.3520 -0.5588  0.7142
 4137SOL     hw16547   3.690   5.148   3.259 -0.1546  1.6008 -0.9672
 4137SOL     vw16548   3.630   5.110   3.309  0.8550  0.5143 -0.5394
 4138SOL     ow16549   5.830   5.389   4.309 -0.3390  0.4966 -0.1446
 4138SOL     hw16550   5.760   5.361   4.249  0.2396 -1.0910 -0.1143
 4138SOL     hw16551   5.911   5.370   4.261  0.1104  0.1876  0.7210
 4138SOL     vw16552   5.831   5.383   4.295 -0.2034  0.2465 -0.0265
 4139SOL     ow16553   0.942   2.113   7.287  0.4944 -0.5214 -0.1727
 4139SOL     hw16554   0.979   2.029   7.315  0.4376 -0.6452 -0.4670
 4139SOL     hw16555   0.852   2.091   7.261 -1.6653  0.4786  5.0959
 4139SOL     vw16556   0.935   2.099   7.288  0.2019 -0.4059  0.4838
 4140SOL     ow16557   0.667   2.768   0.099  0.2158 -0.1667  0.3129
 4140SOL     hw16558   0.726   2.803   0.032 -0.4917  1.1158  0.3323
 4140SOL     hw16559   0.676   2.673   0.092  1.8715 -0.0071 -0.0361
 4140SOL     vw16560   0.676   2.760   0.089  0.3409  0.0236  0.2694
 4141SOL     ow16561   6.716   5.546   0.401  0.4573  0.3113  0.1273
 4141SOL     hw16562   6.784   5.478   0.396  0.9451  0.8123 -0.2607
 4141SOL     hw16563   6.670   5.539   0.317  0.2484  0.1961  0.2517
 4141SOL     vw16564   6.719   5.536   0.389  0.4940  0.3624  0.0926
 4142SOL     ow16565   4.814   1.403   0.359  0.5390 -0.2599 -0.4066
 4142SOL     hw16566   4.744   1.413   0.294 -0.1222 -0.1965  0.2960
 4142SOL     hw16567   4.779   1.339   0.421  0.5478  0.7486  0.6766
 4142SOL     vw16568   4.800   1.396   0.358  0.4530 -0.1184 -0.1710
 4143SOL     ow16569   3.975   6.740   3.679 -0.4297 -0.5164  0.4081
 4143SOL     hw16570   4.029   6.773   3.751  1.4240 -0.8648 -0.7435
 4143SOL     hw16571   3.936   6.818   3.640 -0.8881 -0.2628  1.3651
 4143SOL     vw16572   3.977   6.755   3.683 -0.2458 -0.5291  0.3823
 4144SOL     ow16573   2.995   2.002   5.408  0.5406  0.1381  0.5136
 4144SOL     hw16574   2.918   2.041   5.367  1.3314  0.4882 -0.6781
 4144SOL     hw16575   2.965   1.917   5.439 -0.4971  0.5469  0.6796
 4144SOL     vw16576   2.981   1.996   5.407  0.5081  0.2382  0.3779
 4145SOL     ow16577   5.790   4.351   1.944  0.2965 -0.4869  0.1674
 4145SOL     hw16578   5.724   4.410   1.907  0.3940 -0.0963  0.6033
 4145SOL     hw16579   5.825   4.399   2.019  1.5628 -0.4011 -0.4552
 4145SOL     vw16580   5.786   4.365   1.949  0.4766 -0.4239  0.1428
 4146SOL     ow16581   5.410   1.411   0.589  0.1190 -0.1574 -0.1429
 4146SOL     hw16582   5.457   1.494   0.578  2.4549 -1.4912 -0.9420
 4146SOL     hw16583   5.402   1.376   0.500 -1.2037 -0.6306  0.1395
 4146SOL     vw16584   5.415   1.417   0.575  0.2527 -0.3958 -0.2111
 4147SOL     ow16585   0.413   4.259   4.101 -0.1297 -0.0789 -0.1526
 4147SOL     hw16586   0.496   4.213   4.091  0.0196  0.2902 -0.6245
 4147SOL     hw16587   0.431   4.330   4.162 -0.3511 -0.6102  0.5456
 4147SOL     vw16588   0.426   4.262   4.108 -0.1392 -0.1004 -0.1228
 4148SOL     ow16589   0.730   5.019   3.691 -0.3587 -0.6292 -0.1031
 4148SOL     hw16590   0.763   4.983   3.773  0.6953 -0.4303 -0.4213
 4148SOL     hw16591   0.799   4.999   3.627 -0.4254  0.6219 -0.5964
 4148SOL     vw16592   0.744   5.012   3.693 -0.2284 -0.4380 -0.2103
 4149SOL     ow16593   2.398   1.929   3.431 -0.1529 -0.1394  0.1260
 4149SOL     hw16594   2.420   1.910   3.523  1.6086  0.7134 -0.0769
 4149SOL     hw16595   2.410   1.845   3.386 -1.1251 -0.5911  0.6569
 4149SOL     vw16596   2.402   1.915   3.437 -0.0486 -0.0865  0.1690
 4150SOL     ow16597   0.041   6.985   1.327 -0.2803  0.1164  0.4093
 4150SOL     hw16598  -0.026   7.026   1.381  0.4318  0.1485  1.2916
 4150SOL     hw16599   0.113   6.966   1.388 -0.7050 -2.8067  0.1292
 4150SOL     vw16600   0.042   6.988   1.342 -0.2424 -0.2654  0.4888
 4151SOL     ow16601   6.831   1.229   5.855  0.3703 -0.0758 -0.0229
 4151SOL     hw16602   6.913   1.278   5.853  1.8127 -2.3743 -1.2626
 4151SOL     hw16603   6.840   1.169   5.929 -2.2164  2.5937  2.7964
 4151SOL     vw16604   6.843   1.228   5.865  0.2193 -0.0268  0.1855
 4152SOL     ow16605   1.833   2.420   2.303  0.4365  0.1229  0.0568
 4152SOL     hw16606   1.768   2.459   2.244  0.4336 -0.7631 -0.5528
 4152SOL     hw16607   1.811   2.327   2.305  0.7601  0.0542  1.0627
 4152SOL     vw16608   1.822   2.413   2.295  0.4788 -0.0029  0.1090
 4153SOL     ow16609   2.589   4.519   0.449  0.0857 -0.3148 -0.0521
 4153SOL     hw16610   2.548   4.582   0.508 -0.6394 -1.5023  0.7585
 4153SOL     hw16611   2.630   4.455   0.508  3.7203  1.1088 -0.7762
 4153SOL     vw16612   2.589   4.519   0.464  0.4697 -0.2837 -0.0407
 4154SOL     ow16613   1.519   3.949   0.210  0.5743  0.5835 -0.2364
 4154SOL     hw16614   1.488   4.006   0.140  1.9602  0.4741 -0.9720
 4154SOL     hw16615   1.481   3.863   0.190 -0.6514  0.9840  0.2832
 4154SOL     vw16616   1.510   3.945   0.198  0.5955  0.6219 -0.2649
 4155SOL     ow16617   7.230   4.618   0.803 -0.3171 -0.2770  0.7247
 4155SOL     hw16618   7.287   4.622   0.726 -1.3695  0.1042 -0.0558
 4155SOL     hw16619   7.287   4.586   0.873  0.6499 -0.6824 -0.2177
 4155SOL     vw16620   7.245   4.614   0.802 -0.3283 -0.2801  0.4975
 4156SOL     ow16621   6.117   0.397   6.652  0.8378  0.0397  0.1391
 4156SOL     hw16622   6.097   0.327   6.714  0.6051 -0.7166 -0.7790
 4156SOL     hw16623   6.184   0.449   6.696  1.4356 -1.0933  0.5847
 4156SOL     vw16624   6.123   0.395   6.666  0.8860 -0.2096  0.0768
 4157SOL     ow16625   6.299   6.660   1.720 -0.1814 -0.0314  0.1536
 4157SOL     hw16626   6.209   6.657   1.750  0.2171  0.1940  1.4651
 4157SOL     hw16627   6.351   6.665   1.801  1.0975 -1.8732 -0.4768
 4157SOL     vw16628   6.294   6.660   1.735  0.0398 -0.2446  0.2435
 4158SOL     ow16629   4.616   7.125   2.051 -0.7832  0.2494  0.6550
 4158SOL     hw16630   4.623   7.217   2.078  1.0063  0.7934 -1.3499
 4158SOL     hw16631   4.596   7.129   1.957 -1.7510 -1.4491  0.7568
 4158SOL     vw16632   4.614   7.138   2.042 -0.6745  0.0968  0.4040
 4159SOL     ow16633   5.641   0.933   1.536 -0.0845 -0.1499  0.1059
 4159SOL     hw16634   5.717   0.875   1.545  0.1889 -0.0576 -1.3173
 4159SOL     hw16635   5.658   0.981   1.455 -0.4575  1.7051  1.0714
 4159SOL     vw16636   5.653   0.932   1.526 -0.0975  0.1070  0.0455
 4160SOL     ow16637   5.128   4.075   0.523 -0.1124 -0.3192 -0.5232
 4160SOL     hw16638   5.085   4.135   0.584  0.1374  0.0104 -0.6698
 4160SOL     hw16639   5.149   3.998   0.576  2.0690  0.8169  0.3510
 4160SOL     vw16640   5.125   4.073   0.538  0.2084 -0.1261 -0.4272
 4161SOL     ow16641   0.614   3.251   6.655 -0.3181 -0.5157  0.4685
 4161SOL     hw16642   0.670   3.182   6.687 -1.0298 -0.3484  2.1682
 4161SOL     hw16643   0.673   3.310   6.608  0.3328 -2.1048 -0.8106
 4161SOL     vw16644   0.629   3.250   6.653 -0.3261 -0.7031  0.5240
 4162SOL     ow16645   5.029   3.521   4.571  0.1155 -0.5095  0.0297
 4162SOL     hw16646   5.052   3.471   4.650  0.5440  0.8928  0.8289
 4162SOL     hw16647   4.936   3.501   4.557 -0.5955  0.9011  2.2200
 4162SOL     vw16648   5.019   3.512   4.580  0.0782 -0.1384  0.4244
 4163SOL     ow16649   4.552   1.561   2.001 -0.3768 -0.1096  0.1693
 4163SOL     hw16650   4.647   1.567   2.014 -0.4549  0.4533  0.5247
 4163SOL     hw16651   4.540   1.487   1.941  0.1844 -1.2399  1.3988
 4163SOL     vw16652   4.563   1.552   1.995 -0.3130 -0.1845  0.3785
 4164SOL     ow16653   4.308   0.377   6.441  0.0719 -0.5538  0.0294
 4164SOL     hw16654   4.268   0.303   6.396 -0.9222 -0.8193  1.3257
 4164SOL     hw16655   4.314   0.445   6.373 -1.9786 -0.7193 -0.3801
 4164SOL     vw16656   4.304   0.376   6.426 -0.3300 -0.6106  0.1462
 4165SOL     ow16657   5.235   2.323   7.177  0.3179  0.1810 -0.5502
 4165SOL     hw16658   5.297   2.258   7.210 -1.4411 -1.0778  0.4434
 4165SOL     hw16659   5.289   2.401   7.159  2.3470 -1.2369 -0.9525
 4165SOL     vw16660   5.251   2.325   7.179  0.3536 -0.1721 -0.4718
 4166SOL     ow16661   5.910   5.365   5.712  0.5592 -0.2456 -0.0697
 4166SOL     hw16662   5.978   5.426   5.741  0.4689 -0.0851 -0.1990
 4166SOL     hw16663   5.875   5.404   5.633  2.2036 -1.6730 -1.5886
 4166SOL     vw16664   5.915   5.378   5.706  0.7644 -0.4127 -0.2873
 4167SOL     ow16665   6.104   6.542   3.020 -0.2041 -0.1974  0.1926
 4167SOL     hw16666   6.028   6.491   3.049 -1.1075  0.6287 -0.6325
 4167SOL     hw16667   6.130   6.591   3.098 -0.8459 -0.1051  0.3563
 4167SOL     vw16668   6.097   6.542   3.034 -0.4079 -0.0761  0.1054
 4168SOL     ow16669   5.453   2.644   5.017 -0.1278  0.2731  0.2832
 4168SOL     hw16670   5.487   2.556   5.030 -1.6263 -0.5612 -1.0912
 4168SOL     hw16671   5.460   2.659   4.923  0.0487  1.6042  0.4883
 4168SOL     vw16672   5.458   2.634   5.006 -0.3021  0.3387  0.1290
 4169SOL     ow16673   6.393   5.191   0.878 -0.1720 -0.7479  0.3366
 4169SOL     hw16674   6.460   5.227   0.820  0.2077  2.4042  2.4799
 4169SOL     hw16675   6.438   5.127   0.931  0.6014 -0.2944  0.2403
 4169SOL     vw16676   6.408   5.188   0.877 -0.0200 -0.2723  0.6067
 4170SOL     ow16677   5.659   1.889   6.090  0.3301  0.2925 -0.3277
 4170SOL     hw16678   5.743   1.913   6.053 -0.3236  2.6195 -0.4366
 4170SOL     hw16679   5.610   1.971   6.095 -1.9601 -0.9845 -0.3220
 4170SOL     vw16680   5.663   1.903   6.086 -0.0582  0.4311 -0.3414
 4171SOL     ow16681   5.553   1.992   1.438  0.2771 -0.1364  0.1440
 4171SOL     hw16682   5.488   1.929   1.468  0.8336 -1.5449 -1.4667
 4171SOL     hw16683   5.606   2.009   1.516 -1.2363  0.0875  1.1610
 4171SOL     vw16684   5.552   1.986   1.452  0.1507 -0.2927  0.0657
 4172SOL     ow16685   0.222   4.055   4.112  0.5955 -0.1458 -0.3162
 4172SOL     hw16686   0.286   4.126   4.108  0.7668 -0.2247  0.6222
 4172SOL     hw16687   0.157   4.085   4.175  0.8341 -0.9293  0.3244
 4172SOL     vw16688   0.222   4.068   4.120  0.6495 -0.2594 -0.1075
 4173SOL     ow16689   3.946   2.268   4.313 -0.0885 -0.1713  0.1572
 4173SOL     hw16690   3.863   2.308   4.290  0.6526  0.7176 -1.1074
 4173SOL     hw16691   3.999   2.275   4.234  1.4090 -0.1190  1.1120
 4173SOL     vw16692   3.942   2.275   4.300  0.2067 -0.0471  0.1161
 4174SOL     ow16693   5.431   5.046   3.425  0.1495 -0.2281 -0.3827
 4174SOL     hw16694   5.400   4.993   3.498 -3.2238  1.0848 -0.6959
 4174SOL     hw16695   5.456   4.981   3.358 -0.4271 -1.4072  0.5124
 4174SOL     vw16696   5.430   5.030   3.426 -0.3717 -0.2105 -0.3059
 4175SOL     ow16697   2.010   5.611   2.855 -0.3494  0.5286  0.2071
 4175SOL     hw16698   2.096   5.613   2.898  0.8396 -1.6471 -1.8410
 4175SOL     hw16699   1.956   5.556   2.912  0.2601  0.1895  0.4661
 4175SOL     vw16700   2.014   5.604   2.868 -0.1121  0.1967 -0.0288
 4176SOL     ow16701   6.609   7.401   3.282  0.1149  0.1825 -0.1643
 4176SOL     hw16702   6.685   7.431   3.333  0.8026 -0.6979 -0.6476
 4176SOL     hw16703   6.597   7.469   3.216  0.6834  0.1843 -0.2742
 4176SOL     vw16704   6.617   7.414   3.280  0.2806  0.0665 -0.2425
 4177SOL     ow16705   0.825   1.036   0.707 -0.1193 -0.7651  0.3340
 4177SOL     hw16706   0.745   1.075   0.673  0.7009  0.7879  0.0780
 4177SOL     hw16707   0.830   1.069   0.797  0.7747  0.0541 -0.0027
 4177SOL     vw16708   0.815   1.045   0.715  0.1069 -0.4522  0.2558
 4178SOL     ow16709   0.961   5.263   3.594  0.1730 -0.1075 -0.3891
 4178SOL     hw16710   1.004   5.348   3.603  1.2825 -0.8059  1.3809
 4178SOL     hw16711   0.884   5.268   3.651 -0.3926  0.0764 -1.1539
 4178SOL     vw16712   0.956   5.275   3.602  0.2447 -0.1752 -0.2564
 4179SOL     ow16713   4.671   4.808   2.749  0.2504  0.2224 -0.4132
 4179SOL     hw16714   4.763   4.832   2.753  0.5335 -0.9554  0.6422
 4179SOL     hw16715   4.648   4.783   2.838 -1.2930  1.1408 -0.5040
 4179SOL     vw16716   4.680   4.808   2.761  0.0842  0.1879 -0.2860
 4180SOL     ow16717   5.934   5.084   0.443  0.2447 -0.5985  0.0505
 4180SOL     hw16718   6.025   5.106   0.462  0.0194  1.3467 -0.9272
 4180SOL     hw16719   5.939   5.019   0.373  0.9098  0.6597 -1.1307
 4180SOL     vw16720   5.946   5.078   0.436  0.3026 -0.1760 -0.2343
 4181SOL     ow16721   0.677   2.871   5.557 -0.6102 -0.0299  0.2949
 4181SOL     hw16722   0.669   2.787   5.512 -0.7011  0.3697 -0.4525
 4181SOL     hw16723   0.743   2.855   5.626 -0.1753 -0.5475 -0.2260
 4181SOL     vw16724   0.685   2.858   5.560 -0.5648 -0.0454  0.1276
 4182SOL     ow16725   2.644   4.480   0.785  0.2590  0.0770 -0.4973
 4182SOL     hw16726   2.588   4.415   0.743 -2.0380  1.9228 -0.4593
 4182SOL     hw16727   2.731   4.439   0.787 -1.0977 -3.0498 -0.2352
 4182SOL     vw16728   2.648   4.466   0.780 -0.2232 -0.0923 -0.4577
 4183SOL     ow16729   4.974   0.830   4.769  0.4034  0.1298 -0.0741
 4183SOL     hw16730   5.048   0.832   4.829  1.2640 -0.0268 -1.0967
 4183SOL     hw16731   4.941   0.740   4.775  0.0277  0.3094  0.6800
 4183SOL     vw16732   4.980   0.818   4.778  0.4673  0.1329 -0.1094
 4184SOL     ow16733   6.862   0.934   5.944  0.0662 -0.6687  0.1352
 4184SOL     hw16734   6.879   0.840   5.953  1.0562 -0.4773  0.3913
 4184SOL     hw16735   6.946   0.971   5.917 -0.5373  0.0279 -0.8567
 4184SOL     vw16736   6.875   0.926   5.941  0.1171 -0.5516  0.0379
 4185SOL     ow16737   4.346   2.496   2.309  0.0989  0.2243  0.4328
 4185SOL     hw16738   4.305   2.417   2.273  4.6547 -2.9290  1.3069
 4185SOL     hw16739   4.394   2.534   2.235  1.2328 -0.3226  0.8592
 4185SOL     vw16740   4.347   2.491   2.295  0.8495 -0.2638  0.6045
 4186SOL     ow16741   6.994   0.090   1.901  0.2389 -0.3839  0.0647
 4186SOL     hw16742   6.987   0.132   1.987  0.6546 -2.4851  1.2131
 4186SOL     hw16743   6.911   0.111   1.857  0.3271  1.3417  0.6476
 4186SOL     vw16744   6.982   0.098   1.907  0.3054 -0.4334  0.2931
 4187SOL     ow16745   3.260   4.914   7.346 -0.2593  0.1396  0.3317
 4187SOL     hw16746   3.213   4.997   7.354 -0.9877 -0.2760  0.4033
 4187SOL     hw16747   3.287   4.893   7.436 -1.4697 -0.4989  0.5589
 4187SOL     vw16748   3.258   4.922   7.359 -0.5151  0.0005  0.3712
 4188SOL     ow16749   6.704   0.997   6.159 -0.4338 -0.6538 -0.0619
 4188SOL     hw16750   6.736   0.961   6.077  0.2222 -0.3266  0.0518
 4188SOL     hw16751   6.612   0.969   6.163 -0.8993  0.5333 -1.5805
 4188SOL     vw16752   6.696   0.988   6.149 -0.4089 -0.4540 -0.2470
 4189SOL     ow16753   7.190   4.857   2.767 -0.5921  0.5108 -0.0284
 4189SOL     hw16754   7.222   4.861   2.677  0.2908 -1.0136  0.1919
 4189SOL     hw16755   7.261   4.891   2.820 -0.4108 -0.2499  0.2288
 4189SOL     vw16756   7.203   4.862   2.762 -0.4516  0.2096  0.0346
 4190SOL     ow16757   0.782   3.093   5.424 -0.1698  0.1221 -0.0180
 4190SOL     hw16758   0.849   3.125   5.484  2.4812 -2.8988 -1.0665
 4190SOL     hw16759   0.741   3.020   5.471 -1.8216  1.0485  0.0504
 4190SOL     vw16760   0.786   3.087   5.438 -0.0380 -0.1541 -0.1473
 4191SOL     ow16761   0.398   6.083   6.922  0.0416  0.1169 -0.1037
 4191SOL     hw16762   0.310   6.050   6.942  0.1162 -0.4860 -0.7553
 4191SOL     hw16763   0.441   6.012   6.874  0.5275  0.7926 -0.7016
 4191SOL     vw16764   0.392   6.070   6.918  0.1155  0.1264 -0.2685
 4192SOL     ow16765   7.111   5.468   6.802 -0.3773 -0.2092 -0.0249
 4192SOL     hw16766   7.037   5.499   6.749  0.0856 -1.6740 -1.6299
 4192SOL     hw16767   7.079   5.387   6.843 -0.9012  1.1709  2.4494
 4192SOL     vw16768   7.097   5.461   6.800 -0.3855 -0.2201  0.0899
 4193SOL     ow16769   1.292   3.037   0.780  0.3585  0.1795 -0.6528
 4193SOL     hw16770   1.201   3.008   0.780  0.3762  0.0203  1.1910
 4193SOL     hw16771   1.325   3.013   0.694 -1.5612  1.0123 -1.6867
 4193SOL     vw16772   1.284   3.030   0.769  0.1075  0.2685 -0.5460
 4194SOL     ow16773   6.991   6.860   7.127 -0.0080  0.0440 -0.4877
 4194SOL     hw16774   6.959   6.816   7.049  1.3244 -1.0732 -0.4432
 4194SOL     hw16775   6.922   6.922   7.150 -0.5475  0.1828 -2.3642
 4194SOL     vw16776   6.977   6.862   7.120  0.0966 -0.0849 -0.7296
 4195SOL     ow16777   3.100   4.625   5.662 -0.3589 -0.5474 -0.1522
 4195SOL     hw16778   3.059   4.688   5.721 -2.6784 -2.4461  0.4508
 4195SOL     hw16779   3.084   4.660   5.574 -1.0065  0.0626  0.1960
 4195SOL     vw16780   3.092   4.638   5.658 -0.7504 -0.7176 -0.0267
 4196SOL     ow16781   4.117   5.182   7.371 -0.1180 -0.3999 -0.2255
 4196SOL     hw16782   4.190   5.120   7.370 -0.6395 -1.0723  0.7357
 4196SOL     hw16783   4.085   5.178   7.461 -1.8202 -0.7083 -0.8157
 4196SOL     vw16784   4.123   5.173   7.383 -0.4113 -0.5293 -0.1764
 4197SOL     ow16785   2.290   4.765   7.282 -0.3338 -0.5165 -0.5110
 4197SOL     hw16786   2.356   4.772   7.213 -0.6768 -0.8363 -0.8819
 4197SOL     hw16787   2.250   4.679   7.268  0.8904 -1.4191  1.2869
 4197SOL     vw16788   2.293   4.755   7.271 -0.2176 -0.6778 -0.3226
 4198SOL     ow16789   2.820   4.962   2.129  0.4818  0.4570 -0.0321
 4198SOL     hw16790   2.755   4.923   2.071  0.4607  1.0125 -0.3974
 4198SOL     hw16791   2.873   4.889   2.161 -0.4093 -0.0193  0.3869
 4198SOL     vw16792   2.818   4.947   2.126  0.3616  0.4673 -0.0252
 4199SOL     ow16793   3.503   7.339   1.787 -0.8253  0.2158  0.7975
 4199SOL     hw16794   3.440   7.350   1.859 -2.1409  1.0023 -0.4262
 4199SOL     hw16795   3.493   7.248   1.760 -1.1429  0.2279  0.8732
 4199SOL     vw16796   3.493   7.329   1.793 -1.0407  0.3214  0.6460
 4200SOL     ow16797   0.257   0.496   2.585  0.4058  0.4297 -0.3539
 4200SOL     hw16798   0.329   0.550   2.616 -0.7130  0.5910  2.1748
 4200SOL     hw16799   0.261   0.503   2.490  2.5166  1.9857 -0.2171
 4200SOL     vw16800   0.267   0.504   2.576  0.5367  0.6562 -0.0023
 4201SOL     ow16801   1.263   0.181   4.734 -0.5230  0.2384  0.0223
 4201SOL     hw16802   1.328   0.111   4.738  1.9279  2.2114 -1.4808
 4201SOL     hw16803   1.202   0.155   4.666  0.6397 -0.2483 -0.8608
 4201SOL     vw16804   1.264   0.169   4.726 -0.0463  0.4345 -0.2925
 4202SOL     ow16805   4.969   4.304   4.928 -0.1413  0.0229 -0.6545
 4202SOL     hw16806   5.050   4.282   4.882 -0.1065 -0.9071 -0.1617
 4202SOL     hw16807   4.997   4.328   5.016 -0.1492  2.3456 -1.2120
 4202SOL     vw16808   4.983   4.305   4.933 -0.1376  0.2065 -0.6630
 4203SOL     ow16809   1.654   1.039   1.797  0.6855 -0.1934  0.2214
 4203SOL     hw16810   1.666   0.944   1.799 -0.8086 -0.4121  0.4014
 4203SOL     hw16811   1.665   1.062   1.705 -1.0525 -0.8987 -0.2159
 4203SOL     vw16812   1.657   1.029   1.785  0.2591 -0.3153  0.1875
 4204SOL     ow16813   1.791   3.171   2.905  0.1548 -0.2169 -0.7619
 4204SOL     hw16814   1.773   3.093   2.852 -0.8215 -0.3991 -0.1823
 4204SOL     hw16815   1.887   3.177   2.907  0.2608 -1.7432 -0.3171
 4204SOL     vw16816   1.801   3.161   2.898  0.0400 -0.4425 -0.6267
 4205SOL     ow16817   6.652   3.492   4.806 -0.2248  0.5701  0.0564
 4205SOL     hw16818   6.661   3.514   4.713  0.2194  1.0864  0.2189
 4205SOL     hw16819   6.663   3.397   4.808 -2.0982  0.2970 -0.6329
 4205SOL     vw16820   6.655   3.482   4.794 -0.4132  0.6021 -0.0131
 4206SOL     ow16821   5.586   0.609   3.669 -0.2382 -0.6985  0.3722
 4206SOL     hw16822   5.682   0.607   3.676 -0.0862  0.9706 -0.7223
 4206SOL     hw16823   5.567   0.692   3.627 -2.2378 -0.7097  1.1504
 4206SOL     vw16824   5.596   0.620   3.665 -0.4821 -0.4798  0.3306
 4207SOL     ow16825   5.915   3.386   4.899  0.2580  0.2428 -0.1129
 4207SOL     hw16826   5.895   3.332   4.975  0.7401 -1.6331 -1.2576
 4207SOL     hw16827   5.926   3.324   4.827  0.5238  1.8987 -1.5820
 4207SOL     vw16828   5.914   3.371   4.900  0.3564  0.2137 -0.4578
 4208SOL     ow16829   5.359   4.013   1.906  0.1554 -0.0426  0.7942
 4208SOL     hw16830   5.298   4.083   1.884  1.2908  1.6538  2.6152
 4208SOL     hw16831   5.306   3.950   1.954 -1.2228 -1.3216 -2.1566
 4208SOL     vw16832   5.344   4.014   1.910  0.1235  0.0124  0.6451
 4209SOL     ow16833   3.549   2.628   6.750 -0.1274 -0.4803  0.0387
 4209SOL     hw16834   3.590   2.546   6.776  0.3648 -0.3917 -0.4647
 4209SOL     hw16835   3.601   2.660   6.677 -1.5541 -0.7787 -1.1688
 4209SOL     vw16836   3.561   2.621   6.744 -0.2507 -0.5080 -0.1869
 4210SOL     ow16837   6.394   6.497   6.999 -0.7055  0.2366  0.2269
 4210SOL     hw16838   6.400   6.592   6.986  0.6647  0.0372 -0.7173
 4210SOL     hw16839   6.362   6.488   7.089 -0.4824  1.5907  0.4637
 4210SOL     vw16840   6.391   6.508   7.009 -0.4952  0.3889  0.1333
 4211SOL     ow16841   5.504   2.070   0.493  0.2975  0.1186 -0.2190
 4211SOL     hw16842   5.473   2.138   0.553  1.4184 -0.9503  1.6976
 4211SOL     hw16843   5.599   2.083   0.490  0.8404 -2.4722  1.8297
 4211SOL     vw16844   5.512   2.081   0.500  0.5169 -0.3642  0.3042
 4212SOL     ow16845   3.322   3.382   2.665 -0.4884  0.0657  0.1003
 4212SOL     hw16846   3.386   3.368   2.595 -1.5685 -0.1009 -0.8937
 4212SOL     hw16847   3.374   3.379   2.746  0.6625 -0.6584 -0.6269
 4212SOL     vw16848   3.338   3.380   2.667 -0.4790 -0.0519 -0.1267
 4213SOL     ow16849   2.980   6.523   6.249 -0.0899  0.3712 -0.2874
 4213SOL     hw16850   2.951   6.446   6.201  0.2679 -0.1522  0.3206
 4213SOL     hw16851   3.067   6.542   6.214 -1.1770  2.1294 -2.3339
 4213SOL     vw16852   2.988   6.516   6.238 -0.1861  0.5343 -0.4773
 4214SOL     ow16853   4.745   7.332   1.400  0.5576 -0.5814 -0.2665
 4214SOL     hw16854   4.704   7.251   1.372  0.1322 -0.4259 -0.0994
 4214SOL     hw16855   4.699   7.356   1.481 -0.5393  0.7409 -1.2255
 4214SOL     vw16856   4.734   7.325   1.407  0.3567 -0.3865 -0.3710
 4215SOL     ow16857   5.688   3.332   1.948 -0.3919  0.3783 -0.0482
 4215SOL     hw16858   5.779   3.350   1.972 -0.5979  1.3575  0.0127
 4215SOL     hw16859   5.654   3.416   1.917 -0.8427 -0.3073 -1.4838
 4215SOL     vw16860   5.696   3.345   1.947 -0.4787  0.4169 -0.2295
 4216SOL     ow16861   3.665   2.179   0.979 -0.2635  0.8099 -0.4828
 4216SOL     hw16862   3.601   2.155   1.046 -0.4121  2.0736 -0.1525
 4216SOL     hw16863   3.636   2.133   0.900 -1.9359  1.8162 -0.4941
 4216SOL     vw16864   3.653   2.169   0.977 -0.5038  1.1094 -0.4407
 4217SOL     ow16865   7.384   7.213   1.764 -0.5304 -0.1806 -0.4189
 4217SOL     hw16866   7.479   7.212   1.774 -0.6974  0.3249  1.9433
 4217SOL     hw16867   7.369   7.254   1.679  1.3546 -0.9512 -1.1807
 4217SOL     vw16868   7.394   7.219   1.754 -0.3037 -0.2155 -0.2077
 4218SOL     ow16869   2.242   7.181   3.921 -0.7406 -0.7782  0.1327
 4218SOL     hw16870   2.167   7.208   3.869  0.0922  0.2834 -0.5762
 4218SOL     hw16871   2.215   7.100   3.964 -2.5324 -0.0343  0.4729
 4218SOL     vw16872   2.229   7.174   3.920 -0.8671 -0.5403  0.0842
 4219SOL     ow16873   3.444   0.504   2.032  0.0043 -0.7049  0.2985
 4219SOL     hw16874   3.423   0.519   2.124 -1.5188  0.0905 -0.1525
 4219SOL     hw16875   3.369   0.538   1.984 -0.1888 -2.9808 -1.1678
 4219SOL     vw16876   3.431   0.510   2.038 -0.2221 -0.9003  0.0455
 4220SOL     ow16877   1.740   4.906   3.259 -0.2328 -0.7956 -0.5329
 4220SOL     hw16878   1.768   4.998   3.258 -1.3694 -0.4375 -0.7834
 4220SOL     hw16879   1.647   4.909   3.237 -0.4605 -1.9524  0.1975
 4220SOL     vw16880   1.731   4.919   3.256 -0.4128 -0.9010 -0.4696
 4221SOL     ow16881   0.333   3.060   7.178  0.1502  0.1392  0.3438
 4221SOL     hw16882   0.412   3.079   7.229  1.2040  0.1153 -1.2027
 4221SOL     hw16883   0.261   3.097   7.230  1.1902  0.3539  1.6813
 4221SOL     vw16884   0.334   3.067   7.191  0.4265  0.1644  0.3161
 4222SOL     ow16885   2.644   6.506   6.290 -0.2741  0.3644 -0.3003
 4222SOL     hw16886   2.637   6.458   6.373  0.6055 -2.3809 -1.6819
 4222SOL     hw16887   2.701   6.580   6.310  1.8320 -1.5037  1.1298
 4222SOL     vw16888   2.651   6.509   6.304  0.1198 -0.2444 -0.2937
 4223SOL     ow16889   6.295   6.810   1.049 -0.2518 -0.0694 -0.3035
 4223SOL     hw16890   6.283   6.905   1.056 -0.3632 -0.2273  2.4889
 4223SOL     hw16891   6.208   6.776   1.028  0.0182  0.4593 -2.5960
 4223SOL     vw16892   6.282   6.818   1.047 -0.2308 -0.0205 -0.2375
 4224SOL     ow16893   5.898   5.581   4.508  0.4084  0.3746 -0.3017
 4224SOL     hw16894   5.843   5.610   4.435 -2.9820 -1.0904  1.4060
 4224SOL     hw16895   5.862   5.496   4.532  2.7604 -0.1487  1.7764
 4224SOL     vw16896   5.886   5.574   4.501  0.2711  0.1121  0.1979
 4225SOL     ow16897   7.144   5.403   0.624  0.0034 -0.3950 -0.2672
 4225SOL     hw16898   7.175   5.447   0.703 -2.1611  0.8738 -0.0448
 4225SOL     hw16899   7.141   5.472   0.558 -1.1491 -0.7377 -0.5885
 4225SOL     vw16900   7.148   5.418   0.626 -0.4342 -0.2725 -0.2802
 4226SOL     ow16901   1.841   0.845   6.275  0.0915 -0.1517  0.4197
 4226SOL     hw16902   1.893   0.816   6.200 -0.1452 -1.1053  0.6027
 4226SOL     hw16903   1.764   0.886   6.236  0.5340  0.4373  0.1483
 4226SOL     vw16904   1.838   0.846   6.260  0.1186 -0.1998  0.4084
 4227SOL     ow16905   7.014   4.565   4.046 -0.2094  0.0034  0.3586
 4227SOL     hw16906   7.094   4.560   4.099 -1.4202 -1.9535  2.1576
 4227SOL     hw16907   6.945   4.585   4.108 -1.1886  1.5613 -1.1497
 4227SOL     vw16908   7.016   4.567   4.061 -0.4983 -0.0494  0.3970
 4228SOL     ow16909   2.989   4.078   2.723 -0.4820  0.1167  0.1255
 4228SOL     hw16910   2.906   4.127   2.725 -1.5845 -1.6375 -0.0255
 4228SOL     hw16911   2.974   4.009   2.659  1.8573  0.9360 -1.4376
 4228SOL     vw16912   2.976   4.076   2.715 -0.3188 -0.0064 -0.1007
 4229SOL     ow16913   5.249   3.315   7.449 -0.1147 -0.5558  0.5913
 4229SOL     hw16914   5.176   3.313   7.510 -2.4019 -1.0975 -1.9685
 4229SOL     hw16915   5.280   3.225   7.445 -1.9109 -1.1734 -1.0962
 4229SOL     vw16916   5.243   3.303   7.456 -0.6535 -0.7088  0.0308
 4230SOL     ow16917   4.937   0.638   5.050  0.1285 -0.2711  0.0296
 4230SOL     hw16918   4.881   0.569   5.014 -2.3587  1.9878 -0.7771
 4230SOL     hw16919   4.880   0.688   5.107  1.3971  1.9527 -0.5214
 4230SOL     vw16920   4.922   0.635   5.053 -0.0324  0.3203 -0.1493
 4231SOL     ow16921   0.736   1.726   0.405 -0.2825 -0.2506 -0.2912
 4231SOL     hw16922   0.781   1.705   0.487  0.9745 -0.1762 -0.9339
 4231SOL     hw16923   0.797   1.698   0.336 -0.9894  0.3621 -1.1922
 4231SOL     vw16924   0.750   1.719   0.407 -0.2099 -0.1600 -0.4949
 4232SOL     ow16925   5.004   1.988   5.469 -0.2098  0.1794  0.2013
 4232SOL     hw16926   4.929   2.044   5.449 -1.0652 -0.4557  1.5135
 4232SOL     hw16927   5.041   2.025   5.549 -0.9939 -1.2805  1.2840
 4232SOL     vw16928   4.999   2.000   5.477 -0.4263 -0.0969  0.5174
 4233SOL     ow16929   1.393   3.358   5.223  0.0905 -0.4098 -0.3097
 4233SOL     hw16930   1.405   3.310   5.142  0.8404 -1.4299  0.3817
 4233SOL     hw16931   1.420   3.448   5.203  1.9849 -1.0360 -0.7412
 4233SOL     vw16932   1.398   3.364   5.210  0.4394 -0.6270 -0.2754
 4234SOL     ow16933   1.447   2.204   6.361 -0.0339 -0.0643  0.0270
 4234SOL     hw16934   1.532   2.249   6.357 -0.1864  0.3109  0.8485
 4234SOL     hw16935   1.383   2.271   6.336 -0.1967 -0.0339  0.5308
 4234SOL     vw16936   1.450   2.219   6.357 -0.0755 -0.0110  0.2015
 4235SOL     ow16937   2.646   1.446   1.072 -0.5051 -0.3541  0.1461
 4235SOL     hw16938   2.681   1.531   1.047 -1.7440 -0.4392 -2.1705
 4235SOL     hw16939   2.560   1.464   1.108 -1.2085 -0.6391 -1.3088
 4235SOL     vw16940   2.640   1.459   1.073 -0.7612 -0.4029 -0.3515
 4236SOL     ow16941   5.774   0.881   1.212  0.0339  0.2525 -0.1663
 4236SOL     hw16942   5.832   0.822   1.261 -1.2155 -1.6201 -0.8191
 4236SOL     hw16943   5.689   0.836   1.212 -0.5206  1.1709 -2.2824
 4236SOL     vw16944   5.770   0.867   1.219 -0.2043  0.1266 -0.5316
 4237SOL     ow16945   0.957   5.883   3.158  0.0021 -0.3662 -0.0179
 4237SOL     hw16946   1.038   5.933   3.156  0.5201 -1.1260  1.0360
 4237SOL     hw16947   0.963   5.825   3.081 -0.3492  0.7569 -0.9210
 4237SOL     vw16948   0.968   5.882   3.147  0.0241 -0.3183  0.0019
 4238SOL     ow16949   1.846   0.904   3.385  0.0797 -0.2737  0.0883
 4238SOL     hw16950   1.885   0.992   3.382  1.0327 -0.7132 -0.6570
 4238SOL     hw16951   1.823   0.892   3.477 -0.9777  1.1434  0.0472
 4238SOL     vw16952   1.848   0.914   3.397  0.0659 -0.1447 -0.0155
 4239SOL     ow16953   6.789   3.265   4.089 -0.0775  0.7542 -0.1158
 4239SOL     hw16954   6.770   3.341   4.144 -1.5104  1.7848 -1.9085
 4239SOL     hw16955   6.864   3.292   4.037 -0.9862  1.2457 -1.2132
 4239SOL     vw16956   6.796   3.279   4.090 -0.3865  0.9551 -0.4973
 4240SOL     ow16957   1.804   3.652   2.611 -0.0826  0.5744  0.1516
 4240SOL     hw16958   1.873   3.710   2.580 -0.5198  0.8155 -0.3788
 4240SOL     hw16959   1.723   3.687   2.572 -0.2772 -0.7344 -0.6664
 4240SOL     vw16960   1.802   3.665   2.602 -0.1659  0.4334 -0.0262
 4241SOL     ow16961   7.292   4.705   6.163  0.5534 -0.3801  0.1119
 4241SOL     hw16962   7.303   4.782   6.107 -0.5520 -0.1745  0.1532
 4241SOL     hw16963   7.241   4.644   6.110 -2.0734  0.5112  1.4607
 4241SOL     vw16964   7.287   4.707   6.149  0.0610 -0.2353  0.2949
 4242SOL     ow16965   4.671   3.888   0.237 -0.4773  0.5618 -0.0126
 4242SOL     hw16966   4.638   3.938   0.311  0.5829 -0.6698  1.3694
 4242SOL     hw16967   4.593   3.855   0.193 -1.1278  1.4710  0.4438
 4242SOL     vw16968   4.657   3.890   0.241 -0.4232  0.5194  0.2299
 4243SOL     ow16969   2.844   5.549   2.137 -0.2269  0.0454  0.6784
 4243SOL     hw16970   2.755   5.536   2.103  0.0719  1.3571 -0.6953
 4243SOL     hw16971   2.901   5.515   2.067  0.3699  0.9911  0.6949
 4243SOL     vw16972   2.840   5.543   2.123 -0.1086  0.3436  0.4994
 4244SOL     ow16973   1.752   4.792   0.098  0.3753 -0.1344  0.4134
 4244SOL     hw16974   1.668   4.822   0.065  1.4723  0.3969 -2.1362
 4244SOL     hw16975   1.802   4.872   0.112  1.5822 -0.4944 -1.4893
 4244SOL     vw16976   1.748   4.807   0.095  0.6793 -0.1118 -0.1740
 4245SOL     ow16977   1.247   3.495   5.462  0.5844 -0.4392 -0.4701
 4245SOL     hw16978   1.177   3.554   5.434  0.1983 -0.3132  0.6877
 4245SOL     hw16979   1.324   3.550   5.469  0.2021 -0.0190  0.7048
 4245SOL     vw16980   1.248   3.510   5.460  0.4830 -0.3672 -0.1626
 4246SOL     ow16981   1.469   6.803   3.382 -0.7531 -0.3063 -0.0467
 4246SOL     hw16982   1.541   6.741   3.375 -0.2523  0.1132  1.2295
 4246SOL     hw16983   1.497   6.878   3.330 -0.4378 -0.2992  0.1328
 4246SOL     vw16984   1.482   6.805   3.374 -0.6455 -0.2499  0.1453
 4247SOL     ow16985   6.361   0.881   4.348 -0.6325  0.0101  0.3222
 4247SOL     hw16986   6.267   0.866   4.337 -0.1426 -2.0004 -2.3453
 4247SOL     hw16987   6.379   0.960   4.297 -1.0487  1.3394  2.1561
 4247SOL     vw16988   6.351   0.889   4.340 -0.6230 -0.0798  0.2124
 4248SOL     ow16989   3.903   5.165   4.817 -0.2989 -0.0989  0.0284
 4248SOL     hw16990   3.880   5.101   4.884  0.8686 -1.0810 -0.4812
 4248SOL     hw16991   3.957   5.229   4.863  0.4991 -0.7704  0.0469
 4248SOL     vw16992   3.907   5.165   4.832 -0.0396 -0.3169 -0.0365
 4249SOL     ow16993   3.275   5.952   2.446 -0.1883 -0.8272 -0.0042
 4249SOL     hw16994   3.340   5.957   2.376 -0.1207  1.5343  0.1527
 4249SOL     hw16995   3.191   5.957   2.401 -0.2219 -1.6932 -0.0543
 4249SOL     vw16996   3.273   5.953   2.431 -0.1837 -0.6299  0.0098
 4250SOL     ow16997   3.533   5.983   3.164  0.1519  0.2588 -0.1338
 4250SOL     hw16998   3.588   5.918   3.120  0.5072  0.4215  0.0647
 4250SOL     hw16999   3.456   5.992   3.108  0.8415  0.8585 -1.0188
 4250SOL     vw17000   3.530   5.976   3.151  0.2898  0.3593 -0.2245
 4251SOL     ow17001   4.627   6.152   5.461  0.7635  0.1865 -0.2626
 4251SOL     hw17002   4.571   6.194   5.395  0.9606 -0.3854 -0.7965
 4251SOL     hw17003   4.678   6.224   5.498  0.2680  0.5930 -0.3533
 4251SOL     vw17004   4.626   6.167   5.457  0.7241  0.1647 -0.3452
 4252SOL     ow17005   1.797   2.696   0.134  0.0362  0.1513  0.4022
 4252SOL     hw17006   1.784   2.748   0.213 -0.9603 -1.0184  1.0615
 4252SOL     hw17007   1.710   2.660   0.115  0.4746 -0.4091 -0.6395
 4252SOL     vw17008   1.784   2.698   0.142 -0.0375 -0.0770  0.3517
 4253SOL     ow17009   4.167   1.438   2.202  0.0682  0.1435 -0.0225
 4253SOL     hw17010   4.252   1.479   2.217  0.7482  0.4872 -3.7801
 4253SOL     hw17011   4.104   1.510   2.208  0.4458  0.4991 -0.2617
 4253SOL     vw17012   4.170   1.453   2.205  0.2077  0.2357 -0.5498
 4254SOL     ow17013   6.975   3.643   4.610  0.6929  0.1542  0.6119
 4254SOL     hw17014   6.909   3.705   4.579  1.7039  0.3895 -1.2149
 4254SOL     hw17015   6.937   3.557   4.591  0.5966  0.2743  0.2533
 4254SOL     vw17016   6.961   3.640   4.603  0.8137  0.2012  0.3233
 4255SOL     ow17017   5.026   2.447   3.188  0.0508 -0.6571  0.2504
 4255SOL     hw17018   5.100   2.388   3.198  0.1791 -0.3863  0.9863
 4255SOL     hw17019   4.949   2.394   3.210  0.3468 -0.0072  3.2988
 4255SOL     vw17020   5.026   2.432   3.193  0.1068 -0.5357  0.7497
 4256SOL     ow17021   2.276   5.581   2.956  0.7293 -0.7898  0.1876
 4256SOL     hw17022   2.279   5.673   2.982  0.8824 -1.4728  3.0014
 4256SOL     hw17023   2.320   5.535   3.027 -0.8438 -3.1800 -0.2606
 4256SOL     vw17024   2.282   5.587   2.969  0.5419 -1.1952  0.4996
 4257SOL     ow17025   6.371   0.766   0.622  0.2894  0.1172 -0.1661
 4257SOL     hw17026   6.433   0.727   0.684  2.1698 -0.1263 -2.0475
 4257SOL     hw17027   6.315   0.693   0.595 -1.7471  0.5765  2.4320
 4257SOL     vw17028   6.372   0.751   0.626  0.2689  0.1457 -0.0715
 4258SOL     ow17029   1.669   3.975   0.485 -0.2816 -0.8287 -0.1189
 4258SOL     hw17030   1.747   4.028   0.498 -0.5543 -0.1349 -1.1786
 4258SOL     hw17031   1.679   3.902   0.546  0.7349 -0.2582  0.4216
 4258SOL     vw17032   1.681   3.972   0.495 -0.1835 -0.6618 -0.1874
 4259SOL     ow17033   4.998   5.603   1.274 -0.0453 -0.2732  0.4250
 4259SOL     hw17034   5.075   5.548   1.256  1.1387  1.2672  0.5615
 4259SOL     hw17035   4.926   5.541   1.281  1.0598 -1.7274 -0.3752
 4259SOL     vw17036   4.999   5.587   1.272  0.2568 -0.2618  0.3374
 4260SOL     ow17037   0.564   4.057   1.961  0.0254 -0.1766 -0.0255
 4260SOL     hw17038   0.621   4.125   1.997  1.7962 -1.8337  0.4377
 4260SOL     hw17039   0.536   4.006   2.036 -0.0484 -0.8840 -0.5230
 4260SOL     vw17040   0.568   4.059   1.975  0.2493 -0.4885 -0.0300
 4261SOL     ow17041   6.342   4.769   2.914 -0.0855 -0.3952 -0.2191
 4261SOL     hw17042   6.373   4.831   2.980 -2.4901 -1.4934  2.1756
 4261SOL     hw17043   6.403   4.696   2.919  0.8135  0.3168 -0.5921
 4261SOL     vw17044   6.354   4.767   2.924 -0.2840 -0.4461  0.0477
 4262SOL     ow17045   1.280   6.391   3.558 -0.3753 -0.0174 -0.2417
 4262SOL     hw17046   1.186   6.376   3.547 -0.1478  0.2379 -3.5902
 4262SOL     hw17047   1.308   6.326   3.622 -2.4502 -1.6940 -0.9320
 4262SOL     vw17048   1.271   6.381   3.565 -0.6190 -0.2048 -0.7746
 4263SOL     ow17049   2.146   2.957   3.209 -0.0452 -0.5692 -0.4352
 4263SOL     hw17050   2.078   2.921   3.153 -1.5018  0.2343  0.7360
 4263SOL     hw17051   2.106   2.961   3.296  1.3353  0.3940  0.1981
 4263SOL     vw17052   2.132   2.953   3.213 -0.0552 -0.3362 -0.1972
 4264SOL     ow17053   3.689   0.833   0.889 -0.2092 -0.3139 -0.4898
 4264SOL     hw17054   3.672   0.906   0.829  0.0518  0.4178  0.3045
 4264SOL     hw17055   3.666   0.868   0.975  1.1722 -0.7220  0.0717
 4264SOL     vw17056   3.684   0.848   0.892  0.0075 -0.2712 -0.3109
 4265SOL     ow17057   3.808   3.984   1.483  0.0802  0.6484 -0.1522
 4265SOL     hw17058   3.902   3.984   1.464 -0.0300  0.0495 -0.7524
 4265SOL     hw17059   3.783   4.076   1.480  0.7201  0.8463  0.3954
 4265SOL     vw17060   3.817   3.996   1.480  0.1501  0.5956 -0.1591
 4266SOL     ow17061   4.766   5.917   4.445 -0.3674  0.1778 -0.2045
 4266SOL     hw17062   4.671   5.914   4.459 -0.3994 -1.1090 -0.5267
 4266SOL     hw17063   4.800   5.853   4.508 -0.1144 -2.4240 -2.7846
 4266SOL     vw17064   4.758   5.908   4.455 -0.3381 -0.3355 -0.5877
 4267SOL     ow17065   5.503   3.146   1.219 -0.8754  0.1928 -0.0587
 4267SOL     hw17066   5.458   3.107   1.144 -0.2246  1.2815 -1.0570
 4267SOL     hw17067   5.520   3.236   1.193  0.0253  0.3932  1.1092
 4267SOL     vw17068   5.500   3.153   1.206 -0.6707  0.3629 -0.0362
 4268SOL     ow17069   6.752   0.149   1.128  0.0607 -0.9073 -0.1849
 4268SOL     hw17070   6.699   0.227   1.142  0.7672 -0.4498 -0.0284
 4268SOL     hw17071   6.778   0.153   1.036  0.1517 -0.9254 -0.1600
 4268SOL     vw17072   6.749   0.160   1.118  0.1662 -0.8493 -0.1609
 4269SOL     ow17073   0.343   7.355   5.167 -0.4741  0.0098  0.0060
 4269SOL     hw17074   0.349   7.403   5.085 -0.4103  1.0750  0.6101
 4269SOL     hw17075   0.408   7.285   5.159 -0.5069  0.0704 -0.8617
 4269SOL     vw17076   0.352   7.352   5.155 -0.4700  0.1581 -0.0288
 4270SOL     ow17077   3.403   5.785   3.396  0.3216  0.3833 -0.2843
 4270SOL     hw17078   3.450   5.702   3.392 -0.3007 -0.0006  0.3476
 4270SOL     hw17079   3.382   5.798   3.489 -0.3273  0.8255 -0.4799
 4270SOL     vw17080   3.406   5.776   3.408  0.1539  0.3910 -0.2267
 4271SOL     ow17081   3.245   6.568   3.221  0.0880  0.0005 -0.1404
 4271SOL     hw17082   3.293   6.570   3.138 -0.6391 -1.1208 -0.6222
 4271SOL     hw17083   3.182   6.496   3.210 -0.5278  0.3230  1.1073
 4271SOL     vw17084   3.243   6.559   3.209 -0.0892 -0.1047 -0.0393
 4272SOL     ow17085   3.342   6.468   5.315  0.4799  0.4857  0.2515
 4272SOL     hw17086   3.302   6.410   5.379  0.6092 -0.5225 -0.5528
 4272SOL     hw17087   3.318   6.556   5.344 -1.1968 -0.0289  0.5225
 4272SOL     vw17088   3.334   6.472   5.327  0.2757  0.2847  0.1812
 4273SOL     ow17089   0.791   7.028   2.257 -0.3503  0.7268  0.2185
 4273SOL     hw17090   0.858   7.093   2.233 -0.6790  1.6987  1.7921
 4273SOL     hw17091   0.833   6.975   2.325  0.0297 -0.9765 -1.2840
 4273SOL     vw17092   0.805   7.030   2.263 -0.3435  0.6301  0.2278
 4274SOL     ow17093   0.509   4.611   3.527 -0.4248  0.8885  0.2552
 4274SOL     hw17094   0.466   4.626   3.443  1.2323  0.3481 -0.7270
 4274SOL     hw17095   0.600   4.596   3.505 -0.0860 -0.0177  2.1052
 4274SOL     vw17096   0.515   4.611   3.513 -0.1615  0.6976  0.3697
 4275SOL     ow17097   2.907   6.294   6.114 -0.3342  0.5861  0.1208
 4275SOL     hw17098   2.812   6.289   6.117 -0.2875 -1.0325 -0.0134
 4275SOL     hw17099   2.931   6.248   6.033  0.5437  1.4349 -0.1216
 4275SOL     vw17100   2.898   6.287   6.104 -0.2122  0.4845  0.0713
 4276SOL     ow17101   2.277   4.373   1.844 -0.4656  0.0609  0.0723
 4276SOL     hw17102   2.278   4.309   1.772  1.0387  0.5140 -0.3641
 4276SOL     hw17103   2.304   4.455   1.802  1.3468  0.1427  1.2677
 4276SOL     vw17104   2.281   4.375   1.829 -0.0280  0.1316  0.1724
 4277SOL     ow17105   1.024   3.151   1.342  0.1669  0.2242  0.1313
 4277SOL     hw17106   1.023   3.234   1.293 -0.8676  1.1351  1.6106
 4277SOL     hw17107   0.933   3.136   1.367  0.5466 -0.6076  1.1026
 4277SOL     vw17108   1.012   3.160   1.339  0.0805  0.2346  0.4546
 4278SOL     ow17109   3.992   0.372   6.878  0.3213 -0.2174  0.6685
 4278SOL     hw17110   3.981   0.281   6.852  1.5652 -0.5427  1.1765
 4278SOL     hw17111   3.904   0.408   6.881 -0.1044 -1.0759 -0.6787
 4278SOL     vw17112   3.979   0.365   6.875  0.4293 -0.3736  0.5577
 4279SOL     ow17113   7.119   1.354   2.006  0.4864  0.2146  0.3672
 4279SOL     hw17114   7.082   1.440   2.024 -1.3461 -0.2778 -0.6980
 4279SOL     hw17115   7.159   1.326   2.088  1.0464  2.0258  0.7468
 4279SOL     vw17116   7.119   1.361   2.019  0.3185  0.3885  0.2768
 4280SOL     ow17117   6.138   4.652   0.119 -0.5391  0.4512  0.7587
 4280SOL     hw17118   6.056   4.603   0.107 -0.3762  0.4882 -0.7075
 4280SOL     hw17119   6.149   4.658   0.214 -4.1905  3.6580  1.2217
 4280SOL     vw17120   6.129   4.646   0.130 -0.9995  0.8793  0.6263
 4281SOL     ow17121   7.465   4.941   1.551 -0.3504  0.4338 -0.1223
 4281SOL     hw17122   7.453   5.015   1.492  0.5037  0.4760 -0.2517
 4281SOL     hw17123   7.401   4.956   1.621 -2.3112 -0.2792 -1.6417
 4281SOL     vw17124   7.455   4.953   1.552 -0.4964  0.3457 -0.3399
 4282SOL     ow17125   1.614   2.193   0.609  0.6151 -0.4944 -0.1208
 4282SOL     hw17126   1.551   2.164   0.543 -0.3033  0.6764  0.1970
 4282SOL     hw17127   1.677   2.246   0.561  0.4315 -0.3448 -0.1991
 4282SOL     vw17128   1.614   2.196   0.594  0.4697 -0.3202 -0.0892
 4283SOL     ow17129   2.666   6.634   7.170  0.0892 -0.4246  0.6222
 4283SOL     hw17130   2.685   6.558   7.116  2.1981  0.3482  0.1769
 4283SOL     hw17131   2.740   6.693   7.156 -1.0562  1.3576  1.6021
 4283SOL     vw17132   2.678   6.632   7.161  0.2164 -0.0875  0.6928
 4284SOL     ow17133   0.684   6.891   3.741  0.1798  0.0187  0.3000
 4284SOL     hw17134   0.608   6.835   3.724 -0.9149  1.3352  0.6572
 4284SOL     hw17135   0.711   6.921   3.654  0.5392 -0.7516  0.1393
 4284SOL     vw17136   0.678   6.888   3.727  0.0828  0.0908  0.3259
 4285SOL     ow17137   1.813   5.112   7.140  0.1847 -0.3374  0.1242
 4285SOL     hw17138   1.805   5.197   7.095  0.4189  0.5665  1.7225
 4285SOL     hw17139   1.727   5.072   7.130 -0.1871  0.4544  0.0305
 4285SOL     vw17140   1.801   5.118   7.133  0.1666 -0.1135  0.3226
 4286SOL     ow17141   3.154   1.395   2.653  0.2527 -0.3948  0.6786
 4286SOL     hw17142   3.126   1.338   2.581 -1.2072 -2.0039  2.4222
 4286SOL     hw17143   3.250   1.394   2.648  0.2101 -1.5962 -0.3985
 4286SOL     vw17144   3.163   1.388   2.643  0.0545 -0.7656  0.7666
 4287SOL     ow17145   5.970   6.031   0.877 -0.0185  0.4223  0.3952
 4287SOL     hw17146   6.041   5.988   0.924 -0.8555 -0.1682  1.1418
 4287SOL     hw17147   5.942   5.967   0.812 -1.5187 -0.3755  1.7559
 4287SOL     vw17148   5.975   6.017   0.874 -0.3269  0.2394  0.6732
 4288SOL     ow17149   1.558   2.677   0.005 -0.1788 -0.1712  0.1098
 4288SOL     hw17150   1.608   2.641  -0.068 -1.1480 -0.7723 -0.2776
 4288SOL     hw17151   1.467   2.666  -0.020 -0.5445  1.9823  0.2778
 4288SOL     vw17152   1.553   2.671  -0.008 -0.3549  0.0336  0.0806
 4289SOL     ow17153   2.118   1.576   0.632  0.6546  0.1861  0.0034
 4289SOL     hw17154   2.151   1.590   0.544 -0.7154  1.1401 -0.3924
 4289SOL     hw17155   2.166   1.499   0.664  0.7242 -0.5803 -1.8144
 4289SOL     vw17156   2.129   1.567   0.625  0.4830  0.2109 -0.2887
 4290SOL     ow17157   1.859   4.042   2.595  0.1998 -0.3199  0.3122
 4290SOL     hw17158   1.883   4.133   2.578  0.2984 -0.2503  0.8204
 4290SOL     hw17159   1.862   4.033   2.690  1.6525 -1.2533  0.2164
 4290SOL     vw17160   1.863   4.053   2.605  0.4044 -0.4337  0.3667
 4291SOL     ow17161   2.767   5.832   3.716  0.1227 -0.2270 -0.3521
 4291SOL     hw17162   2.752   5.832   3.810 -2.3729  1.7439 -0.6709
 4291SOL     hw17163   2.800   5.919   3.696 -0.1855 -0.3300 -1.4070
 4291SOL     vw17164   2.770   5.843   3.725 -0.2472  0.0193 -0.5333
 4292SOL     ow17165   5.803   5.884   3.050  0.0372 -0.0950  0.0449
 4292SOL     hw17166   5.834   5.918   2.966  0.2783 -2.3641 -0.8577
 4292SOL     hw17167   5.883   5.864   3.099  0.0820 -2.4943 -0.8377
 4292SOL     vw17168   5.818   5.886   3.045  0.0753 -0.7112 -0.1906
 4293SOL     ow17169   4.399   3.558   0.635  0.6762 -0.1735 -0.2008
 4293SOL     hw17170   4.312   3.533   0.667  0.4141  1.4611  0.4450
 4293SOL     hw17171   4.433   3.617   0.701  2.4180 -0.9847 -0.3229
 4293SOL     vw17172   4.392   3.562   0.648  0.8714 -0.0648 -0.1317
 4294SOL     ow17173   4.194   1.820   2.354 -0.0479 -0.1878  0.0198
 4294SOL     hw17174   4.174   1.895   2.298  0.6307 -1.9032 -2.7376
 4294SOL     hw17175   4.158   1.745   2.307  1.9234 -1.9368  1.1134
 4294SOL     vw17176   4.187   1.820   2.341  0.3016 -0.6449 -0.1997
 4295SOL     ow17177   0.863   2.822   3.160 -0.4266 -0.1445 -0.3268
 4295SOL     hw17178   0.940   2.879   3.156  1.3672 -2.4400 -0.6616
 4295SOL     hw17179   0.789   2.882   3.149  1.3300  2.0095 -1.4071
 4295SOL     vw17180   0.864   2.838   3.158  0.0418 -0.1632 -0.5134
 4296SOL     ow17181   0.721   0.632   5.763  0.3793 -0.0998  0.3008
 4296SOL     hw17182   0.678   0.552   5.792  0.2110  0.2440  1.0313
 4296SOL     hw17183   0.782   0.653   5.834  1.8777 -0.6512 -0.7696
 4296SOL     vw17184   0.724   0.624   5.776  0.5548 -0.1272  0.2558
 4297SOL     ow17185   6.230   2.314   6.376 -0.4941 -0.6705 -0.0658
 4297SOL     hw17186   6.182   2.388   6.413 -1.2200 -0.8338 -0.6647
 4297SOL     hw17187   6.279   2.352   6.303 -0.2365 -0.6307  0.1273
 4297SOL     vw17188   6.230   2.329   6.372 -0.5558 -0.6869 -0.1192
 4298SOL     ow17189   5.251   3.960   0.315  0.2040  0.2748 -0.0836
 4298SOL     hw17190   5.231   4.006   0.234 -0.1376  0.8358  0.3128
 4298SOL     hw17191   5.202   4.007   0.382 -3.5671 -3.0604 -0.1575
 4298SOL     vw17192   5.242   3.972   0.313 -0.3388 -0.0912 -0.0411
 4299SOL     ow17193   6.076   5.915   7.144  0.0009  0.5434 -0.0805
 4299SOL     hw17194   6.080   5.965   7.226  0.1439 -1.0889  0.9457
 4299SOL     hw17195   6.001   5.857   7.155  0.3674 -0.1013 -0.8686
 4299SOL     vw17196   6.067   5.914   7.156  0.0682  0.2432 -0.0491
 4300SOL     ow17197   4.021   4.928   1.679 -0.0203 -0.7941 -0.2420
 4300SOL     hw17198   4.114   4.906   1.671  0.1661 -0.7023  1.2915
 4300SOL     hw17199   3.993   4.885   1.760 -1.0014  0.1753 -0.0383
 4300SOL     vw17200   4.030   4.919   1.689 -0.1252 -0.6542 -0.0129
 4301SOL     ow17201   5.111   3.048   6.420  0.1616  0.2697 -0.4703
 4301SOL     hw17202   5.025   3.078   6.390  0.2913  0.9621 -0.1766
 4301SOL     hw17203   5.169   3.065   6.345 -0.0173 -0.5182 -0.7928
 4301SOL     vw17204   5.107   3.054   6.406  0.1552  0.2570 -0.4740
 4302SOL     ow17205   5.892   3.653   7.371  0.1785 -0.0102  0.4112
 4302SOL     hw17206   5.932   3.672   7.456  0.1132  0.1076  0.4139
 4302SOL     hw17207   5.854   3.566   7.381 -0.4626  0.3034  0.7262
 4302SOL     vw17208   5.893   3.644   7.383  0.0854  0.0467  0.4532
 4303SOL     ow17209   0.405   5.720   0.002 -0.2627 -0.0715 -0.2595
 4303SOL     hw17210   0.378   5.792   0.059  0.2420 -0.3433  0.3231
 4303SOL     hw17211   0.489   5.748  -0.034  0.4910 -0.8690  0.8682
 4303SOL     vw17212   0.412   5.733   0.004 -0.0967 -0.2124 -0.0338
 4304SOL     ow17213   1.092   6.976   2.904  0.0581  0.3535  0.8069
 4304SOL     hw17214   1.028   7.014   2.963 -0.2764 -0.1225  0.7588
 4304SOL     hw17215   1.171   7.029   2.915 -0.6199  1.5060  0.1898
 4304SOL     vw17216   1.094   6.988   2.913 -0.0755  0.4427  0.7191
 4305SOL     ow17217   4.482   0.575   1.651 -0.6774  0.2127  0.2595
 4305SOL     hw17218   4.527   0.577   1.735  0.7275  1.3741 -0.4602
 4305SOL     hw17219   4.498   0.487   1.616  2.9193  1.1392 -0.8527
 4305SOL     vw17220   4.490   0.564   1.657 -0.0174  0.4882  0.0178
 4306SOL     ow17221   7.062   6.034   5.605 -0.0015 -0.0708 -0.9265
 4306SOL     hw17222   6.986   6.089   5.623 -0.0658 -0.4922  0.1852
 4306SOL     hw17223   7.051   5.959   5.663  0.8798 -0.4989 -1.3001
 4306SOL     vw17224   7.051   6.032   5.615  0.1063 -0.1829 -0.8292
 4307SOL     ow17225   1.294   5.478   0.530 -0.3352  0.2919 -0.1389
 4307SOL     hw17226   1.229   5.527   0.581 -0.4732  0.2035 -0.2300
 4307SOL     hw17227   1.243   5.416   0.479 -0.0365 -1.2780  1.3824
 4307SOL     vw17228   1.279   5.476   0.530 -0.3140  0.0730  0.0498
 4308SOL     ow17229   0.576   0.271   4.564 -0.2934 -0.2285  0.0939
 4308SOL     hw17230   0.543   0.263   4.474  2.7473 -2.6011 -0.9987
 4308SOL     hw17231   0.584   0.181   4.594  1.7191  0.3645  1.5259
 4308SOL     vw17232   0.573   0.258   4.556  0.3733 -0.4633  0.1388
 4309SOL     ow17233   5.265   3.278   2.927  0.1808  0.0054  0.0258
 4309SOL     hw17234   5.186   3.292   2.876  1.0937 -1.7025 -2.0047
 4309SOL     hw17235   5.298   3.366   2.946 -2.0927  0.7362  0.8452
 4309SOL     vw17236   5.259   3.291   2.923  0.0012 -0.1235 -0.1339
 4310SOL     ow17237   2.680   5.574   3.030  0.1579 -0.0968 -0.0786
 4310SOL     hw17238   2.630   5.639   2.980  2.2089  1.0991 -0.6662
 4310SOL     hw17239   2.666   5.598   3.122 -1.3918 -0.6165 -0.1506
 4310SOL     vw17240   2.671   5.586   3.036  0.2240 -0.0079 -0.1656
 4311SOL     ow17241   6.305   0.084   1.157 -0.6804  0.0213  0.0207
 4311SOL     hw17242   6.312   0.179   1.146  1.2902 -0.0130  0.6930
 4311SOL     hw17243   6.215   0.064   1.130 -1.4736  2.1976  0.7758
 4311SOL     vw17244   6.294   0.094   1.152 -0.5250  0.3039  0.2092
 4312SOL     ow17245   1.129   4.998   4.567  0.2579  0.5458 -0.4017
 4312SOL     hw17246   1.075   5.066   4.607 -1.8006  0.2876 -2.5309
 4312SOL     hw17247   1.083   4.917   4.587 -0.0002  0.2829 -2.0005
 4312SOL     vw17248   1.116   4.996   4.575 -0.0477  0.4768 -0.8938
 4313SOL     ow17249   6.482   6.043   0.696 -0.2451 -0.1603  0.6055
 4313SOL     hw17250   6.532   5.967   0.727 -0.5446  0.2627  2.1663
 4313SOL     hw17251   6.548   6.099   0.655  0.0562 -1.0132 -0.1244
 4313SOL     vw17252   6.497   6.040   0.694 -0.2446 -0.2172  0.7151
 4314SOL     ow17253   2.488   7.362   3.967 -0.5113 -0.0023  0.1741
 4314SOL     hw17254   2.480   7.451   3.935 -0.5966  0.3053  1.0152
 4314SOL     hw17255   2.488   7.371   4.063  0.1889 -0.8371  0.2666
 4314SOL     vw17256   2.487   7.375   3.976 -0.4302 -0.0718  0.2973
 4315SOL     ow17257   1.115   5.480   3.687  0.0629  0.1155 -0.2867
 4315SOL     hw17258   1.171   5.557   3.698  1.2909 -0.4528 -2.0767
 4315SOL     hw17259   1.166   5.407   3.721 -0.5930 -0.1047  0.2614
 4315SOL     vw17260   1.129   5.480   3.693  0.1383  0.0114 -0.4506
 4316SOL     ow17261   1.156   6.628   4.954 -0.0911 -0.5178  0.4060
 4316SOL     hw17262   1.072   6.636   4.908 -0.9622 -1.6872  1.6962
 4316SOL     hw17263   1.133   6.630   5.047  1.5641  1.2531  0.8359
 4316SOL     vw17264   1.142   6.629   4.960  0.0124 -0.4382  0.6330
 4317SOL     ow17265   5.213   4.251   1.869  0.4164  0.1299  0.1745
 4317SOL     hw17266   5.134   4.270   1.819 -0.0632  0.7858  1.1627
 4317SOL     hw17267   5.263   4.333   1.866 -0.0458  0.4744  1.5288
 4317SOL     vw17268   5.209   4.264   1.862  0.2918  0.2618  0.4835
 4318SOL     ow17269   6.686   1.384   0.018 -0.1581 -0.4591  0.0524
 4318SOL     hw17270   6.672   1.476  -0.006 -0.0913 -0.7827 -1.3480
 4318SOL     hw17271   6.745   1.387   0.093  1.2578  0.6133 -1.0462
 4318SOL     vw17272   6.692   1.397   0.024  0.0377 -0.3603 -0.2774
 4319SOL     ow17273   0.817   7.257   1.644 -0.6903  0.2957  0.0837
 4319SOL     hw17274   0.906   7.284   1.622 -1.7712  2.0308 -2.6619
 4319SOL     hw17275   0.818   7.248   1.740  2.1346  1.2994  0.2437
 4319SOL     vw17276   0.828   7.259   1.654 -0.4602  0.6571 -0.2574
 4320SOL     ow17277   6.274   6.593   4.912 -0.0980  0.4679  0.5540
 4320SOL     hw17278   6.309   6.651   4.981 -0.0505  0.7240  0.3169
 4320SOL     hw17279   6.257   6.652   4.838  0.2347  0.1310  0.2051
 4320SOL     vw17280   6.276   6.609   4.911 -0.0479  0.4573  0.4766
 4321poe    c3117281   4.293   2.504   6.861 -0.0600  0.0209 -0.3131
 4321poe     o217282   4.269   2.384   6.932  0.2967  0.0222 -0.1902
 4321poe    c2317283   4.227   2.414   7.063 -0.1173 -0.0836 -0.2990
 4321poe    c2317284   4.159   2.296   7.134  0.0068  0.2741  0.4262
 4321poe     o217285   4.255   2.193   7.140 -0.1280  0.1525  0.5298
 4321poe    c2317286   4.201   2.083   7.208 -0.2517 -0.3997 -0.4395
 4321poe    c2317287   4.277   1.949   7.206  0.3271 -0.0791 -0.2642
 4321poe     o217288   4.282   1.883   7.081  0.2031 -0.0589 -0.2798
 4321poe    c2317289   4.212   1.762   7.064  0.3185 -0.1581 -0.0547
 4321poe    c2317290   4.208   1.719   6.916 -0.0534 -0.2572 -0.0185
 4321poe     o217291   4.343   1.693   6.885 -0.1181 -0.1043 -0.4301
 4321poe    c3117292   4.373   1.701   6.747  0.4044 -0.2909 -0.3298
 4322poe    c3117293   5.422   2.142   5.763 -0.3258 -0.5646  0.5377
 4322poe     o217294   5.430   2.163   5.902  0.2764 -0.3093  0.4699
 4322poe    c2317295   5.363   2.059   5.970  0.0049 -0.4308  0.0206
 4322poe    c2317296   5.350   2.073   6.123 -0.1291 -0.8102  0.0445
 4322poe     o217297   5.482   2.061   6.171 -0.1031 -0.3556  0.0881
 4322poe    c2317298   5.539   2.180   6.221 -0.1088 -0.1589 -0.3688
 4322poe    c2317299   5.689   2.179   6.256 -0.1620  0.3373 -0.1212
 4322poe     o217300   5.755   2.185   6.131  0.4038  0.0222  0.1591
 4322poe    c2317301   5.889   2.149   6.157  0.3342 -0.0946  0.3655
 4322poe    c2317302   5.965   2.090   6.036  0.3687  0.0420  0.3212
 4322poe     o217303   5.912   1.963   6.006  0.1829  0.1161  0.3341
 4322poe    c3117304   5.957   1.929   5.877  0.2524 -0.0719  0.4082
 4323poe    c3117305   1.063   1.380   4.148 -0.9123 -0.3337  0.0235
 4323poe     o217306   1.087   1.258   4.081 -0.0803 -0.1592 -0.0091
 4323poe    c2317307   0.979   1.168   4.077 -0.1501 -0.0717 -0.1052
 4323poe    c2317308   0.992   1.049   3.980  0.2585 -0.2030  0.1069
 4323poe     o217309   1.121   0.994   3.995  0.3321 -0.0163  0.1628
 4323poe    c2317310   1.135   0.866   3.938 -0.6050 -0.3823  0.7378
 4323poe    c2317311   1.269   0.817   3.996  0.0524 -0.2437 -0.6149
 4323poe     o217312   1.374   0.899   3.950  0.2020  0.0043  0.1461
 4323poe    c2317313   1.492   0.858   4.015 -0.0317 -0.3251  0.3691
 4323poe    c2317314   1.574   0.987   4.034 -0.3536 -0.0170 -0.3034
 4323poe     o217315   1.568   1.075   3.924 -0.0736  0.1633 -0.1766
 4323poe    c3117316   1.671   1.171   3.922 -0.5213  0.6664  0.5668
 4324poe    c3117317   2.752   5.036   6.592  0.4529 -0.2912 -0.1385
 4324poe     o217318   2.786   5.143   6.506  0.5965  0.2831  0.6151
 4324poe    c2317319   2.883   5.091   6.417 -0.1359 -0.1506  0.0536
 4324poe    c2317320   2.964   5.198   6.341  0.1166 -0.0533  0.4563
 4324poe     o217321   3.055   5.268   6.423 -0.0919  0.5269  0.2004
 4324poe    c2317322   3.182   5.209   6.407 -0.2001  0.2456  0.3640
 4324poe    c2317323   3.292   5.282   6.487  0.1326  0.2030 -0.0501
 4324poe     o217324   3.239   5.296   6.617  0.0026  0.5347 -0.1361
 4324poe    c2317325   3.318   5.371   6.706  0.9042  0.1051 -0.5644
 4324poe    c2317326   3.248   5.424   6.832  0.1588 -0.0596 -0.9006
 4324poe     o217327   3.140   5.509   6.804 -0.0142  0.1217  0.2537
 4324poe    c3117328   3.178   5.643   6.783  0.3265 -0.0861 -0.4754
 4325poe    c3117329   7.039   6.239   4.244  0.2945  0.2743 -0.6727
 4325poe     o217330   7.163   6.180   4.276  0.0917  0.0600 -0.2696
 4325poe    c2317331   7.157   6.040   4.256  0.0404  0.0178  0.0381
 4325poe    c2317332   7.278   5.960   4.305 -0.1767 -0.2760  0.0970
 4325poe     o217333   7.389   5.969   4.218 -0.5021 -0.1606 -0.3121
 4325poe    c2317334   7.404   5.842   4.159 -0.0522 -0.0509 -0.4395
 4325poe    c2317335   7.514   5.856   4.052  0.3477 -0.5295 -0.0985
 4325poe     o217336   7.624   5.918   4.115  0.1442 -0.2825  0.0147
 4325poe    c2317337   7.702   6.000   4.031 -0.0126  0.1184  0.2582
 4325poe    c2317338   7.811   6.065   4.119  0.1717 -0.1036  0.1934
 4325poe     o217339   7.744   6.117   4.231  0.1498  0.1027  0.0841
 4325poe    c3117340   7.830   6.205   4.299 -0.0790  0.2187  0.2283
 4326poe    c3117341   4.946   5.514   5.031  0.2265 -0.2179  0.1644
 4326poe     o217342   5.055   5.575   5.095 -0.2863  0.6916  0.1930
 4326poe    c2317343   5.133   5.636   4.994  0.2267  0.1936  0.2847
 4326poe    c2317344   5.272   5.680   5.043  0.1854  0.4090  0.2071
 4326poe     o217345   5.268   5.791   5.130 -0.2034  0.5264  0.0425
 4326poe    c2317346   5.400   5.833   5.155 -0.0635 -0.2502  0.6544
 4326poe    c2317347   5.382   5.969   5.225  0.0298  0.1690 -0.1286
 4326poe     o217348   5.301   5.952   5.338 -0.0371 -0.1602 -0.2268
 4326poe    c2317349   5.209   6.059   5.338  0.2305  0.0702 -0.0039
 4326poe    c2317350   5.163   6.089   5.482 -0.2723 -0.6593 -0.0054
 4326poe     o217351   5.069   5.995   5.529 -0.0898 -0.6896  0.3018
 4326poe    c3117352   4.987   6.065   5.621 -0.0102 -0.2585  0.0488
 4327poe    c3117353   2.049   5.287   0.263  1.0836 -0.2044  0.0933
 4327poe     o217354   2.048   5.424   0.297  0.4156 -0.1796 -0.0144
 4327poe    c2317355   2.170   5.493   0.279  0.3074 -0.0595 -0.3052
 4327poe    c2317356   2.273   5.511   0.393  0.0192  0.3457 -0.1052
 4327poe     o217357   2.223   5.612   0.478 -0.3047  0.3845 -0.3380
 4327poe    c2317358   2.332   5.647   0.559 -0.2978  0.8274 -0.5378
 4327poe    c2317359   2.292   5.739   0.677  0.1752 -0.1275  0.3883
 4327poe     o217360   2.241   5.867   0.649  0.2484 -0.1217  0.2826
 4327poe    c2317361   2.218   5.929   0.773 -0.3298 -0.4896  0.3595
 4327poe    c2317362   2.178   6.078   0.779  0.1322 -0.3422 -0.2248
 4327poe     o217363   2.046   6.092   0.733 -0.1705  0.1254  0.7772
 4327poe    c3117364   2.007   6.223   0.766  0.8170  0.5599  0.2287
 4328poe    c3117365   6.699   0.215   4.710  0.0592 -0.0484  0.2557
 4328poe     o217366   6.781   0.101   4.698 -0.3125 -0.3398  0.4490
 4328poe    c2317367   6.913   0.136   4.736 -0.1819 -0.1108 -0.2103
 4328poe    c2317368   7.013   0.134   4.619 -0.3419  0.0638 -0.3518
 4328poe     o217369   7.023  -0.003   4.586  0.4447 -0.0408  0.2822
 4328poe    c2317370   7.152  -0.042   4.546  0.4882 -0.1148  0.4967
 4328poe    c2317371   7.175  -0.189   4.505  0.3354  0.0001 -0.0001
 4328poe     o217372   7.124  -0.260   4.615 -0.0983 -0.0488 -0.2319
 4328poe    c2317373   7.140  -0.399   4.603  0.7507 -0.0268  0.6139
 4328poe    c2317374   7.044  -0.466   4.703 -0.1339  0.3346  0.0132
 4328poe     o217375   6.910  -0.443   4.664 -0.1512  0.3187  0.0638
 4328poe    c3117376   6.841  -0.565   4.683  0.4103  0.0588  0.4850
 4329poe    c3117377   6.831   3.250   5.745 -0.3579 -0.4556 -0.0297
 4329poe     o217378   6.816   3.282   5.609  0.4928 -0.0188 -0.0271
 4329poe    c2317379   6.680   3.313   5.586  0.4898  0.2452  0.3247
 4329poe    c2317380   6.669   3.329   5.433 -0.3308 -0.0387  0.3515
 4329poe     o217381   6.778   3.413   5.402 -0.4507  0.0184  0.0824
 4329poe    c2317382   6.768   3.469   5.273  0.3488 -0.4700 -0.1981
 4329poe    c2317383   6.869   3.584   5.265  0.0427 -0.1515  0.4634
 4329poe     o217384   6.997   3.538   5.303  0.3779 -0.0811 -0.5396
 4329poe    c2317385   7.107   3.623   5.278  0.0405  0.4591 -0.2273
 4329poe    c2317386   7.236   3.550   5.320 -0.3973 -0.2870 -0.1530
 4329poe     o217387   7.241   3.532   5.459  0.0749 -0.1780 -0.1529
 4329poe    c3117388   7.367   3.488   5.504  0.0198 -0.1802  0.0017
 4330poe    c3117389   5.850   1.335   0.300 -0.1805 -0.1921 -0.3856
 4330poe     o217390   5.917   1.456   0.325 -0.2672 -0.0904 -0.6482
 4330poe    c2317391   5.980   1.507   0.210  0.1366  0.0900 -0.3478
 4330poe    c2317392   6.105   1.595   0.228  0.0498  0.0453  0.5124
 4330poe     o217393   6.062   1.723   0.267 -0.0151  0.2155 -0.0994
 4330poe    c2317394   6.178   1.780   0.325  0.2018  0.2217 -0.5384
 4330poe    c2317395   6.153   1.931   0.343  0.2995  0.1525  0.1856
 4330poe     o217396   6.097   1.964   0.468 -0.1528  0.1362 -0.0097
 4330poe    c2317397   6.126   2.099   0.499  0.6849 -0.0061 -0.1345
 4330poe    c2317398   6.042   2.139   0.622  0.4493 -1.2564  0.1249
 4330poe     o217399   5.904   2.119   0.598  0.2613  0.1377 -0.0272
 4330poe    c3117400   5.836   2.123   0.721  0.1357  0.0191 -0.0927
 4331poe    c3117401   0.032   3.641   4.887 -0.7900 -0.3050  0.0221
 4331poe     o217402   0.058   3.647   4.749 -0.4147  0.2506  0.1128
 4331poe    c2317403   0.006   3.764   4.691 -0.1247  0.4004  0.1500
 4331poe    c2317404   0.012   3.790   4.539  0.5611 -0.3230  0.0507
 4331poe     o217405  -0.058   3.684   4.478  0.1871 -0.3257  0.4803
 4331poe    c2317406  -0.110   3.715   4.351  0.1705 -0.1954  0.5186
 4331poe    c2317407  -0.248   3.652   4.322  0.3826 -0.5376  0.2411
 4331poe     o217408  -0.242   3.513   4.299  0.4235 -0.4497 -0.3030
 4331poe    c2317409  -0.372   3.457   4.296  0.2778 -0.1518  0.2505
 4331poe    c2317410  -0.388   3.307   4.328 -0.3914 -0.1565 -0.1035
 4331poe     o217411  -0.377   3.276   4.465 -0.1314  0.1826 -0.0450
 4331poe    c3117412  -0.404   3.139   4.489 -0.4280  0.2561  0.0504
 4332poe    c3117413   7.072   2.503   4.168  0.0562 -0.0951  0.8149
 4332poe     o217414   7.212   2.517   4.157  0.0537 -0.3805  0.4100
 4332poe    c2317415   7.241   2.613   4.058 -0.1754 -0.4046  0.3176
 4332poe    c2317416   7.336   2.568   3.945  0.2753  0.1368  0.4706
 4332poe     o217417   7.454   2.509   3.995  0.3655  0.0536  0.1629
 4332poe    c2317418   7.522   2.449   3.887 -0.1791  0.3424 -0.3448
 4332poe    c2317419   7.629   2.350   3.935 -0.2536  0.3507 -0.1586
 4332poe     o217420   7.580   2.251   4.023  0.1171  0.1474 -0.1804
 4332poe    c2317421   7.681   2.169   4.079  0.1437  0.2475 -0.0810
 4332poe    c2317422   7.619   2.031   4.106  0.1944  0.2690  0.1430
 4332poe     o217423   7.515   2.042   4.202  0.1561 -0.1176  0.1493
 4332poe    c3117424   7.388   2.026   4.143 -0.0419  0.3273  0.4518
 4333poe    c3117425   0.958   1.880   1.814  0.2569 -0.4182 -0.4827
 4333poe     o217426   0.837   1.836   1.757 -0.4095  0.4102  0.2692
 4333poe    c2317427   0.724   1.891   1.820 -0.2985  0.0766  0.7601
 4333poe    c2317428   0.616   1.914   1.713  0.3230 -0.0268  0.1103
 4333poe     o217429   0.578   1.799   1.639  0.2220  0.1031 -0.0423
 4333poe    c2317430   0.462   1.814   1.561 -0.1157 -0.1656  0.4027
 4333poe    c2317431   0.451   1.680   1.485  0.4680 -0.5510  0.9810
 4333poe     o217432   0.554   1.672   1.389 -0.0906 -0.1284  0.3304
 4333poe    c2317433   0.560   1.542   1.335 -0.4371 -0.1581  0.3634
 4333poe    c2317434   0.470   1.519   1.213  0.1706 -0.1908 -0.0843
 4333poe     o217435   0.397   1.398   1.225 -0.4642  0.2633  0.7371
 4333poe    c3117436   0.383   1.332   1.101  0.0024 -0.0763  0.8648
 4334poe    c3117437   0.634   1.135   3.197 -0.1649  0.1890  0.2186
 4334poe     o217438   0.702   1.214   3.292  0.2235  0.0719  0.0404
 4334poe    c2317439   0.840   1.191   3.281  0.2441  0.3228 -0.2177
 4334poe    c2317440   0.918   1.305   3.349 -0.5037  0.4598  0.4185
 4334poe     o217441   0.908   1.289   3.488 -0.1491 -0.1770  0.3730
 4334poe    c2317442   0.935   1.410   3.555  0.1163 -0.0325  0.0071
 4334poe    c2317443   0.877   1.401   3.697 -0.0045 -0.0358 -0.0424
 4334poe     o217444   0.736   1.402   3.697 -0.0014  0.3642 -0.0830
 4334poe    c2317445   0.684   1.431   3.825  0.7111  0.1480  0.2568
 4334poe    c2317446   0.597   1.310   3.864  0.4064  0.3978  0.3538
 4334poe     o217447   0.666   1.187   3.861 -0.1435  0.0952  0.0295
 4334poe    c3117448   0.588   1.089   3.927  0.0713  0.2545  0.5205
 4335poe    c3117449   1.938   6.367   1.145  0.2234  0.2397  0.0195
 4335poe     o217450   1.896   6.313   1.268  0.0233  0.2722 -0.0341
 4335poe    c2317451   1.924   6.407   1.369 -0.3653  0.2763  0.0722
 4335poe    c2317452   2.035   6.379   1.472  0.0477  0.3768 -0.3420
 4335poe     o217453   1.994   6.271   1.553  0.2057  0.4182 -0.2064
 4335poe    c2317454   2.107   6.211   1.614  0.4883  0.2734 -0.8647
 4335poe    c2317455   2.049   6.094   1.695  0.1107  0.6901 -0.5211
 4335poe     o217456   1.976   5.999   1.619  0.2447 -0.0764  0.2910
 4335poe    c2317457   1.912   5.898   1.693 -0.5498  0.2198  0.0209
 4335poe    c2317458   1.836   5.799   1.603  0.3335  0.0013 -0.5027
 4335poe     o217459   1.717   5.855   1.551  0.2913  0.3714 -0.0152
 4335poe    c3117460   1.682   5.777   1.439 -0.0369  0.1423  0.2430
 4336poe    c3117461   0.016   5.971   5.970 -0.3802  0.1676  0.0050
 4336poe     o217462  -0.090   6.062   5.990 -0.2583  0.1800  0.6326
 4336poe    c2317463  -0.165   6.086   5.873  0.4133  0.0651  0.1667
 4336poe    c2317464  -0.270   6.188   5.920  0.6260  0.0622  0.6563
 4336poe     o217465  -0.209   6.312   5.949  0.1467  0.5163 -0.2107
 4336poe    c2317466  -0.294   6.424   5.937 -0.2357  0.3321  0.6764
 4336poe    c2317467  -0.211   6.551   5.963 -0.1621  0.4009  0.1068
 4336poe     o217468  -0.168   6.543   6.097 -0.0720 -0.1245  0.0467
 4336poe    c2317469  -0.070   6.640   6.128  0.4122 -0.4519 -0.4400
 4336poe    c2317470   0.077   6.599   6.107  0.4372 -0.3788 -0.4097
 4336poe     o217471   0.142   6.506   6.190  0.1716 -0.0146  0.2067
 4336poe    c3117472   0.128   6.372   6.148 -0.1441  0.0942 -0.0321
 4337poe    c3117473   4.210   4.407   6.710 -0.6724  0.4220 -0.5130
 4337poe     o217474   4.269   4.329   6.609 -0.6753 -0.4474  0.1448
 4337poe    c2317475   4.254   4.191   6.635  0.0258 -0.5208  0.1901
 4337poe    c2317476   4.330   4.097   6.540 -0.1958 -0.5918  0.0834
 4337poe     o217477   4.277   4.094   6.410  0.4853 -0.1141 -0.2118
 4337poe    c2317478   4.353   4.009   6.327  0.6288  0.1407 -0.3425
 4337poe    c2317479   4.270   3.924   6.228  0.1710  0.0663  0.1005
 4337poe     o217480   4.185   3.825   6.282  0.0464 -0.1446 -0.4709
 4337poe    c2317481   4.066   3.806   6.209  0.0631 -0.1263 -0.5026
 4337poe    c2317482   3.938   3.766   6.284  0.0068  0.2882 -0.3746
 4337poe     o217483   3.886   3.882   6.344  0.3583 -0.1358  0.7702
 4337poe    c3117484   3.753   3.865   6.388  0.0364  0.3931  0.0281
 4338poe    c3117485   0.263   1.143   3.020  0.1339  0.0508 -0.0182
 4338poe     o217486   0.252   1.256   3.104  0.0304  0.0642 -0.0496
 4338poe    c2317487   0.231   1.373   3.028  0.0555  0.1589  0.0890
 4338poe    c2317488   0.247   1.505   3.106 -0.4896  0.2016  0.1345
 4338poe     o217489   0.172   1.496   3.225 -0.3738  0.3169  0.2168
 4338poe    c2317490   0.196   1.597   3.320  0.2543  0.7564 -0.3959
 4338poe    c2317491   0.101   1.580   3.440  0.5652 -0.0803 -0.2568
 4338poe     o217492   0.094   1.453   3.500 -0.8021  0.2518  0.3294
 4338poe    c2317493   0.200   1.438   3.592 -0.6574  0.1680  0.1505
 4338poe    c2317494   0.186   1.306   3.670  0.0630  0.1985  0.3405
 4338poe     o217495   0.281   1.214   3.620 -0.0606  0.1957  0.1099
 4338poe    c3117496   0.247   1.097   3.691 -0.5417  0.4933  0.3820
 4339poe    c3117497   0.265   1.003   0.836  0.2634  0.0915 -0.3848
 4339poe     o217498   0.140   1.006   0.770 -0.0924 -0.1211  0.2726
 4339poe    c2317499   0.136   1.123   0.692 -0.0374 -0.0221  0.4176
 4339poe    c2317500  -0.002   1.188   0.673 -0.2080 -0.3897  0.3966
 4339poe     o217501  -0.096   1.101   0.614 -0.0310 -0.0131 -0.4630
 4339poe    c2317502  -0.231   1.132   0.644  0.1207  0.4549 -0.2623
 4339poe    c2317503  -0.320   1.036   0.565 -0.0908  0.0044  0.5129
 4339poe     o217504  -0.275   0.902   0.572  0.0976  0.0422  0.0667
 4339poe    c2317505  -0.362   0.811   0.509  0.3013 -0.2253  0.1693
 4339poe    c2317506  -0.310   0.666   0.515  0.0547 -0.3612 -0.9269
 4339poe     o217507  -0.170   0.674   0.507  0.0722 -0.2096 -0.4921
 4339poe    c3117508  -0.122   0.552   0.560 -0.4160 -0.0609  0.2955
 4340poe    c3117509   2.211   5.881   6.451 -0.0629 -0.0126  0.4656
 4340poe     o217510   2.268   5.988   6.378  0.0411  0.0918  0.6972
 4340poe    c2317511   2.386   6.046   6.427  0.7749 -0.2293 -0.6414
 4340poe    c2317512   2.398   6.192   6.381  0.1644 -0.0009 -0.0891
 4340poe     o217513   2.269   6.250   6.380 -0.0214 -0.4101 -0.3046
 4340poe    c2317514   2.276   6.390   6.363 -0.5020 -0.3300  0.1379
 4340poe    c2317515   2.131   6.441   6.355 -0.3786  0.0368  0.2180
 4340poe     o217516   2.066   6.389   6.241 -0.0289  0.2392 -0.0740
 4340poe    c2317517   1.930   6.424   6.253 -0.2135 -0.5857  0.3135
 4340poe    c2317518   1.856   6.467   6.124  0.3663  0.3425  0.2813
 4340poe     o217519   1.812   6.359   6.045  0.6733  0.5043 -0.1114
 4340poe    c3117520   1.776   6.411   5.919  0.4228  0.0370 -0.2328
 4341poe    c3117521   3.627   2.305   6.445  0.1490  0.0211  0.1710
 4341poe     o217522   3.490   2.292   6.411  0.1343  0.6227 -0.0025
 4341poe    c2317523   3.469   2.287   6.272  0.2658 -0.0779  0.0008
 4341poe    c2317524   3.322   2.263   6.236  0.1807  0.0640  0.2517
 4341poe     o217525   3.281   2.140   6.291  0.6715 -0.1650  0.1125
 4341poe    c2317526   3.221   2.050   6.200  0.8465 -0.5188  0.3436
 4341poe    c2317527   3.175   1.944   6.302  0.2237 -0.6306 -0.0445
 4341poe     o217528   3.122   2.018   6.410  0.1683 -0.6169 -0.0811
 4341poe    c2317529   3.076   1.923   6.503 -0.1818 -0.2314  0.1422
 4341poe    c2317530   3.012   1.994   6.624  0.1631 -0.1371  0.2710
 4341poe     o217531   3.106   2.090   6.665  0.1790  0.0828 -0.2783
 4341poe    c3117532   3.060   2.138   6.790 -0.0267 -0.1115 -0.2786
 4342poe    c3117533   6.981   4.049   1.939 -0.0304 -0.1267 -0.5492
 4342poe     o217534   7.035   4.179   1.945 -0.3770 -0.0086 -0.0324
 4342poe    c2317535   7.161   4.180   1.882 -0.5717 -0.1908 -0.4257
 4342poe    c2317536   7.214   4.322   1.853  0.3840 -0.4629 -0.0440
 4342poe     o217537   7.150   4.411   1.764 -0.0596  0.5268  1.2332
 4342poe    c2317538   7.243   4.499   1.705 -0.4010  0.0804 -0.0171
 4342poe    c2317539   7.180   4.608   1.616 -0.3829  0.2358  0.1582
 4342poe     o217540   7.103   4.698   1.692 -0.7798  0.0162  0.0187
 4342poe    c2317541   7.059   4.797   1.601 -0.0052  0.4465  0.1012
 4342poe    c2317542   7.000   4.912   1.684 -0.2903 -0.0300  0.5705
 4342poe     o217543   7.098   4.986   1.753  0.0559 -0.0411  0.0931
 4342poe    c3117544   7.036   5.033   1.870 -0.3783 -0.3626 -0.0057
 4343poe    c3117545   4.819   5.687   7.286  0.5936  0.0100  0.3456
 4343poe     o217546   4.777   5.714   7.154  0.4798  0.2320  0.4279
 4343poe    c2317547   4.687   5.823   7.153 -0.1015 -0.2435  0.6259
 4343poe    c2317548   4.560   5.787   7.073  0.2163 -0.5943  0.2696
 4343poe     o217549   4.578   5.730   6.945 -0.4461 -0.0685 -0.0615
 4343poe    c2317550   4.562   5.591   6.930 -0.1656 -0.1051 -0.0397
 4343poe    c2317551   4.548   5.533   6.788 -0.0515 -0.6911  0.1881
 4343poe     o217552   4.660   5.533   6.704 -0.1924 -0.1432 -0.0024
 4343poe    c2317553   4.621   5.486   6.577 -0.0615 -0.4232  0.0596
 4343poe    c2317554   4.747   5.437   6.504 -0.0863  0.0575 -0.3089
 4343poe     o217555   4.822   5.544   6.450 -0.1382  0.0525 -0.3913
 4343poe    c3117556   4.949   5.487   6.427 -0.2926 -0.3719 -0.2067
 4344poe    c3117557   2.265   3.060   1.990  0.0556 -0.1883 -0.3909
 4344poe     o217558   2.257   3.190   2.044 -0.0082 -0.3606  0.0175
 4344poe    c2317559   2.127   3.243   2.034  0.1459  0.0910  0.3732
 4344poe    c2317560   2.104   3.373   2.114 -0.6778  0.2129 -0.0456
 4344poe     o217561   2.157   3.366   2.244  0.2668  0.3032 -0.4155
 4344poe    c2317562   2.107   3.479   2.312 -0.0697 -0.3630  0.4553
 4344poe    c2317563   2.207   3.518   2.423 -0.2874  0.3031  0.4183
 4344poe     o217564   2.257   3.415   2.505  0.3632  0.1272 -0.1921
 4344poe    c2317565   2.369   3.455   2.582  0.0691  0.7972 -0.1030
 4344poe    c2317566   2.500   3.416   2.511  0.2246 -0.0600  0.6356
 4344poe     o217567   2.532   3.279   2.503 -0.1003 -0.1014 -0.0335
 4344poe    c3117568   2.476   3.213   2.391  0.0676  0.8878 -0.7073
 4345poe    c3117569   5.140   4.481   5.142  0.0349 -0.6902  0.1929
 4345poe     o217570   5.087   4.351   5.152 -0.3354 -0.5200  0.4643
 4345poe    c2317571   5.174   4.269   5.227  0.1536  0.1670  0.6649
 4345poe    c2317572   5.135   4.123   5.199  0.4304  0.0536  0.8733
 4345poe     o217573   5.006   4.091   5.245  0.2197 -0.2006  0.1138
 4345poe    c2317574   4.975   3.961   5.200  0.4829 -0.3880  0.4748
 4345poe    c2317575   4.860   3.903   5.285 -0.0193  0.0867  0.1279
 4345poe     o217576   4.759   4.001   5.285  0.1246  0.2405  0.5649
 4345poe    c2317577   4.658   3.956   5.372  0.4179 -0.2577  0.6534
 4345poe    c2317578   4.524   4.031   5.358  0.5896 -0.1799 -0.6799
 4345poe     o217579   4.543   4.165   5.396 -0.1042 -0.2132 -0.1954
 4345poe    c3117580   4.423   4.220   5.445 -0.0908 -0.0651 -0.3312
 4346poe    c3117581   2.161   0.052   3.704  0.0059  0.2908  0.3203
 4346poe     o217582   2.151   0.158   3.795  0.1437  0.3888  0.2213
 4346poe    c2317583   2.100   0.096   3.911  0.0049 -0.0271 -0.0598
 4346poe    c2317584   2.083   0.200   4.024  0.0323  0.0169 -0.0958
 4346poe     o217585   2.205   0.235   4.086 -0.0687 -0.4503  0.3744
 4346poe    c2317586   2.189   0.290   4.215  0.1878 -0.5340  0.4424
 4346poe    c2317587   2.320   0.333   4.283  0.1603 -0.3077  0.3533
 4346poe     o217588   2.382   0.440   4.216 -0.3708 -0.0138  0.3267
 4346poe    c2317589   2.522   0.421   4.222 -0.3217 -0.1771 -0.9306
 4346poe    c2317590   2.602   0.540   4.167 -0.0604 -0.0717 -0.3363
 4346poe     o217591   2.586   0.548   4.027  0.1576 -0.2896 -0.3764
 4346poe    c3117592   2.644   0.669   3.983 -0.3645  0.2338  0.3538
 4347poe    c3117593   4.814   6.326   2.598 -0.7673  0.6149 -0.2035
 4347poe     o217594   4.763   6.366   2.723 -0.3150  0.0746  0.1619
 4347poe    c2317595   4.624   6.392   2.715 -0.2066  0.4589 -0.6800
 4347poe    c2317596   4.548   6.391   2.849  1.0568 -0.7476  0.0562
 4347poe     o217597   4.573   6.509   2.921  0.2268 -0.3048 -0.3715
 4347poe    c2317598   4.533   6.488   3.054 -0.2077  0.2618 -0.4062
 4347poe    c2317599   4.597   6.594   3.145  0.6067 -0.2581 -0.3580
 4347poe     o217600   4.735   6.613   3.127  0.5274  0.3369 -0.3554
 4347poe    c2317601   4.782   6.691   3.235  0.0580 -0.1342  0.1943
 4347poe    c2317602   4.920   6.746   3.194 -0.2064 -0.0476 -0.5951
 4347poe     o217603   5.013   6.650   3.148 -0.3436 -0.4068 -0.1296
 4347poe    c3117604   5.105   6.626   3.253  0.2670  0.5552 -0.4321
 4348poe    c3117605   5.235   5.161   6.996  0.1193 -0.1303 -0.7372
 4348poe     o217606   5.370   5.179   6.960  0.2659  0.1418 -0.0707
 4348poe    c2317607   5.444   5.104   7.053 -0.5410 -0.7275 -0.1193
 4348poe    c2317608   5.588   5.076   7.008 -0.2445  0.4452  0.0608
 4348poe     o217609   5.590   4.984   6.900  0.6010  0.2141  0.2630
 4348poe    c2317610   5.718   4.933   6.870  0.4639 -0.1993  0.3757
 4348poe    c2317611   5.719   4.842   6.745 -0.0810  0.2335  0.0507
 4348poe     o217612   5.666   4.899   6.627 -0.0911  0.3452  0.1084
 4348poe    c2317613   5.621   4.813   6.525 -0.7249  0.1301  0.5644
 4348poe    c2317614   5.571   4.876   6.393  0.0254 -0.1767  0.1300
 4348poe     o217615   5.487   4.986   6.422  0.0240 -0.0912 -0.1971
 4348poe    c3117616   5.446   5.034   6.296 -0.4255 -0.0959 -0.0537
 4349poe    c3117617   3.155   7.316   6.938 -0.2757  0.1502  0.3719
 4349poe     o217618   3.075   7.373   7.040 -0.2581  0.4983  0.1930
 4349poe    c2317619   3.127   7.488   7.103  0.0613  0.1911  0.4971
 4349poe    c2317620   3.115   7.620   7.025 -0.3240 -0.3033 -0.2990
 4349poe     o217621   2.985   7.675   7.034 -0.0784  0.2085  0.2000
 4349poe    c2317622   2.950   7.761   6.929 -0.3961 -0.6397 -0.3999
 4349poe    c2317623   2.803   7.806   6.944 -0.0369  0.3944  0.1138
 4349poe     o217624   2.725   7.690   6.958  0.3937  0.1074  0.1706
 4349poe    c2317625   2.595   7.719   6.909  0.3057 -0.3102  0.1498
 4349poe    c2317626   2.500   7.601   6.939 -0.1935  0.0908  0.1565
 4349poe     o217627   2.557   7.502   7.021 -0.1409  0.0075  0.0195
 4349poe    c3117628   2.471   7.396   7.057 -0.2432  0.1021  0.0540
 4350poe    c3117629   4.835   6.099   2.936 -0.1162  0.6959 -0.3252
 4350poe     o217630   4.958   6.121   3.002 -0.3957 -0.8935  0.7857
 4350poe    c2317631   5.045   6.014   2.972 -0.0518 -0.5010  0.3743
 4350poe    c2317632   5.162   6.015   3.071  0.4023 -0.0376 -0.1580
 4350poe     o217633   5.250   6.123   3.048  0.0613  0.2473 -0.1250
 4350poe    c2317634   5.363   6.124   3.132  0.0251  0.4041 -0.0794
 4350poe    c2317635   5.457   6.245   3.115  0.5260  0.0885  0.4217
 4350poe     o217636   5.566   6.224   3.029  0.1288  0.1009 -0.0908
 4350poe    c2317637   5.559   6.287   2.903 -0.1892 -0.5738 -0.4153
 4350poe    c2317638   5.685   6.252   2.822  0.2367 -0.1565  0.0574
 4350poe     o217639   5.811   6.291   2.873  0.3840 -0.5797  0.0234
 4350poe    c3117640   5.915   6.232   2.800  0.2839 -0.3301 -0.3238
 4351poe    c3117641   5.855   0.197   2.855  0.3919  0.4004  0.1759
 4351poe     o217642   5.962   0.230   2.769 -0.3537  0.1501 -0.8578
 4351poe    c2317643   6.034   0.114   2.733 -0.0479  0.1554 -0.2670
 4351poe    c2317644   6.174   0.121   2.669  0.1533 -0.1720  0.1323
 4351poe     o217645   6.269   0.184   2.751  0.3516 -0.7860  0.3805
 4351poe    c2317646   6.393   0.157   2.689  0.0967 -0.4641 -0.2667
 4351poe    c2317647   6.508   0.243   2.744 -0.4064  0.0997 -0.0861
 4351poe     o217648   6.494   0.375   2.694  0.2098  0.0349 -0.4373
 4351poe    c2317649   6.545   0.470   2.785  0.0188 -0.0630 -0.2265
 4351poe    c2317650   6.548   0.619   2.745 -0.1553 -0.0186 -0.0734
 4351poe     o217651   6.423   0.672   2.706 -0.0965  0.2659  0.1234
 4351poe    c3117652   6.386   0.779   2.791 -0.1629 -0.1697  0.6466
 4352poe    c3117653   5.866   2.731   4.634 -0.1136 -0.1327 -0.3650
 4352poe     o217654   5.732   2.731   4.676  0.1134 -0.1634  0.3659
 4352poe    c2317655   5.711   2.599   4.722  0.0373 -0.3155 -0.1034
 4352poe    c2317656   5.569   2.540   4.708 -0.1493  0.1416 -0.1511
 4352poe     o217657   5.460   2.606   4.767  0.0459  0.2846  0.0504
 4352poe    c2317658   5.344   2.596   4.688  0.6701  0.6305 -0.9231
 4352poe    c2317659   5.247   2.715   4.700 -0.3505 -0.2369 -0.3336
 4352poe     o217660   5.294   2.834   4.640 -0.1183 -0.2532 -0.1851
 4352poe    c2317661   5.256   2.841   4.504 -0.2882 -0.2303 -0.1361
 4352poe    c2317662   5.241   2.982   4.444 -0.1351 -0.2098 -0.1264
 4352poe     o217663   5.191   3.078   4.535 -0.1005 -0.0803 -0.2455
 4352poe    c3117664   5.135   3.188   4.467 -0.2887  0.0240  0.0804
 4353poe    c3117665   6.125   4.720   6.758  0.2007 -0.0437 -0.1918
 4353poe     o217666   6.265   4.720   6.753  0.2190  0.3257  0.3008
 4353poe    c2317667   6.322   4.820   6.671  0.2675 -0.1418 -0.2347
 4353poe    c2317668   6.467   4.856   6.708  0.1256  0.2046 -0.0180
 4353poe     o217669   6.557   4.750   6.685  0.0313  0.1295 -0.0373
 4353poe    c2317670   6.677   4.779   6.752  0.2405 -0.0538 -0.3285
 4353poe    c2317671   6.772   4.661   6.726  0.5515  0.1241 -0.0014
 4353poe     o217672   6.721   4.545   6.786  0.3014  0.1029 -0.2567
 4353poe    c2317673   6.836   4.477   6.830 -0.1565 -0.5859 -0.1077
 4353poe    c2317674   6.824   4.350   6.917  0.6849 -0.4488  0.2162
 4353poe     o217675   6.763   4.366   7.044 -0.1021  0.1619 -0.2297
 4353poe    c3117676   6.813   4.270   7.134  0.8574  0.3432 -0.5557
 4354poe    c3117677   5.580   4.543   4.787 -0.5780 -0.1249 -0.1816
 4354poe     o217678   5.647   4.666   4.772 -0.4410 -0.2508 -0.6496
 4354poe    c2317679   5.784   4.639   4.759 -0.1577  0.6049  0.3776
 4354poe    c2317680   5.850   4.710   4.639 -0.1386  0.4272  0.2819
 4354poe     o217681   5.980   4.671   4.600 -0.1781  0.6104 -0.0314
 4354poe    c2317682   6.012   4.713   4.469  0.2595  0.7386  0.1141
 4354poe    c2317683   6.163   4.737   4.459  0.3929 -0.1981 -0.2996
 4354poe     o217684   6.210   4.858   4.515  0.0645 -0.2037 -0.0101
 4354poe    c2317685   6.350   4.853   4.504  0.0696 -0.5446  0.2273
 4354poe    c2317686   6.419   4.964   4.586 -0.1297 -0.3384  0.1152
 4354poe     o217687   6.406   4.940   4.724 -0.3966  0.0090  0.1509
 4354poe    c3117688   6.423   5.065   4.787  0.9233 -0.2899  0.4054
 4355poe    c3117689   7.363   3.569   6.730 -0.5148 -0.1053  0.5069
 4355poe     o217690   7.400   3.527   6.601  0.2445  1.2542  0.2689
 4355poe    c2317691   7.292   3.564   6.518  0.0431 -0.4952 -0.2922
 4355poe    c2317692   7.339   3.570   6.372 -0.2050 -0.1525 -0.3584
 4355poe     o217693   7.419   3.465   6.323  0.1935  0.1107 -0.2846
 4355poe    c2317694   7.364   3.335   6.326  0.8861 -0.1724  0.9663
 4355poe    c2317695   7.401   3.243   6.208 -0.3596  0.1349  0.3199
 4355poe     o217696   7.531   3.190   6.221 -0.2597  0.4035  0.4326
 4355poe    c2317697   7.579   3.195   6.089 -0.0884  0.4518  0.4972
 4355poe    c2317698   7.716   3.128   6.067 -0.1699  0.4048  0.1292
 4355poe     o217699   7.709   2.989   6.046  0.0727  0.3704  0.2693
 4355poe    c3117700   7.834   2.935   6.084  0.1884  0.3819 -0.0901
 4356poe    c3117701   0.413   3.769   2.182 -0.4222 -0.0759  0.2360
 4356poe     o217702   0.469   3.896   2.204 -0.3196 -0.1678  0.5161
 4356poe    c2317703   0.579   3.870   2.288  0.0240 -0.2831  0.0372
 4356poe    c2317704   0.657   4.001   2.311 -0.1246 -0.1019 -0.4782
 4356poe     o217705   0.716   4.037   2.189  0.8205 -1.1857 -0.3581
 4356poe    c2317706   0.779   4.161   2.210  0.4478 -1.0967  0.2494
 4356poe    c2317707   0.838   4.214   2.078 -0.4928 -0.8447 -0.0808
 4356poe     o217708   0.746   4.230   1.973 -0.2334  0.2130 -0.1581
 4356poe    c2317709   0.810   4.298   1.867 -0.0311  0.2650 -0.0018
 4356poe    c2317710   0.716   4.323   1.748  0.2341 -0.3487 -0.3449
 4356poe     o217711   0.647   4.204   1.718 -0.6071  0.1724 -0.4871
 4356poe    c3117712   0.675   4.160   1.587 -0.4282  0.2606 -0.4783
 4357poe    c3117713   7.302   0.073   6.052 -0.3209 -0.0320 -0.7096
 4357poe     o217714   7.272   0.206   6.085 -0.3668 -0.2486  0.1412
 4357poe    c2317715   7.202   0.272   5.982 -0.0225 -0.4295 -0.2083
 4357poe    c2317716   7.144   0.411   6.013  0.4496 -0.2327 -0.1982
 4357poe     o217717   7.242   0.498   6.065  0.4927 -0.3810 -0.0301
 4357poe    c2317718   7.322   0.571   5.976 -0.2191  0.2462 -0.1683
 4357poe    c2317719   7.412   0.671   6.052 -0.4524  0.4932 -0.2144
 4357poe     o217720   7.349   0.778   6.119 -0.5891  0.3627 -0.1332
 4357poe    c2317721   7.449   0.849   6.189  0.1337 -0.5435 -0.2164
 4357poe    c2317722   7.389   0.981   6.241  0.0976 -0.5767 -0.1738
 4357poe     o217723   7.282   0.964   6.332  0.2548  0.0192  0.1241
 4357poe    c3117724   7.213   1.085   6.357 -0.1659 -0.1818 -0.0649
 4358poe    c3117725   3.218   0.632   5.841  0.0896  0.5060  0.2955
 4358poe     o217726   3.274   0.622   5.970  0.3760  0.2536  0.1511
 4358poe    c2317727   3.198   0.546   6.061 -0.2507  0.8796  0.1558
 4358poe    c2317728   3.251   0.537   6.205 -0.4454 -1.0177  0.1283
 4358poe     o217729   3.378   0.475   6.203  0.0027 -0.1201  0.0204
 4358poe    c2317730   3.364   0.335   6.219  0.3050 -0.1849 -0.2891
 4358poe    c2317731   3.486   0.265   6.155  0.6817 -0.1601  0.3960
 4358poe     o217732   3.512   0.303   6.022 -0.2429 -0.5374  0.0950
 4358poe    c2317733   3.646   0.282   5.984 -0.1353 -0.5046  0.4433
 4358poe    c2317734   3.695   0.336   5.848 -0.0299  0.5380  0.8926
 4358poe     o217735   3.719   0.475   5.838  0.2696  0.4142 -0.2336
 4358poe    c3117736   3.607   0.560   5.853  0.3906  0.5252  0.0484
 4359poe    c3117737   4.021   2.638   3.973  0.1754 -0.1408 -0.5072
 4359poe     o217738   4.013   2.537   3.875 -0.1072 -0.5317 -0.0877
 4359poe    c2317739   4.135   2.466   3.869 -0.0336 -0.4159  0.0398
 4359poe    c2317740   4.146   2.372   3.748  0.0879 -0.1764 -0.1333
 4359poe     o217741   4.191   2.444   3.635 -0.2368  0.0075 -0.1479
 4359poe    c2317742   4.223   2.351   3.534 -0.7199 -0.0232 -0.2730
 4359poe    c2317743   4.268   2.409   3.399 -0.5002 -0.7272 -0.5082
 4359poe     o217744   4.152   2.463   3.339 -0.4130  0.3393  0.2630
 4359poe    c2317745   4.174   2.484   3.201 -0.1446  0.2246  0.2873
 4359poe    c2317746   4.044   2.518   3.125 -0.1538 -0.4963 -0.0331
 4359poe     o217747   3.995   2.644   3.165  0.0726 -0.4007 -0.0527
 4359poe    c3117748   3.941   2.708   3.051 -0.1248 -0.1994  0.1519
 4360poe    c3117749   4.284   3.964   2.320  0.2603 -0.4953  0.0805
 4360poe     o217750   4.348   3.898   2.214 -0.1713 -0.2487 -0.3363
 4360poe    c2317751   4.429   3.978   2.130 -0.3487  0.4786  0.1731
 4360poe    c2317752   4.444   3.912   1.992  0.1801 -0.5026  0.6821
 4360poe     o217753   4.329   3.892   1.913  0.5086  0.3683 -0.0375
 4360poe    c2317754   4.361   3.837   1.787 -0.2847  0.1121 -0.1332
 4360poe    c2317755   4.234   3.812   1.703 -0.0609  0.2005 -0.4987
 4360poe     o217756   4.161   3.929   1.673 -0.6220  0.0299  0.1845
 4360poe    c2317757   4.202   4.015   1.570  0.7944 -0.5684  0.2260
 4360poe    c2317758   4.196   3.961   1.426  0.1945  0.0828 -0.0030
 4360poe     o217759   4.072   3.903   1.392  0.2751 -0.1495  0.1003
 4360poe    c3117760   4.082   3.815   1.282 -0.1946  0.1877 -0.2135
 4361poe    c3117761   1.733   6.702   2.618 -0.2649  0.2004  0.0506
 4361poe     o217762   1.738   6.563   2.593  0.0522  0.1973  0.1228
 4361poe    c2317763   1.838   6.511   2.677  0.3535 -0.1622 -0.4518
 4361poe    c2317764   1.875   6.363   2.656 -0.4168 -0.4026 -0.1392
 4361poe     o217765   1.943   6.338   2.535  0.3957 -0.1402  0.2578
 4361poe    c2317766   1.913   6.206   2.494 -0.1423  0.0640 -0.0165
 4361poe    c2317767   1.981   6.179   2.358 -0.0996 -0.0141  0.0208
 4361poe     o217768   1.923   6.251   2.252 -0.2172  0.0128  0.1027
 4361poe    c2317769   1.977   6.213   2.127  0.1141  0.2979  0.1605
 4361poe    c2317770   1.888   6.258   2.009 -0.1496  0.1359  0.2977
 4361poe     o217771   1.775   6.180   1.979 -0.0459  0.1252 -0.0639
 4361poe    c3117772   1.717   6.219   1.856  0.4315  0.3963 -0.2081
 4362poe    c3117773   5.667   2.605   1.157  0.5125 -0.3107  0.2620
 4362poe     o217774   5.546   2.544   1.193  0.0183  0.2177 -0.4722
 4362poe    c2317775   5.454   2.639   1.243  0.3153  0.1662  0.1779
 4362poe    c2317776   5.316   2.580   1.276  0.1528  0.2082 -0.4132
 4362poe     o217777   5.225   2.574   1.169  0.0332 -0.1820 -0.2886
 4362poe    c2317778   5.094   2.591   1.219  0.1020 -0.4537 -0.0120
 4362poe    c2317779   4.971   2.575   1.129 -0.1799  0.0661  0.2724
 4362poe     o217780   4.975   2.668   1.023  0.1697 -0.1353  0.1062
 4362poe    c2317781   4.868   2.655   0.932  0.2117 -0.1554  0.0594
 4362poe    c2317782   4.917   2.689   0.790 -0.2453 -0.4184 -0.1653
 4362poe     o217783   5.008   2.598   0.732  0.0933 -0.0270 -0.2561
 4362poe    c3117784   5.066   2.654   0.616 -0.4589  0.5782 -0.2450
 4363poe    c3117785   0.655   7.336   7.151  0.0101 -0.6859  0.2254
 4363poe     o217786   0.645   7.437   7.249 -0.3563 -0.2954 -0.2066
 4363poe    c2317787   0.771   7.490   7.284 -0.0505 -1.0283 -0.1680
 4363poe    c2317788   0.842   7.434   7.409  0.4458 -0.1016 -0.0230
 4363poe     o217789   0.745   7.391   7.501 -0.1230 -0.0365 -0.5819
 4363poe    c2317790   0.802   7.351   7.624 -0.0157  0.9111 -0.3197
 4363poe    c2317791   0.703   7.366   7.742 -0.8648  0.5995 -0.9813
 4363poe     o217792   0.592   7.281   7.726 -0.2336 -0.4005 -0.1397
 4363poe    c2317793   0.517   7.279   7.846 -0.4868 -0.1218 -0.2944
 4363poe    c2317794   0.411   7.169   7.860  0.1017 -0.6327  0.1836
 4363poe     o217795   0.291   7.190   7.789  0.1381 -0.5249  0.1546
 4363poe    c3117796   0.197   7.087   7.808 -0.0215 -0.3373  0.3948
 4364poe    c3117797   1.911   3.858   2.169 -0.6342 -0.2126 -0.0494
 4364poe     o217798   1.813   3.960   2.171 -0.2227  0.1844  0.1428
 4364poe    c2317799   1.741   3.952   2.292  0.0345 -0.2988  0.2654
 4364poe    c2317800   1.635   4.063   2.285  0.0451 -0.2771  0.4333
 4364poe     o217801   1.545   4.039   2.178  0.3448 -0.0383  0.1280
 4364poe    c2317802   1.420   4.075   2.230  0.1359  0.0457 -0.4271
 4364poe    c2317803   1.308   4.098   2.127  0.0395  0.1547 -0.2979
 4364poe     o217804   1.319   4.208   2.039 -0.8111 -0.0775 -0.7050
 4364poe    c2317805   1.284   4.332   2.097  0.0606 -0.2131  0.1323
 4364poe    c2317806   1.341   4.455   2.023 -0.4026 -0.3259 -0.4214
 4364poe     o217807   1.481   4.469   2.014 -0.3916 -0.1554  0.0156
 4364poe    c3117808   1.504   4.533   1.891 -0.0233 -0.3835 -0.0347
 4365poe    c3117809   0.026   4.613   2.705  0.6884  0.0138  0.5840
 4365poe     o217810   0.093   4.557   2.594  0.0774  0.2882  0.0728
 4365poe    c2317811   0.226   4.565   2.641  0.0374 -0.5358  0.3365
 4365poe    c2317812   0.312   4.555   2.514 -0.2471 -0.3617  0.1293
 4365poe     o217813   0.293   4.421   2.474 -0.1474 -0.3995  0.2087
 4365poe    c2317814   0.393   4.384   2.382  0.2715  0.6238  0.2337
 4365poe    c2317815   0.347   4.288   2.270 -0.1200  0.2901  0.6780
 4365poe     o217816   0.275   4.180   2.326  0.2410 -0.0874  0.4195
 4365poe    c2317817   0.200   4.105   2.233  0.8427  0.1238 -0.2502
 4365poe    c2317818   0.135   3.987   2.308 -0.0250  0.4928 -0.4093
 4365poe     o217819   0.079   4.039   2.427 -0.3372 -0.4466 -0.1340
 4365poe    c3117820  -0.007   3.951   2.495 -0.5088  0.1715  0.4625
 4366poe    c3117821   0.617   0.610   2.696  0.0861  0.0062  0.3800
 4366poe     o217822   0.481   0.622   2.730  0.0537 -0.2520  0.3461
 4366poe    c2317823   0.448   0.759   2.743 -0.0051 -0.2191 -0.1279
 4366poe    c2317824   0.314   0.790   2.814 -0.1461 -0.2127 -0.3952
 4366poe     o217825   0.210   0.727   2.743 -0.0332 -0.7522 -0.0874
 4366poe    c2317826   0.083   0.719   2.804 -0.0394  0.0573  0.0121
 4366poe    c2317827   0.075   0.616   2.918 -0.2765  0.1154  0.0505
 4366poe     o217828   0.082   0.488   2.859  0.0360 -0.0596  0.4581
 4366poe    c2317829   0.046   0.396   2.959 -0.7176 -0.1067  0.1521
 4366poe    c2317830   0.105   0.259   2.921  0.0683  0.3454 -0.3032
 4366poe     o217831   0.117   0.256   2.780 -0.1446 -0.4021 -0.3102
 4366poe    c3117832   0.178   0.140   2.727  0.4279 -0.0964 -0.3309
 4367poe    c3117833   3.093   2.977   4.340 -0.3176 -0.2331  0.0288
 4367poe     o217834   3.016   2.866   4.300 -0.2666 -0.3616  0.2838
 4367poe    c2317835   2.927   2.916   4.202  0.1543 -0.0627  0.0502
 4367poe    c2317836   2.833   2.809   4.143  0.0251  0.4210 -0.6417
 4367poe     o217837   2.917   2.721   4.072 -0.0830 -0.0400 -0.2062
 4367poe    c2317838   2.861   2.602   4.022  0.1371 -0.0503 -0.4305
 4367poe    c2317839   2.951   2.517   3.930 -0.0427 -0.6647 -0.0442
 4367poe     o217840   3.061   2.469   4.005  0.5298  0.3246 -0.2332
 4367poe    c2317841   3.118   2.350   3.955  0.2167  0.0638  0.0340
 4367poe    c2317842   3.247   2.322   4.034 -0.2647 -0.3396  0.6944
 4367poe     o217843   3.349   2.420   4.039  0.0630 -0.6407  0.0082
 4367poe    c3117844   3.436   2.421   3.928 -0.6324 -0.0880 -0.5357
 4368poe    c3117845   2.273   7.076   7.339 -0.1698  0.6576 -0.4588
 4368poe     o217846   2.389   7.044   7.414  0.0825  0.1449 -1.0486
 4368poe    c2317847   2.473   7.156   7.433 -0.1350  0.0344  0.7416
 4368poe    c2317848   2.624   7.136   7.454  0.0095  0.0928 -0.2133
 4368poe     o217849   2.655   7.059   7.568 -0.2559 -0.6571 -0.6382
 4368poe    c2317850   2.793   7.035   7.575 -0.1117  0.2071 -0.4808
 4368poe    c2317851   2.829   6.973   7.712  0.0544  0.3054 -0.4790
 4368poe     o217852   2.757   6.856   7.741  0.5416 -0.0442 -0.6739
 4368poe    c2317853   2.795   6.794   7.862 -0.1719  0.1919 -0.3261
 4368poe    c2317854   2.733   6.845   7.994  0.1974 -0.0460 -0.0577
 4368poe     o217855   2.598   6.813   8.013  0.2278 -0.1587 -0.0335
 4368poe    c3117856   2.552   6.873   8.132  0.2505 -0.0797 -0.0653
 4369poe    c3117857   2.669   2.074   6.371  0.6928 -0.6837 -0.1713
 4369poe     o217858   2.694   2.210   6.341 -0.5170 -0.3744  0.1281
 4369poe    c2317859   2.832   2.222   6.311 -0.5001 -0.0663  0.3238
 4369poe    c2317860   2.841   2.357   6.238  0.4040 -0.1833  0.2042
 4369poe     o217861   2.757   2.452   6.301  0.3038 -0.2919  0.2338
 4369poe    c2317862   2.729   2.563   6.220 -0.0881 -0.1366  0.5742
 4369poe    c2317863   2.641   2.639   6.321 -0.0054  0.4408  0.2192
 4369poe     o217864   2.559   2.553   6.397  0.4126  0.0589  0.2468
 4369poe    c2317865   2.459   2.633   6.457 -0.6649 -0.4562 -0.8142
 4369poe    c2317866   2.331   2.562   6.504 -0.4331 -0.5977 -0.3895
 4369poe     o217867   2.271   2.501   6.392 -0.1410 -0.2823 -0.7207
 4369poe    c3117868   2.132   2.509   6.415 -0.1199  0.5606 -0.8440
 4370poe    c3117869   1.917   2.760   5.239 -0.1613  0.8182  0.3936
 4370poe     o217870   1.931   2.773   5.100 -0.4989  0.8009  0.3579
 4370poe    c2317871   1.806   2.733   5.047 -0.4159  0.4742  0.4053
 4370poe    c2317872   1.806   2.754   4.895  0.0467  0.2372  0.3729
 4370poe     o217873   1.848   2.879   4.844  0.2932 -0.1508 -0.3972
 4370poe    c2317874   1.839   2.900   4.705 -0.1370 -0.2687 -0.3909
 4370poe    c2317875   1.824   3.052   4.688 -0.2669 -0.2091  0.2340
 4370poe     o217876   1.928   3.118   4.756 -0.0856  0.0694 -0.3036
 4370poe    c2317877   1.879   3.250   4.764 -0.1451  0.0565 -0.4498
 4370poe    c2317878   1.974   3.316   4.866 -0.1110 -0.2344 -0.2941
 4370poe     o217879   1.975   3.272   5.000  0.0249 -0.4185 -0.3544
 4370poe    c3117880   2.044   3.363   5.082 -1.0709  0.0034  0.1275
 4371poe    c3117881   5.727   2.042   0.011  0.0299  0.2590  0.5919
 4371poe     o217882   5.788   2.100  -0.101 -0.0616  0.5950  0.7164
 4371poe    c2317883   5.685   2.094  -0.197 -0.0573 -0.2485  0.7585
 4371poe    c2317884   5.680   2.196  -0.312 -0.0220 -0.5236  0.5158
 4371poe     o217885   5.605   2.306  -0.266  0.5032 -0.0081  0.1579
 4371poe    c2317886   5.588   2.414  -0.355 -0.2653  0.0782  0.4032
 4371poe    c2317887   5.530   2.548  -0.306  0.0245  0.4387 -0.2357
 4371poe     o217888   5.390   2.543  -0.288 -0.0727  0.4418 -0.9554
 4371poe    c2317889   5.340   2.663  -0.235 -0.3458 -0.1113  0.0649
 4371poe    c2317890   5.190   2.676  -0.206 -0.2720  0.4511  0.2146
 4371poe     o217891   5.152   2.643  -0.074 -0.0626 -0.6524  0.0049
 4371poe    c3117892   5.013   2.618  -0.070 -0.1922  0.1194  0.4138
 4372poe    c3117893   7.128   7.057   6.182  0.0871 -0.4423  0.4649
 4372poe     o217894   7.017   7.094   6.103  0.2429 -0.4997  0.2204
 4372poe    c2317895   7.051   7.096   5.966  0.0962  0.0748  0.1903
 4372poe    c2317896   6.994   7.230   5.918 -0.1376 -0.1627 -0.2005
 4372poe     o217897   6.855   7.252   5.929 -0.1036 -0.2067  0.3417
 4372poe    c2317898   6.775   7.186   5.833 -0.0516 -0.4773  0.4833
 4372poe    c2317899   6.729   7.286   5.726 -0.0360 -0.2954  0.6457
 4372poe     o217900   6.621   7.354   5.786 -0.3380 -0.0347 -0.1678
 4372poe    c2317901   6.610   7.470   5.708 -0.0801 -0.0647 -0.2519
 4372poe    c2317902   6.535   7.571   5.798 -0.1252  0.1862 -0.5687
 4372poe     o217903   6.407   7.523   5.830  0.0707  0.1149  0.1213
 4372poe    c3117904   6.332   7.587   5.931 -0.5942 -0.2232 -0.1549
 4373poe    c3117905   1.631   0.200   6.528  0.0377 -0.3397 -0.2327
 4373poe     o217906   1.542   0.094   6.553  0.3302 -0.6430 -0.4608
 4373poe    c2317907   1.441   0.068   6.458 -0.2201 -0.6035  0.1043
 4373poe    c2317908   1.478  -0.039   6.353  0.6271  0.1494 -0.3773
 4373poe     o217909   1.469  -0.168   6.408 -0.2720  0.3934  0.0698
 4373poe    c2317910   1.474  -0.283   6.326  0.1921 -0.2996  1.0422
 4373poe    c2317911   1.336  -0.328   6.274 -0.1337  0.6882  1.0284
 4373poe     o217912   1.240  -0.365   6.372 -0.3720  0.2650  0.6373
 4373poe    c2317913   1.123  -0.404   6.304  0.2869  0.0062 -0.3832
 4373poe    c2317914   1.000  -0.317   6.337  0.3767 -0.0725  0.1627
 4373poe     o217915   1.015  -0.180   6.307 -0.5628 -0.0584 -0.2594
 4373poe    c3117916   0.917  -0.096   6.364  0.4320  0.7822  0.2480
 4374poe    c3117917   2.448   3.254   3.341  0.0876  0.0148 -0.4871
 4374poe     o217918   2.411   3.378   3.397  0.1528 -0.0837 -0.2247
 4374poe    c2317919   2.515   3.471   3.376  0.1628  0.0545  0.4061
 4374poe    c2317920   2.476   3.615   3.414 -0.2042  0.1479 -0.3071
 4374poe     o217921   2.443   3.619   3.550  0.6332  0.1423 -0.0958
 4374poe    c2317922   2.454   3.746   3.611 -0.0674  0.2758 -0.2313
 4374poe    c2317923   2.424   3.730   3.761  0.1969 -0.2985 -0.2361
 4374poe     o217924   2.287   3.730   3.792  0.1171  0.3829 -0.5751
 4374poe    c2317925   2.255   3.779   3.920  0.3602 -0.5982 -0.1355
 4374poe    c2317926   2.105   3.775   3.954  0.3867 -0.3713  0.0051
 4374poe     o217927   2.043   3.652   3.981  0.3824 -0.3048  0.2998
 4374poe    c3117928   1.903   3.661   4.001  0.3576 -0.6077  0.2806
 4375poe    c3117929   0.502   5.958   5.380 -0.0518 -0.5814 -0.1077
 4375poe     o217930   0.539   5.890   5.497  0.1698 -0.2501  0.0152
 4375poe    c2317931   0.660   5.938   5.550  0.1493  0.0823 -0.2369
 4375poe    c2317932   0.685   5.856   5.678  0.7222 -0.1129 -0.4664
 4375poe     o217933   0.690   5.722   5.636  0.0582 -0.2635 -0.0808
 4375poe    c2317934   0.775   5.637   5.710  0.0888 -0.1747 -0.0149
 4375poe    c2317935   0.799   5.510   5.627  0.5447  0.0003 -0.1530
 4375poe     o217936   0.667   5.468   5.599  0.6197 -0.3651  0.0396
 4375poe    c2317937   0.669   5.344   5.531  0.6339 -0.0112 -0.6060
 4375poe    c2317938   0.555   5.311   5.433  0.0745 -0.4605  0.1855
 4375poe     o217939   0.566   5.390   5.317  0.2869 -0.4754  0.1963
 4375poe    c3117940   0.527   5.323   5.199 -0.8635 -0.3293  0.4836
 4376poe    c3117941   6.185   5.450   2.336 -0.7602 -0.0089  0.2521
 4376poe     o217942   6.171   5.361   2.444  0.1849 -0.1970  0.2280
 4376poe    c2317943   6.075   5.407   2.536 -0.4106  0.1645 -0.5665
 4376poe    c2317944   6.002   5.287   2.598  0.0677  0.1677  0.0115
 4376poe     o217945   5.930   5.228   2.493 -0.8481  0.7211  0.3139
 4376poe    c2317946   5.901   5.091   2.514 -0.0849  0.4864 -0.1184
 4376poe    c2317947   5.829   5.020   2.397  0.4457 -0.2344 -0.0100
 4376poe     o217948   5.913   5.037   2.285  0.2588 -0.0312 -0.1209
 4376poe    c2317949   5.850   5.021   2.161 -0.2687  0.1137  0.1252
 4376poe    c2317950   5.896   5.121   2.054  0.2606 -0.2450  0.0100
 4376poe     o217951   5.864   5.256   2.078  0.0396 -0.2439 -0.2743
 4376poe    c3117952   5.934   5.341   1.990  0.6111 -0.1573  0.2552
 4377poe    c3117953   6.970   4.839   3.776  0.2217  0.8337  0.1090
 4377poe     o217954   7.076   4.749   3.798 -0.2487  0.2837  0.1342
 4377poe    c2317955   7.117   4.683   3.680 -0.0306 -0.2792  0.5229
 4377poe    c2317956   7.237   4.587   3.687  0.0814 -0.1354  0.5665
 4377poe     o217957   7.201   4.483   3.776 -0.2518 -0.4413  0.0739
 4377poe    c2317958   7.287   4.371   3.769  0.4668  0.1310 -0.4002
 4377poe    c2317959   7.272   4.305   3.907  0.1987  0.1067 -0.4411
 4377poe     o217960   7.140   4.327   3.952  0.1150 -0.1671 -0.5481
 4377poe    c2317961   7.117   4.214   4.033  0.1676 -0.0383 -0.3511
 4377poe    c2317962   6.966   4.213   4.064  0.1271  0.1655 -0.5365
 4377poe     o217963   6.879   4.200   3.953  0.0036 -0.0611 -0.4148
 4377poe    c3117964   6.882   4.070   3.899  0.4826 -0.1400 -0.2100
 4378poe    c3117965   5.270   7.240   6.859  0.5972  0.4099 -0.1598
 4378poe     o217966   5.338   7.145   6.937 -0.5401 -0.2629  0.0305
 4378poe    c2317967   5.302   7.019   6.885 -0.0237 -0.3010 -0.2437
 4378poe    c2317968   5.386   6.918   6.966  0.0423 -0.1973 -0.1815
 4378poe     o217969   5.379   6.915   7.106 -0.5089  0.1300 -0.1999
 4378poe    c2317970   5.443   6.808   7.172 -0.3938 -0.0507 -0.6021
 4378poe    c2317971   5.462   6.833   7.323 -0.3313 -0.3745 -0.5560
 4378poe     o217972   5.553   6.935   7.358 -0.7568 -0.3505  0.5078
 4378poe    c2317973   5.595   6.903   7.489 -0.7783 -0.1290  0.5702
 4378poe    c2317974   5.632   7.019   7.583 -0.1677  0.1011  0.0545
 4378poe     o217975   5.524   7.104   7.610 -0.1833  0.1694 -0.2281
 4378poe    c3117976   5.561   7.239   7.625 -0.7122  0.2965 -0.0199
 4379poe    c3117977   7.086   1.045   4.556  0.5500  0.0764 -0.9335
 4379poe     o217978   7.025   1.164   4.511  0.1997  0.1672 -0.2292
 4379poe    c2317979   6.956   1.148   4.389 -0.1368 -0.1099 -0.0067
 4379poe    c2317980   6.954   1.274   4.300 -0.3703  0.0141  0.1734
 4379poe     o217981   7.088   1.312   4.280 -0.4775  0.1708 -0.2522
 4379poe    c2317982   7.099   1.436   4.213  0.3797  0.3011  0.1159
 4379poe    c2317983   7.244   1.442   4.162  0.4923 -0.4366  0.3351
 4379poe     o217984   7.338   1.438   4.267  0.1581  0.0707  0.6527
 4379poe    c2317985   7.469   1.478   4.235 -0.1259  0.7581  0.3232
 4379poe    c2317986   7.546   1.461   4.367 -0.4869 -0.0497  0.4365
 4379poe     o217987   7.508   1.351   4.446 -0.1669  0.0458  0.7270
 4379poe    c3117988   7.600   1.301   4.540  0.0912 -0.4331  0.2287
 4380poe    c3117989   2.877   4.365   0.355  0.1767 -0.1608  0.9029
 4380poe     o217990   2.968   4.468   0.325 -0.3451  0.1164  0.2432
 4380poe    c2317991   2.996   4.540   0.442 -0.0226  0.5907 -0.1221
 4380poe    c2317992   3.095   4.652   0.403  0.0281  0.5399 -0.1409
 4380poe     o217993   3.229   4.615   0.381 -0.0718  0.0858 -0.0047
 4380poe    c2317994   3.303   4.617   0.501 -0.2708 -0.3758  0.1271
 4380poe    c2317995   3.448   4.566   0.490 -0.0389  0.3414 -0.2157
 4380poe     o217996   3.445   4.433   0.445 -1.0316  0.3291 -0.1382
 4380poe    c2317997   3.566   4.408   0.378 -0.8245 -0.3578  0.4743
 4380poe    c2317998   3.534   4.352   0.238  0.1284  0.4411 -0.0763
 4380poe     o217999   3.458   4.426   0.146  0.3224 -0.5797 -1.0861
 4380poe    c3118000   3.533   4.537   0.100 -0.1099 -0.0188 -0.4516
 4381poe    c3118001   1.101   3.747   6.870  0.2301  0.0957 -0.0229
 4381poe     o218002   1.114   3.887   6.882 -0.6212  0.1669  0.0916
 4381poe    c2318003   1.137   3.954   6.760  0.7207  0.0108  0.2517
 4381poe    c2318004   1.229   4.075   6.789  0.2886  0.4430 -0.1826
 4381poe     o218005   1.157   4.166   6.869 -0.0848 -0.0413  0.0367
 4381poe    c2318006   1.239   4.277   6.898  0.0769 -0.2329  0.3133
 4381poe    c2318007   1.196   4.323   7.038  0.4644  0.6758  0.1386
 4381poe     o218008   1.056   4.336   7.042  0.3781 -0.2525  0.2473
 4381poe    c2318009   1.012   4.339   7.176 -0.2113  0.0278  0.0483
 4381poe    c2318010   0.860   4.353   7.157 -0.1906 -0.0382 -0.1613
 4381poe     o218011   0.833   4.267   7.048  0.3623 -0.5384  0.0959
 4381poe    c3118012   0.700   4.288   7.006  0.3240 -0.4251  0.2726
 4382poe    c3118013   0.107   2.806   0.777  0.3795  0.3284 -0.4167
 4382poe     o218014   0.028   2.758   0.670  0.0737 -0.3419  0.1022
 4382poe    c2318015   0.107   2.703   0.567 -0.5712 -0.3622 -0.3829
 4382poe    c2318016   0.029   2.659   0.441 -0.0948 -0.3092 -0.6963
 4382poe     o218017  -0.087   2.584   0.469 -0.2507  0.0652 -0.3227
 4382poe    c2318018  -0.180   2.595   0.363 -0.1491 -0.4090 -0.4662
 4382poe    c2318019  -0.314   2.550   0.424  0.0936 -0.0529  0.3463
 4382poe     o218020  -0.380   2.638   0.513 -0.2692  0.2634 -0.2306
 4382poe    c2318021  -0.489   2.567   0.568 -0.2370  0.5611  0.2149
 4382poe    c2318022  -0.573   2.636   0.677 -0.1468 -0.0753  0.6965
 4382poe     o218023  -0.653   2.738   0.621 -0.0387 -0.4019 -0.0659
 4382poe    c3118024  -0.758   2.753   0.714  0.4776  0.1821  0.4302
 4383poe    c3118025   0.164   1.834   2.349 -0.3684 -0.6170 -0.1281
 4383poe     o218026   0.254   1.758   2.426  0.4265  0.1626 -0.2790
 4383poe    c2318027   0.373   1.831   2.445  0.3103  0.2656  0.0573
 4383poe    c2318028   0.476   1.735   2.508  0.2328  0.4556  0.4812
 4383poe     o218029   0.525   1.642   2.413 -0.1478  0.6651  0.0748
 4383poe    c2318030   0.630   1.568   2.472 -0.5607 -0.1977 -0.2555
 4383poe    c2318031   0.730   1.519   2.365 -0.1531 -0.1179  0.0868
 4383poe     o218032   0.657   1.436   2.279  0.2671 -0.2162 -0.1782
 4383poe    c2318033   0.743   1.342   2.217  0.0464 -0.5531  0.0196
 4383poe    c2318034   0.818   1.385   2.090  0.0368 -0.2086  0.1270
 4383poe     o218035   0.733   1.422   1.983 -0.1046  0.3796  0.4400
 4383poe    c3118036   0.804   1.481   1.878 -0.4947 -0.1733 -0.1428
 4384poe    c3118037   0.675   4.781   0.187 -0.0626  0.1232 -0.3245
 4384poe     o218038   0.671   4.673   0.097 -0.3616 -0.0680 -0.0821
 4384poe    c2318039   0.618   4.565   0.171 -0.4023 -0.0331 -0.0601
 4384poe    c2318040   0.571   4.444   0.089 -1.0431  0.1148  0.0863
 4384poe     o218041   0.450   4.450   0.017 -0.6203 -0.1880 -0.6689
 4384poe    c2318042   0.437   4.333  -0.061  0.0487 -0.5646 -0.2213
 4384poe    c2318043   0.299   4.328  -0.129 -0.0375  0.0631 -0.1030
 4384poe     o218044   0.282   4.424  -0.230 -0.1384  0.3063  0.1423
 4384poe    c2318045   0.315   4.371  -0.357  0.4233  0.4726  0.2175
 4384poe    c2318046   0.295   4.468  -0.474  0.0630 -0.3606 -0.4192
 4384poe     o218047   0.383   4.579  -0.475 -0.4409  0.0409 -0.4485
 4384poe    c3118048   0.337   4.694  -0.542 -0.5883  0.1033 -0.2414
 4385poe    c3118049   3.926   2.833   7.091 -0.4835  0.0117  0.4071
 4385poe     o218050   3.988   2.960   7.086 -0.5066  0.0065 -0.0163
 4385poe    c2318051   4.128   2.957   7.104 -0.4715 -0.5805 -0.3620
 4385poe    c2318052   4.182   3.097   7.070 -0.2393 -0.5907 -0.0343
 4385poe     o218053   4.136   3.189   7.166  0.1962 -0.1150 -0.2725
 4385poe    c2318054   4.185   3.318   7.137  0.0890  0.0758  0.3683
 4385poe    c2318055   4.132   3.425   7.234 -0.1734 -0.1389  0.4642
 4385poe     o218056   3.991   3.425   7.238 -0.1882  0.4413  0.0953
 4385poe    c2318057   3.933   3.523   7.321  0.0332  0.4519  0.2401
 4385poe    c2318058   3.781   3.498   7.332  0.1705 -0.6651 -0.2197
 4385poe     o218059   3.738   3.364   7.320 -0.0208 -0.5973 -0.2960
 4385poe    c3118060   3.597   3.355   7.320 -0.0747  0.1363  0.2224
 4386poe    c3118061   6.861   3.693   6.335  0.0769 -0.0469 -0.2729
 4386poe     o218062   6.912   3.810   6.274  0.1531  0.1196  0.1076
 4386poe    c2318063   6.926   3.816   6.134 -0.6943  0.4681  0.0362
 4386poe    c2318064   6.934   3.967   6.103 -0.0963  0.4540  0.1082
 4386poe     o218065   7.050   4.036   6.142  0.1084 -0.0431  0.3861
 4386poe    c2318066   7.062   4.172   6.107 -0.8923  0.0796  0.5033
 4386poe    c2318067   7.191   4.222   6.175 -0.4222  0.0072 -0.3215
 4386poe     o218068   7.205   4.179   6.309  0.5565  0.2314 -0.3431
 4386poe    c2318069   7.335   4.209   6.351  0.4803  0.1230 -0.0310
 4386poe    c2318070   7.350   4.153   6.494  0.0216 -0.4084 -0.1884
 4386poe     o218071   7.293   4.024   6.496 -0.1494 -0.3295  0.2170
 4386poe    c3118072   7.334   3.945   6.605  0.5929 -0.0113  0.1760
 4387poe    c3118073   2.680   4.554   2.529  0.3854 -0.1835  0.3460
 4387poe     o218074   2.703   4.529   2.392 -0.1075 -0.4941  0.3189
 4387poe    c2318075   2.800   4.428   2.383  0.4215  0.0443 -0.0981
 4387poe    c2318076   2.780   4.342   2.257  0.2814 -0.5498  0.3249
 4387poe     o218077   2.659   4.270   2.246  0.1235 -0.2323 -0.0609
 4387poe    c2318078   2.638   4.206   2.123 -0.7899  0.5186 -0.3056
 4387poe    c2318079   2.555   4.076   2.126 -0.3400  0.2453  0.5121
 4387poe     o218080   2.612   3.965   2.191  1.2822  0.8717  0.2142
 4387poe    c2318081   2.656   3.868   2.099  0.5227  0.4925  0.2443
 4387poe    c2318082   2.738   3.761   2.173 -0.1736 -0.6289 -0.5608
 4387poe     o218083   2.659   3.674   2.251 -0.1806  0.2044  0.3848
 4387poe    c3118084   2.597   3.568   2.182  0.1079 -0.1854  0.7233
 4388poe    c3118085   5.075   4.670   1.195 -0.0349 -0.2495 -0.2786
 4388poe     o218086   4.944   4.637   1.236  0.0315  0.2985  0.3882
 4388poe    c2318087   4.865   4.576   1.136 -0.2000  0.5239  0.4322
 4388poe    c2318088   4.750   4.510   1.215 -0.1953 -0.0344 -0.0164
 4388poe     o218089   4.665   4.608   1.271 -0.3226 -0.4191  0.4739
 4388poe    c2318090   4.566   4.633   1.173 -0.2469 -0.4133  0.3998
 4388poe    c2318091   4.466   4.739   1.222 -0.4820 -0.6304  0.3870
 4388poe     o218092   4.545   4.817   1.308 -0.1957 -0.6295  0.1215
 4388poe    c2318093   4.454   4.908   1.365 -0.0353 -0.0743 -0.5006
 4388poe    c2318094   4.506   4.991   1.484 -0.4459 -0.1754 -0.2493
 4388poe     o218095   4.504   4.922   1.606 -0.1542 -0.3362 -0.3345
 4388poe    c3118096   4.626   4.926   1.678 -0.4449  0.4453  0.1299
 4389poe    c3118097   1.957   6.664   3.094 -0.0886  0.1434 -0.1108
 4389poe     o218098   2.090   6.622   3.075 -0.1756 -0.0347 -0.3241
 4389poe    c2318099   2.131   6.655   2.944 -0.0896  0.4071 -0.1883
 4389poe    c2318100   2.271   6.597   2.917 -0.4716 -0.4350 -0.4013
 4389poe     o218101   2.279   6.458   2.897  0.0203 -0.4976  0.2335
 4389poe    c2318102   2.408   6.416   2.856 -0.0463 -0.3436 -0.1313
 4389poe    c2318103   2.407   6.362   2.711 -0.1574 -0.2060 -0.1819
 4389poe     o218104   2.370   6.226   2.703 -0.4319 -0.1296 -0.2206
 4389poe    c2318105   2.354   6.203   2.565  0.0461  0.2639 -0.3458
 4389poe    c2318106   2.357   6.052   2.532 -0.2819  0.1613  0.0882
 4389poe     o218107   2.241   5.990   2.583 -0.4586  0.6729  0.3120
 4389poe    c3118108   2.238   5.862   2.526  0.0590  0.8578 -0.1341
 4390poe    c3118109   0.897   0.045   3.063 -0.0822 -0.2231  0.4973
 4390poe     o218110   0.879   0.180   3.025 -0.0983 -0.3074  0.2063
 4390poe    c2318111   0.941   0.274   3.110 -0.3426  0.1206 -0.0824
 4390poe    c2318112   0.902   0.409   3.049 -0.2938  0.1324 -0.0870
 4390poe     o218113   0.970   0.416   2.925  0.1521  0.1918  0.1594
 4390poe    c2318114   0.926   0.531   2.857 -0.1735 -0.0573 -0.0521
 4390poe    c2318115   0.993   0.543   2.719  0.0118  0.0522  0.0467
 4390poe     o218116   0.944   0.449   2.625  0.4132  0.1092 -0.2199
 4390poe    c2318117   0.991   0.480   2.496  0.5356 -0.1838 -0.2474
 4390poe    c2318118   0.924   0.375   2.405 -0.2090  0.1538 -0.1001
 4390poe     o218119   0.943   0.253   2.473  0.1849  0.2970  0.0505
 4390poe    c3118120   0.935   0.144   2.383 -0.2412  0.4100 -0.0453
 4391poe    c3118121   2.904   2.535   0.224  0.5940 -0.5246  0.2710
 4391poe     o218122   2.809   2.440   0.266 -0.0225 -0.1841 -0.3355
 4391poe    c2318123   2.737   2.483   0.380 -0.1889 -0.3599 -0.3747
 4391poe    c2318124   2.635   2.379   0.429 -0.1586 -0.2286 -0.0343
 4391poe     o218125   2.694   2.262   0.481 -0.1491 -0.1376  0.1595
 4391poe    c2318126   2.594   2.169   0.515  0.1893 -0.4770  0.2337
 4391poe    c2318127   2.668   2.038   0.549  0.3680 -0.2901  0.5618
 4391poe     o218128   2.758   1.996   0.450 -0.5525  0.1914 -0.5030
 4391poe    c2318129   2.782   1.860   0.478  0.1951  0.2843 -0.6628
 4391poe    c2318130   2.869   1.778   0.381  0.3613 -0.2153 -0.0949
 4391poe     o218131   3.001   1.827   0.385  0.2054  0.1928  0.0912
 4391poe    c3118132   3.092   1.738   0.323  0.2598  0.2994  0.0180
 4392poe    c3118133   5.124   0.376   3.112 -0.5398  0.3534 -0.3819
 4392poe     o218134   5.084   0.508   3.138 -0.5767  0.2874 -0.0993
 4392poe    c2318135   5.125   0.551   3.266 -0.0347 -0.2056 -0.1031
 4392poe    c2318136   5.008   0.611   3.346  0.3369  0.1667  0.1669
 4392poe     o218137   4.966   0.734   3.290 -0.5728 -0.1809  0.0690
 4392poe    c2318138   4.845   0.769   3.355 -0.3282 -0.2142  0.5458
 4392poe    c2318139   4.746   0.772   3.238  0.0811  0.3519  0.2057
 4392poe     o218140   4.776   0.861   3.133  0.0201  0.0861 -0.0383
 4392poe    c2318141   4.689   0.840   3.024  0.3318 -0.3864 -0.2032
 4392poe    c2318142   4.680   0.961   2.930  0.7625 -0.0159  0.2238
 4392poe     o218143   4.797   1.004   2.864  0.3728  0.4452 -0.1798
 4392poe    c3118144   4.783   1.131   2.804 -0.4440  0.4228 -0.0430
 4393poe    c3118145   5.666   6.101   5.916  0.2331  0.5521 -0.2254
 4393poe     o218146   5.569   6.123   6.016  0.4404  0.3795  0.0152
 4393poe    c2318147   5.593   6.049   6.133  0.1054 -0.1484 -0.2429
 4393poe    c2318148   5.552   6.123   6.262 -0.1301 -0.1244 -0.3304
 4393poe     o218149   5.439   6.206   6.253 -0.1377 -0.0643  0.2561
 4393poe    c2318150   5.402   6.269   6.374 -0.2393  0.1134  0.1341
 4393poe    c2318151   5.282   6.361   6.348 -0.0681  0.3135  0.0469
 4393poe     o218152   5.191   6.297   6.262 -0.1605  0.2347  0.2044
 4393poe    c2318153   5.103   6.391   6.205 -0.1422  0.1677  0.0654
 4393poe    c2318154   4.996   6.314   6.124 -0.2525  0.1105  0.2643
 4393poe     o218155   5.065   6.220   6.044 -0.4414  0.4322 -0.2760
 4393poe    c3118156   4.973   6.142   5.970 -0.0168  0.1792 -0.5380
 4394poe    c3118157   3.766   4.868   4.991  0.2178  0.1824  0.4890
 4394poe     o218158   3.764   5.008   5.005 -0.2331  0.1674  0.5958
 4394poe    c2318159   3.743   5.046   5.139 -0.4080 -0.2262  0.6823
 4394poe    c2318160   3.720   5.196   5.165  0.1676 -0.0206  0.0392
 4394poe     o218161   3.595   5.238   5.115  0.0486  0.1761  0.4871
 4394poe    c2318162   3.562   5.368   5.156 -0.0419  0.4716 -0.4998
 4394poe    c2318163   3.422   5.423   5.120 -0.1988  0.6091  0.3145
 4394poe     o218164   3.328   5.355   5.200 -0.2162 -0.0029 -0.2195
 4394poe    c2318165   3.213   5.434   5.179  0.1257  0.5653  0.0194
 4394poe    c2318166   3.110   5.423   5.293 -0.2922 -0.0140 -0.4109
 4394poe     o218167   3.089   5.289   5.333  0.1160 -0.0485 -0.3071
 4394poe    c3118168   3.013   5.275   5.451  0.3921  0.2955 -0.0863
 4395poe    c3118169   3.194   2.857   0.322  0.0043  0.4572 -0.1984
 4395poe     o218170   3.127   2.905   0.207 -0.6121  0.5751  0.2023
 4395poe    c2318171   3.153   2.831   0.089  0.2053  0.3400  0.5214
 4395poe    c2318172   3.063   2.876  -0.028  0.1107 -0.0169  0.4550
 4395poe     o218173   2.924   2.864  -0.009  0.0393  0.2180  0.0939
 4395poe    c2318174   2.858   2.908  -0.125  0.2989 -0.1774 -0.2054
 4395poe    c2318175   2.710   2.948  -0.112  0.4049  0.1590 -0.0196
 4395poe     o218176   2.697   3.077  -0.057 -0.1141  0.0338  0.1653
 4395poe    c2318177   2.563   3.101  -0.020 -0.1754  0.0805 -0.0822
 4395poe    c2318178   2.538   3.251  -0.042 -0.7809  0.0797  0.5688
 4395poe     o218179   2.493   3.277  -0.174 -0.2919  0.0177  0.3862
 4395poe    c3118180   2.498   3.417  -0.187  0.0110 -0.0397 -0.0960
 4396poe    c3118181   5.914   2.991   1.998 -0.0368 -0.1737  0.0209
 4396poe     o218182   5.933   3.117   2.058  0.4708 -0.1081 -0.2714
 4396poe    c2318183   6.025   3.181   1.973  0.0510  0.4685 -0.2968
 4396poe    c2318184   6.038   3.333   2.000  0.2843  0.4631 -0.3798
 4396poe     o218185   5.922   3.413   2.000 -0.0392 -0.0015 -0.3113
 4396poe    c2318186   5.965   3.547   2.010 -0.5172  0.1429 -0.1630
 4396poe    c2318187   5.860   3.639   2.074 -0.6736 -0.3960  0.3675
 4396poe     o218188   5.760   3.663   1.977 -0.0697 -0.0336 -0.1774
 4396poe    c2318189   5.641   3.713   2.034 -0.1395 -0.6226  0.2104
 4396poe    c2318190   5.516   3.698   1.944 -0.4356  0.5493  0.4118
 4396poe     o218191   5.484   3.563   1.922 -0.2074  0.6101 -0.3125
 4396poe    c3118192   5.365   3.546   1.848 -0.2514  0.1459 -0.1361
 4397poe    c3118193   6.436   1.775   3.796 -0.4080 -0.1084 -0.3206
 4397poe     o218194   6.320   1.844   3.838 -0.1842  0.2057 -0.2182
 4397poe    c2318195   6.211   1.825   3.751 -0.4011 -0.7623  0.2524
 4397poe    c2318196   6.079   1.896   3.784 -0.1179  0.0070 -0.2499
 4397poe     o218197   6.086   2.037   3.780 -0.0096 -0.0080 -0.6082
 4397poe    c2318198   5.959   2.084   3.740 -0.4566 -0.7329 -0.0700
 4397poe    c2318199   5.964   2.179   3.619  0.1390 -0.2295  0.3403
 4397poe     o218200   5.987   2.309   3.668 -0.1509  0.1029 -0.3879
 4397poe    c2318201   6.010   2.381   3.549  0.4335  0.2282 -0.2023
 4397poe    c2318202   6.015   2.533   3.571  0.3336  0.1856  0.1079
 4397poe     o218203   6.132   2.599   3.613  0.4438  0.0742 -0.0250
 4397poe    c3118204   6.102   2.737   3.613  0.1933  0.0186 -0.0648
 4398poe    c3118205   2.347   3.612   4.609 -0.1583 -0.4999  0.2601
 4398poe     o218206   2.440   3.677   4.692 -0.1831  0.1773 -0.2320
 4398poe    c2318207   2.387   3.676   4.823 -0.4924  0.5103 -0.3574
 4398poe    c2318208   2.451   3.786   4.910  0.2932 -0.1416 -0.1091
 4398poe     o218209   2.418   3.913   4.860 -0.9177 -0.3132  0.2219
 4398poe    c2318210   2.442   4.010   4.960 -0.2123  0.0506 -0.2906
 4398poe    c2318211   2.396   4.151   4.920 -0.1734  0.1886  0.1416
 4398poe     o218212   2.450   4.190   4.796 -0.4236  0.4679  0.1189
 4398poe    c2318213   2.481   4.328   4.798 -0.5300  0.4910  0.1872
 4398poe    c2318214   2.582   4.363   4.688 -0.1108 -0.7244  0.1660
 4398poe     o218215   2.530   4.338   4.559 -0.0932 -0.0227  0.0180
 4398poe    c3118216   2.629   4.391   4.474 -0.8798  0.2845 -0.7161
 4399poe    c3118217   2.563   1.410   4.140 -0.2255  0.3984 -0.0287
 4399poe     o218218   2.437   1.471   4.125 -0.5028 -0.3636 -0.9205
 4399poe    c2318219   2.460   1.606   4.089  0.1486 -0.0893  0.4551
 4399poe    c2318220   2.336   1.676   4.033  0.2224 -0.2153  0.1347
 4399poe     o218221   2.239   1.709   4.130  0.5104 -0.2558  0.4345
 4399poe    c2318222   2.133   1.779   4.069  0.2189 -0.5848  0.5606
 4399poe    c2318223   2.008   1.761   4.157 -0.1263 -0.0039  0.1931
 4399poe     o218224   2.045   1.805   4.286  0.0141  0.4119  0.0131
 4399poe    c2318225   1.929   1.855   4.348  0.1027  0.1744  0.3734
 4399poe    c2318226   1.954   1.898   4.494 -0.6057  0.1903  0.4934
 4399poe     o218227   1.987   1.793   4.582 -0.1502 -0.2030 -0.1420
 4399poe    c3118228   2.073   1.833   4.686 -0.0990  0.4292 -0.4157
 4400poe    c3118229   0.586   5.238   3.322 -0.4201  0.0418 -0.0176
 4400poe     o218230   0.510   5.332   3.248 -0.0393  0.1692 -0.2488
 4400poe    c2318231   0.541   5.469   3.264  0.4168  0.0469 -0.0549
 4400poe    c2318232   0.433   5.545   3.185  0.4426  0.1048 -0.0344
 4400poe     o218233   0.299   5.533   3.228  0.3259  0.3181 -0.3379
 4400poe    c2318234   0.204   5.561   3.128  0.0841  0.1537 -0.1553
 4400poe    c2318235   0.062   5.581   3.185  0.2891 -0.1932  0.4879
 4400poe     o218236   0.043   5.471   3.271 -0.4071 -0.6584 -0.2417
 4400poe    c2318237  -0.090   5.470   3.320 -0.3287 -0.1739 -0.0122
 4400poe    c2318238  -0.091   5.344   3.409 -0.2680 -0.2548 -0.1246
 4400poe     o218239   0.004   5.351   3.513 -0.4774  0.0815  0.0468
 4400poe    c3118240   0.028   5.230   3.581 -0.2192  0.0427 -0.1131
 4401poe    c3118241   4.105   0.036   0.999  0.4121 -0.1978  0.2952
 4401poe     o218242   4.115   0.101   1.123 -0.4358 -0.0242  0.2771
 4401poe    c2318243   4.011   0.188   1.164 -0.1866  0.1197  0.6101
 4401poe    c2318244   4.038   0.333   1.121  0.2650 -0.2479 -0.3810
 4401poe     o218245   4.148   0.375   1.199 -0.2493  0.4523 -0.0189
 4401poe    c2318246   4.237   0.446   1.117  0.0679  0.0044 -0.0674
 4401poe    c2318247   4.371   0.507   1.164  0.1577  0.1650 -0.5267
 4401poe     o218248   4.467   0.414   1.207 -0.0384  0.6235  0.9628
 4401poe    c2318249   4.585   0.474   1.256  0.5280 -0.1539  0.5698
 4401poe    c2318250   4.710   0.462   1.166  0.3024  0.5636  0.1539
 4401poe     o218251   4.790   0.346   1.179 -0.4362  0.0517  0.2019
 4401poe    c3118252   4.926   0.382   1.181 -0.3391 -0.2980  0.0261
 4402poe    c3118253   4.373   5.469   6.311  0.0142  0.0259 -0.0763
 4402poe     o218254   4.251   5.398   6.301 -0.1558  0.2399  0.4350
 4402poe    c2318255   4.162   5.460   6.391 -0.4372  0.2068  0.1804
 4402poe    c2318256   4.013   5.428   6.368 -0.1985 -0.6252 -0.2375
 4402poe     o218257   3.955   5.482   6.251 -0.0330  0.0216 -0.0271
 4402poe    c2318258   3.826   5.432   6.222  0.1126 -0.6389  0.4385
 4402poe    c2318259   3.771   5.445   6.079  0.5287 -0.5631  0.2824
 4402poe     o218260   3.770   5.578   6.032 -0.4829 -0.6127  0.1359
 4402poe    c2318261   3.690   5.593   5.917 -0.6037  0.0117  0.3017
 4402poe    c2318262   3.649   5.741   5.901 -0.4843 -0.0280 -0.4118
 4402poe     o218263   3.752   5.837   5.915 -0.3597 -0.1760 -0.2983
 4402poe    c3118264   3.685   5.961   5.921  0.6827  0.3954 -0.3505
 4403poe    c3118265   7.266   5.840   1.410  0.0471 -0.2517  0.5151
 4403poe     o218266   7.239   5.754   1.518 -0.0016 -0.3482  0.4259
 4403poe    c2318267   7.102   5.734   1.544 -0.2893 -0.1867 -0.9205
 4403poe    c2318268   7.076   5.611   1.632 -0.1388  0.1791 -0.3591
 4403poe     o218269   7.101   5.498   1.552  0.4152 -0.1514  0.2702
 4403poe    c2318270   7.048   5.380   1.608  0.3861 -0.3161 -0.0993
 4403poe    c2318271   7.076   5.261   1.514  0.3475 -0.2499 -0.1950
 4403poe     o218272   7.213   5.244   1.485  0.4622 -0.1922  0.3048
 4403poe    c2318273   7.225   5.143   1.388 -0.2919  0.1161 -0.1149
 4403poe    c2318274   7.359   5.162   1.314  0.1697 -0.2159  0.6272
 4403poe     o218275   7.474   5.125   1.387  0.2252 -0.7982  0.2475
 4403poe    c3118276   7.594   5.153   1.319 -0.1788  0.2281 -0.0555
 4404poe    c3118277   0.214   6.179   3.012  0.2202 -0.3074 -0.1182
 4404poe     o218278   0.158   6.210   2.887  0.3101 -0.2017 -0.1316
 4404poe    c2318279   0.264   6.250   2.802  0.1638  0.2002 -0.1262
 4404poe    c2318280   0.210   6.258   2.659 -0.0395 -0.1708 -0.0719
 4404poe     o218281   0.086   6.324   2.676  0.1632  0.1362  0.2196
 4404poe    c2318282   0.009   6.313   2.559  0.0012  0.1088  0.3274
 4404poe    c2318283  -0.123   6.384   2.594  0.2001  0.7788 -0.2568
 4404poe     o218284  -0.179   6.310   2.700  0.0708  0.4793 -0.5329
 4404poe    c2318285  -0.319   6.324   2.700  0.0263  0.1441  0.6813
 4404poe    c2318286  -0.406   6.209   2.754  0.2313 -0.1123  0.4645
 4404poe     o218287  -0.363   6.172   2.883  0.4726 -0.0150  0.4121
 4404poe    c3118288  -0.476   6.135   2.958  0.2631  0.1194  0.1666
 4405poe    c3118289   5.832   1.419   5.154  0.8749 -0.3428 -0.2935
 4405poe     o218290   5.839   1.471   5.023 -0.2780  0.0875 -0.1902
 4405poe    c2318291   5.833   1.368   4.928 -0.4496  0.0894 -0.1816
 4405poe    c2318292   5.835   1.419   4.782 -0.0498  0.2234 -0.1281
 4405poe     o218293   5.971   1.447   4.756  0.1067  0.0765  0.5095
 4405poe    c2318294   6.001   1.447   4.618 -0.2084  0.2824  0.4416
 4405poe    c2318295   6.150   1.457   4.581 -0.3017  0.1359  0.0294
 4405poe     o218296   6.198   1.589   4.594 -0.2313  0.1674 -0.5029
 4405poe    c2318297   6.331   1.605   4.550  0.0201  0.1798  0.2508
 4405poe    c2318298   6.386   1.742   4.595  0.4822  0.0242  0.1617
 4405poe     o218299   6.315   1.840   4.522  0.3901 -0.4111 -0.3468
 4405poe    c3118300   6.344   1.970   4.569  0.4017 -0.6457  0.3095
 4406poe    c3118301   1.687   0.134   3.316  0.1133 -0.0127  0.3985
 4406poe     o218302   1.596   0.112   3.211  0.0368 -0.6611  0.6009
 4406poe    c2318303   1.480   0.189   3.231  0.0527 -0.3798 -0.3312
 4406poe    c2318304   1.386   0.199   3.109 -0.1111 -0.1251 -0.1861
 4406poe     o218305   1.439   0.275   3.003  0.0360  0.3898  0.2586
 4406poe    c2318306   1.352   0.278   2.892  0.2673 -0.0259  0.0653
 4406poe    c2318307   1.352   0.416   2.823  0.6732 -0.0139  0.0826
 4406poe     o218308   1.313   0.517   2.914 -0.3263 -0.1259 -0.2088
 4406poe    c2318309   1.330   0.645   2.858 -0.2509  0.0049  0.1159
 4406poe    c2318310   1.227   0.746   2.913 -0.0705  0.4230 -0.3069
 4406poe     o218311   1.239   0.758   3.053  0.0032 -0.0286 -0.2726
 4406poe    c3118312   1.172   0.864   3.117  0.5418  0.2999 -0.2496
 4407poe    c3118313   0.068   4.365   1.302 -0.1119  0.0152 -0.8361
 4407poe     o218314   0.107   4.500   1.314 -0.3587  0.0006  0.2111
 4407poe    c2318315  -0.001   4.576   1.363 -0.4714 -0.3098  0.4484
 4407poe    c2318316   0.017   4.716   1.303 -0.8189 -0.3363  0.2764
 4407poe     o218317   0.032   4.706   1.163  0.2048  0.0674  0.3408
 4407poe    c2318318   0.033   4.837   1.111 -0.1252 -0.2406 -0.4663
 4407poe    c2318319   0.091   4.831   0.968 -0.1987 -0.1026 -0.5017
 4407poe     o218320   0.116   4.957   0.910  0.2299 -0.2201 -0.5765
 4407poe    c2318321   0.196   4.937   0.796  0.6158 -0.0065 -0.3437
 4407poe    c2318322   0.243   5.078   0.756 -0.0351  0.2012 -0.3825
 4407poe     o218323   0.320   5.158   0.844 -0.9813  0.3271  0.3468
 4407poe    c3118324   0.454   5.118   0.836 -0.9680  0.5685 -0.7870
 4408poe    c3118325   0.723   2.461   4.974 -0.0995  0.5677  0.6372
 4408poe     o218326   0.771   2.368   5.069 -0.2648  0.0212  0.1903
 4408poe    c2318327   0.884   2.431   5.124  0.0195  0.0257 -0.3882
 4408poe    c2318328   0.924   2.387   5.267 -0.0430  0.3156 -0.2808
 4408poe     o218329   0.861   2.454   5.374  0.3794  0.2875 -0.0121
 4408poe    c2318330   0.878   2.382   5.494  0.0533 -0.1957 -0.2517
 4408poe    c2318331   0.817   2.444   5.621 -0.1084  0.2420 -0.5411
 4408poe     o218332   0.878   2.565   5.660 -0.2803 -0.0136  0.5456
 4408poe    c2318333   0.858   2.584   5.798  0.3808 -0.5953  0.7273
 4408poe    c2318334   0.901   2.723   5.847  0.0080 -0.2330  0.0333
 4408poe     o218335   0.819   2.831   5.808 -0.4082 -0.3404  0.6067
 4408poe    c3118336   0.797   2.928   5.907  0.1901 -0.3340  0.7320
 4409poe    c3118337   4.777   1.154   0.531 -0.1507  0.0140  0.2620
 4409poe     o218338   4.707   1.272   0.563  0.3109  0.2214  0.5277
 4409poe    c2318339   4.575   1.232   0.593  0.0884  0.4427 -0.1532
 4409poe    c2318340   4.488   1.351   0.636  0.2581  0.3771  0.3713
 4409poe     o218341   4.476   1.444   0.531 -0.9504 -0.1610  0.0069
 4409poe    c2318342   4.430   1.574   0.563 -0.1773  0.1317 -0.0235
 4409poe    c2318343   4.379   1.661   0.446  0.1890  0.6497  0.2021
 4409poe     o218344   4.482   1.671   0.350  0.0931 -0.5050 -0.0425
 4409poe    c2318345   4.450   1.751   0.239 -0.0218  0.1965  0.4850
 4409poe    c2318346   4.573   1.768   0.148 -0.6264 -0.2212 -0.4378
 4409poe     o218347   4.608   1.642   0.096 -0.1700 -0.2154 -0.1577
 4409poe    c3118348   4.718   1.651   0.009  0.0815 -0.2554  0.1546
 4410poe    c3118349   2.968   5.010   0.267  0.3667  0.2839 -0.1805
 4410poe     o218350   2.986   4.953   0.139  0.2289  0.0957 -0.1157
 4410poe    c2318351   2.955   5.043   0.035 -0.1156 -0.4207 -0.4663
 4410poe    c2318352   3.041   5.167   0.007 -0.1131 -0.2482  0.2741
 4410poe     o218353   3.146   5.133  -0.081  0.0219 -0.0243  0.3466
 4410poe    c2318354   3.179   5.246  -0.159 -0.0910 -0.4759 -0.3697
 4410poe    c2318355   3.285   5.232  -0.269 -0.0907 -0.2544 -0.3987
 4410poe     o218356   3.407   5.189  -0.211 -0.2111 -0.4387 -0.2809
 4410poe    c2318357   3.510   5.189  -0.307  0.6082  0.6450  0.5632
 4410poe    c2318358   3.649   5.152  -0.253  0.5226 -0.2819  0.1791
 4410poe     o218359   3.672   5.013  -0.248 -0.2080 -0.4135 -0.0003
 4410poe    c3118360   3.804   4.994  -0.201 -0.4749 -0.5041  0.7184
 4411poe    c3118361   3.732   4.190   7.161 -0.2108  0.4315  0.5517
 4411poe     o218362   3.644   4.269   7.084  0.4187  0.4186 -0.1986
 4411poe    c2318363   3.525   4.304   7.152  0.0518 -0.6642 -0.2704
 4411poe    c2318364   3.462   4.436   7.106 -0.2821 -0.5136  0.6050
 4411poe     o218365   3.414   4.425   6.975  0.0822  0.6104  0.3620
 4411poe    c2318366   3.353   4.541   6.922 -0.3424  0.4718  0.5435
 4411poe    c2318367   3.316   4.497   6.779  0.2192  0.2730  0.4534
 4411poe     o218368   3.201   4.417   6.792  0.3132  0.0749  0.0782
 4411poe    c2318369   3.171   4.361   6.666 -0.1764  0.2383  0.1190
 4411poe    c2318370   3.100   4.227   6.690  0.2822 -0.1520 -0.6734
 4411poe     o218371   2.980   4.233   6.764  0.6658 -0.6174 -0.0028
 4411poe    c3118372   2.890   4.132   6.725  0.5861 -0.5132 -0.0900
 4412poe    c3118373   5.626   4.099   1.686  0.2802 -0.1008  0.0603
 4412poe     o218374   5.715   4.078   1.794 -0.1984 -0.4193  0.3977
 4412poe    c2318375   5.795   3.962   1.782 -0.0557 -0.2431 -0.4479
 4412poe    c2318376   5.909   3.973   1.885 -0.4145 -0.4563 -0.0201
 4412poe     o218377   5.856   4.043   1.995  0.4776  0.2538 -0.0241
 4412poe    c2318378   5.939   4.014   2.105  0.2508  0.2120  0.1379
 4412poe    c2318379   5.889   4.068   2.240 -0.1026  0.0287  0.0801
 4412poe     o218380   5.762   4.013   2.268 -0.1310  0.0162 -0.0697
 4412poe    c2318381   5.690   4.086   2.365  0.2579  0.0085  0.2294
 4412poe    c2318382   5.537   4.067   2.365  0.2049  0.4299  0.1973
 4412poe     o218383   5.478   4.147   2.265 -0.0743 -0.1098 -0.0746
 4412poe    c3118384   5.348   4.185   2.307  0.1016  0.3926  0.0249
 4413poe    c3118385   6.184   1.073   1.968 -1.0694 -0.6912  0.4263
 4413poe     o218386   6.083   1.127   2.051 -0.6469  0.0475  0.4658
 4413poe    c2318387   5.996   1.216   1.984  0.0378  0.3321 -0.0572
 4413poe    c2318388   5.869   1.230   2.069  0.0909 -0.2845  0.1304
 4413poe     o218389   5.894   1.318   2.177  0.2424  0.1835 -0.2798
 4413poe    c2318390   5.776   1.316   2.255  0.1619  0.2174 -0.4005
 4413poe    c2318391   5.776   1.408   2.378 -0.7440 -0.1656 -0.1047
 4413poe     o218392   5.891   1.378   2.456 -0.7718 -0.1689 -0.0641
 4413poe    c2318393   5.885   1.454   2.574  0.3501  0.2588 -0.2786
 4413poe    c2318394   6.002   1.432   2.673 -0.2989  0.3368  0.5189
 4413poe     o218395   5.996   1.294   2.698 -0.1286  0.2761  0.2308
 4413poe    c3118396   6.094   1.251   2.790  0.1968  0.0890 -0.2005
 4414poe    c3118397   0.168   3.036   1.902 -0.1046 -1.0518  0.7837
 4414poe     o218398   0.097   2.948   1.818 -0.4415  0.0398 -0.0952
 4414poe    c2318399  -0.026   2.912   1.877 -0.2484 -0.2121  0.1553
 4414poe    c2318400  -0.085   2.797   1.793  0.1637 -0.2063 -0.1475
 4414poe     o218401   0.007   2.691   1.790 -0.0703 -0.4611  1.0375
 4414poe    c2318402  -0.010   2.606   1.678  0.4176  0.1311  0.5044
 4414poe    c2318403   0.121   2.530   1.654  0.1154 -0.1907 -0.1604
 4414poe     o218404   0.217   2.602   1.579 -0.1964  0.7415  0.3195
 4414poe    c2318405   0.316   2.520   1.521 -0.2045  0.6034  0.5021
 4414poe    c2318406   0.416   2.592   1.430  0.0288  0.1926  0.4287
 4414poe     o218407   0.511   2.674   1.495  0.6991 -0.0213 -0.2652
 4414poe    c3118408   0.621   2.706   1.413  0.5512 -0.0643 -0.4821
 4415poe    c3118409   0.297   6.315   5.348 -0.1206 -0.0038  0.1757
 4415poe     o218410   0.375   6.432   5.347  0.1022 -0.1522 -0.0994
 4415poe    c2318411   0.345   6.523   5.243  0.0531  0.2878  0.3009
 4415poe    c2318412   0.469   6.609   5.213  0.5054 -0.3793  0.2381
 4415poe     o218413   0.483   6.719   5.301  0.6218  0.1889 -0.4762
 4415poe    c2318414   0.598   6.795   5.271  0.4341  0.4162 -0.6156
 4415poe    c2318415   0.598   6.904   5.379  0.2716 -0.2002  0.0139
 4415poe     o218416   0.571   6.840   5.502  0.0445 -0.1540 -0.0110
 4415poe    c2318417   0.603   6.925   5.610 -0.0149 -0.0325 -0.0886
 4415poe    c2318418   0.554   6.854   5.738  0.0141  0.2981  0.1072
 4415poe     o218419   0.429   6.796   5.706 -0.0582  0.4366  0.1359
 4415poe    c3118420   0.351   6.766   5.820 -0.6467 -0.5330 -0.5100
 4416poe    c3118421   0.042   0.258   3.393  0.4383  0.1312  0.2400
 4416poe     o218422   0.130   0.180   3.470  0.7659  0.1041 -0.1592
 4416poe    c2318423   0.093   0.190   3.606 -0.1902 -0.3824 -0.3759
 4416poe    c2318424   0.172   0.096   3.698  0.4183  0.3978 -0.0876
 4416poe     o218425   0.310   0.124   3.712  0.3867  0.5219 -0.0260
 4416poe    c2318426   0.347   0.169   3.841  0.2373  0.7957 -0.0780
 4416poe    c2318427   0.499   0.190   3.844  0.4114 -0.2059 -1.1342
 4416poe     o218428   0.580   0.075   3.827  0.0359 -0.7074  0.3183
 4416poe    c2318429   0.716   0.104   3.808 -0.0499 -0.2234  0.4242
 4416poe    c2318430   0.790  -0.031   3.790  0.0771 -0.1048  0.0468
 4416poe     o218431   0.780  -0.108   3.907 -0.0540 -0.3221 -0.1071
 4416poe    c3118432   0.890  -0.197   3.909 -0.0485 -0.3114  0.3377
 4417poe    c3118433   6.157   1.301   5.343 -0.3953  0.5902 -0.0381
 4417poe     o218434   6.285   1.358   5.359  0.0230 -0.4070  0.2243
 4417poe    c2318435   6.354   1.300   5.467  0.0680 -0.0661  0.3787
 4417poe    c2318436   6.477   1.393   5.480 -0.1913  0.3710 -0.2603
 4417poe     o218437   6.564   1.382   5.369  0.0466 -0.0423 -0.0359
 4417poe    c2318438   6.648   1.494   5.387  0.0687 -0.0806  0.1037
 4417poe    c2318439   6.767   1.487   5.290 -0.0778 -0.0834 -0.0775
 4417poe     o218440   6.731   1.509   5.155  0.3681  1.0876 -0.0213
 4417poe    c2318441   6.838   1.467   5.073  0.1537 -0.2827  0.3745
 4417poe    c2318442   6.826   1.514   4.927 -0.0506 -0.0815  0.4559
 4417poe     o218443   6.705   1.469   4.870  0.0711  0.0684  0.0804
 4417poe    c3118444   6.729   1.459   4.731  0.1465 -0.4284  0.1282
 4418poe    c3118445   3.540   6.424   5.641 -0.0623  0.1779 -0.6113
 4418poe     o218446   3.503   6.552   5.686  0.3040  0.0480  0.0727
 4418poe    c2318447   3.605   6.627   5.748  0.8182  0.0897 -0.8102
 4418poe    c2318448   3.548   6.765   5.786 -0.0612 -0.3365 -0.5625
 4418poe     o218449   3.553   6.870   5.692 -0.0333  0.1597 -0.0112
 4418poe    c2318450   3.678   6.933   5.709  0.0297  0.1495 -0.4350
 4418poe    c2318451   3.710   7.048   5.611 -0.3908  0.1005 -0.6337
 4418poe     o218452   3.639   7.165   5.646 -0.1797 -0.1225  0.5927
 4418poe    c2318453   3.667   7.271   5.558  0.4395 -0.0097  0.9146
 4418poe    c2318454   3.589   7.399   5.596 -0.1467 -0.1475  0.2166
 4418poe     o218455   3.459   7.370   5.550  0.0804 -0.0113 -0.5197
 4418poe    c3118456   3.380   7.482   5.519  0.1095  0.1800  0.0824
 4419poe    c3118457   5.533   6.619   2.338  0.0011  0.1315 -0.2321
 4419poe     o218458   5.592   6.745   2.357  0.1640  0.0996 -0.5284
 4419poe    c2318459   5.540   6.837   2.263 -0.5948  0.7437  0.5010
 4419poe    c2318460   5.611   6.973   2.255  0.2906  0.2668  0.0740
 4419poe     o218461   5.619   7.033   2.382  0.7966 -0.0128  0.1791
 4419poe    c2318462   5.624   7.172   2.355  0.3570 -0.0131  0.0802
 4419poe    c2318463   5.623   7.247   2.489 -0.3388 -0.1516  0.1570
 4419poe     o218464   5.499   7.262   2.554 -0.4402 -0.5538  0.0560
 4419poe    c2318465   5.501   7.337   2.674  0.2090  0.0740 -0.3378
 4419poe    c2318466   5.581   7.276   2.790 -0.3013  0.1870  0.0774
 4419poe     o218467   5.532   7.165   2.862 -0.6323  0.4826  0.3092
 4419poe    c3118468   5.623   7.139   2.967  0.0264  0.1143 -0.3499
 4420poe    c3118469   5.663   6.378   1.794  0.1465 -0.4461 -0.1393
 4420poe     o218470   5.546   6.312   1.751  0.1487 -0.2886 -0.3882
 4420poe    c2318471   5.471   6.262   1.859  0.2375 -0.2578 -0.3123
 4420poe    c2318472   5.528   6.147   1.944  0.7362 -0.1285 -0.4693
 4420poe     o218473   5.543   6.023   1.879  0.4056 -0.1269 -0.5498
 4420poe    c2318474   5.574   5.927   1.977 -0.4325 -0.4215 -0.5639
 4420poe    c2318475   5.644   5.801   1.923  0.1467 -0.1324 -0.4964
 4420poe     o218476   5.777   5.832   1.886  0.1671  0.4692  0.0696
 4420poe    c2318477   5.855   5.714   1.875 -0.3496  0.1567 -0.2854
 4420poe    c2318478   5.990   5.741   1.943 -0.3447 -0.2865 -0.1159
 4420poe     o218479   5.979   5.746   2.083  0.1689 -1.1105 -0.0439
 4420poe    c3118480   6.108   5.783   2.128 -0.1779 -0.2255  0.2321
 4421poe    c3118481   3.478   3.504   2.941  0.3655 -0.2346 -0.0555
 4421poe     o218482   3.418   3.382   2.904  0.3576 -0.2059 -0.1364
 4421poe    c2318483   3.343   3.336   3.014  0.1351  0.2809 -0.0774
 4421poe    c2318484   3.288   3.195   2.984  0.4318  0.0983  0.2178
 4421poe     o218485   3.196   3.203   2.877 -0.0276  0.2132  0.6167
 4421poe    c2318486   3.117   3.087   2.860 -0.3092  0.4829  0.0473
 4421poe    c2318487   2.992   3.122   2.777 -0.2280  0.4040 -0.1087
 4421poe     o218488   3.019   3.226   2.687  0.3604  0.2601 -0.1073
 4421poe    c2318489   2.939   3.218   2.571  0.0214 -0.0657  0.1486
 4421poe    c2318490   2.932   3.348   2.489  0.0368 -0.3273 -0.2708
 4421poe     o218491   3.033   3.384   2.397  0.0583 -0.2203 -0.2048
 4421poe    c3118492   2.986   3.475   2.300  0.2325  0.3468  0.2385
 4422poe    c3118493   2.083   6.549   7.317  0.1553 -0.0264  0.1251
 4422poe     o218494   2.120   6.561   7.181  0.0125 -0.3511  0.0578
 4422poe    c2318495   2.015   6.607   7.098  0.0344 -0.5778 -0.0952
 4422poe    c2318496   2.043   6.602   6.946 -0.2064  0.0670 -0.1603
 4422poe     o218497   2.041   6.467   6.908 -0.3602  0.0739 -0.1808
 4422poe    c2318498   2.084   6.454   6.775  0.1735  0.2527 -0.0276
 4422poe    c2318499   2.067   6.313   6.717 -0.1406  0.3111 -0.0764
 4422poe     o218500   1.940   6.256   6.695 -0.2666  0.7241 -0.4431
 4422poe    c2318501   1.970   6.126   6.648 -0.6009  0.5470 -0.1765
 4422poe    c2318502   1.844   6.046   6.612  0.0470 -0.4153 -0.3419
 4422poe     o218503   1.750   6.035   6.716  0.4205 -0.3083  0.0102
 4422poe    c3118504   1.627   5.977   6.679  0.1146  0.1428  0.3052
 4423poe    c3118505   0.930   5.171   5.757  0.6116  0.9667  0.3973
 4423poe     o218506   0.852   5.162   5.874 -0.0392  0.1695 -0.0880
 4423poe    c2318507   0.723   5.113   5.848  0.0054 -0.3097  0.5527
 4423poe    c2318508   0.625   5.101   5.966 -0.2020  0.1138  0.4278
 4423poe     o218509   0.642   5.225   6.031 -0.1824  0.3209  0.0304
 4423poe    c2318510   0.583   5.232   6.159 -0.1950  0.0118  0.0433
 4423poe    c2318511   0.603   5.383   6.185 -0.6225  0.1225 -0.2702
 4423poe     o218512   0.734   5.425   6.156 -0.5297  0.1301  0.1568
 4423poe    c2318513   0.752   5.548   6.223 -0.0435  0.1238  0.0434
 4423poe    c2318514   0.895   5.598   6.252  0.3770 -0.8766 -0.2807
 4423poe     o218515   0.987   5.598   6.145  0.6095 -0.3992 -0.0798
 4423poe    c3118516   1.100   5.656   6.207  0.5953 -0.2613 -0.1816
 4424poe    c3118517   6.009   2.543   4.177  0.5130 -0.0408 -0.5216
 4424poe     o218518   6.071   2.419   4.151 -0.1588 -0.4419 -0.2424
 4424poe    c2318519   6.110   2.354   4.270  0.0077 -0.1853 -0.1539
 4424poe    c2318520   6.149   2.205   4.256 -0.5174 -0.3656  0.2485
 4424poe     o218521   6.281   2.191   4.207 -0.4622  0.2213  0.2192
 4424poe    c2318522   6.309   2.054   4.193  0.6623  0.4475  0.1636
 4424poe    c2318523   6.443   2.011   4.132  0.1497 -0.7061 -0.1851
 4424poe     o218524   6.483   2.074   4.013 -0.1069 -0.5684 -0.1989
 4424poe    c2318525   6.624   2.075   3.999 -0.1276  0.1603 -0.3777
 4424poe    c2318526   6.668   2.195   3.913 -0.0007  0.1193 -0.3693
 4424poe     o218527   6.618   2.316   3.965  0.1088  0.1869 -0.4204
 4424poe    c3118528   6.693   2.416   3.900 -0.2097  0.3829 -0.4885
 4425poe    c3118529   3.030   7.335   5.578  0.1347  0.2785 -0.0558
 4425poe     o218530   2.921   7.256   5.538  0.1764  0.2476 -0.1091
 4425poe    c2318531   2.798   7.313   5.579  0.1345  0.0795  0.0000
 4425poe    c2318532   2.733   7.398   5.469 -0.0873 -0.2661 -0.1357
 4425poe     o218533   2.782   7.530   5.469  0.1838 -0.3673 -0.0759
 4425poe    c2318534   2.759   7.591   5.344 -0.1712 -0.0737  0.1295
 4425poe    c2318535   2.726   7.740   5.361  0.6190  0.1101  0.0867
 4425poe     o218536   2.602   7.753   5.427  0.7536 -0.2175  0.4043
 4425poe    c2318537   2.574   7.883   5.471 -0.2045 -0.2796  0.0040
 4425poe    c2318538   2.477   7.882   5.591 -0.0732 -0.0931  0.1143
 4425poe     o218539   2.344   7.845   5.561  0.0133  0.1123 -0.5431
 4425poe    c3118540   2.282   7.784   5.672 -0.0078  0.4789 -0.3532
 4426poe    c3118541   5.657   2.543   2.609 -0.0693  0.2336  0.0413
 4426poe     o218542   5.744   2.463   2.687  0.2207  0.4107 -0.0966
 4426poe    c2318543   5.817   2.373   2.607 -0.6274 -0.1963 -0.2074
 4426poe    c2318544   5.897   2.261   2.675  0.1696  0.5942  0.1760
 4426poe     o218545   5.806   2.180   2.746  0.6935 -0.1525  0.0005
 4426poe    c2318546   5.879   2.079   2.812  0.3289  0.0183  0.6734
 4426poe    c2318547   5.783   2.022   2.918 -0.1148  0.3076  0.4291
 4426poe     o218548   5.681   1.940   2.866 -0.1670  0.4374  0.3260
 4426poe    c2318549   5.608   1.875   2.968 -0.1143 -0.1064  0.0226
 4426poe    c2318550   5.482   1.811   2.907 -0.2305  0.2638 -0.1316
 4426poe     o218551   5.502   1.702   2.820  0.0218 -0.2640  0.5703
 4426poe    c3118552   5.395   1.679   2.731  0.3675  0.0557  0.0675
 4427poe    c3118553   4.654   6.414   4.320  0.0888  0.0576  0.5171
 4427poe     o218554   4.584   6.352   4.215 -0.1157  0.1984  0.5697
 4427poe    c2318555   4.621   6.216   4.207  0.2469  0.3582 -0.5731
 4427poe    c2318556   4.584   6.165   4.067 -0.2832 -0.0555 -0.2867
 4427poe     o218557   4.647   6.234   3.961  0.1212 -0.2262 -0.1583
 4427poe    c2318558   4.621   6.170   3.838 -0.9742 -0.1599  0.0270
 4427poe    c2318559   4.726   6.213   3.734 -0.1019 -0.5906  0.7144
 4427poe     o218560   4.735   6.353   3.741  0.0066 -0.5876  0.5124
 4427poe    c2318561   4.840   6.404   3.661 -0.5418 -0.4122 -0.1085
 4427poe    c2318562   4.845   6.556   3.690  0.1028 -0.4692  0.1006
 4427poe     o218563   4.850   6.573   3.830 -0.5966  0.8058 -0.0118
 4427poe    c3118564   4.917   6.691   3.869  0.3240  0.1162  0.5475
 4428poe    c3118565   4.715   4.805   5.589  0.4718  0.2153  0.6279
 4428poe     o218566   4.600   4.767   5.517  0.6174  0.2979  0.3508
 4428poe    c2318567   4.489   4.728   5.595  0.3209 -0.5111 -0.4540
 4428poe    c2318568   4.495   4.578   5.628  0.9484 -0.5091 -0.5453
 4428poe     o218569   4.598   4.540   5.717  0.4571  0.0211  0.2643
 4428poe    c2318570   4.564   4.556   5.853  0.3625 -0.1124  0.2569
 4428poe    c2318571   4.679   4.513   5.946  0.3708 -0.1667  0.2220
 4428poe     o218572   4.659   4.514   6.085  0.1999  0.1305  0.1964
 4428poe    c2318573   4.769   4.474   6.164  0.2279  0.1193  0.1515
 4428poe    c2318574   4.785   4.326   6.205 -0.2134  0.0050 -0.0837
 4428poe     o218575   4.674   4.277   6.278 -0.4513  0.3695 -0.1954
 4428poe    c3118576   4.696   4.140   6.305  0.1916  0.5229  0.0772
 4429poe    c3118577   1.171   7.344   1.639 -0.5169 -0.1255  0.5944
 4429poe     o218578   1.068   7.272   1.577 -0.2106  0.2319 -0.3568
 4429poe    c2318579   1.117   7.161   1.506 -0.0028 -0.0834  0.2683
 4429poe    c2318580   1.019   7.065   1.435 -0.1154 -0.0819  0.4217
 4429poe     o218581   0.958   7.120   1.320  0.1761 -0.2760  0.1738
 4429poe    c2318582   0.895   7.012   1.256  0.1545 -0.5192  0.5995
 4429poe    c2318583   0.804   7.056   1.139  0.3390 -0.0991  0.6125
 4429poe     o218584   0.685   7.123   1.175  0.1562  0.2589 -0.6173
 4429poe    c2318585   0.594   7.111   1.068  0.1547 -0.1668 -0.5730
 4429poe    c2318586   0.466   7.196   1.081  0.2728 -0.0668 -0.0638
 4429poe     o218587   0.384   7.159   1.189 -0.1394  0.2436 -0.2680
 4429poe    c3118588   0.299   7.270   1.210  0.0570  0.3934 -0.2645
 4430poe    c3118589   1.170   0.254   5.950 -0.3278 -0.0785 -0.3686
 4430poe     o218590   1.112   0.224   6.075 -0.3945  0.2689 -0.3150
 4430poe    c2318591   1.086   0.340   6.152  0.2103  0.4766 -0.4242
 4430poe    c2318592   0.993   0.325   6.273  0.2686 -0.0834 -0.4470
 4430poe     o218593   0.862   0.288   6.236 -0.1109  0.7813  0.0208
 4430poe    c2318594   0.780   0.272   6.350  0.0518 -0.3400 -0.0122
 4430poe    c2318595   0.654   0.197   6.305 -0.0506 -0.4453  0.4462
 4430poe     o218596   0.665   0.070   6.244  0.5619  0.0752 -0.5583
 4430poe    c2318597   0.541   0.043   6.182  0.1826  0.8190 -0.1430
 4430poe    c2318598   0.492  -0.102   6.199 -0.0567  0.8972 -0.1677
 4430poe     o218599   0.540  -0.188   6.099 -0.4287 -0.1005  0.4887
 4430poe    c3118600   0.475  -0.313   6.091  0.4093 -0.4953 -0.4221
 4431poe    c3118601   4.992   3.418   6.055 -0.1152  0.1310 -0.1938
 4431poe     o218602   5.025   3.375   5.924  0.3714 -0.0179 -0.0275
 4431poe    c2318603   5.161   3.340   5.914  0.2980 -0.3967  0.2745
 4431poe    c2318604   5.226   3.356   5.776 -0.0107  0.3657  0.2144
 4431poe     o218605   5.207   3.246   5.689  0.4106  0.2126  0.3134
 4431poe    c2318606   5.285   3.263   5.573  0.1223 -0.3310  0.0333
 4431poe    c2318607   5.229   3.186   5.453 -0.2088  0.4042 -0.2919
 4431poe     o218608   5.098   3.229   5.426 -0.4611 -0.0579  0.1848
 4431poe    c2318609   5.049   3.163   5.312 -0.2082  0.0026  0.0392
 4431poe    c2318610   4.902   3.208   5.301 -0.1451  0.2269  0.1278
 4431poe     o218611   4.815   3.148   5.394  0.1045 -0.0009  0.2149
 4431poe    c3118612   4.686   3.204   5.383 -0.0019 -0.2772  0.0262
 4432poe    c3118613   4.996   1.027   1.887  0.3211 -0.2697  0.1431
 4432poe     o218614   4.888   1.051   1.800  0.3280  0.3660  0.3075
 4432poe    c2318615   4.927   1.151   1.707  0.3669 -0.2847 -0.3826
 4432poe    c2318616   4.840   1.157   1.580  0.2687  0.1299 -0.2944
 4432poe     o218617   4.712   1.217   1.588  0.3012  0.1561  0.0790
 4432poe    c2318618   4.644   1.211   1.464  0.5741 -0.3174 -0.0540
 4432poe    c2318619   4.528   1.311   1.444  0.0083 -0.8988  0.2721
 4432poe     o218620   4.425   1.263   1.527 -0.0991 -0.2866  0.4990
 4432poe    c2318621   4.304   1.335   1.523  0.3041  0.3690 -0.0731
 4432poe    c2318622   4.228   1.325   1.390 -0.0131  0.2260  0.1183
 4432poe     o218623   4.122   1.418   1.392 -0.0107  0.2232  0.3793
 4432poe    c3118624   4.043   1.404   1.276  0.3799 -0.4920  0.1956
 4433poe    c3118625   7.316   4.489   2.233 -0.1253  0.1928  0.9512
 4433poe     o218626   7.199   4.551   2.187 -0.0075 -0.3425 -0.0969
 4433poe    c2318627   7.226   4.684   2.147 -0.4672 -0.0514  0.5440
 4433poe    c2318628   7.097   4.740   2.083  0.0959  0.0912 -0.4911
 4433poe     o218629   7.003   4.768   2.185  0.4213 -0.3222 -0.0700
 4433poe    c2318630   6.878   4.773   2.121  0.1136  0.3394  0.5672
 4433poe    c2318631   6.754   4.760   2.212 -0.2986  0.2495  0.0011
 4433poe     o218632   6.757   4.646   2.294 -0.4410  0.1589 -0.1197
 4433poe    c2318633   6.663   4.543   2.274 -0.0828 -0.1623 -0.1410
 4433poe    c2318634   6.692   4.413   2.352 -0.1683  0.0400  0.2351
 4433poe     o218635   6.812   4.356   2.304 -0.4696 -0.2181 -0.2208
 4433poe    c3118636   6.837   4.237   2.375 -0.1344  0.0615  0.1340
 4434poe    c3118637   5.534   6.524   4.479  0.0877  0.3159 -0.4440
 4434poe     o218638   5.630   6.556   4.381  0.1586  0.2441 -0.3981
 4434poe    c2318639   5.723   6.450   4.369  0.1454  0.1912 -0.0380
 4434poe    c2318640   5.833   6.504   4.275  0.0549 -0.2528 -0.3995
 4434poe     o218641   5.802   6.478   4.140 -0.3496 -0.2453 -0.3097
 4434poe    c2318642   5.903   6.511   4.048 -0.1660  0.0243 -0.0120
 4434poe    c2318643   5.867   6.479   3.902  0.2268 -0.0237 -0.1015
 4434poe     o218644   5.803   6.592   3.846 -0.2029  0.0531  0.5323
 4434poe    c2318645   5.826   6.591   3.707  0.2638  0.3163  0.6079
 4434poe    c2318646   5.850   6.728   3.640  0.2714  0.1048  0.1787
 4434poe     o218647   5.985   6.763   3.661  0.3482 -0.1265  0.0850
 4434poe    c3118648   6.008   6.899   3.632  0.3390 -0.2042 -0.2924
 4435poe    c3118649   4.140   6.792   2.935 -0.4631 -0.3393 -0.3791
 4435poe     o218650   4.029   6.723   2.990 -0.1646 -0.4236  0.1175
 4435poe    c2318651   3.947   6.680   2.884 -0.3376 -0.1120  0.1240
 4435poe    c2318652   3.838   6.588   2.943 -0.6493  0.1482 -0.0404
 4435poe     o218653   3.893   6.490   3.030 -0.5387 -0.0291 -0.3075
 4435poe    c2318654   3.793   6.401   3.073 -0.1574 -0.0744  0.4893
 4435poe    c2318655   3.844   6.295   3.173  0.3637 -0.2782  0.0088
 4435poe     o218656   3.894   6.182   3.105  0.0392 -0.7351  0.5197
 4435poe    c2318657   3.987   6.106   3.179  1.1652  0.5576  0.4932
 4435poe    c2318658   4.056   6.005   3.086 -0.0117 -0.0197  0.2211
 4435poe     o218659   3.984   5.892   3.043 -0.1559  0.1168  0.1081
 4435poe    c3118660   4.069   5.800   2.978  0.1131  0.4087  0.0425
 4436poe    c3118661   1.844   1.378   0.122  0.6239  0.0381  0.0006
 4436poe     o218662   1.767   1.277   0.183  0.0009  0.6595  0.2548
 4436poe    c2318663   1.837   1.157   0.204  0.1106  0.5912 -0.4765
 4436poe    c2318664   1.922   1.151   0.333 -0.1837  0.7373 -0.2734
 4436poe     o218665   1.843   1.154   0.449  0.1415 -0.3361 -0.0110
 4436poe    c2318666   1.925   1.163   0.564  0.1770 -0.1039 -0.0550
 4436poe    c2318667   1.836   1.149   0.689  0.1401  0.0888 -0.0588
 4436poe     o218668   1.764   1.267   0.715 -0.3028 -0.1471 -0.1947
 4436poe    c2318669   1.709   1.260   0.844  0.0669  0.3926 -0.0017
 4436poe    c2318670   1.655   1.393   0.900 -0.6060 -0.1468  0.6556
 4436poe     o218671   1.553   1.439   0.814  0.3363  0.3094 -0.2413
 4436poe    c3118672   1.541   1.579   0.823  0.1993  0.2245  1.0852
 4437poe    c3118673   2.050   6.407   3.342 -0.8780 -1.0656 -0.0618
 4437poe     o218674   2.177   6.349   3.365 -0.0502  0.5855 -0.2919
 4437poe    c2318675   2.271   6.372   3.263  0.0394  0.2399 -0.2892
 4437poe    c2318676   2.404   6.298   3.286 -0.2202 -0.1143  0.0841
 4437poe     o218677   2.382   6.158   3.287  0.1630 -0.1774 -0.1535
 4437poe    c2318678   2.501   6.083   3.287  0.2172 -0.0946  0.1822
 4437poe    c2318679   2.487   5.930   3.270  0.2941 -0.0866  0.0395
 4437poe     o218680   2.388   5.871   3.351  0.3592  0.3608  0.4533
 4437poe    c2318681   2.420   5.863   3.488  1.0142 -0.4316  0.2603
 4437poe    c2318682   2.307   5.780   3.551  0.1214  0.2664 -0.3936
 4437poe     o218683   2.304   5.649   3.499 -0.3233  0.1519 -0.0921
 4437poe    c3118684   2.192   5.578   3.546 -0.2135 -0.5223 -0.8245
 4438poe    c3118685   1.346   4.737   3.775 -0.6178  0.5409  0.9469
 4438poe     o218686   1.409   4.675   3.885  0.0191 -0.6414 -0.0549
 4438poe    c2318687   1.524   4.748   3.922 -0.3551 -0.1525  0.1556
 4438poe    c2318688   1.644   4.667   3.973 -0.2505 -0.3675 -0.4276
 4438poe     o218689   1.630   4.577   4.080 -0.3212 -0.0139 -0.1379
 4438poe    c2318690   1.746   4.501   4.107  0.0473  0.5890 -0.0188
 4438poe    c2318691   1.820   4.567   4.225  0.2321  0.4761 -0.0724
 4438poe     o218692   1.754   4.558   4.350  0.4339  0.4700  0.0333
 4438poe    c2318693   1.767   4.435   4.416  0.2428  0.3268 -0.1946
 4438poe    c2318694   1.792   4.457   4.567  0.0874  0.0490 -0.1266
 4438poe     o218695   1.916   4.514   4.601  0.2634 -0.4501  0.0770
 4438poe    c3118696   1.909   4.591   4.719 -0.7316  0.4274 -0.5307
 4439poe    c3118697   6.327   5.088   7.305 -0.2302  0.0115 -0.0722
 4439poe     o218698   6.456   5.085   7.248 -0.3319 -0.2563 -0.2910
 4439poe    c2318699   6.470   5.193   7.158 -0.4244 -0.1536 -0.1827
 4439poe    c2318700   6.592   5.182   7.064 -0.1801 -0.5777  0.1817
 4439poe     o218701   6.725   5.192   7.111 -0.0987  0.5210 -0.2453
 4439poe    c2318702   6.790   5.313   7.080 -0.1667  0.6417  0.0822
 4439poe    c2318703   6.942   5.290   7.074 -0.2905 -0.1775 -0.0449
 4439poe     o218704   6.989   5.234   6.954 -0.0272 -0.1045  0.0241
 4439poe    c2318705   6.972   5.094   6.958  0.3346 -0.1317  0.7357
 4439poe    c2318706   7.041   5.034   6.834 -0.0389  0.4472  0.2498
 4439poe     o218707   6.970   5.038   6.712  0.2415  0.0105  0.0736
 4439poe    c3118708   7.043   4.953   6.625  0.6187  0.3440  0.0650
 4440poe    c3118709   0.095   3.440   4.054 -0.1275 -0.3029  0.5117
 4440poe     o218710   0.195   3.411   4.149  0.4874  0.4517  0.1054
 4440poe    c2318711   0.225   3.275   4.129 -0.5061  0.1993  0.2667
 4440poe    c2318712   0.326   3.234   4.238 -0.1248  0.1252 -0.1110
 4440poe     o218713   0.273   3.236   4.369 -0.3385  0.1042 -0.1961
 4440poe    c2318714   0.364   3.183   4.463 -0.6964 -0.3753 -0.1184
 4440poe    c2318715   0.298   3.175   4.602  0.1707 -0.1321  0.3145
 4440poe     o218716   0.300   3.298   4.671 -0.1432 -0.0447  0.1738
 4440poe    c2318717   0.427   3.333   4.723 -0.2143 -0.2690  0.5014
 4440poe    c2318718   0.435   3.445   4.828  0.3859  0.1950 -0.0301
 4440poe     o218719   0.428   3.575   4.776  0.1843  0.2230  0.0674
 4440poe    c3118720   0.425   3.664   4.886 -0.3652  0.0166  0.2234
 4441poe    c3118721   6.363   3.029   7.414  0.0012 -0.2138 -0.0153
 4441poe     o218722   6.345   3.026   7.554 -0.1101  0.3657 -0.0124
 4441poe    c2318723   6.219   2.983   7.601  0.0100  0.1206  0.0845
 4441poe    c2318724   6.212   2.967   7.754 -0.3633 -0.2619  0.0321
 4441poe     o218725   6.214   3.094   7.816  0.1230 -0.2648  0.0239
 4441poe    c2318726   6.165   3.079   7.947  0.1220 -0.0948  0.0439
 4441poe    c2318727   6.158   3.215   8.019 -0.0756 -0.3457  0.5016
 4441poe     o218728   6.285   3.268   8.048 -0.2341  0.0272  0.5093
 4441poe    c2318729   6.320   3.258   8.184  0.1924 -0.0620  0.3958
 4441poe    c2318730   6.465   3.296   8.217  0.2340  0.2227 -0.1125
 4441poe     o218731   6.502   3.432   8.204 -0.0692  0.2677 -0.5420
 4441poe    c3118732   6.640   3.454   8.184 -0.0042  0.4976  0.1297
 4442poe    c3118733   5.007   0.164   2.584 -0.0703  0.4719 -0.0116
 4442poe     o218734   5.023   0.273   2.496 -0.1896  0.4833 -0.0193
 4442poe    c2318735   5.028   0.226   2.363  0.9591 -0.0017  0.1829
 4442poe    c2318736   5.012   0.358   2.286  0.3277 -0.1197  0.1116
 4442poe     o218737   5.118   0.439   2.333  0.0917  0.2063  0.0898
 4442poe    c2318738   5.144   0.549   2.249  0.0549 -0.1365 -0.3717
 4442poe    c2318739   5.258   0.625   2.319 -0.0016 -0.0895 -0.3316
 4442poe     o218740   5.206   0.660   2.445  0.2187 -0.1746 -0.2160
 4442poe    c2318741   5.289   0.738   2.529 -0.0159  0.0221 -0.1609
 4442poe    c2318742   5.284   0.714   2.681  1.0160  0.1017 -0.1021
 4442poe     o218743   5.318   0.578   2.697  0.0814 -0.1302 -0.0303
 4442poe    c3118744   5.357   0.565   2.832  0.3030 -0.0728 -0.0901
 4443poe    c3118745   0.020   4.736   4.382 -0.1797 -0.4623 -0.2659
 4443poe     o218746  -0.084   4.695   4.467 -0.3161  0.7235  0.1584
 4443poe    c2318747  -0.025   4.645   4.585 -0.0764 -0.6910 -0.5432
 4443poe    c2318748  -0.142   4.621   4.681 -0.2186 -0.2901 -0.6138
 4443poe     o218749  -0.239   4.723   4.671  0.3365  0.3307  0.2106
 4443poe    c2318750  -0.357   4.703   4.746 -0.2186  0.1356 -0.7122
 4443poe    c2318751  -0.445   4.829   4.746 -0.3080  0.0745  0.0743
 4443poe     o218752  -0.447   4.881   4.615  0.0886  0.1698  0.1080
 4443poe    c2318753  -0.545   4.979   4.592  0.0746  0.2242  0.3852
 4443poe    c2318754  -0.601   5.012   4.452 -0.1358 -0.2684  0.3526
 4443poe     o218755  -0.519   5.072   4.354 -0.6133  0.1933  0.2316
 4443poe    c3118756  -0.597   5.074   4.237 -0.9259 -0.1960  0.4298
 4444poe    c3118757   4.089   5.968   5.254 -0.4021  0.2625  0.6634
 4444poe     o218758   4.219   5.944   5.302 -0.3085 -0.2670  0.1529
 4444poe    c2318759   4.229   5.982   5.437  0.3447 -0.5728  0.1929
 4444poe    c2318760   4.357   5.939   5.511  0.4590 -0.0006  0.3330
 4444poe     o218761   4.377   5.803   5.545  0.2362 -0.1024  0.0528
 4444poe    c2318762   4.345   5.765   5.677  0.5218  0.4406  0.2793
 4444poe    c2318763   4.375   5.618   5.710  0.3721  0.4896  0.6315
 4444poe     o218764   4.514   5.598   5.707  0.2840 -0.0421 -0.2920
 4444poe    c2318765   4.561   5.494   5.790 -0.2170  0.0378  0.0986
 4444poe    c2318766   4.710   5.460   5.771 -0.2889 -0.2497  0.0551
 4444poe     o218767   4.737   5.394   5.649 -0.0766 -0.0502 -0.0063
 4444poe    c3118768   4.867   5.340   5.651 -0.1012 -0.1153 -0.1272
 4445poe    c3118769   6.986   3.212   1.925  0.4031 -0.6247  0.5394
 4445poe     o218770   6.983   3.111   1.826  0.1292  0.2643 -0.3646
 4445poe    c2318771   7.109   3.103   1.763  0.5617 -0.5877  0.5968
 4445poe    c2318772   7.112   3.014   1.638  0.2087  0.0661  0.1165
 4445poe     o218773   7.060   3.073   1.521  0.5242  0.2174  0.0493
 4445poe    c2318774   7.089   2.996   1.407  0.0352  0.3164 -0.1468
 4445poe    c2318775   6.977   3.007   1.302  0.2986  0.0710 -0.4569
 4445poe     o218776   6.854   2.963   1.355  0.2295  0.0939 -0.5965
 4445poe    c2318777   6.740   2.990   1.277 -0.4618  0.4194  0.4983
 4445poe    c2318778   6.649   2.868   1.254 -0.0472  0.1649  0.1825
 4445poe     o218779   6.585   2.816   1.369 -0.4495 -0.2395 -0.2218
 4445poe    c3118780   6.501   2.709   1.334 -0.0886 -0.5035 -0.2852
 4446poe    c3118781   1.511   0.505   6.851  0.1856  0.5269 -0.1872
 4446poe     o218782   1.429   0.397   6.815  0.0163  0.5774  0.0459
 4446poe    c2318783   1.307   0.459   6.778 -0.2000 -0.0515 -0.3283
 4446poe    c2318784   1.206   0.379   6.695 -0.1688 -0.0462 -0.3716
 4446poe     o218785   1.126   0.275   6.746 -0.0694 -0.0853 -0.2932
 4446poe    c2318786   1.038   0.237   6.642 -0.2305  0.0063 -0.1908
 4446poe    c2318787   0.930   0.137   6.689 -0.2974 -0.0036 -0.3637
 4446poe     o218788   0.978   0.008   6.718 -0.1084  0.0889 -0.2578
 4446poe    c2318789   0.880  -0.070   6.784 -0.2454  0.1642 -0.3724
 4446poe    c2318790   0.894  -0.221   6.754  0.1486  0.1492 -0.1207
 4446poe     o218791   1.015  -0.283   6.791 -0.2965 -0.3530  0.5160
 4446poe    c3118792   1.025  -0.402   6.716 -0.2438  0.0152 -0.0672
 4447poe    c3118793   1.431   3.804   6.024 -0.9500  0.6193 -0.3898
 4447poe     o218794   1.402   3.828   5.888  0.3451  0.4382 -0.7153
 4447poe    c2318795   1.313   3.732   5.835  0.2191  0.1316  0.0307
 4447poe    c2318796   1.387   3.607   5.783 -0.2369 -0.1116 -0.0341
 4447poe     o218797   1.447   3.633   5.658 -0.3200  0.3972  0.0307
 4447poe    c2318798   1.550   3.556   5.602  0.2122  0.5882  0.7255
 4447poe    c2318799   1.604   3.620   5.473  0.1362 -0.0373  0.3801
 4447poe     o218800   1.501   3.625   5.377  0.4891 -0.0583 -0.0091
 4447poe    c2318801   1.559   3.679   5.261 -0.0848 -0.2978 -0.4150
 4447poe    c2318802   1.452   3.708   5.155  0.1223 -0.1851 -0.5942
 4447poe     o218803   1.395   3.589   5.105  0.0861 -0.4671  0.1145
 4447poe    c3118804   1.266   3.607   5.051  0.1962  0.0508  0.0198
 4448poe    c3118805   1.182   7.165   1.065 -0.2759  0.1060  0.2454
 4448poe     o218806   1.275   7.059   1.067 -0.4680 -0.0732 -0.2496
 4448poe    c2318807   1.404   7.110   1.041 -0.5511  0.4169  0.2888
 4448poe    c2318808   1.502   6.996   1.075 -0.0212  0.5151 -0.8816
 4448poe     o218809   1.455   6.882   1.007 -0.0592 -0.0332  0.0464
 4448poe    c2318810   1.543   6.775   0.983  0.1627  0.2454 -0.3953
 4448poe    c2318811   1.457   6.663   0.922 -0.1611  0.0637  0.3842
 4448poe     o218812   1.333   6.657   0.989 -0.2663  0.2357  0.2042
 4448poe    c2318813   1.265   6.555   0.919  0.0144  0.2144 -0.0389
 4448poe    c2318814   1.126   6.521   0.976  0.2086 -0.3504  0.1041
 4448poe     o218815   1.036   6.628   0.961  0.0959 -0.4765 -0.1256
 4448poe    c3118816   0.902   6.586   0.971  0.0529 -0.1550  0.6910
 4449poe    c3118817   2.458   2.435   2.054  0.0686  0.5788 -0.5187
 4449poe     o218818   2.595   2.454   2.081  0.0703 -0.1292  0.0073
 4449poe    c2318819   2.626   2.509   2.207 -0.0306 -0.4826  0.1856
 4449poe    c2318820   2.666   2.657   2.195  0.2134 -0.5449  0.2387
 4449poe     o218821   2.801   2.666   2.154  0.1690 -0.3170  0.1430
 4449poe    c2318822   2.901   2.649   2.252  0.2441 -0.2602  0.0761
 4449poe    c2318823   3.039   2.671   2.188  0.3096 -0.2707  0.2149
 4449poe     o218824   3.076   2.554   2.119  0.0177 -0.1129 -0.2049
 4449poe    c2318825   3.202   2.573   2.060  0.0057  0.5130 -0.0426
 4449poe    c2318826   3.247   2.449   1.979 -0.1910  0.4139  0.0009
 4449poe     o218827   3.181   2.452   1.855 -0.0849  0.0963 -0.0633
 4449poe    c3118828   3.271   2.401   1.759 -0.0373  0.1040 -0.0227
 4450poe    c3118829   1.045   4.085   3.964  0.1219 -0.1696 -0.6258
 4450poe     o218830   1.174   4.049   4.010 -0.1559 -0.2328  0.1214
 4450poe    c2318831   1.249   4.006   3.898  0.1418  0.3549  0.0945
 4450poe    c2318832   1.349   3.898   3.942 -0.3237  0.0336  0.3749
 4450poe     o218833   1.460   3.942   4.017  0.1773 -0.9406  0.2174
 4450poe    c2318834   1.515   3.833   4.088 -0.2295 -1.1439  0.2251
 4450poe    c2318835   1.588   3.875   4.217 -0.5981 -0.4068  0.1951
 4450poe     o218836   1.495   3.943   4.300 -0.2825  0.6017 -0.2636
 4450poe    c2318837   1.569   3.999   4.406  0.4001  0.1076 -0.4719
 4450poe    c2318838   1.480   4.027   4.528  0.8096  0.7760 -0.3206
 4450poe     o218839   1.385   4.129   4.509 -0.0499  0.1417  0.4643
 4450poe    c3118840   1.293   4.134   4.616 -0.6663 -0.2268 -0.0450
 4451poe    c3118841   3.686   6.241   4.432 -0.0182  0.4113 -0.2102
 4451poe     o218842   3.745   6.296   4.316 -0.0992 -0.2548 -0.5715
 4451poe    c2318843   3.630   6.332   4.242 -0.5007  0.0422  0.1871
 4451poe    c2318844   3.656   6.454   4.152  0.2605 -0.4040 -0.2059
 4451poe     o218845   3.763   6.426   4.064  0.3948 -0.6589  0.0400
 4451poe    c2318846   3.822   6.538   4.002 -0.3501 -0.3050 -0.0303
 4451poe    c2318847   3.946   6.513   3.914 -0.1910 -0.0554  0.1250
 4451poe     o218848   4.038   6.444   3.996 -0.2444 -0.4389 -0.1390
 4451poe    c2318849   4.148   6.400   3.919 -0.3001 -0.3825 -0.2527
 4451poe    c2318850   4.234   6.316   4.016  0.2453 -0.1736 -0.5544
 4451poe     o218851   4.141   6.219   4.059  0.2277  0.0913  0.0049
 4451poe    c3118852   4.194   6.134   4.158 -0.1754 -0.0973  0.0603
 4452poe    c3118853   6.578   1.623   0.988  0.1593 -0.2798 -0.4115
 4452poe     o218854   6.522   1.738   0.928  0.0223  0.0647  0.3596
 4452poe    c2318855   6.599   1.848   0.971  0.2570 -0.0378  0.2079
 4452poe    c2318856   6.513   1.972   1.005  0.1629  0.0398 -0.3118
 4452poe     o218857   6.427   1.944   1.113  0.3844  0.1946 -0.0932
 4452poe    c2318858   6.475   2.011   1.227 -0.0928 -0.2405  0.3708
 4452poe    c2318859   6.397   1.953   1.346 -0.8470 -0.0645 -0.0337
 4452poe     o218860   6.414   1.815   1.371  0.1748  0.0612 -0.0356
 4452poe    c2318861   6.327   1.748   1.459  0.5817 -0.3819  0.0360
 4452poe    c2318862   6.288   1.605   1.417  0.2706 -0.3212  0.1125
 4452poe     o218863   6.207   1.588   1.303 -0.1109 -0.3221  0.3841
 4452poe    c3118864   6.133   1.468   1.312 -0.1199 -0.3260  0.2641
 4453poe    c3118865   6.453   2.408   5.540  0.1539 -0.1244  0.1219
 4453poe     o218866   6.430   2.345   5.415 -0.4732  0.0227  0.1599
 4453poe    c2318867   6.342   2.425   5.340  0.3006 -0.1154 -0.9143
 4453poe    c2318868   6.314   2.388   5.193 -0.3695 -0.3586 -0.7285
 4453poe     o218869   6.434   2.396   5.120  0.2352 -0.6955  0.2137
 4453poe    c2318870   6.410   2.388   4.981  0.4579 -1.1064  0.1963
 4453poe    c2318871   6.534   2.377   4.891  0.1463 -0.3502 -0.3372
 4453poe     o218872   6.624   2.272   4.919  0.5637  0.1643  0.2922
 4453poe    c2318873   6.727   2.248   4.825 -0.0471  0.6477 -0.5133
 4453poe    c2318874   6.840   2.160   4.882 -0.8570 -0.1756 -0.1534
 4453poe     o218875   6.794   2.042   4.944 -0.0776 -0.4754 -0.1461
 4453poe    c3118876   6.921   1.997   4.987 -0.0368 -0.1772  0.0400
 4454poe    c3118877   1.453   3.035   2.637  0.4415 -0.2030  0.4156
 4454poe     o218878   1.575   3.086   2.588  0.0014  0.5187  0.0577
 4454poe    c2318879   1.627   3.009   2.483 -0.3220  0.3658  0.0110
 4454poe    c2318880   1.760   3.063   2.427 -0.2865 -0.0025 -0.2729
 4454poe     o218881   1.745   3.202   2.410 -0.3990  0.0889  0.5255
 4454poe    c2318882   1.682   3.223   2.285 -0.1895  0.1688  0.4333
 4454poe    c2318883   1.610   3.359   2.279 -0.1875  0.1730  0.5027
 4454poe     o218884   1.685   3.473   2.317  0.0187  0.1097  0.2873
 4454poe    c2318885   1.615   3.592   2.292 -0.5942 -0.3899 -0.4280
 4454poe    c2318886   1.515   3.641   2.398 -0.0356 -0.2870  0.0547
 4454poe     o218887   1.585   3.692   2.509  0.0176 -0.5842  0.1583
 4454poe    c3118888   1.493   3.717   2.614 -0.0786  0.2049 -0.1095
 4455poe    c3118889   3.369   5.967   1.435 -0.3304  0.5285 -0.1747
 4455poe     o218890   3.258   6.010   1.510 -0.5966  0.0784 -0.3025
 4455poe    c2318891   3.288   6.147   1.527  0.2802 -0.1477  0.0237
 4455poe    c2318892   3.186   6.205   1.627  0.1543  0.2636 -0.3370
 4455poe     o218893   3.062   6.167   1.574  0.3179 -0.2235 -0.3820
 4455poe    c2318894   2.965   6.251   1.633  0.4326 -0.3555 -0.0034
 4455poe    c2318895   2.826   6.198   1.593  0.0445  0.1259  0.6979
 4455poe     o218896   2.822   6.063   1.634  0.3012 -0.0752  0.0769
 4455poe    c2318897   2.697   6.010   1.594  0.3581 -0.0533 -0.1298
 4455poe    c2318898   2.671   5.881   1.675  0.5304  0.1838  0.3101
 4455poe     o218899   2.777   5.788   1.671  0.1675 -0.2387  0.4467
 4455poe    c3118900   2.712   5.664   1.683  0.1507 -0.3093 -0.3107
 4456poe    c3118901   3.205   0.173   5.848  0.7572  0.0357 -0.2318
 4456poe     o218902   3.168   0.053   5.911  0.5231  0.1558 -0.1398
 4456poe    c2318903   3.238  -0.061   5.865  0.1950 -0.0682 -0.0916
 4456poe    c2318904   3.186  -0.175   5.954 -0.0553  0.2090  0.1230
 4456poe     o218905   3.046  -0.174   5.943 -0.0842 -0.0811  0.4455
 4456poe    c2318906   2.994  -0.258   6.044  0.3034 -0.3265  0.4419
 4456poe    c2318907   2.841  -0.256   6.035  0.3700  0.1359 -0.8414
 4456poe     o218908   2.777  -0.131   6.052  0.2913 -0.0084 -0.0083
 4456poe    c2318909   2.640  -0.110   6.023  0.4160  0.8204 -0.0211
 4456poe    c2318910   2.584  -0.117   5.880 -0.2035  0.1197  0.2544
 4456poe     o218911   2.604   0.001   5.806 -0.5376  0.0805  0.0945
 4456poe    c3118912   2.514   0.108   5.821  0.0329  0.6927 -0.7189
 4457poe    c3118913   3.642   0.135   6.918 -0.1196  0.0838  0.0184
 4457poe     o218914   3.637  -0.006   6.927 -0.2883  0.1029  0.2218
 4457poe    c2318915   3.532  -0.070   6.857 -0.1188  0.7105 -0.6114
 4457poe    c2318916   3.560  -0.222   6.863  0.0447  0.7747  0.3639
 4457poe     o218917   3.666  -0.251   6.775  0.2390  0.2629  0.7619
 4457poe    c2318918   3.692  -0.388   6.759  0.3784  0.2790  0.8456
 4457poe    c2318919   3.824  -0.433   6.693 -0.2768  0.1935 -0.4366
 4457poe     o218920   3.850  -0.414   6.556  0.1748 -0.2487 -0.4144
 4457poe    c2318921   3.806  -0.518   6.472 -0.7511 -0.0589 -0.1706
 4457poe    c2318922   3.806  -0.475   6.325  0.1005 -0.1223 -0.1952
 4457poe     o218923   3.934  -0.469   6.266  0.0106 -0.1710 -0.3968
 4457poe    c3118924   3.926  -0.459   6.125 -0.6706  0.2636 -0.3313
 4458poe    c3118925   5.801   1.006   6.621  0.4423 -0.7395 -0.2640
 4458poe     o218926   5.878   1.124   6.625  0.2454 -0.6315  0.3969
 4458poe    c2318927   5.986   1.110   6.536  0.2943  0.2895  0.3013
 4458poe    c2318928   6.052   1.244   6.498  0.5457  0.0092 -0.2551
 4458poe     o218929   6.073   1.326   6.611 -0.3811 -0.0263 -0.0461
 4458poe    c2318930   6.126   1.444   6.556  0.1652 -0.1163  0.2813
 4458poe    c2318931   6.124   1.552   6.666  0.2313  0.4621 -0.2788
 4458poe     o218932   5.997   1.611   6.690 -0.0265  0.0865 -0.7080
 4458poe    c2318933   6.006   1.703   6.796  0.3629 -0.4106 -0.2999
 4458poe    c2318934   5.873   1.781   6.791  0.3706 -0.3553  0.3163
 4458poe     o218935   5.759   1.706   6.828  0.1230  0.2254  0.7471
 4458poe    c3118936   5.645   1.788   6.824 -0.0837 -0.0880  0.1003
 4459poe    c3118937   6.725   4.003   3.144  0.0795  0.5515 -0.2786
 4459poe     o218938   6.855   3.956   3.170 -0.0272  0.1254 -0.5187
 4459poe    c2318939   6.913   3.895   3.056 -0.0796 -0.6266 -0.1483
 4459poe    c2318940   7.047   3.834   3.101  0.1652  0.1031  0.1268
 4459poe     o218941   7.040   3.730   3.196 -0.1237  0.2325  0.2478
 4459poe    c2318942   7.170   3.725   3.248  0.0038  0.0001 -0.0860
 4459poe    c2318943   7.157   3.640   3.377  0.1878 -0.2930 -0.2589
 4459poe     o218944   7.062   3.690   3.468  0.5733 -0.2476  0.1223
 4459poe    c2318945   7.088   3.631   3.593 -0.2425 -0.5727  0.1469
 4459poe    c2318946   6.991   3.696   3.693  0.1220 -0.1271  0.2121
 4459poe     o218947   6.863   3.716   3.636 -0.0228 -0.3036  0.4702
 4459poe    c3118948   6.760   3.712   3.731 -0.7650 -0.4349 -0.3253
 4460poe    c3118949   6.109   5.161   6.583 -0.2101  0.3618  0.1964
 4460poe     o218950   5.973   5.142   6.553 -0.1030 -0.1113  0.0125
 4460poe    c2318951   5.963   5.034   6.462  0.2456  0.0488 -0.2148
 4460poe    c2318952   5.961   5.074   6.313 -0.4894  0.2419 -0.1590
 4460poe     o218953   5.839   5.135   6.278 -0.5545 -0.0757 -0.4893
 4460poe    c2318954   5.854   5.186   6.147  0.0614  0.2409 -0.3030
 4460poe    c2318955   5.772   5.315   6.125 -0.2798  0.0948  0.0949
 4460poe     o218956   5.637   5.277   6.115 -0.1756 -0.2133 -0.1484
 4460poe    c2318957   5.549   5.378   6.069 -0.5084 -0.3278  0.2297
 4460poe    c2318958   5.408   5.335   6.026 -0.6578  0.7223 -0.3365
 4460poe     o218959   5.332   5.313   6.142  0.2034  0.0233  0.1048
 4460poe    c3118960   5.198   5.280   6.110  0.1183  0.7170 -0.2826
 4461poe    c3118961   3.621   5.593   5.549  0.0466 -0.4515 -0.6296
 4461poe     o218962   3.550   5.491   5.615  0.4717 -0.4859 -0.2226
 4461poe    c2318963   3.415   5.487   5.574  0.4786 -0.7127 -0.2217
 4461poe    c2318964   3.341   5.388   5.666  0.3040 -0.5347 -0.1689
 4461poe     o218965   3.388   5.255   5.670  0.5227 -0.4592 -0.1741
 4461poe    c2318966   3.296   5.178   5.745 -0.3915  0.7446 -0.0296
 4461poe    c2318967   3.282   5.039   5.680  0.3084  0.2116  0.9474
 4461poe     o218968   3.373   4.946   5.736  0.8351 -0.0477 -0.3096
 4461poe    c2318969   3.345   4.823   5.673  0.1432  0.1985 -0.4925
 4461poe    c2318970   3.406   4.718   5.768 -0.3485 -0.3206 -0.7430
 4461poe     o218971   3.546   4.728   5.757 -0.2792  0.2223  0.4551
 4461poe    c3118972   3.611   4.625   5.828 -0.0334  0.0755  0.0145
 4462poe    c3118973   4.639   5.084   5.344 -0.5723  0.5771 -0.2868
 4462poe     o218974   4.732   5.041   5.247 -0.5440 -0.3041  0.1221
 4462poe    c2318975   4.735   5.133   5.140  0.4853  0.1660  0.5364
 4462poe    c2318976   4.835   5.082   5.035 -0.1711  0.0680 -0.0528
 4462poe     o218977   4.790   4.952   5.004  0.3400 -0.1278  0.0150
 4462poe    c2318978   4.865   4.894   4.899  0.3060  0.1593 -0.1674
 4462poe    c2318979   4.808   4.753   4.879  0.9073 -0.0866 -0.1582
 4462poe     o218980   4.772   4.705   5.006 -0.3034  0.1768 -0.3863
 4462poe    c2318981   4.741   4.567   5.007  0.0527  0.0934  0.4553
 4462poe    c2318982   4.595   4.539   4.966  0.2646  0.2846 -0.4514
 4462poe     o218983   4.499   4.588   5.057 -0.0891  0.0341 -0.6874
 4462poe    c3118984   4.390   4.499   5.063 -0.0681  0.0602  0.1013
 4463poe    c3118985   1.286   1.708   5.958  0.1096  0.0045 -0.5546
 4463poe     o218986   1.325   1.606   5.868 -0.2879 -0.5846 -0.0671
 4463poe    c2318987   1.446   1.651   5.813 -0.0740 -0.6098  0.3761
 4463poe    c2318988   1.484   1.586   5.678 -0.1305  0.3870 -0.1331
 4463poe     o218989   1.493   1.446   5.690  0.1236  0.3978 -0.1960
 4463poe    c2318990   1.495   1.395   5.558 -0.3040 -0.1596  0.0055
 4463poe    c2318991   1.550   1.252   5.566  0.3369  0.1105  0.4950
 4463poe     o218992   1.458   1.191   5.654 -0.5020  0.1700 -0.3285
 4463poe    c2318993   1.478   1.053   5.675 -0.3762  0.2248 -0.0845
 4463poe    c2318994   1.342   1.010   5.731 -0.0849  0.0139  0.4658
 4463poe     o218995   1.326   1.091   5.846 -0.3643  0.6970 -0.0481
 4463poe    c3118996   1.245   1.037   5.947 -0.3279  0.2198 -0.2673
 4464poe    c3118997   5.022   3.394   3.277 -0.1328  0.2715  0.2625
 4464poe     o218998   5.026   3.272   3.206  0.0128  0.3017  0.2167
 4464poe    c2318999   4.901   3.253   3.143  0.4549 -0.2392 -0.5114
 4464poe    c2319000   4.873   3.107   3.103 -0.0948 -0.2879  0.0385
 4464poe     o219001   4.956   3.066   2.996 -0.1389  0.0691 -0.1360
 4464poe    c2319002   4.900   3.090   2.869 -0.2351 -0.4909 -0.2012
 4464poe    c2319003   4.913   3.230   2.808  0.1544 -0.3744  0.1443
 4464poe     o219004   5.034   3.302   2.814 -0.0752 -0.0020  0.3879
 4464poe    c2319005   5.012   3.440   2.797 -0.0950 -0.0989 -0.4227
 4464poe    c2319006   4.994   3.489   2.653 -0.2611 -0.5513 -0.5585
 4464poe     o219007   4.867   3.454   2.603 -0.0692 -0.2376 -1.2915
 4464poe    c3119008   4.846   3.518   2.479 -0.0578  0.4196 -0.9595
 4465poe    c3119009   5.608   0.601   3.127  0.0979  0.2252 -0.0508
 4465poe     o219010   5.657   0.533   3.241  0.2251 -0.3137 -0.4258
 4465poe    c2319011   5.751   0.433   3.210  0.1684 -0.5045  0.0109
 4465poe    c2319012   5.897   0.480   3.221  0.0195 -0.0651  0.1421
 4465poe     o219013   5.935   0.500   3.355 -0.3487 -0.2409  0.2720
 4465poe    c2319014   6.040   0.593   3.365 -0.1518 -0.3983 -0.3195
 4465poe    c2319015   5.993   0.730   3.418  0.7076 -0.3031  0.2115
 4465poe     o219016   5.989   0.751   3.557  0.1620 -1.2682  0.3489
 4465poe    c2319017   6.097   0.815   3.622 -0.4560  0.0441  0.1010
 4465poe    c2319018   6.032   0.870   3.749 -0.1570  0.2714  0.1569
 4465poe     o219019   5.927   0.962   3.728 -0.0224  0.4214  0.1347
 4465poe    c3119020   5.844   0.980   3.841  0.2520 -0.2478  0.4487
 4466poe    c3119021   0.647   3.399   3.195  0.4008  0.3682  0.7934
 4466poe     o219022   0.565   3.392   3.309 -0.3435 -0.3860  0.2226
 4466poe    c2319023   0.527   3.524   3.339  0.3780 -0.1772  0.2386
 4466poe    c2319024   0.479   3.529   3.486 -0.5107 -0.0754 -0.0502
 4466poe     o219025   0.390   3.433   3.538  0.1714 -0.6269  0.1182
 4466poe    c2319026   0.361   3.471   3.670  0.0824 -0.0304 -0.0698
 4466poe    c2319027   0.275   3.366   3.744  0.1041 -0.0038 -0.0062
 4466poe     o219028   0.185   3.330   3.641  0.4436 -0.0252 -0.2984
 4466poe    c2319029   0.118   3.213   3.682 -0.0011  0.2417 -0.2638
 4466poe    c2319030   0.028   3.161   3.567 -0.1703  0.3789 -0.1941
 4466poe     o219031   0.101   3.147   3.448 -0.0204  0.0221 -0.0628
 4466poe    c3119032   0.013   3.116   3.343 -0.4510  0.1662  0.2565
 4467poe    c3119033   3.405   5.238   2.436 -0.3015 -0.1766  0.3152
 4467poe     o219034   3.434   5.256   2.572  0.0727  0.3623  0.1657
 4467poe    c2319035   3.430   5.128   2.630 -0.1452  0.2901 -0.0065
 4467poe    c2319036   3.461   5.109   2.780 -0.9465 -0.4253  0.0758
 4467poe     o219037   3.378   5.169   2.878  0.0160  0.2763  0.4745
 4467poe    c2319038   3.440   5.139   3.001 -0.0464  0.6795  0.6051
 4467poe    c2319039   3.347   5.172   3.120 -0.1476  0.7695  0.5009
 4467poe     o219040   3.296   5.303   3.111 -0.1136  0.7700  0.3081
 4467poe    c2319041   3.163   5.308   3.158 -0.3890  0.0773 -0.3651
 4467poe    c2319042   3.118   5.452   3.189  0.2949  0.2055  0.0667
 4467poe     o219043   3.106   5.537   3.076 -0.0615  0.1990  0.0990
 4467poe    c3119044   3.120   5.674   3.107 -0.1424  0.3607 -0.5769
 4468poe    c3119045   4.965   3.127   3.678  0.1646 -0.2286 -0.1645
 4468poe     o219046   4.866   3.028   3.699  0.5791 -0.6591 -0.2125
 4468poe    c2319047   4.785   3.016   3.584  0.3940 -0.0018 -0.1566
 4468poe    c2319048   4.738   2.870   3.576  0.0404  0.0931  0.1632
 4468poe     o219049   4.671   2.843   3.697  0.1285 -0.1493  0.1595
 4468poe    c2319050   4.638   2.706   3.699 -0.0268 -0.1115  0.1670
 4468poe    c2319051   4.548   2.677   3.820 -0.1396 -0.0485  0.0993
 4468poe     o219052   4.612   2.718   3.940 -0.1355  0.1193  0.0403
 4468poe    c2319053   4.515   2.700   4.041 -0.2359  0.1389 -0.0514
 4468poe    c2319054   4.575   2.734   4.179 -0.3731 -0.1494  0.0796
 4468poe     o219055   4.576   2.875   4.190  0.8710 -0.1128 -0.4002
 4468poe    c3119056   4.639   2.935   4.301  0.3128 -0.2655  0.0065
 4469poe    c3119057   6.483   5.794   4.897 -0.0743 -0.2280  0.1608
 4469poe     o219058   6.464   5.878   5.009 -0.4853 -0.1143  0.0062
 4469poe    c2319059   6.527   5.826   5.123  0.2219  0.4354 -0.1239
 4469poe    c2319060   6.531   5.913   5.250  0.1120 -0.0839  0.2423
 4469poe     o219061   6.607   6.027   5.216  0.2903 -0.2834 -0.0323
 4469poe    c2319062   6.614   6.128   5.314  0.8479 -0.4487  0.1026
 4469poe    c2319063   6.708   6.246   5.280  0.1911  0.0804  0.1072
 4469poe     o219064   6.656   6.327   5.177 -0.0563 -0.1330  0.0617
 4469poe    c2319065   6.694   6.462   5.192  0.3838 -0.2837  0.3258
 4469poe    c2319066   6.629   6.556   5.089 -0.0199 -0.7005  0.1977
 4469poe     o219067   6.686   6.532   4.962  0.2446  0.2126  0.1389
 4469poe    c3119068   6.587   6.552   4.864 -0.1350 -0.2570  0.4235
 4470poe    c3119069   3.319   0.608   0.667  0.4278 -0.0094 -0.5525
 4470poe     o219070   3.259   0.609   0.539 -0.2110 -0.0609 -0.2573
 4470poe    c2319071   3.233   0.743   0.504 -0.4367  0.0791  0.4305
 4470poe    c2319072   3.197   0.763   0.356  0.2785 -0.0253  0.2400
 4470poe     o219073   3.313   0.756   0.277  0.3942  0.1656  0.3936
 4470poe    c2319074   3.310   0.770   0.137  0.4230  0.2243  0.3990
 4470poe    c2319075   3.379   0.902   0.095  0.2562  0.4155  0.7213
 4470poe     o219076   3.519   0.893   0.104  0.3042  0.6425  0.2323
 4470poe    c2319077   3.567   1.019   0.063  0.0600  0.5525 -0.3458
 4470poe    c2319078   3.720   1.035   0.072  0.1169 -0.0859 -0.0647
 4470poe     o219079   3.735   1.071   0.207 -0.2121 -0.4258  0.0620
 4470poe    c3119080   3.828   1.177   0.217 -0.6263 -0.0832  0.2890
 4471poe    c3119081   4.948   6.277   6.553  0.1879 -0.1319 -0.5472
 4471poe     o219082   4.813   6.289   6.516 -0.0434  0.6142  0.4803
 4471poe    c2319083   4.787   6.416   6.459  0.0580  0.3588 -0.1509
 4471poe    c2319084   4.633   6.425   6.454  0.0420  0.1158 -0.1389
 4471poe     o219085   4.581   6.353   6.345  0.1358 -0.1395 -0.0163
 4471poe    c2319086   4.455   6.298   6.377  0.2642 -0.5242 -0.1632
 4471poe    c2319087   4.421   6.212   6.254 -0.0555 -0.0543 -0.4080
 4471poe     o219088   4.536   6.134   6.235 -0.0343 -0.1699  0.1766
 4471poe    c2319089   4.520   6.060   6.116 -0.5300 -0.1628  0.2375
 4471poe    c2319090   4.635   5.960   6.093 -0.0660  0.3952  0.1169
 4471poe     o219091   4.630   5.862   6.194  0.7956 -0.0354 -0.2542
 4471poe    c3119092   4.720   5.758   6.161 -0.2603 -1.0811  0.0967
 4472poe    c3119093   4.573   1.751   4.245 -0.1073  0.0105 -0.0470
 4472poe     o219094   4.597   1.645   4.155  0.3992  0.1451 -0.0740
 4472poe    c2319095   4.671   1.697   4.047 -0.1697  0.1669 -0.4543
 4472poe    c2319096   4.712   1.572   3.966  0.1498 -0.4147  0.5887
 4472poe     o219097   4.594   1.498   3.945 -0.2211  0.2106  0.4569
 4472poe    c2319098   4.604   1.380   3.869 -0.1298 -0.0008  0.7957
 4472poe    c2319099   4.476   1.302   3.904 -0.1868 -0.5713 -0.6234
 4472poe     o219100   4.433   1.310   4.038 -0.0653  0.1693 -0.6261
 4472poe    c2319101   4.391   1.182   4.079 -0.0710  0.3503 -0.0626
 4472poe    c2319102   4.310   1.164   4.209 -0.4609  0.3462 -0.3050
 4472poe     o219103   4.283   1.032   4.251  0.1855  0.1950 -0.3616
 4472poe    c3119104   4.216   1.035   4.375  0.0791 -0.3012 -0.4078
 4473poe    c3119105   0.603   0.269   5.392 -0.1783 -0.3508  0.5978
 4473poe     o219106   0.668   0.372   5.463  0.3315  0.0099 -0.3692
 4473poe    c2319107   0.806   0.355   5.443  0.3399  0.0971 -0.3876
 4473poe    c2319108   0.901   0.449   5.520 -0.1235  0.1536  0.1200
 4473poe     o219109   0.890   0.582   5.474  0.0744  0.2217  0.2729
 4473poe    c2319110   1.004   0.661   5.503  0.3948 -0.1405  0.0203
 4473poe    c2319111   0.956   0.808   5.500 -0.3102 -0.3536  0.5076
 4473poe     o219112   0.857   0.831   5.597 -0.1344  0.2765  0.5381
 4473poe    c2319113   0.813   0.965   5.593  0.6072  0.5061 -0.2964
 4473poe    c2319114   0.677   0.963   5.666  0.4954  0.0566 -0.5149
 4473poe     o219115   0.603   0.853   5.620 -0.1649 -0.0158  0.6686
 4473poe    c3119116   0.467   0.872   5.654 -0.5382 -0.3172 -0.5840
 4474poe    c3119117   0.162   2.935   2.594 -0.2395  0.0808 -0.3625
 4474poe     o219118   0.206   2.967   2.464 -0.1965 -0.3393 -0.4545
 4474poe    c2319119   0.231   3.105   2.451  0.2444 -0.3665  0.0751
 4474poe    c2319120   0.314   3.136   2.325  0.1109 -0.0183  0.0735
 4474poe     o219121   0.420   3.044   2.321 -0.0847 -0.2479  0.1792
 4474poe    c2319122   0.508   3.077   2.216 -0.3996 -0.2125 -0.0770
 4474poe    c2319123   0.624   2.976   2.201 -0.2468 -0.0374 -0.0675
 4474poe     o219124   0.572   2.846   2.187 -0.2997 -0.0579  0.3035
 4474poe    c2319125   0.677   2.753   2.187 -0.1085  0.1565 -0.0447
 4474poe    c2319126   0.634   2.606   2.201 -0.5626  0.2770 -0.1648
 4474poe     o219127   0.597   2.606   2.337  0.3032  0.2402  0.0775
 4474poe    c3119128   0.609   2.482   2.402 -0.3831  0.2053  0.1502
 4475poe    c3119129   1.260   7.122   5.222  0.2281 -0.6507 -0.1805
 4475poe     o219130   1.251   7.130   5.082  0.3206  0.0198 -0.1524
 4475poe    c2319131   1.147   7.052   5.029  0.3775  0.0123 -0.2532
 4475poe    c2319132   1.143   7.075   4.876 -0.0133 -0.6848 -0.3538
 4475poe     o219133   1.255   7.020   4.809  0.0654 -0.2423 -0.5864
 4475poe    c2319134   1.292   7.092   4.694  0.1334  0.4973 -0.1074
 4475poe    c2319135   1.335   7.001   4.577 -0.0378  0.2212  0.0453
 4475poe     o219136   1.239   6.903   4.544  0.1717  0.0860 -0.1637
 4475poe    c2319137   1.152   6.939   4.439 -0.0304  0.1472  0.0233
 4475poe    c2319138   1.053   6.826   4.404  0.3720 -0.0937 -0.3577
 4475poe     o219139   1.115   6.723   4.332  0.3349 -0.1437 -0.3186
 4475poe    c3119140   1.019   6.642   4.268  0.3045 -0.4009  0.0458
 4476poe    c3119141   2.876   5.761   5.707  0.1266  0.3719 -0.1185
 4476poe     o219142   2.767   5.801   5.786 -0.0821 -0.2228 -0.1043
 4476poe    c2319143   2.657   5.854   5.716 -0.1264 -0.2043 -0.0211
 4476poe    c2319144   2.589   5.955   5.810 -0.2752 -0.0954 -0.2433
 4476poe     o219145   2.578   5.890   5.935 -0.3595  0.1004 -0.1477
 4476poe    c2319146   2.454   5.915   5.996  0.0209  0.2656  0.5600
 4476poe    c2319147   2.445   5.855   6.138  0.1452  0.0532  0.4778
 4476poe     o219148   2.490   5.721   6.142 -0.2754 -0.1056  0.1152
 4476poe    c2319149   2.493   5.659   6.269  0.2168  0.1568  0.2362
 4476poe    c2319150   2.517   5.507   6.258  0.2105  0.1540  0.2613
 4476poe     o219151   2.642   5.476   6.201 -0.2835  0.2492 -0.9062
 4476poe    c3119152   2.650   5.339   6.168 -0.3425 -0.0282  0.1803
 4477poe    c3119153   1.858   5.502   1.983  0.0984 -0.0768  0.5432
 4477poe     o219154   1.938   5.395   2.031  0.0273 -0.4411 -0.1292
 4477poe    c2319155   2.007   5.321   1.933  0.5041 -0.2581  0.0651
 4477poe    c2319156   1.923   5.215   1.860 -0.0668  0.1898  0.0576
 4477poe     o219157   1.891   5.097   1.931 -0.3340  0.0279 -0.3282
 4477poe    c2319158   1.778   5.039   1.870 -0.4495 -0.2123  0.1078
 4477poe    c2319159   1.751   4.895   1.917  0.2841 -0.3701  0.0612
 4477poe     o219160   1.683   4.898   2.041 -0.2045 -0.3007 -0.2078
 4477poe    c2319161   1.715   4.773   2.098  0.1291 -0.0333  0.1914
 4477poe    c2319162   1.668   4.742   2.241 -0.3445  0.2349  0.0966
 4477poe     o219163   1.719   4.834   2.335  0.0165 -0.0172  0.1485
 4477poe    c3119164   1.687   4.792   2.466 -0.2157  0.3853  0.2212
 4478poe    c3119165   7.428   2.952   5.457  0.4087  0.2045  0.2001
 4478poe     o219166   7.564   2.947   5.491  0.5184 -0.2277 -0.2927
 4478poe    c2319167   7.595   3.017   5.609  0.1286  0.0848 -0.3756
 4478poe    c2319168   7.727   2.971   5.673 -0.0461 -0.0506 -0.1114
 4478poe     o219169   7.714   2.834   5.706  0.4894 -0.0479  0.1263
 4478poe    c2319170   7.843   2.777   5.720  0.5845 -0.0176 -0.5578
 4478poe    c2319171   7.830   2.624   5.727  0.1037  0.0501  0.2695
 4478poe     o219172   7.819   2.557   5.603  0.4867  0.1072  0.2005
 4478poe    c2319173   7.857   2.421   5.607  0.5409  0.1143 -0.1044
 4478poe    c2319174   7.827   2.364   5.467  0.4929 -0.1513  0.0136
 4478poe     o219175   7.923   2.421   5.380  0.7304 -0.9626 -0.2614
 4478poe    c3119176   7.901   2.389   5.245 -0.1752  0.2846 -0.4242
 4479poe    c3119177   3.635   0.915   3.416 -0.3900  0.7758 -0.2795
 4479poe     o219178   3.741   0.951   3.502 -0.4454 -0.0781  0.1581
 4479poe    c2319179   3.851   0.867   3.474 -0.3999 -0.1569  0.5601
 4479poe    c2319180   3.978   0.914   3.548 -0.3253 -0.1050  0.3999
 4479poe     o219181   3.984   0.898   3.688 -0.5455  0.2241  0.4477
 4479poe    c2319182   4.116   0.868   3.726 -0.3447  0.1684 -0.2734
 4479poe    c2319183   4.138   0.910   3.873  0.4398 -0.8034 -0.1007
 4479poe     o219184   4.034   0.856   3.951 -0.0998  0.1420 -0.1473
 4479poe    c2319185   4.006   0.933   4.066  0.3475  0.0309  0.0362
 4479poe    c2319186   3.877   0.897   4.142  0.1395  0.2997 -0.1880
 4479poe     o219187   3.755   0.936   4.083  0.2004  0.5871 -0.1270
 4479poe    c3119188   3.651   0.903   4.171  0.5735  0.0979  0.1355
 4480poe    c3119189   2.985   7.187   5.159 -0.1608  0.2583  0.1293
 4480poe     o219190   3.105   7.157   5.091  0.0143  0.0871  0.5175
 4480poe    c2319191   3.101   7.020   5.056  0.4908  0.1674  0.1498
 4480poe    c2319192   3.201   6.971   4.949  0.4124  0.5208 -0.0885
 4480poe     o219193   3.331   6.981   5.000  0.3439 -0.1235  0.2222
 4480poe    c2319194   3.420   6.897   4.930  0.2372  0.2334 -0.3394
 4480poe    c2319195   3.560   6.937   4.980 -0.0244 -0.3812  0.9187
 4480poe     o219196   3.598   7.071   4.953 -0.1687 -0.4392  0.4276
 4480poe    c2319197   3.730   7.092   4.997 -0.1485 -0.2491  0.2771
 4480poe    c2319198   3.762   7.242   4.988 -0.3580 -0.1647  0.9164
 4480poe     o219199   3.685   7.317   5.080 -0.7684  0.3895  0.1310
 4480poe    c3119200   3.720   7.452   5.065 -0.3039  0.2230 -0.3228
 4481poe    c3119201   2.586   0.805   7.148 -0.8798 -0.2886 -0.5712
 4481poe     o219202   2.575   0.922   7.070 -0.4305  0.0136 -0.1879
 4481poe    c2319203   2.701   0.962   7.021 -0.5606  0.2324 -0.3445
 4481poe    c2319204   2.701   1.091   6.937  0.0772  0.4473 -0.0200
 4481poe     o219205   2.735   1.205   7.013 -0.2249  0.3917  0.1976
 4481poe    c2319206   2.706   1.326   6.947  0.1698  0.0201 -0.6763
 4481poe    c2319207   2.692   1.440   7.050  0.5184 -0.4925 -0.0507
 4481poe     o219208   2.604   1.397   7.152 -0.2264  0.4964 -0.2629
 4481poe    c2319209   2.568   1.497   7.244 -0.0063 -0.0601  0.4300
 4481poe    c2319210   2.658   1.520   7.367  0.1670  0.3182  0.2358
 4481poe     o219211   2.622   1.443   7.480  0.6356  0.1392  0.2667
 4481poe    c3119212   2.698   1.481   7.593  0.2548  0.6167  0.3687
 4482poe    c3119213   1.522   6.713   3.017  0.5998  0.2650 -0.8662
 4482poe     o219214   1.495   6.849   3.044  0.2580 -0.0424  0.4423
 4482poe    c2319215   1.619   6.915   3.062  0.1618  0.5277 -0.8518
 4482poe    c2319216   1.609   7.051   3.132 -0.5769  0.2754 -0.4545
 4482poe     o219217   1.540   7.029   3.253  0.2501 -0.0527 -0.0284
 4482poe    c2319218   1.493   7.162   3.264  0.3692  0.0096 -0.2669
 4482poe    c2319219   1.381   7.176   3.368  0.3633 -0.3533 -0.2238
 4482poe     o219220   1.430   7.181   3.500  0.5004  0.4419 -0.3009
 4482poe    c2319221   1.334   7.213   3.599  0.3979 -0.3612 -0.1388
 4482poe    c2319222   1.392   7.214   3.742  0.5677 -0.5542 -0.2050
 4482poe     o219223   1.386   7.091   3.811  0.2076 -0.3123  0.2056
 4482poe    c3119224   1.446   7.087   3.939 -0.8239 -0.3168  0.6960
 4483poe    c3119225   0.437   0.664   2.035  0.2012  0.3229  0.5503
 4483poe     o219226   0.552   0.628   1.962 -0.0735  0.2086  0.1699
 4483poe    c2319227   0.665   0.664   2.038  0.0026  0.3865 -0.0276
 4483poe    c2319228   0.801   0.651   1.966 -0.1368 -0.0012 -0.2218
 4483poe     o219229   0.823   0.766   1.887  0.4950 -0.1120 -0.2128
 4483poe    c2319230   0.962   0.776   1.871  0.4070 -0.1395 -1.0615
 4483poe    c2319231   0.998   0.909   1.802  0.2092  0.5398  0.1136
 4483poe     o219232   0.966   0.913   1.665  0.4350  0.6677  0.0631
 4483poe    c2319233   1.063   0.859   1.578 -0.0788 -0.0476 -0.0718
 4483poe    c2319234   1.015   0.843   1.433 -0.2410  0.0880 -0.0331
 4483poe     o219235   0.920   0.739   1.419  0.1288 -0.2117 -0.3268
 4483poe    c3119236   0.785   0.769   1.444  0.1396  0.0065 -0.5286
 4484poe    c3119237   2.116   6.898   3.930 -0.5391  1.0484 -0.4432
 4484poe     o219238   2.205   6.964   4.016 -0.1125 -0.2616  0.1459
 4484poe    c2319239   2.276   6.870   4.094  0.4151 -0.1204 -0.1563
 4484poe    c2319240   2.341   6.939   4.216  0.3845 -0.0826 -0.1613
 4484poe     o219241   2.464   6.998   4.177  0.1706  0.3361 -0.2148
 4484poe    c2319242   2.553   7.026   4.283 -0.2333  0.2730  0.1475
 4484poe    c2319243   2.688   7.059   4.216 -0.3043  0.4605  0.0940
 4484poe     o219244   2.744   6.955   4.140 -0.0727  0.3421  0.4191
 4484poe    c2319245   2.807   6.856   4.218  0.4280  0.4475  0.1509
 4484poe    c2319246   2.901   6.765   4.138  0.5260  0.2971  0.4352
 4484poe     o219247   3.011   6.842   4.094  0.6274  0.0502  0.2512
 4484poe    c3119248   3.092   6.758   4.015  0.0608 -0.1831 -0.0923
 4485poe    c3119249   3.565   2.653   3.055 -0.0974  0.2770 -0.2850
 4485poe     o219250   3.442   2.642   3.122 -0.1363 -0.0594 -0.4088
 4485poe    c2319251   3.390   2.763   3.172  0.2864 -0.0789  0.0869
 4485poe    c2319252   3.292   2.730   3.286  0.3817  0.2874  0.2786
 4485poe     o219253   3.355   2.674   3.399  0.1169  0.1814  0.3741
 4485poe    c2319254   3.277   2.694   3.515  0.0780 -0.5460  0.4775
 4485poe    c2319255   3.280   2.838   3.571  0.0193 -0.1474 -0.5279
 4485poe     o219256   3.416   2.865   3.597  0.0548 -0.3144 -0.5345
 4485poe    c2319257   3.439   3.004   3.612  0.2400 -0.4376  0.3454
 4485poe    c2319258   3.582   3.047   3.651  0.1232 -0.0388  0.3370
 4485poe     o219259   3.617   3.025   3.786  0.2262 -0.1347  0.2952
 4485poe    c3119260   3.738   3.085   3.828  0.5123 -0.4236 -0.1034
 4486poe    c3119261   4.995   1.280   1.140  0.1261  0.4650 -0.1871
 4486poe     o219262   5.070   1.171   1.091 -0.2463  0.2084 -0.1919
 4486poe    c2319263   4.992   1.066   1.041  0.0859  0.1144 -0.5175
 4486poe    c2319264   4.944   0.954   1.135  0.6052  0.6163  0.3488
 4486poe     o219265   5.045   0.877   1.197  0.3765  0.0490  0.0232
 4486poe    c2319266   5.000   0.774   1.282 -0.1363  0.3899  0.1747
 4486poe    c2319267   5.120   0.695   1.339 -0.3598 -0.5351 -0.6121
 4486poe     o219268   5.208   0.642   1.243  0.4876 -0.0235 -0.1323
 4486poe    c2319269   5.276   0.527   1.288  0.2002 -0.0187  0.3225
 4486poe    c2319270   5.403   0.478   1.216  0.0409  0.2245 -0.1314
 4486poe     o219271   5.506   0.574   1.222  0.1435  0.1274 -0.3189
 4486poe    c3119272   5.623   0.520   1.166  0.0920  0.0103 -0.3118
 4487poe    c3119273   0.700   3.398   2.795  0.3932 -0.1449 -0.3844
 4487poe     o219274   0.607   3.502   2.776  0.0183 -0.3716  0.2095
 4487poe    c2319275   0.630   3.557   2.649 -1.2745 -0.6152 -0.1489
 4487poe    c2319276   0.563   3.696   2.648 -0.2971 -0.1319 -0.6546
 4487poe     o219277   0.430   3.679   2.693  0.0128  0.0504  0.3578
 4487poe    c2319278   0.356   3.799   2.695 -0.2191 -0.0806 -0.0697
 4487poe    c2319279   0.229   3.775   2.778  0.0159  0.2577  0.3968
 4487poe     o219280   0.271   3.742   2.908  0.3044  0.5365  0.3741
 4487poe    c2319281   0.176   3.776   3.007 -0.3341 -0.5634  0.1487
 4487poe    c2319282   0.220   3.749   3.153  0.2413  0.4064  0.1610
 4487poe     o219283   0.349   3.797   3.182  0.4753  0.1476 -0.4369
 4487poe    c3119284   0.338   3.906   3.271 -0.0319 -0.5277  0.3421
 4488poe    c3119285   4.555   4.504   4.126  0.1138  0.1289  0.1799
 4488poe     o219286   4.693   4.524   4.103  0.1014  0.0567  0.0442
 4488poe    c2319287   4.719   4.615   3.998  0.0707  0.0919  0.0663
 4488poe    c2319288   4.859   4.589   3.938  0.0234  0.1991 -0.0929
 4488poe     o219289   4.946   4.550   4.042 -0.2369  0.7372  0.3302
 4488poe    c2319290   5.079   4.538   4.000 -0.4156 -0.5033  0.0929
 4488poe    c2319291   5.160   4.490   4.122 -0.2743 -0.2471  0.1012
 4488poe     o219292   5.111   4.380   4.196  0.1539 -0.5224 -0.0212
 4488poe    c2319293   5.183   4.372   4.317  0.0136  0.6816  0.1515
 4488poe    c2319294   5.126   4.273   4.420  0.7056  0.3943  0.2596
 4488poe     o219295   5.007   4.329   4.471  0.2931 -0.4036  0.1893
 4488poe    c3119296   4.941   4.234   4.553 -0.2241 -0.3774 -0.1933
 4489poe    c3119297   6.981   0.728   6.229  0.2879  0.0377  0.1502
 4489poe     o219298   6.985   0.681   6.362  0.2346 -0.1482  0.0868
 4489poe    c2319299   6.905   0.568   6.387 -0.1016  0.1134  0.2015
 4489poe    c2319300   6.926   0.501   6.524 -0.3292  0.0713  0.2163
 4489poe     o219301   7.057   0.453   6.540 -0.3029 -0.0764 -0.3967
 4489poe    c2319302   7.077   0.391   6.666  0.0334  0.3159 -0.2533
 4489poe    c2319303   7.227   0.377   6.696  0.0269  0.2244 -0.2598
 4489poe     o219304   7.299   0.294   6.608  0.2291 -0.4373  0.5155
 4489poe    c2319305   7.424   0.267   6.667  0.6195 -0.0267 -0.1179
 4489poe    c2319306   7.504   0.204   6.551  0.9821  0.2972 -0.0477
 4489poe     o219307   7.494   0.278   6.432 -0.0202 -0.0154 -0.1643
 4489poe    c3119308   7.611   0.269   6.354 -0.3681 -0.5064 -0.6379
 4490poe    c3119309   4.937   1.601   4.828 -0.1498  0.1984  0.8554
 4490poe     o219310   4.882   1.477   4.867 -0.1481 -0.0149  0.1870
 4490poe    c2319311   4.985   1.383   4.844  0.0492 -0.0220  1.0912
 4490poe    c2319312   4.957   1.243   4.901 -0.3496 -0.2908  0.2437
 4490poe     o219313   4.944   1.240   5.041 -0.5589  0.0756  0.2337
 4490poe    c2319314   4.950   1.101   5.067  0.5642  0.1359  0.3404
 4490poe    c2319315   4.957   1.070   5.218 -0.0778  0.2527  0.3978
 4490poe     o219316   4.844   1.122   5.283 -0.2084  0.7559 -0.2172
 4490poe    c2319317   4.847   1.083   5.418 -0.0276  0.2830 -0.3562
 4490poe    c2319318   4.722   1.124   5.499 -0.0223 -0.2708 -0.0588
 4490poe     o219319   4.724   1.259   5.538 -0.2145 -0.1552 -0.4421
 4490poe    c3119320   4.601   1.302   5.593  0.0679  0.1653 -0.0518
 4491poe    c3119321   4.409   4.203   0.097 -0.1104  0.0272 -0.0740
 4491poe     o219322   4.486   4.319   0.118  0.0163 -0.0753  0.0324
 4491poe    c2319323   4.507   4.326   0.257 -0.4403  0.3566  0.0790
 4491poe    c2319324   4.513   4.469   0.315  0.2974  0.2475  0.2755
 4491poe     o219325   4.611   4.549   0.254 -0.0886  0.0020 -0.6751
 4491poe    c2319326   4.647   4.654   0.341  0.1866 -0.4115 -0.2879
 4491poe    c2319327   4.707   4.766   0.255  0.0123  0.1855  0.3595
 4491poe     o219328   4.831   4.722   0.205 -0.3886 -0.0371 -0.4582
 4491poe    c2319329   4.889   4.796   0.100  1.4098  0.2989  0.7266
 4491poe    c2319330   5.005   4.714   0.041  0.5755 -0.3719 -0.0266
 4491poe     o219331   4.961   4.591  -0.011 -0.1095 -0.1343 -0.0200
 4491poe    c3119332   5.069   4.503  -0.036  0.1646  0.2356 -0.1572
 4492poe    c3119333   3.542   3.378   0.867  0.2367 -0.2106  0.0935
 4492poe     o219334   3.510   3.424   0.738 -0.0670 -0.3602  0.1154
 4492poe    c2319335   3.572   3.549   0.713  0.0804 -0.4396  0.0832
 4492poe    c2319336   3.512   3.599   0.580  0.0306 -0.3654  0.1334
 4492poe     o219337   3.379   3.640   0.600  0.0655 -0.1076 -0.1541
 4492poe    c2319338   3.327   3.708   0.488  0.4173  0.4164  0.0005
 4492poe    c2319339   3.174   3.719   0.506  0.4674  1.0801  0.0585
 4492poe     o219340   3.136   3.812   0.604  0.0107  0.6680  0.2746
 4492poe    c2319341   3.010   3.864   0.570 -0.2921 -0.2416 -0.0081
 4492poe    c2319342   2.917   3.869   0.693 -0.5763 -0.2585 -0.2220
 4492poe     o219343   2.878   3.740   0.734  0.5918 -0.6760 -0.3848
 4492poe    c3119344   2.797   3.749   0.849  0.3741 -0.0572 -0.5780
 4493poe    c3119345   6.163   2.783   5.699  0.0468  0.2612 -0.0739
 4493poe     o219346   6.113   2.851   5.812 -0.6791  0.6147 -0.6001
 4493poe    c2319347   6.180   2.974   5.819  0.1718  0.1412 -0.2993
 4493poe    c2319348   6.199   3.039   5.958  0.3668  0.1097 -0.3107
 4493poe     o219349   6.079   3.089   6.011  0.2877  0.1005 -0.4800
 4493poe    c2319350   6.103   3.167   6.126  0.3068 -0.5027 -0.0660
 4493poe    c2319351   5.976   3.218   6.196  0.1745 -0.2844 -0.4579
 4493poe     o219352   5.908   3.121   6.273 -0.2637  0.0047 -0.4809
 4493poe    c2319353   5.809   3.184   6.352  0.1070 -0.4377  0.3478
 4493poe    c2319354   5.708   3.089   6.418 -0.8159  0.2625 -0.0313
 4493poe     o219355   5.769   3.015   6.522 -0.3383  0.4694 -0.1617
 4493poe    c3119356   5.681   2.924   6.585  0.3586 -0.2709 -0.2424
 4494poe    c3119357   7.371   1.562   3.821  0.4214 -0.1492  0.5743
 4494poe     o219358   7.266   1.480   3.777  0.2792  0.2079  0.2416
 4494poe    c2319359   7.321   1.351   3.759  0.3703  0.3155 -0.2849
 4494poe    c2319360   7.210   1.247   3.736  0.6529 -0.0353 -0.0704
 4494poe     o219361   7.147   1.265   3.611  0.4401 -0.2465  0.0043
 4494poe    c2319362   7.032   1.186   3.590 -0.0869  0.5221 -0.0536
 4494poe    c2319363   6.954   1.245   3.471 -0.7306 -0.3939 -0.0923
 4494poe     o219364   7.045   1.281   3.369 -0.2065 -1.0013  0.1518
 4494poe    c2319365   6.972   1.349   3.269 -0.1482 -0.2950  0.5770
 4494poe    c2319366   7.079   1.413   3.178 -0.2530 -0.4658  0.3308
 4494poe     o219367   7.192   1.431   3.260 -0.0987 -0.3388  0.0901
 4494poe    c3119368   7.301   1.480   3.185  0.3678 -0.5892  0.5935
 4495poe    c3119369   7.388   7.103   4.975 -0.2020 -0.2662 -0.3438
 4495poe     o219370   7.313   7.208   5.032 -0.0214 -0.0338 -0.5255
 4495poe    c2319371   7.223   7.269   4.942 -0.1578  0.1014 -0.3020
 4495poe    c2319372   7.154   7.396   4.994  0.1745  0.1071  0.1339
 4495poe     o219373   7.255   7.486   5.034 -0.1014  0.5700 -0.2053
 4495poe    c2319374   7.199   7.613   5.060 -0.5730  0.3027  0.1047
 4495poe    c2319375   7.283   7.692   5.162  0.2417 -0.0791 -0.2572
 4495poe     o219376   7.266   7.662   5.299  0.3796 -0.0454 -0.2334
 4495poe    c2319377   7.343   7.747   5.381  0.1232  0.0182 -0.0594
 4495poe    c2319378   7.310   7.737   5.531  0.3693  0.2207  0.0079
 4495poe     o219379   7.319   7.607   5.583 -0.2745 -0.0431 -0.5254
 4495poe    c3119380   7.451   7.565   5.609 -0.1743  0.5669 -0.0194
 4496poe    c3119381   3.335   6.406   4.616 -0.6325 -0.1024  0.3152
 4496poe     o219382   3.254   6.292   4.630  0.0240 -0.6941 -0.5931
 4496poe    c2319383   3.197   6.273   4.757 -0.6889 -0.1701 -0.8295
 4496poe    c2319384   3.097   6.156   4.741 -0.4443 -0.4409 -0.3958
 4496poe     o219385   3.151   6.028   4.722  0.5435 -0.0214 -0.4546
 4496poe    c2319386   3.195   5.972   4.844  0.2943  0.2211 -0.2533
 4496poe    c2319387   3.240   5.825   4.832  0.5411  0.2574  0.2096
 4496poe     o219388   3.379   5.820   4.857  0.5601  0.0507  0.0619
 4496poe    c2319389   3.440   5.693   4.869  0.4054 -0.0021  0.2991
 4496poe    c2319390   3.592   5.713   4.874  0.3684  0.2535  0.4439
 4496poe     o219391   3.674   5.598   4.871 -0.3516 -0.2617  0.0268
 4496poe    c3119392   3.803   5.637   4.828 -0.4705 -0.3005 -0.3650
 4497poe    c3119393   2.403   4.255   6.041 -0.3695  0.0767  0.4308
 4497poe     o219394   2.353   4.384   6.014 -0.0323  0.1387  0.0929
 4497poe    c2319395   2.278   4.384   5.895 -0.0837  0.5828  0.1232
 4497poe    c2319396   2.226   4.526   5.867 -0.8181  0.1860 -0.5541
 4497poe     o219397   2.146   4.573   5.973  0.1600 -0.2872  0.4023
 4497poe    c2319398   2.166   4.710   6.003 -0.1116 -0.1792  0.0961
 4497poe    c2319399   2.057   4.775   6.089  0.1336  0.2894  0.0549
 4497poe     o219400   2.046   4.713   6.215  0.4969  0.4893  0.1864
 4497poe    c2319401   1.950   4.781   6.292  0.0608  0.3377 -0.2157
 4497poe    c2319402   1.890   4.692   6.403 -0.4004  0.0782 -0.6706
 4497poe     o219403   1.825   4.586   6.336  0.1905 -0.2538 -0.7191
 4497poe    c3119404   1.782   4.488   6.427 -0.0887  0.4463 -0.0859
 4498poe    c3119405   5.087   1.170   6.280 -0.0612  0.0338 -0.0744
 4498poe     o219406   5.019   1.275   6.345 -0.2195 -0.0510 -0.1048
 4498poe    c2319407   5.109   1.353   6.420  0.0141  0.0185 -0.4569
 4498poe    c2319408   5.036   1.485   6.449 -0.0319 -0.0649 -0.1818
 4498poe     o219409   4.900   1.453   6.465 -0.1651  0.4785 -0.1857
 4498poe    c2319410   4.822   1.565   6.501 -0.2903  0.4510 -0.3708
 4498poe    c2319411   4.672   1.541   6.526 -0.1376 -0.6971 -0.4835
 4498poe     o219412   4.663   1.425   6.606  0.3287 -0.3975  0.0157
 4498poe    c2319413   4.536   1.363   6.606  0.1927 -0.1226 -0.1203
 4498poe    c2319414   4.526   1.246   6.706 -0.1477 -0.1658 -0.2055
 4498poe     o219415   4.624   1.147   6.685  0.0525 -0.0856  0.3254
 4498poe    c3119416   4.604   1.039   6.773 -0.4908 -0.2664 -0.0103
 4499poe    c3119417   4.447   5.275   0.163  0.6042 -1.1570 -0.4411
 4499poe     o219418   4.561   5.257   0.243  0.1909 -0.0675  0.4170
 4499poe    c2319419   4.670   5.291   0.160  0.1800 -0.3692  0.2802
 4499poe    c2319420   4.798   5.279   0.245  0.2450  0.0904  0.2457
 4499poe     o219421   4.826   5.152   0.298 -0.0352 -0.1669 -0.2164
 4499poe    c2319422   4.958   5.144   0.346 -0.2012 -0.7111  0.1647
 4499poe    c2319423   4.981   5.019   0.433  0.4635 -0.5388  0.2433
 4499poe     o219424   4.909   5.012   0.554 -0.4449  0.4071 -0.2280
 4499poe    c2319425   4.918   4.883   0.612  0.5505  0.4914 -0.1756
 4499poe    c2319426   4.943   4.867   0.763 -0.0789  0.8541 -0.0254
 4499poe     o219427   4.823   4.886   0.834 -0.3266  0.4545 -0.3274
 4499poe    c3119428   4.849   4.905   0.971 -0.3065 -1.2832 -0.0700
 4500poe    c3119429   3.803   1.272   5.588 -0.2427 -0.1317 -0.1190
 4500poe     o219430   3.845   1.347   5.477  0.2770 -0.3051 -0.0434
 4500poe    c2319431   3.865   1.485   5.499 -1.0196 -0.1354  0.1709
 4500poe    c2319432   3.912   1.560   5.373 -0.1542 -0.2757  0.3996
 4500poe     o219433   3.818   1.550   5.268  0.0241  0.7308  0.1284
 4500poe    c2319434   3.867   1.608   5.149  0.0326  0.0553 -0.2028
 4500poe    c2319435   3.791   1.533   5.038 -0.2101 -0.2173  0.1410
 4500poe     o219436   3.655   1.566   5.025  0.0441  0.6163 -0.5142
 4500poe    c2319437   3.614   1.486   4.916  0.8513 -0.4046 -0.0824
 4500poe    c2319438   3.464   1.504   4.884  1.0964 -0.4120 -1.2694
 4500poe     o219439   3.449   1.636   4.836 -0.1310 -0.0624  0.0226
 4500poe    c3119440   3.312   1.660   4.812 -0.1900 -0.4128  0.0107
 4501poe    c3119441   2.163   5.953   4.744 -0.0768 -0.1795  0.1190
 4501poe     o219442   2.165   6.092   4.718  0.5387 -0.2423 -0.1791
 4501poe    c2319443   2.114   6.125   4.591 -0.0405 -0.1858  0.0650
 4501poe    c2319444   2.140   6.273   4.558 -0.1753 -0.0324  0.6411
 4501poe     o219445   2.046   6.352   4.627  0.1066  0.5370  0.3806
 4501poe    c2319446   2.098   6.483   4.630 -0.1315  0.6557 -0.3693
 4501poe    c2319447   2.051   6.554   4.759 -0.1720  0.0500 -0.0439
 4501poe     o219448   2.082   6.487   4.879  0.3180  0.2689 -0.0431
 4501poe    c2319449   2.072   6.577   4.986 -0.4677 -0.3780  0.4395
 4501poe    c2319450   2.056   6.497   5.117 -0.3771 -0.2252  0.5438
 4501poe     o219451   2.173   6.427   5.154 -0.0895  0.2713  0.5875
 4501poe    c3119452   2.170   6.362   5.279 -0.1978  0.1005  0.4958
 4502poe    c3119453   0.129   7.003   2.318 -0.3729  0.0589 -0.6447
 4502poe     o219454   0.142   6.864   2.296  0.0284  0.0686 -0.4643
 4502poe    c2319455   0.033   6.815   2.222 -0.3956  0.0905  0.1325
 4502poe    c2319456   0.036   6.662   2.208  0.0086  0.1177 -0.0972
 4502poe     o219457   0.153   6.631   2.135  0.2967  0.0186  0.4043
 4502poe    c2319458   0.167   6.492   2.121  0.2005 -0.0197  0.6876
 4502poe    c2319459   0.282   6.456   2.025  0.0720  0.3292  0.4023
 4502poe     o219460   0.273   6.487   1.888  0.2870 -0.2218  0.2616
 4502poe    c2319461   0.198   6.381   1.832 -0.4917  0.2353  0.4235
 4502poe    c2319462   0.140   6.424   1.696 -0.2099 -0.4266  0.0923
 4502poe     o219463   0.251   6.478   1.628 -0.2349  0.4301  0.7278
 4502poe    c3119464   0.242   6.450   1.490  0.0213  0.0945  0.7782
 4503poe    c3119465   0.885   1.079   0.021 -0.1007  0.2541  0.0855
 4503poe     o219466   0.980   0.975   0.006  0.0545  0.4333 -0.1710
 4503poe    c2319467   1.078   1.019  -0.086  0.4391 -0.6129 -0.2714
 4503poe    c2319468   1.178   0.908  -0.124  0.7723 -0.3296 -0.2323
 4503poe     o219469   1.237   0.861  -0.005  0.5540 -0.0201  0.0004
 4503poe    c2319470   1.332   0.761  -0.036  0.8674  0.2485  0.0851
 4503poe    c2319471   1.391   0.689   0.086  0.1656 -0.2142  0.1559
 4503poe     o219472   1.308   0.624   0.179 -0.1508  0.1510  0.1304
 4503poe    c2319473   1.384   0.561   0.280  0.1060  0.3680  0.0713
 4503poe    c2319474   1.290   0.512   0.391  0.3756  0.0854  0.1748
 4503poe     o219475   1.249   0.604   0.489 -0.5486 -0.2070  0.0744
 4503poe    c3119476   1.130   0.576   0.559 -0.6362  0.3018  0.1324
 4504poe    c3119477   2.163   3.305   5.534 -0.4337  0.7540  0.3239
 4504poe     o219478   2.258   3.395   5.587  0.3162 -0.1558  0.5351
 4504poe    c2319479   2.257   3.405   5.727  0.1209  0.2612  0.5057
 4504poe    c2319480   2.335   3.522   5.791  0.5871  0.0547  0.3199
 4504poe     o219481   2.278   3.644   5.751  0.4200 -0.3376 -0.6947
 4504poe    c2319482   2.329   3.745   5.835  0.2124 -0.2580 -0.6628
 4504poe    c2319483   2.258   3.877   5.799  0.0570 -0.0214  0.4643
 4504poe     o219484   2.296   3.928   5.673 -0.4725 -0.4601  0.1231
 4504poe    c2319485   2.216   4.029   5.616 -0.1338  0.0241  0.4921
 4504poe    c2319486   2.083   3.982   5.553  0.4526 -0.5959 -0.2954
 4504poe     o219487   2.097   3.910   5.432  0.0059  0.1504 -0.7986
 4504poe    c3119488   1.969   3.873   5.386 -0.3893 -0.1794  0.5113
 4505poe    c3119489   0.349   1.528   1.833 -0.8177  0.3194 -0.3787
 4505poe     o219490   0.308   1.393   1.839  0.0888  0.0482 -0.1889
 4505poe    c2319491   0.178   1.390   1.786  0.0407  0.2350 -0.0804
 4505poe    c2319492   0.128   1.244   1.784 -0.5866  0.4414  0.2741
 4505poe     o219493   0.116   1.194   1.915  0.0512  0.1112  0.2052
 4505poe    c2319494   0.048   1.071   1.922 -0.3090  0.3071  0.1424
 4505poe    c2319495   0.032   1.013   2.064  0.1850 -0.1579  0.0095
 4505poe     o219496   0.150   0.955   2.115  0.0632 -0.7268 -0.3493
 4505poe    c2319497   0.133   0.925   2.251 -0.4070 -0.0906 -0.2649
 4505poe    c2319498   0.259   0.854   2.304 -0.1086 -0.1713 -1.0817
 4505poe     o219499   0.371   0.940   2.305  0.1330 -0.4871  0.0152
 4505poe    c3119500   0.477   0.859   2.350  0.7008  0.0694 -0.3103
 4506poe    c3119501   5.703   4.471   1.513 -0.1857 -0.0336  0.1263
 4506poe     o219502   5.654   4.551   1.618  0.4522  0.8372 -0.2316
 4506poe    c2319503   5.755   4.594   1.707  0.2439  0.3152  0.2649
 4506poe    c2319504   5.696   4.648   1.838 -0.3140  0.0448  0.1306
 4506poe     o219505   5.607   4.556   1.897 -0.2273 -0.2625 -0.2128
 4506poe    c2319506   5.524   4.617   1.994  0.0443  0.3654 -0.3691
 4506poe    c2319507   5.409   4.519   2.025  0.1680  0.1709 -0.5184
 4506poe     o219508   5.307   4.503   1.929 -0.5041 -0.4412  0.2802
 4506poe    c2319509   5.216   4.606   1.900 -0.1760 -0.2399 -0.0442
 4506poe    c2319510   5.106   4.594   1.793 -0.0034 -0.2744 -0.2170
 4506poe     o219511   5.170   4.612   1.668 -0.2888  0.2591 -0.2902
 4506poe    c3119512   5.083   4.576   1.563 -0.0568  0.1124 -0.4327
 4507poe    c3119513   7.149   1.972   2.499 -0.0549  0.4699 -0.4702
 4507poe     o219514   7.062   2.075   2.540  0.3168  0.4679  0.3423
 4507poe    c2319515   7.047   2.181   2.448  0.2476 -0.1270 -0.3402
 4507poe    c2319516   7.166   2.265   2.396  0.2997  0.0546  0.0713
 4507poe     o219517   7.210   2.367   2.483 -0.1494 -0.1056  0.4959
 4507poe    c2319518   7.351   2.365   2.476 -0.1653  0.1547  0.0626
 4507poe    c2319519   7.433   2.485   2.528  0.1068  0.0808 -0.1934
 4507poe     o219520   7.428   2.487   2.669  0.0066 -0.1584 -0.1934
 4507poe    c2319521   7.518   2.576   2.731 -0.0874 -0.2541  0.0803
 4507poe    c2319522   7.611   2.512   2.836 -0.1951 -0.0399  0.3046
 4507poe     o219523   7.528   2.484   2.947 -0.2915 -0.2591  0.1769
 4507poe    c3119524   7.608   2.447   3.057  0.0140  0.1575  0.0975
 4508poe    c3119525   3.117   7.140   7.397  0.5822 -0.2323  0.0360
 4508poe     o219526   3.232   7.178   7.469  0.5178 -0.2212  0.1320
 4508poe    c2319527   3.330   7.078   7.454  0.0771 -0.6042 -0.2053
 4508poe    c2319528   3.445   7.096   7.555  0.4933 -0.4704 -0.6997
 4508poe     o219529   3.521   7.213   7.530 -0.4314  0.3592  0.2551
 4508poe    c2319530   3.650   7.193   7.583 -0.3506  0.2284  0.0117
 4508poe    c2319531   3.737   7.320   7.575 -0.1641  0.1049  0.0896
 4508poe     o219532   3.646   7.426   7.553 -0.3817 -0.1264 -0.1320
 4508poe    c2319533   3.714   7.548   7.538 -0.3426 -0.1352 -0.0270
 4508poe    c2319534   3.607   7.650   7.492  0.1042  0.3873  0.0789
 4508poe     o219535   3.535   7.597   7.383 -0.0413  0.3274  0.2039
 4508poe    c3119536   3.427   7.683   7.356 -0.2696  0.1446  0.5315
 4509poe    c3119537   2.306   7.430   5.544 -0.3170 -0.2134 -0.3385
 4509poe     o219538   2.190   7.508   5.526 -0.4574 -0.4432 -0.4235
 4509poe    c2319539   2.091   7.441   5.600 -0.4313 -0.6162 -0.5428
 4509poe    c2319540   1.944   7.486   5.584 -0.3172  0.0459  0.2155
 4509poe     o219541   1.924   7.624   5.605 -0.0102  0.1043  0.1444
 4509poe    c2319542   1.807   7.677   5.547  0.2179  0.0358 -0.3758
 4509poe    c2319543   1.748   7.789   5.635  0.8052  0.0028  0.0629
 4509poe     o219544   1.804   7.917   5.615 -0.0028  0.3989  0.2923
 4509poe    c2319545   1.711   8.001   5.679 -0.4818 -0.3304  0.5664
 4509poe    c2319546   1.741   8.150   5.657  0.2744 -0.6225 -0.4598
 4509poe     o219547   1.837   8.196   5.750 -0.5605  0.0482  0.0833
 4509poe    c3119548   1.841   8.337   5.757  0.2586  0.0619 -0.4308
 4510poe    c3119549   2.806   6.118   3.523  0.3833  0.2923  0.1777
 4510poe     o219550   2.856   6.093   3.652  0.4754 -0.4443  0.0034
 4510poe    c2319551   2.818   6.191   3.746  0.3233 -0.7578  0.2756
 4510poe    c2319552   2.683   6.166   3.814 -0.0845 -0.3043 -0.3484
 4510poe     o219553   2.692   6.080   3.926 -0.2292  0.0461 -0.0640
 4510poe    c2319554   2.562   6.068   3.979 -0.1794  0.8854  0.2656
 4510poe    c2319555   2.552   5.983   4.107 -0.2102  0.1988 -0.1895
 4510poe     o219556   2.580   5.849   4.073  0.0818  0.0698  0.5595
 4510poe    c2319557   2.699   5.825   4.146  0.3198 -0.2929  0.0592
 4510poe    c2319558   2.773   5.707   4.080 -0.5062 -0.2515 -0.9582
 4510poe     o219559   2.843   5.749   3.965  0.6047 -0.0470 -0.2209
 4510poe    c3119560   2.915   5.635   3.923  0.7143 -0.1635  0.2755
 4511poe    c3119561   3.853   5.991   7.270  0.1636 -0.3608  0.9181
 4511poe     o219562   3.920   6.104   7.322  0.0312  0.0828  0.1447
 4511poe    c2319563   4.026   6.071   7.408 -0.2769 -0.1094  0.4543
 4511poe    c2319564   4.105   6.197   7.449 -0.1730  0.1339 -0.4676
 4511poe     o219565   4.138   6.283   7.342  0.1742  0.6021  0.0088
 4511poe    c2319566   4.150   6.414   7.393  0.0774  0.6456 -0.0824
 4511poe    c2319567   4.192   6.504   7.275  0.2899  0.5455 -0.0822
 4511poe     o219568   4.083   6.521   7.189  0.0812 -0.0667  0.0578
 4511poe    c2319569   4.093   6.649   7.131  0.4686 -0.2634 -0.3214
 4511poe    c2319570   3.962   6.677   7.055  0.0478 -0.4204  0.3358
 4511poe     o219571   3.907   6.566   6.989 -0.0729 -0.5637  0.6722
 4511poe    c3119572   3.815   6.608   6.891  0.4486 -0.6888  0.1186
 4512poe    c3119573   1.582   3.166   3.410 -0.1737  0.0537  0.8146
 4512poe     o219574   1.642   3.063   3.485  0.8410  0.2922  0.3393
 4512poe    c2319575   1.666   2.946   3.410  0.0891  0.5290 -0.2903
 4512poe    c2319576   1.686   2.820   3.498 -0.1894  0.6351 -0.0734
 4512poe     o219577   1.818   2.816   3.548 -0.2372 -0.1696  0.0027
 4512poe    c2319578   1.847   2.690   3.602  0.2441 -0.2072 -0.3319
 4512poe    c2319579   1.999   2.675   3.620  0.1135 -0.7191  0.3861
 4512poe     o219580   2.064   2.769   3.703  0.1335  0.1307 -0.5816
 4512poe    c2319581   2.204   2.753   3.702  0.1014 -0.2689  0.4334
 4512poe    c2319582   2.272   2.889   3.720  0.1173 -0.1746 -0.3127
 4512poe     o219583   2.238   2.972   3.611 -0.1273  0.1327 -0.0020
 4512poe    c3119584   2.297   3.099   3.632 -0.1283  0.1697 -0.2205
 4513poe    c3119585   1.478   2.231   2.186 -0.7734 -0.4346  0.5241
 4513poe     o219586   1.489   2.355   2.252 -0.4456  0.0237 -0.3783
 4513poe    c2319587   1.424   2.354   2.377 -0.2782  0.0268 -0.2920
 4513poe    c2319588   1.395   2.494   2.436  0.2887  0.1753 -0.3579
 4513poe     o219589   1.310   2.589   2.376 -0.1866 -0.3504 -0.5310
 4513poe    c2319590   1.353   2.667   2.266  0.5296  0.1760  0.1073
 4513poe    c2319591   1.334   2.820   2.276 -0.2452  0.1229 -0.4708
 4513poe     o219592   1.201   2.849   2.314 -0.1937 -0.1974 -0.0309
 4513poe    c2319593   1.177   2.987   2.332  0.5220  0.0338 -0.7673
 4513poe    c2319594   1.030   3.020   2.364  0.4693 -0.3114 -0.6429
 4513poe     o219595   0.999   2.978   2.495  0.6458  0.0165 -0.4958
 4513poe    c3119596   1.021   3.083   2.587 -0.1936  0.3965 -0.7229
 4514poe    c3119597   3.614   4.500   3.008  0.1114  0.0583  0.0822
 4514poe     o219598   3.588   4.631   3.053  0.6039  0.0743  0.3235
 4514poe    c2319599   3.554   4.739   2.969  0.2020 -0.2767  0.0343
 4514poe    c2319600   3.411   4.734   2.910  0.1215  1.0400  0.0911
 4514poe     o219601   3.305   4.775   2.993 -0.5702  0.7980 -0.6623
 4514poe    c2319602   3.171   4.750   2.955 -0.5837 -0.2124  0.0139
 4514poe    c2319603   3.075   4.848   3.026 -0.1524  0.2350 -0.0139
 4514poe     o219604   3.044   4.798   3.154  0.3190  0.1934  0.0870
 4514poe    c2319605   2.960   4.885   3.227 -0.2296  0.1402 -0.4694
 4514poe    c2319606   2.957   4.838   3.374  0.8981  0.0455 -0.4662
 4514poe     o219607   3.072   4.860   3.452  0.7171 -0.2970 -0.0973
 4514poe    c3119608   3.053   4.859   3.592 -0.0391  0.0152 -0.1958
 4515poe    c3119609   0.006   1.694   5.374  0.2409 -0.5499  0.0148
 4515poe     o219610  -0.036   1.744   5.499  0.0276 -0.5525 -0.0564
 4515poe    c2319611  -0.175   1.771   5.497  0.1183 -0.0898 -0.5931
 4515poe    c2319612  -0.204   1.869   5.612  0.6232  0.1512 -0.6705
 4515poe     o219613  -0.132   1.833   5.728  0.1230  0.6429 -0.2045
 4515poe    c2319614  -0.121   1.932   5.828  0.4586  0.0103  0.3908
 4515poe    c2319615  -0.018   1.874   5.926  0.1133 -0.4433  0.4894
 4515poe     o219616   0.095   1.833   5.851 -0.0957 -0.2262  0.0560
 4515poe    c2319617   0.202   1.799   5.936  0.1148 -0.0388 -0.1330
 4515poe    c2319618   0.296   1.698   5.868 -0.2258 -0.4561  0.0110
 4515poe     o219619   0.324   1.746   5.738  0.4768 -0.1132  0.2825
 4515poe    c3119620   0.395   1.646   5.669 -0.0082 -0.4434  0.2523
 4516poe    c3119621   1.062   2.680   0.182  0.7907  0.1956  0.2130
 4516poe     o219622   1.017   2.804   0.233 -0.3312 -0.0577 -0.1176
 4516poe    c2319623   0.935   2.784   0.345 -0.2971 -0.0973 -0.0995
 4516poe    c2319624   0.902   2.931   0.380 -0.1601 -0.1924  0.4429
 4516poe     o219625   1.009   3.014   0.419 -0.0658  0.0558 -0.3128
 4516poe    c2319626   0.963   3.147   0.421 -0.1711  0.0173 -0.0573
 4516poe    c2319627   1.076   3.250   0.438 -0.2062 -0.0324  0.4901
 4516poe     o219628   1.146   3.244   0.316  0.2999 -0.0993  0.7808
 4516poe    c2319629   1.264   3.321   0.316  0.0139  0.3537 -0.3585
 4516poe    c2319630   1.336   3.340   0.181  0.3059  0.3458 -0.2032
 4516poe     o219631   1.374   3.216   0.126 -0.5871  0.2501 -0.6178
 4516poe    c3119632   1.447   3.242   0.008  0.1920  0.1573 -0.1671
 4517poe    c3119633   6.355   3.997   1.893 -0.2853 -0.5267 -0.5957
 4517poe     o219634   6.351   3.927   2.016 -0.1300  0.1019 -0.2298
 4517poe    c2319635   6.332   4.019   2.121 -0.0514  0.0005 -0.1256
 4517poe    c2319636   6.336   3.947   2.257 -0.4385  0.0163 -0.1042
 4517poe     o219637   6.465   3.890   2.259 -0.6086 -0.3558  0.1732
 4517poe    c2319638   6.478   3.794   2.362 -0.2417 -0.2684  0.2089
 4517poe    c2319639   6.526   3.845   2.500  0.1815 -0.1967  0.0357
 4517poe     o219640   6.663   3.879   2.509  0.1754 -0.1643  0.0018
 4517poe    c2319641   6.725   3.843   2.630  0.1326  0.0204  0.0790
 4517poe    c2319642   6.873   3.883   2.639  0.0124  0.3833  0.4961
 4517poe     o219643   6.940   3.782   2.566 -0.2086  0.3844  0.2919
 4517poe    c3119644   7.079   3.783   2.592 -0.1902 -0.2894  0.2352
 4518poe    c3119645   6.871   0.290   0.065 -0.0887 -0.8313 -0.0947
 4518poe     o219646   6.817   0.357  -0.047  0.2682 -0.2438  0.0837
 4518poe    c2319647   6.762   0.268  -0.141  0.5904 -0.3047 -0.0452
 4518poe    c2319648   6.705   0.337  -0.267  0.1579 -0.2852  0.1606
 4518poe     o219649   6.794   0.404  -0.353 -0.1669 -0.1966 -0.1096
 4518poe    c2319650   6.724   0.471  -0.455 -0.3998 -0.2598  0.0099
 4518poe    c2319651   6.817   0.555  -0.544 -0.4632  0.2183  0.3865
 4518poe     o219652   6.848   0.675  -0.477  0.2925  0.0793  0.2937
 4518poe    c2319653   6.912   0.777  -0.551 -0.3806  0.3942  0.1373
 4518poe    c2319654   6.826   0.844  -0.660 -0.2364 -0.2070 -0.3516
 4518poe     o219655   6.780   0.754  -0.758 -0.1961 -0.2240 -0.3547
 4518poe    c3119656   6.694   0.816  -0.850 -0.1805 -0.2507 -0.3873
 4519poe    c3119657   2.095   1.516   3.233  0.0497  0.6722 -0.0699
 4519poe     o219658   2.223   1.459   3.214  0.0442  0.5573  0.2382
 4519poe    c2319659   2.237   1.374   3.103 -0.1104  0.2056  0.4867
 4519poe    c2319660   2.373   1.395   3.035 -0.3204 -0.5823 -0.2014
 4519poe     o219661   2.369   1.513   2.958 -0.2958 -0.7438 -0.4487
 4519poe    c2319662   2.458   1.515   2.848  0.0316 -0.0693 -0.1728
 4519poe    c2319663   2.449   1.649   2.773 -0.5361  0.0679  0.1285
 4519poe     o219664   2.498   1.750   2.858  0.3517 -0.3629  0.1468
 4519poe    c2319665   2.542   1.863   2.785 -0.1784  0.1581  0.6212
 4519poe    c2319666   2.603   1.977   2.869  0.3440  0.2528  0.1173
 4519poe     o219667   2.734   1.941   2.909 -0.0286 -0.9899  0.2859
 4519poe    c3119668   2.757   1.999   3.035 -0.0352 -0.0563 -0.1288
 4520poe    c3119669   2.984   1.074   1.502  0.4526 -0.2743 -0.1190
 4520poe     o219670   2.963   1.209   1.469 -0.0008 -0.1598  0.6182
 4520poe    c2319671   2.981   1.296   1.578 -0.1133  0.7064 -0.0434
 4520poe    c2319672   2.855   1.350   1.649 -0.0141  0.6272  0.1940
 4520poe     o219673   2.775   1.247   1.701  0.1653  0.3067 -0.1646
 4520poe    c2319674   2.791   1.232   1.840 -0.7445  0.4028 -0.0410
 4520poe    c2319675   2.690   1.136   1.905  0.3222 -0.2350  0.7165
 4520poe     o219676   2.557   1.179   1.884  0.5535  0.2120  0.1294
 4520poe    c2319677   2.465   1.074   1.906  0.5177  0.2713  0.2635
 4520poe    c2319678   2.445   1.000   2.040 -0.0515 -0.0156  0.0226
 4520poe     o219679   2.427   1.095   2.142 -0.3032  0.4200 -0.4227
 4520poe    c3119680   2.415   1.034   2.269  0.2384  0.2282 -0.4616
 4521poe    c3119681   1.093   5.475   1.315  0.1401  0.1975 -0.3436
 4521poe     o219682   1.086   5.386   1.424  0.4850  0.3440 -0.1997
 4521poe    c2319683   1.146   5.266   1.383  0.2935 -0.1189  0.8376
 4521poe    c2319684   1.215   5.197   1.502  0.4425  0.1919  0.9320
 4521poe     o219685   1.123   5.168   1.605 -0.5694  0.2361  0.0578
 4521poe    c2319686   1.025   5.071   1.575 -0.3301 -0.0518  0.1919
 4521poe    c2319687   0.945   5.014   1.694 -0.4999 -0.4795 -0.1256
 4521poe     o219688   1.021   4.917   1.762  0.2388 -0.3666 -0.7661
 4521poe    c2319689   0.929   4.837   1.833  0.3903  0.3613  0.2902
 4521poe    c2319690   1.015   4.729   1.902  0.0274 -0.1394 -0.0283
 4521poe     o219691   1.092   4.787   2.005 -0.1146  0.1370 -0.0756
 4521poe    c3119692   1.031   4.765   2.131  0.4470 -0.3499  0.1172
 4522poe    c3119693   3.129   5.826   6.433 -0.2856 -0.1572  0.3134
 4522poe     o219694   3.250   5.830   6.505 -0.3669  0.2662  0.4303
 4522poe    c2319695   3.337   5.735   6.448 -0.5068  0.1302  0.4414
 4522poe    c2319696   3.483   5.782   6.461 -0.4363  0.3072 -0.8014
 4522poe     o219697   3.500   5.916   6.420 -0.4619  0.4657 -0.3088
 4522poe    c2319698   3.638   5.945   6.426 -0.5330  0.7522 -0.0080
 4522poe    c2319699   3.669   6.089   6.382 -0.5596  0.7528 -0.0244
 4522poe     o219700   3.619   6.189   6.468 -0.0547  0.4043  0.6796
 4522poe    c2319701   3.674   6.311   6.424 -0.1393  0.1815 -0.0503
 4522poe    c2319702   3.659   6.429   6.523 -0.0701 -0.1232  0.3250
 4522poe     o219703   3.524   6.463   6.547 -0.0260  0.4571 -0.2239
 4522poe    c3119704   3.506   6.574   6.632 -0.2295 -0.0573  0.4120
 4523poe    c3119705   5.970   3.988   5.542  0.6168 -0.0409  0.0064
 4523poe     o219706   5.928   4.103   5.472 -0.0848  0.0697  0.6048
 4523poe    c2319707   5.860   4.187   5.563 -0.8841 -0.2140  0.2838
 4523poe    c2319708   5.784   4.294   5.482 -0.0683  0.1571 -0.0139
 4523poe     o219709   5.752   4.404   5.564 -0.1548  0.0234  0.1336
 4523poe    c2319710   5.734   4.527   5.498 -0.0793 -0.1699 -0.2457
 4523poe    c2319711   5.667   4.636   5.583 -0.0897 -0.2307 -0.1754
 4523poe     o219712   5.535   4.596   5.614 -0.1480 -0.0168 -0.1436
 4523poe    c2319713   5.465   4.713   5.648  0.2184  0.1122  0.1739
 4523poe    c2319714   5.324   4.661   5.679  0.1605  0.0641 -0.1625
 4523poe     o219715   5.294   4.575   5.572  0.1544 -0.5158  0.2983
 4523poe    c3119716   5.157   4.558   5.545  0.0945  0.3414  0.0433
 4524poe    c3119717   5.231   2.317   5.408 -0.1359 -0.3549  0.5677
 4524poe     o219718   5.356   2.253   5.399 -0.0678 -0.1595  0.0454
 4524poe    c2319719   5.367   2.159   5.295 -0.1395  0.1201 -0.2144
 4524poe    c2319720   5.509   2.106   5.266 -0.2889 -0.2679 -0.2542
 4524poe     o219721   5.587   2.214   5.220 -0.0345 -0.1687  0.3888
 4524poe    c2319722   5.713   2.160   5.187 -0.0132  0.2190 -0.1893
 4524poe    c2319723   5.790   2.252   5.091  0.5985 -0.0773  0.0126
 4524poe     o219724   5.811   2.368   5.168 -0.1394 -0.0872  0.2391
 4524poe    c2319725   5.843   2.479   5.087  0.4042 -0.3558  0.0827
 4524poe    c2319726   5.943   2.587   5.132  0.0752  0.0834 -0.2334
 4524poe     o219727   5.871   2.683   5.206 -0.1991 -0.2596 -0.0499
 4524poe    c3119728   5.961   2.787   5.238  0.1263 -0.2665 -0.9175
 4525poe    c3119729   2.186   3.192   7.236 -0.4548 -0.2165 -0.3392
 4525poe     o219730   2.071   3.274   7.227 -0.4112 -0.1714 -0.4837
 4525poe    c2319731   2.096   3.401   7.283 -0.6571 -0.3181 -0.0432
 4525poe    c2319732   2.082   3.515   7.182 -0.3258  0.1032  0.3787
 4525poe     o219733   1.960   3.516   7.110 -0.1596 -0.1504  0.0888
 4525poe    c2319734   1.940   3.619   7.016  0.3021 -0.1046  0.0395
 4525poe    c2319735   1.793   3.636   6.974  0.2119  0.1469  0.4538
 4525poe     o219736   1.779   3.735   6.875  0.2567 -0.0830  0.2166
 4525poe    c2319737   1.655   3.731   6.808  0.2520 -0.0072  0.2200
 4525poe    c2319738   1.643   3.872   6.747 -0.6597 -0.2464 -0.1769
 4525poe     o219739   1.631   3.988   6.827  0.4604 -0.1404 -0.1454
 4525poe    c3119740   1.604   4.098   6.743 -0.1372 -0.2627 -0.1180
 4526poe    c3119741   6.422   2.229   3.430 -0.7534  0.0967 -0.1130
 4526poe     o219742   6.453   2.363   3.463 -0.6384 -0.1330  0.7158
 4526poe    c2319743   6.586   2.370   3.510 -0.3456  0.3876 -0.1664
 4526poe    c2319744   6.619   2.520   3.524  0.4983  0.2368 -0.5200
 4526poe     o219745   6.531   2.592   3.608  0.3942 -0.0435 -0.3876
 4526poe    c2319746   6.569   2.727   3.608  0.3547 -0.0321 -0.5037
 4526poe    c2319747   6.475   2.824   3.683  0.9821  0.3743 -0.2328
 4526poe     o219748   6.496   2.827   3.822  0.3052 -0.2294 -0.1141
 4526poe    c2319749   6.387   2.764   3.887  0.2875 -0.0627  0.0171
 4526poe    c2319750   6.448   2.694   4.010  0.0990  0.1264  0.2192
 4526poe     o219751   6.496   2.775   4.116 -0.3824  0.0549  0.4917
 4526poe    c3119752   6.523   2.688   4.224 -0.5252 -0.3548  0.2032
 4527poe    c3119753   3.955   4.196   1.087 -0.3721 -0.3001  0.3443
 4527poe     o219754   3.953   4.115   0.972  0.2121 -0.1290  0.2138
 4527poe    c2319755   4.079   4.109   0.908  0.0012 -0.0699 -0.2116
 4527poe    c2319756   4.078   4.025   0.779  0.0273 -0.2164 -0.1166
 4527poe     o219757   3.976   4.061   0.690 -0.3339 -0.0163  0.3750
 4527poe    c2319758   4.018   4.162   0.601 -0.2879 -0.0817  0.3224
 4527poe    c2319759   3.908   4.228   0.515 -0.3435 -0.3931  0.1563
 4527poe     o219760   3.803   4.290   0.585  0.0420  0.4580 -0.0017
 4527poe    c2319761   3.832   4.393   0.676  0.1476  0.0915  0.3861
 4527poe    c2319762   3.706   4.448   0.744 -0.0117  0.4822 -0.2118
 4527poe     o219763   3.655   4.334   0.810  0.6550  0.1508 -0.2658
 4527poe    c3119764   3.516   4.336   0.834  0.6966  0.2374 -0.0357
 4528poe    c3119765   7.286   5.716   6.127  0.4143 -0.2908 -0.4926
 4528poe     o219766   7.154   5.764   6.124  0.4292 -0.2050  0.0506
 4528poe    c2319767   7.056   5.664   6.113 -0.3702  0.6261 -0.5816
 4528poe    c2319768   6.912   5.716   6.099 -0.6115  0.1663  0.1213
 4528poe     o219769   6.887   5.789   5.981  0.0274  0.4960  0.1842
 4528poe    c2319770   6.749   5.820   5.979 -0.2565 -0.6889  0.4510
 4528poe    c2319771   6.704   5.899   5.855  0.4363 -0.1595  0.5307
 4528poe     o219772   6.759   6.028   5.837  0.3383 -0.2098 -0.1389
 4528poe    c2319773   6.716   6.083   5.714  0.2173 -0.2649 -0.1218
 4528poe    c2319774   6.771   6.226   5.696  0.1933 -0.2811 -0.3257
 4528poe     o219775   6.903   6.225   5.647  0.2851 -0.1411 -0.0847
 4528poe    c3119776   6.951   6.352   5.608 -0.7593  0.0043 -0.9457
 4529poe    c3119777   1.478   5.961   4.586 -0.2476  0.4628  0.4630
 4529poe     o219778   1.503   6.098   4.562 -0.1383  0.3870  0.1394
 4529poe    c2319779   1.497   6.111   4.421  0.5971 -0.6928 -0.0083
 4529poe    c2319780   1.620   6.185   4.367 -0.0671  0.3300 -0.1455
 4529poe     o219781   1.604   6.325   4.372  0.1218  0.3739 -0.6622
 4529poe    c2319782   1.734   6.377   4.354  0.4900 -0.4372 -0.4068
 4529poe    c2319783   1.735   6.509   4.274  0.4400 -0.2764 -0.1433
 4529poe     o219784   1.694   6.505   4.139 -0.0437 -0.1480 -0.0024
 4529poe    c2319785   1.686   6.633   4.081  0.0576 -0.1693 -0.0630
 4529poe    c2319786   1.684   6.617   3.928  0.2502  0.1564 -0.1021
 4529poe     o219787   1.547   6.605   3.897  0.3062 -0.2126 -0.2141
 4529poe    c3119788   1.541   6.570   3.761 -0.7110 -0.2402 -0.1693
 4530poe    c3119789   0.877   2.704   3.487 -0.2582 -0.1669  0.7542
 4530poe     o219790   0.799   2.591   3.455 -0.0539 -0.0751 -0.0874
 4530poe    c2319791   0.783   2.508   3.568 -0.4731  0.1120 -0.0075
 4530poe    c2319792   0.698   2.387   3.524  0.2584 -0.1562 -0.7068
 4530poe     o219793   0.767   2.299   3.437  0.3138  0.1527 -0.9754
 4530poe    c2319794   0.683   2.243   3.339 -0.3758 -0.5710  0.0081
 4530poe    c2319795   0.764   2.198   3.216  0.0263  0.0272  0.0503
 4530poe     o219796   0.854   2.092   3.240 -0.1098 -0.1510 -0.2211
 4530poe    c2319797   0.803   1.963   3.260 -0.1578 -0.1839 -0.5471
 4530poe    c2319798   0.924   1.877   3.302 -0.5654 -0.2851  0.4527
 4530poe     o219799   0.985   1.919   3.422  0.4795 -0.1832 -0.1025
 4530poe    c3119800   1.074   1.831   3.486  0.8426  0.4998  0.3452
 4531poe    c3119801   0.459   5.045   7.013  0.2696 -0.0823 -0.5049
 4531poe     o219802   0.584   5.080   7.068 -0.0095 -0.2314  0.2387
 4531poe    c2319803   0.669   5.156   6.985  0.1815 -0.8171 -0.1102
 4531poe    c2319804   0.811   5.163   7.043  0.3499 -0.0404 -0.5889
 4531poe     o219805   0.878   5.039   7.058 -0.0885 -0.1846  0.2936
 4531poe    c2319806   1.005   5.058   7.115 -0.0767 -0.8138  0.4858
 4531poe    c2319807   1.096   4.934   7.123  0.3530 -0.4920  0.6764
 4531poe     o219808   1.152   4.915   6.995  0.1331  0.1278  0.4855
 4531poe    c2319809   1.220   4.792   6.985 -0.2868 -0.0789  0.1265
 4531poe    c2319810   1.147   4.700   6.886 -0.0379 -0.5399  0.3710
 4531poe     o219811   1.015   4.661   6.915 -0.4139  0.3566 -0.1004
 4531poe    c3119812   0.966   4.564   6.824  0.5942  0.4026 -0.7042
 4532poe    c3119813   1.203   5.141   0.446  0.3164 -0.0423  0.2832
 4532poe     o219814   1.145   5.269   0.433  0.3473 -0.0787 -0.2546
 4532poe    c2319815   1.013   5.250   0.387  0.2084  0.3355 -0.0282
 4532poe    c2319816   0.921   5.372   0.407  0.2237  0.3994 -0.3540
 4532poe     o219817   0.967   5.492   0.348  0.4205  0.3535 -0.2927
 4532poe    c2319818   0.886   5.597   0.394  0.3773  0.0619  0.3060
 4532poe    c2319819   0.962   5.726   0.359  0.0696  0.1427 -0.0709
 4532poe     o219820   1.071   5.757   0.443  0.0119  0.3166 -0.0605
 4532poe    c2319821   1.139   5.876   0.409 -0.2264  0.4338 -0.1291
 4532poe    c2319822   1.270   5.851   0.333 -0.2196  0.3443 -0.0880
 4532poe     o219823   1.251   5.815   0.198  0.6722 -0.1148 -0.0960
 4532poe    c3119824   1.241   5.928   0.113  0.6418 -0.0630 -0.0234
 4533poe    c3119825   2.783   0.730   6.374 -0.0557 -0.3565  0.3699
 4533poe     o219826   2.773   0.655   6.256  0.0497  0.1203  0.0548
 4533poe    c2319827   2.788   0.517   6.283 -0.2615  0.0935  0.0903
 4533poe    c2319828   2.727   0.424   6.176 -0.3037  0.4643 -0.2127
 4533poe     o219829   2.802   0.444   6.059 -0.3225 -0.0808 -0.3211
 4533poe    c2319830   2.773   0.352   5.956  0.0596 -0.4368 -0.1109
 4533poe    c2319831   2.829   0.409   5.825 -0.2902 -0.4187 -0.2528
 4533poe     o219832   2.780   0.536   5.790  0.2355 -0.2718 -0.4696
 4533poe    c2319833   2.812   0.574   5.658  0.0912  0.0417 -0.4168
 4533poe    c2319834   2.775   0.720   5.627 -0.2191  0.0244 -0.1279
 4533poe     o219835   2.643   0.754   5.662 -0.0381  0.6488 -0.0311
 4533poe    c3119836   2.630   0.894   5.656  0.2603  0.7212  0.8340
 4534poe    c3119837   6.262   5.086   1.364 -0.1891 -0.1679  0.5302
 4534poe     o219838   6.318   4.977   1.293 -0.2184  0.3547 -0.3113
 4534poe    c2319839   6.341   4.854   1.357  0.0939  0.3300 -0.4690
 4534poe    c2319840   6.220   4.770   1.400  0.8742 -0.5550  0.0484
 4534poe     o219841   6.147   4.710   1.295 -0.0334 -0.5470  0.6594
 4534poe    c2319842   6.087   4.590   1.339  0.4169 -0.9741  0.1301
 4534poe    c2319843   6.027   4.508   1.223 -0.3418 -0.3186  0.0482
 4534poe     o219844   5.930   4.588   1.160  0.1578  0.1557 -0.1318
 4534poe    c2319845   5.901   4.546   1.029  0.0947  0.1958 -0.1310
 4534poe    c2319846   5.752   4.576   1.002  0.1093  0.0962 -0.3242
 4534poe     o219847   5.738   4.707   0.952  0.2433  0.1453 -0.2322
 4534poe    c3119848   5.611   4.755   0.989  0.3721  0.1931  0.1530
 4535poe    c3119849   3.799   6.681   0.145 -0.3733 -0.3397  0.2416
 4535poe     o219850   3.809   6.746   0.270 -0.0868 -0.1946  0.1445
 4535poe    c2319851   3.768   6.881   0.271  0.4748 -0.0135 -0.2884
 4535poe    c2319852   3.769   6.964   0.401  0.3686 -0.0505 -0.2634
 4535poe     o219853   3.760   7.104   0.385  0.1256 -0.0140  0.1861
 4535poe    c2319854   3.784   7.168   0.508  0.4673 -0.2051  0.2206
 4535poe    c2319855   3.726   7.311   0.507 -0.0857 -0.4281 -0.0646
 4535poe     o219856   3.586   7.311   0.496 -0.0434 -0.1650 -0.6453
 4535poe    c2319857   3.543   7.444   0.514 -0.1683 -0.2845 -0.0053
 4535poe    c2319858   3.407   7.466   0.445 -0.0217  0.2235 -0.1389
 4535poe     o219859   3.302   7.376   0.472 -0.0250  0.3519  0.2909
 4535poe    c3119860   3.185   7.422   0.410 -0.2485 -0.0133  0.4374
 4536poe    c3119861   1.987   4.640   1.275 -0.5212  0.1426 -0.3672
 4536poe     o219862   1.936   4.509   1.274  0.2128 -0.1406 -0.5315
 4536poe    c2319863   2.047   4.429   1.239  0.5218  0.0916 -0.0982
 4536poe    c2319864   2.011   4.305   1.155 -0.1427  0.1951  0.0267
 4536poe     o219865   1.924   4.209   1.211  0.0086  0.3817  0.5836
 4536poe    c2319866   1.887   4.093   1.141 -0.2442  0.5263  0.4765
 4536poe    c2319867   1.765   4.021   1.201 -0.0128 -0.1049  0.2024
 4536poe     o219868   1.641   4.088   1.210 -0.2554 -0.4758 -0.3151
 4536poe    c2319869   1.559   4.024   1.306  0.6262 -0.5560  0.4048
 4536poe    c2319870   1.495   4.121   1.408  0.5047 -0.2598  0.0489
 4536poe     o219871   1.577   4.202   1.490  0.5689  0.1374 -0.4002
 4536poe    c3119872   1.499   4.278   1.579  1.0351 -0.0435  0.1684
 4537poe    c3119873   1.574   2.843   3.851  0.0661  0.5078 -0.4334
 4537poe     o219874   1.671   2.784   3.936 -0.3760  0.0096 -0.2698
 4537poe    c2319875   1.667   2.643   3.932  0.8234 -0.0352 -0.2584
 4537poe    c2319876   1.761   2.585   4.039  0.3135  0.2278  0.3475
 4537poe     o219877   1.744   2.630   4.171 -0.1027  0.6844  0.1408
 4537poe    c2319878   1.802   2.545   4.267 -0.7529  0.0746  0.0081
 4537poe    c2319879   1.781   2.623   4.398 -0.4026 -0.6162  0.4829
 4537poe     o219880   1.647   2.666   4.398 -0.0282  0.5720  0.5007
 4537poe    c2319881   1.575   2.588   4.490  0.0456  0.1759  0.2281
 4537poe    c2319882   1.433   2.645   4.510  0.2430  0.7500  0.0338
 4537poe     o219883   1.349   2.642   4.397 -0.1235  0.7481  0.3054
 4537poe    c3119884   1.213   2.656   4.432 -0.3265  0.8996 -0.5246
 4538poe    c3119885   1.391   1.454   7.429 -0.3402 -0.0250  0.2754
 4538poe     o219886   1.313   1.382   7.521 -0.6443 -0.0096  0.0335
 4538poe    c2319887   1.193   1.449   7.552 -0.5031  0.3267 -0.1553
 4538poe    c2319888   1.102   1.357   7.635 -0.0143  0.2742  0.3266
 4538poe     o219889   1.174   1.308   7.746  0.1698  0.3006  0.2200
 4538poe    c2319890   1.087   1.243   7.836 -0.4608  0.1857 -0.4598
 4538poe    c2319891   1.064   1.303   7.976  0.3318 -0.1823 -0.1617
 4538poe     o219892   1.165   1.302   8.074 -0.0738 -0.3254  0.2615
 4538poe    c2319893   1.117   1.324   8.204 -0.4703 -0.7229  0.1849
 4538poe    c2319894   1.207   1.283   8.322  0.2141  0.0484 -0.0606
 4538poe     o219895   1.220   1.143   8.325 -0.5727 -0.0259  0.1317
 4538poe    c3119896   1.289   1.112   8.444 -0.1751 -0.3540 -0.1804
 4539poe    c3119897   7.246   0.223   0.800  0.1404  0.1909 -0.0482
 4539poe     o219898   7.205   0.294   0.914 -0.0161  0.0707 -0.0301
 4539poe    c2319899   7.157   0.201   1.009  0.0214  0.0199 -0.0608
 4539poe    c2319900   7.126   0.255   1.150 -0.9949 -0.5786 -0.0446
 4539poe     o219901   7.054   0.376   1.145  0.2769  0.2067  0.1463
 4539poe    c2319902   7.047   0.413   1.282 -0.3699 -0.3705  0.2768
 4539poe    c2319903   7.041   0.566   1.292 -0.1174 -0.2998 -0.5147
 4539poe     o219904   7.149   0.634   1.231  0.2471 -0.0609  0.3696
 4539poe    c2319905   7.192   0.749   1.301  0.1535  0.2739 -0.1167
 4539poe    c2319906   7.275   0.836   1.205 -0.0911  0.2481 -0.3533
 4539poe     o219907   7.197   0.888   1.100 -0.2043 -0.0184 -0.4021
 4539poe    c3119908   7.278   0.965   1.014 -0.5045  0.2737 -0.4268
 4540poe    c3119909   5.973   3.685   5.868  0.4290 -0.3251  0.1321
 4540poe     o219910   6.002   3.590   5.768 -0.7412 -0.0584 -0.4665
 4540poe    c2319911   6.107   3.502   5.802 -0.4067  0.5501  0.0917
 4540poe    c2319912   6.126   3.394   5.694  0.4322  0.7106  0.0731
 4540poe     o219913   6.192   3.429   5.575  0.2003  0.1107 -0.2317
 4540poe    c2319914   6.188   3.324   5.480  0.3007 -0.1469  0.0491
 4540poe    c2319915   6.250   3.376   5.350 -0.4876  0.4014 -0.1136
 4540poe     o219916   6.153   3.460   5.292 -0.4626  0.0838 -0.6199
 4540poe    c2319917   6.191   3.521   5.171  0.8154 -0.2110 -0.3783
 4540poe    c2319918   6.083   3.627   5.141  0.5661 -0.3121  0.1571
 4540poe     o219919   6.050   3.700   5.257 -0.0078  0.4204 -0.4602
 4540poe    c3119920   5.953   3.801   5.240  0.2451  0.7978  0.2717
 4541poe    c3119921   2.463   4.456   1.134  0.4125  0.3679  0.6840
 4541poe     o219922   2.540   4.564   1.087  0.2843  0.3376  0.4009
 4541poe    c2319923   2.664   4.571   1.155  0.9383 -0.5076 -0.6755
 4541poe    c2319924   2.741   4.692   1.099  0.4179  0.1730  0.0546
 4541poe     o219925   2.730   4.697   0.959  0.1271 -0.0681  0.0653
 4541poe    c2319926   2.758   4.829   0.915  0.4400 -0.2962 -0.4322
 4541poe    c2319927   2.767   4.847   0.763  0.3872  0.6707 -0.3240
 4541poe     o219928   2.637   4.820   0.716  0.4768 -0.3076 -0.0245
 4541poe    c2319929   2.618   4.843   0.578 -0.1530  0.3467  0.1680
 4541poe    c2319930   2.472   4.818   0.534 -0.1715  0.0145  0.4134
 4541poe     o219931   2.447   4.687   0.578  0.2262 -0.1838  0.0562
 4541poe    c3119932   2.319   4.636   0.543  0.0464  0.2009  0.1520
 4542poe    c3119933   5.883   5.994   4.577 -0.4813 -0.0465 -0.2106
 4542poe     o219934   5.951   5.957   4.459 -0.1395  0.0368 -0.0378
 4542poe    c2319935   5.912   6.036   4.350 -0.1896  0.0292 -0.0258
 4542poe    c2319936   5.963   5.964   4.224  0.1773  0.2490 -0.0028
 4542poe     o219937   6.098   5.937   4.254  0.1500  0.0541 -0.0593
 4542poe    c2319938   6.158   5.858   4.153 -0.0034  0.4169 -0.4365
 4542poe    c2319939   6.306   5.826   4.182 -0.1833 -0.0266  0.0054
 4542poe     o219940   6.302   5.770   4.312 -0.3138 -0.1713 -0.0611
 4542poe    c2319941   6.424   5.702   4.331  0.1254  0.5596 -0.2133
 4542poe    c2319942   6.388   5.564   4.390  0.1990  0.6171 -0.0346
 4542poe     o219943   6.309   5.565   4.506 -0.4938 -0.0939 -0.4917
 4542poe    c3119944   6.239   5.443   4.520 -0.1736 -0.2497 -0.2359
 4543poe    c3119945   4.947   7.350   0.149  0.1287  0.6597  1.1867
 4543poe     o219946   4.997   7.293   0.268  0.2683 -0.2894  0.6834
 4543poe    c2319947   5.099   7.386   0.299 -0.6314  0.9649 -0.0231
 4543poe    c2319948   5.127   7.412   0.448  0.3212 -0.1052 -0.0061
 4543poe     o219949   5.158   7.292   0.516  0.1716 -0.3410 -0.3552
 4543poe    c2319950   5.141   7.300   0.655  0.0203 -0.0755 -0.3897
 4543poe    c2319951   5.139   7.165   0.730 -0.7364  0.0079 -0.2482
 4543poe     o219952   5.027   7.080   0.716 -0.4436 -0.3402 -0.4872
 4543poe    c2319953   4.929   7.093   0.815 -0.1174  0.4287 -0.2557
 4543poe    c2319954   4.830   6.975   0.811  0.2302  0.1219  0.1290
 4543poe     o219955   4.896   6.851   0.826 -0.0702 -0.0367  0.1536
 4543poe    c3119956   4.797   6.752   0.835 -0.1513  0.0537  0.2503
 4544poe    c3119957   7.065   3.423   0.680 -0.4354 -0.1109 -0.0386
 4544poe     o219958   7.110   3.337   0.578 -0.0172 -0.2887  0.2945
 4544poe    c2319959   7.099   3.403   0.454 -0.4186  0.0480  0.5066
 4544poe    c2319960   7.134   3.312   0.335 -0.1613  0.8064  0.0036
 4544poe     o219961   7.030   3.221   0.307  0.2532  0.2851  0.1558
 4544poe    c2319962   7.101   3.110   0.257  0.1307  0.1628  0.2544
 4544poe    c2319963   7.029   2.985   0.201  0.8977 -0.2391  0.1540
 4544poe     o219964   6.948   2.913   0.290  0.5316  0.4515  0.3866
 4544poe    c2319965   6.890   2.798   0.233  0.3058  0.4918  0.5333
 4544poe    c2319966   6.745   2.815   0.184  0.5038 -0.0707 -0.2581
 4544poe     o219967   6.653   2.824   0.291  0.6151 -0.3152 -0.1421
 4544poe    c3119968   6.533   2.760   0.253  0.1749 -0.1196  0.8908
 4545poe    c3119969   0.840   1.986   1.366 -0.2702 -0.1786 -0.0697
 4545poe     o219970   0.779   2.063   1.466 -0.1788 -0.0624 -0.1030
 4545poe    c2319971   0.712   2.177   1.416 -0.2049  0.0906  0.2777
 4545poe    c2319972   0.646   2.245   1.538 -0.3621  0.1307  0.1705
 4545poe     o219973   0.749   2.306   1.612  0.1047 -0.2793 -0.1291
 4545poe    c2319974   0.686   2.357   1.728  0.1808 -0.0391 -0.1928
 4545poe    c2319975   0.765   2.447   1.825  0.0213 -0.0231 -0.0773
 4545poe     o219976   0.780   2.572   1.761 -0.1040  0.0007 -0.0600
 4545poe    c2319977   0.822   2.668   1.855 -0.1627  0.0430 -0.0769
 4545poe    c2319978   0.833   2.805   1.784  0.0899  0.2316  0.3217
 4545poe     o219979   0.920   2.813   1.673  0.2217 -0.3628  0.3783
 4545poe    c3119980   0.898   2.939   1.615 -0.5385 -0.6896 -0.0621
 4546poe    c3119981   7.202   5.273   6.416  0.2665  0.2730  0.3568
 4546poe     o219982   7.162   5.173   6.325  0.0429  0.5924  0.1030
 4546poe    c2319983   7.110   5.215   6.201 -0.0260 -0.0473 -0.0895
 4546poe    c2319984   7.062   5.099   6.112  0.2525 -0.3476  0.1476
 4546poe     o219985   6.940   5.054   6.166 -0.3114  0.2733 -0.5764
 4546poe    c2319986   6.880   4.955   6.086  0.4471 -0.2735 -0.4769
 4546poe    c2319987   6.796   4.864   6.178  0.7162 -0.3752 -0.3327
 4546poe     o219988   6.872   4.774   6.257  0.3109 -0.6434 -0.2473
 4546poe    c2319989   6.789   4.679   6.320 -0.3404 -0.0919 -0.2575
 4546poe    c2319990   6.863   4.546   6.344 -0.8674 -0.2556  0.5056
 4546poe     o219991   6.948   4.530   6.455 -0.3576 -0.2773  0.1154
 4546poe    c3119992   7.025   4.412   6.443  0.4167  0.2431 -0.1429
 4547poe    c3119993   3.445   5.019   3.667 -0.5188  0.4996  0.1548
 4547poe     o219994   3.476   4.962   3.792 -0.3113  0.2121 -0.0263
 4547poe    c2319995   3.490   5.060   3.892  0.0285  0.0854  0.0499
 4547poe    c2319996   3.546   4.994   4.019 -0.0983 -0.2772 -0.0808
 4547poe     o219997   3.459   4.905   4.086  0.0994 -0.2132  0.2668
 4547poe    c2319998   3.532   4.812   4.162 -0.0625 -0.4525  0.1290
 4547poe    c2319999   3.436   4.710   4.226 -0.2349 -0.2738  0.1581
 4547poe     o220000   3.342   4.679   4.126  0.3334 -0.4537 -0.3220
 4547poe    c2320001   3.256   4.575   4.167  0.2285 -0.1050  0.3422
 4547poe    c2320002   3.175   4.531   4.044  0.3780  0.5088  0.0210
 4547poe     o220003   3.103   4.648   4.014 -0.5116  0.0225  0.2395
 4547poe    c3120004   2.975   4.625   3.960 -0.2307 -0.7179 -0.1145
 4548poe    c3120005   2.563   6.278   7.401 -0.1232 -0.2823  0.1942
 4548poe     o220006   2.426   6.299   7.427 -0.0346  0.0676  0.3890
 4548poe    c2320007   2.367   6.186   7.487  0.4929 -0.2072  0.3981
 4548poe    c2320008   2.223   6.216   7.535  0.5817  0.5774  0.1804
 4548poe     o220009   2.217   6.309   7.640 -0.3130 -0.1012  0.7459
 4548poe    c2320010   2.084   6.354   7.654 -0.3783 -0.1060  0.1671
 4548poe    c2320011   2.075   6.473   7.752  0.1810 -0.2372  0.3801
 4548poe     o220012   2.150   6.584   7.709  0.0060 -0.0592  0.5344
 4548poe    c2320013   2.090   6.692   7.777  0.3582  0.2644  0.3338
 4548poe    c2320014   2.153   6.825   7.731 -0.3485  0.5388  0.1417
 4548poe     o220015   2.289   6.822   7.770 -0.1552  0.2780 -0.5363
 4548poe    c3120016   2.374   6.917   7.709  0.4943 -0.1903 -0.3655
 4549poe    c3120017   5.543   4.069   0.291  0.4560  0.3230 -0.3761
 4549poe     o220018   5.560   4.144   0.409 -0.3700 -0.2126  0.0948
 4549poe    c2320019   5.560   4.070   0.528  0.2488  0.1676  0.3351
 4549poe    c2320020   5.510   4.162   0.641  0.1454 -0.2783  0.6548
 4549poe     o220021   5.556   4.292   0.611 -0.5767 -0.2124 -0.2048
 4549poe    c2320022   5.491   4.384   0.696 -0.0478  0.3097 -0.3549
 4549poe    c2320023   5.574   4.513   0.702  0.1886  0.1571 -0.3358
 4549poe     o220024   5.591   4.560   0.571 -0.0136  0.4575 -0.2542
 4549poe    c2320025   5.698   4.652   0.572 -0.1257  0.5902 -0.2446
 4549poe    c2320026   5.705   4.720   0.434 -0.2058  0.3051 -0.3904
 4549poe     o220027   5.743   4.622   0.340 -0.5840 -0.1966 -0.0273
 4549poe    c3120028   5.742   4.689   0.215 -0.0082 -0.1728 -0.0247
 4550poe    c3120029   5.296   7.001   1.016  0.5428 -0.1690  0.4775
 4550poe     o220030   5.272   6.863   1.001  0.2557 -0.1395  0.6592
 4550poe    c2320031   5.391   6.800   1.043  0.3240 -0.2923  0.2431
 4550poe    c2320032   5.430   6.658   0.997  0.0430 -0.2869 -0.0141
 4550poe     o220033   5.344   6.557   1.043 -0.0051 -0.3072 -0.1490
 4550poe    c2320034   5.411   6.435   1.020  0.4735 -0.0495 -0.1347
 4550poe    c2320035   5.342   6.305   1.065  0.2269  0.0706 -0.1624
 4550poe     o220036   5.225   6.274   0.992  0.2258 -0.0677 -0.1012
 4550poe    c2320037   5.171   6.146   1.021 -0.6344  0.2648 -0.1965
 4550poe    c2320038   5.032   6.124   0.960 -0.7146  0.3230 -0.0341
 4550poe     o220039   5.024   6.143   0.821  0.2401  0.1688 -0.1119
 4550poe    c3120040   4.892   6.157   0.775  0.3160  0.1100 -0.3521
 4551poe    c3120041   4.829   0.417   6.366  0.1875  0.3497 -0.0247
 4551poe     o220042   4.942   0.393   6.447 -0.0174 -0.1365  0.1180
 4551poe    c2320043   4.950   0.500   6.538  0.4738  0.4660 -0.6131
 4551poe    c2320044   5.056   0.473   6.647  0.4661 -0.1053 -0.7408
 4551poe     o220045   5.024   0.394   6.758  0.2539  0.8603 -0.1014
 4551poe    c2320046   4.937   0.459   6.848 -0.3022  0.3126 -0.2351
 4551poe    c2320047   4.948   0.400   6.990  0.0509 -0.2581 -0.4938
 4551poe     o220048   4.882   0.275   6.986  0.0099 -0.2429 -0.3214
 4551poe    c2320049   4.866   0.217   7.113  0.1593 -0.0830 -0.2304
 4551poe    c2320050   4.853   0.064   7.106  0.0598 -0.0730 -0.2580
 4551poe     o220051   4.952   0.013   7.020 -0.1846 -0.2664 -0.4243
 4551poe    c3120052   4.970  -0.126   7.033  0.2732 -0.1607  0.0693
 4552poe    c3120053   6.384   3.680   4.163  0.1342 -0.6493  0.5028
 4552poe     o220054   6.251   3.715   4.133  0.4045 -0.2907 -0.3280
 4552poe    c2320055   6.222   3.683   3.999 -0.1237 -0.1377 -0.2556
 4552poe    c2320056   6.091   3.758   3.971 -0.1014  0.0267  0.0711
 4552poe     o220057   6.110   3.895   3.997 -0.3484  0.1072 -0.1635
 4552poe    c2320058   5.996   3.972   3.968 -0.3720  0.1082 -0.0661
 4552poe    c2320059   6.027   4.116   4.012  0.0484  0.0282 -0.0983
 4552poe     o220060   6.055   4.125   4.150  0.1316  0.1435 -0.1220
 4552poe    c2320061   6.095   4.258   4.174  0.3098  0.0668  0.0016
 4552poe    c2320062   6.108   4.275   4.327 -0.1222  0.3592  0.0078
 4552poe     o220063   6.198   4.180   4.381 -0.0329  0.0871 -0.6013
 4552poe    c3120064   6.279   4.230   4.485 -0.3799 -0.1790 -0.1971
 4553poe    c3120065   0.260   5.600   1.283 -0.6056 -0.0957 -0.2249
 4553poe     o220066   0.205   5.698   1.368  0.1015 -0.0440  0.1746
 4553poe    c2320067   0.301   5.796   1.403  0.4737 -0.1712 -0.4735
 4553poe    c2320068   0.233   5.920   1.464  0.2183 -0.4068 -0.2764
 4553poe     o220069   0.152   5.896   1.577  0.6102 -0.1607  0.0568
 4553poe    c2320070   0.066   6.005   1.603  0.0974 -0.5002 -0.2055
 4553poe    c2320071  -0.018   5.998   1.732  0.0265 -0.1376 -0.2301
 4553poe     o220072   0.061   5.984   1.848 -0.2364 -0.3370 -0.0748
 4553poe    c2320073  -0.027   5.995   1.958 -0.3637  0.4911 -0.2526
 4553poe    c2320074   0.041   6.049   2.086  0.1933 -0.4420 -0.1437
 4553poe     o220075   0.144   5.974   2.146 -0.2004 -0.4961  0.4766
 4553poe    c3120076   0.204   6.046   2.252  0.0092  0.7963 -0.4923
 4554poe    c3120077   0.859   0.527   4.045  0.0780  0.3458 -0.7669
 4554poe     o220078   0.767   0.510   3.939 -0.3228 -0.8288 -0.2499
 4554poe    c2320079   0.839   0.491   3.820  0.3910 -0.7115  0.1573
 4554poe    c2320080   0.736   0.458   3.710 -0.3103 -0.4368  0.7264
 4554poe     o220081   0.630   0.549   3.731 -0.1340 -0.0901  0.1299
 4554poe    c2320082   0.552   0.551   3.613  0.2757  0.1524 -0.1372
 4554poe    c2320083   0.448   0.663   3.620  0.6649  0.5069  0.0265
 4554poe     o220084   0.396   0.667   3.751  0.2912 -0.3560 -0.0928
 4554poe    c2320085   0.286   0.751   3.772  0.1979 -0.3308 -0.6604
 4554poe    c2320086   0.198   0.670   3.870  0.4533 -0.2770 -0.3854
 4554poe     o220087   0.258   0.601   3.977  0.4203  0.1706 -0.0745
 4554poe    c3120088   0.149   0.549   4.048  0.1755 -0.2366 -0.7343
 4555poe    c3120089   2.192   2.342   3.466  0.5917  0.2282 -0.1721
 4555poe     o220090   2.181   2.262   3.351 -0.4338 -0.1743  0.1941
 4555poe    c2320091   2.079   2.308   3.266  0.0987  0.3039 -0.1927
 4555poe    c2320092   2.030   2.183   3.189  0.1973 -0.1041  0.4004
 4555poe     o220093   2.003   2.073   3.273  0.1751  0.2470  0.8610
 4555poe    c2320094   1.880   2.083   3.341  0.0443  0.2757  0.6207
 4555poe    c2320095   1.801   1.956   3.377  0.5812 -0.2906 -0.1628
 4555poe     o220096   1.772   1.868   3.271 -0.1556 -0.0524 -0.1676
 4555poe    c2320097   1.774   1.734   3.317 -0.3754  0.0974  0.2749
 4555poe    c2320098   1.736   1.637   3.204  0.7583 -0.0588  0.0242
 4555poe     o220099   1.821   1.640   3.091  0.2690  0.5792 -0.3339
 4555poe    c3120100   1.774   1.554   2.990  0.2772  0.2590 -0.0672
 4556poe    c3120101   5.351   1.688   6.496  0.1496  0.2179 -0.4337
 4556poe     o220102   5.475   1.704   6.431  0.1943 -0.3957 -0.5031
 4556poe    c2320103   5.517   1.838   6.418  0.1284 -0.3485 -0.2343
 4556poe    c2320104   5.670   1.843   6.435  0.0719  0.0797  0.1670
 4556poe     o220105   5.738   1.771   6.335  0.3236  0.2557  0.2105
 4556poe    c2320106   5.876   1.764   6.363  0.2960 -0.3156  0.2148
 4556poe    c2320107   5.930   1.645   6.281  0.0637 -0.4899  0.3154
 4556poe     o220108   5.872   1.669   6.154  0.4245 -0.3091  0.1831
 4556poe    c2320109   5.871   1.554   6.072 -0.9105 -0.2659  0.1140
 4556poe    c2320110   5.790   1.585   5.945  0.2093 -0.1535 -0.5886
 4556poe     o220111   5.663   1.642   5.969  0.7096  0.7775 -0.1063
 4556poe    c3120112   5.583   1.657   5.853 -0.2572  0.5397  0.5185
 4557poe    c3120113   5.545   7.401   3.775 -0.1108  0.8003  0.9153
 4557poe     o220114   5.419   7.464   3.761 -0.3293  0.2553  0.3374
 4557poe    c2320115   5.351   7.401   3.656  0.4612  0.0231 -0.0455
 4557poe    c2320116   5.203   7.437   3.629  0.4398 -0.0479 -0.0246
 4557poe     o220117   5.178   7.557   3.560 -0.0444 -0.2821 -0.2599
 4557poe    c2320118   5.042   7.558   3.523 -0.1990  0.0541  0.3068
 4557poe    c2320119   4.993   7.702   3.501 -0.0820  0.0247 -0.1422
 4557poe     o220120   4.991   7.776   3.621 -0.8097 -0.8350  0.3861
 4557poe    c2320121   4.904   7.886   3.604 -0.4585 -0.6213 -0.0799
 4557poe    c2320122   4.802   7.898   3.719 -0.3674 -0.0470 -0.0590
 4557poe     o220123   4.716   7.789   3.743 -0.2809 -0.1928 -0.4170
 4557poe    c3120124   4.638   7.807   3.858  0.3742  0.3761 -0.0560
 4558poe    c3120125   6.312   5.096   3.084 -0.2877 -0.3684 -0.3545
 4558poe     o220126   6.379   4.973   3.099 -0.0606 -0.2613 -0.4816
 4558poe    c2320127   6.470   4.970   3.206 -0.4708  0.0997 -0.1222
 4558poe    c2320128   6.533   4.831   3.225 -0.7179 -0.0529 -0.4138
 4558poe     o220129   6.448   4.744   3.295 -0.2631 -0.1879 -0.0244
 4558poe    c2320130   6.510   4.620   3.320  0.2636  0.1148  0.1869
 4558poe    c2320131   6.498   4.567   3.464  0.1228 -0.4312 -0.0198
 4558poe     o220132   6.553   4.647   3.567 -0.2930 -0.1269 -0.0288
 4558poe    c2320133   6.520   4.589   3.691 -0.2366 -0.0733  0.0116
 4558poe    c2320134   6.614   4.665   3.787 -0.3177  0.0918 -0.0383
 4558poe     o220135   6.562   4.790   3.826 -0.4947 -0.0491  0.1836
 4558poe    c3120136   6.645   4.826   3.934 -0.0882 -0.2823 -0.0432
 4559poe    c3120137   1.674   7.190   1.958 -0.1987 -0.0165 -0.2276
 4559poe     o220138   1.772   7.135   1.874 -0.2062 -0.0798 -0.1949
 4559poe    c2320139   1.716   7.015   1.826 -0.2894  0.0804 -0.5067
 4559poe    c2320140   1.816   6.935   1.741 -0.5601 -0.5538 -0.2357
 4559poe     o220141   1.873   7.010   1.637  0.0372 -0.1733  0.3610
 4559poe    c2320142   1.934   6.919   1.548 -1.1602 -0.4239 -0.2208
 4559poe    c2320143   1.957   6.978   1.408 -0.1502  0.0202  0.1199
 4559poe     o220144   2.040   7.092   1.413  0.2423 -0.2518 -0.1786
 4559poe    c2320145   2.080   7.129   1.284 -0.8234  0.8003 -0.2176
 4559poe    c2320146   2.163   7.259   1.273 -0.0403  0.2943 -0.3733
 4559poe     o220147   2.085   7.366   1.322 -0.1573 -0.0319  0.1688
 4559poe    c3120148   2.136   7.490   1.278 -0.1322 -0.1684 -0.1890
 4560poe    c3120149   1.413   6.089   1.486 -0.3762 -0.3864  0.1690
 4560poe     o220150   1.332   5.997   1.416 -0.2883 -0.2645 -0.0982
 4560poe    c2320151   1.356   6.013   1.278  0.0598  0.2119  0.0148
 4560poe    c2320152   1.254   5.950   1.182  0.2048  0.2876 -0.1894
 4560poe     o220153   1.121   5.993   1.200  0.2437  0.1696  0.4158
 4560poe    c2320154   1.047   5.973   1.081  0.3884 -0.0012  0.3543
 4560poe    c2320155   0.894   5.976   1.100  0.3862 -0.1143  0.3552
 4560poe     o220156   0.852   5.900   1.211 -0.0124 -0.3926  0.0149
 4560poe    c2320157   0.713   5.921   1.223  0.0170 -0.4161  0.4242
 4560poe    c2320158   0.635   5.788   1.223 -0.4006 -0.1734  0.3253
 4560poe     o220159   0.676   5.693   1.319 -0.5052 -0.3604  0.1855
 4560poe    c3120160   0.611   5.568   1.313 -0.0078 -0.5861 -0.8327
 4561poe    c3120161   1.664   1.850   2.153  0.1949  0.0001  0.1029
 4561poe     o220162   1.751   1.766   2.080  0.0187 -0.3138  0.2523
 4561poe    c2320163   1.803   1.833   1.967 -0.1495 -0.3424  0.1567
 4561poe    c2320164   1.940   1.773   1.931  0.1585  0.0911  0.5821
 4561poe     o220165   2.044   1.814   2.017  0.2106 -0.5069  0.8052
 4561poe    c2320166   2.172   1.789   1.962 -0.0814 -0.0574 -0.0956
 4561poe    c2320167   2.280   1.827   2.065 -0.1770 -0.2846  0.0896
 4561poe     o220168   2.307   1.719   2.152  0.3712  0.0850  0.3879
 4561poe    c2320169   2.316   1.774   2.281  0.1311  0.4995  0.2314
 4561poe    c2320170   2.347   1.675   2.396  0.2501  0.0688 -0.1662
 4561poe     o220171   2.262   1.576   2.448 -0.1256  0.3319 -0.2736
 4561poe    c3120172   2.266   1.445   2.395 -0.2332  0.2314 -0.0367
 4562poe    c3120173   1.444   1.678   5.197  0.0097 -0.1062  0.4863
 4562poe     o220174   1.502   1.769   5.108  0.3055 -0.3122  0.4682
 4562poe    c2320175   1.634   1.744   5.064  0.0410 -0.7121 -0.1175
 4562poe    c2320176   1.680   1.877   5.002 -0.5894 -0.3508  0.1838
 4562poe     o220177   1.687   1.987   5.090  0.2572 -0.2243 -0.0312
 4562poe    c2320178   1.750   2.092   5.020 -0.2640 -0.0036 -0.1788
 4562poe    c2320179   1.741   2.221   5.103 -0.2052 -0.1485  0.0534
 4562poe     o220180   1.618   2.218   5.172 -0.1673 -0.0131  0.1268
 4562poe    c2320181   1.591   2.335   5.246 -0.3370  0.0532 -0.0403
 4562poe    c2320182   1.450   2.317   5.305 -0.1777 -0.3369  0.2315
 4562poe     o220183   1.450   2.209   5.394 -0.3009 -0.4945  0.0412
 4562poe    c3120184   1.350   2.226   5.492  0.1806  0.2895  0.4039
 4563poe    c3120185   5.121   5.684   3.938 -0.0208 -0.4371 -0.0529
 4563poe     o220186   4.994   5.742   3.951  0.3633  0.4833 -0.3156
 4563poe    c2320187   4.910   5.693   3.849  0.1793  0.2459 -0.0546
 4563poe    c2320188   4.779   5.774   3.844 -0.0826 -0.1658  0.0590
 4563poe     o220189   4.690   5.761   3.952 -0.0095 -0.3632  0.0951
 4563poe    c2320190   4.555   5.785   3.922  0.1917  0.3590 -0.2671
 4563poe    c2320191   4.466   5.753   4.044  0.1608  0.1328 -0.3487
 4563poe     o220192   4.488   5.842   4.151  0.3588 -0.0647 -0.2248
 4563poe    c2320193   4.429   5.780   4.264 -0.2397  0.7519 -0.0833
 4563poe    c2320194   4.383   5.875   4.376 -0.3311  0.5329  0.0659
 4563poe     o220195   4.500   5.915   4.444 -0.1106 -0.6333  0.3785
 4563poe    c3120196   4.467   5.976   4.567  0.5740  1.0576 -0.2494
 4564poe    c3120197   2.371   6.739   6.972 -0.3260 -0.8033  0.2438
 4564poe     o220198   2.419   6.808   7.085 -0.5984  0.3698 -0.3406
 4564poe    c2320199   2.446   6.945   7.067 -0.0869  0.2204 -0.7346
 4564poe    c2320200   2.591   6.967   7.019  0.1747 -0.1034 -0.1055
 4564poe     o220201   2.670   6.916   7.124 -0.3813 -0.1820  0.2798
 4564poe    c2320202   2.805   6.950   7.105 -0.5389  0.5131  0.3543
 4564poe    c2320203   2.897   6.877   7.205 -0.5179 -0.0926 -0.1005
 4564poe     o220204   2.916   6.742   7.170  0.4913  0.0169 -0.0004
 4564poe    c2320205   3.011   6.690   7.260  0.5278  0.1813  0.0566
 4564poe    c2320206   3.042   6.540   7.238 -0.1616 -0.0627  0.7048
 4564poe     o220207   2.934   6.450   7.245 -0.1116 -0.1611  0.2363
 4564poe    c3120208   2.936   6.363   7.134  0.1388 -0.3402  0.3785
 4565poe    c3120209   5.898   4.281   4.625 -0.9812 -0.2340  1.0498
 4565poe     o220210   6.014   4.249   4.699 -0.2385 -0.3746 -0.1493
 4565poe    c2320211   6.021   4.119   4.753 -0.4308 -0.3894 -0.1600
 4565poe    c2320212   6.020   4.106   4.906  0.5650  0.0138 -0.1123
 4565poe     o220213   6.126   4.171   4.973  0.5885 -0.3762  0.2351
 4565poe    c2320214   6.107   4.309   4.993  0.3395 -0.3814  0.0360
 4565poe    c2320215   6.186   4.354   5.117  0.5951 -0.1367 -0.2142
 4565poe     o220216   6.326   4.347   5.102  0.5756 -0.5044 -0.2384
 4565poe    c2320217   6.380   4.412   5.215 -0.2359  1.1985 -0.7887
 4565poe    c2320218   6.518   4.345   5.234 -0.6719  0.4557 -0.1500
 4565poe     o220219   6.511   4.230   5.315 -0.2146  0.8137  0.4065
 4565poe    c3120220   6.635   4.217   5.380 -0.0376  0.0648 -0.0700
 4566poe    c3120221   6.480   0.687   3.116 -0.3424  0.2378  0.0406
 4566poe     o220222   6.442   0.569   3.182 -0.0237 -0.0615 -0.3036
 4566poe    c2320223   6.548   0.495   3.237 -0.0181  0.2667  0.1254
 4566poe    c2320224   6.504   0.370   3.316  0.0422  0.0593 -0.1695
 4566poe     o220225   6.442   0.411   3.436  0.1110  0.0688 -0.1366
 4566poe    c2320226   6.377   0.305   3.503  0.4776 -0.0076  0.0958
 4566poe    c2320227   6.289   0.362   3.615 -0.1650  0.2583 -0.5405
 4566poe     o220228   6.363   0.424   3.718 -0.4525 -0.0339 -0.1568
 4566poe    c2320229   6.269   0.485   3.804 -0.5791 -1.0748  0.4650
 4566poe    c2320230   6.336   0.595   3.888  0.2849 -0.6487 -0.7548
 4566poe     o220231   6.391   0.695   3.804  0.0847  0.1850  0.0845
 4566poe    c3120232   6.436   0.797   3.889 -0.7362  0.5327  0.1098
 4567poe    c3120233   5.014   2.511   3.570  0.4892 -0.1835  0.3091
 4567poe     o220234   5.103   2.602   3.510  0.0991  0.1045  0.1677
 4567poe    c2320235   5.237   2.595   3.551  0.0886 -0.1004  0.1657
 4567poe    c2320236   5.342   2.595   3.438 -0.2537 -0.1781 -0.1554
 4567poe     o220237   5.330   2.696   3.341  0.2598  0.1383  0.1040
 4567poe    c2320238   5.442   2.701   3.255 -0.0567  0.5427 -0.2918
 4567poe    c2320239   5.451   2.584   3.155  0.0878  0.2433  0.0694
 4567poe     o220240   5.367   2.589   3.042 -0.0734  0.4025  0.1961
 4567poe    c2320241   5.379   2.471   2.967  0.0558  0.4087  0.2066
 4567poe    c2320242   5.306   2.472   2.831  0.7369 -0.5942 -0.1818
 4567poe     o220243   5.361   2.568   2.743 -0.0296 -0.1401 -0.1759
 4567poe    c3120244   5.282   2.684   2.739  0.1179 -0.0223  0.2425
 4568poe    c3120245   2.377   6.310   3.645 -0.1498 -0.0779  0.5663
 4568poe     o220246   2.446   6.431   3.667  0.0713 -0.0948 -0.0324
 4568poe    c2320247   2.389   6.516   3.764  0.3868  0.0811  0.0006
 4568poe    c2320248   2.248   6.570   3.732  0.3441 -0.1823 -0.2613
 4568poe     o220249   2.260   6.656   3.622  0.1750  0.1106 -0.0509
 4568poe    c2320250   2.137   6.686   3.559  0.1939 -0.2711 -0.2689
 4568poe    c2320251   2.144   6.794   3.450 -0.1567  0.0944  0.0682
 4568poe     o220252   2.258   6.776   3.369 -0.1200  0.4515  0.0411
 4568poe    c2320253   2.288   6.863   3.262  0.4307  0.1967 -0.0145
 4568poe    c2320254   2.426   6.842   3.196  0.4016  0.1817 -0.0709
 4568poe     o220255   2.503   6.799   3.305 -0.5429  0.0084  0.5456
 4568poe    c3120256   2.637   6.779   3.266 -0.4020  0.0018  1.0283
 4569poe    c3120257   5.597   7.347   4.300  0.6721 -0.1834 -0.9514
 4569poe     o220258   5.612   7.248   4.399  0.3292  0.2777 -0.4337
 4569poe    c2320259   5.631   7.117   4.349 -0.3062 -0.0496  0.1605
 4569poe    c2320260   5.694   7.029   4.459 -0.1474  0.0845  0.1770
 4569poe     o220261   5.834   7.029   4.475 -0.1039  0.3528 -0.1829
 4569poe    c2320262   5.886   7.139   4.548  0.1061  0.2886 -0.2357
 4569poe    c2320263   6.038   7.138   4.572 -0.0418  0.4522  0.7665
 4569poe     o220264   6.083   7.031   4.652 -0.0863 -0.2253 -0.0928
 4569poe    c2320265   6.221   7.022   4.680 -0.0664 -0.2444 -0.1988
 4569poe    c2320266   6.267   6.906   4.770 -0.0259  0.3096  0.4957
 4569poe     o220267   6.242   6.774   4.728  0.2739  0.5679 -0.5422
 4569poe    c3120268   6.304   6.727   4.611 -0.5036 -0.2437 -0.6418
 4570poe    c3120269   4.263   1.406   5.486  0.3456 -0.1238 -0.1333
 4570poe     o220270   4.270   1.365   5.352 -0.0606  0.0787 -0.2176
 4570poe    c2320271   4.187   1.253   5.334  0.2163 -0.1683  0.0483
 4570poe    c2320272   4.208   1.194   5.192 -0.1844  0.2519 -0.1854
 4570poe     o220273   4.339   1.149   5.168 -0.0815  0.6136 -0.3127
 4570poe    c2320274   4.356   1.140   5.028  0.5441  0.1543 -0.2123
 4570poe    c2320275   4.332   0.999   4.971  0.2414  0.2850 -0.4141
 4570poe     o220276   4.197   0.961   4.967  0.3262 -0.1259  0.3643
 4570poe    c2320277   4.185   0.836   4.902 -0.1398  0.1340 -0.0609
 4570poe    c2320278   4.109   0.835   4.769 -0.2284  0.2909 -0.0113
 4570poe     o220279   4.049   0.709   4.746 -0.3879  0.4176 -0.3050
 4570poe    c3120280   4.079   0.654   4.620 -0.1088 -0.3595  0.0970
 4571poe    c3120281   4.117   1.868   3.489 -0.4530  0.1877  0.3668
 4571poe     o220282   4.084   1.732   3.505  0.0419 -0.0463 -0.5581
 4571poe    c2320283   4.047   1.678   3.380  0.3225 -0.3529 -0.5080
 4571poe    c2320284   3.984   1.541   3.410 -0.2571  0.0091 -0.0622
 4571poe     o220285   4.061   1.478   3.510 -0.2319  0.2656  0.0795
 4571poe    c2320286   4.009   1.351   3.544 -0.1058  0.2716  0.2989
 4571poe    c2320287   4.038   1.280   3.678  0.3184  0.0012  0.0680
 4571poe     o220288   4.004   1.353   3.793  0.6513 -0.0926  0.2250
 4571poe    c2320289   4.022   1.270   3.906  0.9473 -0.4307 -0.0672
 4571poe    c2320290   3.996   1.347   4.037 -0.0569  0.1644 -0.5958
 4571poe     o220291   4.074   1.463   4.054 -0.2736  0.2455 -0.1302
 4571poe    c3120292   4.039   1.541   4.166 -0.1709  0.2214 -0.0810
 4572poe    c3120293   4.995   2.087   2.624 -0.1594 -0.3374  0.4198
 4572poe     o220294   5.060   2.205   2.580 -0.4644 -0.3591 -0.1021
 4572poe    c2320295   4.970   2.313   2.578 -0.2016 -0.1368 -0.0713
 4572poe    c2320296   5.024   2.428   2.492  0.5188 -0.1407  0.3655
 4572poe     o220297   5.095   2.390   2.376 -0.0439 -0.3261  0.0757
 4572poe    c2320298   5.164   2.502   2.324  0.1915 -0.3617  0.3109
 4572poe    c2320299   5.315   2.492   2.354  0.3369  0.4655 -0.1348
 4572poe     o220300   5.359   2.367   2.307  0.0151  0.2357  0.1730
 4572poe    c2320301   5.496   2.363   2.272 -0.1694  0.4655 -0.5828
 4572poe    c2320302   5.544   2.226   2.221 -0.7081 -0.0497  0.2652
 4572poe     o220303   5.551   2.124   2.317  0.0387 -0.0320  0.2338
 4572poe    c3120304   5.677   2.116   2.380  0.3543  0.2987 -0.3497
 4573poe    c3120305   1.220   4.299   2.997  0.0672 -0.1034  0.0756
 4573poe     o220306   1.151   4.186   2.947 -0.0051 -0.0327  0.0162
 4573poe    c2320307   1.010   4.189   2.956 -0.0102 -0.0096 -0.0731
 4573poe    c2320308   0.945   4.145   3.088  0.1969 -0.0792  0.0061
 4573poe     o220309   0.992   4.017   3.127 -0.1000 -0.2113 -0.0611
 4573poe    c2320310   0.911   3.958   3.226 -0.1723  0.6161  0.3862
 4573poe    c2320311   0.976   3.826   3.270  0.1372  0.4277 -0.5953
 4573poe     o220312   1.004   3.742   3.160 -0.6430 -0.5702 -0.0515
 4573poe    c2320313   1.089   3.636   3.197 -0.0876  0.0558  0.5125
 4573poe    c2320314   1.146   3.557   3.078 -0.0210  0.3719  0.3342
 4573poe     o220315   1.216   3.641   2.989  0.2589 -0.3999 -0.1840
 4573poe    c3120316   1.244   3.568   2.871 -0.2458 -0.3950 -0.3101
 4574poe    c3120317   4.461   6.100   0.775  0.1138 -0.5149  0.8209
 4574poe     o220318   4.342   6.037   0.815 -0.3725 -0.1424 -0.0052
 4574poe    c2320319   4.367   5.964   0.933  0.4563  0.3332  0.1213
 4574poe    c2320320   4.228   5.935   0.992  0.2801 -0.2484 -0.5680
 4574poe     o220321   4.177   5.829   0.914  0.1797 -0.3108 -0.4203
 4574poe    c2320322   4.052   5.775   0.951  0.0930  0.0184 -0.2300
 4574poe    c2320323   4.031   5.635   0.891 -0.6121 -0.0300  0.1306
 4574poe     o220324   4.102   5.530   0.953  0.3719  0.3268 -0.3771
 4574poe    c2320325   4.072   5.406   0.893  0.0762  0.2944 -0.1677
 4574poe    c2320326   4.179   5.303   0.936 -0.3347 -0.2477 -0.4287
 4574poe     o220327   4.304   5.335   0.879 -0.0374 -0.2162  0.2295
 4574poe    c3120328   4.386   5.220   0.872  0.2992  0.0167  0.3014
 4575poe    c3120329   5.213   1.903   4.209  0.2570 -0.6818 -0.1043
 4575poe     o220330   5.329   1.969   4.256 -0.4591  0.1663  0.5171
 4575poe    c2320331   5.296   2.095   4.310 -0.0801  0.4655  0.0544
 4575poe    c2320332   5.413   2.158   4.387  0.0412  0.1932  0.0940
 4575poe     o220333   5.506   2.217   4.299  0.2323  0.0936  0.2276
 4575poe    c2320334   5.477   2.330   4.219  0.1207 -0.0080  0.1243
 4575poe    c2320335   5.571   2.347   4.098 -0.1402  0.0849 -0.0648
 4575poe     o220336   5.513   2.281   3.987 -0.1200 -0.1378  0.0585
 4575poe    c2320337   5.566   2.333   3.868  0.6246 -0.6920  0.1306
 4575poe    c2320338   5.503   2.297   3.732  1.1917 -0.2799 -0.2450
 4575poe     o220339   5.508   2.158   3.707  0.3104 -0.3114 -0.2823
 4575poe    c3120340   5.419   2.128   3.602  0.0148  0.2174 -0.1878
 4576poe    c3120341   6.888   5.085   2.959  0.3841 -0.2011 -0.1594
 4576poe     o220342   6.846   5.196   2.883 -0.5039 -0.1728  0.3515
 4576poe    c2320343   6.806   5.303   2.965 -0.6478 -0.0691  0.1449
 4576poe    c2320344   6.809   5.442   2.898  0.0238  0.0042  0.3254
 4576poe     o220345   6.936   5.488   2.858 -0.0001 -0.1046  0.1185
 4576poe    c2320346   6.910   5.606   2.786  0.6455  0.2902  0.5148
 4576poe    c2320347   7.020   5.650   2.687  0.2973  0.2520  0.1065
 4576poe     o220348   7.049   5.539   2.606 -0.6566  0.2914 -0.3145
 4576poe    c2320349   7.175   5.569   2.550 -0.1849 -0.5597  0.2483
 4576poe    c2320350   7.188   5.474   2.430  0.8156 -0.0766 -0.0366
 4576poe     o220351   7.078   5.488   2.344  0.1854 -1.4761  0.5033
 4576poe    c3120352   7.107   5.429   2.219 -0.1564 -0.1814 -0.2130
 4577poe    c3120353   6.184   2.874   4.360 -0.2684  0.0298 -0.9243
 4577poe     o220354   6.148   2.977   4.270  0.5671  0.5747 -0.6447
 4577poe    c2320355   6.014   2.962   4.231  0.4134  0.2463 -0.0071
 4577poe    c2320356   5.966   3.064   4.126 -0.5022 -0.4558 -0.2850
 4577poe     o220357   5.915   3.184   4.179  0.0644 -0.1674 -0.3908
 4577poe    c2320358   5.898   3.278   4.076 -0.0976  0.1684 -0.0596
 4577poe    c2320359   5.804   3.393   4.119 -0.0338  0.2791 -0.2130
 4577poe     o220360   5.672   3.350   4.140  0.0929 -0.0152 -0.0139
 4577poe    c2320361   5.601   3.441   4.220 -0.4044 -0.2905 -0.1371
 4577poe    c2320362   5.480   3.383   4.297 -0.4407 -0.3665 -0.2515
 4577poe     o220363   5.520   3.301   4.405 -0.7232 -0.3199 -0.1105
 4577poe    c3120364   5.484   3.364   4.526  0.4065  0.3466 -0.1070
 4578poe    c3120365   4.679   5.404   4.142  0.0558  0.2388  0.1358
 4578poe     o220366   4.636   5.292   4.068  0.0337  0.3161  0.0314
 4578poe    c2320367   4.596   5.337   3.940  0.2320 -0.0735 -0.1680
 4578poe    c2320368   4.577   5.219   3.843 -0.0519 -0.2386  0.0875
 4578poe     o220369   4.493   5.132   3.915 -0.3647 -0.2184 -0.2422
 4578poe    c2320370   4.455   5.016   3.845 -0.0172 -0.1921 -0.4751
 4578poe    c2320371   4.388   4.927   3.951  0.1473  0.0870 -0.1334
 4578poe     o220372   4.452   4.926   4.077  0.3692 -0.4901 -0.2471
 4578poe    c2320373   4.373   4.863   4.175 -0.2075 -0.2350 -0.5398
 4578poe    c2320374   4.439   4.864   4.315 -0.2632  0.1110 -0.5140
 4578poe     o220375   4.578   4.839   4.309 -0.3124 -0.2523 -0.1823
 4578poe    c3120376   4.627   4.787   4.431  0.3855  0.4438 -0.1582
 4579poe    c3120377   1.052   5.996   4.529  0.3150 -0.1148 -0.3140
 4579poe     o220378   1.042   6.039   4.663 -0.2622 -0.3363 -0.2830
 4579poe    c2320379   1.148   5.978   4.734 -0.4234 -0.2057  0.0717
 4579poe    c2320380   1.128   6.010   4.883 -0.9652  0.2263 -0.0911
 4579poe     o220381   1.198   6.120   4.937 -0.0115 -0.3533 -0.1188
 4579poe    c2320382   1.206   6.113   5.077 -0.3583  0.3228 -0.0559
 4579poe    c2320383   1.245   6.242   5.151 -0.1502  0.0248  0.3654
 4579poe     o220384   1.143   6.331   5.191 -0.2521  0.0237  0.1115
 4579poe    c2320385   1.198   6.430   5.274 -0.0764  0.0195  0.0011
 4579poe    c2320386   1.109   6.550   5.313 -0.4740 -0.4336  0.4989
 4579poe     o220387   1.080   6.632   5.202  0.2830 -0.3818  0.3283
 4579poe    c3120388   1.000   6.746   5.225 -0.1092 -0.5617 -0.1378
 4580poe    c3120389   0.258   6.922   4.880 -0.3903  0.4075 -0.4051
 4580poe     o220390   0.366   6.945   4.968 -0.3496  0.0723 -0.3665
 4580poe    c2320391   0.474   7.006   4.901 -0.1936  0.1315 -0.0627
 4580poe    c2320392   0.593   7.057   4.985 -0.4123 -0.2242  0.4684
 4580poe     o220393   0.566   7.175   5.057 -0.1739 -0.1095  0.3698
 4580poe    c2320394   0.685   7.236   5.104 -0.3315  0.6578 -0.2128
 4580poe    c2320395   0.672   7.342   5.215 -0.1434  0.4111  0.0439
 4580poe     o220396   0.611   7.297   5.334 -0.6140  0.8622 -0.0242
 4580poe    c2320397   0.672   7.357   5.446  0.0788 -0.1969  0.1852
 4580poe    c2320398   0.602   7.329   5.580 -0.0188 -0.1358  0.1476
 4580poe     o220399   0.475   7.388   5.597  0.0028  0.0536 -0.3431
 4580poe    c3120400   0.424   7.331   5.716  0.0535 -0.6016 -0.6272
 4581poe    c3120401   6.278   5.770   3.576  0.2668 -0.8947  0.0705
 4581poe     o220402   6.333   5.823   3.457  0.4034 -0.2749  0.4044
 4581poe    c2320403   6.431   5.733   3.410 -0.1435 -0.3250 -0.6698
 4581poe    c2320404   6.480   5.758   3.267  0.2455  0.0919 -0.4642
 4581poe     o220405   6.567   5.870   3.260  0.4970 -0.0276  0.5800
 4581poe    c2320406   6.611   5.872   3.126 -0.5443 -0.1175  0.2248
 4581poe    c2320407   6.728   5.781   3.083 -0.2213  0.1383  0.5574
 4581poe     o220408   6.849   5.830   3.135  0.2256  0.1205 -0.4489
 4581poe    c2320409   6.963   5.751   3.111  0.1801 -0.0449 -0.1299
 4581poe    c2320410   7.107   5.801   3.133  0.1291 -0.0427  0.1954
 4581poe     o220411   7.138   5.814   3.270 -0.0224  0.9912  0.1383
 4581poe    c3120412   7.276   5.813   3.297  0.0047  0.3996 -0.0153
 4582poe    c3120413   1.347   2.142   3.257 -0.5491 -0.0520  0.7466
 4582poe     o220414   1.283   2.076   3.150  0.2786 -0.0351  0.2367
 4582poe    c2320415   1.170   2.143   3.099  0.4683  0.0385 -0.0934
 4582poe    c2320416   1.095   2.074   2.984  0.2296 -0.1574  0.1778
 4582poe     o220417   1.185   2.044   2.879  0.1768 -0.6825  0.2785
 4582poe    c2320418   1.123   2.029   2.753  0.1904  0.1547  0.1665
 4582poe    c2320419   1.229   2.016   2.643 -0.0667 -0.1734 -0.0412
 4582poe     o220420   1.316   1.905   2.650  0.3580  0.1440 -0.2438
 4582poe    c2320421   1.445   1.936   2.603  0.2335 -0.1097 -0.7621
 4582poe    c2320422   1.552   1.842   2.659 -0.2116  0.0157  0.3269
 4582poe     o220423   1.561   1.714   2.600  0.7199  0.2494 -0.0546
 4582poe    c3120424   1.683   1.650   2.630  0.2995 -0.6308 -0.1938
 4583poe    c3120425   0.373   0.665   0.934  0.2712 -0.3197  0.0008
 4583poe     o220426   0.507   0.633   0.966  0.1947 -0.0374  0.6200
 4583poe    c2320427   0.575   0.756   0.969  0.2762 -0.0576 -0.1325
 4583poe    c2320428   0.711   0.737   1.038  0.1674  0.1335  0.1370
 4583poe     o220429   0.793   0.647   0.968  0.0678 -0.1133  0.3331
 4583poe    c2320430   0.909   0.624   1.045  0.1890 -0.7331 -0.0228
 4583poe    c2320431   0.990   0.504   0.995  0.5038 -0.2661 -0.6410
 4583poe     o220432   0.906   0.392   0.975  0.0678 -0.1020  0.2514
 4583poe    c2320433   0.986   0.277   0.992 -0.1294 -0.1845  0.6406
 4583poe    c2320434   0.902   0.150   1.011  0.2578 -0.5863 -0.3017
 4583poe     o220435   0.821   0.162   1.125  0.5452 -0.0823 -0.1474
 4583poe    c3120436   0.714   0.069   1.121  0.2883  0.2031  0.0142
 4584poe    c3120437   1.624   2.740   6.929 -0.4175  0.5892  0.5240
 4584poe     o220438   1.559   2.650   7.015 -0.3599  0.0084 -0.0298
 4584poe    c2320439   1.451   2.582   6.955  0.0229 -0.1004 -0.6014
 4584poe    c2320440   1.432   2.442   7.015  0.0698  0.0860 -0.1461
 4584poe     o220441   1.386   2.447   7.148 -0.0941  0.3927 -0.2140
 4584poe    c2320442   1.382   2.316   7.201  0.1632  0.3388 -0.3246
 4584poe    c2320443   1.328   2.309   7.345  0.4817 -1.0428 -0.2606
 4584poe     o220444   1.414   2.373   7.437 -0.4674  0.2284 -0.2368
 4584poe    c2320445   1.335   2.402   7.551 -0.3047  0.0926 -0.0884
 4584poe    c2320446   1.429   2.479   7.645 -0.0589 -0.0503 -0.2157
 4584poe     o220447   1.535   2.404   7.699 -0.0656  0.4487  0.5047
 4584poe    c3120448   1.606   2.491   7.785  0.2220  0.2328  0.4869
 4585poe    c3120449   0.223   5.803   4.415  0.2458  0.2678 -0.6620
 4585poe     o220450   0.141   5.915   4.394  0.2999  0.4789  0.2149
 4585poe    c2320451   0.120   5.982   4.516 -0.0869 -0.1371  0.4914
 4585poe    c2320452   0.045   6.116   4.499  0.1366 -0.1235 -0.4350
 4585poe     o220453   0.049   6.162   4.365  0.5784 -0.4660 -0.5434
 4585poe    c2320454  -0.012   6.288   4.346  1.0424 -0.1084  0.2596
 4585poe    c2320455   0.060   6.382   4.248 -0.1668 -0.0130 -0.5612
 4585poe     o220456   0.054   6.344   4.112 -0.8093  0.0312 -0.5460
 4585poe    c2320457   0.095   6.457   4.038 -0.2983  0.2475  0.0623
 4585poe    c2320458   0.188   6.426   3.919 -0.5097 -0.5390  0.0966
 4585poe     o220459   0.121   6.385   3.802 -0.2240  0.0002 -0.2578
 4585poe    c3120460   0.209   6.336   3.702  0.1255  0.7173 -0.3137
 4586poe    c3120461   7.353   1.531   0.324 -0.1039 -0.0849  0.0240
 4586poe     o220462   7.276   1.648   0.342 -0.0836 -0.1134  0.3071
 4586poe    c2320463   7.140   1.609   0.346 -0.0778 -0.1323  0.3040
 4586poe    c2320464   7.047   1.731   0.339 -0.0336 -0.1203 -0.1479
 4586poe     o220465   7.047   1.775   0.205  0.2355 -0.2322 -0.1866
 4586poe    c2320466   7.105   1.903   0.195  0.1228 -0.1512  0.1539
 4586poe    c2320467   7.049   1.995   0.085 -0.5509 -0.7268  0.0074
 4586poe     o220468   6.924   2.048   0.121 -0.2546 -0.3457  0.4945
 4586poe    c2320469   6.883   2.167   0.056 -0.2285 -0.2246  0.6989
 4586poe    c2320470   6.771   2.234   0.137 -0.4384  0.6325 -0.2788
 4586poe     o220471   6.814   2.302   0.252  0.0429 -0.4365  0.1919
 4586poe    c3120472   6.709   2.385   0.296 -0.0692 -0.1116 -0.6684
 4587poe    c3120473   3.577   0.769   4.515 -0.2589  0.0480 -0.6933
 4587poe     o220474   3.452   0.705   4.517 -0.4632  0.4487 -0.0477
 4587poe    c2320475   3.395   0.711   4.388 -0.2573 -0.1024 -0.1661
 4587poe    c2320476   3.255   0.647   4.382 -0.0717 -0.5547  0.2933
 4587poe     o220477   3.171   0.700   4.481  0.3639  0.4343  0.1386
 4587poe    c2320478   3.040   0.648   4.485  0.2423  0.7222 -0.0744
 4587poe    c2320479   2.954   0.734   4.580  0.2110  0.5420  0.0612
 4587poe     o220480   3.011   0.746   4.708  0.2755 -0.1275  0.0988
 4587poe    c2320481   2.918   0.828   4.775  0.5022  0.1255  0.1050
 4587poe    c2320482   2.961   0.830   4.922  0.2490 -0.8046  0.1962
 4587poe     o220483   3.102   0.826   4.927  0.3130  0.5392 -0.1629
 4587poe    c3120484   3.148   0.923   5.018  0.0899  0.0767  0.4526
 4588poe    c3120485   1.794   0.297   0.540 -0.4542 -0.1211 -0.2644
 4588poe     o220486   1.854   0.174   0.506 -0.1716  0.0246 -0.2965
 4588poe    c2320487   1.976   0.198   0.440 -0.3732  0.6101 -0.4607
 4588poe    c2320488   2.030   0.098   0.337 -0.1528  0.1815  0.0653
 4588poe     o220489   2.024  -0.027   0.402 -0.1277  0.1829  0.0703
 4588poe    c2320490   2.098  -0.117   0.322 -0.3634  0.1569 -0.1214
 4588poe    c2320491   2.106  -0.252   0.396  0.0761  0.1913 -0.1022
 4588poe     o220492   2.167  -0.240   0.522 -0.1210  0.2715 -0.0141
 4588poe    c2320493   2.136  -0.342   0.614  0.5149 -0.2831 -0.4110
 4588poe    c2320494   2.168  -0.308   0.761  0.1764  0.1026 -0.4249
 4588poe     o220495   2.106  -0.187   0.796  0.3442  0.2162 -0.5234
 4588poe    c3120496   2.124  -0.142   0.928  0.1167 -0.0237 -0.4119
 4589poe    c3120497   1.767   5.495   5.264  0.0601  0.2697 -0.1968
 4589poe     o220498   1.698   5.574   5.358  0.0244  0.1930 -0.1577
 4589poe    c2320499   1.685   5.710   5.324 -0.0544  0.1196 -0.4260
 4589poe    c2320500   1.637   5.790   5.446  0.5027 -0.4201  0.1554
 4589poe     o220501   1.713   5.752   5.559  0.2437  0.2797  0.5722
 4589poe    c2320502   1.657   5.801   5.679 -0.2134  0.2584  0.3689
 4589poe    c2320503   1.753   5.736   5.780  0.3198  0.3251 -0.0894
 4589poe     o220504   1.761   5.599   5.748  0.0931  0.1952  0.4040
 4589poe    c2320505   1.820   5.523   5.851 -0.0911 -0.5210 -0.0192
 4589poe    c2320506   1.883   5.387   5.812 -0.0081 -0.4928  0.0178
 4589poe     o220507   1.788   5.306   5.748 -0.2141 -0.2802  0.0507
 4589poe    c3120508   1.846   5.179   5.724  0.5166  0.1028 -0.2235
 4590poe    c3120509   2.897   6.792   2.072  0.3194 -0.8140 -0.9199
 4590poe     o220510   2.785   6.729   2.131 -0.0643  0.3200 -0.3970
 4590poe    c2320511   2.764   6.772   2.263 -0.0519 -0.4766 -0.1270
 4590poe    c2320512   2.678   6.681   2.352 -0.3777 -0.0551 -0.0033
 4590poe     o220513   2.726   6.548   2.357 -0.0303  0.0614 -0.2102
 4590poe    c2320514   2.673   6.462   2.455  0.4010 -0.1090 -0.1256
 4590poe    c2320515   2.770   6.352   2.502  0.1303 -0.2619  0.0784
 4590poe     o220516   2.894   6.397   2.552 -0.0417  0.3860 -0.0818
 4590poe    c2320517   2.947   6.314   2.652 -0.5035 -0.1407 -0.2670
 4590poe    c2320518   3.067   6.362   2.737 -0.3655 -0.3250 -0.3566
 4590poe     o220519   3.178   6.388   2.654 -0.0232  0.2990  0.2840
 4590poe    c3120520   3.257   6.271   2.657 -0.1151  0.2475  0.8141
 4591poe    c3120521   5.013   4.370   2.164 -0.7425  0.6033  0.1862
 4591poe     o220522   5.003   4.240   2.217  0.1004  0.3193 -0.3285
 4591poe    c2320523   4.905   4.163   2.151  0.1601 -0.1007  0.0671
 4591poe    c2320524   4.876   4.048   2.250  0.5815 -0.0554  0.2477
 4591poe     o220525   4.825   4.080   2.377  0.0904  0.1335  0.0077
 4591poe    c2320526   4.714   4.166   2.392 -0.0385 -0.0237 -0.0413
 4591poe    c2320527   4.698   4.218   2.536  0.4828  0.5011 -0.1709
 4591poe     o220528   4.795   4.319   2.558  0.7014  0.2694 -0.0777
 4591poe    c2320529   4.765   4.389   2.676 -0.1778 -0.2869  0.0425
 4591poe    c2320530   4.873   4.493   2.714 -0.3615  0.0772 -0.4247
 4591poe     o220531   4.986   4.417   2.752 -0.4703  0.3438  0.4476
 4591poe    c3120532   5.093   4.501   2.789 -0.3749  0.2772  0.3217
 4592poe    c3120533   4.235   1.552   2.584  0.2859 -0.4677  0.7091
 4592poe     o220534   4.277   1.674   2.640  0.3224 -0.2882  0.2934
 4592poe    c2320535   4.417   1.689   2.625  0.2568  0.1162  0.0831
 4592poe    c2320536   4.494   1.667   2.756 -0.0557 -0.1929  0.2167
 4592poe     o220537   4.461   1.766   2.851 -0.0852 -0.0250  0.0317
 4592poe    c2320538   4.548   1.765   2.961  0.5429 -0.0774 -0.4623
 4592poe    c2320539   4.596   1.903   3.009  0.0152 -0.0345 -0.0493
 4592poe     o220540   4.683   1.971   2.921  0.3063 -0.6458 -0.2393
 4592poe    c2320541   4.752   2.078   2.982  0.4165 -0.6619 -0.3348
 4592poe    c2320542   4.810   2.195   2.899 -0.1945 -0.0060  0.1479
 4592poe     o220543   4.709   2.265   2.831  0.0188  0.0141 -0.1468
 4592poe    c3120544   4.707   2.400   2.874 -0.0090  0.0346 -0.2109
 4593poe    c3120545   7.244   4.400   4.954 -0.1294  0.1921  0.1310
 4593poe     o220546   7.275   4.494   5.055  0.0815  0.3263 -0.0564
 4593poe    c2320547   7.415   4.501   5.062  0.0617  0.2847  0.4580
 4593poe    c2320548   7.461   4.545   5.203 -0.0721 -0.0249  0.5980
 4593poe     o220549   7.377   4.654   5.235 -0.1838  0.1433 -0.2319
 4593poe    c2320550   7.384   4.690   5.371 -0.3418 -0.0516 -0.1716
 4593poe    c2320551   7.302   4.818   5.397 -0.1572 -0.0131  0.2413
 4593poe     o220552   7.171   4.785   5.356 -0.0472 -0.0548 -0.0766
 4593poe    c2320553   7.068   4.788   5.452  0.3056  0.5638  0.2827
 4593poe    c2320554   6.930   4.826   5.396  0.2152  0.3686  0.3757
 4593poe     o220555   6.926   4.947   5.325 -0.0738  0.2319  0.1555
 4593poe    c3120556   6.858   5.045   5.401 -0.2758  0.0414  0.2199
 4594poe    c3120557   5.903   6.042   5.625 -0.1324 -0.5050 -0.1364
 4594poe     o220558   5.927   5.921   5.693 -0.7068 -0.4929  0.0904
 4594poe    c2320559   5.961   5.942   5.828 -0.4191 -0.2716 -0.0174
 4594poe    c2320560   5.965   5.810   5.906 -0.4138  0.0202  0.4818
 4594poe     o220561   6.074   5.727   5.871 -0.3767  0.4175 -0.3774
 4594poe    c2320562   6.092   5.609   5.947 -0.5725  0.3728 -0.4002
 4594poe    c2320563   6.196   5.516   5.883 -0.2508  0.3496  0.1527
 4594poe     o220564   6.144   5.475   5.759 -0.1503 -0.0574  0.2427
 4594poe    c2320565   6.242   5.394   5.699  0.1871  0.4963  0.0401
 4594poe    c2320566   6.196   5.322   5.571  0.1478  0.6994 -0.0592
 4594poe     o220567   6.150   5.417   5.477 -0.1990  0.5994  0.0063
 4594poe    c3120568   6.117   5.337   5.366  0.6955  0.0219  0.1457
 4595poe    c3120569   3.455   0.888   5.308 -0.0818 -0.7664  0.4269
 4595poe     o220570   3.560   0.888   5.403  0.3058 -0.4200  0.0065
 4595poe    c2320571   3.512   0.949   5.521 -0.2088 -0.0564 -0.3886
 4595poe    c2320572   3.561   0.887   5.652 -0.0196 -0.0114 -0.4381
 4595poe     o220573   3.702   0.883   5.658 -0.0043  0.5845 -0.3765
 4595poe    c2320574   3.754   0.953   5.769  0.2375 -0.3141  0.0829
 4595poe    c2320575   3.898   0.901   5.788  0.3193 -0.2232 -0.2800
 4595poe     o220576   3.966   0.937   5.669 -0.2519  0.1734 -0.4917
 4595poe    c2320577   4.103   0.906   5.664 -0.2798 -0.0586  0.0499
 4595poe    c2320578   4.136   0.914   5.514  0.6124 -0.5781  0.2099
 4595poe     o220579   4.044   0.835   5.442  0.1354 -0.0434  0.2257
 4595poe    c3120580   4.095   0.829   5.310  0.4591  0.5058  0.3225
 4596poe    c3120581   6.981   1.147   1.691  0.3449 -0.3663  0.0895
 4596poe     o220582   6.937   1.013   1.693 -0.0116 -0.2491  0.2074
 4596poe    c2320583   6.798   0.998   1.675  0.0459 -0.0742 -0.4197
 4596poe    c2320584   6.764   0.867   1.602 -0.0002 -0.3866  0.1512
 4596poe     o220585   6.797   0.751   1.675  0.2550 -0.3057  0.1621
 4596poe    c2320586   6.766   0.632   1.605  0.2046 -0.1350 -0.1059
 4596poe    c2320587   6.836   0.507   1.660 -0.3961 -0.7451 -0.7105
 4596poe     o220588   6.975   0.526   1.671 -0.4712 -0.2181 -0.6425
 4596poe    c2320589   7.022   0.409   1.734 -0.3233 -0.1241 -0.5790
 4596poe    c2320590   7.174   0.394   1.713 -0.2612 -0.2218 -0.0788
 4596poe     o220591   7.252   0.497   1.769 -0.2263 -0.0789 -0.3842
 4596poe    c3120592   7.389   0.483   1.741 -0.2979 -0.3842 -0.5915
 4597poe    c3120593   1.309   1.538   4.310  0.5738  0.6215  0.3502
 4597poe     o220594   1.384   1.451   4.392 -0.4528 -0.2757  0.3604
 4597poe    c2320595   1.353   1.453   4.530  0.5300 -0.3582  0.5893
 4597poe    c2320596   1.419   1.344   4.616  0.0379 -0.5270  0.7592
 4597poe     o220597   1.560   1.351   4.617  0.0538 -0.3879 -0.6250
 4597poe    c2320598   1.618   1.281   4.725  0.2218 -0.0737 -0.5081
 4597poe    c2320599   1.764   1.239   4.706  0.2758 -0.1942  0.1719
 4597poe     o220600   1.779   1.138   4.609 -0.0303  0.4023 -0.4956
 4597poe    c2320601   1.899   1.064   4.616 -0.6216 -0.5141 -0.0501
 4597poe    c2320602   1.944   0.998   4.484 -0.3607 -0.1726 -0.1301
 4597poe     o220603   1.980   1.088   4.382  0.1294 -0.4411 -0.2007
 4597poe    c3120604   1.978   1.008   4.266 -0.1590 -0.3341 -0.2710
 4598poe    c3120605   3.152   6.632   1.791 -0.1778 -0.0466 -0.2109
 4598poe     o220606   3.089   6.565   1.684 -0.3866  0.5323 -0.4526
 4598poe    c2320607   3.040   6.656   1.588 -0.5094  0.5132 -0.4086
 4598poe    c2320608   3.010   6.600   1.448 -0.0985  0.0099 -0.2989
 4598poe     o220609   2.889   6.527   1.435  0.0624 -0.2990 -0.0659
 4598poe    c2320610   2.881   6.466   1.308  0.1747  0.2943 -0.3635
 4598poe    c2320611   2.738   6.433   1.263  0.1959 -0.0606 -0.1744
 4598poe     o220612   2.650   6.539   1.234  0.0188 -0.1102  0.1716
 4598poe    c2320613   2.581   6.583   1.349 -0.2024 -0.5577  0.2116
 4598poe    c2320614   2.505   6.715   1.329  0.2278 -0.4524 -0.7804
 4598poe     o220615   2.382   6.708   1.259 -0.5544  0.1286  0.5093
 4598poe    c3120616   2.302   6.821   1.285 -0.0599  0.5452  0.2216
 4599poe    c3120617   0.416   4.132   5.799 -0.5887  0.3796 -0.2874
 4599poe     o220618   0.551   4.136   5.839 -0.5286 -0.3180 -0.3989
 4599poe    c2320619   0.633   4.112   5.727 -0.1473  0.6071 -0.3320
 4599poe    c2320620   0.769   4.053   5.767 -0.5077  0.0233  0.0376
 4599poe     o220621   0.845   4.134   5.854 -0.5980  0.1973 -0.0450
 4599poe    c2320622   0.959   4.056   5.886 -0.7257  0.1953  0.4195
 4599poe    c2320623   1.038   4.113   6.006  0.4180 -0.8684  0.1906
 4599poe     o220624   0.947   4.099   6.113  0.1987 -0.0504  0.1159
 4599poe    c2320625   1.009   4.131   6.235 -0.0234  0.6649  0.0485
 4599poe    c2320626   0.897   4.166   6.334 -0.5844 -0.5109 -0.1590
 4599poe     o220627   0.805   4.251   6.269  0.3681  0.4160 -0.3102
 4599poe    c3120628   0.723   4.327   6.355  0.1702  0.2496 -0.3501
 4600poe    c3120629   1.096   1.607   7.169 -0.1321 -0.1815  0.2225
 4600poe     o220630   1.042   1.704   7.082  0.5657 -0.4105 -0.4697
 4600poe    c2320631   1.136   1.805   7.052 -0.1753  0.4628  0.1473
 4600poe    c2320632   1.111   1.887   6.924 -0.0566 -0.1172 -0.2507
 4600poe     o220633   1.180   1.843   6.809  0.0277 -0.1664 -0.1816
 4600poe    c2320634   1.121   1.726   6.757 -0.7296  0.2015 -0.1685
 4600poe    c2320635   1.189   1.670   6.630  0.3642  0.3699  0.3312
 4600poe     o220636   1.189   1.768   6.528 -0.3592 -0.2955 -0.3176
 4600poe    c2320637   1.248   1.709   6.415  0.2660 -0.2044 -0.0458
 4600poe    c2320638   1.245   1.797   6.288  0.3458 -0.2089 -0.0507
 4600poe     o220639   1.115   1.812   6.235  0.2790 -0.5358  0.0210
 4600poe    c3120640   1.089   1.950   6.232 -0.0024 -0.5903 -0.0099
 4601poe    c3120641   4.695   3.043   0.801 -0.3532  0.5584 -0.3804
 4601poe     o220642   4.555   3.047   0.782 -0.3479  0.4163 -0.4559
 4601poe    c2320643   4.497   3.159   0.845 -0.1164  0.1581  0.2166
 4601poe    c2320644   4.348   3.161   0.805 -0.0091 -0.0152 -0.1872
 4601poe     o220645   4.324   3.152   0.666 -0.0596 -0.3708 -0.1574
 4601poe    c2320646   4.186   3.135   0.646 -0.1666  0.4763 -0.1726
 4601poe    c2320647   4.146   3.086   0.505 -0.5885  0.0886  0.0796
 4601poe     o220648   4.193   2.954   0.490 -0.0636  0.2390  0.3640
 4601poe    c2320649   4.145   2.902   0.368  0.5497  0.4913  0.0105
 4601poe    c2320650   4.142   2.748   0.366  0.0748  0.4980  0.0475
 4601poe     o220651   4.271   2.692   0.369 -0.1107  0.0276 -0.5275
 4601poe    c3120652   4.277   2.551   0.371  0.7475  0.0607  0.0132
 4602poe    c3120653   3.037   2.151   2.854 -0.2630 -0.3123 -0.3618
 4602poe     o220654   3.140   2.070   2.905  0.0066  0.3888  0.2221
 4602poe    c2320655   3.203   2.005   2.797  0.0260  0.4157  0.2176
 4602poe    c2320656   3.329   1.930   2.845 -0.0877  0.0195 -0.1005
 4602poe     o220657   3.311   1.811   2.919 -0.9556  0.3256  0.1961
 4602poe    c2320658   3.319   1.822   3.059  0.1263 -0.3236  0.1964
 4602poe    c2320659   3.304   1.685   3.130  0.0105 -0.3960  0.0318
 4602poe     o220660   3.195   1.629   3.060 -0.3471  0.1681  0.1323
 4602poe    c2320661   3.160   1.508   3.124 -0.5902  0.0222 -0.2731
 4602poe    c2320662   3.040   1.439   3.057 -0.5230  0.0524 -0.4256
 4602poe     o220663   3.062   1.380   2.931  0.6810  0.2107 -0.3043
 4602poe    c3120664   3.125   1.254   2.939 -0.0920 -0.1847 -0.3347
 4603poe    c3120665   0.282   6.782   2.563 -0.6022 -0.0109  0.1042
 4603poe     o220666   0.349   6.878   2.642  0.5262 -0.1718 -0.6359
 4603poe    c2320667   0.398   6.820   2.761 -0.3997 -0.5819 -0.4449
 4603poe    c2320668   0.445   6.923   2.865 -0.1418 -0.7867 -0.3591
 4603poe     o220669   0.582   6.958   2.854 -0.4653  0.5336 -0.3489
 4603poe    c2320670   0.633   7.052   2.946 -0.4131  0.2467 -0.0829
 4603poe    c2320671   0.743   7.131   2.874 -0.0178 -0.2730 -0.0576
 4603poe     o220672   0.689   7.191   2.758 -0.0993  0.3254  0.2864
 4603poe    c2320673   0.788   7.204   2.660 -0.2076 -0.1756  0.1103
 4603poe    c2320674   0.738   7.300   2.550 -0.1738 -0.3616 -0.0680
 4603poe     o220675   0.642   7.246   2.462 -0.1607 -0.3666 -0.0792
 4603poe    c3120676   0.599   7.357   2.386  0.2191 -0.0784  0.1247
 4604poe    c3120677   4.082   6.724   0.478 -0.2148 -0.0370 -0.3491
 4604poe     o220678   4.165   6.624   0.424  0.3185 -0.2701  0.8533
 4604poe    c2320679   4.277   6.687   0.366 -0.2167  0.1692  0.2720
 4604poe    c2320680   4.344   6.596   0.261 -0.8169  0.0348  0.0048
 4604poe     o220681   4.382   6.471   0.314 -0.0261  0.0601 -0.4971
 4604poe    c2320682   4.437   6.385   0.217  0.0080 -0.2445 -0.2111
 4604poe    c2320683   4.488   6.257   0.285  0.2207 -0.1627 -0.2153
 4604poe     o220684   4.593   6.281   0.376  0.0962 -0.1108 -0.0873
 4604poe    c2320685   4.640   6.160   0.430 -0.1016 -0.2101 -0.1380
 4604poe    c2320686   4.749   6.084   0.351  0.4839  0.6083 -0.1343
 4604poe     o220687   4.711   6.033   0.225 -0.1715  0.0219  0.2918
 4604poe    c3120688   4.825   5.971   0.172 -0.2010  0.2051  0.0125
 4605poe    c3120689   1.568   4.775   6.625 -0.0531  0.2847 -0.4030
 4605poe     o220690   1.647   4.882   6.577  0.6878 -0.0175  0.1351
 4605poe    c2320691   1.707   4.951   6.685  0.7502  0.0886  0.0324
 4605poe    c2320692   1.631   5.064   6.756 -0.1430 -0.5444  0.0987
 4605poe     o220693   1.588   5.172   6.675  0.4677 -0.1399  0.3084
 4605poe    c2320694   1.486   5.249   6.735  0.4823 -0.0071  0.1598
 4605poe    c2320695   1.419   5.345   6.635 -0.0623 -0.4262  0.1230
 4605poe     o220696   1.371   5.280   6.520 -0.4777 -0.3166  0.2309
 4605poe    c2320697   1.350   5.375   6.418 -0.5634 -0.4766  0.0973
 4605poe    c2320698   1.277   5.319   6.295 -0.8266  0.1376 -0.0307
 4605poe     o220699   1.326   5.191   6.263 -0.1999  0.3643  0.0273
 4605poe    c3120700   1.259   5.129   6.156  0.6047  0.0523 -0.3017
 4606poe    c3120701   2.062   0.787   5.135 -0.4058 -0.0263  0.3148
 4606poe     o220702   2.096   0.920   5.105  0.2819 -0.2678 -0.0083
 4606poe    c2320703   2.134   0.981   5.226  1.2554  0.0563 -0.4662
 4606poe    c2320704   2.103   1.132   5.223  0.0414 -0.1695  0.0745
 4606poe     o220705   2.194   1.216   5.155  0.1870 -0.0757  0.3862
 4606poe    c2320706   2.128   1.333   5.112  0.1981 -0.0053  0.5592
 4606poe    c2320707   2.234   1.429   5.054 -0.1528  0.1353  0.1444
 4606poe     o220708   2.308   1.350   4.964 -0.4720  0.4401 -0.3925
 4606poe    c2320709   2.399   1.428   4.890 -0.2565  0.3554 -0.2198
 4606poe    c2320710   2.442   1.347   4.766  0.1453  0.4410 -0.1373
 4606poe     o220711   2.479   1.218   4.808 -1.0544 -0.0446 -0.5480
 4606poe    c3120712   2.568   1.150   4.723  0.0769  0.1331  0.4764
 4607poe    c3120713   3.714   2.866   6.231 -0.1647 -0.1679 -0.5459
 4607poe     o220714   3.785   2.751   6.271  0.3813  0.5676  0.6553
 4607poe    c2320715   3.926   2.761   6.280  0.4562 -0.1937  0.4156
 4607poe    c2320716   3.984   2.624   6.319 -0.1288 -0.6646 -0.3301
 4607poe     o220717   3.944   2.595   6.451 -0.0840 -0.4212 -0.2619
 4607poe    c2320718   4.025   2.498   6.513  0.5268  0.1635 -0.1381
 4607poe    c2320719   3.986   2.477   6.660  0.6213 -0.6448 -0.2233
 4607poe     o220720   3.851   2.438   6.671  0.5567 -0.3192  0.1403
 4607poe    c2320721   3.823   2.372   6.793  0.0642 -0.0148  0.1979
 4607poe    c2320722   3.688   2.298   6.794 -0.0612  0.2084 -0.1462
 4607poe     o220723   3.572   2.376   6.806 -0.0838  0.1111  0.2678
 4607poe    c3120724   3.467   2.303   6.866  0.0864  0.0226  0.4607
 4608poe    c3120725   6.485   0.478   6.564 -0.1107 -0.1697  0.0632
 4608poe     o220726   6.537   0.453   6.435  0.5318  0.4675  0.1861
 4608poe    c2320727   6.529   0.552   6.335 -0.1128  0.1216 -0.1110
 4608poe    c2320728   6.390   0.601   6.288 -0.3644 -0.3435  0.1349
 4608poe     o220729   6.317   0.698   6.358  0.1992 -0.2070  0.5451
 4608poe    c2320730   6.373   0.827   6.374 -0.4308  0.2232 -0.5561
 4608poe    c2320731   6.329   0.922   6.262 -0.3421  0.1257 -0.6742
 4608poe     o220732   6.410   0.920   6.147  0.2329  0.1194 -0.2692
 4608poe    c2320733   6.325   0.918   6.035  0.3118 -0.5301 -0.3205
 4608poe    c2320734   6.394   0.903   5.898  0.5784 -0.0823 -0.2397
 4608poe     o220735   6.481   1.007   5.859  0.0071  0.5418  0.1361
 4608poe    c3120736   6.499   1.011   5.720  0.4760  0.2119  0.1840
 4609poe    c3120737   3.556   6.350   0.183 -0.5457  0.2088  0.5051
 4609poe     o220738   3.537   6.315   0.048 -0.0175  0.2266  0.4213
 4609poe    c2320739   3.524   6.434  -0.026  0.0879 -0.1436 -0.2050
 4609poe    c2320740   3.478   6.419  -0.172 -0.6130 -0.7270  0.0718
 4609poe     o220741   3.570   6.356  -0.259 -0.1275  0.5377 -0.3483
 4609poe    c2320742   3.514   6.357  -0.389  0.1140  0.7858 -0.4515
 4609poe    c2320743   3.596   6.271  -0.486  0.4590  0.0548  0.4681
 4609poe     o220744   3.733   6.295  -0.506  0.4109  0.0687  0.1384
 4609poe    c2320745   3.807   6.192  -0.567 -0.0846 -0.0684 -0.2323
 4609poe    c2320746   3.948   6.239  -0.609  0.1064 -0.0363  0.4468
 4609poe     o220747   4.011   6.307  -0.502 -0.0162 -0.1189  0.5719
 4609poe    c3120748   4.151   6.304  -0.521 -0.1057 -0.2585 -0.0853
 4610poe    c3120749   3.094   3.511   5.977  0.3086  0.2399  0.3880
 4610poe     o220750   3.155   3.395   5.926 -0.4713 -0.0164  0.0129
 4610poe    c2320751   3.169   3.306   6.035  0.3455 -0.1888 -0.2252
 4610poe    c2320752   3.259   3.184   6.008  0.7309 -0.1022  0.6340
 4610poe     o220753   3.388   3.226   5.970  0.3084  0.3958 -0.3030
 4610poe    c2320754   3.472   3.114   5.951  0.1131  0.1991 -0.0195
 4610poe    c2320755   3.622   3.147   5.951  0.2357 -0.3409  0.1978
 4610poe     o220756   3.689   3.076   5.850  0.1592  0.1041 -0.1677
 4610poe    c2320757   3.824   3.115   5.854  0.1892  0.0743 -0.6930
 4610poe    c2320758   3.930   3.007   5.824  0.2951 -0.1167  0.3161
 4610poe     o220759   3.931   2.885   5.894  0.1271 -0.3826 -0.1400
 4610poe    c3120760   4.015   2.790   5.831 -0.0235 -0.4809 -0.1937
 4611poe    c3120761   1.957   4.298   5.163  0.2812 -0.4370 -0.0509
 4611poe     o220762   1.859   4.218   5.226 -0.0649  0.2562  0.3036
 4611poe    c2320763   1.749   4.197   5.139 -0.1422 -0.1685  0.5017
 4611poe    c2320764   1.641   4.104   5.197 -0.4779 -0.1925 -0.1563
 4611poe     o220765   1.597   4.164   5.316  0.3110 -0.2151  0.1583
 4611poe    c2320766   1.465   4.137   5.360  0.4007 -0.2528  0.4035
 4611poe    c2320767   1.399   4.257   5.430  1.1493  0.4666 -0.1085
 4611poe     o220768   1.431   4.284   5.564  0.4113  0.0986  0.1482
 4611poe    c2320769   1.341   4.384   5.608  0.2522  0.3124 -0.6577
 4611poe    c2320770   1.390   4.442   5.742  0.1553 -0.6002 -0.2170
 4611poe     o220771   1.381   4.354   5.851  0.3863 -0.5361 -0.1459
 4611poe    c3120772   1.380   4.429   5.971 -0.1985 -0.1793 -0.3709
 4612poe    c3120773   2.074   2.974   5.927 -0.2420 -0.0887  0.2477
 4612poe     o220774   2.119   2.911   5.809 -0.0142  0.0399  0.2648
 4612poe    c2320775   2.252   2.870   5.831 -0.0675 -0.3935 -0.2181
 4612poe    c2320776   2.324   2.816   5.706  0.0974 -0.2090 -0.2032
 4612poe     o220777   2.268   2.692   5.667 -0.1245 -0.1132 -0.1866
 4612poe    c2320778   2.335   2.644   5.553  0.4003 -0.1441  0.1335
 4612poe    c2320779   2.274   2.507   5.517 -0.1258  0.0212  0.3904
 4612poe     o220780   2.135   2.533   5.513 -0.1727 -0.2632  0.1732
 4612poe    c2320781   2.065   2.422   5.461  0.0290 -0.4543  0.3064
 4612poe    c2320782   1.915   2.445   5.488  0.0212 -0.7846  0.5437
 4612poe     o220783   1.915   2.501   5.617 -0.1867  0.5810 -0.0302
 4612poe    c3120784   1.791   2.482   5.681 -0.0468  0.2324  0.1424
 4613poe    c3120785   1.949   7.306   4.255 -0.1695 -0.2746  0.5306
 4613poe     o220786   2.043   7.361   4.344 -0.0253 -0.1219  0.2841
 4613poe    c2320787   2.169   7.299   4.327  0.3189  0.5935  0.1722
 4613poe    c2320788   2.274   7.375   4.410  0.8040  0.0948  0.0216
 4613poe     o220789   2.205   7.429   4.521 -0.2537 -0.2653 -0.4435
 4613poe    c2320790   2.294   7.508   4.598 -0.3077 -0.2125 -0.4355
 4613poe    c2320791   2.212   7.602   4.688  0.1263  0.2046 -0.4708
 4613poe     o220792   2.117   7.682   4.622 -0.3661 -0.0624 -0.0989
 4613poe    c2320793   2.071   7.787   4.704  0.2568  0.2522 -0.1500
 4613poe    c2320794   1.955   7.863   4.638 -0.3541 -0.1420  0.4636
 4613poe     o220795   1.846   7.781   4.602 -0.0643 -0.5246  0.4490
 4613poe    c3120796   1.730   7.857   4.574  0.3618  0.1097  0.3879
 4614poe    c3120797   2.248   5.486   5.888 -0.3626  0.1080  0.6043
 4614poe     o220798   2.182   5.556   5.784  0.1574  0.1139  0.2751
 4614poe    c2320799   2.216   5.497   5.661  0.3705  0.1424  0.3201
 4614poe    c2320800   2.241   5.604   5.553  0.2725 -0.1866 -0.0321
 4614poe     o220801   2.120   5.667   5.516  0.2023 -0.1324  0.2875
 4614poe    c2320802   2.135   5.776   5.428 -0.2599 -0.4020 -0.1249
 4614poe    c2320803   2.023   5.878   5.456  0.1326  0.0316 -0.1220
 4614poe     o220804   2.032   5.936   5.584 -0.2470 -0.4177  0.1116
 4614poe    c2320805   1.954   6.053   5.583 -0.0141 -0.2639  0.0027
 4614poe    c2320806   1.961   6.128   5.718 -0.5577  0.4543 -0.3651
 4614poe     o220807   2.081   6.198   5.743 -0.3635 -0.0432  0.1111
 4614poe    c3120808   2.107   6.331   5.704 -0.5098  0.2726  1.0612
 4615poe    c3120809   5.635   6.862   5.603  0.0809  0.1965 -0.2073
 4615poe     o220810   5.698   6.760   5.676 -0.1877  0.3674  0.2705
 4615poe    c2320811   5.623   6.668   5.752  0.1724  0.0882  0.2922
 4615poe    c2320812   5.692   6.618   5.880  0.2296 -1.2345 -0.2397
 4615poe     o220813   5.832   6.600   5.865  0.3722 -0.1747 -0.2474
 4615poe    c2320814   5.889   6.635   5.989 -0.4501  0.6581 -0.0880
 4615poe    c2320815   5.998   6.741   5.965  0.2985 -0.0718  0.0456
 4615poe     o220816   6.069   6.685   5.857  0.1393 -0.3388  0.0779
 4615poe    c2320817   6.208   6.708   5.853  0.2457 -0.9370  0.3470
 4615poe    c2320818   6.279   6.608   5.759 -0.0048 -0.1185 -0.7233
 4615poe     o220819   6.271   6.649   5.624  0.3212  0.2550 -0.6307
 4615poe    c3120820   6.328   6.550   5.541  0.4185  0.0377 -0.3078
 4616poe    c3120821   3.768   0.552   1.250  0.1423 -0.0623  0.5217
 4616poe     o220822   3.658   0.603   1.322  0.1368  0.3110  0.2508
 4616poe    c2320823   3.557   0.642   1.231  0.0992  0.3691  0.3180
 4616poe    c2320824   3.425   0.688   1.297 -0.1505  0.5777 -0.3222
 4616poe     o220825   3.342   0.586   1.347  0.1532  0.3708 -0.2362
 4616poe    c2320826   3.247   0.631   1.441  0.7696  0.7580  0.2092
 4616poe    c2320827   3.154   0.515   1.481  0.6564  0.5916 -0.5316
 4616poe     o220828   3.043   0.497   1.396  0.0167  0.7850  0.2495
 4616poe    c2320829   2.924   0.563   1.432 -0.3924  0.1472  0.0837
 4616poe    c2320830   2.796   0.520   1.359 -0.3091 -0.4962  0.3064
 4616poe     o220831   2.773   0.380   1.359 -0.1266 -0.5279 -0.2213
 4616poe    c3120832   2.646   0.347   1.308 -0.3288 -0.1004 -0.0019
 4617poe    c3120833   1.741   0.151   0.939 -0.1384  0.1158 -0.4375
 4617poe     o220834   1.742   0.025   0.877  0.5564 -0.1531  0.1045
 4617poe    c2320835   1.693  -0.072   0.967 -0.2994  0.1372 -0.0441
 4617poe    c2320836   1.740  -0.203   0.902  0.8864  0.4896  0.0947
 4617poe     o220837   1.702  -0.199   0.767 -0.4612 -0.1835  0.4320
 4617poe    c2320838   1.695  -0.327   0.709 -0.0121 -0.0459  0.0660
 4617poe    c2320839   1.633  -0.340   0.568  0.2483  0.0706 -0.0611
 4617poe     o220840   1.697  -0.250   0.481  0.1424  0.6620  0.4577
 4617poe    c2320841   1.622  -0.227   0.364  0.2132  0.1097  0.2988
 4617poe    c2320842   1.635  -0.096   0.283 -0.1321 -0.0230  0.0230
 4617poe     o220843   1.571   0.007   0.355  0.1186  0.1098  0.0559
 4617poe    c3120844   1.554   0.107   0.256  0.2836  0.2325  0.1503
 4618poe    c3120845   2.794   0.273   0.546  0.2513  0.2482  0.4679
 4618poe     o220846   2.659   0.240   0.521  0.4035  0.0179 -0.0762
 4618poe    c2320847   2.641   0.102   0.540 -0.0751  0.0399 -0.3715
 4618poe    c2320848   2.494   0.058   0.528 -0.2463  0.5234 -0.0612
 4618poe     o220849   2.415   0.126   0.623  0.2145  0.6389  0.2394
 4618poe    c2320850   2.285   0.075   0.639  0.2515  0.3854 -0.2495
 4618poe    c2320851   2.203   0.135   0.755  0.4331 -0.0093  0.0844
 4618poe     o220852   2.184   0.274   0.758  0.3800 -0.0247  0.6215
 4618poe    c2320853   2.093   0.306   0.861 -0.7582 -0.4153 -0.2438
 4618poe    c2320854   2.035   0.445   0.833 -0.1463 -0.0937  0.0733
 4618poe     o220855   2.133   0.547   0.835 -0.4398  0.1807  0.3691
 4618poe    c3120856   2.081   0.665   0.777 -0.4777 -0.1992 -0.3660
 4619poe    c3120857   3.771   5.152   0.392  0.3785  0.1617 -0.3193
 4619poe     o220858   3.655   5.199   0.327  0.0846 -0.1503 -0.0228
 4619poe    c2320859   3.614   5.313   0.398 -0.0482 -0.0487 -0.2621
 4619poe    c2320860   3.471   5.296   0.453 -0.1087  0.0509 -0.3888
 4619poe     o220861   3.388   5.270   0.342  0.3669  0.5676 -0.8727
 4619poe    c2320862   3.261   5.215   0.370  0.6199  0.3207 -0.1978
 4619poe    c2320863   3.160   5.329   0.394  0.3540  0.0395  0.0295
 4619poe     o220864   3.136   5.402   0.276 -0.1862 -0.0403  0.0912
 4619poe    c2320865   3.075   5.526   0.308  0.1549  0.0379  0.4483
 4619poe    c2320866   3.051   5.611   0.182  0.1850 -0.7502 -0.0933
 4619poe     o220867   3.171   5.658   0.125  0.1109 -0.2274  0.1748
 4619poe    c3120868   3.144   5.751   0.023  0.3947 -0.3849 -0.0474
 4620poe    c3120869   0.943   0.400   0.245 -0.2629 -0.2687  0.5612
 4620poe     o220870   0.900   0.517   0.310 -0.0081  0.0207  0.2130
 4620poe    c2320871   0.932   0.624   0.224 -0.5931 -0.2197 -0.3164
 4620poe    c2320872   0.829   0.738   0.208 -0.3336  0.0547 -0.0421
 4620poe     o220873   0.810   0.819   0.322  0.0785  0.3118 -0.1540
 4620poe    c2320874   0.691   0.892   0.306 -0.5428 -0.6059  0.2174
 4620poe    c2320875   0.591   0.883   0.423 -0.4516  0.0609  0.3507
 4620poe     o220876   0.524   0.759   0.429 -0.3623 -0.0233 -0.3678
 4620poe    c2320877   0.415   0.768   0.518  0.1509  0.5677  0.2084
 4620poe    c2320878   0.315   0.654   0.498  0.7619  0.0805 -0.1111
 4620poe     o220879   0.368   0.540   0.562 -0.4333 -0.0170  0.7453
 4620poe    c3120880   0.292   0.426   0.524 -0.1262  0.0836 -0.2109
 4621poe    c3120881   0.713   3.712   7.002  0.1962 -0.4962 -0.3507
 4621poe     o220882   0.675   3.669   7.131  0.4313 -0.0041 -0.1134
 4621poe    c2320883   0.705   3.767   7.228 -0.1550  0.5031 -0.4342
 4621poe    c2320884   0.665   3.713   7.367 -0.1478  0.1315 -0.5746
 4621poe     o220885   0.536   3.658   7.375  0.0211 -0.1623  0.1970
 4621poe    c2320886   0.527   3.558   7.475  0.1884 -0.3677  0.0062
 4621poe    c2320887   0.389   3.491   7.465  0.1621 -0.2714 -0.3047
 4621poe     o220888   0.368   3.445   7.334  0.3833  0.4263 -0.5905
 4621poe    c2320889   0.229   3.422   7.319  0.2709  0.7188 -0.0224
 4621poe    c2320890   0.192   3.390   7.173  0.2358  0.3448  0.0651
 4621poe     o220891   0.221   3.499   7.087 -0.1025  0.2776 -0.1360
 4621poe    c3120892   0.203   3.471   6.950  0.2470 -0.9943  0.0649
 4622poe    c3120893   7.463   6.629   0.331  0.4412  0.3800  0.9211
 4622poe     o220894   7.400   6.540   0.421 -0.2240  0.1000  0.1909
 4622poe    c2320895   7.279   6.579   0.482 -0.2117 -0.0406  0.3048
 4622poe    c2320896   7.237   6.468   0.580 -0.3642 -0.2573 -0.0036
 4622poe     o220897   7.164   6.363   0.523 -0.4154  0.0570 -0.5158
 4622poe    c2320898   7.099   6.296   0.629  0.9583 -0.0786  0.2651
 4622poe    c2320899   7.038   6.157   0.604  0.2032  0.2800  0.0626
 4622poe     o220900   7.149   6.070   0.600 -0.0459 -0.0494  0.2351
 4622poe    c2320901   7.113   5.941   0.558 -0.1677 -0.0836  0.4447
 4622poe    c2320902   7.205   5.830   0.614  0.1953  0.0127  0.0451
 4622poe     o220903   7.339   5.846   0.573  0.1445 -0.1626 -0.1851
 4622poe    c3120904   7.424   5.748   0.628  0.0918 -0.0095  0.1666
 4623poe    c3120905   3.687   2.691   2.163  0.1172  0.4313 -0.3646
 4623poe     o220906   3.696   2.761   2.285  0.4687 -0.0451 -0.1168
 4623poe    c2320907   3.652   2.680   2.392  0.0083  0.0961 -0.2001
 4623poe    c2320908   3.655   2.748   2.530 -0.0998 -0.5211  0.1100
 4623poe     o220909   3.780   2.812   2.547 -0.0785 -0.5667  0.1287
 4623poe    c2320910   3.818   2.803   2.682  0.3031  0.0167  0.0643
 4623poe    c2320911   3.951   2.877   2.703  0.0201  0.4666  0.3152
 4623poe     o220912   3.946   3.002   2.638 -0.0126  0.1722 -0.2602
 4623poe    c2320913   4.075   3.053   2.616  0.2958 -0.5654 -0.1735
 4623poe    c2320914   4.044   3.188   2.549 -0.3191 -0.4378  0.3654
 4623poe     o220915   3.923   3.184   2.477  0.1007  0.2087 -0.3831
 4623poe    c3120916   3.884   3.305   2.416  0.4180  0.3487 -0.3082
 4624poe    c3120917   3.006   4.838   5.948 -0.0288 -0.0922 -0.0365
 4624poe     o220918   3.003   4.825   5.807  0.7200  0.4682 -0.1099
 4624poe    c2320919   2.885   4.884   5.757  0.2528  0.1318  0.5710
 4624poe    c2320920   2.922   4.924   5.613  0.8004 -0.8108  0.4404
 4624poe     o220921   2.941   4.818   5.522  0.8649 -0.4146 -0.0146
 4624poe    c2320922   2.981   4.874   5.399  0.3654  0.3640  0.1701
 4624poe    c2320923   3.021   4.771   5.292 -0.5265  0.1624  0.0231
 4624poe     o220924   3.138   4.708   5.339 -0.4860 -0.1288 -0.4574
 4624poe    c2320925   3.192   4.620   5.243 -0.2289  0.2244 -0.6378
 4624poe    c2320926   3.338   4.585   5.281 -0.2490  0.4468 -0.3544
 4624poe     o220927   3.353   4.491   5.385 -0.1223 -0.1536 -0.9101
 4624poe    c3120928   3.492   4.473   5.397 -0.2631 -0.2668  0.6749
 4625poe    c3120929   4.654   7.408   3.997  0.2181 -1.1051 -0.0047
 4625poe     o220930   4.669   7.430   4.135 -0.2969 -0.2883 -0.0734
 4625poe    c2320931   4.774   7.525   4.144 -0.0262 -0.5915 -0.0211
 4625poe    c2320932   4.805   7.518   4.295  0.0655  0.6198  0.0252
 4625poe     o220933   4.705   7.445   4.363 -0.0365  0.2961 -0.4642
 4625poe    c2320934   4.733   7.449   4.501 -0.1599  0.3205 -0.4403
 4625poe    c2320935   4.601   7.440   4.581  0.3898 -0.1540  0.4295
 4625poe     o220936   4.524   7.333   4.530  0.2414  0.0485  0.2261
 4625poe    c2320937   4.392   7.318   4.576  0.3682 -0.0817  0.5465
 4625poe    c2320938   4.329   7.183   4.537 -0.1984  0.2971  0.1543
 4625poe     o220939   4.326   7.169   4.396  0.0791 -0.3682  0.2128
 4625poe    c3120940   4.235   7.076   4.342 -0.2186  0.1789 -0.2452
 4626poe    c3120941   3.759   3.657   0.312 -0.1646  0.7917  0.2623
 4626poe     o220942   3.622   3.666   0.278 -0.0224  0.3165 -0.4624
 4626poe    c2320943   3.591   3.594   0.161  0.2177 -0.1983 -0.2109
 4626poe    c2320944   3.454   3.528   0.135 -0.0409 -0.0593  0.7546
 4626poe     o220945   3.360   3.631   0.114  0.0999 -0.1497 -0.3446
 4626poe    c2320946   3.231   3.574   0.098  0.2719 -0.4363 -0.7492
 4626poe    c2320947   3.130   3.688   0.076  0.1660 -0.3610  0.0695
 4626poe     o220948   3.100   3.753   0.197 -0.1270 -0.2665 -0.0535
 4626poe    c2320949   3.031   3.874   0.170  0.2764 -0.0737 -0.2249
 4626poe    c2320950   3.061   3.989   0.267 -0.5792 -0.0413  0.0017
 4626poe     o220951   3.183   4.055   0.242 -0.3593 -0.2786  0.4339
 4626poe    c3120952   3.223   4.128   0.355 -0.5567 -0.1421  0.4149
 4627poe    c3120953   3.477   6.428   1.518 -0.2264  0.2331 -0.3418
 4627poe     o220954   3.588   6.497   1.466 -0.1632  0.3503 -0.0536
 4627poe    c2320955   3.675   6.523   1.574 -0.0086 -0.1560 -0.0540
 4627poe    c2320956   3.757   6.642   1.521 -0.2442  0.2333  0.4442
 4627poe     o220957   3.798   6.611   1.390 -0.1182  0.0430  0.5265
 4627poe    c2320958   3.867   6.716   1.325 -0.6320  0.0582 -0.0108
 4627poe    c2320959   3.910   6.674   1.183 -0.2850  0.1317  0.0710
 4627poe     o220960   3.794   6.621   1.122 -0.1590 -0.1280  0.0561
 4627poe    c2320961   3.825   6.587   0.989 -0.4230  0.0378 -0.0473
 4627poe    c2320962   3.712   6.523   0.906 -0.6005  0.0379  0.1946
 4627poe     o220963   3.698   6.387   0.940  0.2436  0.0039  0.4230
 4627poe    c3120964   3.607   6.316   0.859  0.1380  0.5513  0.0621
 4628poe    c3120965   1.921   0.496   2.577  0.5031 -0.2986  0.9205
 4628poe     o220966   1.836   0.386   2.551 -0.1619  0.4576 -0.2227
 4628poe    c2320967   1.755   0.352   2.662 -0.0081  0.0686 -0.2287
 4628poe    c2320968   1.712   0.207   2.632 -0.0763  0.0123  0.1358
 4628poe     o220969   1.663   0.204   2.499  0.1322 -0.2038  0.0619
 4628poe    c2320970   1.647   0.068   2.466 -0.0643 -0.1784  0.0479
 4628poe    c2320971   1.608   0.061   2.318  0.0338 -0.6605  0.0439
 4628poe     o220972   1.682   0.159   2.249 -0.1078 -0.4588  0.1774
 4628poe    c2320973   1.617   0.167   2.124  0.3993  0.1194 -0.0542
 4628poe    c2320974   1.711   0.228   2.018 -0.0806 -0.0390 -0.5722
 4628poe     o220975   1.759   0.357   2.047 -0.0481 -0.2163  0.1711
 4628poe    c3120976   1.876   0.385   1.974  0.0075 -0.1809  0.2729
 4629poe    c3120977   5.762   7.273   5.029  0.5310  0.1258  0.0311
 4629poe     o220978   5.700   7.395   4.998 -0.2706 -0.2696  0.0655
 4629poe    c2320979   5.663   7.455   5.120  0.5925  0.4506 -0.0218
 4629poe    c2320980   5.612   7.599   5.098  0.0344  0.2372 -0.1518
 4629poe     o220981   5.706   7.699   5.062  0.3015 -0.0212 -0.1776
 4629poe    c2320982   5.637   7.821   5.046  0.4647  0.1173  0.1674
 4629poe    c2320983   5.741   7.931   5.026  0.3464  0.2130  0.0772
 4629poe     o220984   5.829   7.905   4.919  0.1673 -0.6169  0.1306
 4629poe    c2320985   5.941   7.989   4.934 -0.1853 -0.1628  0.2304
 4629poe    c2320986   6.036   7.992   4.812 -0.1412 -0.4057  0.2575
 4629poe     o220987   5.981   8.046   4.694  0.2191 -0.0360  0.2571
 4629poe    c3120988   6.081   8.084   4.602  0.0651 -0.5532 -0.1258
 4630poe    c3120989   3.720   0.465   2.770 -0.2531  0.8906 -0.2248
 4630poe     o220990   3.839   0.488   2.842 -0.4030 -0.0360  0.3423
 4630poe    c2320991   3.854   0.627   2.860  0.3240 -0.0696  0.0279
 4630poe    c2320992   3.985   0.669   2.929  0.3536 -0.4153  0.1854
 4630poe     o220993   4.102   0.653   2.851  0.0252 -0.2881 -0.3408
 4630poe    c2320994   4.215   0.693   2.926 -0.5173  0.5464  0.0497
 4630poe    c2320995   4.338   0.716   2.836 -0.4127  0.4388  0.1638
 4630poe     o220996   4.368   0.601   2.761 -0.1159  0.6368 -0.0198
 4630poe    c2320997   4.500   0.603   2.711 -0.2288  0.3149 -0.3365
 4630poe    c2320998   4.501   0.553   2.565 -0.0003  0.0765 -0.2525
 4630poe     o220999   4.460   0.420   2.547  0.2376  0.0053 -0.2796
 4630poe    c3121000   4.559   0.320   2.545  0.1278 -0.1210  0.3772
 4631poe    c3121001   6.002   0.385   7.055  0.0977 -0.4519  0.1141
 4631poe     o221002   5.939   0.270   7.005  0.2809 -0.6301  0.2927
 4631poe    c2321003   5.823   0.228   7.073 -0.0871  0.3513  0.2850
 4631poe    c2321004   5.750   0.133   6.976  0.1517  0.1031  0.3467
 4631poe     o221005   5.830   0.023   6.942 -0.1713  0.0325 -0.1960
 4631poe    c2321006   5.771  -0.049   6.836 -0.1874 -0.5009  0.1714
 4631poe    c2321007   5.868  -0.145   6.763  0.1024  0.1129 -0.2592
 4631poe     o221008   5.980  -0.075   6.714  0.1942  0.2947  0.2003
 4631poe    c2321009   6.038  -0.136   6.601  0.0026  0.3637  0.0638
 4631poe    c2321010   6.179  -0.086   6.564  0.1037  0.1891  0.2087
 4631poe     o221011   6.173   0.034   6.489 -0.1347 -0.1860 -0.3765
 4631poe    c3121012   6.302   0.092   6.487 -0.2157  0.0178  0.2162
 4632poe    c3121013   2.964   1.382   3.763  0.4160 -0.2672  0.3308
 4632poe     o221014   2.864   1.357   3.859 -0.0828 -0.4894 -0.2405
 4632poe    c2321015   2.875   1.253   3.953 -0.0291  0.0126  0.3180
 4632poe    c2321016   2.981   1.265   4.064 -0.2983 -0.1054  0.5883
 4632poe     o221017   2.961   1.385   4.136 -0.0462  0.6554 -0.5894
 4632poe    c2321018   3.026   1.394   4.260  0.0879  0.2078 -0.6236
 4632poe    c2321019   2.966   1.509   4.343  0.0908  0.0739 -0.4368
 4632poe     o221020   2.906   1.597   4.251  0.7220  0.0836 -0.8385
 4632poe    c2321021   2.835   1.701   4.314  0.6077 -0.5336  0.0785
 4632poe    c2321022   2.874   1.835   4.248  0.3803 -0.2208  0.5724
 4632poe     o221023   2.878   1.798   4.112 -0.8070  0.4127  0.3497
 4632poe    c3121024   2.897   1.916   4.037 -0.4414  0.2458  0.1785
 4633poe    c3121025   4.222   1.778   6.126  0.4508 -0.1483  0.4154
 4633poe     o221026   4.251   1.818   5.994  0.1327 -0.2943  0.3013
 4633poe    c2321027   4.134   1.794   5.918  0.3183 -0.4591  0.0667
 4633poe    c2321028   4.138   1.869   5.783 -0.4429 -0.9958 -0.2543
 4633poe     o221029   4.273   1.872   5.745 -0.3856 -0.2153  0.0164
 4633poe    c2321030   4.286   1.909   5.610  0.3289  0.2190  0.1956
 4633poe    c2321031   4.435   1.895   5.573  0.2156 -0.4156 -0.0382
 4633poe     o221032   4.517   1.970   5.661  0.2569 -0.1748 -0.2819
 4633poe    c2321033   4.645   1.986   5.604  0.3665  0.1132  0.0469
 4633poe    c2321034   4.739   2.060   5.701 -0.1684  0.0160  0.6507
 4633poe     o221035   4.715   2.199   5.703  0.3792  0.1201  0.3058
 4633poe    c3121036   4.769   2.254   5.821 -0.2620 -0.4519  0.8715
 4634poe    c3121037   7.038   2.264   1.805  0.4023 -0.0556 -0.5477
 4634poe     o221038   7.055   2.349   1.694 -0.4346  0.1802 -0.5000
 4634poe    c2321039   7.146   2.289   1.604  0.7726  0.2467  0.6590
 4634poe    c2321040   7.142   2.348   1.462 -0.2842 -0.3040  0.4521
 4634poe     o221041   7.005   2.380   1.446 -0.1267 -0.1985 -0.7475
 4634poe    c2321042   6.960   2.473   1.350 -0.5174 -0.2455 -0.6125
 4634poe    c2321043   6.810   2.494   1.374 -0.4064  0.1628 -0.2697
 4634poe     o221044   6.796   2.494   1.514 -0.6954  0.5347 -0.2947
 4634poe    c2321045   6.664   2.494   1.565 -0.5245  0.2686  0.1516
 4634poe    c2321046   6.669   2.531   1.714  0.1897  0.1035  0.1746
 4634poe     o221047   6.781   2.459   1.760  0.4184  0.3018 -0.0696
 4634poe    c3121048   6.768   2.473   1.899 -0.0563  0.3297 -0.1132
 4635poe    c3121049   2.491   6.096   4.489  0.5936 -0.4178 -0.0019
 4635poe     o221050   2.528   6.118   4.623 -0.3147  0.3004  0.1388
 4635poe    c2321051   2.669   6.116   4.624 -0.2973  0.5903 -0.8189
 4635poe    c2321052   2.726   6.175   4.754 -0.2658 -0.0972 -0.5155
 4635poe     o221053   2.714   6.314   4.776 -0.2767 -0.1238 -0.3504
 4635poe    c2321054   2.781   6.362   4.891 -0.0657 -0.8484 -0.1691
 4635poe    c2321055   2.679   6.439   4.977  0.0070 -0.6238 -0.2854
 4635poe     o221056   2.607   6.521   4.888 -0.0415  0.1783  0.4799
 4635poe    c2321057   2.498   6.596   4.937 -0.3521 -0.0141  0.0949
 4635poe    c2321058   2.450   6.679   4.817  0.0283 -0.2259 -0.2058
 4635poe     o221059   2.428   6.593   4.707 -0.2231 -0.2870 -0.1080
 4635poe    c3121060   2.407   6.665   4.587  0.7002 -0.4397 -0.3692
 4636poe    c3121061   0.982   3.189   7.457  0.1995  0.1499  0.1017
 4636poe     o221062   0.924   3.253   7.345  0.2496 -0.2718 -0.1692
 4636poe    c2321063   0.996   3.368   7.306 -0.2255  0.1982  0.3175
 4636poe    c2321064   0.957   3.412   7.163  0.1233 -0.1162  0.1227
 4636poe     o221065   0.957   3.310   7.066 -0.0568 -0.2718  0.2859
 4636poe    c2321066   0.934   3.379   6.946 -0.1645  0.1232  0.5326
 4636poe    c2321067   0.987   3.296   6.828 -0.3391  0.5571  0.1474
 4636poe     o221068   0.905   3.183   6.811  0.2693  0.1149  0.1373
 4636poe    c2321069   0.967   3.093   6.722  0.2035  0.3139 -0.1093
 4636poe    c2321070   0.874   2.974   6.693 -0.0977  0.4680  0.2126
 4636poe     o221071   0.762   3.023   6.624  0.2960 -0.0300 -0.8012
 4636poe    c3121072   0.671   2.920   6.590 -0.2823  0.3909 -0.5376
 4637poe    c3121073   5.434   7.061   6.507  0.8184  0.1258  0.6741
 4637poe     o221074   5.452   7.200   6.525 -0.1968  0.3715 -0.1323
 4637poe    c2321075   5.586   7.229   6.493 -0.0435 -0.5363 -0.3541
 4637poe    c2321076   5.592   7.363   6.418 -0.4028 -0.1429  0.3052
 4637poe     o221077   5.560   7.462   6.513 -0.3117  0.1816  0.0014
 4637poe    c2321078   5.603   7.590   6.472  0.0756 -0.0933 -0.4439
 4637poe    c2321079   5.602   7.705   6.574 -0.5182 -0.4559 -0.0368
 4637poe     o221080   5.482   7.715   6.647 -0.4161 -0.6978  0.1656
 4637poe    c2321081   5.440   7.844   6.687 -0.2839 -0.5931 -0.0333
 4637poe    c2321082   5.525   7.920   6.790 -0.3511  0.2590 -0.5933
 4637poe     o221083   5.655   7.958   6.749 -0.2129  0.0314 -0.3704
 4637poe    c3121084   5.734   8.011   6.853 -0.0721  0.0259 -0.4755
 4638poe    c3121085   3.885   5.157   2.408  0.7975 -0.1032  0.2104
 4638poe     o221086   3.889   5.297   2.398  0.0202 -0.0892 -0.0100
 4638poe    c2321087   3.914   5.344   2.529 -0.0010  0.5408 -0.2271
 4638poe    c2321088   3.958   5.491   2.538  0.2676  0.4903 -0.6972
 4638poe     o221089   3.872   5.596   2.500 -0.1793  0.2404 -0.3852
 4638poe    c2321090   3.907   5.706   2.581  0.5469 -0.2558 -0.0128
 4638poe    c2321091   3.804   5.820   2.573 -0.0859 -0.8059  0.2442
 4638poe     o221092   3.796   5.904   2.460  0.7772 -0.4345  0.4500
 4638poe    c2321093   3.904   5.993   2.448 -0.2884  0.8800  0.3788
 4638poe    c2321094   3.917   6.034   2.300 -0.2699 -0.5819 -0.0408
 4638poe     o221095   3.947   5.935   2.205 -0.0169 -0.0790 -0.4941
 4638poe    c3121096   3.962   5.995   2.079 -0.1517 -0.0551 -0.4981
 4639poe    c3121097   5.279   1.678   6.827 -0.1897  0.0632  0.4667
 4639poe     o221098   5.186   1.573   6.822  0.0752 -0.1651  0.2951
 4639poe    c2321099   5.239   1.444   6.844 -0.4558 -0.5573 -0.6586
 4639poe    c2321100   5.253   1.389   6.987 -0.8266  0.1672 -0.3400
 4639poe     o221101   5.136   1.362   7.061 -0.0291 -0.1530  0.8204
 4639poe    c2321102   5.103   1.474   7.140  0.0263  0.7238 -0.3682
 4639poe    c2321103   4.992   1.441   7.242  0.0937  0.8357 -0.2577
 4639poe     o221104   5.038   1.374   7.357 -0.0365 -0.2983 -0.8480
 4639poe    c2321105   4.940   1.278   7.390  0.0634  0.0081  0.3940
 4639poe    c2321106   4.937   1.232   7.537 -0.6382 -0.6073  0.1943
 4639poe     o221107   5.061   1.190   7.590 -0.2014  0.2935 -0.0890
 4639poe    c3121108   5.029   1.097   7.692 -0.0949  0.5640  0.1930
 4640poe    c3121109   1.215   5.088   5.356 -0.2152  0.2596 -0.6430
 4640poe     o221110   1.108   5.004   5.318  0.1123 -0.2887 -0.3636
 4640poe    c2321111   1.151   4.870   5.337 -0.1385 -0.3932 -0.5412
 4640poe    c2321112   1.047   4.761   5.305 -0.3369 -0.4533  0.2910
 4640poe     o221113   0.984   4.772   5.179 -0.0474  0.2412  0.2008
 4640poe    c2321114   0.858   4.708   5.179 -0.1718  0.4835  0.3599
 4640poe    c2321115   0.777   4.727   5.050  0.8450  0.1890 -0.3377
 4640poe     o221116   0.742   4.863   5.032 -0.0430 -0.0432 -0.4242
 4640poe    c2321117   0.640   4.874   4.935 -0.1439 -0.2415 -0.3419
 4640poe    c2321118   0.577   5.013   4.913  0.3249  0.0222 -0.0474
 4640poe     o221119   0.659   5.104   4.842  0.4168 -0.1042 -0.1048
 4640poe    c3121120   0.598   5.231   4.838  0.4192 -0.1006 -0.0189
 4641poe    c3121121   2.955   4.219   1.723 -0.1099  0.1781 -0.2532
 4641poe     o221122   3.004   4.349   1.696  0.1082  0.1530  0.0189
 4641poe    c2321123   2.939   4.417   1.592  0.7973  0.5510 -0.1565
 4641poe    c2321124   2.987   4.558   1.552 -0.0477  1.0811  0.6599
 4641poe     o221125   3.104   4.554   1.474 -0.5140  0.1734 -0.0047
 4641poe    c2321126   3.123   4.665   1.389  0.9229  0.3199  0.4784
 4641poe    c2321127   3.218   4.645   1.270  0.4338  0.1711  0.1124
 4641poe     o221128   3.355   4.628   1.299  0.4353 -0.0231 -0.0068
 4641poe    c2321129   3.423   4.633   1.176 -0.4138 -0.4938 -0.5046
 4641poe    c2321130   3.575   4.640   1.199 -0.4889 -0.2650 -0.0784
 4641poe     o221131   3.633   4.516   1.232 -0.2040 -0.0779  0.1303
 4641poe    c3121132   3.773   4.532   1.239 -0.2661  0.8804 -0.5265
 4642poe    c3121133   7.354   3.906   5.074 -0.1188  0.2096 -0.5368
 4642poe     o221134   7.464   3.945   4.995  0.2931  0.2425  0.0497
 4642poe    c2321135   7.464   4.083   4.967  0.2660  0.2011 -0.1537
 4642poe    c2321136   7.570   4.136   4.868  0.2441  0.9625  0.2200
 4642poe     o221137   7.698   4.097   4.915  0.1752  0.2635 -0.1583
 4642poe    c2321138   7.775   4.211   4.884  0.6436  0.1085  0.4278
 4642poe    c2321139   7.923   4.176   4.907  0.5661 -0.1773  0.4884
 4642poe     o221140   7.942   4.125   5.037  0.0386  0.4024  0.7930
 4642poe    c2321141   8.067   4.062   5.049 -0.0864 -0.1219 -0.4903
 4642poe    c2321142   8.069   4.010   5.194 -0.0032  0.0462 -0.4318
 4642poe     o221143   7.947   3.947   5.226  0.4592 -0.7315 -0.1900
 4642poe    c3121144   7.972   3.886   5.351  0.0045 -0.0982  0.2145
 4643poe    c3121145   5.262   6.351   3.826  0.2725  0.0956 -0.4113
 4643poe     o221146   5.280   6.303   3.957  0.4377 -0.5567 -0.6729
 4643poe    c2321147   5.363   6.392   4.028  0.1182 -0.6593 -0.1690
 4643poe    c2321148   5.399   6.325   4.162  0.2484  0.0452  0.1527
 4643poe     o221149   5.440   6.194   4.132 -0.2743 -0.1989  0.4791
 4643poe    c2321150   5.572   6.172   4.087 -0.3916  0.1476 -0.0467
 4643poe    c2321151   5.591   6.035   4.020  0.5573  0.2298  0.0340
 4643poe     o221152   5.581   5.935   4.119  0.6549 -0.1314 -0.3194
 4643poe    c2321153   5.531   5.811   4.075  0.0410  0.0605 -0.1654
 4643poe    c2321154   5.640   5.718   4.019  0.2029  0.3487 -0.3311
 4643poe     o221155   5.732   5.663   4.111 -0.1642  0.5063  0.1314
 4643poe    c3121156   5.845   5.613   4.044  0.0965  0.2692  0.7419
 4644poe    c3121157   2.512   2.218   5.321 -0.7325  0.6425 -0.2965
 4644poe     o221158   2.611   2.267   5.234  0.0071  0.3654  0.3692
 4644poe    c2321159   2.551   2.251   5.107  0.2527 -0.0582  0.3072
 4644poe    c2321160   2.648   2.272   4.989 -0.6207 -0.0163 -0.4177
 4644poe     o221161   2.704   2.400   4.970 -0.5924 -0.0894 -0.8332
 4644poe    c2321162   2.819   2.397   4.887  0.1848 -0.5867  0.2332
 4644poe    c2321163   2.887   2.535   4.886 -0.1156 -0.4365  0.3486
 4644poe     o221164   2.922   2.594   5.010  0.2768  0.0431  0.0107
 4644poe    c2321165   3.031   2.684   5.009 -0.0006  0.3791 -0.2540
 4644poe    c2321166   3.060   2.714   5.157 -0.0741 -0.0040 -0.1614
 4644poe     o221167   2.935   2.744   5.216  0.0474 -0.1394  0.1704
 4644poe    c3121168   2.961   2.831   5.324  0.3719 -0.3045  0.2283
 4645poe    c3121169   4.071   0.898   0.162  0.5620 -0.2312  0.2955
 4645poe     o221170   4.052   0.905   0.302 -0.4104  0.2745  0.1523
 4645poe    c2321171   4.176   0.902   0.368 -0.1595  0.8344 -0.2816
 4645poe    c2321172   4.205   1.005   0.479  0.5466  0.0342  0.2938
 4645poe     o221173   4.134   0.988   0.600  0.1540  0.0297  0.0642
 4645poe    c2321174   4.155   1.102   0.681  0.8084  0.0894 -0.1776
 4645poe    c2321175   4.036   1.125   0.776  0.7377  0.5456 -0.3755
 4645poe     o221176   3.912   1.120   0.709  0.2682  0.0883  0.4992
 4645poe    c2321177   3.804   1.187   0.769  0.0092  0.4037 -0.3099
 4645poe    c2321178   3.675   1.151   0.694 -0.1762  0.1349  0.1370
 4645poe     o221179   3.647   1.014   0.715 -0.8925  0.3249  0.4443
 4645poe    c3121180   3.551   0.972   0.621 -0.0117 -0.0751 -0.2857
 4646poe    c3121181   3.323   5.941   0.665  0.1769 -0.1434  0.5560
 4646poe     o221182   3.332   6.038   0.564 -0.0078 -0.1531  0.5295
 4646poe    c2321183   3.269   6.160   0.598  0.3632  0.1290  0.2175
 4646poe    c2321184   3.262   6.264   0.485  0.3403  0.0158  0.1142
 4646poe     o221185   3.168   6.233   0.385  0.1082  0.1201  0.2994
 4646poe    c2321186   3.157   6.332   0.284  0.2944  0.0851  0.2450
 4646poe    c2321187   3.124   6.277   0.144 -0.0183  0.2715  0.2462
 4646poe     o221188   2.999   6.213   0.135 -0.2122  0.6856 -0.0428
 4646poe    c2321189   2.980   6.137   0.018  0.1609  0.5130  0.0076
 4646poe    c2321190   2.864   6.037   0.037  0.7862 -0.2234 -0.0024
 4646poe     o221191   2.860   5.952  -0.075  0.1720 -0.0054 -0.1469
 4646poe    c3121192   2.738   5.881  -0.063  0.1576  0.0116 -0.1938
 4647poe    c3121193   6.295   7.368   5.532 -0.5184 -0.0347  0.8316
 4647poe     o221194   6.358   7.248   5.572  0.5567  0.2731  0.1245
 4647poe    c2321195   6.459   7.192   5.491 -0.2686  0.0554 -0.7689
 4647poe    c2321196   6.487   7.043   5.515 -0.3516  0.1086 -0.3337
 4647poe     o221197   6.486   7.024   5.655  0.0540  0.3127 -0.3028
 4647poe    c2321198   6.521   6.890   5.685 -0.6170  0.2144  0.0544
 4647poe    c2321199   6.568   6.894   5.832  0.2687  0.3093 -0.2274
 4647poe     o221200   6.467   6.932   5.922 -0.0766 -0.3805 -0.3194
 4647poe    c2321201   6.508   6.890   6.050 -0.4437  0.0834 -0.0462
 4647poe    c2321202   6.420   6.947   6.162 -0.5680  0.1453 -0.1750
 4647poe     o221203   6.412   7.088   6.170 -0.2649  0.1338  0.3513
 4647poe    c3121204   6.320   7.130   6.268 -0.8778 -0.0628 -0.1360
 4648poe    c3121205   2.972   1.746   1.840  0.7438 -0.4331  0.3145
 4648poe     o221206   2.930   1.753   1.975  0.3088  0.1190  0.1510
 4648poe    c2321207   2.883   1.630   2.022 -0.0101  0.1534 -0.0758
 4648poe    c2321208   2.794   1.659   2.145 -0.3290  0.0087 -0.2701
 4648poe     o221209   2.859   1.718   2.255 -0.1643 -0.6495 -0.0076
 4648poe    c2321210   2.775   1.740   2.366 -0.2429  0.0073 -0.1924
 4648poe    c2321211   2.829   1.836   2.474 -0.2576 -0.0218 -0.1593
 4648poe     o221212   2.822   1.973   2.442  0.0067  0.1148  0.3563
 4648poe    c2321213   2.913   2.049   2.518  0.1028 -0.0151  0.3716
 4648poe    c2321214   2.948   2.185   2.454  0.3575 -0.3051 -0.1143
 4648poe     o221215   3.011   2.183   2.328 -0.3511 -0.2237 -0.4774
 4648poe    c3121216   2.997   2.317   2.287 -0.3397 -0.2442 -0.5482
 4649poe    c3121217   2.626   4.104   5.245 -0.6074  0.6054 -0.5883
 4649poe     o221218   2.665   4.218   5.318  0.0676  0.1135 -0.1586
 4649poe    c2321219   2.766   4.293   5.255  0.0413  0.3416  0.0687
 4649poe    c2321220   2.781   4.432   5.321  0.1401  0.3601  0.0083
 4649poe     o221221   2.757   4.416   5.459 -0.0666  0.3041 -0.0341
 4649poe    c2321222   2.764   4.542   5.521  0.2164  0.2619  0.0197
 4649poe    c2321223   2.710   4.551   5.665  0.4602 -0.1291  0.1352
 4649poe     o221224   2.749   4.452   5.758  0.3134 -0.4872 -0.1791
 4649poe    c2321225   2.667   4.462   5.872  0.3808 -0.6407 -0.1174
 4649poe    c2321226   2.741   4.448   6.006 -0.3311  0.1331  0.3684
 4649poe     o221227   2.776   4.312   6.020  0.5897  0.3246 -0.0372
 4649poe    c3121228   2.866   4.293   6.128  0.0108 -0.9351  0.2453
 4650poe    c3121229   3.453   3.916   4.309 -0.2088  0.7699 -0.0361
 4650poe     o221230   3.534   3.925   4.194 -0.0693  0.4158  0.0353
 4650poe    c2321231   3.450   3.950   4.084 -0.4053 -0.6571  0.0388
 4650poe    c2321232   3.525   3.957   3.950  0.1453  0.2670  0.3862
 4650poe     o221233   3.560   3.827   3.908  0.0871  0.3327  0.1326
 4650poe    c2321234   3.602   3.826   3.773 -0.1731  0.0660  0.0507
 4650poe    c2321235   3.643   3.687   3.721  0.3896  0.3173 -0.1927
 4650poe     o221236   3.761   3.648   3.788  0.0969  0.1141  0.2132
 4650poe    c2321237   3.792   3.517   3.744 -0.2093  0.1882 -0.2378
 4650poe    c2321238   3.921   3.447   3.790 -0.1008  0.6038  0.1007
 4650poe     o221239   3.910   3.401   3.923 -0.1460 -0.0292 -0.1161
 4650poe    c3121240   4.021   3.318   3.949  0.1964  0.5948  0.4620
 4651poe    c3121241   4.381   4.933   4.883 -0.0636  0.1522 -0.3894
 4651poe     o221242   4.275   4.909   4.795  0.1484 -0.2316 -0.5422
 4651poe    c2321243   4.206   4.796   4.844 -0.3104  0.3313  0.1190
 4651poe    c2321244   4.094   4.753   4.748 -0.1501  0.1049  0.0322
 4651poe     o221245   3.986   4.844   4.748  0.2552  0.5889 -0.1197
 4651poe    c2321246   3.890   4.797   4.656 -0.0232  0.2742  0.3302
 4651poe    c2321247   3.783   4.903   4.623  0.1286  0.3544  0.1023
 4651poe     o221248   3.866   5.005   4.572  0.1039  0.3379  0.0274
 4651poe    c2321249   3.810   5.094   4.478 -0.1767 -0.2415 -0.3548
 4651poe    c2321250   3.920   5.191   4.434  0.1224 -0.2943  0.2597
 4651poe     o221251   3.960   5.255   4.553  0.7600 -0.3843  0.1010
 4651poe    c3121252   3.960   5.394   4.534  0.5336 -0.2972  0.6959
 4652poe    c3121253   6.893   1.760   6.909  0.4958 -0.1159 -0.1608
 4652poe     o221254   6.951   1.879   6.860  0.2297  0.0579 -0.0552
 4652poe    c2321255   7.072   1.923   6.915  0.2091 -0.1533  0.1582
 4652poe    c2321256   7.190   1.861   6.838  0.1873  0.2729 -0.2181
 4652poe     o221257   7.220   1.913   6.710 -0.0980 -0.1233 -0.4502
 4652poe    c2321258   7.343   1.873   6.654  0.2854 -0.0329  0.3074
 4652poe    c2321259   7.378   1.945   6.522  0.2711 -0.4485  0.0737
 4652poe     o221260   7.287   1.916   6.418  0.2365  0.3538 -0.1284
 4652poe    c2321261   7.319   1.989   6.302 -0.5739  0.3659 -0.3528
 4652poe    c2321262   7.199   1.999   6.206 -0.6029  0.1667 -0.3370
 4652poe     o221263   7.098   2.068   6.277 -0.4787 -0.1783  0.1798
 4652poe    c3121264   6.987   2.085   6.193 -0.2797  0.1050 -0.0267
 4653poe    c3121265   6.492   3.387   2.151 -0.0258 -0.0312 -0.1281
 4653poe     o221266   6.444   3.274   2.082  0.4157 -0.0224 -0.4559
 4653poe    c2321267   6.496   3.174   2.166  0.2566 -0.0458 -0.3854
 4653poe    c2321268   6.428   3.037   2.149  0.2143 -0.0561 -0.1424
 4653poe     o221269   6.421   2.977   2.022  0.8327 -0.3032 -0.0656
 4653poe    c2321270   6.313   2.886   2.025  0.0823  0.5842 -0.0318
 4653poe    c2321271   6.261   2.837   1.889 -0.1229  0.2079  0.1795
 4653poe     o221272   6.190   2.924   1.803 -0.1172  0.0955  0.0603
 4653poe    c2321273   6.166   2.874   1.674  0.5182  0.4201 -0.1865
 4653poe    c2321274   6.070   2.965   1.595 -0.0911 -0.1371 -0.1003
 4653poe     o221275   6.118   3.096   1.574 -0.3614 -0.0223 -0.0166
 4653poe    c3121276   6.018   3.195   1.562  0.0252  0.3693 -0.0510
 4654poe    c3121277   7.336   6.111   3.647  0.0082  0.1705 -0.3974
 4654poe     o221278   7.230   6.152   3.729  0.1753 -0.3264  0.0699
 4654poe    c2321279   7.281   6.194   3.854 -0.2545 -0.5268  0.3185
 4654poe    c2321280   7.182   6.291   3.920 -0.1813 -0.2872  0.0783
 4654poe     o221281   7.177   6.414   3.851 -0.4366 -0.0763  0.4686
 4654poe    c2321282   7.054   6.479   3.875 -0.7435 -0.4012 -0.2044
 4654poe    c2321283   7.034   6.596   3.776 -0.2148 -0.2428 -0.1243
 4654poe     o221284   7.021   6.558   3.641  0.2167  0.0577 -0.2531
 4654poe    c2321285   7.136   6.517   3.572  0.1926 -0.0935 -0.2021
 4654poe    c2321286   7.120   6.484   3.422  0.0543  0.6035 -0.3403
 4654poe     o221287   7.044   6.372   3.385  0.3494  0.4415 -0.4585
 4654poe    c3121288   7.064   6.346   3.247 -0.1562  0.0183 -0.4557
 4655poe    c3121289   2.322   1.000   0.930  0.0793  0.5397  0.1321
 4655poe     o221290   2.229   1.043   1.027 -0.2091 -0.3259  0.2534
 4655poe    c2321291   2.104   0.983   1.003 -0.1715 -0.5535  0.6229
 4655poe    c2321292   1.985   1.000   1.099 -0.4998 -0.3681  0.1908
 4655poe     o221293   1.958   1.138   1.113  0.4229 -0.1887  0.2386
 4655poe    c2321294   1.927   1.159   1.249  0.3618 -0.0706  0.2062
 4655poe    c2321295   1.823   1.265   1.291  0.1657 -0.3440  0.4154
 4655poe     o221296   1.877   1.395   1.283 -0.2906 -0.1816 -0.0933
 4655poe    c2321297   1.777   1.489   1.249  0.0658 -0.0873 -0.8848
 4655poe    c2321298   1.826   1.625   1.301 -0.5357  0.0693 -0.7197
 4655poe     o221299   1.944   1.660   1.230 -0.1536 -0.3330 -0.2896
 4655poe    c3121300   2.002   1.778   1.282  0.0647 -0.5326 -0.0808
 4656poe    c3121301   7.176   3.145   6.913 -0.0446 -0.3994  0.1170
 4656poe     o221302   7.146   3.253   6.999 -0.2674 -0.4600  0.1166
 4656poe    c2321303   7.036   3.221   7.082  0.0295 -0.0657  0.6710
 4656poe    c2321304   7.044   3.286   7.221 -0.1788 -0.0295  0.6659
 4656poe     o221305   7.019   3.424   7.233  0.0994  0.0780  0.0220
 4656poe    c2321306   7.005   3.468   7.366 -0.7066  0.0124 -0.0370
 4656poe    c2321307   6.997   3.621   7.362 -0.0647  0.0706  0.6354
 4656poe     o221308   7.100   3.667   7.277 -0.1344  0.3802  0.7177
 4656poe    c2321309   7.072   3.802   7.245 -0.0175  0.2065 -0.1362
 4656poe    c2321310   7.193   3.851   7.164  0.3656  0.4196  0.5606
 4656poe     o221311   7.241   3.747   7.082 -0.6991  0.1633  0.2455
 4656poe    c3121312   7.350   3.785   7.000 -0.2932 -0.2631  0.5766
 4657poe    c3121313   5.111   6.062   4.779 -0.3010 -0.0061 -0.1208
 4657poe     o221314   5.060   5.931   4.768  0.1037 -0.2406  0.7396
 4657poe    c2321315   4.928   5.938   4.817  0.0064 -0.2035  0.4686
 4657poe    c2321316   4.862   5.799   4.808 -0.2796 -0.0553  0.2208
 4657poe     o221317   4.835   5.772   4.673  0.3280 -0.3705  0.1581
 4657poe    c2321318   4.840   5.633   4.650 -0.1362 -0.4152  0.3249
 4657poe    c2321319   4.862   5.606   4.500  0.1966 -0.1633  0.3285
 4657poe     o221320   4.989   5.645   4.453 -0.0428 -0.2455 -0.4078
 4657poe    c2321321   5.041   5.609   4.327  0.9527 -0.0320 -0.0718
 4657poe    c2321322   5.053   5.460   4.290  0.4012 -0.0208 -0.3038
 4657poe     o221323   5.143   5.402   4.381  0.2136  0.3325  0.1148
 4657poe    c3121324   5.114   5.264   4.395 -0.3407  0.3952 -0.3672
 4658poe    c3121325   3.573   2.251   0.051  0.1231 -0.2026  0.1933
 4658poe     o221326   3.635   2.153  -0.029  0.2303 -0.0215  0.0540
 4658poe    c2321327   3.616   2.169  -0.168 -0.1173  0.1023  0.1123
 4658poe    c2321328   3.692   2.060  -0.247  0.0824  0.2998  0.0321
 4658poe     o221329   3.670   1.930  -0.199  0.0221  0.4594  0.4431
 4658poe    c2321330   3.726   1.830  -0.282 -0.4223  0.5838 -0.0134
 4658poe    c2321331   3.672   1.693  -0.235  1.3538 -0.2510 -0.3278
 4658poe     o221332   3.676   1.677  -0.095 -0.6801 -0.6306 -0.2813
 4658poe    c2321333   3.644   1.546  -0.055  0.6221 -0.9124 -0.1043
 4658poe    c2321334   3.667   1.540   0.098 -0.0406 -0.0784  0.0368
 4658poe     o221335   3.637   1.667   0.151 -0.2393  0.0563 -0.3941
 4658poe    c3121336   3.600   1.643   0.285  0.0159  0.3575 -0.2690
 4659poe    c3121337   2.376   5.257   1.808  0.0946  0.2435  0.0409
 4659poe     o221338   2.423   5.348   1.711 -0.0877 -0.0347 -0.3143
 4659poe    c2321339   2.319   5.438   1.679  0.0443  0.4023  0.4407
 4659poe    c2321340   2.331   5.496   1.537 -0.1632  0.1146  0.3034
 4659poe     o221341   2.452   5.559   1.501 -0.3132  0.2804  0.0798
 4659poe    c2321342   2.451   5.604   1.367  0.3526 -0.5547 -0.2140
 4659poe    c2321343   2.561   5.703   1.329 -0.4459  0.2752 -0.3907
 4659poe     o221344   2.683   5.636   1.304 -0.2782  0.4845 -0.1446
 4659poe    c2321345   2.779   5.725   1.252  0.0229 -0.1904 -0.7701
 4659poe    c2321346   2.917   5.672   1.211  0.4112  0.5113 -0.3989
 4659poe     o221347   3.009   5.775   1.183  0.3885  0.6555  0.0494
 4659poe    c3121348   3.139   5.724   1.162  0.2056  0.0622  0.3297
 4660poe    c3121349   5.697   6.341   6.653  0.0311  0.2813 -0.0289
 4660poe     o221350   5.692   6.213   6.710  0.1167  0.2760 -0.0327
 4660poe    c2321351   5.799   6.133   6.666  0.0262  0.1881 -0.0935
 4660poe    c2321352   5.763   5.983   6.679  0.0803  0.1758 -0.0881
 4660poe     o221353   5.694   5.967   6.801 -0.0615 -0.3932 -0.2403
 4660poe    c2321354   5.726   5.844   6.862  0.1853 -0.3990 -0.3784
 4660poe    c2321355   5.637   5.834   6.987 -0.0887 -0.3151 -0.5641
 4660poe     o221356   5.634   5.963   7.042  0.0259 -0.6047  0.1324
 4660poe    c2321357   5.570   5.955   7.168 -0.0639 -0.3173  0.1078
 4660poe    c2321358   5.652   5.959   7.298 -0.1757 -0.3105  0.1773
 4660poe     o221359   5.730   5.843   7.284 -0.1531 -0.2482 -0.2279
 4660poe    c3121360   5.813   5.821   7.396  0.2632 -0.0328 -0.4925
 4661poe    c3121361   0.484   6.379   3.125  0.2220  0.1772 -0.3029
 4661poe     o221362   0.607   6.398   3.191  0.3661  0.1447 -0.5627
 4661poe    c2321363   0.610   6.337   3.317  0.3516  0.6731 -0.3043
 4661poe    c2321364   0.632   6.427   3.441  0.2391 -0.1004  0.2868
 4661poe     o221365   0.765   6.471   3.461  0.3782 -0.4416  0.1296
 4661poe    c2321366   0.764   6.577   3.554 -0.0826 -0.5189  0.2156
 4661poe    c2321367   0.907   6.571   3.609  0.1465  0.1303 -0.3075
 4661poe     o221368   0.948   6.675   3.695  0.0783  0.1072 -0.2472
 4661poe    c2321369   0.905   6.652   3.828  0.5944  0.3033 -0.0440
 4661poe    c2321370   0.922   6.777   3.916 -0.5346  0.4555 -0.0293
 4661poe     o221371   1.051   6.794   3.971 -0.1823 -0.2911 -0.6111
 4661poe    c3121372   1.059   6.924   4.025  0.1178 -0.2436 -0.7667
 4662poe    c3121373   2.412   5.175   6.467 -0.2106 -0.1143 -0.2652
 4662poe     o221374   2.418   5.302   6.528  0.2368 -0.2561 -0.0092
 4662poe    c2321375   2.374   5.312   6.661  0.2146 -0.2070 -0.0200
 4662poe    c2321376   2.339   5.458   6.695  0.0821 -0.2191 -0.1085
 4662poe     o221377   2.456   5.537   6.695  0.0575 -0.1805  0.5339
 4662poe    c2321378   2.415   5.664   6.738 -0.1857  0.1110 -0.5362
 4662poe    c2321379   2.524   5.770   6.763  0.0180 -0.1134 -0.4819
 4662poe     o221380   2.620   5.728   6.857 -0.2189  0.0596 -0.1613
 4662poe    c2321381   2.723   5.821   6.882 -0.0216 -0.2095  0.0327
 4662poe    c2321382   2.808   5.771   7.000 -0.1606  0.0333  0.2341
 4662poe     o221383   2.887   5.662   6.957  0.5219  0.4060  0.5159
 4662poe    c3121384   2.948   5.591   7.062  0.1529 -0.6157  0.0504
 4663poe    c3121385   1.560   4.648   3.261 -0.3124  0.1081 -0.0896
 4663poe     o221386   1.455   4.724   3.206 -0.0148  0.4521 -0.1859
 4663poe    c2321387   1.377   4.655   3.111 -0.4319  0.3238  0.2451
 4663poe    c2321388   1.237   4.713   3.085 -0.3905  0.1912 -0.3059
 4663poe     o221389   1.220   4.849   3.052 -0.1769  0.2323 -0.2519
 4663poe    c2321390   1.285   4.900   2.938 -0.0391  0.3049 -0.1404
 4663poe    c2321391   1.297   5.054   2.941  0.0470  0.3084 -0.5636
 4663poe     o221392   1.391   5.108   3.031  0.7676 -0.4863 -0.8221
 4663poe    c2321393   1.431   5.240   3.004 -1.1248  0.2426 -0.2835
 4663poe    c2321394   1.357   5.365   3.056  0.1782  0.8434  0.1882
 4663poe     o221395   1.366   5.366   3.196  0.2400  0.2991  0.1901
 4663poe    c3121396   1.268   5.454   3.247 -0.1574 -0.1436  0.2031
 4664poe    c3121397   3.494   5.961   4.577  0.1586  0.1957  0.3630
 4664poe     o221398   3.454   5.986   4.444  0.5941  0.0717  0.2057
 4664poe    c2321399   3.532   5.897   4.367 -0.0044 -0.3358  0.0579
 4664poe    c2321400   3.504   5.936   4.220 -0.4614  0.2080  0.2869
 4664poe     o221401   3.363   5.940   4.216 -0.4695 -0.0492  0.3235
 4664poe    c2321402   3.312   5.963   4.086 -0.6133  0.0026  0.3888
 4664poe    c2321403   3.159   5.954   4.099 -0.5941 -0.2653  0.4359
 4664poe     o221404   3.111   6.030   4.208  0.2923  0.3409  0.4076
 4664poe    c2321405   2.983   6.087   4.192  0.1178 -0.0876  0.2728
 4664poe    c2321406   2.916   6.159   4.311 -0.2179  0.0569 -0.0027
 4664poe     o221407   2.985   6.278   4.341 -0.2032  0.0419  0.0233
 4664poe    c3121408   2.925   6.378   4.420 -0.1435  0.6067 -0.6378
 4665poe    c3121409   4.600   4.258   1.512 -0.5903  0.2973  0.0598
 4665poe     o221410   4.658   4.256   1.383 -0.4000 -0.1035  0.1523
 4665poe    c2321411   4.628   4.134   1.319 -0.3430 -0.1320  0.1792
 4665poe    c2321412   4.659   4.158   1.170  0.1069 -0.3975  0.2277
 4665poe     o221413   4.793   4.196   1.149 -0.1499  0.2080 -0.3393
 4665poe    c2321414   4.879   4.088   1.124 -0.0308  0.2053  0.0859
 4665poe    c2321415   5.025   4.131   1.096  0.0887 -0.3693 -0.1920
 4665poe     o221416   5.070   4.213   1.202 -0.5502 -0.0908 -0.1262
 4665poe    c2321417   5.208   4.231   1.180 -0.6776  0.8922 -0.1310
 4665poe    c2321418   5.281   4.296   1.299 -0.2964  0.5362 -0.1676
 4665poe     o221419   5.261   4.227   1.420  0.3791 -0.1245 -0.4277
 4665poe    c3121420   5.346   4.278   1.520 -0.4244 -0.1642  0.2834
 4666poe    c3121421   6.242   0.172   4.104  0.0493  0.1641 -0.6154
 4666poe     o221422   6.357   0.098   4.137  0.0734  0.4617 -0.0126
 4666poe    c2321423   6.316  -0.036   4.153  0.2146  0.4450  0.2192
 4666poe    c2321424   6.416  -0.131   4.221 -0.0961 -0.1489 -0.1417
 4666poe     o221425   6.547  -0.141   4.170  0.1476  0.2864  0.3882
 4666poe    c2321426   6.610  -0.252   4.231 -0.2743 -0.1869 -0.0305
 4666poe    c2321427   6.752  -0.250   4.172 -0.2724 -0.3044 -0.0300
 4666poe     o221428   6.817  -0.132   4.213 -0.4041 -0.4289  0.5429
 4666poe    c2321429   6.943  -0.112   4.153 -0.6074  0.4328  0.3921
 4666poe    c2321430   6.988   0.030   4.194 -0.0309  0.4487 -0.2775
 4666poe     o221431   6.900   0.132   4.154  0.0581  0.4916 -0.3648
 4666poe    c3121432   6.957   0.252   4.202 -0.3097  0.4049  0.3023
 4667poe    c3121433   4.316   7.280   1.981  0.2217  0.1793  0.3426
 4667poe     o221434   4.182   7.241   1.999  0.2985 -0.2327  0.0427
 4667poe    c2321435   4.145   7.111   1.960  0.1762 -0.1178 -0.2255
 4667poe    c2321436   4.196   6.994   2.047 -0.0202  0.0403  0.1025
 4667poe     o221437   4.126   6.976   2.168 -0.5615  0.0700 -0.2006
 4667poe    c2321438   4.153   6.861   2.245  0.5131  0.5425  0.1604
 4667poe    c2321439   4.071   6.845   2.375  0.2302 -0.6840 -0.1595
 4667poe     o221440   3.933   6.828   2.351  0.0265  1.0687 -0.3794
 4667poe    c2321441   3.868   6.819   2.475 -0.3059  1.0506 -0.5529
 4667poe    c2321442   3.722   6.858   2.443 -0.7545  0.0511  0.1830
 4667poe     o221443   3.685   6.843   2.307 -0.0277 -0.4298  0.0297
 4667poe    c3121444   3.561   6.905   2.281  0.1214 -0.2149 -0.1680
 4668poe    c3121445   7.367   5.885   5.428 -0.0802 -0.2603  0.7060
 4668poe     o221446   7.449   5.992   5.468  0.0782 -0.0097 -0.2862
 4668poe    c2321447   7.540   5.950   5.567 -0.2078  0.2877  0.1007
 4668poe    c2321448   7.622   6.059   5.638  0.5031 -0.1844  0.0055
 4668poe     o221449   7.538   6.172   5.634  0.0638 -0.5017  0.2507
 4668poe    c2321450   7.607   6.284   5.683 -0.5570 -0.0884  0.1848
 4668poe    c2321451   7.507   6.400   5.661  0.4195  0.6999 -0.1646
 4668poe     o221452   7.452   6.395   5.532  0.3710 -0.3120 -0.1112
 4668poe    c2321453   7.388   6.518   5.509  0.2221 -0.3372  0.1619
 4668poe    c2321454   7.292   6.510   5.389  0.5602 -0.1741 -0.1218
 4668poe     o221455   7.171   6.441   5.411  0.3185  0.3394  0.1784
 4668poe    c3121456   7.077   6.474   5.311 -0.1445  0.0175  0.5010
 4669poe    c3121457   5.504   3.270   1.603  0.3246  0.6891  0.3098
 4669poe     o221458   5.549   3.306   1.474 -0.0549 -0.3514 -0.1239
 4669poe    c2321459   5.499   3.435   1.450  0.0610 -0.1582  0.6616
 4669poe    c2321460   5.544   3.507   1.321  0.2088 -0.2883  0.6402
 4669poe     o221461   5.537   3.429   1.203  0.2005  0.0768  0.3983
 4669poe    c2321462   5.625   3.484   1.107 -0.1172  0.5350  0.3666
 4669poe    c2321463   5.604   3.395   0.983  0.1089  0.3094  0.4883
 4669poe     o221464   5.704   3.297   0.969 -0.4613 -0.2787  0.4591
 4669poe    c2321465   5.683   3.210   0.861  0.1173 -0.0348  0.1426
 4669poe    c2321466   5.804   3.139   0.797  0.3010  0.4240 -0.0177
 4669poe     o221467   5.867   3.050   0.886  0.2999  0.0528 -0.3853
 4669poe    c3121468   5.982   2.995   0.825  0.1727 -0.4880 -0.1436
 4670poe    c3121469   3.739   0.357   3.644 -0.1924 -0.1357  0.8158
 4670poe     o221470   3.830   0.461   3.670 -0.2256  0.0940  0.0463
 4670poe    c2321471   3.964   0.428   3.640 -0.2205  0.2371 -0.0863
 4670poe    c2321472   4.015   0.450   3.496  0.1731 -0.1901 -0.0144
 4670poe     o221473   3.972   0.347   3.410  0.2277 -0.1027 -0.1456
 4670poe    c2321474   3.921   0.392   3.286  0.1341 -0.0434 -0.0853
 4670poe    c2321475   3.824   0.290   3.222  0.2596  0.0183 -0.3748
 4670poe     o221476   3.896   0.210   3.131  0.2423 -0.0569 -0.3225
 4670poe    c2321477   3.797   0.153   3.048  0.0310 -0.1450 -0.0132
 4670poe    c2321478   3.855   0.051   2.948 -0.1389  0.3307 -0.6026
 4670poe     o221479   3.901  -0.054   3.030 -0.0463  0.4307 -0.5253
 4670poe    c3121480   3.917  -0.178   2.964 -0.5307  0.3355 -0.4680
 4671poe    c3121481   5.831   5.721   1.090  0.3493  0.0656  0.1450
 4671poe     o221482   5.914   5.708   1.204  0.5149  0.2336  0.0438
 4671poe    c2321483   5.920   5.569   1.227  0.0888  0.2031 -0.0169
 4671poe    c2321484   5.983   5.522   1.359 -0.1840 -0.4051 -0.0963
 4671poe     o221485   6.121   5.554   1.356 -0.1769 -0.4593 -0.3145
 4671poe    c2321486   6.177   5.548   1.485  0.4013  0.5702 -0.5101
 4671poe    c2321487   6.283   5.656   1.516 -0.0221  0.8110  0.1224
 4671poe     o221488   6.407   5.653   1.449 -0.1817 -0.7129 -0.1584
 4671poe    c2321489   6.486   5.548   1.500  0.5497 -0.1363 -0.0661
 4671poe    c2321490   6.610   5.523   1.413  0.5249  0.1662 -0.1894
 4671poe     o221491   6.703   5.628   1.406  0.0689  0.6091  0.3671
 4671poe    c3121492   6.817   5.585   1.335  0.0202 -0.3749  0.8687
 4672poe    c3121493   4.798   6.788   5.672  0.0409  0.1066  0.0120
 4672poe     o221494   4.844   6.890   5.587 -0.3919  0.1570 -0.1677
 4672poe    c2321495   4.946   6.838   5.504  0.0373  0.7995 -0.0585
 4672poe    c2321496   4.990   6.946   5.404  0.4479  0.3189 -0.4054
 4672poe     o221497   4.885   6.972   5.314  0.2021  0.1206 -0.1788
 4672poe    c2321498   4.875   7.109   5.284 -0.0499  0.1927  0.2254
 4672poe    c2321499   4.740   7.162   5.233 -0.2757 -0.5410  0.0525
 4672poe     o221500   4.659   7.164   5.348 -0.0767  0.3539  0.1804
 4672poe    c2321501   4.533   7.205   5.300 -0.3322 -0.2718  0.3083
 4672poe    c2321502   4.441   7.224   5.422 -0.1364 -0.2988  0.4595
 4672poe     o221503   4.435   7.115   5.512  0.3189 -0.4864  0.2633
 4672poe    c3121504   4.330   7.032   5.468 -0.1307  0.4436 -0.4465
 4673poe    c3121505   5.173   0.994   4.145 -0.4779  0.4975 -0.0818
 4673poe     o221506   5.086   0.969   4.252 -0.0483 -0.0246  0.1523
 4673poe    c2321507   4.954   0.971   4.202  0.0999  0.6290 -0.2225
 4673poe    c2321508   4.859   1.069   4.274 -0.3301  0.0344  0.0269
 4673poe     o221509   4.821   1.032   4.404  0.1169  0.1277  0.1861
 4673poe    c2321510   4.692   1.089   4.416 -0.0572 -0.1416 -0.3739
 4673poe    c2321511   4.629   1.058   4.552  0.1775  0.1040 -0.2072
 4673poe     o221512   4.608   0.920   4.570 -0.3565  0.2113  0.0486
 4673poe    c2321513   4.597   0.891   4.708 -0.2543  0.3226  0.0807
 4673poe    c2321514   4.604   0.743   4.750  0.6920  0.3516  0.0347
 4673poe     o221515   4.490   0.673   4.707  0.7584  0.0702  0.3097
 4673poe    c3121516   4.498   0.533   4.725  0.4237 -0.0681 -0.5568
 4674poe    c3121517   5.299   3.839   3.719  0.1431  0.1190  0.1039
 4674poe     o221518   5.185   3.916   3.687 -0.1197  0.0056  0.7390
 4674poe    c2321519   5.125   3.849   3.578  0.6339  0.2048  0.1857
 4674poe    c2321520   5.073   3.953   3.478  0.3899 -0.0794  0.0185
 4674poe     o221521   5.037   4.071   3.545  0.0155  0.0370 -0.3792
 4674poe    c2321522   4.992   4.164   3.449  0.1879  0.1562 -0.3433
 4674poe    c2321523   4.930   4.290   3.514  0.1666  0.0389 -0.1350
 4674poe     o221524   4.809   4.251   3.574  0.2745 -0.1800 -0.0573
 4674poe    c2321525   4.711   4.352   3.564  0.0842 -0.3609 -0.0219
 4674poe    c2321526   4.581   4.295   3.625 -0.2309  0.4074  0.0370
 4674poe     o221527   4.595   4.260   3.761 -0.3083 -0.1976 -0.1099
 4674poe    c3121528   4.476   4.251   3.835 -0.2092 -0.0563  0.0656
 4675poe    c3121529   1.565   6.943   7.001 -0.4274  0.0248 -0.2080
 4675poe     o221530   1.665   6.993   6.916 -0.1317  0.4011  0.3590
 4675poe    c2321531   1.778   6.913   6.893 -0.4317  0.1947 -0.4351
 4675poe    c2321532   1.787   6.898   6.740  0.1201 -0.0211 -0.3858
 4675poe     o221533   1.820   7.014   6.667  0.2477  0.2091  0.0309
 4675poe    c2321534   1.853   6.971   6.536  0.0198  0.3095 -0.0590
 4675poe    c2321535   1.847   7.089   6.438  0.2865  0.1399 -0.2793
 4675poe     o221536   1.900   7.198   6.510 -0.5192  0.3354  0.0327
 4675poe    c2321537   1.888   7.321   6.443  0.3173  0.3380 -0.1245
 4675poe    c2321538   1.917   7.429   6.548  0.0812  0.1072  0.1789
 4675poe     o221539   1.812   7.416   6.642  0.0484 -0.2597  0.0930
 4675poe    c3121540   1.855   7.473   6.763 -0.0494 -0.5019  0.2421
 4676poe    c3121541   5.660   3.312   7.043  0.0710  0.1769  0.1007
 4676poe     o221542   5.579   3.292   6.930 -0.2013 -0.0723  0.3369
 4676poe    c2321543   5.644   3.329   6.811 -0.0892 -0.3405  0.3157
 4676poe    c2321544   5.561   3.307   6.683  0.1960  0.4130 -0.0103
 4676poe     o221545   5.453   3.396   6.670  0.5038  0.7541 -0.2462
 4676poe    c2321546   5.410   3.388   6.536 -0.0745  0.1601 -0.0345
 4676poe    c2321547   5.271   3.451   6.518 -0.0066  0.3790  0.1927
 4676poe     o221548   5.169   3.389   6.593  0.0831  0.0476  0.0434
 4676poe    c2321549   5.041   3.442   6.564  0.1101 -0.0672 -0.2877
 4676poe    c2321550   4.939   3.355   6.639  0.7459  0.1757  0.8979
 4676poe     o221551   4.924   3.228   6.579  0.1375  0.3034  0.7678
 4676poe    c3121552   4.829   3.153   6.653  0.0399  0.0417  0.3796
 4677poe    c3121553   7.373   5.563   4.470 -0.2822 -0.4068  0.3276
 4677poe     o221554   7.448   5.544   4.352 -0.4942 -0.3921  0.1898
 4677poe    c2321555   7.448   5.407   4.321 -0.1842 -0.4591  0.4773
 4677poe    c2321556   7.542   5.384   4.201  0.0605  0.1369  0.5507
 4677poe     o221557   7.504   5.452   4.084  0.5720 -0.3828  0.0765
 4677poe    c2321558   7.596   5.442   3.977  0.8487  0.7828  0.1852
 4677poe    c2321559   7.555   5.481   3.834 -0.1273 -0.1898  0.1816
 4677poe     o221560   7.504   5.613   3.832  0.3095 -0.0212 -0.2432
 4677poe    c2321561   7.450   5.622   3.702  0.1414  0.3881 -0.1475
 4677poe    c2321562   7.343   5.732   3.706  0.0206  0.2845 -0.4712
 4677poe     o221563   7.231   5.708   3.788  0.4787 -0.1081  0.0479
 4677poe    c3121564   7.146   5.820   3.800 -0.0226 -0.3998 -0.7153
 4678poe    c3121565   0.472   6.733   1.327  0.1074 -0.1621  0.4052
 4678poe     o221566   0.583   6.747   1.413  0.5799  0.3284 -0.2771
 4678poe    c2321567   0.703   6.709   1.348  0.2978 -0.4925 -0.3245
 4678poe    c2321568   0.798   6.688   1.467  0.3415  0.2493 -0.2257
 4678poe     o221569   0.784   6.805   1.544  0.3292  0.0711  0.0456
 4678poe    c2321570   0.840   6.778   1.671  0.2467  0.1002  0.0879
 4678poe    c2321571   0.847   6.909   1.752  0.2863  0.1019  0.0818
 4678poe     o221572   0.715   6.952   1.775  0.2033 -0.1176  0.0251
 4678poe    c2321573   0.703   7.034   1.890  0.4359  0.3255 -0.2635
 4678poe    c2321574   0.558   7.088   1.892  0.2503 -0.1892  0.2731
 4678poe     o221575   0.457   6.989   1.894 -0.0977  0.1669  0.5539
 4678poe    c3121576   0.334   7.056   1.906 -0.0482  0.3013  0.3318
 4679poe    c3121577   0.604   2.231   3.835 -0.0196 -0.2561 -0.4114
 4679poe     o221578   0.711   2.144   3.866  0.1366  0.1333  0.1441
 4679poe    c2321579   0.698   2.022   3.797  0.2103 -0.0514  0.4569
 4679poe    c2321580   0.810   1.929   3.848  0.3519  0.0838  0.3912
 4679poe     o221581   0.938   1.962   3.799  0.3554 -0.1813  0.2210
 4679poe    c2321582   1.034   1.879   3.861  0.3215 -0.3157  0.0940
 4679poe    c2321583   1.170   1.947   3.836  0.1651 -0.1386 -0.2823
 4679poe     o221584   1.184   2.066   3.910  0.1771 -0.1828 -0.2140
 4679poe    c2321585   1.321   2.089   3.933  0.0816 -0.0201  0.2029
 4679poe    c2321586   1.324   2.211   4.027 -0.7622  0.1044  0.0785
 4679poe     o221587   1.256   2.315   3.961 -0.2182  0.3646 -0.0801
 4679poe    c3121588   1.243   2.425   4.048 -0.3597  0.6704 -0.4869
 4680poe    c3121589   2.089   3.797   1.229  0.2212  0.8784 -0.1852
 4680poe     o221590   2.154   3.689   1.165 -0.4630  0.3905 -0.0747
 4680poe    c2321591   2.295   3.696   1.177 -0.4432 -0.2118  0.0873
 4680poe    c2321592   2.361   3.566   1.129 -0.3878 -0.2055  0.1456
 4680poe     o221593   2.310   3.543   1.000 -0.1024  0.0475 -0.0137
 4680poe    c2321594   2.371   3.437   0.930 -0.1419  0.0979 -0.1255
 4680poe    c2321595   2.260   3.390   0.835 -0.2627  0.4000 -0.1348
 4680poe     o221596   2.224   3.472   0.726 -0.1823  0.2670 -0.2618
 4680poe    c2321597   2.111   3.436   0.650 -0.1378 -0.2010 -0.1128
 4680poe    c2321598   2.071   3.544   0.547  0.8724 -0.0979 -0.4109
 4680poe     o221599   2.123   3.663   0.600  0.3520  0.2094 -0.5839
 4680poe    c3121600   2.088   3.783   0.535  0.3335  0.5957  0.1190
 4681poe    c3121601   1.879   0.534   3.618 -0.2232  0.2298  0.0546
 4681poe     o221602   1.784   0.458   3.689 -0.1349  0.1550  0.0926
 4681poe    c2321603   1.809   0.319   3.677  0.2860  0.2907 -0.6442
 4681poe    c2321604   1.689   0.227   3.704  0.4076  0.3047 -0.0341
 4681poe     o221605   1.667   0.220   3.843 -0.0895  0.4573 -0.1038
 4681poe    c2321606   1.566   0.123   3.859  0.3793 -0.0212 -0.0048
 4681poe    c2321607   1.487   0.153   3.988  0.1038  0.1779 -0.2176
 4681poe     o221608   1.544   0.084   4.097  0.0634  0.5838  0.0621
 4681poe    c2321609   1.470  -0.025   4.147  0.0392  0.4360 -0.2980
 4681poe    c2321610   1.497  -0.046   4.297 -0.0118  0.0054 -0.3487
 4681poe     o221611   1.633  -0.068   4.330 -0.0603 -0.1133 -0.2276
 4681poe    c3121612   1.636  -0.137   4.452 -0.1892 -0.4540 -0.4148
 4682poe    c3121613   4.874   0.655   5.891  0.6752 -0.2304 -0.5201
 4682poe     o221614   4.954   0.761   5.938  0.1526 -0.0939  0.0708
 4682poe    c2321615   4.890   0.807   6.055  0.3175  0.1871  0.0511
 4682poe    c2321616   4.830   0.943   6.015  0.2053  0.0573 -0.2262
 4682poe     o221617   4.927   1.015   5.942  0.2734 -0.1152 -0.3047
 4682poe    c2321618   4.894   1.152   5.944 -0.6608 -0.3377 -0.0019
 4682poe    c2321619   4.965   1.243   5.843  0.0069 -0.5813  0.2463
 4682poe     o221620   5.105   1.220   5.845 -0.0423 -0.9466 -0.2852
 4682poe    c2321621   5.182   1.332   5.807 -0.1592 -0.5492  0.6210
 4682poe    c2321622   5.333   1.311   5.832  0.1264  0.2888 -0.3502
 4682poe     o221623   5.403   1.231   5.739  0.2804 -0.0108  0.0221
 4682poe    c3121624   5.529   1.190   5.788  0.0966  0.1201  0.6192
 4683poe    c3121625   1.002   4.825   0.986 -0.1981  0.1517 -0.0580
 4683poe     o221626   1.041   4.812   0.852 -0.5017 -0.7055 -0.0732
 4683poe    c2321627   0.938   4.856   0.766  0.0415  0.0143 -0.3660
 4683poe    c2321628   0.962   4.805   0.622  0.9204 -0.4910 -0.0481
 4683poe     o221629   0.949   4.665   0.612 -0.4861 -0.4011  0.3288
 4683poe    c2321630   0.924   4.627   0.478 -0.3592  0.4979  0.0375
 4683poe    c2321631   0.907   4.474   0.466  0.1127  0.4739 -0.3630
 4683poe     o221632   0.791   4.427   0.531  0.1456  0.5466 -0.2511
 4683poe    c2321633   0.763   4.295   0.488  0.0140  0.4946 -0.0048
 4683poe    c2321634   0.621   4.253   0.532  0.1418 -0.2096 -0.2689
 4683poe     o221635   0.609   4.217   0.668 -0.0703 -0.1937 -0.2843
 4683poe    c3121636   0.477   4.213   0.719 -0.0200 -0.1388 -0.1511
 4684poe    c3121637   5.739   4.447   4.082 -0.9919  0.0695 -0.2736
 4684poe     o221638   5.808   4.509   3.977  0.1921 -0.0755  0.3974
 4684poe    c2321639   5.839   4.429   3.865  0.3611  0.1758  0.2632
 4684poe    c2321640   5.852   4.496   3.726 -0.0064 -0.4448 -0.0743
 4684poe     o221641   5.740   4.520   3.644  0.2445  0.1314 -0.2530
 4684poe    c2321642   5.661   4.622   3.700  0.8750  0.7655 -0.5124
 4684poe    c2321643   5.542   4.648   3.606  0.4550 -0.5140 -0.3468
 4684poe     o221644   5.574   4.693   3.476  0.1171  0.1263 -0.2094
 4684poe    c2321645   5.458   4.689   3.396 -0.0218 -0.9882  0.0232
 4684poe    c2321646   5.486   4.735   3.251  0.5391 -0.1578  0.3865
 4684poe     o221647   5.514   4.873   3.243 -0.5548  0.0780  0.4172
 4684poe    c3121648   5.505   4.933   3.116 -0.0381 -0.1854  0.2549
 4685poe    c3121649   6.499   4.581   0.238 -0.4049 -0.5597  0.0836
 4685poe     o221650   6.559   4.464   0.187  0.1654  0.0512 -0.6708
 4685poe    c2321651   6.567   4.357   0.279 -0.0629  0.0618 -0.6394
 4685poe    c2321652   6.615   4.220   0.228 -0.2210 -0.0237 -0.5624
 4685poe     o221653   6.756   4.229   0.219 -0.1837  0.1662  0.1643
 4685poe    c2321654   6.821   4.118   0.162 -0.0949  0.3809 -0.1526
 4685poe    c2321655   6.975   4.123   0.170 -0.0502 -0.5115 -0.2745
 4685poe     o221656   7.021   4.239   0.104 -0.4005 -0.1734  0.0730
 4685poe    c2321657   7.160   4.251   0.118 -0.3399 -0.6227 -0.1338
 4685poe    c2321658   7.218   4.347   0.012 -0.4657 -0.1087  0.2589
 4685poe     o221659   7.192   4.482   0.044  0.0076  0.1619 -0.4733
 4685poe    c3121660   7.221   4.568  -0.064 -0.8666 -0.1789 -0.9915
 4686poe    c3121661   5.608   3.974   7.168  0.3768  0.4514  0.0028
 4686poe     o221662   5.608   3.917   7.039 -0.4755 -0.6042  0.4546
 4686poe    c2321663   5.546   3.999   6.942  0.5964 -0.3165  0.0012
 4686poe    c2321664   5.550   3.932   6.803  0.2689 -0.1141 -0.1057
 4686poe     o221665   5.490   4.019   6.709 -0.6119 -0.2210  0.3433
 4686poe    c2321666   5.480   3.947   6.589  0.2299  0.0699  0.0909
 4686poe    c2321667   5.431   4.022   6.464  0.1370  0.3711  0.3068
 4686poe     o221668   5.296   4.060   6.474 -0.1063 -0.3600 -0.0858
 4686poe    c2321669   5.247   4.159   6.386  0.4422 -0.4332 -0.4744
 4686poe    c2321670   5.101   4.192   6.423  0.5301  0.5661 -0.9814
 4686poe     o221671   5.074   4.256   6.546  0.1338 -0.4550 -0.5254
 4686poe    c3121672   4.939   4.292   6.556  0.1497 -0.3665 -0.6215
 4687poe    c3121673   5.268   3.780   0.622 -0.0440 -0.0249  0.3480
 4687poe     o221674   5.150   3.851   0.651 -0.0184 -0.0561  0.5252
 4687poe    c2321675   5.055   3.765   0.710 -0.3513 -0.1724 -0.1710
 4687poe    c2321676   4.921   3.836   0.738 -0.3432 -0.1699 -0.1399
 4687poe     o221677   4.866   3.875   0.614 -0.3103 -0.0022 -0.1030
 4687poe    c2321678   4.766   3.970   0.646 -0.5151 -0.3922  0.4374
 4687poe    c2321679   4.712   4.053   0.528  0.1045 -0.2524  0.2490
 4687poe     o221680   4.598   4.000   0.466  0.1737  0.2522 -0.3158
 4687poe    c2321681   4.483   3.993   0.547  0.3760  0.0733 -0.0455
 4687poe    c2321682   4.366   3.914   0.485  0.2210  0.5057 -0.3074
 4687poe     o221683   4.318   3.978   0.369 -0.2605  0.7752  0.0386
 4687poe    c3121684   4.229   3.892   0.301  0.3693  0.3709 -0.2843
 4688poe    c3121685   1.019   1.422   6.242  0.2520 -0.0582  0.0599
 4688poe     o221686   0.936   1.352   6.151  0.2927  0.0537 -0.0641
 4688poe    c2321687   0.803   1.337   6.196  0.4685 -0.7506  0.2119
 4688poe    c2321688   0.712   1.282   6.086 -0.5572  0.2803  0.5271
 4688poe     o221689   0.698   1.354   5.965  0.7519 -0.2618  0.0374
 4688poe    c2321690   0.635   1.275   5.866  0.2384  0.2232 -0.0280
 4688poe    c2321691   0.633   1.350   5.731 -0.4486  0.1165 -0.0779
 4688poe     o221692   0.766   1.351   5.685 -0.3517 -0.0417  0.1902
 4688poe    c2321693   0.785   1.384   5.549 -0.4211  0.2004  0.2370
 4688poe    c2321694   0.934   1.359   5.519 -0.4563  0.0813  0.1574
 4688poe     o221695   0.964   1.222   5.518 -0.2815  0.1210 -0.1050
 4688poe    c3121696   1.100   1.192   5.539 -0.2165  0.6755  0.2662
 4689poe    c3121697   0.884   6.328   6.870 -0.9276  0.5080  0.1274
 4689poe     o221698   0.838   6.397   6.756  0.1404  1.0229 -0.0028
 4689poe    c2321699   0.915   6.361   6.643 -0.6871 -0.0275 -0.2531
 4689poe    c2321700   0.866   6.422   6.511 -0.3370  0.2462 -0.2591
 4689poe     o221701   0.748   6.354   6.474 -0.5108  0.1333  0.4870
 4689poe    c2321702   0.714   6.380   6.339 -0.6120  0.2874  0.5428
 4689poe    c2321703   0.640   6.263   6.273  0.7429 -0.1112 -0.3176
 4689poe     o221704   0.514   6.242   6.334  0.7517 -0.2598 -0.3499
 4689poe    c2321705   0.449   6.128   6.281  0.0660  0.0236 -0.1294
 4689poe    c2321706   0.309   6.106   6.339  0.0708  0.5360  0.0862
 4689poe     o221707   0.302   6.060   6.472 -0.5559 -0.1774 -0.1859
 4689poe    c3121708   0.189   6.109   6.541 -0.1722 -0.0280  0.3432
 4690poe    c3121709   7.067   2.758   5.147 -0.6643 -0.8652  0.0012
 4690poe     o221710   6.971   2.755   5.251 -0.1471 -0.3801  0.5054
 4690poe    c2321711   6.921   2.882   5.287 -0.4130 -0.4014  0.2209
 4690poe    c2321712   6.827   2.870   5.407 -0.3215  0.2124  0.3546
 4690poe     o221713   6.889   2.844   5.531  0.1553 -0.2903  0.0110
 4690poe    c2321714   6.789   2.834   5.629  0.1589 -0.0322  0.0412
 4690poe    c2321715   6.849   2.823   5.770  0.3205 -0.2026 -0.0419
 4690poe     o221716   6.907   2.946   5.809  0.8474 -0.4079 -0.1725
 4690poe    c2321717   6.969   2.933   5.935  0.6386  0.4279  0.0234
 4690poe    c2321718   7.074   3.043   5.958  0.5958  0.4152  0.2745
 4690poe     o221719   7.159   3.053   5.847  0.2950  0.1378  0.0160
 4690poe    c3121720   7.277   3.123   5.881  0.1902  0.3911 -0.1326
 4691poe    c3121721   4.384   0.139   0.409  0.2053 -0.0182 -0.5330
 4691poe     o221722   4.481   0.182   0.317  0.3373  0.3841 -0.2103
 4691poe    c2321723   4.459   0.130   0.187 -0.0303  0.2847 -0.1108
 4691poe    c2321724   4.569   0.203   0.107  0.4027  0.0365  0.2500
 4691poe     o221725   4.688   0.201   0.183  0.1849  0.5067  0.6080
 4691poe    c2321726   4.800   0.257   0.119 -0.3622  0.4989 -0.3789
 4691poe    c2321727   4.917   0.236   0.216 -0.3185  0.9524 -0.3319
 4691poe     o221728   4.892   0.281   0.348  0.0397  0.4017 -0.0693
 4691poe    c2321729   5.008   0.325   0.414  0.1226 -0.0155  0.0621
 4691poe    c2321730   4.998   0.412   0.540  0.1761 -0.0132  0.0648
 4691poe     o221731   4.943   0.356   0.657 -0.2754  0.3375  0.0211
 4691poe    c3121732   4.970   0.443   0.765 -0.3314  0.2393  0.1146
 4692poe    c3121733   7.213   2.891   2.552  0.2211 -0.1214 -0.4130
 4692poe     o221734   7.173   3.021   2.517  0.1516 -0.1055 -0.2748
 4692poe    c2321735   7.277   3.111   2.548 -0.1282  0.2610 -0.3907
 4692poe    c2321736   7.214   3.234   2.616  0.4458 -0.0119  0.6538
 4692poe     o221737   7.118   3.282   2.524  0.1530  0.2134  1.0694
 4692poe    c2321738   7.052   3.395   2.575  0.1343  0.3155  0.8236
 4692poe    c2321739   6.930   3.442   2.494  0.4676 -0.5044 -0.1688
 4692poe     o221740   6.825   3.349   2.500 -0.0335  0.1109  0.6780
 4692poe    c2321741   6.702   3.418   2.488 -0.2035 -0.3371 -0.1875
 4692poe    c2321742   6.593   3.319   2.533 -0.3424 -0.1175 -0.0421
 4692poe     o221743   6.571   3.203   2.456  0.0100 -0.3251  0.1722
 4692poe    c3121744   6.476   3.119   2.517 -0.1907 -0.3817 -0.2207
 4693poe    c3121745   1.212   0.307   1.703  0.1023  0.7206 -0.2961
 4693poe     o221746   1.075   0.274   1.718  0.2825  0.0990 -0.0250
 4693poe    c2321747   1.026   0.341   1.832 -0.1240 -0.2467  0.0055
 4693poe    c2321748   0.904   0.282   1.906 -0.1042 -0.3205 -0.0201
 4693poe     o221749   0.786   0.294   1.831 -0.2959  0.5495  0.4029
 4693poe    c2321750   0.706   0.178   1.837  0.2350  0.1806  0.4153
 4693poe    c2321751   0.566   0.208   1.780  0.4638  0.0369 -0.2339
 4693poe     o221752   0.564   0.218   1.639 -0.3161 -0.6890 -0.2845
 4693poe    c2321753   0.443   0.275   1.596 -0.1365 -0.2079 -0.1540
 4693poe    c2321754   0.404   0.285   1.447 -0.1233  0.1762 -0.1332
 4693poe     o221755   0.493   0.361   1.369 -0.0222  0.1755 -0.0181
 4693poe    c3121756   0.458   0.352   1.233 -0.3216  0.0480  0.0678
 4694poe    c3121757   1.225   6.138   6.450  0.4348  0.3326 -0.8614
 4694poe     o221758   1.100   6.177   6.399 -0.0113 -0.1462 -0.1431
 4694poe    c2321759   0.994   6.085   6.414 -0.5146  0.4299 -0.0619
 4694poe    c2321760   0.987   5.991   6.292 -0.0530  0.1011  0.1602
 4694poe     o221761   0.933   6.057   6.180 -0.1772  0.0063  0.1648
 4694poe    c2321762   0.952   5.971   6.069  0.0131 -0.1164  0.2929
 4694poe    c2321763   0.962   6.049   5.937  0.0478  0.0809  0.4118
 4694poe     o221764   1.061   6.149   5.940 -0.1129  0.2473  0.2110
 4694poe    c2321765   1.053   6.238   5.830  0.3961  0.1169  0.0647
 4694poe    c2321766   1.175   6.329   5.810  0.2674  0.3322  0.2414
 4694poe     o221767   1.204   6.426   5.907  0.4949  0.2766  0.2307
 4694poe    c3121768   1.316   6.500   5.861  0.5389 -0.2812 -0.5797
 4695poe    c3121769   5.943   5.796   3.355  0.0702 -0.2704 -0.1007
 4695poe     o221770   5.975   5.823   3.220 -0.4534  0.1409 -0.1484
 4695poe    c2321771   6.107   5.788   3.184 -0.4853  0.0540 -0.1825
 4695poe    c2321772   6.153   5.845   3.048  0.2760 -0.2751 -0.0708
 4695poe     o221773   6.077   5.795   2.940 -0.1116 -0.0382  0.0889
 4695poe    c2321774   6.092   5.870   2.822  0.0010 -0.1073  0.0594
 4695poe    c2321775   5.974   5.826   2.733  0.1510 -0.2541 -0.0679
 4695poe     o221776   5.850   5.865   2.788  0.0581  0.7274 -0.9502
 4695poe    c2321777   5.753   5.810   2.702  0.0293 -0.7472 -0.0029
 4695poe    c2321778   5.612   5.813   2.764  0.0379  0.2805 -0.0128
 4695poe     o221779   5.601   5.760   2.895 -0.3228 -0.6252 -0.4006
 4695poe    c3121780   5.462   5.763   2.918 -0.2859 -0.1155 -0.2255
 4696poe    c3121781   0.819   1.974   6.581 -0.6410  0.3034 -0.5569
 4696poe     o221782   0.771   1.843   6.599 -0.0126  0.1476  0.0133
 4696poe    c2321783   0.737   1.827   6.735  0.0529 -0.1173 -0.0013
 4696poe    c2321784   0.694   1.683   6.768  0.2729 -0.0526  0.5809
 4696poe     o221785   0.795   1.587   6.749 -0.2823 -0.5108 -0.0993
 4696poe    c2321786   0.778   1.494   6.854 -0.0698 -0.5875 -0.1308
 4696poe    c2321787   0.901   1.407   6.884 -0.0268 -0.5320 -0.1481
 4696poe     o221788   0.920   1.301   6.793  0.4546 -0.2483 -0.3851
 4696poe    c2321789   1.053   1.277   6.754  0.6947 -0.3040  0.4502
 4696poe    c2321790   1.040   1.151   6.666  0.0938 -0.0370  0.1559
 4696poe     o221791   0.972   1.191   6.549  0.9178  0.0780 -0.2908
 4696poe    c3121792   0.971   1.088   6.454 -0.5282  0.1134 -0.3465
 4697poe    c3121793   2.252   3.331   6.729 -0.1345  0.6253 -0.0739
 4697poe     o221794   2.386   3.322   6.686 -0.2128  0.3601 -0.2662
 4697poe    c2321795   2.453   3.440   6.724  0.2465  0.1435 -0.4014
 4697poe    c2321796   2.602   3.421   6.760  0.2648  0.2463 -0.4243
 4697poe     o221797   2.670   3.410   6.638 -0.1303 -0.0222 -0.6230
 4697poe    c2321798   2.809   3.410   6.664 -0.2302 -0.2234 -0.0849
 4697poe    c2321799   2.880   3.432   6.529 -0.4710  0.0336 -0.1689
 4697poe     o221800   2.810   3.355   6.434 -0.4773 -0.1701  0.0000
 4697poe    c2321801   2.874   3.373   6.310  0.1017 -0.0772  0.3099
 4697poe    c2321802   2.772   3.339   6.199  0.2548  0.1653  0.0935
 4697poe     o221803   2.649   3.393   6.241  0.0951 -0.0744 -0.0653
 4697poe    c3121804   2.554   3.397   6.137  0.2015  0.0596 -0.1590
 4698poe    c3121805   2.633   5.247   4.208  0.0066  0.1772  0.5160
 4698poe     o221806   2.602   5.115   4.170 -0.0483  0.2483  0.3128
 4698poe    c2321807   2.695   5.067   4.075 -0.2936  0.3470  0.0212
 4698poe    c2321808   2.649   4.927   4.029  0.1397  0.1434  0.1965
 4698poe     o221809   2.593   4.856   4.137  0.3110 -0.3414 -0.0317
 4698poe    c2321810   2.546   4.725   4.115  0.5145 -0.3786 -0.2551
 4698poe    c2321811   2.530   4.656   4.252  0.3796  0.3457  0.0954
 4698poe     o221812   2.462   4.759   4.321 -0.4525 -0.0545 -0.1141
 4698poe    c2321813   2.412   4.717   4.446  0.0787 -0.9803 -0.2067
 4698poe    c2321814   2.258   4.722   4.442  0.1137  0.2719 -0.4251
 4698poe     o221815   2.208   4.839   4.382 -0.1911  0.3703  0.0194
 4698poe    c3121816   2.069   4.837   4.407 -0.2079  0.8192 -0.0321
 4699poe    c3121817   7.044   7.056   3.658 -0.0499  0.2475 -0.1597
 4699poe     o221818   7.177   7.084   3.698 -0.2724  0.6097  0.3420
 4699poe    c2321819   7.218   7.212   3.654  0.2695  0.2722 -0.1308
 4699poe    c2321820   7.366   7.226   3.696  0.2537 -0.0932  0.0510
 4699poe     o221821   7.456   7.144   3.625  0.2945 -0.1365  0.1521
 4699poe    c2321822   7.583   7.159   3.685  0.1881  0.6261  0.1964
 4699poe    c2321823   7.688   7.072   3.613 -0.2281  0.3568 -0.0952
 4699poe     o221824   7.709   6.941   3.660 -0.5394  0.2243 -0.3295
 4699poe    c2321825   7.805   6.874   3.581 -0.3883  0.3299 -0.2323
 4699poe    c2321826   7.848   6.732   3.621 -0.0237  0.4107 -0.3238
 4699poe     o221827   7.929   6.741   3.735 -0.2191  0.2562 -0.1708
 4699poe    c3121828   7.943   6.617   3.801 -0.1392  0.3787  0.0458
 4700poe    c3121829   3.486   5.204   6.068  0.6322 -0.1729 -0.3757
 4700poe     o221830   3.526   5.098   6.151  0.1613  0.0287  0.1175
 4700poe    c2321831   3.462   4.978   6.111  0.1161  0.0829  0.0271
 4700poe    c2321832   3.540   4.863   6.177  0.2695 -0.1888 -0.6321
 4700poe     o221833   3.677   4.848   6.145  0.3427 -0.2848 -0.2759
 4700poe    c2321834   3.735   4.756   6.234  0.0014 -0.2869 -0.0544
 4700poe    c2321835   3.822   4.659   6.153 -0.0418 -0.0510 -0.3842
 4700poe     o221836   3.931   4.728   6.095  0.1017  0.0906  0.0514
 4700poe    c2321837   3.959   4.661   5.974  0.4794  0.1224  0.1207
 4700poe    c2321838   4.055   4.733   5.877  0.1306  0.0920 -0.2488
 4700poe     o221839   4.000   4.852   5.825 -0.6237 -0.5117 -0.8571
 4700poe    c3121840   4.088   4.935   5.753 -0.1755  0.7668  1.0869
 4701poe    c3121841   4.905   5.442   3.477  0.2222  0.4972 -0.2350
 4701poe     o221842   4.810   5.371   3.400  0.3375  0.2576 -0.1557
 4701poe    c2321843   4.837   5.234   3.378  0.1951  0.1992  0.0270
 4701poe    c2321844   4.905   5.205   3.243 -0.3831  0.3192 -0.2940
 4701poe     o221845   4.829   5.251   3.133 -0.2532  0.4671 -0.3240
 4701poe    c2321846   4.917   5.257   3.024  0.0072 -0.0032 -0.1439
 4701poe    c2321847   4.862   5.346   2.911 -0.6734 -0.0442  0.1505
 4701poe     o221848   4.850   5.480   2.952  0.2617  0.2234 -0.4192
 4701poe    c2321849   4.864   5.576   2.849 -0.1870  0.6587 -0.0779
 4701poe    c2321850   4.727   5.648   2.844 -0.3095  0.4446  0.1896
 4701poe     o221851   4.700   5.678   2.979  0.8226  0.5984  0.3919
 4701poe    c3121852   4.574   5.737   3.002  0.6293  0.4229 -0.2052
 4702poe    c3121853   2.404   2.065   7.423  0.1723  0.3221  0.2217
 4702poe     o221854   2.415   2.195   7.478  0.0738  0.3410  0.1979
 4702poe    c2321855   2.543   2.242   7.512  0.0687  0.4275  0.0971
 4702poe    c2321856   2.575   2.387   7.468 -0.0508  0.4952  0.2316
 4702poe     o221857   2.468   2.465   7.515 -0.4371  0.0695  0.0739
 4702poe    c2321858   2.506   2.598   7.490 -0.5491  0.1631  0.3909
 4702poe    c2321859   2.402   2.694   7.550 -0.6035  0.3190  0.0491
 4702poe     o221860   2.415   2.679   7.689 -0.8970 -0.7474 -0.0306
 4702poe    c2321861   2.312   2.741   7.764 -0.6796  0.0505 -0.3864
 4702poe    c2321862   2.317   2.680   7.905  0.8623  0.2352 -0.3400
 4702poe     o221863   2.255   2.553   7.909 -0.4735  0.8897  0.6215
 4702poe    c3121864   2.259   2.500   8.039 -0.2469 -0.2792  0.1486
 4703poe    c3121865   6.754   7.265   0.424 -0.3057 -0.1430  0.3569
 4703poe     o221866   6.871   7.231   0.494 -0.0670 -0.6836 -0.2951
 4703poe    c2321867   6.971   7.323   0.454 -0.4848  0.1676  0.5780
 4703poe    c2321868   7.095   7.311   0.544 -0.0508 -0.2238 -0.0655
 4703poe     o221869   7.184   7.215   0.491  0.2534  0.2076 -0.3429
 4703poe    c2321870   7.306   7.248   0.552  0.5731 -0.2247 -0.7391
 4703poe    c2321871   7.384   7.121   0.589 -0.1824 -0.4183  0.2308
 4703poe     o221872   7.309   7.052   0.687 -0.4843 -0.1528  0.1881
 4703poe    c2321873   7.331   6.913   0.698  0.4217 -0.0063  0.3080
 4703poe    c2321874   7.211   6.854   0.773  0.2145  0.3240  0.2357
 4703poe     o221875   7.098   6.847   0.689  0.2060 -0.1044  0.2809
 4703poe    c3121876   6.996   6.760   0.732  0.3049 -0.5229 -0.3284
 4704poe    c3121877   6.670   6.762   1.724 -0.3418 -0.1660  0.3121
 4704poe     o221878   6.667   6.665   1.622 -0.3887  0.1100  0.0496
 4704poe    c2321879   6.789   6.637   1.558 -0.4700 -0.6441  0.2165
 4704poe    c2321880   6.788   6.541   1.437 -0.1032 -0.2937 -0.0657
 4704poe     o221881   6.751   6.408   1.466 -0.3300 -0.1898  0.1244
 4704poe    c2321882   6.841   6.322   1.531 -0.3186  0.4215  0.9415
 4704poe    c2321883   6.768   6.190   1.564  0.1288 -0.0803 -0.0316
 4704poe     o221884   6.690   6.203   1.680  0.1084 -0.2591 -0.0254
 4704poe    c2321885   6.608   6.092   1.710  0.0283 -0.3875 -0.7141
 4704poe    c2321886   6.473   6.093   1.636 -0.3331 -0.2622 -0.0622
 4704poe     o221887   6.490   6.029   1.511  0.6088 -0.1287 -0.0087
 4704poe    c3121888   6.377   5.959   1.465  0.2059  0.5279 -0.0288
 4705poe    c3121889   4.332   0.020   3.301 -0.1015  0.1234  0.2928
 4705poe     o221890   4.429  -0.051   3.228 -0.6616 -0.0019 -0.3392
 4705poe    c2321891   4.381  -0.096   3.103 -0.1675  0.0789 -0.5609
 4705poe    c2321892   4.503  -0.159   3.034 -0.0446 -0.3309  0.0264
 4705poe     o221893   4.582  -0.224   3.132  0.2517  0.3852  0.2682
 4705poe    c2321894   4.707  -0.251   3.073 -0.3023 -0.8222 -0.3809
 4705poe    c2321895   4.789  -0.328   3.179 -0.3585 -0.2833  0.0586
 4705poe     o221896   4.784  -0.272   3.308  0.0497 -0.2933  0.0786
 4705poe    c2321897   4.891  -0.321   3.386  0.0599 -0.3286  0.0422
 4705poe    c2321898   4.864  -0.330   3.538 -0.3301  0.0072 -0.0043
 4705poe     o221899   4.837  -0.203   3.592 -0.0572 -0.1221  0.4401
 4705poe    c3121900   4.865  -0.196   3.730  0.0742 -0.0867  0.4121
 4706poe    c3121901   2.969   0.464   2.258 -0.6541 -0.2483 -0.2819
 4706poe     o221902   2.942   0.583   2.329  0.3360  0.0763 -0.4433
 4706poe    c2321903   2.819   0.637   2.288  0.1271  0.0007  0.0770
 4706poe    c2321904   2.788   0.766   2.366 -0.2190 -0.2094  0.2935
 4706poe     o221905   2.802   0.737   2.503 -0.4712 -0.2875  0.3031
 4706poe    c2321906   2.829   0.857   2.573 -0.2744 -0.1986  0.0798
 4706poe    c2321907   2.876   0.839   2.719  0.0356 -0.6556 -0.0735
 4706poe     o221908   3.017   0.827   2.723  0.1180  0.1183 -0.3838
 4706poe    c2321909   3.039   0.790   2.857 -0.2467  0.0152 -0.3507
 4706poe    c2321910   3.172   0.713   2.864 -0.3034 -0.0342  0.2967
 4706poe     o221911   3.184   0.605   2.773  0.2096 -0.2502  0.6193
 4706poe    c3121912   3.314   0.552   2.787  0.3770  0.1295  0.5242
 4707poe    c3121913   0.553   3.220   1.156 -0.3974  0.4684 -0.4190
 4707poe     o221914   0.419   3.197   1.120 -0.3922  0.0570 -0.1849
 4707poe    c2321915   0.391   3.059   1.106 -0.4358  0.0546 -0.0723
 4707poe    c2321916   0.238   3.042   1.097 -0.4613  0.3368 -0.1809
 4707poe     o221917   0.172   3.062   1.220 -0.3316 -0.2712 -0.0107
 4707poe    c2321918   0.034   3.033   1.219 -0.3694 -0.0956  0.0654
 4707poe    c2321919  -0.026   3.030   1.360 -0.2474  0.0594  0.1207
 4707poe     o221920   0.019   3.147   1.425 -0.2290  0.2428 -0.2234
 4707poe    c2321921  -0.018   3.157   1.561  0.0022 -0.2415 -0.1225
 4707poe    c2321922   0.023   3.301   1.597 -0.2523 -0.1181 -0.3209
 4707poe     o221923   0.149   3.332   1.541 -0.0812 -0.1630  0.0401
 4707poe    c3121924   0.188   3.463   1.577 -0.7887  0.0518  0.0483
 4708poe    c3121925   6.236   5.552   4.997 -0.3861 -0.1392  0.1306
 4708poe     o221926   6.117   5.623   5.024 -0.4006  0.0281 -0.3596
 4708poe    c2321927   6.075   5.698   4.912  0.2152  0.4810 -0.2864
 4708poe    c2321928   5.940   5.771   4.923  0.0900  0.3106 -0.7031
 4708poe     o221929   5.828   5.686   4.915  0.5764 -0.4041 -0.1214
 4708poe    c2321930   5.796   5.623   5.037  0.1010 -0.0540 -0.0624
 4708poe    c2321931   5.713   5.494   5.034 -0.0239  0.0254 -0.0414
 4708poe     o221932   5.597   5.517   4.957  0.3790  0.2555 -0.5875
 4708poe    c2321933   5.548   5.391   4.918  0.2259  0.1276  0.0065
 4708poe    c2321934   5.409   5.416   4.859  0.2080  0.1735  0.0684
 4708poe     o221935   5.400   5.493   4.741  0.0682  0.1804  0.0833
 4708poe    c3121936   5.270   5.490   4.686 -0.2408 -0.4477  0.8388
 4709poe    c3121937   4.716   0.106   5.477 -0.0340  0.0285  0.0092
 4709poe     o221938   4.591   0.155   5.520  0.0374  0.6987 -0.5288
 4709poe    c2321939   4.609   0.191   5.656 -0.2058 -0.4353 -0.1842
 4709poe    c2321940   4.465   0.198   5.712 -0.1575  0.0769 -0.1171
 4709poe     o221941   4.387   0.293   5.643 -0.0111  0.1547 -0.1772
 4709poe    c2321942   4.251   0.293   5.679  0.1545  0.1653  0.4681
 4709poe    c2321943   4.191   0.378   5.566  0.2263 -0.2313  0.1296
 4709poe     o221944   4.233   0.339   5.437  0.0571  0.2026 -0.0624
 4709poe    c2321945   4.138   0.377   5.340  0.0835  0.0943 -0.1315
 4709poe    c2321946   4.193   0.375   5.196  0.3122 -0.1733 -0.0416
 4709poe     o221947   4.255   0.251   5.170  0.1900 -0.2733  0.1388
 4709poe    c3121948   4.207   0.201   5.047 -0.1435  0.1663  0.0881
 4710poe    c3121949   5.475   5.510   7.031  0.1419 -0.6560  0.0290
 4710poe     o221950   5.384   5.608   7.075  0.3651 -0.2615 -0.3788
 4710poe    c2321951   5.356   5.587   7.212  0.5086  0.3429 -0.2540
 4710poe    c2321952   5.290   5.703   7.290 -0.3074 -0.0865 -0.2935
 4710poe     o221953   5.179   5.770   7.235 -0.5761 -0.2731  0.0183
 4710poe    c2321954   5.141   5.872   7.324 -0.4125  0.0144 -0.2407
 4710poe    c2321955   5.056   5.959   7.230 -0.1813  0.5272  0.0213
 4710poe     o221956   5.127   6.004   7.116  0.3216 -0.0678  0.0946
 4710poe    c2321957   5.068   6.106   7.039 -0.2811 -0.4039  0.1008
 4710poe    c2321958   5.135   6.113   6.901 -0.1873 -0.2295  0.1542
 4710poe     o221959   5.123   5.979   6.858 -1.1204  0.0182 -0.3917
 4710poe    c3121960   5.143   5.973   6.719  0.2769 -0.7586 -0.1724
 4711poe    c3121961   0.844   5.116   2.158  0.4200 -0.0258 -0.2679
 4711poe     o221962   0.739   5.176   2.230  0.1881 -0.2953 -0.3825
 4711poe    c2321963   0.631   5.085   2.223 -0.4291  0.3651  0.3047
 4711poe    c2321964   0.490   5.141   2.246 -0.5514  0.3443 -0.3638
 4711poe     o221965   0.477   5.230   2.355 -0.3419  0.1971 -0.2167
 4711poe    c2321966   0.352   5.294   2.343 -0.4991 -0.0952 -0.1251
 4711poe    c2321967   0.355   5.431   2.414  0.4468 -0.3497  0.3365
 4711poe     o221968   0.471   5.495   2.368  0.0165  0.0265 -0.2277
 4711poe    c2321969   0.453   5.635   2.364  0.0721  0.0529  0.3421
 4711poe    c2321970   0.564   5.699   2.279 -0.0937 -0.1819 -0.0520
 4711poe     o221971   0.545   5.690   2.139 -0.0684 -0.1117 -0.0597
 4711poe    c3121972   0.669   5.725   2.081 -0.2524  0.1214 -0.3126
 4712poe    c3121973   0.465   0.036   3.114  0.5125  0.5902 -0.1874
 4712poe     o221974   0.375  -0.051   3.049  0.4767 -0.0136  0.6531
 4712poe    c2321975   0.417  -0.083   2.919 -0.3595 -0.1503  0.4103
 4712poe    c2321976   0.335  -0.206   2.876  0.2368 -0.0614 -1.0340
 4712poe     o221977   0.198  -0.180   2.855  0.1173  0.0802 -0.1146
 4712poe    c2321978   0.129  -0.293   2.804  0.3345 -0.3229  0.4728
 4712poe    c2321979   0.067  -0.246   2.671  0.9420  0.1280  0.3431
 4712poe     o221980   0.148  -0.206   2.562  0.4085  0.5909  0.1121
 4712poe    c2321981   0.074  -0.126   2.473 -0.2728 -0.2067 -0.0548
 4712poe    c2321982   0.162  -0.072   2.359 -0.6156 -0.2726 -0.3536
 4712poe     o221983   0.244  -0.168   2.297 -0.0775  0.0123 -0.0978
 4712poe    c3121984   0.294  -0.112   2.178  0.0164 -0.4399 -0.2757
 4713poe    c3121985   3.983   0.652   6.146  0.2250 -0.2567 -0.4791
 4713poe     o221986   3.947   0.779   6.097 -0.3782 -0.4743 -0.6133
 4713poe    c2321987   3.982   0.882   6.187  0.0440 -0.1388 -1.1597
 4713poe    c2321988   3.941   1.019   6.129 -0.1947  0.3125  0.0415
 4713poe     o221989   3.801   1.023   6.118 -0.2521 -0.6334  0.3230
 4713poe    c2321990   3.773   1.160   6.135 -0.0161 -0.4901 -0.4003
 4713poe    c2321991   3.633   1.193   6.081  0.0569  0.3700 -0.0807
 4713poe     o221992   3.524   1.131   6.146  0.1135  0.3763  0.0189
 4713poe    c2321993   3.404   1.195   6.107 -0.1080 -0.0560 -0.0119
 4713poe    c2321994   3.279   1.110   6.135 -0.2707  0.0701 -0.3569
 4713poe     o221995   3.270   0.989   6.063 -0.0103 -0.0252 -0.2300
 4713poe    c3121996   3.134   0.962   6.039 -0.1202  0.1274  0.2088
 4714poe    c3121997   3.873   3.468   5.227 -0.3535  0.5855 -0.6092
 4714poe     o221998   3.780   3.397   5.306  0.3334  0.3541  0.0118
 4714poe    c2321999   3.806   3.259   5.292 -0.4808  0.1501  0.4465
 4714poe    c2322000   3.701   3.170   5.361 -0.5456  0.6476  1.0008
 4714poe     o222001   3.581   3.177   5.286  0.0615  0.6789  0.0059
 4714poe    c2322002   3.519   3.050   5.283 -0.0828  0.7428  0.2186
 4714poe    c2322003   3.403   3.036   5.183  0.2686  0.2680 -0.1254
 4714poe     o222004   3.300   3.127   5.212 -0.0625 -0.1407 -0.0129
 4714poe    c2322005   3.220   3.126   5.095  0.3389  0.4394 -0.2962
 4714poe    c2322006   3.103   3.224   5.112  0.2422  0.1364  0.8752
 4714poe     o222007   3.126   3.351   5.055  0.1136 -0.1962  0.0858
 4714poe    c3122008   3.005   3.405   5.005 -0.0710 -0.3330  0.3770
 4715poe    c3122009   6.124   4.751   5.738 -0.3990  0.0169 -0.2928
 4715poe     o222010   6.032   4.840   5.796 -0.0173  0.0717  0.2355
 4715poe    c2322011   5.990   4.772   5.912  0.1339  0.0437  0.2751
 4715poe    c2322012   5.877   4.844   5.989 -0.3416 -0.3635 -0.0326
 4715poe     o222013   5.793   4.888   5.884  0.1356  0.5813 -0.0333
 4715poe    c2322014   5.681   4.955   5.938  0.4472  0.4578  0.7758
 4715poe    c2322015   5.645   5.075   5.849 -0.0777 -0.2086  0.0813
 4715poe     o222016   5.684   5.064   5.714 -0.1464 -0.4976  0.0840
 4715poe    c2322017   5.578   5.115   5.637  0.0891  0.1516  0.1867
 4715poe    c2322018   5.628   5.148   5.495  0.4719  0.3202  0.3596
 4715poe     o222019   5.695   5.046   5.425 -0.0507  0.0631  0.2258
 4715poe    c3122020   5.727   5.092   5.295  0.8759 -0.0077  0.4163
 4716poe    c3122021   4.610   7.258   0.322  0.4448  0.6455  0.1222
 4716poe     o222022   4.626   7.321   0.447  0.6211 -0.3950  0.6347
 4716poe    c2322023   4.539   7.244   0.527 -0.3157  0.6304  0.6299
 4716poe    c2322024   4.557   7.287   0.674 -0.8731  0.1686  0.8362
 4716poe     o222025   4.499   7.414   0.688 -0.4292  0.5075 -0.2916
 4716poe    c2322026   4.516   7.463   0.819  0.0353  0.1619 -0.2181
 4716poe    c2322027   4.469   7.609   0.838 -0.6442 -0.0412 -0.2952
 4716poe     o222028   4.569   7.700   0.797 -0.2642 -0.2508  0.1476
 4716poe    c2322029   4.546   7.836   0.824 -0.0369 -0.1584 -0.1240
 4716poe    c2322030   4.432   7.912   0.752  0.4234  0.8036  0.1394
 4716poe     o222031   4.445   7.917   0.612 -0.2643  0.1272  0.0414
 4716poe    c3122032   4.341   7.995   0.556  0.0799  0.2902 -0.3819
 4717poe    c3122033   0.712   4.842   1.470 -0.5907 -0.2655  0.0391
 4717poe     o222034   0.632   4.912   1.377 -0.4041 -0.5763 -0.3625
 4717poe    c2322035   0.491   4.904   1.384 -0.4143 -0.0396  0.1440
 4717poe    c2322036   0.441   4.900   1.238 -0.3364  0.0825  0.1138
 4717poe     o222037   0.469   4.783   1.166 -0.2061  0.2104 -0.0448
 4717poe    c2322038   0.594   4.790   1.100  0.0634 -0.2172  0.4102
 4717poe    c2322039   0.603   4.672   1.001 -0.2110  0.0460  0.0678
 4717poe     o222040   0.604   4.557   1.082 -0.3666  0.2403  0.3494
 4717poe    c2322041   0.619   4.439   1.006  0.5269  0.2690  0.4699
 4717poe    c2322042   0.598   4.325   1.107  0.1814  0.0894  0.1964
 4717poe     o222043   0.473   4.354   1.166 -0.0128 -0.2479 -0.0462
 4717poe    c3122044   0.417   4.236   1.218  0.5392 -0.6831 -0.4273
 4718poe    c3122045   0.692   2.324   2.867 -0.2807 -0.3093  0.1978
 4718poe     o222046   0.810   2.402   2.867 -0.4548 -0.0470 -0.0788
 4718poe    c2322047   0.873   2.373   2.745 -0.3619  0.4660 -0.1586
 4718poe    c2322048   1.015   2.425   2.721 -0.5158  0.5980 -0.7970
 4718poe     o222049   1.095   2.392   2.832 -0.7133  0.0996 -0.8050
 4718poe    c2322050   1.229   2.426   2.805 -0.3779 -0.3112  0.2836
 4718poe    c2322051   1.279   2.551   2.881  0.7049 -0.2664 -0.4783
 4718poe     o222052   1.299   2.529   3.019 -0.1601 -0.4701 -0.3785
 4718poe    c2322053   1.314   2.655   3.079 -0.6744 -0.4599 -0.2670
 4718poe    c2322054   1.326   2.637   3.232  0.2422 -0.1204 -0.2891
 4718poe     o222055   1.208   2.580   3.285  0.2255  0.3153  0.1432
 4718poe    c3122056   1.223   2.567   3.424 -0.0941 -0.1939  0.1322
 4719poe    c3122057   1.284   3.872   1.550 -0.2369  0.2091  0.0590
 4719poe     o222058   1.158   3.846   1.608 -0.1673 -0.9714 -0.2928
 4719poe    c2322059   1.051   3.854   1.517  0.0767 -0.6166 -0.5479
 4719poe    c2322060   0.929   3.817   1.603  0.1948 -0.0917 -0.1446
 4719poe     o222061   0.924   3.909   1.710 -0.4282 -0.1071 -0.1563
 4719poe    c2322062   0.859   3.882   1.832  0.4095  0.3556  0.4018
 4719poe    c2322063   0.905   3.755   1.904 -0.1804 -0.0059  0.1493
 4719poe     o222064   1.041   3.786   1.927 -0.0948 -0.1347 -0.1784
 4719poe    c2322065   1.112   3.721   2.030 -0.1900 -0.2687 -0.1966
 4719poe    c2322066   1.262   3.752   2.014 -0.0923 -0.3491  0.5244
 4719poe     o222067   1.270   3.739   1.874  0.1950 -0.4882  0.5540
 4719poe    c3122068   1.392   3.681   1.832 -0.0104 -0.3797 -0.2194
 4720poe    c3122069   2.067   0.873   6.887 -0.1755  0.5308  0.7812
 4720poe     o222070   2.104   1.009   6.897 -0.1872  0.5560  0.4844
 4720poe    c2322071   1.998   1.096   6.928 -0.6264  0.4491 -0.6421
 4720poe    c2322072   2.050   1.233   6.976  0.3974 -0.0231 -0.3774
 4720poe     o222073   2.102   1.209   7.105 -0.5597  0.4582  0.1069
 4720poe    c2322074   2.168   1.326   7.146  0.2933 -0.0016  0.0665
 4720poe    c2322075   2.177   1.340   7.299 -0.6343 -0.1033  0.1371
 4720poe     o222076   2.257   1.237   7.352 -0.2904  0.0771 -0.0292
 4720poe    c2322077   2.213   1.185   7.476  0.6480 -0.3137  0.1516
 4720poe    c2322078   2.300   1.066   7.522 -0.0360 -0.9240 -0.1168
 4720poe     o222079   2.298   0.961   7.428 -0.2112 -0.7842 -0.2713
 4720poe    c3122080   2.298   0.832   7.485 -1.1392 -0.3672  0.7136
 4721poe    c3122081   4.823   1.403   0.842 -0.2344  0.0783 -0.1363
 4721poe     o222082   4.894   1.468   0.739 -0.0920  0.1526  0.0084
 4721poe    c2322083   4.819   1.565   0.669  0.0581 -0.1345 -0.5529
 4721poe    c2322084   4.915   1.660   0.596  0.6476 -0.6207 -0.4221
 4721poe     o222085   4.997   1.737   0.682 -0.3635 -0.2428  0.2275
 4721poe    c2322086   5.086   1.804   0.596 -0.2760  0.1607  0.6300
 4721poe    c2322087   5.180   1.891   0.681 -0.1313  0.0394  0.5935
 4721poe     o222088   5.290   1.822   0.736  0.1195  0.1044  0.1829
 4721poe    c2322089   5.349   1.905   0.833  0.2551  0.5593 -0.2852
 4721poe    c2322090   5.457   1.821   0.905 -0.2210  0.2959  0.1220
 4721poe     o222091   5.543   1.764   0.810 -0.3969 -0.2468  0.2836
 4721poe    c3122092   5.642   1.679   0.864  0.0506  0.3694  0.4388
 4722poe    c3122093   5.456   2.752   6.866 -0.1463 -0.2544 -0.0917
 4722poe     o222094   5.447   2.726   6.727 -0.3426  0.1943 -0.1654
 4722poe    c2322095   5.463   2.590   6.692  0.5153  0.2123  0.1209
 4722poe    c2322096   5.496   2.572   6.542 -0.0034  0.4824 -0.0299
 4722poe     o222097   5.378   2.588   6.466 -0.0704  0.4338  0.0627
 4722poe    c2322098   5.419   2.579   6.331 -0.1085  0.7251  0.0315
 4722poe    c2322099   5.342   2.673   6.236 -0.3325 -0.0878 -0.5943
 4722poe     o222100   5.369   2.809   6.262 -0.0788 -0.2117 -0.1849
 4722poe    c2322101   5.313   2.881   6.154 -0.4767  0.0446  0.1904
 4722poe    c2322102   5.363   3.027   6.147  0.2977 -0.2024  0.4270
 4722poe     o222103   5.309   3.105   6.251 -0.2902 -0.3200  0.2150
 4722poe    c3122104   5.324   3.243   6.225 -0.5147 -0.3313  0.0150
 4723poe    c3122105   0.397   4.991   3.547  0.2546  0.0617  0.3767
 4723poe     o222106   0.312   4.965   3.437  0.1587  0.4255  0.3618
 4723poe    c2322107   0.179   4.938   3.474  0.1554  0.1892  0.1786
 4723poe    c2322108   0.142   4.794   3.517 -0.1801  0.3085  0.2915
 4723poe     o222109   0.127   4.717   3.400 -0.7025 -0.1487  0.6584
 4723poe    c2322110   0.096   4.585   3.439  0.2353 -0.3115  0.8986
 4723poe    c2322111   0.109   4.473   3.334  0.5852  0.3070  0.2724
 4723poe     o222112   0.243   4.448   3.297  0.5112  0.3251 -0.0102
 4723poe    c2322113   0.270   4.316   3.255 -0.1601  0.2509 -0.2211
 4723poe    c2322114   0.422   4.291   3.249 -0.1870  0.0739 -0.1774
 4723poe     o222115   0.481   4.276   3.376 -0.0737 -0.1125 -0.2523
 4723poe    c3122116   0.615   4.230   3.373 -0.1045 -0.3182  1.0156
 4724poe    c3122117   6.669   4.527   5.699 -0.1996  0.1874  0.1300
 4724poe     o222118   6.705   4.609   5.590  0.0919  0.0192  0.0996
 4724poe    c2322119   6.627   4.725   5.576 -0.1341 -0.1944 -0.4216
 4724poe    c2322120   6.526   4.734   5.460 -0.3577  0.4187 -0.1864
 4724poe     o222121   6.602   4.734   5.341 -0.0836 -0.5731 -0.0240
 4724poe    c2322122   6.525   4.779   5.232  0.4282  0.1969 -0.0788
 4724poe    c2322123   6.629   4.805   5.122 -0.2516  0.2178 -0.7268
 4724poe     o222124   6.664   4.687   5.053 -0.0636 -0.0695 -0.1486
 4724poe    c2322125   6.801   4.656   5.054 -0.1609 -0.5051 -0.0360
 4724poe    c2322126   6.839   4.526   4.979  0.3793 -0.5841  0.3713
 4724poe     o222127   6.838   4.545   4.839  0.0744  0.4382  0.5012
 4724poe    c3122128   6.850   4.418   4.779  0.8295  0.7078  0.0771
 4725poe    c3122129   0.757   3.160   0.821 -0.6273 -0.1176 -0.1063
 4725poe     o222130   0.871   3.109   0.887 -0.2296  0.7206 -0.1354
 4725poe    c2322131   0.889   3.168   1.013  0.2552  0.1799  0.0534
 4725poe    c2322132   0.928   3.316   1.021  0.2614  0.1660  0.3058
 4725poe     o222133   0.971   3.349   1.151  0.9023 -0.1891  0.1903
 4725poe    c2322134   0.988   3.485   1.183 -0.2023 -0.0719  0.3218
 4725poe    c2322135   1.039   3.499   1.328 -0.3774 -0.3447  0.4116
 4725poe     o222136   1.168   3.446   1.349 -0.3634 -0.4826 -0.0058
 4725poe    c2322137   1.200   3.453   1.487 -0.1375  0.5337 -0.1020
 4725poe    c2322138   1.350   3.431   1.510 -0.1658  0.3074 -0.1296
 4725poe     o222139   1.428   3.525   1.439  0.2272  0.0851  0.0040
 4725poe    c3122140   1.564   3.506   1.472  0.1110 -0.2177  0.3078
 4726poe    c3122141   5.202   3.394   1.082 -0.2304  0.6485  0.0405
 4726poe     o222142   5.120   3.296   1.140  0.2322  0.0664 -0.2767
 4726poe    c2322143   5.010   3.271   1.055  0.2838 -0.4490 -0.1973
 4726poe    c2322144   4.894   3.178   1.095  0.0653 -0.4258 -0.7619
 4726poe     o222145   4.795   3.225   1.183  0.2566 -0.6210 -0.4388
 4726poe    c2322146   4.719   3.121   1.241 -0.2575 -0.0448 -0.0693
 4726poe    c2322147   4.607   3.178   1.330 -0.1375  0.6751 -0.3693
 4726poe     o222148   4.669   3.255   1.430 -0.0241 -0.5314  0.5217
 4726poe    c2322149   4.568   3.331   1.493  0.3587  0.2604  0.2008
 4726poe    c2322150   4.638   3.422   1.595  0.5316 -0.3377  0.6206
 4726poe     o222151   4.737   3.500   1.531  0.0499 -0.2925 -0.0776
 4726poe    c3122152   4.781   3.602   1.618  0.2240 -0.5875  0.1863
 4727poe    c3122153   5.080   0.647   0.124 -0.5272 -0.4533 -0.2726
 4727poe     o222154   5.142   0.697   0.008  0.0276 -0.0513  0.1890
 4727poe    c2322155   5.082   0.634  -0.103  0.0561 -0.0840  0.1919
 4727poe    c2322156   5.172   0.637  -0.228 -0.4678  0.0108 -0.1867
 4727poe     o222157   5.192   0.756  -0.299  0.4630  0.0063  0.0554
 4727poe    c2322158   5.293   0.759  -0.397 -0.0242 -0.4019 -0.4632
 4727poe    c2322159   5.434   0.799  -0.351 -0.3958 -0.1248  0.4534
 4727poe     o222160   5.433   0.936  -0.318  0.0225 -0.0306  0.0833
 4727poe    c2322161   5.556   0.985  -0.269 -0.1168 -0.5605  0.9910
 4727poe    c2322162   5.565   1.139  -0.256  0.0078 -0.4999  0.2316
 4727poe     o222163   5.496   1.184  -0.142 -0.2978 -0.1336 -0.0972
 4727poe    c3122164   5.504   1.324  -0.129  0.3153 -0.0900 -0.9143
 4728poe    c3122165   4.140   2.096   3.135 -0.4489 -0.6429  0.3857
 4728poe     o222166   4.214   2.085   3.016  0.0728  0.2225  0.6193
 4728poe    c2322167   4.293   2.201   3.006 -0.3632  0.4626 -0.0728
 4728poe    c2322168   4.300   2.261   2.864 -0.1784 -0.1905 -0.3438
 4728poe     o222169   4.168   2.303   2.836 -0.2775 -0.4919 -0.3292
 4728poe    c2322170   4.174   2.391   2.726  0.1885  0.2002  0.2427
 4728poe    c2322171   4.033   2.425   2.675  0.2688  0.1582 -0.0124
 4728poe     o222172   3.975   2.317   2.605  0.3370  0.0848  0.0439
 4728poe    c2322173   3.834   2.320   2.614  0.3377  0.1030  0.0517
 4728poe    c2322174   3.766   2.193   2.560  0.2941  0.1345  0.0322
 4728poe     o222175   3.781   2.078   2.641  0.2128 -0.0475 -0.2091
 4728poe    c3122176   3.736   1.964   2.571 -0.2554 -0.0642  0.1138
 4729poe    c3122177   6.262   1.425   0.553  0.4281  0.3245  0.0482
 4729poe     o222178   6.326   1.318   0.488 -0.3094  0.0426 -0.2242
 4729poe    c2322179   6.291   1.194   0.547 -0.0545  0.1565  0.1642
 4729poe    c2322180   6.282   1.083   0.440 -0.2924 -0.0808  0.4299
 4729poe     o222181   6.164   1.101   0.366  0.2578 -0.0055 -0.4419
 4729poe    c2322182   6.183   1.097   0.226  0.1697 -0.6786 -0.4367
 4729poe    c2322183   6.055   1.051   0.155 -0.1082 -0.0778 -0.3301
 4729poe     o222184   6.016   0.917   0.176  0.2572 -0.1159  0.1257
 4729poe    c2322185   5.911   0.899   0.084  0.3863 -0.1393 -0.0173
 4729poe    c2322186   5.835   0.766   0.103  0.2275 -0.0059  0.2722
 4729poe     o222187   5.708   0.780   0.044  0.3656  0.3270  0.0495
 4729poe    c3122188   5.628   0.671   0.085 -0.1597  0.4821 -0.5385
 4730poe    c3122189   0.379   4.978   4.586  0.7021 -0.2976 -0.0524
 4730poe     o222190   0.420   5.102   4.532 -0.0656 -0.0859 -0.1512
 4730poe    c2322191   0.307   5.184   4.511 -0.1032 -0.1796 -0.3121
 4730poe    c2322192   0.309   5.336   4.535 -0.5464 -0.1060 -0.7278
 4730poe     o222193   0.391   5.405   4.445  0.1012 -0.1130 -0.1487
 4730poe    c2322194   0.467   5.497   4.521  0.1128 -0.1510 -0.1145
 4730poe    c2322195   0.572   5.580   4.446  0.2627  0.2000  0.4780
 4730poe     o222196   0.502   5.606   4.326  0.2921 -0.5571  0.2914
 4730poe    c2322197   0.593   5.650   4.228 -0.0051  0.0497  0.2807
 4730poe    c2322198   0.511   5.687   4.103  0.0851 -0.0274  0.1984
 4730poe     o222199   0.461   5.575   4.034 -0.1788  0.0901  0.1994
 4730poe    c3122200   0.546   5.546   3.926 -0.0434  0.2269  0.2691
 4731poe    c3122201   7.278   4.935   4.098  0.5195 -0.1360 -0.0767
 4731poe     o222202   7.237   5.057   4.040 -0.1084 -0.3865 -0.1593
 4731poe    c2322203   7.283   5.057   3.906  0.3916  0.3481  0.0055
 4731poe    c2322204   7.209   5.156   3.815  0.0246 -0.3978 -0.5264
 4731poe     o222205   7.200   5.289   3.862  0.1628 -0.5481 -0.0622
 4731poe    c2322206   7.117   5.363   3.775 -0.3328 -0.7649  0.2259
 4731poe    c2322207   6.969   5.373   3.817 -0.3843  0.1393 -0.1400
 4731poe     o222208   6.970   5.416   3.951  0.3536  0.0103 -0.1008
 4731poe    c2322209   6.841   5.434   4.006  0.3204  0.1342 -0.2182
 4731poe    c2322210   6.845   5.465   4.157 -0.3661 -0.1777 -0.1297
 4731poe     o222211   6.976   5.505   4.190 -0.3946  0.0629 -0.3068
 4731poe    c3122212   6.979   5.539   4.327  0.0550  0.0368 -0.3087
 4732poe    c3122213   0.692   2.081   5.326 -0.5072 -0.2489  0.2824
 4732poe     o222214   0.603   1.975   5.297 -0.4933 -0.3343  0.5439
 4732poe    c2322215   0.622   1.870   5.388 -0.2269 -0.3658  0.4539
 4732poe    c2322216   0.569   1.737   5.330 -0.0250 -0.2193 -0.0663
 4732poe     o222217   0.428   1.740   5.327 -0.0082  0.5497 -0.2958
 4732poe    c2322218   0.360   1.620   5.298 -0.3486  0.7404 -0.2883
 4732poe    c2322219   0.382   1.554   5.161 -0.4271 -0.0007  0.0514
 4732poe     o222220   0.361   1.634   5.046  0.7430 -0.4057 -0.4600
 4732poe    c2322221   0.377   1.570   4.921  0.0468 -0.8242 -0.3424
 4732poe    c2322222   0.508   1.582   4.841 -0.2058 -0.1062 -0.6636
 4732poe     o222223   0.564   1.711   4.837  0.5231 -0.3897 -0.0712
 4732poe    c3122224   0.704   1.715   4.851  0.5369  0.7927 -0.4422
 4733poe    c3122225   5.934   0.742   0.904  0.1027 -0.6113 -0.4455
 4733poe     o222226   5.861   0.846   0.843  0.1237  0.0495  0.6334
 4733poe    c2322227   5.723   0.814   0.846  0.1369 -0.0959 -0.0861
 4733poe    c2322228   5.642   0.929   0.786 -0.0585 -0.0159  0.3262
 4733poe     o222229   5.684   1.055   0.835  0.0757  0.0097  0.1475
 4733poe    c2322230   5.665   1.140   0.724 -0.0670  0.2304  0.3411
 4733poe    c2322231   5.740   1.272   0.751  0.1447  0.1487  0.1597
 4733poe     o222232   5.873   1.248   0.790  0.1942  0.3816  0.1368
 4733poe    c2322233   5.922   1.357   0.864  0.2173 -0.0286  0.7310
 4733poe    c2322234   6.072   1.344   0.898  0.3795 -0.3239 -0.0870
 4733poe     o222235   6.090   1.227   0.974 -0.0272 -0.3566 -0.0426
 4733poe    c3122236   6.212   1.221   1.044  0.0969  0.3729 -0.1902
 4734poe    c3122237   4.116   6.667   5.650  0.4345 -0.1252 -0.0016
 4734poe     o222238   4.149   6.606   5.527  0.3106 -0.0784 -0.0567
 4734poe    c2322239   4.146   6.465   5.537  0.5449 -0.0498  0.4344
 4734poe    c2322240   4.180   6.396   5.404 -0.1006  0.6394 -0.0997
 4734poe     o222241   4.072   6.391   5.313 -0.3735  0.2460  0.2380
 4734poe    c2322242   4.105   6.345   5.184  0.5143 -0.0294  0.5583
 4734poe    c2322243   4.132   6.466   5.093 -0.2637  0.2361  0.6797
 4734poe     o222244   4.242   6.544   5.135  0.1188  0.1223 -0.0984
 4734poe    c2322245   4.262   6.662   5.060  0.2694  0.3702  0.3237
 4734poe    c2322246   4.395   6.729   5.098  0.6963  0.0090 -0.4883
 4734poe     o222247   4.399   6.763   5.235  0.1080 -0.0737 -0.4478
 4734poe    c3122248   4.521   6.830   5.255  0.2732 -0.3815 -0.4304
 4735poe    c3122249   2.277   3.850   6.241  0.2787 -0.0169  0.5120
 4735poe     o222250   2.243   3.886   6.373  0.2463  0.1377  0.4624
 4735poe    c2322251   2.124   3.961   6.375  0.0510 -0.1626  0.2761
 4735poe    c2322252   2.084   4.010   6.515 -0.1930  0.1423  0.1005
 4735poe     o222253   2.188   4.097   6.555 -0.2441  0.2476  0.0048
 4735poe    c2322254   2.146   4.179   6.662 -0.6262 -0.0983  0.1257
 4735poe    c2322255   2.271   4.229   6.737 -0.4385 -0.1064 -0.1800
 4735poe     o222256   2.346   4.311   6.651  0.0324 -0.0613  0.2667
 4735poe    c2322257   2.468   4.365   6.698  0.1328 -0.1088  0.0628
 4735poe    c2322258   2.548   4.423   6.580 -0.1724 -0.1723 -0.1768
 4735poe     o222259   2.486   4.521   6.499  0.5548  0.2136 -0.2749
 4735poe    c3122260   2.534   4.651   6.528  0.2655  0.1132  0.7194
 4736poe    c3122261   4.846   2.294   5.418  0.6119  0.0446 -0.2544
 4736poe     o222262   4.861   2.171   5.350 -0.6109 -0.0842 -0.3085
 4736poe    c2322263   4.736   2.149   5.289 -0.4610 -0.2143 -0.5666
 4736poe    c2322264   4.722   2.017   5.210  0.9040 -0.4399 -0.4604
 4736poe     o222265   4.730   1.911   5.303 -0.4279 -0.3310 -0.1962
 4736poe    c2322266   4.744   1.785   5.243  0.0456 -0.1491 -0.4797
 4736poe    c2322267   4.875   1.751   5.169  0.1159 -0.0755 -0.3906
 4736poe     o222268   4.988   1.745   5.252  0.0195  0.4163 -0.2247
 4736poe    c2322269   5.106   1.734   5.176  0.0741  0.2866 -0.1219
 4736poe    c2322270   5.217   1.690   5.273 -0.3339  0.0252  0.2266
 4736poe     o222271   5.194   1.761   5.393 -0.4241 -0.5235  0.5392
 4736poe    c3122272   5.273   1.692   5.487 -0.1167 -1.1215 -0.1487
 4737poe    c3122273   0.073   1.796   4.669  0.5625 -0.1009  0.1869
 4737poe     o222274   0.150   1.832   4.557  0.0431 -0.0668 -0.1626
 4737poe    c2322275   0.259   1.747   4.529  0.4005  0.2181  0.3551
 4737poe    c2322276   0.358   1.771   4.414 -0.0223  0.1769 -0.0165
 4737poe     o222277   0.425   1.895   4.411 -0.2731  0.3126 -0.1137
 4737poe    c2322278   0.490   1.901   4.286  0.3362 -0.2420  0.1683
 4737poe    c2322279   0.591   2.015   4.265  0.1328 -0.1665 -0.4337
 4737poe     o222280   0.520   2.135   4.287  0.4325 -0.0424 -0.1121
 4737poe    c2322281   0.602   2.247   4.306  0.7694 -0.2749 -0.1789
 4737poe    c2322282   0.533   2.385   4.300 -0.0932 -0.6795  0.2634
 4737poe     o222283   0.500   2.397   4.163 -0.0766 -0.1939  0.3007
 4737poe    c3122284   0.495   2.531   4.121 -0.1925 -0.2948 -0.0135
 4738poe    c3122285   1.454   6.413   1.997  0.6345  0.3207  0.0530
 4738poe     o222286   1.419   6.546   2.026  0.1045  0.1539  0.1950
 4738poe    c2322287   1.507   6.632   1.959  0.1369 -0.1818 -0.1944
 4738poe    c2322288   1.471   6.773   2.010 -0.2555 -0.4054  0.1455
 4738poe     o222289   1.511   6.786   2.144 -0.7569 -0.1995  0.2801
 4738poe    c2322290   1.452   6.898   2.205 -0.1413  0.1320  0.2720
 4738poe    c2322291   1.528   6.976   2.315  0.8061  0.0048 -0.2782
 4738poe     o222292   1.625   7.064   2.264  0.4398  0.3037 -0.4621
 4738poe    c2322293   1.692   7.135   2.365  0.0487  0.0035  0.0149
 4738poe    c2322294   1.843   7.111   2.344  0.0742  0.0488  0.1455
 4738poe     o222295   1.888   6.977   2.347  0.0677  0.0419 -0.0626
 4738poe    c3122296   1.947   6.936   2.468 -0.3224  0.0450  0.1289
 4739poe    c3122297   6.427   0.258   5.425 -0.5364  0.5567 -0.2297
 4739poe     o222298   6.301   0.260   5.362 -0.8946  0.0474  0.4449
 4739poe    c2322299   6.245   0.390   5.367  0.0386  0.4871 -0.2300
 4739poe    c2322300   6.120   0.411   5.279 -0.2267  0.1129  0.0558
 4739poe     o222301   6.016   0.321   5.309 -0.0455 -0.1848 -0.2115
 4739poe    c2322302   5.954   0.347   5.433  0.1659 -0.1483 -0.1133
 4739poe    c2322303   5.870   0.223   5.467  0.3722 -0.2270  0.1160
 4739poe     o222304   5.944   0.103   5.474  0.5345 -0.1145  0.3245
 4739poe    c2322305   5.858   0.005   5.528 -0.2605  0.2267 -0.2926
 4739poe    c2322306   5.919  -0.135   5.545 -0.0094  0.3210 -0.4018
 4739poe     o222307   5.960  -0.218   5.438 -0.6996 -0.5211 -0.0229
 4739poe    c3122308   5.873  -0.329   5.431 -0.6320 -0.6152  0.5919
 4740poe    c3122309   0.525   6.677   0.382 -0.5906 -0.1810  0.0188
 4740poe     o222310   0.587   6.564   0.440 -0.3472 -0.1651 -0.2067
 4740poe    c2322311   0.481   6.476   0.469 -0.5791  0.1713 -0.0209
 4740poe    c2322312   0.527   6.373   0.574  0.4005  0.1130 -0.4949
 4740poe     o222313   0.661   6.338   0.547  0.6022  0.4642  0.0157
 4740poe    c2322314   0.720   6.249   0.638  0.2379  0.4534  0.2424
 4740poe    c2322315   0.861   6.216   0.585  0.0931  0.1549  0.0365
 4740poe     o222316   0.928   6.339   0.567  0.3231  0.2212  1.2707
 4740poe    c2322317   1.060   6.297   0.538  0.0176 -0.0258  0.2121
 4740poe    c2322318   1.159   6.414   0.528 -0.4925  0.3940  0.0378
 4740poe     o222319   1.135   6.475   0.403  0.3451 -0.6124 -0.6289
 4740poe    c3122320   1.222   6.585   0.392  0.0865 -0.3668 -0.2408
 4741poe    c3122321   4.165   6.590   4.502  0.3662  0.4361  0.4635
 4741poe     o222322   4.118   6.459   4.483  0.0477  0.5407  0.5312
 4741poe    c2322323   4.195   6.365   4.554  0.0379 -0.2280 -0.4444
 4741poe    c2322324   4.128   6.230   4.585  0.0103 -0.0045  0.5032
 4741poe     o222325   4.076   6.151   4.481  0.1737  0.0019  0.4159
 4741poe    c2322326   4.030   6.029   4.534  0.2609 -0.2356 -0.0462
 4741poe    c2322327   3.946   5.940   4.440  0.0058  0.3175 -0.3445
 4741poe     o222328   4.009   5.902   4.320  0.6613 -0.2846  0.1813
 4741poe    c2322329   3.917   5.833   4.239  0.3969 -0.3775  0.5588
 4741poe    c2322330   3.968   5.802   4.097  0.1871  0.0225  0.3944
 4741poe     o222331   3.980   5.912   4.009 -0.3976 -0.6579 -0.5656
 4741poe    c3122332   4.033   5.872   3.885  0.9027  0.3711 -0.3693
 4742poe    c3122333   3.484   0.867   3.732  0.0714  0.2013  0.0599
 4742poe     o222334   3.482   1.008   3.730  0.2295  0.1985 -0.6776
 4742poe    c2322335   3.349   1.046   3.700 -0.0834 -0.5342 -0.2792
 4742poe    c2322336   3.330   1.172   3.613  0.3487 -0.1553  0.1664
 4742poe     o222337   3.364   1.301   3.657  0.8817 -0.2142 -0.0615
 4742poe    c2322338   3.410   1.374   3.545  0.2623 -0.3260 -0.3940
 4742poe    c2322339   3.491   1.493   3.599 -0.0944 -0.4836  0.5000
 4742poe     o222340   3.612   1.450   3.657  0.0567 -0.1827  0.4118
 4742poe    c2322341   3.695   1.545   3.719  0.3078  0.0093 -0.2131
 4742poe    c2322342   3.647   1.583   3.861  0.3228 -0.1678 -0.1601
 4742poe     o222343   3.652   1.487   3.964  0.3346 -0.1001 -0.0973
 4742poe    c3122344   3.643   1.548   4.090  0.5315 -0.7903  0.2537
 4743poe    c3122345   4.655   5.931   1.491  0.1502 -0.3322 -0.1377
 4743poe     o222346   4.642   6.003   1.611  0.1985 -0.0621 -0.2935
 4743poe    c2322347   4.522   5.966   1.674  0.2459  0.1812 -0.0530
 4743poe    c2322348   4.511   6.026   1.815  0.6012  0.3560 -0.0989
 4743poe     o222349   4.605   5.977   1.908  0.2406 -0.2007 -0.0198
 4743poe    c2322350   4.581   6.026   2.038  0.4061 -0.1240 -0.0177
 4743poe    c2322351   4.701   6.009   2.133 -0.0862  0.0230  0.6434
 4743poe     o222352   4.808   6.078   2.073 -0.2842 -0.4585 -0.2902
 4743poe    c2322353   4.918   6.038   2.152 -0.5680 -0.7858 -0.0614
 4743poe    c2322354   5.054   6.041   2.081 -0.5010  0.5513  0.0931
 4743poe     o222355   5.057   5.946   1.977 -0.3362  0.1699  0.4422
 4743poe    c3122356   5.157   5.976   1.882  0.0594 -0.7608  0.5558
 4744poe    c3122357   2.207   7.378   2.243 -0.4030 -0.3960  0.0992
 4744poe     o222358   2.151   7.339   2.120 -0.3036  0.1958 -0.1375
 4744poe    c2322359   2.215   7.225   2.067  0.1121  0.2591  0.2220
 4744poe    c2322360   2.187   7.187   1.921 -0.2670  0.5659  0.2134
 4744poe     o222361   2.256   7.271   1.831  0.1057 -0.1585 -0.1865
 4744poe    c2322362   2.222   7.231   1.700 -0.0786 -0.1694 -0.1359
 4744poe    c2322363   2.275   7.330   1.594  0.1407  0.4948  0.5827
 4744poe     o222364   2.415   7.340   1.596  0.1694  0.1922  0.0932
 4744poe    c2322365   2.452   7.442   1.506 -0.1141  0.1723 -0.0474
 4744poe    c2322366   2.432   7.593   1.528 -0.4307  0.1385 -0.1084
 4744poe     o222367   2.536   7.659   1.596 -0.4296 -0.2009  0.2266
 4744poe    c3122368   2.478   7.779   1.644  0.6293  0.3948  0.0477
 4745poe    c3122369   5.627   3.768   4.716 -0.9618  0.0413  0.7373
 4745poe     o222370   5.686   3.712   4.831  0.0044 -0.4666  0.0084
 4745poe    c2322371   5.589   3.721   4.933  0.1943  0.5397  0.1092
 4745poe    c2322372   5.642   3.670   5.068  0.7421 -0.0118 -0.3102
 4745poe     o222373   5.646   3.529   5.066 -0.4036 -0.0722  0.4439
 4745poe    c2322374   5.693   3.482   5.191 -0.3546 -0.1935  0.3808
 4745poe    c2322375   5.710   3.330   5.201  0.6516 -0.1112  0.0609
 4745poe     o222376   5.828   3.288   5.136  0.4389 -0.0169 -0.3927
 4745poe    c2322377   5.875   3.166   5.189 -0.0971  0.2302  0.6794
 4745poe    c2322378   5.996   3.109   5.114 -0.2501  0.3139  0.3680
 4745poe     o222379   5.969   3.091   4.977  0.0854  0.0122  0.3385
 4745poe    c3122380   6.073   3.023   4.910  0.3636  0.2711  0.5039
 4746poe    c3122381   2.312   6.304   6.036  0.0922 -0.1095  0.3620
 4746poe     o222382   2.452   6.311   6.020  0.0794 -0.1871  0.2159
 4746poe    c2322383   2.463   6.323   5.880  0.2465 -0.1287  0.2339
 4746poe    c2322384   2.596   6.390   5.840  0.2264 -0.2042  0.0380
 4746poe     o222385   2.696   6.291   5.853  0.1323 -0.4438 -0.9454
 4746poe    c2322386   2.814   6.319   5.783  0.6536  0.2097  0.1686
 4746poe    c2322387   2.926   6.213   5.773  0.6163  0.1877 -0.0235
 4746poe     o222388   2.973   6.159   5.894 -0.2664  0.0310  0.2554
 4746poe    c2322389   3.100   6.107   5.864 -0.4197 -0.5976  0.6730
 4746poe    c2322390   3.165   6.036   5.985  0.3238 -0.6780  0.2308
 4746poe     o222391   3.197   6.114   6.098 -0.0461 -0.3817  0.1323
 4746poe    c3122392   3.321   6.179   6.081 -0.1360 -0.1570  0.3327
 4747poe    c3122393   7.156   1.513   6.373 -0.0522 -0.0968 -0.2350
 4747poe     o222394   7.034   1.583   6.374  0.0203  0.0239  0.2301
 4747poe    c2322395   7.040   1.693   6.462 -0.1789 -0.0067  0.2825
 4747poe    c2322396   6.906   1.764   6.493 -0.4816 -0.4976  0.1127
 4747poe     o222397   6.837   1.843   6.399  0.2489 -0.0986 -0.0938
 4747poe    c2322398   6.793   1.777   6.283  0.5697 -0.0744 -0.2302
 4747poe    c2322399   6.680   1.849   6.208  0.4658  0.0871  0.0817
 4747poe     o222400   6.571   1.870   6.295  0.1930  0.5080 -0.3530
 4747poe    c2322401   6.453   1.883   6.219  0.2110 -0.1389 -0.4908
 4747poe    c2322402   6.335   1.933   6.302  0.5402 -0.0753 -0.0602
 4747poe     o222403   6.324   1.877   6.431 -0.2865  0.2016 -0.0008
 4747poe    c3122404   6.202   1.915   6.492 -0.1535 -0.3729  0.6360
 4748poe    c3122405   6.483   3.313   6.439  0.4185  0.0850  0.0019
 4748poe     o222406   6.425   3.184   6.444  0.0584  0.2482  0.0735
 4748poe    c2322407   6.535   3.097   6.433 -0.1543  0.0512 -0.5029
 4748poe    c2322408   6.499   2.949   6.407  0.6873 -0.2815  0.2154
 4748poe     o222409   6.434   2.886   6.516 -0.4858 -0.0732 -0.3603
 4748poe    c2322410   6.450   2.748   6.493  0.3728 -0.0986  0.3401
 4748poe    c2322411   6.362   2.671   6.593  0.4492 -0.1344  0.3786
 4748poe     o222412   6.365   2.734   6.719  0.3668  0.1131  0.2579
 4748poe    c2322413   6.327   2.644   6.821 -0.2883 -0.0011 -0.0814
 4748poe    c2322414   6.303   2.746   6.935  0.3330 -0.1876  0.2262
 4748poe     o222415   6.246   2.863   6.881  0.2452 -0.0231  0.6759
 4748poe    c3122416   6.212   2.948   6.989 -0.0276  0.6473  0.0740
 4749poe    c3122417   1.394   0.684   1.666 -0.1429  0.1189  0.7225
 4749poe     o222418   1.437   0.567   1.599  0.1201  0.6504 -0.0432
 4749poe    c2322419   1.510   0.472   1.672 -0.0770  0.2067 -0.4183
 4749poe    c2322420   1.657   0.477   1.627  0.1660  0.1083  0.3492
 4749poe     o222421   1.729   0.584   1.683  0.4948  0.1145 -0.0789
 4749poe    c2322422   1.864   0.549   1.666  0.3428 -0.5720  0.1137
 4749poe    c2322423   1.967   0.644   1.730 -0.0109 -0.1050 -0.0107
 4749poe     o222424   1.946   0.664   1.868  0.1948 -0.0416  0.0115
 4749poe    c2322425   2.065   0.708   1.929  0.3376  0.0991 -0.3635
 4749poe    c2322426   2.068   0.692   2.082  0.1608  0.3476 -0.3333
 4749poe     o222427   2.000   0.789   2.159 -0.0866  0.0380 -0.1561
 4749poe    c3122428   2.073   0.790   2.280  0.1728  0.8448 -0.3101
 4750poe    c3122429   4.722   2.831   5.310  0.8861 -0.0263  0.2209
 4750poe     o222430   4.784   2.868   5.189  0.0133  0.4875 -0.0782
 4750poe    c2322431   4.703   2.956   5.114 -0.3848  0.3704  0.2059
 4750poe    c2322432   4.761   2.983   4.973 -0.0954 -0.1831  0.2135
 4750poe     o222433   4.766   2.861   4.903 -0.3198 -0.1665  0.1669
 4750poe    c2322434   4.833   2.878   4.779 -0.4933  0.5194  0.1625
 4750poe    c2322435   4.839   2.747   4.699  0.0223  0.4740  0.2721
 4750poe     o222436   4.714   2.715   4.642  0.4265 -0.3732 -0.1484
 4750poe    c2322437   4.715   2.592   4.572  0.0781 -0.1080 -0.6244
 4750poe    c2322438   4.742   2.459   4.645 -0.0652 -0.0232 -0.4181
 4750poe     o222439   4.635   2.411   4.723  0.5162  0.1471  0.4994
 4750poe    c3122440   4.667   2.274   4.737 -0.1385 -0.0922 -0.2506
 4751poe    c3122441   1.074   1.625   4.794  0.1798  0.4827 -0.0124
 4751poe     o222442   1.121   1.756   4.774 -0.3523  0.7203  0.2540
 4751poe    c2322443   1.086   1.829   4.890 -0.6499 -0.1417  0.7139
 4751poe    c2322444   1.163   1.962   4.892 -0.3677 -0.2861 -0.0675
 4751poe     o222445   1.098   2.059   4.814 -0.1506  0.0155  0.1222
 4751poe    c2322446   1.163   2.181   4.842 -0.3324  0.1938 -0.2135
 4751poe    c2322447   1.098   2.286   4.751 -0.0973  0.5781  0.0588
 4751poe     o222448   1.110   2.234   4.621  0.0877  0.3216  0.1780
 4751poe    c2322449   1.051   2.331   4.538 -0.3025  0.1838  0.2928
 4751poe    c2322450   1.052   2.284   4.391  0.5520 -0.0654  0.3739
 4751poe     o222451   0.994   2.156   4.391 -0.0090  0.1857  0.2891
 4751poe    c3122452   0.973   2.126   4.255  0.6934 -0.1553  0.2505
 4752poe    c3122453   4.943   1.721   2.976  0.0312  0.0489  0.2255
 4752poe     o222454   5.024   1.708   3.091 -0.3722 -0.7790  0.4239
 4752poe    c2322455   5.140   1.633   3.067 -0.1641 -0.2789 -0.1664
 4752poe    c2322456   5.217   1.624   3.200 -0.2109  0.2292 -0.1058
 4752poe     o222457   5.128   1.589   3.303 -0.1651  0.0885 -0.1138
 4752poe    c2322458   5.204   1.603   3.422  0.1023 -0.2267 -0.2463
 4752poe    c2322459   5.110   1.612   3.543 -0.3431 -0.5218 -0.5651
 4752poe     o222460   5.026   1.725   3.535 -0.2347 -0.3893  0.1079
 4752poe    c2322461   4.972   1.732   3.665 -0.4256 -0.6375  0.0430
 4752poe    c2322462   4.870   1.846   3.682  0.0125 -0.2549  0.1293
 4752poe     o222463   4.830   1.879   3.813  0.6607 -0.5197  0.3988
 4752poe    c3122464   4.895   1.990   3.870 -0.2890  0.2708 -0.0225
 4753poe    c3122465   6.819   3.878   0.779  0.8293 -0.1938  0.4540
 4753poe     o222466   6.718   3.905   0.874  0.3624  0.4258 -0.2072
 4753poe    c2322467   6.745   3.862   1.005 -0.4229  0.4073 -0.0465
 4753poe    c2322468   6.625   3.868   1.102 -0.2046  0.3162  0.2312
 4753poe     o222469   6.645   3.886   1.240  0.2305 -0.7900  0.3265
 4753poe    c2322470   6.525   3.889   1.314  0.1660 -0.1612  0.2010
 4753poe    c2322471   6.558   3.915   1.462 -0.1948 -0.0650  0.2662
 4753poe     o222472   6.617   4.042   1.479  0.0655 -0.1548  0.0413
 4753poe    c2322473   6.653   4.078   1.611 -0.0722 -0.3388  0.1287
 4753poe    c2322474   6.749   4.198   1.622 -0.0803 -0.3020 -0.1731
 4753poe     o222475   6.862   4.166   1.543  0.1306 -0.2580  0.1094
 4753poe    c3122476   6.950   4.276   1.532 -0.5303  0.2603 -0.0946
 4754poe    c3122477   1.512   1.745   6.866  0.0029 -0.3695  0.1929
 4754poe     o222478   1.653   1.741   6.877 -0.0051  0.1002  0.5284
 4754poe    c2322479   1.711   1.617   6.912 -0.0517 -0.0666  0.0282
 4754poe    c2322480   1.848   1.648   6.976  0.0979 -0.1930 -0.2306
 4754poe     o222481   1.917   1.700   6.864  0.2568 -0.2451 -0.1561
 4754poe    c2322482   2.049   1.736   6.899  0.0761  0.0520  0.2379
 4754poe    c2322483   2.147   1.740   6.780  0.2570  0.2318  0.3937
 4754poe     o222484   2.195   1.616   6.733 -0.2343  0.2447 -0.1472
 4754poe    c2322485   2.116   1.552   6.636 -0.1922  0.1876 -0.1439
 4754poe    c2322486   2.150   1.573   6.487 -0.2594 -0.3464 -0.2354
 4754poe     o222487   2.146   1.707   6.446 -0.0684 -0.3316 -0.2064
 4754poe    c3122488   2.022   1.766   6.414 -0.0665  0.0144  0.4031
 4755poe    c3122489   7.131   6.144   5.186  0.1033 -0.2797  0.3692
 4755poe     o222490   7.056   6.034   5.138  0.5692 -0.1512 -0.6665
 4755poe    c2322491   7.083   5.908   5.194  0.4734  0.1439  0.0591
 4755poe    c2322492   6.974   5.824   5.124 -0.2515  0.8258  0.3596
 4755poe     o222493   6.978   5.854   4.986 -0.3179 -0.1841  0.1337
 4755poe    c2322494   6.916   5.763   4.899 -0.2150 -0.2190  0.0963
 4755poe    c2322495   6.934   5.800   4.751  0.3999  0.1822  0.2731
 4755poe     o222496   6.911   5.938   4.733 -0.4471 -0.0656 -0.6129
 4755poe    c2322497   6.936   5.983   4.602  0.5000  0.0456 -0.3984
 4755poe    c2322498   6.935   6.137   4.604  0.2655  0.0385  0.1537
 4755poe     o222499   7.048   6.183   4.676  0.2164  0.1324  0.1701
 4755poe    c3122500   7.073   6.320   4.657  0.0815  0.0588 -0.5793
 4756poe    c3122501   2.095   5.269   3.807 -0.3847  0.2416 -0.0147
 4756poe     o222502   2.185   5.367   3.854 -0.1317  0.0475 -0.0991
 4756poe    c2322503   2.306   5.313   3.902  0.0679  0.6731  0.1121
 4756poe    c2322504   2.317   5.334   4.055 -0.4207  0.4042  0.1868
 4756poe     o222505   2.304   5.468   4.094  0.0986  0.4944  0.0687
 4756poe    c2322506   2.247   5.477   4.223 -0.1023  0.3026 -0.0059
 4756poe    c2322507   2.259   5.619   4.283 -0.4726  0.1499  0.4426
 4756poe     o222508   2.195   5.705   4.192 -0.5785 -0.1582  0.2231
 4756poe    c2322509   2.217   5.842   4.218  0.4337 -0.2224 -0.2295
 4756poe    c2322510   2.159   5.910   4.092 -0.3533 -0.2988  0.0816
 4756poe     o222511   2.199   5.844   3.974  0.2454  0.2768 -0.0446
 4756poe    c3122512   2.139   5.915   3.868  0.3037  0.1352 -0.1713
 4757poe    c3122513   3.895   4.140   2.474  0.6756  0.2048  0.2172
 4757poe     o222514   3.829   4.242   2.545 -0.4266 -0.3016 -0.0558
 4757poe    c2322515   3.721   4.297   2.474 -0.1646  0.0978 -0.1457
 4757poe    c2322516   3.608   4.353   2.561  0.2522  0.6302  0.0588
 4757poe     o222517   3.556   4.242   2.631  0.0948  0.5367 -0.2055
 4757poe    c2322518   3.488   4.284   2.747  0.1995 -0.3662  0.1884
 4757poe    c2322519   3.397   4.178   2.813 -0.3070  0.0543  0.1729
 4757poe     o222520   3.491   4.099   2.882 -0.1881  0.0314 -0.0136
 4757poe    c2322521   3.432   3.992   2.951  0.1274 -0.4364 -0.4624
 4757poe    c2322522   3.527   3.879   2.998  0.3912 -0.0460 -0.0529
 4757poe     o222523   3.597   3.931   3.109  0.2143  0.0299  0.0235
 4757poe    c3122524   3.616   3.827   3.203 -0.5290 -0.2093 -0.0838
 4758poe    c3122525   7.332   1.387   2.782  0.4888 -0.3947  0.0449
 4758poe     o222526   7.313   1.247   2.788  0.1393 -0.3603 -0.2224
 4758poe    c2322527   7.185   1.210   2.741 -0.0017 -0.0325 -0.1041
 4758poe    c2322528   7.152   1.063   2.710 -0.3006 -0.0006  0.0598
 4758poe     o222529   7.206   1.008   2.592  0.0055  0.1805  0.1132
 4758poe    c2322530   7.215   0.868   2.606  0.6009  0.1835 -0.2177
 4758poe    c2322531   7.278   0.799   2.483  0.3353 -0.1946 -0.1425
 4758poe     o222532   7.196   0.782   2.370 -0.3656  0.7084  0.2245
 4758poe    c2322533   7.122   0.662   2.364  0.3106  0.2765  0.5023
 4758poe    c2322534   7.203   0.534   2.335 -0.3297  0.0027 -0.0976
 4758poe     o222535   7.259   0.530   2.205  0.0412  0.4812  0.0435
 4758poe    c3122536   7.390   0.582   2.205  0.1055  0.3192 -0.1541
 4759poe    c3122537   4.106   4.112   5.158  0.5426  0.0369 -0.7113
 4759poe     o222538   4.021   4.022   5.225  0.3458  0.5931 -0.1967
 4759poe    c2322539   4.087   3.965   5.336 -0.5237 -0.0188  0.0142
 4759poe    c2322540   4.013   3.836   5.378 -0.2783 -0.1440  0.0635
 4759poe     o222541   3.880   3.881   5.372 -0.3646 -0.3926  0.1124
 4759poe    c2322542   3.782   3.796   5.427 -0.2707 -0.5713  0.0033
 4759poe    c2322543   3.652   3.878   5.434 -0.2097 -0.4685 -0.0714
 4759poe     o222544   3.613   3.939   5.313 -0.1608 -0.0857  0.1050
 4759poe    c2322545   3.481   3.988   5.312 -0.0734  0.1498 -0.1602
 4759poe    c2322546   3.425   4.067   5.193  0.0075 -0.3338 -0.5202
 4759poe     o222547   3.303   4.118   5.243  0.3064 -0.1086 -0.0203
 4759poe    c3122548   3.245   4.193   5.139  0.3892 -0.0438 -0.0205
 4760poe    c3122549   6.467   1.429   7.109 -0.1694 -0.3392 -0.4123
 4760poe     o222550   6.489   1.318   7.193  0.0612 -0.0323 -0.0571
 4760poe    c2322551   6.584   1.233   7.131  0.3051  0.1280  0.0968
 4760poe    c2322552   6.622   1.094   7.186  0.1871  0.1528  0.2433
 4760poe     o222553   6.693   1.092   7.307 -0.5460  0.5044  0.6859
 4760poe    c2322554   6.829   1.128   7.319 -0.2632 -0.3806  0.2110
 4760poe    c2322555   6.933   1.036   7.252 -0.0914 -0.2883  0.3516
 4760poe     o222556   6.961   0.913   7.314 -0.0577 -0.4800 -0.0459
 4760poe    c2322557   7.090   0.912   7.370 -0.2628  0.2229  0.4465
 4760poe    c2322558   7.140   0.780   7.433 -0.1891 -0.1695 -0.4221
 4760poe     o222559   7.064   0.749   7.548  0.3715  0.3906  0.1078
 4760poe    c3122560   7.104   0.628   7.607  0.5717  0.5093  0.2155
 4761poe    c3122561   6.432   0.590   1.817 -0.6016 -0.1093  0.2591
 4761poe     o222562   6.329   0.496   1.793 -0.5328 -0.0965 -0.1010
 4761poe    c2322563   6.342   0.441   1.664  0.1704  0.4752 -0.2809
 4761poe    c2322564   6.233   0.340   1.624  0.2785  0.2171  0.0629
 4761poe     o222565   6.220   0.242   1.724 -0.2299 -0.1526 -0.3613
 4761poe    c2322566   6.247   0.112   1.675  0.2415 -0.0702 -0.3211
 4761poe    c2322567   6.231  -0.004   1.775 -0.6479  0.3430  0.0304
 4761poe     o222568   6.312   0.020   1.888 -0.9431  0.2913  0.2508
 4761poe    c2322569   6.314  -0.092   1.974 -0.3583  0.2198  0.1462
 4761poe    c2322570   6.307  -0.041   2.120 -0.0543 -0.0428  0.2519
 4761poe     o222571   6.428   0.014   2.167  0.0394  0.0263 -0.0684
 4761poe    c3122572   6.429   0.039   2.306  0.1186 -0.1213 -0.0428
 4762poe    c3122573   0.235   3.910   1.033  0.0039 -0.0302  0.3570
 4762poe     o222574   0.173   3.962   0.917  0.4544 -0.3543 -0.0353
 4762poe    c2322575   0.130   3.856   0.835  0.0052 -0.1611 -0.0514
 4762poe    c2322576   0.074   3.895   0.697  0.2114 -0.0689 -0.1100
 4762poe     o222577  -0.027   3.993   0.709 -0.0077 -0.3301  0.1821
 4762poe    c2322578  -0.085   4.020   0.583 -0.2130  0.2629  0.3985
 4762poe    c2322579  -0.131   4.166   0.578 -0.3411  0.2066 -0.1312
 4762poe     o222580  -0.220   4.196   0.683  0.0992 -0.0310  0.3127
 4762poe    c2322581  -0.263   4.329   0.665 -0.0600 -0.2166 -0.7215
 4762poe    c2322582  -0.415   4.354   0.660 -0.2122 -0.8149  0.5629
 4762poe     o222583  -0.477   4.281   0.557 -0.4129 -0.4777  0.4425
 4762poe    c3122584  -0.617   4.298   0.549 -0.3383 -0.0295  0.0713
 4763poe    c3122585   2.827   6.933   1.720 -0.2141 -0.1785 -0.1401
 4763poe     o222586   2.732   6.836   1.757 -0.3437  0.0623  0.1628
 4763poe    c2322587   2.600   6.874   1.787 -0.2983  0.8569 -0.5988
 4763poe    c2322588   2.572   6.950   1.918 -0.0207 -0.4843  0.2565
 4763poe     o222589   2.587   7.089   1.907 -0.1202 -0.4822  0.1467
 4763poe    c2322590   2.616   7.159   2.027  0.0993 -0.1084 -0.1209
 4763poe    c2322591   2.569   7.306   2.026  0.5130  0.0242 -0.0533
 4763poe     o222592   2.648   7.395   1.951 -0.1784 -0.0420 -0.8708
 4763poe    c2322593   2.587   7.522   1.959  0.1387  0.0474  0.2344
 4763poe    c2322594   2.687   7.638   1.975 -0.0893  0.3094 -0.2493
 4763poe     o222595   2.750   7.666   1.851  1.0624 -0.1837  0.2151
 4763poe    c3122596   2.814   7.790   1.873 -0.0801  0.3612  0.5227
 4764poe    c3122597   0.558   2.653   6.374 -0.2983  0.2129 -0.1482
 4764poe     o222598   0.446   2.663   6.459  0.0321 -0.1148  0.3251
 4764poe    c2322599   0.433   2.547   6.538  0.3312 -0.1050  0.3902
 4764poe    c2322600   0.319   2.541   6.641 -0.0903 -0.0661 -0.0724
 4764poe     o222601   0.187   2.531   6.593 -0.1206 -0.2744  0.0521
 4764poe    c2322602   0.163   2.406   6.532  0.0006 -0.2279 -0.0915
 4764poe    c2322603   0.015   2.395   6.490 -0.0853 -0.0961  0.1751
 4764poe     o222604  -0.018   2.472   6.377  0.4062  0.4507  0.3933
 4764poe    c2322605  -0.158   2.483   6.365  0.3160 -0.4809  0.4475
 4764poe    c2322606  -0.232   2.591   6.283 -0.1467 -0.2268  1.1881
 4764poe     o222607  -0.267   2.707   6.355 -0.2188  0.4156  0.1379
 4764poe    c3122608  -0.332   2.803   6.273 -0.3568  0.3650  0.1872
 4765poe    c3122609   3.970   6.032   0.330 -0.1984  0.4024  0.1591
 4765poe     o222610   3.896   6.001   0.446 -0.4270  0.2805 -0.0199
 4765poe    c2322611   3.925   5.872   0.494  0.2090  0.3099 -0.3156
 4765poe    c2322612   3.816   5.826   0.593  0.4720  0.2321 -0.0612
 4765poe     o222613   3.788   5.902   0.708  0.2836  0.0662  0.0032
 4765poe    c2322614   3.682   5.853   0.787  0.2942 -0.5493 -0.3609
 4765poe    c2322615   3.643   5.958   0.892 -0.6624 -1.0910 -0.1561
 4765poe     o222616   3.731   5.971   1.001 -0.7486 -0.1121 -0.1933
 4765poe    c2322617   3.691   6.059   1.104  0.1624  0.0801  0.0058
 4765poe    c2322618   3.803   6.093   1.203  0.1348  0.0891  0.0342
 4765poe     o222619   3.919   6.150   1.147 -0.0230 -0.2082 -0.5980
 4765poe    c3122620   4.010   6.174   1.252  0.1179  0.3699 -0.8444
 4766poe    c3122621   0.096   5.959   6.921 -0.0093  0.2697 -0.5658
 4766poe     o222622   0.220   5.897   6.898 -0.1588 -0.1420 -0.2783
 4766poe    c2322623   0.197   5.772   6.836 -0.2310 -0.3006  0.0663
 4766poe    c2322624   0.329   5.708   6.789  0.0549  0.0603  0.3645
 4766poe     o222625   0.422   5.683   6.891  0.0624  0.1902  0.3883
 4766poe    c2322626   0.542   5.627   6.842  0.0208  0.4478 -0.0067
 4766poe    c2322627   0.620   5.536   6.937 -0.3936  0.3502  0.2424
 4766poe     o222628   0.697   5.607   7.031  0.1199 -0.2601  0.2941
 4766poe    c2322629   0.776   5.520   7.108 -0.2752 -0.5809  0.3385
 4766poe    c2322630   0.864   5.597   7.209 -0.2377  0.0301 -0.1601
 4766poe     o222631   0.807   5.664   7.319 -0.2075 -0.0184 -0.1154
 4766poe    c3122632   0.902   5.717   7.408  0.1522 -0.1330 -0.4296
 4767poe    c3122633   4.392   1.908   0.713  0.2329  0.2175 -0.0083
 4767poe     o222634   4.272   1.967   0.757 -0.1885 -0.2329 -0.5414
 4767poe    c2322635   4.174   2.006   0.663 -0.4943 -0.0450 -0.1512
 4767poe    c2322636   4.047   2.071   0.719 -0.6547 -0.2463 -0.2799
 4767poe     o222637   4.063   2.195   0.784 -0.0962 -0.2801 -0.3550
 4767poe    c2322638   4.081   2.295   0.687  0.3990  0.3046  0.3221
 4767poe    c2322639   4.149   2.430   0.718 -0.0395  0.6796 -0.3207
 4767poe     o222640   4.091   2.523   0.806  0.1678 -0.3180  0.8993
 4767poe    c2322641   4.155   2.649   0.797 -0.2686 -0.1314  0.3833
 4767poe    c2322642   4.070   2.770   0.839 -0.0685  0.0182  0.3575
 4767poe     o222643   3.966   2.799   0.748  0.5238 -0.1127 -0.3676
 4767poe    c3122644   3.890   2.916   0.765  0.2667 -0.2671 -0.4426
 4768poe    c3122645   2.397   2.671   4.224  0.1540 -0.0451  0.4747
 4768poe     o222646   2.449   2.562   4.297 -0.2382 -0.6154 -0.0873
 4768poe    c2322647   2.564   2.529   4.222 -0.3894 -0.7760 -0.2485
 4768poe    c2322648   2.668   2.438   4.290 -0.1295 -0.1449  0.2112
 4768poe     o222649   2.719   2.501   4.405  0.4311 -0.0868 -0.0664
 4768poe    c2322650   2.855   2.470   4.426  0.2670 -0.6130  0.2517
 4768poe    c2322651   2.931   2.596   4.470 -0.2089 -0.1352 -0.2659
 4768poe     o222652   2.862   2.650   4.580  0.1086  0.1587 -0.2089
 4768poe    c2322653   2.886   2.788   4.596  0.4596  0.0690  0.0543
 4768poe    c2322654   2.797   2.858   4.701 -0.0169 -0.2314 -0.1458
 4768poe     o222655   2.658   2.858   4.674 -0.0022 -0.3116 -0.2227
 4768poe    c3122656   2.579   2.904   4.781  0.1985 -0.1566 -0.1384
 4769poe    c3122657   5.826   0.595   0.498 -0.1249 -0.1584 -0.3208
 4769poe     o222658   5.822   0.501   0.602  0.0486  0.1686 -0.0157
 4769poe    c2322659   5.693   0.483   0.657  0.0805  0.5780  0.1948
 4769poe    c2322660   5.711   0.415   0.794  0.6204  0.1523 -0.0844
 4769poe     o222661   5.809   0.315   0.776  0.6634  0.1727  0.0315
 4769poe    c2322662   5.836   0.251   0.898  0.1139  0.2772  0.2092
 4769poe    c2322663   5.918   0.125   0.868 -0.0116  0.1599  0.3562
 4769poe     o222664   6.044   0.167   0.822 -0.1742  0.2401 -0.0155
 4769poe    c2322665   6.129   0.058   0.796  0.4827  0.6053  0.5613
 4769poe    c2322666   6.244   0.105   0.705  0.2252  0.1670  0.0005
 4769poe     o222667   6.205   0.132   0.573 -0.2698 -0.1452  0.0821
 4769poe    c3122668   6.306   0.183   0.489 -0.7164  0.2404 -0.2265
 4770poe    c3122669   4.476   5.569   3.423 -0.5606  0.6326  0.1564
 4770poe     o222670   4.434   5.508   3.303  0.7075 -0.0035  0.0204
 4770poe    c2322671   4.309   5.443   3.313  0.3675  0.6292 -0.0165
 4770poe    c2322672   4.279   5.368   3.182  0.0378 -0.2095  0.5286
 4770poe     o222673   4.382   5.276   3.152 -0.3931 -0.4630 -0.1959
 4770poe    c2322674   4.384   5.239   3.016  0.0408 -0.4560 -0.1908
 4770poe    c2322675   4.506   5.149   2.990  0.1561 -0.0793 -0.9956
 4770poe     o222676   4.495   5.011   3.016 -0.3651  0.1634  0.1274
 4770poe    c2322677   4.608   4.953   3.078 -0.2289  0.0507 -0.2236
 4770poe    c2322678   4.603   4.801   3.102 -0.4488  0.0158 -0.4845
 4770poe     o222679   4.622   4.723   2.986  0.2104 -0.3451 -0.1410
 4770poe    c3122680   4.648   4.592   3.032 -0.2517 -0.3471  0.1136
 4771poe    c3122681   3.745   0.631   3.918 -0.0664  0.3254 -0.3137
 4771poe     o222682   3.653   0.568   4.004  0.4029 -0.0239 -0.0616
 4771poe    c2322683   3.720   0.486   4.098 -0.0367  0.2210  0.4700
 4771poe    c2322684   3.625   0.450   4.213  0.5509 -0.6277  0.6953
 4771poe     o222685   3.540   0.347   4.167  0.0395  0.2144 -0.2916
 4771poe    c2322686   3.439   0.308   4.257  0.1516 -0.4099 -0.4307
 4771poe    c2322687   3.298   0.298   4.195 -0.0461 -0.2847 -0.0068
 4771poe     o222688   3.239   0.425   4.181  0.3781 -0.0735  0.1213
 4771poe    c2322689   3.132   0.420   4.090  0.2165  0.1239  0.2971
 4771poe    c2322690   3.061   0.554   4.069  0.2105  0.0088 -0.4472
 4771poe     o222691   3.127   0.656   3.998  0.0891  0.2222 -0.2558
 4771poe    c3122692   3.048   0.768   3.966 -0.2086 -0.1720 -0.9293
 4772poe    c3122693   3.777   0.027   4.240 -0.1698 -0.3825  0.3495
 4772poe     o222694   3.693  -0.072   4.295 -0.4086 -0.2167  0.2850
 4772poe    c2322695   3.731  -0.116   4.423 -0.0601 -0.3224  0.1460
 4772poe    c2322696   3.667  -0.255   4.445 -0.2157 -0.2458  0.1801
 4772poe     o222697   3.531  -0.248   4.480 -0.0924  0.2915  0.5597
 4772poe    c2322698   3.470  -0.374   4.495  0.4969 -0.0658  0.0433
 4772poe    c2322699   3.381  -0.409   4.374  0.5172 -0.0155  0.0139
 4772poe     o222700   3.276  -0.315   4.361  0.3004 -0.2552  0.0267
 4772poe    c2322701   3.179  -0.353   4.267  0.1384  0.5370 -0.1322
 4772poe    c2322702   3.064  -0.251   4.275 -0.0364  0.3610 -0.4001
 4772poe     o222703   3.128  -0.127   4.255  0.4558  0.1292 -0.2726
 4772poe    c3122704   3.087  -0.062   4.136  0.0645 -0.1961 -0.3177
 4773poe    c3122705   4.281   2.143   6.714 -0.0181 -0.2534  0.2773
 4773poe     o222706   4.392   2.133   6.627 -0.7376  0.1155 -0.7087
 4773poe    c2322707   4.374   2.046   6.518  0.0146 -0.7417 -0.1703
 4773poe    c2322708   4.501   2.032   6.432  0.1257 -0.1685 -0.1040
 4773poe     o222709   4.566   2.157   6.438 -0.0582 -0.0620 -0.3564
 4773poe    c2322710   4.681   2.162   6.356  0.2828  0.7360  0.1606
 4773poe    c2322711   4.719   2.311   6.349  0.5749  0.6430 -0.2774
 4773poe     o222712   4.703   2.364   6.479  0.2899 -0.3067  0.0826
 4773poe    c2322713   4.741   2.496   6.513 -0.3420 -0.0787 -0.0792
 4773poe    c2322714   4.691   2.618   6.435 -0.1752  0.0602  0.0313
 4773poe     o222715   4.552   2.632   6.453 -0.2009 -0.2183  0.0578
 4773poe    c3122716   4.489   2.723   6.365  0.0746  0.2817  0.3666
 4774poe    c3122717   5.330   2.261   0.106 -0.1051 -0.2035  0.1851
 4774poe     o222718   5.415   2.373   0.105  0.2345 -0.4651 -0.5139
 4774poe    c2322719   5.549   2.346   0.139  0.2333  0.1619  0.0065
 4774poe    c2322720   5.637   2.469   0.110  0.1595  0.1867 -0.1113
 4774poe     o222721   5.587   2.583   0.176 -0.4031  0.0597 -0.3146
 4774poe    c2322722   5.659   2.700   0.144  0.4774 -0.3829 -0.0054
 4774poe    c2322723   5.619   2.814   0.241  0.4592 -0.5660  0.2032
 4774poe     o222724   5.479   2.801   0.250  0.4324 -0.3801  0.0624
 4774poe    c2322725   5.417   2.889   0.341  0.0954 -0.5935  0.0425
 4774poe    c2322726   5.275   2.904   0.284  0.0685 -0.4772  0.1382
 4774poe     o222727   5.276   2.976   0.163 -0.0298  0.0135  0.4275
 4774poe    c3122728   5.147   2.980   0.107  0.0411 -0.0827  0.2543
 4775poe    c3122729   1.695   3.980   3.488 -0.1784 -0.7626 -0.1532
 4775poe     o222730   1.804   3.980   3.400 -0.0145 -0.4681  0.0501
 4775poe    c2322731   1.901   3.890   3.449 -0.0586 -0.3881  0.2864
 4775poe    c2322732   2.013   3.957   3.530  0.2528  0.0006 -0.4593
 4775poe     o222733   2.119   4.032   3.476  0.6295 -0.5365 -0.4715
 4775poe    c2322734   2.207   4.073   3.579  0.3083 -0.2184 -0.3188
 4775poe    c2322735   2.323   4.156   3.522  0.0641  0.2817 -0.0850
 4775poe     o222736   2.408   4.076   3.443  0.0651  0.6601 -0.4744
 4775poe    c2322737   2.541   4.123   3.453  0.3177  0.0448 -0.9099
 4775poe    c2322738   2.660   4.031   3.420  0.7116  0.0824  0.3410
 4775poe     o222739   2.675   3.982   3.288  0.4912 -0.2566  0.4423
 4775poe    c3122740   2.811   3.945   3.284  0.5549 -0.0403  0.5579
 4776poe    c3122741   7.258   6.707   6.459 -0.0744  0.5641 -0.7036
 4776poe     o222742   7.387   6.757   6.487 -0.0663  0.3317 -0.3112
 4776poe    c2322743   7.433   6.705   6.609  0.2853 -0.3099 -0.7078
 4776poe    c2322744   7.577   6.759   6.627  0.1066 -0.1684  0.4266
 4776poe     o222745   7.564   6.896   6.596 -0.2400 -0.2937  0.0030
 4776poe    c2322746   7.684   6.965   6.623 -0.2377 -0.2427 -0.1365
 4776poe    c2322747   7.659   7.112   6.583  0.0388 -0.2228 -0.2359
 4776poe     o222748   7.594   7.109   6.459  0.0014  0.1929 -0.2288
 4776poe    c2322749   7.591   7.234   6.395  0.3065  0.3241  0.0153
 4776poe    c2322750   7.476   7.324   6.444 -0.1072 -0.0067 -0.3415
 4776poe     o222751   7.358   7.294   6.373 -0.2502  0.5557 -0.3464
 4776poe    c3122752   7.263   7.384   6.425 -0.2264  0.2541  0.2245
 4777poe    c3122753   3.204   3.645   6.843 -0.2172  0.0596 -0.6735
 4777poe     o222754   3.272   3.767   6.826  0.3188 -0.1138  0.1825
 4777poe    c2322755   3.267   3.786   6.687  0.2293 -0.4721  0.1367
 4777poe    c2322756   3.385   3.858   6.618 -0.5049  0.5347 -0.0813
 4777poe     o222757   3.395   3.996   6.648 -0.2738  0.3741  0.5797
 4777poe    c2322758   3.469   4.049   6.541 -0.7226  0.4316  0.2930
 4777poe    c2322759   3.498   4.200   6.533  0.2967  0.2053 -0.5715
 4777poe     o222760   3.577   4.246   6.641  0.0175 -0.2105 -0.1889
 4777poe    c2322761   3.641   4.360   6.588 -0.3316  0.1663  0.1912
 4777poe    c2322762   3.735   4.426   6.691 -0.0006  0.4741 -0.3055
 4777poe     o222763   3.839   4.349   6.746 -0.0249  0.5076 -0.2135
 4777poe    c3122764   3.860   4.393   6.879 -0.9045  0.7373 -0.1468
 4778poe    c3122765   1.376   3.565   6.350 -0.1246  0.1795  0.3435
 4778poe     o222766   1.349   3.427   6.361 -0.1035  0.1249 -0.2312
 4778poe    c2322767   1.454   3.337   6.334  0.3653  0.5876  0.0213
 4778poe    c2322768   1.438   3.209   6.418 -0.3063  0.3905 -0.4019
 4778poe     o222769   1.332   3.125   6.378  0.0349 -0.3352  0.1787
 4778poe    c2322770   1.334   3.007   6.454  0.4581 -0.4198  0.0380
 4778poe    c2322771   1.230   2.909   6.397 -0.4040  0.3183  0.3158
 4778poe     o222772   1.107   2.973   6.373 -0.2489  0.4058 -0.2397
 4778poe    c2322773   1.018   2.887   6.305  0.4602 -0.5308  0.0011
 4778poe    c2322774   0.888   2.969   6.294  0.6907 -0.1766 -0.1102
 4778poe     o222775   0.919   3.104   6.267 -0.1437  0.1004  0.2861
 4778poe    c3122776   0.799   3.177   6.251 -0.0178  0.2138 -0.1679
 4779poe    c3122777   4.355   5.624   2.138  0.2676 -0.0246 -0.0252
 4779poe     o222778   4.311   5.524   2.049  0.5707 -0.0443 -0.1547
 4779poe    c2322779   4.335   5.562   1.915 -0.4477  0.3029 -0.2509
 4779poe    c2322780   4.291   5.440   1.833 -0.3389  0.2349 -0.2069
 4779poe     o222781   4.151   5.427   1.823 -0.3940  0.1050  0.6424
 4779poe    c2322782   4.115   5.341   1.717 -0.2236  0.8526 -0.0271
 4779poe    c2322783   3.961   5.341   1.704 -0.2178 -0.2582 -0.1590
 4779poe     o222784   3.889   5.301   1.818 -0.1902  0.0579 -0.0306
 4779poe    c2322785   3.758   5.352   1.827 -0.3637 -0.3897  0.0147
 4779poe    c2322786   3.684   5.321   1.958 -0.4870  0.7161  0.2183
 4779poe     o222787   3.622   5.195   1.951  0.6957  0.1408 -0.2545
 4779poe    c3122788   3.574   5.164   2.080  0.4959 -0.7188 -0.5279
 4780poe    c3122789   0.997   7.095   0.078  0.4280 -0.2129 -0.5183
 4780poe     o222790   0.905   6.995   0.041  0.4186 -0.6670  0.6685
 4780poe    c2322791   0.800   6.982   0.134 -0.0385  0.5096  0.3276
 4780poe    c2322792   0.714   6.857   0.108  0.3669  0.2431  0.2693
 4780poe     o222793   0.786   6.739   0.134  0.4041  0.0243 -0.7568
 4780poe    c2322794   0.728   6.631   0.064 -0.0550 -0.0621 -0.2513
 4780poe    c2322795   0.815   6.504   0.062  0.6491  0.4082  0.0915
 4780poe     o222796   0.939   6.532   0.001  0.3080 -0.0347 -0.8199
 4780poe    c2322797   1.017   6.415   0.013  0.0854 -0.0864  0.2197
 4780poe    c2322798   1.169   6.431  -0.004 -0.0208  0.4413 -0.2459
 4780poe     o222799   1.207   6.448  -0.139  0.1739 -0.1386 -0.2668
 4780poe    c3122800   1.311   6.356  -0.163 -0.0802 -0.3439 -0.5959
 4781poe    c3122801   0.190   0.752   5.249  0.3618  0.1960  0.0634
 4781poe     o222802   0.083   0.806   5.174  0.1618 -0.0669  0.1555
 4781poe    c2322803   0.111   0.939   5.135  0.1237 -0.1393 -0.1157
 4781poe    c2322804   0.024   0.975   5.012 -0.0250  0.1148  0.0638
 4781poe     o222805  -0.104   0.919   5.032 -0.0927  0.2574  0.0243
 4781poe    c2322806  -0.192   0.951   4.926 -0.2990 -0.2066  0.0548
 4781poe    c2322807  -0.301   0.843   4.913 -0.3860 -0.0723 -0.3304
 4781poe     o222808  -0.396   0.839   5.016  0.2337  0.1378  0.2529
 4781poe    c2322809  -0.454   0.711   5.012 -0.1051  0.3006 -0.0400
 4781poe    c2322810  -0.525   0.679   5.144 -0.0311  0.3559  0.0126
 4781poe     o222811  -0.420   0.631   5.225 -0.1988  0.3718  0.2423
 4781poe    c3122812  -0.428   0.508   5.294  0.4147 -0.0272 -0.3817
 4782poe    c3122813   1.943   4.105   6.986  0.1386 -0.3168 -0.1531
 4782poe     o222814   1.924   4.123   7.125 -0.0930  0.2010 -0.2467
 4782poe    c2322815   2.009   4.223   7.176  0.0918  0.2062 -0.5639
 4782poe    c2322816   2.013   4.227   7.330 -0.3684 -0.3455 -0.5362
 4782poe     o222817   2.049   4.108   7.397  0.2806  0.0067 -0.2551
 4782poe    c2322818   2.046   4.131   7.536  0.1281  0.1418 -0.2807
 4782poe    c2322819   2.020   3.993   7.600 -0.4795  0.2207 -0.3569
 4782poe     o222820   1.890   3.944   7.571 -0.4688  0.0423 -0.1018
 4782poe    c2322821   1.872   3.809   7.607  0.1454 -0.0738 -0.2171
 4782poe    c2322822   1.761   3.736   7.530  0.6763 -0.8518 -0.2506
 4782poe     o222823   1.787   3.720   7.392  0.1496  0.1155 -0.4700
 4782poe    c3122824   1.687   3.637   7.337 -0.0500 -0.4220  0.6851
 4783poe    c3122825   4.066   6.033   6.055 -0.4947 -0.2233 -0.2312
 4783poe     o222826   4.016   5.965   5.942 -0.1799 -0.2206 -0.3722
 4783poe    c2322827   4.064   6.027   5.825  0.2477 -0.0355 -0.0988
 4783poe    c2322828   3.980   5.970   5.710  0.1017  0.1538 -0.0881
 4783poe     o222829   4.031   5.856   5.644 -0.0361 -0.0690  0.1932
 4783poe    c2322830   3.925   5.795   5.575  0.0659 -0.1059  0.0681
 4783poe    c2322831   3.964   5.651   5.541 -0.2332 -0.2001  0.1165
 4783poe     o222832   3.962   5.577   5.661 -0.4152  0.0257  0.2512
 4783poe    c2322833   4.008   5.447   5.635 -0.5128 -0.0991  0.6894
 4783poe    c2322834   4.037   5.356   5.755  0.2287 -0.4829  0.2297
 4783poe     o222835   4.124   5.414   5.851 -0.0616  0.0359  0.1804
 4783poe    c3122836   4.166   5.323   5.950  0.4569 -0.0508 -0.1183
 4784poe    c3122837   4.480   3.341   3.088  0.0955  0.2033 -0.4714
 4784poe     o222838   4.388   3.447   3.102 -0.4492 -0.3482  0.1379
 4784poe    c2322839   4.358   3.451   3.240  0.5567  0.2838  0.3410
 4784poe    c2322840   4.267   3.572   3.269  0.4451  0.3437 -0.2431
 4784poe     o222841   4.154   3.572   3.185 -0.0497 -0.6725  0.3990
 4784poe    c2322842   4.073   3.685   3.208  0.3986 -0.1528 -0.5199
 4784poe    c2322843   3.966   3.700   3.098  0.0308  0.2882 -0.1098
 4784poe     o222844   4.026   3.680   2.973  0.0485  0.2425 -0.0941
 4784poe    c2322845   3.926   3.678   2.874  0.0715 -0.4278 -0.1087
 4784poe    c2322846   3.834   3.554   2.861 -0.0354 -0.3427 -0.1676
 4784poe     o222847   3.907   3.437   2.833 -0.0161 -0.3151 -0.2325
 4784poe    c3122848   3.815   3.335   2.801 -0.0237 -0.4456  0.2056
 4785poe    c3122849   5.920   1.330   5.605 -0.3706  0.0261  0.2635
 4785poe     o222850   5.944   1.193   5.584  0.3713  0.2519 -0.3952
 4785poe    c2322851   6.010   1.145   5.699  0.0870 -0.0196 -0.3433
 4785poe    c2322852   6.038   0.994   5.692  0.2879 -0.0031  0.0938
 4785poe     o222853   6.107   0.954   5.576  0.2210  0.3840 -0.0791
 4785poe    c2322854   6.098   0.814   5.564  0.4816  0.3851 -0.2867
 4785poe    c2322855   6.125   0.778   5.416  0.2532  0.1331 -0.2681
 4785poe     o222856   6.022   0.825   5.333  0.2605 -0.1754 -0.4535
 4785poe    c2322857   6.086   0.844   5.209  0.4324  0.2669 -0.2995
 4785poe    c2322858   5.983   0.889   5.103 -0.0792 -0.5923 -0.1765
 4785poe     o222859   5.864   0.815   5.088 -0.5979  0.1598  0.1771
 4785poe    c3122860   5.794   0.864   4.976 -0.1639 -0.4481 -0.3646
 4786poe    c3122861   2.590   3.199   3.914  0.1910 -0.1051 -0.4895
 4786poe     o222862   2.711   3.230   3.848  0.3864 -0.2031 -0.1817
 4786poe    c2322863   2.701   3.235   3.708  0.2138  0.0239 -0.1630
 4786poe    c2322864   2.784   3.355   3.656  0.3031  0.2126  0.4140
 4786poe     o222865   2.915   3.353   3.709  0.3646  0.0589  0.2560
 4786poe    c2322866   2.972   3.479   3.684 -0.2404  0.2458 -0.2025
 4786poe    c2322867   3.120   3.494   3.724 -0.2454 -0.0876 -0.0593
 4786poe     o222868   3.155   3.478   3.860  0.2891  0.0068 -0.1821
 4786poe    c2322869   3.289   3.515   3.880  0.1546  0.2923  0.1987
 4786poe    c2322870   3.348   3.482   4.019  1.2930 -0.3133 -0.4092
 4786poe     o222871   3.325   3.345   4.042  0.3917 -0.0997  0.0244
 4786poe    c3122872   3.327   3.324   4.182  0.2851 -0.0106  0.0398
 4787poe    c3122873   3.868   1.086   6.540  0.1856  0.6557  0.0734
 4787poe     o222874   3.992   1.149   6.564  0.1809  0.5257  0.4512
 4787poe    c2322875   3.985   1.290   6.562 -0.0848  0.5099  0.3037
 4787poe    c2322876   4.111   1.361   6.613  0.1730  0.2616  0.0115
 4787poe     o222877   4.097   1.338   6.751 -0.2552  0.0387 -0.0692
 4787poe    c2322878   4.214   1.374   6.820 -0.3627  0.1490  0.0582
 4787poe    c2322879   4.218   1.308   6.959  0.2806  0.0623  0.0038
 4787poe     o222880   4.225   1.167   6.964  0.0727  0.0541  0.0735
 4787poe    c2322881   4.288   1.122   7.082 -0.4157 -0.1846  0.2473
 4787poe    c2322882   4.275   0.971   7.109  0.1185 -0.2301  0.2503
 4787poe     o222883   4.146   0.931   7.149  0.1883 -0.2313  0.4779
 4787poe    c3122884   4.153   0.791   7.163 -0.4946 -0.3182 -0.0130
 4788poe    c3122885   3.440   0.371   6.606  0.0591  0.0074  0.0052
 4788poe     o222886   3.573   0.397   6.565  0.2099  0.1126  0.5515
 4788poe    c2322887   3.654   0.284   6.546 -0.1672 -0.0966  0.1607
 4788poe    c2322888   3.794   0.317   6.489 -0.1041 -0.2427  0.2305
 4788poe     o222889   3.856   0.414   6.571 -0.1097  0.0422 -0.1005
 4788poe    c2322890   3.967   0.471   6.507 -0.2329  0.0768 -0.2845
 4788poe    c2322891   4.035   0.595   6.568 -0.3068 -0.2432  0.4447
 4788poe     o222892   4.104   0.566   6.688  0.5286  0.0810  0.0543
 4788poe    c2322893   4.170   0.684   6.728 -0.4721  0.5550  0.3395
 4788poe    c2322894   4.297   0.645   6.806 -0.3476  0.6795  0.1981
 4788poe     o222895   4.265   0.553   6.908  0.5822 -0.6001 -0.6309
 4788poe    c3122896   4.375   0.530   6.993  0.2229 -0.1757 -0.0468
 4789poe    c3122897   4.639   4.348   6.765  1.0815  0.8586 -0.2728
 4789poe     o222898   4.708   4.308   6.881  0.1261  0.5623  0.1999
 4789poe    c2322899   4.784   4.412   6.939  0.1822  0.4955  0.2473
 4789poe    c2322900   4.857   4.355   7.061 -0.1913  0.2205  0.3453
 4789poe     o222901   4.960   4.263   7.033 -0.2727  0.2912 -0.1843
 4789poe    c2322902   5.006   4.221   7.159 -0.8193  0.3835  0.0503
 4789poe    c2322903   5.125   4.124   7.144 -0.3338  1.0308 -0.3367
 4789poe     o222904   5.098   4.025   7.047  0.0552  0.4774  0.1106
 4789poe    c2322905   5.182   3.912   7.055 -0.3086  0.1938 -0.0980
 4789poe    c2322906   5.153   3.832   6.926 -0.6282  0.2919 -0.0899
 4789poe     o222907   5.116   3.913   6.817  0.2860  0.9329  0.0645
 4789poe    c3122908   5.062   3.836   6.712  0.4365  0.3871  0.3844
 4790poe    c3122909   6.519   1.697   7.409 -0.5008  0.0765  0.0327
 4790poe     o222910   6.647   1.675   7.465 -0.4798  0.9746  0.3432
 4790poe    c2322911   6.695   1.783   7.543  0.3134  0.7430  0.1817
 4790poe    c2322912   6.636   1.783   7.685  0.0271  0.2676  0.0648
 4790poe     o222913   6.671   1.679   7.774 -0.1020  0.0371 -0.1537
 4790poe    c2322914   6.591   1.690   7.889  0.3470  0.3634  0.1280
 4790poe    c2322915   6.625   1.582   7.993  0.1765 -0.0243 -0.2181
 4790poe     o222916   6.651   1.456   7.934  0.0773 -0.1993  0.1104
 4790poe    c2322917   6.737   1.377   8.012  0.6024  0.4184  0.1688
 4790poe    c2322918   6.763   1.241   7.944  0.3071  0.1204  0.6376
 4790poe     o222919   6.862   1.260   7.845 -0.2330  0.1732  0.0992
 4790poe    c3122920   6.893   1.147   7.766 -0.3792  0.2918 -0.1294
 4791poe    c3122921   6.694   4.284   5.966 -0.0228  0.0624 -0.0063
 4791poe     o222922   6.737   4.164   5.905 -0.3259 -0.0453 -0.0112
 4791poe    c2322923   6.815   4.185   5.789 -0.6014  0.0065 -0.1865
 4791poe    c2322924   6.875   4.050   5.746 -0.2738 -0.0969  0.5697
 4791poe     o222925   6.794   3.961   5.672 -0.0484 -0.1041  0.3304
 4791poe    c2322926   6.869   3.842   5.657  0.4573  0.2110  0.3226
 4791poe    c2322927   6.780   3.717   5.667 -0.1089  0.5586 -0.2775
 4791poe     o222928   6.718   3.715   5.794  1.0770  0.1039  0.3129
 4791poe    c2322929   6.649   3.593   5.808 -0.3815  0.9010  0.2766
 4791poe    c2322930   6.571   3.581   5.941 -0.4208  0.0984  0.1869
 4791poe     o222931   6.522   3.452   5.967  0.3876 -0.2488  0.0423
 4791poe    c3122932   6.454   3.445   6.091  0.2487 -0.3744 -0.0407
 4792poe    c3122933   2.960   6.981   6.510 -0.4447 -0.2490  0.6215
 4792poe     o222934   2.838   6.986   6.440 -0.0566  0.0927 -0.0425
 4792poe    c2322935   2.726   7.037   6.508 -0.2495 -0.0334 -0.2641
 4792poe    c2322936   2.625   7.056   6.393 -0.3590  0.6525 -0.0569
 4792poe     o222937   2.634   6.954   6.297 -0.7001 -0.0040  0.6034
 4792poe    c2322938   2.538   6.968   6.195  0.1120 -0.4505 -0.2477
 4792poe    c2322939   2.534   6.832   6.124  0.2676 -0.2627 -0.6195
 4792poe     o222940   2.670   6.802   6.099  0.4712  0.2379 -0.1290
 4792poe    c2322941   2.708   6.763   5.969  0.2038 -0.1751 -0.0833
 4792poe    c2322942   2.859   6.745   5.950  0.1285 -0.6144 -0.2810
 4792poe     o222943   2.943   6.859   5.953 -0.2708 -0.3130 -0.5340
 4792poe    c3122944   3.040   6.850   5.851  0.1173 -0.0369 -0.1923
 4793poe    c3122945   0.576   5.524   2.845 -0.4295  0.6980 -0.2789
 4793poe     o222946   0.549   5.404   2.776  0.1664  0.3009  0.1709
 4793poe    c2322947   0.660   5.377   2.693 -0.0598 -0.0649 -0.0139
 4793poe    c2322948   0.668   5.245   2.613 -0.3027 -0.1870  0.1594
 4793poe     o222949   0.692   5.133   2.694  0.2534 -0.3742 -0.2572
 4793poe    c2322950   0.736   5.025   2.614  0.3146 -0.3847 -0.2098
 4793poe    c2322951   0.841   4.934   2.679  0.0671 -0.8317 -0.4338
 4793poe     o222952   0.788   4.881   2.799  0.0441 -0.1134 -0.1214
 4793poe    c2322953   0.881   4.804   2.872  0.3132  0.3845  0.0623
 4793poe    c2322954   0.819   4.755   3.004  0.0652  0.5964  0.0264
 4793poe     o222955   0.774   4.864   3.081 -0.0875  0.7545 -0.2864
 4793poe    c3122956   0.703   4.836   3.199 -0.0788  0.6656 -0.3023
 4794poe    c3122957   6.150   7.372   0.311 -0.3113  0.1142  0.4754
 4794poe     o222958   6.223   7.416   0.199  0.2364  0.4854  0.9669
 4794poe    c2322959   6.362   7.403   0.217  0.3620  0.5890  0.1134
 4794poe    c2322960   6.448   7.461   0.103  0.0302  0.6698 -0.0973
 4794poe     o222961   6.455   7.380  -0.012  0.3765  0.1865  0.2608
 4794poe    c2322962   6.525   7.437  -0.120  0.0814  0.0040 -0.0269
 4794poe    c2322963   6.581   7.326  -0.211  0.1671  0.0731 -0.0588
 4794poe     o222964   6.467   7.277  -0.278  0.1032 -0.0474  0.1350
 4794poe    c2322965   6.504   7.192  -0.384 -0.1356  0.1832 -0.1358
 4794poe    c2322966   6.389   7.160  -0.482 -0.2299  0.1821 -0.0253
 4794poe     o222967   6.270   7.147  -0.407 -0.2522  0.2083 -0.0567
 4794poe    c3122968   6.159   7.128  -0.492 -0.2279 -0.3041  0.0249
 4795poe    c3122969   0.946   0.286   4.320  0.4110  0.1192 -0.3782
 4795poe     o222970   0.809   0.295   4.288  0.0461  0.0797  1.1017
 4795poe    c2322971   0.763   0.166   4.256 -0.2832  0.3526  0.4460
 4795poe    c2322972   0.617   0.147   4.212  0.0521 -0.5405 -0.3359
 4795poe     o222973   0.526   0.177   4.316  0.2359 -0.2982 -0.2451
 4795poe    c2322974   0.390   0.174   4.282  0.2438  0.0463 -0.3135
 4795poe    c2322975   0.290   0.222   4.389  0.0331 -0.2410 -0.3792
 4795poe     o222976   0.281   0.363   4.393 -0.6108 -0.2700 -0.6097
 4795poe    c2322977   0.168   0.395   4.470 -0.4254 -0.1648 -0.3776
 4795poe    c2322978   0.106   0.536   4.463 -0.1649 -0.0388 -0.1335
 4795poe     o222979   0.146   0.638   4.552 -0.5933 -0.2165  0.2702
 4795poe    c3122980   0.094   0.762   4.508  0.7379  0.1461 -0.3388
 4796poe    c3122981   2.418   0.682   2.582 -0.2295  0.5224  0.0634
 4796poe     o222982   2.477   0.751   2.690  0.7194  0.0047 -0.1049
 4796poe    c2322983   2.384   0.850   2.729  0.1930 -0.5838  0.1729
 4796poe    c2322984   2.448   0.975   2.793 -0.2273 -0.4080  0.2490
 4796poe     o222985   2.521   0.947   2.910  0.4457  0.0021 -0.0661
 4796poe    c2322986   2.587   1.064   2.951 -0.3409  0.2209  0.5936
 4796poe    c2322987   2.688   1.047   3.066  0.2493 -0.1815  0.0226
 4796poe     o222988   2.724   1.169   3.126  0.2939 -0.1304 -0.1081
 4796poe    c2322989   2.786   1.145   3.250 -0.1278 -0.4608  0.0391
 4796poe    c2322990   2.723   1.228   3.363  0.3067 -0.2531  0.1296
 4796poe     o222991   2.719   1.369   3.357  0.4905 -0.2488  0.0973
 4796poe    c3122992   2.731   1.424   3.487  0.2982 -0.5514  0.2443
 4797poe    c3122993   6.625   1.124   3.437 -0.5531 -0.3925 -0.0534
 4797poe     o222994   6.729   1.034   3.468 -0.3280 -0.1059  0.0283
 4797poe    c2322995   6.775   0.983   3.345 -0.6593  0.2403 -0.2432
 4797poe    c2322996   6.801   0.831   3.354 -0.6967  0.2648  0.3049
 4797poe     o222997   6.884   0.787   3.460 -0.2078 -0.4620 -0.3724
 4797poe    c2322998   6.976   0.694   3.408  0.5572  0.2647 -0.3349
 4797poe    c2322999   7.100   0.705   3.499  0.4218 -0.0555 -0.1111
 4797poe     o223000   7.051   0.662   3.624 -0.0163  0.0048 -0.2576
 4797poe    c2323001   7.158   0.658   3.716 -0.0407  0.1816 -0.2207
 4797poe    c2323002   7.092   0.651   3.855  0.0400  0.2939 -0.1765
 4797poe     o223003   6.981   0.738   3.861 -0.3358 -0.2142  0.3365
 4797poe    c3123004   6.943   0.778   3.990  0.4041  0.4808  0.3443
 4798poe    c3123005   6.758   1.977   2.138 -0.0004 -0.2759  0.3781
 4798poe     o223006   6.650   1.950   2.225 -0.3684  0.6522  0.2159
 4798poe    c2323007   6.649   1.827   2.294  0.2892  0.1066 -0.7206
 4798poe    c2323008   6.742   1.825   2.417 -0.1644  0.1507 -0.3723
 4798poe     o223009   6.697   1.913   2.517  0.3338  0.1727 -0.1638
 4798poe    c2323010   6.750   1.894   2.646 -0.2800 -0.2096  0.0383
 4798poe    c2323011   6.704   2.002   2.745 -0.0550  0.0167 -0.1024
 4798poe     o223012   6.564   2.016   2.756 -0.0082  0.1123  0.3751
 4798poe    c2323013   6.537   2.116   2.852 -0.0585 -0.0356  0.5153
 4798poe    c2323014   6.386   2.126   2.878 -0.1577  0.2609 -0.1664
 4798poe     o223015   6.345   2.223   2.785  0.4587  0.3690 -0.3325
 4798poe    c3123016   6.221   2.266   2.839  0.4829  0.0462 -0.0175
 4799poe    c3123017   3.743   1.540   1.578  0.1945 -0.0842 -0.2553
 4799poe     o223018   3.736   1.642   1.481  0.2841  0.3422  0.1829
 4799poe    c2323019   3.665   1.595   1.369  0.5317  0.3813  0.0083
 4799poe    c2323020   3.625   1.705   1.268  0.1930 -0.0965 -0.3811
 4799poe     o223021   3.522   1.794   1.305  0.3570 -0.0388 -0.0612
 4799poe    c2323022   3.558   1.886   1.406 -0.3138 -0.0125  0.1626
 4799poe    c2323023   3.440   1.953   1.478 -0.6871 -0.6715  0.1672
 4799poe     o223024   3.381   2.050   1.394 -0.5738 -0.8170 -0.0842
 4799poe    c2323025   3.268   2.111   1.455 -0.0901 -0.5141  0.5249
 4799poe    c2323026   3.137   2.031   1.444 -0.0574 -0.5519  0.4078
 4799poe     o223027   3.094   2.010   1.311  0.4595  0.2877  0.1017
 4799poe    c3123028   2.979   1.933   1.335  0.4679  0.3416  0.3154
 4800poe    c3123029   3.235   3.254   0.958 -0.1745 -0.0960  0.1959
 4800poe     o223030   3.103   3.299   0.934 -0.0293  0.5801  0.6316
 4800poe    c2323031   3.016   3.197   0.977 -0.0578  0.2953 -0.0924
 4800poe    c2323032   2.869   3.205   0.929 -0.0772  0.0140 -0.0848
 4800poe     o223033   2.840   3.192   0.792 -0.1627 -0.2588 -0.0413
 4800poe    c2323034   2.717   3.257   0.772  0.2276  0.4221 -0.2611
 4800poe    c2323035   2.692   3.274   0.621  0.1113 -0.2293 -0.3164
 4800poe     o223036   2.688   3.150   0.554  0.5394 -0.4081 -0.0146
 4800poe    c2323037   2.622   3.168   0.431  0.6977 -0.6158 -0.1307
 4800poe    c2323038   2.606   3.038   0.350 -0.4992 -0.2492 -0.5058
 4800poe     o223039   2.720   2.995   0.278 -0.0903  0.7581 -0.4802
 4800poe    c3123040   2.724   2.863   0.229  0.1114  0.5402  0.1193
 4801poe    c3123041   5.953   3.829   3.567  0.1309 -0.1373 -0.2352
 4801poe     o223042   6.012   3.789   3.445  0.1725  0.1750 -0.3189
 4801poe    c2323043   6.151   3.807   3.457  0.1111  0.8489 -0.5865
 4801poe    c2323044   6.251   3.754   3.352  0.3328 -0.1366  0.1009
 4801poe     o223045   6.264   3.845   3.245  0.0190 -0.0286  0.1526
 4801poe    c2323046   6.387   3.825   3.178 -0.2567 -0.1941 -0.3121
 4801poe    c2323047   6.369   3.899   3.044 -0.0157  0.2170 -0.1215
 4801poe     o223048   6.253   3.862   2.972 -0.1570  0.9141 -0.2618
 4801poe    c2323049   6.275   3.918   2.845  0.1287  0.3421 -0.4678
 4801poe    c2323050   6.151   3.919   2.754 -0.2237  0.5185  0.0121
 4801poe     o223051   6.051   4.008   2.799 -0.2462  0.4653  0.0668
 4801poe    c3123052   5.934   4.002   2.720 -0.1132  0.3854 -0.1263
 4802poe    c3123053   0.580   4.303   5.412  0.2061 -0.1368 -0.0821
 4802poe     o223054   0.446   4.263   5.428  0.1943  0.1028  0.4314
 4802poe    c2323055   0.383   4.376   5.484 -0.0612 -0.0502  0.4568
 4802poe    c2323056   0.245   4.344   5.543 -0.2542  0.0619  0.0681
 4802poe     o223057   0.168   4.276   5.447 -0.1848  0.3845 -0.2162
 4802poe    c2323058   0.042   4.255   5.505 -0.0597 -0.1843 -0.1370
 4802poe    c2323059  -0.067   4.198   5.412 -0.1731 -0.4049  0.1298
 4802poe     o223060  -0.025   4.076   5.355 -0.2562 -0.2893 -0.1817
 4802poe    c2323061  -0.004   3.970   5.446 -0.4362  0.1069  0.3282
 4802poe    c2323062   0.045   3.834   5.394 -0.2579  0.0105  0.7401
 4802poe     o223063   0.171   3.817   5.333 -0.3740  0.3025  0.4122
 4802poe    c3123064   0.199   3.680   5.317  0.3246  0.4613  0.2339
 4803poe    c3123065   1.270   3.466   4.123  0.0647  0.5550  0.3898
 4803poe     o223066   1.391   3.394   4.132 -0.4025 -0.2798  0.1198
 4803poe    c2323067   1.390   3.268   4.069 -0.4693 -0.2113 -0.0185
 4803poe    c2323068   1.521   3.209   4.014 -0.1001  0.2554  0.3478
 4803poe     o223069   1.629   3.202   4.105  0.0341  0.9754  0.2473
 4803poe    c2323070   1.750   3.238   4.042 -0.0177  0.3637 -0.2054
 4803poe    c2323071   1.867   3.245   4.142  0.1710  0.8626 -0.4556
 4803poe     o223072   1.847   3.355   4.227  0.7047  0.5518  0.0789
 4803poe    c2323073   1.911   3.325   4.348 -0.1345  0.2259  0.4483
 4803poe    c2323074   2.003   3.437   4.403  0.3297 -0.1066  0.3544
 4803poe     o223075   1.931   3.539   4.468  0.0610 -0.1483  0.1282
 4803poe    c3123076   1.975   3.663   4.417 -0.0109 -0.1929 -0.0398
 4804poe    c3123077   1.664   3.193   0.904  0.3152 -0.3597  0.0747
 4804poe     o223078   1.740   3.186   1.023 -0.0397  0.0874  0.3312
 4804poe    c2323079   1.863   3.254   1.017  0.1426 -0.2647  0.0175
 4804poe    c2323080   1.914   3.284   1.159 -0.1163 -0.2408  0.1063
 4804poe     o223081   1.882   3.179   1.248  0.3476 -0.2169  0.3031
 4804poe    c2323082   1.889   3.222   1.382  0.2069 -0.3684  0.3585
 4804poe    c2323083   1.852   3.101   1.470  0.0501 -0.5130  0.0952
 4804poe     o223084   1.732   3.051   1.415 -0.1538 -0.0126  0.0774
 4804poe    c2323085   1.674   2.941   1.481 -0.0713  0.2385  0.5683
 4804poe    c2323086   1.530   2.967   1.528 -0.2733  0.4367 -0.1625
 4804poe     o223087   1.454   3.033   1.428 -1.1636 -0.4532 -0.0855
 4804poe    c3123088   1.329   3.074   1.478 -0.7917  0.6309 -0.0320
 4805poe    c3123089   0.894   0.231   4.994 -0.8192  0.7042 -0.4683
 4805poe     o223090   0.939   0.355   5.043  0.2451  0.2410 -0.2484
 4805poe    c2323091   0.841   0.453   5.019 -0.2154 -0.2034 -0.2112
 4805poe    c2323092   0.854   0.591   5.087  0.0227 -0.4051  0.1584
 4805poe     o223093   0.960   0.679   5.060  0.0326 -0.5138 -0.1637
 4805poe    c2323094   0.954   0.790   5.147 -0.3510 -0.0661 -0.7553
 4805poe    c2323095   1.062   0.899   5.152 -0.5518  0.1017  0.0484
 4805poe     o223096   1.071   0.985   5.042 -0.2509 -0.1279 -0.1097
 4805poe    c2323097   1.144   1.105   5.060 -0.0147 -0.2325 -0.3499
 4805poe    c2323098   1.051   1.205   5.132  0.4401  0.3155 -0.5221
 4805poe     o223099   0.940   1.241   5.053 -0.0677 -0.1577 -0.0260
 4805poe    c3123100   0.871   1.350   5.110  0.1047 -0.0532 -0.0180
 4806poe    c3123101   1.324   1.810   1.930  0.0236  0.0305  0.0687
 4806poe     o223102   1.278   1.697   2.001 -0.9422  0.0242 -0.5635
 4806poe    c2323103   1.251   1.579   1.928  0.5725 -0.3530 -0.5536
 4806poe    c2323104   1.184   1.468   2.011  0.3079  0.3084  0.1282
 4806poe     o223105   1.271   1.391   2.091 -0.0129 -0.5984 -0.3877
 4806poe    c2323106   1.187   1.303   2.162  0.0730 -0.2839  0.1080
 4806poe    c2323107   1.259   1.210   2.261 -0.1325 -0.3918  0.1572
 4806poe     o223108   1.311   1.287   2.368  0.0552 -0.2920 -0.0047
 4806poe    c2323109   1.365   1.196   2.461  0.1548 -0.0170  0.2085
 4806poe    c2323110   1.406   1.239   2.603 -0.1904  0.6506  0.1101
 4806poe     o223111   1.516   1.328   2.605  0.1072  0.2868  0.0297
 4806poe    c3123112   1.549   1.352   2.740 -0.2360 -0.7092  0.2982
 4807poe    c3123113   4.579   6.899   4.542  0.2235 -0.4753 -0.1975
 4807poe     o223114   4.694   6.901   4.625 -0.0500  0.6162  0.1736
 4807poe    c2323115   4.795   6.960   4.547  0.0069  0.2655 -0.0239
 4807poe    c2323116   4.875   7.058   4.635  0.1143  0.4874 -0.3656
 4807poe     o223117   4.911   6.984   4.750 -0.2459  0.7039 -0.1102
 4807poe    c2323118   5.011   7.058   4.817 -0.1108  0.1045  0.3608
 4807poe    c2323119   5.071   6.994   4.944 -0.1124 -0.0415  0.2872
 4807poe     o223120   5.145   6.877   4.915 -0.1709 -0.1626  0.6273
 4807poe    c2323121   5.162   6.806   5.036 -0.3419 -0.3869  0.5195
 4807poe    c2323122   5.146   6.653   5.034 -0.0704 -0.4119  0.1339
 4807poe     o223123   5.252   6.599   4.958  0.0911  0.4691 -0.2741
 4807poe    c3123124   5.257   6.458   4.961  0.2955  0.4835  0.1057
 4808poe    c3123125   3.245   4.180   4.572 -0.0304 -0.2331 -0.2638
 4808poe     o223126   3.211   4.212   4.705  0.2713  0.3169 -0.3151
 4808poe    c2323127   3.142   4.331   4.737  0.0979 -0.0552  0.7321
 4808poe    c2323128   2.993   4.294   4.740  0.0320  0.1152 -0.0842
 4808poe     o223129   2.981   4.207   4.851  0.6525 -0.3399 -0.3692
 4808poe    c2323130   2.856   4.146   4.874  0.3290  0.2564 -0.5170
 4808poe    c2323131   2.817   4.019   4.796 -0.1472 -0.0908  0.2780
 4808poe     o223132   2.900   3.905   4.802  0.1129  0.0734 -0.1915
 4808poe    c2323133   2.860   3.796   4.721 -0.1708  0.3449 -0.4207
 4808poe    c2323134   2.977   3.699   4.696  0.0949  0.5595 -0.0146
 4808poe     o223135   3.069   3.741   4.598 -0.0494 -0.0391 -0.4082
 4808poe    c3123136   3.039   3.720   4.462  0.1136  0.2164 -0.4837
 4809poe    c3123137   3.664   2.536   7.133 -0.1792  0.1677 -0.6538
 4809poe     o223138   3.553   2.590   7.064 -0.0642  0.8648 -0.2973
 4809poe    c2323139   3.442   2.596   7.152  0.0096 -0.5858 -0.0747
 4809poe    c2323140   3.314   2.591   7.067 -0.2239 -0.0985  0.2473
 4809poe     o223141   3.336   2.694   6.974  0.0785 -0.5814 -0.2191
 4809poe    c2323142   3.220   2.756   6.921  0.4514  0.5297  0.2322
 4809poe    c2323143   3.259   2.888   6.853 -0.1304  0.5030 -0.1556
 4809poe     o223144   3.355   2.876   6.751 -0.1567  0.1300 -0.1375
 4809poe    c2323145   3.375   3.011   6.716  0.9147 -0.0334 -0.1798
 4809poe    c2323146   3.481   3.023   6.605  0.8107  0.7325 -0.2024
 4809poe     o223147   3.605   2.966   6.643  0.0726 -0.4442  0.4955
 4809poe    c3123148   3.707   3.002   6.553 -0.8430 -0.0661 -0.4135
 4810poe    c3123149   4.459   3.198   2.704  0.0215 -0.0257  0.1221
 4810poe     o223150   4.421   3.332   2.680  0.1936  0.0126  0.0576
 4810poe    c2323151   4.376   3.351   2.548 -0.3548  0.2603  0.2766
 4810poe    c2323152   4.363   3.499   2.505  0.3175  0.2788  0.1195
 4810poe     o223153   4.486   3.567   2.499  0.6634 -0.3594 -0.1450
 4810poe    c2323154   4.482   3.697   2.444 -0.2863 -0.4184 -0.2355
 4810poe    c2323155   4.615   3.769   2.473 -0.4293 -0.0638 -0.4531
 4810poe     o223156   4.651   3.781   2.609 -0.0280 -0.5932 -0.5087
 4810poe    c2323157   4.775   3.846   2.623 -0.3140 -0.2656  0.5375
 4810poe    c2323158   4.798   3.878   2.772  0.2688 -0.0509  0.4033
 4810poe     o223159   4.766   3.760   2.842  0.1802 -0.2964 -0.0477
 4810poe    c3123160   4.812   3.749   2.975 -0.1562  0.5700  0.1442
 4811poe    c3123161   3.861   7.059   3.732  0.6254  0.2063 -0.2319
 4811poe     o223162   3.851   6.978   3.617 -0.5587  0.3321 -0.2297
 4811poe    c2323163   3.781   7.057   3.523 -0.2353  0.7456 -0.1304
 4811poe    c2323164   3.830   7.006   3.385  0.1056  0.1092  0.2203
 4811poe     o223165   3.964   7.041   3.359  0.0924  0.1737  0.2390
 4811poe    c2323166   3.982   7.162   3.288 -0.4821  0.0459 -0.1332
 4811poe    c2323167   3.941   7.300   3.341  0.2193 -0.0094  0.5594
 4811poe     o223168   4.031   7.361   3.432  0.3352  0.1216  0.3565
 4811poe    c2323169   3.966   7.477   3.479 -0.2027  0.0372 -0.1685
 4811poe    c2323170   4.055   7.555   3.577 -0.4031 -0.3867  0.3608
 4811poe     o223171   4.065   7.500   3.706 -0.2196 -0.3059  0.3813
 4811poe    c3123172   3.960   7.534   3.793 -0.3768  0.5188 -0.1182
 4812poe    c3123173   5.436   7.412   5.910  0.7546 -0.2918  0.5847
 4812poe     o223174   5.331   7.342   5.974  0.5883 -0.5924 -0.0087
 4812poe    c2323175   5.402   7.242   6.044  0.5347 -0.5544  0.1002
 4812poe    c2323176   5.305   7.132   6.091  0.2395 -0.3332  0.0154
 4812poe     o223177   5.191   7.173   6.164  0.1913  0.2516 -0.3795
 4812poe    c2323178   5.143   7.069   6.246 -0.1554  0.5641 -0.1860
 4812poe    c2323179   4.989   7.054   6.249 -0.1179  0.1377 -0.2945
 4812poe     o223180   4.927   7.144   6.338  0.0747 -0.5518  0.5608
 4812poe    c2323181   4.789   7.141   6.311  0.1739 -0.2077 -0.0083
 4812poe    c2323182   4.700   7.040   6.385 -0.6488  0.2620 -0.3343
 4812poe     o223183   4.712   6.909   6.332  0.4943 -0.0015  0.5304
 4812poe    c3123184   4.629   6.819   6.401 -0.2055  0.3630  0.1791
 4813poe    c3123185   3.173   1.527   6.378 -0.1851 -0.3730  0.1703
 4813poe     o223186   3.207   1.561   6.246  0.1000  0.1792  0.3869
 4813poe    c2323187   3.101   1.565   6.153  0.5157  0.2712 -0.0882
 4813poe    c2323188   3.143   1.573   6.005 -0.1284  0.6226 -0.2532
 4813poe     o223189   3.134   1.698   5.941 -0.2480  0.7543  0.0182
 4813poe    c2323190   3.201   1.689   5.817  0.1518  0.4641  0.2516
 4813poe    c2323191   3.216   1.827   5.751  0.1945  0.2409 -0.2151
 4813poe     o223192   3.096   1.902   5.762  0.2926  0.4125 -0.3213
 4813poe    c2323193   3.113   2.042   5.756 -0.0616  0.4114 -1.6041
 4813poe    c2323194   2.972   2.100   5.780  0.0613  0.0155  0.1904
 4813poe     o223195   2.920   2.082   5.910 -0.0660 -0.4449  0.0795
 4813poe    c3123196   2.814   2.172   5.931  0.4581  0.1419  0.2453
 4814poe    c3123197   3.428   3.059   4.439 -0.0998  0.0390  0.5544
 4814poe     o223198   3.518   3.157   4.392 -0.0844 -0.3245 -0.1899
 4814poe    c2323199   3.595   3.206   4.499  0.2031  0.0162 -0.5496
 4814poe    c2323200   3.719   3.291   4.466  0.1327  0.2793 -0.1436
 4814poe     o223201   3.830   3.231   4.403 -0.1430  0.1280 -0.4868
 4814poe    c2323202   3.927   3.324   4.360  0.2940 -0.2783 -0.3829
 4814poe    c2323203   4.056   3.249   4.320  0.5293  0.1796 -0.4873
 4814poe     o223204   4.045   3.147   4.224 -0.2655  0.0009 -0.2143
 4814poe    c2323205   4.150   3.054   4.237 -0.4662 -0.2361 -0.2505
 4814poe    c2323206   4.191   2.998   4.100 -0.2132  0.0947 -0.3126
 4814poe     o223207   4.305   3.075   4.069  0.1185 -0.1745  0.2248
 4814poe    c3123208   4.331   3.055   3.932 -0.4527 -0.6395  0.1824
 4815poe    c3123209   1.528   0.703   6.403 -0.4600  0.0886 -0.1965
 4815poe     o223210   1.419   0.697   6.492  0.0208 -0.0438  0.3987
 4815poe    c2323211   1.332   0.806   6.470 -0.4557 -0.5237 -0.1362
 4815poe    c2323212   1.291   0.864   6.606  0.0247 -0.1580 -0.1436
 4815poe     o223213   1.204   0.784   6.684 -0.9103  0.8129 -0.1664
 4815poe    c2323214   1.202   0.852   6.807  0.3915 -0.2535  0.4746
 4815poe    c2323215   1.118   0.769   6.905  0.4910 -0.6293  0.2421
 4815poe     o223216   0.989   0.745   6.854  0.4542 -0.2907  0.1731
 4815poe    c2323217   0.922   0.669   6.953  0.2287  0.2933  0.4709
 4815poe    c2323218   0.779   0.625   6.916  0.4021  0.2919 -0.2104
 4815poe     o223219   0.684   0.727   6.935  0.4851  0.3786 -0.2570
 4815poe    c3123220   0.554   0.676   6.953  0.6723 -0.0048  0.0115
 4816poe    c3123221   5.454   6.810   1.638  0.3329 -0.2076 -0.4226
 4816poe     o223222   5.423   6.946   1.622  0.3507 -0.1932 -0.3348
 4816poe    c2323223   5.459   6.983   1.490 -0.2366  0.1628 -0.4008
 4816poe    c2323224   5.427   7.132   1.471 -0.2769  0.2288  0.1497
 4816poe     o223225   5.491   7.227   1.553  0.3637 -0.1862  0.1402
 4816poe    c2323226   5.625   7.258   1.524  0.2129  0.1752 -0.1910
 4816poe    c2323227   5.658   7.393   1.590 -0.7472  0.1859  0.2828
 4816poe     o223228   5.639   7.368   1.727 -0.2072 -0.1653  0.2988
 4816poe    c2323229   5.702   7.459   1.815  0.2290 -0.3582  0.1878
 4816poe    c2323230   5.660   7.419   1.958 -0.0885  0.1238  0.2319
 4816poe     o223231   5.521   7.434   1.982 -0.0962 -0.0046  0.2695
 4816poe    c3123232   5.512   7.454   2.121 -0.1856  0.3655  0.2093
 4817poe    c3123233   2.729   0.758   0.175  0.1704 -0.1937  0.1176
 4817poe     o223234   2.758   0.888   0.130  0.0711 -0.1064  0.3014
 4817poe    c2323235   2.658   0.986   0.112  0.2354  0.0360  0.1540
 4817poe    c2323236   2.712   1.125   0.076  0.0209 -0.0226 -0.3963
 4817poe     o223237   2.808   1.090  -0.022  0.1903 -0.1991 -0.1664
 4817poe    c2323238   2.873   1.203  -0.074  0.5225  0.0362  0.7408
 4817poe    c2323239   2.948   1.147  -0.196 -0.1600 -0.0076  0.3384
 4817poe     o223240   3.041   1.049  -0.156 -0.3420 -0.2752  0.1134
 4817poe    c2323241   3.138   1.007  -0.250 -0.0804 -1.1625  0.7633
 4817poe    c2323242   3.084   0.928  -0.371  0.2077 -0.3956  0.1231
 4817poe     o223243   3.026   0.810  -0.319 -0.0879 -0.0819  0.5099
 4817poe    c3123244   3.027   0.699  -0.406 -0.4351  0.5605 -0.3397
 4818poe    c3123245   0.290   5.020   6.302 -0.0342 -0.1442  0.1901
 4818poe     o223246   0.257   4.888   6.340  0.1407 -0.1546  0.3065
 4818poe    c2323247   0.268   4.876   6.480 -0.0740 -0.1813  0.3225
 4818poe    c2323248   0.207   4.749   6.540 -0.3880 -0.0245  0.3396
 4818poe     o223249   0.285   4.635   6.512 -0.4232 -0.0500  0.3445
 4818poe    c2323250   0.271   4.524   6.598 -0.2782 -0.4371 -0.1199
 4818poe    c2323251   0.333   4.393   6.549 -0.4470 -0.6565  0.2471
 4818poe     o223252   0.270   4.330   6.439  0.0864 -0.1816 -0.3336
 4818poe    c2323253   0.337   4.214   6.394 -0.5236 -0.8071  0.3507
 4818poe    c2323254   0.255   4.153   6.279 -0.1512 -0.4299 -0.1207
 4818poe     o223255   0.284   4.230   6.165 -0.3271  0.0537  0.1601
 4818poe    c3123256   0.185   4.213   6.066 -0.2492 -0.1022  0.1100
 4819poe    c3123257   6.844   0.077   1.574  0.2720  0.0016 -0.5767
 4819poe     o223258   6.811   0.090   1.711  0.1053  0.1937 -0.6352
 4819poe    c2323259   6.679   0.134   1.733  0.0456 -0.5284  0.5560
 4819poe    c2323260   6.631   0.146   1.879  0.4343 -0.2296  0.6607
 4819poe     o223261   6.715   0.236   1.947  0.2432  0.4383  0.0340
 4819poe    c2323262   6.719   0.215   2.087 -0.0322 -0.5968 -0.1087
 4819poe    c2323263   6.839   0.276   2.161 -0.1871 -0.1807 -0.1975
 4819poe     o223264   6.964   0.225   2.121  0.3544  0.8650  0.1216
 4819poe    c2323265   7.060   0.258   2.219  0.6375  0.5911 -0.0609
 4819poe    c2323266   7.198   0.200   2.181  0.2471  0.0018 -0.5870
 4819poe     o223267   7.202   0.064   2.145  0.2662 -0.2641  0.4096
 4819poe    c3123268   7.324   0.024   2.085  0.1070 -0.0612 -0.0510
 4820poe    c3123269   0.488   7.264   4.400 -0.0722  0.2866  0.0811
 4820poe     o223270   0.575   7.226   4.295  0.3881  0.6583  0.3262
 4820poe    c2323271   0.656   7.118   4.337  0.0880  0.0880 -0.5430
 4820poe    c2323272   0.698   7.023   4.223  0.4213 -0.3474 -0.0625
 4820poe     o223273   0.583   6.967   4.163 -0.2467  0.4375  0.4577
 4820poe    c2323274   0.516   6.861   4.227  0.4137 -0.2567  0.0216
 4820poe    c2323275   0.385   6.813   4.160  0.2819  0.1241  0.0037
 4820poe     o223276   0.291   6.917   4.177  0.3000  0.1315  0.0617
 4820poe    c2323277   0.225   6.916   4.301  0.4910 -0.3227  0.1609
 4820poe    c2323278   0.155   6.788   4.350 -0.3866  0.0384 -0.1422
 4820poe     o223279   0.250   6.708   4.416 -0.2980  0.1193 -0.1716
 4820poe    c3123280   0.195   6.615   4.507 -0.1643  0.4386  0.2378
 4821poe    c3123281   6.647   1.627   3.517 -0.2131 -0.4221  0.1057
 4821poe     o223282   6.557   1.534   3.460  0.2602 -0.6500 -0.2791
 4821poe    c2323283   6.537   1.555   3.322  0.2792 -0.1593 -0.2111
 4821poe    c2323284   6.396   1.521   3.271  0.1235  0.1916 -0.0198
 4821poe     o223285   6.337   1.402   3.320  0.0575  0.1953 -0.0911
 4821poe    c2323286   6.210   1.376   3.263  0.0462 -0.5658  0.2729
 4821poe    c2323287   6.140   1.263   3.341 -0.1097 -0.5211  0.1974
 4821poe     o223288   6.107   1.309   3.470  0.3635 -0.3269  0.2521
 4821poe    c2323289   6.021   1.217   3.534  0.0115 -0.1194  0.0795
 4821poe    c2323290   6.015   1.267   3.679 -0.1520 -0.3689  0.1594
 4821poe     o223291   6.148   1.301   3.709 -0.3963  0.1458  0.6924
 4821poe    c3123292   6.154   1.357   3.838  0.2841  0.6969  0.4306
 4822poe    c3123293   3.301   3.049   2.341 -0.5645 -0.0521  0.1646
 4822poe     o223294   3.381   3.157   2.298 -0.5488 -0.0074  0.3041
 4822poe    c2323295   3.305   3.249   2.222 -0.3059 -0.1374 -0.0972
 4822poe    c2323296   3.372   3.387   2.212  0.2333 -0.3550  0.4579
 4822poe     o223297   3.486   3.380   2.129  0.3332  0.1284  0.5504
 4822poe    c2323298   3.563   3.498   2.132  0.0572  0.3325 -0.1481
 4822poe    c2323299   3.685   3.474   2.042  0.2394  0.3540  0.0943
 4822poe     o223300   3.764   3.364   2.083  0.3782  0.4352  0.0467
 4822poe    c2323301   3.877   3.335   2.005  0.0541  0.2692 -0.3631
 4822poe    c2323302   4.009   3.415   2.010  0.4254 -0.3485 -0.0262
 4822poe     o223303   4.006   3.540   1.944 -0.7081 -0.2963  0.0914
 4822poe    c3123304   4.136   3.591   1.964 -0.7629  0.0528 -0.4184
 4823poe    c3123305   0.300   7.251   7.169  0.1064  0.1790 -0.2133
 4823poe     o223306   0.254   7.330   7.276  0.0063  0.1016 -0.2003
 4823poe    c2323307   0.126   7.288   7.317  0.2463  0.0077  0.4633
 4823poe    c2323308   0.079   7.388   7.425 -0.2905  0.1817  0.0741
 4823poe     o223309   0.193   7.418   7.503  0.0808  0.3201 -0.5092
 4823poe    c2323310   0.156   7.491   7.618  0.1882  0.3245 -0.4774
 4823poe    c2323311   0.274   7.533   7.707 -0.5249  0.5771  0.3682
 4823poe     o223312   0.363   7.596   7.617 -0.2142 -0.4741 -0.0775
 4823poe    c2323313   0.469   7.662   7.683 -0.6419 -0.1493  0.2903
 4823poe    c2323314   0.537   7.768   7.596  0.3991 -0.5384  0.6079
 4823poe     o223315   0.582   7.729   7.468 -0.2916  0.2681  0.1043
 4823poe    c3123316   0.652   7.832   7.402 -0.3586  0.5025  0.3979
 4824poe    c3123317   6.219   2.484   0.264 -0.0492 -0.1795  0.4358
 4824poe     o223318   6.295   2.400   0.180 -0.1512 -0.0124  0.1724
 4824poe    c2323319   6.329   2.284   0.254  0.0900  0.0348  0.1384
 4824poe    c2323320   6.351   2.177   0.146 -0.0104  0.5351 -0.3888
 4824poe     o223321   6.236   2.133   0.077  0.0694  0.0070 -0.1943
 4824poe    c2323322   6.277   2.052  -0.030 -0.0406  0.0723 -0.2861
 4824poe    c2323323   6.173   2.042  -0.143 -0.0347 -0.2216 -0.2641
 4824poe     o223324   6.141   2.168  -0.197  0.0694  0.0907  0.3894
 4824poe    c2323325   6.076   2.159  -0.322  0.0377 -0.0034  0.4126
 4824poe    c2323326   6.081   2.303  -0.375 -0.0914 -0.1321  0.0472
 4824poe     o223327   6.021   2.379  -0.272  0.0727 -0.1012  0.1203
 4824poe    c3123328   5.988   2.508  -0.317  0.2807 -0.2986 -0.6223
 4825poe    c3123329   0.653   0.931   7.229 -0.3031 -0.1909  0.1406
 4825poe     o223330   0.575   1.015   7.148  0.1083  0.0915  0.0340
 4825poe    c2323331   0.441   0.971   7.152  0.0783  0.1576 -0.2253
 4825poe    c2323332   0.366   1.018   7.026 -0.3625  0.2065  0.0509
 4825poe     o223333   0.345   1.157   7.032 -0.1616  0.2331  0.1228
 4825poe    c2323334   0.215   1.200   7.066  0.0034  0.7115  0.1510
 4825poe    c2323335   0.169   1.330   6.997 -0.1219  0.6820  0.1803
 4825poe     o223336   0.140   1.308   6.861 -0.0748  0.0762  0.2637
 4825poe    c2323337   0.102   1.430   6.800 -0.5973 -0.1779  0.0779
 4825poe    c2323338   0.094   1.449   6.647  0.2036  0.5151  0.1119
 4825poe     o223339   0.212   1.427   6.574 -0.0096  0.2473 -0.1530
 4825poe    c3123340   0.206   1.472   6.440 -0.2544 -1.0688 -0.6037
 4826poe    c3123341   6.128   0.814   1.657 -0.1425 -1.2234 -0.3221
 4826poe     o223342   6.003   0.760   1.694 -0.6469  0.1532  0.0566
 4826poe    c2323343   5.990   0.750   1.834 -0.1038  0.0749  0.1011
 4826poe    c2323344   5.858   0.684   1.877 -0.0498 -0.2910 -0.2780
 4826poe     o223345   5.756   0.779   1.899  0.2371 -0.1636  0.5332
 4826poe    c2323346   5.625   0.728   1.898  0.1793 -0.0162 -0.1319
 4826poe    c2323347   5.505   0.824   1.896  0.3976  0.2599 -0.0651
 4826poe     o223348   5.476   0.897   1.779  0.2204  0.6906  0.2455
 4826poe    c2323349   5.341   0.937   1.778 -0.0864 -0.3100 -0.4078
 4826poe    c2323350   5.340   1.037   1.661 -0.0332  0.1407 -0.0295
 4826poe     o223351   5.360   0.975   1.535  0.1043  0.3157 -0.0942
 4826poe    c3123352   5.259   1.015   1.445 -0.3560 -0.4038  0.0944
 4827poe    c3123353   0.111   0.836   5.615 -0.4224 -0.1896 -0.0621
 4827poe     o223354   0.060   0.919   5.512  0.4983  0.2231 -0.2015
 4827poe    c2323355   0.124   1.044   5.517  0.4268  0.2503  0.0465
 4827poe    c2323356   0.036   1.149   5.448 -0.0129 -0.1823 -0.0554
 4827poe     o223357  -0.091   1.189   5.495  0.0757  0.3022 -0.2216
 4827poe    c2323358  -0.121   1.316   5.442  0.2641  0.4369 -0.0082
 4827poe    c2323359  -0.257   1.356   5.503  0.0371  0.3596 -0.4573
 4827poe     o223360  -0.349   1.250   5.484  0.2654  0.1003 -0.1220
 4827poe    c2323361  -0.460   1.261   5.570  0.1860 -0.1936 -0.1873
 4827poe    c2323362  -0.554   1.148   5.525 -0.2128  0.1256 -0.1632
 4827poe     o223363  -0.477   1.030   5.512  0.0837  0.3310 -0.2766
 4827poe    c3123364  -0.561   0.937   5.577  0.2944  0.4146  0.1161
 4828poe    c3123365   3.731   2.540   5.971  0.1626 -0.1309 -0.1403
 4828poe     o223366   3.849   2.515   5.898 -0.0762 -0.4560 -0.4140
 4828poe    c2323367   3.890   2.380   5.908  0.1360 -0.4327 -0.9503
 4828poe    c2323368   4.026   2.354   5.840  0.6579  0.0165 -0.0948
 4828poe     o223369   4.005   2.353   5.701  0.0169 -0.4568  0.0010
 4828poe    c2323370   4.122   2.343   5.624  0.1706 -0.0439  0.1770
 4828poe    c2323371   4.174   2.481   5.582 -0.0670 -0.0802 -0.2374
 4828poe     o223372   4.085   2.544   5.492  0.1949 -0.4928 -0.7897
 4828poe    c2323373   4.120   2.679   5.475  0.2899 -0.4868 -0.5517
 4828poe    c2323374   4.009   2.720   5.376  0.3425  0.9368 -0.0493
 4828poe     o223375   3.881   2.686   5.423  0.4883 -0.0069 -0.3119
 4828poe    c3123376   3.801   2.758   5.331 -0.0297 -0.2603 -0.0677
 4829poe    c3123377   1.860   4.707   5.205  0.2435 -0.1885  0.0216
 4829poe     o223378   1.730   4.720   5.257  0.1591  0.1771 -0.2798
 4829poe    c2323379   1.707   4.610   5.341  0.5588  0.2723 -0.0428
 4829poe    c2323380   1.578   4.650   5.415  0.2043  0.3720 -0.7085
 4829poe     o223381   1.602   4.755   5.506 -0.2955  0.1250 -0.2882
 4829poe    c2323382   1.480   4.813   5.546 -0.1909  0.1101  0.0566
 4829poe    c2323383   1.491   4.916   5.660 -0.6516  0.1943  0.0264
 4829poe     o223384   1.501   4.842   5.779  0.1301 -0.1117 -0.2222
 4829poe    c2323385   1.486   4.930   5.888  0.1804 -0.2116 -0.1339
 4829poe    c2323386   1.479   4.856   6.023 -0.5925 -0.3485 -0.2403
 4829poe     o223387   1.590   4.778   6.062 -0.2661  0.6979  1.0039
 4829poe    c3123388   1.569   4.699   6.177 -0.0959  0.2346  0.7195
 4830poe    c3123389   2.850   1.630   0.813  0.1682  0.5424  0.0987
 4830poe     o223390   2.978   1.575   0.837  0.0277  0.1968  0.0507
 4830poe    c2323391   3.029   1.489   0.737 -0.5794 -0.3373  0.1857
 4830poe    c2323392   3.162   1.429   0.787  0.0376  0.1529 -0.8286
 4830poe     o223393   3.141   1.344   0.898  0.2982  0.9344 -0.1685
 4830poe    c2323394   3.256   1.266   0.926 -0.3126  0.1443  0.1748
 4830poe    c2323395   3.260   1.216   1.071  0.3693  0.0175  0.1158
 4830poe     o223396   3.270   1.331   1.152  0.0434  0.1784 -0.0717
 4830poe    c2323397   3.273   1.298   1.289 -0.7136  0.0660 -0.0755
 4830poe    c2323398   3.298   1.414   1.387  0.0090 -0.0966 -0.0642
 4830poe     o223399   3.196   1.510   1.407  0.1629 -0.0214  0.3688
 4830poe    c3123400   3.244   1.615   1.487 -0.0624 -0.1649  0.6934
 4831poe    c3123401   6.423   4.471   6.351  0.1814  0.2982  0.2419
 4831poe     o223402   6.494   4.361   6.403 -0.2148 -0.1544 -0.1656
 4831poe    c2323403   6.525   4.374   6.540 -0.4920  0.1386 -0.1279
 4831poe    c2323404   6.590   4.246   6.597 -0.2951  0.1333 -0.3616
 4831poe     o223405   6.511   4.129   6.603  0.0115 -0.0424  0.3796
 4831poe    c2323406   6.575   4.016   6.657  0.1989 -0.2670 -0.3085
 4831poe    c2323407   6.534   3.891   6.576  0.1307 -0.4985  0.0798
 4831poe     o223408   6.539   3.911   6.436 -0.2894 -0.2274  0.0986
 4831poe    c2323409   6.515   3.784   6.379 -0.5372  0.0539 -0.4200
 4831poe    c2323410   6.370   3.761   6.335 -0.6062 -0.0135 -0.1513
 4831poe     o223411   6.331   3.813   6.210  0.0340  0.6742 -0.0740
 4831poe    c3123412   6.199   3.768   6.186  0.2068 -0.4145  0.9036
 4832poe    c3123413   4.449   5.003   7.377  0.0367 -0.3425 -0.2380
 4832poe     o223414   4.327   5.045   7.319 -0.0695 -0.4240 -0.0743
 4832poe    c2323415   4.311   4.955   7.212  0.4852 -0.8162  0.1637
 4832poe    c2323416   4.203   5.005   7.114  0.5295 -0.6949  0.1763
 4832poe     o223417   4.255   5.111   7.038 -0.3584 -0.3783 -0.0106
 4832poe    c2323418   4.199   5.124   6.910  0.1344  0.0239 -0.1914
 4832poe    c2323419   4.253   5.243   6.828  0.0299  0.0226 -0.2621
 4832poe     o223420   4.266   5.351   6.916  0.4719 -0.0078 -0.2908
 4832poe    c2323421   4.183   5.462   6.891 -0.2918 -0.4401  0.3009
 4832poe    c2323422   4.042   5.466   6.953 -0.5698  0.1361 -0.3485
 4832poe     o223423   4.050   5.452   7.093  0.0449 -0.1178 -0.4038
 4832poe    c3123424   3.917   5.455   7.139  0.2030 -0.1493  0.0594
 4833poe    c3123425   1.502   6.711   7.444  0.8982  0.6170  0.4368
 4833poe     o223426   1.424   6.803   7.372  0.7502  0.0584 -0.1313
 4833poe    c2323427   1.416   6.929   7.436 -0.1906 -0.1924  0.2643
 4833poe    c2323428   1.389   7.041   7.334  0.2553 -0.0061  0.3468
 4833poe     o223429   1.258   7.010   7.290  0.2707  0.3473  0.0477
 4833poe    c2323430   1.221   7.097   7.186 -0.1372  0.3884  0.2258
 4833poe    c2323431   1.072   7.063   7.165 -0.0046 -0.2106  0.2361
 4833poe     o223432   1.066   6.926   7.133  0.4697 -0.0855 -0.4200
 4833poe    c2323433   0.945   6.906   7.062  0.2446 -0.0198 -0.0610
 4833poe    c2323434   0.955   6.758   7.019  0.1391 -0.0273 -0.0617
 4833poe     o223435   0.961   6.685   7.140 -0.0169 -0.1553 -0.1309
 4833poe    c3123436   0.924   6.553   7.111 -0.4131 -0.0266 -0.2216
 4834poe    c3123437   4.798   2.829   0.297  0.2279  0.3108  0.2209
 4834poe     o223438   4.720   2.885   0.195 -0.0081 -0.1242  0.1615
 4834poe    c2323439   4.613   2.799   0.162 -0.2523  0.1047  0.3505
 4834poe    c2323440   4.497   2.889   0.115 -0.3884  0.0447  0.5684
 4834poe     o223441   4.558   2.968   0.015 -0.2955 -0.2648  0.3785
 4834poe    c2323442   4.463   3.059  -0.034 -0.2218 -0.5483 -0.2908
 4834poe    c2323443   4.507   3.105  -0.175 -0.0857  0.0908 -0.0426
 4834poe     o223444   4.636   3.161  -0.184 -0.1029  0.0960 -0.2604
 4834poe    c2323445   4.685   3.158  -0.316  0.2034  0.5866 -0.1601
 4834poe    c2323446   4.813   3.242  -0.333  0.2100  0.6791  0.3288
 4834poe     o223447   4.911   3.185  -0.249  0.0302  0.0530  0.1194
 4834poe    c3123448   5.040   3.235  -0.277 -0.1006  0.2354 -0.1625
 4835poe    c3123449   5.796   2.897   2.354  0.1065 -0.0262 -0.0673
 4835poe     o223450   5.669   2.901   2.415  0.0163  0.2602 -0.2703
 4835poe    c2323451   5.674   2.955   2.545 -0.0019  0.2982 -0.2855
 4835poe    c2323452   5.546   2.962   2.630 -0.2555  0.1049 -0.6491
 4835poe     o223453   5.440   3.025   2.562 -0.4365  0.4239 -0.0806
 4835poe    c2323454   5.445   3.163   2.537  1.0096  0.2844 -0.6767
 4835poe    c2323455   5.310   3.228   2.500  0.0987 -0.8601  0.5578
 4835poe     o223456   5.247   3.177   2.385 -0.0431  0.0715  0.2118
 4835poe    c2323457   5.174   3.273   2.312  0.5070  0.0753 -0.3402
 4835poe    c2323458   5.127   3.217   2.177 -0.0080 -0.2895 -0.0157
 4835poe     o223459   5.230   3.234   2.082 -0.0187  0.2767  0.0699
 4835poe    c3123460   5.195   3.184   1.955 -0.4791 -0.1135  0.3489
 4836poe    c3123461   5.739   2.834   2.917 -0.0910  0.3113  0.2780
 4836poe     o223462   5.871   2.873   2.886  0.1939 -0.9540 -0.1719
 4836poe    c2323463   5.901   2.995   2.950  0.1299 -0.7184 -0.5864
 4836poe    c2323464   6.052   3.026   2.948 -0.0897  0.4348 -0.1269
 4836poe     o223465   6.122   2.924   3.015  0.4425  0.4817 -0.6014
 4836poe    c2323466   6.260   2.949   3.005  0.5395 -0.1586 -0.8628
 4836poe    c2323467   6.313   2.859   3.119 -0.6550 -0.2555 -0.3735
 4836poe     o223468   6.253   2.731   3.117 -0.2792 -0.4438  0.1435
 4836poe    c2323469   6.298   2.647   3.221  0.1800 -0.3685  0.0065
 4836poe    c2323470   6.246   2.505   3.197  0.0124 -0.2411 -0.3931
 4836poe     o223471   6.110   2.483   3.227  0.0066  0.1393 -0.1494
 4836poe    c3123472   6.080   2.347   3.208  0.1652  0.0255  0.3868
 4837poe    c3123473   6.288   4.965   2.009 -0.0459 -0.5759 -0.8504
 4837poe     o223474   6.275   4.918   2.141  0.4065 -0.6416 -0.8290
 4837poe    c2323475   6.310   4.781   2.151  0.2597 -0.6180  0.1764
 4837poe    c2323476   6.343   4.752   2.298 -0.3206 -0.0447  0.4247
 4837poe     o223477   6.442   4.844   2.336 -0.2153  0.0911 -0.1735
 4837poe    c2323478   6.471   4.826   2.473  0.4891 -0.1863 -0.3556
 4837poe    c2323479   6.582   4.913   2.535  0.1335  0.2923 -0.3824
 4837poe     o223480   6.547   5.049   2.540  0.0856  0.2557  0.5252
 4837poe    c2323481   6.630   5.126   2.624  0.2164  0.6278  0.0605
 4837poe    c2323482   6.578   5.268   2.654 -0.1317  0.5133  0.0032
 4837poe     o223483   6.453   5.281   2.718 -0.2499  0.1496 -0.1498
 4837poe    c3123484   6.431   5.416   2.751 -0.2334  0.0025  0.4773
 4838poe    c3123485   3.802   7.216   1.023  0.0594 -0.0147 -0.1345
 4838poe     o223486   3.689   7.134   1.039  0.2478 -0.2515 -0.0085
 4838poe    c2323487   3.691   7.016   0.963  0.2678 -0.3787  0.1874
 4838poe    c2323488   3.572   6.920   0.980 -0.2530  0.3184  0.4920
 4838poe     o223489   3.450   6.968   0.926 -0.1160  0.0197 -0.0931
 4838poe    c2323490   3.355   6.865   0.942 -0.3563  0.2603  0.0255
 4838poe    c2323491   3.232   6.944   0.991 -0.5065  0.0644 -0.0374
 4838poe     o223492   3.184   7.028   0.888 -0.5747  0.2016  0.1064
 4838poe    c2323493   3.069   7.100   0.927 -0.5292  0.1006  0.4301
 4838poe    c2323494   3.039   7.220   0.835 -0.0839  0.0564  0.2236
 4838poe     o223495   2.993   7.183   0.707  0.3353 -0.2752  0.1644
 4838poe    c3123496   2.855   7.152   0.707  0.3247 -0.2296  0.4636
 4839poe    c3123497   1.460   4.108   2.776 -1.1186 -0.2608  0.0921
 4839poe     o223498   1.406   4.084   2.903  0.1438  0.4786  0.7884
 4839poe    c2323499   1.505   4.057   3.000  0.4705  0.1606  0.3673
 4839poe    c2323500   1.459   4.041   3.146  0.3280  0.0225  0.3072
 4839poe     o223501   1.427   4.162   3.212  0.1217 -0.0182  0.2836
 4839poe    c2323502   1.369   4.135   3.338  0.1360 -0.1746  0.2566
 4839poe    c2323503   1.381   4.244   3.445  0.1255  0.1441 -0.0642
 4839poe     o223504   1.512   4.254   3.495  0.0798 -0.2632  0.1453
 4839poe    c2323505   1.514   4.346   3.602  0.7565  0.2491 -0.2916
 4839poe    c2323506   1.653   4.332   3.666  0.5946 -0.1055 -0.0123
 4839poe     o223507   1.752   4.362   3.571  0.4224 -0.1090 -0.1927
 4839poe    c3123508   1.877   4.312   3.610  0.5433 -0.4404 -0.9815
 4840poe    c3123509   1.892   0.503   6.621  0.2229 -0.1287 -0.7045
 4840poe     o223510   1.973   0.526   6.734 -0.2017 -0.7698 -0.2605
 4840poe    c2323511   2.099   0.464   6.741  0.0557 -0.2237 -0.0173
 4840poe    c2323512   2.178   0.474   6.873  0.3429  0.2044 -0.2185
 4840poe     o223513   2.123   0.413   6.988  0.3626  0.1849 -0.2193
 4840poe    c2323514   2.115   0.273   6.988 -0.0559  0.2059  0.6618
 4840poe    c2323515   2.040   0.217   7.111 -0.2045 -0.5521  0.2325
 4840poe     o223516   1.919   0.286   7.095  0.1855  0.0727 -0.0556
 4840poe    c2323517   1.815   0.248   7.182  0.2215  0.3858  0.1278
 4840poe    c2323518   1.708   0.359   7.190  0.4090  0.5763 -0.0250
 4840poe     o223519   1.766   0.487   7.199  0.5496  0.4933  0.2574
 4840poe    c3123520   1.666   0.575   7.244 -0.0622 -0.1421  0.1495
 4841poe    c3123521   5.254   1.093   3.408 -0.2692 -0.6679 -0.8495
 4841poe     o223522   5.372   1.129   3.339  0.2889  0.3478  0.5920
 4841poe    c2323523   5.424   1.257   3.368 -0.5160  0.7266  0.4039
 4841poe    c2323524   5.558   1.275   3.295 -0.6170 -0.0874  0.0002
 4841poe     o223525   5.543   1.273   3.154 -0.4372 -0.9107 -0.0117
 4841poe    c2323526   5.666   1.237   3.097 -0.1239  0.5690 -0.3115
 4841poe    c2323527   5.673   1.269   2.946  0.2635 -0.0532 -0.4269
 4841poe     o223528   5.557   1.227   2.877 -0.0813  0.5522 -0.2160
 4841poe    c2323529   5.559   1.298   2.755  0.0956  0.3214 -0.3469
 4841poe    c2323530   5.461   1.223   2.663 -0.3347  0.4974 -0.0349
 4841poe     o223531   5.331   1.217   2.717 -0.2174  0.2318  0.2264
 4841poe    c3123532   5.244   1.146   2.631  0.3203  0.2753 -0.3552
 4842poe    c3123533   4.777   3.975   7.369  0.0265 -0.1699  0.5528
 4842poe     o223534   4.657   4.027   7.316 -0.1776 -0.6699  0.5098
 4842poe    c2323535   4.553   3.936   7.293  0.0608 -0.8233  0.0176
 4842poe    c2323536   4.496   3.983   7.158 -0.0151  0.0089  0.3328
 4842poe     o223537   4.468   4.120   7.170 -0.1069  0.0407 -0.2333
 4842poe    c2323538   4.444   4.186   7.047  0.1984 -0.0755 -0.3564
 4842poe    c2323539   4.406   4.334   7.063  0.0608 -0.1212 -0.2629
 4842poe     o223540   4.500   4.406   7.139 -0.2391 -0.5018  0.4804
 4842poe    c2323541   4.467   4.543   7.142  0.1087 -0.3850 -0.7143
 4842poe    c2323542   4.510   4.594   7.281 -0.1376 -0.3283 -0.6577
 4842poe     o223543   4.461   4.520   7.390 -0.0235  0.3462 -0.1431
 4842poe    c3123544   4.326   4.548   7.419 -0.0583  0.1599 -0.1214
 4843poe    c3123545   2.080   2.808   1.509  0.4055 -0.6345 -0.3099
 4843poe     o223546   2.173   2.866   1.597 -0.2423 -0.6495  0.3891
 4843poe    c2323547   2.260   2.762   1.634  0.6257 -0.2077 -0.3723
 4843poe    c2323548   2.377   2.802   1.726  0.0441  0.3425  0.1350
 4843poe     o223549   2.452   2.903   1.663 -0.1930  0.7286  0.4698
 4843poe    c2323550   2.548   2.943   1.758 -0.1580  0.2436  0.6425
 4843poe    c2323551   2.662   3.010   1.677 -0.5427 -0.6094 -0.6409
 4843poe     o223552   2.624   3.129   1.612 -0.0743 -0.0900  0.0174
 4843poe    c2323553   2.718   3.177   1.518 -0.0598  0.0780  0.1187
 4843poe    c2323554   2.653   3.217   1.384  0.0096 -0.1421  0.0196
 4843poe     o223555   2.588   3.116   1.311 -0.0207  0.2346 -0.4757
 4843poe    c3123556   2.577   3.173   1.182 -0.4640  0.4134 -0.3623
 4844poe    c3123557   2.979   5.377   0.706 -0.2073  0.0167 -0.1195
 4844poe     o223558   2.941   5.406   0.839  0.3026 -0.0280  0.0398
 4844poe    c2323559   2.844   5.507   0.855  0.4133  0.2547 -0.9664
 4844poe    c2323560   2.702   5.473   0.806  0.1779 -0.3318  0.0806
 4844poe     o223561   2.653   5.351   0.858  0.0561 -0.3084  0.0227
 4844poe    c2323562   2.533   5.321   0.791 -0.3330  0.3850  0.3954
 4844poe    c2323563   2.485   5.177   0.815 -0.6755  0.4510  0.1035
 4844poe     o223564   2.433   5.141   0.941 -0.3578 -0.0682  0.0859
 4844poe    c2323565   2.399   5.004   0.937 -0.1259 -0.1148 -0.4739
 4844poe    c2323566   2.292   4.964   1.040  0.1331  0.3766 -0.0082
 4844poe     o223567   2.172   5.038   1.028  0.0290  0.2590  0.2860
 4844poe    c3123568   2.079   5.010   1.130  0.1197 -0.3830  0.2000
 4845poe    c3123569   3.847   3.616   1.467  0.0453 -0.0554 -0.0121
 4845poe     o223570   3.776   3.520   1.543  0.2555 -0.1377  0.0818
 4845poe    c2323571   3.874   3.446   1.614  0.3043  0.1874  0.3595
 4845poe    c2323572   3.833   3.299   1.600  0.4163  0.1800  0.1014
 4845poe     o223573   3.722   3.279   1.685  0.0846  0.0376 -0.3576
 4845poe    c2323574   3.668   3.150   1.672 -0.0397  0.1331 -0.8015
 4845poe    c2323575   3.545   3.173   1.761  0.4509 -0.0280 -0.0746
 4845poe     o223576   3.482   3.293   1.722  0.2702 -0.0779  0.0612
 4845poe    c2323577   3.347   3.294   1.761  0.0703 -0.3378 -0.6074
 4845poe    c2323578   3.292   3.438   1.748  0.8031 -0.0262 -0.3282
 4845poe     o223579   3.341   3.536   1.836  0.4625  0.4486 -0.6592
 4845poe    c3123580   3.289   3.665   1.816  0.1148  0.3934 -0.1249
 4846poe    c3123581   1.083   3.375   3.710  0.1378 -0.1635  0.2438
 4846poe     o223582   0.952   3.326   3.723 -0.1845  0.3968 -0.7379
 4846poe    c2323583   0.893   3.301   3.598 -0.1633 -0.6065 -0.5570
 4846poe    c2323584   0.743   3.269   3.607 -0.2850  0.1831  0.3316
 4846poe     o223585   0.695   3.161   3.684 -0.5045 -0.0749 -0.1587
 4846poe    c2323586   0.626   3.055   3.623  0.5143 -0.8618  0.0406
 4846poe    c2323587   0.576   2.946   3.719  0.3756 -0.6788  0.1759
 4846poe     o223588   0.480   2.986   3.815  0.1720  0.1157 -0.3531
 4846poe    c2323589   0.470   2.881   3.909 -0.3301  0.4277 -0.0568
 4846poe    c2323590   0.339   2.887   3.990  0.0956 -0.3034  0.6897
 4846poe     o223591   0.319   2.800   4.099 -0.9386 -0.2210  0.5699
 4846poe    c3123592   0.374   2.851   4.218 -0.7526  0.4073  0.2211
 4847poe    c3123593   5.787   6.526   0.405 -0.2042  0.0116  0.3687
 4847poe     o223594   5.793   6.650   0.471  0.4304  0.3448 -0.2967
 4847poe    c2323595   5.696   6.740   0.420 -0.2681 -0.3312 -0.1777
 4847poe    c2323596   5.675   6.859   0.515  0.1261 -0.4971  0.1240
 4847poe     o223597   5.559   6.936   0.490  0.2497 -0.2703  0.2578
 4847poe    c2323598   5.509   7.006   0.602 -0.4607 -0.1762 -0.1183
 4847poe    c2323599   5.584   7.129   0.657  0.3376 -0.6275 -0.1872
 4847poe     o223600   5.571   7.235   0.565 -0.3225 -0.5580 -0.0178
 4847poe    c2323601   5.610   7.353   0.631 -0.4570 -0.3942 -0.2301
 4847poe    c2323602   5.592   7.472   0.535 -0.3054  0.1406  0.3954
 4847poe     o223603   5.462   7.481   0.480 -0.1865  0.6931  0.1984
 4847poe    c3123604   5.478   7.563   0.366 -0.0036  0.2769 -0.0767
 4848poe    c3123605   5.429   1.299   4.345 -0.3300  0.1373  0.4529
 4848poe     o223606   5.476   1.424   4.389 -0.2110  0.1708  0.2346
 4848poe    c2323607   5.434   1.451   4.521  0.3033 -0.1611  0.4690
 4848poe    c2323608   5.484   1.595   4.543 -0.0555 -0.0490  0.5591
 4848poe     o223609   5.618   1.612   4.502 -0.1809 -1.1340 -0.3369
 4848poe    c2323610   5.652   1.749   4.505 -0.1685 -1.1303 -0.6411
 4848poe    c2323611   5.783   1.751   4.424  0.2073  0.1123 -0.0316
 4848poe     o223612   5.755   1.705   4.293 -0.0463 -0.1405  0.1096
 4848poe    c2323613   5.856   1.709   4.195  0.0211  0.1939  0.1906
 4848poe    c2323614   5.982   1.623   4.222  0.0484  0.1498 -0.0835
 4848poe     o223615   5.949   1.488   4.197  0.5059  0.1050 -0.4582
 4848poe    c3123616   6.053   1.399   4.164  0.1479 -0.4266 -0.1734
 4849poe    c3123617   4.268   4.749   2.771 -0.4471 -0.4832 -0.3381
 4849poe     o223618   4.369   4.818   2.702 -0.2178  0.1554  0.6258
 4849poe    c2323619   4.338   4.952   2.671  0.0377  0.0921  0.0908
 4849poe    c2323620   4.395   4.987   2.532  0.1219 -0.8644 -0.1211
 4849poe     o223621   4.531   4.952   2.528  0.3623  0.0629 -0.1932
 4849poe    c2323622   4.603   5.009   2.421  0.0994 -0.1371 -0.4761
 4849poe    c2323623   4.737   4.942   2.386  0.2840 -0.0838  0.1236
 4849poe     o223624   4.806   4.938   2.509  0.0248 -0.0063  0.2715
 4849poe    c2323625   4.912   4.846   2.518  0.2943  0.2921  0.1343
 4849poe    c2323626   4.993   4.873   2.647 -0.0904  0.4663  0.3411
 4849poe     o223627   4.930   4.833   2.766  0.0398  0.5766  0.4467
 4849poe    c3123628   5.012   4.846   2.880  0.3630  0.4490  0.2271
 4850poe    c3123629   6.832   2.017   1.431  0.2492 -0.7632  0.4514
 4850poe     o223630   6.959   1.962   1.404  0.5936  0.3439 -0.2210
 4850poe    c2323631   6.962   1.879   1.289  0.8882 -0.1000  0.1045
 4850poe    c2323632   6.975   1.731   1.331  0.1086 -0.2616 -0.2238
 4850poe     o223633   7.103   1.708   1.385  0.2472 -0.3290 -0.5811
 4850poe    c2323634   7.102   1.576   1.435  1.2404 -0.3525 -0.6047
 4850poe    c2323635   7.214   1.543   1.535  0.8781 -0.4502 -0.2257
 4850poe     o223636   7.227   1.634   1.642  0.3019 -0.3431 -0.2476
 4850poe    c2323637   7.284   1.570   1.754 -0.2101 -0.1983  0.1009
 4850poe    c2323638   7.348   1.662   1.859 -0.0117  0.0963 -0.2762
 4850poe     o223639   7.481   1.698   1.831  0.0360  0.2510  0.1410
 4850poe    c3123640   7.545   1.770   1.935 -0.2478  0.5585  0.1027
 4851poe    c3123641   0.511   5.971   4.655 -0.7589 -0.0680 -0.0712
 4851poe     o223642   0.545   6.040   4.773 -0.3557  0.1548 -0.3166
 4851poe    c2323643   0.469   6.155   4.806 -0.2945  0.0097  0.3464
 4851poe    c2323644   0.492   6.178   4.957 -0.4199  0.5296  0.2853
 4851poe     o223645   0.625   6.150   4.993 -0.5258 -0.4295 -0.0450
 4851poe    c2323646   0.655   6.215   5.114 -0.0663 -0.5333 -0.1035
 4851poe    c2323647   0.796   6.189   5.172  0.1430  0.1020 -0.3210
 4851poe     o223648   0.809   6.052   5.201  0.8884  0.0762 -0.7556
 4851poe    c2323649   0.925   6.025   5.278  0.3374  0.5936  0.2724
 4851poe    c2323650   0.960   5.877   5.303  0.0518  0.4966  0.1078
 4851poe     o223651   1.013   5.824   5.184 -0.2262  0.2221  0.1056
 4851poe    c3123652   1.042   5.687   5.200 -0.3634  0.1560 -0.1878
 4852poe    c3123653   3.740   3.215   4.827 -0.0908 -0.2257  0.4400
 4852poe     o223654   3.802   3.331   4.777 -0.2421 -0.4295 -0.2215
 4852poe    c2323655   3.940   3.320   4.803 -0.3081  0.2178  0.4376
 4852poe    c2323656   4.021   3.413   4.711 -0.0501 -0.2135  0.2221
 4852poe     o223657   4.009   3.551   4.737 -0.0042 -0.0975 -0.3565
 4852poe    c2323658   4.058   3.611   4.619  0.4399 -0.1188 -0.1847
 4852poe    c2323659   4.103   3.759   4.622  0.2874 -0.0734 -0.1264
 4852poe     o223660   3.991   3.843   4.611  0.3836  0.0796  0.0490
 4852poe    c2323661   4.031   3.976   4.589 -0.2610  0.1896 -0.4989
 4852poe    c2323662   3.914   4.075   4.595 -0.1648  0.2565  0.4271
 4852poe     o223663   3.825   4.073   4.485  0.0152 -0.7177  0.2932
 4852poe    c3123664   3.754   4.195   4.481  0.3671 -0.5086  0.3140
 4853poe    c3123665   2.438   2.417   7.115 -0.2573 -0.2410 -0.1722
 4853poe     o223666   2.314   2.458   7.168 -0.1424 -0.1750  0.0431
 4853poe    c2323667   2.257   2.569   7.102  0.4715  0.1939  0.1256
 4853poe    c2323668   2.175   2.521   6.981  0.3714  0.4646  0.0871
 4853poe     o223669   2.063   2.444   7.019  0.6926 -0.1868 -0.2744
 4853poe    c2323670   1.978   2.429   6.908 -0.2661  0.4199  0.3620
 4853poe    c2323671   1.837   2.384   6.953 -0.2133 -0.3741 -0.2388
 4853poe     o223672   1.845   2.249   6.994 -0.4403 -0.2303  0.2877
 4853poe    c2323673   1.735   2.213   7.075 -0.1831  0.4992  0.9784
 4853poe    c2323674   1.782   2.082   7.141 -0.0135  0.0063 -0.0844
 4853poe     o223675   1.892   2.106   7.227 -0.3732  0.0606  0.3670
 4853poe    c3123676   1.896   2.017   7.336  0.3241 -0.1836  0.1501
 4854poe    c3123677   7.410   3.535   0.535 -0.1643 -0.5144  0.3061
 4854poe     o223678   7.531   3.501   0.598  0.0936 -0.1938 -0.0118
 4854poe    c2323679   7.512   3.450   0.728 -0.3634 -0.1582 -0.0645
 4854poe    c2323680   7.649   3.405   0.782 -0.3841  0.0734  0.1809
 4854poe     o223681   7.728   3.521   0.792  0.3860 -0.3844 -0.5319
 4854poe    c2323682   7.862   3.506   0.834  0.1599 -0.4755  0.1656
 4854poe    c2323683   7.943   3.635   0.808 -0.2391 -0.2404  0.0772
 4854poe     o223684   7.967   3.668   0.674  0.3529 -0.4253  0.1364
 4854poe    c2323685   8.044   3.786   0.659 -0.5494  0.2060  0.3941
 4854poe    c2323686   8.098   3.786   0.514 -0.5027  0.2966  0.4119
 4854poe     o223687   8.003   3.814   0.414  0.1979  0.1031 -0.3155
 4854poe    c3123688   8.074   3.880   0.312  0.4050 -0.0354 -0.2614
 4855poe    c3123689   6.843   2.485   6.346 -0.0604 -0.5970  0.1829
 4855poe     o223690   6.905   2.516   6.469 -0.1271 -0.1448  0.1060
 4855poe    c2323691   6.881   2.651   6.499  0.1722  0.0183 -0.3685
 4855poe    c2323692   6.902   2.701   6.643 -0.2678 -0.3787 -0.1643
 4855poe     o223693   7.032   2.712   6.695 -0.4743 -0.0850  0.3080
 4855poe    c2323694   7.036   2.755   6.829 -0.1762 -0.1968  0.3373
 4855poe    c2323695   7.158   2.704   6.907 -0.1696  0.2174  0.6014
 4855poe     o223696   7.146   2.568   6.942 -0.0838  0.1034  0.1923
 4855poe    c2323697   7.241   2.540   7.043 -0.1904 -0.5044  0.1303
 4855poe    c2323698   7.296   2.396   7.040 -0.1962 -0.4981 -0.3581
 4855poe     o223699   7.365   2.389   6.917  0.3685  0.3911 -0.1050
 4855poe    c3123700   7.401   2.253   6.911 -0.2893  0.1850  0.4426
 4856poe    c3123701   3.809   4.893   3.669  0.3446  0.4625  0.7345
 4856poe     o223702   3.919   4.806   3.678  0.0305  0.0129  0.2856
 4856poe    c2323703   4.015   4.851   3.771  0.0085  0.0626  0.2844
 4856poe    c2323704   4.120   4.743   3.804 -0.6108 -0.8122 -0.5618
 4856poe     o223705   4.197   4.706   3.692  0.7189 -0.1153  0.0984
 4856poe    c2323706   4.176   4.570   3.659  0.2493 -0.0366  0.0703
 4856poe    c2323707   4.259   4.520   3.539 -0.0619  0.0007 -0.1622
 4856poe     o223708   4.230   4.592   3.422  0.2774  0.3213 -0.0515
 4856poe    c2323709   4.259   4.512   3.310 -0.0644 -0.4731  0.4228
 4856poe    c2323710   4.197   4.569   3.182  0.1317 -0.1424  0.4750
 4856poe     o223711   4.058   4.589   3.193  0.1320  0.0575  0.1339
 4856poe    c3123712   4.026   4.641   3.065 -0.0710 -0.0304  0.1483
 4857poe    c3123713   6.405   7.214   3.847  0.3026 -0.2967 -0.2863
 4857poe     o223714   6.469   7.162   3.733  0.1901 -1.0596 -0.0083
 4857poe    c2323715   6.606   7.138   3.759  0.4551 -0.0722 -0.4715
 4857poe    c2323716   6.677   7.070   3.641  0.2586  0.0691 -0.6726
 4857poe     o223717   6.642   6.934   3.634 -0.0849  0.1070  0.1768
 4857poe    c2323718   6.735   6.858   3.561 -0.5074 -0.3120  0.0663
 4857poe    c2323719   6.713   6.705   3.563  0.5270 -0.4710 -0.0126
 4857poe     o223720   6.701   6.645   3.690  0.7435 -0.0583  0.2054
 4857poe    c2323721   6.654   6.512   3.694 -0.2245  0.2631 -0.2139
 4857poe    c2323722   6.654   6.479   3.844  0.3820  0.5328 -0.1543
 4857poe     o223723   6.581   6.583   3.905 -0.3118  0.0489 -0.1576
 4857poe    c3123724   6.577   6.586   4.046  0.0734  0.4844 -0.1546
 4858poe    c3123725   3.814   2.066   5.620  0.0648  0.0861 -0.0452
 4858poe     o223726   3.701   2.072   5.536  0.0294  0.3703  0.0219
 4858poe    c2323727   3.607   2.159   5.594 -0.6667 -0.3897  0.0449
 4858poe    c2323728   3.511   2.204   5.482 -0.6468 -0.9654 -0.2093
 4858poe     o223729   3.590   2.275   5.389 -0.5752 -0.0596  0.5282
 4858poe    c2323730   3.500   2.335   5.299  0.5094  0.8124 -0.0116
 4858poe    c2323731   3.558   2.455   5.224  0.1809  0.7863 -0.3129
 4858poe     o223732   3.650   2.426   5.121  0.2072 -0.3265  0.0187
 4858poe    c2323733   3.703   2.539   5.057 -0.1675  0.1713  0.5804
 4858poe    c2323734   3.784   2.506   4.930  0.4091  0.0067  0.9854
 4858poe     o223735   3.900   2.427   4.936  0.1938 -0.4151 -0.0948
 4858poe    c3123736   3.945   2.395   4.806 -0.2265  0.1644 -0.3853
 4859poe    c3123737   3.020   5.855   3.425 -0.4450 -0.0070  0.0222
 4859poe     o223738   3.144   5.868   3.490 -0.5021  0.7925 -0.0233
 4859poe    c2323739   3.141   5.807   3.617  0.5122 -0.3051 -0.5000
 4859poe    c2323740   3.258   5.855   3.705  0.0279  0.0647 -0.0490
 4859poe     o223741   3.380   5.800   3.662 -0.2091 -0.6553  0.1931
 4859poe    c2323742   3.469   5.812   3.771 -0.0874 -0.0646  0.0312
 4859poe    c2323743   3.606   5.750   3.735  0.0437  0.1439  0.1688
 4859poe     o223744   3.695   5.817   3.649 -0.0494 -0.2787 -0.2639
 4859poe    c2323745   3.821   5.755   3.653  0.0684 -0.0162  0.1434
 4859poe    c2323746   3.891   5.745   3.516  0.6762 -0.1074  0.4575
 4859poe     o223747   3.815   5.677   3.419  0.6167  0.2194  0.2759
 4859poe    c3123748   3.892   5.641   3.307 -0.1134  0.1737 -0.2174
 4860poe    c3123749   6.869   3.303   3.357 -0.3120 -0.0702 -0.3118
 4860poe     o223750   6.963   3.204   3.319 -0.3333 -0.3212  0.2777
 4860poe    c2323751   7.024   3.237   3.197  0.1084 -0.2808  0.5089
 4860poe    c2323752   7.129   3.128   3.166  0.2949  0.0236  0.0493
 4860poe     o223753   7.076   3.020   3.240  0.1479  0.0141 -0.0707
 4860poe    c2323754   7.160   2.907   3.236  0.1593  0.0217 -0.0248
 4860poe    c2323755   7.069   2.785   3.258  0.0136  0.1634  0.1609
 4860poe     o223756   6.996   2.795   3.378 -0.0300 -0.3395  0.1759
 4860poe    c2323757   7.003   2.671   3.445 -0.6062 -0.4502  0.0343
 4860poe    c2323758   6.973   2.715   3.589  0.1203  0.3431 -0.0519
 4860poe     o223759   7.055   2.815   3.645  0.1737  0.4483 -0.3174
 4860poe    c3123760   7.084   2.788   3.780 -0.3241  0.8254 -0.1297
 4861lim     li23761   6.921   3.384   5.481 -0.0789  0.5181  0.1006
 4862lim     li23762   3.636   1.096   3.752 -0.0912 -0.2670 -0.3898
 4863lim     li23763   1.279   6.776   3.331 -0.3167  0.7549  0.9410
 4864lim     li23764   0.253   3.332   3.475  0.0200  0.4634  0.3797
 4865lim     li23765   0.960   5.094   5.285  0.3872 -0.7475 -0.1965
 4866lim     li23766   3.547   1.790   5.338 -0.6650  0.6814  0.5464
 4867lim     li23767   7.088   5.442   4.079  0.1332  0.0958 -0.4105
 4868lim     li23768   1.830   7.184   6.692  0.6509 -1.0091  0.2737
 4869lim     li23769   2.223   0.436   5.448 -0.1668  0.4830 -0.5464
 4870lim     li23770   3.247   0.001   5.016 -0.7830  0.4877  0.1950
 4871lim     li23771   2.244   1.368   1.183  0.2659  0.2445 -0.0196
 4872lim     li23772   7.382   6.848   6.988 -0.2098 -0.8985 -1.6375
 4873lim     li23773   3.194   2.344   3.240  0.4474 -0.5542  0.2399
 4874lim     li23774   6.170   5.827   0.483 -0.3778 -0.7473  0.3173
 4875lim     li23775   7.061   4.469   3.880  0.3943 -0.1598  0.0698
 4876lim     li23776   0.247   1.375   2.551 -0.3705  0.1930  0.2092
 4877lim     li23777   5.870   6.086   1.575 -0.3773 -1.3589  0.5210
 4878lim     li23778   4.548   2.219   2.436 -0.5234 -0.6308 -0.7179
 4879lim     li23779   5.067   0.853   5.842 -0.1202  0.3159  0.6347
 4880lim     li23780   7.203   3.584   7.160 -0.1615 -0.7606  1.1474
 4881lim     li23781   2.786   2.370   1.463 -0.2480 -0.1053 -0.4071
 4882lim     li23782   2.241   5.667   4.006  0.8088  0.0614  1.0921
 4883lim     li23783   6.922   2.144   6.579 -0.8873  0.4059  0.5724
 4884lim     li23784   5.765   7.242   7.283 -0.1076  0.3116 -1.3570
 4885lim     li23785   3.310   1.720   2.381  0.7161  0.6107  0.0493
 4886lim     li23786   5.297   3.810   1.524  0.1025 -0.2041 -0.6031
 4887lim     li23787   4.015   2.312   1.203 -0.0284  0.3969  0.5935
 4888lim     li23788   0.736   5.124   4.295  0.9887 -0.4893 -0.3174
 4889lim     li23789   3.095   0.077   2.713  0.1716  1.1975  0.1758
 4890lim     li23790   1.445   3.969   5.815 -0.2774 -0.5555  0.1369
 4891lim     li23791   3.954   5.585   2.155  0.2408 -0.2151 -0.1657
 4892lim     li23792   1.695   6.363   4.702 -0.1807  0.3582 -0.1016
 4893lim     li23793   2.790   7.314   1.643  0.0659  0.0258  0.0723
 4894lim     li23794   2.814   5.271   1.227 -0.6404  0.6814  0.8211
 4895lim     li23795   1.233   4.054   2.875 -0.3513  0.7047 -0.1945
 4896lim     li23796   1.828   6.584   2.241 -0.7002  0.2012  0.0039
 4897lim     li23797   1.702   6.365   6.957 -0.3236  0.3513 -0.5432
 4898lim     li23798   7.269   3.039   0.689 -0.3291  0.5627 -0.0952
 4899lim     li23799   5.709   3.963   5.926  0.5180  1.0496 -0.4704
 4900lim     li23800   0.630   3.166   5.335  0.2281  0.3396 -1.3058
 4901lim     li23801   6.743   7.331   6.047 -0.1649 -0.7251 -0.0534
 4902lim     li23802   1.604   4.960   4.989 -0.4527 -1.0262 -0.4364
 4903lim     li23803   0.455   7.230   3.933  0.2043  0.4855  0.3018
 4904lim     li23804   2.211   1.732   4.309  0.2720 -0.4101 -0.5966
 4905lim     li23805   1.331   5.322   4.603 -0.5293  0.5798 -0.0409
 4906lim     li23806   6.497   7.066   2.846 -0.1248  0.4831 -1.2022
 4907lim     li23807   1.355   0.012   6.939 -1.0003  0.8152  0.1009
 4908lim     li23808   2.166   1.175   6.284  0.9082 -0.6073 -0.2255
 4909lim     li23809   6.502   7.251   3.264  0.7402 -0.4175 -0.2603
 4910lim     li23810   1.272   6.863   1.063 -0.3427  0.5103 -0.2351
 4911lim     li23811   3.473   5.957   3.344  0.5465 -0.5558  0.6619
 4912lim     li23812   0.345   7.422   7.403  0.4154 -0.1360 -0.6104
 4913lim     li23813   0.615   0.599   3.917 -0.2295 -0.3234 -0.6308
 4914lim     li23814   3.493   6.721   3.531 -0.1018  0.3289 -0.0519
 4915lim     li23815   2.420   7.221   3.876 -1.2729 -0.2232 -0.6122
 4916lim     li23816   3.722   0.336   1.611  0.0648 -0.8213 -0.1814
 4917lim     li23817   4.965   1.643   3.242  1.1361 -0.4081 -0.8290
 4918lim     li23818   1.431   5.134   6.416 -0.3315  0.7096  0.8080
 4919lim     li23819   2.699   2.844   2.956 -0.6332  0.3297  1.1573
 4920lim     li23820   6.890   3.727   3.449 -0.1908  0.3032 -1.1857
 4921lim     li23821   1.092   3.140   6.295 -0.6758 -0.4739  0.7963
 4922lim     li23822   7.299   0.333   6.431 -0.1146 -0.2241 -0.2506
 4923lim     li23823   5.406   2.625   0.237 -0.6929 -0.1546 -0.3875
 4924lim     li23824   2.368   0.157   5.108 -0.5666 -0.6696  0.3623
 4925lim     li23825   5.437   1.066   0.006 -0.6688 -0.1011  0.1971
 4926lim     li23826   2.290   1.338   1.663  1.0310  0.2583 -0.2015
 4927lim     li23827   0.804   4.207   6.090  0.7155  0.4534  0.0440
 4928lim     li23828   3.222   4.774   4.032  0.5634 -0.3434 -0.5466
 4929lim     li23829   6.970   3.013   3.376  0.0465 -0.3447  0.5293
 4930lim     li23830   1.118   2.235   3.869  0.8005 -0.9130 -1.0206
 4931lim     li23831   0.454   3.703   6.103  0.3734 -1.2496  0.1710
 4932lim     li23832   2.644   0.502   2.942 -0.3168  0.2067 -0.4640
 4933lim     li23833   1.696   3.346   2.881 -0.2422  0.0597 -0.2853
 4934lim     li23834   7.156   1.087   5.436  0.9653 -0.3733 -0.1324
 4935lim     li23835   6.009   3.725   4.435  0.3150 -0.0246 -0.7244
 4936lim     li23836   0.720   0.702   5.588 -0.2096  0.0145 -0.5726
 4937lim     li23837   4.852   3.842   0.235 -0.6805 -0.1854  0.5576
 4938lim     li23838   6.866   1.717   1.830 -0.9260  0.6438  0.2291
 4939lim     li23839   6.759   6.171   2.200 -0.2694 -0.2878 -0.0836
 4940lim     li23840   2.369   4.476   6.377 -0.8581 -0.0318  1.7587
 4941lim     li23841   5.617   1.521   4.336 -0.3672  1.0709  0.0250
 4942lim     li23842   5.639   0.485   4.462 -0.6423 -0.3284  0.1730
 4943lim     li23843   4.457   0.269   2.101 -0.7459  0.0228  0.1424
 4944lim     li23844   2.779   2.110   2.050  0.2467  0.4320 -0.0739
 4945lim     li23845   3.968   6.417   7.091  0.0124  0.7710 -0.2868
 4946lim     li23846   4.279   1.916   1.593  0.4326  0.8851 -0.4866
 4947lim     li23847   2.890   0.935   0.004 -0.0176 -0.6353 -0.0017
 4948lim     li23848   5.242   4.743   6.893  1.0186  0.4651  0.7019
 4949lim     li23849   0.255   5.190   2.926 -0.6444  1.1704  0.8647
 4950lim     li23850   6.133   3.973   7.162  0.3372 -0.2161 -0.7130
 4951lim     li23851   0.117   2.108   3.469 -0.3431 -0.4699  0.1744
 4952lim     li23852   1.915   0.481   7.103 -0.0417  0.6363  0.0025
 4953lim     li23853   0.771   3.218   4.067 -0.3969 -0.6602 -0.2180
 4954lim     li23854   3.034   3.212   0.170 -0.1122 -0.2680 -0.1281
 4955lim     li23855   0.367   3.775   0.407 -0.0080  0.5622  0.5023
 4956lim     li23856   4.683   5.862   6.550 -0.7335 -0.0567  0.6212
 4957lim     li23857   6.728   3.082   4.077 -0.0301 -0.1429 -0.3827
 4958lim     li23858   2.689   6.348   0.387  0.4361  0.5261  0.1339
 4959lim     li23859   1.116   3.872   1.792  0.7037 -0.0273  0.4997
 4960lim     li23860   4.658   0.214   0.370  0.4839  1.2483  0.9801
 4961lim     li23861   0.821   5.286   6.022  1.0424  0.5233 -0.3119
 4962lim     li23862   6.118   4.829   0.022 -0.6904 -0.3665 -0.7020
 4963lim     li23863   6.532   1.292   0.110  0.9055  0.2028  0.0362
 4964lim     li23864   0.491   2.794   0.160  0.6441  0.2260 -0.8834
 4965lim     li23865   2.160   1.824   3.021 -0.8265  1.3969  1.2413
 4966lim     li23866   1.369   3.041   0.140  0.2487 -0.5517 -1.0918
 4967lim     li23867   1.663   1.459   2.301  0.7786  0.1907  0.4735
 4968lim     li23868   5.061   2.595   5.144  0.5920  0.5247  0.3245
 4969lim     li23869   2.786   4.814   4.985 -0.8549 -0.4796 -0.2596
 4970lim     li23870   7.422   3.354   4.550 -0.3840  0.4630  0.6920
 4971lim     li23871   5.404   1.969   0.368 -0.4326 -0.0602  0.0778
 4972lim     li23872   2.181   4.175   4.467  0.9382  0.8560 -0.3943
 4973lim     li23873   4.871   3.070   1.712  0.4129  0.0671 -0.6476
 4974lim     li23874   1.385   1.933   3.115 -0.5327  0.1913  0.2755
 4975lim     li23875   1.862   0.530   4.020 -0.7328 -0.9766  0.0800
 4976lim     li23876   5.636   5.277   6.622 -0.8881  1.6617  1.4839
 4977lim     li23877   4.866   3.056   5.541 -0.0452  0.2245 -0.3956
 4978lim     li23878   3.665   6.565   1.285  0.4181  1.0913  1.1297
 4979lim     li23879   6.996   1.586   7.297  0.0060 -1.0899 -0.2909
 4980lim     li23880   7.469   1.898   1.507 -0.5306 -0.7147  0.2661
 4981lim     li23881   0.086   4.767   0.166 -0.1052 -0.0324 -0.3632
 4982lim     li23882   3.887   3.926   1.974  0.8040  0.7083  1.0140
 4983lim     li23883   5.158   4.138   2.604  0.1139  0.2096 -0.3153
 4984lim     li23884   4.154   4.988   3.438  0.2375 -0.3399 -0.1861
 4985lim     li23885   2.239   5.710   5.002 -0.3610 -0.8292  0.3267
 4986lim     li23886   5.462   1.903   3.951 -0.9541 -0.1739  0.5586
 4987lim     li23887   6.214   3.711   0.877 -0.6398  0.4099  1.2155
 4988lim     li23888   2.524   4.980   4.270 -0.8867  0.6650  0.1616
 4989lim     li23889   6.508   0.183   4.147  0.2516  0.5486 -0.8675
 4990lim     li23890   2.258   2.273   0.069 -0.0140 -0.0477 -0.1579
 4991lim     li23891   7.202   1.351   3.436  0.0878  0.4853  0.2916
 4992lim     li23892   5.095   5.825   5.466  0.1884 -0.4899  0.5587
 4993lim     li23893   0.344   4.023   5.131  0.3724  0.0892 -0.5734
 4994lim     li23894   6.929   0.649   0.904  0.4158 -0.6643  0.2679
 4995lim     li23895   1.829   3.997   7.229  1.2237 -0.4550 -1.2849
 4996lim     li23896   3.655   6.170   2.790 -1.2898  0.0218 -0.1102
 4997lim     li23897   0.407   4.537   5.962 -0.2180 -0.0369  0.6439
 4998lim     li23898   2.457   4.675   2.164 -0.2642  0.5460 -0.1887
 4999lim     li23899   1.400   6.587   3.990  0.3968  0.4387  0.1677
 5000lim     li23900   2.938   1.622   4.077  1.0813 -0.1397  0.1977
 5001lim     li23901   5.522   3.197   3.816  0.1237  0.3332  0.6334
 5002lim     li23902   6.069   2.761   3.013 -0.0459  0.4841  0.7841
 5003lim     li23903   6.093   0.007   5.098 -0.2068  0.1528  1.0536
 5004lim     li23904   1.871   3.277   3.687 -0.5625 -0.3818 -0.4748
 5005lim     li23905   3.353   3.909   4.830  0.2915  0.4256 -0.4308
 5006lim     li23906   5.721   4.171   1.937 -0.2302 -0.3394 -0.3520
 5007lim     li23907   4.568   4.403   7.463 -0.0264 -0.1171 -1.0474
 5008lim     li23908   6.584   6.749   3.808  0.2299  0.8128 -1.1174
 5009lim     li23909   3.086   6.635   2.395 -0.6945  0.2772 -1.3310
 5010lim     li23910   4.587   7.353   4.281 -0.6039  0.1173 -0.4518
 5011lim     li23911   5.225   2.066   1.218 -0.4657 -0.1468  0.1635
 5012lim     li23912   0.334   6.648   1.771 -0.2463  0.5981 -1.3489
 5013lim     li23913   3.956   0.841   1.658 -0.0881  0.8129 -0.6037
 5014lim     li23914   1.557   6.950   5.413  0.5846 -0.5397 -0.2256
 5015lim     li23915   5.446   4.476   5.523  0.1958  0.2570  0.5529
 5016lim     li23916   0.237   5.613   7.457  1.2570 -1.7852  0.7857
 5017lim     li23917   2.991   0.011   5.957 -1.4387  0.4611 -0.0216
 5018lim     li23918   3.875   3.773   4.210 -0.6158 -1.4566  0.4255
 5019lim     li23919   7.363   6.009   6.364 -0.3773 -0.0088 -0.2406
 5020lim     li23920   0.507   3.589   7.204  0.2639  1.2123 -0.7837
 5021lim     li23921   6.121   5.890   4.439  0.0803 -0.0490  0.5900
 5022lim     li23922   3.580   4.349   1.903  1.0364  0.0273  0.9913
 5023lim     li23923   3.624   1.803   0.024 -0.3386  0.0654  1.2350
 5024lim     li23924   1.563   3.475   4.610 -0.2879 -0.3549  0.2115
 5025lim     li23925   3.981   5.113   4.659 -0.4883 -0.8583 -1.1459
 5026lim     li23926   3.474   2.749   6.880  0.4140  0.3006  0.6182
 5027lim     li23927   3.489   5.226   4.761  0.5681 -0.4573 -0.6254
 5028lim     li23928   7.422   1.825   0.607  0.3172 -0.5188  0.4124
 5029lim     li23929   3.611   0.565   0.322  0.1976  0.9587  0.7404
 5030lim     li23930   5.870   6.661   4.826 -0.2007  0.9310 -0.7570
 5031lim     li23931   5.137   5.839   6.967 -0.9362 -0.5309  0.3365
 5032lim     li23932   1.358   4.342   4.096 -0.3238  0.5842  0.8345
 5033lim     li23933   5.461   4.820   1.525  0.3634  0.0065 -0.0689
 5034lim     li23934   5.083   5.030   6.535  0.4940 -0.2114  1.3460
 5035lim     li23935   4.514   2.250   6.581 -0.4129 -0.5933 -0.3778
 5036lim     li23936   2.405   0.474   0.418 -0.1247  0.7435  1.0799
 5037lim     li23937   6.131   3.385   6.968 -0.4251 -0.5951  0.0986
 5038lim     li23938   3.494   7.387   7.467 -0.3875 -0.4539 -0.4140
 5039lim     li23939   2.755   5.204   6.967 -0.2669  0.7395 -0.6810
 5040lim     li23940   3.817   3.043   2.512 -0.1142 -0.3928 -0.0438
 5041lim     li23941   7.012   6.030   4.963 -0.3187  0.2275 -0.4290
 5042lim     li23942   6.903   0.740   3.705  0.8980 -1.6722  0.4250
 5043lim     li23943   3.083   3.472   0.875  0.2666 -1.0594  0.0446
 5044lim     li23944   6.652   0.711   7.380  0.0602  0.4536  1.1417
 5045lim     li23945   6.638   2.020   5.297 -1.2527 -1.2617 -0.2998
 5046lim     li23946   4.167   3.387   6.107 -0.8833 -0.6095 -0.6818
 5047lim     li23947   0.691   4.752   7.211  0.9303  0.1294  0.0936
 5048lim     li23948   0.765   6.486   0.512  0.4270  0.3081  0.2289
 5049lim     li23949   3.732   1.767   4.560  0.4917  0.4398  0.3438
 5050lim     li23950   1.739   5.562   5.546 -0.8772  0.0607 -0.4720
 5051lim     li23951   2.493   6.708   7.209  0.2183  0.0801  1.0573
 5052lim     li23952   1.766   0.294   2.390 -0.3304  0.2451 -0.5989
 5053lim     li23953   6.526   2.238   2.381 -0.2561 -0.4882  0.4105
 5054lim     li23954   0.238   5.285   0.926 -0.2816  0.0921 -0.8854
 5055lim     li23955   5.606   5.127   3.480  0.5038  0.0140 -0.1315
 5056lim     li23956   0.872   7.434   5.925  0.6039  0.4734  0.6189
 5057lim     li23957   3.291   1.746   1.007 -0.0829  0.3781  0.1242
 5058lim     li23958   3.672   5.030   5.601  0.1010  0.6100 -0.1689
 5059lim     li23959   0.752   5.389   1.695 -0.2798  0.3708  1.0466
 5060lim     li23960   3.244   6.218   6.598 -0.9008 -0.0891 -0.4189
 5061lim     li23961   5.344   7.316   4.733  0.5246  0.2939  0.2539
 5062lim     li23962   5.060   2.305   7.119 -0.0600  0.4523  0.1306
 5063lim     li23963   4.859   1.292   6.399  0.0935  0.4786 -0.0534
 5064lim     li23964   1.504   1.436   0.485 -0.7701  0.5884 -0.5606
 5065lim     li23965   0.547   5.889   7.189  0.3825 -1.7066 -0.8015
 5066lim     li23966   7.336   2.024   4.451  1.0634 -0.3199  0.6094
 5067lim     li23967   4.829   4.150   5.225 -0.4100 -0.4142 -0.7451
 5068lim     li23968   4.736   6.421   3.904 -0.1214  0.0011 -0.1868
 5069lim     li23969   0.192   3.197   1.409 -0.9610  0.6140 -0.6480
 5070lim     li23970   6.782   2.498   5.168 -0.1920 -0.1649  0.4856
 5071lim     li23971   2.430   2.557   4.484 -0.0181  0.8478  0.1604
 5072lim     li23972   4.167   0.238   2.827  0.3806  0.0870  0.5543
 5073lim     li23973   5.132   0.415   2.527 -0.3044 -0.1984 -0.1853
 5074lim     li23974   4.198   7.401   3.762  0.4196  0.7760 -0.0269
 5075lim     li23975   3.334   4.815   7.208  1.0110  0.1127 -0.0547
 5076lim     li23976   5.523   0.289   3.496  0.2118  0.6078  1.1200
 5077lim     li23977   5.609   3.238   2.090 -1.2376  0.7174 -0.2539
 5078lim     li23978   2.696   6.446   1.866 -0.0255  0.3390  0.8785
 5079lim     li23979   7.214   4.807   4.523  0.0996 -0.0936  0.4829
 5080lim     li23980   6.997   7.372   1.934 -1.1116  0.4720  0.9479
 5081lim     li23981   3.063   0.149   1.319 -0.0075  0.5588 -0.1250
 5082lim     li23982   6.275   2.343   3.876 -0.0702  0.0964 -1.2668
 5083lim     li23983   5.690   6.803   2.704  1.1107 -0.4374  1.0409
 5084lim     li23984   3.950   5.296   1.274 -0.0612  0.4385 -0.8307
 5085lim     li23985   4.543   3.461   0.566  0.3183  0.6452  0.0309
 5086lim     li23986   1.902   3.263   7.177 -0.2258  0.1261  0.1307
 5087lim     li23987   4.504   1.484   4.100 -0.1580 -1.1290 -0.3164
 5088lim     li23988   3.274   7.340   4.348 -0.7323 -0.2636 -0.2916
 5089lim     li23989   0.466   1.136   2.057 -1.0793 -1.2925 -0.0607
 5090lim     li23990   2.424   6.733   3.442  0.4191  0.2087  0.3738
 5091lim     li23991   1.046   2.073   4.570 -0.3085  1.1404 -0.1569
 5092lim     li23992   0.546   5.679   5.534  0.1208  0.6560 -0.5930
 5093lim     li23993   0.949   0.895   0.672  0.0022 -0.5168  0.5603
 5094lim     li23994   0.292   2.000   5.015 -0.5691  0.0689  0.8925
 5095lim     li23995   4.803   5.574   3.092 -1.2246  0.5134  0.7856
 5096lim     li23996   3.104   5.148   2.045 -0.0489 -0.2339 -0.6779
 5097lim     li23997   0.447   4.556   1.205  0.3731 -0.0916 -0.4728
 5098lim     li23998   3.546   3.445   5.598 -0.4430 -0.2835 -1.3183
 5099lim     li23999   5.698   5.155   4.588  0.0670 -0.7298  1.3371
 5100lim     li24000   4.751   4.853   5.156  0.0848  1.2117 -0.4611
 5101lim     li24001   1.221   6.426   6.085 -0.5342 -1.3089 -0.4050
 5102lim     li24002   1.200   4.351   1.005 -0.1245  0.2166 -0.3042
 5103lim     li24003   4.802   7.459   1.262 -0.1422 -0.1306  0.3761
 5104lim     li24004   5.855   4.096   3.136 -0.6077  0.2772 -0.4966
 5105lim     li24005   3.081   6.005   1.486  0.2718 -0.2677 -1.2015
 5106lim     li24006   6.151   3.454   2.995  0.3319 -0.1579 -0.8929
 5107lim     li24007   0.232   0.742   6.775 -0.8085 -0.2002 -0.7165
 5108lim     li24008   2.748   5.434   2.929  0.0864  0.0820  1.5778
 5109lim     li24009   7.017   3.662   4.786 -0.0176 -0.4310  0.4272
 5110lim     li24010   1.530   0.038   5.941 -0.1308  0.2947  0.9397
 5111lim     li24011   0.559   3.951   4.335 -1.4465  0.3028 -0.1782
 5112lim     li24012   5.591   6.816   4.109 -0.7558  0.5326 -1.0822
 5113lim     li24013   7.462   6.938   6.468  0.8037  0.6553 -0.0088
 5114lim     li24014   6.613   4.724   7.160 -0.4787 -0.4072  0.1127
 5115lim     li24015   3.293   7.062   5.546  0.3191 -0.4421  0.0485
 5116lim     li24016   0.094   6.229   0.606  0.3096 -0.3564 -0.4818
 5117lim     li24017   5.105   4.118   3.696  0.2429  0.6246 -0.5089
 5118lim     li24018   6.467   3.232   1.726  0.4089  0.3298 -0.8180
 5119lim     li24019   1.551   4.046   0.366  0.4764  0.6396  0.1238
 5120lim     li24020   1.006   2.889   5.104  0.8514 -1.3255 -0.6721
 5121lim     li24021   1.953   2.944   4.981  0.5134  0.5633 -0.0711
 5122lim     li24022   5.009   1.802   5.422  0.0489 -0.0923 -0.1622
 5123lim     li24023   7.462   2.301   0.712 -0.6569 -0.2342 -0.1752
 5124lim     li24024   6.329   6.491   2.410  0.0712  0.1166  0.5541
 5125lim     li24025   0.352   2.936   7.024  1.3426  0.2202 -0.9156
 5126lim     li24026   2.630   3.396   6.435  0.2221  0.7326  0.2031
 5127lim     li24027   5.696   5.480   2.297 -0.2086  0.2153 -0.6985
 5128lim     li24028   7.390   0.762   5.109  0.2080 -0.4112 -0.5166
 5129lim     li24029   5.624   3.043   4.794 -0.5390  0.8079  0.0823
 5130lim     li24030   2.594   4.589   0.921 -0.2567  0.2154  0.4109
 5131lim     li24031   2.438   1.033   7.106  0.6225  0.5853 -0.4602
 5132lim     li24032   4.432   0.261   5.469 -0.0765  0.2112 -0.2790
 5133lim     li24033   6.715   5.959   1.186  0.3274  0.1808  0.4407
 5134lim     li24034   1.478   5.452   0.490  0.3631  0.3325  0.3443
 5135lim     li24035   0.025   1.760   5.667 -0.5824  0.9116  0.1838
 5136lim     li24036   0.859   2.642   3.096  0.0657 -0.4830 -0.2174
 5137lim     li24037   4.495   5.684   5.210 -0.6633  0.3443 -0.8285
 5138lim     li24038   3.341   2.590   4.110 -0.0345 -0.1689 -0.7036
 5139lim     li24039   3.592   1.085   7.117 -0.4789  0.4578  1.1653
 5140lim     li24040   1.940   2.081   1.476  0.7752 -0.7324 -0.6368
 5141lim     li24041   3.156   0.712   4.797 -0.3647 -0.3351 -0.1549
 5142lim     li24042   1.194   6.633   2.313  0.2683  0.2062 -0.3942
 5143lim     li24043   4.048   1.869   2.784  1.3258  0.3925  0.0887
 5144lim     li24044   0.783   1.707   6.003  0.5888  0.0252  0.6109
 5145lim     li24045   6.359   5.708   6.853  0.8748 -0.4635  0.8274
 5146lim     li24046   3.602   5.109   0.175  1.8480  0.5389 -0.8075
 5147lim     li24047   6.208   1.412   3.571 -0.0949  0.3040  0.5811
 5148lim     li24048   4.388   2.669   4.905  0.4388  0.9940 -0.0404
 5149lim     li24049   6.933   2.458   1.627 -0.3615  0.6751 -0.3577
 5150lim     li24050   4.834   1.763   6.931  0.7597  0.5340 -0.6319
 5151lim     li24051   3.315   0.509   3.714 -0.2378 -0.3494  0.0258
 5152lim     li24052   5.207   7.090   2.616  0.2216  0.7294  0.0653
 5153lim     li24053   3.560   1.543   6.344 -0.8013  0.1117  0.3127
 5154lim     li24054   0.171   2.895   6.492  0.4992  0.9551 -0.7359
 5155lim     li24055   6.023   2.195   1.181 -0.6563  1.0718  0.5119
 5156lim     li24056   1.336   5.114   2.000 -0.3276 -0.4841  0.1775
 5157lim     li24057   0.539   7.093   2.444 -1.2629 -0.4576  0.4977
 5158lim     li24058   0.523   6.391   6.701 -0.3488 -0.2194 -0.6900
 5159lim     li24059   5.223   3.686   4.224 -0.8845  0.4417 -0.5354
 5160lim     li24060   2.805   1.593   5.741 -0.4928  0.6253  1.2206
 5161lim     li24061   4.215   5.117   2.061 -0.7578 -0.5584  0.1732
 5162lim     li24062   2.016   7.465   4.488  0.6342 -0.4112 -0.8950
 5163lim     li24063   7.172   3.997   6.375 -0.3842 -0.5987  0.5196
 5164lim     li24064   3.248   3.951   7.146 -0.1527 -1.1296 -0.3175
 5165lim     li24065   0.459   3.595   2.857 -0.3044 -0.1821  0.2067
 5166lim     li24066   6.372   7.256   1.403 -0.0968  0.1844  0.1211
 5167lim     li24067   4.780   6.873   4.776 -1.0079 -0.0810 -1.1935
 5168lim     li24068   1.799   1.348   4.319  0.7326  0.1547 -0.2313
 5169lim     li24069   6.419   4.901   3.760  0.1383 -0.4554 -0.7778
 5170lim     li24070   0.211   5.423   3.355 -0.6009 -0.7833  0.8408
 5171lim     li24071   0.663   1.225   1.563  0.7712 -0.3239  0.3980
 5172lim     li24072   7.181   4.653   5.199 -0.4873  0.8239 -0.7466
 5173lim     li24073   3.177   2.073   5.119  1.8071  1.0298  0.2229
 5174lim     li24074   7.277   4.785   6.340  0.0257 -0.2899  0.6245
 5175lim     li24075   2.610   2.376   6.376 -0.3565 -0.2321 -0.0144
 5176lim     li24076   1.991   4.615   3.155 -0.1894 -0.3045  0.1680
 5177lim     li24077   4.824   2.202   1.704 -0.1895 -1.0246  0.6614
 5178lim     li24078   3.840   3.988   5.240 -0.1771 -0.4737  0.5192
 5179lim     li24079   3.701   2.594   3.495 -0.0015 -0.0311 -0.1895
 5180lim     li24080   1.412   5.082   3.376 -0.5908  1.1053 -0.0051
 5181lim     li24081   4.161   4.132   4.159  0.5276  0.7109  1.0415
 5182lim     li24082   3.994   6.218   0.737 -0.7759  0.0541 -0.4508
 5183lim     li24083   4.720   6.362   1.686  0.1397  1.0911 -0.0799
 5184lim     li24084   6.367   7.142   5.721 -0.7011  0.1997 -0.9317
 5185lim     li24085   6.135   0.972   2.427 -0.6540 -0.4376 -0.4694
 5186lim     li24086   3.245   2.434   0.487  0.2492  0.1813 -0.5456
 5187lim     li24087   1.797   1.883   0.815  0.1482 -0.6654 -0.0090
 5188lim     li24088   0.064   5.611   2.124 -0.0217  0.0512 -0.4815
 5189lim     li24089   6.302   3.810   4.890  0.1587  0.2922 -0.3756
 5190lim     li24090   3.606   3.408   1.652  0.2754  0.3633 -0.3190
 5191lim     li24091   3.148   3.330   2.747 -0.2339 -0.1088 -0.7418
 5192lim     li24092   4.577   5.149   0.553 -0.4147  0.0710  0.2016
 5193lim     li24093   2.269   2.831   2.641  1.3401  0.3119  0.5757
 5194lim     li24094   2.051   2.629   5.668 -0.3978 -0.2129  0.3164
 5195lim     li24095   2.903   5.534   2.319 -1.0914 -0.4329 -0.1687
 5196lim     li24096   7.325   1.337   4.398  0.0986 -0.6848 -1.6028
 5197lim     li24097   5.178   2.970   6.583 -0.9956 -0.5471  1.1972
 5198lim     li24098   5.612   7.104   3.463 -0.4816  0.2260 -0.1843
 5199lim     li24099   3.976   0.766   0.795 -0.1482  0.3696 -0.7938
 5200lim     li24100   1.353   1.059   3.898  0.2144 -1.0120 -0.0847
 5201lim     li24101   2.259   3.255   1.611 -0.0643  0.7372 -0.3553
 5202lim     li24102   3.632   3.981   0.743 -0.2415 -0.5637  0.0865
 5203lim     li24103   0.912   0.275   2.650 -0.0294 -0.4903  0.1458
 5204lim     li24104   1.335   0.266   4.903  0.8610 -1.0014  1.0009
 5205lim     li24105   5.689   3.063   1.266 -0.3246  0.7847  0.6365
 5206lim     li24106   5.488   7.272   1.734 -0.2234 -0.5452  0.5956
 5207lim     li24107   3.885   2.530   5.492  0.4965  1.4698  0.4290
 5208lim     li24108   5.597   4.317   0.442  0.1391  0.1431 -0.5228
 5209lim     li24109   0.346   4.270   3.742  0.2443  0.6280  0.9760
 5210lim     li24110   1.773   6.175   1.287 -0.2791  0.5744 -1.5309
 5211lim     li24111   2.989   6.906   3.222 -0.0159  0.7405 -0.2008
 5212lim     li24112   3.963   3.969   6.833  0.3208  0.4538  0.0234
 5213lim     li24113   2.094   1.872   3.627  0.0830 -0.1103 -0.4095
 5214lim     li24114   1.806   4.461   1.403  0.2987 -0.4403 -0.4642
 5215lim     li24115   2.800   6.889   6.287  0.3051  0.2452  0.7741
 5216lim     li24116   1.141   1.022   4.474 -0.7157 -0.2800  0.1808
 5217lim     li24117   6.952   3.758   1.670 -0.8753 -0.0635 -0.8643
 5218lim     li24118   5.042   7.249   5.724 -0.1487 -0.2514  0.6035
 5219lim     li24119   1.869   0.905   2.106  1.0206  0.3609  1.1263
 5220lim     li24120   0.000   6.282   2.841  0.6533 -1.2536  1.4129
 5221lim     li24121   1.769   0.498   3.107 -0.9797 -0.3927 -0.3321
 5222lim     li24122   2.645   0.400   0.870  0.7053  0.1090  0.1406
 5223lim     li24123   7.050   7.397   5.532 -0.4394  0.1418 -0.9266
 5224lim     li24124   0.417   6.753   5.533  0.4475  0.1278  0.6606
 5225lim     li24125   2.639   3.709   4.192 -0.1837  0.7079 -0.1596
 5226lim     li24126   2.768   1.308   1.113  0.4572  0.5147  0.3037
 5227lim     li24127   3.336   0.992   2.233 -0.8780  0.1925  0.0006
 5228lim     li24128   2.201   3.634   0.782  0.0170 -0.8176  0.5091
 5229lim     li24129   3.884   0.829   5.536  0.2363  0.2632  0.8738
 5230lim     li24130   7.420   6.772   3.772 -0.0143  0.2482  0.1134
 5231lim     li24131   5.234   6.178   6.122 -0.0262 -0.8751  0.1731
 5232lim     li24132   3.325   7.215   0.538  1.1532  0.3948 -0.1799
 5233lim     li24133   4.865   3.574   5.662 -0.5602  0.8642 -0.1065
 5234lim     li24134   1.520   5.635   6.867  0.5552  0.1836 -0.1005
 5235lim     li24135   5.472   0.858   1.496 -0.2900  0.1999 -0.5931
 5236lim     li24136   2.648   2.987   6.002  0.3017  0.5204  0.6572
 5237lim     li24137   5.114   0.963   2.972 -0.5970  0.1992 -0.0487
 5238lim     li24138   5.888   1.261   6.754 -0.4525 -0.4312  0.1385
 5239lim     li24139   4.136   1.620   3.617 -0.6842 -0.3180 -1.0088
 5240lim     li24140   3.388   5.959   0.232  0.1802 -0.2787  0.0267
 5241lim     li24141   3.738   2.510   0.817  0.6784 -0.2003  0.0679
 5242lim     li24142   5.122   6.064   4.173 -0.3135 -0.2320  0.1184
 5243lim     li24143   6.474   4.591   4.796 -0.4135 -0.8919  0.6194
 5244lim     li24144   5.045   4.069   6.893 -0.7806 -0.5439  0.6504
 5245lim     li24145   4.537   5.140   4.096 -0.0354  0.2231  0.3520
 5246lim     li24146   2.740   0.087   7.068 -0.6314 -0.8513  0.4713
 5247lim     li24147   3.146   4.438   5.716  0.6194 -0.7433 -0.0245
 5248lim     li24148   4.379   1.826   5.872 -0.5735 -0.0953  0.8999
 5249lim     li24149   0.525   0.341   0.844  0.3037  1.5705  0.5759
 5250lim     li24150   5.380   7.091   0.237 -0.2542  0.0682  0.5885
 5251lim     li24151   6.314   6.249   3.854 -0.7053  0.3798 -0.1765
 5252lim     li24152   2.345   2.099   6.900 -0.2514  0.0981 -0.3581
 5253lim     li24153   1.738   7.436   0.687 -0.0516  0.0858  0.8626
 5254lim     li24154   5.968   4.503   3.083  0.7963  0.5667  0.9875
 5255lim     li24155   5.070   1.774   1.852  0.6185 -1.4402  0.9832
 5256lim     li24156   6.744   5.423   2.223 -0.4004  0.4294 -0.0836
 5257lim     li24157   1.918   4.984   7.250 -0.5384  0.0144  0.5289
 5258lim     li24158   5.966   0.401   2.747 -0.2221 -0.2651  0.5528
 5259lim     li24159   7.148   2.267   2.890  0.1107 -0.1245  0.4079
 5260lim     li24160   6.149   5.600   5.459  0.3145 -0.1123  1.0256
 5261lim     li24161   2.791   5.480   6.622  0.9099  0.9185  0.6176
 5262lim     li24162   4.621   3.696   2.763  0.3656  0.2843 -0.4196
 5263lim     li24163   7.444   6.166   5.471 -0.2623  0.2668 -0.1654
 5264lim     li24164   1.306   6.661   4.842  0.4159  0.4803  0.6209
 5265lim     li24165   4.565   7.273   3.302  0.3257  0.1635 -0.9612
 5266lim     li24166   3.989   2.140   4.439  1.0672 -0.8430  1.0463
 5267lim     li24167   3.739   4.506   3.445  0.3622 -0.5684  0.5569
 5268lim     li24168   5.321   1.974   2.478 -0.4251  0.5830  0.8391
 5269lim     li24169   4.346   4.495   6.317 -0.3450  0.1644  0.1541
 5270lim     li24170   1.718   3.090   1.231 -0.0745  0.5272  0.3050
 5271lim     li24171   6.363   2.911   6.718 -0.5903 -0.6545  1.0865
 5272lim     li24172   0.172   4.193   2.484 -0.4949  0.2526  0.8055
 5273lim     li24173   0.935   2.103   0.658  0.1467  0.8076  0.2359
 5274lim     li24174   5.659   0.950   5.410 -0.2793 -0.2991 -0.1359
 5275lim     li24175   6.566   1.381   4.942  0.1485  0.2824  0.0148
 5276lim     li24176   5.895   2.543   5.684 -1.2946 -0.5891  0.2762
 5277lim     li24177   1.270   3.328   5.384 -0.1051  1.2523  0.2420
 5278lim     li24178   3.956   6.840   5.284 -0.2709 -0.0748  1.5457
 5279lim     li24179   0.681   0.422   4.594  0.1659  0.2575 -0.2596
 5280lim     li24180   1.085   1.569   2.570  0.6768  0.8085 -0.1348
 5281lim     li24181   1.471   0.892   0.496 -0.1940 -0.4881 -0.2306
 5282lim     li24182   0.871   0.407   1.514  0.1621 -0.3205  0.4230
 5283lim     li24183   1.893   7.443   1.689 -0.0010 -0.4209  0.2108
 5284lim     li24184   6.986   4.121   1.201 -0.0393  0.2759 -0.1194
 5285lim     li24185   1.005   2.692   1.573 -0.2058  0.4684  0.4921
 5286lim     li24186   2.032   6.021   6.059 -1.0916  0.2127 -0.7932
 5287lim     li24187   6.046   4.986   0.992  0.0063 -0.0424  0.7004
 5288lim     li24188   2.032   5.883   0.339 -0.8142 -1.3780  0.1423
 5289lim     li24189   5.443   5.387   0.429 -0.1607 -0.2183  0.6173
 5290lim     li24190   0.720   0.759   6.580 -0.4513 -0.7373 -0.2065
 5291lim     li24191   3.681   0.724   4.973  0.4109  0.1625  0.0676
 5292lim     li24192   4.802   2.915   3.821 -0.0944  0.2140 -0.2754
 5293lim     li24193   7.079   0.808   1.879  0.9496 -0.2372 -0.1324
 5294lim     li24194   3.578   0.779   6.306  0.6766 -0.1225  0.6001
 5295lim     li24195   0.731   7.327   1.499  0.4765 -0.0624  0.6362
 5296lim     li24196   2.421   6.644   0.901 -0.1890  0.8491  0.1952
 5297lim     li24197   4.340   5.257   7.073  0.4989 -0.7077  0.5225
 5298lim     li24198   6.240   0.432   1.926  0.1801 -1.1735  0.2919
 5299lim     li24199   4.645   1.401   5.148  0.4727 -0.2317  0.0991
 5300lim     li24200   5.941   0.387   0.675 -0.4117  0.0552 -0.9850
 5301lim     li24201   5.250   0.336   6.211  0.6521 -0.6040 -0.0348
 5302lim     li24202   0.179   2.679   2.197 -0.5221 -0.8088 -0.1895
 5303lim     li24203   1.438   2.071   6.508 -0.0826 -1.0291 -0.3901
 5304lim     li24204   1.399   1.246   5.821  1.1845 -0.3234  1.6543
 5305lim     li24205   0.511   4.098   1.778 -0.3187 -0.1720  0.4227
 5306lim     li24206   4.536   7.081   5.650  0.0122 -0.0137  0.2584
 5307lim     li24207   1.104   6.798   7.262 -0.0893 -0.5737 -0.7249
 5308lim     li24208   5.972   6.591   5.752  0.5569 -0.6122  0.6905
 5309lim     li24209   2.718   4.253   5.493  1.2610 -0.4838  0.4281
 5310lim     li24210   5.844   1.065   1.225  0.0584 -0.3121 -0.5513
 5311lim     li24211   4.876   4.461   4.185 -0.0710  1.0086 -0.8571
 5312lim     li24212   5.131   6.072   1.437 -0.6404  0.5022 -0.1634
 5313lim     li24213   1.549   5.956   2.235 -0.1061  0.4079 -0.1273
 5314lim     li24214   2.343   3.624   5.374 -0.3027  0.9820  0.2793
 5315lim     li24215   5.912   6.260   3.218  0.0462 -0.8340 -0.1744
 5316lim     li24216   4.738   0.965   7.179 -0.1811 -0.8875  0.1805
 5317lim     li24217   5.499   5.635   4.693  0.3367 -0.7012 -1.4665
 5318lim     li24218   0.218   7.369   5.311  0.2457  0.9660 -0.5520
 5319lim     li24219   5.151   0.994   4.420 -0.0512  0.5899  0.7125
 5320lim     li24220   6.755   7.426   4.597  0.1560 -0.0922 -0.6784
 5321lim     li24221   3.884   3.276   7.248 -0.4528 -0.2609 -1.6885
 5322lim     li24222   0.915   5.809   3.337 -0.0579 -0.5752 -0.3866
 5323lim     li24223   5.715   5.716   3.016 -0.6010 -0.2858  0.1553
 5324lim     li24224   0.971   4.202   6.955  0.2449  0.5009  0.2895
 5325lim     li24225   5.236   0.626   3.801 -0.8762  0.5185  1.2636
 5326lim     li24226   4.080   5.036   6.323  0.4482 -0.1792 -0.9080
 5327lim     li24227   3.438   6.393   5.162  0.5451 -0.2950 -0.0610
 5328lim     li24228   4.073   3.104   3.117 -0.4093 -0.6044  0.3532
 5329lim     li24229   4.720   3.022   0.058  0.2721  0.8647 -1.1143
 5330lim     li24230   3.902   4.159   2.882 -0.3211 -0.0087 -0.2385
 5331lim     li24231   6.088   3.586   5.409 -0.1649  0.7474 -0.0787
 5332lim     li24232   0.697   6.049   4.876  0.8700  0.0894  0.4893
 5333lim     li24233   4.158   0.440   6.810 -0.8386 -0.2313 -0.6063
 5334lim     li24234   0.371   1.210   3.464 -0.2308 -0.8993  0.9384
 5335lim     li24235   0.124   0.420   2.705 -0.0194  0.4072 -0.8561
 5336lim     li24236   3.905   5.790   5.976  0.3615  0.6128  1.1071
 5337lim     li24237   0.106   6.028   4.264  0.4205 -0.3024  0.5834
 5338lim     li24238   2.046   6.005   3.270  0.1816 -0.1535  1.0581
 5339lim     li24239   5.280   1.391   0.725  0.4375 -0.8366 -0.8618
 5340lim     li24240   5.880   6.385   0.898 -0.0159  0.9231 -0.4339
 5341lim     li24241   3.273   6.006   4.361 -0.1423 -0.1126 -0.3642
 5342lim     li24242   6.001   0.425   6.499  0.4038  0.2606 -0.4436
 5343lim     li24243   6.236   5.197   2.432 -0.5509 -0.0317 -1.4052
 5344lim     li24244   6.609   3.196   0.345  0.4785  0.7038  0.5864
 5345lim     li24245   1.562   2.058   5.223  0.0845 -0.2555 -0.3031
 5346lim     li24246   0.627   2.871   2.617  1.5625 -0.7270 -1.7459
 5347lim     li24247   3.184   2.164   6.481 -0.2563  0.4286 -1.4243
 5348lim     li24248   4.988   6.533   3.007 -0.1804 -1.4760 -0.1555
 5349lim     li24249   4.541   0.804   4.424 -0.8660 -0.2578  0.6460
 5350lim     li24250   4.260   7.055   6.696  0.1115 -0.4519  0.4579
 5351lim     li24251   5.295   3.122   3.021  0.7927 -0.3607 -0.2127
 5352lim     li24252   4.959   6.624   0.384 -0.2815  0.1638  0.0495
 5353lim     li24253   4.064   6.619   3.144  1.1845 -0.5828 -1.3163
 5354lim     li24254   1.632   2.750   4.243 -0.4338 -0.1983  1.3107
 5355lim     li24255   4.537   4.799   2.618  0.4808  0.4513  0.4764
 5356lim     li24256   5.675   1.725   6.163 -0.2422 -1.0241 -0.3504
 5357lim     li24257   3.071   1.491   2.785 -0.6085  1.0886  1.8493
 5358lim     li24258   4.479   5.616   0.807  0.0306  0.1839  0.2463
 5359lim     li24259   5.650   6.111   6.907  0.1692 -0.2870 -0.3118
 5360lim     li24260   1.206   5.914   1.499  0.5049 -0.5647  0.1177
 5361lim     li24261   6.688   1.331   5.921 -1.1571 -0.2517 -0.9293
 5362lim     li24262   6.298   7.230   7.217  0.0884  0.5949  0.5332
 5363lim     li24263   1.796   4.513   5.741 -0.3708  0.0766 -0.0506
 5364lim     li24264   6.086   2.303   7.374  0.0940 -1.3226  1.1810
 5365lim     li24265   6.493   1.870   6.466 -1.2576 -0.2195 -1.5044
 5366lim     li24266   7.186   5.391   5.274 -0.3602  0.5764 -0.1277
 5367lim     li24267   6.870   6.030   3.452 -0.0817  0.1604  0.3385
 5368lim     li24268   4.652   4.725   1.410  0.9866 -0.2338 -0.3797
 5369lim     li24269   5.924   2.765   6.174 -0.5342  0.3000  0.5406
 5370lim     li24270   4.666   6.987   2.194  0.1487  1.1265 -0.0874
 5371lim     li24271   3.066   3.068   3.876  0.2295 -0.5608  0.2361
 5372lim     li24272   7.049   3.128   2.438 -1.0699  0.2835 -0.1517
 5373lim     li24273   3.831   6.860   2.209  1.6620 -0.4386  0.7533
 5374lim     li24274   6.923   4.310   2.010 -0.9178 -1.1680  0.6120
 5375lim     li24275   5.853   4.970   5.738 -0.1289  0.1479  1.0979
 5376lim     li24276   6.886   7.021   0.511 -0.5978 -0.2976  0.1059
 5377lim     li24277   2.947   4.453   3.348  1.1815 -0.6962 -0.2998
 5378lim     li24278   0.057   7.312   3.235  0.1597 -0.0335 -0.6847
 5379lim     li24279   1.964   2.570   0.121 -0.2673 -0.2351  0.5045
 5380lim     li24280   7.138   4.676   2.817 -0.1778  0.0025 -0.1816
 5381lim     li24281   4.754   7.028   7.395  0.0674  0.4203  0.3618
 5382lim     li24282   2.696   4.148   0.067  1.5479 -0.2226 -0.2096
 5383lim     li24283   1.550   5.330   0.993 -0.4836 -0.2170 -0.3930
 5384lim     li24284   0.062   6.905   1.149 -0.0462 -0.3207  0.4192
 5385lim     li24285   2.563   6.429   4.731  0.1984  0.1399  0.3956
 5386lim     li24286   5.004   2.642   3.192 -0.1245  0.8287  0.3196
 5387lim     li24287   2.714   5.774   5.953 -0.0940 -1.2070  0.1129
 5388lim     li24288   2.568   0.725   6.043  0.7058 -0.0369 -0.3071
 5389lim     li24289   6.359   4.119   6.173  0.3386  0.1128  0.2325
 5390lim     li24290   2.820   2.618   5.151 -0.0375 -0.5280  0.3190
 5391lim     li24291   1.994   2.495   2.366 -0.6306 -1.0981  0.7791
 5392lim     li24292   2.314   1.178   5.007 -0.1893  0.0975 -0.2059
 5393lim     li24293   7.365   0.838   0.541  0.2586 -0.7030  0.5636
 5394lim     li24294   6.637   5.876   6.409  0.2477 -0.0689 -0.3684
 5395lim     li24295   3.971   6.303   4.095  0.1714  0.0401  0.6990
 5396lim     li24296   7.339   2.666   5.663  0.0556  0.8554 -0.5343
 5397lim     li24297   6.552   4.450   1.265 -0.2575 -0.6496 -0.4901
 5398lim     li24298   6.318   1.760   2.619 -0.1351 -0.6942  0.8800
 5399lim     li24299   6.051   1.706   4.953  0.1185  0.2689  0.1634
 5400lim     li24300   2.031   5.109   2.268  0.1601 -0.1637 -1.2594
 5401ntf    cn124301   5.173   5.785   6.061 -0.1671 -0.4139 -0.0867
 5401ntf    sn224302   5.178   5.859   6.227  0.2704 -0.5228 -0.0496
 5401ntf    nn324303   5.319   5.812   6.275  0.5702  0.1309 -0.2777
 5401ntf    sn224304   5.354   5.744   6.412  0.2384  0.0355 -0.2402
 5401ntf    cn124305   5.486   5.853   6.473 -0.1811  0.3957  0.0269
 5401ntf    fn424306   5.049   5.790   6.015 -0.2984 -0.6304  0.2419
 5401ntf    fn424307   5.245   5.857   5.977  0.0923 -0.4664  0.0898
 5401ntf    fn424308   5.227   5.665   6.053  0.0974 -0.3074  0.0690
 5401ntf    on524309   5.185   6.000   6.198 -0.4902 -0.4429  0.1338
 5401ntf    on524310   5.065   5.805   6.298  0.1437  0.4761  0.5218
 5401ntf    on524311   5.422   5.620   6.382 -0.2250 -0.2456 -0.1501
 5401ntf    on524312   5.259   5.732   6.520 -0.0873 -0.4395 -0.5751
 5401ntf    fn424313   5.539   5.792   6.577 -0.9118  0.1456  0.2633
 5401ntf    fn424314   5.581   5.878   6.384 -0.3355  0.0415 -0.2388
 5401ntf    fn424315   5.445   5.975   6.504  0.1565  0.5994 -0.3191
 5402ntf    cn124316   6.654   3.076   5.076  0.1941  0.0193  0.2383
 5402ntf    sn224317   6.479   3.117   5.099  0.1571 -0.0654  0.1160
 5402ntf    nn324318   6.454   3.080   5.249 -0.4570  0.4966  0.1557
 5402ntf    sn224319   6.396   2.942   5.295  0.0195  0.3280  0.2522
 5402ntf    cn124320   6.428   2.952   5.473 -0.3274  0.0455  0.3319
 5402ntf    fn424321   6.688   3.087   4.948 -0.1162 -0.3638  0.1187
 5402ntf    fn424322   6.739   3.159   5.134 -0.2004  0.5028  0.1295
 5402ntf    fn424323   6.682   2.951   5.110  0.1054 -0.1474 -0.2858
 5402ntf    on524324   6.471   3.259   5.071  0.1262 -0.1627 -0.3786
 5402ntf    on524325   6.416   3.034   4.999 -0.4145  0.0428  0.3834
 5402ntf    on524326   6.478   2.831   5.253 -0.3016  0.4328 -0.6785
 5402ntf    on524327   6.253   2.926   5.285  0.0623  0.1521 -0.1289
 5402ntf    fn424328   6.391   2.840   5.534  0.0962 -0.3434 -0.1082
 5402ntf    fn424329   6.555   2.970   5.508 -0.2359 -0.4714  0.2782
 5402ntf    fn424330   6.360   3.052   5.527 -0.2419 -0.0760  0.6678
 5403ntf    cn124331   1.210   6.403   1.547  0.2675  0.1430  0.2079
 5403ntf    sn224332   1.285   6.470   1.396  0.2227 -0.1041  0.0752
 5403ntf    nn324333   1.387   6.561   1.474  0.0874 -0.1560  0.3127
 5403ntf    sn224334   1.537   6.527   1.507  0.2083  0.1015  0.0238
 5403ntf    cn124335   1.612   6.643   1.388  0.3127  0.0899  0.0787
 5403ntf    fn424336   1.296   6.360   1.638  0.0372 -0.1822  0.2718
 5403ntf    fn424337   1.126   6.484   1.608  0.0885  0.0781  0.0468
 5403ntf    fn424338   1.138   6.296   1.519  0.4082  0.0774  0.0931
 5403ntf    on524339   1.334   6.356   1.323 -0.5156 -0.5594  0.2855
 5403ntf    on524340   1.189   6.555   1.330  0.1395 -0.2580 -0.0023
 5403ntf    on524341   1.579   6.396   1.465  0.3750  0.2809 -0.3729
 5403ntf    on524342   1.595   6.580   1.628  0.3539 -0.1044  0.0436
 5403ntf    fn424343   1.743   6.651   1.410  0.3793 -0.5138 -0.0879
 5403ntf    fn424344   1.608   6.595   1.265  0.1588 -0.0132  0.1243
 5403ntf    fn424345   1.557   6.763   1.395  0.7792  0.2962  0.2406
 5404ntf    cn124346   2.045   7.139   2.869 -0.0164  0.3117 -0.2189
 5404ntf    sn224347   1.896   7.200   2.786 -0.2785 -0.0602 -0.0248
 5404ntf    nn324348   1.969   7.274   2.668 -0.0369  0.1374  0.2473
 5404ntf    sn224349   2.015   7.420   2.635  0.4892 -0.1136 -0.1463
 5404ntf    cn124350   2.196   7.399   2.631  0.4663 -0.3260 -0.0361
 5404ntf    fn424351   2.159   7.185   2.819 -0.2881  0.2849 -0.8712
 5404ntf    fn424352   2.044   7.168   2.999 -0.2286  0.4252 -0.2441
 5404ntf    fn424353   2.052   7.008   2.880  0.2956  0.3412 -0.0566
 5404ntf    on524354   1.828   7.082   2.739 -0.2915 -0.1788  0.2920
 5404ntf    on524355   1.826   7.285   2.879 -0.0005 -0.0389  0.1623
 5404ntf    on524356   1.998   7.520   2.738  0.7061 -0.0172 -0.2030
 5404ntf    on524357   1.988   7.456   2.498 -0.4013 -0.0929  0.0273
 5404ntf    fn424358   2.218   7.297   2.550 -0.3401 -0.1098 -0.5371
 5404ntf    fn424359   2.256   7.506   2.584  0.1144 -0.0300  0.1780
 5404ntf    fn424360   2.245   7.373   2.751 -0.3321  0.2841  0.4326
 5405ntf    cn124361   7.301   0.226   3.955 -0.1667 -0.2566  0.1001
 5405ntf    sn224362   7.406   0.225   4.103  0.1526 -0.1839 -0.1252
 5405ntf    nn324363   7.367   0.087   4.167 -0.0932  0.1971  0.5560
 5405ntf    sn224364   7.411  -0.062   4.142 -0.0661  0.3107 -0.0716
 5405ntf    cn124365   7.513  -0.087   4.290  0.2427 -0.2479 -0.3769
 5405ntf    fn424366   7.334   0.124   3.877  0.7951 -0.0690  0.2536
 5405ntf    fn424367   7.172   0.209   3.977 -0.1962 -0.0948  0.0579
 5405ntf    fn424368   7.309   0.336   3.882  0.4708 -0.0692  0.4378
 5405ntf    on524369   7.538   0.229   4.046 -0.1021 -0.1319 -0.7117
 5405ntf    on524370   7.368   0.348   4.167  0.1501 -0.1184 -0.2523
 5405ntf    on524371   7.496  -0.081   4.026 -0.0946 -0.2081 -0.0088
 5405ntf    on524372   7.309  -0.159   4.173  0.3812 -0.0532  0.2649
 5405ntf    fn424373   7.569  -0.207   4.294 -0.2831 -0.4914 -0.3077
 5405ntf    fn424374   7.614  -0.001   4.286 -0.0904  0.1789  0.2779
 5405ntf    fn424375   7.453  -0.060   4.404  0.1031 -0.9094 -0.2934
 5406ntf    cn124376   3.170   3.079   7.159 -0.1876  0.7587 -0.1884
 5406ntf    sn224377   3.257   3.238   7.177  0.3820  0.4354 -0.0346
 5406ntf    nn324378   3.161   3.342   7.110  0.3660  0.1933 -0.3928
 5406ntf    sn224379   3.042   3.425   7.170  0.3013 -0.0670 -0.1626
 5406ntf    cn124380   2.913   3.403   7.044 -0.1260 -0.2642  0.3054
 5406ntf    fn424381   3.063   3.064   7.236 -0.2735  0.5549 -0.3464
 5406ntf    fn424382   3.139   3.046   7.035  0.0557 -0.5669  0.0843
 5406ntf    fn424383   3.244   2.975   7.196  0.0251  0.8897 -0.2426
 5406ntf    on524384   3.264   3.248   7.321 -0.3263  1.2999 -0.0568
 5406ntf    on524385   3.380   3.218   7.105  0.2193 -0.4506 -0.0885
 5406ntf    on524386   3.066   3.567   7.169 -0.7034  0.1106 -0.1808
 5406ntf    on524387   2.980   3.364   7.286 -0.0458  0.1922 -0.2096
 5406ntf    fn424388   2.796   3.457   7.078 -0.1202 -0.1906  0.2091
 5406ntf    fn424389   2.945   3.442   6.922  0.6326 -0.5356  0.4132
 5406ntf    fn424390   2.884   3.276   7.021 -0.0523 -0.1843 -0.2239
 5407ntf    cn124391   1.270   0.411   4.222 -0.0551 -0.0800 -0.1680
 5407ntf    sn224392   1.356   0.433   4.381 -0.2846 -0.2214 -0.0248
 5407ntf    nn324393   1.361   0.589   4.364  0.0101 -0.2287 -0.0004
 5407ntf    sn224394   1.483   0.684   4.389  0.0187 -0.2892  0.1866
 5407ntf    cn124395   1.469   0.682   4.570 -0.3532 -0.0868  0.1626
 5407ntf    fn424396   1.163   0.487   4.214  0.3185  0.4368 -0.2761
 5407ntf    fn424397   1.348   0.460   4.126 -0.2204  0.4523 -0.0315
 5407ntf    fn424398   1.230   0.288   4.192  0.0166 -0.2280  0.3362
 5407ntf    on524399   1.263   0.403   4.487  0.0070 -0.0839  0.2684
 5407ntf    on524400   1.476   0.354   4.371  0.0725  0.3328 -0.1361
 5407ntf    on524401   1.454   0.822   4.356  0.2067 -0.3084 -0.0662
 5407ntf    on524402   1.617   0.640   4.359  0.1369  0.1835  0.0126
 5407ntf    fn424403   1.563   0.751   4.633 -0.3261 -0.5704  0.6600
 5407ntf    fn424404   1.349   0.719   4.611 -0.6143 -0.0904 -0.5845
 5407ntf    fn424405   1.484   0.562   4.623  0.2630  0.0832  0.3888
 5408ntf    cn124406   3.830   4.812   6.836 -0.0798 -0.2022  0.0382
 5408ntf    sn224407   3.782   4.962   6.746  0.3132 -0.2389 -0.2391
 5408ntf    nn324408   3.628   4.943   6.771  0.2467  0.3769 -0.1730
 5408ntf    sn224409   3.504   4.971   6.678 -0.2053 -0.3205  0.2138
 5408ntf    cn124410   3.495   4.810   6.595 -0.1949 -0.0913 -0.2311
 5408ntf    fn424411   3.791   4.823   6.962  0.1485  0.1995  0.0765
 5408ntf    fn424412   3.773   4.700   6.796  0.1283 -0.1525 -0.4038
 5408ntf    fn424413   3.962   4.795   6.838 -0.0554 -0.1091 -0.5955
 5408ntf    on524414   3.840   5.069   6.824 -0.3352 -0.1841  0.1752
 5408ntf    on524415   3.833   4.937   6.614  0.1625  0.3498 -0.4105
 5408ntf    on524416   3.522   5.076   6.581 -0.9120 -0.1281  0.2883
 5408ntf    on524417   3.392   4.981   6.769  0.1029 -0.3241  0.5996
 5408ntf    fn424418   3.377   4.782   6.541 -0.3083 -0.2123  0.0760
 5408ntf    fn424419   3.586   4.790   6.501  0.0467 -0.3183  0.0492
 5408ntf    fn424420   3.518   4.710   6.678 -0.2053 -0.1237 -0.2678
 5409ntf    cn124421   5.553   5.158   2.776  0.2853  0.3037 -0.1794
 5409ntf    sn224422   5.640   5.308   2.830  0.0615  0.2406  0.3651
 5409ntf    nn324423   5.773   5.245   2.884  0.1375  0.1845  0.1109
 5409ntf    sn224424   5.849   5.243   3.021 -0.0001 -0.0297  0.1852
 5409ntf    cn124425   5.946   5.090   3.009  0.0301 -0.0091  0.1658
 5409ntf    fn424426   5.530   5.061   2.864 -0.4747  0.6095 -0.0391
 5409ntf    fn424427   5.438   5.199   2.727 -0.1068 -0.2106  0.2919
 5409ntf    fn424428   5.614   5.094   2.678 -0.4654 -0.2804 -0.2753
 5409ntf    on524429   5.652   5.388   2.711 -0.4205 -0.3390 -0.0813
 5409ntf    on524430   5.554   5.358   2.935 -0.4637 -0.3242  0.2084
 5409ntf    on524431   5.760   5.208   3.129  0.0435  0.5306  0.4048
 5409ntf    on524432   5.949   5.345   3.043 -0.0280 -0.0280  0.3043
 5409ntf    fn424433   6.040   5.090   2.916  0.1257 -0.6942  0.2598
 5409ntf    fn424434   6.009   5.063   3.122  0.2145  0.1215  0.0939
 5409ntf    fn424435   5.874   4.980   3.001  0.3177 -0.2365  0.6513
 5410ntf    cn124436   5.263   6.584   1.903 -0.0836  0.2087  0.2077
 5410ntf    sn224437   5.086   6.577   1.943 -0.0842  0.1396  0.1963
 5410ntf    nn324438   5.084   6.602   2.098 -0.6347  0.3310  0.1606
 5410ntf    sn224439   5.001   6.528   2.208  0.1078 -0.3481  0.2714
 5410ntf    cn124440   5.120   6.411   2.281  0.3693 -0.1662  0.1354
 5410ntf    fn424441   5.307   6.705   1.933  0.4215  0.0622  0.0728
 5410ntf    fn424442   5.329   6.492   1.971 -0.2981  0.1520  0.3378
 5410ntf    fn424443   5.288   6.559   1.775  0.6516 -0.3224  0.4430
 5410ntf    on524444   5.012   6.679   1.872 -0.0705 -0.2744 -0.4285
 5410ntf    on524445   5.052   6.441   1.908  0.1379  0.0996  0.1371
 5410ntf    on524446   4.889   6.445   2.172  0.4464 -0.7484  0.1310
 5410ntf    on524447   4.955   6.617   2.311 -0.3935 -0.0421 -0.2160
 5410ntf    fn424448   5.056   6.324   2.358  0.1776  0.1308  0.3133
 5410ntf    fn424449   5.177   6.331   2.192  0.3521 -0.3079  0.2520
 5410ntf    fn424450   5.214   6.473   2.350  0.3130  0.2852 -0.1874
 5411ntf    cn124451   0.880   2.521   1.179  0.0941 -0.2778 -0.2850
 5411ntf    sn224452   0.816   2.493   1.011  0.2054  0.0035 -0.3749
 5411ntf    nn324453   0.667   2.541   1.006  0.2319  0.0713 -0.5040
 5411ntf    sn224454   0.601   2.667   0.938 -0.2515  0.1406  0.0828
 5411ntf    cn124455   0.434   2.649   1.006 -0.1624  0.0315  0.2743
 5411ntf    fn424456   0.795   2.476   1.269  0.3206 -0.1528 -0.0086
 5411ntf    fn424457   0.996   2.459   1.193  0.3710  0.3433  0.1765
 5411ntf    fn424458   0.886   2.649   1.210 -0.1308 -0.2951 -0.1678
 5411ntf    on524459   0.894   2.586   0.933  0.6137 -0.0755 -0.0639
 5411ntf    on524460   0.831   2.353   0.979 -0.5129 -0.3538  0.7928
 5411ntf    on524461   0.587   2.656   0.795  0.0485  0.0061  0.0611
 5411ntf    on524462   0.647   2.794   0.988 -0.1824  0.1812 -0.0807
 5411ntf    fn424463   0.353   2.749   0.975 -0.3936 -0.2692 -0.0905
 5411ntf    fn424464   0.376   2.541   0.958 -0.4917  0.3242  0.0054
 5411ntf    fn424465   0.427   2.626   1.136 -0.3780 -0.3827  0.1925
 5412ntf    cn124466   4.064   4.403   1.850  0.0358  0.1491  0.2334
 5412ntf    sn224467   4.002   4.457   1.687  0.0983 -0.1321  0.1169
 5412ntf    nn324468   4.137   4.462   1.607 -0.0040 -0.4383 -0.0781
 5412ntf    sn224469   4.170   4.543   1.477  0.1637  0.3091  0.4217
 5412ntf    cn124470   4.134   4.421   1.348 -0.0899  0.5087  0.3008
 5412ntf    fn424471   3.967   4.404   1.941 -0.1966  0.1500 -0.0119
 5412ntf    fn424472   4.102   4.277   1.848 -0.2431  0.0631  0.3424
 5412ntf    fn424473   4.163   4.476   1.897  0.3773 -0.0371 -0.1951
 5412ntf    on524474   3.919   4.348   1.642  0.3444 -0.2581 -0.0314
 5412ntf    on524475   3.936   4.584   1.702 -0.0872 -0.1444 -0.5746
 5412ntf    on524476   4.309   4.573   1.452  0.0821  0.0319 -0.3950
 5412ntf    on524477   4.072   4.643   1.442 -0.1890  0.0807  0.7535
 5412ntf    fn424478   4.158   4.466   1.226 -0.2559 -0.8617 -0.2591
 5412ntf    fn424479   4.204   4.309   1.358 -0.0950  0.4289 -0.4863
 5412ntf    fn424480   4.007   4.387   1.338 -0.0332  0.3722  0.0144
 5413ntf    cn124481   4.666   0.839   0.733 -0.0041  0.1642  0.1665
 5413ntf    sn224482   4.544   0.837   0.868  0.3350  0.0367  0.4712
 5413ntf    nn324483   4.548   0.987   0.914 -0.9428  0.2650 -0.1275
 5413ntf    sn224484   4.525   1.041   1.060  0.0752 -0.0563  0.1541
 5413ntf    cn124485   4.409   1.172   1.014  0.1947  0.0785  0.2366
 5413ntf    fn424486   4.690   0.713   0.698  0.1304  0.0350  0.7069
 5413ntf    fn424487   4.638   0.903   0.621  0.0308  0.2616  0.2137
 5413ntf    fn424488   4.781   0.885   0.777  0.4018 -0.4198 -0.2710
 5413ntf    on524489   4.422   0.800   0.801  0.7613  0.5919 -0.6377
 5413ntf    on524490   4.606   0.746   0.962  0.3732  0.2285  0.6325
 5413ntf    on524491   4.632   1.123   1.111  0.0877  0.1126 -0.1471
 5413ntf    on524492   4.450   0.958   1.151  0.3703 -0.0532  0.4023
 5413ntf    fn424493   4.473   1.277   0.964  0.1097  0.0570  0.0821
 5413ntf    fn424494   4.321   1.139   0.922  0.5678  0.2466 -0.1849
 5413ntf    fn424495   4.337   1.209   1.119 -0.0854 -0.1120  0.1120
 5414ntf    cn124496   5.390   0.623   0.417 -0.3677 -0.0000 -0.0558
 5414ntf    sn224497   5.405   0.804   0.401  0.2593 -0.0338  0.1295
 5414ntf    nn324498   5.279   0.855   0.480  0.1607  0.2189 -0.1911
 5414ntf    sn224499   5.257   0.917   0.622 -0.0173  0.0827 -0.1593
 5414ntf    cn124500   5.080   0.958   0.613 -0.0537 -0.1006 -0.2826
 5414ntf    fn424501   5.452   0.556   0.321  0.2017  0.0158  0.2970
 5414ntf    fn424502   5.434   0.584   0.536 -0.3777 -0.8911 -0.3371
 5414ntf    fn424503   5.263   0.587   0.406 -0.2492 -0.4422  0.0095
 5414ntf    on524504   5.537   0.826   0.456  0.1253  0.3178  0.3134
 5414ntf    on524505   5.402   0.834   0.260 -0.4931  0.7009  0.2974
 5414ntf    on524506   5.321   1.044   0.646 -0.2192  0.0132  0.7718
 5414ntf    on524507   5.274   0.820   0.727  0.8389  0.3557 -0.0355
 5414ntf    fn424508   5.027   1.010   0.722 -0.2116 -0.0122 -0.4021
 5414ntf    fn424509   5.060   1.047   0.518  0.2293  0.5489  0.2580
 5414ntf    fn424510   5.006   0.851   0.589 -0.4311  0.0445  0.2241
 5415ntf    cn124511   3.230   5.463   3.586  0.4951 -0.1265 -0.1047
 5415ntf    sn224512   3.203   5.285   3.559  0.0027 -0.1210  0.3217
 5415ntf    nn324513   3.219   5.230   3.705  0.0289 -0.4097  0.2091
 5415ntf    sn224514   3.116   5.235   3.823 -0.0009  0.0918  0.1619
 5415ntf    cn124515   3.204   5.339   3.944  0.2666  0.3687 -0.2695
 5415ntf    fn424516   3.230   5.532   3.474 -0.6633 -0.5175 -0.3594
 5415ntf    fn424517   3.128   5.516   3.652  0.0546 -0.6530 -0.3533
 5415ntf    fn424518   3.343   5.493   3.647  0.4314  0.4176 -0.2492
 5415ntf    on524519   3.072   5.286   3.498  0.2235  0.3697 -0.1490
 5415ntf    on524520   3.315   5.248   3.476  0.1112 -0.1267  0.4715
 5415ntf    on524521   3.108   5.111   3.895 -0.1257 -0.1461 -0.2600
 5415ntf    on524522   2.994   5.307   3.796  0.3219  0.3491 -0.6570
 5415ntf    fn424523   3.149   5.338   4.064  0.3547 -0.0677 -0.2311
 5415ntf    fn424524   3.325   5.290   3.966  0.0363 -0.3433 -0.5528
 5415ntf    fn424525   3.223   5.466   3.913 -0.1675  0.3967 -0.4317
 5416ntf    cn124526   1.224   5.655   5.556 -0.0659 -0.2155  0.3143
 5416ntf    sn224527   1.283   5.492   5.501  0.0984 -0.0867  0.1059
 5416ntf    nn324528   1.365   5.446   5.626  0.1997 -0.3165 -0.0448
 5416ntf    sn224529   1.307   5.388   5.760  0.3430  0.0501  0.1765
 5416ntf    cn124530   1.361   5.511   5.883  0.5201  0.0284  0.1203
 5416ntf    fn424531   1.322   5.740   5.586 -0.0330 -0.1886  0.1324
 5416ntf    fn424532   1.138   5.712   5.472  0.2007  0.0685  0.2324
 5416ntf    fn424533   1.154   5.646   5.668 -0.2478 -0.2317  0.1999
 5416ntf    on524534   1.160   5.421   5.476 -0.1403  0.3081  0.1414
 5416ntf    on524535   1.361   5.512   5.381  0.2835 -0.2317  0.2033
 5416ntf    on524536   1.381   5.268   5.788  0.2807 -0.0960 -0.2710
 5416ntf    on524537   1.164   5.375   5.773  0.3865 -0.1292  0.4797
 5416ntf    fn424538   1.309   5.494   6.003 -0.5019  0.1479 -0.2928
 5416ntf    fn424539   1.492   5.523   5.894  0.5185 -0.1251  0.2982
 5416ntf    fn424540   1.312   5.626   5.838 -0.6115 -0.6664 -0.4745
 5417ntf    cn124541   2.519   1.228   3.806  0.1406 -0.0175 -0.2923
 5417ntf    sn224542   2.451   1.083   3.719 -0.1710  0.0090 -0.0936
 5417ntf    nn324543   2.404   1.156   3.588 -0.1081  0.2894  0.0381
 5417ntf    sn224544   2.281   1.122   3.497 -0.2164 -0.0721  0.3150
 5417ntf    cn124545   2.360   1.085   3.338 -0.6945 -0.4204  0.1556
 5417ntf    fn424546   2.432   1.326   3.786 -0.2548 -0.2853  0.0925
 5417ntf    fn424547   2.522   1.223   3.939 -0.6437  0.0222 -0.2661
 5417ntf    fn424548   2.638   1.267   3.765  0.0868  0.0581 -0.3755
 5417ntf    on524549   2.566   0.998   3.701 -0.4334 -0.3915  0.1104
 5417ntf    on524550   2.338   1.036   3.796 -0.5409  1.0177 -0.0059
 5417ntf    on524551   2.196   1.237   3.478 -0.0591 -0.0066  0.0034
 5417ntf    on524552   2.213   0.999   3.532 -0.3985 -0.0384  0.0827
 5417ntf    fn424553   2.475   1.021   3.351 -0.6361 -0.2452  0.4936
 5417ntf    fn424554   2.279   1.011   3.263 -0.5364 -0.2231 -0.2122
 5417ntf    fn424555   2.391   1.194   3.269 -0.2322 -0.3777  0.4266
 5418ntf    cn124556   0.447   5.989   3.759  0.2012  0.1323  0.1665
 5418ntf    sn224557   0.532   5.995   3.599  0.1971  0.0816  0.1625
 5418ntf    nn324558   0.415   6.018   3.497  0.2260 -0.0205  0.1058
 5418ntf    sn224559   0.328   5.911   3.422 -0.0575  0.0663  0.3098
 5418ntf    cn124560   0.164   5.985   3.451 -0.1861 -0.0611 -0.0740
 5418ntf    fn424561   0.534   5.996   3.859  0.2061 -0.3676  0.2025
 5418ntf    fn424562   0.353   6.077   3.788  0.1039 -0.0024  0.2591
 5418ntf    fn424563   0.399   5.866   3.772 -0.2808  0.3109  0.0878
 5418ntf    on524564   0.612   6.113   3.618  0.0559  0.2114 -0.0516
 5418ntf    on524565   0.607   5.872   3.593 -0.2423 -0.1978  0.3605
 5418ntf    on524566   0.317   5.781   3.484  0.0250  0.0329  0.2549
 5418ntf    on524567   0.349   5.915   3.279 -0.5128  0.5318  0.2529
 5418ntf    fn424568   0.074   5.927   3.374  0.0362 -0.3560 -0.1109
 5418ntf    fn424569   0.121   5.965   3.575 -0.0943  0.6394  0.0806
 5418ntf    fn424570   0.163   6.114   3.422  0.1498 -0.0864 -0.2027
 5419ntf    cn124571   2.125   4.376   4.119  0.3474 -0.3641 -0.3274
 5419ntf    sn224572   2.095   4.279   3.968 -0.0918 -0.5230 -0.1384
 5419ntf    nn324573   1.941   4.251   3.980 -0.2126  0.1775 -0.0230
 5419ntf    sn224574   1.863   4.135   4.050  0.0585  0.1094  0.1640
 5419ntf    cn124575   1.802   4.032   3.913  0.3391  0.3609 -0.1489
 5419ntf    fn424576   2.248   4.415   4.149 -0.1391  0.2596  0.8999
 5419ntf    fn424577   2.049   4.484   4.111  0.3807 -0.2743  0.4945
 5419ntf    fn424578   2.084   4.315   4.229  0.0765  0.2760 -0.0708
 5419ntf    on524579   2.116   4.370   3.858 -0.3699  0.2930  0.4739
 5419ntf    on524580   2.175   4.160   3.979  0.3294 -0.2663 -0.3903
 5419ntf    on524581   1.744   4.182   4.116 -0.0926 -0.3126  0.1965
 5419ntf    on524582   1.946   4.044   4.125  0.3746  0.2684  0.0058
 5419ntf    fn424583   1.899   4.008   3.827  0.1720 -0.6014 -0.0734
 5419ntf    fn424584   1.756   3.916   3.955 -0.7228  0.5979 -0.6323
 5419ntf    fn424585   1.707   4.095   3.845 -0.3114 -0.5506 -0.0947
 5420ntf    cn124586   4.003   4.648   5.238 -0.6393 -0.1781  0.0165
 5420ntf    sn224587   3.941   4.699   5.401 -0.0873  0.0704  0.1516
 5420ntf    nn324588   3.997   4.591   5.501  0.1104 -0.0516 -0.0887
 5420ntf    sn224589   3.941   4.448   5.530 -0.0845  0.0666  0.1253
 5420ntf    cn124590   4.107   4.378   5.558 -0.0304  0.1154 -0.0761
 5420ntf    fn424591   4.131   4.672   5.215 -0.6655 -0.3780 -0.3503
 5420ntf    fn424592   3.984   4.521   5.204 -0.2311 -0.2920  0.2131
 5420ntf    fn424593   3.937   4.717   5.146 -0.3358  0.4627  0.2724
 5420ntf    on524594   3.996   4.830   5.425  0.2975 -0.1005  0.2058
 5420ntf    on524595   3.798   4.691   5.384 -0.1059  0.6977  0.0096
 5420ntf    on524596   3.884   4.381   5.416  0.4118  0.2025 -0.2068
 5420ntf    on524597   3.873   4.433   5.657 -0.1309  0.4599  0.1469
 5420ntf    fn424598   4.200   4.410   5.469  0.2144 -0.6147 -0.0936
 5420ntf    fn424599   4.147   4.416   5.678  0.6078  0.0165 -0.2527
 5420ntf    fn424600   4.109   4.246   5.560 -0.4878  0.1051 -0.1990
 5421ntf    cn124601   6.147   0.602   1.236 -0.2834 -0.0780  0.4417
 5421ntf    sn224602   6.245   0.498   1.123 -0.4588  0.0672  0.1552
 5421ntf    nn324603   6.389   0.553   1.154 -0.1200 -0.5908 -0.2474
 5421ntf    sn224604   6.497   0.488   1.247  0.0014 -0.0461 -0.0071
 5421ntf    cn124605   6.622   0.620   1.247  0.1208 -0.1589  0.0663
 5421ntf    fn424606   6.019   0.569   1.233 -0.1391 -0.6349  0.3192
 5421ntf    fn424607   6.181   0.586   1.363 -0.1330 -0.4291  0.3599
 5421ntf    fn424608   6.157   0.732   1.214  0.1009 -0.2116 -0.1812
 5421ntf    on524609   6.227   0.358   1.155  0.8937 -0.1335  0.0833
 5421ntf    on524610   6.202   0.532   0.990  0.0324 -0.3565 -0.1117
 5421ntf    on524611   6.570   0.376   1.194  0.2439  0.0563  0.1073
 5421ntf    on524612   6.452   0.480   1.384 -0.5304  0.3524 -0.1578
 5421ntf    fn424613   6.727   0.590   1.321  0.6476  0.1061 -0.5630
 5421ntf    fn424614   6.671   0.637   1.125 -0.2631 -0.5483 -0.1433
 5421ntf    fn424615   6.575   0.739   1.283 -0.4019 -0.2114 -0.4293
 5422ntf    cn124616   5.520   6.757   5.179 -0.0346  0.1745 -0.2340
 5422ntf    sn224617   5.561   6.930   5.142 -0.1095  0.2320 -0.0521
 5422ntf    nn324618   5.475   7.003   5.251 -0.1277 -0.0263  0.1063
 5422ntf    sn224619   5.366   7.116   5.244 -0.4030 -0.3082 -0.1791
 5422ntf    cn124620   5.474   7.241   5.319 -0.3756 -0.4914  0.0889
 5422ntf    fn424621   5.391   6.753   5.205 -0.0010 -0.0677 -0.0969
 5422ntf    fn424622   5.530   6.684   5.069 -0.0997  0.2756 -0.3068
 5422ntf    fn424623   5.588   6.703   5.279 -0.3185  0.3425  0.0498
 5422ntf    on524624   5.703   6.946   5.166 -0.0293 -0.3095 -0.1526
 5422ntf    on524625   5.517   6.941   5.005 -0.1241  0.7361 -0.0064
 5422ntf    on524626   5.264   7.106   5.345 -0.0860  0.1883  0.1892
 5422ntf    on524627   5.332   7.165   5.113 -0.0708  0.4160  0.0036
 5422ntf    fn424628   5.441   7.367   5.301  0.1726 -0.3738 -0.1373
 5422ntf    fn424629   5.488   7.226   5.450  0.6385  0.1944  0.0737
 5422ntf    fn424630   5.598   7.233   5.273 -0.6289 -0.2283 -0.6574
 5423ntf    cn124631   4.102   2.527   4.513 -0.2755  0.1248  0.1334
 5423ntf    sn224632   4.258   2.563   4.428 -0.2963 -0.0913  0.0040
 5423ntf    nn324633   4.233   2.466   4.307 -0.0016 -0.0241 -0.1110
 5423ntf    sn224634   4.293   2.321   4.298  0.2028  0.0531 -0.0044
 5423ntf    cn124635   4.430   2.347   4.180  0.0825 -0.1974 -0.2002
 5423ntf    fn424636   3.988   2.565   4.456 -0.3156 -0.1221  0.0514
 5423ntf    fn424637   4.086   2.400   4.545  0.2922  0.0468  0.1150
 5423ntf    fn424638   4.107   2.588   4.631  0.3964 -0.3200  0.3368
 5423ntf    on524639   4.246   2.701   4.390 -0.3362 -0.0417  0.1936
 5423ntf    on524640   4.354   2.520   4.528 -0.7394 -0.4476  0.2794
 5423ntf    on524641   4.199   2.243   4.222  0.0458  0.3819 -0.1532
 5423ntf    on524642   4.352   2.264   4.416 -0.3682 -0.4469  0.0415
 5423ntf    fn424643   4.384   2.414   4.076  0.3150 -0.3200 -0.3812
 5423ntf    fn424644   4.520   2.429   4.231 -0.5540 -0.0493  0.7196
 5423ntf    fn424645   4.488   2.233   4.146  0.2694 -0.1504 -0.0396
 5424ntf    cn124646   2.737   5.915   2.419  0.4172 -0.1109  0.3475
 5424ntf    sn224647   2.909   5.868   2.451  0.3210 -0.4456  0.3692
 5424ntf    nn324648   2.912   5.912   2.602 -0.4321  0.2270  0.1890
 5424ntf    sn224649   2.958   5.834   2.730 -0.0537  0.0301 -0.0666
 5424ntf    cn124650   3.009   5.970   2.839  0.4396 -0.2710  0.0809
 5424ntf    fn424651   2.668   5.814   2.369 -0.2590  0.3978  0.2235
 5424ntf    fn424652   2.676   5.946   2.532 -0.6978  0.2151 -0.3199
 5424ntf    fn424653   2.723   6.013   2.331  0.1869  0.1604  0.6809
 5424ntf    on524654   2.913   5.726   2.427  0.4330 -0.4196  0.2322
 5424ntf    on524655   3.001   5.950   2.376 -0.3233  0.1019  0.1782
 5424ntf    on524656   3.071   5.746   2.710 -0.1804  0.0006 -0.6866
 5424ntf    on524657   2.848   5.771   2.799  0.0031  0.5777  0.5356
 5424ntf    fn424658   2.906   6.046   2.873  0.3659  0.1729 -1.0978
 5424ntf    fn424659   3.068   5.929   2.950  0.2316 -0.2850  0.1862
 5424ntf    fn424660   3.094   6.058   2.788  0.4618  0.0375  0.6373
 5425ntf    cn124661   6.669   4.286   2.969 -0.0039 -0.1251 -0.0778
 5425ntf    sn224662   6.621   4.422   2.858  0.2748  0.0478  0.0108
 5425ntf    nn324663   6.552   4.342   2.741  0.1216  0.0970  0.0679
 5425ntf    sn224664   6.404   4.299   2.712  0.0883  0.0838  0.2538
 5425ntf    cn124665   6.363   4.427   2.589 -0.0441  0.0852  0.2992
 5425ntf    fn424666   6.747   4.193   2.916  0.2443 -0.1253  0.2825
 5425ntf    fn424667   6.731   4.329   3.078  0.0445 -0.8262  0.1740
 5425ntf    fn424668   6.561   4.225   3.012 -0.2775  0.3186 -0.1260
 5425ntf    on524669   6.528   4.501   2.934 -0.1276  0.1040 -0.5303
 5425ntf    on524670   6.743   4.480   2.807 -0.0074  0.1294 -0.5858
 5425ntf    on524671   6.313   4.310   2.823  0.1054 -0.5034  0.3260
 5425ntf    on524672   6.399   4.178   2.634  0.0350  0.2937 -0.0736
 5425ntf    fn424673   6.251   4.403   2.522 -0.0452  0.4050  0.1833
 5425ntf    fn424674   6.345   4.544   2.646 -0.6770  0.1141  0.0470
 5425ntf    fn424675   6.460   4.440   2.500 -0.5197  0.4249 -0.1778
 5426ntf    cn124676   2.278   3.146   4.586  0.3769  0.1126  0.2662
 5426ntf    sn224677   2.317   3.162   4.409 -0.4904 -0.2233  0.0352
 5426ntf    nn324678   2.179   3.118   4.350 -0.6817 -0.0288  0.3373
 5426ntf    sn224679   2.122   2.972   4.340 -0.0801 -0.2155 -0.3708
 5426ntf    cn124680   2.158   2.929   4.166 -0.0417  0.3003 -0.4930
 5426ntf    fn424681   2.222   3.028   4.611  0.0063  0.2314  0.0081
 5426ntf    fn424682   2.388   3.155   4.658  0.4693 -0.3308  0.1814
 5426ntf    fn424683   2.194   3.242   4.623  0.0457  0.0245 -0.2473
 5426ntf    on524684   2.332   3.301   4.377 -0.0337 -0.3153 -0.1601
 5426ntf    on524685   2.430   3.075   4.384 -0.2397  0.1512 -0.1359
 5426ntf    on524686   1.978   2.974   4.341 -0.0746 -0.0277  0.1848
 5426ntf    on524687   2.193   2.866   4.408  0.1211 -0.1549 -0.4827
 5426ntf    fn424688   2.124   2.805   4.137 -0.1938  0.2120  0.0364
 5426ntf    fn424689   2.095   3.008   4.081 -0.4677  0.4077 -0.0842
 5426ntf    fn424690   2.286   2.948   4.137 -0.0700  0.6365 -0.4076
 5427ntf    cn124691   7.239   1.295   0.082 -0.1365 -0.3684 -0.0217
 5427ntf    sn224692   7.362   1.161   0.071  0.0107 -0.2424  0.0789
 5427ntf    nn324693   7.494   1.231   0.119 -0.2654  0.2605  0.1160
 5427ntf    sn224694   7.599   1.323   0.048 -0.2543 -0.1573 -0.4185
 5427ntf    cn124695   7.737   1.207   0.027 -0.1266 -0.1388  0.2875
 5427ntf    fn424696   7.129   1.266   0.015 -0.1876  0.0458 -0.1187
 5427ntf    fn424697   7.209   1.323   0.208  0.2118  0.3492 -0.0906
 5427ntf    fn424698   7.283   1.408   0.029 -0.0600 -0.3495  0.0800
 5427ntf    on524699   7.311   1.065   0.166 -0.0318  0.1106  0.4154
 5427ntf    on524700   7.366   1.119  -0.067  0.6703  0.1782 -0.0351
 5427ntf    on524701   7.653   1.428   0.132 -0.1451 -0.2746 -0.3404
 5427ntf    on524702   7.557   1.367  -0.082 -0.1554  0.0475 -0.3827
 5427ntf    fn424703   7.834   1.260  -0.046 -0.0993  0.1032  0.5003
 5427ntf    fn424704   7.794   1.167   0.140  0.2684  0.6077  0.3636
 5427ntf    fn424705   7.692   1.102  -0.039 -0.3820  0.1465  0.0055
 5428ntf    cn124706   1.234   3.349   2.542  0.2924  0.1572  0.1051
 5428ntf    sn224707   1.183   3.418   2.382 -0.0052 -0.0156  0.1248
 5428ntf    nn324708   1.159   3.565   2.432 -0.2925 -0.1899  0.5100
 5428ntf    sn224709   1.030   3.623   2.500 -0.1310  0.1974  0.4944
 5428ntf    cn124710   0.920   3.660   2.360  0.5075 -0.0787 -0.0822
 5428ntf    fn424711   1.141   3.352   2.636  0.1306  0.2142 -0.0562
 5428ntf    fn424712   1.278   3.224   2.535 -0.0444  0.0433 -0.0213
 5428ntf    fn424713   1.338   3.425   2.573  0.1419  0.4282 -0.0525
 5428ntf    on524714   1.300   3.424   2.299  0.1186  0.2583  0.3183
 5428ntf    on524715   1.071   3.334   2.345 -0.1961  0.3015 -0.0227
 5428ntf    on524716   1.061   3.753   2.552  0.6935  0.1291  0.1784
 5428ntf    on524717   0.961   3.528   2.584 -0.0315 -0.4672 -0.1617
 5428ntf    fn424718   0.805   3.710   2.399  0.3432 -0.2136 -0.3845
 5428ntf    fn424719   0.966   3.743   2.267 -0.1661  0.2369 -0.1364
 5428ntf    fn424720   0.895   3.551   2.289  0.4202  0.3218 -0.6718
 5429ntf    cn124721   0.772   6.483   5.506  0.0618 -0.1957  0.0382
 5429ntf    sn224722   0.748   6.318   5.578  0.0857 -0.2432 -0.0643
 5429ntf    nn324723   0.772   6.347   5.730  0.0905 -0.1849 -0.0761
 5429ntf    sn224724   0.669   6.385   5.843 -0.0256  0.0909 -0.2738
 5429ntf    cn124725   0.608   6.219   5.886  0.3371  0.1275  0.3875
 5429ntf    fn424726   0.892   6.537   5.521  0.1397 -0.4744  0.4418
 5429ntf    fn424727   0.738   6.482   5.378 -0.4129  0.0292  0.1613
 5429ntf    fn424728   0.696   6.574   5.563 -0.2348 -0.2701 -0.2361
 5429ntf    on524729   0.615   6.281   5.538 -0.1028  0.0654  0.2743
 5429ntf    on524730   0.863   6.245   5.528  0.3140 -0.6420  1.0196
 5429ntf    on524731   0.545   6.445   5.801 -0.2295 -0.0976  0.0570
 5429ntf    on524732   0.734   6.438   5.960  0.4711 -0.1068 -0.4561
 5429ntf    fn424733   0.497   6.223   5.958  0.0130  0.1070 -0.1047
 5429ntf    fn424734   0.581   6.155   5.774 -0.1080  0.7153  0.1519
 5429ntf    fn424735   0.700   6.152   5.953  0.6028  0.1892  0.0885
 5430ntf    cn124736   3.600   6.850   7.334 -0.2789  0.4058 -0.1474
 5430ntf    sn224737   3.586   6.916   7.165 -0.4528  0.4068 -0.1341
 5430ntf    nn324738   3.485   6.813   7.104  0.0781  0.0810 -0.4728
 5430ntf    sn224739   3.331   6.833   7.082 -0.0423 -0.3122 -0.0143
 5430ntf    cn124740   3.329   6.913   6.919 -0.2768 -0.2180  0.0343
 5430ntf    fn424741   3.654   6.729   7.339 -0.1039  0.4911  0.0345
 5430ntf    fn424742   3.679   6.921   7.413  0.0957 -0.2700  0.0959
 5430ntf    fn424743   3.486   6.849   7.402 -0.1027  0.3464  0.1488
 5430ntf    on524744   3.541   7.052   7.175 -0.0760  0.5579 -0.4678
 5430ntf    on524745   3.721   6.902   7.117 -0.5355  0.1482 -0.2923
 5430ntf    on524746   3.252   6.916   7.170 -0.0839 -0.2032 -0.1548
 5430ntf    on524747   3.277   6.702   7.053 -0.2281 -0.3214  0.3695
 5430ntf    fn424748   3.344   7.045   6.917 -0.3497 -0.2127 -0.2407
 5430ntf    fn424749   3.414   6.853   6.837  0.2616  0.4701  0.0721
 5430ntf    fn424750   3.216   6.885   6.856 -0.1100 -0.5746 -0.1099
 5431ntf    cn124751   4.154   3.844   7.420 -0.0340 -0.0937 -0.0554
 5431ntf    sn224752   4.031   3.949   7.335 -0.1745 -0.2041  0.0102
 5431ntf    nn324753   4.013   4.051   7.453 -0.1479 -0.3077  0.1047
 5431ntf    sn224754   3.889   4.076   7.546 -0.1146  0.1983  0.0187
 5431ntf    cn124755   3.896   4.257   7.564  0.0262  0.2051 -0.1024
 5431ntf    fn424756   4.254   3.917   7.467  0.0968 -0.1991 -0.1693
 5431ntf    fn424757   4.108   3.771   7.520 -0.0533 -0.1651 -0.1167
 5431ntf    fn424758   4.208   3.762   7.332  0.2670 -0.3124  0.3327
 5431ntf    on524759   4.092   4.015   7.222 -0.5839  0.5997  0.2505
 5431ntf    on524760   3.923   3.857   7.311 -0.1530 -0.3340  0.4065
 5431ntf    on524761   3.911   4.045   7.685  0.4147  0.5631  0.0156
 5431ntf    on524762   3.755   4.054   7.495  0.0424 -0.6016 -0.0708
 5431ntf    fn424763   3.804   4.315   7.488 -0.3466  0.2493  0.3807
 5431ntf    fn424764   3.880   4.292   7.690  0.1125 -0.4482  0.0969
 5431ntf    fn424765   4.010   4.307   7.521 -0.1044  0.3769 -0.2471
 5432ntf    cn124766   5.079   5.002   5.528 -0.2572  0.1317  0.3136
 5432ntf    sn224767   5.159   5.087   5.388 -0.3273 -0.0167  0.1834
 5432ntf    nn324768   5.288   5.000   5.367 -0.3125  0.1289 -0.3230
 5432ntf    sn224769   5.320   4.877   5.275 -0.0871  0.1228 -0.2356
 5432ntf    cn124770   5.369   4.978   5.132 -0.5661  0.5633 -0.0882
 5432ntf    fn424771   5.109   5.051   5.647 -0.7771  0.1491  0.4415
 5432ntf    fn424772   4.947   5.015   5.522 -0.2766 -0.2750 -0.2195
 5432ntf    fn424773   5.108   4.873   5.536  0.0422  0.1608 -0.2649
 5432ntf    on524774   5.063   5.072   5.281 -0.3966 -0.1252  0.2601
 5432ntf    on524775   5.185   5.224   5.423  0.3240 -0.1444  0.2057
 5432ntf    on524776   5.206   4.797   5.240 -0.1700  0.3017 -0.3729
 5432ntf    on524777   5.445   4.810   5.305  0.0648  0.6012  0.2270
 5432ntf    fn424778   5.272   5.054   5.083 -0.9104  0.5996  0.6363
 5432ntf    fn424779   5.469   5.055   5.173 -0.5015  0.3042  0.2465
 5432ntf    fn424780   5.419   4.899   5.039 -0.0638  0.2750  0.4163
 5433ntf    cn124781   3.174   0.576   5.425  0.2578  0.2073  0.2437
 5433ntf    sn224782   3.234   0.405   5.406 -0.1881  0.0833 -0.0818
 5433ntf    nn324783   3.375   0.406   5.475 -0.1762  0.1242 -0.1074
 5433ntf    sn224784   3.515   0.453   5.421 -0.0240 -0.3143 -0.0901
 5433ntf    cn124785   3.598   0.291   5.422  0.9116  0.1577 -0.3440
 5433ntf    fn424786   3.185   0.628   5.546  0.3276  0.1320  0.2701
 5433ntf    fn424787   3.244   0.654   5.345  0.2249  0.4235  0.4264
 5433ntf    fn424788   3.047   0.582   5.390  0.2480  0.3639  0.3104
 5433ntf    on524789   3.141   0.343   5.497  0.1517  0.5320  0.5796
 5433ntf    on524790   3.238   0.369   5.267  0.4510  0.0970 -0.0729
 5433ntf    on524791   3.598   0.524   5.515 -0.0713 -0.6758  0.2277
 5433ntf    on524792   3.522   0.498   5.285  0.6469  0.3328  0.1528
 5433ntf    fn424793   3.547   0.203   5.337  0.1606  0.2585 -0.0056
 5433ntf    fn424794   3.726   0.299   5.388  1.0475 -0.5724 -0.0385
 5433ntf    fn424795   3.597   0.239   5.543  0.4277  0.3272 -0.2729
 5434ntf    cn124796   1.190   6.897   0.601  0.0853  0.1128  0.2868
 5434ntf    sn224797   1.035   6.919   0.509  0.4327  0.0222 -0.3236
 5434ntf    nn324798   0.972   7.041   0.585  0.0119 -0.3315 -0.1016
 5434ntf    sn224799   0.821   7.083   0.586  0.1392  0.1354 -0.1710
 5434ntf    cn124800   0.763   6.995   0.734 -0.0789  0.4874 -0.0476
 5434ntf    fn424801   1.178   6.858   0.727  0.3191  0.0351  0.2860
 5434ntf    fn424802   1.270   6.810   0.541  0.1787  0.3185  0.1118
 5434ntf    fn424803   1.257   7.011   0.601 -0.3334  0.3621 -0.0752
 5434ntf    on524804   1.068   6.953   0.373  0.3533 -0.4967 -0.4767
 5434ntf    on524805   0.967   6.794   0.533  0.1658  0.2575  0.1528
 5434ntf    on524806   0.749   7.027   0.474 -0.1011 -0.1458  0.1202
 5434ntf    on524807   0.800   7.222   0.616 -0.0142 -0.0074  0.3895
 5434ntf    fn424808   0.773   6.863   0.738 -0.5207  0.4504 -0.0431
 5434ntf    fn424809   0.828   7.043   0.839  0.4581  0.0538 -0.1767
 5434ntf    fn424810   0.634   7.020   0.755 -0.0441  0.5284  0.1195
 5435ntf    cn124811   4.168   3.534   5.672  0.0404  0.0731  0.1147
 5435ntf    sn224812   4.114   3.417   5.544 -0.2476  0.0314  0.2742
 5435ntf    nn324813   4.155   3.281   5.612  0.0197 -0.2137 -0.3711
 5435ntf    sn224814   4.280   3.196   5.570  0.1000 -0.1579 -0.2469
 5435ntf    cn124815   4.215   3.095   5.434  0.6522 -0.1386 -0.5268
 5435ntf    fn424816   4.116   3.504   5.790  0.4449  0.7111  0.4628
 5435ntf    fn424817   4.299   3.527   5.691 -0.1220 -0.6096  1.0395
 5435ntf    fn424818   4.125   3.657   5.648 -0.0523  0.0075 -0.0525
 5435ntf    on524819   3.973   3.442   5.540 -0.1945  0.2708 -0.1278
 5435ntf    on524820   4.184   3.458   5.425  0.1576  0.0387  0.5124
 5435ntf    on524821   4.315   3.105   5.676 -0.7003  0.3202  0.4364
 5435ntf    on524822   4.393   3.266   5.514  0.5216 -0.1421  0.5946
 5435ntf    fn424823   4.304   3.006   5.391 -0.1171 -0.7853 -0.7960
 5435ntf    fn424824   4.104   3.027   5.454  0.4005  0.3063 -0.4141
 5435ntf    fn424825   4.178   3.171   5.332 -0.1641  0.8523  0.4849
 5436ntf    cn124826   4.531   0.983   3.417  0.1059 -0.5694 -0.0306
 5436ntf    sn224827   4.421   1.121   3.462  0.3504 -0.4492  0.2045
 5436ntf    nn324828   4.292   1.079   3.382 -0.1445  0.5562  0.4645
 5436ntf    sn224829   4.257   1.125   3.236  0.1615  0.2239  0.2837
 5436ntf    cn124830   4.187   0.970   3.173 -0.1094  0.4263  0.0843
 5436ntf    fn424831   4.585   1.002   3.298  0.4260 -0.1051  0.1862
 5436ntf    fn424832   4.639   0.984   3.493  0.1740  0.2261 -0.1311
 5436ntf    fn424833   4.468   0.866   3.414  0.3131 -0.6922  0.3079
 5436ntf    on524834   4.402   1.106   3.604  0.1668 -0.1979  0.2062
 5436ntf    on524835   4.483   1.246   3.426 -0.2931 -0.1514  0.1260
 5436ntf    on524836   4.370   1.149   3.150  0.3260 -0.1209  0.4008
 5436ntf    on524837   4.151   1.223   3.237  0.0654  0.1241 -0.0191
 5436ntf    fn424838   4.080   0.932   3.241 -0.3431  0.0082 -0.5092
 5436ntf    fn424839   4.157   0.987   3.045 -0.4895  0.2286  0.1465
 5436ntf    fn424840   4.275   0.872   3.181 -0.0389  0.5063  0.2886
 5437ntf    cn124841   1.129   4.998   0.130  0.0453 -0.1723  0.0280
 5437ntf    sn224842   1.222   4.844   0.157  0.1430 -0.1272 -0.0486
 5437ntf    nn324843   1.151   4.742   0.062  0.0104  0.1713 -0.2693
 5437ntf    sn224844   1.179   4.587   0.063  0.0606  0.1831  0.1760
 5437ntf    cn124845   1.229   4.563  -0.110 -0.2486 -0.3243  0.1567
 5437ntf    fn424846   1.109   5.022   0.002  0.3696  0.3120  0.0654
 5437ntf    fn424847   1.008   5.016   0.181  0.0879  0.7304 -0.1812
 5437ntf    fn424848   1.203   5.096   0.180  0.5526 -0.2835 -0.4912
 5437ntf    on524849   1.351   4.885   0.110 -0.1557  0.7000 -0.1531
 5437ntf    on524850   1.211   4.825   0.300  0.1760  0.2717  0.0060
 5437ntf    on524851   1.059   4.508   0.073  0.5552 -0.6008 -0.0378
 5437ntf    on524852   1.301   4.554   0.131  0.2092  0.7034  0.1682
 5437ntf    fn424853   1.137   4.602  -0.197 -0.2496 -0.6958 -0.0128
 5437ntf    fn424854   1.342   4.623  -0.143 -0.5408  0.2846  0.2587
 5437ntf    fn424855   1.246   4.435  -0.139 -0.3962 -0.2156 -0.4228
 5438ntf    cn124856   6.173   2.778   2.421  0.5707 -0.2723  0.0325
 5438ntf    sn224857   6.150   2.605   2.471 -0.1167 -0.1685  0.0748
 5438ntf    nn324858   6.063   2.546   2.355  0.1175 -0.1552 -0.1075
 5438ntf    sn224859   6.113   2.467   2.228  0.3967  0.0581 -0.1315
 5438ntf    cn124860   6.000   2.551   2.113 -0.1080 -0.0433  0.2853
 5438ntf    fn424861   6.228   2.847   2.519 -0.0420  0.5403 -0.1845
 5438ntf    fn424862   6.248   2.804   2.314 -0.2059 -0.1126 -0.4803
 5438ntf    fn424863   6.058   2.838   2.398  0.5547 -0.3607 -0.1245
 5438ntf    on524864   6.285   2.555   2.466  0.0012  0.1877 -0.2989
 5438ntf    on524865   6.086   2.616   2.600  0.3398  0.0700  0.2797
 5438ntf    on524866   6.073   2.329   2.216  0.0927  0.1022  0.3322
 5438ntf    on524867   6.246   2.496   2.182  0.2329  0.7467 -0.1801
 5438ntf    fn424868   6.023   2.679   2.090 -0.0702 -0.2474 -0.8402
 5438ntf    fn424869   5.996   2.498   1.992  0.7206  0.1506  0.1692
 5438ntf    fn424870   5.877   2.544   2.161 -0.2718  0.2939 -0.0840
 5439ntf    cn124871   2.206   4.923   1.741  0.1510  0.2558 -0.1707
 5439ntf    sn224872   2.188   4.747   1.698 -0.3362  0.2481  0.0568
 5439ntf    nn324873   2.228   4.742   1.546  0.4303 -0.5635  0.2748
 5439ntf    sn224874   2.369   4.715   1.482  0.3737 -0.4491  0.0998
 5439ntf    cn124875   2.373   4.533   1.481 -0.0892 -0.4597 -0.0704
 5439ntf    fn424876   2.139   4.998   1.655  0.2462  0.1954 -0.2981
 5439ntf    fn424877   2.166   4.941   1.865 -0.1398  0.3291 -0.2742
 5439ntf    fn424878   2.331   4.966   1.731  0.1013  0.4545  0.0723
 5439ntf    on524879   2.281   4.674   1.781 -0.0213  0.4799 -0.0928
 5439ntf    on524880   2.048   4.717   1.714 -0.2792  0.2734  0.6351
 5439ntf    on524881   2.477   4.743   1.574  0.6874 -0.7566 -0.1729
 5439ntf    on524882   2.383   4.764   1.347  0.0946  0.2230  0.3116
 5439ntf    fn424883   2.348   4.476   1.598  0.2805 -0.1029  0.1874
 5439ntf    fn424884   2.293   4.479   1.391 -0.5411  0.1283 -0.0288
 5439ntf    fn424885   2.499   4.498   1.460 -0.0179 -0.2032 -0.0819
 5440ntf    cn124886   2.718   7.025   1.118 -0.2246  0.0360 -0.5244
 5440ntf    sn224887   2.569   7.117   1.069 -0.2677  0.2496  0.0027
 5440ntf    nn324888   2.623   7.250   1.004 -0.3109  0.0577 -0.4284
 5440ntf    sn224889   2.681   7.368   1.090 -0.1487 -0.2372 -0.1271
 5440ntf    cn124890   2.523   7.451   1.125 -0.0319  0.0200 -0.2017
 5440ntf    fn424891   2.777   7.064   1.230 -0.6888  0.0654 -0.2882
 5440ntf    fn424892   2.686   6.899   1.143 -0.3092  0.1561 -0.0135
 5440ntf    fn424893   2.818   7.009   1.032  0.5405 -0.2184  0.3939
 5440ntf    on524894   2.511   7.028   0.972  0.4477  0.3551 -0.5301
 5440ntf    on524895   2.502   7.143   1.194 -0.0292  0.6811  0.0434
 5440ntf    on524896   2.763   7.461   1.017 -0.0276 -0.2160  0.0359
 5440ntf    on524897   2.733   7.322   1.216 -0.5054 -0.4145 -0.0427
 5440ntf    fn424898   2.444   7.392   1.213  0.1845 -0.0730 -0.0672
 5440ntf    fn424899   2.545   7.570   1.177 -0.5889 -0.0291  0.1585
 5440ntf    fn424900   2.448   7.465   1.018  0.0701  0.9112 -0.1589
 5441ntf    cn124901   1.802   0.429   0.095 -0.1978 -0.0542  0.2645
 5441ntf    sn224902   1.901   0.582   0.100 -0.0746 -0.1273  0.0783
 5441ntf    nn324903   1.974   0.564   0.238  0.1120  0.2513  0.0301
 5441ntf    sn224904   1.929   0.614   0.380  0.0208  0.1876  0.0238
 5441ntf    cn124905   2.010   0.775   0.397  0.0567  0.1644  0.0736
 5441ntf    fn424906   1.779   0.370   0.211  0.2598  0.1526  0.4625
 5441ntf    fn424907   1.683   0.454   0.041 -0.2541 -0.1216  0.3577
 5441ntf    fn424908   1.862   0.343   0.014 -0.1369 -0.0690  0.3256
 5441ntf    on524909   2.001   0.573  -0.004 -0.1954 -0.1682 -0.0347
 5441ntf    on524910   1.808   0.691   0.092 -0.3169 -0.3084  0.3968
 5441ntf    on524911   1.993   0.543   0.488 -0.2968  0.4512  0.3890
 5441ntf    on524912   1.788   0.641   0.394 -0.1235 -0.7929  0.5716
 5441ntf    fn424913   2.139   0.755   0.417  0.1811  0.7424 -0.1140
 5441ntf    fn424914   2.002   0.851   0.289  0.0476 -0.1232 -0.1295
 5441ntf    fn424915   1.958   0.846   0.496  0.6767  0.1628  0.4032
 5442ntf    cn124916   0.646   5.357   0.063 -0.2144 -0.2087 -0.3818
 5442ntf    sn224917   0.528   5.226   0.109  0.2367 -0.4153  0.1870
 5442ntf    nn324918   0.602   5.165   0.234  0.3426  0.1391  0.3955
 5442ntf    sn224919   0.520   5.115   0.358 -0.4910  0.0065 -0.2004
 5442ntf    cn124920   0.654   5.065   0.470 -0.3054  0.2019 -0.3353
 5442ntf    fn424921   0.650   5.454   0.152 -0.4461 -0.3532 -0.2102
 5442ntf    fn424922   0.768   5.307   0.061 -0.4443 -0.7773 -0.6597
 5442ntf    fn424923   0.613   5.403  -0.057  0.1364 -0.3264 -0.5251
 5442ntf    on524924   0.413   5.305   0.144  0.4100  0.0376 -0.2623
 5442ntf    on524925   0.534   5.135  -0.003  0.4373 -0.1640 -0.0073
 5442ntf    on524926   0.431   5.004   0.333  0.2487 -0.4837 -0.6844
 5442ntf    on524927   0.456   5.226   0.424  0.3419  0.1261  0.4121
 5442ntf    fn424928   0.712   4.958   0.417 -0.0841  0.2457 -0.1817
 5442ntf    fn424929   0.750   5.155   0.483  0.0003 -0.2379  0.4803
 5442ntf    fn424930   0.611   5.031   0.590  0.1799  0.0418 -0.2058
 5443ntf    cn124931   0.214   4.054   6.809  0.4489  0.3536 -0.0637
 5443ntf    sn224932   0.355   3.940   6.797 -0.0432 -0.2553 -0.1221
 5443ntf    nn324933   0.475   4.041   6.791  0.1618 -0.4900  0.0014
 5443ntf    sn224934   0.581   4.055   6.676 -0.0218  0.3047 -0.0774
 5443ntf    cn124935   0.705   3.935   6.734 -0.2021  0.1785  0.0489
 5443ntf    fn424936   0.208   4.127   6.919 -0.1285  0.0440  0.1142
 5443ntf    fn424937   0.197   4.144   6.712 -0.1646  0.1748 -0.1279
 5443ntf    fn424938   0.101   3.986   6.814  0.4938  0.2951  0.1275
 5443ntf    on524939   0.340   3.878   6.926  0.0672 -0.3441 -0.1520
 5443ntf    on524940   0.322   3.861   6.682 -0.3337  0.2256 -0.3709
 5443ntf    on524941   0.635   4.189   6.685 -0.3307  0.4278 -0.0492
 5443ntf    on524942   0.535   4.008   6.548  0.4329  0.1648 -0.1893
 5443ntf    fn424943   0.744   3.970   6.855  0.3882 -0.2499 -0.0153
 5443ntf    fn424944   0.658   3.812   6.746  0.4093 -0.0502  0.1127
 5443ntf    fn424945   0.810   3.923   6.655 -0.4033 -0.5836 -0.1132
 5444ntf    cn124946   1.207   2.785   3.843  0.1098  0.1597  0.1703
 5444ntf    sn224947   1.110   2.868   3.972  0.0544  0.1498  0.1348
 5444ntf    nn324948   1.047   2.745   4.047 -0.0634  0.0552 -0.1191
 5444ntf    sn224949   0.900   2.691   4.055 -0.0721  0.0909 -0.0424
 5444ntf    cn124950   0.893   2.686   4.237 -0.1267 -0.4632 -0.0590
 5444ntf    fn424951   1.267   2.866   3.757 -0.5898 -0.0627 -0.5387
 5444ntf    fn424952   1.303   2.705   3.887  0.3756  0.1818 -0.3578
 5444ntf    fn424953   1.129   2.709   3.769  0.7350 -0.4604  0.1369
 5444ntf    on524954   1.222   2.919   4.048  0.4001 -0.3333 -0.0480
 5444ntf    on524955   1.026   2.962   3.901 -0.2305  0.1844  0.5128
 5444ntf    on524956   0.887   2.551   4.021  0.3675  0.2669 -0.9567
 5444ntf    on524957   0.795   2.783   4.021 -0.6690 -0.3137  0.6681
 5444ntf    fn424958   0.915   2.808   4.283 -0.4681 -0.2365 -0.4867
 5444ntf    fn424959   0.777   2.648   4.287 -0.2308  0.4589  0.4145
 5444ntf    fn424960   0.987   2.612   4.294  0.0717  0.0956  0.3373
 5445ntf    cn124961   2.021   5.083   4.137  0.2406  0.2849  0.0479
 5445ntf    sn224962   1.871   4.997   4.079  0.5032 -0.1385 -0.0065
 5445ntf    nn324963   1.788   5.113   4.014 -0.2207 -0.4012  0.4305
 5445ntf    sn224964   1.677   5.206   4.075 -0.0568  0.2413 -0.2415
 5445ntf    cn124965   1.724   5.359   3.989  0.6922  0.2288  0.1341
 5445ntf    fn424966   2.105   5.003   4.200  0.1046 -0.1834 -0.3564
 5445ntf    fn424967   2.103   5.117   4.039  0.1850 -0.3204 -0.2151
 5445ntf    fn424968   2.001   5.186   4.217  0.0828  0.3023 -0.0133
 5445ntf    on524969   1.916   4.909   3.974 -0.0941 -0.5078  0.0419
 5445ntf    on524970   1.807   4.940   4.196  0.0647  0.0394 -0.1587
 5445ntf    on524971   1.685   5.241   4.214 -0.2670  0.1198 -0.1994
 5445ntf    on524972   1.547   5.187   4.016 -0.0508  0.1563 -0.2280
 5445ntf    fn424973   1.846   5.347   3.939  0.5456 -0.0080 -0.1712
 5445ntf    fn424974   1.641   5.383   3.888  0.4932 -0.1454  0.2075
 5445ntf    fn424975   1.716   5.467   4.064  0.0320  0.3293 -0.0767
 5446ntf    cn124976   5.077   2.209   4.693  0.2551 -0.0206  0.2484
 5446ntf    sn224977   5.110   2.212   4.871 -0.0434 -0.2568  0.3081
 5446ntf    nn324978   5.178   2.071   4.890 -0.5941 -0.3766  1.5282
 5446ntf    sn224979   5.325   2.026   4.920 -0.0891  0.1624 -0.0146
 5446ntf    cn124980   5.345   1.904   4.787 -0.3450  0.0858  0.0167
 5446ntf    fn424981   5.014   2.320   4.660 -0.3255 -0.2851  0.4376
 5446ntf    fn424982   5.185   2.188   4.619 -0.1664  0.3941 -0.4925
 5446ntf    fn424983   4.990   2.111   4.673 -0.3181  0.5068  0.1440
 5446ntf    on524984   5.197   2.324   4.894  0.0365 -0.2315 -0.1089
 5446ntf    on524985   4.979   2.219   4.931 -0.2956 -1.2417 -0.1090
 5446ntf    on524986   5.345   1.937   5.032  0.1425  0.4641  0.1867
 5446ntf    on524987   5.425   2.127   4.896  0.3389 -0.3990 -0.6354
 5446ntf    fn424988   5.334   1.958   4.666 -0.4021 -0.0081 -0.0206
 5446ntf    fn424989   5.461   1.841   4.783 -0.1950  0.3584  0.0190
 5446ntf    fn424990   5.255   1.807   4.793 -0.3548  0.0726 -0.3078
 5447ntf    cn124991   4.769   0.360   1.627  0.2400  0.0056 -0.1182
 5447ntf    sn224992   4.906   0.477   1.603  0.2163  0.0020 -0.2688
 5447ntf    nn324993   4.947   0.511   1.750 -0.4459 -0.0772 -0.0619
 5447ntf    sn224994   5.063   0.599   1.810 -0.2598 -0.2753 -0.1255
 5447ntf    cn124995   5.184   0.472   1.857  0.1944  0.1410 -0.1585
 5447ntf    fn424996   4.805   0.252   1.695 -0.0020 -0.3356 -0.5226
 5447ntf    fn424997   4.669   0.409   1.698  0.2159  0.5523 -0.5189
 5447ntf    fn424998   4.727   0.320   1.508 -0.4625  0.3821  0.0016
 5447ntf    on524999   5.006   0.394   1.540  0.4003 -0.1895  0.2680
 5447ntf    on525000   4.849   0.586   1.528  0.1227 -0.0563 -0.2825
 5447ntf    on525001   5.028   0.670   1.930 -0.1887 -0.1418 -0.1830
 5447ntf    on525002   5.132   0.678   1.711  0.0738  0.0348  0.3506
 5447ntf    fn425003   5.249   0.411   1.759  0.5158  0.1712  0.0370
 5447ntf    fn425004   5.285   0.526   1.922 -0.0876  0.3611  0.0999
 5447ntf    fn425005   5.124   0.383   1.934  0.1642  0.2205 -0.0905
 5448ntf    cn125006   6.746   2.140   4.381 -0.1626 -0.1361  0.5587
 5448ntf    sn225007   6.915   2.072   4.383 -0.2114 -0.2661  0.3477
 5448ntf    nn325008   6.889   1.922   4.344  0.0537 -0.2573  0.1378
 5448ntf    sn225009   6.850   1.800   4.434  0.1229 -0.3396  0.0571
 5448ntf    cn125010   6.782   1.700   4.298  0.1558 -0.0212 -0.1945
 5448ntf    fn425011   6.745   2.271   4.357  0.4280 -0.2425 -0.0801
 5448ntf    fn425012   6.681   2.076   4.286  0.2970 -0.0255  0.1605
 5448ntf    fn425013   6.686   2.119   4.497  0.0698 -0.2155  0.6647
 5448ntf    on525014   6.979   2.136   4.271 -0.7104  0.7541  0.6306
 5448ntf    on525015   6.965   2.091   4.517 -0.1696  0.6095  0.2159
 5448ntf    on525016   6.731   1.826   4.513  0.4244 -0.2527  0.4860
 5448ntf    on525017   6.958   1.715   4.475  0.0138 -0.4450  0.1277
 5448ntf    fn425018   6.869   1.635   4.223  0.0322 -0.1546 -0.2222
 5448ntf    fn425019   6.707   1.604   4.350  0.6118 -0.1385  0.2584
 5448ntf    fn425020   6.703   1.769   4.217  0.2744  0.0560 -0.2433
 5449ntf    cn125021   0.487   3.537   1.853 -0.2096  0.1249 -0.0450
 5449ntf    sn225022   0.577   3.391   1.915  0.2182  0.5479  0.3365
 5449ntf    nn325023   0.723   3.437   1.881  0.5217 -0.3722  0.3859
 5449ntf    sn225024   0.834   3.373   1.790  0.3982 -0.0529  0.0072
 5449ntf    cn125025   0.954   3.321   1.916  0.0544 -0.0876  0.3238
 5449ntf    fn425026   0.512   3.641   1.930  0.1379 -0.0785  0.1218
 5449ntf    fn425027   0.528   3.581   1.735 -0.6897 -0.0239 -0.2679
 5449ntf    fn425028   0.358   3.511   1.855 -0.1816 -0.0123  0.0222
 5449ntf    on525029   0.553   3.374   2.057  0.5942 -0.2957  0.2998
 5449ntf    on525030   0.518   3.288   1.834 -0.2429  1.0541  0.0174
 5449ntf    on525031   0.905   3.475   1.717 -0.0542  0.3503  0.1258
 5449ntf    on525032   0.804   3.247   1.726  0.3998  0.4616 -1.0272
 5449ntf    fn425033   1.031   3.421   1.957 -0.1253  0.2239 -0.0966
 5449ntf    fn425034   0.883   3.281   2.020 -0.1798 -0.5089  0.0048
 5449ntf    fn425035   1.038   3.230   1.869  0.0354 -0.0098  0.1405
 5450ntf    cn125036   3.519   0.564   3.137  0.1748 -0.0777  0.5022
 5450ntf    sn225037   3.433   0.419   3.203  0.0130 -0.0680  0.3165
 5450ntf    nn325038   3.288   0.453   3.156  0.1893 -0.0065 -0.1816
 5450ntf    sn225039   3.157   0.368   3.170  0.0988  0.1180 -0.2625
 5450ntf    cn125040   3.088   0.411   3.332 -0.2933  0.0513 -0.4104
 5450ntf    fn425041   3.482   0.675   3.199 -0.2900  0.0839 -0.0568
 5450ntf    fn425042   3.650   0.550   3.150  0.3167  0.3084 -0.4228
 5450ntf    fn425043   3.501   0.574   3.006  0.1539  0.2020  0.5241
 5450ntf    on525044   3.506   0.309   3.146 -0.2137 -0.1911  0.2630
 5450ntf    on525045   3.455   0.438   3.345  0.2520  0.6551  0.1841
 5450ntf    on525046   3.185   0.227   3.184 -0.2367 -0.0040 -0.7576
 5450ntf    on525047   3.048   0.398   3.080 -0.0286  0.4262 -0.0077
 5450ntf    fn425048   3.061   0.540   3.344 -0.5451 -0.0123 -0.2736
 5450ntf    fn425049   2.972   0.349   3.351 -0.0075 -0.3128  0.1848
 5450ntf    fn425050   3.155   0.374   3.440 -0.4635  0.2664 -0.2286
 5451ntf    cn125051   2.866   3.095   2.206  0.1977 -0.3825  0.1194
 5451ntf    sn225052   2.822   3.127   2.032  0.3818 -0.0566  0.1314
 5451ntf    nn325053   2.892   3.004   1.963  1.0256 -0.1500  0.9284
 5451ntf    sn225054   2.989   3.000   1.840 -0.1065  0.2610 -0.0002
 5451ntf    cn125055   3.140   3.002   1.942 -0.2292 -0.1944  0.1920
 5451ntf    fn425056   2.996   3.072   2.217  0.3678  0.3252 -0.3320
 5451ntf    fn425057   2.826   3.193   2.286  0.1183 -0.0912 -0.2732
 5451ntf    fn425058   2.816   2.983   2.255 -0.7258  0.1715  0.4605
 5451ntf    on525059   2.678   3.117   2.027  0.3797 -0.1511  0.3439
 5451ntf    on525060   2.879   3.254   1.994  0.2115 -0.0285 -0.0290
 5451ntf    on525061   3.003   3.116   1.756  0.2535 -0.0336 -0.3539
 5451ntf    on525062   2.986   2.870   1.776 -0.0208  0.2038  0.1116
 5451ntf    fn425063   3.146   2.906   2.034  0.0638  0.1401  0.5241
 5451ntf    fn425064   3.253   2.994   1.875 -0.3228 -0.0795  0.0189
 5451ntf    fn425065   3.140   3.115   2.010 -0.2243  0.0748 -0.2531
 5452ntf    cn125066   6.997   1.537   2.617 -0.1166 -0.1483 -0.2293
 5452ntf    sn225067   7.010   1.503   2.439  0.1033 -0.1481 -0.2128
 5452ntf    nn325068   7.043   1.644   2.378  0.0649 -0.1626 -0.2673
 5452ntf    sn225069   7.124   1.677   2.248 -0.0950  0.0852 -0.3047
 5452ntf    cn125070   7.291   1.645   2.312 -0.2685  0.1895  0.2016
 5452ntf    fn425071   6.901   1.623   2.645 -0.2608 -0.3579 -0.0734
 5452ntf    fn425072   6.980   1.427   2.689 -0.0741 -0.0429 -0.0566
 5452ntf    fn425073   7.108   1.593   2.663  0.2489 -0.9093 -0.1591
 5452ntf    on525074   7.123   1.413   2.446  0.1019 -0.1466 -0.1687
 5452ntf    on525075   6.879   1.455   2.402  0.0563 -0.1436 -0.0530
 5452ntf    on525076   7.115   1.817   2.217 -0.3569  0.2714  0.5923
 5452ntf    on525077   7.104   1.590   2.134 -0.0608 -0.3689  0.0337
 5452ntf    fn425078   7.313   1.516   2.299 -0.5074  0.1819 -0.1195
 5452ntf    fn425079   7.387   1.694   2.235  0.1180 -0.3146  0.3615
 5452ntf    fn425080   7.311   1.668   2.441 -0.5240 -0.1223  0.2976
 5453ntf    cn125081   2.170   0.243   6.383  0.5590 -0.4281 -0.0017
 5453ntf    sn225082   2.171   0.299   6.210  0.1421  0.2081  0.1983
 5453ntf    nn325083   2.033   0.238   6.165  0.3494  0.0509 -0.2292
 5453ntf    sn225084   2.006   0.090   6.124  0.0911  0.0364 -0.0106
 5453ntf    cn125085   1.980   0.111   5.945  0.2515 -0.1875 -0.0619
 5453ntf    fn425086   2.061   0.276   6.451  0.1326 -0.3598 -0.7053
 5453ntf    fn425087   2.171   0.111   6.391  0.4160 -0.4427 -0.2092
 5453ntf    fn425088   2.273   0.281   6.456  0.3232  0.1992  0.0114
 5453ntf    on525089   2.158   0.443   6.216 -0.6904  0.1527 -0.1050
 5453ntf    on525090   2.294   0.242   6.161  0.0268  0.3810 -0.2982
 5453ntf    on525091   1.879   0.040   6.171 -0.1177  0.1465 -0.4455
 5453ntf    on525092   2.111  -0.009   6.126  0.3585  0.3187 -0.1553
 5453ntf    fn425093   1.963  -0.005   5.885 -0.1278  0.0740 -0.4715
 5453ntf    fn425094   1.870   0.179   5.916  0.2642 -0.0277  0.2579
 5453ntf    fn425095   2.081   0.171   5.884  0.0008  0.2205 -0.0834
 5454ntf    cn125096   4.082   1.612   0.945  0.0355 -0.0968  0.0692
 5454ntf    sn225097   3.935   1.709   0.899  0.0036 -0.1708  0.0167
 5454ntf    nn325098   3.975   1.726   0.748 -0.3387  0.1710 -0.0353
 5454ntf    sn225099   3.893   1.709   0.615 -0.3427 -0.2831  0.0252
 5454ntf    cn125100   3.949   1.543   0.568  0.4456 -0.1045  0.3130
 5454ntf    fn425101   4.092   1.504   0.870  0.4407 -0.0479  0.0515
 5454ntf    fn425102   4.194   1.680   0.925  0.0692 -0.2163 -0.1452
 5454ntf    fn425103   4.075   1.577   1.073  0.2115 -0.1388  0.0684
 5454ntf    on525104   3.829   1.613   0.919 -0.3455  0.0824 -0.5934
 5454ntf    on525105   3.930   1.827   0.980  0.2405 -0.2951  0.2146
 5454ntf    on525106   3.938   1.794   0.508 -0.3922 -0.6932 -0.3237
 5454ntf    on525107   3.750   1.697   0.634 -0.4033 -0.3249 -0.4469
 5454ntf    fn425108   3.886   1.490   0.464  0.4620  0.2081  0.1441
 5454ntf    fn425109   4.076   1.545   0.532  0.3108  0.6180 -0.1428
 5454ntf    fn425110   3.936   1.459   0.669  0.2307 -0.1140  0.2781
 5455ntf    cn125111   7.062   1.825   3.036 -0.1180  0.0824  0.0185
 5455ntf    sn225112   7.040   1.835   3.216  0.2127  0.0713  0.0611
 5455ntf    nn325113   6.977   1.977   3.238 -0.4648 -0.2281  0.0951
 5455ntf    sn225114   6.834   2.020   3.191 -0.3778 -0.1772 -0.1220
 5455ntf    cn125115   6.752   1.992   3.350 -0.1902  0.1365  0.0315
 5455ntf    fn425116   7.113   1.934   2.980 -0.3858  0.1690 -0.0578
 5455ntf    fn425117   7.148   1.732   2.998  0.0870  0.1564  0.2968
 5455ntf    fn425118   6.948   1.802   2.974 -0.1155  0.3594 -0.0924
 5455ntf    on525119   6.960   1.721   3.253  0.3544 -0.1921 -0.4393
 5455ntf    on525120   7.175   1.836   3.266  0.3093  0.3313 -0.2035
 5455ntf    on525121   6.774   1.937   3.089  0.2725 -0.3372 -0.3839
 5455ntf    on525122   6.822   2.163   3.173 -0.0715 -0.1285  0.0482
 5455ntf    fn425123   6.801   2.068   3.446 -0.2237 -0.1723  0.2969
 5455ntf    fn425124   6.620   2.002   3.349 -0.1701  0.4423  0.2631
 5455ntf    fn425125   6.778   1.867   3.386  0.0847  0.2953  0.3850
 5456ntf    cn125126   2.678   2.529   2.596 -0.0428  0.3571 -0.0135
 5456ntf    sn225127   2.590   2.395   2.682  0.0030  0.3279 -0.0116
 5456ntf    nn325128   2.567   2.297   2.562 -0.5323 -0.2820  0.5826
 5456ntf    sn225129   2.451   2.285   2.457  0.0786  0.0039 -0.1329
 5456ntf    cn125130   2.361   2.138   2.514 -0.2293  0.1661 -0.1995
 5456ntf    fn425131   2.602   2.580   2.501 -0.0923  0.2495 -0.0304
 5456ntf    fn425132   2.704   2.631   2.678  0.0084  0.2912  0.0528
 5456ntf    fn425133   2.798   2.502   2.548  0.1646  0.5360  0.3953
 5456ntf    on525134   2.685   2.339   2.775  0.0728  0.1658 -0.1808
 5456ntf    on525135   2.472   2.459   2.735 -0.1366  0.3106 -0.3034
 5456ntf    on525136   2.507   2.248   2.329 -0.3711  0.1339 -0.3695
 5456ntf    on525137   2.355   2.392   2.449  0.0792 -0.0292 -0.6656
 5456ntf    fn425138   2.250   2.113   2.447 -0.1752 -0.4662 -0.0558
 5456ntf    fn425139   2.435   2.029   2.499 -0.4920 -0.0172 -0.1665
 5456ntf    fn425140   2.322   2.141   2.641  0.3653  0.0673 -0.0138
 5457ntf    cn125141   0.512   1.301   0.250 -0.3178 -0.0467  0.7324
 5457ntf    sn225142   0.683   1.347   0.292 -0.1596  0.0720 -0.0229
 5457ntf    nn325143   0.660   1.421   0.429 -0.0326 -0.0864  0.0843
 5457ntf    sn225144   0.642   1.359   0.572 -0.0707  0.0546  0.1402
 5457ntf    cn125145   0.467   1.399   0.603 -0.0979  0.1255 -0.0976
 5457ntf    fn425146   0.469   1.199   0.322  0.1862 -0.5655  0.3090
 5457ntf    fn425147   0.428   1.402   0.270 -0.2415  0.1659  0.0049
 5457ntf    fn425148   0.507   1.269   0.122  0.0590  0.5045  0.5731
 5457ntf    on525149   0.757   1.224   0.309  0.1506  0.2980  0.2587
 5457ntf    on525150   0.724   1.438   0.188  0.1365  0.1180  0.1344
 5457ntf    on525151   0.715   1.438   0.668 -0.2517  0.3712  0.0217
 5457ntf    on525152   0.647   1.216   0.589 -0.1696  0.0592  0.2102
 5457ntf    fn425153   0.423   1.362   0.723 -0.3148  0.3074 -0.1203
 5457ntf    fn425154   0.449   1.530   0.598 -0.3334  0.1085  0.2634
 5457ntf    fn425155   0.387   1.341   0.516 -0.3261  0.3723 -0.0555
 5458ntf    cn125156   4.335   2.593   6.007 -0.0856  0.2199  0.3368
 5458ntf    sn225157   4.375   2.419   5.976 -0.1208  0.2913 -0.1200
 5458ntf    nn325158   4.261   2.348   6.057  0.0383  0.3619  0.1668
 5458ntf    sn225159   4.264   2.238   6.170 -0.0172  0.1738 -0.0136
 5458ntf    cn125160   4.106   2.152   6.142  0.1940 -0.1123 -0.3262
 5458ntf    fn425161   4.427   2.669   5.948 -0.1551 -0.1037 -0.1886
 5458ntf    fn425162   4.215   2.626   5.964  0.1428  0.3391 -0.2286
 5458ntf    fn425163   4.349   2.630   6.133  0.6487 -0.6814  0.5279
 5458ntf    on525164   4.365   2.400   5.833  0.0246  0.1429 -0.1108
 5458ntf    on525165   4.509   2.408   6.028 -0.2301  0.0648  0.1184
 5458ntf    on525166   4.252   2.281   6.307  0.4725 -0.1740  0.1378
 5458ntf    on525167   4.357   2.133   6.138 -0.4099 -0.1550 -0.0878
 5458ntf    fn425168   4.102   2.096   6.022  0.0695 -0.4961 -0.1446
 5458ntf    fn425169   4.078   2.060   6.234 -0.0551  0.5056  0.2273
 5458ntf    fn425170   4.003   2.235   6.138  0.1146 -0.2011 -0.1460
 5459ntf    cn125171   3.732   6.364   2.234 -0.0011 -0.0848  0.3683
 5459ntf    sn225172   3.567   6.328   2.302 -0.0846 -0.4198 -0.0028
 5459ntf    nn325173   3.486   6.341   2.169  0.0300  0.0075 -0.0349
 5459ntf    sn225174   3.421   6.471   2.109  0.2615  0.1586  0.0432
 5459ntf    cn125175   3.447   6.427   1.934  0.1383  0.0292  0.0583
 5459ntf    fn425176   3.775   6.278   2.143  0.3600  0.1103  0.3518
 5459ntf    fn425177   3.739   6.482   2.173 -0.2312 -0.1303  0.2526
 5459ntf    fn425178   3.819   6.350   2.332 -0.3567  0.0562  0.7053
 5459ntf    on525179   3.568   6.189   2.340 -0.3926 -0.5176 -0.3470
 5459ntf    on525180   3.531   6.423   2.405  0.4692 -0.3175  0.0997
 5459ntf    on525181   3.501   6.589   2.133  0.0545  0.3927 -0.4086
 5459ntf    on525182   3.279   6.478   2.133  0.3957  0.8491  0.6685
 5459ntf    fn425183   3.561   6.368   1.905  0.0910 -0.1943  0.3170
 5459ntf    fn425184   3.355   6.338   1.898  0.2620 -0.1344  0.1449
 5459ntf    fn425185   3.423   6.525   1.849  0.0539 -0.0066  0.0405
 5460ntf    cn125186   2.358   1.842   1.341 -0.3539  0.3603  0.0845
 5460ntf    sn225187   2.364   1.720   1.476 -0.1339  0.3593  0.0753
 5460ntf    nn325188   2.462   1.790   1.576  0.0757 -0.5950  0.5473
 5460ntf    sn225189   2.613   1.769   1.612  0.2669 -0.0978  0.0382
 5460ntf    cn125190   2.683   1.923   1.545  0.2184 -0.0679  0.0560
 5460ntf    fn425191   2.481   1.850   1.292 -0.3163 -0.0366  0.1065
 5460ntf    fn425192   2.278   1.800   1.244  0.1169 -0.1458 -0.0922
 5460ntf    fn425193   2.330   1.967   1.373 -0.1161  0.4243  0.0462
 5460ntf    on525194   2.225   1.726   1.515 -0.3513 -0.0253 -0.6059
 5460ntf    on525195   2.408   1.595   1.417  0.7789  0.5840  0.2729
 5460ntf    on525196   2.678   1.660   1.544 -0.3282 -0.5984  0.2648
 5460ntf    on525197   2.637   1.797   1.751  0.7545  0.7471 -0.2047
 5460ntf    fn425198   2.810   1.945   1.576  0.1901  0.2752 -0.0676
 5460ntf    fn425199   2.697   1.911   1.414  0.2386 -0.2954  0.0780
 5460ntf    fn425200   2.613   2.032   1.570 -0.0772 -0.2074 -0.1604
 5461ntf    cn125201   3.624   2.088   1.739 -0.4390 -0.0700 -0.0850
 5461ntf    sn225202   3.667   2.229   1.845  0.0898 -0.2749 -0.0260
 5461ntf    nn325203   3.560   2.205   1.957  0.1703 -0.1618  0.0769
 5461ntf    sn225204   3.582   2.145   2.100 -0.1156 -0.2574  0.0816
 5461ntf    cn125205   3.623   2.297   2.190  0.0268 -0.3781  0.2214
 5461ntf    fn425206   3.663   1.972   1.789  0.0571 -0.0154 -0.3414
 5461ntf    fn425207   3.493   2.078   1.721 -0.4586  0.2776 -0.1534
 5461ntf    fn425208   3.685   2.104   1.622 -0.1241  0.0513  0.0947
 5461ntf    on525209   3.807   2.214   1.878 -0.1062 -0.4701  0.7215
 5461ntf    on525210   3.636   2.345   1.765 -0.6847 -0.1984  0.3781
 5461ntf    on525211   3.699   2.062   2.118  0.2295  0.1566 -0.2384
 5461ntf    on525212   3.457   2.099   2.157 -0.1882 -0.2626 -0.0821
 5461ntf    fn425213   3.623   2.288   2.322 -0.2586  0.1636  0.2598
 5461ntf    fn425214   3.744   2.341   2.159  0.0956 -0.7414 -0.0293
 5461ntf    fn425215   3.539   2.398   2.172  0.4172  0.0017  0.5041
 5462ntf    cn125216   7.129   6.700   2.127  0.3587 -0.3945  0.0689
 5462ntf    sn225217   7.138   6.682   1.946 -0.1349 -0.2164  0.0276
 5462ntf    nn325218   7.240   6.564   1.937 -0.0261 -0.1482  0.3509
 5462ntf    sn225219   7.212   6.409   1.937 -0.5443 -0.0541  0.3136
 5462ntf    cn125220   7.203   6.373   1.759 -0.0228  0.4280  0.1848
 5462ntf    fn425221   7.069   6.599   2.188  0.0189 -0.1958  0.0647
 5462ntf    fn425222   7.252   6.710   2.176  0.2965 -0.5702  0.2648
 5462ntf    fn425223   7.071   6.811   2.168  0.3222 -0.3729 -0.0412
 5462ntf    on525224   7.007   6.642   1.902 -0.3227  0.5900 -0.1659
 5462ntf    on525225   7.200   6.798   1.888  0.1441 -0.4054 -0.0515
 5462ntf    on525226   7.088   6.365   1.997 -0.4890 -0.2545  0.2797
 5462ntf    on525227   7.328   6.335   1.979 -0.7085 -0.5883 -0.1709
 5462ntf    fn425228   7.146   6.255   1.736  0.1949  0.2843  0.3855
 5462ntf    fn425229   7.129   6.461   1.693 -0.1040  0.3468  0.1680
 5462ntf    fn425230   7.320   6.375   1.699 -0.2020 -0.8545 -0.2437
 5463ntf    cn125231   3.045   1.005   1.918 -0.5345  0.3395 -0.2986
 5463ntf    sn225232   3.007   0.829   1.894 -0.0496  0.2181 -0.1909
 5463ntf    nn325233   2.853   0.838   1.867 -0.1108  0.3073  0.1739
 5463ntf    sn225234   2.755   0.749   1.782  0.3379  0.1088 -0.1429
 5463ntf    cn125235   2.637   0.687   1.905  0.3593 -0.0932 -0.2228
 5463ntf    fn425236   3.173   1.006   1.955 -0.6261 -0.0994  0.0464
 5463ntf    fn425237   3.034   1.073   1.805  0.2394  0.0831 -0.5339
 5463ntf    fn425238   2.971   1.066   2.009 -0.3976  0.1581 -0.0630
 5463ntf    on525239   3.089   0.793   1.781 -0.3820  0.2532 -0.4451
 5463ntf    on525240   3.036   0.768   2.022  0.6483 -0.2755 -0.5767
 5463ntf    on525241   2.813   0.623   1.741  0.2925  0.2438 -0.6293
 5463ntf    on525242   2.681   0.826   1.685 -0.2059 -0.0684  0.1296
 5463ntf    fn425243   2.602   0.776   1.997 -0.1262 -0.4145 -0.0868
 5463ntf    fn425244   2.521   0.651   1.852  0.1239 -0.1413  0.3166
 5463ntf    fn425245   2.673   0.577   1.969 -0.3547 -0.0083  0.3433
 5464ntf    cn125246   7.398   1.804   2.751  0.0157  0.2093 -0.3825
 5464ntf    sn225247   7.559   1.810   2.835  0.0094 -0.3477 -0.3309
 5464ntf    nn325248   7.630   1.924   2.754 -0.0072 -0.0235  0.1035
 5464ntf    sn225249   7.632   2.076   2.793 -0.5143 -0.0455  0.2251
 5464ntf    cn125250   7.685   2.154   2.638  0.5572 -0.2348  0.4858
 5464ntf    fn425251   7.306   1.746   2.827  0.0010 -0.2500 -0.7479
 5464ntf    fn425252   7.353   1.925   2.723 -0.0179  0.2704 -0.0770
 5464ntf    fn425253   7.404   1.742   2.635 -0.3142  0.0266 -0.3039
 5464ntf    on525254   7.524   1.831   2.974 -0.3802 -1.0927 -0.3110
 5464ntf    on525255   7.621   1.682   2.809 -0.0855 -0.6022  0.6305
 5464ntf    on525256   7.737   2.115   2.883 -0.4653 -0.0120  0.1534
 5464ntf    on525257   7.503   2.136   2.814 -0.2235  0.4444  0.6098
 5464ntf    fn425258   7.687   2.286   2.637 -0.5788 -0.2082 -0.3335
 5464ntf    fn425259   7.805   2.108   2.607  0.4151 -0.2844 -0.0077
 5464ntf    fn425260   7.609   2.119   2.535  0.0700 -0.0456  0.7795
 5465ntf    cn125261   3.270   6.149   0.993 -0.1121  0.0600  0.2077
 5465ntf    sn225262   3.211   6.264   1.120  0.0598  0.3015  0.0703
 5465ntf    nn325263   3.147   6.377   1.032 -0.4166 -0.1639 -0.1855
 5465ntf    sn225264   3.184   6.529   1.016 -0.4068 -0.1411  0.0341
 5465ntf    cn125265   3.143   6.545   0.839  0.1071  0.2473 -0.0515
 5465ntf    fn425266   3.364   6.065   1.033 -0.3006 -0.3131 -0.1272
 5465ntf    fn425267   3.176   6.072   0.941  0.2278  0.0757 -0.4478
 5465ntf    fn425268   3.318   6.215   0.889 -0.3769  0.4134  0.3063
 5465ntf    on525269   3.114   6.183   1.190 -0.2037  0.1879 -0.4276
 5465ntf    on525270   3.323   6.307   1.200  0.1029 -0.0650  0.2088
 5465ntf    on525271   3.321   6.566   1.036 -0.4608 -0.1342  0.3989
 5465ntf    on525272   3.083   6.606   1.085 -0.4066  0.0014 -0.1246
 5465ntf    fn425273   3.211   6.461   0.763 -0.1580 -0.1716  0.1692
 5465ntf    fn425274   3.013   6.538   0.814  0.1344  0.0202 -0.1319
 5465ntf    fn425275   3.174   6.665   0.792  0.6847  0.0521 -0.1680
 5466ntf    cn125276   4.527   2.879   2.490  0.2571  0.0559  0.0039
 5466ntf    sn225277   4.658   2.756   2.466  0.0046 -0.2015 -0.0682
 5466ntf    nn325278   4.781   2.828   2.532 -0.3201  0.0182  0.2991
 5466ntf    sn225279   4.892   2.908   2.455 -0.3374 -0.1695  0.0769
 5466ntf    cn125280   5.007   2.771   2.422 -0.0398  0.2010 -0.4235
 5466ntf    fn425281   4.415   2.839   2.432  0.2295 -0.3814  0.3523
 5466ntf    fn425282   4.494   2.894   2.617 -0.0323  0.5609 -0.1296
 5466ntf    fn425283   4.550   2.999   2.440 -0.3272 -0.0011 -0.4130
 5466ntf    on525284   4.622   2.640   2.544 -0.5843  0.2178  0.2882
 5466ntf    on525285   4.682   2.738   2.325  0.0177  0.0827 -0.1017
 5466ntf    on525286   4.962   2.986   2.555 -0.4543 -0.2567  0.2279
 5466ntf    on525287   4.861   2.967   2.328  0.0855 -0.4756 -0.1716
 5466ntf    fn425288   4.940   2.675   2.362 -0.6137  0.5007 -0.2650
 5466ntf    fn425289   5.105   2.809   2.341  0.0268  0.3903 -0.2541
 5466ntf    fn425290   5.048   2.720   2.536 -0.0571 -0.1467 -0.5708
 5467ntf    cn125291   2.306   4.311   5.355  0.0862  0.0166 -0.2794
 5467ntf    sn225292   2.226   4.472   5.380  0.0119 -0.0071 -0.3635
 5467ntf    nn325293   2.190   4.524   5.237  0.0658  0.1300 -0.3276
 5467ntf    sn225294   2.290   4.600   5.142  0.3578 -0.0213 -0.1428
 5467ntf    cn125295   2.204   4.576   4.984 -0.6090 -0.2827  0.4130
 5467ntf    fn425296   2.416   4.328   5.284  0.0766  0.2463 -0.2402
 5467ntf    fn425297   2.347   4.261   5.470  0.0807  0.5015 -0.0695
 5467ntf    fn425298   2.239   4.216   5.290 -0.2382  0.0754 -0.0374
 5467ntf    on525299   2.109   4.424   5.449  0.2326  0.1283  0.1098
 5467ntf    on525300   2.319   4.552   5.455  0.0546  0.3050 -0.7531
 5467ntf    on525301   2.418   4.535   5.129  0.1599 -0.4578  0.0677
 5467ntf    on525302   2.287   4.744   5.153  0.0082 -0.0570  0.2822
 5467ntf    fn425303   2.079   4.621   4.985 -0.2866  0.6415 -0.2169
 5467ntf    fn425304   2.266   4.631   4.881 -0.6815 -0.2548  0.3840
 5467ntf    fn425305   2.187   4.446   4.964  0.0967 -0.2745 -0.2970
 5468ntf    cn125306   5.295   3.379   5.110 -0.5063 -0.0703  0.0544
 5468ntf    sn225307   5.244   3.544   5.166  0.1834  0.1359  0.0796
 5468ntf    nn325308   5.353   3.580   5.274  0.0914  0.0761  0.1929
 5468ntf    sn225309   5.333   3.625   5.422 -0.2622  0.1904  0.1101
 5468ntf    cn125310   5.352   3.805   5.407  0.0572  0.1570  0.1130
 5468ntf    fn425311   5.294   3.283   5.201 -0.3918  0.1210  0.2579
 5468ntf    fn425312   5.220   3.338   5.008 -0.2548  0.0223 -0.1690
 5468ntf    fn425313   5.422   3.380   5.072 -0.4298 -0.0166  0.3070
 5468ntf    on525314   5.261   3.628   5.050  0.4041  0.0406  0.0434
 5468ntf    on525315   5.108   3.521   5.208  0.0828 -0.2719 -0.4614
 5468ntf    on525316   5.446   3.589   5.503 -0.4799  0.0310  0.3452
 5468ntf    on525317   5.203   3.609   5.483 -0.0244 -0.6595  0.4111
 5468ntf    fn425318   5.344   3.872   5.521  0.3871 -0.4009  0.4700
 5468ntf    fn425319   5.464   3.837   5.344  0.1091  0.2318  0.2428
 5468ntf    fn425320   5.256   3.853   5.329 -0.1124  0.2177  0.3577
 5469ntf    cn125321   6.019   7.259   2.307 -0.0775  0.2695 -0.1726
 5469ntf    sn225322   6.131   7.143   2.390 -0.2495  0.0901 -0.1894
 5469ntf    nn325323   6.153   7.222   2.524  0.1894 -0.0866 -0.1556
 5469ntf    sn225324   6.131   7.171   2.670  0.1079 -0.5030 -0.3109
 5469ntf    cn125325   5.952   7.185   2.697  0.1371  0.0270 -0.3877
 5469ntf    fn425326   6.004   7.240   2.177  0.6449  0.2489 -0.2542
 5469ntf    fn425327   5.896   7.257   2.357 -0.0818  0.0107 -0.1956
 5469ntf    fn425328   6.066   7.381   2.326 -0.4959  0.3620  0.3084
 5469ntf    on525329   6.062   7.017   2.394 -0.0083 -0.0341  0.0793
 5469ntf    on525330   6.248   7.143   2.305 -0.5072 -0.4075 -0.5508
 5469ntf    on525331   6.177   7.265   2.769  0.0128 -0.2420 -0.5141
 5469ntf    on525332   6.163   7.033   2.693  0.1843 -0.3803  0.3504
 5469ntf    fn425333   5.906   7.305   2.663 -0.2527  0.1127  0.4022
 5469ntf    fn425334   5.891   7.098   2.619 -0.4704 -0.1522  0.2689
 5469ntf    fn425335   5.911   7.153   2.819 -0.0312  0.0702 -0.4324
 5470ntf    cn125336   0.172   5.488   6.257 -0.2570 -0.1696  0.1304
 5470ntf    sn225337   0.250   5.652   6.253  0.1560 -0.3722 -0.1019
 5470ntf    nn325338   0.355   5.640   6.136 -0.0688 -0.1377 -0.3282
 5470ntf    sn225339   0.346   5.695   5.990 -0.0711  0.3669 -0.1388
 5470ntf    cn125340   0.431   5.853   6.021  0.0970  0.2078  0.2110
 5470ntf    fn425341   0.146   5.445   6.135 -0.2186 -0.7113  0.3125
 5470ntf    fn425342   0.258   5.412   6.322 -0.0515 -0.0625 -0.0135
 5470ntf    fn425343   0.060   5.483   6.327 -0.0056 -0.1140  0.5401
 5470ntf    on525344   0.141   5.744   6.235  0.1702 -0.3693 -0.1746
 5470ntf    on525345   0.314   5.661   6.382  0.3297  0.1508 -0.2199
 5470ntf    on525346   0.212   5.727   5.947 -0.3668 -0.3086  0.2816
 5470ntf    on525347   0.428   5.621   5.898  0.8895  0.6929  0.4474
 5470ntf    fn425348   0.558   5.832   6.052  0.0597 -0.6111 -0.1555
 5470ntf    fn425349   0.425   5.935   5.918  0.1372 -0.4737 -0.3421
 5470ntf    fn425350   0.374   5.913   6.124 -0.0341 -0.2991  0.4379
 5471ntf    cn125351   5.609   5.249   7.412  0.1581  0.2783  0.6399
 5471ntf    sn225352   5.653   5.102   7.510  0.0278 -0.2005 -0.0108
 5471ntf    nn325353   5.589   4.990   7.420 -0.2757 -0.1254  0.1141
 5471ntf    sn225354   5.438   4.946   7.419 -0.1947 -0.4046  0.0954
 5471ntf    cn125355   5.435   4.822   7.551  0.1501 -0.5139  0.0004
 5471ntf    fn425356   5.638   5.232   7.284  0.0806 -0.6746  0.7418
 5471ntf    fn425357   5.478   5.269   7.412  0.1688  0.3863 -0.0424
 5471ntf    fn425358   5.661   5.363   7.452  0.3407  0.3570  0.1836
 5471ntf    on525359   5.797   5.099   7.503  0.0587  0.4884  0.2081
 5471ntf    on525360   5.593   5.128   7.638  0.2695 -0.0254  0.0690
 5471ntf    on525361   5.416   4.856   7.309 -0.3599 -0.2750  0.0204
 5471ntf    on525362   5.339   5.049   7.440  0.0441 -0.2132  0.2835
 5471ntf    fn425363   5.309   4.790   7.576  0.0128 -0.0433 -0.0782
 5471ntf    fn425364   5.507   4.714   7.525  0.0557 -0.6014  0.0991
 5471ntf    fn425365   5.488   4.871   7.663 -0.2030  0.1124 -0.1075
 5472ntf    cn125366   5.924   6.869   1.424  0.0303  0.0060  0.3024
 5472ntf    sn225367   5.798   6.844   1.296  0.1553 -0.2661  0.2321
 5472ntf    nn325368   5.756   6.994   1.272  0.2058 -0.3126 -0.1583
 5472ntf    sn225369   5.824   7.101   1.179  0.1918 -0.0739  0.1052
 5472ntf    cn125370   5.706   7.102   1.042 -0.0422 -0.1112  0.3054
 5472ntf    fn425371   5.885   6.938   1.531 -0.2167  0.4854 -0.0940
 5472ntf    fn425372   5.961   6.753   1.475  0.5614  0.1118  0.1700
 5472ntf    fn425373   6.031   6.933   1.380  0.4126 -0.4996  0.4934
 5472ntf    on525374   5.869   6.780   1.187  0.2650  0.6263 -0.2331
 5472ntf    on525375   5.704   6.766   1.372  0.4955  0.0503  0.9862
 5472ntf    on525376   5.954   7.066   1.127 -0.1218 -0.2545 -0.5569
 5472ntf    on525377   5.814   7.235   1.232 -0.6978 -0.0520 -0.1143
 5472ntf    fn425378   5.585   7.103   1.095 -0.2222  0.3360 -0.1004
 5472ntf    fn425379   5.713   7.211   0.966 -0.6447 -0.0368  0.3515
 5472ntf    fn425380   5.706   6.994   0.966  0.3932  0.1632 -0.0944
 5473ntf    cn125381   7.036   4.248   2.751 -0.0753 -0.0786 -0.1661
 5473ntf    sn225382   7.178   4.189   2.654  0.0109 -0.1669  0.0144
 5473ntf    nn325383   7.267   4.123   2.765 -0.3423 -0.1962  0.2839
 5473ntf    sn225384   7.375   4.198   2.851 -0.3224  0.1107 -0.0038
 5473ntf    cn125385   7.323   4.150   3.019 -0.2741  0.0443 -0.0077
 5473ntf    fn425386   7.061   4.299   2.871 -0.5598  0.3451 -0.2386
 5473ntf    fn425387   6.975   4.349   2.690  0.0981 -0.2438 -0.6134
 5473ntf    fn425388   6.953   4.146   2.767  0.0128 -0.0916  0.2244
 5473ntf    on525389   7.118   4.100   2.558  0.0855 -0.1147 -0.0812
 5473ntf    on525390   7.231   4.309   2.593 -0.1567  0.1127  0.4118
 5473ntf    on525391   7.359   4.341   2.855  0.1958  0.1710 -0.0074
 5473ntf    on525392   7.511   4.156   2.826 -0.3285  0.2615 -0.2910
 5473ntf    fn425393   7.202   4.197   3.047 -0.0963  0.2032  0.4884
 5473ntf    fn425394   7.326   4.019   3.039 -0.2864  0.1966  1.0109
 5473ntf    fn425395   7.402   4.200   3.112 -0.7490 -0.2430  0.5538
 5474ntf    cn125396   5.962   2.186   6.765 -0.2401  0.0525  0.2053
 5474ntf    sn225397   5.866   2.221   6.615 -0.0423 -0.0089  0.0657
 5474ntf    nn325398   5.872   2.377   6.627  0.3440 -0.0319  0.1885
 5474ntf    sn225399   5.916   2.491   6.529  0.1414 -0.2073 -0.1071
 5474ntf    cn125400   5.885   2.633   6.638 -0.0409 -0.0771 -0.3281
 5474ntf    fn425401   6.018   2.067   6.764  0.2424  0.2786 -0.0746
 5474ntf    fn425402   6.065   2.268   6.779  0.0361 -0.1317 -0.7121
 5474ntf    fn425403   5.893   2.202   6.877 -0.7795 -0.1797 -0.0901
 5474ntf    on525404   5.951   2.168   6.511 -0.0836  0.5145 -0.2396
 5474ntf    on525405   5.735   2.165   6.635 -0.1356  0.1909  0.0147
 5474ntf    on525406   5.824   2.510   6.419  0.1909  0.5080 -0.0308
 5474ntf    on525407   6.057   2.498   6.496  0.1509  0.6961  0.0948
 5474ntf    fn425408   5.770   2.627   6.703 -0.0013 -0.6066 -0.3000
 5474ntf    fn425409   5.972   2.641   6.736 -0.0765 -0.2923 -0.2790
 5474ntf    fn425410   5.894   2.751   6.580  0.0050 -0.0072 -0.1785
 5475ntf    cn125411   6.546   0.944   2.023 -0.0700  0.1225  0.0398
 5475ntf    sn225412   6.512   0.865   2.183 -0.0207  0.0404  0.0104
 5475ntf    nn325413   6.649   0.791   2.205  0.0540  0.2587  0.3017
 5475ntf    sn225414   6.684   0.638   2.194  0.2786  0.3431 -0.1840
 5475ntf    cn125415   6.698   0.599   2.371  0.3684  0.5116 -0.1540
 5475ntf    fn425416   6.445   1.002   1.960 -0.3930 -0.3718  0.1005
 5475ntf    fn425417   6.645   1.031   2.033  0.3235 -0.3042 -0.1176
 5475ntf    fn425418   6.586   0.854   1.934 -0.1208 -0.1852  0.3254
 5475ntf    on525419   6.496   0.974   2.276  0.3825 -0.0741  0.2146
 5475ntf    on525420   6.396   0.784   2.156 -0.1478  0.4864 -0.7983
 5475ntf    on525421   6.810   0.607   2.130  0.2436  0.0648 -0.1181
 5475ntf    on525422   6.582   0.541   2.164  0.5498 -0.0635  0.2031
 5475ntf    fn425423   6.718   0.470   2.392 -0.2084  0.4626  0.1173
 5475ntf    fn425424   6.801   0.655   2.433  0.1983  0.2297  0.3845
 5475ntf    fn425425   6.586   0.634   2.432  0.0723  0.3048 -0.5771
 5476ntf    cn125426   0.067   7.442   4.757 -0.6898 -0.0932  0.0007
 5476ntf    sn225427   0.087   7.588   4.863 -0.1879 -0.1976  0.0544
 5476ntf    nn325428   0.228   7.631   4.810 -0.1978  0.0277  0.2118
 5476ntf    sn225429   0.363   7.550   4.813 -0.0389  0.2850  0.0980
 5476ntf    cn125430   0.473   7.684   4.867  0.3258  0.0598 -0.0883
 5476ntf    fn425431  -0.055   7.393   4.772 -0.5410 -0.4256  0.1469
 5476ntf    fn425432   0.087   7.452   4.627 -0.3839 -0.0054  0.0522
 5476ntf    fn425433   0.143   7.337   4.788 -0.2988  0.1177 -0.2337
 5476ntf    on525434  -0.017   7.676   4.817 -0.1487 -0.5267 -0.6698
 5476ntf    on525435   0.082   7.544   5.000  0.6443  0.0831  0.1800
 5476ntf    on525436   0.418   7.520   4.684  0.2566 -0.3884  0.3781
 5476ntf    on525437   0.374   7.456   4.922 -0.2597  0.5687  0.3677
 5476ntf    fn425438   0.443   7.802   4.815 -0.0160 -0.0620 -0.1684
 5476ntf    fn425439   0.458   7.695   4.998  0.3475  0.6240 -0.1306
 5476ntf    fn425440   0.602   7.663   4.843  0.2654 -0.1632 -0.2204
 5477ntf    cn125441   4.235   6.152   2.663 -0.2310  0.0398  0.1228
 5477ntf    sn225442   4.175   6.312   2.726  0.2497  0.2485  0.0584
 5477ntf    nn325443   4.275   6.412   2.658  0.3385  0.3316  0.3112
 5477ntf    sn225444   4.245   6.538   2.570  0.5365 -0.0000 -0.2380
 5477ntf    cn125445   4.224   6.461   2.407  0.1234 -0.3599 -0.0160
 5477ntf    fn425446   4.219   6.135   2.533  0.4946 -0.2758  0.0716
 5477ntf    fn425447   4.362   6.121   2.686 -0.1051  0.3600 -0.1283
 5477ntf    fn425448   4.164   6.057   2.721 -0.1818 -0.1690 -0.1619
 5477ntf    on525449   4.038   6.318   2.683  0.1711 -0.2673  0.2232
 5477ntf    on525450   4.185   6.313   2.870  0.2124 -0.3370  0.0659
 5477ntf    on525451   4.363   6.618   2.547  0.4637  0.1244 -0.1811
 5477ntf    on525452   4.119   6.603   2.593  0.3801 -0.4710  0.2602
 5477ntf    fn425453   4.191   6.556   2.321  0.3640  0.0279  0.3120
 5477ntf    fn425454   4.337   6.408   2.363 -0.2076 -0.5531 -0.6388
 5477ntf    fn425455   4.126   6.372   2.411 -0.3759  0.1776 -0.0997
 5478ntf    cn125456   4.051   1.957   5.346 -0.0857  0.0877  0.2207
 5478ntf    sn225457   4.024   2.002   5.172 -0.1837  0.1909  0.2626
 5478ntf    nn325458   4.148   2.096   5.144  0.0010 -0.0279  0.3449
 5478ntf    sn225459   4.299   2.067   5.114 -0.0204  0.0083  0.1996
 5478ntf    cn125460   4.310   2.087   4.934 -0.1694 -0.4301  0.1402
 5478ntf    fn425461   4.147   1.866   5.362  0.3698  0.4794 -0.2399
 5478ntf    fn425462   4.091   2.060   5.419 -0.0571  0.2926 -0.0810
 5478ntf    fn425463   3.944   1.910   5.406 -0.2618  0.4763  0.2125
 5478ntf    on525464   4.035   1.879   5.098 -0.0051  0.3443  0.0291
 5478ntf    on525465   3.897   2.069   5.178 -0.1484  0.3112 -0.2884
 5478ntf    on525466   4.349   1.932   5.126  0.4996  0.1746 -0.0645
 5478ntf    on525467   4.388   2.174   5.151 -0.0458 -0.0265  0.3615
 5478ntf    fn425468   4.435   2.073   4.894 -0.1522  0.3542 -0.0950
 5478ntf    fn425469   4.235   2.003   4.864 -0.1311 -0.5404  0.2325
 5478ntf    fn425470   4.282   2.211   4.897 -0.0659 -0.4012  0.1604
 5479ntf    cn125471   3.196   7.021   2.108  0.0277 -0.1479 -0.0934
 5479ntf    sn225472   3.173   7.154   1.987 -0.1588 -0.0659  0.0327
 5479ntf    nn325473   3.161   7.280   2.080  0.0273 -0.2509  0.3072
 5479ntf    sn225474   3.035   7.365   2.119 -0.0315 -0.2504  0.1141
 5479ntf    cn125475   3.041   7.364   2.301  0.2617 -0.0581  0.1062
 5479ntf    fn425476   3.243   6.907   2.059 -0.3111 -0.2163 -0.2564
 5479ntf    fn425477   3.284   7.052   2.203 -0.1550 -0.6738  0.2533
 5479ntf    fn425478   3.086   6.988   2.174  0.1540 -0.0812  0.1547
 5479ntf    on525479   3.303   7.154   1.925  0.0235 -0.4593  0.4129
 5479ntf    on525480   3.056   7.123   1.908 -0.2290  0.2323  0.0177
 5479ntf    on525481   2.909   7.301   2.089 -0.1853  0.0842  0.0381
 5479ntf    on525482   3.049   7.504   2.083  0.3530 -0.2038  0.4359
 5479ntf    fn425483   3.154   7.417   2.343  0.3867 -0.2742  0.0460
 5479ntf    fn425484   2.942   7.428   2.361  0.0457  0.2071 -0.5151
 5479ntf    fn425485   3.043   7.239   2.346 -0.4338 -0.3093 -0.5319
 5480ntf    cn125486   6.910   3.115   6.684  0.1979  0.0338  0.5210
 5480ntf    sn225487   6.862   3.269   6.600  0.3171 -0.1682  0.0829
 5480ntf    nn325488   6.823   3.210   6.460 -0.6560  0.9763 -0.1411
 5480ntf    sn225489   6.932   3.170   6.355 -0.3315 -0.0108  0.5578
 5480ntf    cn125490   6.934   3.318   6.249 -0.2039 -0.2792  0.1826
 5480ntf    fn425491   7.034   3.083   6.650  0.0155  0.4578 -0.5707
 5480ntf    fn425492   6.899   3.116   6.816  0.2472 -0.1813  0.5281
 5480ntf    fn425493   6.838   3.014   6.637  0.3062  0.0586  0.3017
 5480ntf    on525494   6.740   3.302   6.669  0.1530 -0.4285 -0.0792
 5480ntf    on525495   6.970   3.364   6.609  0.2480 -0.0474 -0.3347
 5480ntf    on525496   6.883   3.071   6.262 -0.1048 -0.2047  0.6444
 5480ntf    on525497   7.064   3.137   6.403  0.1324  0.6098 -0.2540
 5480ntf    fn425498   7.007   3.298   6.140 -0.8531  0.1516 -0.3405
 5480ntf    fn425499   6.813   3.345   6.204  0.0167  0.1409 -0.1643
 5480ntf    fn425500   6.981   3.428   6.305 -0.2678 -0.0254 -0.2587
 5481ntf    cn125501   2.599   0.152   2.399 -0.0454  0.0774  0.1803
 5481ntf    sn225502   2.498   0.300   2.430 -0.1745 -0.0662  0.4469
 5481ntf    nn325503   2.400   0.281   2.309 -0.0392 -0.1016  0.3426
 5481ntf    sn225504   2.297   0.379   2.240 -0.2576 -0.4655  0.1441
 5481ntf    cn125505   2.327   0.326   2.069  0.5443  0.1810  0.0764
 5481ntf    fn425506   2.526   0.042   2.395 -0.1884  0.1847 -0.1576
 5481ntf    fn425507   2.656   0.156   2.279 -0.8192  0.8140 -0.1729
 5481ntf    fn425508   2.703   0.137   2.479  0.1629 -0.3872 -0.1702
 5481ntf    on525509   2.437   0.274   2.558 -0.3511  0.4833  0.4767
 5481ntf    on525510   2.603   0.398   2.423  0.3035 -0.5322  0.9519
 5481ntf    on525511   2.327   0.520   2.236  0.4299 -0.6168 -0.1591
 5481ntf    on525512   2.159   0.350   2.270 -0.2721 -0.4239  0.1170
 5481ntf    fn425513   2.336   0.194   2.071 -0.3264  0.1221  0.5138
 5481ntf    fn425514   2.237   0.371   1.984  0.8670  0.2155 -0.2514
 5481ntf    fn425515   2.441   0.374   2.022  0.5200  0.3666  0.2065
 5482ntf    cn125516   1.928   6.712   1.076 -0.2826  0.0365  0.0003
 5482ntf    sn225517   1.932   6.866   0.980  0.1368  0.1020  0.1206
 5482ntf    nn325518   1.854   6.827   0.850  0.3341  0.3713 -0.0790
 5482ntf    sn225519   1.911   6.781   0.711  0.2454  0.2185 -0.0655
 5482ntf    cn125520   1.810   6.631   0.691  0.1280  0.3525 -0.4856
 5482ntf    fn425521   1.809   6.668   1.114 -0.1165 -0.3628  0.0633
 5482ntf    fn425522   1.986   6.624   0.996  0.3877  0.3553  0.1273
 5482ntf    fn425523   2.000   6.722   1.187 -0.1529  0.1562 -0.0940
 5482ntf    on525524   1.865   6.964   1.062  0.0091  0.0385  0.0930
 5482ntf    on525525   2.075   6.884   0.971  0.2203 -0.5432  0.0643
 5482ntf    on525526   2.046   6.731   0.709  0.0300 -0.4024  0.5494
 5482ntf    on525527   1.863   6.861   0.600 -0.2271  0.0298  0.0009
 5482ntf    fn425528   1.707   6.632   0.773  0.3196  0.3667 -0.2437
 5482ntf    fn425529   1.758   6.613   0.571  0.1025 -0.3426 -0.3720
 5482ntf    fn425530   1.876   6.519   0.713 -0.8715 -0.0917  0.3506
 5483ntf    cn125531   5.457   0.120   1.234  0.0316 -0.2544 -0.0254
 5483ntf    sn225532   5.479   0.064   1.062 -0.1108 -0.1476 -0.0793
 5483ntf    nn325533   5.451   0.193   0.978  0.2819  0.1356  0.2170
 5483ntf    sn225534   5.322   0.238   0.899  0.5175 -0.1451 -0.3368
 5483ntf    cn125535   5.374   0.168   0.740 -0.3056  0.0273 -0.6834
 5483ntf    fn425536   5.467   0.018   1.317  0.5726 -0.1097  0.0863
 5483ntf    fn425537   5.544   0.212   1.270  0.0198 -0.4243  0.4401
 5483ntf    fn425538   5.338   0.177   1.250  0.2594  0.1183  0.3605
 5483ntf    on525539   5.621   0.040   1.059 -0.1352 -0.3319  0.1388
 5483ntf    on525540   5.391  -0.049   1.045 -0.1325 -0.0775 -0.4406
 5483ntf    on525541   5.321   0.381   0.880  0.6248 -0.0583  0.2729
 5483ntf    on525542   5.198   0.175   0.937  0.4753  0.3861  0.4364
 5483ntf    fn425543   5.420   0.045   0.759 -0.4102  0.0899  0.0066
 5483ntf    fn425544   5.277   0.169   0.649 -0.1996 -0.4600 -0.8054
 5483ntf    fn425545   5.480   0.233   0.697  0.0218 -0.5559 -0.7645
 5484ntf    cn125546   1.457   0.217   5.322  0.2079 -0.3543 -0.1804
 5484ntf    sn225547   1.365   0.309   5.450 -0.0018 -0.1358 -0.4854
 5484ntf    nn325548   1.227   0.234   5.441 -0.2249  0.2080  0.0039
 5484ntf    sn225549   1.176   0.105   5.514 -0.0290 -0.1531 -0.4879
 5484ntf    cn125550   1.096   0.031   5.369  0.1717 -0.3750 -0.4867
 5484ntf    fn425551   1.445   0.087   5.340  0.3638 -0.3290  0.1168
 5484ntf    fn425552   1.418   0.246   5.199 -0.2281 -0.0045  0.0373
 5484ntf    fn425553   1.585   0.249   5.315  0.1216 -0.0268 -0.2789
 5484ntf    on525554   1.441   0.284   5.570 -0.1008 -0.3370 -0.4636
 5484ntf    on525555   1.346   0.441   5.396  0.1500  0.1679  0.1998
 5484ntf    on525556   1.076   0.130   5.614  0.2950 -0.5363 -0.0617
 5484ntf    on525557   1.283   0.013   5.545  0.2058  0.0854 -0.5785
 5484ntf    fn425558   1.032  -0.078   5.409  0.3628 -0.3021  0.0214
 5484ntf    fn425559   1.002   0.105   5.313 -0.1365 -0.2010  0.2488
 5484ntf    fn425560   1.179  -0.003   5.271  0.1821  0.0996 -0.6475
 5485ntf    cn125561   2.800   5.638   4.462  0.0639 -0.1562 -0.1899
 5485ntf    sn225562   2.629   5.637   4.523  0.0502 -0.0251 -0.2267
 5485ntf    nn325563   2.656   5.721   4.653  0.6137 -0.0376 -0.3312
 5485ntf    sn225564   2.714   5.687   4.795 -0.1187 -0.0986 -0.0418
 5485ntf    cn125565   2.863   5.790   4.810 -0.1137 -0.1846  0.5092
 5485ntf    fn425566   2.834   5.753   4.406 -0.3801  0.0450 -0.0572
 5485ntf    fn425567   2.889   5.611   4.556 -0.3477  0.2374  0.3227
 5485ntf    fn425568   2.814   5.546   4.368 -0.0583 -0.0774 -0.2866
 5485ntf    on525569   2.551   5.712   4.427 -0.9233 -0.5393  0.1449
 5485ntf    on525570   2.600   5.497   4.542  0.5905 -0.0479  0.4418
 5485ntf    on525571   2.771   5.556   4.806  0.0167 -0.0160  0.2495
 5485ntf    on525572   2.625   5.732   4.900  0.4112 -0.0484  0.3927
 5485ntf    fn425573   2.942   5.784   4.705 -0.1059  0.1458  0.4948
 5485ntf    fn425574   2.834   5.919   4.809 -0.1416 -0.1954 -0.1940
 5485ntf    fn425575   2.947   5.765   4.909  0.1004  0.3373  0.4619
 5486ntf    cn125576   0.208   3.900   7.388  0.0281  0.1248 -0.0683
 5486ntf    sn225577   0.069   3.931   7.501  0.1269 -0.0333  0.0975
 5486ntf    nn325578  -0.020   3.806   7.468  0.8535 -0.4129 -0.4446
 5486ntf    sn225579  -0.038   3.676   7.555  0.3391 -0.2793 -0.3506
 5486ntf    cn125580  -0.174   3.711   7.670  0.4981  0.0323 -0.2569
 5486ntf    fn425581   0.178   3.904   7.260 -0.0497 -0.3627 -0.0707
 5486ntf    fn425582   0.310   3.982   7.407  0.5674 -0.5087 -0.1838
 5486ntf    fn425583   0.263   3.779   7.396 -0.1834  0.0477  0.2528
 5486ntf    on525584   0.128   3.930   7.633 -0.7863  0.6905  0.5276
 5486ntf    on525585   0.012   4.053   7.451  0.2980  0.0388  0.0784
 5486ntf    on525586   0.071   3.649   7.645 -0.0589  0.4773  0.3759
 5486ntf    on525587  -0.092   3.571   7.472 -0.8670  0.0015  0.0568
 5486ntf    fn425588  -0.287   3.746   7.611  0.5908  0.3579 -0.2470
 5486ntf    fn425589  -0.213   3.604   7.738  0.1087  0.0549 -0.4415
 5486ntf    fn425590  -0.151   3.815   7.749  0.1941 -0.1403  0.0622
 5487ntf    cn125591   2.180   1.980   5.108 -0.2453  0.0618 -0.1215
 5487ntf    sn225592   2.207   1.851   5.234 -0.0882  0.2203  0.0091
 5487ntf    nn325593   2.063   1.791   5.249 -0.1187  0.3589  0.2620
 5487ntf    sn225594   1.982   1.754   5.379  0.1015  0.1115  0.3277
 5487ntf    cn125595   1.987   1.573   5.365 -0.2513  0.1110  0.2073
 5487ntf    fn425596   2.154   1.929   4.989 -0.4199  0.1611 -0.1246
 5487ntf    fn425597   2.085   2.062   5.150 -0.0139  0.2438  0.0482
 5487ntf    fn425598   2.288   2.055   5.101  0.0385 -0.3052  0.2314
 5487ntf    on525599   2.287   1.745   5.177 -0.3909  0.0489 -0.1026
 5487ntf    on525600   2.254   1.930   5.344 -0.3886  0.2666  0.1058
 5487ntf    on525601   1.842   1.782   5.363  0.2027  0.3421 -0.1620
 5487ntf    on525602   2.034   1.776   5.511  0.6339  0.2852  0.0911
 5487ntf    fn425603   1.931   1.505   5.464 -0.0181 -0.4072 -0.0098
 5487ntf    fn425604   1.931   1.535   5.251 -0.1011  0.2775  0.0784
 5487ntf    fn425605   2.109   1.523   5.355 -0.2788 -0.0538  0.6955
 5488ntf    cn125606   4.470   3.768   4.974  0.1046  0.0804  0.1885
 5488ntf    sn225607   4.377   3.684   5.106 -0.3049  0.2415  0.0032
 5488ntf    nn325608   4.476   3.566   5.134 -0.2078  0.1199 -0.8046
 5488ntf    sn225609   4.483   3.432   5.052 -0.0154 -0.3360 -0.0567
 5488ntf    cn125610   4.355   3.339   5.142  0.0981 -0.2177  0.2268
 5488ntf    fn425611   4.470   3.703   4.859  0.3423 -0.1829  0.3358
 5488ntf    fn425612   4.406   3.877   4.933 -0.2144 -0.3613 -0.4966
 5488ntf    fn425613   4.598   3.792   4.997  0.1283  0.2067 -0.0688
 5488ntf    on525614   4.378   3.780   5.213  0.1416  0.0830  0.1442
 5488ntf    on525615   4.250   3.657   5.042  0.0927  0.2506 -0.8109
 5488ntf    on525616   4.605   3.359   5.075  0.2233 -0.0043 -0.2714
 5488ntf    on525617   4.425   3.428   4.920 -0.6736 -0.0323  0.2168
 5488ntf    fn425618   4.235   3.389   5.119  0.1980 -0.1777 -0.2204
 5488ntf    fn425619   4.347   3.212   5.110 -0.1567 -0.2550  0.4311
 5488ntf    fn425620   4.376   3.346   5.273  0.4597 -0.3094  0.1735
 5489ntf    cn125621   3.486   4.553   4.669  0.0818 -0.1133  0.3909
 5489ntf    sn225622   3.502   4.605   4.843 -0.0008  0.3366  0.2646
 5489ntf    nn325623   3.624   4.516   4.884 -0.1313  0.2595  0.4846
 5489ntf    sn225624   3.639   4.378   4.958 -0.3064  0.0836  0.1938
 5489ntf    cn125625   3.814   4.338   4.930 -0.3001 -0.0134  0.3666
 5489ntf    fn425626   3.607   4.544   4.618 -0.1980  0.5908 -0.4037
 5489ntf    fn425627   3.435   4.432   4.650  0.2326 -0.1282  0.0815
 5489ntf    fn425628   3.424   4.640   4.591  0.8388 -0.0220 -0.1136
 5489ntf    on525629   3.528   4.746   4.836  0.5121  0.2301 -0.0060
 5489ntf    on525630   3.378   4.576   4.911  0.1477  0.7240  0.7022
 5489ntf    on525631   3.565   4.269   4.899  0.0983 -0.0249 -0.1205
 5489ntf    on525632   3.643   4.390   5.102 -0.0277 -0.2190  0.2129
 5489ntf    fn425633   3.893   4.434   4.974 -0.0436 -0.3243  0.5911
 5489ntf    fn425634   3.844   4.226   4.994  0.1038 -0.0273  0.1548
 5489ntf    fn425635   3.834   4.317   4.801 -0.5051  0.1571  0.3055
 5490ntf    cn125636   4.482   0.916   6.381 -0.5294 -0.1960  0.0494
 5490ntf    sn225637   4.555   0.750   6.391 -0.0322  0.0186 -0.0037
 5490ntf    nn325638   4.537   0.717   6.239 -0.2171  0.1541 -0.0117
 5490ntf    sn225639   4.458   0.598   6.173  0.1846  0.0927 -0.3818
 5490ntf    cn125640   4.439   0.651   6.000 -0.1197 -0.0583 -0.3960
 5490ntf    fn425641   4.369   0.917   6.313 -0.5058 -0.3435  0.0083
 5490ntf    fn425642   4.463   0.976   6.498  0.4210 -0.5057  0.3700
 5490ntf    fn425643   4.568   0.987   6.309 -0.0225 -0.4139  0.4324
 5490ntf    on525644   4.693   0.776   6.426 -0.2130  0.0412  0.7191
 5490ntf    on525645   4.470   0.685   6.487 -0.2692  0.1248 -0.1414
 5490ntf    on525646   4.322   0.582   6.219  0.2266 -0.0232 -0.2959
 5490ntf    on525647   4.531   0.474   6.155  0.2834 -0.0002  0.6009
 5490ntf    fn425648   4.355   0.752   5.983  0.1346  0.1781 -0.2593
 5490ntf    fn425649   4.556   0.687   5.950 -0.0387 -0.2143 -0.3201
 5490ntf    fn425650   4.399   0.549   5.927  0.2714 -0.2572 -0.3361
 5491ntf    cn125651   7.355   3.982   5.914 -0.0660  0.2259  0.2459
 5491ntf    sn225652   7.454   3.835   5.871 -0.0038  0.3428 -0.0121
 5491ntf    nn325653   7.333   3.750   5.816  0.0278  0.0251  0.4069
 5491ntf    sn225654   7.241   3.655   5.901 -0.1699 -0.0774  0.0796
 5491ntf    cn125655   7.346   3.506   5.898 -0.3833 -0.2239 -0.1823
 5491ntf    fn425656   7.268   3.971   6.012 -0.2778 -0.1101  0.0242
 5491ntf    fn425657   7.429   4.087   5.943 -0.5075  0.5227  0.3011
 5491ntf    fn425658   7.283   4.012   5.807  0.0795 -0.2170  0.0184
 5491ntf    on525659   7.542   3.882   5.767 -0.2364  0.1781 -0.2894
 5491ntf    on525660   7.519   3.790   5.991 -0.6799  0.4778  0.4111
 5491ntf    on525661   7.117   3.625   5.835  0.2617 -0.4170 -0.5931
 5491ntf    on525662   7.235   3.687   6.041  0.6407 -0.2327  0.1587
 5491ntf    fn425663   7.308   3.413   5.984  0.1517  0.0206  0.3305
 5491ntf    fn425664   7.357   3.455   5.777  0.5031 -0.0335 -0.1887
 5491ntf    fn425665   7.467   3.536   5.943 -0.8290  0.2519  0.7161
 5492ntf    cn125666   3.925   0.158   4.614  0.0196 -0.1285  0.1267
 5492ntf    sn225667   3.816   0.299   4.650 -0.0580 -0.1398 -0.0609
 5492ntf    nn325668   3.676   0.229   4.631 -0.1441 -0.1527  0.5745
 5492ntf    sn225669   3.540   0.272   4.697 -0.2795  0.0985  0.1416
 5492ntf    cn125670   3.528   0.436   4.620  0.0088 -0.0673 -0.2625
 5492ntf    fn425671   4.052   0.192   4.604 -0.0223  0.0214  0.1019
 5492ntf    fn425672   3.922   0.071   4.713 -0.4266  0.1954  0.3998
 5492ntf    fn425673   3.900   0.090   4.503 -0.3737  0.1787  0.0245
 5492ntf    on525674   3.843   0.342   4.785  0.4156 -0.9629  0.1148
 5492ntf    on525675   3.861   0.386   4.545  0.2424 -0.0755  0.1205
 5492ntf    on525676   3.540   0.282   4.841 -0.3522  0.2395  0.1319
 5492ntf    on525677   3.421   0.205   4.652 -0.5728  0.6813  0.0385
 5492ntf    fn425678   3.415   0.501   4.644 -0.1384 -0.2291 -0.5117
 5492ntf    fn425679   3.621   0.519   4.664  0.4707 -0.5428 -0.3344
 5492ntf    fn425680   3.541   0.437   4.489  0.7331  0.0349 -0.1957
 5493ntf    cn125681   3.367   6.765   2.771 -0.2515 -0.0825  0.4380
 5493ntf    sn225682   3.431   6.643   2.891  0.2200 -0.1654  0.1040
 5493ntf    nn325683   3.542   6.729   2.962 -0.0122  0.7248 -0.5886
 5493ntf    sn225684   3.542   6.825   3.086 -0.1658 -0.0266 -0.0041
 5493ntf    cn125685   3.612   6.973   3.007 -0.3342 -0.0929 -0.2751
 5493ntf    fn425686   3.316   6.874   2.826 -0.0050 -0.0172  0.5403
 5493ntf    fn425687   3.457   6.800   2.681  0.1077 -0.0094  0.8229
 5493ntf    fn425688   3.267   6.712   2.703  0.1559  0.3721 -0.5342
 5493ntf    on525689   3.316   6.615   2.973  0.3568  0.0361  0.3680
 5493ntf    on525690   3.488   6.531   2.821  0.4083  0.1172 -0.1967
 5493ntf    on525691   3.648   6.790   3.178  0.3993  0.6394 -0.3882
 5493ntf    on525692   3.415   6.865   3.140  0.1922  0.4212  0.5243
 5493ntf    fn425693   3.735   6.961   2.958 -0.0814  0.3233  0.2578
 5493ntf    fn425694   3.535   7.018   2.909  0.0548  0.7266 -0.2041
 5493ntf    fn425695   3.619   7.075   3.090  0.5001 -0.4396  0.0853
 5494ntf    cn125696   2.160   4.067   0.895 -0.2574  0.2839  0.4801
 5494ntf    sn225697   2.193   4.189   0.764  0.0432  0.0218  0.3071
 5494ntf    nn325698   2.349   4.196   0.775  0.0794 -0.4613  0.0802
 5494ntf    sn225699   2.459   4.162   0.668  0.1069  0.1673 -0.0922
 5494ntf    cn125700   2.574   4.066   0.772  0.0282  0.1116 -0.0575
 5494ntf    fn425701   2.234   3.958   0.880  0.0028  0.5298 -0.0594
 5494ntf    fn425702   2.193   4.115   1.014 -0.7470  0.3808  0.5764
 5494ntf    fn425703   2.036   4.021   0.893 -0.1118 -0.0866 -0.3959
 5494ntf    on525704   2.126   4.133   0.650 -0.1850  0.0766  0.4116
 5494ntf    on525705   2.129   4.306   0.821  0.1361  0.2469 -0.0503
 5494ntf    on525706   2.535   4.278   0.627  0.1608  0.1816  0.0462
 5494ntf    on525707   2.418   4.064   0.571 -0.4634  0.3641 -0.0491
 5494ntf    fn425708   2.516   3.956   0.816 -0.1091  0.1593 -0.1179
 5494ntf    fn425709   2.684   4.029   0.709 -0.0256 -0.2489  0.0571
 5494ntf    fn425710   2.620   4.131   0.877 -0.1763  0.0839  0.0497
 5495ntf    cn125711   3.997   0.126   0.558 -0.3974  0.3905 -0.1732
 5495ntf    sn225712   3.978   0.306   0.539 -0.0675  0.4242 -0.1798
 5495ntf    nn325713   4.087   0.331   0.429  0.5232 -0.4063  0.2002
 5495ntf    sn225714   4.061   0.344   0.275 -0.1272  0.1607  0.3519
 5495ntf    cn125715   4.050   0.525   0.264 -0.4327  0.1184 -0.0738
 5495ntf    fn425716   3.993   0.069   0.439 -0.0676  0.3117 -0.1459
 5495ntf    fn425717   4.114   0.089   0.607 -0.3515  0.2695 -0.3746
 5495ntf    fn425718   3.907   0.065   0.634  0.6497 -0.4550  0.4075
 5495ntf    on525719   3.841   0.326   0.502 -0.2260 -0.0806  0.1115
 5495ntf    on525720   4.031   0.360   0.662  0.3222  0.3024 -0.2901
 5495ntf    on525721   3.939   0.286   0.226 -0.4690  1.0080  0.1838
 5495ntf    on525722   4.176   0.318   0.192  0.0178  0.4742  0.4533
 5495ntf    fn425723   3.964   0.565   0.356 -0.1232 -0.3524  0.4297
 5495ntf    fn425724   4.165   0.588   0.282 -0.4806  0.2913 -0.3618
 5495ntf    fn425725   4.005   0.563   0.146 -0.0447  0.2226 -0.1894
 5496ntf    cn125726   2.760   0.821   5.261  0.0018  0.0387 -0.1121
 5496ntf    sn225727   2.626   0.729   5.179  0.0399 -0.0846 -0.0371
 5496ntf    nn325728   2.719   0.624   5.107  0.3186 -0.1913  0.4768
 5496ntf    sn225729   2.663   0.488   5.052 -0.1159  0.1448  0.0752
 5496ntf    cn125730   2.614   0.553   4.890  0.0538 -0.0480 -0.0530
 5496ntf    fn425731   2.837   0.737   5.329 -0.0313 -0.1801 -0.3436
 5496ntf    fn425732   2.831   0.892   5.175 -0.2735  0.1560 -0.2451
 5496ntf    fn425733   2.715   0.911   5.346  0.3709  0.2333 -0.1216
 5496ntf    on525734   2.558   0.685   5.298 -0.0455  0.7401  0.2282
 5496ntf    on525735   2.559   0.826   5.096 -1.0020 -0.1718  0.6896
 5496ntf    on525736   2.534   0.443   5.100 -0.4151  1.0191  0.0991
 5496ntf    on525737   2.775   0.398   5.037 -0.0542  0.2691 -0.1971
 5496ntf    fn425738   2.497   0.615   4.892  0.1593  0.1544 -0.1670
 5496ntf    fn425739   2.708   0.626   4.833 -0.1984 -0.3791 -0.9066
 5496ntf    fn425740   2.592   0.455   4.803  0.4725  0.2853 -0.5384
 5497ntf    cn125741   4.754   5.215   4.479 -0.0104 -0.2866  0.1995
 5497ntf    sn225742   4.608   5.174   4.580 -0.1076 -0.2514  0.0733
 5497ntf    nn325743   4.597   5.307   4.664  0.2777  0.1650 -0.5275
 5497ntf    sn225744   4.468   5.393   4.686  0.3860  0.3200 -0.4931
 5497ntf    cn125745   4.459   5.491   4.533  0.1467  0.3497 -0.4614
 5497ntf    fn425746   4.806   5.115   4.410  0.6479  0.1308  0.0847
 5497ntf    fn425747   4.725   5.305   4.387  0.2139 -0.3911  0.0240
 5497ntf    fn425748   4.856   5.270   4.543  0.5795 -0.5936 -0.4617
 5497ntf    on525749   4.510   5.150   4.477 -0.2489  0.0919  0.1247
 5497ntf    on525750   4.655   5.063   4.659  0.7343  0.2622  0.3108
 5497ntf    on525751   4.492   5.488   4.792 -0.0461  0.1630 -0.2503
 5497ntf    on525752   4.346   5.315   4.691  0.2700  0.5504  0.4318
 5497ntf    fn425753   4.538   5.596   4.542  0.1652  0.2767  0.2406
 5497ntf    fn425754   4.505   5.426   4.427 -0.0859 -0.7449  0.0903
 5497ntf    fn425755   4.343   5.544   4.498 -0.0720 -0.1163 -0.4436
 5498ntf    cn125756   2.563   0.450   7.376  0.3039  0.0401 -0.0002
 5498ntf    sn225757   2.386   0.409   7.368  0.3450 -0.1296 -0.0440
 5498ntf    nn325758   2.408   0.262   7.319  0.3687 -0.1577  0.0505
 5498ntf    sn225759   2.439   0.141   7.414  0.2705  0.0412  0.3364
 5498ntf    cn125760   2.274   0.066   7.434  0.0857  0.2839 -0.2668
 5498ntf    fn425761   2.633   0.388   7.470  0.1252  0.0808  0.1612
 5498ntf    fn425762   2.629   0.425   7.265  0.1399 -0.3263 -0.0140
 5498ntf    fn425763   2.593   0.579   7.389  0.4857 -0.0289  0.2815
 5498ntf    on525764   2.351   0.434   7.506  0.1833 -0.0625 -0.0975
 5498ntf    on525765   2.339   0.499   7.266  0.2523 -0.1784 -0.0443
 5498ntf    on525766   2.479   0.170   7.549  0.0569  0.2998  0.3448
 5498ntf    on525767   2.499   0.028   7.347  0.2856  0.5687 -0.5471
 5498ntf    fn425768   2.183   0.140   7.495  0.2051  0.1733  0.0431
 5498ntf    fn425769   2.216   0.022   7.324 -0.2155  0.2008 -0.0741
 5498ntf    fn425770   2.283  -0.047   7.501  0.0988  0.5304  0.1500
 5499ntf    cn125771   5.153   3.090   4.022  0.5824  0.0577 -0.1642
 5499ntf    sn225772   5.088   3.260   4.021  0.0589 -0.1386  0.0171
 5499ntf    nn325773   5.132   3.305   3.877  0.4037 -0.4042  0.0372
 5499ntf    sn225774   5.248   3.403   3.836  0.0335  0.0296  0.0281
 5499ntf    cn125775   5.183   3.447   3.671  0.1288  0.1133  0.0132
 5499ntf    fn425776   5.285   3.089   4.030  0.5500 -0.2913  0.3605
 5499ntf    fn425777   5.114   3.030   4.133  0.3538  0.3065 -0.1106
 5499ntf    fn425778   5.116   3.015   3.920  0.4005  0.0127 -0.0658
 5499ntf    on525779   4.945   3.242   4.030  0.1103 -0.2117  0.6827
 5499ntf    on525780   5.160   3.323   4.128  0.0165 -0.7734  0.4232
 5499ntf    on525781   5.375   3.344   3.804 -0.4714 -0.9284 -0.2253
 5499ntf    on525782   5.248   3.535   3.894 -0.0002 -0.0227  0.1464
 5499ntf    fn425783   5.261   3.529   3.602  0.2782 -0.0871 -0.0576
 5499ntf    fn425784   5.173   3.337   3.599 -0.8373  0.4125 -0.3147
 5499ntf    fn425785   5.068   3.512   3.673 -0.1121 -0.2746 -0.9497
 5500ntf    cn125786   5.903   5.834   3.742  0.2709 -0.0885  0.0096
 5500ntf    sn225787   5.902   6.013   3.772  0.3449 -0.1632  0.4715
 5500ntf    nn325788   5.752   6.052   3.745  0.3333 -0.6253 -0.1494
 5500ntf    sn225789   5.687   6.125   3.622 -0.0840 -0.0829  0.3881
 5500ntf    cn125790   5.545   6.196   3.711 -0.0995  0.3903 -0.0083
 5500ntf    fn425791   5.811   5.777   3.819  0.3903  0.5450  0.6309
 5500ntf    fn425792   5.874   5.812   3.615 -0.0712 -0.3693  0.1343
 5500ntf    fn425793   6.015   5.778   3.784  0.4074  0.2953  0.1549
 5500ntf    on525794   5.933   6.035   3.911  0.3396  0.1577  0.4221
 5500ntf    on525795   5.995   6.062   3.673 -0.2426  0.3401  0.1607
 5500ntf    on525796   5.621   6.036   3.530  1.0920 -0.7482  0.1633
 5500ntf    on525797   5.772   6.233   3.577 -0.2353  0.0908  0.5191
 5500ntf    fn425798   5.589   6.264   3.815  0.5665  0.0576 -0.0680
 5500ntf    fn425799   5.470   6.279   3.641 -0.1738  0.1602 -0.2057
 5500ntf    fn425800   5.460   6.108   3.761 -0.2850  0.3313 -0.4166
 5501ntf    cn125801   5.047   2.028   7.368  0.0049 -0.0963 -0.0225
 5501ntf    sn225802   5.146   1.877   7.388  0.1371  0.0556  0.4833
 5501ntf    nn325803   5.189   1.864   7.237 -0.0942  0.2384  0.4001
 5501ntf    sn225804   5.294   1.950   7.158 -0.2448  0.1578  0.1116
 5501ntf    cn125805   5.438   1.839   7.153 -0.3302  0.0263  0.4919
 5501ntf    fn425806   4.920   2.015   7.406 -0.1060  0.6758 -0.1098
 5501ntf    fn425807   5.107   2.131   7.426  0.0102 -0.2315  0.2110
 5501ntf    fn425808   5.041   2.069   7.242  0.4192 -0.0525 -0.0296
 5501ntf    on525809   5.250   1.897   7.485  0.1216 -0.3024  0.5731
 5501ntf    on525810   5.048   1.781   7.432  0.1870 -0.4902 -0.5565
 5501ntf    on525811   5.344   2.070   7.220  0.6587  0.1294 -0.5436
 5501ntf    on525812   5.261   1.968   7.019  0.4058  0.1411 -0.0454
 5501ntf    fn425813   5.465   1.808   7.278  0.5183 -0.1891  0.2591
 5501ntf    fn425814   5.414   1.729   7.083 -0.0789  0.2903 -0.0189
 5501ntf    fn425815   5.551   1.889   7.107 -0.3933 -0.0317  0.2688
 5502ntf    cn125816   0.956   7.206   3.344 -0.1102  0.3154  0.0377
 5502ntf    sn225817   0.902   7.049   3.270  0.0370  0.3910 -0.2295
 5502ntf    nn325818   0.747   7.063   3.256 -0.0130  0.1318  0.0529
 5502ntf    sn225819   0.633   7.006   3.348 -0.0723 -0.4935 -0.3986
 5502ntf    cn125820   0.597   6.849   3.263  0.0147 -0.3428 -0.7123
 5502ntf    fn425821   1.083   7.201   3.382 -0.0625 -1.0198 -0.2458
 5502ntf    fn425822   0.947   7.311   3.265  0.1224  0.0955 -0.2811
 5502ntf    fn425823   0.888   7.238   3.453 -0.3535  0.1763 -0.0729
 5502ntf    on525824   0.961   7.065   3.139 -0.3027  0.4509 -0.3752
 5502ntf    on525825   0.950   6.936   3.347  0.4443  0.2051 -0.7471
 5502ntf    on525826   0.510   7.081   3.348 -0.0316 -0.4233  0.1708
 5502ntf    on525827   0.671   6.955   3.478  0.1561  0.5772 -0.0351
 5502ntf    fn425828   0.571   6.868   3.134  0.1398 -0.2602 -0.7258
 5502ntf    fn425829   0.703   6.770   3.270  0.2451  0.0274  0.1441
 5502ntf    fn425830   0.490   6.794   3.318  0.0165  0.1524 -0.2023
 5503ntf    cn125831   5.704   4.149   5.058 -0.0923 -0.2958 -0.5483
 5503ntf    sn225832   5.556   4.225   5.131  0.2581 -0.0129 -0.1278
 5503ntf    nn325833   5.468   4.254   5.004 -0.4460 -0.2197  0.3136
 5503ntf    sn225834   5.368   4.160   4.927 -0.0951 -0.3683  0.0382
 5503ntf    cn125835   5.436   4.176   4.759 -0.1175 -0.5735  0.0104
 5503ntf    fn425836   5.813   4.140   5.133 -0.4196  0.4619  0.0238
 5503ntf    fn425837   5.665   4.033   5.008 -0.9483 -0.1607 -0.1997
 5503ntf    fn425838   5.744   4.215   4.950 -0.0220  0.7090  0.0795
 5503ntf    on525839   5.514   4.124   5.224  0.0115  0.4304  0.2456
 5503ntf    on525840   5.596   4.352   5.186  0.1314  0.0119 -0.0933
 5503ntf    on525841   5.236   4.216   4.912  0.0289 -0.1271 -0.1732
 5503ntf    on525842   5.375   4.018   4.948  0.4604 -0.3051  0.2915
 5503ntf    fn425843   5.389   4.085   4.674 -0.4189  0.1022 -0.5530
 5503ntf    fn425844   5.423   4.292   4.697  0.0167 -0.4025  0.3044
 5503ntf    fn425845   5.565   4.149   4.759 -0.0025 -0.0331  0.3121
 5504ntf    cn125846   7.371   3.556   2.486  0.0317 -0.3683 -0.2709
 5504ntf    sn225847   7.499   3.560   2.358  0.1869 -0.0844 -0.1088
 5504ntf    nn325848   7.489   3.412   2.307 -0.8556 -0.2303  0.5006
 5504ntf    sn225849   7.399   3.364   2.187 -0.2476 -0.1098 -0.0090
 5504ntf    cn125850   7.523   3.338   2.057  0.1369  0.0518  0.3206
 5504ntf    fn425851   7.382   3.458   2.575 -0.3657 -0.1681  0.0018
 5504ntf    fn425852   7.377   3.668   2.557 -0.2633 -0.4067 -0.1844
 5504ntf    fn425853   7.247   3.550   2.440 -0.0797  0.5044 -0.1167
 5504ntf    on525854   7.462   3.667   2.269 -0.3069 -0.5022 -0.4113
 5504ntf    on525855   7.615   3.581   2.441  0.2707 -0.5355 -0.1058
 5504ntf    on525856   7.304   3.458   2.134 -0.1504 -0.1258 -0.2109
 5504ntf    on525857   7.340   3.234   2.207 -0.5714  0.0534  0.1047
 5504ntf    fn425858   7.477   3.314   1.935 -0.0115  0.2212  0.3418
 5504ntf    fn425859   7.604   3.442   2.050  0.3645 -0.1448 -0.0051
 5504ntf    fn425860   7.606   3.239   2.087 -0.0360 -0.0382  0.5042
 5505ntf    cn125861   2.788   6.897   4.697  0.3151  0.0393 -0.2042
 5505ntf    sn225862   2.878   6.740   4.718  0.1098 -0.0313  0.1596
 5505ntf    nn325863   2.987   6.761   4.607  0.0911 -0.4532  0.0612
 5505ntf    sn225864   3.140   6.794   4.621 -0.0280  0.1381 -0.0258
 5505ntf    cn125865   3.198   6.737   4.458 -0.1579  0.2924 -0.1270
 5505ntf    fn425866   2.742   6.903   4.573 -0.1326  0.2943 -0.0311
 5505ntf    fn425867   2.686   6.918   4.779  0.0557  0.1410 -0.5492
 5505ntf    fn425868   2.869   7.000   4.714  0.1526 -0.0077  0.9029
 5505ntf    on525869   2.909   6.733   4.858  0.0585 -0.7374  0.1355
 5505ntf    on525870   2.775   6.652   4.667  0.3424 -0.1901 -0.0348
 5505ntf    on525871   3.218   6.709   4.707 -0.1865  0.2579  0.2385
 5505ntf    on525872   3.177   6.933   4.611  0.6879 -0.0376  0.1673
 5505ntf    fn425873   3.181   6.606   4.449 -0.2798  0.2766  0.3176
 5505ntf    fn425874   3.124   6.790   4.363 -0.2797 -0.1490 -0.2815
 5505ntf    fn425875   3.326   6.763   4.443 -0.2508  0.0825 -1.3868
 5506ntf    cn125876   7.261   6.673   4.743 -0.5302 -0.3271  0.0506
 5506ntf    sn225877   7.255   6.581   4.899  0.1894 -0.0683  0.2371
 5506ntf    nn325878   7.326   6.451   4.846  0.0588  0.1524 -0.4873
 5506ntf    sn225879   7.419   6.351   4.923 -0.0775  0.4723  0.1061
 5506ntf    cn125880   7.580   6.405   4.858  0.0114  0.1641  0.0653
 5506ntf    fn425881   7.379   6.654   4.686 -0.5992  0.2208 -0.2841
 5506ntf    fn425882   7.171   6.629   4.657 -0.4705 -0.4719  0.0631
 5506ntf    fn425883   7.254   6.805   4.758  0.4174 -0.3259  0.5749
 5506ntf    on525884   7.333   6.668   4.983  0.3874  0.0867 -0.1069
 5506ntf    on525885   7.114   6.567   4.925  0.0015  0.4564 -0.4868
 5506ntf    on525886   7.416   6.215   4.874 -0.0102  0.5137 -0.0138
 5506ntf    on525887   7.416   6.363   5.066  0.0171  0.0435  0.1461
 5506ntf    fn425888   7.621   6.517   4.916  0.3419  0.4705 -0.7443
 5506ntf    fn425889   7.680   6.321   4.876  0.0608  0.2524  0.2042
 5506ntf    fn425890   7.574   6.421   4.727 -0.4529  0.2200  0.0923
 5507ntf    cn125891   7.468   1.415   6.135 -0.5495 -0.0224  0.0923
 5507ntf    sn225892   7.477   1.292   6.002  0.1033 -0.1564  0.2540
 5507ntf    nn325893   7.562   1.186   6.081 -0.0528 -0.5493 -0.0972
 5507ntf    sn225894   7.717   1.163   6.079  0.1248  0.5457  0.3104
 5507ntf    cn125895   7.724   1.046   5.940 -0.2166  0.3489  0.4574
 5507ntf    fn425896   7.430   1.365   6.252 -0.4858  0.4003  0.2951
 5507ntf    fn425897   7.584   1.476   6.157 -0.2897 -0.3564 -0.3286
 5507ntf    fn425898   7.387   1.515   6.108  0.2012  0.6734  0.3562
 5507ntf    on525899   7.341   1.248   5.982  0.0535  0.2783 -0.4161
 5507ntf    on525900   7.542   1.361   5.893 -0.2660  0.8663  0.6747
 5507ntf    on525901   7.755   1.077   6.189  0.6526  0.0418 -0.2590
 5507ntf    on525902   7.801   1.274   6.043  0.6942 -0.0559 -0.2508
 5507ntf    fn425903   7.637   0.946   5.946 -0.0170  0.1707  0.3800
 5507ntf    fn425904   7.708   1.100   5.820 -0.5437 -0.2854  0.2136
 5507ntf    fn425905   7.847   0.997   5.932 -0.3330  0.0920  0.2337
 5508ntf    cn125906   6.685   7.007   5.019  0.0864 -0.1528  0.2643
 5508ntf    sn225907   6.558   7.136   5.036 -0.1737 -0.3946  0.1707
 5508ntf    nn325908   6.627   7.221   5.150  0.5593 -0.3307 -0.3132
 5508ntf    sn225909   6.630   7.374   5.183  0.0335 -0.3435 -0.2017
 5508ntf    cn125910   6.791   7.411   5.108 -0.0912  0.1514 -0.2264
 5508ntf    fn425911   6.730   6.963   5.136  0.7860  0.0149  0.0643
 5508ntf    fn425912   6.643   6.899   4.955 -0.4879  0.0688  0.2631
 5508ntf    fn425913   6.792   7.050   4.956 -0.1951  0.1769  0.0093
 5508ntf    on525914   6.548   7.198   4.907  0.2247 -0.3612  0.1541
 5508ntf    on525915   6.440   7.060   5.068 -0.4912  0.0450  0.0643
 5508ntf    on525916   6.644   7.397   5.325 -0.3606 -0.1752 -0.1882
 5508ntf    on525917   6.532   7.448   5.107  0.1216  0.1741  0.1769
 5508ntf    fn425918   6.813   7.363   4.987 -0.4323  0.2812 -0.3429
 5508ntf    fn425919   6.804   7.542   5.095  0.3574  0.0105 -1.2678
 5508ntf    fn425920   6.892   7.365   5.179  0.2777  0.1592 -0.7421
 5509ntf    cn125921   5.081   4.910   4.249 -0.0417 -0.1764  0.1812
 5509ntf    sn225922   5.126   4.826   4.404  0.5601 -0.0626  0.0714
 5509ntf    nn325923   5.241   4.731   4.357  0.2832 -0.4909  0.2513
 5509ntf    sn225924   5.388   4.774   4.321 -0.0225  0.1638 -0.2395
 5509ntf    cn125925   5.461   4.716   4.477 -0.1399  0.3846 -0.1024
 5509ntf    fn425926   5.186   4.966   4.191 -0.2593  0.0376 -0.0033
 5509ntf    fn425927   5.022   4.830   4.161 -0.2911  0.7862 -0.5386
 5509ntf    fn425928   4.996   5.008   4.274  0.1716  0.1307 -0.2836
 5509ntf    on525929   5.154   4.935   4.495 -0.1490 -0.0712  0.3051
 5509ntf    on525930   5.002   4.758   4.434  0.0927  0.7449  0.0040
 5509ntf    on525931   5.415   4.916   4.318  0.0670  0.1655  0.4002
 5509ntf    on525932   5.449   4.691   4.220  0.0737 -0.0623  0.0046
 5509ntf    fn425933   5.400   4.780   4.576  0.3772 -0.0712  0.5229
 5509ntf    fn425934   5.452   4.585   4.493 -0.0056  0.4057  0.1494
 5509ntf    fn425935   5.591   4.738   4.479 -0.2036  0.7589 -0.0147
 5510ntf    cn125936   4.394   6.214   1.395 -0.4501  0.2503 -0.0514
 5510ntf    sn225937   4.464   6.362   1.315  0.2662  0.0528  0.2087
 5510ntf    nn325938   4.616   6.321   1.304  0.3299  0.3388  0.0389
 5510ntf    sn225939   4.680   6.252   1.178  0.1636  0.0455  0.1147
 5510ntf    cn125940   4.722   6.395   1.074  0.3726 -0.1098 -0.0142
 5510ntf    fn425941   4.468   6.178   1.498  0.0643  0.2427 -0.4177
 5510ntf    fn425942   4.276   6.227   1.453 -0.3341 -0.3153  0.3217
 5510ntf    fn425943   4.384   6.115   1.308 -0.0331 -0.0824  0.2789
 5510ntf    on525944   4.392   6.368   1.191  0.4335  0.3819  0.1258
 5510ntf    on525945   4.442   6.471   1.407 -0.0259  0.6196 -0.5255
 5510ntf    on525946   4.601   6.167   1.093 -0.0771  0.0297  0.3501
 5510ntf    on525947   4.813   6.209   1.214  0.2184  0.1050 -0.0148
 5510ntf    fn425948   4.804   6.369   0.974  0.7680  0.2020  0.2207
 5510ntf    fn425949   4.624   6.475   1.033  0.0499 -0.5362 -0.0772
 5510ntf    fn425950   4.796   6.475   1.150  0.2476  0.0071 -0.0131
 5511ntf    cn125951   6.630   5.715   1.864 -0.2028  0.1462  0.1674
 5511ntf    sn225952   6.463   5.651   1.899 -0.3158  0.3245 -0.0442
 5511ntf    nn325953   6.476   5.514   1.824  0.1906  0.3519 -0.0068
 5511ntf    sn225954   6.493   5.369   1.883  0.0014  0.3532  0.0515
 5511ntf    cn125955   6.418   5.265   1.754  0.4374 -0.0490  0.1206
 5511ntf    fn425956   6.636   5.776   1.747  0.1283 -0.0712  0.0708
 5511ntf    fn425957   6.666   5.808   1.951  0.3171  0.4293 -0.3425
 5511ntf    fn425958   6.714   5.613   1.870  0.0441  0.3543  0.2364
 5511ntf    on525959   6.451   5.643   2.042  0.2361 -0.4097 -0.0305
 5511ntf    on525960   6.377   5.741   1.825  0.0991  0.6282 -0.1644
 5511ntf    on525961   6.414   5.346   2.002 -0.4304  0.0288 -0.2946
 5511ntf    on525962   6.630   5.324   1.881 -0.1857 -0.2096 -0.1039
 5511ntf    fn425963   6.435   5.136   1.776  0.7572 -0.0645 -0.2087
 5511ntf    fn425964   6.287   5.284   1.751  0.4825  0.2644  0.1421
 5511ntf    fn425965   6.473   5.294   1.637 -0.3685 -0.1548 -0.2877
 5512ntf    cn125966   2.808   3.541   5.342  0.0507  0.5160 -0.2549
 5512ntf    sn225967   2.971   3.558   5.421 -0.0024 -0.0710 -0.0140
 5512ntf    nn325968   3.064   3.615   5.309 -0.4602  0.4947 -0.1114
 5512ntf    sn225969   3.138   3.754   5.305  0.2315  0.1301 -0.1221
 5512ntf    cn125970   3.006   3.863   5.243 -0.0332 -0.0123  0.1897
 5512ntf    fn425971   2.770   3.661   5.300 -0.1422  0.5097 -0.0996
 5512ntf    fn425972   2.818   3.450   5.246  0.2391 -0.0001  0.2517
 5512ntf    fn425973   2.712   3.502   5.424 -0.0680 -0.1782 -0.7176
 5512ntf    on525974   2.935   3.648   5.528 -0.1424 -0.4659  0.2709
 5512ntf    on525975   3.011   3.425   5.458 -0.0599 -0.1502 -0.2337
 5512ntf    on525976   3.226   3.761   5.191  0.3399 -0.0288 -0.0493
 5512ntf    on525977   3.185   3.817   5.425 -0.2576 -0.1907  0.2421
 5512ntf    fn425978   3.041   3.990   5.230 -0.4112  0.0950  0.2259
 5512ntf    fn425979   2.968   3.835   5.119  0.1619 -0.0129  0.1292
 5512ntf    fn425980   2.895   3.859   5.314 -0.0020  0.1425  0.2470
 5513ntf    cn125981   1.842   4.464   6.797 -0.0913 -0.3992  0.1334
 5513ntf    sn225982   1.896   4.567   6.938 -0.1660 -0.0941 -0.0600
 5513ntf    nn325983   1.818   4.495   7.054  0.3258 -0.0571  0.2959
 5513ntf    sn225984   1.693   4.531   7.142  0.0704 -0.1214 -0.0388
 5513ntf    cn125985   1.588   4.392   7.087 -0.1282 -0.0419  0.1373
 5513ntf    fn425986   1.710   4.464   6.786 -0.1094 -0.3569  0.3354
 5513ntf    fn425987   1.893   4.512   6.685 -0.0392 -0.1727  0.2532
 5513ntf    fn425988   1.876   4.337   6.807  0.2317 -0.3476 -0.2725
 5513ntf    on525989   2.038   4.548   6.940 -0.1103  0.3606  0.3770
 5513ntf    on525990   1.850   4.698   6.899  0.4629 -0.0652 -0.7200
 5513ntf    on525991   1.621   4.650   7.103 -0.1198 -0.1095  0.3430
 5513ntf    on525992   1.718   4.512   7.283 -0.7534  0.5602  0.2079
 5513ntf    fn425993   1.645   4.273   7.094  0.2922  0.1461 -0.0250
 5513ntf    fn425994   1.478   4.378   7.159 -0.2931 -0.0704 -0.1189
 5513ntf    fn425995   1.546   4.407   6.963  0.2004 -0.2867 -0.0066
 5514ntf    cn125996   0.860   2.544   6.549  0.0620  0.3164 -0.3754
 5514ntf    sn225997   0.979   2.516   6.684 -0.3505 -0.0121 -0.0784
 5514ntf    nn325998   0.942   2.639   6.775  0.4870  0.2119 -0.0315
 5514ntf    sn225999   0.876   2.626   6.917  0.0174  0.0932 -0.2593
 5514ntf    cn126000   0.703   2.595   6.871 -0.0425  0.2893 -0.1674
 5514ntf    fn426001   0.734   2.537   6.588  0.0806  0.4778 -0.2819
 5514ntf    fn426002   0.869   2.666   6.499  0.7978  0.3172 -0.2603
 5514ntf    fn426003   0.871   2.459   6.449  0.3094  0.2716 -0.3109
 5514ntf    on526004   0.942   2.385   6.730 -0.3163  0.1498  0.4116
 5514ntf    on526005   1.102   2.536   6.612 -0.0706 -0.2478  0.3284
 5514ntf    on526006   0.867   2.752   6.986 -0.0157 -0.0986  0.0863
 5514ntf    on526007   0.912   2.511   6.996  0.1933  0.4879  0.2390
 5514ntf    fn426008   0.692   2.492   6.788  0.6806  0.3158 -0.3004
 5514ntf    fn426009   0.646   2.552   6.983  0.1970 -0.1597 -0.2114
 5514ntf    fn426010   0.634   2.691   6.812 -0.2536 -0.1332 -0.6167
 5515ntf    cn126011   5.632   5.668   5.824 -0.0259 -0.3846  0.2488
 5515ntf    sn226012   5.507   5.608   5.706 -0.0141  0.1220 -0.0232
 5515ntf    nn326013   5.564   5.663   5.571 -0.1950  0.1957 -0.0697
 5515ntf    sn226014   5.666   5.589   5.477 -0.1075  0.3135 -0.0682
 5515ntf    cn126015   5.543   5.488   5.390 -0.0655  0.2186 -0.0171
 5515ntf    fn426016   5.616   5.631   5.949  0.0941 -0.3357  0.2788
 5515ntf    fn426017   5.753   5.635   5.780 -0.1465  0.2271 -0.5645
 5515ntf    fn426018   5.642   5.800   5.816 -0.3033 -0.3591  0.3105
 5515ntf    on526019   5.508   5.465   5.717  0.6329  0.1180 -0.1090
 5515ntf    on526020   5.386   5.681   5.737 -0.0602  0.0206  0.0349
 5515ntf    on526021   5.764   5.507   5.543  0.0343  0.2582 -0.3439
 5515ntf    on526022   5.718   5.675   5.373 -0.1312  0.1508 -0.2164
 5515ntf    fn426023   5.471   5.566   5.310 -0.5190 -0.0059  0.1645
 5515ntf    fn426024   5.608   5.397   5.319 -0.1783  0.2317 -0.1387
 5515ntf    fn426025   5.462   5.425   5.474 -0.5020  0.5285 -0.2001
 5516ntf    cn126026   1.919   5.185   6.121 -0.1900  0.5890  0.1086
 5516ntf    sn226027   1.951   5.239   6.291  0.2353  0.0828  0.1925
 5516ntf    nn326028   1.964   5.395   6.271 -0.3500  0.0681 -0.3270
 5516ntf    sn226029   2.087   5.491   6.257 -0.4262  0.2012 -0.0821
 5516ntf    cn126030   2.085   5.553   6.428  0.0254  0.6160 -0.2259
 5516ntf    fn426031   1.909   5.053   6.118 -0.4252  0.6048  0.1166
 5516ntf    fn426032   1.804   5.230   6.073 -0.1028  0.2320 -0.4581
 5516ntf    fn426033   2.007   5.213   6.026  0.1605  0.5017  0.4056
 5516ntf    on526034   1.827   5.212   6.359 -0.2901  0.1619 -0.7257
 5516ntf    on526035   2.066   5.160   6.328  0.2525 -0.0777 -0.2052
 5516ntf    on526036   2.055   5.608   6.178 -0.3315  0.0576 -0.3335
 5516ntf    on526037   2.216   5.430   6.239 -0.8286 -0.6922  0.0187
 5516ntf    fn426038   2.204   5.606   6.451  0.1549  0.0291  0.4605
 5516ntf    fn426039   1.994   5.647   6.451 -0.3515  0.1499  0.2097
 5516ntf    fn426040   2.066   5.458   6.518  0.1438  0.7636 -0.0441
 5517ntf    cn126041   3.826   6.586   4.737  0.0054 -0.0275  0.1742
 5517ntf    sn226042   3.776   6.466   4.864 -0.0446  0.0422  0.2207
 5517ntf    nn326043   3.868   6.343   4.832 -0.4211 -0.1549 -0.1221
 5517ntf    sn226044   3.867   6.208   4.913  0.1872 -0.0251  0.1061
 5517ntf    cn126045   3.766   6.111   4.798  0.5113 -0.2101 -0.0231
 5517ntf    fn426046   3.957   6.602   4.724 -0.1634  0.6609 -0.7365
 5517ntf    fn426047   3.775   6.548   4.621 -0.4878 -0.0785  0.4049
 5517ntf    fn426048   3.775   6.706   4.760  0.1997 -0.0245  0.5894
 5517ntf    on526049   3.814   6.529   4.988  0.5908 -0.0952  0.0981
 5517ntf    on526050   3.635   6.444   4.843 -0.1423  0.3658  0.5159
 5517ntf    on526051   3.805   6.210   5.043  0.0570  0.6548  0.0385
 5517ntf    on526052   3.991   6.133   4.909  0.1156 -0.1437  0.1283
 5517ntf    fn426053   3.799   6.140   4.673  0.1831  0.0234 -0.0561
 5517ntf    fn426054   3.774   5.979   4.806 -0.2976 -0.2446  0.2810
 5517ntf    fn426055   3.639   6.143   4.809  0.4665 -0.5254  0.4072
 5518ntf    cn126056   5.738   2.171   4.669  0.0916 -0.3775 -0.2680
 5518ntf    sn226057   5.897   2.102   4.614  0.3045 -0.1660  0.0765
 5518ntf    nn326058   5.987   2.230   4.621  0.3086 -0.1530 -0.1905
 5518ntf    sn226059   6.087   2.281   4.731  0.0366  0.2399 -0.1248
 5518ntf    cn126060   6.217   2.361   4.631 -0.2047  0.5413 -0.1977
 5518ntf    fn426061   5.741   2.208   4.796  1.0363  0.2484 -0.4643
 5518ntf    fn426062   5.699   2.277   4.601 -0.4136 -0.1727  0.3345
 5518ntf    fn426063   5.633   2.091   4.662  0.0411 -0.3716  0.3527
 5518ntf    on526064   5.927   1.996   4.707 -0.4039 -0.2683  0.1942
 5518ntf    on526065   5.874   2.065   4.476 -0.9502 -0.6016  0.3936
 5518ntf    on526066   6.159   2.178   4.801 -0.4579  0.1375  0.2312
 5518ntf    on526067   6.029   2.386   4.810 -0.0523 -0.3053  0.5400
 5518ntf    fn426068   6.281   2.452   4.704  0.1963 -0.1991  0.3864
 5518ntf    fn426069   6.307   2.273   4.593 -0.4233  0.0490  0.4006
 5518ntf    fn426070   6.173   2.425   4.524  0.1652  0.4953 -0.3773
 5519ntf    cn126071   3.958   6.326   1.869  0.0187 -0.0529  0.1220
 5519ntf    sn226072   4.047   6.474   1.927 -0.1913  0.1801 -0.1495
 5519ntf    nn326073   4.028   6.570   1.805 -0.5587  0.1494 -0.1190
 5519ntf    sn226074   4.114   6.692   1.755  0.1729 -0.1995  0.2798
 5519ntf    cn126075   4.223   6.595   1.645  0.1572 -0.1061  0.1812
 5519ntf    fn426076   3.945   6.239   1.968  0.1496  0.0841  0.2610
 5519ntf    fn426077   3.837   6.360   1.829 -0.2050  0.0010  0.8279
 5519ntf    fn426078   4.025   6.268   1.771 -0.3129  0.0322 -0.1553
 5519ntf    on526079   3.973   6.517   2.044  0.3010  0.2217  0.1468
 5519ntf    on526080   4.182   6.424   1.934 -0.3061 -0.1097  0.0092
 5519ntf    on526081   4.210   6.746   1.847  0.0803  0.0653  0.2193
 5519ntf    on526082   4.042   6.776   1.663 -0.0240 -0.5001  0.1567
 5519ntf    fn426083   4.331   6.658   1.602  0.0283  0.3553  0.5225
 5519ntf    fn426084   4.270   6.492   1.714  0.2245 -0.1448  0.0777
 5519ntf    fn426085   4.165   6.545   1.537 -0.2189  0.0646  0.3024
 5520ntf    cn126086   3.167   4.827   2.474  0.0877 -0.6635 -0.0824
 5520ntf    sn226087   3.002   4.801   2.545 -0.0853  0.1023 -0.1915
 5520ntf    nn326088   2.998   4.925   2.640 -0.1700  0.0432 -0.1177
 5520ntf    sn226089   2.942   5.066   2.601  0.0428  0.1097 -0.1845
 5520ntf    cn126090   2.925   5.147   2.763  0.1828 -0.1960 -0.0166
 5520ntf    fn426091   3.249   4.840   2.578  0.4721 -0.4971 -0.4022
 5520ntf    fn426092   3.219   4.733   2.397  0.0350 -0.3788 -0.4665
 5520ntf    fn426093   3.180   4.939   2.405  0.1801 -0.4554  0.2727
 5520ntf    on526094   2.910   4.800   2.433 -0.1626  0.5339 -0.1320
 5520ntf    on526095   3.027   4.672   2.604 -0.0708  0.2030  0.0211
 5520ntf    on526096   2.807   5.067   2.552  0.0388 -0.3863 -0.1800
 5520ntf    on526097   3.037   5.149   2.530  0.0195  0.5712  0.3136
 5520ntf    fn426098   2.872   5.070   2.856 -0.4704  0.1816 -0.0746
 5520ntf    fn426099   3.044   5.168   2.818 -0.1050  0.1218  0.4897
 5520ntf    fn426100   2.846   5.253   2.768 -0.5470 -0.7185 -0.4058
 5521ntf    cn126101   2.557   4.144   1.506 -0.4556  0.0211  0.0915
 5521ntf    sn226102   2.498   4.147   1.678 -0.1711 -0.1348  0.1927
 5521ntf    nn326103   2.348   4.186   1.651 -0.0954 -0.4422 -0.7275
 5521ntf    sn226104   2.231   4.085   1.625 -0.3727 -0.2980 -0.0720
 5521ntf    cn126105   2.184   4.111   1.451 -0.0655 -0.6157 -0.2030
 5521ntf    fn426106   2.687   4.121   1.498 -0.5962 -0.7187 -0.1675
 5521ntf    fn426107   2.500   4.055   1.426  0.1683 -0.4816  0.1915
 5521ntf    fn426108   2.539   4.261   1.448 -0.2825 -0.1504 -0.3116
 5521ntf    on526109   2.536   4.018   1.731 -0.4216 -0.2582  0.0747
 5521ntf    on526110   2.577   4.258   1.725 -0.4753 -0.0743  0.5577
 5521ntf    on526111   2.118   4.125   1.704 -0.1719  0.3386 -0.0992
 5521ntf    on526112   2.268   3.948   1.646 -0.3422 -0.2570  0.1420
 5521ntf    fn426113   2.169   4.238   1.419  0.0395 -0.5264  0.0997
 5521ntf    fn426114   2.280   4.064   1.373  0.5993  0.0464  0.2082
 5521ntf    fn426115   2.067   4.052   1.428 -0.2459 -0.2841 -0.1373
 5522ntf    cn126116   2.359   3.991   7.129 -0.1048 -0.0376  0.1296
 5522ntf    sn226117   2.481   4.106   7.058 -0.1711 -0.1375 -0.1432
 5522ntf    nn326118   2.403   4.241   7.077 -0.2722 -0.2656  0.3437
 5522ntf    sn226119   2.413   4.354   7.187 -0.0652  0.1443 -0.0919
 5522ntf    cn126120   2.520   4.469   7.096 -0.0060  0.1285 -0.0417
 5522ntf    fn426121   2.331   4.025   7.254 -0.2782  0.5265 -0.0577
 5522ntf    fn426122   2.245   3.974   7.065  0.2065  0.1268 -0.4729
 5522ntf    fn426123   2.410   3.869   7.136 -0.5316 -0.2430 -0.3174
 5522ntf    on526124   2.592   4.071   7.142 -0.3067 -0.6550 -0.1763
 5522ntf    on526125   2.485   4.062   6.921 -0.5772 -0.5599 -0.0233
 5522ntf    on526126   2.486   4.316   7.305  0.0882  0.1158 -0.1966
 5522ntf    on526127   2.286   4.420   7.204 -0.2763 -0.4460  0.6867
 5522ntf    fn426128   2.450   4.554   7.023  0.0443  0.3524  0.1687
 5522ntf    fn426129   2.586   4.540   7.186  0.3652 -0.1138 -0.1199
 5522ntf    fn426130   2.611   4.420   7.013 -0.1013 -0.4357  0.1856
 5523ntf    cn126131   1.326   5.968   6.052  0.2167  0.0497  0.3285
 5523ntf    sn226132   1.474   5.994   6.153  0.3736 -0.4164  0.2174
 5523ntf    nn326133   1.472   5.871   6.251 -0.1836 -0.0025  0.7327
 5523ntf    sn226134   1.588   5.771   6.288 -0.0584 -0.1171  0.0465
 5523ntf    cn126135   1.561   5.644   6.161 -0.3076 -0.0791  0.0615
 5523ntf    fn426136   1.347   5.877   5.958  0.0332  0.0270  0.3088
 5523ntf    fn426137   1.225   5.929   6.128  0.1590  0.0238  0.2396
 5523ntf    fn426138   1.298   6.078   5.982  0.1355  0.2117  0.6148
 5523ntf    on526139   1.582   5.989   6.058  0.1544  0.4104 -0.0734
 5523ntf    on526140   1.463   6.117   6.228 -0.2950  0.0181 -0.5830
 5523ntf    on526141   1.559   5.710   6.416 -0.1066  0.4872  0.3281
 5523ntf    on526142   1.724   5.814   6.268  0.0802 -0.1827  0.7985
 5523ntf    fn426143   1.454   5.574   6.196 -0.4390  0.2852  0.3935
 5523ntf    fn426144   1.546   5.688   6.037 -0.6213 -0.0615  0.1031
 5523ntf    fn426145   1.657   5.554   6.154 -0.0055  0.2517 -0.0858
 5524ntf    cn126146   1.835   3.708   5.017  0.1300  0.0972  0.3562
 5524ntf    sn226147   1.982   3.752   4.920 -0.0766  0.0854  0.0377
 5524ntf    nn326148   1.939   3.897   4.879 -0.2703 -0.0549 -0.2588
 5524ntf    sn226149   1.950   3.987   4.750 -0.1296 -0.2957 -0.4163
 5524ntf    cn126150   1.804   3.918   4.666 -0.3463 -0.2731 -0.0658
 5524ntf    fn426151   1.736   3.677   4.935  0.0381 -0.2041  0.5810
 5524ntf    fn426152   1.842   3.597   5.088 -0.4490 -0.1718 -0.0018
 5524ntf    fn426153   1.783   3.804   5.092 -0.1887  0.1149  0.1147
 5524ntf    on526154   2.087   3.750   5.019 -0.0150  0.0070 -0.0287
 5524ntf    on526155   1.982   3.650   4.818 -0.0605 -0.2219  0.3441
 5524ntf    on526156   2.060   3.956   4.664  0.3943  0.3061  0.0237
 5524ntf    on526157   1.911   4.124   4.774  0.0208 -0.2372 -0.5070
 5524ntf    fn426158   1.690   3.957   4.720  0.0712  0.1222  0.5421
 5524ntf    fn426159   1.797   3.964   4.542 -0.2144  0.1221  0.0700
 5524ntf    fn426160   1.806   3.787   4.645 -0.1880 -0.2814 -0.0029
 5525ntf    cn126161   2.675   1.235   2.620  0.0787  0.5285 -0.0382
 5525ntf    sn226162   2.699   1.355   2.486  0.1841  0.1976 -0.3151
 5525ntf    nn326163   2.853   1.342   2.457  0.3098 -0.3246  0.5601
 5525ntf    sn226164   2.939   1.233   2.383  0.1468 -0.0352 -0.0670
 5525ntf    cn126165   2.957   1.311   2.220 -0.1575 -0.0095 -0.0876
 5525ntf    fn426166   2.767   1.251   2.714 -0.2794  0.3702  0.3433
 5525ntf    fn426167   2.552   1.241   2.670  0.0690  0.0368 -0.0002
 5525ntf    fn426168   2.686   1.108   2.587 -0.5847  0.5480 -0.3527
 5525ntf    on526169   2.608   1.314   2.382  0.2099 -0.3393 -0.1276
 5525ntf    on526170   2.668   1.480   2.551  0.5316 -0.2423  0.7099
 5525ntf    on526171   2.870   1.108   2.366  0.5496 -0.2155 -0.3884
 5525ntf    on526172   3.068   1.238   2.448 -0.0534  0.4893  0.2981
 5525ntf    fn426173   3.053   1.265   2.143 -0.3530  0.3334 -0.5403
 5525ntf    fn426174   2.843   1.301   2.153 -0.2494 -0.1398  0.0861
 5525ntf    fn426175   2.967   1.443   2.227  0.1356 -0.0032 -0.6287
 5526ntf    cn126176   0.056   2.672   1.224 -0.2851 -0.0698 -0.1971
 5526ntf    sn226177  -0.112   2.622   1.272 -0.2106  0.0224  0.1621
 5526ntf    nn326178  -0.176   2.567   1.139  0.0758  0.0047  0.0305
 5526ntf    sn226179  -0.227   2.647   1.014 -0.0490 -0.1281 -0.0041
 5526ntf    cn126180  -0.399   2.665   1.068 -0.0341  0.4493 -0.1397
 5526ntf    fn426181   0.128   2.567   1.188 -0.0823  0.1387 -0.4035
 5526ntf    fn426182   0.058   2.752   1.118  0.2248 -0.4493 -0.4793
 5526ntf    fn426183   0.113   2.738   1.324 -0.1268  0.1804 -0.4512
 5526ntf    on526184  -0.075   2.518   1.365 -0.1098 -0.1596 -0.0813
 5526ntf    on526185  -0.173   2.740   1.327  0.0913  0.3056 -0.1144
 5526ntf    on526186  -0.229   2.574   0.890 -0.3521  0.1497 -0.1643
 5526ntf    on526187  -0.187   2.786   1.011  0.0478 -0.1617 -0.2629
 5526ntf    fn426188  -0.464   2.550   1.069  0.5162  0.1387 -0.0166
 5526ntf    fn426189  -0.408   2.708   1.193 -0.2311  0.2005 -0.0675
 5526ntf    fn426190  -0.470   2.750   0.996  0.0655  0.3263 -0.3829
 5527ntf    cn126191   1.869   2.629   1.186 -0.0861 -0.2936  0.1431
 5527ntf    sn226192   1.749   2.539   1.288  0.0050 -0.4289  0.1310
 5527ntf    nn326193   1.674   2.455   1.179  0.2890  0.0136 -0.4082
 5527ntf    sn226194   1.703   2.311   1.122  0.3937 -0.2333  0.2632
 5527ntf    cn126195   1.742   2.355   0.950  0.2927  0.1992  0.3493
 5527ntf    fn426196   1.810   2.699   1.090  0.0248 -0.0928  0.2206
 5527ntf    fn426197   1.940   2.719   1.252  0.4674 -0.6559  0.0499
 5527ntf    fn426198   1.953   2.549   1.122 -0.3672  0.0298 -0.6373
 5527ntf    on526199   1.828   2.465   1.383  0.5763 -0.4789 -0.3768
 5527ntf    on526200   1.666   2.638   1.350  0.1129 -0.1016 -0.2429
 5527ntf    on526201   1.573   2.248   1.123  0.2624  0.0321  0.0602
 5527ntf    on526202   1.815   2.235   1.170  0.5596 -0.4960 -0.5243
 5527ntf    fn426203   1.628   2.372   0.885  0.7055  0.4555 -0.3150
 5527ntf    fn426204   1.802   2.472   0.935 -0.0504  0.3930  0.4655
 5527ntf    fn426205   1.823   2.270   0.889 -0.5551 -0.0446 -0.4571
 5528ntf    cn126206   2.991   1.060   5.433 -0.0854 -0.4423  0.0482
 5528ntf    sn226207   3.059   1.064   5.602 -0.2112 -0.2314  0.0940
 5528ntf    nn326208   3.078   1.217   5.628  0.0825 -0.1784 -0.4164
 5528ntf    sn226209   3.212   1.296   5.611  0.0848 -0.0795  0.0301
 5528ntf    cn126210   3.299   1.265   5.767  0.2109  0.0458 -0.0141
 5528ntf    fn426211   3.072   1.109   5.341 -0.0764 -0.1860  0.1920
 5528ntf    fn426212   2.953   0.936   5.404 -0.0392 -0.3793 -0.2777
 5528ntf    fn426213   2.883   1.136   5.436  0.0431 -0.2638  0.1254
 5528ntf    on526214   2.958   1.017   5.695 -0.5780 -0.3121 -0.3411
 5528ntf    on526215   3.177   0.983   5.583 -0.3928 -0.3906 -0.3699
 5528ntf    on526216   3.172   1.435   5.620  0.2381 -0.0204 -0.1844
 5528ntf    on526217   3.308   1.271   5.506 -0.7415 -0.5238 -0.6369
 5528ntf    fn426218   3.399   1.349   5.788 -0.0593  0.1562  0.8562
 5528ntf    fn426219   3.216   1.281   5.869  0.0069  0.1957 -0.2037
 5528ntf    fn426220   3.350   1.144   5.784 -0.1005 -0.1099 -0.1725
 5529ntf    cn126221   0.091   4.294   4.532  0.1376 -0.4433  0.0060
 5529ntf    sn226222  -0.036   4.242   4.414  0.1190 -0.0062 -0.1663
 5529ntf    nn326223  -0.111   4.139   4.506 -0.4898  0.4817 -0.1135
 5529ntf    sn226224  -0.244   4.155   4.589 -0.4092 -0.2318  0.1523
 5529ntf    cn126225  -0.363   4.102   4.462 -0.0655 -0.2748 -0.1541
 5529ntf    fn426226   0.173   4.194   4.563  0.1091 -0.4136  0.1812
 5529ntf    fn426227   0.173   4.385   4.482 -0.1535 -0.3822 -0.3600
 5529ntf    fn426228   0.032   4.333   4.644  0.2299 -0.0102 -0.0981
 5529ntf    on526229  -0.101   4.366   4.381 -0.5300 -0.2430  0.1922
 5529ntf    on526230   0.038   4.190   4.302  0.4948 -0.4004  0.2642
 5529ntf    on526231  -0.276   4.289   4.629  0.4926  0.1105 -0.2532
 5529ntf    on526232  -0.253   4.056   4.694 -0.4347 -0.2636  0.1210
 5529ntf    fn426233  -0.355   4.171   4.349  0.2379  0.0165  0.0433
 5529ntf    fn426234  -0.333   3.978   4.427  0.0763 -0.2130 -0.2523
 5529ntf    fn426235  -0.489   4.112   4.502  0.1656  0.6918  0.3832
 5530ntf    cn126236   4.562   4.928   5.912  0.0106 -0.1745  0.1787
 5530ntf    sn226237   4.519   4.960   6.086  0.0303 -0.4010  0.2250
 5530ntf    nn326238   4.655   5.013   6.143  0.1125 -0.2734 -0.0869
 5530ntf    sn226239   4.690   5.153   6.205 -0.1663 -0.2459  0.0073
 5530ntf    cn126240   4.714   5.258   6.058 -0.6434 -0.0479  0.0682
 5530ntf    fn426241   4.598   5.037   5.847  0.2264 -0.2419  0.1832
 5530ntf    fn426242   4.650   4.831   5.890  0.1584  0.0777 -0.3518
 5530ntf    fn426243   4.456   4.899   5.840  0.0215 -0.0626  0.1170
 5530ntf    on526244   4.418   5.061   6.070 -0.0276 -0.4111  0.5341
 5530ntf    on526245   4.477   4.829   6.130 -0.0928 -0.3891  0.1448
 5530ntf    on526246   4.824   5.140   6.257 -0.1281 -0.0620 -0.0465
 5530ntf    on526247   4.593   5.229   6.280  0.0647 -0.1598  0.2189
 5530ntf    fn426248   4.809   5.218   5.975 -0.6999 -0.7299  0.3245
 5530ntf    fn426249   4.603   5.274   5.988 -0.3510  0.4700 -0.2762
 5530ntf    fn426250   4.753   5.378   6.098 -0.1169 -0.1058 -0.2563
 5531ntf    cn126251   3.525   1.353   3.168 -0.1277 -0.2174 -0.1086
 5531ntf    sn226252   3.683   1.269   3.203 -0.2291 -0.2819  0.1893
 5531ntf    nn326253   3.650   1.150   3.107 -0.5773 -0.1411  0.1333
 5531ntf    sn226254   3.673   1.129   2.953 -0.3700 -0.0429  0.1511
 5531ntf    cn126255   3.842   1.062   2.954 -0.2187  0.3287 -0.3064
 5531ntf    fn426256   3.497   1.350   3.038 -0.1432  0.4651 -0.1250
 5531ntf    fn426257   3.419   1.310   3.233 -0.3206  0.7938  0.2631
 5531ntf    fn426258   3.534   1.481   3.200 -0.1192 -0.1265 -0.4677
 5531ntf    on526259   3.789   1.356   3.158 -0.3760 -0.4330 -0.4511
 5531ntf    on526260   3.684   1.237   3.344  0.0775  0.5991  0.3940
 5531ntf    on526261   3.683   1.246   2.869  0.4954 -0.3127 -0.1302
 5531ntf    on526262   3.592   1.024   2.896 -0.2284 -0.4193  0.6299
 5531ntf    fn426263   3.842   0.952   3.027 -0.1185  0.3150 -0.3269
 5531ntf    fn426264   3.893   1.029   2.836  0.8840  0.0094  0.2512
 5531ntf    fn426265   3.938   1.134   3.009  0.1683 -0.5268  0.1531
 5532ntf    cn126266   1.515   6.750   6.363  0.0682  0.2698  0.0078
 5532ntf    sn226267   1.457   6.625   6.481  0.4135  0.1064  0.0047
 5532ntf    nn326268   1.362   6.719   6.563  0.3731 -0.1041  0.2038
 5532ntf    sn226269   1.344   6.746   6.717 -0.1231  0.3787  0.0633
 5532ntf    cn126270   1.187   6.664   6.759 -0.2121  0.5042 -0.0210
 5532ntf    fn426271   1.420   6.836   6.330 -0.1968  0.1124  0.3478
 5532ntf    fn426272   1.616   6.821   6.408  0.1156 -0.2486  0.7424
 5532ntf    fn426273   1.560   6.696   6.251 -0.5138 -0.1922 -0.0073
 5532ntf    on526274   1.388   6.530   6.397  0.2160  0.2178  0.0417
 5532ntf    on526275   1.578   6.586   6.550  0.2631 -0.3416  0.0176
 5532ntf    on526276   1.307   6.883   6.743 -0.5079  0.1511  0.7251
 5532ntf    on526277   1.440   6.688   6.806 -0.2799  0.7380  0.4684
 5532ntf    fn426278   1.090   6.751   6.739 -0.5370  0.2404  0.3788
 5532ntf    fn426279   1.156   6.561   6.682  0.4748  0.3808 -0.1435
 5532ntf    fn426280   1.167   6.628   6.885 -0.1113  0.2508 -0.0753
 5533ntf    cn126281   7.364   4.067   3.480  0.0999 -0.2211  0.2720
 5533ntf    sn226282   7.358   3.988   3.644  0.4268 -0.4338  0.1837
 5533ntf    nn326283   7.391   3.841   3.602 -0.3846 -0.6252  0.1918
 5533ntf    sn226284   7.527   3.764   3.615  0.1465  0.2206 -0.2653
 5533ntf    cn126285   7.494   3.689   3.778  0.1488  0.4315 -0.1674
 5533ntf    fn426286   7.485   4.048   3.431  0.1049  0.4202  0.0294
 5533ntf    fn426287   7.276   4.013   3.396 -0.0590  0.0585  0.2585
 5533ntf    fn426288   7.342   4.195   3.504 -0.0184 -0.2913  0.5442
 5533ntf    on526289   7.453   4.059   3.725  0.0502 -0.2374  0.4594
 5533ntf    on526290   7.218   4.006   3.674  0.3224 -0.4538 -0.2873
 5533ntf    on526291   7.650   3.838   3.632 -0.2618  0.8356  0.0309
 5533ntf    on526292   7.528   3.652   3.524 -0.5925  0.0113 -0.0242
 5533ntf    fn426293   7.371   3.639   3.784  0.1794  0.3307 -0.3525
 5533ntf    fn426294   7.569   3.586   3.812 -0.6284 -0.1293 -0.1211
 5533ntf    fn426295   7.509   3.769   3.882  0.1557 -0.0237  0.1864
 5534ntf    cn126296   4.490   3.528   7.392 -0.1735  0.4485  0.1970
 5534ntf    sn226297   4.459   3.502   7.569 -0.0163 -0.3336  0.1145
 5534ntf    nn326298   4.307   3.463   7.573 -0.0968 -0.0673 -0.2859
 5534ntf    sn226299   4.243   3.332   7.633 -0.2540  0.0849 -0.1217
 5534ntf    cn126300   4.121   3.414   7.740 -0.1542 -0.1123  0.1436
 5534ntf    fn426301   4.509   3.418   7.321  0.2768  0.2403  0.6354
 5534ntf    fn426302   4.400   3.604   7.332 -0.3326  0.2703  0.2088
 5534ntf    fn426303   4.606   3.591   7.388  0.0217  0.0700 -0.1383
 5534ntf    on526304   4.555   3.402   7.610  0.1749 -0.2594 -0.1529
 5534ntf    on526305   4.472   3.636   7.622 -0.6244 -0.3744  0.3827
 5534ntf    on526306   4.319   3.259   7.732 -0.2945 -0.3593 -0.4164
 5534ntf    on526307   4.159   3.259   7.541  0.2490 -0.1344 -0.4125
 5534ntf    fn426308   4.021   3.333   7.772 -0.2677  0.2629  0.7582
 5534ntf    fn426309   4.183   3.461   7.847 -0.0766 -0.1454  0.1133
 5534ntf    fn426310   4.060   3.521   7.690  0.3120  0.2084  0.2567
 5535ntf    cn126311   5.877   0.191   1.457 -0.4432 -0.2922  0.0359
 5535ntf    sn226312   5.805   0.330   1.549 -0.1297 -0.2031  0.1467
 5535ntf    nn326313   5.660   0.270   1.559 -0.3422  0.2118 -0.3959
 5535ntf    sn226314   5.523   0.338   1.594 -0.2309  0.2682 -0.0598
 5535ntf    cn126315   5.508   0.304   1.772  0.0471  0.6372  0.0363
 5535ntf    fn426316   5.799   0.155   1.356 -0.5306 -0.4483  0.1578
 5535ntf    fn426317   5.988   0.232   1.399 -0.4598  0.6049  0.6292
 5535ntf    fn426318   5.907   0.093   1.541  0.3379  0.0828  0.2062
 5535ntf    on526319   5.873   0.324   1.676 -0.2536  0.2555  0.2349
 5535ntf    on526320   5.817   0.450   1.470  0.4593 -0.1886  0.2527
 5535ntf    on526321   5.416   0.263   1.534 -0.4577  0.2866  0.3181
 5535ntf    on526322   5.506   0.481   1.583 -0.6114  0.2354  0.0712
 5535ntf    fn426323   5.446   0.188   1.790 -0.0951  0.5019 -1.1938
 5535ntf    fn426324   5.626   0.285   1.829 -0.1551 -0.2984  0.1531
 5535ntf    fn426325   5.442   0.398   1.837 -0.2179  0.5326 -0.0799
 5536ntf    cn126326   4.126   3.435   1.185  0.1280 -0.1914 -0.2664
 5536ntf    sn226327   3.973   3.444   1.087  0.0512 -0.1317 -0.1417
 5536ntf    nn326328   4.019   3.404   0.942  0.2917 -0.4556  0.0225
 5536ntf    sn226329   4.066   3.497   0.825 -0.4527  0.0911  0.1480
 5536ntf    cn126330   3.922   3.479   0.715 -0.5749  0.0374  0.3165
 5536ntf    fn426331   4.169   3.311   1.197  0.0099 -0.1920  0.1723
 5536ntf    fn426332   4.219   3.506   1.125  0.4791 -0.4574 -0.0395
 5536ntf    fn426333   4.109   3.480   1.309  0.8079  0.0813 -0.2682
 5536ntf    on526334   3.900   3.329   1.135  0.6868 -0.6370 -0.3674
 5536ntf    on526335   3.914   3.573   1.111 -0.1361 -0.2671  0.1301
 5536ntf    on526336   4.171   3.435   0.747 -0.8185 -0.1176 -0.1799
 5536ntf    on526337   4.075   3.638   0.850 -0.4172  0.1056  0.0556
 5536ntf    fn426338   3.878   3.355   0.698 -0.6601  0.0739  0.2730
 5536ntf    fn426339   3.818   3.537   0.771 -0.5595  0.0581  0.3236
 5536ntf    fn426340   3.933   3.538   0.597  0.0613 -0.1176  0.2900
 5537ntf    cn126341   6.855   2.439   5.866 -0.1272  0.2227  0.0314
 5537ntf    sn226342   6.951   2.388   5.720 -0.2718 -0.1742  0.0730
 5537ntf    nn326343   7.074   2.310   5.777 -0.0522  0.2672  0.2074
 5537ntf    sn226344   7.226   2.351   5.786  0.0222  0.0552 -0.0703
 5537ntf    cn126345   7.244   2.341   5.966  0.5439 -0.0026 -0.1256
 5537ntf    fn426346   6.740   2.492   5.827 -0.0053  0.5279  0.0872
 5537ntf    fn426347   6.823   2.339   5.947  0.1878 -0.1419 -0.2915
 5537ntf    fn426348   6.914   2.533   5.938  0.4227 -0.2425  0.1909
 5537ntf    on526349   6.858   2.306   5.645 -0.2336 -0.2558  0.1152
 5537ntf    on526350   6.975   2.513   5.652 -0.2619 -0.1425  0.1347
 5537ntf    on526351   7.256   2.488   5.752 -0.2003  0.1617  0.1604
 5537ntf    on526352   7.309   2.247   5.731 -0.0060 -0.0195  0.0279
 5537ntf    fn426353   7.344   2.407   6.023 -0.1086  1.1160 -0.2551
 5537ntf    fn426354   7.138   2.398   6.021  0.2483 -0.7996  0.1480
 5537ntf    fn426355   7.249   2.214   6.003  0.2815 -0.0526 -0.2663
 5538ntf    cn126356   5.527   6.285   4.843 -0.1466 -0.4368 -0.3480
 5538ntf    sn226357   5.630   6.149   4.906  0.2681 -0.0759 -0.2402
 5538ntf    nn326358   5.604   6.170   5.060  0.8204 -0.8422 -0.0383
 5538ntf    sn226359   5.692   6.247   5.164 -0.1252  0.1457  0.0537
 5538ntf    cn126360   5.562   6.322   5.267 -0.3793 -0.1318 -0.0615
 5538ntf    fn426361   5.519   6.390   4.924  0.3725 -0.2436 -0.5362
 5538ntf    fn426362   5.568   6.328   4.724  0.1544  0.1176 -0.0484
 5538ntf    fn426363   5.401   6.249   4.830 -0.1588 -0.6268  0.2839
 5538ntf    on526364   5.565   6.037   4.843 -0.6217  0.4993 -0.3740
 5538ntf    on526365   5.765   6.168   4.860  0.3019 -0.4014 -0.2738
 5538ntf    on526366   5.762   6.366   5.122  0.0314  0.1200  0.2373
 5538ntf    on526367   5.755   6.157   5.258 -0.3940 -0.2651 -0.1553
 5538ntf    fn426368   5.495   6.231   5.335 -0.1869 -0.0327  0.2624
 5538ntf    fn426369   5.602   6.404   5.363  0.2099  0.3276 -0.6807
 5538ntf    fn426370   5.474   6.385   5.190 -0.3112 -0.4687 -0.4151
 5539ntf    cn126371   4.829   3.191   0.452  0.1280 -0.1276  0.3484
 5539ntf    sn226372   4.972   3.272   0.530  0.3217 -0.2476  0.1160
 5539ntf    nn326373   5.050   3.146   0.582  0.5841 -0.1538 -0.0465
 5539ntf    sn226374   5.151   3.140   0.702  0.2143 -0.2004  0.2645
 5539ntf    cn126375   5.298   3.069   0.623  0.2190  0.3866 -0.2600
 5539ntf    fn426376   4.764   3.125   0.547 -0.0468 -0.0546  0.2806
 5539ntf    fn426377   4.744   3.283   0.408  0.3905 -0.0723 -0.0485
 5539ntf    fn426378   4.851   3.108   0.352  0.1948  0.2894  0.0120
 5539ntf    on526379   5.027   3.338   0.414  0.0167 -0.2572 -0.0361
 5539ntf    on526380   4.910   3.355   0.631  0.3002 -0.0453 -0.0618
 5539ntf    on526381   5.113   3.045   0.804  0.0772 -0.3228  0.1000
 5539ntf    on526382   5.191   3.270   0.750  0.1862 -0.2470  0.4153
 5539ntf    fn426383   5.287   2.937   0.626 -0.5137  0.4456 -0.2569
 5539ntf    fn426384   5.307   3.102   0.495  0.2437  0.0945 -0.3349
 5539ntf    fn426385   5.408   3.100   0.691 -0.0073  0.2272  0.1778
 5540ntf    cn126386   0.393   2.276   6.917 -0.1700  0.0104 -0.1247
 5540ntf    sn226387   0.376   2.100   6.961 -0.0582  0.0245 -0.0239
 5540ntf    nn326388   0.395   2.035   6.819  0.2861  0.1249 -0.0243
 5540ntf    sn226389   0.295   2.024   6.699  0.3106  0.0246 -0.0361
 5540ntf    cn126390   0.410   2.047   6.559  0.0944 -0.0431 -0.2256
 5540ntf    fn426391   0.279   2.331   6.876 -0.0854  0.0986 -0.2423
 5540ntf    fn426392   0.430   2.343   7.024 -0.2256 -0.2520  0.0601
 5540ntf    fn426393   0.476   2.309   6.820 -0.2389 -0.2257 -0.2661
 5540ntf    on526394   0.484   2.082   7.054  0.0278 -0.3663 -0.1983
 5540ntf    on526395   0.244   2.076   7.013 -0.0544 -0.0975 -0.0697
 5540ntf    on526396   0.212   2.142   6.689 -0.2451 -0.3784 -0.1959
 5540ntf    on526397   0.232   1.897   6.676  0.4165 -0.0540  0.1114
 5540ntf    fn426398   0.342   2.040   6.446  0.0135 -0.0025 -0.1804
 5540ntf    fn426399   0.466   2.167   6.564 -0.0736  0.0337 -0.1707
 5540ntf    fn426400   0.506   1.956   6.556 -0.2121 -0.3886  0.1575
 5541ntf    cn126401   5.529   3.986   3.331  0.2940 -0.0530 -0.0586
 5541ntf    sn226402   5.453   4.151   3.337 -0.3150 -0.3356  0.0407
 5541ntf    nn326403   5.336   4.148   3.232 -0.2126  0.0232 -0.0878
 5541ntf    sn226404   5.331   4.221   3.093 -0.1774  0.0308 -0.0846
 5541ntf    cn126405   5.288   4.388   3.149  0.1778 -0.1014  0.5968
 5541ntf    fn426406   5.457   3.897   3.396  0.2587 -0.1104 -0.1765
 5541ntf    fn426407   5.557   3.941   3.209 -0.1582  0.3472 -0.3121
 5541ntf    fn426408   5.644   3.986   3.397  0.0150  0.0333  0.4248
 5541ntf    on526409   5.404   4.172   3.471 -0.4794  0.0117 -0.0722
 5541ntf    on526410   5.558   4.242   3.298 -0.2345 -0.6329 -0.4469
 5541ntf    on526411   5.215   4.182   3.018 -0.0904 -0.2741 -0.0632
 5541ntf    on526412   5.452   4.224   3.014  0.0938 -0.1496  0.3171
 5541ntf    fn426413   5.283   4.479   3.053  0.1834 -0.6581  0.0614
 5541ntf    fn426414   5.172   4.387   3.213  0.0302  0.1021  0.3332
 5541ntf    fn426415   5.375   4.443   3.232  0.1246 -0.1374  0.6768
 5542ntf    cn126416   6.657   0.994   2.830  0.2184  0.3270 -0.2010
 5542ntf    sn226417   6.781   1.127   2.820  0.4143  0.1694  0.1308
 5542ntf    nn326418   6.686   1.248   2.853  0.0194 -0.1894  0.3296
 5542ntf    sn226419   6.655   1.329   2.984  0.5127 -0.0404  0.3574
 5542ntf    cn126420   6.753   1.478   2.950 -0.0001  0.1681 -0.2233
 5542ntf    fn426421   6.697   0.868   2.821  0.0172  0.2535 -0.0631
 5542ntf    fn426422   6.591   1.005   2.944 -0.6089  0.3208 -0.6737
 5542ntf    fn426423   6.570   1.016   2.732 -0.2123 -0.4232  0.0070
 5542ntf    on526424   6.880   1.107   2.923  0.1783  0.3079  0.3884
 5542ntf    on526425   6.825   1.124   2.683  0.3710 -0.3044  0.1271
 5542ntf    on526426   6.708   1.275   3.107  0.3496  0.1169  0.4969
 5542ntf    on526427   6.523   1.387   2.981  0.2521 -0.6309  0.2567
 5542ntf    fn426428   6.702   1.557   2.857 -0.5338  0.3311  0.2073
 5542ntf    fn426429   6.781   1.548   3.058 -0.3639  0.0196 -0.0311
 5542ntf    fn426430   6.870   1.440   2.900  0.3239  1.1037 -0.1885
 5543ntf    cn126431   1.324   0.140   0.931  0.0127  0.1633 -0.1336
 5543ntf    sn226432   1.324   0.205   0.761  0.0194  0.2164 -0.1131
 5543ntf    nn326433   1.349   0.075   0.677 -0.1418 -0.0903  0.3109
 5543ntf    sn226434   1.240  -0.037   0.657 -0.3249  0.1413  0.0070
 5543ntf    cn126435   1.247  -0.067   0.478  0.0082 -0.0275  0.0472
 5543ntf    fn426436   1.209   0.082   0.959 -0.0375  0.2578 -0.1464
 5543ntf    fn426437   1.411   0.040   0.943  0.3889  0.3776 -0.9827
 5543ntf    fn426438   1.349   0.233   1.022 -0.3326  0.0302  0.0970
 5543ntf    on526439   1.197   0.272   0.746 -0.4315 -0.4618  0.5639
 5543ntf    on526440   1.441   0.290   0.759  0.0775  0.1399  0.0009
 5543ntf    on526441   1.103  -0.002   0.685 -0.2211 -0.0446  0.7662
 5543ntf    on526442   1.286  -0.166   0.702 -0.3956 -0.0413 -0.4427
 5543ntf    fn426443   1.152  -0.149   0.435 -0.0999  0.0100  0.2146
 5543ntf    fn426444   1.219   0.047   0.417  0.3875 -0.2313 -0.5225
 5543ntf    fn426445   1.361  -0.112   0.428  0.0973  0.0745  0.1574
 5544ntf    cn126446   5.327   2.213   6.573 -0.0915 -0.2603 -0.3895
 5544ntf    sn226447   5.256   2.068   6.656  0.0556 -0.3146 -0.3583
 5544ntf    nn326448   5.188   1.991   6.537 -0.1023 -0.1059 -0.4041
 5544ntf    sn226449   5.036   1.989   6.497 -0.1904  0.3299 -0.0965
 5544ntf    cn126450   5.050   2.000   6.316  0.1534  0.2073 -0.0777
 5544ntf    fn426451   5.366   2.301   6.663 -0.3640 -0.4023 -0.1302
 5544ntf    fn426452   5.430   2.179   6.497  0.1245  0.1910 -0.3017
 5544ntf    fn426453   5.239   2.270   6.492 -0.0120 -0.5782 -0.7032
 5544ntf    on526454   5.373   1.993   6.694  0.4494  0.3737 -0.2085
 5544ntf    on526455   5.169   2.111   6.762  0.7041 -0.2368  0.1465
 5544ntf    on526456   4.959   2.106   6.529  0.0665  0.5353 -0.2196
 5544ntf    on526457   4.973   1.862   6.521 -0.2176  0.2502 -0.5631
 5544ntf    fn426458   5.096   2.117   6.276  0.1139  0.2005 -0.1448
 5544ntf    fn426459   5.122   1.904   6.260 -0.1998  0.0297 -0.2345
 5544ntf    fn426460   4.929   1.992   6.263  0.1966 -0.1017 -0.1342
 5545ntf    cn126461   0.239   4.555   4.052 -0.1426 -0.0861  0.0792
 5545ntf    sn226462   0.123   4.680   3.991 -0.1821 -0.2180 -0.1193
 5545ntf    nn326463   0.191   4.805   4.058  0.4331 -0.7962  0.3379
 5545ntf    sn226464   0.299   4.899   3.994 -0.3333 -0.0102  0.1804
 5545ntf    cn126465   0.188   5.030   3.935 -0.1489  0.0534 -0.0250
 5545ntf    fn426466   0.212   4.435   4.003  0.5763 -0.2705  0.1196
 5545ntf    fn426467   0.354   4.592   3.997 -0.0906 -0.3737 -0.0087
 5545ntf    fn426468   0.254   4.547   4.183  0.3361 -0.2716  0.0160
 5545ntf    on526469   0.130   4.667   3.847 -0.2937 -0.6174 -0.0899
 5545ntf    on526470  -0.002   4.649   4.057  0.0127  0.1443  0.4276
 5545ntf    on526471   0.371   4.843   3.882 -0.3237 -0.2678  0.3138
 5545ntf    on526472   0.387   4.959   4.093 -0.1860  0.0298  0.0259
 5545ntf    fn426473   0.127   5.093   4.033 -0.6946 -0.1869 -0.2060
 5545ntf    fn426474   0.253   5.121   3.865  0.5139 -0.2591  0.1782
 5545ntf    fn426475   0.095   4.985   3.853  0.0788 -0.2658 -0.1116
 5546ntf    cn126476   5.314   6.723   5.980  0.2474  0.0222 -0.2778
 5546ntf    sn226477   5.183   6.714   5.855  0.0567  0.2718 -0.0959
 5546ntf    nn326478   5.254   6.619   5.752  0.0878  0.2840 -0.0847
 5546ntf    sn226479   5.217   6.476   5.700 -0.0023  0.1104  0.4506
 5546ntf    cn126480   5.261   6.485   5.524 -0.2198 -0.3807  0.3695
 5546ntf    fn426481   5.271   6.776   6.093 -0.0351 -0.1430 -0.3071
 5546ntf    fn426482   5.364   6.606   6.016 -0.0185  0.0470  0.1778
 5546ntf    fn426483   5.419   6.794   5.941  0.0287  0.4972 -0.0074
 5546ntf    on526484   5.081   6.652   5.936  0.0835  0.5665  0.1634
 5546ntf    on526485   5.173   6.850   5.809 -0.1043  0.4051  0.3315
 5546ntf    on526486   5.077   6.439   5.697 -0.0121  0.1889 -0.1655
 5546ntf    on526487   5.305   6.375   5.753  0.6393 -0.0893 -0.9413
 5546ntf    fn426488   5.235   6.383   5.443  0.6359 -0.4378  0.1561
 5546ntf    fn426489   5.205   6.591   5.468  0.3709 -0.3498 -0.1767
 5546ntf    fn426490   5.392   6.500   5.513 -0.2359 -0.1205  0.5263
 5547ntf    cn126491   3.321   3.414   6.499 -0.2243 -0.3484  0.1063
 5547ntf    sn226492   3.472   3.499   6.445 -0.4945 -0.0447 -0.1785
 5547ntf    nn326493   3.525   3.575   6.572  0.3099 -0.3409 -0.3282
 5547ntf    sn226494   3.635   3.527   6.673 -0.1371 -0.1487  0.2535
 5547ntf    cn126495   3.535   3.481   6.818 -0.2685 -0.6372  0.0121
 5547ntf    fn426496   3.344   3.317   6.586 -0.2287 -0.6226 -0.1988
 5547ntf    fn426497   3.236   3.495   6.561  0.3638  0.3425  0.0305
 5547ntf    fn426498   3.256   3.368   6.394 -0.2864  0.2158 -0.1087
 5547ntf    on526499   3.550   3.384   6.404 -0.3053  0.2361 -0.6185
 5547ntf    on526500   3.414   3.583   6.343 -0.7700 -0.1695 -0.1242
 5547ntf    on526501   3.710   3.638   6.725 -0.0873 -0.0502 -0.0280
 5547ntf    on526502   3.714   3.412   6.638  0.0034  0.1181 -0.3069
 5547ntf    fn426503   3.510   3.589   6.890  0.3253 -0.5130  0.0423
 5547ntf    fn426504   3.418   3.425   6.793 -0.5822  0.2015 -0.4253
 5547ntf    fn426505   3.596   3.401   6.904 -0.0326 -0.0252  0.4248
 5548ntf    cn126506   0.040   2.446   7.322  0.1786 -0.0763 -0.0918
 5548ntf    sn226507  -0.050   2.456   7.479  0.0927 -0.0766 -0.1414
 5548ntf    nn326508  -0.189   2.511   7.430  0.3210  0.3328 -0.3266
 5548ntf    sn226509  -0.329   2.444   7.454  0.5101  0.0144 -0.1007
 5548ntf    cn126510  -0.421   2.600   7.437 -0.1491 -0.3375  0.2327
 5548ntf    fn426511   0.012   2.335   7.256  0.4376 -0.0354 -0.2706
 5548ntf    fn426512   0.005   2.551   7.249  0.1820  0.0697  0.1157
 5548ntf    fn426513   0.172   2.452   7.329  0.1969 -0.0074 -0.4504
 5548ntf    on526514  -0.050   2.324   7.539  0.1638  0.0269  0.0886
 5548ntf    on526515   0.025   2.554   7.553  0.0554  0.1505 -0.4032
 5548ntf    on526516  -0.361   2.402   7.589  0.4941 -0.5925 -0.2905
 5548ntf    on526517  -0.362   2.360   7.342 -0.0650 -0.2045  0.2277
 5548ntf    fn426518  -0.359   2.691   7.510  0.3669 -0.5637  0.0808
 5548ntf    fn426519  -0.426   2.648   7.314  0.5268 -0.0255  0.3204
 5548ntf    fn426520  -0.548   2.589   7.475 -0.1969  0.4121  0.3133
 5549ntf    cn126521   5.125   7.394   3.098 -0.0240 -0.3563 -0.3466
 5549ntf    sn226522   5.272   7.286   3.094  0.1574 -0.1231 -0.0174
 5549ntf    nn326523   5.366   7.398   3.036  0.4578 -0.1320  0.4491
 5549ntf    sn226524   5.438   7.513   3.115  0.2332  0.0775  0.3512
 5549ntf    cn126525   5.501   7.602   2.970  0.0885 -0.1745  0.1326
 5549ntf    fn426526   5.112   7.459   2.984  0.1793 -0.1209 -0.2361
 5549ntf    fn426527   5.016   7.319   3.103  0.0273 -0.4124 -0.0372
 5549ntf    fn426528   5.126   7.474   3.203 -0.3608  0.2524 -0.8018
 5549ntf    on526529   5.291   7.243   3.230  0.4169 -0.5334 -0.1832
 5549ntf    on526530   5.238   7.184   2.998  0.1594 -0.2486  0.1147
 5549ntf    on526531   5.562   7.472   3.175  0.3642  0.1587  0.1358
 5549ntf    on526532   5.357   7.605   3.191  0.0846  0.4485 -0.2491
 5549ntf    fn426533   5.412   7.614   2.872 -0.0403  0.0712  0.2789
 5549ntf    fn426534   5.551   7.722   2.994 -0.8144  0.3226 -0.4222
 5549ntf    fn426535   5.602   7.537   2.916  0.0335  0.2974 -0.5501
 5550ntf    cn126536   0.188   6.061   1.075  0.5177 -0.1414 -0.1234
 5550ntf    sn226537   0.158   5.910   0.979  0.1520 -0.3865  0.3722
 5550ntf    nn326538   0.296   5.835   0.987  0.1424 -0.3915  0.4921
 5550ntf    sn226539   0.352   5.730   0.885  0.2725  0.0191  0.1388
 5550ntf    cn126540   0.464   5.832   0.784 -0.2474  0.1821 -0.2736
 5550ntf    fn426541   0.246   6.035   1.191  0.6551 -0.0917 -0.1808
 5550ntf    fn426542   0.271   6.143   1.012  0.1835  0.2426 -0.0724
 5550ntf    fn426543   0.077   6.123   1.112  0.2845 -0.8683  0.4187
 5550ntf    on526544   0.051   5.847   1.052 -0.3416 -0.2315 -0.2137
 5550ntf    on526545   0.128   5.965   0.849  0.2429  0.0213  0.5235
 5550ntf    on526546   0.264   5.670   0.788  0.1619 -0.3535  0.4691
 5550ntf    on526547   0.441   5.636   0.948 -0.1048 -0.5280 -0.1394
 5550ntf    fn426548   0.393   5.921   0.716 -0.3192  0.3035 -0.0392
 5550ntf    fn426549   0.560   5.896   0.848  0.0086 -0.2587 -0.2186
 5550ntf    fn426550   0.522   5.764   0.687 -0.0120 -0.0593  0.0358
 5551ntf    cn126551   7.046   0.239   0.486 -0.0189  0.0468 -0.2607
 5551ntf    sn226552   6.911   0.351   0.534  0.1609  0.1941 -0.0947
 5551ntf    nn326553   6.788   0.256   0.554  0.2968  0.1496  0.5435
 5551ntf    sn226554   6.731   0.223   0.697  0.0324 -0.4601  0.3030
 5551ntf    cn126555   6.654   0.061   0.668 -0.1586 -0.3191  0.0199
 5551ntf    fn426556   7.067   0.151   0.582 -0.6410  0.2003  0.0251
 5551ntf    fn426557   7.020   0.161   0.383  0.5107 -0.2185 -0.1964
 5551ntf    fn426558   7.153   0.313   0.461 -0.0573  0.0238 -0.4954
 5551ntf    on526559   6.963   0.427   0.645  0.6815  0.1847 -0.3293
 5551ntf    on526560   6.884   0.424   0.413 -0.6659 -0.3414 -0.2427
 5551ntf    on526561   6.622   0.310   0.736  0.2482 -0.2971  0.5474
 5551ntf    on526562   6.825   0.191   0.802  0.3579 -0.3124  0.0586
 5551ntf    fn426563   6.747  -0.032   0.661  0.2892  0.1352 -0.1173
 5551ntf    fn426564   6.567   0.023   0.760  0.0769  0.3542  0.5270
 5551ntf    fn426565   6.589   0.053   0.552  0.4305 -0.0089 -0.3344
 5552ntf    cn126566   4.707   5.856   3.482  0.4261 -0.0247 -0.4383
 5552ntf    sn226567   4.845   5.970   3.453  0.1702  0.3884 -0.0458
 5552ntf    nn326568   4.914   5.969   3.594 -0.0815 -0.5578  0.0734
 5552ntf    sn226569   5.069   5.980   3.616 -0.1285 -0.1782  0.2104
 5552ntf    cn126570   5.125   6.107   3.498  0.3999 -0.3962  0.2235
 5552ntf    fn426571   4.611   5.909   3.557  0.4729 -0.1797 -0.2696
 5552ntf    fn426572   4.644   5.841   3.367  0.3266  0.2737 -0.4228
 5552ntf    fn426573   4.739   5.740   3.538  0.7078  0.2928  0.0658
 5552ntf    on526574   4.912   5.900   3.347 -0.1085 -0.5729  0.4046
 5552ntf    on526575   4.775   6.092   3.420 -0.4557  0.0157 -0.1148
 5552ntf    on526576   5.152   5.869   3.576  0.0963  0.2188 -0.4338
 5552ntf    on526577   5.102   6.053   3.736  0.1144  0.7947 -0.4292
 5552ntf    fn426578   5.041   6.208   3.512  0.2195 -0.4898 -0.1594
 5552ntf    fn426579   5.247   6.152   3.520  0.2206  0.3607 -0.3035
 5552ntf    fn426580   5.119   6.065   3.372 -0.1749  0.3508 -0.0051
 5553ntf    cn126581   6.079   6.906   3.047  0.1751  0.0468  0.0441
 5553ntf    sn226582   6.104   6.914   3.227  0.1793  0.0399  0.0438
 5553ntf    nn326583   6.186   6.782   3.251 -0.6098 -0.4064  0.3095
 5553ntf    sn226584   6.304   6.768   3.353 -0.1258 -0.0581 -0.2000
 5553ntf    cn126585   6.448   6.789   3.243 -0.2005  0.1183 -0.2649
 5553ntf    fn426586   6.191   6.893   2.978  0.0369  0.0627 -0.1862
 5553ntf    fn426587   6.004   6.799   3.024  0.6925 -0.1277 -0.8945
 5553ntf    fn426588   6.011   7.007   2.997  0.1906  0.2222  0.3753
 5553ntf    on526589   6.178   7.037   3.240  0.1830  0.0909 -0.4149
 5553ntf    on526590   5.968   6.913   3.274 -0.0218 -0.0916 -0.5356
 5553ntf    on526591   6.308   6.633   3.403 -0.2766  0.0226  0.0290
 5553ntf    on526592   6.322   6.873   3.450  0.2651 -0.2470 -0.0666
 5553ntf    fn426593   6.566   6.793   3.303 -0.4485  0.3173  0.2132
 5553ntf    fn426594   6.464   6.690   3.157  0.5321 -0.2100  0.2307
 5553ntf    fn426595   6.445   6.905   3.180  0.3267 -0.1442 -0.7796
 5554ntf    cn126596   5.643   1.626   3.431 -0.0435 -0.0801  0.1020
 5554ntf    sn226597   5.727   1.646   3.591 -0.1548 -0.2664  0.1836
 5554ntf    nn326598   5.700   1.500   3.645 -0.0873 -0.0976  0.6813
 5554ntf    sn226599   5.578   1.446   3.727 -0.2353 -0.3647  0.2853
 5554ntf    cn126600   5.648   1.457   3.894 -0.2262 -0.0242  0.2606
 5554ntf    fn426601   5.511   1.619   3.438 -0.0327 -0.1037  0.2982
 5554ntf    fn426602   5.672   1.727   3.352  0.3882  0.0224  0.3847
 5554ntf    fn426603   5.684   1.517   3.368  0.1111  0.0195  0.0286
 5554ntf    on526604   5.865   1.652   3.549 -0.1936 -0.2849  0.0536
 5554ntf    on526605   5.659   1.746   3.669  0.0521  0.0056  0.0166
 5554ntf    on526606   5.561   1.305   3.699 -0.2312 -0.2879 -0.1135
 5554ntf    on526607   5.458   1.527   3.722  0.1240  0.1274 -0.5770
 5554ntf    fn426608   5.767   1.398   3.899  0.0469  0.4880 -0.0881
 5554ntf    fn426609   5.670   1.581   3.933 -0.4855  0.0864  0.0571
 5554ntf    fn426610   5.563   1.397   3.976 -0.4226 -0.1185 -0.0106
 5555ntf    cn126611   3.090   3.176   4.668 -0.2010  0.1433 -0.1743
 5555ntf    sn226612   3.050   3.339   4.597 -0.3679  0.0120 -0.3834
 5555ntf    nn326613   2.919   3.375   4.675 -0.0780  0.1977  0.0197
 5555ntf    sn226614   2.769   3.360   4.631 -0.0127 -0.2233 -0.0682
 5555ntf    cn126615   2.701   3.368   4.800 -0.0412  0.0359 -0.0907
 5555ntf    fn426616   2.999   3.083   4.641 -0.0144 -0.1543  0.2224
 5555ntf    fn426617   3.208   3.130   4.630 -0.1797 -0.1360  0.2256
 5555ntf    fn426618   3.091   3.177   4.800 -0.2783  0.4907 -0.1752
 5555ntf    on526619   3.165   3.411   4.646 -0.4394  0.2133 -0.5106
 5555ntf    on526620   3.032   3.325   4.455 -0.3446  0.1452 -0.3995
 5555ntf    on526621   2.738   3.226   4.589 -0.4271 -0.0327 -0.3829
 5555ntf    on526622   2.703   3.467   4.559  0.1692  0.0693  0.1924
 5555ntf    fn426623   2.734   3.478   4.865 -0.1655 -0.1623  0.3089
 5555ntf    fn426624   2.569   3.360   4.803 -0.0443  0.1432  0.0608
 5555ntf    fn426625   2.748   3.265   4.868 -0.0704 -0.2323 -0.4749
 5556ntf    cn126626   3.987   4.644   7.147 -0.4802 -0.3947 -0.2069
 5556ntf    sn226627   3.881   4.574   7.276 -0.3091  0.1744  0.2502
 5556ntf    nn326628   3.974   4.609   7.397  0.2429 -0.2302 -0.0510
 5556ntf    sn226629   3.949   4.713   7.513 -0.3572 -0.1883 -0.2137
 5556ntf    cn126630   3.930   4.600   7.654 -0.3730  0.1834  0.0824
 5556ntf    fn426631   4.112   4.603   7.163 -0.3300  0.1923  0.1501
 5556ntf    fn426632   3.955   4.612   7.023  0.1997 -0.0773 -0.4751
 5556ntf    fn426633   3.994   4.776   7.146 -0.0667 -0.4141 -0.4138
 5556ntf    on526634   3.756   4.644   7.255 -0.3346  0.2155  0.5374
 5556ntf    on526635   3.888   4.433   7.244  0.5035  0.1525  0.4997
 5556ntf    on526636   3.824   4.784   7.509 -0.1550  0.1459 -0.7863
 5556ntf    on526637   4.063   4.795   7.544 -0.0124 -0.7969  0.1546
 5556ntf    fn426638   3.840   4.506   7.630 -0.0701 -0.0398 -0.1882
 5556ntf    fn426639   4.047   4.544   7.678 -0.4217  0.0538  0.0165
 5556ntf    fn426640   3.899   4.658   7.769  0.2255 -0.2425  0.4641
 5557ntf    cn126641   7.290   7.116   0.129 -0.6069 -0.7330 -0.0324
 5557ntf    sn226642   7.136   7.122   0.034 -0.6695 -0.0346  0.1081
 5557ntf    nn326643   7.109   7.276   0.046  0.4704  0.1870 -0.1256
 5557ntf    sn226644   7.026   7.370  -0.048  0.1316 -0.0572 -0.0703
 5557ntf    cn126645   6.875   7.395   0.050  0.2352  0.1661  0.0327
 5557ntf    fn426646   7.264   7.119   0.259 -0.2467  0.4457  0.0173
 5557ntf    fn426647   7.359   7.005   0.109  0.1005 -0.2301 -0.4131
 5557ntf    fn426648   7.370   7.218   0.106 -0.7823 -0.5239  0.2781
 5557ntf    on526649   7.168   7.076  -0.099  0.2227  0.9716 -0.0342
 5557ntf    on526650   7.039   7.040   0.103 -0.7360  0.0189  0.0780
 5557ntf    on526651   6.979   7.315  -0.173  0.1201  0.0118 -0.0970
 5557ntf    on526652   7.085   7.501  -0.055  0.0753 -0.0359 -0.1466
 5557ntf    fn426653   6.803   7.285   0.060  0.2063  0.2420  0.6999
 5557ntf    fn426654   6.903   7.421   0.177 -0.0339 -0.1315  0.1545
 5557ntf    fn426655   6.798   7.497   0.013  0.1293  0.0491 -0.0713
 5558ntf    cn126656   3.996   5.167   3.999 -0.3445 -0.0440  0.3091
 5558ntf    sn226657   4.069   5.327   4.047 -0.1609 -0.0585  0.0787
 5558ntf    nn326658   4.155   5.344   3.917 -0.3161 -0.0841 -0.0294
 5558ntf    sn226659   4.137   5.423   3.783  0.4094  0.1136 -0.0178
 5558ntf    cn126660   4.254   5.560   3.806 -0.1040  0.5304  0.1125
 5558ntf    fn426661   3.906   5.134   4.090 -0.5566  0.2010  0.1888
 5558ntf    fn426662   3.933   5.165   3.883 -0.3340  0.0033  0.3020
 5558ntf    fn426663   4.082   5.067   4.005  0.4575  0.6001 -0.1712
 5558ntf    on526664   3.957   5.417   4.063  0.2869  0.5434 -0.1345
 5558ntf    on526665   4.146   5.296   4.164 -0.1156  0.1836  0.1132
 5558ntf    on526666   4.007   5.480   3.757  0.7079  0.5240 -0.6414
 5558ntf    on526667   4.191   5.354   3.668  0.0364  0.0220 -0.1402
 5558ntf    fn426668   4.210   5.658   3.883 -0.4970  0.3970  0.0606
 5558ntf    fn426669   4.365   5.508   3.854 -0.1435 -0.0045 -0.3634
 5558ntf    fn426670   4.282   5.619   3.690  0.4146 -0.2249 -0.1523
 5559ntf    cn126671   5.943   3.557   1.511  0.0489  0.1198 -0.3509
 5559ntf    sn226672   5.898   3.730   1.480  0.1503  0.2300  0.1064
 5559ntf    nn326673   6.001   3.803   1.573  0.3533  0.2047 -0.0970
 5559ntf    sn226674   6.155   3.827   1.552  0.3461  0.4961  0.1622
 5559ntf    cn126675   6.146   4.008   1.547 -0.1151  0.4768  0.2154
 5559ntf    fn426676   5.851   3.480   1.455 -0.0905  0.0480 -0.0277
 5559ntf    fn426677   6.061   3.527   1.459  0.2442 -0.2437  0.2828
 5559ntf    fn426678   5.947   3.530   1.641 -0.0801  0.7885 -0.2041
 5559ntf    on526679   5.924   3.731   1.338  0.3095 -0.0139  0.1335
 5559ntf    on526680   5.760   3.735   1.521  0.1269 -0.3317  0.1018
 5559ntf    on526681   6.208   3.787   1.424  0.2963  0.0351  0.2804
 5559ntf    on526682   6.231   3.788   1.668 -0.6102 -0.8635  0.3673
 5559ntf    fn426683   6.055   4.059   1.466 -0.1121  0.1309 -0.0094
 5559ntf    fn426684   6.109   4.053   1.665 -0.0519  0.0643  0.3939
 5559ntf    fn426685   6.258   4.074   1.519  0.2358 -0.0395  0.3950
 5560ntf    cn126686   4.171   1.302   7.464  0.4384  0.3205  0.3441
 5560ntf    sn226687   4.097   1.402   7.332 -0.0691 -0.1629  0.2625
 5560ntf    nn326688   4.035   1.512   7.424  0.5142 -0.1112  0.5947
 5560ntf    sn226689   4.108   1.643   7.474  0.1000  0.2738  0.1951
 5560ntf    cn126690   4.054   1.629   7.647  0.1013  0.0798  0.1803
 5560ntf    fn426691   4.081   1.272   7.556  0.0144 -0.3044 -0.2713
 5560ntf    fn426692   4.208   1.186   7.413  0.0668  0.1701  0.4150
 5560ntf    fn426693   4.276   1.359   7.523  0.6021  0.3453  0.0295
 5560ntf    on526694   4.208   1.452   7.254 -0.0689 -0.2131  0.2306
 5560ntf    on526695   3.990   1.327   7.270  0.2784 -0.1011 -0.4196
 5560ntf    on526696   4.044   1.761   7.422  0.3749  0.1168 -0.5185
 5560ntf    on526697   4.252   1.636   7.478  0.1067  0.3925  0.1487
 5560ntf    fn426698   4.114   1.527   7.707  0.0818  0.2261  0.4485
 5560ntf    fn426699   4.085   1.739   7.713  0.5855  0.2092 -0.2495
 5560ntf    fn426700   3.925   1.603   7.663 -0.0281  0.7604  0.2604
 5561ntf    cn126701   1.319   0.520   2.085  0.1162 -0.0699 -0.1382
 5561ntf    sn226702   1.375   0.690   2.117  0.1783 -0.1210  0.0278
 5561ntf    nn326703   1.366   0.685   2.273  0.1658  0.2216  0.0387
 5561ntf    sn226704   1.470   0.692   2.391  0.0799  0.0842  0.1234
 5561ntf    cn126705   1.373   0.795   2.506 -0.1921  0.0888 -0.1097
 5561ntf    fn426706   1.299   0.500   1.956 -0.2315  0.2195 -0.1301
 5561ntf    fn426707   1.402   0.423   2.119 -0.0939 -0.2929 -0.2562
 5561ntf    fn426708   1.206   0.488   2.146  0.3783 -0.2199  0.2685
 5561ntf    on526709   1.511   0.683   2.070  0.3549 -0.0429  0.5283
 5561ntf    on526710   1.283   0.777   2.047  0.1652 -0.0199  0.1701
 5561ntf    on526711   1.591   0.765   2.362  0.3313 -0.4207 -0.1098
 5561ntf    on526712   1.481   0.564   2.455  1.0988  0.4052  0.6135
 5561ntf    fn426713   1.435   0.824   2.619  0.0012  0.2576 -0.2590
 5561ntf    fn426714   1.351   0.912   2.449  0.5362  0.2587 -0.0596
 5561ntf    fn426715   1.257   0.741   2.539  0.2463 -0.6161  0.3090
 5562ntf    cn126716   2.151   1.618   0.112 -0.3778  0.0863  0.0407
 5562ntf    sn226717   2.102   1.751   0.225 -0.2358  0.1284  0.0532
 5562ntf    nn326718   2.219   1.724   0.326  0.0011 -0.0604 -0.2715
 5562ntf    sn226719   2.347   1.810   0.355 -0.3005  0.2730  0.0804
 5562ntf    cn126720   2.460   1.689   0.429 -0.3375  0.1462 -0.0691
 5562ntf    fn426721   2.067   1.609   0.010 -0.8385 -0.1914  0.4379
 5562ntf    fn426722   2.271   1.640   0.061 -0.1460  0.0763  0.5770
 5562ntf    fn426723   2.156   1.499   0.169 -0.0331 -0.0451 -0.2627
 5562ntf    on526724   2.108   1.872   0.147  0.1265 -0.0282 -0.1593
 5562ntf    on526725   1.974   1.709   0.277  0.0182 -0.1860  0.4374
 5562ntf    on526726   2.317   1.908   0.456 -0.1450  0.4511 -0.0458
 5562ntf    on526727   2.419   1.851   0.237 -0.2697  0.4181  0.1493
 5562ntf    fn426728   2.538   1.633   0.338  0.0941  0.5611  0.0375
 5562ntf    fn426729   2.536   1.737   0.526 -0.4292 -0.4090  0.2761
 5562ntf    fn426730   2.397   1.590   0.488  0.0758 -0.1658 -0.1496
 5563ntf    cn126731   1.230   6.211   6.834  0.3726  0.0039  0.0377
 5563ntf    sn226732   1.252   6.077   6.954  0.2897 -0.0031  0.0450
 5563ntf    nn326733   1.123   6.107   7.039  0.1774 -0.0404 -0.1097
 5563ntf    sn226734   1.036   6.008   7.125  0.0370  0.2704  0.1049
 5563ntf    cn126735   1.058   6.076   7.293  0.0746 -0.2023  0.2914
 5563ntf    fn426736   1.188   6.320   6.896  0.0749 -0.0226 -0.1166
 5563ntf    fn426737   1.342   6.243   6.770  0.5358 -0.3768  0.1343
 5563ntf    fn426738   1.146   6.185   6.735  0.3510 -0.5451  0.1981
 5563ntf    on526739   1.248   5.948   6.889 -0.1949  0.2994 -0.5279
 5563ntf    on526740   1.373   6.114   7.023 -0.1268  0.0049  0.7836
 5563ntf    on526741   1.088   5.875   7.140 -0.0254  0.2234 -0.0961
 5563ntf    on526742   0.893   6.012   7.110  0.0604  0.0247 -0.1826
 5563ntf    fn426743   1.185   6.074   7.330  0.3732 -0.2886 -0.7025
 5563ntf    fn426744   1.032   6.205   7.298  0.3405 -0.1595  0.6236
 5563ntf    fn426745   0.983   6.018   7.386 -0.4542  0.2125  0.1305
 5564ntf    cn126746   6.916   5.433   3.371  0.1148 -0.0794 -0.1480
 5564ntf    sn226747   6.765   5.503   3.446  0.0017 -0.3519 -0.1198
 5564ntf    nn326748   6.658   5.454   3.342 -0.6739 -0.0037  0.4038
 5564ntf    sn226749   6.604   5.310   3.313  0.1369 -0.2164 -0.0784
 5564ntf    cn126750   6.447   5.326   3.403  0.3093 -0.0757  0.1979
 5564ntf    fn426751   7.004   5.392   3.461 -0.1762  0.4103  0.3696
 5564ntf    fn426752   6.877   5.327   3.302 -0.0092 -0.1771  0.0685
 5564ntf    fn426753   6.977   5.510   3.283  0.2391 -0.2060 -0.1721
 5564ntf    on526754   6.759   5.442   3.577  0.0102 -0.0313  0.0305
 5564ntf    on526755   6.788   5.645   3.450  0.0294 -0.3559 -0.1442
 5564ntf    on526756   6.669   5.202   3.383  0.4176  0.1022  0.1549
 5564ntf    on526757   6.574   5.291   3.173 -0.1872 -0.0230 -0.0343
 5564ntf    fn426758   6.370   5.219   3.414  0.3829 -0.1178  0.3074
 5564ntf    fn426759   6.456   5.367   3.529 -1.1338 -0.6217  0.5055
 5564ntf    fn426760   6.366   5.412   3.345  0.1156 -0.1716  0.3246
 5565ntf    cn126761   4.568   2.090   3.557  0.0993  0.0182 -0.2551
 5565ntf    sn226762   4.621   2.066   3.384  0.1543  0.1262 -0.2530
 5565ntf    nn326763   4.571   2.197   3.314 -0.8187 -0.1749 -0.1409
 5565ntf    sn226764   4.648   2.333   3.290 -0.4573 -0.2890  0.3640
 5565ntf    cn126765   4.669   2.398   3.459 -0.1692  0.2883  0.1057
 5565ntf    fn426766   4.585   1.978   3.625 -0.4771 -0.0278 -0.1853
 5565ntf    fn426767   4.631   2.182   3.628 -0.2389  0.1333 -0.1015
 5565ntf    fn426768   4.439   2.121   3.551  0.1222 -0.0159 -1.0280
 5565ntf    on526769   4.764   2.046   3.386  0.0838 -0.3717 -0.1165
 5565ntf    on526770   4.532   1.960   3.345 -0.0285  0.2816 -0.2597
 5565ntf    on526771   4.561   2.434   3.235 -0.0731 -0.3997 -0.4570
 5565ntf    on526772   4.780   2.317   3.235 -0.6087 -0.3876  0.0292
 5565ntf    fn426773   4.697   2.527   3.470 -0.1956  0.2810  0.2602
 5565ntf    fn426774   4.559   2.378   3.530 -0.2107  0.2209  0.0235
 5565ntf    fn426775   4.767   2.332   3.518 -0.1525 -0.1080 -0.3547
 5566ntf    cn126776   4.476   2.847   1.029 -0.2747 -0.0249  0.0849
 5566ntf    sn226777   4.435   2.690   1.112  0.1208 -0.0231  0.2875
 5566ntf    nn326778   4.284   2.717   1.148  0.0143  0.0002 -0.1656
 5566ntf    sn226779   4.217   2.728   1.289  0.0449  0.2628 -0.1711
 5566ntf    cn126780   4.168   2.903   1.280  0.0802  0.2764 -0.1024
 5566ntf    fn426781   4.380   2.878   0.943 -0.1633  0.1813  0.0355
 5566ntf    fn426782   4.468   2.946   1.116 -0.3434 -0.0593  0.1183
 5566ntf    fn426783   4.598   2.847   0.978 -0.1951  0.6752  0.2774
 5566ntf    on526784   4.449   2.593   1.005  0.0720  0.3027 -0.0162
 5566ntf    on526785   4.536   2.691   1.214  0.3584 -0.3389  0.0601
 5566ntf    on526786   4.303   2.709   1.403  0.2995  0.2212 -0.3695
 5566ntf    on526787   4.089   2.661   1.286  0.0986  0.1690 -0.3599
 5566ntf    fn426788   4.261   2.997   1.279  0.0803  0.2836  0.3461
 5566ntf    fn426789   4.099   2.928   1.170 -0.1162 -0.3136 -0.1189
 5566ntf    fn426790   4.103   2.927   1.394  0.6709  0.5279  0.1856
 5567ntf    cn126791   5.047   6.725   6.465 -0.1070  0.0602  0.5083
 5567ntf    sn226792   5.094   6.715   6.640  0.2224  0.0424  0.4182
 5567ntf    nn326793   5.194   6.596   6.621 -0.3088 -0.3336 -0.0361
 5567ntf    sn226794   5.265   6.513   6.734  0.0219  0.1919  0.1425
 5567ntf    cn126795   5.433   6.583   6.742  0.0345  0.1472  0.2699
 5567ntf    fn426796   4.983   6.839   6.440 -0.7648 -0.4425 -0.1515
 5567ntf    fn426797   5.150   6.732   6.383 -0.5422 -0.0019 -0.0566
 5567ntf    fn426798   4.965   6.629   6.425 -0.4853  0.3081  0.6744
 5567ntf    on526799   5.152   6.845   6.666  0.1772  0.1910 -0.1982
 5567ntf    on526800   4.968   6.690   6.706 -0.2750  0.1116 -0.4931
 5567ntf    on526801   5.292   6.376   6.699 -0.8488  0.1081 -0.2305
 5567ntf    on526802   5.210   6.540   6.865  0.1025 -0.0723  0.2316
 5567ntf    fn426803   5.498   6.563   6.629 -0.0707 -0.1217  0.2559
 5567ntf    fn426804   5.438   6.714   6.757  0.0452  0.1502  0.2399
 5567ntf    fn426805   5.507   6.529   6.837 -0.4409 -0.4657  0.2959
 5568ntf    cn126806   6.151   3.432   6.482  0.1267  0.1641  0.2387
 5568ntf    sn226807   6.029   3.551   6.545 -0.1153 -0.0569  0.1875
 5568ntf    nn326808   5.945   3.573   6.414 -0.2918 -0.2679  0.2636
 5568ntf    sn226809   5.839   3.685   6.383  0.0180  0.0566  0.3581
 5568ntf    cn126810   5.681   3.609   6.430 -0.0307  0.0425  0.1731
 5568ntf    fn426811   6.229   3.374   6.571  0.2625 -0.1736 -0.0968
 5568ntf    fn426812   6.097   3.337   6.407 -0.2821  0.3037  0.3529
 5568ntf    fn426813   6.231   3.503   6.404  0.0747  0.0298  0.0611
 5568ntf    on526814   5.945   3.484   6.641 -0.2938  0.0890  0.1351
 5568ntf    on526815   6.104   3.667   6.586 -0.1930  0.0363  0.0684
 5568ntf    on526816   5.829   3.704   6.240  0.4119 -0.3932  0.2676
 5568ntf    on526817   5.843   3.803   6.464 -0.0998  0.4136 -0.1484
 5568ntf    fn426818   5.672   3.487   6.379  0.6705  0.1462 -0.2001
 5568ntf    fn426819   5.662   3.590   6.560  0.4675  0.1161  0.2580
 5568ntf    fn426820   5.578   3.675   6.378  0.1019  0.4771  0.4612
 5569ntf    cn126821   5.172   3.725   6.196  0.0495  0.3277  0.0867
 5569ntf    sn226822   5.273   3.784   6.057 -0.1067 -0.2243 -0.2658
 5569ntf    nn326823   5.224   3.933   6.042 -0.0665 -0.2220 -0.3756
 5569ntf    sn226824   5.162   4.012   5.922 -0.1111 -0.0040 -0.2111
 5569ntf    cn126825   5.286   4.139   5.885  0.1799 -0.1713  0.1889
 5569ntf    fn426826   5.208   3.602   6.229  0.2914  0.5479  0.6443
 5569ntf    fn426827   5.179   3.791   6.310 -0.9477 -0.0719  0.3952
 5569ntf    fn426828   5.041   3.722   6.173  0.0239 -0.3718  0.2905
 5569ntf    on526829   5.408   3.782   6.107 -0.3022  0.0778  0.2825
 5569ntf    on526830   5.236   3.683   5.961 -0.2965 -0.2614 -0.1535
 5569ntf    on526831   5.051   4.090   5.969  0.0955 -0.1953  0.6157
 5569ntf    on526832   5.145   3.947   5.794 -0.5426 -0.1790 -0.0685
 5569ntf    fn426833   5.397   4.094   5.830  0.1879 -0.0701  0.1213
 5569ntf    fn426834   5.240   4.229   5.800 -0.1998 -0.2980  0.2590
 5569ntf    fn426835   5.317   4.203   5.997 -0.3847  0.0352  0.2298
 5570ntf    cn126836   4.599   5.119   6.560 -0.3072 -0.0780 -0.0412
 5570ntf    sn226837   4.597   5.039   6.723 -0.2248  0.2759  0.1350
 5570ntf    nn326838   4.454   4.974   6.724 -0.2982  0.4330 -0.0938
 5570ntf    sn226839   4.406   4.828   6.692 -0.0613  0.3151  0.0795
 5570ntf    cn126840   4.414   4.743   6.853  0.1189 -0.1048 -0.1481
 5570ntf    fn426841   4.513   5.219   6.553 -0.2277 -0.0110 -0.0653
 5570ntf    fn426842   4.718   5.163   6.523 -0.3114  0.3626  0.4538
 5570ntf    fn426843   4.565   5.040   6.459 -0.2831 -0.2833  0.1097
 5570ntf    on526844   4.706   4.944   6.722 -0.3380  0.1499 -0.0919
 5570ntf    on526845   4.612   5.155   6.808  0.1335  0.3393 -0.0133
 5570ntf    on526846   4.494   4.750   6.607 -0.7638 -0.4131  0.0099
 5570ntf    on526847   4.265   4.831   6.663 -0.1283  0.0215  0.3726
 5570ntf    fn426848   4.357   4.805   6.955  0.1051  0.1925 -0.3327
 5570ntf    fn426849   4.360   4.623   6.850  0.2883 -0.2064  0.7316
 5570ntf    fn426850   4.538   4.719   6.891  0.0141 -0.5392 -0.0819
 5571ntf    cn126851   3.998   3.008   5.042 -0.0683 -0.1213  0.2424
 5571ntf    sn226852   3.936   2.878   4.931 -0.2033  0.2503 -0.1182
 5571ntf    nn326853   3.954   2.957   4.796 -0.3365 -0.1075 -0.3472
 5571ntf    sn226854   4.039   2.931   4.667  0.0998  0.1078 -0.1047
 5571ntf    cn126855   3.930   2.833   4.559  0.2146 -0.1938  0.0525
 5571ntf    fn426856   4.014   2.959   5.164 -0.4835 -0.4002  0.1863
 5571ntf    fn426857   4.114   3.054   4.997  0.0246 -0.1198  0.4815
 5571ntf    fn426858   3.915   3.111   5.052  0.1310  0.0929 -0.2805
 5571ntf    on526859   4.032   2.775   4.962 -0.0422  0.3961 -0.1312
 5571ntf    on526860   3.799   2.872   4.976  0.1762 -0.2939  0.9934
 5571ntf    on526861   4.152   2.845   4.690 -0.4112 -0.4559  0.3248
 5571ntf    on526862   4.064   3.054   4.595 -0.2346  0.0425 -0.3352
 5571ntf    fn426863   3.993   2.804   4.447  0.0485 -0.1686 -0.0477
 5571ntf    fn426864   3.884   2.722   4.615  0.0951  0.0971  0.5451
 5571ntf    fn426865   3.824   2.904   4.525  0.3299  0.0478  0.1903
 5572ntf    cn126866   4.772   2.445   0.245 -0.4872  0.0173  0.0339
 5572ntf    sn226867   4.925   2.353   0.210 -0.3053  0.0876  0.6264
 5572ntf    nn326868   4.911   2.233   0.311 -0.4705 -0.1689  0.2998
 5572ntf    sn226869   4.861   2.087   0.283  0.1704 -0.3117 -0.1051
 5572ntf    cn126870   4.780   2.046   0.441 -0.1298  0.2670 -0.1064
 5572ntf    fn426871   4.772   2.560   0.181 -0.2631  0.0281  0.0521
 5572ntf    fn426872   4.658   2.387   0.212 -0.4323 -0.1886  0.1983
 5572ntf    fn426873   4.758   2.475   0.374  0.1530 -0.0085  0.1120
 5572ntf    on526874   4.925   2.320   0.070 -0.6504  0.0999  0.6221
 5572ntf    on526875   5.027   2.446   0.250  0.2197  0.0303 -0.5537
 5572ntf    on526876   4.975   1.998   0.294  0.0621 -0.3612  0.7175
 5572ntf    on526877   4.757   2.058   0.188 -0.2185 -0.3425  0.3303
 5572ntf    fn426878   4.743   1.919   0.453  0.3621  0.0546 -0.7683
 5572ntf    fn426879   4.866   2.072   0.538 -0.1291 -0.3472  0.0664
 5572ntf    fn426880   4.665   2.107   0.463 -0.3205 -0.2508  0.3480
 5573ntf    cn126881   1.223   4.445   5.108  0.0895  0.0115  0.2433
 5573ntf    sn226882   1.327   4.573   5.033 -0.1726 -0.0305 -0.1959
 5573ntf    nn326883   1.461   4.493   5.021 -0.2084 -0.1254  0.0314
 5573ntf    sn226884   1.565   4.475   4.904 -0.1375  0.1840  0.0454
 5573ntf    cn126885   1.503   4.317   4.839  0.2157 -0.0344  0.2371
 5573ntf    fn426886   1.203   4.333   5.040  0.2238  0.0416  0.1544
 5573ntf    fn426887   1.275   4.401   5.222 -0.1975  0.1015  0.4114
 5573ntf    fn426888   1.098   4.483   5.133 -0.0567 -0.3529  0.0799
 5573ntf    on526889   1.257   4.607   4.912 -0.3808 -0.0760 -0.0881
 5573ntf    on526890   1.331   4.672   5.137  0.1040  0.0906 -0.3216
 5573ntf    on526891   1.697   4.453   4.957  0.0563  0.3269 -0.3792
 5573ntf    on526892   1.555   4.569   4.795  0.7892  0.2176 -0.0129
 5573ntf    fn426893   1.561   4.279   4.726 -0.2314 -0.2144  0.0679
 5573ntf    fn426894   1.529   4.218   4.922  0.3965 -0.3742 -0.2166
 5573ntf    fn426895   1.374   4.324   4.812  0.3065 -0.4614 -0.3259
 5574ntf    cn126896   5.718   7.178   5.831  0.1339  0.2345 -0.2386
 5574ntf    sn226897   5.806   7.141   5.986 -0.1947  0.5807  0.0340
 5574ntf    nn326898   5.863   7.279   6.034  0.3753  0.2767  0.2400
 5574ntf    sn226899   5.999   7.352   6.005  0.2352  0.3081 -0.3595
 5574ntf    cn126900   6.029   7.412   6.174 -0.1445 -0.2996 -0.0716
 5574ntf    fn426901   5.784   7.136   5.725  0.4826  0.0653  0.0412
 5574ntf    fn426902   5.595   7.130   5.829  0.1809  0.1057 -0.0844
 5574ntf    fn426903   5.715   7.309   5.813  0.1822  0.3180  0.3292
 5574ntf    on526904   5.710   7.096   6.084 -0.1011 -0.2381 -0.2457
 5574ntf    on526905   5.910   7.054   5.938 -0.9226 -0.3190  0.0566
 5574ntf    on526906   5.970   7.475   5.937 -0.5559  0.5071  0.3250
 5574ntf    on526907   6.120   7.277   5.978  0.4785  0.5090  0.1470
 5574ntf    fn426908   5.921   7.469   6.225 -0.1158 -0.0579 -0.2811
 5574ntf    fn426909   6.053   7.307   6.251 -0.5151 -0.7490 -0.5664
 5574ntf    fn426910   6.122   7.506   6.182 -0.2867 -0.1624 -0.0410
 5575ntf    cn126911   1.098   5.302   2.650 -0.0229 -0.2198 -0.0445
 5575ntf    sn226912   1.236   5.389   2.570  0.0806 -0.2115  0.1414
 5575ntf    nn326913   1.295   5.264   2.496  0.1936  0.1283 -0.3497
 5575ntf    sn226914   1.420   5.174   2.528  0.1428  0.2255  0.1393
 5575ntf    cn126915   1.352   5.007   2.513 -0.0910  0.3124  0.2420
 5575ntf    fn426916   1.137   5.251   2.766  0.0273 -0.7500 -0.2914
 5575ntf    fn426917   0.994   5.381   2.672  0.0321 -0.0091 -0.5322
 5575ntf    fn426918   1.059   5.201   2.574 -0.2380  0.0209 -0.2574
 5575ntf    on526919   1.176   5.486   2.481  0.3935 -0.2297 -0.0899
 5575ntf    on526920   1.313   5.447   2.678  0.6965 -0.0580 -0.3739
 5575ntf    on526921   1.470   5.179   2.663  0.2298  0.3785  0.1022
 5575ntf    on526922   1.522   5.175   2.425  0.0510 -0.5684  0.0376
 5575ntf    fn426923   1.449   4.917   2.507 -0.3532  0.0437 -0.0272
 5575ntf    fn426924   1.268   4.976   2.611  0.4069 -0.4334  0.4440
 5575ntf    fn426925   1.285   4.987   2.400 -0.2303 -0.4085  0.4429
 5576ntf    cn126926   1.033   4.011   5.330  0.0724 -0.0755 -0.3744
 5576ntf    sn226927   1.077   3.898   5.465  0.0201  0.2058 -0.1231
 5576ntf    nn326928   0.936   3.867   5.527  0.1373 -0.1370 -0.0237
 5576ntf    sn226929   0.853   3.736   5.547  0.1865 -0.1804 -0.1036
 5576ntf    cn126930   0.934   3.659   5.690 -0.1342 -0.0996  0.1239
 5576ntf    fn426931   0.939   3.961   5.252  0.0865 -0.0264 -0.4230
 5576ntf    fn426932   0.993   4.129   5.372  0.7329 -0.1113  0.3780
 5576ntf    fn426933   1.136   4.036   5.250  0.5560 -0.2999  0.1731
 5576ntf    on526934   1.142   3.782   5.410  0.3619  0.6560 -0.6863
 5576ntf    on526935   1.152   3.986   5.552 -0.1038 -0.0810  0.2792
 5576ntf    on526936   0.873   3.635   5.447 -0.0500  0.0983 -0.4353
 5576ntf    on526937   0.715   3.752   5.587  0.2329 -0.2712  0.0955
 5576ntf    fn426938   0.909   3.729   5.800 -0.2748 -0.2005  0.1564
 5576ntf    fn426939   0.894   3.534   5.708  0.4728 -0.3004  0.1115
 5576ntf    fn426940   1.065   3.652   5.673 -0.2183 -0.3046 -0.4315
 5577ntf    cn126941   7.381   4.220   6.933  0.0126 -0.1004  0.0520
 5577ntf    sn226942   7.267   4.352   6.985  0.0898 -0.0955  0.2104
 5577ntf    nn326943   7.270   4.455   6.867 -0.3046 -0.3325 -0.0109
 5577ntf    sn226944   7.345   4.593   6.856 -0.3086 -0.3346 -0.0616
 5577ntf    cn126945   7.212   4.707   6.903  0.1751  0.2123 -0.0128
 5577ntf    fn426946   7.334   4.157   6.827  0.0888  0.0715 -0.0843
 5577ntf    fn426947   7.496   4.271   6.892 -0.0835  0.1796  0.1304
 5577ntf    fn426948   7.398   4.130   7.028  0.1825 -0.0476  0.0730
 5577ntf    on526949   7.144   4.277   6.990  0.0104  0.0478  0.4019
 5577ntf    on526950   7.329   4.402   7.105  0.2561  0.4230 -0.0876
 5577ntf    on526951   7.382   4.637   6.724  0.0628 -0.2307  0.0756
 5577ntf    on526952   7.445   4.619   6.957 -0.7417  0.4313  0.1766
 5577ntf    fn426953   7.130   4.728   6.801 -0.0782 -0.1563  0.1162
 5577ntf    fn426954   7.137   4.661   7.001 -0.0295 -0.0378 -0.2852
 5577ntf    fn426955   7.255   4.826   6.942  0.3729  0.1212  0.0460
 5578ntf    cn126956   3.493   2.103   4.529  0.1111  0.1746  0.0372
 5578ntf    sn226957   3.521   2.107   4.350  0.0267  0.3860  0.0286
 5578ntf    nn326958   3.396   2.031   4.293  0.0921  0.0945  0.2735
 5578ntf    sn226959   3.392   1.883   4.239  0.2666  0.1503  0.1100
 5578ntf    cn126960   3.266   1.814   4.350 -0.0241  0.1372 -0.2250
 5578ntf    fn426961   3.508   1.979   4.575 -0.3137 -0.0243 -0.3498
 5578ntf    fn426962   3.580   2.175   4.598  0.1104 -0.2138  0.4533
 5578ntf    fn426963   3.374   2.144   4.569  0.4506  1.0035  0.2151
 5578ntf    on526964   3.521   2.247   4.317  0.2379  0.4445  0.2752
 5578ntf    on526965   3.646   2.037   4.336 -0.0217  0.2724  0.1638
 5578ntf    on526966   3.498   1.794   4.279 -0.2006 -0.1544  0.6766
 5578ntf    on526967   3.330   1.866   4.110  0.2370  0.5459  0.0696
 5578ntf    fn426968   3.173   1.900   4.388  0.2823  0.2516  0.2787
 5578ntf    fn426969   3.202   1.711   4.297  0.0330  0.1928 -0.4017
 5578ntf    fn426970   3.326   1.767   4.459 -0.3533  0.6885  0.1983
 5579ntf    cn126971   4.275   1.333   4.666  0.2525 -0.2121  0.1261
 5579ntf    sn226972   4.440   1.406   4.648  0.0353  0.2501  0.0160
 5579ntf    nn326973   4.422   1.545   4.720 -0.5013 -0.2735  0.9059
 5579ntf    sn226974   4.348   1.676   4.677  0.3567  0.0255  0.3034
 5579ntf    cn126975   4.480   1.800   4.687  0.0220  0.4105 -0.0018
 5579ntf    fn426976   4.279   1.203   4.641 -0.0113 -0.0895 -0.5704
 5579ntf    fn426977   4.221   1.350   4.786 -0.0669  0.1529 -0.0681
 5579ntf    fn426978   4.191   1.394   4.585  0.3873 -0.0101  0.1387
 5579ntf    on526979   4.524   1.321   4.728 -0.2629 -0.3485 -0.3065
 5579ntf    on526980   4.467   1.409   4.506  0.0652 -1.2000 -0.0199
 5579ntf    on526981   4.251   1.722   4.774  0.1209 -0.0386  0.0970
 5579ntf    on526982   4.304   1.685   4.540  0.2054 -0.0010  0.3494
 5579ntf    fn426983   4.531   1.808   4.809 -0.4022  0.4738  0.1699
 5579ntf    fn426984   4.573   1.778   4.595 -0.3872 -0.3866 -0.2322
 5579ntf    fn426985   4.432   1.919   4.654 -0.5079  0.0607 -0.5020
 5580ntf    cn126986   6.128   6.660   6.308  0.1932  0.2645 -0.3780
 5580ntf    sn226987   6.188   6.488   6.294 -0.2493  0.0419  0.4332
 5580ntf    nn326988   6.085   6.429   6.192 -0.0571  0.1076  0.2018
 5580ntf    sn226989   6.079   6.285   6.131 -0.0042  0.1660  0.0543
 5580ntf    cn126990   5.916   6.235   6.196  0.0161 -0.1704 -0.1522
 5580ntf    fn426991   6.201   6.740   6.383  0.5530 -0.2720 -0.1472
 5580ntf    fn426992   6.134   6.721   6.191  0.7330  0.7112 -0.1232
 5580ntf    fn426993   6.004   6.676   6.351  0.2857  0.2434 -0.1059
 5580ntf    on526994   6.322   6.508   6.246 -0.3454  0.1170  0.1945
 5580ntf    on526995   6.179   6.438   6.429  0.5220  0.0848  0.5072
 5580ntf    on526996   6.174   6.193   6.189  0.0929  0.2097 -0.0389
 5580ntf    on526997   6.060   6.278   5.989  0.0659  0.4901  0.0288
 5580ntf    fn426998   5.915   6.242   6.328  0.0798 -0.5773 -0.1294
 5580ntf    fn426999   5.821   6.315   6.151 -0.2847 -0.2861  0.2690
 5580ntf    fn427000   5.892   6.109   6.161  0.1555 -0.3150  0.2689
 5581ntf    cn127001   0.940   3.587   0.324 -0.0563  0.1532  0.1313
 5581ntf    sn227002   1.078   3.656   0.420 -0.0557  0.1185  0.1555
 5581ntf    nn327003   1.070   3.555   0.540  0.2700 -0.4025 -0.2572
 5581ntf    sn227004   1.070   3.594   0.693  0.0048 -0.0727 -0.3392
 5581ntf    cn127005   0.894   3.586   0.737  0.1953 -0.0770  0.4360
 5581ntf    fn427006   0.963   3.465   0.277  0.0584  0.1582  0.1736
 5581ntf    fn427007   0.830   3.580   0.396 -0.2884 -0.1528 -0.2486
 5581ntf    fn427008   0.912   3.663   0.220 -0.0963  0.3187  0.2631
 5581ntf    on527009   1.190   3.638   0.331  0.0142 -0.8014  0.4243
 5581ntf    on527010   1.034   3.789   0.456  0.0988  0.0879  0.4628
 5581ntf    on527011   1.109   3.727   0.730 -0.0190 -0.1303 -0.1041
 5581ntf    on527012   1.131   3.484   0.763  0.1968  0.1605 -0.1411
 5581ntf    fn427013   0.843   3.479   0.678  0.3011  0.0373  0.1368
 5581ntf    fn427014   0.862   3.586   0.865 -0.0858 -0.0942  0.3664
 5581ntf    fn427015   0.827   3.681   0.673  0.0901 -0.1237  0.4760
 5582ntf    cn127016   2.149   2.494   5.077  0.0262 -0.0336 -0.1213
 5582ntf    sn227017   2.211   2.504   4.906  0.1628  0.0322 -0.0684
 5582ntf    nn327018   2.133   2.381   4.847 -0.0048  0.2456 -0.2916
 5582ntf    sn227019   2.000   2.389   4.763  0.0488 -0.0105 -0.4023
 5582ntf    cn127020   2.023   2.242   4.659 -0.3565 -0.4277  0.0942
 5582ntf    fn427021   2.019   2.516   5.084  0.1416  0.6195  0.0208
 5582ntf    fn427022   2.168   2.377   5.136 -0.0912  0.1959  0.3753
 5582ntf    fn427023   2.200   2.580   5.164  0.0553 -0.1075 -0.0643
 5582ntf    on527024   2.174   2.634   4.856 -0.0433  0.1631  0.4203
 5582ntf    on527025   2.351   2.468   4.914  0.2240  0.2618 -0.1038
 5582ntf    on527026   1.996   2.492   4.662 -0.1897  0.0226 -0.3580
 5582ntf    on527027   1.878   2.363   4.835  0.0987  0.5099 -0.1231
 5582ntf    fn427028   2.131   2.239   4.583 -0.4049  0.0614  0.0053
 5582ntf    fn427029   2.028   2.136   4.738 -0.0516 -0.2393  0.3305
 5582ntf    fn427030   1.918   2.214   4.584 -0.2873 -0.4139 -0.0086
 5583ntf    cn127031   6.026   4.381   0.655  0.0676  0.2931  0.0440
 5583ntf    sn227032   6.181   4.394   0.560  0.0309 -0.2078 -0.0909
 5583ntf    nn327033   6.242   4.534   0.598 -0.4574 -0.0025 -0.0550
 5583ntf    sn227034   6.252   4.670   0.520 -0.2947  0.0488  0.0555
 5583ntf    cn127035   6.131   4.769   0.614 -0.1223  0.0554  0.2726
 5583ntf    fn427036   6.047   4.393   0.785  0.6417 -0.2087  0.0022
 5583ntf    fn427037   5.939   4.477   0.629  0.0152  0.3232  0.3314
 5583ntf    fn427038   5.971   4.262   0.639 -0.0999  0.3270  0.3520
 5583ntf    on527039   6.264   4.291   0.616  0.5589  0.2886  0.0473
 5583ntf    on527040   6.131   4.376   0.426 -0.0579 -0.2312 -0.0547
 5583ntf    on527041   6.196   4.675   0.387  0.1403  0.3970 -0.1181
 5583ntf    on527042   6.382   4.729   0.539 -0.3866  0.2811 -0.0315
 5583ntf    fn427043   6.095   4.877   0.546  0.0495  0.1022  0.2567
 5583ntf    fn427044   6.014   4.711   0.632 -0.3469  0.5011  0.2478
 5583ntf    fn427045   6.174   4.811   0.732 -0.1247  0.1281  0.2477
 5584ntf    cn127046   2.836   0.312   4.466  0.0294  0.1474 -0.1277
 5584ntf    sn227047   2.831   0.131   4.444  0.1582  0.1216  0.0548
 5584ntf    nn327048   2.742   0.101   4.570  0.2526 -0.3275  0.0155
 5584ntf    sn227049   2.791   0.045   4.708 -0.4830 -0.2363  0.3127
 5584ntf    cn127050   2.818  -0.133   4.684 -0.1796 -0.1310 -0.1306
 5584ntf    fn427051   2.878   0.343   4.587  0.8189 -0.7664 -0.1562
 5584ntf    fn427052   2.923   0.368   4.384  0.1148 -0.0916 -0.2013
 5584ntf    fn427053   2.720   0.367   4.433 -0.1278  0.0361  0.2314
 5584ntf    on527054   2.753   0.109   4.325 -0.0664 -0.1552  0.2526
 5584ntf    on527055   2.969   0.089   4.454  0.2377  0.2671 -0.3772
 5584ntf    on527056   2.677   0.056   4.797  0.1166  0.0860  1.0589
 5584ntf    on527057   2.916   0.097   4.758 -0.4085 -0.2603  0.1506
 5584ntf    fn427058   2.840  -0.198   4.797  0.3052  0.2251 -0.0160
 5584ntf    fn427059   2.713  -0.183   4.622 -0.0888 -0.0602 -0.3426
 5584ntf    fn427060   2.924  -0.157   4.608 -0.1810  0.1855 -0.2337
 5585ntf    cn127061   5.308   0.180   7.013  0.4346  0.1355 -0.4342
 5585ntf    sn227062   5.399   0.242   7.157 -0.2239  0.0692  0.0100
 5585ntf    nn327063   5.283   0.288   7.254 -0.3029  0.1397 -0.1175
 5585ntf    sn227064   5.212   0.209   7.370  0.2892 -0.0636  0.1121
 5585ntf    cn127065   5.307   0.281   7.507 -0.0883  0.4082  0.1295
 5585ntf    fn427066   5.255   0.063   7.043  0.2708  0.3435  0.0858
 5585ntf    fn427067   5.211   0.262   6.976  0.1227 -0.0452 -0.0180
 5585ntf    fn427068   5.385   0.154   6.908  0.3247 -0.4400 -0.3794
 5585ntf    on527069   5.488   0.140   7.206 -0.0216 -0.1159 -0.7454
 5585ntf    on527070   5.457   0.367   7.113 -0.1192 -0.0017 -0.0522
 5585ntf    on527071   5.225   0.066   7.379  0.5584 -0.0585 -0.1845
 5585ntf    on527072   5.081   0.261   7.399  0.0749 -0.1661 -0.6405
 5585ntf    fn427073   5.282   0.410   7.520 -0.1084  0.4250 -0.0732
 5585ntf    fn427074   5.277   0.222   7.622 -0.2439  0.4844  0.1277
 5585ntf    fn427075   5.437   0.259   7.498 -0.1267  0.0202  0.4473
 5586ntf    cn127076   0.881   2.979   4.591 -0.2031  0.0071 -0.0997
 5586ntf    sn227077   0.709   2.936   4.552 -0.2462  0.0568  0.0366
 5586ntf    nn327078   0.710   2.780   4.538 -0.0896  0.0288  0.3552
 5586ntf    sn227079   0.708   2.668   4.648  0.1870 -0.2546  0.0736
 5586ntf    cn127080   0.842   2.556   4.597  0.3520  0.0219 -0.1076
 5586ntf    fn427081   0.971   2.928   4.508  0.1737 -0.1307  0.3862
 5586ntf    fn427082   0.893   3.111   4.597 -0.2133 -0.0106  0.3356
 5586ntf    fn427083   0.916   2.933   4.710 -0.3385  0.3563  0.0740
 5586ntf    on527084   0.645   3.000   4.665  0.2697  0.3609  0.1624
 5586ntf    on527085   0.690   2.996   4.422  0.4272  0.0987 -0.0436
 5586ntf    on527086   0.588   2.590   4.639  0.2447 -0.3536  0.1502
 5586ntf    on527087   0.753   2.711   4.778 -0.1004  0.8869 -0.1924
 5586ntf    fn427088   0.858   2.473   4.699 -0.1587  0.4329  0.3112
 5586ntf    fn427089   0.809   2.491   4.487 -0.4361 -0.2145  0.2600
 5586ntf    fn427090   0.957   2.621   4.589  0.1771  0.3817  0.2857
 5587ntf    cn127091   2.842   4.149   1.153 -0.0595  0.4561 -0.0286
 5587ntf    sn227092   2.990   4.228   1.084  0.1597  0.0946  0.0200
 5587ntf    nn327093   2.928   4.307   0.963  0.2195  0.1062 -0.0026
 5587ntf    sn227094   2.971   4.288   0.813  0.1311  0.0769 -0.0241
 5587ntf    cn127095   3.101   4.415   0.799 -0.1341  0.3715  0.1799
 5587ntf    fn427096   2.776   4.077   1.064  0.2252 -0.0875  0.1933
 5587ntf    fn427097   2.885   4.070   1.251 -0.5426  0.3797  0.1240
 5587ntf    fn427098   2.760   4.230   1.217  0.0487  0.2211  0.4139
 5587ntf    on527099   3.041   4.322   1.181  0.1430  0.1429 -0.0175
 5587ntf    on527100   3.082   4.124   1.046  0.5358  0.0166  1.1319
 5587ntf    on527101   2.870   4.341   0.725 -0.2129 -0.3041  0.1404
 5587ntf    on527102   3.023   4.159   0.776 -0.0125 -0.0707  0.2857
 5587ntf    fn427103   3.160   4.415   0.681 -0.9814 -0.4018 -0.2610
 5587ntf    fn427104   3.058   4.540   0.799 -0.2937  0.3179  0.1350
 5587ntf    fn427105   3.191   4.402   0.895  0.1164  0.1969 -0.0773
 5588ntf    cn127106   5.082   5.374   2.454 -0.1183  0.1146 -0.0151
 5588ntf    sn227107   5.204   5.482   2.535 -0.1962  0.0143  0.2341
 5588ntf    nn327108   5.115   5.612   2.532  0.0566  0.1777 -0.1792
 5588ntf    sn227109   5.123   5.752   2.461 -0.0708  0.0785 -0.3907
 5588ntf    cn127110   5.126   5.843   2.618 -0.1405 -0.0280 -0.3274
 5588ntf    fn427111   5.058   5.395   2.325 -0.5336  0.2789  0.0861
 5588ntf    fn427112   5.115   5.247   2.458 -0.5101 -0.0071 -0.4901
 5588ntf    fn427113   4.965   5.385   2.515 -0.0214 -0.4721  0.2772
 5588ntf    on527114   5.225   5.433   2.669 -0.1176  0.0258  0.2255
 5588ntf    on527115   5.316   5.485   2.445 -0.1050 -0.2477  0.3399
 5588ntf    on527116   5.001   5.786   2.393 -0.1700  0.2819 -0.1119
 5588ntf    on527117   5.250   5.795   2.409 -0.0700  0.5100 -0.0357
 5588ntf    fn427118   5.129   5.973   2.592  0.0499  0.0692  0.1726
 5588ntf    fn427119   5.021   5.820   2.695  0.1384  0.2427  0.1384
 5588ntf    fn427120   5.238   5.821   2.685 -0.2279  0.3786 -0.0441
 5589ntf    cn127121   2.475   4.810   3.298 -0.0807  0.0576 -0.0762
 5589ntf    sn227122   2.527   4.755   3.464 -0.3379  0.1169  0.0247
 5589ntf    nn327123   2.393   4.726   3.541 -0.1514 -0.1502  0.2513
 5589ntf    sn227124   2.301   4.831   3.613 -0.0835  0.0379  0.0653
 5589ntf    cn127125   2.393   4.851   3.769 -0.2790  0.1855  0.1623
 5589ntf    fn427126   2.409   4.718   3.228 -0.2557 -0.0932  0.2811
 5589ntf    fn427127   2.384   4.906   3.308 -0.2924 -0.1309 -0.1762
 5589ntf    fn427128   2.575   4.858   3.226 -0.2861  0.2547 -0.2315
 5589ntf    on527129   2.594   4.632   3.431 -1.0023 -0.2766  0.1210
 5589ntf    on527130   2.604   4.872   3.498  0.4619 -0.3554 -0.1321
 5589ntf    on527131   2.175   4.773   3.649 -0.0146  0.0012  0.2477
 5589ntf    on527132   2.297   4.963   3.554 -0.5669 -0.1949 -0.4362
 5589ntf    fn427133   2.327   4.936   3.846 -0.8936  0.2860 -0.4613
 5589ntf    fn427134   2.400   4.735   3.832 -0.2398  0.2547  0.2868
 5589ntf    fn427135   2.517   4.891   3.744 -0.2017 -0.2369 -0.1513
 5590ntf    cn127136   6.982   5.942   1.884 -0.0244  0.2289  0.4646
 5590ntf    sn227137   7.027   5.820   2.011 -0.0927 -0.1265  0.1496
 5590ntf    nn327138   7.019   5.906   2.142 -0.2153 -0.0489  0.0910
 5590ntf    sn227139   7.124   5.920   2.259 -0.2258  0.0577  0.0880
 5590ntf    cn127140   7.030   5.894   2.412  0.1121 -0.3119  0.2351
 5590ntf    fn427141   6.936   5.875   1.780  0.2743  0.2911  0.2890
 5590ntf    fn427142   6.878   6.010   1.927 -0.2284  0.3619 -0.2255
 5590ntf    fn427143   7.073   6.033   1.851 -0.1066  0.0476 -0.2835
 5590ntf    on527144   6.931   5.713   2.011 -0.0914 -0.1290  0.2839
 5590ntf    on527145   7.164   5.790   1.976 -0.1815 -0.2518 -0.0875
 5590ntf    on527146   7.157   6.059   2.274 -0.3253  0.1052 -0.1176
 5590ntf    on527147   7.218   5.813   2.279 -0.0621  0.1498 -0.1790
 5590ntf    fn427148   6.967   5.778   2.422 -0.0511 -0.2403  0.0602
 5590ntf    fn427149   7.111   5.896   2.516  0.2521  0.3293  0.1172
 5590ntf    fn427150   6.938   5.985   2.443  0.3669 -0.0339  0.1771
 5591ntf    cn127151   6.887   7.447   3.716  0.2656  0.2571 -0.2103
 5591ntf    sn227152   6.826   7.539   3.572 -0.0284 -0.0852 -0.3048
 5591ntf    nn327153   6.952   7.629   3.545  0.1707 -0.3438 -0.2376
 5591ntf    sn227154   7.046   7.635   3.420  0.0512  0.1535 -0.3073
 5591ntf    cn127155   7.094   7.810   3.433  0.1524  0.0945  0.1216
 5591ntf    fn427156   6.946   7.522   3.808  0.2990  0.1397 -0.1356
 5591ntf    fn427157   6.783   7.392   3.776  0.8690 -0.1215  0.5125
 5591ntf    fn427158   6.981   7.359   3.687  0.2281  0.2582 -0.3377
 5591ntf    on527159   6.795   7.434   3.478 -0.2628 -0.1215 -0.1886
 5591ntf    on527160   6.717   7.615   3.629  0.0234 -0.0853 -0.2056
 5591ntf    on527161   6.989   7.627   3.287  0.3725 -0.4209 -0.4134
 5591ntf    on527162   7.173   7.570   3.443  0.4676  0.9761 -0.2492
 5591ntf    fn427163   7.153   7.838   3.548  0.1229 -0.0633  0.1764
 5591ntf    fn427164   7.175   7.848   3.336  0.4043  0.5127  0.4948
 5591ntf    fn427165   6.986   7.887   3.430 -0.0313 -0.1700 -0.1215
 5592ntf    cn127166   2.701   2.862   3.759 -0.2309  0.3903 -0.0450
 5592ntf    sn227167   2.814   2.800   3.631 -0.4171 -0.0444  0.0012
 5592ntf    nn327168   2.788   2.918   3.531 -0.1366 -0.0632 -0.0970
 5592ntf    sn227169   2.868   2.965   3.404 -0.1277 -0.1743 -0.1328
 5592ntf    cn127170   2.753   3.068   3.308  0.1342  0.2399 -0.0067
 5592ntf    fn427171   2.603   2.939   3.714 -0.2803  0.4747  0.2071
 5592ntf    fn427172   2.657   2.761   3.831 -0.2875  0.0028 -0.6156
 5592ntf    fn427173   2.766   2.942   3.842  0.2418 -0.0173 -0.0149
 5592ntf    on527174   2.940   2.798   3.701 -0.2047  0.1233 -0.3742
 5592ntf    on527175   2.749   2.678   3.590 -0.1087 -0.1214 -0.2621
 5592ntf    on527176   2.899   2.858   3.313  0.5298 -0.0844 -0.0169
 5592ntf    on527177   2.970   3.061   3.440 -0.0156 -0.1949 -0.3975
 5592ntf    fn427178   2.627   3.028   3.305 -0.0463  0.7685  0.4281
 5592ntf    fn427179   2.752   3.187   3.365  0.6684  0.2137  0.0623
 5592ntf    fn427180   2.793   3.082   3.183 -0.3181 -0.0343 -0.1848
 5593ntf    cn127181   2.416   2.832   0.789  0.0299 -0.1670 -0.2920
 5593ntf    sn227182   2.284   2.856   0.911  0.1251  0.0839 -0.2379
 5593ntf    nn327183   2.163   2.807   0.823  0.1149 -0.1870 -0.0732
 5593ntf    sn227184   2.013   2.853   0.816  0.2346  0.1452 -0.4839
 5593ntf    cn127185   2.015   2.962   0.670 -0.0280  0.1233 -0.5042
 5593ntf    fn427186   2.537   2.839   0.843 -0.3081  0.3435  0.4150
 5593ntf    fn427187   2.410   2.715   0.726  0.2330 -0.1870 -0.2750
 5593ntf    fn427188   2.412   2.923   0.693  0.4063  0.0110 -0.1434
 5593ntf    on527189   2.302   2.765   1.021 -0.6003  0.2528  0.0308
 5593ntf    on527190   2.291   2.996   0.943  0.1177  0.0754 -0.1990
 5593ntf    on527191   1.968   2.932   0.928 -0.4147 -0.3399 -0.3917
 5593ntf    on527192   1.926   2.745   0.774  0.3828 -0.0609 -0.2630
 5593ntf    fn427193   1.893   2.993   0.628 -0.3667 -0.3244  0.1114
 5593ntf    fn427194   2.078   3.075   0.699  0.3100 -0.2200  0.1277
 5593ntf    fn427195   2.073   2.901   0.569 -0.2659 -0.3853 -0.3375
 5594ntf    cn127196   4.794   7.392   4.926 -0.1369  0.3228  0.4270
 5594ntf    sn227197   4.921   7.520   4.904 -0.1801  0.3407  0.2761
 5594ntf    nn327198   4.831   7.647   4.924 -0.2438  0.3317  0.0527
 5594ntf    sn227199   4.864   7.772   5.015 -0.0187  0.0541  0.3546
 5594ntf    cn127200   4.787   7.727   5.173 -0.2149 -0.2407  0.1759
 5594ntf    fn427201   4.716   7.408   5.031 -0.4421 -0.4470  0.3265
 5594ntf    fn427202   4.719   7.364   4.820  0.0715  0.1286  0.3288
 5594ntf    fn427203   4.842   7.272   4.956 -0.7311 -0.0824 -0.2083
 5594ntf    on527204   5.011   7.493   5.013  0.3442  0.5489 -0.1001
 5594ntf    on527205   4.953   7.485   4.768 -0.5239  0.6542  0.1134
 5594ntf    on527206   4.795   7.887   4.962  0.5373  0.5559  0.7177
 5594ntf    on527207   5.003   7.789   5.048  0.0347  0.0742  0.1277
 5594ntf    fn427208   4.661   7.693   5.148 -0.1617 -0.3510  0.0552
 5594ntf    fn427209   4.843   7.622   5.230 -0.0151 -0.0196  0.3892
 5594ntf    fn427210   4.787   7.820   5.266 -0.0431  0.3358 -0.3916
 5595ntf    cn127211   1.972   2.843   6.707 -0.6095  0.1553 -0.3294
 5595ntf    sn227212   2.071   2.907   6.846 -0.4211 -0.0351 -0.3741
 5595ntf    nn327213   2.206   2.833   6.821 -0.1857  0.3134 -0.1512
 5595ntf    sn227214   2.339   2.896   6.767 -0.1497  0.3113 -0.0647
 5595ntf    cn127215   2.412   2.983   6.909 -0.2444  0.0987  0.1156
 5595ntf    fn427216   2.044   2.853   6.596 -0.0520 -0.8072 -0.0699
 5595ntf    fn427217   1.966   2.712   6.720 -0.0645  0.2330  0.8496
 5595ntf    fn427218   1.852   2.897   6.696 -0.5959  0.3147  0.2541
 5595ntf    on527219   2.066   3.050   6.828 -0.2164  0.0568  0.2780
 5595ntf    on527220   2.009   2.852   6.965  0.4125  0.1289  0.1463
 5595ntf    on527221   2.322   2.983   6.654 -0.2211  0.1456 -0.1823
 5595ntf    on527222   2.435   2.788   6.757 -0.2088  0.2980 -0.4954
 5595ntf    fn427223   2.519   3.055   6.880  0.2645 -0.8631 -0.4393
 5595ntf    fn427224   2.326   3.071   6.958 -0.1644  0.3881 -0.2584
 5595ntf    fn427225   2.446   2.908   7.013  0.4363  0.2723  0.0252
 5596ntf    cn127226   6.076   5.890   6.311  0.0381 -0.4236  0.0846
 5596ntf    sn227227   6.144   5.837   6.471 -0.0218  0.0397  0.2661
 5596ntf    nn327228   6.014   5.774   6.532 -0.0483  0.1281  0.3009
 5596ntf    sn227229   5.980   5.626   6.573 -0.0886  0.0762  0.0827
 5596ntf    cn127230   5.927   5.549   6.418 -0.2730 -0.0915  0.2275
 5596ntf    fn427231   5.993   5.991   6.333  0.6539  0.0082  0.4888
 5596ntf    fn427232   6.166   5.956   6.240 -0.3546  0.0035 -0.0265
 5596ntf    fn427233   6.006   5.803   6.240 -0.4847  0.0009  0.0683
 5596ntf    on527234   6.254   5.752   6.433 -0.0538 -0.3565  1.0384
 5596ntf    on527235   6.180   5.959   6.539  1.0450 -0.0501 -0.1237
 5596ntf    on527236   5.860   5.619   6.653  0.1928 -0.1485  0.4897
 5596ntf    on527237   6.096   5.552   6.616 -0.0364  0.0266 -0.1470
 5596ntf    fn427238   5.888   5.423   6.429  0.0008 -0.2381 -0.3852
 5596ntf    fn427239   5.826   5.614   6.363  0.2794  0.4571 -0.1564
 5596ntf    fn427240   6.024   5.563   6.328  0.0952 -0.4351  0.5656
 5597ntf    cn127241   0.263   5.006   5.701  0.0490 -0.1451  0.3729
 5597ntf    sn227242   0.247   4.921   5.542  0.0975  0.2617  0.1476
 5597ntf    nn327243   0.397   4.914   5.495  0.0822  0.1908  0.1083
 5597ntf    sn227244   0.497   4.795   5.474  0.0010  0.1028  0.2194
 5597ntf    cn127245   0.450   4.743   5.307  0.4424  0.1737  0.0697
 5597ntf    fn427246   0.151   5.013   5.772 -0.1347  0.0861  0.0653
 5597ntf    fn427247   0.354   4.960   5.786  0.1073 -0.2967  0.2276
 5597ntf    fn427248   0.294   5.133   5.678 -0.2792 -0.1354 -0.0363
 5597ntf    on527249   0.193   4.790   5.572 -0.2578  0.2792 -0.3956
 5597ntf    on527250   0.168   5.001   5.452 -0.2725 -0.2114  0.0480
 5597ntf    on527251   0.471   4.680   5.558  1.0106 -0.1669  0.1793
 5597ntf    on527252   0.634   4.839   5.468 -0.0591  0.3515  0.6349
 5597ntf    fn427253   0.535   4.658   5.254 -0.2780 -0.7677  0.3898
 5597ntf    fn427254   0.333   4.681   5.315  0.6989 -0.3856 -0.4390
 5597ntf    fn427255   0.423   4.847   5.229 -0.1115 -0.0720 -0.0772
 5598ntf    cn127256   5.275   1.046   2.231 -0.5733  0.4376 -0.2101
 5598ntf    sn227257   5.428   1.144   2.222 -0.1678 -0.1061  0.6014
 5598ntf    nn327258   5.391   1.265   2.315  0.2414  0.2147  0.3511
 5598ntf    sn227259   5.362   1.415   2.277  0.1830  0.0342 -0.3325
 5598ntf    cn127260   5.239   1.465   2.401  0.1131  0.1012 -0.4285
 5598ntf    fn427261   5.281   0.938   2.155  0.1641  0.1908  0.1826
 5598ntf    fn427262   5.262   0.999   2.354  0.1173  0.7952  0.0057
 5598ntf    fn427263   5.174   1.121   2.193 -0.3300  0.6817 -0.3820
 5598ntf    on527264   5.529   1.058   2.280  0.4207  0.0313 -0.2117
 5598ntf    on527265   5.439   1.166   2.080  0.1977 -0.0728  0.6338
 5598ntf    on527266   5.301   1.439   2.148 -0.0637  0.1200 -0.1997
 5598ntf    on527267   5.478   1.493   2.310  0.5637 -0.3145 -0.8135
 5598ntf    fn427268   5.119   1.413   2.381 -0.0126 -0.0800  0.7567
 5598ntf    fn427269   5.276   1.429   2.523 -1.0476 -0.1501 -0.1400
 5598ntf    fn427270   5.214   1.595   2.406 -0.1464  0.0339  0.1817
 5599ntf    cn127271   1.013   1.012   2.718 -0.0054  0.0508  0.1223
 5599ntf    sn227272   0.872   1.038   2.606  0.1560  0.2895 -0.0259
 5599ntf    nn327273   0.881   0.907   2.520 -0.4946  0.1625  0.0945
 5599ntf    sn227274   0.856   0.889   2.366  0.0179  0.2634 -0.0013
 5599ntf    cn127275   1.028   0.921   2.316 -0.0038 -0.1154 -0.3206
 5599ntf    fn427276   1.021   1.096   2.819 -0.4401 -0.0641  0.2528
 5599ntf    fn427277   1.023   0.887   2.760  0.0059 -0.0226 -0.0975
 5599ntf    fn427278   1.125   1.033   2.650 -0.1845  0.1853 -0.1322
 5599ntf    on527279   0.756   1.049   2.692 -0.0908  0.4530 -0.3783
 5599ntf    on527280   0.905   1.158   2.533  0.1651  0.2107 -0.1514
 5599ntf    on527281   0.784   0.992   2.296 -0.4081 -0.0316  0.0053
 5599ntf    on527282   0.828   0.752   2.334 -0.1451  0.3427 -0.2038
 5599ntf    fn427283   1.025   0.988   2.202  0.0231 -0.5445 -0.5763
 5599ntf    fn427284   1.091   0.990   2.410 -0.1461  0.0933 -0.3796
 5599ntf    fn427285   1.093   0.808   2.295 -0.3705 -0.4003  0.0641
 5600ntf    cn127286   1.369   6.206   0.763  0.1938 -0.0641 -0.1319
 5600ntf    sn227287   1.517   6.137   0.844 -0.0088 -0.1355  0.1787
 5600ntf    nn327288   1.462   6.001   0.900 -0.0847 -0.2016 -0.0565
 5600ntf    sn227289   1.466   5.856   0.839 -0.2922 -0.0484 -0.4404
 5600ntf    cn127290   1.300   5.848   0.765 -0.2509 -0.2428 -0.5120
 5600ntf    fn427291   1.346   6.144   0.649 -0.5155  0.0512 -0.0551
 5600ntf    fn427292   1.259   6.194   0.835  0.0122  0.1272 -0.3780
 5600ntf    fn427293   1.381   6.335   0.739  0.2010 -0.0466 -0.0375
 5600ntf    on527294   1.616   6.129   0.740 -0.0544 -0.4430  0.1578
 5600ntf    on527295   1.527   6.234   0.950 -0.3207 -0.0302  0.1121
 5600ntf    on527296   1.473   5.751   0.938  0.0643 -0.3087 -0.7375
 5600ntf    on527297   1.563   5.842   0.733  0.1082 -0.2933 -0.0491
 5600ntf    fn427298   1.294   5.740   0.688 -0.2353 -0.2215 -0.5427
 5600ntf    fn427299   1.202   5.843   0.854 -0.2246 -0.0286 -0.4719
 5600ntf    fn427300   1.273   5.947   0.682 -0.5166  0.3009  0.2176
 5601ntf    cn127301   5.505   1.286   6.408  0.1005  0.1345  0.0612
 5601ntf    sn227302   5.653   1.315   6.306 -0.1638  0.4594 -0.2306
 5601ntf    nn327303   5.733   1.181   6.316 -0.3908  0.3293 -0.1526
 5601ntf    sn227304   5.750   1.060   6.217 -0.0034  0.1330  0.1495
 5601ntf    cn127305   5.896   1.100   6.115 -0.1193 -0.4133 -0.2347
 5601ntf    fn427306   5.540   1.238   6.526  0.5452  0.0261 -0.1092
 5601ntf    fn427307   5.432   1.394   6.431  0.0035  0.1220 -0.1885
 5601ntf    fn427308   5.422   1.202   6.350 -0.0668 -0.0116  0.5101
 5601ntf    on527309   5.605   1.353   6.175  0.6879 -0.5502 -0.8472
 5601ntf    on527310   5.722   1.416   6.382  0.2756  0.1424 -0.2044
 5601ntf    on527311   5.644   1.047   6.120 -0.1171  0.3863  0.2378
 5601ntf    on527312   5.783   0.935   6.281  0.1792 -0.0626 -0.3235
 5601ntf    fn427313   5.865   1.187   6.020 -0.2228 -0.2874 -0.0857
 5601ntf    fn427314   5.989   1.158   6.188 -0.1529  0.0536 -0.5580
 5601ntf    fn427315   5.949   0.991   6.063  0.6069 -0.1431 -0.0604
 5602ntf    cn127316   0.839   5.587   4.673  0.0429  0.1460  0.2507
 5602ntf    sn227317   0.984   5.607   4.781  0.3795  0.0412 -0.1778
 5602ntf    nn327318   0.980   5.467   4.853  0.2453  0.1200 -0.0295
 5602ntf    sn227319   1.079   5.346   4.843 -0.0773 -0.1538  0.0931
 5602ntf    cn127320   1.172   5.363   4.999  0.1683 -0.2833 -0.0382
 5602ntf    fn427321   0.737   5.548   4.748  0.1230  0.1222  0.3494
 5602ntf    fn427322   0.799   5.694   4.606  0.7377  0.0475 -0.3248
 5602ntf    fn427323   0.867   5.486   4.593 -0.3424  0.4382 -0.2615
 5602ntf    on527324   1.086   5.634   4.684  0.3890 -0.2455 -0.2493
 5602ntf    on527325   0.945   5.716   4.868  0.2048 -0.3398  0.2270
 5602ntf    on527326   1.172   5.345   4.733 -0.5016 -0.1820 -0.2650
 5602ntf    on527327   1.012   5.220   4.866 -0.6149  0.1150 -0.0052
 5602ntf    fn427328   1.223   5.485   5.012 -0.2344 -0.1147 -0.0090
 5602ntf    fn427329   1.085   5.345   5.097 -0.1493 -0.4263 -0.3394
 5602ntf    fn427330   1.267   5.273   5.011  0.5849  0.1673  0.0573
 5603ntf    cn127331   3.654   7.368   3.831 -0.1582  0.2005 -0.2502
 5603ntf    sn227332   3.512   7.264   3.876 -0.0550  0.1348 -0.0779
 5603ntf    nn327333   3.579   7.122   3.871 -0.9104 -0.2657 -0.3142
 5603ntf    sn227334   3.570   7.000   3.969  0.0569  0.0045  0.1159
 5603ntf    cn127335   3.708   7.026   4.085  0.1429  0.0092  0.0131
 5603ntf    fn427336   3.764   7.331   3.893 -0.1023  0.0070 -0.4642
 5603ntf    fn427337   3.676   7.370   3.700  0.4927 -0.3407 -0.1515
 5603ntf    fn427338   3.620   7.490   3.870  0.1677  0.1833  0.0785
 5603ntf    on527339   3.479   7.320   4.005  0.2665  0.3723 -0.0964
 5603ntf    on527340   3.423   7.293   3.767 -0.2307  0.5037  0.1611
 5603ntf    on527341   3.598   6.876   3.900 -0.1315 -0.0499  0.1381
 5603ntf    on527342   3.462   7.002   4.064 -0.0481  0.1883 -0.0062
 5603ntf    fn427343   3.816   7.080   4.031  0.1591  0.2183  0.2562
 5603ntf    fn427344   3.679   7.098   4.191 -0.1254  0.2355 -0.2127
 5603ntf    fn427345   3.746   6.910   4.137 -0.0769  0.0268  0.2161
 5604ntf    cn127346   2.808   6.622   6.848  0.3045  0.0369  0.2309
 5604ntf    sn227347   2.876   6.532   6.706  0.0798 -0.0910  0.2031
 5604ntf    nn327348   2.826   6.386   6.738 -0.0877 -0.0376  0.1837
 5604ntf    sn227349   2.711   6.299   6.677 -0.0326 -0.0719  0.1298
 5604ntf    cn127350   2.579   6.329   6.798 -0.0654  0.1921  0.0299
 5604ntf    fn427351   2.684   6.661   6.823  0.1883 -0.7040 -0.4018
 5604ntf    fn427352   2.792   6.544   6.954  0.3478 -0.1791  0.0802
 5604ntf    fn427353   2.876   6.728   6.889  0.4117 -0.1651  0.5815
 5604ntf    on527354   2.815   6.602   6.596 -0.0909 -0.5112  0.0259
 5604ntf    on527355   3.018   6.553   6.720  0.0581  0.1220  0.1004
 5604ntf    on527356   2.731   6.156   6.686 -0.5254 -0.2363 -1.0960
 5604ntf    on527357   2.655   6.346   6.552 -0.3863 -0.2464  0.2220
 5604ntf    fn427358   2.599   6.277   6.918 -0.4765 -0.0493 -0.0033
 5604ntf    fn427359   2.566   6.459   6.821 -0.1786  0.2532 -0.3653
 5604ntf    fn427360   2.463   6.293   6.745  0.1358  0.2524 -0.4580
 5605ntf    cn127361   2.956   6.108   3.201  0.1891 -0.2492  0.2032
 5605ntf    sn227362   3.015   6.248   3.102  0.0918 -0.0804  0.3834
 5605ntf    nn327363   2.889   6.270   3.011  0.0938  0.0814  0.4194
 5605ntf    sn227364   2.756   6.337   3.058 -0.0697 -0.0133  0.1006
 5605ntf    cn127365   2.760   6.504   2.985 -0.0752  0.1214  0.4046
 5605ntf    fn427366   3.034   6.095   3.307 -0.1347 -0.0548  0.4639
 5605ntf    fn427367   2.834   6.127   3.248  0.1597  0.0596  0.0050
 5605ntf    fn427368   2.961   5.998   3.127  0.0292 -0.4538  0.4921
 5605ntf    on527369   3.050   6.355   3.192 -0.1409  0.2296  0.1093
 5605ntf    on527370   3.127   6.183   3.038  0.0281 -0.1729  0.3657
 5605ntf    on527371   2.753   6.365   3.200  0.0388 -0.0184  0.1036
 5605ntf    on527372   2.641   6.272   3.001 -0.3676  0.2328  0.4169
 5605ntf    fn427373   2.878   6.559   3.007  0.0150 -0.0232  0.2857
 5605ntf    fn427374   2.745   6.498   2.854  0.3757 -0.3908  0.3733
 5605ntf    fn427375   2.674   6.593   3.032  0.0167  0.5094 -0.1581
 5606ntf    cn127376   5.130   0.005   2.024  0.1017 -0.1713  0.0172
 5606ntf    sn227377   5.105  -0.133   2.140 -0.0007 -0.2163 -0.0587
 5606ntf    nn327378   5.182  -0.248   2.066  0.1032 -0.2042  0.0311
 5606ntf    sn227379   5.157  -0.401   2.043 -0.1704 -0.1695  0.0929
 5606ntf    cn127380   5.053  -0.391   1.894  0.1049  0.2411 -0.0765
 5606ntf    fn427381   5.260   0.028   2.014  0.1544 -0.4515  0.0307
 5606ntf    fn427382   5.088  -0.019   1.901  0.3940 -0.4821 -0.0241
 5606ntf    fn427383   5.067   0.113   2.066  0.1173 -0.1125 -0.1113
 5606ntf    on527384   5.179  -0.088   2.255  0.2771  0.6567 -0.5716
 5606ntf    on527385   4.961  -0.138   2.149 -0.0271  0.6951  0.1852
 5606ntf    on527386   5.082  -0.479   2.137 -0.3922 -0.2935 -0.1853
 5606ntf    on527387   5.272  -0.474   1.996 -0.0958 -0.0571  0.0998
 5606ntf    fn427388   4.935  -0.337   1.922  0.2045  0.7238 -0.5733
 5606ntf    fn427389   5.103  -0.323   1.793  0.1978  0.0283 -0.1743
 5606ntf    fn427390   5.030  -0.510   1.840 -0.2056  0.4024 -0.3062
 5607ntf    cn127391   0.188   0.288   2.098 -0.1813  0.2614  0.2176
 5607ntf    sn227392   0.206   0.323   2.275 -0.0503  0.0617  0.2431
 5607ntf    nn327393   0.336   0.244   2.313 -0.1980  0.0844  0.8054
 5607ntf    sn227394   0.480   0.302   2.340  0.0280 -0.2933  0.4385
 5607ntf    cn127395   0.579   0.241   2.201 -0.0447  0.2835  0.1310
 5607ntf    fn427396   0.065   0.321   2.062 -0.4208 -0.1979  0.6113
 5607ntf    fn427397   0.273   0.358   2.023  0.0321  0.3609  0.5503
 5607ntf    fn427398   0.200   0.160   2.069 -0.0782  0.3635 -0.2130
 5607ntf    on527399   0.204   0.467   2.282 -0.3964  0.0405  0.6251
 5607ntf    on527400   0.094   0.262   2.342  0.0303 -0.0823  0.2486
 5607ntf    on527401   0.550   0.242   2.451  0.0939 -0.5370  0.2656
 5607ntf    on527402   0.500   0.444   2.323 -0.2564 -0.2715  0.2800
 5607ntf    fn427403   0.521   0.268   2.084 -0.1121 -0.0449  0.0880
 5607ntf    fn427404   0.705   0.280   2.187  0.0911 -0.2815 -0.2542
 5607ntf    fn427405   0.580   0.109   2.210  0.2339  0.2884  0.1662
 5608ntf    cn127406   3.147   4.221   2.172  0.2049  0.2643  0.0619
 5608ntf    sn227407   3.281   4.128   2.253  0.0288 -0.1483 -0.1179
 5608ntf    nn327408   3.265   3.989   2.180  0.0443 -0.2270  0.0293
 5608ntf    sn227409   3.159   3.878   2.210  0.1597 -0.2999  0.1712
 5608ntf    cn127410   3.271   3.770   2.305  0.6425  0.0701  0.0232
 5608ntf    fn427411   3.028   4.165   2.183  0.3146 -0.0467 -0.2918
 5608ntf    fn427412   3.130   4.336   2.235 -0.3539  0.1643  0.0898
 5608ntf    fn427413   3.171   4.252   2.045  0.0667  0.0210 -0.0242
 5608ntf    on527414   3.400   4.198   2.212 -0.1759  0.2757  0.0112
 5608ntf    on527415   3.250   4.126   2.393  0.0522 -0.2526 -0.1135
 5608ntf    on527416   3.114   3.803   2.095  0.5091 -0.3295  0.0516
 5608ntf    on527417   3.057   3.907   2.307 -0.2852 -0.3110 -0.2874
 5608ntf    fn427418   3.380   3.738   2.236  0.4060 -0.2982 -0.1790
 5608ntf    fn427419   3.301   3.834   2.417  0.1083 -0.0577  0.2411
 5608ntf    fn427420   3.212   3.660   2.346  0.3773  0.2108  0.0219
 5609ntf    cn127421   0.023   1.473   1.018  0.0589  0.0508  0.4653
 5609ntf    sn227422  -0.123   1.526   1.113 -0.4037 -0.0450 -0.1854
 5609ntf    nn327423  -0.212   1.407   1.064  0.1385 -0.5624  0.0773
 5609ntf    sn227424  -0.324   1.408   0.953  0.0215  0.0289  0.1995
 5609ntf    cn127425  -0.458   1.479   1.053 -0.1023 -0.1662  0.1723
 5609ntf    fn427426  -0.002   1.468   0.888 -0.3890  0.0728  0.5459
 5609ntf    fn427427   0.133   1.543   1.041  0.2731 -0.2031  0.2148
 5609ntf    fn427428   0.048   1.346   1.045 -0.2906 -0.1015  0.0829
 5609ntf    on527429  -0.083   1.518   1.251 -0.2169  0.3672 -0.2143
 5609ntf    on527430  -0.149   1.655   1.053  0.6420  0.0226 -0.5214
 5609ntf    on527431  -0.374   1.276   0.928  0.1638  0.0440 -0.1793
 5609ntf    on527432  -0.312   1.500   0.842 -0.4936  0.1128  0.2105
 5609ntf    fn427433  -0.571   1.478   0.985  0.1688 -0.6834 -0.2761
 5609ntf    fn427434  -0.476   1.411   1.164 -0.1430 -0.0552  0.2339
 5609ntf    fn427435  -0.435   1.606   1.084 -0.0260 -0.2491  0.4523
 5610ntf    cn127436   2.629   4.999   6.091 -0.2721  0.2276 -0.0795
 5610ntf    sn227437   2.524   4.874   6.012  0.0910 -0.3325  0.3179
 5610ntf    nn327438   2.396   4.957   5.974  0.3112 -0.4121 -0.6017
 5610ntf    sn227439   2.335   5.000   5.836  0.1147  0.1950 -0.3285
 5610ntf    cn127440   2.373   5.177   5.847  0.2012  0.1504  0.0931
 5610ntf    fn427441   2.650   5.110   6.022  0.1230  0.0443 -0.2568
 5610ntf    fn427442   2.562   5.043   6.197  0.0514  0.2991  0.0976
 5610ntf    fn427443   2.748   4.956   6.131 -0.2442  0.3877  0.0118
 5610ntf    on527444   2.603   4.810   5.910 -0.0454  0.0057 -0.0005
 5610ntf    on527445   2.490   4.793   6.127  0.1856 -0.0530  0.5429
 5610ntf    on527446   2.191   4.989   5.828  0.1170 -0.0453 -0.0420
 5610ntf    on527447   2.409   4.954   5.721 -0.1120  0.5791 -0.6284
 5610ntf    fn427448   2.312   5.232   5.744  0.1338 -0.4331 -0.1825
 5610ntf    fn427449   2.322   5.232   5.956 -0.1747  0.3360 -0.1735
 5610ntf    fn427450   2.499   5.218   5.842  0.1840  0.1473 -0.3632
 5611ntf    cn127451   0.647   3.547   1.418 -0.1092  0.1879 -0.1533
 5611ntf    sn227452   0.530   3.674   1.362 -0.0091  0.3470 -0.0033
 5611ntf    nn327453   0.616   3.729   1.242  1.1605 -0.4531  0.4505
 5611ntf    sn227454   0.681   3.871   1.224 -0.3408  0.2043  0.1007
 5611ntf    cn127455   0.847   3.809   1.183 -0.3710  0.1792  0.0159
 5611ntf    fn427456   0.771   3.593   1.413  0.0483 -0.2446 -0.2839
 5611ntf    fn427457   0.626   3.493   1.537 -0.1233  0.2479 -0.1285
 5611ntf    fn427458   0.647   3.445   1.334  0.4699 -0.1041  0.1921
 5611ntf    on527459   0.418   3.596   1.318  0.0062  0.3421 -0.0339
 5611ntf    on527460   0.507   3.757   1.478  0.2328 -0.0644  0.3444
 5611ntf    on527461   0.708   3.941   1.347  0.5880 -0.9070  0.5470
 5611ntf    on527462   0.639   3.942   1.105 -0.1167 -0.4992 -0.4051
 5611ntf    fn427463   0.914   3.763   1.287 -0.0842  0.1390 -0.1851
 5611ntf    fn427464   0.852   3.713   1.092  0.5917  0.1642  0.0790
 5611ntf    fn427465   0.925   3.909   1.145  0.2464 -0.2875  0.0566
 5612ntf    cn127466   0.062   3.745   1.770  0.0024 -0.0165 -0.4420
 5612ntf    sn227467   0.052   3.920   1.818 -0.0100 -0.0915 -0.1713
 5612ntf    nn327468  -0.032   3.971   1.696 -0.3552  0.0782  0.1325
 5612ntf    sn227469   0.006   4.077   1.586 -0.1852  0.0349  0.1490
 5612ntf    cn127470   0.110   3.974   1.478 -0.5896 -0.3593  0.1321
 5612ntf    fn427471   0.089   3.743   1.640 -0.1840  0.4052 -0.4880
 5612ntf    fn427472   0.151   3.672   1.836 -0.0665 -0.1365 -0.4825
 5612ntf    fn427473  -0.054   3.685   1.786 -0.0069  0.2029  0.3388
 5612ntf    on527474  -0.028   3.908   1.938 -0.3635  0.1130 -0.3826
 5612ntf    on527475   0.189   3.962   1.834 -0.2004  0.3759  0.2810
 5612ntf    on527476   0.086   4.191   1.622 -0.0243 -0.0385  0.0263
 5612ntf    on527477  -0.120   4.095   1.517 -0.0044 -0.1238 -0.2248
 5612ntf    fn427478   0.047   3.863   1.442 -0.0470 -0.4174 -0.6585
 5612ntf    fn427479   0.138   4.033   1.363 -0.4282 -0.1057  0.3023
 5612ntf    fn427480   0.224   3.937   1.534 -0.3784  0.4315  0.2297
 5613ntf    cn127481   7.161   2.336   3.735  0.3307 -0.1904  0.1966
 5613ntf    sn227482   7.070   2.212   3.638  0.1812  0.0158  0.0704
 5613ntf    nn327483   7.043   2.107   3.752  0.2002  0.4349  0.4653
 5613ntf    sn227484   7.130   1.983   3.794  0.2326  0.1852 -0.3198
 5613ntf    cn127485   7.068   1.854   3.683 -0.0964  0.1631 -0.1105
 5613ntf    fn427486   7.282   2.291   3.761  0.4265 -0.0866 -0.0702
 5613ntf    fn427487   7.175   2.452   3.671 -0.3701  0.0527  0.4769
 5613ntf    fn427488   7.105   2.366   3.851  0.3446  0.0103  0.1525
 5613ntf    on527489   6.946   2.273   3.598 -0.2120 -0.6441  0.2752
 5613ntf    on527490   7.159   2.174   3.532 -0.4395  0.5782 -0.6596
 5613ntf    on527491   7.091   1.936   3.924 -0.0422 -0.3394 -0.5924
 5613ntf    on527492   7.272   1.993   3.770  0.1843  0.3084 -0.5567
 5613ntf    fn427493   7.128   1.736   3.696 -0.1088  0.1660 -0.0244
 5613ntf    fn427494   6.941   1.825   3.707 -0.0330  0.1314  0.1902
 5613ntf    fn427495   7.087   1.888   3.557  0.4983 -0.0291 -0.0757
 5614ntf    cn127496   6.202   1.352   6.176  0.2882 -0.3633 -0.0091
 5614ntf    sn227497   6.298   1.507   6.179  0.0183 -0.1938 -0.1570
 5614ntf    nn327498   6.235   1.595   6.065 -0.2688 -0.1117  0.0634
 5614ntf    sn227499   6.255   1.562   5.912 -0.0162  0.4249 -0.0207
 5614ntf    cn127500   6.316   1.726   5.862 -0.0062  0.4784  0.1648
 5614ntf    fn427501   6.239   1.276   6.278  0.6385  0.1000  0.2136
 5614ntf    fn427502   6.072   1.371   6.190  0.3903 -0.0223  0.4885
 5614ntf    fn427503   6.222   1.284   6.064  0.0982  0.4552 -0.5455
 5614ntf    on527504   6.268   1.576   6.302 -0.7158  0.2405 -0.5698
 5614ntf    on527505   6.431   1.457   6.157  0.2723  0.3408  0.1697
 5614ntf    on527506   6.141   1.547   5.826 -0.0631 -0.5132  0.2025
 5614ntf    on527507   6.368   1.481   5.876 -0.1459  0.2983 -0.1401
 5614ntf    fn427508   6.384   1.716   5.749  0.2472  0.4171  0.3196
 5614ntf    fn427509   6.219   1.816   5.856 -0.1293  0.3472  0.1686
 5614ntf    fn427510   6.399   1.768   5.956 -0.6339  0.6723  0.6376
 5615ntf    cn127511   2.306   1.055   0.493  0.1906 -0.2533  0.3023
 5615ntf    sn227512   2.477   0.993   0.505  0.2747 -0.0606  0.1183
 5615ntf    nn327513   2.552   1.128   0.476  0.0330  0.0808  0.1424
 5615ntf    sn227514   2.607   1.231   0.581 -0.1658  0.2422  0.0892
 5615ntf    cn127515   2.646   1.379   0.483 -0.0954  0.1783  0.0210
 5615ntf    fn427516   2.220   0.955   0.492  0.1000 -0.1774  0.5297
 5615ntf    fn427517   2.273   1.127   0.599 -0.2742 -0.0703  0.0387
 5615ntf    fn427518   2.280   1.121   0.381  0.0817 -0.3644  0.2617
 5615ntf    on527519   2.492   0.935   0.636  0.1265  0.2918  0.2934
 5615ntf    on527520   2.487   0.897   0.399 -0.0280 -0.2088  0.2212
 5615ntf    on527521   2.733   1.188   0.636 -0.1907  0.3429  0.2245
 5615ntf    on527522   2.504   1.276   0.671 -0.0567  0.1263  0.2722
 5615ntf    fn427523   2.693   1.478   0.557  0.1587  0.5272 -0.5926
 5615ntf    fn427524   2.732   1.355   0.384 -0.7007 -0.3057 -0.3985
 5615ntf    fn427525   2.536   1.427   0.427 -0.0163  0.4747  0.1173
 5616ntf    cn127526   1.334   1.475   1.239 -0.0559  0.0439  0.0446
 5616ntf    sn227527   1.375   1.501   1.415  0.4489  0.0708 -0.0749
 5616ntf    nn327528   1.461   1.372   1.438  0.5593  0.1100 -0.2693
 5616ntf    sn227529   1.475   1.296   1.574 -0.0791 -0.1378 -0.3365
 5616ntf    cn127530   1.339   1.176   1.561 -0.2679  0.0160  0.2033
 5616ntf    fn427531   1.261   1.371   1.205  0.1778 -0.0961 -0.0269
 5616ntf    fn427532   1.278   1.584   1.188  0.5242  0.2000 -0.2721
 5616ntf    fn427533   1.442   1.465   1.163  0.0435 -0.1092  0.2070
 5616ntf    on527534   1.455   1.620   1.412  0.6303 -0.0510 -0.1181
 5616ntf    on527535   1.250   1.510   1.487  0.4584 -0.3713 -0.0000
 5616ntf    on527536   1.454   1.377   1.692  0.1325 -0.0507 -0.3576
 5616ntf    on527537   1.597   1.219   1.575  0.3026  0.4618 -0.6196
 5616ntf    fn427538   1.354   1.110   1.448  0.4516  0.2782  0.1415
 5616ntf    fn427539   1.338   1.092   1.663 -0.3573 -0.0883  0.1169
 5616ntf    fn427540   1.214   1.219   1.558 -0.3336 -0.1645  0.3172
 5617ntf    cn127541   0.955   3.640   6.573  0.0404  0.0448 -0.4158
 5617ntf    sn227542   0.844   3.573   6.446 -0.0226  0.2996 -0.4962
 5617ntf    nn327543   0.944   3.544   6.328  0.3777  0.1479 -0.1234
 5617ntf    sn227544   0.908   3.563   6.176 -0.1375 -0.1957 -0.0458
 5617ntf    cn127545   0.963   3.733   6.144  0.0332 -0.2000  0.2215
 5617ntf    fn427546   0.886   3.698   6.670  0.5416  0.1222 -0.1015
 5617ntf    fn427547   1.035   3.550   6.627 -0.4983 -0.5048 -0.5226
 5617ntf    fn427548   1.039   3.730   6.526 -0.2705  0.5221 -0.0700
 5617ntf    on527549   0.788   3.451   6.500 -0.3120  0.4874 -0.3762
 5617ntf    on527550   0.756   3.685   6.426 -0.2485  0.2328  0.0961
 5617ntf    on527551   0.769   3.562   6.137 -0.2206 -0.4985  0.2438
 5617ntf    on527552   0.998   3.487   6.094 -0.1830 -0.4971  0.1785
 5617ntf    fn427553   0.936   3.815   6.245 -0.3266 -0.0305 -0.0067
 5617ntf    fn427554   1.095   3.743   6.141 -0.0482  0.9965  0.1287
 5617ntf    fn427555   0.923   3.789   6.031 -0.2591  0.2801  0.5548
 5618ntf    cn127556   2.881   1.265   4.662 -0.0832 -0.1699 -0.2417
 5618ntf    sn227557   3.034   1.305   4.751 -0.1715 -0.2740 -0.0410
 5618ntf    nn327558   3.003   1.234   4.887 -0.0906 -0.5663 -0.1733
 5618ntf    sn227559   2.966   1.297   5.026  0.0489 -0.2614 -0.2728
 5618ntf    cn127560   3.130   1.312   5.103 -0.1593  0.0814  0.1132
 5618ntf    fn427561   2.854   1.138   4.683 -0.0570 -0.1171  0.1275
 5618ntf    fn427562   2.780   1.337   4.710  0.0356  0.0491 -0.3180
 5618ntf    fn427563   2.882   1.294   4.533 -0.3980  0.5410 -0.0929
 5618ntf    on527564   3.138   1.236   4.678  0.1494  0.1797 -0.0229
 5618ntf    on527565   3.043   1.448   4.769 -0.4132 -0.2268 -0.2913
 5618ntf    on527566   2.901   1.203   5.115  0.0655  0.4192  0.4731
 5618ntf    on527567   2.924   1.435   5.030 -0.3779 -0.4004  0.2446
 5618ntf    fn427568   3.218   1.377   5.029  0.6669 -0.9098  0.1890
 5618ntf    fn427569   3.117   1.365   5.224  0.0619 -0.4862  0.3891
 5618ntf    fn427570   3.189   1.194   5.117 -0.3108 -0.0773 -0.5477
 5619ntf    cn127571   1.967   0.368   1.299  0.2498 -0.3867 -0.1406
 5619ntf    sn227572   2.126   0.389   1.384 -0.0444  0.1944  0.2753
 5619ntf    nn327573   2.118   0.536   1.439 -1.0242  0.2069  0.1218
 5619ntf    sn227574   2.189   0.671   1.402 -0.2879 -0.1766  0.1083
 5619ntf    cn127575   2.339   0.657   1.503 -0.1871  0.1262  0.0011
 5619ntf    fn427576   1.866   0.358   1.383  0.1439  0.5557 -0.1423
 5619ntf    fn427577   1.934   0.466   1.217 -0.0518 -0.2855  0.1008
 5619ntf    fn427578   1.968   0.255   1.231  0.0126 -0.6811  0.3398
 5619ntf    on527579   2.125   0.287   1.486  0.3749 -0.1983 -0.1030
 5619ntf    on527580   2.221   0.370   1.277 -0.9167 -0.2952 -0.4256
 5619ntf    on527581   2.122   0.790   1.449 -0.1834  0.0202 -0.2356
 5619ntf    on527582   2.241   0.678   1.267  0.2495  0.6229  0.3475
 5619ntf    fn427583   2.407   0.771   1.504 -0.2792  0.1838 -0.1971
 5619ntf    fn427584   2.328   0.634   1.633  0.0609  0.2829  0.0527
 5619ntf    fn427585   2.422   0.567   1.453  0.0373  0.0872  0.4375
 5620ntf    cn127586   7.439   5.830   2.634  0.2692 -0.2346  0.0859
 5620ntf    sn227587   7.483   5.806   2.808  0.1247 -0.1331  0.1370
 5620ntf    nn327588   7.635   5.843   2.794 -0.0330  0.3714 -0.2250
 5620ntf    sn227589   7.743   5.757   2.721 -0.0930  0.2695 -0.1941
 5620ntf    cn127590   7.896   5.840   2.773 -0.0958  0.0195  0.2146
 5620ntf    fn427591   7.499   5.752   2.546  0.1557 -0.6167  0.3462
 5620ntf    fn427592   7.309   5.811   2.619  0.1681  0.2976  0.2717
 5620ntf    fn427593   7.471   5.950   2.588  0.3101 -0.2918 -0.0337
 5620ntf    on527594   7.404   5.901   2.883 -0.0180 -0.4227  0.3594
 5620ntf    on527595   7.459   5.666   2.836  0.4902 -0.2195  0.0218
 5620ntf    on527596   7.744   5.771   2.577  0.3942  0.3795 -0.1809
 5620ntf    on527597   7.757   5.620   2.764 -0.6986 -0.0480 -0.9760
 5620ntf    fn427598   7.911   5.822   2.904  0.0161 -0.1799  0.1745
 5620ntf    fn427599   8.008   5.790   2.723 -0.3052  0.1411 -0.3754
 5620ntf    fn427600   7.886   5.971   2.755  0.4852  0.0376  0.0101
 5621ntf    cn127601   0.891   3.759   4.946 -0.1389 -0.1243  0.2201
 5621ntf    sn227602   0.809   3.597   4.954 -0.1577 -0.1333 -0.1660
 5621ntf    nn327603   0.939   3.516   4.988  0.1792  0.2828 -0.4451
 5621ntf    sn227604   0.982   3.386   4.909 -0.2627 -0.2641  0.2022
 5621ntf    cn127605   0.834   3.281   4.921 -0.5102  0.0049 -0.4663
 5621ntf    fn427606   0.982   3.773   5.042  0.0726 -0.7153  0.1062
 5621ntf    fn427607   0.951   3.784   4.831 -0.3948 -0.2941  0.0506
 5621ntf    fn427608   0.808   3.860   4.965 -0.0838  0.0399 -0.3920
 5621ntf    on527609   0.719   3.608   5.066 -0.5396  0.2289 -0.5053
 5621ntf    on527610   0.745   3.576   4.826 -0.6756 -0.4850  0.1458
 5621ntf    on527611   1.078   3.306   4.981  0.1755  0.3284  0.2929
 5621ntf    on527612   1.011   3.400   4.769  0.7429  0.1272  0.4415
 5621ntf    fn427613   0.737   3.313   4.836 -0.4672 -0.1493 -0.5751
 5621ntf    fn427614   0.849   3.150   4.909  0.4703  0.0991 -0.3342
 5621ntf    fn427615   0.781   3.301   5.040 -0.1900 -0.3228 -0.2663
 5622ntf    cn127616   5.602   3.669   2.709 -0.1764  0.1663  0.1955
 5622ntf    sn227617   5.577   3.732   2.878  0.0166 -0.1807  0.3533
 5622ntf    nn327618   5.434   3.792   2.855 -0.0391 -0.5604 -0.3382
 5622ntf    sn227619   5.292   3.728   2.868 -0.2195 -0.1238 -0.1158
 5622ntf    cn127620   5.241   3.789   3.032  0.0936  0.5089 -0.2535
 5622ntf    fn427621   5.503   3.594   2.664 -0.1520  0.3303 -0.1350
 5622ntf    fn427622   5.612   3.778   2.634 -0.1119 -0.1113 -0.1970
 5622ntf    fn427623   5.717   3.605   2.696 -0.0874  0.2487  0.5583
 5622ntf    on527624   5.582   3.613   2.960 -0.5136 -0.1315  0.4556
 5622ntf    on527625   5.678   3.832   2.903  0.0073 -0.0875  0.0163
 5622ntf    on527626   5.294   3.583   2.871 -0.7468 -0.1354 -0.2602
 5622ntf    on527627   5.195   3.778   2.775 -0.4019  0.3293  0.3140
 5622ntf    fn427628   5.331   3.769   3.127 -0.7089  0.2035  0.4475
 5622ntf    fn427629   5.225   3.920   3.034 -0.2521  0.4628  0.0292
 5622ntf    fn427630   5.127   3.740   3.076  0.4303 -0.0060  0.0553
 5623ntf    cn127631   1.917   2.759   1.835  0.0815 -0.1843  0.2942
 5623ntf    sn227632   1.851   2.921   1.883  0.0743 -0.1340  0.1148
 5623ntf    nn327633   1.700   2.882   1.865 -0.0320  0.1323  0.4261
 5623ntf    sn227634   1.585   2.950   1.948 -0.0986  0.2016  0.2767
 5623ntf    cn127635   1.603   3.129   1.920  0.0609  0.1160 -0.1719
 5623ntf    fn427636   1.883   2.719   1.713  0.4024 -0.1174  0.1819
 5623ntf    fn427637   2.048   2.751   1.850  0.1941 -0.3538 -0.7188
 5623ntf    fn427638   1.866   2.670   1.918  0.2700 -0.5875 -0.0135
 5623ntf    on527639   1.898   2.943   2.017 -0.2467  0.8894  0.0711
 5623ntf    on527640   1.909   3.006   1.781  0.1546  0.0317  0.2981
 5623ntf    on527641   1.595   2.939   2.091 -0.1765  0.0291  0.2684
 5623ntf    on527642   1.454   2.916   1.899  0.1394 -0.1219 -0.1395
 5623ntf    fn427643   1.713   3.181   1.972 -0.4898  0.5517  0.5818
 5623ntf    fn427644   1.599   3.158   1.791 -0.6624  0.7025 -0.0226
 5623ntf    fn427645   1.504   3.198   1.974 -0.2104  0.0062 -0.5212
 5624ntf    cn127646   0.227   0.368   5.362 -0.3083 -0.4321 -0.1155
 5624ntf    sn227647   0.242   0.449   5.524 -0.0388 -0.4803 -0.1153
 5624ntf    nn327648   0.309   0.334   5.608 -0.4425 -0.6077  0.0361
 5624ntf    sn227649   0.418   0.335   5.722 -0.0486 -0.1630 -0.3410
 5624ntf    cn127650   0.304   0.327   5.864 -0.2699  0.0679 -0.5025
 5624ntf    fn427651   0.159   0.443   5.277 -0.2393  0.5347  0.6673
 5624ntf    fn427652   0.341   0.341   5.299 -0.3913 -0.4220 -0.2710
 5624ntf    fn427653   0.156   0.257   5.372  0.3159 -0.8263 -0.0196
 5624ntf    on527654   0.330   0.559   5.495 -0.4731 -0.1662 -0.2373
 5624ntf    on527655   0.108   0.482   5.568  0.2719  0.1878  0.3499
 5624ntf    on527656   0.486   0.462   5.735 -0.1596 -0.1509  0.1394
 5624ntf    on527657   0.507   0.222   5.724 -0.1161 -0.2115 -0.0120
 5624ntf    fn427658   0.241   0.441   5.885 -0.2200  0.0995 -0.5219
 5624ntf    fn427659   0.228   0.224   5.833  0.4564 -0.5968 -0.1175
 5624ntf    fn427660   0.363   0.288   5.976  0.1116 -0.0676 -0.7465
 5625ntf    cn127661   4.679   3.863   6.510 -0.5216  0.1556 -0.4114
 5625ntf    sn227662   4.626   3.702   6.575 -0.0159  0.0681 -0.2176
 5625ntf    nn327663   4.716   3.703   6.704 -0.3683 -0.6333  0.0409
 5625ntf    sn227664   4.690   3.720   6.858  0.2458  0.1599  0.0640
 5625ntf    cn127665   4.722   3.552   6.919  0.0306  0.1603  0.1818
 5625ntf    fn427666   4.806   3.869   6.476 -0.5420  0.3923 -0.4501
 5625ntf    fn427667   4.617   3.891   6.397 -0.5271 -0.1044 -0.4715
 5625ntf    fn427668   4.652   3.961   6.596  0.2649  0.1184 -0.1202
 5625ntf    on527669   4.483   3.713   6.584  0.0305  0.6341 -0.1369
 5625ntf    on527670   4.682   3.605   6.483 -0.0358 -0.2365  0.0906
 5625ntf    on527671   4.550   3.735   6.890  0.3347  0.3451  0.3754
 5625ntf    on527672   4.789   3.805   6.920 -0.0975 -0.3010  1.2750
 5625ntf    fn427673   4.642   3.465   6.860  0.3951  0.1445 -0.2935
 5625ntf    fn427674   4.844   3.516   6.883 -0.2595  0.1650 -0.8305
 5625ntf    fn427675   4.706   3.526   7.048  0.1522 -0.2673  0.1127
 5626ntf    cn127676   0.491   1.058   5.276 -0.0439  0.2077  0.2902
 5626ntf    sn227677   0.458   1.181   5.145  0.2951  0.2963  0.2862
 5626ntf    nn327678   0.538   1.123   5.024  0.1874  0.1408  0.2895
 5626ntf    sn227679   0.492   1.034   4.903  0.4203  0.0685  0.2534
 5626ntf    cn127680   0.383   1.150   4.816  0.6564 -0.0587 -0.2179
 5626ntf    fn427681   0.441   1.095   5.392  0.0935 -0.1926  0.4754
 5626ntf    fn427682   0.435   0.939   5.261 -0.0853  0.2799 -0.1499
 5626ntf    fn427683   0.619   1.030   5.292 -0.1420 -0.4551 -0.0765
 5626ntf    on527684   0.314   1.190   5.146  0.2946  0.2700  0.5074
 5626ntf    on527685   0.524   1.300   5.193  0.2778  0.5040 -0.1975
 5626ntf    on527686   0.413   0.920   4.941  0.1278  0.2261  0.1215
 5626ntf    on527687   0.606   1.020   4.816  0.6043  0.0828  0.4923
 5626ntf    fn427688   0.376   1.101   4.693  0.0387  0.1519 -0.2722
 5626ntf    fn427689   0.262   1.154   4.870  0.8541  0.8494  0.1772
 5626ntf    fn427690   0.422   1.276   4.806  0.0903  0.0835 -0.6857
 5627ntf    cn127691   1.402   5.732   3.004  0.0429  0.3159 -0.4612
 5627ntf    sn227692   1.379   5.909   3.040  0.0592  0.2140  0.0563
 5627ntf    nn327693   1.330   5.900   3.189  0.5897 -0.3979  0.1961
 5627ntf    sn227694   1.407   5.929   3.323  0.2213 -0.0158  0.3245
 5627ntf    cn127695   1.370   6.106   3.342  0.2381 -0.0021  0.2298
 5627ntf    fn427696   1.474   5.709   2.895  0.5119  0.3431 -0.1623
 5627ntf    fn427697   1.476   5.674   3.097 -0.5063  0.7263  0.2430
 5627ntf    fn427698   1.291   5.661   2.994  0.2361  0.0286 -0.5672
 5627ntf    on527699   1.510   5.964   3.017  0.1042  0.1208  0.0894
 5627ntf    on527700   1.268   5.945   2.955 -0.1989 -0.1407  0.2395
 5627ntf    on527701   1.551   5.930   3.313  0.2269 -0.2333  0.3904
 5627ntf    on527702   1.342   5.866   3.435 -0.3159 -0.5113 -0.2559
 5627ntf    fn427703   1.432   6.181   3.253 -0.0846  0.2620  0.2251
 5627ntf    fn427704   1.243   6.142   3.339  0.3652  0.4406  0.1005
 5627ntf    fn427705   1.402   6.145   3.465  0.1597  0.6016  0.0640
 5628ntf    cn127706   2.483   0.758   4.614 -0.0499 -0.5340  0.4094
 5628ntf    sn227707   2.327   0.841   4.573  0.2561 -0.0214  0.2778
 5628ntf    nn327708   2.382   0.962   4.489 -0.1787 -0.0719 -0.0806
 5628ntf    sn227709   2.398   0.966   4.333 -0.3039  0.0114 -0.0924
 5628ntf    cn127710   2.566   1.031   4.308 -0.1210 -0.3475  0.1994
 5628ntf    fn427711   2.452   0.641   4.667  0.0015 -0.4516  0.6207
 5628ntf    fn427712   2.555   0.733   4.505 -0.1369  0.4429  0.1195
 5628ntf    fn427713   2.553   0.830   4.701 -0.0277 -0.0084 -0.0380
 5628ntf    on527714   2.260   0.740   4.496 -0.0806  0.2168  0.2568
 5628ntf    on527715   2.276   0.878   4.703  0.2378 -0.1888  0.3177
 5628ntf    on527716   2.317   1.073   4.280 -0.9086 -0.5928 -0.3909
 5628ntf    on527717   2.389   0.844   4.258 -0.2015 -0.3506  0.4783
 5628ntf    fn427718   2.598   1.055   4.182 -0.1378  0.2180  0.2999
 5628ntf    fn427719   2.592   1.146   4.367 -0.1029 -0.4246  0.3443
 5628ntf    fn427720   2.653   0.947   4.362 -0.1866 -0.4272  0.1810
 5629ntf    cn127721   2.236   2.312   4.120  0.4815  0.1580  0.1584
 5629ntf    sn227722   2.316   2.182   4.022  0.2360  0.1465 -0.0280
 5629ntf    nn327723   2.464   2.234   4.012  0.3386 -0.1085  0.1412
 5629ntf    sn227724   2.558   2.223   3.887 -0.0921 -0.1776 -0.1772
 5629ntf    cn127725   2.518   2.381   3.806  0.3538  0.1174  0.1750
 5629ntf    fn427726   2.266   2.428   4.064 -0.2243 -0.0738 -0.7178
 5629ntf    fn427727   2.106   2.302   4.140  0.5266 -0.4871  0.1328
 5629ntf    fn427728   2.281   2.322   4.244 -0.2631  0.1547  0.4362
 5629ntf    on527729   2.303   2.062   4.101  0.0474  0.4740  0.4419
 5629ntf    on527730   2.253   2.182   3.893 -0.2800 -0.8437  0.2213
 5629ntf    on527731   2.520   2.122   3.791 -0.1204  0.0113 -0.3665
 5629ntf    on527732   2.698   2.242   3.913 -0.1581  0.7356 -0.4291
 5629ntf    fn427733   2.532   2.486   3.886  0.6999  0.4563 -0.3262
 5629ntf    fn427734   2.584   2.411   3.695 -0.1865  0.3913 -0.0776
 5629ntf    fn427735   2.392   2.400   3.770  0.5164  0.3593 -0.2783
 5630ntf    cn127736   6.754   2.151   7.119  0.1582  0.1342 -0.0302
 5630ntf    sn227737   6.677   1.992   7.161  0.1495  0.0700 -0.2890
 5630ntf    nn327738   6.621   1.939   7.024 -0.1034 -0.3850 -0.0124
 5630ntf    sn227739   6.479   1.955   6.960 -0.0396  0.0421 -0.0522
 5630ntf    cn127740   6.385   1.822   7.040 -0.0788 -0.1680 -0.4409
 5630ntf    fn427741   6.806   2.212   7.225 -0.3228  0.1639  0.1905
 5630ntf    fn427742   6.858   2.129   7.040  0.2180  0.1258  0.0513
 5630ntf    fn427743   6.667   2.233   7.062 -0.0882 -0.1100 -0.0085
 5630ntf    on527744   6.788   1.914   7.210  0.1977  0.3229  0.0029
 5630ntf    on527745   6.576   2.009   7.262 -0.1502 -0.2319 -0.5345
 5630ntf    on527746   6.471   1.915   6.821 -0.1581 -0.0849 -0.0101
 5630ntf    on527747   6.400   2.069   6.997 -0.7052 -0.4004 -0.0853
 5630ntf    fn427748   6.427   1.697   7.025  0.0326 -0.2263  0.3048
 5630ntf    fn427749   6.382   1.835   7.172 -0.1031  0.6367 -0.5155
 5630ntf    fn427750   6.255   1.818   7.014 -0.2250 -0.2698  0.2627
 5631ntf    cn127751   4.572   2.640   7.168 -0.1264 -0.3914 -0.2829
 5631ntf    sn227752   4.727   2.690   7.088 -0.1024  0.2188  0.1348
 5631ntf    nn327753   4.669   2.778   6.972 -0.2377  0.0618  0.0817
 5631ntf    sn227754   4.678   2.759   6.816  0.3278 -0.0234  0.1228
 5631ntf    cn127755   4.539   2.862   6.762  0.3711 -0.2912 -0.5038
 5631ntf    fn427756   4.509   2.744   7.222  0.6918  0.0011 -0.0735
 5631ntf    fn427757   4.489   2.575   7.088  0.2515 -0.5556 -0.5403
 5631ntf    fn427758   4.589   2.562   7.274  0.5158  0.1860  0.0450
 5631ntf    on527759   4.797   2.766   7.188  0.0071  0.4727 -0.1338
 5631ntf    on527760   4.782   2.560   7.058  0.3740  0.2650  0.7897
 5631ntf    on527761   4.634   2.629   6.772  0.0039  0.1480 -0.0598
 5631ntf    on527762   4.797   2.818   6.760 -0.0215 -0.0399 -0.6554
 5631ntf    fn427763   4.536   2.874   6.630 -0.3660 -0.0358 -0.4685
 5631ntf    fn427764   4.422   2.812   6.798  0.1772  0.2669 -0.3337
 5631ntf    fn427765   4.540   2.984   6.815  0.5712 -0.6967  0.4414
 5632ntf    cn127766   6.748   4.032   4.859  0.2050 -0.0634  0.2070
 5632ntf    sn227767   6.710   3.992   5.033 -0.3735 -0.0750  0.0796
 5632ntf    nn327768   6.808   4.083   5.115 -0.0725 -0.1006 -0.2468
 5632ntf    sn227769   6.958   4.060   5.153 -0.0854 -0.2077 -0.2592
 5632ntf    cn127770   6.941   4.010   5.327  0.0938  0.0783 -0.1587
 5632ntf    fn427771   6.878   4.026   4.836  0.1622 -0.5351  0.0855
 5632ntf    fn427772   6.700   3.935   4.783 -0.8595  0.4008  0.2687
 5632ntf    fn427773   6.694   4.143   4.811 -0.1090 -0.2042  0.2327
 5632ntf    on527774   6.575   4.041   5.051 -0.2031  0.1375  0.8069
 5632ntf    on527775   6.724   3.849   5.042  0.6075  0.0190  0.0804
 5632ntf    on527776   7.033   4.183   5.162 -0.5152  0.0851 -0.6712
 5632ntf    on527777   7.018   3.953   5.077  0.6710 -0.1798  0.2797
 5632ntf    fn427778   6.861   3.906   5.338  0.3675 -0.0500  0.6889
 5632ntf    fn427779   7.053   3.969   5.385 -0.0854 -0.7832 -0.4101
 5632ntf    fn427780   6.895   4.108   5.403  0.4747 -0.1454  0.3726
 5633ntf    cn127781   1.337   7.146   1.954  0.1234 -0.3608  0.4201
 5633ntf    sn227782   1.171   7.074   1.937 -0.0159  0.0461  0.0610
 5633ntf    nn327783   1.086   7.205   1.920  0.1009  0.1248  0.0863
 5633ntf    sn227784   0.989   7.286   2.014 -0.1301 -0.1287  0.0695
 5633ntf    cn127785   1.089   7.435   2.045 -0.1333 -0.0245 -0.4090
 5633ntf    fn427786   1.378   7.208   1.844  0.0594  0.1386  0.6762
 5633ntf    fn427787   1.354   7.228   2.056  0.3213  0.6016 -0.3723
 5633ntf    fn427788   1.425   7.048   1.970  0.5654 -0.0866 -0.2529
 5633ntf    on527789   1.180   6.998   1.814 -0.2558  0.1213 -0.0045
 5633ntf    on527790   1.143   7.005   2.060 -0.5123 -0.6102 -0.4099
 5633ntf    on527791   0.962   7.230   2.144  0.0281  0.2059  0.2483
 5633ntf    on527792   0.871   7.329   1.943  0.2906  0.6728 -0.1611
 5633ntf    fn427793   1.210   7.407   2.092 -0.1388  0.1371 -0.2973
 5633ntf    fn427794   1.113   7.499   1.932 -0.1278  0.1898 -0.2868
 5633ntf    fn427795   1.033   7.528   2.120  0.5081  0.3312 -0.3608
 5634ntf    cn127796   6.734   3.689   4.082 -0.6932 -0.1289  0.0393
 5634ntf    sn227797   6.762   3.640   4.255 -0.2153 -0.3338 -0.0931
 5634ntf    nn327798   6.639   3.699   4.333  0.2478  0.3328  0.1346
 5634ntf    sn227799   6.651   3.810   4.444  0.0195  0.2041  0.2874
 5634ntf    cn127800   6.663   3.960   4.341 -0.4257 -0.1163 -0.2421
 5634ntf    fn427801   6.629   3.638   4.021 -0.8446  0.0599  0.1433
 5634ntf    fn427802   6.719   3.817   4.054 -0.1826 -0.0651  0.0511
 5634ntf    fn427803   6.837   3.652   4.008 -0.5595  0.4180 -0.0536
 5634ntf    on527804   6.764   3.496   4.251 -0.1463 -0.3347 -0.0302
 5634ntf    on527805   6.887   3.706   4.284 -0.3426 -0.2979  0.3779
 5634ntf    on527806   6.757   3.805   4.541  0.1362 -0.0591  0.1481
 5634ntf    on527807   6.523   3.834   4.507 -0.0954 -0.3850  0.2833
 5634ntf    fn427808   6.575   3.956   4.243 -0.3042  0.0743 -0.3571
 5634ntf    fn427809   6.637   4.070   4.410  0.4379  0.0876 -0.2356
 5634ntf    fn427810   6.781   3.969   4.283 -0.2914 -0.6752 -0.0663
 5635ntf    cn127811   5.917   2.968   7.405  0.0666 -0.1837  0.2295
 5635ntf    sn227812   5.811   3.074   7.301  0.7640  0.2457 -0.0457
 5635ntf    nn327813   5.835   3.007   7.161 -0.2205 -0.7303  0.2386
 5635ntf    sn227814   5.734   2.938   7.062 -0.2014 -0.3976 -0.0169
 5635ntf    cn127815   5.809   2.774   7.078  0.1082 -0.2652 -0.0977
 5635ntf    fn427816   6.042   3.005   7.383 -0.1796  0.4474 -0.1590
 5635ntf    fn427817   5.886   2.972   7.533 -0.2099  0.1475  0.1560
 5635ntf    fn427818   5.902   2.843   7.365  0.0037 -0.3463  0.7560
 5635ntf    on527819   5.684   3.050   7.363  0.5319 -0.0528 -0.6316
 5635ntf    on527820   5.871   3.204   7.322  0.3200  0.3857  0.3741
 5635ntf    on527821   5.763   2.981   6.928 -0.2229  0.1847  0.1598
 5635ntf    on527822   5.599   2.917   7.108 -0.1536 -0.3495  0.1466
 5635ntf    fn427823   5.940   2.777   7.057  0.1785 -0.6835  0.2587
 5635ntf    fn427824   5.796   2.716   7.197 -0.4366  0.2167  0.0801
 5635ntf    fn427825   5.755   2.696   6.986  0.3343 -0.5745  0.0269
 5636ntf    cn127826   1.955   1.229   5.684  0.0747  0.2160 -0.4927
 5636ntf    sn227827   2.078   1.117   5.611 -0.0436 -0.2252 -0.0232
 5636ntf    nn327828   2.165   1.227   5.540 -0.1497  0.0270  0.2361
 5636ntf    sn227829   2.294   1.302   5.589 -0.0431  0.0189 -0.0315
 5636ntf    cn127830   2.418   1.199   5.503  0.0386 -0.2094  0.3572
 5636ntf    fn427831   1.875   1.158   5.761  0.2974  0.3235 -0.1623
 5636ntf    fn427832   2.009   1.331   5.749  0.4668 -0.1918 -0.1694
 5636ntf    fn427833   1.879   1.285   5.591  0.2038  0.4569 -0.4541
 5636ntf    on527834   2.139   1.045   5.720  0.1854 -0.4311 -0.2856
 5636ntf    on527835   1.999   1.043   5.516 -0.3834 -0.1763  0.2191
 5636ntf    on527836   2.323   1.295   5.730  0.0397  0.2627 -0.0360
 5636ntf    on527837   2.317   1.430   5.528  0.0652  0.5627  1.1276
 5636ntf    fn427838   2.417   1.217   5.372  0.0786 -0.1620  0.3635
 5636ntf    fn427839   2.540   1.224   5.547  0.0614 -0.0263  0.1896
 5636ntf    fn427840   2.405   1.068   5.504  0.1731 -0.2245 -0.0727
 5637ntf    cn127841   6.755   0.462   5.588  0.1135 -0.3277 -0.0954
 5637ntf    sn227842   6.886   0.437   5.711  0.0635  0.1500  0.0551
 5637ntf    nn327843   6.792   0.424   5.836 -0.0392  0.3243 -0.0028
 5637ntf    sn227844   6.772   0.516   5.962  0.1768  0.1664  0.1480
 5637ntf    cn127845   6.599   0.566   5.939  0.1066 -0.0811  0.1318
 5637ntf    fn427846   6.660   0.370   5.599 -0.6853  0.5055  0.1439
 5637ntf    fn427847   6.702   0.582   5.602 -0.1958 -0.5030  0.2535
 5637ntf    fn427848   6.795   0.455   5.462  0.6840 -0.5573  0.0957
 5637ntf    on527849   6.950   0.317   5.665 -0.1730 -0.1261  0.4391
 5637ntf    on527850   6.966   0.557   5.701  0.1748  0.0814  0.1166
 5637ntf    on527851   6.842   0.643   5.960 -0.0245  0.2738 -0.0224
 5637ntf    on527852   6.779   0.441   6.085  0.7048 -0.3202 -0.1758
 5637ntf    fn427853   6.589   0.653   5.839  0.5561 -0.0076  0.1489
 5637ntf    fn427854   6.521   0.463   5.910 -0.4703  0.4112 -0.0748
 5637ntf    fn427855   6.543   0.621   6.045 -0.1092  0.1298 -0.0902
 5638ntf    cn127856   1.624   2.704   2.741 -0.2917 -0.1320 -0.1526
 5638ntf    sn227857   1.790   2.766   2.780 -0.3562 -0.0110 -0.0697
 5638ntf    nn327858   1.828   2.665   2.894 -0.3878 -0.0975 -0.1357
 5638ntf    sn227859   1.881   2.682   3.041 -0.0557  0.2164 -0.2881
 5638ntf    cn127860   1.725   2.720   3.127  0.2394  0.1626  0.2749
 5638ntf    fn427861   1.629   2.574   2.717  0.1245 -0.1298 -0.0787
 5638ntf    fn427862   1.528   2.726   2.830 -0.0930 -0.0458  0.0416
 5638ntf    fn427863   1.585   2.770   2.634 -0.4248  0.4611  0.2574
 5638ntf    on527864   1.866   2.753   2.658 -0.2724  0.5373 -0.0764
 5638ntf    on527865   1.767   2.903   2.817  0.1634  0.2142 -0.5670
 5638ntf    on527866   1.965   2.795   3.070 -0.4614  0.4030  0.1794
 5638ntf    on527867   1.924   2.557   3.100 -0.8205  0.1847  0.2187
 5638ntf    fn427868   1.691   2.848   3.133 -0.4783  0.0398 -0.8664
 5638ntf    fn427869   1.622   2.659   3.071  0.1767  0.3541  0.1821
 5638ntf    fn427870   1.741   2.668   3.247 -0.4172 -0.2774  0.1733
 5639ntf    cn127871   5.981   0.107   4.400 -0.0899 -0.1667  0.1573
 5639ntf    sn227872   6.038   0.257   4.485 -0.0250 -0.2405  0.2441
 5639ntf    nn327873   6.192   0.233   4.503  0.0407  0.1158  0.1778
 5639ntf    sn227874   6.261   0.145   4.613 -0.1969 -0.2575  0.0317
 5639ntf    cn127875   6.316   0.269   4.734  0.2786 -0.7014  0.2726
 5639ntf    fn427876   6.019  -0.006   4.457 -0.1169 -0.4293 -0.3368
 5639ntf    fn427877   5.848   0.110   4.395 -0.0706 -0.2486 -0.5104
 5639ntf    fn427878   6.025   0.089   4.276  0.1599  0.3114  0.1736
 5639ntf    on527879   6.020   0.357   4.383 -0.2081 -0.3361  0.1824
 5639ntf    on527880   5.949   0.261   4.598 -0.2053  0.0869  0.0936
 5639ntf    on527881   6.385   0.090   4.565 -0.2481 -0.2716 -0.0835
 5639ntf    on527882   6.179   0.067   4.703  0.0717  0.1757  0.6533
 5639ntf    fn427883   6.393   0.221   4.830  0.1609 -0.6069  0.4150
 5639ntf    fn427884   6.390   0.359   4.672 -0.1281 -0.2056  0.5062
 5639ntf    fn427885   6.211   0.330   4.787  0.6602  0.2927 -0.1136
 5640ntf    cn127886   7.216   4.530   3.299 -0.3840  0.2276 -0.0086
 5640ntf    sn227887   7.053   4.610   3.290 -0.5649 -0.1867 -0.5064
 5640ntf    nn327888   7.092   4.747   3.356  0.6426 -0.6080 -0.3197
 5640ntf    sn227889   7.187   4.858   3.298  0.0044 -0.0850 -0.3762
 5640ntf    cn127890   7.061   4.989   3.304  0.0532 -0.0414 -0.3205
 5640ntf    fn427891   7.265   4.533   3.422 -0.9520  0.3421  0.2189
 5640ntf    fn427892   7.209   4.402   3.263  0.0070  0.1179  0.3006
 5640ntf    fn427893   7.303   4.586   3.217  0.1158 -0.3758  0.1006
 5640ntf    on527894   7.028   4.597   3.149  0.1412 -0.0555 -0.6486
 5640ntf    on527895   6.974   4.526   3.376 -0.4009  0.2331  0.0606
 5640ntf    on527896   7.221   4.840   3.159 -0.2858 -0.1197 -0.4436
 5640ntf    on527897   7.289   4.892   3.394 -0.1965  0.4356 -0.3449
 5640ntf    fn427898   6.951   4.946   3.244 -0.0416 -0.0065 -0.1741
 5640ntf    fn427899   7.031   5.033   3.425 -0.3937 -0.5842 -0.2290
 5640ntf    fn427900   7.098   5.098   3.239  0.6147  0.2283  0.4368
 5641ntf    cn127901   4.628   3.617   1.190 -0.3928  0.0954  0.3369
 5641ntf    sn227902   4.708   3.691   1.044 -0.2320 -0.2659  0.2404
 5641ntf    nn327903   4.625   3.823   1.018  0.2619 -0.0195 -0.1016
 5641ntf    sn227904   4.491   3.841   0.939  0.0914 -0.3741  0.1032
 5641ntf    cn127905   4.364   3.820   1.067 -0.0955 -0.0170 -0.0224
 5641ntf    fn427906   4.706   3.529   1.250 -0.1788 -0.1642 -0.3146
 5641ntf    fn427907   4.585   3.701   1.283  0.3893  0.3613  0.4734
 5641ntf    fn427908   4.528   3.540   1.152 -0.1871 -0.0438  0.0690
 5641ntf    on527909   4.842   3.725   1.084 -0.0403 -0.4548 -0.2328
 5641ntf    on527910   4.696   3.597   0.935  0.2563  0.4484 -0.4422
 5641ntf    on527911   4.460   3.743   0.838 -0.3507 -0.0829 -0.0471
 5641ntf    on527912   4.483   3.975   0.888 -0.2438 -0.3094  0.3283
 5641ntf    fn427913   4.345   3.927   1.142  0.3362  0.0034  0.0568
 5641ntf    fn427914   4.247   3.790   1.012  0.1531 -0.6961 -0.2012
 5641ntf    fn427915   4.383   3.717   1.148 -0.1193  0.1899  0.2472
 5642ntf    cn127916   2.749   3.078   5.185 -0.0024 -0.2769 -0.2368
 5642ntf    sn227917   2.604   3.116   5.288  0.1057 -0.1100 -0.1450
 5642ntf    nn327918   2.494   3.118   5.176  0.1097  0.7016 -0.1375
 5642ntf    sn227919   2.400   2.999   5.135  0.3502  0.4517  0.0358
 5642ntf    cn127920   2.278   3.004   5.270  0.0544 -0.2418 -0.2037
 5642ntf    fn427921   2.751   2.957   5.132  0.3301 -0.3763 -0.0034
 5642ntf    fn427922   2.763   3.166   5.088 -0.0238 -0.3811 -0.3350
 5642ntf    fn427923   2.857   3.083   5.262 -0.2565  0.4257  0.0777
 5642ntf    on527924   2.592   3.007   5.382 -0.1596  0.2066  0.1890
 5642ntf    on527925   2.621   3.247   5.345  0.0454 -0.1346 -0.0708
 5642ntf    on527926   2.459   2.868   5.144 -0.3478  0.1156 -0.2079
 5642ntf    on527927   2.325   3.022   5.014 -0.4241 -0.1175  0.3983
 5642ntf    fn427928   2.325   3.029   5.391 -0.2338  0.1691 -0.1731
 5642ntf    fn427929   2.188   3.098   5.246 -0.0202 -0.3719 -0.4290
 5642ntf    fn427930   2.215   2.888   5.279 -0.5185  0.0935  0.2225
 5643ntf    cn127931   1.763   0.656   1.091  0.2211 -0.1300 -0.0328
 5643ntf    sn227932   1.589   0.616   1.125  0.1853  0.0925  0.0453
 5643ntf    nn327933   1.572   0.720   1.241 -0.1150 -0.0004  0.0852
 5643ntf    sn227934   1.464   0.831   1.270  0.1081  0.2357  0.0154
 5643ntf    cn127935   1.564   0.973   1.215  0.0720  0.2670  0.0315
 5643ntf    fn427936   1.830   0.678   1.203  0.0140 -0.5046  0.1643
 5643ntf    fn427937   1.824   0.559   1.024 -0.0438  0.0182 -0.4956
 5643ntf    fn427938   1.772   0.763   1.014  0.0945  0.0191  0.1588
 5643ntf    on527939   1.520   0.644   1.001 -0.5538 -0.4928  0.3191
 5643ntf    on527940   1.596   0.477   1.161  0.1916  0.2363  0.6082
 5643ntf    on527941   1.448   0.850   1.411 -0.2133 -0.0363  0.0175
 5643ntf    on527942   1.353   0.831   1.178  0.1919  0.2316 -0.0872
 5643ntf    fn427943   1.672   0.983   1.291 -0.2164 -0.6306  0.5812
 5643ntf    fn427944   1.611   0.948   1.094  0.0889 -0.3502  0.1627
 5643ntf    fn427945   1.501   1.089   1.220 -0.1660  0.1308  0.2056
 5644ntf    cn127946   3.570   4.441   4.007 -0.0815 -0.1483 -0.5031
 5644ntf    sn227947   3.752   4.447   4.001 -0.0797  0.2744 -0.1489
 5644ntf    nn327948   3.783   4.571   4.092 -0.0351  0.2849 -0.1787
 5644ntf    sn227949   3.911   4.609   4.175  0.0180 -0.3338  0.0359
 5644ntf    cn127950   3.850   4.578   4.343 -0.1838  0.1256  0.0502
 5644ntf    fn427951   3.522   4.420   4.128  0.0100  0.5647 -0.3324
 5644ntf    fn427952   3.519   4.558   3.972 -0.0678 -0.0178 -0.0951
 5644ntf    fn427953   3.514   4.348   3.933 -0.2081 -0.2767 -0.2434
 5644ntf    on527954   3.784   4.322   4.065 -0.2750  0.4149  0.2270
 5644ntf    on527955   3.782   4.468   3.861  0.2957 -0.0676 -0.1228
 5644ntf    on527956   3.930   4.752   4.175  0.0736 -0.3412  0.0594
 5644ntf    on527957   4.028   4.526   4.161  0.0929 -0.0952 -0.8489
 5644ntf    fn427958   3.803   4.454   4.346  0.3765 -0.0947 -0.1056
 5644ntf    fn427959   3.945   4.584   4.434  0.0585 -0.1512 -0.1810
 5644ntf    fn427960   3.754   4.667   4.364 -0.0130  0.2577  0.2749
 5645ntf    cn127961   2.860   0.175   0.169 -0.1555  0.4476  0.1188
 5645ntf    sn227962   3.025   0.251   0.157 -0.0064  0.1095  0.0140
 5645ntf    nn327963   2.984   0.385   0.086  0.2142  0.1829  0.0252
 5645ntf    sn227964   2.976   0.414  -0.067 -0.5831 -0.2129 -0.0103
 5645ntf    cn127965   3.142   0.479  -0.099 -0.5332 -0.3542 -0.0367
 5645ntf    fn427966   2.762   0.260   0.195 -0.6739 -0.0541 -0.1705
 5645ntf    fn427967   2.819   0.117   0.058 -0.6292 -0.0375  0.5398
 5645ntf    fn427968   2.845   0.078   0.259 -0.2519 -0.0493 -0.4262
 5645ntf    on527969   3.057   0.267   0.297 -0.3121 -0.2501  0.1276
 5645ntf    on527970   3.097   0.155   0.077  0.0003  0.0640  0.0742
 5645ntf    on527971   2.884   0.524  -0.086  0.0860  0.3322 -0.1174
 5645ntf    on527972   2.965   0.301  -0.157  0.5169 -0.0889 -0.3179
 5645ntf    fn427973   3.232   0.409  -0.032 -0.6503 -0.2405  0.2382
 5645ntf    fn427974   3.168   0.474  -0.229 -0.0813  0.1383  0.0296
 5645ntf    fn427975   3.172   0.605  -0.072 -0.1980 -0.4407 -0.0017
 5646ntf    cn127976   5.860   2.619   1.764 -0.2975 -0.0341 -0.0053
 5646ntf    sn227977   5.768   2.626   1.607 -0.2551  0.4105 -0.0133
 5646ntf    nn327978   5.681   2.756   1.615 -0.3231  0.3874 -0.3871
 5646ntf    sn227979   5.569   2.775   1.723  0.1746  0.0185  0.2003
 5646ntf    cn127980   5.418   2.775   1.622  0.2677 -0.3890  0.0601
 5646ntf    fn427981   5.969   2.545   1.756 -0.0302  0.3259  0.2462
 5646ntf    fn427982   5.898   2.736   1.812 -0.0506 -0.1136 -0.0066
 5646ntf    fn427983   5.787   2.559   1.856 -0.1038 -0.2117  0.0343
 5646ntf    on527984   5.870   2.640   1.507  0.0120  0.1769  0.2236
 5646ntf    on527985   5.694   2.502   1.597  0.1612  0.1731 -0.1688
 5646ntf    on527986   5.571   2.909   1.777 -0.9479 -0.2247  0.8862
 5646ntf    on527987   5.542   2.664   1.812 -0.4648  0.3955  0.4861
 5646ntf    fn427988   5.413   2.879   1.540 -0.1797 -0.1561  0.3817
 5646ntf    fn427989   5.401   2.665   1.550 -0.2140 -0.2011 -0.1168
 5646ntf    fn427990   5.315   2.788   1.704  0.3528  0.0403  0.1031
 5647ntf    cn127991   0.762   4.945   6.452  0.1212  0.0874 -0.0316
 5647ntf    sn227992   0.774   4.849   6.298  0.1524  0.0047  0.0228
 5647ntf    nn327993   0.872   4.735   6.344  0.0250  0.1490  0.6695
 5647ntf    sn227994   1.028   4.738   6.355  0.0533  0.1099  0.2897
 5647ntf    cn127995   1.070   4.632   6.214 -0.3701  0.2946  0.0232
 5647ntf    fn427996   0.676   5.045   6.448 -0.2129 -0.1965  0.0435
 5647ntf    fn427997   0.721   4.864   6.548  0.0656 -0.0243 -0.1505
 5647ntf    fn427998   0.880   4.992   6.493  0.0108 -0.2518  0.7015
 5647ntf    on527999   0.640   4.801   6.276  0.1090 -0.0179  0.3299
 5647ntf    on528000   0.824   4.943   6.201 -0.5399 -0.5263 -0.8613
 5647ntf    on528001   1.063   4.650   6.464 -0.0779 -0.2325  0.0576
 5647ntf    on528002   1.101   4.862   6.343  0.1382  0.0828  0.5314
 5647ntf    fn428003   1.194   4.638   6.168 -0.5456 -0.3491 -0.5572
 5647ntf    fn428004   1.048   4.504   6.239  0.2003  0.2160  0.1326
 5647ntf    fn428005   0.988   4.657   6.113 -0.4735  0.5920  0.1793
 5648ntf    cn128006   1.749   0.966   2.690  0.4100  0.2003  0.2527
 5648ntf    sn228007   1.913   0.994   2.616  0.3504 -0.0123  0.0401
 5648ntf    nn328008   1.980   1.081   2.728 -0.4767 -0.3320  0.7936
 5648ntf    sn228009   1.982   1.236   2.750  0.0585 -0.2410  0.1274
 5648ntf    cn128010   2.154   1.266   2.699 -0.2240  0.5087 -0.3921
 5648ntf    fn428011   1.758   0.921   2.814 -0.0937  0.5438  0.4179
 5648ntf    fn428012   1.684   1.081   2.699  0.0243  0.0399 -0.4900
 5648ntf    fn428013   1.668   0.886   2.623  0.4480  0.1847  0.2257
 5648ntf    on528014   1.983   0.868   2.616  0.6792  0.1680  0.4893
 5648ntf    on528015   1.888   1.056   2.488  1.0889  0.5467  0.1591
 5648ntf    on528016   1.979   1.275   2.889  0.4525 -0.2841  0.1481
 5648ntf    on528017   1.902   1.318   2.662  0.1616 -0.1999  0.0718
 5648ntf    fn428018   2.191   1.393   2.708 -0.1076  0.5135 -0.9107
 5648ntf    fn428019   2.241   1.204   2.776  0.0361  0.7381 -0.4977
 5648ntf    fn428020   2.167   1.221   2.575  0.1400 -0.2908 -0.0687
 5649ntf    cn128021   0.259   6.924   0.043  0.0553 -0.5189  0.3434
 5649ntf    sn228022   0.232   6.811  -0.097  0.1763 -0.1470  0.0160
 5649ntf    nn328023   0.298   6.889  -0.216 -0.1889  0.3743  0.1507
 5649ntf    sn228024   0.385   6.838  -0.337 -0.3062 -0.0715  0.2522
 5649ntf    cn128025   0.527   6.939  -0.286 -0.3503  0.2418 -0.2387
 5649ntf    fn428026   0.186   7.034   0.036  0.6863 -0.1154  0.0243
 5649ntf    fn428027   0.221   6.866   0.155 -0.2198 -0.0366  0.5005
 5649ntf    fn428028   0.379   6.978   0.059 -0.2412  0.2623 -0.0029
 5649ntf    on528029   0.298   6.690  -0.054  0.4058 -0.0308 -0.0097
 5649ntf    on528030   0.089   6.805  -0.112  0.1474  0.3650  0.0656
 5649ntf    on528031   0.343   6.902  -0.459  0.3748 -0.0776  0.0131
 5649ntf    on528032   0.422   6.699  -0.339 -0.2428 -0.0600  0.5713
 5649ntf    fn428033   0.640   6.910  -0.348 -0.2716  0.2758 -0.1137
 5649ntf    fn428034   0.508   7.070  -0.291  0.1636  0.3250 -0.0462
 5649ntf    fn428035   0.560   6.915  -0.160 -0.1647 -0.4396 -0.4121
 5650ntf    cn128036   6.380   2.412   0.606  0.2533  0.0027  0.2976
 5650ntf    sn228037   6.378   2.354   0.778  0.1878 -0.1562  0.2441
 5650ntf    nn328038   6.480   2.448   0.852 -0.2582  0.6781 -0.1857
 5650ntf    sn228039   6.454   2.531   0.982 -0.2229  0.1876  0.1354
 5650ntf    cn128040   6.502   2.401   1.099  0.0460  0.1555 -0.0113
 5650ntf    fn428041   6.282   2.362   0.532  0.0237  0.3128  0.3863
 5650ntf    fn428042   6.371   2.544   0.601 -0.3782 -0.0438  0.1247
 5650ntf    fn428043   6.489   2.368   0.547  0.3328  0.2191  0.2817
 5650ntf    on528044   6.238   2.375   0.808  0.0083 -0.0446 -0.6349
 5650ntf    on528045   6.434   2.223   0.759 -0.0032 -0.2048  0.0232
 5650ntf    on528046   6.321   2.572   1.023 -0.3376 -0.3163  0.2738
 5650ntf    on528047   6.557   2.631   0.989 -0.1689  0.1443 -0.0617
 5650ntf    fn428048   6.480   2.438   1.224 -0.3560  0.2370 -0.1045
 5650ntf    fn428049   6.439   2.287   1.074 -0.1851  0.1261  0.6749
 5650ntf    fn428050   6.630   2.368   1.096  0.0321  0.1006  0.0007
 5651ntf    cn128051   5.787   6.301   7.451  0.0282  0.2480 -0.5606
 5651ntf    sn228052   5.660   6.408   7.377 -0.2524  0.1520 -0.2229
 5651ntf    nn328053   5.568   6.307   7.299 -0.4439  0.0129  0.1812
 5651ntf    sn228054   5.418   6.330   7.261 -0.3853  0.0521 -0.0250
 5651ntf    cn128055   5.338   6.230   7.391  0.1494 -0.0831  0.1996
 5651ntf    fn428056   5.860   6.355   7.546  0.3181 -0.1806 -0.5366
 5651ntf    fn428057   5.734   6.189   7.497  0.0248  0.2731 -0.5019
 5651ntf    fn428058   5.875   6.256   7.364 -0.1708 -0.7916 -0.2388
 5651ntf    on528059   5.596   6.466   7.493  0.2147  0.0544  0.0887
 5651ntf    on528060   5.747   6.486   7.292  0.2745 -0.1542  0.0337
 5651ntf    on528061   5.377   6.256   7.144 -0.3950 -0.0287  0.0289
 5651ntf    on528062   5.364   6.460   7.289 -0.4413 -0.0499  0.3454
 5651ntf    fn428063   5.206   6.232   7.389  0.1559 -0.0699 -0.4629
 5651ntf    fn428064   5.376   6.105   7.372  0.0330 -0.1881  0.6541
 5651ntf    fn428065   5.377   6.259   7.514 -0.0891 -0.4518  0.3619
 5652ntf    cn128066   5.454   5.135   2.116  0.2094 -0.0352 -0.2659
 5652ntf    sn228067   5.394   5.185   1.951 -0.2851  0.0898 -0.0523
 5652ntf    nn328068   5.243   5.150   1.971 -0.3582  0.4149 -0.0370
 5652ntf    sn228069   5.149   5.038   1.913  0.3687 -0.1680 -0.1111
 5652ntf    cn128070   5.114   4.953   2.070 -0.0294  0.1748 -0.0098
 5652ntf    fn428071   5.465   5.005   2.134  0.1906 -0.0081 -0.0624
 5652ntf    fn428072   5.571   5.192   2.138 -0.1137  0.3972  0.3479
 5652ntf    fn428073   5.380   5.176   2.218  0.3042  0.4483 -0.3891
 5652ntf    on528074   5.413   5.327   1.943 -0.6818  0.1545  0.1325
 5652ntf    on528075   5.473   5.103   1.862  0.0763 -0.1985  0.5256
 5652ntf    on528076   5.197   4.942   1.818 -0.2581 -0.7638  0.1691
 5652ntf    on528077   5.020   5.092   1.876  0.0654 -0.6714  0.1991
 5652ntf    fn428078   5.227   4.896   2.108 -0.2253 -0.1357  0.1135
 5652ntf    fn428079   5.065   5.026   2.168  0.4235  0.4917 -0.0155
 5652ntf    fn428080   5.028   4.857   2.040  0.0085  0.2620 -0.4060
 5653ntf    cn128081   5.840   1.713   5.513 -0.1762 -0.3464  0.2309
 5653ntf    sn228082   5.949   1.795   5.393 -0.3289 -0.0792  0.2740
 5653ntf    nn328083   5.981   1.933   5.459  0.2148 -0.2278  0.3211
 5653ntf    sn228084   6.054   2.057   5.395  0.0020 -0.2393  0.0574
 5653ntf    cn128085   6.230   2.030   5.433  0.0557  0.1492  0.0830
 5653ntf    fn428086   5.887   1.719   5.637 -0.1410  0.3395  0.1902
 5653ntf    fn428087   5.714   1.752   5.509 -0.0647  0.0511  0.4967
 5653ntf    fn428088   5.825   1.585   5.482 -0.9189 -0.1058 -0.4346
 5653ntf    on528089   6.069   1.717   5.379 -0.2013  0.1169  0.2795
 5653ntf    on528090   5.859   1.814   5.282 -0.1442  0.3179  0.1917
 5653ntf    on528091   6.024   2.179   5.466  0.1765 -0.0892 -0.1240
 5653ntf    on528092   6.052   2.070   5.251 -0.5157  0.4178  0.1202
 5653ntf    fn428093   6.271   1.905   5.421  0.2834  0.2325 -0.0040
 5653ntf    fn428094   6.296   2.098   5.341  0.4732 -0.3283  0.0263
 5653ntf    fn428095   6.276   2.066   5.552  0.1263  0.1733  0.0491
 5654ntf    cn128096   7.469   5.337   4.905  0.4669 -0.1286  0.0990
 5654ntf    sn228097   7.360   5.214   4.827  0.0041  0.2847  0.0945
 5654ntf    nn328098   7.392   5.089   4.917  0.1805  0.0006 -0.3639
 5654ntf    sn228099   7.464   4.955   4.879  0.4607 -0.0302  0.2723
 5654ntf    cn128100   7.626   4.989   4.955  0.4010  0.4215  0.2015
 5654ntf    fn428101   7.422   5.457   4.876  0.3082 -0.1405  0.3087
 5654ntf    fn428102   7.483   5.321   5.035  0.6358 -0.4059  0.0482
 5654ntf    fn428103   7.595   5.331   4.862  0.6341 -0.1155  0.5849
 5654ntf    on528104   7.230   5.266   4.863 -0.1159 -0.1181  0.2546
 5654ntf    on528105   7.407   5.216   4.691 -0.0184  0.4242  0.0886
 5654ntf    on528106   7.497   4.942   4.739  0.2219 -0.0729  0.2206
 5654ntf    on528107   7.406   4.841   4.946  0.0539 -0.1336 -0.2462
 5654ntf    fn428108   7.716   4.899   4.919 -0.1190 -0.0187 -0.0238
 5654ntf    fn428109   7.675   5.105   4.915 -0.0148  0.3897 -0.4151
 5654ntf    fn428110   7.612   4.983   5.087  0.3530 -0.0197  0.1795
 5655ntf    cn128111   4.488   4.216   3.075 -0.6196  0.0252  0.2853
 5655ntf    sn228112   4.395   4.156   2.931 -0.3992 -0.1460  0.2142
 5655ntf    nn328113   4.425   4.263   2.819 -0.0988 -0.7721 -0.3083
 5655ntf    sn228114   4.325   4.326   2.717 -0.0960  0.2487  0.3101
 5655ntf    cn128115   4.290   4.181   2.613 -0.3159  0.3457  0.2478
 5655ntf    fn428116   4.451   4.339   3.105 -0.6220  0.1458 -0.2139
 5655ntf    fn428117   4.457   4.140   3.180  0.1012 -0.6097  0.0492
 5655ntf    fn428118   4.619   4.211   3.056 -0.6427  0.0431  0.1190
 5655ntf    on528119   4.457   4.034   2.885 -0.6170 -0.1200 -0.1535
 5655ntf    on528120   4.257   4.157   2.971 -0.4248  0.2791  0.1264
 5655ntf    on528121   4.395   4.411   2.623 -0.1934 -0.0134 -0.0035
 5655ntf    on528122   4.201   4.378   2.768 -0.2559  0.3471 -0.1704
 5655ntf    fn428123   4.396   4.123   2.560 -0.2345  0.1361  0.6372
 5655ntf    fn428124   4.228   4.083   2.677 -0.7684  0.4213 -0.0648
 5655ntf    fn428125   4.216   4.206   2.506  0.1007  0.0871 -0.1077
 5656ntf    cn128126   0.987   1.872   2.172 -0.2124  0.2845 -0.1641
 5656ntf    sn228127   1.052   2.006   2.276  0.0219 -0.0932  0.1776
 5656ntf    nn328128   1.049   2.122   2.171 -0.2788 -0.4633 -0.2296
 5656ntf    sn228129   0.965   2.255   2.177  0.0495 -0.2588 -0.1011
 5656ntf    cn128130   0.794   2.207   2.215  0.1566 -0.4409  0.1493
 5656ntf    fn428131   0.877   1.906   2.106 -0.3571  0.1357  0.0002
 5656ntf    fn428132   1.072   1.823   2.083 -0.6342  0.1162 -0.4814
 5656ntf    fn428133   0.952   1.765   2.241 -0.5293  0.2707 -0.3437
 5656ntf    on528134   0.963   2.010   2.389 -0.3100 -0.7445 -0.0549
 5656ntf    on528135   1.184   1.949   2.290  0.2938  0.5892  0.4158
 5656ntf    on528136   0.949   2.320   2.049 -0.1753  0.0790  0.0974
 5656ntf    on528137   1.007   2.344   2.281 -0.3285 -0.4233  0.1938
 5656ntf    fn428138   0.711   2.306   2.184  0.3497 -0.4841 -0.5104
 5656ntf    fn428139   0.752   2.095   2.158 -0.0265 -0.1904 -0.2075
 5656ntf    fn428140   0.772   2.194   2.345 -0.2925  0.5304  0.1803
 5657ntf    cn128141   3.065   4.662   4.476  0.1794  0.0504  0.0454
 5657ntf    sn228142   2.929   4.740   4.568  0.2170  0.0489  0.1016
 5657ntf    nn328143   3.005   4.868   4.618  0.2697  0.0439  0.0342
 5657ntf    sn228144   3.082   4.979   4.539  0.1120 -0.0637 -0.2740
 5657ntf    cn128145   2.963   5.115   4.563  0.0019 -0.2254  0.1037
 5657ntf    fn428146   3.045   4.533   4.458  0.5047  0.0483 -0.3178
 5657ntf    fn428147   3.072   4.722   4.358 -0.1760  0.3246  0.1609
 5657ntf    fn428148   3.182   4.676   4.535 -0.1667  0.0816  0.7341
 5657ntf    on528149   2.822   4.764   4.475 -0.0599  0.0243  0.4108
 5657ntf    on528150   2.890   4.642   4.668 -0.3631  0.1654 -0.0070
 5657ntf    on528151   3.073   4.980   4.395 -0.6831  0.4804 -0.2331
 5657ntf    on528152   3.204   5.025   4.602  0.1078 -0.6349  0.1600
 5657ntf    fn428153   2.852   5.101   4.494 -0.1166 -0.1660  0.2806
 5657ntf    fn428154   2.920   5.119   4.688  0.0039 -0.3201  0.1075
 5657ntf    fn428155   3.023   5.229   4.534 -0.0817 -0.1781  0.1188
 5658ntf    cn128156   4.516   0.756   5.617  0.3186  0.1263 -0.2972
 5658ntf    sn228157   4.657   0.677   5.533  0.0317 -0.2575 -0.4231
 5658ntf    nn328158   4.595   0.637   5.394 -0.1732 -0.7286 -0.1973
 5658ntf    sn228159   4.599   0.725   5.265 -0.0004  0.0896  0.3569
 5658ntf    cn128160   4.483   0.636   5.157  0.2049  0.1595  0.0764
 5658ntf    fn428161   4.489   0.875   5.567  0.2634  0.4187  0.4282
 5658ntf    fn428162   4.407   0.681   5.611  0.0491  0.4909  0.0520
 5658ntf    fn428163   4.541   0.779   5.745 -0.6533 -0.3282 -0.0141
 5658ntf    on528164   4.764   0.773   5.539  0.1472 -0.4427  0.6100
 5658ntf    on528165   4.681   0.559   5.612  0.1290 -0.0563 -0.1520
 5658ntf    on528166   4.725   0.712   5.194 -0.0841  0.2139  0.1839
 5658ntf    on528167   4.543   0.857   5.272  0.2609  0.2377 -0.2489
 5658ntf    fn428168   4.463   0.692   5.038 -0.2987  0.0843  0.1208
 5658ntf    fn428169   4.520   0.514   5.124 -0.3113  0.1141 -0.3525
 5658ntf    fn428170   4.360   0.633   5.206  0.0882  0.3754 -0.1932
 5659ntf    cn128171   1.617   1.816   6.128 -0.1855  0.3277 -0.1181
 5659ntf    sn228172   1.737   1.907   6.026 -0.0111  0.3703  0.1226
 5659ntf    nn328173   1.647   1.929   5.898 -0.2942 -0.0644  0.2429
 5659ntf    sn228174   1.667   2.024   5.774  0.1242  0.1195  0.4474
 5659ntf    cn128175   1.564   2.164   5.826 -0.1545 -0.0417  0.3347
 5659ntf    fn428176   1.649   1.837   6.255  0.1826  0.1023 -0.1726
 5659ntf    fn428177   1.490   1.853   6.128 -0.5127 -0.7427 -0.1298
 5659ntf    fn428178   1.627   1.685   6.110  0.7278  0.3909 -0.1110
 5659ntf    on528179   1.757   2.028   6.101  0.0397  0.3527  0.1371
 5659ntf    on528180   1.844   1.812   6.009 -0.4337 -0.0669 -0.1288
 5659ntf    on528181   1.606   1.972   5.655  0.4822  0.1311  0.2572
 5659ntf    on528182   1.798   2.082   5.764  0.2164 -0.1132  0.2811
 5659ntf    fn428183   1.624   2.226   5.927 -0.0302 -0.0491  0.2653
 5659ntf    fn428184   1.556   2.253   5.728  0.0357  0.2586  0.5882
 5659ntf    fn428185   1.438   2.131   5.849 -0.1284 -0.2639  0.1556
 5660ntf    cn128186   6.518   5.649   3.848 -0.2593 -0.0248  0.2589
 5660ntf    sn228187   6.598   5.812   3.847  0.1957 -0.2455  0.4624
 5660ntf    nn328188   6.703   5.791   3.962 -0.3416 -0.5028  0.9079
 5660ntf    sn228189   6.806   5.893   4.022  0.0090 -0.1436 -0.2800
 5660ntf    cn128190   6.702   5.974   4.148  0.0009 -0.2647 -0.2089
 5660ntf    fn428191   6.446   5.626   3.739  0.2606 -0.3509 -0.0224
 5660ntf    fn428192   6.601   5.547   3.867 -0.1935  0.0375  0.3066
 5660ntf    fn428193   6.437   5.642   3.952 -0.2247 -0.3393  0.2658
 5660ntf    on528194   6.664   5.825   3.720  0.0569  0.4298  0.4552
 5660ntf    on528195   6.499   5.912   3.879  0.2777  0.2871 -0.8906
 5660ntf    on528196   6.844   6.008   3.945 -0.1318 -0.2119 -0.4526
 5660ntf    on528197   6.905   5.827   4.102 -0.3763  0.3163  0.5981
 5660ntf    fn428198   6.764   6.070   4.214  0.1191 -0.6039  0.1737
 5660ntf    fn428199   6.592   6.032   4.103  0.1208  0.3755  0.3001
 5660ntf    fn428200   6.649   5.887   4.232  0.0330 -0.5919 -0.5220
 5661ntf    cn128201   0.059   7.252   6.013  0.2035 -0.0376  0.1953
 5661ntf    sn228202   0.086   7.092   5.932  0.0557  0.0774 -0.0871
 5661ntf    nn328203  -0.039   7.089   5.837 -0.0335 -0.4579  0.0439
 5661ntf    sn228204  -0.039   7.041   5.687  0.1827  0.2774 -0.1933
 5661ntf    cn128205  -0.095   6.869   5.705 -0.0304  0.3979  0.3518
 5661ntf    fn428206  -0.066   7.270   6.054 -0.0283 -0.7339 -0.1973
 5661ntf    fn428207   0.135   7.264   6.120  0.5012  0.1508 -0.0325
 5661ntf    fn428208   0.088   7.362   5.944  0.1473 -0.1951 -0.0792
 5661ntf    on528209   0.214   7.124   5.875  0.2490  0.1333  0.3711
 5661ntf    on528210   0.078   7.009   6.050 -0.1446 -0.2494 -0.3268
 5661ntf    on528211   0.091   7.021   5.628  0.5352 -0.0662  0.6820
 5661ntf    on528212  -0.138   7.111   5.609 -0.1705 -0.1274 -0.1072
 5661ntf    fn428213   0.007   6.798   5.750  0.1874  0.5182  0.0577
 5661ntf    fn428214  -0.200   6.861   5.784 -0.0853 -0.0164  0.2360
 5661ntf    fn428215  -0.126   6.819   5.586  0.3222 -0.0762  0.4550
 5662ntf    cn128216   4.815   2.568   6.031 -0.1941  0.2557  0.3888
 5662ntf    sn228217   4.993   2.580   6.066 -0.0543 -0.1276 -0.1905
 5662ntf    nn328218   5.055   2.462   5.981  0.0849 -0.0884 -0.1432
 5662ntf    sn228219   5.119   2.460   5.838  0.2050 -0.0213 -0.0912
 5662ntf    cn128220   5.294   2.485   5.878  0.0713  0.2500  0.3263
 5662ntf    fn428221   4.801   2.554   5.900  0.0939 -0.6201  0.4452
 5662ntf    fn428222   4.764   2.460   6.089 -0.2510  0.3466  0.5095
 5662ntf    fn428223   4.738   2.673   6.053 -0.3567  0.0625  0.7649
 5662ntf    on528224   5.010   2.719   6.032 -0.3840 -0.1813 -0.5969
 5662ntf    on528225   5.006   2.544   6.205  0.2992 -0.3162 -0.2703
 5662ntf    on528226   5.084   2.567   5.748  0.6744 -0.2184 -0.5114
 5662ntf    on528227   5.109   2.327   5.783 -0.3521 -0.1435  0.2931
 5662ntf    fn428228   5.352   2.402   5.965  0.2516  0.2772  0.2330
 5662ntf    fn428229   5.367   2.478   5.768 -0.4752 -0.0631 -0.0181
 5662ntf    fn428230   5.310   2.607   5.928 -0.8462  0.2827  0.5614
 5663ntf    cn128231   4.489   1.094   2.587 -0.2084  0.1269  0.1152
 5663ntf    sn228232   4.558   0.992   2.453 -0.1747  0.3190 -0.0141
 5663ntf    nn328233   4.682   0.939   2.533 -0.3886  0.0266  0.1246
 5663ntf    sn228234   4.802   0.852   2.482 -0.1982  0.3498  0.0193
 5663ntf    cn128235   4.939   0.971   2.488  0.2540 -0.1845  0.4305
 5663ntf    fn428236   4.488   1.026   2.700  0.1958 -0.2838 -0.1213
 5663ntf    fn428237   4.546   1.212   2.605 -0.3385  0.1802  0.1758
 5663ntf    fn428238   4.363   1.130   2.570  0.0248  0.7366 -0.3851
 5663ntf    on528239   4.452   0.894   2.445  0.4922 -0.4599  0.5205
 5663ntf    on528240   4.574   1.086   2.345  0.2088  0.3885  0.1029
 5663ntf    on528241   4.797   0.808   2.345  0.8192 -0.2299  0.1562
 5663ntf    on528242   4.828   0.751   2.581 -0.6173  0.2291  0.0073
 5663ntf    fn428243   5.053   0.928   2.436  0.0763  0.0488 -0.1664
 5663ntf    fn428244   4.915   1.078   2.414  0.2882 -0.1746  0.4338
 5663ntf    fn428245   4.954   1.009   2.614  0.0768 -0.3070  0.4883
 5664ntf    cn128246   3.624   1.703   5.738  0.0161 -0.0596 -0.2356
 5664ntf    sn228247   3.680   1.709   5.910 -0.2242  0.1405 -0.1644
 5664ntf    nn328248   3.702   1.861   5.945 -0.4563  0.2251 -0.3877
 5664ntf    sn228249   3.608   1.960   6.023  0.1545  0.1718  0.4212
 5664ntf    cn128250   3.743   2.067   6.081  0.1631  0.2943  0.1750
 5664ntf    fn428251   3.527   1.787   5.705 -0.0304 -0.0381 -0.0438
 5664ntf    fn428252   3.720   1.715   5.648  0.6483  0.2529  0.4771
 5664ntf    fn428253   3.565   1.587   5.714  0.2034 -0.2266  0.1070
 5664ntf    on528254   3.579   1.641   5.987  0.1253 -0.2528 -0.0479
 5664ntf    on528255   3.809   1.643   5.908 -0.4181 -0.2382 -0.2352
 5664ntf    on528256   3.548   1.910   6.145 -0.2656  0.4535  0.3309
 5664ntf    on528257   3.524   2.032   5.932 -0.1730 -0.2115  0.4186
 5664ntf    fn428258   3.803   2.025   6.191 -0.4150  0.2445  0.4719
 5664ntf    fn428259   3.837   2.061   5.988  0.3919 -0.0178  0.4235
 5664ntf    fn428260   3.714   2.195   6.099  0.0622  0.2550  0.2930
 5665ntf    cn128261   1.384   4.790   1.586  0.0542  0.4957  0.7833
 5665ntf    sn228262   1.534   4.881   1.536  0.1557 -0.0391  0.0999
 5665ntf    nn328263   1.490   4.929   1.393 -0.0801 -0.6200 -0.0283
 5665ntf    sn228264   1.514   4.878   1.246  0.4372  0.1786 -0.2291
 5665ntf    cn128265   1.362   4.933   1.163  0.2899  0.2326  0.0740
 5665ntf    fn428266   1.352   4.694   1.501  0.1458  0.4895  0.7556
 5665ntf    fn428267   1.390   4.736   1.706  0.2335 -0.2289  0.4553
 5665ntf    fn428268   1.276   4.866   1.593  0.3482  1.0072 -0.0059
 5665ntf    on528269   1.535   4.986   1.634 -0.2989 -0.1526  0.2290
 5665ntf    on528270   1.643   4.787   1.534  0.1734 -0.0136 -0.1257
 5665ntf    on528271   1.507   4.734   1.237  0.3870  0.1250  0.5450
 5665ntf    on528272   1.619   4.949   1.177  0.1120 -0.1206 -1.0422
 5665ntf    fn428273   1.355   4.901   1.035 -0.4356  0.3659  0.0742
 5665ntf    fn428274   1.259   4.879   1.227  0.3392  0.2663  0.1817
 5665ntf    fn428275   1.336   5.061   1.182 -0.2568  0.1022  0.2535
 5666ntf    cn128276   1.715   3.118   5.525  0.2032  0.0168  0.3310
 5666ntf    sn228277   1.619   2.975   5.584  0.0813  0.0102  0.1153
 5666ntf    nn328278   1.490   2.995   5.497 -0.1356 -0.4882  0.3224
 5666ntf    sn228279   1.453   2.937   5.356 -0.0484  0.3432 -0.0458
 5666ntf    cn128280   1.382   2.777   5.404  0.4506  0.1686  0.1209
 5666ntf    fn428281   1.843   3.102   5.554  0.2888  0.4278  0.1812
 5666ntf    fn428282   1.705   3.134   5.394 -0.0424  0.1099  0.3613
 5666ntf    fn428283   1.668   3.232   5.572 -0.1612  0.0465 -0.0964
 5666ntf    on528284   1.701   2.864   5.541  0.1424 -0.1623  0.6710
 5666ntf    on528285   1.596   3.003   5.723  0.4554 -0.3061  0.2415
 5666ntf    on528286   1.556   2.905   5.260  0.1080 -0.0143  0.2427
 5666ntf    on528287   1.344   3.011   5.297 -0.4410 -0.1425  0.0682
 5666ntf    fn428288   1.470   2.693   5.455  0.0004 -0.1204  0.4299
 5666ntf    fn428289   1.294   2.804   5.499  0.1533 -0.3684  0.0053
 5666ntf    fn428290   1.317   2.720   5.304 -0.0323  0.2137  0.4059
 5667ntf    cn128291   0.199   7.457   1.790  0.0792 -0.1715  0.0811
 5667ntf    sn228292   0.216   7.370   1.631  0.2150 -0.1080  0.0603
 5667ntf    nn328293   0.123   7.455   1.538  0.2708 -0.3827 -0.2476
 5667ntf    sn228294  -0.010   7.421   1.463 -0.1528  0.0923  0.2831
 5667ntf    cn128295  -0.080   7.588   1.440  0.1138  0.1225 -0.3525
 5667ntf    fn428296   0.072   7.469   1.826  0.1932  0.0085  0.4278
 5667ntf    fn428297   0.258   7.391   1.888  0.4604  0.6767  0.4345
 5667ntf    fn428298   0.254   7.578   1.796  0.4068 -0.3318  0.2934
 5667ntf    on528299   0.359   7.379   1.615  0.1348  0.4509 -0.3636
 5667ntf    on528300   0.172   7.234   1.654  0.5241 -0.1739  0.2770
 5667ntf    on528301  -0.114   7.352   1.535 -0.0390 -0.6117 -0.2226
 5667ntf    on528302   0.002   7.362   1.332 -0.6426  0.1928  0.1910
 5667ntf    fn428303  -0.209   7.582   1.411  0.0659  0.0563 -0.1271
 5667ntf    fn428304  -0.071   7.663   1.549  0.1490 -0.0297 -0.2505
 5667ntf    fn428305  -0.007   7.651   1.350  0.1326 -0.0497 -0.4582
 5668ntf    cn128306   3.509   5.492   4.200  0.1988 -0.1501 -0.0983
 5668ntf    sn228307   3.518   5.498   4.381  0.2278 -0.1089 -0.1004
 5668ntf    nn328308   3.379   5.569   4.398  0.3579  0.1352 -0.0578
 5668ntf    sn228309   3.257   5.515   4.480  0.3466  0.1596 -0.0573
 5668ntf    cn128310   3.146   5.446   4.353  0.5355  0.1450 -0.2145
 5668ntf    fn428311   3.435   5.397   4.145  0.0914 -0.0970 -0.0457
 5668ntf    fn428312   3.450   5.598   4.147 -0.9309 -0.3752  0.6951
 5668ntf    fn428313   3.631   5.490   4.147  0.2526  0.7489 -0.0257
 5668ntf    on528314   3.540   5.364   4.429  0.9067  0.1770  0.3967
 5668ntf    on528315   3.625   5.592   4.405 -0.2670  0.2025  0.9268
 5668ntf    on528316   3.184   5.630   4.527  0.1836  0.0994 -0.1601
 5668ntf    on528317   3.292   5.412   4.575 -0.2790  0.4936  0.5474
 5668ntf    fn428318   3.098   5.531   4.265 -0.2238 -0.1611 -0.1033
 5668ntf    fn428319   3.184   5.331   4.299  0.2185 -0.2273  0.3403
 5668ntf    fn428320   3.032   5.405   4.407  0.7528  0.2528  0.3305
 5669ntf    cn128321   7.225   6.658   4.382  0.0861  0.2192 -0.1085
 5669ntf    sn228322   7.235   6.739   4.219  0.0739  0.0200 -0.2085
 5669ntf    nn328323   7.086   6.704   4.184 -0.1058 -0.0741  0.6237
 5669ntf    sn228324   6.966   6.796   4.142  0.1325 -0.0615 -0.0370
 5669ntf    cn128325   6.877   6.816   4.299 -0.0559 -0.1882 -0.1266
 5669ntf    fn428326   7.344   6.630   4.431  0.0723  0.2283 -0.0709
 5669ntf    fn428327   7.164   6.737   4.469 -0.2923  0.5221 -0.6429
 5669ntf    fn428328   7.152   6.548   4.377  0.3224  0.0536  0.1000
 5669ntf    on528329   7.266   6.872   4.265 -0.2685  0.1229 -0.2774
 5669ntf    on528330   7.329   6.661   4.142  0.3880  0.1303  0.0599
 5669ntf    on528331   6.870   6.733   4.055 -0.5811  0.6888  0.1920
 5669ntf    on528332   7.001   6.928   4.096  0.8678 -0.2710 -0.0965
 5669ntf    fn428333   6.779   6.905   4.299 -0.3665 -0.5324 -0.1516
 5669ntf    fn428334   6.826   6.700   4.335 -0.1694 -0.0747  0.0810
 5669ntf    fn428335   6.959   6.841   4.400  0.4496  0.0298 -0.5858
 5670ntf    cn128336   6.538   5.112   0.419  0.0247 -0.0325  0.2129
 5670ntf    sn228337   6.473   5.174   0.261 -0.1834  0.0727  0.3400
 5670ntf    nn328338   6.435   5.321   0.301  0.0259  0.0073  0.7915
 5670ntf    sn228339   6.292   5.375   0.337 -0.2681 -0.2523  0.0366
 5670ntf    cn128340   6.223   5.408   0.172  0.3528  0.2398 -0.1283
 5670ntf    fn428341   6.452   5.120   0.519 -0.2145 -0.3550  0.0354
 5670ntf    fn428342   6.578   4.987   0.402  0.6142  0.1504  0.2285
 5670ntf    fn428343   6.648   5.175   0.458  0.1395 -0.0356 -0.1021
 5670ntf    on528344   6.593   5.170   0.181 -0.4109 -0.5416  0.0210
 5670ntf    on528345   6.363   5.087   0.228  0.1889 -0.1529 -0.3258
 5670ntf    on528346   6.308   5.509   0.386 -0.3733 -0.1076 -0.3244
 5670ntf    on528347   6.203   5.289   0.412 -0.6543  0.1047 -0.0082
 5670ntf    fn428348   6.292   5.495   0.101 -0.1314  0.3053 -0.5237
 5670ntf    fn428349   6.226   5.298   0.098  0.0934 -0.3736  0.7566
 5670ntf    fn428350   6.097   5.450   0.170  0.1958 -0.2041  0.1753
 5671ntf    cn128351   3.026   1.961   4.625 -0.1696 -0.0494 -0.0278
 5671ntf    sn228352   2.889   1.949   4.744 -0.1899  0.0791 -0.0382
 5671ntf    nn328353   2.774   1.912   4.644 -0.3666 -0.3912  0.3335
 5671ntf    sn228354   2.621   1.930   4.671 -0.3802  0.0891 -0.0454
 5671ntf    cn128355   2.602   2.106   4.629 -0.0308  0.0748 -0.2634
 5671ntf    fn428356   3.019   2.063   4.541  0.1518  0.3188  0.3870
 5671ntf    fn428357   3.145   1.972   4.682 -0.2317  0.1382  0.0655
 5671ntf    fn428358   3.029   1.854   4.546 -0.1697 -0.0545 -0.0210
 5671ntf    on528359   2.927   1.839   4.830 -0.0118  0.0887 -0.1027
 5671ntf    on528360   2.887   2.080   4.805 -0.1726 -0.2355  0.6424
 5671ntf    on528361   2.584   1.913   4.810 -0.2209  0.0786 -0.0045
 5671ntf    on528362   2.546   1.856   4.573 -0.0358 -0.4274  0.0814
 5671ntf    fn428363   2.634   2.141   4.506 -0.0737 -0.1280 -0.3321
 5671ntf    fn428364   2.480   2.157   4.639 -0.0518  0.0550 -0.4109
 5671ntf    fn428365   2.674   2.187   4.705  0.0014 -0.0239 -0.1889
 5672ntf    cn128366   5.704   0.903   4.257 -0.1817  0.2620 -0.0188
 5672ntf    sn228367   5.711   0.988   4.418 -0.1776 -0.0290  0.1352
 5672ntf    nn328368   5.829   1.087   4.392 -0.3046  0.1094  0.0798
 5672ntf    sn228369   5.979   1.055   4.428 -0.2070  0.5135  0.0487
 5672ntf    cn128370   5.982   1.060   4.610  0.3665 -0.0954  0.0596
 5672ntf    fn428371   5.616   0.805   4.263  0.4216 -0.2794  0.1797
 5672ntf    fn428372   5.680   0.983   4.155  0.0449  0.3279 -0.0222
 5672ntf    fn428373   5.812   0.839   4.215 -0.3121  0.0994 -0.1087
 5672ntf    on528374   5.580   1.048   4.431 -0.0708  0.2638 -0.1256
 5672ntf    on528375   5.750   0.879   4.503 -0.1179  0.0970  0.2691
 5672ntf    on528376   6.062   1.167   4.394  0.3149 -0.0331 -0.5053
 5672ntf    on528377   6.030   0.926   4.389  0.1551  0.5080  0.5351
 5672ntf    fn428378   5.927   1.172   4.653  0.2354 -0.2286  0.2391
 5672ntf    fn428379   5.910   0.964   4.665 -0.2558  0.3428  0.0209
 5672ntf    fn428380   6.104   1.064   4.663 -0.0458 -0.0346  1.0171
 5673ntf    cn128381   5.960   0.189   2.284  0.1746 -0.4864  0.5182
 5673ntf    sn228382   5.862   0.340   2.266  0.2668 -0.4749  0.1075
 5673ntf    nn328383   5.716   0.284   2.282 -0.0563  0.3005 -0.0217
 5673ntf    sn228384   5.612   0.300   2.398  0.1760  0.0562  0.2229
 5673ntf    cn128385   5.565   0.471   2.359 -0.1122 -0.0494  0.0989
 5673ntf    fn428386   5.933   0.093   2.196  0.4263 -0.2340  0.1632
 5673ntf    fn428387   6.088   0.218   2.273  0.0722 -0.3121 -0.2797
 5673ntf    fn428388   5.950   0.148   2.410  0.3346  0.4519  0.8426
 5673ntf    on528389   5.907   0.421   2.376 -0.4320  0.4201 -0.2468
 5673ntf    on528390   5.888   0.390   2.133  0.2369 -0.1687  0.2145
 5673ntf    on528391   5.665   0.301   2.532 -0.0206  0.6966  0.2979
 5673ntf    on528392   5.492   0.222   2.379  0.3449 -0.0854 -0.2580
 5673ntf    fn428393   5.669   0.553   2.356 -0.0670 -0.1005  0.2958
 5673ntf    fn428394   5.510   0.478   2.239 -0.7427 -0.4420  0.3631
 5673ntf    fn428395   5.481   0.519   2.449 -0.1241  0.0797  0.0183
 5674ntf    cn128396   5.796   4.137   1.231 -0.4264 -0.1453 -0.3032
 5674ntf    sn228397   5.648   4.174   1.132 -0.3811 -0.2548 -0.4126
 5674ntf    nn328398   5.551   4.060   1.182 -0.1984 -0.1176  0.2589
 5674ntf    sn228399   5.534   3.915   1.126  0.1412 -0.0973  0.1027
 5674ntf    cn128400   5.402   3.930   1.002  0.1768 -0.7409 -0.0165
 5674ntf    fn428401   5.821   4.007   1.245 -0.3144 -0.0529  0.3786
 5674ntf    fn428402   5.908   4.192   1.187 -0.3321 -0.1485 -0.0645
 5674ntf    fn428403   5.781   4.183   1.354 -0.3853 -0.1009 -0.3154
 5674ntf    on528404   5.604   4.297   1.193  0.1126 -0.2239 -0.1129
 5674ntf    on528405   5.681   4.179   0.992  0.1737 -0.0626 -0.2772
 5674ntf    on528406   5.484   3.817   1.219  0.2568 -0.2289  0.0277
 5674ntf    on528407   5.648   3.873   1.048  0.1287 -0.0751  0.0717
 5674ntf    fn428408   5.292   3.984   1.054  0.2790 -0.8758  0.3439
 5674ntf    fn428409   5.449   4.013   0.910  0.3076 -0.3828  0.3702
 5674ntf    fn428410   5.384   3.815   0.940 -0.0359 -0.5317 -0.3461
 5675ntf    cn128411   4.640   0.512   7.285 -0.2455  0.2155  0.3123
 5675ntf    sn228412   4.491   0.557   7.379 -0.3330  0.2261  0.1673
 5675ntf    nn328413   4.556   0.548   7.521  0.0055 -0.2400 -0.0146
 5675ntf    sn228414   4.631   0.657   7.605 -0.2832  0.0759 -0.1685
 5675ntf    cn128415   4.501   0.760   7.680 -0.1034  0.1344  0.0667
 5675ntf    fn428416   4.735   0.604   7.295 -0.2950  0.3917 -0.7095
 5675ntf    fn428417   4.701   0.405   7.334  0.1173  0.2237 -0.1126
 5675ntf    fn428418   4.616   0.491   7.157  0.1385  0.4562  0.1974
 5675ntf    on528419   4.453   0.685   7.324  0.0930  0.0809 -0.4868
 5675ntf    on528420   4.421   0.437   7.338  0.4391 -0.2659  0.2534
 5675ntf    on528421   4.709   0.752   7.529 -0.0479 -0.2646 -0.3517
 5675ntf    on528422   4.694   0.591   7.717  0.2196  0.4410 -0.2315
 5675ntf    fn428423   4.396   0.691   7.721  0.1563 -0.2187  0.1351
 5675ntf    fn428424   4.538   0.831   7.785 -0.5452  0.4060  0.0453
 5675ntf    fn428425   4.463   0.856   7.596  0.0941 -0.2519 -0.4681
 5676ntf    cn128426   0.102   5.315   5.840  0.5240  0.1141  0.2018
 5676ntf    sn228427  -0.076   5.332   5.871  0.4838 -0.2768  0.1861
 5676ntf    nn328428  -0.113   5.181   5.847 -0.1617 -0.1189  0.1600
 5676ntf    sn228429  -0.165   5.109   5.718 -0.1439  0.1779 -0.0155
 5676ntf    cn128430  -0.346   5.120   5.727 -0.1370  0.2040  0.0841
 5676ntf    fn428431   0.157   5.435   5.849  0.2399  0.2562  0.0501
 5676ntf    fn428432   0.168   5.232   5.920 -0.2863 -0.4655  0.2763
 5676ntf    fn428433   0.129   5.265   5.721  0.2639  0.1781  0.1158
 5676ntf    on528434  -0.079   5.365   6.011  0.1481  0.0587  0.1033
 5676ntf    on528435  -0.111   5.429   5.770 -0.3338 -1.1427 -0.3776
 5676ntf    on528436  -0.150   4.965   5.725  0.3255  0.2121 -0.2748
 5676ntf    on528437  -0.132   5.168   5.591  0.1937 -0.4176 -0.2090
 5676ntf    fn428438  -0.385   5.244   5.750 -0.6095  0.1862 -0.6027
 5676ntf    fn428439  -0.407   5.087   5.615 -0.0311 -0.2235  0.1528
 5676ntf    fn428440  -0.402   5.047   5.823 -0.2475  0.6932  0.3983
 5677ntf    cn128441   3.135   1.655   3.564 -0.0471 -0.1230  0.4518
 5677ntf    sn228442   3.004   1.767   3.623  0.0080  0.0904  0.1676
 5677ntf    nn328443   3.009   1.879   3.513 -0.1353  0.2235  0.2972
 5677ntf    sn228444   2.935   1.875   3.374  0.3551 -0.2928  0.0450
 5677ntf    cn128445   2.779   1.964   3.406  0.3221 -0.1179 -0.5971
 5677ntf    fn428446   3.149   1.556   3.651  0.0238 -0.4206  0.1060
 5677ntf    fn428447   3.100   1.605   3.447  0.0451  0.1972  0.2868
 5677ntf    fn428448   3.255   1.706   3.544 -0.0303 -0.2763  0.1572
 5677ntf    on528449   2.886   1.685   3.640 -0.3074  0.5817  0.3497
 5677ntf    on528450   3.063   1.816   3.745 -0.1118 -0.0565  0.2840
 5677ntf    on528451   2.891   1.748   3.322 -0.0045 -0.1486 -0.0032
 5677ntf    on528452   3.000   1.972   3.289  0.1291 -0.2795 -0.1124
 5677ntf    fn428453   2.786   2.095   3.416 -0.2307 -0.1146 -0.2397
 5677ntf    fn428454   2.697   1.935   3.306  0.0950  0.7060 -0.6535
 5677ntf    fn428455   2.709   1.926   3.511  0.6468  0.7275 -0.0732
 5678ntf    cn128456   0.127   0.747   3.293 -0.4945 -0.4242 -0.1400
 5678ntf    sn228457  -0.000   0.862   3.354  0.1442  0.1669  0.0934
 5678ntf    nn328458  -0.119   0.829   3.258  0.1936  0.4216 -0.0549
 5678ntf    sn228459  -0.165   0.902   3.126 -0.0220  0.3565 -0.0177
 5678ntf    cn128460  -0.269   1.038   3.189 -0.3184  0.0919  0.0663
 5678ntf    fn428461   0.171   0.780   3.173  0.0798 -0.0616  0.1669
 5678ntf    fn428462   0.233   0.741   3.372 -0.3497 -0.0221 -0.3022
 5678ntf    fn428463   0.085   0.622   3.280  0.2839 -0.7547  0.4693
 5678ntf    on528464  -0.035   0.808   3.483 -0.5750 -0.3382 -0.3063
 5678ntf    on528465   0.074   0.985   3.350  0.3435  0.0679  0.6388
 5678ntf    on528466  -0.257   0.820   3.053  0.3423 -0.0221 -0.0579
 5678ntf    on528467  -0.059   0.953   3.043 -0.0933  0.4293 -0.0637
 5678ntf    fn428468  -0.361   0.999   3.275 -0.4318  0.4061  0.0875
 5678ntf    fn428469  -0.195   1.120   3.262  0.1690  0.0146 -0.3287
 5678ntf    fn428470  -0.321   1.116   3.096  0.3922  0.0572 -0.3675
 5679ntf    cn128471   4.969   6.723   4.254  0.0502  0.0804 -0.1617
 5679ntf    sn228472   5.077   6.579   4.279  0.1335  0.1829  0.0676
 5679ntf    nn328473   5.043   6.551   4.429 -0.1745 -0.2082 -0.0751
 5679ntf    sn228474   5.128   6.578   4.558 -0.2784  0.2907 -0.1075
 5679ntf    cn128475   5.209   6.416   4.571 -0.1698  0.3489 -0.0577
 5679ntf    fn428476   4.979   6.781   4.135  0.1189 -0.5533 -0.4687
 5679ntf    fn428477   4.845   6.680   4.267  0.0944  0.1891  0.6439
 5679ntf    fn428478   4.979   6.823   4.340  0.3551  0.0210 -0.1274
 5679ntf    on528479   5.016   6.484   4.190  0.0144 -0.1530  0.5097
 5679ntf    on528480   5.206   6.634   4.245  0.2094 -0.0491 -0.0241
 5679ntf    on528481   5.045   6.580   4.676  0.7923 -0.0410  0.6741
 5679ntf    on528482   5.222   6.687   4.539 -0.1459  0.1955 -0.0012
 5679ntf    fn428483   5.269   6.368   4.463  0.2192  0.2784  0.1857
 5679ntf    fn428484   5.298   6.419   4.669 -0.4570  0.1363  0.2104
 5679ntf    fn428485   5.121   6.324   4.606  0.1767  0.0484  0.0317
 5680ntf    cn128486   0.952   4.254   4.770 -0.0334  0.3075 -0.0649
 5680ntf    sn228487   0.852   4.235   4.619 -0.0357 -0.1001 -0.0127
 5680ntf    nn328488   0.725   4.315   4.663 -0.0333 -0.1369  0.0604
 5680ntf    sn228489   0.663   4.446   4.603 -0.1896  0.0575  0.6439
 5680ntf    cn128490   0.597   4.511   4.760 -0.1193  0.0312  0.6840
 5680ntf    fn428491   0.946   4.143   4.841  0.3233  0.2630 -0.1033
 5680ntf    fn428492   1.081   4.261   4.743  0.0179  0.2423  0.1636
 5680ntf    fn428493   0.921   4.357   4.847  0.2271  0.1791  0.2133
 5680ntf    on528494   0.935   4.297   4.518 -0.1103  0.2431  0.1358
 5680ntf    on528495   0.833   4.093   4.602 -0.0285 -0.1035  0.0077
 5680ntf    on528496   0.550   4.420   4.518  0.4186  0.1127 -0.1944
 5680ntf    on528497   0.749   4.552   4.556 -0.3057  0.0585  0.4308
 5680ntf    fn428498   0.683   4.516   4.861  0.6280  0.5081  0.0406
 5680ntf    fn428499   0.560   4.637   4.745 -0.4631 -0.1613 -0.1386
 5680ntf    fn428500   0.492   4.437   4.792 -0.1200 -0.1189  0.3440
 5681ntf    cn128501   3.676   1.210   1.151  0.0459 -0.4199 -0.2608
 5681ntf    sn228502   3.699   1.059   1.249 -0.1013 -0.3928 -0.1843
 5681ntf    nn328503   3.571   1.063   1.340  0.0470 -0.5503  0.0331
 5681ntf    sn228504   3.570   1.106   1.491 -0.0220  0.2830 -0.2015
 5681ntf    cn128505   3.402   1.048   1.531  0.1578 -0.0599  0.0556
 5681ntf    fn428506   3.562   1.199   1.084  0.1643 -0.2375 -0.4960
 5681ntf    fn428507   3.667   1.322   1.220  0.2311  0.0614 -1.0018
 5681ntf    fn428508   3.777   1.223   1.067  0.1437 -0.0141 -0.0819
 5681ntf    on528509   3.695   0.953   1.150  0.4149  0.0308 -0.6650
 5681ntf    on528510   3.821   1.081   1.322  0.2299 -0.1367 -0.8130
 5681ntf    on528511   3.560   1.248   1.517 -0.3587  0.3320 -0.5687
 5681ntf    on528512   3.656   1.020   1.567  0.1203  0.5871 -0.0160
 5681ntf    fn428513   3.336   1.119   1.620 -0.0795 -0.1686 -0.0325
 5681ntf    fn428514   3.329   1.042   1.420 -0.1963  0.0898  0.2799
 5681ntf    fn428515   3.405   0.928   1.587  0.0020 -0.1757 -0.1818
 5682ntf    cn128516   4.515   6.336   4.768 -0.1526 -0.3081  0.1511
 5682ntf    sn228517   4.684   6.283   4.809  0.0054  0.3008  0.2973
 5682ntf    nn328518   4.724   6.416   4.883  0.7124  0.3233 -0.1162
 5682ntf    sn228519   4.716   6.444   5.037 -0.2022  0.0644 -0.1136
 5682ntf    cn128520   4.864   6.357   5.096 -0.2093 -0.0601 -0.2790
 5682ntf    fn428521   4.513   6.432   4.676  0.2932 -0.4624 -0.0237
 5682ntf    fn428522   4.444   6.236   4.718 -0.1688 -0.2605  0.0770
 5682ntf    fn428523   4.446   6.381   4.871  0.2394  0.3276  0.1460
 5682ntf    on528524   4.681   6.164   4.890 -0.5382 -0.2744 -0.5525
 5682ntf    on528525   4.755   6.273   4.684 -0.3874  0.1003  0.0887
 5682ntf    on528526   4.610   6.391   5.120 -0.5158  0.6395 -0.1451
 5682ntf    on528527   4.753   6.582   5.056  0.2781 -0.1378  0.4487
 5682ntf    fn428528   4.862   6.226   5.077  0.1121 -0.1833  0.5071
 5682ntf    fn428529   4.977   6.406   5.048 -0.0708 -0.6753 -0.5941
 5682ntf    fn428530   4.869   6.385   5.226 -0.2200 -0.3221 -0.2215
 5683ntf    cn128531   6.563   2.534   7.378  0.2416 -0.3375  0.2280
 5683ntf    sn228532   6.502   2.598   7.219  0.3237 -0.2994  0.2119
 5683ntf    nn328533   6.589   2.728   7.205  0.1418 -0.1900  0.1006
 5683ntf    sn228534   6.704   2.757   7.102  0.2337  0.0558  0.2721
 5683ntf    cn128535   6.818   2.853   7.207  0.0769  0.2882  0.2311
 5683ntf    fn428536   6.597   2.625   7.469  0.1708  0.0649 -0.1465
 5683ntf    fn428537   6.485   2.440   7.429 -0.0624 -0.0321  0.3290
 5683ntf    fn428538   6.670   2.461   7.350  0.2997  0.0325 -0.5197
 5683ntf    on528539   6.521   2.490   7.126  0.2992 -0.2478  0.1472
 5683ntf    on528540   6.370   2.635   7.263  0.4593  0.2617  0.1455
 5683ntf    on528541   6.672   2.842   6.990 -0.6625 -0.1280  0.3776
 5683ntf    on528542   6.789   2.647   7.063  0.3495  0.2049  0.1046
 5683ntf    fn428543   6.858   2.792   7.317  0.0796 -0.3057 -0.0915
 5683ntf    fn428544   6.927   2.884   7.139  0.4463 -0.3437  0.5228
 5683ntf    fn428545   6.760   2.963   7.252 -0.0513  0.1771  0.3373
 5684ntf    cn128546   4.269   7.303   4.993 -0.1991 -0.0602 -0.2586
 5684ntf    sn228547   4.309   7.126   4.995 -0.1938 -0.0574  0.0724
 5684ntf    nn328548   4.267   7.086   4.849  0.1644  0.0892 -0.0733
 5684ntf    sn228549   4.127   7.032   4.802  0.1467  0.1054 -0.0390
 5684ntf    cn128550   4.159   6.875   4.716 -0.3009 -0.1193  0.2005
 5684ntf    fn428551   4.142   7.325   4.962 -0.2529 -0.4208 -0.2954
 5684ntf    fn428552   4.294   7.368   5.106 -0.9000 -0.1668 -0.0342
 5684ntf    fn428553   4.341   7.358   4.897  0.2490  0.3860  0.3222
 5684ntf    on528554   4.453   7.120   5.006 -0.2041 -0.4410  0.0348
 5684ntf    on528555   4.231   7.085   5.108  0.6736 -0.0946  0.6684
 5684ntf    on528556   4.074   7.112   4.695 -0.0711  0.5739  0.4123
 5684ntf    on528557   4.037   6.990   4.907 -0.2855  0.9142 -0.0780
 5684ntf    fn428558   4.247   6.801   4.782  0.0271 -0.2388 -0.3687
 5684ntf    fn428559   4.048   6.805   4.702 -0.3713 -0.0799  0.5444
 5684ntf    fn428560   4.210   6.880   4.594 -0.2327  0.1757  0.2408
 5685ntf    cn128561   6.481   5.210   4.290  0.1399 -0.0366  0.0054
 5685ntf    sn228562   6.360   5.179   4.158 -0.1141  0.0123  0.2284
 5685ntf    nn328563   6.296   5.322   4.139 -0.0310  0.0041 -0.1107
 5685ntf    sn228564   6.145   5.362   4.128 -0.1031 -0.1658  0.2367
 5685ntf    cn128565   6.124   5.387   3.949  0.2107 -0.2879  0.1822
 5685ntf    fn428566   6.558   5.105   4.315 -0.1576 -0.2772 -0.0876
 5685ntf    fn428567   6.556   5.314   4.256 -0.0831  0.1706  0.1475
 5685ntf    fn428568   6.411   5.248   4.395 -0.1170  0.5705 -0.3779
 5685ntf    on528569   6.447   5.146   4.048 -0.1298  0.0573  0.2025
 5685ntf    on528570   6.276   5.077   4.215  0.0726 -0.4499 -0.3148
 5685ntf    on528571   6.121   5.494   4.182 -0.9718 -0.2346  0.0364
 5685ntf    on528572   6.045   5.264   4.160 -0.3597  0.1690  0.4658
 5685ntf    fn428573   6.169   5.286   3.877 -0.0805  0.1244 -0.5910
 5685ntf    fn428574   5.995   5.384   3.918  0.3074 -0.6208 -0.1833
 5685ntf    fn428575   6.182   5.494   3.897 -0.0899 -0.1624  0.1046
 5686ntf    cn128576   0.840   6.138   0.226 -0.6477  0.0358  0.3119
 5686ntf    sn228577   0.683   6.090   0.150 -0.3372 -0.3009 -0.1221
 5686ntf    nn328578   0.572   6.098   0.261  0.3155 -0.3258  0.5346
 5686ntf    sn228579   0.440   6.014   0.277  0.1204 -0.0652  0.3020
 5686ntf    cn128580   0.490   5.874   0.382 -0.0240 -0.0625  0.3746
 5686ntf    fn428581   0.939   6.105   0.144 -0.6682  0.1060  0.2591
 5686ntf    fn428582   0.852   6.267   0.255 -0.4177  0.1161 -0.1396
 5686ntf    fn428583   0.854   6.079   0.344  0.8620 -0.4847 -0.1058
 5686ntf    on528584   0.666   6.196   0.054  0.1027 -0.4052 -0.3148
 5686ntf    on528585   0.713   5.957   0.102 -0.1959 -0.3820  0.1920
 5686ntf    on528586   0.392   5.960   0.152 -0.1420  0.7036  0.0652
 5686ntf    on528587   0.341   6.083   0.356 -0.1117 -0.1024  0.0446
 5686ntf    fn428588   0.567   5.922   0.478  0.3266 -0.4511  0.2893
 5686ntf    fn428589   0.392   5.809   0.442 -0.1591  0.2200  0.4627
 5686ntf    fn428590   0.561   5.793   0.305 -0.0066  0.2352  0.0711
 5687ntf    cn128591   5.913   4.643   2.320  0.3487 -0.0647  0.1973
 5687ntf    sn228592   5.830   4.482   2.328 -0.0865  0.1266 -0.4419
 5687ntf    nn328593   5.679   4.524   2.336 -0.0843  0.1137 -0.3368
 5687ntf    sn228594   5.590   4.542   2.464 -0.3776  0.0488 -0.5290
 5687ntf    cn128595   5.494   4.686   2.408 -0.3811  0.1344 -0.3071
 5687ntf    fn428596   5.865   4.725   2.412  0.1406 -0.2674  0.2698
 5687ntf    fn428597   6.041   4.630   2.353  0.4372  0.0590 -0.0955
 5687ntf    fn428598   5.916   4.697   2.199 -0.4064 -0.0043  0.2029
 5687ntf    on528599   5.875   4.433   2.199  0.0369 -0.3053 -0.2374
 5687ntf    on528600   5.891   4.426   2.446 -0.2996 -0.2264 -0.4978
 5687ntf    on528601   5.664   4.601   2.573  0.3621 -0.2427 -0.8688
 5687ntf    on528602   5.495   4.437   2.490 -0.4930  0.3550  0.3219
 5687ntf    fn428603   5.564   4.796   2.388  0.1987 -0.0915  0.4354
 5687ntf    fn428604   5.418   4.666   2.302 -0.3114 -0.2259 -0.2919
 5687ntf    fn428605   5.403   4.715   2.500 -0.2176 -0.5882  0.0919
 5688ntf    cn128606   0.686   4.052   2.798  0.1647 -0.1379 -0.1369
 5688ntf    sn228607   0.667   4.233   2.787  0.0156 -0.1585 -0.2239
 5688ntf    nn328608   0.788   4.277   2.697  0.0780 -0.1135 -0.1188
 5688ntf    sn228609   0.799   4.417   2.626 -0.0437 -0.1327 -0.1762
 5688ntf    cn128610   0.947   4.478   2.712  0.0427 -0.7064  0.0847
 5688ntf    fn428611   0.671   3.990   2.682 -0.0218  0.2147 -0.3045
 5688ntf    fn428612   0.806   4.017   2.843  0.0197 -0.4174  0.0301
 5688ntf    fn428613   0.595   3.999   2.877  0.1546  0.2974  0.1507
 5688ntf    on528614   0.548   4.241   2.706 -0.0365 -0.1426 -0.1457
 5688ntf    on528615   0.670   4.282   2.923  0.0439  0.0854 -0.3132
 5688ntf    on528616   0.701   4.515   2.666 -0.4943 -0.5506 -0.2500
 5688ntf    on528617   0.832   4.408   2.486  0.0626 -0.7244 -0.1162
 5688ntf    fn428618   0.930   4.463   2.842  0.5017 -0.6177  0.1575
 5688ntf    fn428619   1.063   4.416   2.693  0.3504 -0.1708  0.1964
 5688ntf    fn428620   0.967   4.608   2.696  0.5823 -0.7622  0.2568
 5689ntf    cn128621   4.260   4.058   3.428  0.6515  0.1437  0.4237
 5689ntf    sn228622   4.080   4.055   3.454  0.5735  0.1687 -0.1140
 5689ntf    nn328623   4.072   4.175   3.555 -0.2508  0.4198 -0.4631
 5689ntf    sn228624   4.058   4.154   3.710 -0.3992 -0.1302 -0.5501
 5689ntf    cn128625   3.878   4.129   3.723 -0.3191 -0.3225  0.2398
 5689ntf    fn428626   4.307   4.181   3.414 -0.1516  0.4323  0.1942
 5689ntf    fn428627   4.316   4.012   3.539  0.4110  0.2658  0.5971
 5689ntf    fn428628   4.296   3.980   3.327  0.3870  0.5111  0.0425
 5689ntf    on528629   4.034   4.094   3.322  0.1441  0.0017 -0.0164
 5689ntf    on528630   4.046   3.921   3.494 -0.1444  0.1622 -0.7141
 5689ntf    on528631   4.086   4.279   3.776  0.5136 -0.2845 -0.6233
 5689ntf    on528632   4.120   4.037   3.768  0.0663  0.4758  0.1900
 5689ntf    fn428633   3.828   4.035   3.646 -0.2510 -0.1397 -0.0299
 5689ntf    fn428634   3.835   4.112   3.847  0.0340  0.3691  0.4644
 5689ntf    fn428635   3.823   4.242   3.682 -0.8151 -0.6999 -0.1452
 5690ntf    cn128636   5.467   6.765   3.119 -0.5043 -0.0869  0.3141
 5690ntf    sn228637   5.541   6.649   3.000  0.0585  0.3438  0.2398
 5690ntf    nn328638   5.407   6.577   2.960  0.3007  0.0508 -0.0541
 5690ntf    sn228639   5.290   6.621   2.866  0.0412 -0.0450  0.2223
 5690ntf    cn128640   5.340   6.530   2.717 -0.0087 -0.0231  0.1916
 5690ntf    fn428641   5.390   6.698   3.204 -0.5370 -0.8144 -0.2760
 5690ntf    fn428642   5.565   6.818   3.189  0.0989 -0.1029 -0.5062
 5690ntf    fn428643   5.391   6.859   3.064  0.0975  0.4009  0.3119
 5690ntf    on528644   5.606   6.729   2.900  0.3556  0.0724  0.2129
 5690ntf    on528645   5.624   6.577   3.093 -0.2907 -0.0326  0.2671
 5690ntf    on528646   5.295   6.759   2.823  0.1082 -0.3057 -0.6243
 5690ntf    on528647   5.162   6.561   2.896  0.0953 -0.2659  0.0134
 5690ntf    fn428648   5.318   6.400   2.734  0.5784 -0.1060  0.3509
 5690ntf    fn428649   5.271   6.560   2.608  0.0047  0.2003  0.2454
 5690ntf    fn428650   5.467   6.548   2.685 -0.1382 -0.2917 -0.4994
 5691ntf    cn128651   2.637   6.435   4.071 -0.0048 -0.0713  0.4939
 5691ntf    sn228652   2.515   6.558   4.128 -0.0026  0.3133 -0.3231
 5691ntf    nn328653   2.388   6.468   4.109 -0.0281  0.3143 -0.1554
 5691ntf    sn228654   2.290   6.410   4.217 -0.0878  0.4454 -0.1395
 5691ntf    cn128655   2.138   6.381   4.120 -0.2327 -0.0966  0.2430
 5691ntf    fn428656   2.755   6.469   4.122  0.1673  0.5651 -0.3108
 5691ntf    fn428657   2.617   6.315   4.123 -0.0655 -0.6376 -0.8026
 5691ntf    fn428658   2.635   6.423   3.940 -0.6914  0.2188  0.4726
 5691ntf    on528659   2.552   6.588   4.264 -0.8806 -0.1555  0.0295
 5691ntf    on528660   2.536   6.662   4.031 -0.3693 -0.1232 -0.8759
 5691ntf    on528661   2.254   6.496   4.326  0.4226  0.2517  0.1830
 5691ntf    on528662   2.329   6.275   4.250 -0.3377  0.3749 -0.1307
 5691ntf    fn428663   2.157   6.303   4.015  0.0246  0.0559  0.1747
 5691ntf    fn428664   2.044   6.317   4.187 -0.5237  0.0992  0.0245
 5691ntf    fn428665   2.088   6.496   4.078 -0.4473 -0.2124  0.1812
 5692ntf    cn128666   4.086   7.159   0.339  0.0551 -0.5158  0.1314
 5692ntf    sn228667   4.218   7.094   0.232  0.2833  0.4643 -0.1973
 5692ntf    nn328668   4.138   6.973   0.170  0.5176  0.1680  0.0744
 5692ntf    sn228669   4.157   6.901   0.032  0.0801 -0.1800  0.1963
 5692ntf    cn128670   4.049   6.995  -0.080  0.5125  0.0252 -0.0499
 5692ntf    fn428671   3.974   7.174   0.270 -0.0170 -0.0665  0.3418
 5692ntf    fn428672   4.050   7.084   0.442 -0.2554  0.0309  0.4271
 5692ntf    fn428673   4.113   7.279   0.388 -0.4808 -0.2566 -0.1955
 5692ntf    on528674   4.254   7.204   0.146  0.6023  0.0561 -0.5870
 5692ntf    on528675   4.313   7.047   0.330 -0.4063 -0.0253  0.2476
 5692ntf    on528676   4.095   6.771   0.032  0.5809 -0.4192  0.0359
 5692ntf    on528677   4.288   6.912  -0.027 -0.0696 -0.2253 -0.1466
 5692ntf    fn428678   4.064   6.969  -0.209 -0.6033 -0.6077 -0.0679
 5692ntf    fn428679   3.921   6.972  -0.052  0.3993  0.6817 -0.0025
 5692ntf    fn428680   4.074   7.125  -0.082  0.4800  0.0380  0.3337
 5693ntf    cn128681   4.989   5.286   7.339 -0.0329  0.0142 -0.0543
 5693ntf    sn228682   4.881   5.207   7.215  0.1082 -0.1464 -0.0741
 5693ntf    nn328683   4.918   5.056   7.239 -0.4861 -0.1903  0.5901
 5693ntf    sn228684   4.912   4.938   7.136  0.2716  0.1672  0.1240
 5693ntf    cn128685   4.738   4.888   7.156  0.2867 -0.0575 -0.2981
 5693ntf    fn428686   5.000   5.417   7.318  0.1950 -0.0038 -0.0469
 5693ntf    fn428687   4.950   5.266   7.464 -0.4829 -0.1251 -0.2116
 5693ntf    fn428688   5.115   5.251   7.321 -0.1684 -0.3021 -0.3989
 5693ntf    on528689   4.752   5.257   7.254  0.0254 -0.5677  0.1944
 5693ntf    on528690   4.929   5.254   7.088  0.0660 -0.2519 -0.1291
 5693ntf    on528691   4.996   4.830   7.181  0.2812  0.3623  0.5799
 5693ntf    on528692   4.915   4.965   6.994 -0.1994 -0.6560 -0.0511
 5693ntf    fn428693   4.696   4.793   7.074  0.4362 -0.0141 -0.4255
 5693ntf    fn428694   4.705   4.848   7.278  0.1983  0.0139 -0.2982
 5693ntf    fn428695   4.655   4.988   7.130  0.0466 -0.1188  0.2228
 5694ntf    cn128696   2.706   7.121   2.479  0.4703  0.5283 -0.1575
 5694ntf    sn228697   2.834   7.034   2.575  0.1079 -0.2211 -0.3533
 5694ntf    nn328698   2.734   6.924   2.628  0.2759 -0.0862  0.2481
 5694ntf    sn228699   2.674   6.912   2.772 -0.1738  0.2872  0.0951
 5694ntf    cn128700   2.534   6.800   2.741 -0.1922  0.2970  0.1423
 5694ntf    fn428701   2.757   7.220   2.406  0.7488  0.2050 -0.4070
 5694ntf    fn428702   2.648   7.035   2.397  0.2874 -0.7872  1.3055
 5694ntf    fn428703   2.605   7.175   2.545  0.2935  0.3872 -0.3124
 5694ntf    on528704   2.923   6.987   2.472  0.2278 -0.1196 -0.2953
 5694ntf    on528705   2.878   7.133   2.670  0.0577 -0.9845  0.4800
 5694ntf    on528706   2.613   7.032   2.824  0.3144  0.5746  0.0050
 5694ntf    on528707   2.763   6.837   2.858 -0.0356  0.2681 -0.0649
 5694ntf    fn428708   2.461   6.779   2.849 -0.0449  0.0195  0.1920
 5694ntf    fn428709   2.449   6.832   2.646 -0.2705 -0.6100 -0.1020
 5694ntf    fn428710   2.574   6.677   2.713  0.1984  0.3582  0.4234
 5695ntf    cn128711   6.769   6.508   2.819 -0.0018 -0.2737 -0.1786
 5695ntf    sn228712   6.627   6.555   2.924  0.1873 -0.1462  0.0205
 5695ntf    nn328713   6.674   6.483   3.055  0.1814 -0.0929  0.0515
 5695ntf    sn228714   6.618   6.357   3.130 -0.0077  0.0247  0.1095
 5695ntf    cn128715   6.662   6.400   3.301 -0.3733  0.2701  0.1418
 5695ntf    fn428716   6.884   6.569   2.841  0.2539 -0.6461 -0.4661
 5695ntf    fn428717   6.802   6.381   2.837 -0.5905 -0.3282  0.5975
 5695ntf    fn428718   6.744   6.523   2.690  0.1391 -0.7208 -0.2611
 5695ntf    on528719   6.638   6.698   2.929 -0.1153 -0.1206 -0.0403
 5695ntf    on528720   6.510   6.490   2.870  0.2612 -0.4989  0.2780
 5695ntf    on528721   6.686   6.235   3.093  0.3394  0.1445  0.3371
 5695ntf    on528722   6.475   6.350   3.136 -0.0196  0.1020 -0.0967
 5695ntf    fn428723   6.790   6.434   3.303 -0.2947  0.0596 -0.9598
 5695ntf    fn428724   6.586   6.498   3.348  0.0284  0.6863 -0.0771
 5695ntf    fn428725   6.660   6.298   3.386  0.3174  0.1831  0.0596
 5696ntf    cn128726   6.482   4.020   3.538  0.3740 -0.2130  0.0776
 5696ntf    sn228727   6.468   4.198   3.507  0.2921 -0.1964  0.2126
 5696ntf    nn328728   6.343   4.243   3.592  0.0099  0.0426 -0.3201
 5696ntf    sn228729   6.204   4.270   3.525 -0.0175 -0.0836 -0.3147
 5696ntf    cn128730   6.093   4.241   3.666  0.3854  0.0981  0.0429
 5696ntf    fn428731   6.506   3.986   3.664  0.1145 -0.1250  0.1508
 5696ntf    fn428732   6.371   3.958   3.504  0.1088  0.1274  0.3182
 5696ntf    fn428733   6.583   3.965   3.471  0.2491 -0.3546  0.0058
 5696ntf    on528734   6.588   4.248   3.569  0.2080  0.1715  0.0873
 5696ntf    on528735   6.448   4.213   3.365  0.0579 -0.4673  0.2154
 5696ntf    on528736   6.157   4.172   3.430 -0.4158 -0.6219  0.4327
 5696ntf    on528737   6.169   4.406   3.494 -0.1512 -0.2290 -0.8173
 5696ntf    fn428738   5.966   4.265   3.640  0.3581 -0.3415 -0.2393
 5696ntf    fn428739   6.108   4.116   3.706  0.1525  0.1619  0.3248
 5696ntf    fn428740   6.126   4.316   3.769  0.1670  0.0537  0.1449
 5697ntf    cn128741   5.358   0.712   6.516  0.0939  0.1713 -0.2597
 5697ntf    sn228742   5.276   0.860   6.448  0.3921  0.3541 -0.2209
 5697ntf    nn328743   5.333   0.975   6.539 -0.4103  1.1111 -0.6598
 5697ntf    sn228744   5.280   1.016   6.681  0.4446 -0.1532  0.0491
 5697ntf    cn128745   5.435   1.058   6.765  0.1505  0.0650  0.4901
 5697ntf    fn428746   5.486   0.740   6.533  0.0539 -0.0717  0.4747
 5697ntf    fn428747   5.305   0.681   6.633  0.1539  0.6542 -0.0993
 5697ntf    fn428748   5.353   0.604   6.440  0.4086  0.2865 -0.4436
 5697ntf    on528749   5.327   0.868   6.313  0.2542 -0.2309 -0.3078
 5697ntf    on528750   5.134   0.837   6.457  0.5807 -0.6516  0.3389
 5697ntf    on528751   5.230   0.910   6.764 -0.2155  0.0100 -0.1289
 5697ntf    on528752   5.215   1.145   6.686 -0.2378 -0.5106  0.4526
 5697ntf    fn428753   5.512   0.950   6.757 -0.0072  0.0119 -0.4564
 5697ntf    fn428754   5.504   1.160   6.716  0.2024 -0.3614 -0.3527
 5697ntf    fn428755   5.420   1.090   6.892 -0.0812  0.7699  0.2884
 5698ntf    cn128756   5.702   0.958   2.751  0.4798  0.2475 -0.2011
 5698ntf    sn228757   5.853   0.885   2.822  0.2602 -0.0596 -0.0483
 5698ntf    nn328758   5.863   0.954   2.962  0.2666 -0.0911 -0.0329
 5698ntf    sn228759   5.941   0.895   3.085 -0.1251 -0.4327  0.0541
 5698ntf    cn128760   6.092   0.996   3.077 -0.3752 -0.0774 -0.1936
 5698ntf    fn428761   5.719   1.080   2.704 -0.4394  0.1934 -0.6924
 5698ntf    fn428762   5.655   0.889   2.649  0.5113  0.2356 -0.2075
 5698ntf    fn428763   5.603   0.955   2.839  0.2221 -0.0448 -0.4997
 5698ntf    on528764   5.814   0.746   2.826  0.5104 -0.1118  0.6703
 5698ntf    on528765   5.950   0.920   2.722  0.2950 -0.1216 -0.0358
 5698ntf    on528766   5.992   0.761   3.075  0.2664 -0.3226  0.5177
 5698ntf    on528767   5.882   0.938   3.210  0.2356 -0.3794  0.2077
 5698ntf    fn428768   6.155   0.974   2.963  0.4636 -0.2733  0.2969
 5698ntf    fn428769   6.070   1.127   3.080  0.4446  0.0620 -0.1278
 5698ntf    fn428770   6.175   0.973   3.177 -0.2924  0.2256 -0.1919
 5699ntf    cn128771   7.206   7.127   2.284 -0.0316  0.4282  0.0231
 5699ntf    sn228772   7.084   7.035   2.383  0.0204  0.1363 -0.1829
 5699ntf    nn328773   7.151   6.894   2.397  0.1519  0.1772 -0.3823
 5699ntf    sn228774   7.124   6.787   2.509  0.0332  0.0306 -0.5514
 5699ntf    cn128775   7.240   6.838   2.640 -0.0794 -0.3066 -0.3185
 5699ntf    fn428776   7.328   7.107   2.332 -0.0317 -0.5127 -0.3584
 5699ntf    fn428777   7.210   7.080   2.161 -0.5617 -0.6359  0.3965
 5699ntf    fn428778   7.184   7.257   2.274 -0.1973  0.3998  0.0238
 5699ntf    on528779   7.082   7.114   2.504  0.3505  0.3426 -0.3091
 5699ntf    on528780   6.967   7.034   2.299  0.0202 -0.0857 -0.1777
 5699ntf    on528781   7.168   6.652   2.482  0.2882  0.1266 -0.6118
 5699ntf    on528782   6.998   6.809   2.575  0.6274  0.3567  0.4974
 5699ntf    fn428783   7.214   6.962   2.678 -0.5138 -0.6903  0.6637
 5699ntf    fn428784   7.237   6.766   2.751  0.5213 -0.2390 -0.2572
 5699ntf    fn428785   7.364   6.834   2.596  0.0686 -0.1870  0.0870
 5700ntf    cn128786   5.909   7.333   3.120  0.5716 -0.2047  0.0747
 5700ntf    sn228787   6.016   7.458   3.197  0.0290  0.2072  0.1714
 5700ntf    nn328788   6.048   7.391   3.336 -0.4906 -0.3508  0.0277
 5700ntf    sn228789   6.015   7.455   3.476 -0.0347  0.0772 -0.0563
 5700ntf    cn128790   6.126   7.343   3.567 -0.1688  0.0030  0.0160
 5700ntf    fn428791   5.980   7.227   3.085  0.6929 -0.1024  0.0111
 5700ntf    fn428792   5.800   7.297   3.186  0.0054  0.7686 -0.2907
 5700ntf    fn428793   5.866   7.385   3.005  0.1074 -0.3284  0.1892
 5700ntf    on528794   6.135   7.466   3.116 -0.3292 -0.0602 -0.3894
 5700ntf    on528795   5.928   7.572   3.199 -0.2279  0.0217 -0.3011
 5700ntf    on528796   5.884   7.418   3.524  0.0456  0.0983  0.1801
 5700ntf    on528797   6.076   7.582   3.505 -0.1086  0.1450 -0.1969
 5700ntf    fn428798   6.067   7.226   3.584 -0.5096  0.2683  0.7476
 5700ntf    fn428799   6.238   7.315   3.503 -0.0319 -0.3369  0.3995
 5700ntf    fn428800   6.159   7.379   3.690  0.2056 -0.2203 -0.0202
 5701ntf    cn128801   1.101   7.432   4.217  0.0463 -0.2050 -0.3181
 5701ntf    sn228802   1.065   7.302   4.338  0.0087  0.0118 -0.0941
 5701ntf    nn328803   0.970   7.389   4.427  0.1970 -0.0036  0.1209
 5701ntf    sn228804   0.982   7.425   4.580  0.0873  0.2173  0.0783
 5701ntf    cn128805   0.857   7.312   4.648 -0.0174  0.0608 -0.3695
 5701ntf    fn428806   1.156   7.536   4.278  0.0458  0.1002 -0.8298
 5701ntf    fn428807   1.175   7.401   4.112 -0.0640 -0.5399 -0.2966
 5701ntf    fn428808   0.995   7.490   4.164 -0.1215 -0.2193 -0.0019
 5701ntf    on528809   1.005   7.196   4.260  0.1387 -0.7212  0.7821
 5701ntf    on528810   1.194   7.270   4.394 -0.0990 -0.2219  0.0245
 5701ntf    on528811   0.926   7.555   4.609  0.1656  0.3220 -0.2334
 5701ntf    on528812   1.100   7.389   4.654  0.1402  0.1497 -0.0391
 5701ntf    fn428813   0.766   7.292   4.554 -0.3379 -0.0383 -0.0396
 5701ntf    fn428814   0.912   7.195   4.677 -0.0402  0.1985  0.2518
 5701ntf    fn428815   0.793   7.363   4.752  0.2594 -0.0729 -0.1302
 5702ntf    cn128816   1.704   2.954   6.351  0.1299 -0.1096 -0.2167
 5702ntf    sn228817   1.841   2.839   6.318  0.1938 -0.0347 -0.2129
 5702ntf    nn328818   1.810   2.803   6.169  0.4284 -0.3190 -0.1932
 5702ntf    sn228819   1.743   2.674   6.109 -0.0964 -0.0896 -0.1059
 5702ntf    cn128820   1.663   2.747   5.963  0.4163 -0.0204 -0.3559
 5702ntf    fn428821   1.691   2.982   6.479 -0.1634  0.2244 -0.3165
 5702ntf    fn428822   1.721   3.068   6.286  0.3794  0.1965  0.3803
 5702ntf    fn428823   1.588   2.897   6.322  0.0242  0.1961 -0.3989
 5702ntf    on528824   1.958   2.922   6.336 -0.1196  0.3917 -0.1194
 5702ntf    on528825   1.826   2.733   6.415  0.5594  0.0210 -0.0927
 5702ntf    on528826   1.627   2.632   6.184  0.1625 -0.1271  0.2772
 5702ntf    on528827   1.837   2.573   6.067  0.1896  0.1884 -0.1384
 5702ntf    fn428828   1.575   2.669   5.903  0.0224  0.0782  0.0825
 5702ntf    fn428829   1.604   2.861   5.999  0.6368  0.1022 -0.3819
 5702ntf    fn428830   1.746   2.789   5.869 -0.0157 -0.1001 -0.7776
 5703ntf    cn128831   1.567   2.406   3.492 -0.1177 -0.1020 -0.2424
 5703ntf    sn228832   1.526   2.258   3.589  0.0513 -0.1197 -0.1975
 5703ntf    nn328833   1.618   2.300   3.709  0.3203  0.1617 -0.5004
 5703ntf    sn228834   1.763   2.251   3.746  0.1362  0.0161  0.0479
 5703ntf    cn128835   1.718   2.164   3.899  0.5334  0.2108  0.2748
 5703ntf    fn428836   1.543   2.521   3.552  0.1522 -0.2873  0.2331
 5703ntf    fn428837   1.696   2.398   3.461  0.0264  0.5983  0.1584
 5703ntf    fn428838   1.502   2.399   3.377 -0.3319  0.7734 -0.1769
 5703ntf    on528839   1.384   2.278   3.608  0.1514  0.1113  0.3258
 5703ntf    on528840   1.568   2.153   3.500 -0.2077 -0.2821 -0.1297
 5703ntf    on528841   1.840   2.365   3.788 -0.0455  0.0995  0.1566
 5703ntf    on528842   1.828   2.155   3.661 -0.2676 -0.6933  0.5307
 5703ntf    fn428843   1.818   2.096   3.953  0.1938 -0.1824  0.4110
 5703ntf    fn428844   1.667   2.240   3.995  0.2968 -0.1053  0.4011
 5703ntf    fn428845   1.627   2.075   3.867  0.7580 -0.1213  0.5580
 5704ntf    cn128846   7.454   1.344   4.903 -0.2353  0.3677 -0.1884
 5704ntf    sn228847   7.348   1.409   5.036  0.0681  0.0720  0.1961
 5704ntf    nn328848   7.261   1.515   4.960  0.0503 -0.0200  0.0873
 5704ntf    sn228849   7.266   1.672   4.960 -0.1438 -0.0131 -0.2881
 5704ntf    cn128850   7.156   1.717   5.097  0.1327 -0.2272  0.0054
 5704ntf    fn428851   7.386   1.273   4.814  0.3044  0.0511 -0.3456
 5704ntf    fn428852   7.513   1.439   4.832  0.7412 -0.4838 -0.5356
 5704ntf    fn428853   7.554   1.267   4.942 -0.3883  0.1222 -0.2734
 5704ntf    on528854   7.278   1.291   5.080  0.3477 -0.0736  0.2556
 5704ntf    on528855   7.439   1.462   5.134  0.6174 -0.5301  0.0258
 5704ntf    on528856   7.214   1.738   4.843  0.0524  0.8550  0.1066
 5704ntf    on528857   7.392   1.732   4.996  0.0737 -0.4564 -0.2994
 5704ntf    fn428858   7.029   1.694   5.067  0.0979 -0.1577  0.0999
 5704ntf    fn428859   7.186   1.642   5.202  0.1165  0.4165  0.4747
 5704ntf    fn428860   7.171   1.843   5.133  0.3694 -0.1588 -0.3297
 5705ntf    cn128861   6.635   5.302   5.064  0.1024 -0.0183  0.3923
 5705ntf    sn228862   6.771   5.304   4.944 -0.0040 -0.1667  0.2696
 5705ntf    nn328863   6.691   5.316   4.809  0.2161  0.4665  0.1914
 5705ntf    sn228864   6.723   5.380   4.670 -0.2901 -0.3286 -0.3020
 5705ntf    cn128865   6.623   5.530   4.694 -0.1569 -0.2993  0.0715
 5705ntf    fn428866   6.671   5.288   5.190  0.2991 -0.3980  0.2980
 5705ntf    fn428867   6.567   5.415   5.052 -0.4076 -0.3330  0.2730
 5705ntf    fn428868   6.550   5.204   5.036  0.2059  0.1041 -0.3701
 5705ntf    on528869   6.852   5.418   4.977 -0.1185 -0.1493  0.4856
 5705ntf    on528870   6.836   5.175   4.951  0.2386 -0.1296 -1.0036
 5705ntf    on528871   6.676   5.305   4.556  0.3651 -0.6288 -0.3773
 5705ntf    on528872   6.853   5.442   4.659 -0.4841  0.1996  0.3125
 5705ntf    fn428873   6.644   5.620   4.598 -0.1739 -0.6428 -0.2569
 5705ntf    fn428874   6.494   5.510   4.710 -0.2394  0.3429  0.2543
 5705ntf    fn428875   6.658   5.596   4.803 -0.5247 -0.3317  0.2103
 5706ntf    cn128876   4.903   1.403   2.599  0.1491  0.1252 -0.0356
 5706ntf    sn228877   4.902   1.584   2.579  0.1819  0.0975 -0.2906
 5706ntf    nn328878   4.925   1.612   2.427  0.4536  0.1040 -0.2493
 5706ntf    sn228879   4.826   1.652   2.311 -0.0259 -0.0505  0.1025
 5706ntf    cn128880   4.859   1.517   2.194  0.0545 -0.0984  0.1800
 5706ntf    fn428881   5.018   1.347   2.566  0.0819 -0.4204  0.6362
 5706ntf    fn428882   4.885   1.388   2.730  0.2259 -0.3787 -0.0817
 5706ntf    fn428883   4.802   1.345   2.538  0.1904 -0.2530  0.2515
 5706ntf    on528884   4.773   1.619   2.635  0.1668 -0.4991  0.0546
 5706ntf    on528885   5.018   1.625   2.654 -0.3749 -0.0536  0.6698
 5706ntf    on528886   4.867   1.770   2.239 -0.4088  0.1474  0.2094
 5706ntf    on528887   4.686   1.647   2.342 -0.0021 -0.4462  0.1489
 5706ntf    fn428888   4.982   1.522   2.144  0.1717  0.1982  0.5010
 5706ntf    fn428889   4.839   1.398   2.249  0.4511 -0.2358  0.0298
 5706ntf    fn428890   4.775   1.522   2.092  0.0721  0.0436  0.1727
 5707ntf    cn128891   1.847   7.315   7.369  0.2347  0.1623  0.1391
 5707ntf    sn228892   1.792   7.234   7.216 -0.1523  0.2630  0.2253
 5707ntf    nn328893   1.769   7.089   7.271  0.3081  0.3075  0.5367
 5707ntf    sn228894   1.859   6.961   7.267  0.1895  0.2387 -0.0784
 5707ntf    cn128895   1.894   6.935   7.444  0.3889  0.3288 -0.1046
 5707ntf    fn428896   1.878   7.215   7.450  0.2138  0.3150  0.3354
 5707ntf    fn428897   1.959   7.385   7.355  0.2574  0.0503 -0.2568
 5707ntf    fn428898   1.759   7.388   7.435 -0.0403  0.0874 -0.1438
 5707ntf    on528899   1.668   7.302   7.187 -0.3940 -0.3956 -0.3158
 5707ntf    on528900   1.899   7.257   7.121  0.0420 -0.1022  0.3557
 5707ntf    on528901   1.987   6.981   7.203  0.5247  0.2577  0.5779
 5707ntf    on528902   1.779   6.844   7.241  0.8956 -0.3181  0.1950
 5707ntf    fn428903   1.788   6.956   7.521  0.1816  0.8112 -0.5088
 5707ntf    fn428904   1.920   6.807   7.460 -0.0319  0.2591  0.0328
 5707ntf    fn428905   1.995   7.003   7.496  0.4603  0.0348  0.1442
 5708ntf    cn128906   4.043   3.620   2.394 -0.1728 -0.1433 -0.0820
 5708ntf    sn228907   3.969   3.761   2.482 -0.2439 -0.2656  0.0552
 5708ntf    nn328908   3.838   3.694   2.536 -0.2132 -0.4868 -0.1457
 5708ntf    sn228909   3.695   3.703   2.472 -0.1605 -0.0104 -0.1952
 5708ntf    cn128910   3.615   3.822   2.583 -0.3494 -0.3092 -0.0093
 5708ntf    fn428911   4.062   3.523   2.482 -0.0871  0.2182  0.3031
 5708ntf    fn428912   3.969   3.574   2.295 -0.8382  0.0007  0.3397
 5708ntf    fn428913   4.161   3.651   2.345  0.1136 -0.7225  0.2320
 5708ntf    on528914   4.055   3.781   2.597 -0.7735  0.3915  0.3484
 5708ntf    on528915   3.960   3.863   2.381  0.3434 -0.5668 -0.3114
 5708ntf    on528916   3.634   3.574   2.488 -0.1599 -0.0363 -0.3981
 5708ntf    on528917   3.684   3.763   2.341 -0.1565  0.0932 -0.1483
 5708ntf    fn428918   3.696   3.927   2.596 -0.2640 -0.3613 -0.1193
 5708ntf    fn428919   3.495   3.864   2.547 -0.3132  0.0273  0.2505
 5708ntf    fn428920   3.603   3.775   2.706 -0.7946 -0.1208  0.0191
 5709ntf    cn128921   5.045   5.853   0.589  0.1807  0.0225  0.6638
 5709ntf    sn228922   4.995   5.679   0.596 -0.1091  0.0781  0.0203
 5709ntf    nn328923   4.990   5.651   0.441 -0.2506 -0.1861  0.0711
 5709ntf    sn228924   5.095   5.577   0.351 -0.0163 -0.1487  0.3097
 5709ntf    cn128925   5.121   5.709   0.228 -0.0592 -0.2698  0.1697
 5709ntf    fn428926   5.165   5.864   0.534 -0.1059  0.3416  0.0937
 5709ntf    fn428927   4.956   5.919   0.517  0.4368 -0.2977  0.0543
 5709ntf    fn428928   5.052   5.898   0.714 -0.0653  0.7768  0.4111
 5709ntf    on528929   5.101   5.611   0.666 -0.7264 -0.0428  0.8439
 5709ntf    on528930   4.861   5.674   0.649 -0.3107 -0.0179 -0.4869
 5709ntf    on528931   5.038   5.476   0.265 -0.4752  0.5156 -0.1821
 5709ntf    on528932   5.221   5.553   0.416  0.0565 -0.5368  0.0298
 5709ntf    fn428933   5.201   5.676   0.128 -0.0130  0.0956  0.0829
 5709ntf    fn428934   5.012   5.747   0.163  0.0693 -0.0621  0.0730
 5709ntf    fn428935   5.173   5.817   0.283 -0.4193 -0.0194  0.0246
 5710ntf    cn128936   1.340   2.619   4.988  0.0151  0.0684  0.3278
 5710ntf    sn228937   1.203   2.696   4.897  0.2952 -0.0493 -0.1976
 5710ntf    nn328938   1.284   2.784   4.795  0.1206 -0.0189 -0.3105
 5710ntf    sn228939   1.346   2.927   4.808  0.0700  0.0023 -0.3040
 5710ntf    cn128940   1.305   3.007   4.650 -0.1982 -0.1946 -0.3349
 5710ntf    fn428941   1.413   2.712   5.047  0.4530  0.0357 -0.1542
 5710ntf    fn428942   1.301   2.535   5.083 -0.2779  0.0817  0.2192
 5710ntf    fn428943   1.425   2.554   4.909 -0.1826 -0.0796  0.2359
 5710ntf    on528944   1.135   2.587   4.831  0.2904 -0.1267 -0.0647
 5710ntf    on528945   1.123   2.761   4.998  0.1576 -0.7554  0.1513
 5710ntf    on528946   1.490   2.917   4.805  0.0643 -0.0442 -0.4230
 5710ntf    on528947   1.276   3.018   4.896  0.0429 -0.0415 -0.2805
 5710ntf    fn428948   1.174   3.027   4.651 -0.1960 -0.1944  0.0295
 5710ntf    fn428949   1.373   3.118   4.628  0.4405 -0.3696  0.6713
 5710ntf    fn428950   1.334   2.931   4.546 -0.5875 -0.4887 -0.2326
 5711ntf    cn128951   4.250   1.196   6.203 -0.3645  0.1234  0.2407
 5711ntf    sn228952   4.381   1.306   6.141 -0.3662  0.0095  0.0345
 5711ntf    nn328953   4.358   1.305   5.986 -0.3873 -0.2664  0.0379
 5711ntf    sn228954   4.247   1.380   5.904 -0.1013  0.1484  0.0303
 5711ntf    cn128955   4.158   1.244   5.823  0.0923 -0.1127  0.2535
 5711ntf    fn428956   4.263   1.078   6.143  0.0151  0.1855  0.1966
 5711ntf    fn428957   4.266   1.168   6.331 -0.3634 -0.4788  0.1131
 5711ntf    fn428958   4.130   1.250   6.193 -0.5713 -0.2540  0.6256
 5711ntf    on528959   4.356   1.435   6.201  0.3546  0.2913 -0.2626
 5711ntf    on528960   4.504   1.240   6.178 -0.0831  0.5316  0.0330
 5711ntf    on528961   4.308   1.450   5.793  0.0678  0.6824  0.4530
 5711ntf    on528962   4.149   1.451   5.982  0.4714  0.4648  0.4794
 5711ntf    fn428963   4.061   1.286   5.743  0.3428  0.4310  0.2294
 5711ntf    fn428964   4.232   1.168   5.745  0.0895 -0.2540  0.3886
 5711ntf    fn428965   4.106   1.161   5.911 -0.8838  0.0801 -0.1289
 5712ntf    cn128966   3.326   1.834   1.921  0.3155  0.2489  0.4000
 5712ntf    sn228967   3.421   1.690   1.867 -0.0820  0.0553  0.2118
 5712ntf    nn328968   3.294   1.600   1.845  0.1985 -0.2305 -0.2734
 5712ntf    sn228969   3.254   1.462   1.907 -0.0412 -0.1558 -0.2601
 5712ntf    cn128970   3.357   1.339   1.822  0.2464 -0.1596  0.0892
 5712ntf    fn428971   3.261   1.810   2.034 -0.1201 -0.0854  0.0817
 5712ntf    fn428972   3.402   1.940   1.943 -0.0162  0.6136 -0.1765
 5712ntf    fn428973   3.236   1.879   1.835  0.5109 -0.4368 -0.1717
 5712ntf    on528974   3.482   1.751   1.751 -0.2373 -0.0373  0.0798
 5712ntf    on528975   3.503   1.667   1.983  0.2439  0.0779 -0.0125
 5712ntf    on528976   3.119   1.435   1.865 -0.2312  0.2381  0.0852
 5712ntf    on528977   3.286   1.444   2.047 -0.1873  0.8497 -0.0868
 5712ntf    fn428978   3.485   1.358   1.851  0.3731 -0.2048 -0.4313
 5712ntf    fn428979   3.322   1.217   1.857  0.3549 -0.2470 -0.1050
 5712ntf    fn428980   3.356   1.345   1.690  0.1240  0.3136  0.1109
 5713ntf    cn128981   3.155   3.700   2.949  0.2549  0.1925  0.1359
 5713ntf    sn228982   3.009   3.604   2.899  0.4256 -0.0162  0.0350
 5713ntf    nn328983   2.939   3.585   3.038 -0.1506  0.0328 -0.2441
 5713ntf    sn228984   2.857   3.468   3.103 -0.1470  0.1077 -0.1056
 5713ntf    cn128985   2.932   3.468   3.268  0.0403  0.6039 -0.1900
 5713ntf    fn428986   3.119   3.826   2.967  0.3313  0.1789  0.3933
 5713ntf    fn428987   3.215   3.657   3.059 -0.3990 -0.2544  0.3184
 5713ntf    fn428988   3.251   3.710   2.858 -0.0469 -0.6266 -0.2829
 5713ntf    on528989   2.939   3.694   2.810 -0.2368 -0.1066  0.4594
 5713ntf    on528990   3.062   3.484   2.839 -0.2644 -0.0152 -0.6009
 5713ntf    on528991   2.880   3.333   3.059  0.2500  0.0256  0.3469
 5713ntf    on528992   2.719   3.501   3.130 -0.2918 -0.3769 -0.2371
 5713ntf    fn428993   3.064   3.456   3.256 -0.0338 -0.0635 -0.3395
 5713ntf    fn428994   2.914   3.578   3.339 -0.7776  0.1076  0.3804
 5713ntf    fn428995   2.896   3.373   3.352  0.4386  0.7422  0.1440
 5714ntf    cn128996   2.663   5.268   0.453 -0.0433 -0.2195  0.1432
 5714ntf    sn228997   2.518   5.214   0.357  0.2259  0.0514 -0.4238
 5714ntf    nn328998   2.487   5.334   0.261 -0.2310 -0.0464 -0.3974
 5714ntf    sn228999   2.554   5.365   0.122  0.1689  0.2722 -0.1353
 5714ntf    cn129000   2.657   5.504   0.177  0.4136 -0.1344  0.4409
 5714ntf    fn429001   2.774   5.257   0.380  0.0666 -0.1585  0.3008
 5714ntf    fn429002   2.661   5.395   0.491 -0.2267 -0.2040  0.0810
 5714ntf    fn429003   2.694   5.208   0.567 -0.2698 -0.1567  0.2376
 5714ntf    on529004   2.561   5.088   0.302  0.1845 -0.1391 -0.0213
 5714ntf    on529005   2.411   5.205   0.454  0.3022  0.5031 -0.2946
 5714ntf    on529006   2.467   5.415   0.019  0.0624  0.3218 -0.0222
 5714ntf    on529007   2.649   5.264   0.084  0.3025  0.4588 -0.2991
 5714ntf    fn429008   2.746   5.531   0.083 -0.1084  0.0443 -0.0021
 5714ntf    fn429009   2.591   5.614   0.208  0.2158 -0.2001  0.2468
 5714ntf    fn429010   2.717   5.474   0.292 -0.0370  0.2617  0.7841
 5715ntf    cn129011   5.929   5.040   7.173  0.1372 -0.1695 -0.1805
 5715ntf    sn229012   6.031   5.143   7.064 -0.0103  0.0251 -0.1366
 5715ntf    nn329013   6.079   5.255   7.163 -0.2983  0.0155  0.0141
 5715ntf    sn229014   6.053   5.409   7.145 -0.1665  0.0145 -0.1865
 5715ntf    cn129015   5.880   5.427   7.196 -0.1038  0.1289 -0.0140
 5715ntf    fn429016   5.903   4.920   7.124 -0.0500 -0.2316  0.0670
 5715ntf    fn429017   5.988   5.023   7.291 -0.2298 -0.0729  0.0203
 5715ntf    fn429018   5.810   5.094   7.195  0.2024 -0.1028  0.0128
 5715ntf    on529019   6.133   5.054   7.015  0.2425  0.1219  0.2148
 5715ntf    on529020   5.930   5.190   6.972 -0.6267 -0.5586  0.2377
 5715ntf    on529021   6.050   5.459   7.010 -0.4353  0.3635 -0.0494
 5715ntf    on529022   6.129   5.489   7.237 -0.3249  0.3190 -0.3191
 5715ntf    fn429023   5.853   5.533   7.271  0.7229 -0.1100  0.6265
 5715ntf    fn429024   5.790   5.434   7.098 -0.1174 -0.2099 -0.0248
 5715ntf    fn429025   5.855   5.320   7.268  0.2435  0.0572  0.0024
 5716ntf    cn129026   3.223   1.165   6.574 -0.2185 -0.1076  0.1245
 5716ntf    sn229027   3.346   1.044   6.630 -0.0317  0.0715  0.1025
 5716ntf    nn329028   3.293   0.919   6.552 -0.1867  0.1731  0.0462
 5716ntf    sn229029   3.179   0.822   6.601 -0.2140  0.1530 -0.0561
 5716ntf    cn129030   3.288   0.698   6.679  0.1756  0.3356 -0.3065
 5716ntf    fn429031   3.209   1.163   6.442  0.2274  0.2993  0.0669
 5716ntf    fn429032   3.105   1.153   6.630 -0.3510  0.6923  0.0364
 5716ntf    fn429033   3.265   1.287   6.603  0.2830 -0.1951 -0.2147
 5716ntf    on529034   3.467   1.095   6.570 -0.0150 -0.6384 -0.4912
 5716ntf    on529035   3.340   1.037   6.774  0.1954 -0.2497  0.0991
 5716ntf    on529036   3.112   0.754   6.493 -0.1333  0.2478 -0.1654
 5716ntf    on529037   3.090   0.870   6.704  0.2267  0.7254  0.0652
 5716ntf    fn429038   3.375   0.663   6.586  0.6543  0.3723  0.1255
 5716ntf    fn429039   3.357   0.739   6.784  0.1539  0.3384 -0.2937
 5716ntf    fn429040   3.218   0.596   6.726 -0.0241  0.5616 -0.1095
 5717ntf    cn129041   7.403   6.833   3.057  0.1595 -0.2232 -0.5516
 5717ntf    sn229042   7.573   6.779   3.093  0.2277  0.1191 -0.3625
 5717ntf    nn329043   7.549   6.725   3.239 -0.2938  0.2386 -0.4002
 5717ntf    sn229044   7.500   6.584   3.289  0.4527  0.0615 -0.1496
 5717ntf    cn129045   7.653   6.488   3.307  0.4105  0.0160 -0.0406
 5717ntf    fn429046   7.385   6.876   2.933 -0.5782 -0.3417 -0.4888
 5717ntf    fn429047   7.314   6.740   3.088  0.2065 -0.1405 -0.1692
 5717ntf    fn429048   7.381   6.941   3.130  0.3555 -0.4059 -0.2219
 5717ntf    on529049   7.607   6.683   2.991  0.1975  0.0421 -0.2996
 5717ntf    on529050   7.647   6.903   3.098 -0.3580  0.4588  0.1077
 5717ntf    on529051   7.417   6.512   3.196  0.5145 -0.0199 -0.1417
 5717ntf    on529052   7.459   6.593   3.426  0.0683 -0.0855 -0.2544
 5717ntf    fn429053   7.636   6.375   3.374 -0.3667 -0.0969 -0.4247
 5717ntf    fn429054   7.703   6.452   3.190  0.6020  0.0265  0.0372
 5717ntf    fn429055   7.748   6.557   3.368  0.6033  0.1240 -0.4592
 5718ntf    cn129056   1.377   3.044   3.091  0.2502  0.6258 -0.1089
 5718ntf    sn229057   1.244   3.103   2.981  0.1380  0.1041 -0.2542
 5718ntf    nn329058   1.155   3.178   3.085  0.2244 -0.3345  0.1409
 5718ntf    sn229059   1.064   3.114   3.197 -0.1535  0.2809  0.1924
 5718ntf    cn129060   1.129   3.212   3.336  0.0048  0.2547  0.1376
 5718ntf    fn429061   1.456   2.966   3.019  0.2611  0.4555  0.0878
 5718ntf    fn429062   1.454   3.137   3.145  0.1193  0.6291  0.0714
 5718ntf    fn429063   1.346   2.961   3.189  0.0482  0.2085 -0.5220
 5718ntf    on529064   1.313   3.190   2.889  0.2050  0.3595  0.0369
 5718ntf    on529065   1.198   2.978   2.926  0.5342 -0.1205 -0.0817
 5718ntf    on529066   1.105   2.981   3.234 -0.4783  0.0565 -0.2574
 5718ntf    on529067   0.924   3.144   3.181 -0.1541  0.3825  0.3845
 5718ntf    fn429068   1.122   3.159   3.457  0.1136 -0.0684  0.0038
 5718ntf    fn429069   1.260   3.230   3.330  0.1290 -0.6225  0.1303
 5718ntf    fn429070   1.077   3.334   3.340 -0.3617  0.1183 -0.3379
 5719ntf    cn129071   3.138   1.483   6.969 -0.1518  0.0915 -0.6101
 5719ntf    sn229072   3.278   1.566   7.050 -0.1836 -0.0889 -0.3686
 5719ntf    nn329073   3.329   1.647   6.925 -0.2575 -0.1649 -0.4487
 5719ntf    sn229074   3.278   1.790   6.885 -0.0154  0.0957  0.1514
 5719ntf    cn129075   3.385   1.889   6.994  0.0400 -0.1509  0.3208
 5719ntf    fn429076   3.046   1.567   6.925 -0.4919  0.3199  0.5056
 5719ntf    fn429077   3.176   1.418   6.861  0.3851 -0.0064 -0.3637
 5719ntf    fn429078   3.081   1.402   7.057  0.1390  0.3606 -0.1682
 5719ntf    on529079   3.230   1.645   7.161  0.2491  0.0576 -0.2839
 5719ntf    on529080   3.362   1.454   7.087 -0.3216 -0.1142 -0.1298
 5719ntf    on529081   3.146   1.822   6.935 -0.1757 -0.1930 -0.0778
 5719ntf    on529082   3.317   1.831   6.752  0.1001 -0.0974  0.1255
 5719ntf    fn429083   3.512   1.856   6.982  0.1184  0.3461 -0.2716
 5719ntf    fn429084   3.377   2.015   6.957 -0.5033 -0.2381  0.1316
 5719ntf    fn429085   3.352   1.884   7.122  0.2193  0.0255  0.3730
 5720ntf    cn129086   4.768   5.198   1.311  0.0135  0.1272  0.0207
 5720ntf    sn229087   4.704   5.359   1.255 -0.1140  0.1330  0.1811
 5720ntf    nn329088   4.550   5.339   1.279 -0.1841  0.2097 -0.2055
 5720ntf    sn229089   4.463   5.374   1.404 -0.1555 -0.0456 -0.1140
 5720ntf    cn129090   4.419   5.547   1.372  0.0372  0.0111 -0.0743
 5720ntf    fn429091   4.736   5.174   1.437 -0.2962 -0.3299 -0.1428
 5720ntf    fn429092   4.705   5.103   1.243 -0.3949  0.3996  0.0162
 5720ntf    fn429093   4.898   5.178   1.296  0.0050 -0.0932  0.2247
 5720ntf    on529094   4.776   5.446   1.344 -0.2743  1.1427 -0.6664
 5720ntf    on529095   4.730   5.379   1.115 -0.2934 -0.1218  0.1116
 5720ntf    on529096   4.528   5.372   1.533  0.0931 -0.2543 -0.2404
 5720ntf    on529097   4.336   5.305   1.405 -0.1739 -0.0148  0.4463
 5720ntf    fn429098   4.363   5.608   1.476  0.2678  0.0624  0.0199
 5720ntf    fn429099   4.527   5.616   1.337 -0.1227  0.4076  0.2025
 5720ntf    fn429100   4.331   5.556   1.273  0.1679 -0.5575 -0.2453
 5721ntf    cn129101   1.121   0.506   3.480  0.1184  0.0230 -0.1641
 5721ntf    sn229102   1.246   0.455   3.602 -0.2070  0.0952  0.1998
 5721ntf    nn329103   1.273   0.305   3.565 -0.1825  0.1581 -0.0425
 5721ntf    sn229104   1.184   0.189   3.622  0.0269 -0.0294 -0.0938
 5721ntf    cn129105   1.151   0.102   3.466  0.1305  0.2488 -0.2722
 5721ntf    fn429106   1.030   0.412   3.462 -0.1137  0.1474  0.3522
 5721ntf    fn429107   1.059   0.618   3.512 -0.2656 -0.1061 -0.4504
 5721ntf    fn429108   1.182   0.524   3.364 -0.5847  0.1469 -0.5177
 5721ntf    on529109   1.358   0.538   3.562 -0.1906 -0.0277 -0.0089
 5721ntf    on529110   1.197   0.487   3.734 -0.4049  0.7315 -0.0232
 5721ntf    on529111   1.054   0.227   3.673  0.0247 -0.1168 -0.0327
 5721ntf    on529112   1.267   0.096   3.694  0.6110  0.3913 -0.2186
 5721ntf    fn429113   1.258   0.079   3.391  0.1899 -0.9463  0.1533
 5721ntf    fn429114   1.090  -0.013   3.492 -0.0613  0.3906 -0.1019
 5721ntf    fn429115   1.071   0.172   3.388 -0.1753  0.3596  0.1431
 5722ntf    cn129116   3.064   2.902   1.276  0.0420  0.2341 -0.2770
 5722ntf    sn229117   3.088   2.733   1.215  0.6842  0.2086  0.0448
 5722ntf    nn329118   3.027   2.744   1.071  0.0922 -0.0966  0.2683
 5722ntf    sn229119   2.932   2.646   0.993  0.1874  0.0644 -0.0526
 5722ntf    cn129120   2.771   2.697   1.060  0.0908 -0.3860  0.0570
 5722ntf    fn429121   2.936   2.937   1.271  0.0092  0.1241 -0.2080
 5722ntf    fn429122   3.101   2.923   1.402  0.4204 -0.0908 -0.3346
 5722ntf    fn429123   3.127   2.992   1.202 -0.2024  0.3474 -0.3502
 5722ntf    on529124   3.230   2.708   1.207  0.6676  0.1359 -0.0313
 5722ntf    on529125   3.007   2.650   1.301  0.2484 -0.2912 -0.8363
 5722ntf    on529126   2.938   2.509   1.035 -0.6505  0.1139  0.2380
 5722ntf    on529127   2.907   2.681   0.856 -0.3339  0.8104  0.2281
 5722ntf    fn429128   2.774   2.715   1.190 -0.0115 -0.1275  0.0245
 5722ntf    fn429129   2.730   2.810   1.005  0.4500 -0.2230  0.1289
 5722ntf    fn429130   2.675   2.608   1.035 -0.5122  0.3028 -0.1135
 5723ntf    cn129131   3.617   2.744   0.010  0.5081  0.2574 -0.5420
 5723ntf    sn229132   3.733   2.850   0.101  0.0980  0.3618 -0.1406
 5723ntf    nn329133   3.648   2.981   0.120 -0.6819 -0.2308  0.5587
 5723ntf    sn229134   3.581   3.029   0.253 -0.5011  0.1682  0.5054
 5723ntf    cn129135   3.702   3.147   0.319  0.1601 -0.2131 -0.0112
 5723ntf    fn429136   3.677   2.647  -0.059  0.3645  0.1720 -0.5473
 5723ntf    fn429137   3.526   2.689   0.088  0.6678  0.5650 -0.1395
 5723ntf    fn429138   3.549   2.814  -0.079 -0.0941  0.0809 -0.2231
 5723ntf    on529139   3.756   2.775   0.222  0.0737 -0.1384 -0.4438
 5723ntf    on529140   3.833   2.875   0.001 -0.1127 -0.2433 -0.5085
 5723ntf    on529141   3.547   2.936   0.357 -0.7959  0.1694  0.4133
 5723ntf    on529142   3.477   3.120   0.210 -0.0216  0.4968  0.0242
 5723ntf    fn429143   3.717   3.251   0.239  0.1566 -0.6532 -0.5810
 5723ntf    fn429144   3.665   3.180   0.442 -0.2110  0.5825 -0.3331
 5723ntf    fn429145   3.821   3.089   0.326  0.2979  0.0059 -0.4879
 5724ntf    cn129146   2.644   5.200   5.556  0.3372  0.1838 -0.3012
 5724ntf    sn229147   2.581   5.179   5.386  0.2241  0.0823 -0.2465
 5724ntf    nn329148   2.572   5.328   5.337 -0.0480  0.2576  0.3261
 5724ntf    sn229149   2.645   5.409   5.225 -0.1177  0.2622  0.2835
 5724ntf    cn129150   2.699   5.549   5.328 -0.1673  0.1305  0.4884
 5724ntf    fn429151   2.558   5.267   5.631  0.6276 -0.2731  0.4463
 5724ntf    fn429152   2.676   5.089   5.620 -0.3018  0.1322 -0.0563
 5724ntf    fn429153   2.751   5.276   5.566  0.4640 -0.0540  0.1846
 5724ntf    on529154   2.688   5.104   5.325 -0.5317 -0.7250 -0.5954
 5724ntf    on529155   2.457   5.109   5.407  0.4440 -0.1454  0.3250
 5724ntf    on529156   2.555   5.468   5.129 -0.5406 -0.2138  0.3854
 5724ntf    on529157   2.771   5.356   5.178 -0.1536  0.5423 -0.1429
 5724ntf    fn429158   2.789   5.627   5.270 -0.2130  0.0420  0.2973
 5724ntf    fn429159   2.598   5.627   5.362 -0.0748  0.4888 -0.0549
 5724ntf    fn429160   2.747   5.496   5.439  0.3540  0.4204  0.4051
 5725ntf    cn129161   3.691   0.160   0.927  0.3120  0.1991  0.1982
 5725ntf    sn229162   3.551   0.269   0.968  0.0975 -0.0826  0.2151
 5725ntf    nn329163   3.473   0.243   0.834  0.1787 -0.4893  0.2444
 5725ntf    sn229164   3.317   0.238   0.818  0.1695  0.0382  0.1265
 5725ntf    cn129165   3.295   0.060   0.852  0.1016 -0.0000 -0.1179
 5725ntf    fn429166   3.655   0.064   0.843  0.0347  0.4258  0.0538
 5725ntf    fn429167   3.791   0.222   0.867 -0.3129  0.5988 -0.4599
 5725ntf    fn429168   3.749   0.094   1.025  0.0456 -0.7711 -0.2876
 5725ntf    on529169   3.486   0.229   1.091 -0.0342  0.3546  0.2887
 5725ntf    on529170   3.618   0.396   0.980  0.5753 -0.2871 -0.2540
 5725ntf    on529171   3.273   0.246   0.681  0.2337  0.6584  0.1395
 5725ntf    on529172   3.235   0.302   0.918 -0.2826  0.0160 -0.2290
 5725ntf    fn429173   3.328   0.033   0.977 -0.1643 -0.4675 -0.1480
 5725ntf    fn429174   3.175   0.010   0.830  0.0994 -0.0308 -0.0355
 5725ntf    fn429175   3.384  -0.015   0.788  0.3228  0.0809  0.0932
 5726ntf    cn129176   1.691   0.149   4.852  0.5137 -0.6829  0.1125
 5726ntf    sn229177   1.778   0.080   4.996  0.5012 -0.0763  0.4142
 5726ntf    nn329178   1.893   0.186   5.005  0.6793 -0.2202 -0.1268
 5726ntf    sn229179   1.917   0.307   5.102 -0.4063  0.1479 -0.3025
 5726ntf    cn129180   1.778   0.417   5.059 -0.4738  0.1243 -0.1454
 5726ntf    fn429181   1.751   0.117   4.738  0.3983  0.0098 -0.1480
 5726ntf    fn429182   1.562   0.115   4.851  0.2827  0.1933 -0.2441
 5726ntf    fn429183   1.688   0.281   4.855 -0.3182 -0.6804 -0.4272
 5726ntf    on529184   1.672   0.078   5.094 -0.2376  0.6256 -0.3474
 5726ntf    on529185   1.820  -0.049   4.947  0.0781 -0.1824  0.3198
 5726ntf    on529186   2.030   0.386   5.061  0.3457 -0.6446  0.2261
 5726ntf    on529187   1.897   0.277   5.241  0.4196  0.1809 -0.1748
 5726ntf    fn429188   1.767   0.518   5.145 -0.1306 -0.0530  0.1126
 5726ntf    fn429189   1.797   0.471   4.940  0.5451 -0.1156 -0.1003
 5726ntf    fn429190   1.661   0.357   5.063 -0.2688 -0.2898 -0.2800
 5727ntf    cn129191   2.926   4.621   6.349  0.0792  0.2739 -0.2167
 5727ntf    sn229192   3.059   4.723   6.418  0.3824 -0.1125 -0.2252
 5727ntf    nn329193   3.183   4.627   6.405  0.0108 -0.6301  0.0461
 5727ntf    sn229194   3.268   4.580   6.281  0.1778 -0.1055 -0.0412
 5727ntf    cn129195   3.229   4.403   6.294  0.1215 -0.1328 -0.5635
 5727ntf    fn429196   2.813   4.688   6.334 -0.4794 -0.5071  0.4008
 5727ntf    fn429197   2.944   4.569   6.229  0.0652  0.1272 -0.1547
 5727ntf    fn429198   2.893   4.519   6.427 -0.3921  0.1657 -0.5564
 5727ntf    on529199   3.074   4.839   6.334 -0.9797 -0.0136 -0.3524
 5727ntf    on529200   3.013   4.744   6.553  0.5650  0.0038 -0.1794
 5727ntf    on529201   3.410   4.579   6.306  0.1843 -0.3620 -0.0885
 5727ntf    on529202   3.221   4.604   6.147  0.4183  0.4746 -0.0222
 5727ntf    fn429203   3.285   4.337   6.394  0.0740  0.5933 -0.0475
 5727ntf    fn429204   3.100   4.379   6.311  0.2569 -0.2465  0.3457
 5727ntf    fn429205   3.264   4.329   6.190  0.2512 -0.6274 -0.1741
 5728ntf    cn129206   5.872   0.335   0.068  0.1244  0.3537 -0.3565
 5728ntf    sn229207   6.041   0.353   0.132  0.0956 -0.3375 -0.0867
 5728ntf    nn329208   6.122   0.289   0.014  0.4939 -0.2672  0.1460
 5728ntf    sn229209   6.213   0.360  -0.092  0.2471 -0.0903  0.0515
 5728ntf    cn129210   6.368   0.370   0.002  0.2128  0.1340  0.0859
 5728ntf    fn429211   5.782   0.388   0.150  0.1914  0.0738 -0.1018
 5728ntf    fn429212   5.852   0.396  -0.048  0.5227  0.5606 -0.3186
 5728ntf    fn429213   5.838   0.209   0.050  0.5364  0.2238 -0.2198
 5728ntf    on529214   6.053   0.495   0.152 -0.0258 -0.2880 -0.3556
 5728ntf    on529215   6.041   0.274   0.253  0.0528 -0.3840 -0.1172
 5728ntf    on529216   6.188   0.498  -0.127  0.0804 -0.0746  0.2357
 5728ntf    on529217   6.253   0.270  -0.198 -0.2546 -0.3169  0.0524
 5728ntf    fn429218   6.413   0.252   0.041  0.2012 -0.1210 -0.6497
 5728ntf    fn429219   6.461   0.432  -0.069  0.2265  0.0795  0.0564
 5728ntf    fn429220   6.354   0.436   0.115  0.2099  1.0110 -0.4148
 5729ntf    cn129221   6.624   0.091   6.873 -0.3110  0.2904  0.0171
 5729ntf    sn229222   6.730   0.120   6.728 -0.0576 -0.1953  0.0997
 5729ntf    nn329223   6.664   0.013   6.634 -0.4112 -0.0781  0.2141
 5729ntf    sn229224   6.710  -0.134   6.607  0.2018  0.1723 -0.1127
 5729ntf    cn129225   6.552  -0.225   6.600  0.2835  0.0311 -0.1245
 5729ntf    fn429226   6.645  -0.028   6.928 -0.2724 -0.0729 -0.7757
 5729ntf    fn429227   6.647   0.177   6.971  0.4781 -0.0250  0.1212
 5729ntf    fn429228   6.496   0.108   6.846 -0.3053  0.0188 -0.1886
 5729ntf    on529229   6.699   0.253   6.681  0.0022 -0.2850 -0.1941
 5729ntf    on529230   6.864   0.093   6.774 -0.2052 -0.3503  0.4431
 5729ntf    on529231   6.770  -0.189   6.726  0.7311  0.4702 -0.2414
 5729ntf    on529232   6.770  -0.152   6.477 -0.0499  0.8111 -0.3224
 5729ntf    fn429233   6.569  -0.355   6.588  0.3110 -0.0011  0.2615
 5729ntf    fn429234   6.482  -0.212   6.711  0.1839  0.1142 -0.1973
 5729ntf    fn429235   6.478  -0.176   6.501  0.0469  0.0027  0.0394
 5730ntf    cn129236   4.481   4.345   1.944 -0.2801  0.2991  0.1849
 5730ntf    sn229237   4.649   4.410   1.920 -0.2570  0.1312 -0.1169
 5730ntf    nn329238   4.688   4.456   2.065 -0.5637 -0.4116  0.1414
 5730ntf    sn229239   4.653   4.597   2.125 -0.0668 -0.3641  0.3207
 5730ntf    cn129240   4.797   4.699   2.079 -0.0490 -0.4097  0.2765
 5730ntf    fn429241   4.470   4.274   2.056  0.2357  0.3759  0.2907
 5730ntf    fn429242   4.384   4.434   1.950  0.0251  0.6621 -0.1925
 5730ntf    fn429243   4.450   4.259   1.849 -0.4419  0.0600  0.4513
 5730ntf    on529244   4.716   4.287   1.882  0.1504  0.3032  0.0333
 5730ntf    on529245   4.651   4.509   1.816  0.0395  0.1755 -0.0712
 5730ntf    on529246   4.660   4.594   2.269  0.2060  0.8401  0.3481
 5730ntf    on529247   4.540   4.663   2.065  0.4181  0.0668 -0.1292
 5730ntf    fn429248   4.798   4.819   2.135 -0.2730 -0.1325 -0.3096
 5730ntf    fn429249   4.915   4.656   2.122  0.1982  0.1435  0.1625
 5730ntf    fn429250   4.808   4.720   1.949 -0.4003 -0.0867  0.2965
 5731ntf    cn129251   5.456   1.496   5.009 -0.3434  0.1261 -0.1282
 5731ntf    sn229252   5.410   1.329   5.065  0.1426  0.1180  0.2620
 5731ntf    nn329253   5.358   1.271   4.928  0.1780  0.2554  0.1893
 5731ntf    sn229254   5.345   1.123   4.876  0.1182  0.3107  0.0463
 5731ntf    cn129255   5.516   1.106   4.817  0.0729 -0.2670  0.0761
 5731ntf    fn429256   5.358   1.556   4.945 -0.5069  0.9702  0.8958
 5731ntf    fn429257   5.497   1.580   5.103  0.4139 -0.3348 -0.0374
 5731ntf    fn429258   5.554   1.498   4.920  0.0661 -0.3541  0.3052
 5731ntf    on529259   5.533   1.270   5.111  0.3961  0.5002  0.0783
 5731ntf    on529260   5.300   1.355   5.154 -0.0321 -0.4256  0.2083
 5731ntf    on529261   5.262   1.107   4.760 -0.0056 -0.0049  0.1786
 5731ntf    on529262   5.322   1.027   4.982  0.8883 -0.6978 -0.6830
 5731ntf    fn429263   5.602   1.099   4.917  0.1575  0.4403  0.0543
 5731ntf    fn429264   5.531   0.988   4.759 -0.0354 -0.1892 -0.1114
 5731ntf    fn429265   5.555   1.205   4.738  0.2589 -0.3419  0.0743
 5732ntf    cn129266   5.800   2.705   3.862  0.3948  0.1222  0.1563
 5732ntf    sn229267   5.741   2.874   3.887 -0.2535 -0.0729 -0.0419
 5732ntf    nn329268   5.727   2.879   4.043  0.0795  0.6029 -0.0316
 5732ntf    sn229269   5.603   2.847   4.134  0.0741 -0.0888 -0.2852
 5732ntf    cn129270   5.685   2.789   4.285  0.0226  0.0827 -0.1912
 5732ntf    fn429271   5.786   2.674   3.734 -0.1431 -0.1893  0.2878
 5732ntf    fn429272   5.930   2.689   3.882  0.3347 -0.0579  0.4041
 5732ntf    fn429273   5.736   2.613   3.933  0.2518  0.3333  0.3016
 5732ntf    on529274   5.853   2.951   3.839 -0.0202 -0.4142 -0.0471
 5732ntf    on529275   5.617   2.887   3.814 -0.1717  0.0433 -0.1616
 5732ntf    on529276   5.529   2.731   4.091 -0.1061 -0.1139  0.0867
 5732ntf    on529277   5.529   2.960   4.181 -0.1096 -0.3266 -0.0003
 5732ntf    fn429278   5.767   2.690   4.251 -0.1727 -0.3108  0.4619
 5732ntf    fn429279   5.745   2.886   4.353  0.2203 -0.4556  0.4195
 5732ntf    fn429280   5.593   2.739   4.365  0.1634 -0.1437 -0.1693
 5733ntf    cn129281   2.599   1.869   0.946 -0.0916 -0.3976 -0.1276
 5733ntf    sn229282   2.458   1.982   0.922 -0.0654 -0.3287  0.0450
 5733ntf    nn329283   2.501   2.116   0.992  0.6102 -0.5142 -0.0062
 5733ntf    sn229284   2.602   2.228   0.950 -0.2798  0.2559 -0.1219
 5733ntf    cn129285   2.505   2.356   0.864 -0.1586  0.4556  0.0369
 5733ntf    fn429286   2.637   1.863   1.072  0.0757  0.2716 -0.1411
 5733ntf    fn429287   2.556   1.750   0.908 -0.1237 -0.2587 -0.5401
 5733ntf    fn429288   2.706   1.894   0.871 -0.0536 -0.0819  0.0289
 5733ntf    on529289   2.440   1.982   0.779 -0.0636  0.4670  0.0410
 5733ntf    on529290   2.356   1.917   1.000  0.2794 -0.4468  0.4035
 5733ntf    on529291   2.703   2.178   0.860 -0.3687 -0.0887 -0.0324
 5733ntf    on529292   2.658   2.296   1.065  0.2722  0.4549 -0.5040
 5733ntf    fn429293   2.583   2.451   0.816 -0.1213  0.2884 -0.2349
 5733ntf    fn429294   2.431   2.313   0.764 -0.0521  0.5761 -0.0927
 5733ntf    fn429295   2.427   2.422   0.949 -0.4333  0.5478 -0.2871
 5734ntf    cn129296   7.009   0.071   2.576 -0.3084  0.0534 -0.3574
 5734ntf    sn229297   7.166   0.135   2.643 -0.1549 -0.3217 -0.3535
 5734ntf    nn329298   7.108   0.210   2.769 -0.4454 -0.2555 -0.5244
 5734ntf    sn229299   7.122   0.358   2.820 -0.1684 -0.3745 -0.2518
 5734ntf    cn129300   6.988   0.437   2.726  0.0659  0.0752 -0.2065
 5734ntf    fn429301   7.032   0.016   2.458 -0.0683  0.2870 -0.4189
 5734ntf    fn429302   6.948  -0.017   2.653  0.3969  0.4377  0.6684
 5734ntf    fn429303   6.923   0.170   2.560 -0.3404  0.1686  0.4498
 5734ntf    on529304   7.250   0.024   2.679  1.0144  0.4367 -0.7002
 5734ntf    on529305   7.208   0.232   2.545 -0.1134  0.0305  0.0096
 5734ntf    on529306   7.242   0.427   2.781 -0.3384  0.1015  0.0655
 5734ntf    on529307   7.082   0.379   2.957  0.3286 -0.6215 -0.0653
 5734ntf    fn429308   6.984   0.566   2.755 -0.1123  0.0849 -0.2720
 5734ntf    fn429309   7.005   0.426   2.596 -0.5217 -0.0605 -0.2763
 5734ntf    fn429310   6.868   0.393   2.760  0.3141 -0.6715 -0.2774
 5735ntf    cn129311   4.525   6.262   6.927 -0.6717 -0.2688 -0.0878
 5735ntf    sn229312   4.697   6.216   6.962 -0.6014 -0.0403 -0.1303
 5735ntf    nn329313   4.692   6.188   7.116 -0.8868  0.1880 -0.0982
 5735ntf    sn229314   4.711   6.288   7.236  0.1115  0.0585 -0.1392
 5735ntf    cn129315   4.605   6.218   7.366  0.0858  0.2730 -0.0436
 5735ntf    fn429316   4.501   6.284   6.799 -0.9407  0.0851  0.0205
 5735ntf    fn429317   4.443   6.164   6.961 -0.6906 -0.4308 -0.5947
 5735ntf    fn429318   4.488   6.373   6.989 -0.5969 -0.3046  0.0205
 5735ntf    on529319   4.719   6.100   6.879  0.1587  0.0340 -0.0413
 5735ntf    on529320   4.774   6.331   6.920  0.2112 -0.4186  0.2916
 5735ntf    on529321   4.638   6.412   7.220  0.1108  0.0116 -0.5258
 5735ntf    on529322   4.838   6.286   7.305 -0.1122 -0.2051  0.2663
 5735ntf    fn429323   4.476   6.225   7.337 -0.1663 -0.2707  0.9215
 5735ntf    fn429324   4.638   6.090   7.381  0.7995  0.3852 -0.5822
 5735ntf    fn429325   4.616   6.277   7.484 -0.5882 -0.3039  0.3101
 5736ntf    cn129326   5.908   4.733   5.144  0.5373 -0.0599 -0.3547
 5736ntf    sn229327   6.057   4.804   5.219  0.1718  0.1199  0.2065
 5736ntf    nn329328   6.041   4.954   5.175 -0.0595  0.0709  0.1266
 5736ntf    sn229329   6.028   5.005   5.027 -0.1194 -0.2258  0.0283
 5736ntf    cn129330   6.147   5.142   5.033 -0.4338  0.0599 -0.2752
 5736ntf    fn429331   5.920   4.704   5.016 -0.1317  0.0993 -0.4591
 5736ntf    fn429332   5.876   4.620   5.205  0.4075  0.0959 -0.1321
 5736ntf    fn429333   5.802   4.812   5.161  0.2663 -0.4621 -0.1643
 5736ntf    on529334   6.044   4.786   5.362  0.0470 -0.0803  0.1697
 5736ntf    on529335   6.173   4.739   5.164  0.1005  0.0478  0.1419
 5736ntf    on529336   5.903   5.067   4.991 -0.3361 -0.4414  0.3957
 5736ntf    on529337   6.083   4.918   4.926  0.4107  0.5871 -0.3968
 5736ntf    fn429338   6.271   5.105   5.063 -0.2821  0.2106 -0.7088
 5736ntf    fn429339   6.141   5.213   4.921 -0.6037 -0.0435 -0.3312
 5736ntf    fn429340   6.105   5.218   5.133 -0.2019 -0.3132  0.1073
 5737ntf    cn129341   6.600   3.342   1.190  0.0595  0.2459  0.1107
 5737ntf    sn229342   6.460   3.406   1.286 -0.0025  0.0704  0.1370
 5737ntf    nn329343   6.366   3.281   1.276  0.4419 -0.2300 -0.3324
 5737ntf    sn229344   6.264   3.230   1.168 -0.1690  0.0170  0.1156
 5737ntf    cn129345   6.338   3.067   1.136 -0.6566 -0.2541  0.3807
 5737ntf    fn429346   6.560   3.248   1.106 -0.7872  0.3005  0.4467
 5737ntf    fn429347   6.653   3.435   1.111  0.2297  0.2597  0.2412
 5737ntf    fn429348   6.698   3.298   1.266  0.0348 -0.0928 -0.0545
 5737ntf    on529349   6.509   3.440   1.417 -0.0764  0.5495  0.0423
 5737ntf    on529350   6.411   3.522   1.216  0.0410  0.0928  0.1438
 5737ntf    on529351   6.279   3.304   1.045  0.0776  0.2078  0.2585
 5737ntf    on529352   6.134   3.192   1.215  0.2505 -1.1493  0.3557
 5737ntf    fn429353   6.277   3.002   1.038  0.0872 -0.3127 -0.0460
 5737ntf    fn429354   6.464   3.064   1.098 -0.6773 -0.0481  0.2936
 5737ntf    fn429355   6.338   2.988   1.243 -0.1203 -0.1136  0.4866
 5738ntf    cn129356   5.588   3.419   3.428 -0.1065 -0.2781  0.0312
 5738ntf    sn229357   5.745   3.340   3.384  0.1115  0.0854  0.1510
 5738ntf    nn329358   5.703   3.231   3.280 -0.2898  0.1797  0.2120
 5738ntf    sn229359   5.661   3.083   3.311 -0.2360  0.1002 -0.0833
 5738ntf    cn129360   5.817   2.997   3.347 -0.0435  0.4610 -0.0543
 5738ntf    fn429361   5.608   3.505   3.527 -0.0978 -0.2196 -0.0215
 5738ntf    fn429362   5.523   3.485   3.334 -0.1110 -0.0719  0.1787
 5738ntf    fn429363   5.498   3.333   3.474 -0.3924  0.2588  0.4972
 5738ntf    on529364   5.815   3.452   3.327 -0.0607  0.3431  0.4423
 5738ntf    on529365   5.797   3.291   3.509  0.0063  0.0254  0.1709
 5738ntf    on529366   5.614   3.016   3.192  0.4939 -0.3279 -0.1382
 5738ntf    on529367   5.583   3.064   3.431  0.0496 -0.3019  0.0417
 5738ntf    fn429368   5.924   3.065   3.309  0.2601 -0.1949 -0.4047
 5738ntf    fn429369   5.836   2.975   3.476  0.6304 -0.6068 -0.3207
 5738ntf    fn429370   5.825   2.880   3.286  0.1989  0.7393 -0.5661
 5739ntf    cn129371   6.405   5.016   5.890 -0.1273  0.0943  0.0101
 5739ntf    sn229372   6.320   5.147   5.984 -0.0465 -0.2046  0.5026
 5739ntf    nn329373   6.324   5.089   6.130 -0.1692 -0.3938  0.4312
 5739ntf    sn229374   6.419   5.129   6.248  0.1418 -0.1472  0.1001
 5739ntf    cn129375   6.444   4.962   6.317  0.0450 -0.1063  0.2339
 5739ntf    fn429376   6.401   5.036   5.759 -0.0401  0.0527  0.0011
 5739ntf    fn429377   6.528   4.998   5.935 -0.0413  0.8320  0.0880
 5739ntf    fn429378   6.337   4.903   5.904 -0.1031  0.0984  0.1681
 5739ntf    on529379   6.393   5.269   5.959  0.5148 -0.6093  0.1131
 5739ntf    on529380   6.187   5.133   5.930  0.1007 -0.3957  0.1830
 5739ntf    on529381   6.350   5.196   6.355  0.0643  0.1776 -0.1546
 5739ntf    on529382   6.553   5.168   6.210  0.0662  0.0364  0.0207
 5739ntf    fn429383   6.333   4.907   6.363 -0.0564 -0.2041 -0.1290
 5739ntf    fn429384   6.488   4.879   6.225 -0.2210 -0.1411  0.1382
 5739ntf    fn429385   6.524   4.952   6.422  0.3999  0.1285 -0.0119
 5740ntf    cn129386   6.123   0.433   5.833 -0.2277 -0.1282  0.3214
 5740ntf    sn229387   6.013   0.533   5.937  0.2984  0.1515  0.6093
 5740ntf    nn329388   5.874   0.493   5.877  0.0870  0.4825  0.8728
 5740ntf    sn229389   5.745   0.577   5.843 -0.0783 -0.0909  0.0433
 5740ntf    cn129390   5.667   0.473   5.717  0.1584 -0.3053  0.0720
 5740ntf    fn429391   6.089   0.449   5.706  0.3605 -0.0617  0.1711
 5740ntf    fn429392   6.249   0.471   5.840 -0.2134 -0.0674 -0.2004
 5740ntf    fn429393   6.115   0.304   5.863 -0.1189 -0.0668  0.6169
 5740ntf    on529394   6.026   0.483   6.072  0.2316  0.0050  0.5614
 5740ntf    on529395   6.052   0.669   5.906 -0.6912  0.3098 -0.0029
 5740ntf    on529396   5.768   0.703   5.775  0.2975 -0.1019  0.1443
 5740ntf    on529397   5.654   0.586   5.954 -0.4043  0.5872 -0.2705
 5740ntf    fn429398   5.736   0.484   5.604 -0.1836  0.4174 -0.0692
 5740ntf    fn429399   5.644   0.345   5.742  0.2530 -0.3067  0.1495
 5740ntf    fn429400   5.542   0.512   5.693  0.1867 -0.4544 -0.3242
 5741ntf    cn129401   2.564   1.646   6.455 -0.0901 -0.0313  0.5429
 5741ntf    sn229402   2.726   1.573   6.490 -0.0828 -0.2196  0.1280
 5741ntf    nn329403   2.680   1.427   6.521  0.6393 -0.5154 -0.1701
 5741ntf    sn229404   2.654   1.306   6.423  0.0161 -0.4946 -0.0362
 5741ntf    cn129405   2.785   1.189   6.468  0.2046 -0.3007 -0.0770
 5741ntf    fn429406   2.510   1.593   6.346  0.3947 -0.5769  0.5632
 5741ntf    fn429407   2.487   1.614   6.558 -0.0516 -0.0585  0.5625
 5741ntf    fn429408   2.566   1.777   6.433 -0.2103 -0.1226 -0.0527
 5741ntf    on529409   2.799   1.602   6.369  0.2161 -0.0132  0.3551
 5741ntf    on529410   2.763   1.650   6.606 -0.1859  0.4415 -0.2701
 5741ntf    on529411   2.685   1.331   6.284 -0.1737  0.6275  0.1140
 5741ntf    on529412   2.534   1.232   6.449  0.1763 -0.7495 -0.0199
 5741ntf    fn429413   2.769   1.142   6.591 -0.1543  0.4167  0.1560
 5741ntf    fn429414   2.791   1.088   6.383 -0.9966 -0.1992 -0.2960
 5741ntf    fn429415   2.910   1.233   6.460  0.0233  0.2505  0.0670
 5742ntf    cn129416   6.781   1.847   5.771 -0.0848 -0.4449 -0.3024
 5742ntf    sn229417   6.873   1.706   5.702  0.2087 -0.3387 -0.1275
 5742ntf    nn329418   6.988   1.694   5.808 -0.2077  0.3662  0.4162
 5742ntf    sn229419   7.070   1.575   5.869 -0.0148  0.2292 -0.1054
 5742ntf    cn129420   7.064   1.612   6.047  0.2162 -0.3722  0.0310
 5742ntf    fn429421   6.676   1.881   5.698 -0.2532  0.4881  0.3608
 5742ntf    fn429422   6.721   1.814   5.885 -0.1628  0.1499 -0.1686
 5742ntf    fn429423   6.859   1.953   5.775 -0.3438 -0.2623 -0.0356
 5742ntf    on529424   6.776   1.599   5.701 -0.3137  0.1263  0.0011
 5742ntf    on529425   6.914   1.758   5.574  0.4274 -0.5890 -0.1598
 5742ntf    on529426   7.211   1.579   5.838  0.0092  0.0150 -0.0285
 5742ntf    on529427   7.008   1.445   5.865  0.0625  0.1798  0.2454
 5742ntf    fn429428   6.947   1.596   6.105  0.1848 -0.2062  0.0154
 5742ntf    fn429429   7.144   1.528   6.111 -0.0755 -0.2514  0.5547
 5742ntf    fn429430   7.109   1.736   6.062  0.2676 -0.3851 -0.0116
 5743ntf    cn129431   1.692   0.472   6.221 -0.0869 -0.1691  0.0351
 5743ntf    sn229432   1.674   0.500   6.042  0.0438 -0.0355  0.0431
 5743ntf    nn329433   1.584   0.628   6.051 -0.1735 -0.1522 -0.4218
 5743ntf    sn229434   1.428   0.640   6.063 -0.1130  0.0227  0.2820
 5743ntf    cn129435   1.385   0.637   5.886 -0.3526  0.0474  0.3390
 5743ntf    fn429436   1.729   0.346   6.239  0.6099  0.0303  0.0356
 5743ntf    fn429437   1.789   0.541   6.277 -0.1430 -0.1209  0.0734
 5743ntf    fn429438   1.582   0.484   6.293 -0.2549 -0.1982 -0.2154
 5743ntf    on529439   1.811   0.521   6.001  0.0615 -0.4814 -0.1279
 5743ntf    on529440   1.604   0.389   5.982 -0.2149  0.5422 -0.7478
 5743ntf    on529441   1.381   0.773   6.093  0.1538  0.3322 -0.6281
 5743ntf    on529442   1.360   0.525   6.117  0.0243 -0.3357 -0.3027
 5743ntf    fn429443   1.270   0.697   5.861 -0.4193 -0.1492  0.1723
 5743ntf    fn429444   1.474   0.694   5.807 -0.2873  0.0121  0.3868
 5743ntf    fn429445   1.384   0.510   5.849 -0.3559  0.1300  0.0565
 5744ntf    cn129446   5.460   3.459   0.556  0.0014  0.1746  0.2010
 5744ntf    sn229447   5.602   3.572   0.546  0.2304 -0.1363 -0.1044
 5744ntf    nn329448   5.715   3.466   0.518  0.1264 -0.3764  0.3685
 5744ntf    sn229449   5.748   3.409   0.376 -0.0954  0.0626  0.1363
 5744ntf    cn129450   5.750   3.232   0.420  0.2946  0.0902  0.2341
 5744ntf    fn429451   5.431   3.420   0.433  0.0444 -0.2760  0.3320
 5744ntf    fn429452   5.484   3.347   0.622  0.2953  0.0358 -0.1317
 5744ntf    fn429453   5.352   3.518   0.602 -0.3027 -0.2568  0.0465
 5744ntf    on529454   5.559   3.646   0.431  0.0150  0.0636  0.1038
 5744ntf    on529455   5.603   3.630   0.678  0.1139  0.3643 -0.3225
 5744ntf    on529456   5.885   3.442   0.343  0.1202 -0.1310  0.8271
 5744ntf    on529457   5.652   3.417   0.269 -0.3234  0.4373  0.3692
 5744ntf    fn429458   5.857   3.198   0.491  0.1275 -0.3124  0.2898
 5744ntf    fn429459   5.647   3.189   0.490  0.3294 -0.3496  0.0197
 5744ntf    fn429460   5.761   3.154   0.314  0.0714 -0.1383  0.3793
 5745ntf    cn129461   5.915   3.046   5.581  0.2540  0.1840  0.3585
 5745ntf    sn229462   5.766   3.149   5.599  0.1785  0.1450 -0.0380
 5745ntf    nn329463   5.738   3.146   5.753 -0.0015 -0.0941 -0.0735
 5745ntf    sn229464   5.611   3.111   5.839  0.0742 -0.0740  0.0472
 5745ntf    cn129465   5.554   3.279   5.874  0.4658  0.1072 -0.1802
 5745ntf    fn429466   5.937   3.018   5.453  0.0013  0.1166  0.3304
 5745ntf    fn429467   6.025   3.109   5.621  0.1765  0.5096  0.0680
 5745ntf    fn429468   5.907   2.932   5.648 -0.4689 -0.1026 -0.2083
 5745ntf    on529469   5.806   3.280   5.555  0.2648  0.3164  0.5488
 5745ntf    on529470   5.673   3.081   5.511  0.2146  0.0101  0.0270
 5745ntf    on529471   5.650   3.059   5.968 -0.1454 -0.1785  0.0727
 5745ntf    on529472   5.497   3.051   5.775  0.3987 -0.2538 -0.3713
 5745ntf    fn429473   5.447   3.268   5.950  0.5361  0.2576 -0.0592
 5745ntf    fn429474   5.641   3.348   5.946  0.8854 -0.0695 -0.5181
 5745ntf    fn429475   5.511   3.354   5.773  0.1951 -0.1063 -0.2253
 5746ntf    cn129476   0.035   0.769   1.643 -0.0841  0.4217 -0.4197
 5746ntf    sn229477   0.216   0.767   1.628 -0.0515  0.3387 -0.0433
 5746ntf    nn329478   0.245   0.808   1.479 -0.1959 -0.1776 -0.2174
 5746ntf    sn229479   0.290   0.951   1.431 -0.1214 -0.1023  0.0728
 5746ntf    cn129480   0.198   0.956   1.274  0.0710 -0.1300 -0.0406
 5746ntf    fn429481  -0.023   0.882   1.606  0.2217  0.4571 -0.7933
 5746ntf    fn429482  -0.027   0.685   1.562 -0.3328  0.2376 -0.0409
 5746ntf    fn429483  -0.008   0.746   1.766 -0.9532 -0.5557 -0.8957
 5746ntf    on529484   0.260   0.859   1.730 -0.0609  0.5796 -0.2552
 5746ntf    on529485   0.241   0.626   1.644 -0.1575  0.3299  0.0414
 5746ntf    on529486   0.431   0.951   1.400 -0.0748  0.0495  0.2842
 5746ntf    on529487   0.232   1.060   1.505 -0.2544 -0.1712  0.0702
 5746ntf    fn429488   0.214   0.842   1.208  0.1854 -0.2473  0.1864
 5746ntf    fn429489   0.068   0.963   1.296  0.1482  0.4088  0.2523
 5746ntf    fn429490   0.231   1.052   1.189  0.2971 -0.0944  0.0866
 5747ntf    cn129491   2.475   5.747   7.166 -0.2107  0.0124 -0.4303
 5747ntf    sn229492   2.309   5.769   7.237  0.0010 -0.3349  0.1818
 5747ntf    nn329493   2.238   5.846   7.120  0.7409  0.4692  0.2556
 5747ntf    sn229494   2.146   5.973   7.132 -0.1379 -0.1660  0.3098
 5747ntf    cn129495   2.256   6.117   7.123 -0.2611 -0.0896  0.0309
 5747ntf    fn429496   2.474   5.675   7.055 -0.4445 -0.2015 -0.2918
 5747ntf    fn429497   2.537   5.859   7.132  0.1158 -0.0820 -0.1502
 5747ntf    fn429498   2.560   5.688   7.249 -0.3145  0.2660 -0.1433
 5747ntf    on529499   2.261   5.633   7.245  0.6660 -0.6061 -0.3243
 5747ntf    on529500   2.346   5.841   7.356  0.6390 -0.1397 -0.1306
 5747ntf    on529501   2.074   5.985   7.256  0.2730 -0.3175  0.5652
 5747ntf    on529502   2.077   5.981   7.006  0.1367  0.5211  0.1972
 5747ntf    fn429503   2.301   6.125   6.998 -0.2580 -0.6298 -0.0042
 5747ntf    fn429504   2.203   6.235   7.151  0.4923  0.1686  0.3839
 5747ntf    fn429505   2.355   6.104   7.209 -0.4261  0.2838  0.2771
 5748ntf    cn129506   2.300   2.306   1.596 -0.4361 -0.1617 -0.2924
 5748ntf    sn229507   2.317   2.221   1.756  0.0146  0.3034 -0.0887
 5748ntf    nn329508   2.259   2.326   1.857  0.0102  0.1672  0.0512
 5748ntf    sn229509   2.112   2.350   1.905 -0.0835  0.0484 -0.1764
 5748ntf    cn129510   2.098   2.222   2.033  0.1686  0.0333 -0.1639
 5748ntf    fn429511   2.334   2.223   1.499  0.0703 -0.0128 -0.2471
 5748ntf    fn429512   2.182   2.357   1.565 -0.2311  0.5626  0.1073
 5748ntf    fn429513   2.387   2.406   1.594 -0.7718  0.1483  0.3339
 5748ntf    on529514   2.241   2.100   1.739 -0.4156  0.5791 -0.1629
 5748ntf    on529515   2.457   2.200   1.783  0.1911  0.6165 -0.7406
 5748ntf    on529516   2.018   2.331   1.797  0.1217 -0.3993 -0.2753
 5748ntf    on529517   2.099   2.469   1.986  0.2453  0.0836 -0.1753
 5748ntf    fn429518   2.211   2.209   2.101 -0.1770 -0.0294  0.4107
 5748ntf    fn429519   1.998   2.232   2.119  0.0811 -0.0986 -0.2511
 5748ntf    fn429520   2.092   2.101   1.982  0.0997  0.1745 -0.4960
 5749ntf    cn129521   4.209   7.078   2.630  0.5784 -0.3572 -0.4147
 5749ntf    sn229522   4.305   7.176   2.750 -0.3323  0.0731 -0.0282
 5749ntf    nn329523   4.432   7.201   2.661 -0.4864  0.1516 -0.2280
 5749ntf    sn229524   4.478   7.325   2.576  0.2801 -0.1970 -0.3340
 5749ntf    cn129525   4.616   7.381   2.680  0.2209 -0.0481 -0.3347
 5749ntf    fn429526   4.196   7.144   2.516 -0.2921 -0.0136 -0.1266
 5749ntf    fn429527   4.268   6.962   2.606  0.3547 -0.4607 -0.4649
 5749ntf    fn429528   4.087   7.047   2.668  0.5219  0.4120  0.0545
 5749ntf    on529529   4.231   7.295   2.783  0.0842  0.3256  0.0054
 5749ntf    on529530   4.325   7.087   2.861  0.0961  0.3018  0.0811
 5749ntf    on529531   4.396   7.444   2.575  0.3317 -0.1625 -0.5134
 5749ntf    on529532   4.542   7.290   2.452  0.3931 -0.5135 -0.1889
 5749ntf    fn429533   4.582   7.449   2.788 -0.0750 -0.6460 -0.0484
 5749ntf    fn429534   4.697   7.283   2.716 -0.1415 -0.2994 -0.1963
 5749ntf    fn429535   4.701   7.461   2.617  0.0489  0.0682 -0.4188
 5750ntf    cn129536   4.372   0.566   3.372 -0.3086  0.0614 -0.1732
 5750ntf    sn229537   4.423   0.403   3.311 -0.2181  0.0543 -0.0799
 5750ntf    nn329538   4.545   0.435   3.218 -0.1845 -0.0610 -0.0765
 5750ntf    sn229539   4.612   0.363   3.096  0.1477 -0.0468  0.0966
 5750ntf    cn129540   4.732   0.254   3.179  0.0389 -0.1733  0.0864
 5750ntf    fn429541   4.322   0.644   3.277  0.1384  0.0317 -0.4379
 5750ntf    fn429542   4.279   0.553   3.465 -0.2585 -0.7481 -0.2342
 5750ntf    fn429543   4.468   0.632   3.434 -0.8015  0.5077  0.1241
 5750ntf    on529544   4.453   0.329   3.431  0.4856  0.0822 -0.2356
 5750ntf    on529545   4.301   0.359   3.247 -0.1050 -0.5499  0.1110
 5750ntf    on529546   4.696   0.454   3.022  0.0236  0.0740  0.1056
 5750ntf    on529547   4.521   0.281   3.021 -0.0681  0.0358  0.2669
 5750ntf    fn429548   4.815   0.318   3.260 -0.1112  0.4892 -0.2754
 5750ntf    fn429549   4.671   0.157   3.246  0.0155  0.0160  0.3402
 5750ntf    fn429550   4.808   0.193   3.090  0.3318 -0.1170  0.2972
 5751ntf    cn129551   1.762   6.099   4.014 -0.1566 -0.2283  0.1938
 5751ntf    sn229552   1.633   6.062   3.892 -0.1650  0.0641  0.1132
 5751ntf    nn329553   1.671   6.175   3.790 -0.0974 -0.1814 -0.1345
 5751ntf    sn229554   1.770   6.170   3.668 -0.1216 -0.0697 -0.1596
 5751ntf    cn129555   1.872   6.315   3.704 -0.1355 -0.0092 -0.3645
 5751ntf    fn429556   1.879   6.068   3.961 -0.4154 -0.1769 -0.4136
 5751ntf    fn429557   1.761   6.223   4.062 -0.1273 -0.0705 -0.2143
 5751ntf    fn429558   1.745   6.016   4.115  0.1730 -0.0570  0.3963
 5751ntf    on529559   1.656   5.924   3.860 -0.3115  0.2178 -0.6786
 5751ntf    on529560   1.517   6.095   3.972 -0.1657  0.3989 -0.0220
 5751ntf    on529561   1.710   6.211   3.543 -0.5951  0.2509  0.1702
 5751ntf    on529562   1.870   6.066   3.670  0.2163  0.2574  0.1414
 5751ntf    fn429563   1.801   6.424   3.732 -0.2153 -0.0061 -0.5804
 5751ntf    fn429564   1.950   6.282   3.806 -0.3024  0.0038 -0.2328
 5751ntf    fn429565   1.954   6.347   3.606  0.2267 -0.0718 -0.0842
 5752ntf    cn129566   3.342   2.839   6.222  0.0822 -0.0654 -0.0863
 5752ntf    sn229567   3.193   2.739   6.252  0.0177  0.0522 -0.0142
 5752ntf    nn329568   3.129   2.826   6.367  0.6687  0.4499  0.0517
 5752ntf    sn229569   3.036   2.952   6.354 -0.0538 -0.0934 -0.1338
 5752ntf    cn129570   3.108   3.066   6.475 -0.0574  0.2364 -0.4412
 5752ntf    fn429571   3.401   2.806   6.108  0.0549 -0.3663 -0.0138
 5752ntf    fn429572   3.324   2.970   6.220  0.2595 -0.0450 -0.3310
 5752ntf    fn429573   3.435   2.809   6.312 -0.0047 -0.1273 -0.0163
 5752ntf    on529574   3.130   2.744   6.122  0.0222  0.1531 -0.0126
 5752ntf    on529575   3.254   2.620   6.305 -0.3519 -0.3818 -0.5528
 5752ntf    on529576   2.904   2.929   6.406 -0.1696 -0.0721 -0.4165
 5752ntf    on529577   3.039   3.021   6.227 -0.0915  0.0584 -0.0524
 5752ntf    fn429578   3.062   3.190   6.471  0.3519  0.4266  0.4566
 5752ntf    fn429579   3.085   3.033   6.601 -0.3435  0.6536 -0.3814
 5752ntf    fn429580   3.239   3.076   6.463 -0.0579  0.4517 -0.2735
 5753ntf    cn129581   7.420   3.471   1.191  0.0705 -0.2949  0.4876
 5753ntf    sn229582   7.280   3.381   1.118  0.1759  0.0518 -0.1504
 5753ntf    nn329583   7.208   3.503   1.050 -0.0599  0.0001  0.0038
 5753ntf    sn229584   7.088   3.591   1.101 -0.2897 -0.1197 -0.3338
 5753ntf    cn129585   6.944   3.489   1.054 -0.2336 -0.0488 -0.6661
 5753ntf    fn429586   7.383   3.542   1.297  0.1577 -0.2845  0.5111
 5753ntf    fn429587   7.510   3.390   1.243  0.5234  0.1136  0.3568
 5753ntf    fn429588   7.482   3.550   1.104 -0.7974  0.1124  0.2270
 5753ntf    on529589   7.344   3.299   1.019  0.4861  0.0843  0.0228
 5753ntf    on529590   7.217   3.316   1.230  0.3816  0.1402  0.0171
 5753ntf    on529591   7.062   3.710   1.024 -0.5474 -0.1998 -0.3733
 5753ntf    on529592   7.089   3.616   1.243  0.2643  0.4519 -0.4329
 5753ntf    fn429593   6.954   3.429   0.937 -0.0796 -0.3062 -0.5201
 5753ntf    fn429594   6.928   3.394   1.145  0.8263  0.2254 -0.1814
 5753ntf    fn429595   6.834   3.563   1.055 -0.2451 -0.0652 -0.2200
 5754ntf    cn129596   7.441   0.450   0.178  0.1090  0.1535  0.1694
 5754ntf    sn229597   7.496   0.608   0.107  0.1814  0.1321  0.1772
 5754ntf    nn329598   7.649   0.575   0.093  0.1246  0.0554 -0.2811
 5754ntf    sn229599   7.748   0.598  -0.027 -0.1083 -0.3103 -0.5467
 5754ntf    cn129600   7.905   0.649   0.048 -0.4629 -0.2727  0.1812
 5754ntf    fn429601   7.510   0.435   0.290  0.5320 -0.4335 -0.1686
 5754ntf    fn429602   7.314   0.449   0.215  0.1879  0.0708  0.4424
 5754ntf    fn429603   7.473   0.344   0.106 -0.2678  0.1649 -0.0151
 5754ntf    on529604   7.424   0.615  -0.018  0.3608  0.0564  0.0700
 5754ntf    on529605   7.464   0.701   0.212  0.6621 -0.2829  0.6978
 5754ntf    on529606   7.711   0.703  -0.118  0.2903  0.3460  0.0401
 5754ntf    on529607   7.774   0.469  -0.086 -0.1663 -0.5340 -0.0953
 5754ntf    fn429608   8.004   0.646  -0.039 -0.2271 -0.8535  0.4620
 5754ntf    fn429609   7.892   0.774   0.091  0.0378 -0.2361  0.2384
 5754ntf    fn429610   7.934   0.575   0.154 -0.0151  0.0612  0.2946
 5755ntf    cn129611   6.301   0.845   6.795 -0.1778  0.3392 -0.1527
 5755ntf    sn229612   6.248   0.696   6.885 -0.0193  0.3346 -0.0670
 5755ntf    nn329613   6.107   0.749   6.927 -0.0029 -0.0978  0.5545
 5755ntf    sn229614   6.069   0.863   7.028 -0.2525  0.1208  0.2162
 5755ntf    cn129615   5.958   0.762   7.131 -0.1269  0.0583  0.2904
 5755ntf    fn429616   6.215   0.885   6.703  0.0924  0.4863 -0.3403
 5755ntf    fn429617   6.321   0.947   6.877  0.0233  0.2916 -0.1421
 5755ntf    fn429618   6.418   0.828   6.737 -0.3129 -0.5026 -0.1929
 5755ntf    on529619   6.247   0.593   6.784 -0.1510  0.1950  0.0763
 5755ntf    on529620   6.338   0.683   6.997 -0.4445 -0.0625  0.2269
 5755ntf    on529621   5.976   0.958   6.971  0.3525  0.5267 -0.0997
 5755ntf    on529622   6.171   0.910   7.118  0.1258 -0.2745 -0.0065
 5755ntf    fn429623   6.016   0.650   7.171 -0.4641 -0.2458 -0.0713
 5755ntf    fn429624   5.926   0.831   7.240 -0.3378 -0.3597  0.4948
 5755ntf    fn429625   5.844   0.742   7.067  0.2691  0.0087 -0.4009
 5756ntf    cn129626   1.428   6.140   5.586  0.1848  0.1776  0.4200
 5756ntf    sn229627   1.516   6.287   5.525  0.1452  0.0313  0.0096
 5756ntf    nn329628   1.512   6.254   5.372 -0.0462 -0.1911  0.0626
 5756ntf    sn229629   1.619   6.293   5.264 -0.1985 -0.3425 -0.1439
 5756ntf    cn129630   1.692   6.129   5.238  0.0273 -0.2465 -0.1101
 5756ntf    fn429631   1.397   6.156   5.714 -0.1245 -0.5934  0.4454
 5756ntf    fn429632   1.315   6.121   5.519  0.2068 -0.1824  0.4829
 5756ntf    fn429633   1.496   6.028   5.575 -0.4420 -0.1446 -0.2788
 5756ntf    on529634   1.438   6.404   5.556  0.0792  0.0028 -0.0491
 5756ntf    on529635   1.647   6.270   5.584  0.3344  0.4032 -0.2978
 5756ntf    on529636   1.729   6.377   5.303 -0.3141 -0.2124 -0.0966
 5756ntf    on529637   1.555   6.317   5.137  0.0527 -0.7271 -0.3456
 5756ntf    fn429638   1.737   6.071   5.349 -0.2730  0.3788  0.3443
 5756ntf    fn429639   1.608   6.045   5.180  0.1887 -0.1869 -0.4333
 5756ntf    fn429640   1.793   6.138   5.153 -0.1504 -0.0708 -0.3030
 5757ntf    cn129641   6.161   6.965   0.273 -0.4856 -0.1983  0.0865
 5757ntf    sn229642   6.022   6.965   0.155 -0.1921 -0.1986 -0.2596
 5757ntf    nn329643   6.112   6.937   0.030  0.1653  0.0180 -0.0545
 5757ntf    sn229644   6.139   6.803  -0.046 -0.0931 -0.0386 -0.0475
 5757ntf    cn129645   6.008   6.819  -0.171  0.2757  0.2726 -0.3989
 5757ntf    fn429646   6.125   6.992   0.398  0.0987 -0.7326  0.3733
 5757ntf    fn429647   6.221   6.847   0.271  0.0554  0.0799 -0.1121
 5757ntf    fn429648   6.253   7.055   0.243 -0.5001 -0.2614 -0.1472
 5757ntf    on529649   5.934   6.858   0.195 -0.0937 -0.3137 -0.3487
 5757ntf    on529650   5.969   7.099   0.147  0.0761 -0.0534  0.3327
 5757ntf    on529651   6.103   6.679   0.019  0.4530 -0.2709 -0.1841
 5757ntf    on529652   6.260   6.807  -0.125 -0.0185  0.6057  0.0959
 5757ntf    fn429653   5.883   6.807  -0.127  0.5268 -0.5296  0.1171
 5757ntf    fn429654   6.015   6.929  -0.243  0.3191  0.1704 -0.5523
 5757ntf    fn429655   6.001   6.722  -0.261 -0.4889 -0.3493  0.3072
 5758ntf    cn129656   6.522   0.979   5.371  0.1655  0.1008 -0.0331
 5758ntf    sn229657   6.548   0.947   5.194 -0.1542  0.2238 -0.1042
 5758ntf    nn329658   6.495   0.799   5.184  0.3029  0.0570 -0.0898
 5758ntf    sn229659   6.446   0.711   5.064 -0.1001 -0.1569  0.2316
 5758ntf    cn129660   6.549   0.567   5.105  0.2543  0.0038 -0.0913
 5758ntf    fn429661   6.600   0.903   5.446  0.0345 -0.0488 -0.0477
 5758ntf    fn429662   6.560   1.101   5.406  0.1757 -0.0027  0.3152
 5758ntf    fn429663   6.396   0.961   5.409  0.1910 -0.8939 -0.3828
 5758ntf    on529664   6.465   1.050   5.136  0.0132  0.5803  0.2890
 5758ntf    on529665   6.690   0.951   5.172 -0.1012 -0.4412  0.0866
 5758ntf    on529666   6.491   0.754   4.934  0.2251 -0.3228  0.2894
 5758ntf    on529667   6.312   0.657   5.073 -0.2086  0.0452 -0.1609
 5758ntf    fn429668   6.562   0.549   5.235  0.1205  0.0606 -0.0704
 5758ntf    fn429669   6.496   0.454   5.059  0.0332  0.2259 -0.3926
 5758ntf    fn429670   6.672   0.580   5.057  0.3084 -0.2140 -0.0156
 5759ntf    cn129671   2.188   6.669   5.926  0.3342  0.2723 -0.0338
 5759ntf    sn229672   2.061   6.779   5.856 -0.0186 -0.0922  0.0304
 5759ntf    nn329673   2.137   6.916   5.862 -0.2956  0.0780 -0.3351
 5759ntf    sn229674   2.219   6.987   5.748 -0.1351  0.1239 -0.1911
 5759ntf    cn129675   2.206   7.159   5.806 -0.2659  0.0605 -0.0340
 5759ntf    fn429676   2.211   6.690   6.055 -0.5458  0.0271  0.1713
 5759ntf    fn429677   2.159   6.540   5.927  0.1377  0.3187  0.8524
 5759ntf    fn429678   2.308   6.678   5.873  0.1426  0.0958 -0.5044
 5759ntf    on529679   2.041   6.719   5.726  0.1102 -0.7008  0.2905
 5759ntf    on529680   1.952   6.767   5.950 -0.2399 -0.2681 -0.2446
 5759ntf    on529681   2.154   6.984   5.619 -0.4320  0.4618 -0.0506
 5759ntf    on529682   2.359   6.957   5.761 -0.3235 -0.6781  0.0184
 5759ntf    fn429683   2.285   7.236   5.734  0.0301  0.0557  0.2803
 5759ntf    fn429684   2.086   7.212   5.789 -0.3720 -0.1096  0.1658
 5759ntf    fn429685   2.237   7.172   5.935 -0.3852 -0.1328  0.0150
 5760ntf    cn129686   0.700   1.721   3.559  0.2271 -0.0676  0.1832
 5760ntf    sn229687   0.518   1.713   3.553  0.2362 -0.0091 -0.1533
 5760ntf    nn329688   0.478   1.775   3.691 -0.6266  0.1144 -0.4489
 5760ntf    sn229689   0.338   1.825   3.741 -0.4546  0.0347  0.1213
 5760ntf    cn129690   0.310   1.716   3.884 -0.2841  0.1744  0.2620
 5760ntf    fn429691   0.739   1.690   3.682 -0.0329 -0.5610  0.1454
 5760ntf    fn429692   0.770   1.647   3.475 -0.1906 -0.0365 -0.1954
 5760ntf    fn429693   0.740   1.846   3.543 -0.3834  0.1986  0.6967
 5760ntf    on529694   0.473   1.785   3.436  0.3224  0.1205 -0.1076
 5760ntf    on529695   0.494   1.571   3.549 -0.1467  0.0387  0.3781
 5760ntf    on529696   0.231   1.802   3.647 -0.6908  0.1211  0.3682
 5760ntf    on529697   0.348   1.956   3.799  0.2304 -0.1860  0.5184
 5760ntf    fn429698   0.407   1.723   3.974 -0.3800 -0.3646  0.4157
 5760ntf    fn429699   0.205   1.755   3.954 -0.3806 -0.3956  0.4416
 5760ntf    fn429700   0.288   1.590   3.849 -0.1746  0.0506  0.6397
 5761ntf    cn129701   6.732   2.784   2.269 -0.2806  0.1514  0.0012
 5761ntf    sn229702   6.854   2.650   2.254 -0.1511  0.2402  0.2628
 5761ntf    nn329703   6.894   2.672   2.104 -0.0573  0.0188  0.2547
 5761ntf    sn229704   7.027   2.729   2.043 -0.0558 -0.1510  0.0987
 5761ntf    cn129705   7.140   2.588   2.056  0.0835 -0.1316 -0.8460
 5761ntf    fn429706   6.647   2.760   2.171  0.1542 -0.1903 -0.2958
 5761ntf    fn429707   6.667   2.779   2.384  0.1671 -0.3288  0.2395
 5761ntf    fn429708   6.782   2.904   2.246  0.0546  0.0569  0.2283
 5761ntf    on529709   6.960   2.679   2.348  0.1993  0.1793 -0.1129
 5761ntf    on529710   6.776   2.529   2.264 -0.2566  0.2627 -0.3030
 5761ntf    on529711   7.086   2.843   2.108 -0.2925  0.1691 -0.2431
 5761ntf    on529712   7.023   2.740   1.899  0.3316  0.0432  0.1006
 5761ntf    fn429713   7.124   2.517   2.167 -0.1116  0.5957 -0.4060
 5761ntf    fn429714   7.120   2.507   1.953 -0.5311 -0.5797 -0.3820
 5761ntf    fn429715   7.267   2.623   2.058  0.1900 -0.5353  0.1694
 5762ntf    cn129716   2.862   6.044   5.305  0.2460  0.4965  0.0622
 5762ntf    sn229717   2.713   6.130   5.247  0.0643  0.1123 -0.0418
 5762ntf    nn329718   2.739   6.273   5.307  0.1104  0.1288 -0.1014
 5762ntf    sn229719   2.671   6.360   5.419  0.0271  0.2304 -0.2297
 5762ntf    cn129720   2.593   6.490   5.319 -0.2084  0.0901 -0.2306
 5762ntf    fn429721   2.962   6.127   5.330  0.2164  0.5714 -0.0694
 5762ntf    fn429722   2.838   5.980   5.419  0.2472 -0.2148 -0.3325
 5762ntf    fn429723   2.909   5.962   5.213 -0.1906 -0.0831  0.3545
 5762ntf    on529724   2.714   6.127   5.103  0.3792 -0.1344 -0.0360
 5762ntf    on529725   2.595   6.074   5.309  0.2936 -0.1207  0.1864
 5762ntf    on529726   2.775   6.431   5.489  0.3743 -0.2719 -0.2302
 5762ntf    on529727   2.564   6.300   5.495 -0.4291  0.5441 -0.6141
 5762ntf    fn429728   2.679   6.555   5.243  0.4474 -0.5404 -0.0323
 5762ntf    fn429729   2.499   6.452   5.233  0.0652 -0.1302 -0.4318
 5762ntf    fn429730   2.522   6.576   5.391 -0.0213 -0.0778  0.1541
 5763ntf    cn129731   6.540   6.401   6.017  0.1343 -0.1274 -0.2178
 5763ntf    sn229732   6.691   6.500   5.994 -0.0755  0.1092 -0.5741
 5763ntf    nn329733   6.673   6.605   6.110  0.1716 -0.4163 -0.0572
 5763ntf    sn229734   6.764   6.638   6.233 -0.0707  0.1627 -0.0286
 5763ntf    cn129735   6.890   6.728   6.138 -0.1208 -0.0365 -0.2843
 5763ntf    fn429736   6.539   6.295   5.938  0.1760 -0.4464  0.2041
 5763ntf    fn429737   6.529   6.355   6.141  0.2052  0.1644 -0.1009
 5763ntf    fn429738   6.429   6.468   5.991 -0.0687 -0.1513  0.5502
 5763ntf    on529739   6.800   6.407   6.006 -0.0271  0.1553 -0.6535
 5763ntf    on529740   6.669   6.562   5.866 -0.3566  1.3419  0.0518
 5763ntf    on529741   6.834   6.533   6.303 -0.0132  0.3369  0.1743
 5763ntf    on529742   6.708   6.737   6.321  0.0086  0.3037 -0.1376
 5763ntf    fn429743   6.988   6.768   6.218  0.4104 -0.3175 -0.7835
 5763ntf    fn429744   6.943   6.654   6.042 -0.1602  0.2296 -0.5120
 5763ntf    fn429745   6.839   6.835   6.081 -0.0771  0.2035  0.1257
 5764ntf    cn129746   0.879   0.935   6.074 -0.0112  0.2808 -0.0894
 5764ntf    sn229747   0.888   0.756   6.104 -0.0411  0.3255  0.1900
 5764ntf    nn329748   0.761   0.728   6.191  0.1040  0.0454  0.3130
 5764ntf    sn229749   0.656   0.613   6.170  0.2394  0.0376 -0.3521
 5764ntf    cn129750   0.510   0.701   6.105  0.1138 -0.1441 -0.3163
 5764ntf    fn429751   0.885   1.004   6.186  0.1229  0.4064 -0.1738
 5764ntf    fn429752   0.969   0.984   5.989  0.6435 -0.2876  0.2631
 5764ntf    fn429753   0.759   0.963   6.026  0.1063  0.4171 -0.3078
 5764ntf    on529754   0.896   0.711   5.967  0.0381  0.0860  0.2725
 5764ntf    on529755   1.010   0.744   6.180 -0.0695 -0.2047  0.1566
 5764ntf    on529756   0.612   0.572   6.301  0.5524  0.4444 -0.1170
 5764ntf    on529757   0.679   0.514   6.068  0.0083 -0.2267 -0.1525
 5764ntf    fn429758   0.521   0.752   5.984 -0.1396  0.2271 -0.1858
 5764ntf    fn429759   0.409   0.615   6.112  0.1882 -0.2041  0.0402
 5764ntf    fn429760   0.471   0.791   6.194  0.3481 -0.1019 -0.2557
 5765ntf    cn129761   0.140   3.324   5.140 -0.1534 -0.2332 -0.0256
 5765ntf    sn229762   0.069   3.186   5.047  0.2354 -0.1387 -0.4677
 5765ntf    nn329763  -0.073   3.155   5.105  0.3890  0.0931  0.0302
 5765ntf    sn229764  -0.215   3.213   5.069  0.2512 -0.3393 -0.1261
 5765ntf    cn129765  -0.279   3.080   4.963  0.3013 -0.1268 -0.4258
 5765ntf    fn429766   0.126   3.308   5.270 -0.5329  0.1649 -0.0151
 5765ntf    fn429767   0.270   3.340   5.122 -0.0514 -0.6453  0.3405
 5765ntf    fn429768   0.077   3.438   5.115  0.5293  0.0741 -0.4002
 5765ntf    on529769   0.074   3.230   4.909 -0.0634 -0.2695 -0.5224
 5765ntf    on529770   0.157   3.076   5.077  0.2161 -0.0185  0.0306
 5765ntf    on529771  -0.215   3.329   4.984  0.0391 -0.2587 -0.0172
 5765ntf    on529772  -0.299   3.211   5.186  0.4469  0.1394  0.0241
 5765ntf    fn429773  -0.407   3.100   4.933  0.0978 -0.5081  0.1553
 5765ntf    fn429774  -0.218   3.066   4.847  0.1860 -0.1329 -0.4853
 5765ntf    fn429775  -0.272   2.962   5.024 -0.1361 -0.0783 -0.2750
 5766ntf    cn129776   5.227   1.687   5.997  0.0118 -0.2719  0.2694
 5766ntf    sn229777   5.061   1.740   5.946  0.0817 -0.0567  0.2655
 5766ntf    nn329778   4.959   1.687   6.052  0.2106 -0.2510  0.2933
 5766ntf    sn229779   4.808   1.653   6.025  0.2115  0.0083 -0.0470
 5766ntf    cn129780   4.725   1.754   6.151  0.1790 -0.0866  0.0085
 5766ntf    fn429781   5.251   1.724   6.122  0.1157  0.3435  0.0724
 5766ntf    fn429782   5.228   1.555   6.001 -0.8202 -0.2967 -0.2036
 5766ntf    fn429783   5.331   1.723   5.923 -0.1571 -0.4023 -0.0305
 5766ntf    on529784   5.067   1.884   5.952 -0.2156 -0.0586  0.6386
 5766ntf    on529785   5.043   1.680   5.816  0.2361 -0.4277  0.4154
 5766ntf    on529786   4.772   1.515   6.050  0.4022 -0.0962 -0.3412
 5766ntf    on529787   4.752   1.706   5.903  0.4648 -0.7469 -0.5006
 5766ntf    fn429788   4.743   1.884   6.130  0.0613 -0.0389  0.2055
 5766ntf    fn429789   4.594   1.740   6.154  0.1274  0.0953 -0.8691
 5766ntf    fn429790   4.775   1.730   6.271  0.3882 -0.2029 -0.1021
 5767ntf    cn129791   2.859   6.064   0.849  0.2037  0.2842 -0.2025
 5767ntf    sn229792   2.759   5.933   0.772 -0.0529  0.1465  0.3561
 5767ntf    nn329793   2.865   5.869   0.675 -0.6848  0.0271 -0.2703
 5767ntf    sn229794   2.880   5.873   0.519  0.1291  0.3569 -0.1930
 5767ntf    cn129795   2.796   5.719   0.471  0.4367  0.1464 -0.0560
 5767ntf    fn429796   2.950   6.109   0.764  0.1397  0.2580 -0.2854
 5767ntf    fn429797   2.778   6.163   0.879 -0.3514 -0.3313  0.3715
 5767ntf    fn429798   2.921   6.025   0.959  0.0319  0.2838 -0.1046
 5767ntf    on529799   2.726   5.838   0.875  0.2388 -0.0669  0.2558
 5767ntf    on529800   2.644   5.997   0.712 -0.3455 -0.3108  0.4227
 5767ntf    on529801   3.012   5.856   0.464  0.1080  0.3298 -0.2351
 5767ntf    on529802   2.801   5.971   0.449 -0.1633  0.1045 -0.2222
 5767ntf    fn429803   2.781   5.701   0.340 -0.5092 -0.5239  0.1338
 5767ntf    fn429804   2.864   5.617   0.521 -0.0282 -0.2308 -0.1785
 5767ntf    fn429805   2.675   5.710   0.523  0.4420 -0.0364 -0.0726
 5768ntf    cn129806   3.239   3.818   3.374 -0.5022  0.6820 -0.4549
 5768ntf    sn229807   3.313   3.956   3.467  0.0075  0.1288 -0.0286
 5768ntf    nn329808   3.242   3.941   3.607 -0.1213  0.1323 -0.0934
 5768ntf    sn229809   3.102   3.999   3.648 -0.0605  0.1492  0.0899
 5768ntf    cn129810   3.159   4.157   3.718 -0.1078  0.2399 -0.0747
 5768ntf    fn429811   3.290   3.804   3.253  0.3714  0.2224 -0.0437
 5768ntf    fn429812   3.264   3.704   3.437 -0.5660  0.8622 -0.0989
 5768ntf    fn429813   3.110   3.832   3.352 -0.6892 -0.1421  0.0599
 5768ntf    on529814   3.453   3.926   3.477 -0.0359 -0.2697 -0.6262
 5768ntf    on529815   3.278   4.076   3.395 -0.0577  0.3842  0.4218
 5768ntf    on529816   3.041   3.922   3.753 -0.3032  0.5409  0.2378
 5768ntf    on529817   3.014   4.041   3.542 -0.5901  0.2987  0.5876
 5768ntf    fn429818   3.058   4.223   3.771 -0.0792 -0.1418  0.4641
 5768ntf    fn429819   3.252   4.146   3.812 -0.2708 -0.0588  0.0548
 5768ntf    fn429820   3.218   4.235   3.629 -0.6417  0.1585 -0.5060
 5769ntf    cn129821   1.002   3.857   0.049 -0.1945 -0.1196  0.1540
 5769ntf    sn229822   1.072   3.964  -0.079 -0.1265 -0.2919  0.0465
 5769ntf    nn329823   1.214   3.900  -0.099  0.1417  0.3454 -0.1495
 5769ntf    sn229824   1.256   3.784  -0.197  0.2031  0.0186  0.2602
 5769ntf    cn129825   1.349   3.886  -0.315 -0.0095 -0.3507 -0.2275
 5769ntf    fn429826   0.995   3.727   0.026 -0.1867 -0.1986  0.5895
 5769ntf    fn429827   1.062   3.863   0.167  0.3459  0.3152 -0.1373
 5769ntf    fn429828   0.881   3.907   0.067 -0.0493  0.1592  0.3721
 5769ntf    on529829   0.980   3.955  -0.190 -0.1984 -0.3103  0.1084
 5769ntf    on529830   1.085   4.093  -0.016  0.0660 -0.0835 -0.4097
 5769ntf    on529831   1.147   3.726  -0.272  0.3130  0.3646 -0.1672
 5769ntf    on529832   1.363   3.704  -0.143  0.4302  0.3678  0.3294
 5769ntf    fn429833   1.380   3.821  -0.427  0.1967 -0.5003 -0.0839
 5769ntf    fn429834   1.280   3.993  -0.350 -0.0014 -0.2420  0.0886
 5769ntf    fn429835   1.464   3.919  -0.258 -0.5127 -0.3327  0.7856
 5770ntf    cn129836   6.309   4.445   1.776 -0.3016 -0.1886 -0.3942
 5770ntf    sn229837   6.482   4.477   1.820 -0.3558 -0.0596 -0.2747
 5770ntf    nn329838   6.479   4.630   1.858  0.0482  0.0080 -0.5007
 5770ntf    sn229839   6.594   4.734   1.835  0.2781 -0.1629 -0.1384
 5770ntf    cn129840   6.542   4.815   1.681  0.0811  0.0343  0.0297
 5770ntf    fn429841   6.223   4.438   1.876 -0.0528  0.2378 -0.1501
 5770ntf    fn429842   6.258   4.534   1.692 -0.5958  0.3208  0.3153
 5770ntf    fn429843   6.308   4.326   1.719 -0.0620 -0.4181  0.0805
 5770ntf    on529844   6.496   4.391   1.934  0.2983 -0.0054 -0.3093
 5770ntf    on529845   6.548   4.443   1.696  0.2723 -0.5047  0.1798
 5770ntf    on529846   6.718   4.672   1.798  0.0962 -0.5561 -0.0932
 5770ntf    on529847   6.605   4.841   1.931 -0.2781  0.0006 -0.2533
 5770ntf    fn429848   6.619   4.914   1.641 -0.1843  0.1249 -0.2693
 5770ntf    fn429849   6.555   4.725   1.584 -0.3046 -0.0227  0.0296
 5770ntf    fn429850   6.415   4.851   1.681  0.0937  0.0876  0.6301
 5771ntf    cn129851   4.990   4.835   5.979  0.2370 -0.0252 -0.5346
 5771ntf    sn229852   5.155   4.829   6.054 -0.2273  0.0642  0.5054
 5771ntf    nn329853   5.183   4.677   6.022 -0.2166  0.1385  0.1578
 5771ntf    sn229854   5.211   4.560   6.123 -0.1313 -0.2488 -0.3123
 5771ntf    cn129855   5.149   4.420   6.026 -0.2760 -0.4708  0.0986
 5771ntf    fn429856   5.003   4.806   5.850  0.4802 -0.3391 -0.4407
 5771ntf    fn429857   4.905   4.750   6.034 -0.1205  0.5896 -0.1231
 5771ntf    fn429858   4.936   4.956   5.982 -0.4008 -0.3076 -0.4982
 5771ntf    on529859   5.240   4.920   5.981 -0.5456 -0.1013 -0.0802
 5771ntf    on529860   5.130   4.859   6.193  0.4088  0.7518  0.4739
 5771ntf    on529861   5.129   4.565   6.242  0.1453  0.1691 -0.1342
 5771ntf    on529862   5.350   4.525   6.139 -0.1300 -0.1115 -0.0098
 5771ntf    fn429863   5.215   4.415   5.911 -0.1775 -0.4282  0.1542
 5771ntf    fn429864   5.164   4.303   6.086  0.3454 -0.1873  0.5000
 5771ntf    fn429865   5.019   4.428   6.005 -0.3006 -1.1330 -0.0231
 5772ntf    cn129866   6.945   1.759   0.725 -0.2040 -0.2656 -0.1178
 5772ntf    sn229867   6.882   1.925   0.682  0.0111 -0.1807 -0.1059
 5772ntf    nn329868   6.909   1.998   0.818  0.4027  0.0059 -0.2818
 5772ntf    sn229869   7.008   2.115   0.851  0.2768  0.0034  0.1197
 5772ntf    cn129870   6.880   2.231   0.906 -0.0214 -0.1755 -0.1894
 5772ntf    fn429871   6.906   1.658   0.650 -0.4031 -0.1336 -0.1953
 5772ntf    fn429872   7.076   1.753   0.713 -0.2711 -0.5366 -0.7240
 5772ntf    fn429873   6.916   1.729   0.851 -0.4366  0.5635  0.0364
 5772ntf    on529874   6.967   1.967   0.574  0.4744 -0.1907  0.2505
 5772ntf    on529875   6.743   1.901   0.652 -0.1334 -0.4756  0.7537
 5772ntf    on529876   7.074   2.190   0.747 -0.1884 -0.1296 -0.2760
 5772ntf    on529877   7.080   2.099   0.975 -0.2002 -0.1640  0.3768
 5772ntf    fn429878   6.789   2.242   0.811  0.1224 -0.5212 -0.3672
 5772ntf    fn429879   6.818   2.175   1.009 -0.2446 -0.0772 -0.2699
 5772ntf    fn429880   6.921   2.354   0.934  0.1139 -0.2309 -0.1479
 5773ntf    cn129881   2.716   4.291   3.832  0.1088  0.0272  0.2020
 5773ntf    sn229882   2.724   4.293   4.013  0.1328  0.1058  0.2002
 5773ntf    nn329883   2.863   4.231   4.050  0.3267  0.5386  0.2025
 5773ntf    sn229884   2.899   4.146   4.178 -0.1379 -0.0482 -0.0503
 5773ntf    cn129885   2.985   4.265   4.286  0.0305 -0.3426  0.1399
 5773ntf    fn429886   2.677   4.174   3.785  0.3815  0.0696 -0.1379
 5773ntf    fn429887   2.636   4.380   3.776  0.0130 -0.1059  0.1270
 5773ntf    fn429888   2.838   4.311   3.784  0.0880  0.1174  0.1874
 5773ntf    on529889   2.720   4.433   4.046 -0.4194  0.1594 -0.0819
 5773ntf    on529890   2.608   4.217   4.053  0.2102  0.0324  0.2876
 5773ntf    on529891   2.990   4.037   4.153  0.3760  0.5138 -0.6904
 5773ntf    on529892   2.788   4.096   4.255  0.0711  0.0205  0.2960
 5773ntf    fn429893   2.947   4.386   4.247  0.3107 -0.3063 -0.0214
 5773ntf    fn429894   2.969   4.247   4.416 -0.5112 -0.2132  0.0934
 5773ntf    fn429895   3.114   4.260   4.257 -0.0227 -0.6742 -0.0534
 5774ntf    cn129896   5.656   4.559   7.073 -0.3611 -0.1749  0.0384
 5774ntf    sn229897   5.671   4.380   7.047 -0.1740 -0.1365 -0.1254
 5774ntf    nn329898   5.582   4.318   7.161 -0.2383 -0.0828 -0.1476
 5774ntf    sn229899   5.562   4.377   7.305  0.1545 -0.1539 -0.0639
 5774ntf    cn129900   5.540   4.228   7.406  0.4140 -0.3559 -0.3042
 5774ntf    fn429901   5.719   4.630   6.980 -0.0681  0.0806  0.4306
 5774ntf    fn429902   5.530   4.596   7.083 -0.3340 -0.2490  0.6860
 5774ntf    fn429903   5.718   4.610   7.178  0.1238  0.2219 -0.4336
 5774ntf    on529904   5.613   4.364   6.916  0.4039  0.0046 -0.3988
 5774ntf    on529905   5.814   4.368   7.061 -0.1815  0.5401  0.6444
 5774ntf    on529906   5.433   4.439   7.318  0.2050 -0.0388 -0.1120
 5774ntf    on529907   5.678   4.442   7.361 -0.1015  0.0222  0.2629
 5774ntf    fn429908   5.504   4.254   7.530 -0.1875 -0.0128 -0.5479
 5774ntf    fn429909   5.448   4.147   7.357 -0.3493  0.0835  0.3864
 5774ntf    fn429910   5.649   4.153   7.416  0.4487 -0.2142  0.3761
 5775ntf    cn129911   1.574   3.591   3.707  0.3862 -0.2334 -0.0731
 5775ntf    sn229912   1.606   3.486   3.561  0.2226 -0.0442 -0.2464
 5775ntf    nn329913   1.633   3.596   3.453  0.5530 -0.3671 -0.4966
 5775ntf    sn229914   1.559   3.617   3.316  0.1306  0.2296 -0.1835
 5775ntf    cn129915   1.408   3.706   3.365 -0.1090 -0.2293 -0.0903
 5775ntf    fn429916   1.589   3.523   3.819 -0.3407  0.2303  0.3112
 5775ntf    fn429917   1.661   3.689   3.717 -0.5883  0.5784  0.5733
 5775ntf    fn429918   1.452   3.642   3.704  0.6367  0.3797  0.0995
 5775ntf    on529919   1.720   3.408   3.601 -0.1142 -0.2812  0.2709
 5775ntf    on529920   1.480   3.416   3.550  0.0456  0.2499 -0.1164
 5775ntf    on529921   1.513   3.496   3.254 -0.3392  0.0065  0.5893
 5775ntf    on529922   1.628   3.715   3.235  0.2490  0.3580  0.0724
 5775ntf    fn429923   1.331   3.628   3.440 -0.1598  0.0594  0.1570
 5775ntf    fn429924   1.437   3.816   3.431  0.0533 -0.4270  0.1679
 5775ntf    fn429925   1.339   3.734   3.255 -0.3635  0.2358  0.1883
 5776ntf    cn129926   0.528   6.184   1.520  0.1370  0.0369  0.1693
 5776ntf    sn229927   0.614   6.260   1.662 -0.0238 -0.0699  0.3250
 5776ntf    nn329928   0.520   6.215   1.780 -0.0883 -0.0765  0.2715
 5776ntf    sn229929   0.531   6.081   1.861  0.0262 -0.2252  0.0136
 5776ntf    cn129930   0.361   6.062   1.923  0.1292 -0.2234  0.2978
 5776ntf    fn429931   0.563   6.246   1.409 -0.2754  0.1884  0.1252
 5776ntf    fn429932   0.558   6.055   1.506  0.1208  0.0546 -0.0221
 5776ntf    fn429933   0.396   6.191   1.528  0.1430  0.1494  0.1691
 5776ntf    on529934   0.747   6.204   1.660  0.1164  0.2679 -0.7490
 5776ntf    on529935   0.612   6.400   1.629  0.3866 -0.2149 -0.3472
 5776ntf    on529936   0.618   6.088   1.976  0.3690 -0.5621 -0.2231
 5776ntf    on529937   0.545   5.965   1.777  0.0682  0.2166 -0.5992
 5776ntf    fn429938   0.275   6.074   1.823 -0.2608  0.2991  0.6903
 5776ntf    fn429939   0.329   5.946   1.978 -0.0989  0.0480  0.7458
 5776ntf    fn429940   0.324   6.160   2.004 -0.2381 -0.2422  0.1539
 5777ntf    cn129941   0.961   4.495   3.282 -0.1767  0.0378  0.4772
 5777ntf    sn229942   0.956   4.544   3.456 -0.2729 -0.0178  0.4902
 5777ntf    nn329943   1.054   4.436   3.514  0.0674 -0.2806 -0.5598
 5777ntf    sn229944   1.042   4.344   3.641  0.1617  0.2445 -0.1714
 5777ntf    cn129945   1.003   4.190   3.553  0.1162 -0.1300  0.4956
 5777ntf    fn429946   0.908   4.374   3.268  0.4111 -0.1396 -0.3301
 5777ntf    fn429947   0.881   4.568   3.206  0.1205  0.0165  0.1410
 5777ntf    fn429948   1.081   4.500   3.226 -0.4318  0.1226 -0.0772
 5777ntf    on529949   1.013   4.676   3.451 -0.1959 -0.0765 -0.2431
 5777ntf    on529950   0.816   4.526   3.486 -0.2862 -0.2019  0.3231
 5777ntf    on529951   0.925   4.360   3.724  0.0081  0.4254 -0.4231
 5777ntf    on529952   1.167   4.345   3.715 -0.0298 -0.5498  0.1668
 5777ntf    fn429953   0.985   4.085   3.631 -0.2467  0.0846  0.7048
 5777ntf    fn429954   0.893   4.200   3.480  0.6067 -0.6474 -0.3315
 5777ntf    fn429955   1.100   4.164   3.467 -0.1862  0.1856  0.0582
 5778ntf    cn129956   1.219   4.643   2.425 -0.3380  0.0420  0.3337
 5778ntf    sn229957   1.348   4.521   2.463 -0.2315  0.0739  0.0798
 5778ntf    nn329958   1.444   4.607   2.553  0.1153 -0.1355 -0.0855
 5778ntf    sn229959   1.460   4.600   2.709  0.1254  0.2313 -0.0690
 5778ntf    cn129960   1.592   4.477   2.727 -0.1382 -0.0120  0.1998
 5778ntf    fn429961   1.179   4.710   2.531 -0.3543  0.2660  0.1882
 5778ntf    fn429962   1.262   4.729   2.334  0.1834 -0.3746  0.1830
 5778ntf    fn429963   1.109   4.583   2.380  0.0246 -0.4288  0.0636
 5778ntf    on529964   1.281   4.414   2.531  0.2724 -0.4040 -0.1646
 5778ntf    on529965   1.416   4.486   2.341  0.6959 -0.0130  0.6137
 5778ntf    on529966   1.344   4.547   2.776 -0.1399  0.2468 -0.5103
 5778ntf    on529967   1.516   4.723   2.760 -0.2100  0.1285  0.5483
 5778ntf    fn429968   1.573   4.375   2.644 -0.5291  0.4577 -0.2943
 5778ntf    fn429969   1.708   4.534   2.698 -0.5925  0.6165 -0.4178
 5778ntf    fn429970   1.605   4.429   2.850  0.2361 -0.4374 -0.0024
 5779ntf    cn129971   5.155   7.388   3.987  0.0647  0.0868 -0.0677
 5779ntf    sn229972   5.267   7.299   4.098  0.1111  0.2872  0.0485
 5779ntf    nn329973   5.166   7.191   4.149  0.3326  0.0655  0.0248
 5779ntf    sn229974   5.095   7.178   4.289  0.1932 -0.0716 -0.0581
 5779ntf    cn129975   5.173   7.023   4.343  0.1366  0.0427  0.3498
 5779ntf    fn429976   5.041   7.437   4.035  0.2710  0.2793  0.2318
 5779ntf    fn429977   5.222   7.483   3.923  0.1226 -0.0150 -0.1588
 5779ntf    fn429978   5.124   7.304   3.889 -0.1535  0.1443 -0.0506
 5779ntf    on529979   5.372   7.246   4.013  0.1837  0.0623  0.2765
 5779ntf    on529980   5.310   7.400   4.191 -0.3761  0.0886  0.4942
 5779ntf    on529981   4.954   7.145   4.282  0.2060 -0.1687  0.1297
 5779ntf    on529982   5.127   7.274   4.391  0.1329  0.1223 -0.2220
 5779ntf    fn429983   5.304   7.040   4.340  0.1112  0.2059  0.1458
 5779ntf    fn429984   5.134   6.989   4.465 -0.4978 -0.2461  0.0714
 5779ntf    fn429985   5.148   6.926   4.257  0.2632  0.4988 -0.2091
 5780ntf    cn129986   6.581   2.698   6.122 -0.2133  0.1757 -0.0097
 5780ntf    sn229987   6.456   2.721   5.993  0.0715  0.2094 -0.2802
 5780ntf    nn329988   6.443   2.578   5.929  0.1861  0.0052  0.1509
 5780ntf    sn229989   6.354   2.452   5.958 -0.1286  0.1166 -0.3146
 5780ntf    cn129990   6.481   2.323   5.941 -0.1262  0.0480  0.2081
 5780ntf    fn429991   6.666   2.600   6.097  0.0017  0.3985 -0.1597
 5780ntf    fn429992   6.656   2.805   6.145 -0.1117  0.2254 -0.5776
 5780ntf    fn429993   6.530   2.672   6.241 -0.0631 -0.0878 -0.0025
 5780ntf    on529994   6.343   2.766   6.070  0.3755  0.0102  0.2848
 5780ntf    on529995   6.522   2.817   5.909  0.0542 -0.1227 -0.6772
 5780ntf    on529996   6.257   2.424   5.855  0.0050 -0.4913 -0.2780
 5780ntf    on529997   6.314   2.441   6.096  0.4930 -0.3413 -0.1648
 5780ntf    fn429998   6.589   2.368   6.003 -0.1656 -0.3274  0.5526
 5780ntf    fn429999   6.439   2.214   6.003  0.1335 -0.1626  0.0151
 5780ntf    fn430000   6.507   2.297   5.814 -0.2565  0.4409  0.0997
 5781ntf    cn130001   5.928   1.740   7.198  0.2935 -0.4139  0.0125
 5781ntf    sn230002   5.843   1.600   7.278 -0.1397 -0.0090  0.2619
 5781ntf    nn330003   5.963   1.512   7.326  0.4944  0.5176 -0.3298
 5781ntf    sn230004   6.058   1.418   7.243  0.3971 -0.2517  0.4159
 5781ntf    cn130005   6.001   1.251   7.289 -0.2264 -0.0276  0.4713
 5781ntf    fn430006   6.014   1.797   7.281  0.3382  0.1482 -0.4145
 5781ntf    fn430007   5.998   1.695   7.095  0.4427 -0.3786  0.0984
 5781ntf    fn430008   5.838   1.823   7.150  0.0973 -0.2073  0.7181
 5781ntf    on530009   5.767   1.656   7.387 -0.6049 -0.1396  0.0084
 5781ntf    on530010   5.762   1.538   7.176  0.4946  0.3859 -0.4895
 5781ntf    on530011   6.193   1.426   7.293  0.4359  0.2227  0.2340
 5781ntf    on530012   6.039   1.418   7.100 -0.0743  0.1591  0.4747
 5781ntf    fn430013   6.078   1.158   7.235 -0.5224 -0.3436  0.5912
 5781ntf    fn430014   6.011   1.221   7.418  0.5456  0.2485  0.4837
 5781ntf    fn430015   5.877   1.232   7.248 -0.0496 -0.6851  0.2209
 5782ntf    cn130016   4.738   3.446   3.531  0.0696 -0.0631  0.2082
 5782ntf    sn230017   4.599   3.487   3.640  0.0509  0.1369  0.1112
 5782ntf    nn330018   4.655   3.627   3.684  0.2626  0.1456 -0.1848
 5782ntf    sn230019   4.585   3.767   3.679 -0.1842 -0.0528  0.3958
 5782ntf    cn130020   4.646   3.841   3.525 -0.0709 -0.1655  0.3863
 5782ntf    fn430021   4.770   3.541   3.445 -0.3928 -0.1953 -0.1142
 5782ntf    fn430022   4.850   3.424   3.599  0.4556 -0.1318 -0.4437
 5782ntf    fn430023   4.709   3.340   3.457 -0.1217  0.0123  0.1756
 5782ntf    on530024   4.483   3.479   3.555  0.4270 -0.0852 -0.3870
 5782ntf    on530025   4.610   3.385   3.742  0.6144 -0.3357 -0.4123
 5782ntf    on530026   4.642   3.853   3.780 -0.6879  0.1547  0.5045
 5782ntf    on530027   4.441   3.763   3.672 -0.1698  0.2081 -0.0572
 5782ntf    fn430028   4.776   3.856   3.509 -0.1596  0.0876 -0.1357
 5782ntf    fn430029   4.607   3.770   3.420  0.1315 -0.1956  0.3318
 5782ntf    fn430030   4.601   3.964   3.503 -0.2717 -0.2426  0.3597
 5783ntf    cn130031   6.580   6.084   2.654 -0.0493  0.0985  0.1440
 5783ntf    sn230032   6.458   5.961   2.710  0.0679 -0.0653  0.0421
 5783ntf    nn330033   6.525   5.822   2.681 -0.1383 -0.1920  0.1819
 5783ntf    sn230034   6.556   5.766   2.538  0.0197  0.2485  0.0416
 5783ntf    cn130035   6.396   5.705   2.475  0.1830 -0.1312 -0.0072
 5783ntf    fn430036   6.706   6.050   2.674  0.0081  0.3719  0.2454
 5783ntf    fn430037   6.574   6.103   2.523  0.6647 -0.0277  0.0895
 5783ntf    fn430038   6.551   6.202   2.707  0.1677  0.1163  0.2252
 5783ntf    on530039   6.449   5.993   2.850 -0.3800 -0.0232  0.0031
 5783ntf    on530040   6.345   5.988   2.625 -0.3002 -0.0137  0.5437
 5783ntf    on530041   6.641   5.652   2.563  0.0899  0.3146  0.1038
 5783ntf    on530042   6.598   5.855   2.433  0.2341 -0.2296 -0.2804
 5783ntf    fn430043   6.324   5.622   2.549  0.1392 -0.4181 -0.3664
 5783ntf    fn430044   6.322   5.807   2.435  0.2192 -0.3027 -0.5141
 5783ntf    fn430045   6.415   5.636   2.363 -0.0358  0.3723 -0.3548
 5784ntf    cn130046   3.640   2.043   3.480  0.2001 -0.0103  0.0717
 5784ntf    sn230047   3.532   2.080   3.339  0.1735  0.0976  0.1202
 5784ntf    nn330048   3.602   2.013   3.215 -0.1388 -0.1022  0.0498
 5784ntf    sn230049   3.734   2.059   3.144 -0.0466 -0.0502  0.2543
 5784ntf    cn130050   3.666   2.140   2.996 -0.2042 -0.2801  0.1994
 5784ntf    fn430051   3.588   2.101   3.588  0.1161  0.5637 -0.2752
 5784ntf    fn430052   3.633   1.912   3.504  0.0837 -0.0843 -0.3631
 5784ntf    fn430053   3.767   2.077   3.469  0.1733  0.2326  0.4727
 5784ntf    on530054   3.409   2.009   3.368  0.0716  0.2193 -0.0094
 5784ntf    on530055   3.518   2.223   3.343 -0.2695  0.0522  0.3431
 5784ntf    on530056   3.812   1.948   3.094  0.4951  0.3291  0.2527
 5784ntf    on530057   3.806   2.163   3.213  0.1481 -0.1103  0.1423
 5784ntf    fn430058   3.568   2.225   3.021  0.1695  0.1094  0.3483
 5784ntf    fn430059   3.756   2.201   2.921 -0.2480 -0.1268  0.2702
 5784ntf    fn430060   3.615   2.056   2.908  0.0674 -0.8857  0.6122
 5785ntf    cn130061   3.642   6.312   3.630  0.0558 -0.0812  0.1542
 5785ntf    sn230062   3.547   6.282   3.782 -0.1708  0.2306  0.0751
 5785ntf    nn330063   3.416   6.213   3.733  0.0255 -0.1135  0.0314
 5785ntf    sn230064   3.286   6.287   3.685  0.0493 -0.1427 -0.0760
 5785ntf    cn130065   3.209   6.305   3.849 -0.0122 -0.3170 -0.0846
 5785ntf    fn430066   3.593   6.396   3.540  0.5743 -0.0839 -0.1363
 5785ntf    fn430067   3.752   6.371   3.672  0.2280 -0.5006  0.3005
 5785ntf    fn430068   3.673   6.202   3.562  0.0640 -0.1728  0.3041
 5785ntf    on530069   3.632   6.196   3.861  0.0073  0.1275 -0.2253
 5785ntf    on530070   3.525   6.415   3.833 -0.4077 -0.0353  0.6705
 5785ntf    on530071   3.195   6.198   3.616 -0.3101  0.2176 -0.0660
 5785ntf    on530072   3.303   6.417   3.625  0.2493 -0.2880 -0.3377
 5785ntf    fn430073   3.248   6.419   3.903  0.3427 -0.4183 -0.1163
 5785ntf    fn430074   3.077   6.312   3.852  0.0160  0.1299  0.1959
 5785ntf    fn430075   3.231   6.204   3.932 -0.0819 -0.0729  0.2304
 5786ntf    cn130076   4.892   0.472   4.126  0.3362  0.1118 -0.0903
 5786ntf    sn230077   5.024   0.484   4.250 -0.0178  0.2704  0.2761
 5786ntf    nn330078   4.937   0.510   4.378 -0.2563  0.4667  0.0754
 5786ntf    sn230079   4.981   0.501   4.528  0.1272  0.1739 -0.0513
 5786ntf    cn130080   4.926   0.333   4.571  0.1399  0.1808 -0.0083
 5786ntf    fn430081   4.865   0.346   4.095  0.1583  0.2025 -0.3084
 5786ntf    fn430082   4.774   0.520   4.163 -0.0384 -0.7023 -0.1877
 5786ntf    fn430083   4.919   0.528   4.009 -0.3103 -0.6889 -0.6387
 5786ntf    on530084   5.094   0.358   4.245  0.3818  0.4818  0.5067
 5786ntf    on530085   5.100   0.601   4.209 -0.2359  0.2366 -0.2348
 5786ntf    on530086   4.897   0.581   4.614 -0.1130  0.0512 -0.1715
 5786ntf    on530087   5.123   0.506   4.552  0.1247  0.1376 -0.0286
 5786ntf    fn430088   4.794   0.327   4.555  0.1866 -0.3198 -0.2260
 5786ntf    fn430089   4.979   0.248   4.485  0.0677  0.0093  0.1148
 5786ntf    fn430090   4.949   0.290   4.694 -0.0759 -0.5800 -0.2301
 5787ntf    cn130091   1.840   5.812   4.522  0.1041  0.3004  0.3111
 5787ntf    sn230092   1.829   5.667   4.631  0.2489  0.1175  0.0837
 5787ntf    nn330093   1.782   5.740   4.762  0.3499 -0.0460  0.2132
 5787ntf    sn230094   1.738   5.676   4.898 -0.0283 -0.0478  0.0934
 5787ntf    cn130095   1.557   5.682   4.883 -0.0424 -0.6610  0.0054
 5787ntf    fn430096   1.853   5.767   4.398 -1.4524  0.3016  0.1345
 5787ntf    fn430097   1.726   5.879   4.524 -0.2349 -0.2513 -0.3823
 5787ntf    fn430098   1.936   5.899   4.552  0.3312 -0.0028  0.4739
 5787ntf    on530099   1.725   5.583   4.579  0.3538  0.1542 -0.1870
 5787ntf    on530100   1.967   5.624   4.642  0.3735  0.3623 -0.4948
 5787ntf    on530101   1.757   5.762   5.013 -0.6773  0.6191 -0.2963
 5787ntf    on530102   1.767   5.535   4.912 -0.7051 -0.1904  0.0756
 5787ntf    fn430103   1.491   5.623   4.982 -0.2084 -0.1888  0.1767
 5787ntf    fn430104   1.509   5.805   4.885  0.1768 -0.5743 -0.0018
 5787ntf    fn430105   1.509   5.633   4.770  0.0113  0.1077 -0.3515
 5788ntf    cn130106   7.366   5.155   2.419  0.2136  0.4286 -0.0378
 5788ntf    sn230107   7.438   4.989   2.438  0.0492  0.3645  0.0350
 5788ntf    nn330108   7.421   4.937   2.291  0.7029 -0.3102  0.1888
 5788ntf    sn230109   7.501   4.989   2.166 -0.1467  0.1232 -0.1907
 5788ntf    cn130110   7.634   4.864   2.161 -0.4566 -0.2301  0.2841
 5788ntf    fn430111   7.235   5.140   2.412  0.3120 -0.4443 -0.1906
 5788ntf    fn430112   7.388   5.231   2.525 -0.4857 -0.1266  0.5227
 5788ntf    fn430113   7.406   5.229   2.317 -0.0892  0.1780 -0.3397
 5788ntf    on530114   7.576   5.012   2.474  0.0874  0.3161 -0.0756
 5788ntf    on530115   7.356   4.927   2.538  0.2358  0.0769  0.0116
 5788ntf    on530116   7.579   5.110   2.164 -0.0189  0.0480  0.0948
 5788ntf    on530117   7.423   4.964   2.048 -0.2262  0.5319 -0.2264
 5788ntf    fn430118   7.577   4.749   2.130 -0.4855 -0.1077 -0.1186
 5788ntf    fn430119   7.722   4.881   2.064 -0.2654  0.1872  0.5227
 5788ntf    fn430120   7.704   4.853   2.273 -0.4527  0.2104  0.3299
 5789ntf    cn130121   4.912   1.731   1.436 -0.2245 -0.1092 -0.3255
 5789ntf    sn230122   4.845   1.597   1.333 -0.1938 -0.3150 -0.0819
 5789ntf    nn330123   4.704   1.662   1.308 -0.0349  0.0954  0.0751
 5789ntf    sn230124   4.631   1.717   1.181 -0.0897  0.0430  0.0839
 5789ntf    cn130125   4.499   1.595   1.157  0.0697 -0.0038 -0.5811
 5789ntf    fn430126   4.937   1.837   1.362  0.5316  0.1153  0.2313
 5789ntf    fn430127   4.823   1.768   1.526 -0.1830  0.6676 -0.6028
 5789ntf    fn430128   5.024   1.694   1.498  0.0830  0.2102 -0.6911
 5789ntf    on530129   4.926   1.591   1.214  0.0100  0.2486  0.0215
 5789ntf    on530130   4.840   1.491   1.430 -0.8338  0.0828  0.3282
 5789ntf    on530131   4.700   1.723   1.054  0.3629 -0.0347  0.3257
 5789ntf    on530132   4.552   1.830   1.223 -0.2574  0.0978 -0.3735
 5789ntf    fn430133   4.535   1.468   1.159 -0.0525 -0.0292  0.3197
 5789ntf    fn430134   4.413   1.602   1.257  0.1514 -0.2566 -0.4931
 5789ntf    fn430135   4.423   1.622   1.052 -0.5497 -0.2080 -0.1946
 5790ntf    cn130136   3.254   1.031   3.254 -0.1798  0.2565 -0.6666
 5790ntf    sn230137   3.128   0.908   3.302  0.2483  0.0843  0.0337
 5790ntf    nn330138   3.060   0.984   3.421 -0.6619  0.0978 -0.4847
 5790ntf    sn230139   2.993   0.931   3.553  0.0080  0.1969 -0.1022
 5790ntf    cn130140   2.839   0.853   3.498 -0.1684  0.1115  0.5049
 5790ntf    fn430141   3.192   1.143   3.220 -0.1030  0.3468 -0.5075
 5790ntf    fn430142   3.339   1.059   3.351  0.1980  0.0669 -0.9424
 5790ntf    fn430143   3.322   0.989   3.148 -0.3663 -0.2846 -0.5754
 5790ntf    on530144   3.048   0.890   3.183 -0.1451 -0.6628  0.4093
 5790ntf    on530145   3.218   0.807   3.350  0.1219 -0.2359 -0.3968
 5790ntf    on530146   2.947   1.043   3.631  0.3525 -0.1250  0.5738
 5790ntf    on530147   3.074   0.833   3.623  0.0398  0.3697  0.1049
 5790ntf    fn430148   2.757   0.930   3.428 -0.0115 -0.3461 -0.1983
 5790ntf    fn430149   2.858   0.750   3.418  0.0874  0.5571 -0.0166
 5790ntf    fn430150   2.770   0.810   3.603 -0.4679 -0.2343  0.1701
 5791ntf    cn130151   3.679   3.015   3.305  0.1290 -0.2951 -0.2632
 5791ntf    sn230152   3.697   3.113   3.153  0.0803  0.2074  0.0563
 5791ntf    nn330153   3.626   3.245   3.200 -0.0381  0.4515 -0.7985
 5791ntf    sn230154   3.680   3.378   3.263 -0.3942  0.2020  0.0450
 5791ntf    cn130155   3.552   3.398   3.390 -0.0805 -0.0015  0.3960
 5791ntf    fn430156   3.552   2.989   3.331  0.2101 -0.2491  0.1795
 5791ntf    fn430157   3.739   2.897   3.291 -0.1314 -0.4769  0.1457
 5791ntf    fn430158   3.733   3.074   3.410 -0.0509 -0.3361 -0.1490
 5791ntf    on530159   3.836   3.133   3.121  0.0631  0.3524  0.0681
 5791ntf    on530160   3.613   3.040   3.062 -0.1872  0.2336  0.2805
 5791ntf    on530161   3.659   3.497   3.184  0.1788  0.4746  0.2998
 5791ntf    on530162   3.801   3.374   3.342 -0.2602 -0.6205 -0.1969
 5791ntf    fn430163   3.433   3.385   3.332  0.3811 -0.5544 -0.4410
 5791ntf    fn430164   3.562   3.302   3.481  0.3999 -0.4423 -0.1175
 5791ntf    fn430165   3.561   3.514   3.453 -0.2230  0.2057  0.0390
 5792ntf    cn130166   1.512   0.054   1.754  0.0016  0.0360  0.1828
 5792ntf    sn230167   1.579   0.023   1.588 -0.2580  0.0913  0.0675
 5792ntf    nn330168   1.561  -0.131   1.562 -0.0268  0.1140 -0.2360
 5792ntf    sn230169   1.489  -0.198   1.440 -0.0771 -0.0243 -0.1310
 5792ntf    cn130170   1.638  -0.204   1.336  0.1962 -0.0087  0.2589
 5792ntf    fn430171   1.526   0.179   1.794  0.0956  0.2396 -0.4761
 5792ntf    fn430172   1.381   0.031   1.758 -0.1408  0.6947 -0.3729
 5792ntf    fn430173   1.570  -0.013   1.851  0.5856 -0.0457 -0.2183
 5792ntf    on530174   1.505   0.115   1.504  0.1597  0.1744 -0.2142
 5792ntf    on530175   1.719   0.045   1.609 -0.3640  0.6651  0.1830
 5792ntf    on530176   1.397  -0.117   1.363 -0.2567 -0.0224  0.0864
 5792ntf    on530177   1.457  -0.337   1.460  0.7606 -0.1842  0.0932
 5792ntf    fn430178   1.707  -0.312   1.368 -0.1114 -0.3107 -0.0847
 5792ntf    fn430179   1.603  -0.209   1.208 -0.3048  0.0948  0.3895
 5792ntf    fn430180   1.718  -0.099   1.351 -0.0442  0.2316 -0.0972
 5793ntf    cn130181   4.065   4.678   2.443 -0.3470 -0.4440  0.1776
 5793ntf    sn230182   3.960   4.743   2.310 -0.0809 -0.2947  0.0397
 5793ntf    nn330183   3.814   4.725   2.365 -0.0804 -0.0896  0.1103
 5793ntf    sn230184   3.674   4.762   2.305 -0.1806 -0.1901  0.2818
 5793ntf    cn130185   3.575   4.825   2.445  0.3251  0.5360  0.3183
 5793ntf    fn430186   4.040   4.729   2.562  0.2901 -0.1546  0.1910
 5793ntf    fn430187   4.058   4.547   2.458 -0.4928 -0.4121  0.4033
 5793ntf    fn430188   4.189   4.708   2.410 -0.4912 -0.1168 -0.0745
 5793ntf    on530189   3.995   4.883   2.309 -0.2339 -0.2454  0.9204
 5793ntf    on530190   3.991   4.665   2.192  0.4271 -0.1396  0.0687
 5793ntf    on530191   3.607   4.643   2.261 -0.2062  0.0571 -0.3495
 5793ntf    on530192   3.677   4.875   2.216 -0.3402 -0.2704  0.1743
 5793ntf    fn430193   3.542   4.724   2.524 -0.1058  0.3928 -0.0403
 5793ntf    fn430194   3.644   4.904   2.525  0.6469 -0.0594  0.6374
 5793ntf    fn430195   3.465   4.890   2.412 -0.2246 -0.1518  0.7724
 5794ntf    cn130196   0.221   2.213   6.147 -0.3508  0.2314  0.2967
 5794ntf    sn230197   0.301   2.323   6.027  0.1672 -0.0932  0.3402
 5794ntf    nn330198   0.453   2.310   6.066  0.3047  0.1594 -0.0998
 5794ntf    sn230199   0.574   2.261   5.980 -0.0355 -0.0974 -0.4391
 5794ntf    cn130200   0.689   2.398   6.016 -0.2680 -0.0227  0.0232
 5794ntf    fn430201   0.091   2.201   6.126 -0.3972 -0.0385  0.7169
 5794ntf    fn430202   0.271   2.091   6.133 -0.0771  0.3131  0.5414
 5794ntf    fn430203   0.235   2.249   6.274  0.0623 -0.1976  0.3765
 5794ntf    on530204   0.255   2.265   5.903  0.1887  0.1706  0.2070
 5794ntf    on530205   0.244   2.448   6.070  0.1169 -0.0941  0.2770
 5794ntf    on530206   0.566   2.259   5.836  0.3935 -0.4729 -0.4607
 5794ntf    on530207   0.638   2.146   6.039 -0.6635 -0.0684  0.3039
 5794ntf    fn430208   0.646   2.516   5.974  0.4257  0.1144 -0.3110
 5794ntf    fn430209   0.707   2.417   6.146  0.8622 -0.6330 -0.0359
 5794ntf    fn430210   0.808   2.367   5.968 -0.3491 -0.4580  0.0932
 5795ntf    cn130211   3.903   1.960   6.845 -0.1406 -0.0845  0.2209
 5795ntf    sn230212   3.851   1.807   6.762  0.3810 -0.1193 -0.0419
 5795ntf    nn330213   3.984   1.800   6.679  0.4928 -1.3497  0.2243
 5795ntf    sn230214   4.008   1.736   6.538  0.3658  0.0184 -0.4295
 5795ntf    cn130215   3.982   1.881   6.431  0.0689  0.0233 -0.3494
 5795ntf    fn430216   3.813   2.015   6.926 -0.1251 -0.1576  0.2877
 5795ntf    fn430217   4.012   1.950   6.919  0.0547 -0.2094 -0.0872
 5795ntf    fn430218   3.935   2.054   6.758  0.2321 -0.0636  0.3795
 5795ntf    on530219   3.838   1.702   6.859  0.2260 -0.0722 -0.0123
 5795ntf    on530220   3.734   1.845   6.686 -0.2531 -0.5976  0.6834
 5795ntf    on530221   3.914   1.635   6.497  0.1227  0.1612 -0.2180
 5795ntf    on530222   4.148   1.708   6.516  0.5261  0.1500  0.3969
 5795ntf    fn430223   4.073   1.973   6.458 -0.0771  0.3467 -0.9332
 5795ntf    fn430224   3.980   1.856   6.301  0.2026  0.8609 -0.5198
 5795ntf    fn430225   3.867   1.937   6.465  0.2127 -0.2133  0.5535
 5796ntf    cn130226   4.771   3.688   2.107  0.0528  0.0313  0.2332
 5796ntf    sn230227   4.938   3.698   2.037 -0.0331 -0.3677 -0.0265
 5796ntf    nn330228   5.009   3.710   2.176  0.1268 -0.2013 -0.1227
 5796ntf    sn230229   5.151   3.774   2.192  0.0689 -0.0510 -0.1996
 5796ntf    cn130230   5.254   3.626   2.218  0.1406 -0.0022 -0.2047
 5796ntf    fn430231   4.732   3.799   2.169 -0.4215 -0.0239  0.0333
 5796ntf    fn430232   4.678   3.661   2.017  0.2130 -1.1941  0.4261
 5796ntf    fn430233   4.772   3.595   2.201  0.2237 -0.4515 -0.2457
 5796ntf    on530234   4.959   3.573   1.967  0.0146 -0.1597 -0.3884
 5796ntf    on530235   4.933   3.816   1.954 -0.0156 -0.4267 -0.1116
 5796ntf    on530236   5.159   3.841   2.320 -0.5510  0.0003 -0.1866
 5796ntf    on530237   5.212   3.837   2.078  0.7086 -0.3021 -0.0017
 5796ntf    fn430238   5.379   3.657   2.248  0.0463 -0.2656  0.4682
 5796ntf    fn430239   5.207   3.540   2.307  0.4690  0.0863  0.0555
 5796ntf    fn430240   5.265   3.551   2.109  0.0958 -0.0017 -0.2096
 5797ntf    cn130241   3.527   0.551   7.075  0.1245 -0.2757 -0.2179
 5797ntf    sn230242   3.698   0.591   7.029  0.2271 -0.0800  0.3190
 5797ntf    nn330243   3.766   0.606   7.169  0.4413  0.3492  0.1718
 5797ntf    sn230244   3.795   0.495   7.276 -0.2338 -0.2133 -0.2226
 5797ntf    cn130245   3.969   0.528   7.316 -0.1922 -0.5991 -0.0807
 5797ntf    fn430246   3.510   0.422   7.097  0.5461 -0.2863  0.0388
 5797ntf    fn430247   3.490   0.622   7.181  0.1808 -0.1516 -0.2816
 5797ntf    fn430248   3.434   0.578   6.984  0.0040  0.1639  0.0316
 5797ntf    on530249   3.741   0.485   6.941 -0.3083  0.1474 -0.2339
 5797ntf    on530250   3.685   0.722   6.969  0.6138  0.3135  1.0790
 5797ntf    on530251   3.791   0.357   7.233 -0.2265 -0.2322 -0.1637
 5797ntf    on530252   3.728   0.536   7.397  0.0842 -0.3448  0.0008
 5797ntf    fn430253   3.984   0.649   7.366  0.8780 -0.5311 -0.5251
 5797ntf    fn430254   4.026   0.439   7.395 -0.1312 -0.3793  0.1236
 5797ntf    fn430255   4.036   0.536   7.202 -0.1036  0.1103  0.0158
 5798ntf    cn130256   5.039   4.744   3.522  0.3434  0.3624  0.2308
 5798ntf    sn230257   4.935   4.799   3.383 -0.0580 -0.2756  0.2753
 5798ntf    nn330258   4.812   4.858   3.462 -0.1194  0.2306 -0.1912
 5798ntf    sn230259   4.667   4.801   3.483  0.0587 -0.1737 -0.0385
 5798ntf    cn130260   4.663   4.778   3.663 -0.1757  0.0849 -0.0095
 5798ntf    fn430261   5.155   4.693   3.484  0.1042 -0.3128  0.4024
 5798ntf    fn430262   5.073   4.846   3.599  0.3026  0.4257  0.1665
 5798ntf    fn430263   4.974   4.664   3.605 -0.1163 -0.2050 -0.6616
 5798ntf    on530264   5.007   4.912   3.329 -0.9667  0.1400 -0.0947
 5798ntf    on530265   4.913   4.683   3.300  0.1729 -0.1173 -0.0064
 5798ntf    on530266   4.630   4.672   3.429 -0.6826 -0.1190  0.3203
 5798ntf    on530267   4.566   4.902   3.461  0.3238  0.0479 -0.2536
 5798ntf    fn430268   4.694   4.888   3.731 -0.2569  0.0210  0.1314
 5798ntf    fn430269   4.542   4.746   3.707 -0.0369 -0.1907  0.1713
 5798ntf    fn430270   4.748   4.690   3.712 -0.1359  0.0487 -0.1436
 5799ntf    cn130271   6.936   3.972   6.881 -0.0831  0.1721  0.3542
 5799ntf    sn230272   6.903   3.815   6.795  0.2322  0.1010  0.3613
 5799ntf    nn330273   6.766   3.786   6.866  0.0144  0.1693 -0.0305
 5799ntf    sn230274   6.736   3.691   6.987  0.2319 -0.1448 -0.2221
 5799ntf    cn130275   6.563   3.653   6.943  0.1325  0.0640 -0.0178
 5799ntf    fn430276   6.945   3.957   7.012 -0.2922  0.0991  0.3605
 5799ntf    fn430277   7.039   4.042   6.836 -0.0112 -0.0536  0.1607
 5799ntf    fn430278   6.832   4.052   6.862 -0.5223 -0.4857 -0.1063
 5799ntf    on530279   6.888   3.854   6.657 -0.3311  0.5280  0.5371
 5799ntf    on530280   7.010   3.723   6.826  0.1625 -0.2718 -0.4620
 5799ntf    on530281   6.721   3.746   7.119 -0.4008 -0.2220 -0.2582
 5799ntf    on530282   6.796   3.560   6.989  0.3666 -0.0784  0.1928
 5799ntf    fn430283   6.498   3.573   7.025 -0.5292  0.4211 -0.1903
 5799ntf    fn430284   6.492   3.763   6.926 -0.3972 -0.2320  0.2838
 5799ntf    fn430285   6.560   3.593   6.825  0.5567 -0.3256  0.1642
 5800ntf    cn130286   1.792   3.546   1.912 -0.2034  0.5477 -0.2151
 5800ntf    sn230287   1.901   3.604   1.778 -0.2513 -0.0554 -0.5195
 5800ntf    nn330288   1.798   3.685   1.691  0.0045 -0.0949 -0.8592
 5800ntf    sn230289   1.748   3.834   1.698  0.3611 -0.0208  0.2693
 5800ntf    cn130290   1.863   3.914   1.583  0.4284 -0.2268  0.1923
 5800ntf    fn430291   1.687   3.484   1.860  0.1221  0.0013 -0.2309
 5800ntf    fn430292   1.847   3.462   1.998 -0.2687  0.7875  0.0635
 5800ntf    fn430293   1.742   3.646   1.982 -0.6359  0.2191 -0.0491
 5800ntf    on530294   2.000   3.685   1.843 -0.5492 -0.3782  0.3485
 5800ntf    on530295   1.931   3.480   1.712  0.3998 -0.1196 -0.1072
 5800ntf    on530296   1.757   3.902   1.825 -0.2922  0.0383  0.2859
 5800ntf    on530297   1.628   3.858   1.622  0.2615 -0.0302  0.4232
 5800ntf    fn430298   1.825   4.037   1.551  0.0494 -0.4103 -0.0628
 5800ntf    fn430299   1.992   3.916   1.615  0.5579  0.1318 -0.3391
 5800ntf    fn430300   1.856   3.858   1.463 -0.4846  0.8681 -0.2867
 5801ntf    cn130301   0.786   5.312   6.615 -0.0558  0.1582  0.1431
 5801ntf    sn230302   0.956   5.336   6.555 -0.0757 -0.1814 -0.0472
 5801ntf    nn330303   0.965   5.492   6.563  0.0048 -0.1967  0.1878
 5801ntf    sn230304   1.044   5.585   6.662  0.4769 -0.0095 -0.3562
 5801ntf    cn130305   0.943   5.736   6.658  0.4641 -0.0125 -0.1492
 5801ntf    fn430306   0.772   5.184   6.645 -0.7185  0.2164  0.1069
 5801ntf    fn430307   0.745   5.386   6.717 -0.3567 -0.2156  0.2931
 5801ntf    fn430308   0.700   5.337   6.518 -0.1415 -0.1881  0.1306
 5801ntf    on530309   1.044   5.253   6.633  0.0068 -0.0542 -0.0060
 5801ntf    on530310   0.949   5.291   6.418  0.1900 -0.0457 -0.1069
 5801ntf    on530311   1.167   5.627   6.599  0.1520  0.1316 -0.8977
 5801ntf    on530312   1.043   5.534   6.797 -0.1944 -0.1513 -0.4119
 5801ntf    fn430313   0.821   5.717   6.704  0.6010  0.1094  0.2756
 5801ntf    fn430314   1.001   5.825   6.738  0.3356 -0.0803  0.0183
 5801ntf    fn430315   0.939   5.793   6.539 -0.4805 -0.6561 -0.4276
 5802ntf    cn130316   5.189   6.987   3.709  0.1103 -0.0278 -0.0165
 5802ntf    sn230317   5.173   6.854   3.586  0.0554  0.0276 -0.0688
 5802ntf    nn330318   5.240   6.731   3.658 -0.2265  0.0539  0.2433
 5802ntf    sn230319   5.392   6.692   3.663 -0.2269  0.0035 -0.0742
 5802ntf    cn130320   5.397   6.594   3.511  0.2347 -0.2992  0.1322
 5802ntf    fn430321   5.119   6.965   3.818  0.1534  0.5549  0.1308
 5802ntf    fn430322   5.312   7.005   3.754  0.1742 -0.2482 -0.1034
 5802ntf    fn430323   5.150   7.108   3.673  0.1456  0.0687  0.2658
 5802ntf    on530324   5.030   6.842   3.568  0.0469 -0.2502  0.1581
 5802ntf    on530325   5.243   6.906   3.471  0.1451  0.1894  0.0579
 5802ntf    on530326   5.417   6.604   3.774  0.0398  0.3489  0.1435
 5802ntf    on530327   5.495   6.792   3.650 -0.0600 -0.1899 -0.2262
 5802ntf    fn430328   5.371   6.665   3.402  0.3865 -0.2026  0.1596
 5802ntf    fn430329   5.510   6.528   3.490  0.2231 -0.2504 -0.0865
 5802ntf    fn430330   5.306   6.498   3.520  0.0464 -0.1435 -0.0983
 5803ntf    cn130331   7.337   6.244   1.411  0.2472  0.0640  0.2508
 5803ntf    sn230332   7.191   6.280   1.308  0.1838 -0.2203  0.2399
 5803ntf    nn330333   7.259   6.275   1.166 -0.2995 -0.0175  0.0011
 5803ntf    sn230334   7.299   6.409   1.095 -0.0425  0.1052  0.3711
 5803ntf    cn130335   7.143   6.452   1.010  0.1169  0.1446  0.0952
 5803ntf    fn430336   7.407   6.140   1.367 -0.4039 -0.1460 -0.3106
 5803ntf    fn430337   7.418   6.348   1.411  0.2452  0.0666 -0.0698
 5803ntf    fn430338   7.304   6.223   1.537  0.0273 -0.0831  0.1715
 5803ntf    on530339   7.109   6.162   1.314  0.2351 -0.2989 -0.5649
 5803ntf    on530340   7.137   6.407   1.349 -0.2641 -0.2735 -0.1755
 5803ntf    on530341   7.378   6.386   0.977 -0.2916  0.4139  0.1399
 5803ntf    on530342   7.332   6.526   1.173  0.3826  0.3198 -0.1253
 5803ntf    fn430343   7.042   6.457   1.095 -0.0434 -0.2251 -0.0681
 5803ntf    fn430344   7.137   6.563   0.939 -0.5228  0.0161 -0.0578
 5803ntf    fn430345   7.119   6.356   0.922 -0.2087  0.3306 -0.0181
 5804ntf    cn130346   3.759   7.252   2.603 -0.2398 -0.1126  0.4525
 5804ntf    sn230347   3.598   7.295   2.529  0.0156 -0.1346 -0.1203
 5804ntf    nn330348   3.555   7.420   2.614 -0.2965 -0.0192 -0.4496
 5804ntf    sn230349   3.555   7.571   2.571  0.2785  0.1234  0.0553
 5804ntf    cn130350   3.498   7.641   2.729 -0.1294 -0.1558  0.0328
 5804ntf    fn430351   3.843   7.351   2.579 -0.1793 -0.1629  0.4580
 5804ntf    fn430352   3.755   7.234   2.734  0.4246  0.0778  0.5014
 5804ntf    fn430353   3.817   7.153   2.538  0.3859  0.5008  0.0644
 5804ntf    on530354   3.632   7.316   2.391  0.5117 -0.3410 -0.0328
 5804ntf    on530355   3.511   7.188   2.570  0.2522 -0.3808 -0.2566
 5804ntf    on530356   3.450   7.609   2.481  0.0787 -0.2375  0.1348
 5804ntf    on530357   3.686   7.629   2.553  0.3888 -0.0741  0.2086
 5804ntf    fn430358   3.584   7.605   2.823 -0.0741  0.0992  0.0808
 5804ntf    fn430359   3.493   7.773   2.722  0.8206 -0.1329 -0.3810
 5804ntf    fn430360   3.381   7.585   2.755 -0.4591  0.4736 -0.0582
 5805ntf    cn130361   6.892   4.783   1.087 -0.2899  0.0102  0.2696
 5805ntf    sn230362   6.857   4.833   1.259 -0.1497  0.0963  0.2738
 5805ntf    nn330363   6.749   4.943   1.225  0.1674  0.2432 -0.2730
 5805ntf    sn230364   6.763   5.099   1.231 -0.3095  0.2598  0.6399
 5805ntf    cn130365   6.744   5.138   1.407 -0.1862  0.5212  0.5950
 5805ntf    fn430366   6.951   4.888   1.032 -0.3982  0.0015  0.1377
 5805ntf    fn430367   6.966   4.674   1.079 -0.0015  0.2364 -0.1507
 5805ntf    fn430368   6.784   4.762   1.014  0.1366  0.2593 -0.4365
 5805ntf    on530369   6.803   4.711   1.313 -0.4300  0.1063  0.0218
 5805ntf    on530370   6.982   4.882   1.310  0.0597  0.2520 -0.3790
 5805ntf    on530371   6.652   5.164   1.165 -0.4527  0.2143  0.8338
 5805ntf    on530372   6.892   5.154   1.197 -0.3504 -0.2431 -0.3767
 5805ntf    fn430373   6.841   5.074   1.470  0.0099  0.0534 -0.1800
 5805ntf    fn430374   6.758   5.267   1.435  0.0699  0.6403 -0.0617
 5805ntf    fn430375   6.627   5.107   1.460 -0.1194  0.1622  0.5287
 5806ntf    cn130376   2.614   3.788   6.068  0.0540  0.3446  0.0900
 5806ntf    sn230377   2.720   3.854   6.201  0.0629  0.2603  0.1242
 5806ntf    nn330378   2.863   3.836   6.139  0.0606  0.1518  0.1502
 5806ntf    sn230379   2.994   3.804   6.218 -0.1110 -0.1722  0.3045
 5806ntf    cn130380   2.990   3.931   6.348  0.0505 -0.0123  0.1549
 5806ntf    fn430381   2.505   3.739   6.125  0.0883  0.1494 -0.0134
 5806ntf    fn430382   2.580   3.883   5.982 -0.3948 -0.1123 -0.2352
 5806ntf    fn430383   2.667   3.684   6.007 -0.1045  0.1615  0.2646
 5806ntf    on530384   2.682   3.993   6.205 -0.1452  0.2133 -0.1568
 5806ntf    on530385   2.689   3.772   6.315  0.4107  0.2093  0.1829
 5806ntf    on530386   3.114   3.820   6.140 -0.3178 -0.4017 -0.0625
 5806ntf    on530387   2.986   3.681   6.293 -0.3274 -0.2072  0.2251
 5806ntf    fn430388   3.072   3.905   6.449 -0.2309  0.4927  0.5196
 5806ntf    fn430389   3.026   4.049   6.302 -0.2752 -0.0135 -0.1055
 5806ntf    fn430390   2.872   3.946   6.407 -0.0565 -0.0017 -0.0623
 5807ntf    cn130391   4.924   1.634   4.411  0.2302 -0.1514  0.0422
 5807ntf    sn230392   4.982   1.467   4.367  0.2751 -0.0325 -0.3514
 5807ntf    nn330393   5.114   1.476   4.283  0.1060  0.1523 -0.5985
 5807ntf    sn230394   5.128   1.528   4.136  0.4559  0.1687 -0.5596
 5807ntf    cn130395   5.104   1.366   4.057 -0.2550  0.1564 -0.3246
 5807ntf    fn430396   4.798   1.635   4.453  0.0644  0.0183 -0.4575
 5807ntf    fn430397   4.997   1.684   4.509  0.0356  0.2145  0.0031
 5807ntf    fn430398   4.923   1.720   4.311  0.1014 -0.2179 -0.0136
 5807ntf    on530399   5.010   1.412   4.497 -0.8265  0.1668 -0.0153
 5807ntf    on530400   4.871   1.415   4.291  0.1702 -0.5762  0.1646
 5807ntf    on530401   5.261   1.570   4.097  0.5286  0.6229  0.1679
 5807ntf    on530402   5.019   1.612   4.093  0.2199  0.2196  0.1430
 5807ntf    fn430403   5.183   1.267   4.095 -0.3141  0.2747  0.1067
 5807ntf    fn430404   4.980   1.326   4.078 -0.0614 -0.1598  0.2367
 5807ntf    fn430405   5.110   1.378   3.925  0.1349  0.3714 -0.2909
 5808ntf    cn130406   5.810   6.753   1.900  0.0317  0.0861 -0.5167
 5808ntf    sn230407   5.991   6.764   1.919  0.0008  0.0830 -0.2088
 5808ntf    nn330408   6.017   6.918   1.935  0.2124  0.0595 -0.3227
 5808ntf    sn230409   6.069   7.024   1.832  0.0579  0.1771 -0.2809
 5808ntf    cn130410   5.930   7.141   1.827 -0.0086  0.1213  0.1683
 5808ntf    fn430411   5.775   6.809   1.786 -0.6486  0.0263 -0.3395
 5808ntf    fn430412   5.769   6.627   1.908 -0.1176  0.1554 -0.1461
 5808ntf    fn430413   5.746   6.827   1.990  0.2063  0.2104 -0.4929
 5808ntf    on530414   6.006   6.709   2.051  0.4364 -0.3465 -0.4357
 5808ntf    on530415   6.038   6.689   1.805 -0.1252  0.3274 -0.4231
 5808ntf    on530416   6.076   6.979   1.696 -0.3595 -0.3059 -0.1474
 5808ntf    on530417   6.175   7.105   1.887  0.2313  0.0520 -0.4289
 5808ntf    fn430418   5.956   7.250   1.757  0.1121 -0.0931 -0.1242
 5808ntf    fn430419   5.825   7.084   1.768  0.3009 -0.4488  0.1575
 5808ntf    fn430420   5.898   7.179   1.950 -0.1546  0.8584 -0.0917
 5809ntf    cn130421   6.319   4.386   5.563 -0.6342 -0.0708 -0.0467
 5809ntf    sn230422   6.343   4.264   5.695 -0.3667  0.0863  0.0519
 5809ntf    nn330423   6.383   4.359   5.813  0.9180 -0.3821  0.0019
 5809ntf    sn230424   6.310   4.373   5.951  0.0126 -0.0039 -0.5078
 5809ntf    cn130425   6.362   4.539   6.007  0.1556 -0.2973  0.2410
 5809ntf    fn430426   6.264   4.327   5.458  0.0784  0.5175 -0.7681
 5809ntf    fn430427   6.242   4.483   5.609 -0.1707  0.4045 -0.2675
 5809ntf    fn430428   6.437   4.434   5.526 -0.6302 -0.0921 -0.0627
 5809ntf    on530429   6.220   4.188   5.708 -0.4262  0.1162 -0.3071
 5809ntf    on530430   6.452   4.185   5.645 -0.4392  0.2702 -0.3980
 5809ntf    on530431   6.353   4.284   6.056  0.0811  0.5717 -0.0414
 5809ntf    on530432   6.166   4.379   5.954 -0.0171 -0.8851 -0.0812
 5809ntf    fn430433   6.294   4.587   6.110  0.5195 -0.2877  0.4761
 5809ntf    fn430434   6.489   4.545   6.042  0.1295 -0.1814  0.3141
 5809ntf    fn430435   6.337   4.622   5.907  0.0564 -0.1654  0.3761
 5810ntf    cn130436   1.012   5.615   4.295  0.1376  0.5043 -0.0094
 5810ntf    sn230437   1.104   5.508   4.180 -0.0958  0.0086  0.2628
 5810ntf    nn330438   1.251   5.559   4.200  0.0683 -0.2358 -0.3178
 5810ntf    sn230439   1.330   5.682   4.142  0.1295 -0.1733 -0.1035
 5810ntf    cn130440   1.474   5.674   4.252  0.2536  0.3907 -0.2232
 5810ntf    fn430441   0.880   5.602   4.285  0.1765 -0.0266  0.1330
 5810ntf    fn430442   1.033   5.586   4.422  0.4160  0.2386 -0.1150
 5810ntf    fn430443   1.044   5.743   4.281  0.3300  0.4177 -0.3693
 5810ntf    on530444   1.096   5.374   4.234 -0.0398 -0.1336 -0.0805
 5810ntf    on530445   1.040   5.532   4.053 -0.3137 -0.4938  0.2757
 5810ntf    on530446   1.274   5.810   4.176  0.3458 -0.1674  0.2281
 5810ntf    on530447   1.380   5.655   4.009 -0.0207 -0.3734 -0.1202
 5810ntf    fn430448   1.450   5.699   4.379  0.1276  0.2283 -0.2145
 5810ntf    fn430449   1.532   5.555   4.253 -0.1771  0.1878  0.6804
 5810ntf    fn430450   1.571   5.754   4.211  0.4735  0.1880 -0.1016
 5811ntf    cn130451   1.655   3.561   1.079 -0.2563 -0.2801  0.0538
 5811ntf    sn230452   1.672   3.663   0.929  0.5425 -0.1797  0.2074
 5811ntf    nn330453   1.670   3.560   0.811 -0.7514 -0.1866  0.2250
 5811ntf    sn230454   1.673   3.590   0.657 -0.1178  0.2198  0.3155
 5811ntf    cn130455   1.498   3.561   0.619  0.0436 -0.1109 -0.2003
 5811ntf    fn430456   1.773   3.529   1.129  0.0347  0.2655 -0.2697
 5811ntf    fn430457   1.598   3.628   1.178  0.3781  0.2019  0.0975
 5811ntf    fn430458   1.595   3.445   1.061 -0.2488 -0.2746 -0.0083
 5811ntf    on530459   1.555   3.746   0.941  0.4176 -0.3040 -0.1335
 5811ntf    on530460   1.797   3.732   0.949  0.2042  0.5389 -0.1214
 5811ntf    on530461   1.742   3.488   0.580 -0.8021  0.0091 -0.0298
 5811ntf    on530462   1.697   3.727   0.620 -0.3343  0.0516 -0.4822
 5811ntf    fn430463   1.464   3.592   0.495 -0.0679 -0.2360 -0.2015
 5811ntf    fn430464   1.455   3.437   0.638  0.0422 -0.0454  0.2523
 5811ntf    fn430465   1.426   3.644   0.693  0.2612 -0.3810  0.3225
 5812ntf    cn130466   1.474   1.157   3.182  0.1855 -0.0533  0.1894
 5812ntf    sn230467   1.401   1.288   3.286  0.1271  0.2421 -0.2228
 5812ntf    nn330468   1.276   1.314   3.194 -0.0933  0.3520  0.1092
 5812ntf    sn230469   1.252   1.425   3.085 -0.1403  0.1977 -0.0366
 5812ntf    cn130470   1.171   1.324   2.957  0.1765 -0.0175 -0.0663
 5812ntf    fn430471   1.604   1.145   3.205  0.2365  0.5795  0.2547
 5812ntf    fn430472   1.417   1.038   3.197  0.2128 -0.0825  0.0654
 5812ntf    fn430473   1.459   1.180   3.053 -0.2697  0.2463  0.2924
 5812ntf    on530474   1.362   1.214   3.403  0.6615  0.5274  0.1407
 5812ntf    on530475   1.503   1.390   3.292  0.0348  0.3730 -0.7748
 5812ntf    on530476   1.365   1.470   3.008 -0.2916 -0.0719 -0.4188
 5812ntf    on530477   1.153   1.519   3.133 -0.3950 -0.0790 -0.0156
 5812ntf    fn430478   1.253   1.226   2.920 -0.0736 -0.2289 -0.0584
 5812ntf    fn430479   1.061   1.266   3.002  0.3222 -0.2220  0.0277
 5812ntf    fn430480   1.149   1.395   2.848  0.0616 -0.5163 -0.3743
 5813ntf    cn130481   3.195   2.359   7.380  0.4993 -0.1741 -0.1610
 5813ntf    sn230482   3.071   2.265   7.287  0.2665  0.0198 -0.0472
 5813ntf    nn330483   3.067   2.363   7.165 -0.5175  0.0845  0.0279
 5813ntf    sn230484   2.937   2.413   7.091 -0.4761  0.2422  0.0617
 5813ntf    cn130485   2.916   2.566   7.188  0.0349  0.2393  0.1819
 5813ntf    fn430486   3.218   2.307   7.499  0.2964  0.3197  0.0991
 5813ntf    fn430487   3.310   2.363   7.314  0.3183 -0.6985 -0.5142
 5813ntf    fn430488   3.155   2.484   7.397  0.1952 -0.2869 -0.0477
 5813ntf    on530489   3.132   2.139   7.253  0.1296 -0.0495 -0.0366
 5813ntf    on530490   2.958   2.259   7.376  0.0791  0.4102 -0.2566
 5813ntf    on530491   2.814   2.340   7.105 -0.4252  0.0481 -0.4755
 5813ntf    on530492   2.967   2.459   6.958 -0.4852 -0.0341 -0.0371
 5813ntf    fn430493   2.906   2.539   7.317 -0.1217  0.3022  0.1831
 5813ntf    fn430494   3.022   2.640   7.161 -0.2073  0.4824 -0.1152
 5813ntf    fn430495   2.809   2.637   7.155 -0.0133  0.2724  0.4144
 5814ntf    cn130496   3.723   6.009   1.569 -0.1159  0.1850 -0.1171
 5814ntf    sn230497   3.772   5.843   1.624 -0.0451  0.2435 -0.0003
 5814ntf    nn330498   3.891   5.816   1.526  0.1006  0.1519  0.2025
 5814ntf    sn230499   4.037   5.766   1.557 -0.0010  0.0433  0.5111
 5814ntf    cn130500   4.131   5.918   1.524  0.0521 -0.0393  0.2796
 5814ntf    fn430501   3.642   6.066   1.657 -0.6281 -0.1877 -0.3395
 5814ntf    fn430502   3.822   6.096   1.560  0.1464 -0.1508 -0.5111
 5814ntf    fn430503   3.663   6.017   1.451 -0.3052 -0.3270 -0.0571
 5814ntf    on530504   3.807   5.858   1.763  0.3453 -0.3310 -0.0319
 5814ntf    on530505   3.656   5.764   1.588 -0.0754  0.3660 -0.1741
 5814ntf    on530506   4.081   5.664   1.464 -0.1951 -0.3485  0.8457
 5814ntf    on530507   4.058   5.732   1.695  0.3570 -0.2599  0.3830
 5814ntf    fn430508   4.120   5.957   1.398  0.5529 -0.0331  0.2334
 5814ntf    fn430509   4.093   6.014   1.607  0.2960  0.1278  0.1998
 5814ntf    fn430510   4.261   5.896   1.539  0.0338 -0.2780  0.1080
 5815ntf    cn130511   3.154   6.996   1.426  0.0385  0.0605 -0.0820
 5815ntf    sn230512   3.267   7.121   1.495  0.1870 -0.1451  0.0458
 5815ntf    nn330513   3.340   7.034   1.604  0.5241  0.5799  0.4024
 5815ntf    sn230514   3.486   6.975   1.605  0.2695 -0.0744 -0.2504
 5815ntf    cn130515   3.460   6.812   1.682  0.0607  0.1724  0.2058
 5815ntf    fn430516   3.082   6.945   1.525  0.2061 -1.0978 -0.5431
 5815ntf    fn430517   3.061   7.038   1.342  0.5158  0.9524 -0.1740
 5815ntf    fn430518   3.212   6.894   1.365 -0.6285 -0.2211 -0.2592
 5815ntf    on530519   3.354   7.155   1.385  0.0068 -0.2214 -0.1210
 5815ntf    on530520   3.189   7.231   1.545  0.0370 -0.1468 -0.1831
 5815ntf    on530521   3.575   7.038   1.700  0.0431  0.1985 -0.2183
 5815ntf    on530522   3.548   6.938   1.480  0.5811 -0.3648 -0.0112
 5815ntf    fn430523   3.413   6.728   1.592  0.6452 -0.3268  0.3619
 5815ntf    fn430524   3.569   6.759   1.734  0.0665  0.1504  0.1715
 5815ntf    fn430525   3.371   6.818   1.779 -0.1564  0.6453 -0.0154
 5816ntf    cn130526   6.751   1.189   1.312  0.2633 -0.1694 -0.2638
 5816ntf    sn230527   6.603   1.271   1.247  0.1440 -0.1773 -0.0037
 5816ntf    nn330528   6.502   1.151   1.258  0.5740 -0.4970  0.4906
 5816ntf    sn230529   6.405   1.137   1.380  0.1798  0.2303  0.2622
 5816ntf    cn130530   6.403   0.956   1.388  0.0947  0.2038 -0.2877
 5816ntf    fn430531   6.773   1.073   1.253  0.5245 -0.3067  0.0947
 5816ntf    fn430532   6.859   1.266   1.314 -0.1357  0.3908 -0.2002
 5816ntf    fn430533   6.737   1.146   1.436 -0.3814  0.0027 -0.2758
 5816ntf    on530534   6.585   1.383   1.337  0.6551 -0.2590  0.2005
 5816ntf    on530535   6.639   1.303   1.111  0.3223 -0.5335 -0.0411
 5816ntf    on530536   6.266   1.163   1.352  0.1552  0.2396  0.3922
 5816ntf    on530537   6.456   1.173   1.510  0.0675 -0.0718  0.3903
 5816ntf    fn430538   6.390   0.899   1.269 -0.0052 -0.4519  0.0336
 5816ntf    fn430539   6.514   0.910   1.443 -0.1039 -0.6787 -0.6030
 5816ntf    fn430540   6.308   0.898   1.460  0.2293 -0.2652 -0.4822
 5817ntf    cn130541   3.408   2.701   1.567 -0.1408  0.0087  0.2548
 5817ntf    sn230542   3.533   2.816   1.501 -0.1567 -0.1131  0.0150
 5817ntf    nn330543   3.626   2.808   1.627  0.5403  0.5028 -0.4564
 5817ntf    sn230544   3.746   2.710   1.653  0.0908  0.1055  0.1491
 5817ntf    cn130545   3.887   2.816   1.606  0.0990  0.0309  0.0049
 5817ntf    fn430546   3.305   2.683   1.487 -0.1596 -0.5285  0.4006
 5817ntf    fn430547   3.452   2.580   1.596  0.1068  0.1263  0.3787
 5817ntf    fn430548   3.354   2.749   1.678  0.0968  0.2047  0.2883
 5817ntf    on530549   3.573   2.747   1.380 -0.1723 -0.4575  0.2048
 5817ntf    on530550   3.471   2.944   1.483  0.1172 -0.0503 -0.5080
 5817ntf    on530551   3.759   2.595   1.568 -0.2735  0.0637  0.1499
 5817ntf    on530552   3.753   2.691   1.796  0.0173  0.5754  0.2165
 5817ntf    fn430553   3.889   2.920   1.688 -0.1325 -0.1627  0.2619
 5817ntf    fn430554   4.002   2.751   1.611 -0.1430 -0.4160 -0.1600
 5817ntf    fn430555   3.872   2.860   1.482  0.2968  0.8307  0.2589
 5818ntf    cn130556   6.239   6.518   4.314 -0.2425  0.0896 -0.2315
 5818ntf    sn230557   6.200   6.361   4.397  0.1900  0.0501 -0.0975
 5818ntf    nn330558   6.344   6.319   4.443  0.0645 -0.2655  0.0042
 5818ntf    sn230559   6.458   6.258   4.354 -0.0589 -0.2701 -0.1527
 5818ntf    cn130560   6.593   6.372   4.396 -0.0221 -0.3232 -0.1243
 5818ntf    fn430561   6.330   6.578   4.389 -0.1952  0.2516 -0.4178
 5818ntf    fn430562   6.303   6.487   4.202 -0.1359 -0.1176 -0.1134
 5818ntf    fn430563   6.146   6.610   4.291  0.1503  0.4764 -0.2959
 5818ntf    on530564   6.124   6.412   4.509 -0.0872  0.3040 -0.3971
 5818ntf    on530565   6.132   6.287   4.293  0.1602 -0.1715  0.0795
 5818ntf    on530566   6.437   6.266   4.212 -0.2995 -0.8349 -0.1541
 5818ntf    on530567   6.505   6.131   4.406  0.4257 -0.2838 -0.6193
 5818ntf    fn430568   6.578   6.487   4.332  0.7944 -0.4442 -0.5460
 5818ntf    fn430569   6.609   6.401   4.524  0.4817  0.5731 -0.3776
 5818ntf    fn430570   6.714   6.332   4.360  0.0618 -0.2566  0.0810
 5819ntf    cn130571   0.830   5.205   0.855  0.3223  0.0963  0.1490
 5819ntf    sn230572   0.970   5.209   0.971  0.2412 -0.4487  0.2713
 5819ntf    nn330573   0.983   5.360   1.014  0.3446 -0.3182 -0.2067
 5819ntf    sn230574   1.051   5.478   0.936 -0.3430  0.1592 -0.0902
 5819ntf    cn130575   0.956   5.623   0.991 -0.3397  0.2206 -0.2477
 5819ntf    fn430576   0.849   5.267   0.740 -0.2166 -0.3202 -0.1731
 5819ntf    fn430577   0.787   5.082   0.830  0.1564  0.1280  0.2795
 5819ntf    fn430578   0.727   5.266   0.911  0.3410  0.2616  0.0018
 5819ntf    on530579   0.922   5.127   1.080 -0.3773 -0.4248  0.0230
 5819ntf    on530580   1.081   5.160   0.894  0.2316  0.5066 -0.3720
 5819ntf    on530581   1.033   5.479   0.793 -0.2514  0.0187 -0.1030
 5819ntf    on530582   1.184   5.512   0.980 -0.5806  0.5577  0.3285
 5819ntf    fn430583   0.977   5.653   1.118 -0.1446  0.0953 -0.2495
 5819ntf    fn430584   1.000   5.728   0.923  0.1605  0.0025 -0.2672
 5819ntf    fn430585   0.825   5.624   0.976 -0.3430 -0.1869 -0.2491
 5820ntf    cn130586   2.176   6.754   1.805 -0.0343 -0.3208 -0.3645
 5820ntf    sn230587   2.202   6.593   1.883  0.2222 -0.1146 -0.0235
 5820ntf    nn330588   2.179   6.623   2.035 -0.2265 -0.1731 -0.0806
 5820ntf    sn230589   2.280   6.651   2.152 -0.1005 -0.1281 -0.1996
 5820ntf    cn130590   2.207   6.806   2.213  0.2641  0.0915 -0.3221
 5820ntf    fn430591   2.272   6.832   1.853 -0.7161  0.5219 -0.3392
 5820ntf    fn430592   2.190   6.739   1.674 -0.3647 -0.0803 -0.4315
 5820ntf    fn430593   2.064   6.819   1.834 -0.1904 -0.6434 -0.2433
 5820ntf    on530594   2.091   6.514   1.837  0.1402 -0.2954  0.4730
 5820ntf    on530595   2.337   6.565   1.839  0.4239  0.3916  0.2675
 5820ntf    on530596   2.413   6.688   2.114 -0.1955  0.0044 -0.3999
 5820ntf    on530597   2.265   6.569   2.270  0.6080 -0.4819 -0.3543
 5820ntf    fn430598   2.081   6.795   2.254  0.2695  0.0105 -0.3263
 5820ntf    fn430599   2.279   6.857   2.311  0.2551  0.2138 -0.3790
 5820ntf    fn430600   2.205   6.899   2.119 -0.3075 -0.0489 -0.4545
 5821ntf    cn130601   3.902   6.546   6.140 -0.1305 -0.0589  0.0963
 5821ntf    sn230602   4.077   6.515   6.177 -0.0882 -0.0995 -0.1370
 5821ntf    nn330603   4.061   6.496   6.332  0.2329  0.0801 -0.0806
 5821ntf    sn230604   4.074   6.604   6.445  0.0947 -0.0894  0.0983
 5821ntf    cn130605   4.152   6.508   6.578  0.2474  0.3254  0.3124
 5821ntf    fn430606   3.875   6.561   6.012 -0.1076 -0.2119  0.0732
 5821ntf    fn430607   3.824   6.456   6.197 -0.3381  0.3690  0.4954
 5821ntf    fn430608   3.876   6.661   6.200 -0.6617 -0.1069 -0.0393
 5821ntf    on530609   4.124   6.396   6.110  0.0081  0.0595 -0.3533
 5821ntf    on530610   4.145   6.638   6.143  0.1439 -0.1990 -0.0339
 5821ntf    on530611   3.948   6.638   6.506  0.3142  0.2266  0.3864
 5821ntf    on530612   4.173   6.708   6.434  0.0631 -0.0603  0.0911
 5821ntf    fn430613   4.279   6.486   6.548 -0.0088 -0.3656 -0.3088
 5821ntf    fn430614   4.149   6.571   6.694 -0.1491  0.4613  0.2285
 5821ntf    fn430615   4.095   6.390   6.598 -0.0515  0.3827 -0.1756
 5822ntf    cn130616   4.996   1.120   3.817  0.0751  0.0303  0.1883
 5822ntf    sn230617   4.902   1.004   3.714 -0.0986  0.4418 -0.1137
 5822ntf    nn330618   4.780   0.983   3.811  0.4593  0.1364  0.5278
 5822ntf    sn230619   4.740   0.852   3.888 -0.1218 -0.1056 -0.1690
 5822ntf    cn130620   4.645   0.768   3.758 -0.1531 -0.0387 -0.1893
 5822ntf    fn430621   4.977   1.088   3.945  0.1755 -0.0557  0.1823
 5822ntf    fn430622   5.128   1.113   3.811  0.0810  0.0106  0.3244
 5822ntf    fn430623   4.960   1.245   3.795  0.0981 -0.0078 -0.0612
 5822ntf    on530624   4.870   1.094   3.605  0.0114  0.2817 -0.2788
 5822ntf    on530625   4.989   0.893   3.686 -0.1575  0.2644  0.4040
 5822ntf    on530626   4.646   0.893   3.989  0.3493  0.1533  0.1689
 5822ntf    on530627   4.849   0.769   3.933  0.0281  0.1386 -0.0724
 5822ntf    fn430628   4.579   0.660   3.797 -0.1786  0.0375 -0.0176
 5822ntf    fn430629   4.555   0.854   3.713 -0.1084  0.0596 -0.0941
 5822ntf    fn430630   4.724   0.742   3.656  0.0685  0.3435 -0.1178
 5823ntf    cn130631   0.621   3.290   0.444 -0.2969  0.0588 -0.0895
 5823ntf    sn230632   0.465   3.224   0.379 -0.1147 -0.2007 -0.2667
 5823ntf    nn330633   0.387   3.199   0.513  0.5107 -0.3286  0.0773
 5823ntf    sn230634   0.310   3.079   0.579  0.3343 -0.1457  0.2044
 5823ntf    cn130635   0.446   3.026   0.686  0.7157  0.5483  0.0723
 5823ntf    fn430636   0.601   3.387   0.532 -0.2446  0.2021 -0.2340
 5823ntf    fn430637   0.687   3.201   0.516 -0.6379  0.0359  0.1992
 5823ntf    fn430638   0.700   3.327   0.345 -0.1600 -0.0236 -0.0118
 5823ntf    on530639   0.404   3.336   0.311 -0.2637 -0.0372  0.1345
 5823ntf    on530640   0.497   3.106   0.304  0.5927 -0.1949  0.0193
 5823ntf    on530641   0.286   2.970   0.489  0.0874 -0.2121  0.3490
 5823ntf    on530642   0.206   3.115   0.673 -0.4330 -0.3841 -0.5366
 5823ntf    fn430643   0.401   2.932   0.768  0.5645  0.1948 -0.4120
 5823ntf    fn430644   0.549   2.978   0.617  0.1057  0.1042 -0.5418
 5823ntf    fn430645   0.495   3.126   0.758  0.5255  0.7480 -0.0757
 5824ntf    cn130646   3.918   5.490   2.967 -0.0628  0.2647  0.2009
 5824ntf    sn230647   3.841   5.326   2.957  0.0163  0.2363  0.0623
 5824ntf    nn330648   3.967   5.232   2.967 -0.0142  0.1653 -0.2002
 5824ntf    sn230649   3.957   5.077   2.988 -0.3362  0.2453  0.2799
 5824ntf    cn130650   3.946   5.025   2.814 -0.1417  0.1199  0.3044
 5824ntf    fn430651   4.026   5.508   3.041 -0.1147  0.2261  0.2849
 5824ntf    fn430652   3.947   5.534   2.846  0.2003 -0.7770 -0.1226
 5824ntf    fn430653   3.833   5.575   3.023 -0.2127  0.1213  0.1945
 5824ntf    on530654   3.753   5.316   3.071 -0.1538 -0.0444 -0.0920
 5824ntf    on530655   3.776   5.323   2.828  0.0910  0.4775  0.0193
 5824ntf    on530656   3.839   5.025   3.052 -0.4029  0.0144 -0.0263
 5824ntf    on530657   4.085   5.017   3.015 -0.3416  0.0851 -0.0379
 5824ntf    fn430658   3.839   5.060   2.745 -0.2801 -0.7589  0.0593
 5824ntf    fn430659   4.042   5.080   2.740 -0.1107  0.3589  0.5196
 5824ntf    fn430660   3.957   4.894   2.806 -0.5413  0.1265 -0.3823
 5825ntf    cn130661   4.005   7.402   5.762  0.2635 -0.2338 -0.4442
 5825ntf    sn230662   4.124   7.335   5.642  0.3340 -0.1752 -0.4076
 5825ntf    nn330663   4.022   7.329   5.523 -0.3431 -0.7426  0.1957
 5825ntf    sn230664   4.031   7.366   5.371 -0.0104 -0.0711  0.3742
 5825ntf    cn130665   3.931   7.518   5.366 -0.0081 -0.0877 -0.2681
 5825ntf    fn430666   3.916   7.314   5.803  0.4081  0.1101  0.6292
 5825ntf    fn430667   4.062   7.455   5.869 -0.2694 -0.2556 -0.1468
 5825ntf    fn430668   3.934   7.498   5.705 -0.4085 -0.4182  0.0671
 5825ntf    on530669   4.228   7.435   5.632  0.3000 -0.1615 -0.6299
 5825ntf    on530670   4.154   7.206   5.699 -0.2690 -0.0261  0.2531
 5825ntf    on530671   3.953   7.282   5.284 -0.0151 -0.0035  0.3136
 5825ntf    on530672   4.165   7.403   5.333 -0.2104  0.3677  0.0835
 5825ntf    fn430673   3.806   7.486   5.395  0.0137 -0.3040 -0.4058
 5825ntf    fn430674   3.974   7.598   5.462 -0.1336  0.1185 -0.3838
 5825ntf    fn430675   3.943   7.580   5.249  0.1123  0.2433 -0.0796
 5826ntf    cn130676   3.456   2.753   4.756  0.1534 -0.3458 -0.3355
 5826ntf    sn230677   3.345   2.658   4.648 -0.4864 -0.0069  0.0224
 5826ntf    nn330678   3.276   2.564   4.754 -0.2300  0.2509  0.4217
 5826ntf    sn230679   3.298   2.412   4.784  0.0490  0.1946 -0.0506
 5826ntf    cn130680   3.202   2.334   4.651  0.0171 -0.2068  0.2052
 5826ntf    fn430681   3.558   2.676   4.794  0.0343 -0.1568  0.3892
 5826ntf    fn430682   3.510   2.861   4.703 -0.3186 -0.0294 -0.1673
 5826ntf    fn430683   3.392   2.790   4.866  0.1334 -0.1138 -0.4266
 5826ntf    on530684   3.258   2.750   4.579  0.1755  0.1799 -0.5714
 5826ntf    on530685   3.428   2.577   4.562  0.1058  0.6468 -0.0295
 5826ntf    on530686   3.227   2.369   4.902  0.3563 -0.0987  0.0285
 5826ntf    on530687   3.430   2.358   4.768 -0.2228 -0.4773 -0.0560
 5826ntf    fn430688   3.083   2.383   4.621  0.0786 -0.0906  0.1508
 5826ntf    fn430689   3.270   2.337   4.537  0.3796  0.4471  0.4340
 5826ntf    fn430690   3.179   2.206   4.674  0.3855 -0.2733  0.2103
 5827ntf    cn130691   4.422   6.731   0.945  0.2130 -0.0022 -0.2799
 5827ntf    sn230692   4.395   6.862   0.823 -0.4172  0.1825  0.0574
 5827ntf    nn330693   4.243   6.855   0.785 -0.2578  0.2562 -0.6154
 5827ntf    sn230694   4.126   6.933   0.855 -0.1939  0.0636 -0.2868
 5827ntf    cn130695   4.160   7.104   0.803 -0.1418  0.1148 -0.0838
 5827ntf    fn430696   4.335   6.740   1.044  0.2574  0.3221 -0.2693
 5827ntf    fn430697   4.422   6.611   0.889  0.2499 -0.0422 -0.1955
 5827ntf    fn430698   4.546   6.751   0.988  0.1413  0.0895 -0.1192
 5827ntf    on530699   4.436   6.982   0.892  0.3658  0.1956 -0.4150
 5827ntf    on530700   4.484   6.831   0.714 -0.4439  0.1635  0.0410
 5827ntf    on530701   4.140   6.946   0.997  0.4779  0.3250 -0.3747
 5827ntf    on530702   3.993   6.908   0.803 -0.3518  0.8082 -0.2536
 5827ntf    fn430703   4.224   7.182   0.888 -0.0314 -0.0304 -0.0332
 5827ntf    fn430704   4.233   7.105   0.692 -0.0998  0.3132 -0.0544
 5827ntf    fn430705   4.047   7.167   0.772 -0.5407 -0.3343  0.4402
 5828ntf    cn130706   5.628   2.332   3.329 -0.4139 -0.1221  0.1625
 5828ntf    sn230707   5.602   2.208   3.199 -0.1026 -0.0500  0.0295
 5828ntf    nn330708   5.456   2.170   3.244 -0.0261 -0.3138  0.0558
 5828ntf    sn230709   5.330   2.154   3.153 -0.2536  0.1921  0.2784
 5828ntf    cn130710   5.246   2.009   3.223  0.0298  0.0910  0.4100
 5828ntf    fn430711   5.738   2.402   3.304 -0.3452 -0.4597 -0.5022
 5828ntf    fn430712   5.528   2.416   3.349  0.1035  0.4656  0.3220
 5828ntf    fn430713   5.642   2.268   3.445  0.0421  0.2574  0.3211
 5828ntf    on530714   5.604   2.280   3.074  0.0764  0.2890  0.2267
 5828ntf    on530715   5.707   2.114   3.228 -0.1076 -0.0709 -0.0223
 5828ntf    on530716   5.355   2.108   3.018 -0.0826  0.0380  0.3626
 5828ntf    on530717   5.232   2.258   3.170 -0.3446  0.1312  0.1337
 5828ntf    fn430718   5.318   1.898   3.210 -0.5495 -0.1780 -0.7311
 5828ntf    fn430719   5.205   2.022   3.347 -0.3360 -0.4337  0.3485
 5828ntf    fn430720   5.139   1.985   3.149  0.4388  0.7432 -0.4156
 5829ntf    cn130721   0.666   6.055   2.598 -0.1248 -0.1753 -0.0782
 5829ntf    sn230722   0.690   6.184   2.472 -0.2111  0.0412  0.1259
 5829ntf    nn330723   0.560   6.271   2.487 -0.2331 -0.0179  0.2812
 5829ntf    sn230724   0.484   6.352   2.375  0.2599 -0.1003 -0.1182
 5829ntf    cn130725   0.465   6.504   2.473  0.0395 -0.2339  0.0480
 5829ntf    fn430726   0.576   5.962   2.567 -0.4588  0.0686  0.1495
 5829ntf    fn430727   0.781   5.994   2.618  0.1653  0.3521 -0.1284
 5829ntf    fn430728   0.622   6.110   2.710 -0.1089 -0.0668 -0.1249
 5829ntf    on530729   0.811   6.248   2.517 -0.1803  0.0900 -0.0249
 5829ntf    on530730   0.700   6.105   2.352  0.5125 -0.0754  0.2575
 5829ntf    on530731   0.345   6.316   2.363  0.3016 -0.2844 -0.0587
 5829ntf    on530732   0.554   6.410   2.263 -0.4662 -0.2651 -0.6626
 5829ntf    fn430733   0.584   6.537   2.521  0.1971 -0.2955 -0.2961
 5829ntf    fn430734   0.427   6.608   2.402  0.1339 -0.4256 -0.2870
 5829ntf    fn430735   0.384   6.502   2.578 -0.0595  0.1052 -0.0223
 5830ntf    cn130736   0.435   2.153   1.997  0.1541  0.3060  0.2526
 5830ntf    sn230737   0.306   2.280   1.985  0.0611  0.1796 -0.0947
 5830ntf    nn330738   0.178   2.190   1.967  0.1570  0.0179  0.0216
 5830ntf    sn230739   0.024   2.220   1.980  0.1145 -0.0794 -0.2537
 5830ntf    cn130740   0.012   2.157   2.149 -0.1677  0.3850 -0.0976
 5830ntf    fn430741   0.549   2.206   2.039  0.3076  0.2678 -0.1103
 5830ntf    fn430742   0.407   2.055   2.083  0.0877 -0.1722 -0.3084
 5830ntf    fn430743   0.465   2.098   1.881  0.0558 -0.0710  0.4022
 5830ntf    on530744   0.316   2.342   2.115 -0.1620 -0.1236  0.0721
 5830ntf    on530745   0.349   2.356   1.871  0.3324  0.6438  0.3106
 5830ntf    on530746  -0.057   2.132   1.899 -0.1838 -0.2381  0.2190
 5830ntf    on530747  -0.017   2.358   1.996  0.4751  0.0374 -0.3161
 5830ntf    fn430748   0.031   2.026   2.156  0.3070  0.4849  0.6967
 5830ntf    fn430749   0.100   2.206   2.235  0.1120 -0.0637 -0.1220
 5830ntf    fn430750  -0.111   2.176   2.194 -0.2596  0.0504 -0.2041
 5831ntf    cn130751   1.680   3.922   6.299 -0.2479 -0.2264 -0.3403
 5831ntf    sn230752   1.673   4.104   6.302  0.0330 -0.2113 -0.5351
 5831ntf    nn330753   1.548   4.121   6.395  0.0917 -0.2622 -0.4470
 5831ntf    sn230754   1.400   4.141   6.348 -0.0965 -0.2108  0.1583
 5831ntf    cn130755   1.418   4.320   6.318  0.2150 -0.3771 -0.6665
 5831ntf    fn430756   1.711   3.882   6.421  0.0695  0.2035 -0.2757
 5831ntf    fn430757   1.570   3.860   6.261 -0.4167  0.1037 -0.3964
 5831ntf    fn430758   1.781   3.882   6.223  0.1759  0.1630  0.0151
 5831ntf    on530759   1.793   4.150   6.369 -0.2271 -0.1690 -0.0963
 5831ntf    on530760   1.661   4.142   6.164  0.0350 -0.0868 -0.5015
 5831ntf    on530761   1.305   4.148   6.457  0.0889 -0.5064  0.3408
 5831ntf    on530762   1.366   4.076   6.224  0.2040 -0.0161 -0.0275
 5831ntf    fn430763   1.458   4.389   6.423 -0.4136 -0.7156 -0.1963
 5831ntf    fn430764   1.498   4.357   6.220 -0.1426  0.3985 -0.6724
 5831ntf    fn430765   1.298   4.369   6.292  0.0690 -0.2625  0.1994
 5832ntf    cn130766   5.113   4.599   0.434 -0.1073  0.1204 -0.0060
 5832ntf    sn230767   5.102   4.418   0.454 -0.2371  0.1238 -0.0537
 5832ntf    nn330768   5.116   4.403   0.609 -0.0266  0.6736 -0.0152
 5832ntf    sn230769   5.008   4.373   0.719  0.2604 -0.1053  0.0599
 5832ntf    cn130770   5.111   4.378   0.869  0.0508  0.2986  0.1900
 5832ntf    fn430771   5.042   4.663   0.526 -0.3736 -0.2805  0.0712
 5832ntf    fn430772   5.234   4.648   0.456 -0.1807  0.1999  0.2238
 5832ntf    fn430773   5.073   4.645   0.317  0.1550  0.4279  0.0228
 5832ntf    on530774   4.974   4.383   0.397 -0.2348  0.0913 -0.0377
 5832ntf    on530775   5.218   4.388   0.374 -0.1159 -0.0620  0.1942
 5832ntf    on530776   4.959   4.237   0.715 -0.7163  0.2346  0.1948
 5832ntf    on530777   4.915   4.480   0.741  0.5624  0.1038  0.3330
 5832ntf    fn430778   5.204   4.471   0.853 -0.4628  0.7508 -0.2100
 5832ntf    fn430779   5.044   4.414   0.978 -0.3893 -0.0765  0.0426
 5832ntf    fn430780   5.181   4.268   0.890 -0.1323  0.2035  0.3045
 5833ntf    cn130781   1.334   2.979   6.892  0.1218  0.2683  0.2278
 5833ntf    sn230782   1.316   3.087   7.037  0.3298  0.1331  0.3545
 5833ntf    nn330783   1.308   3.226   6.966 -0.0551 -0.0712 -0.0088
 5833ntf    sn230784   1.415   3.341   6.981  0.1394 -0.2426 -0.0797
 5833ntf    cn130785   1.305   3.478   7.028  0.2045 -0.1581 -0.1719
 5833ntf    fn430786   1.443   3.001   6.821 -0.0145 -0.7658 -0.3143
 5833ntf    fn430787   1.338   2.850   6.925 -0.4199  0.2405  0.2039
 5833ntf    fn430788   1.234   3.000   6.808  0.4149 -0.2625 -0.2585
 5833ntf    on530789   1.189   3.056   7.097 -0.3266  0.3533 -0.8915
 5833ntf    on530790   1.431   3.054   7.117  0.0771  0.2368  0.7649
 5833ntf    on530791   1.469   3.373   6.851 -0.3245 -0.1551 -0.2536
 5833ntf    on530792   1.506   3.338   7.093 -0.2364 -0.3291  0.2264
 5833ntf    fn430793   1.353   3.601   7.032  0.9022 -0.4157 -0.4618
 5833ntf    fn430794   1.206   3.482   6.941  0.1823  0.2789 -0.1278
 5833ntf    fn430795   1.247   3.461   7.146  0.1198  0.2028 -0.1610
 5834ntf    cn130796   5.644   4.360   6.468  0.0669  0.2323 -0.1743
 5834ntf    sn230797   5.754   4.350   6.323  0.1090  0.1266 -0.1356
 5834ntf    nn330798   5.774   4.503   6.294 -0.4155  0.2987  0.3979
 5834ntf    sn230799   5.888   4.594   6.353  0.0328 -0.1047  0.1552
 5834ntf    cn130800   6.017   4.551   6.233  0.0401  0.0662  0.1012
 5834ntf    fn430801   5.518   4.379   6.433 -0.1282 -0.2396  0.2657
 5834ntf    fn430802   5.651   4.255   6.547 -0.1529  0.0950 -0.3357
 5834ntf    fn430803   5.674   4.468   6.539  0.4833 -0.0715  0.1153
 5834ntf    on530804   5.870   4.277   6.368  0.0843  0.1539 -0.0277
 5834ntf    on530805   5.679   4.280   6.223  0.2846  0.2807 -0.3774
 5834ntf    on530806   5.942   4.553   6.480 -0.4293  0.0120  0.3908
 5834ntf    on530807   5.852   4.730   6.322 -0.9691 -0.4872 -0.3948
 5834ntf    fn430808   6.106   4.459   6.269  0.0474  0.0944  0.1549
 5834ntf    fn430809   5.962   4.515   6.118  0.1664  0.3559 -0.0515
 5834ntf    fn430810   6.091   4.657   6.203 -0.1007  0.1663  0.1103
 5835ntf    cn130811   4.071   2.075   0.170 -0.3145 -0.1069 -0.0358
 5835ntf    sn230812   4.133   2.243   0.202  0.1045 -0.2195 -0.2454
 5835ntf    nn330813   4.107   2.300   0.058 -0.4092  0.0461 -0.0480
 5835ntf    sn230814   3.990   2.394   0.012 -0.2540  0.1792 -0.1663
 5835ntf    cn130815   4.087   2.547  -0.006  0.1288 -0.0505 -0.0607
 5835ntf    fn430816   4.152   2.015   0.084 -0.1913  0.3786 -0.2634
 5835ntf    fn430817   4.072   2.007   0.284  0.0519 -0.0544 -0.0047
 5835ntf    fn430818   3.949   2.071   0.120 -0.4251 -0.2292  0.2377
 5835ntf    on530819   4.053   2.288   0.313 -0.3242 -0.3280 -0.5087
 5835ntf    on530820   4.274   2.218   0.224  0.0512 -0.2433  0.0755
 5835ntf    on530821   3.886   2.437   0.102 -0.3546 -0.1293 -0.1373
 5835ntf    on530822   3.949   2.375  -0.125 -0.3810  0.0288 -0.1070
 5835ntf    fn430823   4.042   2.622  -0.105  0.0026  0.2354  0.2114
 5835ntf    fn430824   4.081   2.624   0.102  0.1065 -0.0594 -0.0552
 5835ntf    fn430825   4.215   2.521  -0.030  0.3163  0.3077  0.5305
 5836ntf    cn130826   6.844   6.758   5.504  0.1960 -0.2419 -0.9002
 5836ntf    sn230827   7.000   6.813   5.580 -0.1394  0.0657 -0.4321
 5836ntf    nn330828   7.071   6.819   5.440 -0.0188  0.0563 -0.3703
 5836ntf    sn230829   7.079   6.946   5.348 -0.1522  0.0595 -0.3776
 5836ntf    cn130830   7.041   6.872   5.186 -0.0832 -0.1166 -0.3141
 5836ntf    fn430831   6.874   6.655   5.426  0.3194 -0.1273 -1.0056
 5836ntf    fn430832   6.751   6.726   5.593  0.2647  0.2001 -0.6678
 5836ntf    fn430833   6.795   6.857   5.432 -0.1994  0.1067 -0.1640
 5836ntf    on530834   6.972   6.944   5.633 -0.1982 -0.0616 -0.1491
 5836ntf    on530835   7.039   6.703   5.664 -0.7883  0.1044 -0.0666
 5836ntf    on530836   7.219   6.974   5.330 -0.0370  0.1146  0.5321
 5836ntf    on530837   6.984   7.054   5.353 -0.2684 -0.0703  0.3688
 5836ntf    fn430838   7.132   6.779   5.169  0.0350 -0.0741  0.0741
 5836ntf    fn430839   6.921   6.816   5.182  0.0136 -0.3609  0.1156
 5836ntf    fn430840   7.044   6.954   5.083  0.0020  0.4775  0.1520
 5837ntf    cn130841   3.243   5.656   5.998 -0.4135  0.2727  0.1330
 5837ntf    sn230842   3.185   5.519   6.101  0.2966 -0.1029  0.0416
 5837ntf    nn330843   3.136   5.422   5.988  0.2267 -0.3288  0.2634
 5837ntf    sn230844   3.005   5.433   5.902  0.4125 -0.0367  0.0168
 5837ntf    cn130845   2.937   5.265   5.899  0.2122  0.0437  0.0678
 5837ntf    fn430846   3.145   5.724   5.940 -0.5374  0.1272  0.1735
 5837ntf    fn430847   3.320   5.747   6.056 -0.1560  0.2637 -0.1906
 5837ntf    fn430848   3.316   5.619   5.894 -0.3488  0.0354  0.2642
 5837ntf    on530849   3.308   5.471   6.159  0.4119  0.2834  0.1169
 5837ntf    on530850   3.085   5.566   6.194 -0.2322 -0.6743 -0.2255
 5837ntf    on530851   3.043   5.459   5.765  0.0765  0.1057 -0.0487
 5837ntf    on530852   2.895   5.508   5.956  0.1460 -0.4258  0.0193
 5837ntf    fn430853   2.902   5.212   6.014  0.2451 -0.0504  0.0343
 5837ntf    fn430854   2.832   5.255   5.818 -0.0264 -0.5681  0.4438
 5837ntf    fn430855   3.028   5.185   5.845  0.5646  0.1035  0.5714
 5838ntf    cn130856   0.270   6.868   0.673 -0.3798 -0.0744 -0.2422
 5838ntf    sn230857   0.213   6.705   0.731  0.3510 -0.1908  0.1627
 5838ntf    nn330858   0.350   6.630   0.751  0.1702 -0.5278  0.1552
 5838ntf    sn230859   0.439   6.637   0.880  0.2957  0.1873  0.0356
 5838ntf    cn130860   0.382   6.491   0.972  0.1382  0.1715 -0.0846
 5838ntf    fn430861   0.370   6.862   0.588 -0.2708  0.3242 -0.1425
 5838ntf    fn430862   0.178   6.934   0.604 -0.3498  0.1513 -0.0648
 5838ntf    fn430863   0.306   6.950   0.770  0.0635 -0.2447 -0.2615
 5838ntf    on530864   0.148   6.731   0.856 -0.1652  0.2785 -0.1983
 5838ntf    on530865   0.133   6.653   0.622  0.1131 -0.7152  0.5843
 5838ntf    on530866   0.415   6.734   0.984  0.1635  0.5184 -0.2994
 5838ntf    on530867   0.579   6.613   0.859  0.2587 -0.3787  0.4222
 5838ntf    fn430868   0.252   6.476   0.990  0.1906  0.0585  0.2064
 5838ntf    fn430869   0.422   6.379   0.915 -0.3598  0.3133 -0.7217
 5838ntf    fn430870   0.428   6.494   1.096  0.1981 -0.1993 -0.0968
 5839ntf    cn130871   3.278   2.499   5.865  0.0060 -0.4248 -0.1155
 5839ntf    sn230872   3.195   2.514   5.704  0.0803  0.2365 -0.0937
 5839ntf    nn330873   3.231   2.662   5.669 -0.2582  0.2479 -0.4044
 5839ntf    sn230874   3.368   2.712   5.610 -0.1324  0.1068 -0.2311
 5839ntf    cn130875   3.323   2.700   5.434 -0.1626  0.0181 -0.2179
 5839ntf    fn430876   3.297   2.375   5.906  0.0295 -0.3132  0.2141
 5839ntf    fn430877   3.399   2.552   5.861 -0.2184  0.0850 -0.2070
 5839ntf    fn430878   3.208   2.557   5.961 -0.6393 -0.9750 -0.2405
 5839ntf    on530879   3.249   2.413   5.616  0.7775  0.3176  0.2340
 5839ntf    on530880   3.056   2.505   5.743  0.2487 -1.1938  0.2492
 5839ntf    on530881   3.486   2.630   5.628 -0.7979 -0.6338  0.8830
 5839ntf    on530882   3.383   2.854   5.624 -0.2489  0.1334 -0.3731
 5839ntf    fn430883   3.433   2.700   5.360  0.2757  0.3286  0.4196
 5839ntf    fn430884   3.254   2.596   5.393 -0.3336  0.0508 -0.0147
 5839ntf    fn430885   3.248   2.798   5.386  0.1183  0.3036 -0.0793
 5840ntf    cn130886   2.797   7.259   3.796 -0.3686  0.0155 -0.6608
 5840ntf    sn230887   2.951   7.347   3.757 -0.1521 -0.1106 -0.0859
 5840ntf    nn330888   2.949   7.481   3.839  0.2254 -0.0596 -0.1563
 5840ntf    sn230889   2.893   7.624   3.804  0.0407 -0.0569  0.1436
 5840ntf    cn130890   2.827   7.672   3.966  0.0524 -0.1346  0.1718
 5840ntf    fn430891   2.774   7.257   3.926 -0.5631 -0.0237 -0.6961
 5840ntf    fn430892   2.697   7.326   3.740 -0.1564  0.5841 -0.3767
 5840ntf    fn430893   2.801   7.133   3.757  0.1346 -0.1990  0.0653
 5840ntf    on530894   3.046   7.256   3.815 -0.0110  0.2111  0.1941
 5840ntf    on530895   2.954   7.357   3.613 -0.6754  0.4541 -0.0614
 5840ntf    on530896   2.782   7.620   3.712  0.2742  0.1074 -0.1466
 5840ntf    on530897   2.996   7.724   3.785 -0.0560 -0.0082 -0.1184
 5840ntf    fn430898   2.774   7.794   3.965  0.0824 -0.1232 -0.0156
 5840ntf    fn430899   2.735   7.586   4.005  0.3814 -0.5282  0.0822
 5840ntf    fn430900   2.930   7.675   4.050 -0.1357  0.3987  0.3888
 5841ntf    cn130901   4.157   6.032   6.560 -0.1951  0.1018 -0.0135
 5841ntf    sn230902   4.124   5.858   6.518  0.2133  0.0023  0.0664
 5841ntf    nn330903   4.083   5.807   6.660  0.3821  0.0334  0.1263
 5841ntf    sn230904   3.938   5.793   6.720  0.2269  0.1869 -0.2073
 5841ntf    cn130905   3.868   5.635   6.664  0.1406  0.1313  0.0528
 5841ntf    fn430906   4.213   6.114   6.473 -0.2576  0.2822  0.1164
 5841ntf    fn430907   4.049   6.099   6.595 -0.4400 -0.3779  0.1643
 5841ntf    fn430908   4.236   6.028   6.667 -0.0681  0.2728 -0.1005
 5841ntf    on530909   4.023   5.854   6.415 -0.1598  0.7955  0.3934
 5841ntf    on530910   4.253   5.812   6.473  0.1313 -0.1404 -0.0257
 5841ntf    on530911   3.844   5.894   6.680  0.2018  0.2499  0.0066
 5841ntf    on530912   3.951   5.779   6.863 -0.0324 -0.0664 -0.2086
 5841ntf    fn430913   3.741   5.616   6.696  0.1247  0.1599  0.0071
 5841ntf    fn430914   3.874   5.631   6.532  0.2060  0.1487  0.0554
 5841ntf    fn430915   3.944   5.537   6.711 -0.3100 -0.3499 -0.2140
 5842ntf    cn130916   3.598   4.183   5.721  0.2965  0.0868  0.3666
 5842ntf    sn230917   3.500   4.210   5.872 -0.1083  0.0026  0.1212
 5842ntf    nn330918   3.598   4.264   5.983 -0.5705 -0.3205  0.6919
 5842ntf    sn230919   3.698   4.192   6.080  0.0312 -0.3108  0.0851
 5842ntf    cn130920   3.587   4.156   6.220  0.5542 -0.1138  0.5557
 5842ntf    fn430921   3.721   4.139   5.739  0.0688 -0.6666  0.1185
 5842ntf    fn430922   3.529   4.091   5.656  0.5256  0.1526  0.0278
 5842ntf    fn430923   3.592   4.287   5.640  0.0735 -0.1542  0.0723
 5842ntf    on530924   3.407   4.313   5.833  0.2601  0.2602 -0.0815
 5842ntf    on530925   3.438   4.083   5.902  0.0822 -0.1150  0.0196
 5842ntf    on530926   3.793   4.288   6.131 -0.4640  0.4288 -0.3573
 5842ntf    on530927   3.747   4.065   6.034  0.5489 -0.1857  0.2877
 5842ntf    fn430928   3.523   4.260   6.270  0.1129 -0.0592 -0.1033
 5842ntf    fn430929   3.504   4.055   6.197  0.5972 -0.0467  0.0797
 5842ntf    fn430930   3.665   4.119   6.320  0.4709  0.2830  0.7695
 5843ntf    cn130931   4.330   2.027   3.869  0.1282 -0.0162  0.1388
 5843ntf    sn230932   4.234   1.890   3.940  0.0961  0.0119  0.1492
 5843ntf    nn330933   4.093   1.918   3.877  0.1602  0.2152  0.0958
 5843ntf    sn230934   3.954   1.931   3.949 -0.0198 -0.2106 -0.1701
 5843ntf    cn130935   3.868   2.028   3.821  0.1511  0.0837 -0.0644
 5843ntf    fn430936   4.289   2.149   3.898  0.2013  0.1117 -0.2785
 5843ntf    fn430937   4.458   2.019   3.902  0.2637  0.0854 -0.3522
 5843ntf    fn430938   4.327   2.015   3.737  0.1054  0.2091  0.1176
 5843ntf    on530939   4.313   1.777   3.897 -0.0099 -0.1248  0.3130
 5843ntf    on530940   4.250   1.920   4.080  0.0813 -0.2867  0.2145
 5843ntf    on530941   3.957   2.014   4.067 -0.3454  0.2019 -0.4517
 5843ntf    on530942   3.876   1.810   3.949  0.0452 -0.2536  0.3206
 5843ntf    fn430943   3.740   2.047   3.848  0.2610  0.4048  0.2429
 5843ntf    fn430944   3.934   2.141   3.799  0.1167  0.1766  0.2973
 5843ntf    fn430945   3.874   1.961   3.707 -0.4665  0.2483 -0.1952
 5844ntf    cn130946   3.387   5.490   0.809  0.4776 -0.1292 -0.4318
 5844ntf    sn230947   3.562   5.453   0.835  0.3459 -0.3552  0.1396
 5844ntf    nn330948   3.592   5.565   0.941  0.3264 -0.1362 -0.0868
 5844ntf    sn230949   3.554   5.557   1.093 -0.0318 -0.1419 -0.1744
 5844ntf    cn130950   3.721   5.563   1.164  0.1146 -0.0708 -0.5201
 5844ntf    fn430951   3.356   5.611   0.764  0.3491  0.0637  0.1681
 5844ntf    fn430952   3.334   5.403   0.725 -0.5295 -0.1802  0.2421
 5844ntf    fn430953   3.323   5.475   0.924  0.1409  0.4343 -0.5386
 5844ntf    on530954   3.570   5.314   0.872  0.1594 -0.5027 -0.3641
 5844ntf    on530955   3.631   5.490   0.714 -0.0834 -0.0299 -0.0054
 5844ntf    on530956   3.492   5.438   1.145  0.4102 -0.1737  0.2841
 5844ntf    on530957   3.489   5.675   1.143 -0.5353 -0.3977 -0.2169
 5844ntf    fn430958   3.793   5.461   1.120  0.2141 -0.1426 -0.1941
 5844ntf    fn430959   3.785   5.677   1.143 -0.4095  0.3084 -0.0914
 5844ntf    fn430960   3.715   5.558   1.297 -0.1891 -0.3230 -0.5417
 5845ntf    cn130961   1.962   5.365   1.191 -0.1516 -0.0671 -0.0988
 5845ntf    sn230962   1.923   5.518   1.281  0.1678  0.1829 -0.3836
 5845ntf    nn330963   1.884   5.458   1.420  0.0137 -0.0103 -0.5086
 5845ntf    sn230964   1.753   5.388   1.473  0.0616  0.1434 -0.1831
 5845ntf    cn130965   1.817   5.220   1.499 -0.0513  0.0942 -0.2276
 5845ntf    fn430966   1.996   5.385   1.064  0.5531 -0.1206  0.0741
 5845ntf    fn430967   2.059   5.295   1.249 -0.2156 -0.2603 -0.2215
 5845ntf    fn430968   1.857   5.284   1.193  0.0025 -0.2674  0.0099
 5845ntf    on530969   2.047   5.592   1.282 -0.0279  0.5092 -0.1065
 5845ntf    on530970   1.809   5.569   1.209  0.2956  0.5121 -0.3531
 5845ntf    on530971   1.642   5.377   1.382  0.1278 -0.0683 -0.2383
 5845ntf    on530972   1.727   5.433   1.608 -0.5299  0.0608 -0.2690
 5845ntf    fn430973   1.744   5.150   1.585  0.1230  0.2773  0.0691
 5845ntf    fn430974   1.838   5.151   1.387  0.7312 -0.1689  0.0788
 5845ntf    fn430975   1.935   5.237   1.557 -0.2527 -0.0464  0.2257
 5846ntf    cn130976   3.193   6.741   0.296 -0.0152 -0.4010  0.0481
 5846ntf    sn230977   3.183   6.704   0.474  0.1215 -0.1740  0.1044
 5846ntf    nn330978   3.317   6.627   0.500  0.2754 -0.2223 -0.8138
 5846ntf    sn230979   3.452   6.688   0.552 -0.0927 -0.1538  0.0612
 5846ntf    cn130980   3.564   6.558   0.492 -0.4650 -0.3832 -0.1374
 5846ntf    fn430981   3.189   6.634   0.219  0.4329 -0.5369  0.2110
 5846ntf    fn430982   3.086   6.812   0.265  0.3759  0.0125 -0.3638
 5846ntf    fn430983   3.294   6.816   0.256 -0.2041  0.1674  0.6127
 5846ntf    on530984   3.167   6.839   0.521 -0.4887 -0.0426 -0.4566
 5846ntf    on530985   3.069   6.617   0.493 -0.0596 -0.0294 -0.3124
 5846ntf    on530986   3.472   6.673   0.694  0.1695 -0.3026  0.0096
 5846ntf    on530987   3.495   6.810   0.487  0.0275 -0.2521 -0.0440
 5846ntf    fn430988   3.595   6.567   0.363  0.0826 -0.2046  0.0043
 5846ntf    fn430989   3.684   6.560   0.547 -0.5236 -0.0646 -0.0177
 5846ntf    fn430990   3.522   6.435   0.516 -0.5029 -0.3778 -0.1787
 5847ntf    cn130991   0.968   1.755   5.261 -0.0202  0.0164 -0.0877
 5847ntf    sn230992   1.093   1.837   5.364 -0.0849 -0.0080  0.0111
 5847ntf    nn330993   0.996   1.906   5.467  0.5390  0.4144  0.3210
 5847ntf    sn230994   0.969   1.867   5.616 -0.2056 -0.1964  0.0337
 5847ntf    cn130995   1.107   1.945   5.706 -0.2257  0.0452 -0.1445
 5847ntf    fn430996   0.893   1.843   5.197 -0.5269 -0.3279  0.0274
 5847ntf    fn430997   1.020   1.685   5.161 -0.4282  0.4393 -0.6034
 5847ntf    fn430998   0.884   1.681   5.331 -0.1306  0.1032 -0.1275
 5847ntf    on530999   1.177   1.733   5.417  0.2069  0.2929  0.1434
 5847ntf    on531000   1.155   1.935   5.278  0.0152  0.0797  0.1821
 5847ntf    on531001   0.988   1.730   5.658  0.4237  0.1051  0.7743
 5847ntf    on531002   0.854   1.930   5.675 -0.1363 -0.0247 -0.0139
 5847ntf    fn431003   1.111   2.074   5.679  0.1422  0.0094 -0.2663
 5847ntf    fn431004   1.110   1.928   5.837  0.3760 -0.2881 -0.1986
 5847ntf    fn431005   1.224   1.905   5.660  0.0531  0.4440  0.2119
 5848ntf    cn131006   0.222   3.374   5.653  0.0732 -0.2049  0.2000
 5848ntf    sn231007   0.365   3.487   5.649 -0.0435 -0.0596  0.1510
 5848ntf    nn331008   0.420   3.458   5.793  0.1605  0.3669  0.1602
 5848ntf    sn231009   0.512   3.341   5.842 -0.3265 -0.1439 -0.1288
 5848ntf    cn131010   0.677   3.413   5.814 -0.3912  0.2018  0.3600
 5848ntf    fn431011   0.144   3.391   5.548  0.2140  0.2548  0.1677
 5848ntf    fn431012   0.262   3.248   5.648  0.4450 -0.0769 -0.1051
 5848ntf    fn431013   0.153   3.399   5.763  0.1442  0.0933  0.1786
 5848ntf    on531014   0.450   3.441   5.542 -0.1588  0.1545 -0.0347
 5848ntf    on531015   0.300   3.615   5.633 -0.0505 -0.1216 -0.3228
 5848ntf    on531016   0.508   3.228   5.753  0.4940  0.0911 -0.4756
 5848ntf    on531017   0.518   3.318   5.984  0.1884  0.1734 -0.0968
 5848ntf    fn431018   0.702   3.422   5.684 -0.1962  0.2078  0.3972
 5848ntf    fn431019   0.698   3.536   5.858  0.2319  0.2615 -0.0958
 5848ntf    fn431020   0.778   3.344   5.863  0.1665  0.7261 -0.0367
 5849ntf    cn131021   1.928   1.953   2.494 -0.2286  0.3451  0.0054
 5849ntf    sn231022   1.870   2.120   2.537 -0.2198  0.3100  0.1553
 5849ntf    nn331023   1.782   2.090   2.663 -0.4791 -0.2136 -0.1504
 5849ntf    sn231024   1.812   2.125   2.813 -0.0308  0.2163 -0.3378
 5849ntf    cn131025   1.707   2.273   2.820 -0.1745  0.1016 -0.0465
 5849ntf    fn431026   2.011   1.947   2.392  0.0199  0.4324  0.2028
 5849ntf    fn431027   1.981   1.896   2.601  0.1062  0.5634 -0.0454
 5849ntf    fn431028   1.819   1.884   2.462  0.1712 -0.2301 -0.1227
 5849ntf    on531029   2.000   2.183   2.548 -0.0577 -0.0283  0.1942
 5849ntf    on531030   1.793   2.159   2.422 -0.0171 -0.3824 -0.2212
 5849ntf    on531031   1.945   2.177   2.828  0.0803 -0.2925  0.4825
 5849ntf    on531032   1.755   2.032   2.907  0.1696 -0.2509 -0.6755
 5849ntf    fn431033   1.726   2.349   2.714  0.1957  0.1767  0.0705
 5849ntf    fn431034   1.577   2.251   2.812 -0.0976 -0.1271 -0.6710
 5849ntf    fn431035   1.736   2.342   2.930 -0.1511 -0.3501  0.2326
 5850ntf    cn131036   0.049   3.266   0.191 -0.3302 -0.0495 -0.3783
 5850ntf    sn231037   0.017   3.088   0.177  0.1432 -0.1918  0.3175
 5850ntf    nn331038  -0.072   3.085   0.048  0.2489  0.1501  0.2366
 5850ntf    sn231039  -0.031   3.070  -0.103 -0.1216  0.0487  0.1445
 5850ntf    cn131040  -0.153   2.947  -0.157 -0.3185  0.1873  0.2721
 5850ntf    fn431041   0.095   3.298   0.311  0.0594 -0.7094 -0.3469
 5850ntf    fn431042   0.131   3.310   0.097  0.2754 -0.0964  0.1210
 5850ntf    fn431043  -0.064   3.335   0.183 -0.6207 -0.4662  0.0583
 5850ntf    on531044   0.144   3.021   0.163  0.1375 -0.1768  0.1948
 5850ntf    on531045  -0.064   3.065   0.294 -0.1642  0.5210  0.2475
 5850ntf    on531046   0.097   3.011  -0.132 -0.1038 -0.0741  0.4670
 5850ntf    on531047  -0.067   3.186  -0.182  0.1709 -0.2162 -0.3808
 5850ntf    fn431048  -0.141   2.832  -0.093  0.0866  0.0844  0.0175
 5850ntf    fn431049  -0.280   2.985  -0.153 -0.2078  0.5473  0.4662
 5850ntf    fn431050  -0.133   2.911  -0.283 -0.3158  0.1129  0.2938
 5851ntf    cn131051   0.694   6.041   4.333  0.2832  0.2127  0.0641
 5851ntf    sn231052   0.803   6.175   4.276  0.1158  0.3095 -0.0296
 5851ntf    nn331053   0.708   6.263   4.187  0.0017  0.1525 -0.0630
 5851ntf    sn231054   0.736   6.365   4.071  0.0357  0.4482  0.2045
 5851ntf    cn131055   0.640   6.505   4.137 -0.5345  0.1752 -0.0441
 5851ntf    fn431056   0.578   6.084   4.379  0.0396  0.0562 -0.3978
 5851ntf    fn431057   0.672   5.954   4.236  0.0323 -0.0025  0.3119
 5851ntf    fn431058   0.759   5.973   4.426  0.0659 -0.0094  0.0540
 5851ntf    on531059   0.850   6.236   4.398  0.2640 -0.4980  0.3265
 5851ntf    on531060   0.901   6.106   4.196 -0.1531  0.0125 -0.1020
 5851ntf    on531061   0.672   6.329   3.947  0.8209 -1.1796  0.2424
 5851ntf    on531062   0.870   6.418   4.072  0.3125 -0.2397  0.2441
 5851ntf    fn431063   0.649   6.611   4.059 -0.4241  0.1507 -0.0655
 5851ntf    fn431064   0.512   6.470   4.138 -0.3897 -0.4265 -0.7437
 5851ntf    fn431065   0.669   6.541   4.260  0.8175 -0.2496 -0.2230
 5852ntf    cn131066   4.157   5.573   0.045 -0.1909 -0.2589  0.2066
 5852ntf    sn231067   4.076   5.628   0.198 -0.4477 -0.1755  0.0412
 5852ntf    nn331068   4.171   5.751   0.222 -0.9707  0.2033  0.1827
 5852ntf    sn231069   4.277   5.777   0.335 -0.1535 -0.0605 -0.5129
 5852ntf    cn131070   4.431   5.714   0.263  0.1765  0.3401 -0.1608
 5852ntf    fn431071   4.285   5.548   0.065  0.0890  0.5857 -0.5153
 5852ntf    fn431072   4.100   5.465  -0.006  0.1830 -0.4413  0.1705
 5852ntf    fn431073   4.158   5.671  -0.043  0.5156 -0.3760  0.0776
 5852ntf    on531074   3.941   5.662   0.160 -0.3651  0.1202  0.0091
 5852ntf    on531075   4.088   5.509   0.278  0.3216  0.1640  0.4395
 5852ntf    on531076   4.260   5.699   0.455 -0.0731  0.2841 -0.2786
 5852ntf    on531077   4.298   5.917   0.363 -0.2842 -0.1189 -0.1122
 5852ntf    fn431078   4.536   5.729   0.342  0.2696 -0.1596 -0.1909
 5852ntf    fn431079   4.430   5.585   0.237  0.2120  0.3655 -0.2915
 5852ntf    fn431080   4.459   5.779   0.151  1.1881  0.2961  0.0551
 5853ntf    cn131081   7.209   3.394   3.895 -0.1421 -0.2865 -0.0057
 5853ntf    sn231082   7.165   3.218   3.912  0.1515 -0.3531  0.0723
 5853ntf    nn331083   7.281   3.162   4.001  0.2169 -0.0205  0.1998
 5853ntf    sn231084   7.283   3.041   4.101  0.1575 -0.2544 -0.0813
 5853ntf    cn131085   7.392   2.925   4.014 -0.1148 -0.4998 -0.0994
 5853ntf    fn431086   7.219   3.463   4.007  0.3135  0.0198 -0.2332
 5853ntf    fn431087   7.321   3.411   3.827 -0.3178  0.1815 -0.1862
 5853ntf    fn431088   7.117   3.463   3.829 -0.0152 -0.2544 -0.1495
 5853ntf    on531089   7.037   3.219   3.979  0.1549  0.2743  0.0816
 5853ntf    on531090   7.170   3.165   3.778  0.1619 -0.3633  0.0768
 5853ntf    on531091   7.159   2.970   4.126 -0.1178  0.2562  0.0099
 5853ntf    on531092   7.354   3.069   4.223  0.5221 -0.2432 -0.2938
 5853ntf    fn431093   7.510   2.980   3.991 -0.3136 -0.2848 -0.6320
 5853ntf    fn431094   7.421   2.809   4.071 -0.5913 -0.4710  0.1990
 5853ntf    fn431095   7.342   2.895   3.895  0.2642  0.1769 -0.4367
 5854ntf    cn131096   6.117   6.658   6.714 -0.3972  0.0218 -0.0052
 5854ntf    sn231097   6.121   6.772   6.855  0.0553 -0.1151  0.0953
 5854ntf    nn331098   6.003   6.869   6.817 -0.0296 -0.3270 -0.1846
 5854ntf    sn231099   5.852   6.875   6.859  0.0188 -0.1779 -0.0310
 5854ntf    cn131100   5.777   6.942   6.708 -0.0432 -0.0334  0.0636
 5854ntf    fn431101   6.017   6.576   6.739  0.1929 -0.7744 -0.2298
 5854ntf    fn431102   6.117   6.709   6.591 -0.0962  0.4519  0.1682
 5854ntf    fn431103   6.225   6.582   6.720 -0.2463  0.2584  0.3597
 5854ntf    on531104   6.095   6.684   6.966  0.3854 -0.2519  0.0640
 5854ntf    on531105   6.245   6.846   6.851 -0.0940  0.1349  0.0748
 5854ntf    on531106   5.819   6.974   6.959 -0.3314 -0.1376 -0.1865
 5854ntf    on531107   5.775   6.754   6.868  0.1543 -0.2797 -0.2202
 5854ntf    fn431108   5.786   6.857   6.607 -0.2401 -0.0506  0.0607
 5854ntf    fn431109   5.648   6.965   6.728  0.0570  0.0029  0.6768
 5854ntf    fn431110   5.834   7.051   6.658 -0.1901 -0.0149 -0.0624
 5855ntf    cn131111   6.742   1.410   3.893 -0.0636 -0.2180 -0.1618
 5855ntf    sn231112   6.619   1.276   3.892  0.1213 -0.3888  0.0030
 5855ntf    nn331113   6.608   1.248   4.046 -0.0519  0.3897  0.1342
 5855ntf    sn231114   6.481   1.222   4.134  0.0787 -0.0869  0.1823
 5855ntf    cn131115   6.458   1.387   4.206  0.1493 -0.0168  0.0436
 5855ntf    fn431116   6.855   1.372   3.949 -0.2939 -0.7385 -0.0453
 5855ntf    fn431117   6.772   1.450   3.770 -0.3060  0.2126 -0.0835
 5855ntf    fn431118   6.696   1.517   3.956 -0.0222 -0.2192 -0.1299
 5855ntf    on531119   6.507   1.345   3.834  0.1039 -0.3776  0.0506
 5855ntf    on531120   6.690   1.176   3.814  0.4316 -0.4331  0.3398
 5855ntf    on531121   6.507   1.143   4.252 -0.0831 -0.1046  0.2066
 5855ntf    on531122   6.362   1.194   4.057  0.4993 -0.7378 -0.2402
 5855ntf    fn431123   6.453   1.475   4.107 -0.0579  0.0082  0.0760
 5855ntf    fn431124   6.343   1.405   4.270 -0.1677 -0.1413 -0.4831
 5855ntf    fn431125   6.560   1.426   4.280  0.5243 -0.2912 -0.3250
 5856ntf    cn131126   7.390   0.798   4.116  0.5295 -0.1400 -0.4242
 5856ntf    sn231127   7.448   0.951   4.036 -0.0950  0.1918 -0.2441
 5856ntf    nn331128   7.599   0.962   4.078 -0.2072  0.4527  0.0949
 5856ntf    sn231129   7.666   1.027   4.205 -0.0594  0.6940 -0.1072
 5856ntf    cn131130   7.727   1.184   4.135  0.2047  0.4730 -0.3730
 5856ntf    fn431131   7.394   0.687   4.045 -0.4676 -0.4982  0.0661
 5856ntf    fn431132   7.462   0.758   4.220  0.1387 -0.0435 -0.1146
 5856ntf    fn431133   7.268   0.802   4.166  0.4910  0.0997 -0.5348
 5856ntf    on531134   7.435   0.924   3.895  0.0189  0.3591 -0.2876
 5856ntf    on531135   7.359   1.055   4.082  0.1016 -0.0800  0.7815
 5856ntf    on531136   7.785   0.958   4.247 -0.3103  0.4046  0.1334
 5856ntf    on531137   7.571   1.060   4.308 -0.6869  0.1763 -0.5097
 5856ntf    fn431138   7.822   1.170   4.044  0.3411  0.3655 -0.2137
 5856ntf    fn431139   7.630   1.252   4.075 -0.1763 -0.3556 -0.7175
 5856ntf    fn431140   7.776   1.259   4.232 -0.2599 -0.7699  0.8655
 5857ntf    cn131141   0.035   2.773   3.620  0.2716  0.0849  0.2446
 5857ntf    sn231142   0.072   2.662   3.481 -0.5687  0.0309  0.0597
 5857ntf    nn331143   0.162   2.556   3.553  0.0516  0.3695 -0.2083
 5857ntf    sn231144   0.316   2.530   3.539  0.0866  0.3440  0.2128
 5857ntf    cn131145   0.377   2.641   3.670  0.0592  0.3644  0.2084
 5857ntf    fn431146   0.144   2.833   3.664  0.2599  0.4399 -0.2004
 5857ntf    fn431147  -0.046   2.873   3.589  0.0605 -0.1643 -0.0119
 5857ntf    fn431148  -0.017   2.710   3.724 -0.0806 -0.4456 -0.2438
 5857ntf    on531149  -0.058   2.608   3.446 -0.3529 -0.1296 -0.5024
 5857ntf    on531150   0.131   2.758   3.391 -0.2640  0.0541  0.2821
 5857ntf    on531151   0.375   2.570   3.414  0.0441  1.0012  0.4027
 5857ntf    on531152   0.363   2.404   3.592 -0.4475  0.2693  0.5228
 5857ntf    fn431153   0.357   2.768   3.637 -0.1909  0.2224 -0.2022
 5857ntf    fn431154   0.318   2.610   3.784 -0.1229 -0.1450 -0.0218
 5857ntf    fn431155   0.506   2.617   3.684  0.0182  0.1338  0.2029
 5858ntf    cn131156   6.080   3.666   2.424  0.1618  0.1024  0.0896
 5858ntf    sn231157   6.175   3.514   2.457 -0.0119  0.0656  0.4160
 5858ntf    nn331158   6.053   3.418   2.432 -0.1057  0.2655  0.1112
 5858ntf    sn231159   5.951   3.343   2.525  0.2221  0.0591  0.3035
 5858ntf    cn131160   6.045   3.190   2.547  0.0081 -0.1158  0.0075
 5858ntf    fn431161   5.987   3.691   2.514 -0.0011 -0.0799 -0.0282
 5858ntf    fn431162   6.158   3.771   2.401  0.0140  0.1590 -0.1607
 5858ntf    fn431163   6.009   3.660   2.312 -0.5068  0.4692  0.4894
 5858ntf    on531164   6.274   3.514   2.353  0.0921 -0.3311  0.5136
 5858ntf    on531165   6.215   3.526   2.595  0.2130  0.0250  0.3533
 5858ntf    on531166   5.835   3.295   2.455 -0.1119  0.8795  0.2786
 5858ntf    on531167   5.932   3.406   2.653 -0.2378  0.1532  0.1918
 5858ntf    fn431168   6.069   3.139   2.427  0.0364  0.3184 -0.1735
 5858ntf    fn431169   6.161   3.206   2.609 -0.1674  0.0429  0.2934
 5858ntf    fn431170   5.973   3.106   2.619 -0.1572 -0.0563 -0.0890
 5859ntf    cn131171   3.482   6.518   6.148 -0.1143 -0.5564 -0.1256
 5859ntf    sn231172   3.326   6.610   6.133  0.1081 -0.1553 -0.0136
 5859ntf    nn331173   3.389   6.741   6.075  0.1596 -0.3511 -0.4014
 5859ntf    sn231174   3.361   6.893   6.100  0.4515 -0.3193 -0.2634
 5859ntf    cn131175   3.511   6.926   6.198  0.0808 -0.0432  0.2152
 5859ntf    fn431176   3.478   6.415   6.231  0.0690 -0.2883  0.2232
 5859ntf    fn431177   3.508   6.464   6.031 -0.3344  0.2382 -0.5503
 5859ntf    fn431178   3.593   6.582   6.184 -0.5413  0.4819 -0.6268
 5859ntf    on531179   3.254   6.530   6.037 -0.4363 -0.2753  0.4845
 5859ntf    on531180   3.274   6.616   6.268 -0.4915  0.4032 -0.2656
 5859ntf    on531181   3.245   6.924   6.180  0.1286  0.0498 -0.8639
 5859ntf    on531182   3.375   6.976   5.983 -0.2892 -0.1477 -0.2350
 5859ntf    fn431183   3.521   6.846   6.302  0.3268  0.0957  0.2991
 5859ntf    fn431184   3.618   6.911   6.122  0.1196  0.0215  0.2572
 5859ntf    fn431185   3.516   7.054   6.233  0.1446  0.0771 -0.2246
 5860ntf    cn131186   5.279   4.853   3.891  0.0437 -0.0875 -0.0680
 5860ntf    sn231187   5.301   5.014   3.810  0.1165 -0.0810 -0.0358
 5860ntf    nn331188   5.170   5.090   3.851 -0.0899 -0.4211 -0.0668
 5860ntf    sn231189   5.125   5.233   3.805  0.3464 -0.2352  0.0865
 5860ntf    cn131190   4.952   5.195   3.767  0.2389 -0.2291  0.5677
 5860ntf    fn431191   5.360   4.764   3.838  0.0826 -0.1750  0.1386
 5860ntf    fn431192   5.299   4.854   4.022  0.2862  0.3949 -0.1083
 5860ntf    fn431193   5.153   4.813   3.879  0.0425 -0.1317  0.0861
 5860ntf    on531194   5.414   5.076   3.875  0.0398 -0.1537  0.1656
 5860ntf    on531195   5.318   4.977   3.672  0.0319  0.4469 -0.1917
 5860ntf    on531196   5.179   5.284   3.681  0.2427 -0.0543  0.1148
 5860ntf    on531197   5.109   5.322   3.917  0.4885  0.5851 -0.5304
 5860ntf    fn431198   4.872   5.300   3.758  0.1839 -0.2894  0.3327
 5860ntf    fn431199   4.942   5.144   3.645  0.1443  0.6680  0.1976
 5860ntf    fn431200   4.898   5.112   3.855 -0.1329 -0.7271 -0.1172
 5861ntf    cn131201   1.050   2.352   6.242  0.2288  0.1612  0.1958
 5861ntf    sn231202   1.177   2.482   6.228  0.2564  0.1279  0.1349
 5861ntf    nn331203   1.177   2.478   6.071  0.3686 -0.1845  0.1422
 5861ntf    sn231204   1.293   2.493   5.966  0.0742  0.1148 -0.1464
 5861ntf    cn131205   1.227   2.369   5.851 -0.5178 -0.2266  0.5480
 5861ntf    fn431206   0.933   2.395   6.200  0.1633 -0.0068  0.2075
 5861ntf    fn431207   1.084   2.247   6.170 -0.1552  0.2828 -0.1669
 5861ntf    fn431208   1.042   2.308   6.367 -0.3800  0.0341  0.1114
 5861ntf    on531209   1.112   2.604   6.270  0.0770  0.0049  0.2178
 5861ntf    on531210   1.294   2.435   6.298  0.0033 -0.2911  0.2813
 5861ntf    on531211   1.417   2.433   6.008 -0.1002 -0.0779  0.0960
 5861ntf    on531212   1.296   2.619   5.897  0.6002  0.0013 -0.3353
 5861ntf    fn431213   1.186   2.249   5.886 -0.1947 -0.4185  0.2797
 5861ntf    fn431214   1.114   2.412   5.798 -0.3935 -0.1087  0.3757
 5861ntf    fn431215   1.315   2.356   5.753 -0.2346  0.2644  0.7354
 5862ntf    cn131216   1.174   4.509   1.659  0.5239 -0.3223 -0.2276
 5862ntf    sn231217   1.132   4.402   1.518  0.1457 -0.3183 -0.1177
 5862ntf    nn331218   0.989   4.462   1.492  0.0784 -0.1727  0.5853
 5862ntf    sn231219   0.892   4.425   1.375  0.3787  0.2650  0.1953
 5862ntf    cn131220   0.927   4.561   1.259 -0.2807  0.1757 -0.1154
 5862ntf    fn431221   1.136   4.634   1.644  0.2931 -0.4061 -0.3496
 5862ntf    fn431222   1.111   4.467   1.767 -0.7554 -0.0057 -0.8379
 5862ntf    fn431223   1.304   4.511   1.686  0.4304  0.3853  0.1887
 5862ntf    on531224   1.229   4.424   1.414  0.2097 -0.1406 -0.0197
 5862ntf    on531225   1.126   4.270   1.575  0.1512 -0.3934 -0.2901
 5862ntf    on531226   0.752   4.456   1.393  0.3220  0.5082 -0.6101
 5862ntf    on531227   0.919   4.309   1.293 -0.4743  0.1108  0.1203
 5862ntf    fn431228   0.856   4.557   1.147  0.2581  0.1959 -0.4581
 5862ntf    fn431229   0.911   4.680   1.315 -0.5221  0.1073 -0.0362
 5862ntf    fn431230   1.049   4.571   1.210 -0.2780 -0.1637 -0.1789
 5863ntf    cn131231   5.638   6.138   2.422 -0.1380  0.1795 -0.0346
 5863ntf    sn231232   5.783   6.043   2.365 -0.2655 -0.0048 -0.0507
 5863ntf    nn331233   5.798   6.110   2.224  0.0175  0.0979  0.0273
 5863ntf    sn231234   5.901   6.203   2.151  0.2523 -0.1682  0.0145
 5863ntf    cn131235   5.813   6.362   2.150  0.0521 -0.2767  0.3191
 5863ntf    fn431236   5.606   6.115   2.548  0.8935 -0.2995  0.1465
 5863ntf    fn431237   5.659   6.267   2.401  0.1573  0.1215 -0.1104
 5863ntf    fn431238   5.528   6.104   2.357  0.1041  0.0089 -0.3621
 5863ntf    on531239   5.892   6.071   2.455 -0.2684 -0.0735 -0.0255
 5863ntf    on531240   5.728   5.910   2.358  0.2594 -0.1887 -0.7949
 5863ntf    on531241   5.904   6.171   2.011 -0.3209 -0.3602  0.0437
 5863ntf    on531242   6.031   6.224   2.211  0.1603 -0.1447  0.2076
 5863ntf    fn431243   5.864   6.452   2.067 -0.0857 -0.2448  0.2680
 5863ntf    fn431244   5.684   6.344   2.126  0.0572  0.3109 -0.1547
 5863ntf    fn431245   5.820   6.429   2.264 -0.2621  0.4680 -0.0879
 5864ntf    cn131246   0.201   3.251   2.770 -0.1084  0.2651  0.1718
 5864ntf    sn231247   0.241   3.350   2.917  0.3037  0.1877  0.1126
 5864ntf    nn331248   0.115   3.442   2.934  0.1641  0.1556 -0.7017
 5864ntf    sn231249  -0.018   3.413   3.012  0.3961  0.3109 -0.2454
 5864ntf    cn131250  -0.130   3.524   2.921  0.2188 -0.0949 -0.5258
 5864ntf    fn431251   0.185   3.330   2.666  0.4366 -0.1345 -0.2198
 5864ntf    fn431252   0.289   3.154   2.747 -0.2629  0.0743  0.3755
 5864ntf    fn431253   0.079   3.201   2.784  0.0532 -0.0467  0.4789
 5864ntf    on531254   0.266   3.258   3.025 -0.2824  0.3037  0.3484
 5864ntf    on531255   0.358   3.424   2.876  0.5737 -0.3122 -0.0212
 5864ntf    on531256  -0.018   3.455   3.150 -0.5965 -0.5242  0.0227
 5864ntf    on531257  -0.067   3.282   2.977 -0.4593  0.7310 -0.6672
 5864ntf    fn431258  -0.134   3.491   2.793 -0.0480 -0.3621 -0.4515
 5864ntf    fn431259  -0.254   3.507   2.965  0.4322 -0.2109  0.0446
 5864ntf    fn431260  -0.103   3.652   2.932 -0.7883  0.0644  0.3251
 5865ntf    cn131261   7.411   5.058   6.732  0.3013 -0.3705  0.3191
 5865ntf    sn231262   7.541   5.080   6.857  0.1609 -0.0449  0.4084
 5865ntf    nn331263   7.657   5.149   6.776 -0.3018  0.0549 -0.1773
 5865ntf    sn231264   7.669   5.305   6.765  0.2936  0.0079 -0.2564
 5865ntf    cn131265   7.814   5.313   6.655  0.5902 -0.1618  0.1202
 5865ntf    fn431266   7.390   5.168   6.661  0.0465 -0.4186  0.3196
 5865ntf    fn431267   7.440   4.967   6.640 -0.5925 -0.1224 -0.2260
 5865ntf    fn431268   7.298   5.025   6.791 -0.2881 -0.1337 -0.6505
 5865ntf    on531269   7.469   5.158   6.954 -0.0100  0.3027  0.0065
 5865ntf    on531270   7.574   4.943   6.887 -0.1367 -0.1932  0.0650
 5865ntf    on531271   7.710   5.375   6.884  0.4784 -0.6102  0.0465
 5865ntf    on531272   7.566   5.367   6.685 -0.2666 -0.5119  0.0536
 5865ntf    fn431273   7.909   5.236   6.706  0.9156  0.1713  0.0222
 5865ntf    fn431274   7.784   5.260   6.537 -0.4783  0.4010  0.1231
 5865ntf    fn431275   7.862   5.435   6.640  0.0879 -0.0437 -0.5657
 5866ntf    cn131276   6.390   3.533   3.612 -0.1067  0.4315 -0.0708
 5866ntf    sn231277   6.518   3.408   3.580 -0.0305  0.4442  0.1882
 5866ntf    nn331278   6.415   3.290   3.577  0.2148  0.2409 -0.3480
 5866ntf    sn231279   6.366   3.198   3.459 -0.3250  0.0941 -0.0150
 5866ntf    cn131280   6.210   3.137   3.529 -0.5016  0.2315 -0.2876
 5866ntf    fn431281   6.435   3.655   3.590  0.1436  0.2256 -0.7216
 5866ntf    fn431282   6.287   3.516   3.530 -0.0081 -0.0346 -0.1023
 5866ntf    fn431283   6.342   3.524   3.735 -0.1954 -0.7558 -0.1768
 5866ntf    on531284   6.568   3.445   3.450  0.6576 -0.5263  0.1654
 5866ntf    on531285   6.594   3.407   3.703 -0.1559 -0.1163  0.2655
 5866ntf    on531286   6.454   3.084   3.450 -0.2213  0.1397  0.3687
 5866ntf    on531287   6.324   3.262   3.337  0.0569  0.3708 -0.0034
 5866ntf    fn431288   6.147   3.230   3.598  0.1897  0.0375  0.6226
 5866ntf    fn431289   6.129   3.091   3.435 -0.2323  0.2241 -0.5191
 5866ntf    fn431290   6.222   3.038   3.616  0.1747  0.1379 -0.4836
 5867ntf    cn131291   1.435   1.906   4.227 -0.1653  0.0472  0.2662
 5867ntf    sn231292   1.519   1.872   4.385  0.3305  0.0662  0.0091
 5867ntf    nn331293   1.600   2.001   4.424  0.0134  0.3118 -0.1342
 5867ntf    sn231294   1.544   2.142   4.462 -0.0618  0.0869  0.6089
 5867ntf    cn131295   1.549   2.139   4.643  0.2003 -0.1195  0.5973
 5867ntf    fn431296   1.362   1.803   4.187 -0.7671  0.4744  0.2538
 5867ntf    fn431297   1.356   2.012   4.227 -0.1712  0.0427  0.0160
 5867ntf    fn431298   1.527   1.928   4.136 -0.2774  0.0981  0.1654
 5867ntf    on531299   1.404   1.859   4.471  0.2329  0.2000 -0.1005
 5867ntf    on531300   1.599   1.755   4.363  0.0540 -0.0894 -0.1833
 5867ntf    on531301   1.402   2.158   4.441 -0.1133 -0.1774  0.7650
 5867ntf    on531302   1.634   2.247   4.420  0.4446 -0.3404  0.6273
 5867ntf    fn431303   1.465   2.054   4.701  0.2263 -0.2044  0.5116
 5867ntf    fn431304   1.671   2.111   4.688  0.2008 -0.3304  0.4678
 5867ntf    fn431305   1.521   2.262   4.683  0.2695  0.1265 -0.0977
 5868ntf    cn131306   4.991   0.325   5.679  0.1913  0.3437  0.5049
 5868ntf    sn231307   5.171   0.300   5.696  0.2328  0.3370  0.0553
 5868ntf    nn331308   5.228   0.300   5.549  0.7040  0.0321  0.2380
 5868ntf    sn231309   5.272   0.178   5.461  0.1850  0.0069  0.0083
 5868ntf    cn131310   5.451   0.164   5.490  0.2001  0.1638 -0.0116
 5868ntf    fn431311   4.928   0.325   5.795  0.1532  0.6074  0.4860
 5868ntf    fn431312   4.960   0.447   5.637  0.2134  0.0865 -0.2796
 5868ntf    fn431313   4.923   0.243   5.602  0.0632  0.5591  0.3863
 5868ntf    on531314   5.215   0.418   5.766  0.5401  0.4124 -0.2604
 5868ntf    on531315   5.182   0.180   5.774  0.5697  0.0069 -0.4951
 5868ntf    on531316   5.256   0.206   5.321  0.3192  0.1872  0.0282
 5868ntf    on531317   5.216   0.050   5.499 -0.1614  0.0229 -0.4408
 5868ntf    fn431318   5.504   0.085   5.398  0.3899 -0.4550  0.6229
 5868ntf    fn431319   5.514   0.281   5.480 -0.1523  0.3496 -0.0612
 5868ntf    fn431320   5.482   0.111   5.607  0.4025  0.2562 -0.0208
 5869ntf    cn131321   0.634   1.928   2.848  0.0775 -0.1395  0.2552
 5869ntf    sn231322   0.746   1.787   2.822  0.3795  0.0829  0.3497
 5869ntf    nn331323   0.639   1.673   2.835  0.1594  0.2554  0.0785
 5869ntf    sn231324   0.648   1.524   2.885  0.0357  0.2173 -0.0116
 5869ntf    cn131325   0.665   1.540   3.065  0.6381 -0.0198 -0.0457
 5869ntf    fn431326   0.526   1.911   2.773  0.2363  0.4489 -0.1072
 5869ntf    fn431327   0.590   1.937   2.973  0.1104 -0.4898  0.2932
 5869ntf    fn431328   0.683   2.046   2.817  0.0763 -0.1512  0.2079
 5869ntf    on531329   0.799   1.815   2.690  0.6519  0.1229  0.4682
 5869ntf    on531330   0.834   1.797   2.935  0.4686  0.0739  0.2811
 5869ntf    on531331   0.775   1.470   2.844 -0.0583 -0.0866  0.1007
 5869ntf    on531332   0.530   1.445   2.860 -0.0503  0.2149  0.4047
 5869ntf    fn431333   0.789   1.536   3.112  0.6451 -0.3538 -0.0916
 5869ntf    fn431334   0.606   1.647   3.115  0.1015 -0.6177  0.6236
 5869ntf    fn431335   0.610   1.437   3.128 -0.0117  0.3897  0.0618
 5870ntf    cn131336   0.209   7.397   0.665  0.1341  0.0349 -0.1231
 5870ntf    sn231337   0.221   7.473   0.830  0.2031 -0.2100 -0.0152
 5870ntf    nn331338   0.158   7.615   0.809  0.5341 -0.1349 -0.5276
 5870ntf    sn231339   0.196   7.752   0.873 -0.0416 -0.3728  0.3373
 5870ntf    cn131340   0.121   7.724   1.036  0.1127 -0.0109  0.4733
 5870ntf    fn431341   0.272   7.464   0.571  0.1878 -0.0696 -0.1614
 5870ntf    fn431342   0.254   7.273   0.665  0.2385  0.0727  0.0624
 5870ntf    fn431343   0.082   7.388   0.628  0.2249 -0.0081 -0.4223
 5870ntf    on531344   0.136   7.385   0.905 -0.1290 -0.3313 -0.5266
 5870ntf    on531345   0.361   7.465   0.863  0.2406 -0.3231 -0.1975
 5870ntf    on531346   0.130   7.871   0.826  0.2765 -0.1974  0.3305
 5870ntf    on531347   0.338   7.768   0.897 -0.0321  0.1723 -0.0545
 5870ntf    fn431348   0.118   7.831   1.113  0.1712 -0.2012  0.7436
 5870ntf    fn431349  -0.006   7.687   1.022  0.1922 -0.1511  0.1263
 5870ntf    fn431350   0.180   7.631   1.111 -0.1219 -0.5746 -0.0306
 5871ntf    cn131351   6.641   3.125   3.102  0.0331 -0.2194 -0.3016
 5871ntf    sn231352   6.623   3.235   2.958 -0.1233  0.0444 -0.0797
 5871ntf    nn331353   6.707   3.362   2.997  0.1889 -0.0727 -0.3713
 5871ntf    sn231354   6.684   3.514   2.966  0.1254  0.0640  0.3388
 5871ntf    cn131355   6.838   3.552   2.878 -0.2912  0.0636 -0.3906
 5871ntf    fn431356   6.564   3.018   3.087  0.2118 -0.4099  0.1278
 5871ntf    fn431357   6.768   3.088   3.113  0.2270  0.5887  0.2182
 5871ntf    fn431358   6.613   3.190   3.213  0.7722 -0.1055 -0.1743
 5871ntf    on531359   6.683   3.158   2.852 -0.5311  0.0884 -0.3477
 5871ntf    on531360   6.480   3.258   2.953 -0.1442 -0.1083 -0.1896
 5871ntf    on531361   6.691   3.591   3.088  0.2424  0.1657  0.2681
 5871ntf    on531362   6.588   3.548   2.864  0.7671 -0.7207 -0.5461
 5871ntf    fn431363   6.862   3.681   2.863  0.2242  0.0921  0.6382
 5871ntf    fn431364   6.939   3.510   2.952 -0.6060 -0.0219 -0.0099
 5871ntf    fn431365   6.852   3.494   2.759  0.1193 -0.4575 -0.0916
 5872ntf    cn131366   0.361   4.576   0.679 -0.1193  0.2920  0.0531
 5872ntf    sn231367   0.373   4.582   0.498 -0.0364 -0.0384  0.0469
 5872ntf    nn331368   0.365   4.430   0.459  0.2346  0.0009 -0.1706
 5872ntf    sn231369   0.293   4.357   0.340 -0.0967  0.0846 -0.0246
 5872ntf    cn131370   0.154   4.287   0.434  0.2067 -0.2395  0.1856
 5872ntf    fn431371   0.334   4.688   0.744 -0.0534  0.3167  0.0384
 5872ntf    fn431372   0.272   4.491   0.725  0.3590 -0.0602  0.3432
 5872ntf    fn431373   0.479   4.546   0.733 -0.3729  0.0628  0.4884
 5872ntf    on531374   0.260   4.664   0.463 -0.0088 -0.0165  0.0082
 5872ntf    on531375   0.505   4.639   0.484  0.1260 -0.4866 -0.2929
 5872ntf    on531376   0.359   4.237   0.294 -0.3170 -0.4450  0.9858
 5872ntf    on531377   0.229   4.439   0.241 -0.5452 -0.1044  0.1081
 5872ntf    fn431378   0.187   4.221   0.544 -0.4877 -0.2927  0.3664
 5872ntf    fn431379   0.066   4.378   0.472 -0.1150 -0.3137 -0.3797
 5872ntf    fn431380   0.089   4.199   0.360  0.4546 -0.0454 -0.2621
 5873ntf    cn131381   1.709   1.174   5.127 -0.2008  0.0550  0.4497
 5873ntf    sn231382   1.545   1.101   5.097 -0.1099 -0.0036  0.0826
 5873ntf    nn331383   1.524   1.044   5.242 -0.0244  0.2900  0.2108
 5873ntf    sn231384   1.459   0.909   5.286  0.1258 -0.0143 -0.4913
 5873ntf    cn131385   1.597   0.827   5.372 -0.1511 -0.1565 -0.1772
 5873ntf    fn431386   1.759   1.231   5.018 -0.4088 -0.3487  0.1404
 5873ntf    fn431387   1.700   1.270   5.217  0.1198  0.4564  0.0599
 5873ntf    fn431388   1.803   1.088   5.162 -0.1187 -0.2524 -0.5018
 5873ntf    on531389   1.459   1.213   5.069  0.1510  0.0834 -0.3728
 5873ntf    on531390   1.560   0.998   4.997  0.1829  0.2204 -0.1052
 5873ntf    on531391   1.433   0.822   5.173  0.1342  0.1109 -0.5893
 5873ntf    on531392   1.352   0.924   5.382  0.1626 -0.1733 -0.4248
 5873ntf    fn431393   1.649   0.899   5.469 -0.2940 -0.0013 -0.2152
 5873ntf    fn431394   1.573   0.713   5.433 -0.4568 -0.0020 -0.0053
 5873ntf    fn431395   1.702   0.801   5.295 -0.0195 -0.4885  0.1134
 5874ntf    cn131396   4.277   4.133   4.818  0.0505  0.0668  0.2662
 5874ntf    sn231397   4.453   4.134   4.771 -0.0869  0.0126 -0.2533
 5874ntf    nn331398   4.462   4.285   4.730 -0.5287  0.1511  0.1505
 5874ntf    sn231399   4.492   4.344   4.588  0.1422 -0.3296  0.0898
 5874ntf    cn131400   4.383   4.489   4.577  0.2159 -0.2885 -0.1079
 5874ntf    fn431401   4.243   4.197   4.929  0.2002 -0.2035  0.4713
 5874ntf    fn431402   4.208   4.198   4.726  0.9415  0.1040 -0.3883
 5874ntf    fn431403   4.226   4.011   4.819  0.6472 -0.1913 -0.1763
 5874ntf    on531404   4.522   4.101   4.893 -0.1950 -0.0440 -0.2074
 5874ntf    on531405   4.454   4.037   4.664 -0.2509 -0.3439  0.0653
 5874ntf    on531406   4.447   4.268   4.474 -0.0638 -0.3573  0.1902
 5874ntf    on531407   4.624   4.401   4.580 -0.2040  0.4660 -0.0841
 5874ntf    fn431408   4.255   4.455   4.573  0.0800  0.2046  0.0376
 5874ntf    fn431409   4.398   4.581   4.671  0.1004 -0.0276 -0.3442
 5874ntf    fn431410   4.405   4.556   4.466 -0.4426 -0.1281 -0.1469
 5875ntf    cn131411   5.820   5.379   1.659  0.0488 -0.1577 -0.0707
 5875ntf    sn231412   5.803   5.228   1.559 -0.0903 -0.1647 -0.0366
 5875ntf    nn331413   5.837   5.119   1.667 -0.1279  0.0744  0.2166
 5875ntf    sn231414   5.937   5.001   1.646 -0.0235  0.1516  0.2821
 5875ntf    cn131415   6.082   5.103   1.686  0.1872  0.0120 -0.1230
 5875ntf    fn431416   5.948   5.409   1.672  0.1188 -0.2404 -0.5524
 5875ntf    fn431417   5.763   5.484   1.602  0.1140 -0.1600 -0.1402
 5875ntf    fn431418   5.760   5.369   1.776 -0.0423  0.3132 -0.0755
 5875ntf    on531419   5.663   5.220   1.525 -0.1810 -0.4149  0.3881
 5875ntf    on531420   5.883   5.241   1.439  0.0185 -0.2687  0.0245
 5875ntf    on531421   5.958   4.948   1.513 -0.1699  0.0110  0.3150
 5875ntf    on531422   5.952   4.905   1.752 -0.5275  0.0587  0.2674
 5875ntf    fn431423   6.194   5.032   1.677  0.0051 -0.2575 -0.2736
 5875ntf    fn431424   6.096   5.208   1.606 -0.1071  0.0520 -0.1234
 5875ntf    fn431425   6.070   5.144   1.811  0.1494  0.0452 -0.1376
 5876ntf    cn131426   1.281   1.524   3.709 -0.3440  0.2283  0.2792
 5876ntf    sn231427   1.371   1.546   3.866 -0.2715 -0.2530  0.3051
 5876ntf    nn331428   1.458   1.669   3.823 -0.2854 -0.4471 -0.2902
 5876ntf    sn231429   1.603   1.653   3.764 -0.0433 -0.0507  0.1865
 5876ntf    cn131430   1.704   1.672   3.914  0.3473  0.2892 -0.1171
 5876ntf    fn431431   1.350   1.537   3.597  0.1196 -0.0255  0.5327
 5876ntf    fn431432   1.214   1.411   3.697  0.5330 -0.2240 -0.4970
 5876ntf    fn431433   1.190   1.619   3.688 -0.3132  0.2233  0.1213
 5876ntf    on531434   1.265   1.584   3.956 -0.0896  0.6405  0.1482
 5876ntf    on531435   1.426   1.417   3.899  0.2669 -0.1299 -0.0919
 5876ntf    on531436   1.649   1.767   3.689  0.5017 -0.3438  0.0707
 5876ntf    on531437   1.646   1.526   3.711  0.2421  0.2738 -0.3676
 5876ntf    fn431438   1.833   1.684   3.888  0.4809 -0.6177  0.1268
 5876ntf    fn431439   1.662   1.775   3.986 -0.1686 -0.1860  0.2683
 5876ntf    fn431440   1.696   1.568   3.994 -0.3300  0.1865 -0.3066
 5877ntf    cn131441   1.864   3.325   5.865  0.0349  0.0301 -0.0863
 5877ntf    sn231442   1.847   3.491   5.936 -0.1722 -0.0618  0.0824
 5877ntf    nn331443   1.894   3.453   6.081 -0.3856 -0.2049  0.1145
 5877ntf    sn231444   2.030   3.484   6.154 -0.1852  0.2145 -0.4311
 5877ntf    cn131445   2.002   3.420   6.322  0.2580  0.3354 -0.3101
 5877ntf    fn431446   1.754   3.251   5.861  0.2553 -0.3408  0.6158
 5877ntf    fn431447   1.907   3.335   5.740 -0.0692  0.0604 -0.1201
 5877ntf    fn431448   1.961   3.251   5.916  0.1928  0.2501 -0.0719
 5877ntf    on531449   1.927   3.578   5.853 -0.3252 -0.0845 -0.0876
 5877ntf    on531450   1.707   3.524   5.936 -0.0956  0.2705  0.1160
 5877ntf    on531451   2.066   3.622   6.174  0.2943 -0.0525  0.5730
 5877ntf    on531452   2.137   3.397   6.112 -0.1223 -0.1278  0.4240
 5877ntf    fn431453   2.006   3.288   6.311 -0.1358  0.3130 -0.1953
 5877ntf    fn431454   2.083   3.451   6.422 -0.3350 -0.0424  0.2939
 5877ntf    fn431455   1.884   3.448   6.375  0.4233 -0.0163  0.2463
 5878ntf    cn131456   4.414   2.699   2.890 -0.3848  0.0330  0.4639
 5878ntf    sn231457   4.418   2.871   2.950  0.2861  0.2150 -0.0969
 5878ntf    nn331458   4.365   2.848   3.096  0.3838 -0.5481 -0.1778
 5878ntf    sn231459   4.454   2.810   3.220 -0.1720 -0.0026  0.3961
 5878ntf    cn131460   4.466   2.975   3.294 -0.0250  0.3044 -0.3039
 5878ntf    fn431461   4.466   2.619   2.981  0.8542  0.4190  0.1055
 5878ntf    fn431462   4.286   2.668   2.878 -0.2994  0.0368 -0.4959
 5878ntf    fn431463   4.475   2.683   2.774 -0.0441  0.5236  0.5725
 5878ntf    on531464   4.557   2.911   2.939  0.2919  0.4932  0.8904
 5878ntf    on531465   4.319   2.941   2.873  0.1637  0.1794  0.0284
 5878ntf    on531466   4.589   2.762   3.198 -0.3445 -0.1698 -0.3216
 5878ntf    on531467   4.371   2.742   3.316 -0.2058 -0.5850 -0.0407
 5878ntf    fn431468   4.484   3.062   3.196 -0.0987  0.6977  0.0235
 5878ntf    fn431469   4.354   3.008   3.355  0.3167  0.6277  0.1651
 5878ntf    fn431470   4.554   2.998   3.391 -0.0246  1.0420 -0.4706
 5879ntf    cn131471   0.892   4.429   5.509  0.9195  0.3123 -0.1955
 5879ntf    sn231472   0.906   4.494   5.678 -0.1576  0.3475 -0.1097
 5879ntf    nn331473   0.987   4.625   5.649 -0.0625  0.1993 -0.5173
 5879ntf    sn231474   0.987   4.760   5.728 -0.1867  0.0044 -0.1840
 5879ntf    cn131475   1.153   4.756   5.803 -0.2570 -0.1708 -0.0373
 5879ntf    fn431476   0.853   4.303   5.498 -0.4102  0.6880  0.0319
 5879ntf    fn431477   0.816   4.509   5.435 -0.0235 -0.0228  0.4021
 5879ntf    fn431478   1.011   4.437   5.451  0.8677 -0.0559 -0.3535
 5879ntf    on531479   0.769   4.511   5.720  0.0030  0.0683  0.5496
 5879ntf    on531480   0.973   4.386   5.748 -0.5928  0.0032 -0.2163
 5879ntf    on531481   0.901   4.778   5.843  0.4041  0.3967  0.2064
 5879ntf    on531482   0.990   4.867   5.632 -0.0026 -0.1188 -0.3161
 5879ntf    fn431483   1.193   4.875   5.844 -0.0699 -0.2710  0.0739
 5879ntf    fn431484   1.156   4.682   5.913  0.0893 -0.2898 -0.1258
 5879ntf    fn431485   1.240   4.702   5.720  0.1523 -0.0797  0.3320
 5880ntf    cn131486   1.717   6.281   7.401 -0.3468 -0.0590 -0.3966
 5880ntf    sn231487   1.674   6.118   7.468  0.6668 -0.1435  0.0623
 5880ntf    nn331488   1.664   6.156   7.620 -0.1281  0.4987 -0.1486
 5880ntf    sn231489   1.544   6.200   7.712 -0.0924  0.1713  0.0549
 5880ntf    cn131490   1.646   6.281   7.839 -0.0967  0.0564  0.1325
 5880ntf    fn431491   1.820   6.326   7.472  0.0341 -0.6278 -0.5885
 5880ntf    fn431492   1.753   6.292   7.274 -0.0105  0.6688 -0.2488
 5880ntf    fn431493   1.628   6.378   7.417 -0.0051  0.2605 -0.4241
 5880ntf    on531494   1.556   6.074   7.398  0.4988  0.6616 -0.1653
 5880ntf    on531495   1.792   6.039   7.441  0.6879  0.0957 -0.5496
 5880ntf    on531496   1.487   6.097   7.795 -0.0850  0.0836 -0.0495
 5880ntf    on531497   1.468   6.310   7.660 -0.3614  0.0041  0.0921
 5880ntf    fn431498   1.723   6.379   7.793  0.4683 -0.1208  0.6968
 5880ntf    fn431499   1.575   6.335   7.937 -0.2703 -0.4913  0.3085
 5880ntf    fn431500   1.724   6.193   7.900 -0.1761  0.0188  0.1796
 5881ntf    cn131501   3.186   1.455   0.023 -0.0700 -0.1030  0.2004
 5881ntf    sn231502   3.291   1.332   0.105  0.2663  0.2850  0.3528
 5881ntf    nn331503   3.330   1.404   0.239 -0.1355  0.5011  0.3568
 5881ntf    sn231504   3.274   1.394   0.385 -0.4336 -0.2892  0.1937
 5881ntf    cn131505   3.373   1.254   0.445  0.2452  0.0078 -0.2314
 5881ntf    fn431506   3.116   1.393  -0.071 -0.0129 -0.4075  0.3592
 5881ntf    fn431507   3.102   1.517   0.104 -0.1504 -0.0651  0.0888
 5881ntf    fn431508   3.261   1.544  -0.039  0.2247 -0.4594  0.0436
 5881ntf    on531509   3.208   1.216   0.127  0.5231 -0.0194 -0.2469
 5881ntf    on531510   3.397   1.312   0.009 -0.0390  0.1736  0.0377
 5881ntf    on531511   3.133   1.364   0.391 -0.4624 -0.2552 -0.2915
 5881ntf    on531512   3.321   1.504   0.466 -0.4271 -0.1841  0.0473
 5881ntf    fn431513   3.502   1.284   0.454  0.2138 -0.0432  0.3948
 5881ntf    fn431514   3.334   1.213   0.564  0.4755  0.1775 -0.0957
 5881ntf    fn431515   3.373   1.146   0.368 -0.1645 -0.3870  0.3165
 5882ntf    cn131516   4.313   3.200   2.134  0.5410 -0.3754 -0.2662
 5882ntf    sn231517   4.391   3.144   1.979  0.2012 -0.5646 -0.3704
 5882ntf    nn331518   4.275   3.192   1.885 -0.1688  0.0493  0.3856
 5882ntf    sn231519   4.171   3.097   1.816  0.2443  0.0182 -0.1984
 5882ntf    cn131520   4.171   3.173   1.651 -0.0314 -0.1445 -0.2731
 5882ntf    fn431521   4.396   3.179   2.235  0.0025 -0.4290  0.1705
 5882ntf    fn431522   4.282   3.328   2.130  0.0008 -0.4947 -0.0660
 5882ntf    fn431523   4.200   3.138   2.164  0.0723  0.6009  0.0288
 5882ntf    on531524   4.505   3.232   1.975  0.0737 -0.3695  0.1848
 5882ntf    on531525   4.422   3.005   2.003  0.3727 -0.5032 -0.2320
 5882ntf    on531526   4.038   3.105   1.870  0.4905 -0.4301  0.4840
 5882ntf    on531527   4.212   2.961   1.791  0.0732 -0.0507 -0.0998
 5882ntf    fn431528   4.101   3.101   1.564  0.0340 -0.0443 -0.4104
 5882ntf    fn431529   4.110   3.290   1.644 -0.4779 -0.3669 -0.1534
 5882ntf    fn431530   4.293   3.182   1.600 -0.1567  0.6214 -0.4488
 5883ntf    cn131531   2.156   5.892   1.367 -0.0415  0.0109 -0.0440
 5883ntf    sn231532   2.212   5.957   1.207 -0.0954  0.0465 -0.0482
 5883ntf    nn331533   2.225   6.110   1.238  0.1503 -0.0319  0.2320
 5883ntf    sn231534   2.343   6.213   1.220 -0.1035  0.2099 -0.0485
 5883ntf    cn131535   2.421   6.185   1.382 -0.1227 -0.4827 -0.1578
 5883ntf    fn431536   2.204   5.772   1.392  0.4514  0.2084 -0.0247
 5883ntf    fn431537   2.200   5.966   1.469  0.0912 -0.1129 -0.0110
 5883ntf    fn431538   2.025   5.881   1.378  0.0004  0.0671  0.5425
 5883ntf    on531539   2.339   5.895   1.177 -0.2683 -0.2642 -0.1372
 5883ntf    on531540   2.097   5.926   1.125 -0.3947 -0.0709  0.4127
 5883ntf    on531541   2.297   6.350   1.231 -0.0461  0.2037  0.2717
 5883ntf    on531542   2.441   6.180   1.120  0.0357  0.5799 -0.0366
 5883ntf    fn431543   2.537   6.248   1.393 -0.3642 -0.0582 -0.0271
 5883ntf    fn431544   2.348   6.238   1.478  0.1847  0.3096 -0.3540
 5883ntf    fn431545   2.438   6.056   1.408  0.0818 -0.3230  0.5262
 5884ntf    cn131546   2.229   3.660   0.029  0.3029 -0.2874 -0.3230
 5884ntf    sn231547   2.379   3.733   0.100  0.0024  0.2554 -0.2398
 5884ntf    nn331548   2.372   3.684   0.249 -0.1230  0.5756 -0.1383
 5884ntf    sn231549   2.488   3.648   0.349 -0.1133  0.3909 -0.2149
 5884ntf    cn131550   2.622   3.764   0.308 -0.0294  0.1557 -0.6097
 5884ntf    fn431551   2.212   3.685  -0.099 -0.3310 -0.3194 -0.2485
 5884ntf    fn431552   2.230   3.529   0.048  0.1966 -0.1713  0.5679
 5884ntf    fn431553   2.113   3.702   0.079  0.3222 -0.0508 -0.4748
 5884ntf    on531554   2.489   3.675   0.027  0.0988  0.3605 -0.1795
 5884ntf    on531555   2.348   3.872   0.080  0.0729  0.2918 -0.0979
 5884ntf    on531556   2.546   3.517   0.333  0.1199  0.5077 -0.3276
 5884ntf    on531557   2.453   3.693   0.482  0.2009  0.3396 -0.1141
 5884ntf    fn431558   2.586   3.890   0.326 -0.6946  0.0064 -0.8700
 5884ntf    fn431559   2.730   3.750   0.384 -0.6676 -0.4382  0.2092
 5884ntf    fn431560   2.672   3.762   0.186 -0.2729  0.0021 -0.7069
 5885ntf    cn131561   4.226   6.142   3.540 -0.3808  0.0676  0.3345
 5885ntf    sn231562   4.192   6.306   3.469 -0.0804 -0.0627 -0.1186
 5885ntf    nn331563   4.293   6.399   3.545  0.3532 -0.2513 -0.4647
 5885ntf    sn231564   4.435   6.453   3.504  0.2518  0.3559 -0.0196
 5885ntf    cn131565   4.471   6.543   3.658  0.0880  0.3368  0.0307
 5885ntf    fn431566   4.141   6.052   3.494 -0.1527 -0.0116  0.0671
 5885ntf    fn431567   4.348   6.093   3.525 -0.4623 -0.1235  0.2927
 5885ntf    fn431568   4.211   6.151   3.671 -0.4304 -0.3318  0.3569
 5885ntf    on531569   4.218   6.286   3.329 -0.2708  0.5198 -0.2432
 5885ntf    on531570   4.054   6.325   3.507  0.0227 -0.1347  0.2909
 5885ntf    on531571   4.419   6.565   3.414  0.1671  0.2648 -0.1179
 5885ntf    on531572   4.539   6.360   3.469 -0.5781 -0.6555  0.1541
 5885ntf    fn431573   4.513   6.461   3.753 -0.2977 -0.3661 -0.4022
 5885ntf    fn431574   4.566   6.635   3.649  0.4417  0.0306  0.6308
 5885ntf    fn431575   4.368   6.606   3.712 -0.1887  0.3770 -0.5361
 5886ntf    cn131576   5.980   2.754   0.472 -0.2088  0.0491  0.0266
 5886ntf    sn231577   5.900   2.616   0.559 -0.2578  0.1015  0.0638
 5886ntf    nn331578   5.751   2.663   0.578 -0.2548  0.1588 -0.0537
 5886ntf    sn231579   5.645   2.604   0.677 -0.1006 -0.4054 -0.2248
 5886ntf    cn131580   5.639   2.733   0.804 -0.0249 -0.3795 -0.2474
 5886ntf    fn431581   5.935   2.779   0.350 -0.1071  0.2304  0.0267
 5886ntf    fn431582   5.979   2.867   0.540  0.0130  0.1399 -0.1192
 5886ntf    fn431583   6.109   2.726   0.460 -0.1541  0.3154 -0.0191
 5886ntf    on531584   5.914   2.510   0.463 -0.0390  0.0224  0.1828
 5886ntf    on531585   5.980   2.600   0.679  0.0627 -0.3297 -0.2048
 5886ntf    on531586   5.678   2.491   0.761  0.1767  0.1284  0.3860
 5886ntf    on531587   5.518   2.595   0.609  0.0837 -0.2268 -0.5982
 5886ntf    fn431588   5.541   2.702   0.888  0.3620 -0.0850  0.3197
 5886ntf    fn431589   5.748   2.737   0.879  0.0056  0.3353 -0.3282
 5886ntf    fn431590   5.625   2.856   0.758  0.5932 -0.0632  0.3942
 5887ntf    cn131591   0.751   0.710   3.287  0.2317 -0.0849  0.5987
 5887ntf    sn231592   0.576   0.705   3.240  0.2926  0.0441  0.3578
 5887ntf    nn331593   0.537   0.569   3.307  0.1684 -0.1064 -0.0163
 5887ntf    sn231594   0.508   0.430   3.241 -0.0899 -0.0817  0.0450
 5887ntf    cn131595   0.327   0.443   3.221 -0.0709 -0.0288 -0.0927
 5887ntf    fn431596   0.831   0.620   3.230  0.4618  0.1788  0.5002
 5887ntf    fn431597   0.811   0.826   3.266  0.1308 -0.0551  0.4758
 5887ntf    fn431598   0.755   0.691   3.418  0.2013 -0.6667  0.5211
 5887ntf    on531599   0.514   0.819   3.304 -0.5837 -0.1109 -0.2025
 5887ntf    on531600   0.580   0.699   3.096  0.7407  0.3812  0.3523
 5887ntf    on531601   0.516   0.328   3.343  0.0715 -0.1250 -0.0106
 5887ntf    on531602   0.555   0.400   3.108  0.0648  0.2630  0.0215
 5887ntf    fn431603   0.301   0.531   3.126  0.1471  0.0032 -0.1232
 5887ntf    fn431604   0.286   0.323   3.185 -0.5111  0.1814 -0.3026
 5887ntf    fn431605   0.264   0.467   3.335  0.3295  0.1407  0.0961
 5888ntf    cn131606   3.419   1.382   4.471  0.1210 -0.1671 -0.0601
 5888ntf    sn231607   3.516   1.233   4.430  0.1720 -0.1173 -0.1197
 5888ntf    nn331608   3.659   1.299   4.442 -0.1051  0.4864 -0.0709
 5888ntf    sn231609   3.765   1.276   4.556 -0.1847  0.0171 -0.0862
 5888ntf    cn131610   3.854   1.125   4.507 -0.1320  0.0526 -0.0998
 5888ntf    fn431611   3.422   1.461   4.366  0.1295  0.1808  0.2019
 5888ntf    fn431612   3.289   1.363   4.489  0.1310 -0.2070 -0.0272
 5888ntf    fn431613   3.466   1.447   4.576 -0.0691  0.2030 -0.2044
 5888ntf    on531614   3.474   1.138   4.530 -0.0552 -0.3100 -0.3980
 5888ntf    on531615   3.482   1.204   4.293  0.1806 -0.4920 -0.0432
 5888ntf    on531616   3.706   1.251   4.685  0.3926 -0.8589  0.0154
 5888ntf    on531617   3.871   1.374   4.545  0.0724 -0.2830 -0.3100
 5888ntf    fn431618   3.774   1.020   4.506 -0.1191  0.0407  0.0365
 5888ntf    fn431619   3.918   1.130   4.391 -0.0885 -0.2147 -0.0879
 5888ntf    fn431620   3.946   1.099   4.599 -0.1621 -0.0746 -0.1069
 5889ntf    cn131621   3.423   2.310   2.607 -0.0252 -0.0368 -0.3767
 5889ntf    sn231622   3.296   2.398   2.702  0.1718  0.0022 -0.1499
 5889ntf    nn331623   3.330   2.546   2.664  0.3939 -0.0378 -0.1055
 5889ntf    sn231624   3.293   2.679   2.739 -0.0244 -0.1790 -0.0618
 5889ntf    cn131625   3.234   2.774   2.595  0.2235  0.4382  0.2419
 5889ntf    fn431626   3.412   2.178   2.610 -0.5589  0.0024 -0.5382
 5889ntf    fn431627   3.418   2.340   2.478  0.1787 -0.1623 -0.4150
 5889ntf    fn431628   3.546   2.343   2.641  0.0670  0.0624 -0.8058
 5889ntf    on531629   3.178   2.345   2.638 -0.3735 -0.0020  0.8257
 5889ntf    on531630   3.319   2.358   2.839 -0.1301 -0.1911 -0.1547
 5889ntf    on531631   3.399   2.761   2.792 -0.4834  0.3367  0.0747
 5889ntf    on531632   3.166   2.675   2.808  0.0471 -0.0628  0.0753
 5889ntf    fn431633   3.210   2.901   2.627  0.3354  0.3833  0.5483
 5889ntf    fn431634   3.317   2.786   2.493 -0.0711 -0.2645 -0.0804
 5889ntf    fn431635   3.116   2.731   2.555  0.2861  0.5050 -0.0140
 5890ntf    cn131636   4.253   6.797   4.103  0.0968  0.2743  0.1865
 5890ntf    sn231637   4.231   6.914   3.966 -0.1834 -0.0763 -0.0691
 5890ntf    nn331638   4.373   6.898   3.900 -0.1680 -0.5701  0.0787
 5890ntf    sn231639   4.519   6.918   3.951 -0.2483 -0.1720  0.1563
 5890ntf    cn131640   4.602   7.011   3.819 -0.0141 -0.2239  0.2639
 5890ntf    fn431641   4.137   6.757   4.152 -0.1348  0.0831 -0.5100
 5890ntf    fn431642   4.314   6.685   4.068  0.2441  0.3130  0.3151
 5890ntf    fn431643   4.318   6.844   4.208  0.3706 -0.5053  0.3763
 5890ntf    on531644   4.119   6.872   3.886 -0.0781 -0.2888 -0.1061
 5890ntf    on531645   4.218   7.042   4.031  0.1292 -0.2487  0.3417
 5890ntf    on531646   4.598   6.797   3.950  0.3294  0.1991  0.2500
 5890ntf    on531647   4.522   6.999   4.070 -0.0317  0.8710 -0.5493
 5890ntf    fn431648   4.571   6.968   3.698 -0.3832  0.2909  0.1683
 5890ntf    fn431649   4.575   7.141   3.828 -0.0680 -0.2278  0.1652
 5890ntf    fn431650   4.732   6.992   3.827  0.0613  0.3829  0.5808
 5891ntf    cn131651   4.137   2.949   6.658 -0.3907 -0.1895  0.0297
 5891ntf    sn231652   4.138   3.097   6.552  0.1121 -0.1258  0.1194
 5891ntf    nn331653   4.290   3.131   6.531  0.0551  0.2613  0.3196
 5891ntf    sn231654   4.365   3.269   6.539  0.1673  0.2305 -0.1584
 5891ntf    cn131655   4.385   3.292   6.718  0.0408 -0.3880 -0.0592
 5891ntf    fn431656   4.027   2.937   6.730 -0.3451  0.1581  0.1592
 5891ntf    fn431657   4.159   2.843   6.582 -0.6830 -0.2845  0.0787
 5891ntf    fn431658   4.228   2.955   6.754 -0.2693  0.0734 -0.1018
 5891ntf    on531659   4.081   3.052   6.428 -0.3519  0.5281  0.0892
 5891ntf    on531660   4.060   3.195   6.624 -0.1395  0.0617 -0.4052
 5891ntf    on531661   4.282   3.374   6.486  0.3160  0.0946 -0.6686
 5891ntf    on531662   4.503   3.265   6.496  0.2161 -0.4160  0.0477
 5891ntf    fn431663   4.269   3.307   6.779  0.2978 -0.1241  0.3725
 5891ntf    fn431664   4.455   3.199   6.781  0.1038 -0.4978 -0.2890
 5891ntf    fn431665   4.447   3.405   6.749  0.0522 -0.5823  0.6384
 5892ntf    cn131666   2.337   7.258   6.572  0.0422  0.0284  0.1406
 5892ntf    sn231667   2.352   7.114   6.683 -0.3132 -0.1440 -0.0317
 5892ntf    nn331668   2.360   6.999   6.576  0.1127  0.3054 -0.4929
 5892ntf    sn231669   2.272   6.871   6.552 -0.1284  0.3435  0.1597
 5892ntf    cn131670   2.403   6.746   6.543 -0.3766  0.0830  0.1569
 5892ntf    fn431671   2.353   7.369   6.642 -0.2826  0.0438  0.1921
 5892ntf    fn431672   2.438   7.251   6.487 -0.2101  0.3181 -0.1842
 5892ntf    fn431673   2.229   7.260   6.496 -0.0619  0.2119  0.2945
 5892ntf    on531674   2.481   7.140   6.743 -0.0780 -0.2497 -0.4818
 5892ntf    on531675   2.237   7.135   6.767  0.0458 -0.4398  0.5381
 5892ntf    on531676   2.206   6.857   6.424  0.6736  0.3548 -0.2571
 5892ntf    on531677   2.192   6.825   6.663 -0.0931 -0.3777 -0.1080
 5892ntf    fn431678   2.484   6.770   6.441 -0.2837 -0.4007  0.1127
 5892ntf    fn431679   2.481   6.752   6.649 -0.3662 -0.2542  0.1692
 5892ntf    fn431680   2.361   6.622   6.523 -0.1836  0.0515 -0.0685
 5893ntf    cn131681   6.577   2.778   2.796  0.1960  0.3077  0.5173
 5893ntf    sn231682   6.540   2.613   2.862  0.0661  0.1805  0.1300
 5893ntf    nn331683   6.571   2.641   3.013 -0.6247 -0.5246  0.4059
 5893ntf    sn231684   6.709   2.633   3.087 -0.2878  0.1619 -0.1357
 5893ntf    cn131685   6.715   2.454   3.122 -0.2936  0.1696 -0.0948
 5893ntf    fn431686   6.704   2.808   2.815  0.2149  0.3991  0.2570
 5893ntf    fn431687   6.562   2.776   2.664  0.2762 -0.1588  0.5161
 5893ntf    fn431688   6.500   2.876   2.842 -0.0757  0.2451  0.2073
 5893ntf    on531689   6.399   2.598   2.838  0.2725 -0.5783 -0.6912
 5893ntf    on531690   6.622   2.523   2.783 -0.6423 -0.5631  0.2285
 5893ntf    on531691   6.713   2.705   3.212  0.4348 -0.2782  0.1038
 5893ntf    on531692   6.823   2.651   3.001  0.2870 -0.3214  0.5052
 5893ntf    fn431693   6.642   2.404   3.220  0.3434 -0.4643  0.0584
 5893ntf    fn431694   6.693   2.376   3.018  0.5466  0.0152 -0.1607
 5893ntf    fn431695   6.838   2.429   3.164 -0.2598  0.0652 -0.2570
 5894ntf    cn131696   4.232   5.147   5.293  0.3587  0.2839 -0.0798
 5894ntf    sn231697   4.123   5.291   5.306  0.0280  0.0546 -0.2939
 5894ntf    nn331698   4.063   5.303   5.161  0.1428 -0.5373 -0.3901
 5894ntf    sn231699   4.089   5.411   5.051  0.3222 -0.3150 -0.1325
 5894ntf    cn131700   3.993   5.546   5.126 -0.1798 -0.5323 -0.3717
 5894ntf    fn431701   4.258   5.088   5.409  0.1615  0.3302 -0.0114
 5894ntf    fn431702   4.185   5.054   5.212  0.1615  0.1927  0.1383
 5894ntf    fn431703   4.351   5.180   5.246  0.1879  0.1915 -0.5758
 5894ntf    on531704   4.019   5.247   5.395  0.3207  0.1553  0.1010
 5894ntf    on531705   4.205   5.401   5.350 -0.4963  0.2231  0.2773
 5894ntf    on531706   4.016   5.372   4.932  0.3344  0.0960 -0.2751
 5894ntf    on531707   4.221   5.468   5.046  0.0229  0.3644 -0.4830
 5894ntf    fn431708   4.005   5.662   5.063 -0.1267 -0.4816 -0.2687
 5894ntf    fn431709   3.863   5.526   5.135 -0.1999 -0.1970  0.1387
 5894ntf    fn431710   4.029   5.572   5.251 -0.6502 -0.5147 -0.2398
 5895ntf    cn131711   3.190   7.334   6.438  0.1290  0.0834  0.1071
 5895ntf    sn231712   3.157   7.510   6.467 -0.1582  0.0521 -0.0261
 5895ntf    nn331713   3.027   7.492   6.553 -0.1414 -0.1491 -0.0431
 5895ntf    sn231714   2.877   7.487   6.506 -0.0546 -0.0920 -0.3259
 5895ntf    cn131715   2.832   7.663   6.516 -0.0554 -0.0959 -0.2657
 5895ntf    fn431716   3.115   7.293   6.337  0.3067  0.2366 -0.0894
 5895ntf    fn431717   3.317   7.312   6.406  0.1054 -0.1977  0.2020
 5895ntf    fn431718   3.165   7.254   6.540  0.1715  0.5632  0.4970
 5895ntf    on531719   3.266   7.559   6.549  0.0257 -0.1655 -0.1408
 5895ntf    on531720   3.131   7.575   6.341 -0.1224  0.2412  0.0621
 5895ntf    on531721   2.791   7.435   6.609  0.2446  0.1290  0.0413
 5895ntf    on531722   2.860   7.445   6.369  0.1343  0.4569 -0.5183
 5895ntf    fn431723   2.920   7.738   6.452 -0.0002  0.1378  0.0849
 5895ntf    fn431724   2.715   7.692   6.462 -0.0309  0.1251 -0.2008
 5895ntf    fn431725   2.832   7.705   6.642  0.5594  0.2040 -0.3587
 5896ntf    cn131726   0.948   6.971   5.550 -0.1242  0.0320 -0.6484
 5896ntf    sn231727   1.027   6.872   5.681 -0.4524  0.2874 -0.2591
 5896ntf    nn331728   1.082   6.987   5.773  0.3424  0.0737 -0.4663
 5896ntf    sn231729   1.229   7.042   5.781  0.3148  0.0919 -0.0424
 5896ntf    cn131730   1.300   6.925   5.900 -0.2149 -0.4456 -0.2521
 5896ntf    fn431731   0.848   7.047   5.588 -0.2684 -0.2660 -0.4309
 5896ntf    fn431732   1.025   7.056   5.484  0.3936  0.2688  0.2391
 5896ntf    fn431733   0.896   6.888   5.460 -0.0294 -0.2821 -0.4136
 5896ntf    on531734   0.922   6.800   5.749 -0.1373  0.0299 -0.0472
 5896ntf    on531735   1.127   6.795   5.612 -0.2004 -0.2153  0.6596
 5896ntf    on531736   1.236   7.169   5.848  0.2284  0.0324  0.0795
 5896ntf    on531737   1.316   7.029   5.666 -0.0701  0.3882 -0.3690
 5896ntf    fn431738   1.427   6.949   5.928 -0.3142  0.5645 -0.6338
 5896ntf    fn431739   1.238   6.933   6.017 -0.0035 -0.1629 -0.1592
 5896ntf    fn431740   1.291   6.800   5.858  0.0979 -0.4213 -0.3898
 5897ntf    cn131741   1.774   7.171   3.743  0.0805  0.2102  0.3641
 5897ntf    sn231742   1.935   7.168   3.659 -0.1358 -0.3404 -0.0309
 5897ntf    nn331743   1.904   7.271   3.545  0.1611 -0.0590  0.1425
 5897ntf    sn231744   1.982   7.306   3.414  0.0450  0.0155  0.0918
 5897ntf    cn131745   1.881   7.204   3.302  0.0723 -0.0764  0.1502
 5897ntf    fn431746   1.738   7.288   3.794 -0.1146  0.5707 -0.5723
 5897ntf    fn431747   1.678   7.145   3.655  0.2571  0.0663  0.2136
 5897ntf    fn431748   1.755   7.079   3.836 -0.5447 -0.3711 -0.3287
 5897ntf    on531749   2.027   7.212   3.760  0.3539  0.2198 -0.7078
 5897ntf    on531750   1.948   7.031   3.616 -0.3918 -0.5402  0.5218
 5897ntf    on531751   2.115   7.252   3.400 -0.0679 -0.2268 -0.0574
 5897ntf    on531752   1.958   7.442   3.373  0.0590 -0.2076 -0.6805
 5897ntf    fn431753   1.955   7.126   3.226 -0.1674 -0.1989  0.0438
 5897ntf    fn431754   1.807   7.124   3.376  0.2579 -0.1569  0.2493
 5897ntf    fn431755   1.812   7.281   3.219 -0.2845 -1.2692 -0.6811
 5898ntf    cn131756   1.909   6.939   4.402 -0.1699  0.0682 -0.0689
 5898ntf    sn231757   1.871   6.913   4.578 -0.1654 -0.0538 -0.0857
 5898ntf    nn331758   2.017   6.929   4.634 -0.3251  0.2399  0.2551
 5898ntf    sn231759   2.077   7.031   4.737  0.4806 -0.0793  0.1037
 5898ntf    cn131760   2.247   7.058   4.677  0.3119  0.3590 -0.1816
 5898ntf    fn431761   1.984   7.047   4.387 -0.5774  0.2650 -0.7462
 5898ntf    fn431762   1.981   6.842   4.349  0.3061  0.5671 -0.3410
 5898ntf    fn431763   1.804   6.957   4.324  0.1279 -0.2152 -0.5354
 5898ntf    on531764   1.792   7.029   4.613  0.0981  0.2871 -0.6061
 5898ntf    on531765   1.825   6.777   4.593  0.0986 -0.0931  0.3744
 5898ntf    on531766   2.090   6.967   4.866 -0.0974 -0.1974  0.1045
 5898ntf    on531767   2.037   7.169   4.733  0.0894 -0.1840  0.3444
 5898ntf    fn431768   2.249   7.112   4.556 -0.3221 -0.2940 -0.4930
 5898ntf    fn431769   2.318   7.140   4.752  0.4511  0.2627 -0.2096
 5898ntf    fn431770   2.320   6.948   4.667 -0.0059  0.1342 -0.0684
 5899ntf    cn131771   7.229   4.275   5.773  0.0801  0.1381 -0.0983
 5899ntf    sn231772   7.198   4.438   5.699 -0.1903  0.1226 -0.0198
 5899ntf    nn331773   7.072   4.486   5.780 -0.0925  0.1662  0.1051
 5899ntf    sn231774   7.063   4.563   5.916 -0.3391  0.3981 -0.0429
 5899ntf    cn131775   7.085   4.734   5.856 -0.0461  0.1515 -0.6413
 5899ntf    fn431776   7.306   4.207   5.689  0.2036 -0.3535  0.4115
 5899ntf    fn431777   7.287   4.281   5.891 -0.5060 -0.1499  0.2118
 5899ntf    fn431778   7.115   4.210   5.795  0.2850 -0.0513  0.4089
 5899ntf    on531779   7.321   4.510   5.716  0.0102 -0.2302  0.0205
 5899ntf    on531780   7.162   4.412   5.562 -0.2787  0.1647 -0.0051
 5899ntf    on531781   7.170   4.536   6.009  0.1060  0.4133 -0.5526
 5899ntf    on531782   6.932   4.567   5.977 -0.2078  0.0996  0.2561
 5899ntf    fn431783   7.180   4.745   5.765  0.0073  0.5748 -0.5353
 5899ntf    fn431784   6.967   4.768   5.806 -0.1672  0.3367 -0.2383
 5899ntf    fn431785   7.112   4.815   5.956  0.4682 -0.6261 -0.1359
 5900ntf    cn131786   5.387   1.495   1.183 -0.0475  0.0960 -0.0704
 5900ntf    sn231787   5.412   1.540   1.357 -0.5153 -0.0723  0.0413
 5900ntf    nn331788   5.540   1.629   1.337 -0.2435 -0.3839  0.3786
 5900ntf    sn231789   5.689   1.589   1.366 -0.1387 -0.2586  0.0173
 5900ntf    cn131790   5.779   1.677   1.235 -0.6361 -0.2656 -0.3347
 5900ntf    fn431791   5.269   1.437   1.163  0.2335 -0.3427 -0.4960
 5900ntf    fn431792   5.390   1.607   1.113  0.1015  0.2185  0.1328
 5900ntf    fn431793   5.480   1.415   1.133  0.0011 -0.2509  0.5723
 5900ntf    on531794   5.287   1.605   1.390 -0.3998  0.2320 -0.1223
 5900ntf    on531795   5.429   1.416   1.428 -0.5670  0.1610  0.4664
 5900ntf    on531796   5.723   1.450   1.345 -0.4767 -0.2310 -0.7601
 5900ntf    on531797   5.730   1.650   1.490 -0.2375  0.1352 -0.1413
 5900ntf    fn431798   5.909   1.666   1.261 -0.4824  0.4147 -0.8015
 5900ntf    fn431799   5.768   1.628   1.112  0.1873 -0.6211 -0.2794
 5900ntf    fn431800   5.760   1.807   1.233  0.1400 -0.1476 -0.2470
 5901ntf    cn131801   0.109   5.901   4.875  0.1522  0.2931 -0.3782
 5901ntf    sn231802   0.141   5.886   5.053 -0.0371 -0.1582 -0.3806
 5901ntf    nn331803   0.291   5.844   5.036  0.1127  0.2323 -0.0648
 5901ntf    sn231804   0.358   5.705   5.067 -0.1660 -0.0109 -0.5356
 5901ntf    cn131805   0.347   5.623   4.905 -0.2260  0.0286 -0.5511
 5901ntf    fn431806   0.103   5.787   4.808 -0.1431  0.0385  0.0799
 5901ntf    fn431807  -0.006   5.959   4.844 -0.2811  0.0437  0.7073
 5901ntf    fn431808   0.202   5.972   4.813 -0.0154  0.8112 -0.0464
 5901ntf    on531809   0.121   6.020   5.103  0.3307 -0.2530  0.0349
 5901ntf    on531810   0.051   5.787   5.105  0.2519 -0.3971 -0.3304
 5901ntf    on531811   0.289   5.622   5.163  0.2035 -0.1056 -0.3481
 5901ntf    on531812   0.501   5.718   5.084 -0.3004  0.1778  0.4992
 5901ntf    fn431813   0.223   5.593   4.869 -0.2721 -0.1820 -0.2245
 5901ntf    fn431814   0.406   5.698   4.814 -0.5133 -0.0471 -0.8028
 5901ntf    fn431815   0.408   5.506   4.902 -0.4122 -0.0897  0.0203
 5902ntf    cn131816   6.319   6.883   4.316 -0.1314  0.0399  0.3419
 5902ntf    sn231817   6.301   6.903   4.136 -0.0565  0.0703  0.3375
 5902ntf    nn331818   6.211   7.032   4.129  0.1778  0.2182  0.0048
 5902ntf    sn231819   6.062   7.037   4.080  0.0791  0.0679  0.2894
 5902ntf    cn131820   5.988   7.181   4.163 -0.1393  0.0284  0.1677
 5902ntf    fn431821   6.402   6.785   4.352 -0.2328 -0.1252  0.1271
 5902ntf    fn431822   6.369   6.994   4.367 -0.2071  0.0055  0.4909
 5902ntf    fn431823   6.208   6.866   4.385 -0.1744  0.5191  0.3940
 5902ntf    on531824   6.441   6.919   4.104 -0.0433 -0.3985  0.1675
 5902ntf    on531825   6.241   6.780   4.093  0.0182  0.3583 -0.6008
 5902ntf    on531826   5.976   6.930   4.127  0.0389  0.2076  0.5374
 5902ntf    on531827   6.048   7.071   3.941 -0.0266 -0.5214  0.1506
 5902ntf    fn431828   6.056   7.289   4.130 -0.1652  0.0902  0.3180
 5902ntf    fn431829   5.862   7.205   4.133 -0.0169  0.2518 -0.1795
 5902ntf    fn431830   6.000   7.176   4.295 -0.6057  0.1596  0.2156
 5903ntf    cn131831   3.492   5.016   0.720  0.2065 -0.7329  0.0347
 5903ntf    sn231832   3.458   4.933   0.879 -0.2661  0.1341  0.3960
 5903ntf    nn331833   3.310   4.894   0.847 -0.1320 -0.2445  0.2310
 5903ntf    sn231834   3.176   4.975   0.859  0.0982  0.1329  0.2763
 5903ntf    cn131835   3.130   4.891   1.014 -0.0431  0.1556  0.2468
 5903ntf    fn431836   3.430   5.128   0.688  0.4262 -0.6459 -0.0837
 5903ntf    fn431837   3.618   5.056   0.715 -0.2188  0.6302 -0.0974
 5903ntf    fn431838   3.475   4.940   0.613 -0.2788 -0.5422 -0.0231
 5903ntf    on531839   3.550   4.822   0.875 -0.3335  0.0801  0.3546
 5903ntf    on531840   3.471   5.027   0.988  0.0467  0.5170  0.0338
 5903ntf    on531841   3.074   4.933   0.766  0.2388  0.1688  0.1074
 5903ntf    on531842   3.181   5.115   0.889 -0.6050  0.2482 -0.1114
 5903ntf    fn431843   3.099   4.765   0.986 -0.0593  0.2178 -0.0161
 5903ntf    fn431844   3.224   4.894   1.107 -0.4784 -0.0976  0.7004
 5903ntf    fn431845   3.029   4.946   1.079 -0.0991 -0.0611  0.3462
 5904ntf    cn131846   4.218   4.464   0.806  0.5639  0.2929  0.0086
 5904ntf    sn231847   4.271   4.637   0.791  0.1779  0.3749 -0.4118
 5904ntf    nn331848   4.214   4.696   0.925 -0.2938  0.0984 -0.4880
 5904ntf    sn231849   4.120   4.819   0.948 -0.1289  0.1504 -0.0768
 5904ntf    cn131850   3.957   4.741   0.928 -0.1009 -0.1018  0.6581
 5904ntf    fn431851   4.227   4.398   0.692 -0.7112 -0.0045  0.0593
 5904ntf    fn431852   4.286   4.393   0.894 -0.0975  0.5535  0.7436
 5904ntf    fn431853   4.092   4.459   0.846  0.4788 -0.3374 -0.3281
 5904ntf    on531854   4.415   4.633   0.794  0.1547 -0.7203 -0.3936
 5904ntf    on531855   4.206   4.686   0.671 -0.4409 -0.1022 -0.2770
 5904ntf    on531856   4.126   4.925   0.850 -0.3705  0.0890 -0.1587
 5904ntf    on531857   4.118   4.861   1.086 -0.1601 -0.1823  0.0237
 5904ntf    fn431858   3.883   4.801   0.836  0.3952 -0.1530  0.2175
 5904ntf    fn431859   3.963   4.612   0.899 -0.1309  0.0279  0.0511
 5904ntf    fn431860   3.880   4.752   1.035 -0.0484  0.1566  0.6697
 5905ntf    cn131861   1.489   1.854   7.227 -0.3817 -0.0033 -0.1241
 5905ntf    sn231862   1.472   1.919   7.396  0.0188  0.3877 -0.2341
 5905ntf    nn331863   1.316   1.944   7.395 -0.1476 -0.6228 -0.1261
 5905ntf    sn231864   1.207   1.865   7.475 -0.1047 -0.4123  0.1384
 5905ntf    cn131865   1.160   2.003   7.584 -0.2772 -0.2265 -0.1696
 5905ntf    fn431866   1.384   1.788   7.180  0.1538 -0.9257 -0.0643
 5905ntf    fn431867   1.515   1.948   7.138  0.3590 -0.0009  0.0889
 5905ntf    fn431868   1.587   1.766   7.222 -0.3954 -0.0260 -0.0173
 5905ntf    on531869   1.523   1.806   7.469  0.0164  0.1570 -0.5870
 5905ntf    on531870   1.550   2.040   7.397 -0.5246  0.7449  0.1879
 5905ntf    on531871   1.249   1.762   7.566 -0.1791 -0.2383  0.3712
 5905ntf    on531872   1.089   1.844   7.394 -0.0408 -0.6645  0.1118
 5905ntf    fn431873   1.055   1.974   7.660 -0.3392  0.2410 -0.0717
 5905ntf    fn431874   1.254   2.034   7.672  0.0299  0.1240 -0.6159
 5905ntf    fn431875   1.138   2.116   7.519 -0.0965 -0.3758 -0.4936
 5906ntf    cn131876   4.306   5.788   2.485 -0.1765 -0.1261 -0.0855
 5906ntf    sn231877   4.463   5.724   2.552 -0.0166  0.3339 -0.0171
 5906ntf    nn331878   4.415   5.634   2.671 -0.2778 -0.2573 -0.5613
 5906ntf    sn231879   4.352   5.490   2.661 -0.1758 -0.3326 -0.1570
 5906ntf    cn131880   4.502   5.395   2.701  0.2521  0.3306 -0.1669
 5906ntf    fn431881   4.320   5.872   2.383  0.5272 -0.1136  0.0126
 5906ntf    fn431882   4.232   5.688   2.438 -0.0424 -0.2148 -0.1098
 5906ntf    fn431883   4.226   5.847   2.571  0.2551  0.3012  0.0289
 5906ntf    on531884   4.521   5.650   2.443 -0.1188 -0.0998  0.2209
 5906ntf    on531885   4.541   5.834   2.603  0.5325 -0.0031 -0.1238
 5906ntf    on531886   4.306   5.451   2.530  0.3393  0.1871 -0.5009
 5906ntf    on531887   4.261   5.468   2.770  0.5724 -0.1219  0.5238
 5906ntf    fn431888   4.542   5.422   2.824 -0.2403  0.1394  0.0339
 5906ntf    fn431889   4.479   5.266   2.685 -0.1509  0.2928  0.6529
 5906ntf    fn431890   4.611   5.426   2.632  0.0640 -0.2040 -0.7091
 5907ntf    cn131891   6.508   2.134   1.880  0.3412 -0.3778  0.1465
 5907ntf    sn231892   6.448   2.066   1.723  0.0821 -0.0011  0.0808
 5907ntf    nn331893   6.427   2.202   1.649 -0.3426 -0.1931 -0.1571
 5907ntf    sn231894   6.308   2.277   1.580 -0.3169 -0.0254 -0.0207
 5907ntf    cn131895   6.276   2.410   1.700  0.1718  0.1952 -0.1333
 5907ntf    fn431896   6.416   2.218   1.925 -0.3120 -0.8119 -0.3698
 5907ntf    fn431897   6.530   2.041   1.972 -0.2662 -0.2199  0.4511
 5907ntf    fn431898   6.617   2.209   1.870 -0.0576  0.2083  0.1052
 5907ntf    on531899   6.566   1.992   1.687  0.4170  0.6144 -0.0914
 5907ntf    on531900   6.328   1.993   1.754 -0.1544  0.1138 -0.5519
 5907ntf    on531901   6.179   2.215   1.570 -0.2251 -0.3013  0.5376
 5907ntf    on531902   6.355   2.348   1.463 -0.5133 -0.4922 -0.3883
 5907ntf    fn431903   6.163   2.475   1.677  0.3600  0.5417 -0.0897
 5907ntf    fn431904   6.267   2.367   1.824 -0.0339  0.2658 -0.1244
 5907ntf    fn431905   6.370   2.503   1.700  0.2529  0.1139 -0.1446
 5908ntf    cn131906   4.210   0.237   6.062  0.0359 -0.5465 -0.3880
 5908ntf    sn231907   4.134   0.122   6.180 -0.2401  0.1240  0.0979
 5908ntf    nn331908   3.979   0.138   6.159 -0.2009  0.0275 -0.2647
 5908ntf    sn231909   3.874   0.043   6.225 -0.1086  0.1019 -0.0082
 5908ntf    cn131910   3.839  -0.077   6.093 -0.4348  0.1862 -0.0000
 5908ntf    fn431911   4.336   0.258   6.095 -0.1141 -0.0165 -0.1311
 5908ntf    fn431912   4.212   0.200   5.935  0.0213  0.3339 -0.6532
 5908ntf    fn431913   4.144   0.352   6.064  0.5491 -0.2557  0.1069
 5908ntf    on531914   4.186  -0.008   6.144 -0.1036  0.0812  0.4444
 5908ntf    on531915   4.179   0.174   6.307 -0.2125  0.6611 -0.1300
 5908ntf    on531916   3.748   0.110   6.246  0.0625  0.3941  0.0957
 5908ntf    on531917   3.920  -0.042   6.333 -0.1715 -0.2378 -0.2464
 5908ntf    fn431918   3.762  -0.021   6.000 -0.0172  0.5454 -0.1351
 5908ntf    fn431919   3.954  -0.107   6.034 -0.1697  1.0692  0.0517
 5908ntf    fn431920   3.777  -0.187   6.131 -0.0149 -0.2007 -0.4170
 5909ntf    cn131921   4.265   0.589   4.080 -0.0455 -0.3920 -0.0560
 5909ntf    sn231922   4.396   0.510   4.179  0.0368 -0.1844  0.0016
 5909ntf    nn331923   4.400   0.370   4.109  0.1438 -0.6481  0.9197
 5909ntf    sn231924   4.327   0.233   4.139 -0.4269 -0.5158  0.1772
 5909ntf    cn131925   4.155   0.274   4.098 -0.3718 -0.0934  0.3627
 5909ntf    fn431926   4.226   0.520   3.974 -0.8713  0.0452 -0.0363
 5909ntf    fn431927   4.161   0.607   4.159  0.1132 -0.7204  0.2321
 5909ntf    fn431928   4.302   0.711   4.048 -0.1276 -0.1687  0.6797
 5909ntf    on531929   4.517   0.582   4.148 -0.0761 -0.0097 -0.0343
 5909ntf    on531930   4.347   0.517   4.314  0.1072 -0.0015  0.0182
 5909ntf    on531931   4.316   0.191   4.276 -0.2727  0.0768  0.3743
 5909ntf    on531932   4.357   0.137   4.036 -0.2007 -0.2531 -0.0057
 5909ntf    fn431933   4.077   0.171   4.126 -0.8884  0.2144  0.0701
 5909ntf    fn431934   4.100   0.381   4.154 -0.4473 -0.1213  0.3413
 5909ntf    fn431935   4.152   0.303   3.969 -0.4594  0.0324  0.3932
 5910ntf    cn131936   5.513   5.953   0.319  0.5121 -0.3913 -0.2604
 5910ntf    sn231937   5.634   6.053   0.412 -0.0170  0.4082 -0.4204
 5910ntf    nn331938   5.650   5.971   0.544 -0.0371 -0.3210 -0.8646
 5910ntf    sn231939   5.736   5.844   0.580  0.1212  0.0431  0.0826
 5910ntf    cn131940   5.604   5.721   0.602  0.0089  0.1698  0.1225
 5910ntf    fn431941   5.399   5.930   0.382  0.7893 -0.2021  0.3251
 5910ntf    fn431942   5.491   6.011   0.202  0.0637  0.1210  0.0699
 5910ntf    fn431943   5.561   5.836   0.280 -0.3296 -0.7798 -0.1545
 5910ntf    on531944   5.752   6.065   0.330 -0.1862  0.5722 -0.6415
 5910ntf    on531945   5.560   6.175   0.434 -0.3595  0.1586 -0.1761
 5910ntf    on531946   5.794   5.858   0.711 -0.4772 -0.1539  0.3708
 5910ntf    on531947   5.816   5.788   0.474  0.0020 -0.0885  0.0620
 5910ntf    fn431948   5.661   5.605   0.631  0.3358  0.0867 -0.7995
 5910ntf    fn431949   5.519   5.758   0.696  0.1750  0.4048  0.1797
 5910ntf    fn431950   5.531   5.708   0.492  0.3217 -0.3140 -0.0326
 5911ntf    cn131951   0.775   1.517   1.041 -0.2917 -0.4099  0.3701
 5911ntf    sn231952   0.924   1.452   1.122  0.0510  0.3471  0.3520
 5911ntf    nn331953   0.941   1.316   1.047 -0.1466  0.3243  0.3471
 5911ntf    sn231954   0.867   1.182   1.083  0.5447 -0.1238  0.1450
 5911ntf    cn131955   0.971   1.119   1.218  0.1199 -0.1777  0.4515
 5911ntf    fn431956   0.684   1.421   1.028 -0.2497 -0.4164  0.1274
 5911ntf    fn431957   0.724   1.617   1.111  0.5314  0.1532  0.1707
 5911ntf    fn431958   0.795   1.560   0.918 -0.0857  0.0064  0.5482
 5911ntf    on531959   1.026   1.547   1.086  0.1151 -0.0294 -0.4731
 5911ntf    on531960   0.894   1.441   1.263 -0.4054 -0.4206  0.1992
 5911ntf    on531961   0.889   1.081   0.983 -1.1081 -0.3312 -0.0374
 5911ntf    on531962   0.736   1.193   1.143  0.3148 -0.4734 -0.2945
 5911ntf    fn431963   1.101   1.133   1.197  0.0483 -0.2272 -0.0375
 5911ntf    fn431964   0.957   1.185   1.332 -0.0937  0.3219  0.1397
 5911ntf    fn431965   0.953   0.990   1.242  0.1556 -0.2557  0.0724
 5912ntf    cn131966   0.332   1.854   0.902 -0.0858 -0.3476  0.0636
 5912ntf    sn231967   0.350   2.035   0.917 -0.0190 -0.3481 -0.0090
 5912ntf    nn331968   0.305   2.054   1.066  0.2538  0.7934 -0.0622
 5912ntf    sn231969   0.412   2.062   1.181  0.0823 -0.3328  0.1956
 5912ntf    cn131970   0.459   2.237   1.160  0.2090 -0.4364 -0.3999
 5912ntf    fn431971   0.216   1.817   0.953 -0.0219 -0.1241  0.3774
 5912ntf    fn431972   0.339   1.814   0.776  0.3178 -0.4607  0.1203
 5912ntf    fn431973   0.423   1.785   0.969  0.2426  0.1363  0.1259
 5912ntf    on531974   0.486   2.061   0.876 -0.0750  0.5950  0.3791
 5912ntf    on531975   0.247   2.089   0.833 -0.2500 -0.3583  0.2662
 5912ntf    on531976   0.538   1.995   1.166  0.2918 -0.0443  0.6313
 5912ntf    on531977   0.359   2.066   1.315 -0.3772 -0.5740  0.0208
 5912ntf    fn431978   0.515   2.266   1.044 -0.1892 -0.1224 -0.5106
 5912ntf    fn431979   0.353   2.315   1.169  0.1506 -0.5555 -0.0439
 5912ntf    fn431980   0.545   2.285   1.249 -0.4263 -0.2733  0.1352
 5913ntf    cn131981   6.760   5.720   5.532  0.0957  0.0765  0.2006
 5913ntf    sn231982   6.704   5.550   5.498  0.2799  0.0788 -0.1262
 5913ntf    nn331983   6.671   5.501   5.643 -0.2283  0.3443 -0.1468
 5913ntf    sn231984   6.763   5.440   5.755 -0.2710  0.2076 -0.1871
 5913ntf    cn131985   6.745   5.261   5.726 -0.2738  0.1358  0.2402
 5913ntf    fn431986   6.659   5.790   5.581 -0.0037  0.0535  0.0301
 5913ntf    fn431987   6.862   5.718   5.615  0.0368 -0.1237  0.2676
 5913ntf    fn431988   6.790   5.790   5.424  0.2888 -0.2477  0.0410
 5913ntf    on531989   6.587   5.570   5.415  0.3755 -0.3806 -0.3693
 5913ntf    on531990   6.815   5.484   5.435  0.2047  0.0986 -0.2812
 5913ntf    on531991   6.709   5.456   5.888 -0.4001 -0.6067 -0.1365
 5913ntf    on531992   6.905   5.464   5.743 -0.3151  0.5624 -0.0171
 5913ntf    fn431993   6.800   5.196   5.827  0.4765  0.2036 -0.1152
 5913ntf    fn431994   6.617   5.230   5.718 -0.4623  0.8933  0.1748
 5913ntf    fn431995   6.801   5.220   5.613 -0.2261  0.3866  0.1720
 5914ntf    cn131996   0.852   3.766   3.675 -0.6262 -0.1362 -0.1766
 5914ntf    sn231997   0.685   3.839   3.677 -0.4281  0.3187 -0.0452
 5914ntf    nn331998   0.608   3.729   3.758 -0.0206 -0.0815 -0.1902
 5914ntf    sn231999   0.590   3.721   3.914  0.2772 -0.0604 -0.1551
 5914ntf    cn132000   0.421   3.788   3.905  0.3212  0.0062 -0.5270
 5914ntf    fn432001   0.903   3.767   3.797 -0.1526  1.2720 -0.3647
 5914ntf    fn432002   0.856   3.641   3.632  0.3316 -0.1793  0.0222
 5914ntf    fn432003   0.937   3.838   3.603 -0.6101 -0.3511 -0.3712
 5914ntf    on532004   0.700   3.966   3.744  0.0824  0.3658 -0.2419
 5914ntf    on532005   0.638   3.845   3.541 -0.3712  0.8310 -0.0436
 5914ntf    on532006   0.663   3.812   3.999 -0.1021  0.4757 -0.3973
 5914ntf    on532007   0.582   3.580   3.945  0.4887 -0.0883 -0.2214
 5914ntf    fn432008   0.411   3.910   3.856  0.4533 -0.0142 -0.6063
 5914ntf    fn432009   0.344   3.707   3.835  0.5498 -0.4027 -0.3135
 5914ntf    fn432010   0.364   3.789   4.025  0.3110  0.1039 -0.5331
 5915ntf    cn132011   3.450   6.077   5.672  0.0340 -0.0812 -0.0070
 5915ntf    sn232012   3.510   6.018   5.511  0.0732  0.2321 -0.1079
 5915ntf    nn332013   3.394   5.924   5.463 -0.3084  0.3953  0.4777
 5915ntf    sn232014   3.310   5.926   5.330  0.3955  0.1268  0.0237
 5915ntf    cn132015   3.277   5.750   5.297  0.3562  0.1579 -0.1000
 5915ntf    fn432016   3.435   5.979   5.760 -0.1182 -0.3138 -0.2889
 5915ntf    fn432017   3.530   6.168   5.723 -0.4219  0.3508 -0.0502
 5915ntf    fn432018   3.330   6.133   5.668 -0.0561 -0.2118  0.6771
 5915ntf    on532019   3.523   6.133   5.425  0.5548  0.2385 -0.0260
 5915ntf    on532020   3.630   5.945   5.542 -0.1159  0.0595  0.2336
 5915ntf    on532021   3.392   5.968   5.219  0.0568 -0.6191 -0.5199
 5915ntf    on532022   3.184   5.996   5.343  0.4759  0.1916  0.4818
 5915ntf    fn432023   3.203   5.694   5.391  0.4723  0.0224 -0.0880
 5915ntf    fn432024   3.208   5.740   5.185  0.3304  0.5647 -0.1226
 5915ntf    fn432025   3.388   5.678   5.289 -0.0381 -0.4520 -0.1139
 5916ntf    cn132026   1.730   1.220   7.275 -0.0393 -0.2369 -0.0834
 5916ntf    sn232027   1.594   1.100   7.263 -0.2788  0.0196  0.0518
 5916ntf    nn332028   1.494   1.191   7.183 -0.0211  0.2966  0.0437
 5916ntf    sn232029   1.453   1.184   7.031 -0.0465 -0.0627  0.0659
 5916ntf    cn132030   1.401   1.356   7.003  0.3279  0.0609  0.1241
 5916ntf    fn432031   1.829   1.179   7.352 -0.1946 -0.2816  0.0948
 5916ntf    fn432032   1.779   1.252   7.156  0.4600  0.3933  0.2876
 5916ntf    fn432033   1.680   1.331   7.328  0.0603 -0.1264 -0.2208
 5916ntf    on532034   1.654   0.992   7.189 -0.1554  0.3271 -0.3011
 5916ntf    on532035   1.565   1.088   7.403  0.5949 -0.5292  0.1887
 5916ntf    on532036   1.340   1.102   6.995 -0.1690 -0.0663  0.4520
 5916ntf    on532037   1.562   1.183   6.937  0.0502 -0.4308  0.1834
 5916ntf    fn432038   1.321   1.412   7.093  0.0913  0.1830 -0.1606
 5916ntf    fn432039   1.506   1.437   7.008  0.2382  0.1654  0.3528
 5916ntf    fn432040   1.342   1.378   6.887 -0.2252 -0.5826  0.2725
 5917ntf    cn132041   5.906   1.583   3.126  0.4422 -0.2356 -0.1772
 5917ntf    sn232042   6.035   1.697   3.067  0.3074  0.0047 -0.0099
 5917ntf    nn332043   6.047   1.800   3.185 -0.4898 -0.0002  0.0789
 5917ntf    sn232044   6.180   1.849   3.252 -0.1549 -0.1945 -0.4412
 5917ntf    cn132045   6.100   1.998   3.318  0.3211  0.0402 -0.3887
 5917ntf    fn432046   5.880   1.490   3.037  0.1247  0.0648 -0.3992
 5917ntf    fn432047   5.933   1.520   3.240  0.3927  0.1830  0.0701
 5917ntf    fn432048   5.798   1.659   3.137  0.4085 -0.3124  0.0334
 5917ntf    on532049   6.152   1.615   3.047  0.1086 -0.3583  0.3008
 5917ntf    on532050   5.971   1.752   2.950 -0.1235  0.4166  0.4148
 5917ntf    on532051   6.284   1.898   3.165  0.2302  0.1767  0.2214
 5917ntf    on532052   6.210   1.774   3.371 -0.1841  1.0485  0.3611
 5917ntf    fn432053   6.187   2.071   3.385 -0.0809  0.0941  0.0795
 5917ntf    fn432054   6.052   2.075   3.222 -0.0035  0.0464 -0.2221
 5917ntf    fn432055   5.998   1.973   3.398  0.1900  0.7188 -0.3436
 5918ntf    cn132056   6.889   2.908   4.795  0.3733  0.1224  0.1255
 5918ntf    sn232057   6.756   2.805   4.726  0.1582  0.1950  0.4295
 5918ntf    nn332058   6.838   2.689   4.659 -0.4342  0.2371 -0.3896
 5918ntf    sn232059   6.891   2.682   4.511  0.1343 -0.3652 -0.1605
 5918ntf    cn132060   6.789   2.542   4.456 -0.0836 -0.1662 -0.2641
 5918ntf    fn432061   6.940   2.850   4.903  0.1429 -0.5207 -0.1048
 5918ntf    fn432062   6.993   2.916   4.714 -0.1576  0.0816 -0.5686
 5918ntf    fn432063   6.854   3.030   4.831  0.5401  0.1243  0.2823
 5918ntf    on532064   6.692   2.752   4.844 -0.1894  0.7450  0.4906
 5918ntf    on532065   6.681   2.901   4.648  0.0316 -0.0955  0.1919
 5918ntf    on532066   7.028   2.639   4.495  0.6106  0.8033  0.6246
 5918ntf    on532067   6.851   2.787   4.421 -0.6811 -0.1625  0.4301
 5918ntf    fn432068   6.828   2.499   4.337 -0.5820  0.1622 -0.5470
 5918ntf    fn432069   6.794   2.448   4.549  0.4305  0.4236  0.3195
 5918ntf    fn432070   6.660   2.566   4.441 -0.1909 -0.5796 -0.0182
 5919ntf    cn132071   7.049   1.374   6.802  0.2112 -0.0481  0.1420
 5919ntf    sn232072   6.889   1.305   6.855  0.2375 -0.0498  0.2184
 5919ntf    nn332073   6.807   1.315   6.721  0.0176  0.2042  0.3706
 5919ntf    sn232074   6.665   1.372   6.686  0.0373  0.2012  0.2859
 5919ntf    cn132075   6.571   1.217   6.693 -0.0094  0.2029 -0.2635
 5919ntf    fn432076   7.146   1.339   6.884  0.3760  0.1572  0.0354
 5919ntf    fn432077   7.092   1.325   6.687 -0.9631 -0.3288 -0.1976
 5919ntf    fn432078   7.047   1.504   6.778 -0.2596 -0.0698  0.0533
 5919ntf    on532079   6.925   1.172   6.897  0.5730 -0.1890 -0.5046
 5919ntf    on532080   6.858   1.399   6.960 -0.5066  0.1395 -0.1598
 5919ntf    on532081   6.654   1.410   6.547  0.2606  0.4125  0.3241
 5919ntf    on532082   6.604   1.450   6.792 -0.1675  0.0966  0.2448
 5919ntf    fn432083   6.559   1.165   6.814  0.2175 -0.2160 -0.4168
 5919ntf    fn432084   6.449   1.235   6.646  0.0292 -0.0537 -0.4640
 5919ntf    fn432085   6.627   1.114   6.632  0.0495  0.1583 -0.1351
 5920ntf    cn132086   1.197   0.029   7.398  0.5569  0.5006  0.1507
 5920ntf    sn232087   1.272   0.186   7.345 -0.1783  0.8058  0.0038
 5920ntf    nn332088   1.174   0.234   7.233 -0.4980  0.1591  0.0070
 5920ntf    sn232089   1.068   0.350   7.242 -0.2328  0.4384 -0.4352
 5920ntf    cn132090   1.168   0.501   7.228 -0.1282  0.3970 -0.1423
 5920ntf    fn432091   1.131  -0.027   7.299  0.1537  0.3704  0.4938
 5920ntf    fn432092   1.282  -0.063   7.440  0.0572 -0.1016 -0.1466
 5920ntf    fn432093   1.101   0.035   7.489 -0.0506 -0.1188 -0.4501
 5920ntf    on532094   1.289   0.265   7.465 -0.0794  0.7895  0.0008
 5920ntf    on532095   1.394   0.138   7.286 -0.4735  0.3048 -0.2028
 5920ntf    on532096   1.005   0.362   7.371  0.0718 -0.4560 -0.1910
 5920ntf    on532097   0.993   0.352   7.119 -0.0605  0.4027 -0.5412
 5920ntf    fn432098   1.253   0.521   7.327 -0.2961  0.2099  0.0419
 5920ntf    fn432099   1.241   0.504   7.118 -0.0689 -0.5703 -0.1350
 5920ntf    fn432100   1.093   0.610   7.223 -0.3548  0.2605  0.2175
 5921ntf    cn132101   6.519   4.363   4.162  0.0403 -0.2163 -0.3740
 5921ntf    sn232102   6.535   4.512   4.265  0.2966 -0.4416 -0.0836
 5921ntf    nn332103   6.688   4.542   4.251  0.1523  0.4520  0.1529
 5921ntf    sn232104   6.771   4.631   4.350  0.1639  0.2029  0.3667
 5921ntf    cn132105   6.884   4.501   4.410 -0.2804 -0.1448  0.4552
 5921ntf    fn432106   6.589   4.257   4.199  0.3138  0.4144  0.9800
 5921ntf    fn432107   6.394   4.321   4.156 -0.0208 -0.1911  0.4742
 5921ntf    fn432108   6.552   4.389   4.037  0.2180  0.3602 -0.2118
 5921ntf    on532109   6.456   4.611   4.196  0.9970  0.0990 -0.1257
 5921ntf    on532110   6.481   4.462   4.389  0.7653  0.3473  0.4448
 5921ntf    on532111   6.708   4.680   4.470 -0.3599  0.1004  0.1376
 5921ntf    on532112   6.857   4.716   4.273 -0.1328  0.0743 -0.1083
 5921ntf    fn432113   6.821   4.390   4.448 -0.1050 -0.2622  0.4047
 5921ntf    fn432114   6.969   4.458   4.318 -0.4935  0.0680  0.1560
 5921ntf    fn432115   6.957   4.540   4.513  0.1899 -0.0682  0.0938
 5922ntf    cn132116   5.316   4.809   0.752 -0.2500 -0.2920 -0.0216
 5922ntf    sn232117   5.365   4.982   0.727 -0.0857 -0.3176  0.1167
 5922ntf    nn332118   5.279   5.051   0.840 -0.4484 -0.1037 -0.2842
 5922ntf    sn232119   5.269   5.200   0.887 -0.0590 -0.1916  0.0822
 5922ntf    cn132120   5.118   5.260   0.806  0.1681  0.4518  0.1243
 5922ntf    fn432121   5.322   4.774   0.880 -0.1825 -0.1902  0.0031
 5922ntf    fn432122   5.194   4.781   0.710 -0.2121 -0.1785 -0.2054
 5922ntf    fn432123   5.399   4.724   0.694  0.0300 -0.3415  0.4373
 5922ntf    on532124   5.508   4.979   0.740 -0.0855 -0.3209  0.1132
 5922ntf    on532125   5.309   5.009   0.597 -0.0364  0.3868  0.2333
 5922ntf    on532126   5.368   5.285   0.826 -0.5215  0.4203  0.1783
 5922ntf    on532127   5.249   5.210   1.029  0.8499  0.8990  0.1540
 5922ntf    fn432128   5.103   5.389   0.832 -0.7793  0.4392 -0.3084
 5922ntf    fn432129   5.122   5.262   0.674  0.1405  0.3833  0.1219
 5922ntf    fn432130   5.005   5.202   0.843  0.2045  0.1073 -0.3026
 5923ntf    cn132131   0.475   6.694   6.167 -0.0378 -0.0748  0.3443
 5923ntf    sn232132   0.458   6.785   6.324 -0.2370  0.2134  0.1577
 5923ntf    nn332133   0.606   6.832   6.344 -0.1345 -0.1288  0.2223
 5923ntf    sn232134   0.705   6.841   6.466  0.1176 -0.3150  0.0335
 5923ntf    cn132135   0.666   7.010   6.522 -0.2080 -0.2280 -0.4540
 5923ntf    fn432136   0.530   6.576   6.190  0.4829  0.0274 -0.3511
 5923ntf    fn432137   0.358   6.678   6.108  0.0921 -0.3053  0.1501
 5923ntf    fn432138   0.550   6.754   6.077 -0.6349 -0.4470 -0.4058
 5923ntf    on532139   0.364   6.892   6.300 -0.0735  0.3400  0.0832
 5923ntf    on532140   0.414   6.681   6.414  0.4322 -0.0797  0.1545
 5923ntf    on532141   0.846   6.845   6.437  0.0155 -0.0605 -0.4412
 5923ntf    on532142   0.676   6.756   6.579  0.1654 -0.9010 -0.3961
 5923ntf    fn432143   0.723   7.042   6.637 -0.3301 -0.0681 -0.4369
 5923ntf    fn432144   0.701   7.097   6.428  0.7614  0.2998  0.3825
 5923ntf    fn432145   0.537   7.030   6.547 -0.1767 -0.1037 -0.3932
 5924ntf    cn132146   5.644   4.046   3.909  0.1604 -0.0476 -0.0878
 5924ntf    sn232147   5.501   4.074   4.018 -0.0037  0.1398 -0.3507
 5924ntf    nn332148   5.571   4.143   4.140 -0.0406 -0.1568 -0.1616
 5924ntf    sn232149   5.588   4.071   4.278  0.1933 -0.1732 -0.1981
 5924ntf    cn132150   5.644   4.218   4.369 -0.5270 -0.0333  0.0314
 5924ntf    fn432151   5.729   3.958   3.959 -0.0488 -0.0137  0.3334
 5924ntf    fn432152   5.602   4.001   3.792  0.2014 -0.7040  0.1474
 5924ntf    fn432153   5.713   4.157   3.886  0.3438  0.0214  0.7435
 5924ntf    on532154   5.419   4.166   3.943  0.0978  0.3791 -0.1732
 5924ntf    on532155   5.450   3.940   4.026  0.0658  0.0934 -0.6543
 5924ntf    on532156   5.704   3.986   4.280  0.0468 -0.3750 -0.2290
 5924ntf    on532157   5.470   4.025   4.348  0.1615  0.1888 -0.0089
 5924ntf    fn432158   5.555   4.315   4.364 -0.2725  0.2157  0.2679
 5924ntf    fn432159   5.664   4.185   4.496  0.7639 -0.3154 -0.2300
 5924ntf    fn432160   5.763   4.267   4.337 -0.2948 -0.3905  0.3325
 5925ntf    cn132161   0.152   4.600   1.833  0.3110  0.3118  0.0892
 5925ntf    sn232162   0.320   4.592   1.764  0.1990  0.1862 -0.1674
 5925ntf    nn332163   0.390   4.721   1.819 -0.0218  0.1568  0.1844
 5925ntf    sn232164   0.541   4.727   1.860  0.0736 -0.2547 -0.0970
 5925ntf    cn132165   0.538   4.683   2.036  0.5701 -0.0777 -0.0413
 5925ntf    fn432166   0.085   4.713   1.813 -0.1967 -0.0080 -0.0307
 5925ntf    fn432167   0.078   4.513   1.766  0.1979  0.2218  0.3312
 5925ntf    fn432168   0.143   4.575   1.963 -0.7169  0.1797  0.0010
 5925ntf    on532169   0.365   4.463   1.811 -0.0047 -0.0485 -0.6052
 5925ntf    on532170   0.303   4.595   1.620  0.0902  0.3498 -0.1515
 5925ntf    on532171   0.584   4.864   1.874  0.1095 -0.2211 -0.5043
 5925ntf    on532172   0.634   4.635   1.799  0.1499 -0.0152 -0.3469
 5925ntf    fn432173   0.511   4.554   2.043 -0.0941  0.0749  0.3116
 5925ntf    fn432174   0.656   4.701   2.093  0.2530 -0.0806  0.6291
 5925ntf    fn432175   0.445   4.747   2.105 -0.1276 -0.4936 -0.5820
 5926ntf    cn132176   1.380   1.287   6.451 -0.1142  0.2719 -0.1104
 5926ntf    sn232177   1.551   1.233   6.421 -0.2783 -0.2778 -0.0649
 5926ntf    nn332178   1.627   1.356   6.483 -0.1971 -0.1683 -0.3807
 5926ntf    sn232179   1.660   1.486   6.402 -0.0588  0.0622  0.0408
 5926ntf    cn132180   1.648   1.608   6.536  0.1431  0.5371 -0.3671
 5926ntf    fn432181   1.301   1.201   6.388  0.1040 -0.2448  0.3186
 5926ntf    fn432182   1.344   1.291   6.578 -0.3805  0.1538 -0.1808
 5926ntf    fn432183   1.350   1.404   6.395 -0.3331  0.2734  0.0089
 5926ntf    on532184   1.572   1.115   6.501  0.0566 -0.2460 -0.1031
 5926ntf    on532185   1.559   1.202   6.281  0.2825 -0.3364 -0.0202
 5926ntf    on532186   1.550   1.532   6.320 -0.1016  0.0885  0.1133
 5926ntf    on532187   1.795   1.492   6.352 -0.1956 -0.5200 -0.4145
 5926ntf    fn432188   1.529   1.610   6.595  0.3691  0.3736  0.0989
 5926ntf    fn432189   1.743   1.592   6.627 -1.0656 -0.3354  0.7784
 5926ntf    fn432190   1.665   1.731   6.491  0.2068  0.4961 -0.4553
 5927ntf    cn132191   2.195   3.162   0.326 -0.1021  0.3905  0.2167
 5927ntf    sn232192   2.124   3.084   0.178  0.0224 -0.0683  0.3972
 5927ntf    nn332193   2.046   3.205   0.117 -0.1060  0.0035  0.7006
 5927ntf    sn232194   1.907   3.262   0.164 -0.2559  0.1836  0.0530
 5927ntf    cn132195   1.948   3.440   0.163  0.1344  0.0924 -0.3926
 5927ntf    fn432196   2.115   3.176   0.431 -0.1946  0.3806  0.1479
 5927ntf    fn432197   2.293   3.091   0.379  0.0579  0.6183  0.2262
 5927ntf    fn432198   2.243   3.282   0.302 -0.8013  0.6089 -0.1117
 5927ntf    on532199   2.237   3.053   0.095  0.2965  0.4120  0.5888
 5927ntf    on532200   2.041   2.975   0.225  0.0171 -0.0409  0.4517
 5927ntf    on532201   1.875   3.236   0.302 -0.4030  0.5991  0.1001
 5927ntf    on532202   1.804   3.249   0.065  0.1678 -0.0361 -0.3610
 5927ntf    fn432203   1.842   3.503   0.210  0.4429  0.1470  0.2513
 5927ntf    fn432204   2.050   3.461   0.245 -0.1153 -0.1085 -0.0266
 5927ntf    fn432205   1.976   3.485   0.042  0.2036 -0.8495 -0.7369
 5928ntf    cn132206   0.834   1.685   4.227 -0.2966  0.0748  0.1345
 5928ntf    sn232207   0.797   1.669   4.404 -0.1601 -0.3495  0.1261
 5928ntf    nn332208   0.657   1.598   4.393 -0.2522 -0.1021 -0.3175
 5928ntf    sn232209   0.614   1.447   4.385 -0.3134 -0.1163  0.2548
 5928ntf    cn132210   0.550   1.454   4.215 -0.2676 -0.6250  0.2173
 5928ntf    fn432211   0.929   1.774   4.204 -0.2218 -0.1756 -0.5655
 5928ntf    fn432212   0.871   1.573   4.167 -0.0675  0.0129  0.3937
 5928ntf    fn432213   0.736   1.736   4.154  0.3701  0.3556 -0.5788
 5928ntf    on532214   0.898   1.587   4.466 -0.6087 -0.7391  0.3501
 5928ntf    on532215   0.784   1.802   4.457  0.0816 -0.2291 -0.1214
 5928ntf    on532216   0.499   1.415   4.466 -0.2898  0.0652  0.3630
 5928ntf    on532217   0.719   1.351   4.365 -0.4895 -0.2063 -0.2346
 5928ntf    fn432218   0.534   1.331   4.169  0.2211 -0.6244  0.0373
 5928ntf    fn432219   0.433   1.515   4.210  0.1242  0.0937 -0.2404
 5928ntf    fn432220   0.631   1.515   4.131 -0.4213 -0.4446  0.2008
 5929ntf    cn132221   6.417   7.193   0.718 -0.1250  0.1069 -0.2808
 5929ntf    sn232222   6.356   7.036   0.650 -0.2300  0.0519 -0.0600
 5929ntf    nn332223   6.204   7.072   0.649 -0.0829  0.6838 -0.4024
 5929ntf    sn232224   6.100   7.068   0.767  0.2963  0.0773 -0.0816
 5929ntf    cn132225   5.960   7.160   0.694  0.1957 -0.0519 -0.0514
 5929ntf    fn432226   6.537   7.214   0.666  0.1024 -0.2454  0.0914
 5929ntf    fn432227   6.347   7.301   0.687 -0.8768 -0.1673  0.4327
 5929ntf    fn432228   6.445   7.189   0.847 -0.3746 -0.4359 -0.2407
 5929ntf    on532229   6.415   7.026   0.518  0.2415  0.0556  0.1461
 5929ntf    on532230   6.401   6.935   0.743 -0.7691  0.4307  0.6203
 5929ntf    on532231   6.133   7.159   0.874  0.3972  0.0796 -0.1151
 5929ntf    on532232   6.050   6.937   0.798  0.4843 -0.0389 -0.2666
 5929ntf    fn432233   5.924   7.104   0.580  0.2591 -0.0786 -0.0583
 5929ntf    fn432234   5.855   7.156   0.775  0.2824 -0.0083  0.0632
 5929ntf    fn432235   5.985   7.285   0.662  0.1829 -0.0688 -0.1264
 5930ntf    cn132236   6.648   0.592   4.590 -0.0119  0.2600 -0.1399
 5930ntf    sn232237   6.759   0.509   4.472 -0.1841  0.0944 -0.1890
 5930ntf    nn332238   6.876   0.466   4.568  0.1427 -0.0145 -0.6299
 5930ntf    sn232239   7.001   0.554   4.605  0.0564 -0.0566 -0.2276
 5930ntf    cn132240   7.114   0.504   4.471  0.0668 -0.4075 -0.0887
 5930ntf    fn432241   6.701   0.702   4.638 -0.4539  0.3867  0.0626
 5930ntf    fn432242   6.532   0.624   4.535  0.1309  0.2004 -0.4831
 5930ntf    fn432243   6.618   0.510   4.690  0.1096  0.2197 -0.1359
 5930ntf    on532244   6.693   0.386   4.435 -0.4772  0.1755  0.0663
 5930ntf    on532245   6.791   0.607   4.371  0.2766  0.4678  0.3128
 5930ntf    on532246   7.062   0.506   4.726  0.0528  0.2741 -0.0934
 5930ntf    on532247   6.977   0.696   4.601  0.4346  0.0092 -0.1604
 5930ntf    fn432248   7.069   0.542   4.352 -0.6760 -0.1959  0.2502
 5930ntf    fn432249   7.235   0.557   4.474  0.0319 -0.2960 -0.5277
 5930ntf    fn432250   7.113   0.372   4.473  0.4962 -0.4145 -0.2995
 5931ntf    cn132251   2.521   7.103   5.003 -0.1880 -0.1562 -0.0727
 5931ntf    sn232252   2.494   7.164   5.172 -0.3292  0.2324 -0.2345
 5931ntf    nn332253   2.604   7.085   5.251 -0.4528 -0.0979 -0.3936
 5931ntf    sn232254   2.601   6.942   5.316 -0.0849  0.1195  0.1082
 5931ntf    cn132255   2.546   6.994   5.481 -0.2674  0.3793 -0.0336
 5931ntf    fn432256   2.463   6.986   4.981 -0.1788 -0.2331  0.3031
 5931ntf    fn432257   2.475   7.193   4.917 -0.4766 -0.7235 -0.5138
 5931ntf    fn432258   2.651   7.090   4.980 -0.0742  0.0672  0.4428
 5931ntf    on532259   2.509   7.306   5.150  0.3169  0.2189  0.1095
 5931ntf    on532260   2.359   7.118   5.194 -0.4007  0.5169 -0.0652
 5931ntf    on532261   2.730   6.879   5.331  0.0822  0.4276 -0.0366
 5931ntf    on532262   2.492   6.863   5.263  0.5084 -0.5928 -0.0686
 5931ntf    fn432263   2.625   7.087   5.533  0.1915 -0.0008 -0.0320
 5931ntf    fn432264   2.419   7.030   5.484 -0.2683  0.3971 -0.2694
 5931ntf    fn432265   2.552   6.891   5.564 -1.1593 -0.1157 -0.5656
 5932ntf    cn132266   6.947   3.748   0.299 -0.0338  0.3723  0.2890
 5932ntf    sn232267   6.774   3.701   0.328 -0.0302  0.1758  0.0134
 5932ntf    nn332268   6.723   3.667   0.184  0.1265  0.3000 -0.0720
 5932ntf    sn232269   6.575   3.661   0.130  0.0382  0.0243  0.1959
 5932ntf    cn132270   6.543   3.833   0.081 -0.1137 -0.0593  0.0015
 5932ntf    fn432271   6.958   3.844   0.208 -0.1540  0.0264 -0.0982
 5932ntf    fn432272   7.012   3.793   0.405  0.6573  0.2933 -0.0898
 5932ntf    fn432273   7.024   3.645   0.266 -0.5098 -0.0968  0.6254
 5932ntf    on532274   6.783   3.586   0.414 -0.3380  0.1503  0.0114
 5932ntf    on532275   6.719   3.822   0.385 -0.4049  0.1307 -0.2511
 5932ntf    on532276   6.479   3.632   0.233 -0.2782  0.3016 -0.0194
 5932ntf    on532277   6.569   3.596   0.002  0.1565  0.2320  0.0838
 5932ntf    fn432278   6.531   3.916   0.184 -0.5626 -0.4581  0.2738
 5932ntf    fn432279   6.635   3.889   0.003  0.2842  0.3492  0.7460
 5932ntf    fn432280   6.428   3.842   0.017 -0.2262  0.4395  0.2621
 5933ntf    cn132281   2.849   0.861   1.225 -0.0593 -0.0498  0.1846
 5933ntf    sn232282   2.784   0.834   1.057 -0.2046  0.0630  0.2220
 5933ntf    nn332283   2.913   0.868   0.974  0.0211 -0.3538  0.3997
 5933ntf    sn232284   3.014   0.779   0.892 -0.0694 -0.0368 -0.0623
 5933ntf    cn132285   3.167   0.860   0.948 -0.3125  0.1534  0.3326
 5933ntf    fn432286   2.873   0.991   1.235  0.1546 -0.1098  0.4698
 5933ntf    fn432287   2.767   0.828   1.324  0.0337  0.1350  0.3263
 5933ntf    fn432288   2.965   0.797   1.229  0.2444  0.4938  0.1855
 5933ntf    on532289   2.750   0.695   1.067 -0.2977  0.0588 -0.1758
 5933ntf    on532290   2.670   0.921   1.043  0.0407  0.3871  0.2121
 5933ntf    on532291   3.014   0.804   0.750  0.3716 -0.7519 -0.1898
 5933ntf    on532292   3.031   0.641   0.929  0.9720 -0.0527 -0.5579
 5933ntf    fn432293   3.193   0.971   0.881 -0.0534 -0.0368  0.1172
 5933ntf    fn432294   3.174   0.886   1.078  0.3047  0.2378  0.2848
 5933ntf    fn432295   3.268   0.777   0.927 -0.4110 -0.0001  0.4624
 5934ntf    cn132296   1.280   7.322   2.452  0.3916  0.0918 -0.0712
 5934ntf    sn232297   1.224   7.207   2.582  0.2026  0.1851 -0.0689
 5934ntf    nn332298   1.200   7.303   2.704 -0.6416 -0.0612 -0.0389
 5934ntf    sn232299   1.271   7.309   2.843 -0.2131  0.2105 -0.2654
 5934ntf    cn132300   1.417   7.394   2.777 -0.1694  0.2272 -0.1483
 5934ntf    fn432301   1.178   7.399   2.416  0.4576  0.1829 -0.0622
 5934ntf    fn432302   1.368   7.408   2.500  0.0412  0.3663  0.0878
 5934ntf    fn432303   1.334   7.253   2.353  0.4539  0.5935 -0.3931
 5934ntf    on532304   1.101   7.145   2.541  0.6052 -0.2788 -0.5963
 5934ntf    on532305   1.333   7.114   2.596 -0.0826 -0.0409  0.6683
 5934ntf    on532306   1.315   7.182   2.898  0.1662  0.5666  0.2667
 5934ntf    on532307   1.211   7.402   2.936 -0.1534  0.6631 -0.6823
 5934ntf    fn432308   1.494   7.315   2.704  0.1209  0.4378 -0.0712
 5934ntf    fn432309   1.385   7.500   2.705 -0.3246  0.2985  0.0245
 5934ntf    fn432310   1.497   7.437   2.873  0.3759 -0.4199 -0.3041
 5935ntf    cn132311   4.972   2.526   4.342  0.1746  0.0009  0.2536
 5935ntf    sn232312   5.077   2.562   4.198  0.1416 -0.2258  0.1729
 5935ntf    nn332313   5.079   2.416   4.141 -0.1635 -0.1403 -0.0616
 5935ntf    sn232314   5.082   2.384   3.987 -0.1670 -0.1607 -0.0575
 5935ntf    cn132315   4.904   2.388   3.952 -0.1630  0.2704 -0.0380
 5935ntf    fn432316   4.853   2.477   4.311  0.5836 -0.6511 -0.3307
 5935ntf    fn432317   5.029   2.429   4.412  0.0576 -0.4606 -0.2812
 5935ntf    fn432318   4.952   2.627   4.425 -0.2168 -0.2190  0.4301
 5935ntf    on532319   5.000   2.662   4.128  0.3086 -0.3032 -0.1267
 5935ntf    on532320   5.197   2.605   4.264  0.0779 -0.1714  0.2543
 5935ntf    on532321   5.106   2.246   3.954 -0.5433 -0.1856 -0.2315
 5935ntf    on532322   5.135   2.491   3.906  0.0050 -0.1431  0.0769
 5935ntf    fn432323   4.848   2.505   3.978 -0.3558  0.1129  0.2501
 5935ntf    fn432324   4.870   2.364   3.826 -0.1481 -0.2520  0.0541
 5935ntf    fn432325   4.840   2.301   4.029  0.6071 -0.2868 -0.0160
 5936ntf    cn132326   0.521   7.354   6.571 -0.1560 -0.2517 -0.2033
 5936ntf    sn232327   0.407   7.486   6.621 -0.1017 -0.2138 -0.1779
 5936ntf    nn332328   0.507   7.594   6.674 -0.2534  0.0110 -0.3501
 5936ntf    sn232329   0.476   7.736   6.734  0.1343 -0.0775  0.0647
 5936ntf    cn132330   0.452   7.696   6.909  0.4964  0.1651  0.1720
 5936ntf    fn432331   0.457   7.260   6.503 -0.3000 -0.2773 -0.0319
 5936ntf    fn432332   0.626   7.394   6.500 -0.0922  0.1699  0.1244
 5936ntf    fn432333   0.580   7.292   6.673 -0.5452 -0.4366 -0.0887
 5936ntf    on532334   0.337   7.528   6.502 -0.0870  0.2155 -0.0374
 5936ntf    on532335   0.324   7.425   6.722 -0.1859 -0.2713 -0.2813
 5936ntf    on532336   0.353   7.795   6.687  0.1981  0.1320  0.1634
 5936ntf    on532337   0.593   7.820   6.738 -0.1981  0.4038 -0.2046
 5936ntf    fn432338   0.553   7.632   6.965  0.3037 -0.3487 -0.0584
 5936ntf    fn432339   0.429   7.805   6.981  0.8165  0.4659 -0.1799
 5936ntf    fn432340   0.346   7.620   6.930  0.6703 -0.1743 -0.1723
 5937ntf    cn132341   2.277   5.782   2.164 -0.3013 -0.1571 -0.1207
 5937ntf    sn232342   2.300   5.806   1.986 -0.0348 -0.3341 -0.1119
 5937ntf    nn332343   2.301   5.963   1.981  0.2778 -0.3162  0.5262
 5937ntf    sn232344   2.425   6.059   1.980  0.1719 -0.1844  0.0653
 5937ntf    cn132345   2.364   6.191   2.088 -0.2121 -0.0418 -0.3221
 5937ntf    fn432346   2.368   5.840   2.241 -0.1315  0.0482 -0.4723
 5937ntf    fn432347   2.162   5.828   2.210 -0.4110 -0.5194 -0.0266
 5937ntf    fn432348   2.283   5.653   2.196  0.2002 -0.1883 -0.3228
 5937ntf    on532349   2.426   5.738   1.966  0.1038 -0.0070 -0.3692
 5937ntf    on532350   2.175   5.763   1.927 -0.1476  0.1267 -0.2126
 5937ntf    on532351   2.442   6.123   1.852  0.1296  0.5290  0.4149
 5937ntf    on532352   2.545   6.014   2.047  0.2654  0.7417  0.5287
 5937ntf    fn432353   2.318   6.149   2.205 -0.3884  0.1160 -0.3341
 5937ntf    fn432354   2.466   6.273   2.109 -0.2943  0.0285 -0.1914
 5937ntf    fn432355   2.256   6.254   2.044 -0.2935 -0.0253 -0.1009
 5938ntf    cn132356   3.110   5.987   7.085 -0.1398  0.3392  0.1832
 5938ntf    sn232357   3.292   5.992   7.094 -0.1073 -0.0870 -0.1676
 5938ntf    nn332358   3.323   5.841   7.062  0.2786  0.0555 -0.4655
 5938ntf    sn232359   3.423   5.742   7.131  0.0929  0.1393 -0.0732
 5938ntf    cn132360   3.568   5.746   7.021  0.2028 -0.0364  0.0638
 5938ntf    fn432361   3.061   6.109   7.097  0.0992  0.4972 -0.3813
 5938ntf    fn432362   3.066   5.944   6.967 -0.5171  0.2216  0.3676
 5938ntf    fn432363   3.052   5.909   7.174 -0.0426 -0.0430 -0.0817
 5938ntf    on532364   3.327   6.078   6.985 -0.1910 -0.3597 -0.4118
 5938ntf    on532365   3.314   6.031   7.231 -0.2908 -0.7933  0.0699
 5938ntf    on532366   3.378   5.606   7.115 -0.3339  0.2165  0.4523
 5938ntf    on532367   3.473   5.774   7.263  0.1946  0.5835 -0.2188
 5938ntf    fn432368   3.626   5.865   7.027 -0.3359  0.2471 -0.1800
 5938ntf    fn432369   3.664   5.661   7.051  0.1468 -0.1470 -0.0658
 5938ntf    fn432370   3.538   5.724   6.894  0.1236 -0.2786  0.1247
 5939ntf    cn132371   0.757   6.881   4.620 -0.2714  0.2889  0.5014
 5939ntf    sn232372   0.807   6.750   4.735 -0.1069 -0.0796  0.0154
 5939ntf    nn332373   0.670   6.680   4.770  0.2036 -0.5823  0.2490
 5939ntf    sn232374   0.629   6.529   4.776 -0.5962 -0.3792 -0.0028
 5939ntf    cn132375   0.576   6.503   4.604  0.0220 -0.2223 -0.2188
 5939ntf    fn432376   0.686   6.838   4.517 -0.2994  0.1138  0.5934
 5939ntf    fn432377   0.688   6.974   4.684 -0.5474  0.3959  0.0502
 5939ntf    fn432378   0.870   6.942   4.586 -0.1901 -0.0162  0.2212
 5939ntf    on532379   0.894   6.670   4.653 -0.3586 -0.2825 -0.0576
 5939ntf    on532380   0.871   6.813   4.848  0.0721 -0.3659  0.0750
 5939ntf    on532381   0.510   6.503   4.854 -0.5553 -0.5769 -0.0073
 5939ntf    on532382   0.730   6.427   4.788 -0.1658 -0.0088 -0.4641
 5939ntf    fn432383   0.464   6.564   4.570 -0.0191 -0.2452 -0.1262
 5939ntf    fn432384   0.666   6.546   4.518  0.2323  0.6626  0.4381
 5939ntf    fn432385   0.559   6.374   4.581  0.3848 -0.3295  0.0972
 5940ntf    cn132386   4.690   3.838   5.988  0.0031  0.0281  0.3377
 5940ntf    sn232387   4.543   3.839   5.882  0.1021 -0.2693  0.1970
 5940ntf    nn332388   4.463   3.962   5.936  0.0777  0.0808 -0.6158
 5940ntf    sn232389   4.477   4.115   5.902  0.0924  0.2619  0.1720
 5940ntf    cn132390   4.332   4.131   5.793  0.2123  0.0845 -0.0163
 5940ntf    fn432391   4.759   3.725   5.974  0.1919  0.1744  0.0860
 5940ntf    fn432392   4.772   3.936   5.954 -0.2696  0.2261  0.2567
 5940ntf    fn432393   4.660   3.852   6.116 -0.1253  0.5999  0.2439
 5940ntf    on532394   4.595   3.845   5.747 -0.0919 -0.2306  0.1234
 5940ntf    on532395   4.476   3.717   5.921  0.2293 -0.1612  0.7480
 5940ntf    on532396   4.597   4.151   5.831  0.4084  0.3016  0.7210
 5940ntf    on532397   4.435   4.196   6.013 -0.2454 -0.4074  0.5366
 5940ntf    fn432398   4.307   4.256   5.757 -0.2985 -0.1336 -0.4164
 5940ntf    fn432399   4.343   4.065   5.679 -0.1780  0.3175 -0.1882
 5940ntf    fn432400   4.230   4.077   5.857  0.2063 -0.0514 -0.1377
   7.46955   7.46955   7.46955
