Converted from moscito
15120
    1poe    c31    1   1.670   4.621   0.891 -0.5157  0.0634 -0.7744
    1poe     o2    2   1.584   4.526   0.833 -0.1298 -0.3850 -0.6222
    1poe    c23    3   1.463   4.545   0.903  0.3513 -0.2702  0.1826
    1poe    c23    4   1.352   4.453   0.849 -0.2108  0.4068  0.1735
    1poe     o2    5   1.367   4.472   0.710 -0.3324 -0.0860  0.0901
    1poe    c23    6   1.283   4.398   0.625  0.1728 -0.3323 -0.1954
    1poe    c23    7   1.348   4.386   0.486  0.3239  0.3516 -0.1891
    1poe     o2    8   1.482   4.387   0.531  0.2190  0.2459  0.1229
    1poe    c23    9   1.568   4.403   0.421 -0.1957  0.3254 -0.1958
    1poe    c23   10   1.713   4.402   0.476 -0.4800 -0.5020  0.5677
    1poe     o2   11   1.720   4.497   0.579 -0.1215  0.1121 -0.0139
    1poe    c31   12   1.851   4.541   0.609  0.0633 -0.0187 -0.6228
    2poe    c31   13   5.798   5.434   2.462 -1.0036  0.1253 -0.2923
    2poe     o2   14   5.704   5.371   2.379 -0.8349 -0.2455 -0.2018
    2poe    c23   15   5.719   5.231   2.383 -0.1084 -0.1579  0.3600
    2poe    c23   16   5.628   5.177   2.271  0.5213  0.5011 -0.4819
    2poe     o2   17   5.625   5.274   2.169  0.4551  0.5235 -0.4589
    2poe    c23   18   5.552   5.231   2.056 -0.8213  0.1220  0.4996
    2poe    c23   19   5.576   5.345   1.956 -0.2869 -0.3934  0.0287
    2poe     o2   20   5.548   5.466   2.024  0.4401 -0.0556 -0.2635
    2poe    c23   21   5.629   5.565   1.965 -0.1929  0.5821 -0.0765
    2poe    c23   22   5.640   5.681   2.066 -0.3172  0.4284  0.1134
    2poe     o2   23   5.654   5.620   2.193 -0.2738 -0.2112 -0.1957
    2poe    c31   24   5.649   5.719   2.293 -0.4860 -0.5668  0.1507
    3poe    c31   25   3.588   2.295   6.611  0.4131  0.6919  0.5652
    3poe     o2   26   3.467   2.325   6.544  0.7870  0.7201 -0.1065
    3poe    c23   27   3.365   2.363   6.633  0.5262  0.1398 -0.1497
    3poe    c23   28   3.228   2.366   6.562  0.3658  0.7059  0.1727
    3poe     o2   29   3.232   2.436   6.440 -0.3428  0.2684 -0.1064
    3poe    c23   30   3.156   2.377   6.337 -0.2994  0.0625 -0.0210
    3poe    c23   31   3.228   2.384   6.202 -0.4079 -0.0504 -0.0859
    3poe     o2   32   3.350   2.321   6.236  0.0320  0.7417 -0.1674
    3poe    c23   33   3.432   2.322   6.122 -0.2948  0.3751 -0.4110
    3poe    c23   34   3.555   2.232   6.149 -0.3232  0.4238 -0.1149
    3poe     o2   35   3.610   2.226   6.278  0.2583 -0.0908 -0.3816
    3poe    c31   36   3.748   2.201   6.276  0.1736 -0.6497  0.2015
    4poe    c31   37   1.561   1.254   0.128  0.0371 -0.1783  0.0502
    4poe     o2   38   1.452   1.224   0.043  0.6380 -1.3263 -0.3342
    4poe    c23   39   1.457   1.318  -0.062  0.6417 -0.5010  0.3911
    4poe    c23   40   1.370   1.276  -0.183  0.0879 -0.1649  0.6667
    4poe     o2   41   1.398   1.143  -0.222 -0.0144 -0.0269  0.1147
    4poe    c23   42   1.326   1.097  -0.334 -0.1741  0.3741  0.0517
    4poe    c23   43   1.378   0.953  -0.342  0.3031  0.5521 -0.0776
    4poe     o2   44   1.361   0.885  -0.220  0.0482  0.5472 -0.1145
    4poe    c23   45   1.478   0.815  -0.184 -0.1425  0.0138 -0.5311
    4poe    c23   46   1.476   0.791  -0.032  0.4240 -0.2289 -0.5590
    4poe     o2   47   1.474   0.920   0.026  0.3141 -0.4015 -0.1762
    4poe    c31   48   1.504   0.897   0.162 -0.2954 -0.2460 -0.0092
    5poe    c31   49   3.224   2.087   4.635 -0.3161 -0.0808 -0.0722
    5poe     o2   50   3.115   2.022   4.696 -0.2651  0.1303  0.2492
    5poe    c23   51   3.102   1.903   4.621 -0.2778 -0.4260  1.1243
    5poe    c23   52   2.952   1.869   4.608 -0.3135  0.1803 -0.1215
    5poe     o2   53   2.890   1.905   4.729  0.2917 -0.0059  0.2453
    5poe    c23   54   2.755   1.870   4.747  0.2646  0.1952  0.4389
    5poe    c23   55   2.717   1.916   4.890  0.1229  0.3556  0.3495
    5poe     o2   56   2.814   2.012   4.928  0.3888  0.3317 -0.2443
    5poe    c23   57   2.838   2.027   5.066 -0.1863  0.7200 -0.1830
    5poe    c23   58   2.949   2.133   5.060  0.6620 -0.1258  0.2125
    5poe     o2   59   3.045   2.102   4.961 -0.0473  0.3772 -0.6458
    5poe    c31   60   3.164   2.170   4.995 -0.1847  0.2100  0.1913
    6poe    c31   61   3.017   5.222   5.006  0.0090 -0.1382 -0.2978
    6poe     o2   62   3.076   5.096   4.983  0.1831 -0.0072 -0.5733
    6poe    c23   63   3.119   5.037   5.103 -0.2719 -0.0563 -0.4322
    6poe    c23   64   3.225   4.935   5.058  0.4935  0.4836  0.1166
    6poe     o2   65   3.322   5.018   4.999  0.1446  0.2235 -0.8485
    6poe    c23   66   3.448   4.955   4.994 -0.0926 -0.3244 -0.1040
    6poe    c23   67   3.512   5.025   4.873 -0.5487 -0.1492 -0.2474
    6poe     o2   68   3.423   5.040   4.765 -0.2863  1.4164 -0.2624
    6poe    c23   69   3.408   4.934   4.673  0.3779  0.2180  0.9899
    6poe    c23   70   3.262   4.940   4.624  0.4878  0.3246  0.6776
    6poe     o2   71   3.170   4.976   4.724  0.2375  0.1626  0.5055
    6poe    c31   72   3.034   4.970   4.687  0.3395  0.0211  0.1472
    7poe    c31   73   4.229   1.963   6.740  1.1585 -0.0157  0.1660
    7poe     o2   74   4.182   1.927   6.868  0.3740 -0.4389 -0.2334
    7poe    c23   75   4.048   1.969   6.877  0.6868  0.4972  0.0836
    7poe    c23   76   3.981   1.975   7.016 -0.5280 -0.4003 -0.4465
    7poe     o2   77   4.011   2.094   7.085 -0.0632 -0.6897 -0.1399
    7poe    c23   78   3.959   2.088   7.216  0.4057  0.4625  0.1119
    7poe    c23   79   4.015   2.198   7.309 -0.0579  0.6606  0.1599
    7poe     o2   80   3.977   2.330   7.281  0.0095  0.6634  0.0801
    7poe    c23   81   4.050   2.426   7.354 -0.3841  0.6697  0.4646
    7poe    c23   82   3.988   2.565   7.333 -0.3749  0.6340  0.2074
    7poe     o2   83   3.986   2.565   7.192  0.1009  0.3909  0.1974
    7poe    c31   84   3.942   2.689   7.141  0.4131  0.1145 -0.7619
    8poe    c31   85   1.060   1.162   4.465  0.3484  0.2858  0.1100
    8poe     o2   86   1.088   1.179   4.328  0.2162 -0.3121  0.0080
    8poe    c23   87   1.035   1.084   4.238 -0.3289 -0.8910  0.9211
    8poe    c23   88   1.116   1.077   4.107 -0.4753 -0.0803  0.7825
    8poe     o2   89   1.087   1.182   4.019  0.0673 -0.2646  0.3808
    8poe    c23   90   1.170   1.162   3.906 -0.2226  0.4892  0.0237
    8poe    c23   91   1.094   1.202   3.778 -0.1207 -0.1947 -0.2526
    8poe     o2   92   1.039   1.329   3.802 -0.0383 -0.1471 -0.3154
    8poe    c23   93   0.995   1.376   3.677 -0.0395 -0.1125 -0.3022
    8poe    c23   94   0.888   1.487   3.686  0.1662  0.0237  0.4757
    8poe     o2   95   0.770   1.440   3.748 -0.1635  0.0917 -0.0961
    8poe    c31   96   0.650   1.497   3.703 -0.1412  0.3890  0.2205
    9poe    c31   97   5.066   1.910   0.920  0.2258 -0.1697  0.4209
    9poe     o2   98   5.195   1.908   0.863  0.0200 -0.9456 -0.0377
    9poe    c23   99   5.278   1.807   0.916  0.2230 -0.2580  0.9729
    9poe    c23  100   5.425   1.845   0.887 -0.1009  0.0527 -0.3294
    9poe     o2  101   5.405   1.889   0.755 -0.8733  0.5189 -0.0692
    9poe    c23  102   5.516   1.945   0.690 -0.4725  0.3395  0.4516
    9poe    c23  103   5.481   2.042   0.575 -0.3453  0.0697  0.1805
    9poe     o2  104   5.380   2.127   0.628 -0.1229  0.1821  0.4285
    9poe    c23  105   5.312   2.195   0.525  0.1399 -0.0944  0.0670
    9poe    c23  106   5.168   2.226   0.569  0.1318 -0.1244  0.0621
    9poe     o2  107   5.128   2.107   0.633 -0.2158 -0.2531 -0.3930
    9poe    c31  108   4.988   2.110   0.647 -0.2386  0.1639 -0.6931
   10poe    c31  109   3.860   0.327   6.281  0.0789 -0.2703  0.2284
   10poe     o2  110   3.962   0.423   6.266 -0.1696 -0.0704 -0.2022
   10poe    c23  111   4.071   0.367   6.335 -0.1627 -0.0818 -0.2221
   10poe    c23  112   4.190   0.464   6.341 -0.2268  0.0042 -0.3664
   10poe     o2  113   4.188   0.542   6.223  0.6492  0.2269 -0.2422
   10poe    c23  114   4.229   0.674   6.253 -0.1078  0.4136 -0.0089
   10poe    c23  115   4.200   0.746   6.120  0.2250  0.4382 -0.0682
   10poe     o2  116   4.089   0.677   6.067  0.4972 -0.0172 -0.0490
   10poe    c23  117   4.098   0.648   5.929  0.4483 -0.6370  0.0739
   10poe    c23  118   3.973   0.564   5.902 -0.0912  0.2790 -0.3288
   10poe     o2  119   3.983   0.455   5.992  0.6548  0.4469 -0.2081
   10poe    c31  120   3.993   0.337   5.916 -0.8306  0.2755 -0.1519
   11poe    c31  121   6.471   4.181   1.631  0.1403  0.6858  0.2671
   11poe     o2  122   6.335   4.167   1.666  0.1223 -0.3045 -0.1825
   11poe    c23  123   6.299   4.276   1.748 -0.0016 -0.4373 -0.0571
   11poe    c23  124   6.150   4.260   1.784 -0.1975  0.7682 -0.2852
   11poe     o2  125   6.085   4.220   1.666 -0.0339 -0.6799  0.0994
   11poe    c23  126   5.957   4.161   1.681 -0.2521 -0.2766 -0.1543
   11poe    c23  127   5.938   4.065   1.562  0.1469  0.6364 -0.9736
   11poe     o2  128   6.058   3.991   1.555 -0.2599 -0.1244 -0.0470
   11poe    c23  129   6.075   3.895   1.453  0.4063 -0.0662  0.0081
   11poe    c23  130   6.217   3.835   1.456  0.1859 -0.5621  0.7369
   11poe     o2  131   6.309   3.932   1.500 -0.4118  0.3624 -0.0087
   11poe    c31  132   6.433   3.866   1.483 -0.5013  0.2155 -0.0965
   12poe    c31  133   2.085   4.539   0.923  0.2578 -0.1876 -0.9462
   12poe     o2  134   2.207   4.601   0.889  0.4568  0.0947  0.2240
   12poe    c23  135   2.229   4.705   0.981 -0.5736  0.0002  0.5893
   12poe    c23  136   2.224   4.827   0.887 -0.0578 -0.0500  0.4925
   12poe     o2  137   2.298   4.805   0.769 -0.8494 -0.0939 -0.0017
   12poe    c23  138   2.256   4.867   0.649  0.2776  0.5422 -0.0866
   12poe    c23  139   2.328   4.769   0.555 -0.1568  0.1554 -0.0262
   12poe     o2  140   2.292   4.641   0.599 -0.0352 -0.0454 -0.4968
   12poe    c23  141   2.359   4.547   0.517  0.3171 -0.0015 -0.2635
   12poe    c23  142   2.333   4.410   0.581  0.4165  0.1894  0.1900
   12poe     o2  143   2.345   4.426   0.721 -0.8803 -0.1648  0.3549
   12poe    c31  144   2.350   4.308   0.798  0.1352 -0.3190  0.0602
   13poe    c31  145   4.009   5.326   4.190 -0.6315 -0.0469  0.0586
   13poe     o2  146   4.126   5.394   4.149 -0.3018 -0.8181 -0.2875
   13poe    c23  147   4.213   5.409   4.259 -0.6816 -0.9280  0.0300
   13poe    c23  148   4.332   5.501   4.227 -0.9738 -0.6065 -0.1356
   13poe     o2  149   4.392   5.449   4.110 -0.0293  0.1155  0.0138
   13poe    c23  150   4.456   5.549   4.034  0.1847 -0.0189  0.0152
   13poe    c23  151   4.476   5.514   3.886  0.1954 -0.8519  0.2058
   13poe     o2  152   4.345   5.471   3.857  0.0101  0.2786 -0.6962
   13poe    c23  153   4.329   5.416   3.728  0.8525 -0.3485 -0.5401
   13poe    c23  154   4.178   5.392   3.706  0.5549  0.6815  0.2984
   13poe     o2  155   4.135   5.355   3.835 -0.1053 -0.8849 -0.3375
   13poe    c31  156   3.998   5.324   3.823 -0.5113  0.5211  0.3805
   14poe    c31  157   4.001   4.223   5.848  0.6106  0.0761  0.6286
   14poe     o2  158   3.981   4.363   5.853  0.3330  0.0634 -0.0251
   14poe    c23  159   4.027   4.407   5.727 -0.0222 -0.2956 -0.2832
   14poe    c23  160   4.027   4.559   5.752  0.1089 -0.3559  0.1000
   14poe     o2  161   4.127   4.583   5.848  0.1872  0.0958 -0.0944
   14poe    c23  162   4.168   4.718   5.847 -0.0258  0.1614  0.1567
   14poe    c23  163   4.284   4.737   5.947  0.1229  0.1329 -0.0112
   14poe     o2  164   4.253   4.683   6.073 -0.5997  0.6739  0.0494
   14poe    c23  165   4.306   4.776   6.165  0.6993 -0.1140  0.1279
   14poe    c23  166   4.296   4.717   6.307  0.0703  0.0543  0.1568
   14poe     o2  167   4.165   4.672   6.331 -0.1287  0.5260 -0.0404
   14poe    c31  168   4.174   4.636   6.467 -0.0491  0.2650 -0.1150
   15poe    c31  169   4.922   6.521   3.556  0.3282 -0.2641 -0.0876
   15poe     o2  170   4.845   6.480   3.667 -0.5220  0.1216 -0.5244
   15poe    c23  171   4.867   6.341   3.669  0.4837  0.2765 -0.5336
   15poe    c23  172   4.744   6.268   3.725  0.0458  0.4455 -1.2701
   15poe     o2  173   4.700   6.341   3.838  0.3479 -0.6277 -0.4454
   15poe    c23  174   4.585   6.312   3.913  0.9601 -0.0162  0.7489
   15poe    c23  175   4.529   6.443   3.971  0.3354  0.0039  0.1077
   15poe     o2  176   4.571   6.556   3.897 -0.2682  0.2732  0.1676
   15poe    c23  177   4.600   6.668   3.977  0.4134  0.1942  0.0385
   15poe    c23  178   4.613   6.788   3.881  0.8570  0.0003 -0.1435
   15poe     o2  179   4.704   6.732   3.789  0.5308 -0.0968 -0.4096
   15poe    c31  180   4.736   6.836   3.699  0.2825  0.2904 -0.0532
   16poe    c31  181   2.409   6.711   1.800 -0.4608 -0.6435  0.2569
   16poe     o2  182   2.334   6.825   1.765  0.5364  0.1430  0.6281
   16poe    c23  183   2.226   6.807   1.675  0.2536  0.0003  0.9931
   16poe    c23  184   2.145   6.936   1.652  0.2933 -0.1513 -0.0053
   16poe     o2  185   2.103   6.998   1.771 -0.1521 -0.2183 -0.1237
   16poe    c23  186   2.059   7.129   1.741 -0.0624 -0.1977 -0.1662
   16poe    c23  187   1.955   7.169   1.847  0.5195  0.7593  0.0579
   16poe     o2  188   2.010   7.142   1.974 -0.0641 -0.1581  0.1266
   16poe    c23  189   1.901   7.157   2.062 -0.1934  0.3182 -0.1141
   16poe    c23  190   1.927   7.128   2.211  0.4306 -0.5010 -0.3817
   16poe     o2  191   1.937   6.987   2.211 -0.0692 -0.5364 -0.8646
   16poe    c31  192   1.839   6.928   2.293  0.3161  0.6867  0.5050
   17poe    c31  193   4.243   0.124   3.088 -0.3436 -0.0447  1.1130
   17poe     o2  194   4.130   0.117   3.004  0.4191 -0.5718  0.1092
   17poe    c23  195   4.026   0.195   3.059  0.6650  0.0984 -0.3555
   17poe    c23  196   3.905   0.177   2.965  0.6312  0.0023 -0.2938
   17poe     o2  197   3.921   0.062   2.885 -0.4501 -0.5891  0.3230
   17poe    c23  198   3.821   0.045   2.787 -0.4023 -0.4484  0.2505
   17poe    c23  199   3.882  -0.081   2.723 -0.8768 -0.6399  0.1768
   17poe     o2  200   4.021  -0.074   2.706 -0.8724 -0.4683  0.2878
   17poe    c23  201   4.099  -0.187   2.673 -0.1593  0.2648 -0.5940
   17poe    c23  202   4.244  -0.142   2.700  0.0536 -0.8282  0.1131
   17poe     o2  203   4.256  -0.079   2.826  0.2724  0.1408 -0.3881
   17poe    c31  204   4.391  -0.075   2.865  0.3020  0.2355 -0.5000
   18poe    c31  205   1.936   6.744   1.898 -0.0822 -0.2699  0.3325
   18poe     o2  206   2.032   6.821   1.967  0.0849 -0.1155 -0.0660
   18poe    c23  207   2.063   6.756   2.089  0.1169 -0.5601 -0.3096
   18poe    c23  208   2.204   6.810   2.119 -0.1262 -0.5479  0.8362
   18poe     o2  209   2.200   6.950   2.100 -0.1619 -0.6331  0.2061
   18poe    c23  210   2.298   7.023   2.169 -0.2906  0.6231 -0.9089
   18poe    c23  211   2.390   7.087   2.063  0.4586 -0.2511 -0.7972
   18poe     o2  212   2.298   7.148   1.976  0.0523  0.1558 -0.0923
   18poe    c23  213   2.367   7.225   1.880 -0.0478 -0.2953 -0.5275
   18poe    c23  214   2.374   7.372   1.924 -0.5341 -0.5878  0.5557
   18poe     o2  215   2.261   7.456   1.922 -0.1224 -0.0368  0.2363
   18poe    c31  216   2.191   7.452   2.044 -0.3152 -0.6927  0.1052
   19poe    c31  217   3.841   6.604   2.152 -0.0844  1.1247  0.0732
   19poe     o2  218   3.922   6.694   2.081  0.6854  0.2802 -0.1481
   19poe    c23  219   3.853   6.818   2.082  0.1031 -0.0439  1.2281
   19poe    c23  220   3.954   6.934   2.078 -0.0957  0.0966 -0.3824
   19poe     o2  221   4.039   6.898   1.971 -0.1133 -0.5109 -0.1987
   19poe    c23  222   4.155   6.976   1.953  0.2142 -1.0115 -0.2590
   19poe    c23  223   4.229   6.889   1.850  0.3679 -0.3852 -0.6813
   19poe     o2  224   4.212   6.757   1.896 -0.6187 -0.0814 -0.1524
   19poe    c23  225   4.243   6.665   1.794 -0.1203  0.0662 -0.1355
   19poe    c23  226   4.173   6.529   1.816 -0.4236  0.2847  0.2552
   19poe     o2  227   4.047   6.559   1.871 -0.3880  0.3202  0.3177
   19poe    c31  228   3.982   6.434   1.877  0.2631 -0.0036  0.7567
   20poe    c31  229   4.533   2.523   2.702  0.5910  0.1303  0.0909
   20poe     o2  230   4.500   2.622   2.607 -0.1547  0.0137  0.2153
   20poe    c23  231   4.559   2.745   2.643  0.4694 -0.3560  0.4881
   20poe    c23  232   4.624   2.785   2.509 -0.5089  0.2892  0.1962
   20poe     o2  233   4.529   2.773   2.405 -0.0129 -0.4702 -0.1797
   20poe    c23  234   4.566   2.804   2.273 -0.6191  0.4366 -0.1492
   20poe    c23  235   4.441   2.796   2.184 -0.5492  0.6809 -0.2708
   20poe     o2  236   4.353   2.697   2.232 -0.1586  0.1258 -0.6962
   20poe    c23  237   4.354   2.586   2.144 -0.1390 -0.2878 -0.1792
   20poe    c23  238   4.297   2.466   2.222  0.2227 -0.2969  0.0759
   20poe     o2  239   4.377   2.465   2.338  1.1218 -0.2687 -0.5334
   20poe    c31  240   4.400   2.329   2.368 -0.0552 -0.2490  0.5417
   21poe    c31  241   2.891   5.554   4.851  0.4089  0.3978  0.0996
   21poe     o2  242   2.827   5.628   4.749  1.2082  0.5487 -0.2996
   21poe    c23  243   2.756   5.729   4.816 -0.1438 -0.6841  0.1743
   21poe    c23  244   2.678   5.823   4.722  0.2526 -0.6691 -0.1420
   21poe     o2  245   2.617   5.720   4.647 -0.4872 -0.3085 -0.0503
   21poe    c23  246   2.584   5.771   4.520  0.6078 -0.2163 -0.3109
   21poe    c23  247   2.501   5.656   4.462  0.1371 -0.1206  0.1614
   21poe     o2  248   2.570   5.536   4.490 -0.1332 -0.3153  0.0047
   21poe    c23  249   2.476   5.438   4.529  0.1600 -0.6190 -0.0470
   21poe    c23  250   2.557   5.318   4.582 -0.0812 -0.8672 -0.2376
   21poe     o2  251   2.652   5.373   4.671 -0.8566 -0.1373  0.1490
   21poe    c31  252   2.681   5.285   4.778  0.1219  0.0475  0.0382
   22poe    c31  253   1.685   0.463   4.358  0.0169 -0.6861  0.4311
   22poe     o2  254   1.775   0.536   4.437  0.1373  0.1117 -0.4298
   22poe    c23  255   1.864   0.618   4.363 -0.1056  0.6548 -0.1282
   22poe    c23  256   1.983   0.673   4.443  0.1164 -0.0511  0.0401
   22poe     o2  257   1.934   0.742   4.556  0.4946  0.0080  0.1691
   22poe    c23  258   2.021   0.748   4.667  0.0249  0.0020  0.5409
   22poe    c23  259   1.926   0.795   4.779 -0.1493  0.1592  0.3251
   22poe     o2  260   1.819   0.703   4.770 -0.3432  0.4394 -0.3724
   22poe    c23  261   1.815   0.614   4.879 -0.4271  0.6013 -0.2423
   22poe    c23  262   1.691   0.524   4.864  0.5693 -0.8429 -0.0550
   22poe     o2  263   1.680   0.480   4.731 -0.4062  0.3562 -0.3867
   22poe    c31  264   1.556   0.419   4.704 -0.3942  0.1540  0.0111
   23poe    c31  265   0.754   0.331   6.270  0.9520  0.0336  0.3268
   23poe     o2  266   0.732   0.249   6.383  0.1197 -0.2940 -0.0671
   23poe    c23  267   0.631   0.295   6.470 -0.0728 -0.4423 -0.2114
   23poe    c23  268   0.635   0.203   6.594 -0.6370 -0.1874  0.0038
   23poe     o2  269   0.640   0.068   6.555  0.3256 -0.0963 -0.2097
   23poe    c23  270   0.648  -0.032   6.654  0.3576  0.2300  0.1201
   23poe    c23  271   0.727  -0.148   6.589  0.0778 -0.2530  0.6373
   23poe     o2  272   0.837  -0.077   6.537 -0.0858 -0.3263  0.1901
   23poe    c23  273   0.926  -0.157   6.462 -0.0109  0.4457 -0.5587
   23poe    c23  274   1.034  -0.066   6.401  0.5023 -0.2438 -0.6913
   23poe     o2  275   0.977   0.060   6.372 -0.2170 -0.3242  0.3221
   23poe    c31  276   1.066   0.163   6.337 -0.7464 -0.0689 -0.3238
   24poe    c31  277   3.719   6.087   4.096 -0.5302  0.8408 -0.1719
   24poe     o2  278   3.805   6.183   4.041  0.1688 -0.0256 -0.6240
   24poe    c23  279   3.773   6.192   3.904 -1.1796 -0.1195 -0.3218
   24poe    c23  280   3.816   6.331   3.854 -0.2778 -0.3338 -0.1471
   24poe     o2  281   3.945   6.350   3.908  0.0194 -0.8183 -0.6726
   24poe    c23  282   3.981   6.485   3.885 -0.1467 -0.6994 -0.2352
   24poe    c23  283   4.121   6.490   3.949  0.0900 -0.4068 -0.7763
   24poe     o2  284   4.114   6.422   4.072  0.3421  0.7697 -0.0877
   24poe    c23  285   4.078   6.501   4.183 -0.6537  0.0049  0.1579
   24poe    c23  286   4.043   6.405   4.297 -0.2526  0.6484  0.8297
   24poe     o2  287   3.944   6.327   4.234  0.2654  0.3977  0.3221
   24poe    c31  288   3.843   6.299   4.328  0.2766  0.0077  0.2226
   25poe    c31  289   0.881   0.212   4.591 -0.3536  0.7823 -0.7330
   25poe     o2  290   0.961   0.255   4.698 -0.1154 -0.5145 -0.3755
   25poe    c23  291   0.950   0.390   4.657  0.0674 -0.4638 -0.2589
   25poe    c23  292   1.083   0.457   4.698  0.0222 -0.5411  0.0137
   25poe     o2  293   1.095   0.406   4.829 -0.2546 -0.3347  0.1222
   25poe    c23  294   1.223   0.428   4.885 -0.1902 -0.9076  0.2084
   25poe    c23  295   1.211   0.360   5.022 -0.2377 -0.0843  0.6138
   25poe     o2  296   1.143   0.238   5.005 -0.1043 -0.0491 -0.2070
   25poe    c23  297   1.194   0.128   5.077  0.0528  0.3381  0.2824
   25poe    c23  298   1.089   0.020   5.045  0.4276  0.0917 -0.1381
   25poe     o2  299   1.054   0.028   4.909  0.4031 -0.6615 -0.1810
   25poe    c31  300   1.013  -0.093   4.849 -0.4963 -0.4548  0.0130
   26poe    c31  301   1.160   3.589   2.812 -0.3148 -0.0013 -0.3883
   26poe     o2  302   1.157   3.501   2.701 -0.3579 -0.3564 -0.1080
   26poe    c23  303   1.151   3.364   2.732  0.2660 -0.4053 -0.1998
   26poe    c23  304   1.218   3.289   2.615 -0.0275 -0.7287 -0.1638
   26poe     o2  305   1.157   3.349   2.503  0.5250 -0.6854 -0.4465
   26poe    c23  306   1.182   3.270   2.389  0.2303 -0.7768 -0.4491
   26poe    c23  307   1.089   3.341   2.289 -0.1989 -0.0260  0.4635
   26poe     o2  308   1.107   3.477   2.322 -0.1484 -0.0349  0.4717
   26poe    c23  309   1.020   3.577   2.275 -0.1186 -0.1312  0.2056
   26poe    c23  310   0.900   3.574   2.372 -0.4392 -1.1778 -0.2091
   26poe     o2  311   0.941   3.578   2.507 -0.2892 -0.3714 -0.2707
   26poe    c31  312   0.836   3.585   2.602  0.1346  0.0040  0.1717
   27poe    c31  313   3.336   6.843   4.377 -0.7024  0.4272  0.4067
   27poe     o2  314   3.397   6.923   4.278 -0.1196 -0.4092  0.0734
   27poe    c23  315   3.514   6.972   4.338 -0.1921 -0.0769 -0.0552
   27poe    c23  316   3.589   7.064   4.240 -0.8227  0.3618 -0.1372
   27poe     o2  317   3.590   6.996   4.116 -0.0290  0.4944 -0.2138
   27poe    c23  318   3.644   7.067   4.007  0.5027 -0.3341 -0.5019
   27poe    c23  319   3.584   7.008   3.878 -0.1504 -0.5329 -0.1142
   27poe     o2  320   3.451   6.982   3.918 -0.0683 -0.4585  0.2119
   27poe    c23  321   3.376   6.910   3.823 -0.5278 -0.0419  0.2595
   27poe    c23  322   3.239   6.905   3.893 -0.5594  0.9995  0.2983
   27poe     o2  323   3.254   6.880   4.031  0.3644 -0.4075 -0.0253
   27poe    c31  324   3.124   6.869   4.085  0.1419  0.6022 -0.3352
   28poe    c31  325   0.783   1.608   4.669  0.2520 -0.1117  0.3116
   28poe     o2  326   0.838   1.661   4.788  0.9365  0.2592 -0.1625
   28poe    c23  327   0.748   1.766   4.815  0.2965 -0.2263 -0.3740
   28poe    c23  328   0.796   1.828   4.948 -0.0026 -0.3311 -0.2155
   28poe     o2  329   0.858   1.735   5.034 -0.0094  0.1423  0.3076
   28poe    c23  330   0.948   1.789   5.127  0.3094 -0.2607  0.2355
   28poe    c23  331   1.025   1.665   5.176  0.7066 -0.2605 -0.3875
   28poe     o2  332   1.051   1.593   5.057 -0.4825 -1.0404 -0.1903
   28poe    c23  333   1.182   1.542   5.050  0.0787  0.2714  0.5133
   28poe    c23  334   1.178   1.454   4.925 -0.6423 -0.0747  0.7760
   28poe     o2  335   1.082   1.523   4.848 -0.1297 -0.0745  0.1282
   28poe    c31  336   1.123   1.503   4.714 -0.8614  0.1012 -0.1262
   29poe    c31  337   2.091   3.093   1.628  0.0681 -0.0991  0.1814
   29poe     o2  338   2.052   2.977   1.558 -0.2797  0.2600 -0.2219
   29poe    c23  339   2.009   3.026   1.433 -0.1404  0.0341 -0.3594
   29poe    c23  340   1.891   2.940   1.383 -0.5855  0.1377  0.4922
   29poe     o2  341   1.934   2.806   1.396 -0.0149  0.0750 -1.6548
   29poe    c23  342   1.839   2.718   1.341 -0.9859 -0.2803  0.4786
   29poe    c23  343   1.893   2.574   1.355  0.3075  0.1293 -0.1147
   29poe     o2  344   1.951   2.546   1.480  0.0340  0.3250  0.0580
   29poe    c23  345   2.083   2.494   1.477 -0.0127  0.2316 -0.7067
   29poe    c23  346   2.185   2.602   1.439  0.4258  0.1102  0.0959
   29poe     o2  347   2.193   2.717   1.521 -0.8486 -0.1463  0.5931
   29poe    c31  348   2.293   2.793   1.457 -0.6940 -0.7616  0.0889
   30poe    c31  349   0.623   0.455   3.247 -0.2815 -0.5617  0.0596
   30poe     o2  350   0.542   0.371   3.327 -0.1395 -0.5745  0.1896
   30poe    c23  351   0.451   0.443   3.407  0.3499  0.0892  0.1543
   30poe    c23  352   0.447   0.377   3.546  0.1730 -0.5670 -0.1586
   30poe     o2  353   0.418   0.248   3.497 -0.2989 -0.2088 -0.8352
   30poe    c23  354   0.399   0.146   3.592  0.0253  0.0672 -0.4714
   30poe    c23  355   0.533   0.073   3.571 -0.0195 -0.1095 -0.1573
   30poe     o2  356   0.570   0.076   3.435 -0.3230 -0.4409 -0.2487
   30poe    c23  357   0.696   0.018   3.408 -0.4086 -0.6248 -0.2543
   30poe    c23  358   0.705   0.009   3.255 -0.3395 -1.0498 -0.2268
   30poe     o2  359   0.650   0.129   3.203 -0.6663 -0.8923  0.4691
   30poe    c31  360   0.625   0.105   3.067 -0.4098 -0.6067  0.3708
   31poe    c31  361   0.125   6.112   4.655  0.3565 -0.8092  0.1486
   31poe     o2  362   0.090   6.082   4.522 -0.4161 -0.0966  0.1831
   31poe    c23  363   0.100   5.946   4.486 -0.1228  0.0013 -0.1178
   31poe    c23  364   0.168   5.930   4.349 -0.0818  0.1797 -0.1188
   31poe     o2  365   0.103   6.038   4.285 -0.8278 -0.1158  0.1343
   31poe    c23  366   0.175   6.090   4.176 -0.2419  0.1225  0.6274
   31poe    c23  367   0.097   6.212   4.125 -0.0774  0.0673  0.2375
   31poe     o2  368   0.071   6.280   4.246 -0.1083 -0.0165  0.2777
   31poe    c23  369   0.014   6.409   4.245 -0.0104  0.0255  0.0100
   31poe    c23  370  -0.007   6.449   4.392  0.6228 -0.2039  0.1646
   31poe     o2  371  -0.067   6.333   4.445 -0.2642 -0.0826 -0.5488
   31poe    c31  372  -0.119   6.352   4.575  0.5099 -0.3318 -0.1985
   32poe    c31  373   2.713   5.820   2.285 -0.1950  0.1263  0.0402
   32poe     o2  374   2.597   5.877   2.228 -0.0873  0.2794 -0.0261
   32poe    c23  375   2.502   5.773   2.224  0.4778 -0.2989  1.1868
   32poe    c23  376   2.375   5.844   2.174  0.8924 -0.2687  0.1512
   32poe     o2  377   2.400   5.903   2.049  0.1636 -0.9509 -0.3270
   32poe    c23  378   2.288   5.982   2.014  1.0522  0.3258 -0.3741
   32poe    c23  379   2.356   6.091   1.929 -0.3612  0.9759 -0.6867
   32poe     o2  380   2.472   6.134   1.997 -0.4547  0.2381 -0.0524
   32poe    c23  381   2.551   6.227   1.927 -0.0280 -0.0233  0.0812
   32poe    c23  382   2.666   6.237   2.029  0.1199  0.4154 -0.1241
   32poe     o2  383   2.699   6.121   2.103 -0.4827  0.5961  0.4422
   32poe    c31  384   2.823   6.149   2.164  0.1140 -0.1293 -0.4166
   33poe    c31  385   0.964   5.990   3.755 -0.0818 -0.2488 -0.0888
   33poe     o2  386   0.908   5.883   3.828  0.4809 -0.2925  0.2850
   33poe    c23  387   0.843   5.939   3.940 -0.3875 -0.2069 -0.2571
   33poe    c23  388   0.747   5.829   3.989 -0.6595 -0.1689 -0.6898
   33poe     o2  389   0.802   5.705   3.951  0.2136 -0.0161  0.0312
   33poe    c23  390   0.715   5.596   3.967  0.1696 -0.0293 -0.2990
   33poe    c23  391   0.786   5.490   3.880 -0.1818  0.0091 -0.6389
   33poe     o2  392   0.880   5.553   3.796  0.2748 -0.0046 -0.1472
   33poe    c23  393   0.865   5.487   3.672 -0.3085 -0.5794  0.2281
   33poe    c23  394   0.985   5.503   3.578 -0.1351 -0.3245  0.4938
   33poe     o2  395   1.021   5.640   3.588  0.0994 -0.2813 -0.7479
   33poe    c31  396   1.127   5.677   3.503  0.0227  0.0957 -0.6801
   34poe    c31  397   1.397   3.157   3.006  0.7221 -0.0496 -0.2651
   34poe     o2  398   1.425   3.161   3.145  0.2529 -0.5722 -0.1537
   34poe    c23  399   1.524   3.260   3.159 -0.4351  0.1519 -0.3536
   34poe    c23  400   1.492   3.335   3.291 -0.1758  0.4325 -0.4483
   34poe     o2  401   1.460   3.251   3.399  0.8572  0.3681 -0.1758
   34poe    c23  402   1.433   3.339   3.506 -0.5406 -0.7452  0.4347
   34poe    c23  403   1.407   3.249   3.628 -0.4412 -0.9179  0.3285
   34poe     o2  404   1.312   3.163   3.570 -0.1796 -0.6638 -0.4856
   34poe    c23  405   1.278   3.043   3.635 -0.2493  0.0496  0.8147
   34poe    c23  406   1.186   2.971   3.535  0.0449  0.7790  0.0104
   34poe     o2  407   1.252   2.971   3.410  0.0250  0.5676  0.0007
   34poe    c31  408   1.183   2.889   3.319  0.6135  0.3116 -0.2213
   35poe    c31  409   4.495   4.053   3.999  0.6522  0.5108  0.8872
   35poe     o2  410   4.365   4.064   3.946  0.8708 -0.3990  0.1443
   35poe    c23  411   4.363   4.055   3.805  0.5444 -0.6288  0.1621
   35poe    c23  412   4.268   4.167   3.758  0.4477 -0.7585  0.0506
   35poe     o2  413   4.157   4.165   3.845  0.7230  0.8302  0.4555
   35poe    c23  414   4.081   4.284   3.835 -0.1610  0.2622  0.3376
   35poe    c23  415   3.992   4.295   3.961 -0.6270 -0.4513  0.0764
   35poe     o2  416   4.083   4.258   4.062 -0.5100  0.0567  0.1586
   35poe    c23  417   4.028   4.219   4.186 -0.5405  0.0490  0.1431
   35poe    c23  418   4.151   4.160   4.258 -0.3132 -0.0034 -0.2829
   35poe     o2  419   4.211   4.063   4.176 -0.1401 -0.4627  0.3858
   35poe    c31  420   4.290   3.992   4.269 -0.2501 -0.2390  0.6505
   36poe    c31  421   2.790   3.695   0.452  0.6929 -0.1457  0.2167
   36poe     o2  422   2.758   3.759   0.330  0.3471 -0.4543  0.1456
   36poe    c23  423   2.845   3.711   0.230  0.4042 -0.3419  0.1413
   36poe    c23  424   2.765   3.698   0.099  0.5538  0.1261  0.0036
   36poe     o2  425   2.685   3.813   0.083  0.4972  0.0306 -0.4105
   36poe    c23  426   2.620   3.826  -0.041  0.3672  0.0838 -0.3372
   36poe    c23  427   2.475   3.874  -0.024  0.1542 -0.5219 -0.4326
   36poe     o2  428   2.488   3.954   0.091 -0.5388  0.1838 -0.8367
   36poe    c23  429   2.369   3.937   0.165 -0.1956  0.1298 -0.2923
   36poe    c23  430   2.408   3.976   0.309 -0.0577 -0.0780 -0.2734
   36poe     o2  431   2.520   3.908   0.360 -0.1011 -0.6339 -0.9042
   36poe    c31  432   2.534   3.966   0.488 -0.3651 -1.0273 -0.6947
   37poe    c31  433   5.163   3.581   2.476  0.2080 -0.6191  0.1276
   37poe     o2  434   5.038   3.531   2.435 -0.3667  0.5192  0.4533
   37poe    c23  435   4.931   3.618   2.468 -0.3181  0.8168 -0.1607
   37poe    c23  436   4.810   3.571   2.385 -0.1794  0.2674 -0.0589
   37poe     o2  437   4.792   3.431   2.382 -0.2390  0.2718  0.0650
   37poe    c23  438   4.700   3.398   2.281  0.3748 -0.3967 -0.2844
   37poe    c23  439   4.716   3.249   2.246 -0.1560 -0.5685  0.2033
   37poe     o2  440   4.849   3.210   2.220 -0.3662 -0.5214 -0.9838
   37poe    c23  441   4.875   3.097   2.300  0.1738  0.5264  0.3591
   37poe    c23  442   5.028   3.081   2.309  0.1039 -0.4343 -0.0792
   37poe     o2  443   5.074   3.202   2.365 -0.0531 -0.3740 -0.0777
   37poe    c31  444   5.209   3.187   2.403 -0.0023 -0.0006 -0.1104
   38poe    c31  445   1.337   5.148   2.483 -0.8464  0.0664 -0.2997
   38poe     o2  446   1.458   5.219   2.467 -0.5579 -0.0926  1.0087
   38poe    c23  447   1.538   5.204   2.582  0.3876 -0.0266  0.3677
   38poe    c23  448   1.629   5.323   2.617 -0.3848  0.5361  0.4831
   38poe     o2  449   1.678   5.355   2.488  0.1077  0.1868  0.5816
   38poe    c23  450   1.793   5.438   2.487  0.0121  0.3175 -0.1000
   38poe    c23  451   1.854   5.422   2.347  0.3189  0.0784  0.0614
   38poe     o2  452   1.753   5.375   2.261  0.7271  0.0054 -0.3815
   38poe    c23  453   1.808   5.277   2.175  0.3984  0.2016 -0.8197
   38poe    c23  454   1.680   5.230   2.105  0.1403  0.0164 -0.2301
   38poe     o2  455   1.568   5.214   2.190  0.3339  0.0680  0.0349
   38poe    c31  456   1.472   5.140   2.118  0.4597 -0.1580  0.0992
   39poe    c31  457   1.735   6.712   6.291  0.8930  0.1150 -0.6371
   39poe     o2  458   1.758   6.850   6.273 -0.7053  0.4831  0.0227
   39poe    c23  459   1.758   6.901   6.405 -0.5389  0.3128  0.0897
   39poe    c23  460   1.678   7.033   6.401 -1.0372  0.0164  0.1206
   39poe     o2  461   1.735   7.111   6.298 -0.3493 -0.0890  0.4101
   39poe    c23  462   1.645   7.207   6.248  0.2671  0.2556 -0.0497
   39poe    c23  463   1.712   7.261   6.121 -0.0005  0.0749 -0.2677
   39poe     o2  464   1.737   7.140   6.052  0.2836 -0.0156 -0.0041
   39poe    c23  465   1.842   7.145   5.958 -0.2826 -0.0059 -0.6341
   39poe    c23  466   1.841   7.005   5.893 -0.9606 -0.5639  0.5608
   39poe     o2  467   1.855   6.902   5.989 -0.2147 -0.4663  0.5568
   39poe    c31  468   1.840   6.774   5.933  0.5360 -0.3702  0.1162
   40poe    c31  469   2.646   1.533   5.732 -0.4036 -0.2899  1.0563
   40poe     o2  470   2.669   1.670   5.759 -0.0087 -0.1962  0.2771
   40poe    c23  471   2.804   1.694   5.793 -0.0117 -0.2518  0.3293
   40poe    c23  472   2.804   1.826   5.872  0.4017 -0.0889  0.0631
   40poe     o2  473   2.731   1.924   5.801  0.2838 -0.4156 -0.2711
   40poe    c23  474   2.739   2.056   5.849  0.5665 -0.3671 -0.4508
   40poe    c23  475   2.627   2.129   5.772  0.0005  0.1838  0.8608
   40poe     o2  476   2.518   2.043   5.747  0.6926 -0.5113  0.1752
   40poe    c23  477   2.417   2.104   5.669  0.3596 -0.4148  0.6737
   40poe    c23  478   2.290   2.025   5.707  0.0362 -0.0837  0.2867
   40poe     o2  479   2.304   1.892   5.663  0.4074  0.1820 -0.4296
   40poe    c31  480   2.192   1.843   5.594  0.3243  0.2120 -0.3168
   41poe    c31  481   3.647   5.417   4.753 -0.7227 -0.0536 -0.2911
   41poe     o2  482   3.725   5.493   4.842 -0.3832 -0.3048 -0.3719
   41poe    c23  483   3.841   5.540   4.778 -0.2524 -0.0885  0.0167
   41poe    c23  484   3.930   5.607   4.885 -0.2788 -0.0944  0.0422
   41poe     o2  485   3.840   5.700   4.941  0.1283  0.6859 -0.5754
   41poe    c23  486   3.879   5.749   5.068 -0.0619  0.3545 -0.3884
   41poe    c23  487   3.772   5.837   5.136  0.0462  0.0239  0.2145
   41poe     o2  488   3.655   5.759   5.129  0.1579 -0.1026 -0.2914
   41poe    c23  489   3.563   5.817   5.219 -0.0804 -0.7539 -0.1085
   41poe    c23  490   3.422   5.761   5.194 -0.3763 -0.0475 -0.0324
   41poe     o2  491   3.430   5.624   5.162 -0.3232 -0.1069  0.2377
   41poe    c31  492   3.311   5.552   5.139 -0.3354 -0.0735  0.1963
   42poe    c31  493   3.555   6.331   4.578  0.6840  0.1608 -0.7197
   42poe     o2  494   3.614   6.319   4.706 -0.2563  0.1509 -0.2819
   42poe    c23  495   3.710   6.418   4.730 -0.2117 -0.0950  0.5738
   42poe    c23  496   3.798   6.389   4.854  0.5846 -0.2735 -0.0268
   42poe     o2  497   3.816   6.250   4.870 -0.0661 -0.3474  0.0906
   42poe    c23  498   3.915   6.205   4.959 -0.4166 -0.7255  0.2913
   42poe    c23  499   3.849   6.197   5.098 -0.0885 -1.0422  0.4324
   42poe     o2  500   3.717   6.159   5.067 -0.1266 -0.4862 -0.1081
   42poe    c23  501   3.634   6.249   5.137  0.3432  0.0973 -0.2978
   42poe    c23  502   3.489   6.253   5.085  0.1570  0.1403  0.2188
   42poe     o2  503   3.499   6.260   4.944 -0.1923 -0.5856  0.1531
   42poe    c31  504   3.376   6.317   4.904  0.1444 -0.0491 -0.1189
   43poe    c31  505   4.778   6.156   4.937  0.3624  0.3369 -0.0351
   43poe     o2  506   4.657   6.197   4.877  0.1705 -0.3399 -0.1266
   43poe    c23  507   4.691   6.303   4.790  0.1321 -0.0289  0.2344
   43poe    c23  508   4.576   6.328   4.691 -0.0842 -0.3391  0.4052
   43poe     o2  509   4.575   6.226   4.594 -0.3344 -0.4163  0.4903
   43poe    c23  510   4.481   6.252   4.492  0.2288  0.0729  0.0900
   43poe    c23  511   4.525   6.150   4.385 -0.3843 -0.3254  0.2112
   43poe     o2  512   4.543   6.022   4.442 -0.0639 -0.4332 -0.1269
   43poe    c23  513   4.543   5.927   4.339  0.1664 -0.3606 -0.1931
   43poe    c23  514   4.490   5.788   4.379 -0.1743 -0.0143  0.5783
   43poe     o2  515   4.565   5.717   4.475 -0.0900 -0.9533 -0.1599
   43poe    c31  516   4.684   5.660   4.425  0.3855  0.2516 -0.4292
   44poe    c31  517   1.354   1.530   3.922 -0.6970 -0.0745 -0.5149
   44poe     o2  518   1.232   1.490   3.980 -0.1705 -0.4251  0.3623
   44poe    c23  519   1.145   1.596   4.012 -0.0822 -0.4534  0.6985
   44poe    c23  520   1.044   1.565   4.124 -0.0816  0.0054  0.8272
   44poe     o2  521   0.964   1.455   4.088  0.1442  0.2251 -0.3742
   44poe    c23  522   0.860   1.440   4.182  0.1168 -0.2105 -0.4693
   44poe    c23  523   0.751   1.402   4.080 -0.2070  0.2851 -0.3154
   44poe     o2  524   0.788   1.292   3.999  0.0491  0.0134  0.1683
   44poe    c23  525   0.686   1.198   3.974  0.3359 -0.1199 -0.5053
   44poe    c23  526   0.739   1.095   3.872  0.5030  0.1433 -0.6865
   44poe     o2  527   0.837   1.027   3.948  0.3599  0.0585 -0.5757
   44poe    c31  528   0.862   0.893   3.915  0.4773 -0.0138 -0.1964
   45poe    c31  529   1.232   6.179   3.339  0.2921 -0.0478  0.8137
   45poe     o2  530   1.295   6.268   3.250  0.0505 -0.5799  0.1022
   45poe    c23  531   1.369   6.192   3.157  0.1978 -0.2399 -0.0615
   45poe    c23  532   1.329   6.249   3.020  0.5771  0.4426  0.1114
   45poe     o2  533   1.364   6.385   3.035 -0.2310  0.6922 -0.2049
   45poe    c23  534   1.356   6.457   2.914 -0.2165  0.2452 -0.4757
   45poe    c23  535   1.241   6.560   2.917 -0.5184 -0.0949 -0.2050
   45poe     o2  536   1.258   6.603   3.050 -0.3942 -0.2413 -0.1737
   45poe    c23  537   1.149   6.673   3.105 -0.0850  0.3613 -0.3126
   45poe    c23  538   1.193   6.687   3.252 -0.6404 -0.3203 -0.0771
   45poe     o2  539   1.220   6.561   3.309 -0.1523 -0.3413 -0.3489
   45poe    c31  540   1.100   6.514   3.367 -0.2655  0.3599 -0.0031
   46poe    c31  541   3.319   6.675   6.803  0.0080  0.0305  0.2602
   46poe     o2  542   3.255   6.570   6.733  0.3419  0.1991 -0.3088
   46poe    c23  543   3.294   6.548   6.600  0.0634 -0.4392 -0.2851
   46poe    c23  544   3.315   6.399   6.565  0.1887 -0.1478 -1.4993
   46poe     o2  545   3.197   6.350   6.624  0.4511  0.4353 -0.4537
   46poe    c23  546   3.214   6.211   6.607 -0.4923  0.2386  0.1285
   46poe    c23  547   3.132   6.129   6.709  0.1996 -0.5799  0.0438
   46poe     o2  548   3.112   6.220   6.815 -0.6307  0.2791 -0.8254
   46poe    c23  549   3.063   6.147   6.926 -0.0453  0.5736 -0.3722
   46poe    c23  550   2.909   6.145   6.923 -0.0471 -0.1530  0.1237
   46poe     o2  551   2.838   6.045   6.853  0.1744 -0.2316  0.0089
   46poe    c31  552   2.699   6.048   6.874  0.1709 -0.1349 -0.0263
   47poe    c31  553   4.576   1.757   5.795 -0.1576 -0.0006 -0.3897
   47poe     o2  554   4.713   1.729   5.786 -0.0726  0.1415  0.4077
   47poe    c23  555   4.760   1.596   5.788 -0.4215  0.0171  0.3442
   47poe    c23  556   4.857   1.574   5.906  0.1573  0.0291 -0.1213
   47poe     o2  557   4.989   1.620   5.894  0.1685 -0.0395 -0.2723
   47poe    c23  558   4.986   1.751   5.947 -0.0448 -0.2159  0.1566
   47poe    c23  559   5.053   1.754   6.086 -0.4230  0.2049  0.3318
   47poe     o2  560   5.169   1.677   6.064 -0.2639  0.4260  0.3911
   47poe    c23  561   5.248   1.660   6.179 -0.2645 -0.1905  0.3031
   47poe    c23  562   5.355   1.557   6.141 -0.2000  0.1363 -0.4139
   47poe     o2  563   5.305   1.476   6.037 -0.0575 -0.5207  0.0200
   47poe    c31  564   5.418   1.404   5.990  0.4503  0.5108 -0.3811
   48poe    c31  565   0.159   3.237   4.242 -0.4158 -0.1722  0.8837
   48poe     o2  566   0.028   3.289   4.234 -0.3714 -0.2555 -0.7889
   48poe    c23  567  -0.007   3.307   4.370  0.3230  0.4323 -0.6953
   48poe    c23  568  -0.099   3.429   4.391  0.1583  0.1605  0.1712
   48poe     o2  569  -0.210   3.395   4.311  0.4949  0.7006 -0.5335
   48poe    c23  570  -0.297   3.506   4.306  0.0222  0.3542 -0.1356
   48poe    c23  571  -0.371   3.487   4.172 -0.0147 -0.3591 -0.0180
   48poe     o2  572  -0.269   3.445   4.084  0.6137 -0.0166  0.5404
   48poe    c23  573  -0.309   3.421   3.951  1.5237  0.4577  0.1755
   48poe    c23  574  -0.179   3.377   3.882  0.7260 -0.0162 -1.0480
   48poe     o2  575  -0.105   3.291   3.966 -1.0461 -0.6955 -0.1476
   48poe    c31  576   0.013   3.271   3.891 -0.1372  0.5565  0.9185
   49poe    c31  577   0.410   2.926   0.113  0.1312  0.2362  0.4425
   49poe     o2  578   0.467   2.975  -0.007 -0.0016 -0.6661  0.0013
   49poe    c23  579   0.573   3.068   0.004 -0.4538 -0.1187 -0.1956
   49poe    c23  580   0.592   3.111  -0.143  0.0121  0.3232 -0.0051
   49poe     o2  581   0.684   3.217  -0.161  0.2757  0.0820 -0.0875
   49poe    c23  582   0.684   3.268  -0.292  0.2300 -0.0418 -0.1354
   49poe    c23  583   0.758   3.401  -0.314 -0.1788  0.1483 -0.3843
   49poe     o2  584   0.716   3.517  -0.245 -0.0729 -0.1258  0.1477
   49poe    c23  585   0.638   3.597  -0.331  0.0813 -0.1587 -0.0234
   49poe    c23  586   0.623   3.741  -0.280  0.5005 -0.0052 -0.3213
   49poe     o2  587   0.587   3.747  -0.144  1.0794 -0.0828 -0.1657
   49poe    c31  588   0.541   3.875  -0.106 -0.5758 -0.8067  0.3354
   50poe    c31  589   0.579   5.290   0.653 -0.2998 -0.1252  0.0373
   50poe     o2  590   0.557   5.384   0.756 -0.0648  0.0221 -0.0444
   50poe    c23  591   0.654   5.486   0.762  0.2957 -0.3277  0.1162
   50poe    c23  592   0.629   5.554   0.898 -0.2132 -0.0691 -0.1057
   50poe     o2  593   0.492   5.552   0.932 -0.1213 -0.4360  0.2410
   50poe    c23  594   0.488   5.524   1.070  0.4067  0.3493  0.4236
   50poe    c23  595   0.354   5.451   1.093  0.3661  0.1236 -0.4798
   50poe     o2  596   0.325   5.365   0.985 -0.1534  0.0992 -0.3231
   50poe    c23  597   0.253   5.245   1.005 -0.0222  0.0731  0.0069
   50poe    c23  598   0.255   5.178   0.866 -0.3255 -0.1918  0.1281
   50poe     o2  599   0.256   5.272   0.761  0.2998 -0.3426 -0.0072
   50poe    c31  600   0.209   5.214   0.641  0.0598 -0.1181 -0.0244
   51poe    c31  601   6.814   6.369   5.326 -0.7003  0.2701 -0.6247
   51poe     o2  602   6.932   6.444   5.306 -0.1037 -0.5780 -0.3496
   51poe    c23  603   6.931   6.505   5.179  0.1203  0.2445  0.0331
   51poe    c23  604   7.075   6.555   5.158  0.4820 -0.5343  0.5886
   51poe     o2  605   7.121   6.609   5.280  0.0057  0.0921  0.4969
   51poe    c23  606   7.258   6.632   5.252 -0.2991  0.9952 -0.3162
   51poe    c23  607   7.336   6.696   5.368 -0.1040  0.1418  0.0321
   51poe     o2  608   7.349   6.625   5.489 -0.0353 -0.1426 -0.1425
   51poe    c23  609   7.399   6.698   5.598 -0.5826  0.3410 -0.2154
   51poe    c23  610   7.369   6.634   5.735 -0.0775  0.1686 -0.1853
   51poe     o2  611   7.440   6.513   5.742 -0.2639  0.0823  0.2324
   51poe    c31  612   7.394   6.458   5.864 -0.2776 -0.2371  0.0842
   52poe    c31  613   1.411   5.063   1.083  1.2576  0.8775  0.2733
   52poe     o2  614   1.347   5.062   1.209  0.6028  0.2744 -0.0579
   52poe    c23  615   1.289   4.938   1.241 -0.8749  0.9777  0.0472
   52poe    c23  616   1.270   4.926   1.393  0.4822  0.3362  0.1763
   52poe     o2  617   1.194   5.039   1.428 -0.7795 -0.4177 -0.0826
   52poe    c23  618   1.222   5.059   1.565  0.2745  0.3258 -0.3990
   52poe    c23  619   1.208   5.209   1.597  0.0756  0.3059 -0.3904
   52poe     o2  620   1.260   5.290   1.494  0.1657  0.0075 -0.5818
   52poe    c23  621   1.369   5.364   1.543  0.5782 -0.5926 -0.5835
   52poe    c23  622   1.449   5.416   1.422  0.4152  0.2747 -0.3301
   52poe     o2  623   1.455   5.312   1.326 -0.7726 -0.0265 -0.0866
   52poe    c31  624   1.514   5.383   1.219 -0.3787 -0.2362 -0.0084
   53poe    c31  625   5.496   4.108   0.967 -0.4450 -0.7780  0.1513
   53poe     o2  626   5.379   4.175   1.008 -0.2435 -0.5230  0.3187
   53poe    c23  627   5.411   4.292   1.080  0.0041  0.0846 -0.7554
   53poe    c23  628   5.297   4.394   1.058  0.2292  0.6869  0.8050
   53poe     o2  629   5.182   4.318   1.087  0.4515  0.1833  0.3882
   53poe    c23  630   5.065   4.392   1.059  0.3897 -0.0839 -0.0691
   53poe    c23  631   4.965   4.275   1.060  0.2918 -0.0095 -0.7123
   53poe     o2  632   5.032   4.176   0.986  0.4006 -0.3841 -0.1152
   53poe    c23  633   4.944   4.069   0.960 -0.2983  0.0323  0.5097
   53poe    c23  634   5.030   3.951   0.912  0.2024  0.3795  0.5464
   53poe     o2  635   5.159   3.956   0.968  0.3582 -0.4086  0.2675
   53poe    c31  636   5.230   3.834   0.977  0.3286 -0.4949 -0.6614
   54poe    c31  637   1.132   0.241   2.429 -0.1668 -0.4806 -0.3738
   54poe     o2  638   1.044   0.254   2.538  0.0329 -0.0229 -0.2620
   54poe    c23  639   1.001   0.131   2.593  0.2520  0.0752  0.1273
   54poe    c23  640   0.950   0.139   2.738 -0.2016  0.3166 -0.0451
   54poe     o2  641   1.028   0.242   2.796  0.2681 -0.0966  0.0582
   54poe    c23  642   0.970   0.281   2.918 -0.1814  0.1716 -0.2385
   54poe    c23  643   1.027   0.419   2.956  0.3841 -0.1557  0.1276
   54poe     o2  644   1.021   0.497   2.838  0.0970 -0.4172 -0.0325
   54poe    c23  645   1.101   0.613   2.836 -0.5066  0.0089  0.1415
   54poe    c23  646   1.097   0.633   2.683 -0.4411  0.1020  0.1520
   54poe     o2  647   1.124   0.514   2.612  0.0312  0.3705 -0.1242
   54poe    c31  648   1.133   0.559   2.479 -0.5040 -0.6508 -0.5121
   55poe    c31  649   2.222   5.071   4.089 -0.3236 -0.1274  0.1672
   55poe     o2  650   2.185   5.105   3.957  0.0357 -0.6274 -0.0651
   55poe    c23  651   2.071   5.040   3.906 -0.0057 -0.6539  0.0590
   55poe    c23  652   2.098   4.975   3.768 -0.1113 -0.0821 -0.2352
   55poe     o2  653   2.124   5.071   3.669 -0.0738  0.1356 -0.0161
   55poe    c23  654   2.178   4.995   3.563 -0.5437  0.4903 -0.5207
   55poe    c23  655   2.281   5.078   3.485 -0.0651 -0.1751 -0.6000
   55poe     o2  656   2.238   5.212   3.482  0.3378 -0.0432 -0.5055
   55poe    c23  657   2.349   5.298   3.495  0.4921 -0.2751 -0.2767
   55poe    c23  658   2.335   5.388   3.619 -0.1831 -0.5024 -0.1860
   55poe     o2  659   2.276   5.308   3.719 -0.0324  0.2005  0.4740
   55poe    c31  660   2.303   5.374   3.841  0.9729 -0.0679  0.4022
   56poe    c31  661   0.757   3.117   3.731  0.1793 -0.1552  0.5772
   56poe     o2  662   0.820   3.180   3.840  0.2659  0.5968  0.0967
   56poe    c23  663   0.953   3.141   3.865  0.0643 -0.2117 -0.0689
   56poe    c23  664   1.007   3.248   3.961 -0.1046  0.0091 -0.2196
   56poe     o2  665   0.898   3.307   4.028  0.2338 -0.0992  0.4399
   56poe    c23  666   0.938   3.375   4.145 -0.1488 -0.1276  0.5881
   56poe    c23  667   0.837   3.487   4.181 -0.2530  0.1491 -0.5271
   56poe     o2  668   0.712   3.423   4.172 -0.4105  0.3583  0.1718
   56poe    c23  669   0.621   3.513   4.112  0.5493  0.4284 -1.2358
   56poe    c23  670   0.534   3.445   4.005 -0.1137  0.5730 -0.8020
   56poe     o2  671   0.636   3.396   3.920  0.1295 -0.0974 -0.1336
   56poe    c31  672   0.620   3.444   3.789  0.0947 -0.1610 -0.1529
   57poe    c31  673   4.279   5.839   2.935  0.5271 -0.3099  0.0142
   57poe     o2  674   4.395   5.843   3.016  0.1643  0.3859  0.5063
   57poe    c23  675   4.503   5.881   2.934 -0.0860  0.1837  0.0787
   57poe    c23  676   4.640   5.882   3.005 -0.2937 -0.0285  0.4818
   57poe     o2  677   4.638   5.967   3.118  0.4719  0.4455  0.1441
   57poe    c23  678   4.695   5.891   3.222 -0.2501 -0.7395 -0.3036
   57poe    c23  679   4.663   5.958   3.357  0.2808 -0.4176 -0.3371
   57poe     o2  680   4.527   5.993   3.355  0.1383 -0.9430  0.1579
   57poe    c23  681   4.457   6.021   3.475  0.2896  0.8626 -0.1605
   57poe    c23  682   4.343   5.919   3.467  0.5331  0.5412  0.4059
   57poe     o2  683   4.294   5.900   3.336  0.3977 -0.7399  0.6239
   57poe    c31  684   4.199   5.797   3.340  0.0251 -0.4372 -0.1558
   58poe    c31  685   4.597   4.838   4.520  0.9263 -0.2902  0.4020
   58poe     o2  686   4.645   4.749   4.421 -0.2287 -0.7517  0.2468
   58poe    c23  687   4.563   4.742   4.306 -0.0357 -0.5779  0.0982
   58poe    c23  688   4.640   4.679   4.189  0.4049 -0.1880  0.1733
   58poe     o2  689   4.726   4.590   4.257  0.1864 -0.7624 -0.2849
   58poe    c23  690   4.849   4.571   4.191  0.6006  0.0258  0.2394
   58poe    c23  691   4.935   4.514   4.304  0.3538 -0.2842  0.2719
   58poe     o2  692   4.912   4.583   4.425 -0.2159  0.0062  0.0001
   58poe    c23  693   4.985   4.532   4.535  0.2025 -0.1746 -0.3559
   58poe    c23  694   4.956   4.609   4.666  0.1556 -0.2742 -0.3079
   58poe     o2  695   4.819   4.640   4.674  0.1672 -0.4066  0.4150
   58poe    c31  696   4.799   4.690   4.804  0.4564  0.1021  0.2662
   59poe    c31  697   4.182   1.792   5.242 -0.6635 -0.0547 -0.1562
   59poe     o2  698   4.260   1.774   5.126 -0.2479  0.0761  0.1007
   59poe    c23  699   4.309   1.642   5.120 -0.0484  0.1544 -0.0110
   59poe    c23  700   4.459   1.642   5.085 -0.0790  0.0218 -0.1410
   59poe     o2  701   4.473   1.732   4.977 -0.1775 -0.1243 -0.2758
   59poe    c23  702   4.518   1.705   4.846  0.7323  0.2180 -0.0443
   59poe    c23  703   4.489   1.828   4.757  0.1350  0.0297 -0.1140
   59poe     o2  704   4.361   1.886   4.767 -0.0704 -0.5752  0.9546
   59poe    c23  705   4.253   1.822   4.702  0.1985  0.1704 -0.2659
   59poe    c23  706   4.138   1.909   4.756  0.0109 -0.7704  0.9059
   59poe     o2  707   4.163   1.943   4.890  0.1604 -0.3560  0.7766
   59poe    c31  708   4.048   1.999   4.949  0.1036 -0.3745  0.6842
   60poe    c31  709   5.391   5.870   5.786 -0.1218 -0.6375  0.0912
   60poe     o2  710   5.512   5.856   5.715 -0.0416 -0.1950  0.1393
   60poe    c23  711   5.562   5.732   5.758  0.1276 -0.2410 -0.1932
   60poe    c23  712   5.685   5.691   5.674  0.1689  0.0311 -0.2676
   60poe     o2  713   5.767   5.803   5.655 -0.2067  0.2672 -0.5199
   60poe    c23  714   5.865   5.806   5.554  0.0213  0.6401 -0.2953
   60poe    c23  715   5.832   5.867   5.417  0.0058 -0.1944 -0.6708
   60poe     o2  716   5.772   5.991   5.447  0.4003 -0.1021 -0.2564
   60poe    c23  717   5.667   6.012   5.355  0.3705  0.1800 -0.1581
   60poe    c23  718   5.595   6.135   5.414  0.0295 -0.0868 -0.0174
   60poe     o2  719   5.549   6.093   5.540 -0.3045 -1.0731 -0.4578
   60poe    c31  720   5.454   6.187   5.583  0.3652 -0.5218 -0.1683
   61poe    c31  721   5.475   0.475   2.342 -0.1212  0.1161  0.0797
   61poe     o2  722   5.586   0.477   2.429 -0.0591  0.2100 -0.0023
   61poe    c23  723   5.589   0.603   2.494  0.2939 -0.0306  0.4512
   61poe    c23  724   5.675   0.569   2.617  0.1425  0.3481  0.6629
   61poe     o2  725   5.774   0.474   2.582  0.2514  0.6354  0.1781
   61poe    c23  726   5.901   0.526   2.549 -0.0432  0.7640 -0.7866
   61poe    c23  727   5.936   0.480   2.406 -0.8844 -0.0043 -0.7514
   61poe     o2  728   5.877   0.352   2.401 -0.5329 -0.2076  0.1179
   61poe    c23  729   5.914   0.271   2.292  0.0212  0.2694 -0.0493
   61poe    c23  730   5.794   0.178   2.266  0.4664 -0.2093 -0.4101
   61poe     o2  731   5.677   0.236   2.320  0.6174 -0.1651 -0.1295
   61poe    c31  732   5.568   0.147   2.324  0.5530 -0.1038 -0.5139
   62poe    c31  733   2.552   5.582   0.587  0.2175  0.0213  0.6756
   62poe     o2  734   2.636   5.677   0.526 -0.2422 -0.2378 -0.3812
   62poe    c23  735   2.648   5.656   0.387  0.3732 -0.1850 -0.3360
   62poe    c23  736   2.721   5.779   0.329  0.0399  0.2119  0.0837
   62poe     o2  737   2.831   5.799   0.414  0.4059 -0.0084 -0.3345
   62poe    c23  738   2.883   5.930   0.407 -0.9387  0.5373 -0.3077
   62poe    c23  739   2.955   5.972   0.537 -0.5374  0.2600 -0.4409
   62poe     o2  740   2.848   5.958   0.628 -0.0401 -0.6847  0.0150
   62poe    c23  741   2.890   5.991   0.758 -0.0206 -0.0592 -0.1454
   62poe    c23  742   2.775   5.945   0.850 -0.0301 -0.2468 -0.2501
   62poe     o2  743   2.742   5.814   0.809 -0.4766 -0.2922  0.2536
   62poe    c31  744   2.643   5.754   0.891 -0.2991 -0.4381  0.3621
   63poe    c31  745   3.446   5.932   6.226 -0.0255 -0.3354  0.1484
   63poe     o2  746   3.522   5.978   6.116 -0.2121 -0.0631  0.1306
   63poe    c23  747   3.455   6.032   6.005  0.2622 -0.5259 -0.3867
   63poe    c23  748   3.564   6.031   5.897  0.0715  0.6376 -0.6000
   63poe     o2  749   3.684   6.075   5.957  0.0311  0.0655 -0.0931
   63poe    c23  750   3.796   6.079   5.872  0.1405 -0.6793  0.0119
   63poe    c23  751   3.888   6.147   5.975 -0.4597  0.6137 -0.2896
   63poe     o2  752   3.891   6.084   6.102 -0.1942  0.0889 -0.5547
   63poe    c23  753   3.947   6.186   6.181  0.2573 -0.3895 -0.2495
   63poe    c23  754   3.872   6.160   6.313  0.5117 -0.4650 -0.1193
   63poe     o2  755   3.744   6.112   6.279  0.0966  1.2461 -1.1339
   63poe    c31  756   3.675   6.121   6.402  0.0324  0.0642 -1.0643
   64poe    c31  757   6.105   5.874   2.842 -0.8528 -0.0499  0.5295
   64poe     o2  758   6.098   6.003   2.785 -0.5204 -0.1204  0.3204
   64poe    c23  759   6.185   6.092   2.853 -0.1475 -0.2677  0.0362
   64poe    c23  760   6.164   6.223   2.775 -0.0158 -0.0246  0.4108
   64poe     o2  761   6.117   6.198   2.645 -0.2056  0.6369  0.3461
   64poe    c23  762   6.100   6.319   2.575  0.5222  0.3342 -0.3664
   64poe    c23  763   6.101   6.264   2.431  0.3515  0.2382 -0.3307
   64poe     o2  764   6.014   6.153   2.421  0.0339  0.4324  0.2276
   64poe    c23  765   6.053   6.064   2.319  0.1017  0.0784  0.5603
   64poe    c23  766   6.130   5.949   2.387  0.0894 -0.4843 -0.3517
   64poe     o2  767   6.062   5.911   2.505 -0.0170  0.1726 -0.1941
   64poe    c31  768   6.057   5.770   2.516  0.0722  0.1745 -0.1294
   65poe    c31  769   3.056   5.306   0.256  0.2035  0.2076 -0.3979
   65poe     o2  770   3.057   5.171   0.299  0.3836  0.2415 -0.2930
   65poe    c23  771   2.951   5.148   0.389  0.4098  0.3016 -0.2465
   65poe    c23  772   2.984   5.044   0.497 -0.0123 -0.0803 -0.4798
   65poe     o2  773   3.018   4.922   0.436 -0.0566 -0.2725 -0.1274
   65poe    c23  774   2.904   4.845   0.406 -0.2261 -0.2694  0.4987
   65poe    c23  775   2.945   4.771   0.277 -0.6203  0.2402  0.0774
   65poe     o2  776   2.985   4.881   0.197  0.0986  0.2645  0.4657
   65poe    c23  777   3.021   4.840   0.067 -0.2850  0.0951  0.4112
   65poe    c23  778   3.074   4.959  -0.014  0.3286 -0.4081  0.0606
   65poe     o2  779   3.163   5.032   0.067  0.4234 -0.0453 -0.3631
   65poe    c31  780   3.211   5.137  -0.014  0.8276 -0.2541 -0.3967
   66poe    c31  781   2.166   0.439   2.537  0.2174  0.0513  0.2196
   66poe     o2  782   2.183   0.302   2.510 -0.1252 -0.1417  0.9475
   66poe    c23  783   2.321   0.274   2.512  0.1258  0.9546  0.2856
   66poe    c23  784   2.334   0.120   2.506 -0.0786  0.9689 -0.5677
   66poe     o2  785   2.265   0.067   2.617  0.7206  0.1113 -0.4717
   66poe    c23  786   2.281  -0.073   2.612  0.2848  0.0523 -0.2658
   66poe    c23  787   2.169  -0.140   2.693  0.1370  0.5364 -0.0688
   66poe     o2  788   2.061  -0.055   2.659 -0.3816 -0.1184 -0.0854
   66poe    c23  789   1.948  -0.085   2.738 -0.5508  1.0272  0.1249
   66poe    c23  790   1.832  -0.001   2.680 -1.1239  0.2037  0.0676
   66poe     o2  791   1.888   0.127   2.666 -0.2885 -0.1726 -0.1192
   66poe    c31  792   1.771   0.195   2.625 -0.5214  0.1798  1.0843
   67poe    c31  793   5.638   3.145   1.622 -0.0291 -0.2290 -0.1772
   67poe     o2  794   5.524   3.087   1.682 -0.1697  0.3574  0.1253
   67poe    c23  795   5.416   3.140   1.608 -0.2986  0.3237  0.2887
   67poe    c23  796   5.287   3.064   1.646 -0.5243  0.7383  0.3631
   67poe     o2  797   5.308   3.026   1.780  0.3708 -0.0220  0.0199
   67poe    c23  798   5.211   2.929   1.813  0.4669 -0.2677 -0.4079
   67poe    c23  799   5.236   2.875   1.956 -0.8603 -0.1940 -0.1410
   67poe     o2  800   5.375   2.853   1.962 -0.8354  0.0586  0.2322
   67poe    c23  801   5.442   2.891   2.080  0.0113 -0.3463 -0.1171
   67poe    c23  802   5.593   2.918   2.061 -0.0231 -0.0181  0.0768
   67poe     o2  803   5.591   3.017   1.960  0.4794 -0.2731 -0.1834
   67poe    c31  804   5.719   3.076   1.957  0.1037  0.5616 -0.0260
   68poe    c31  805   1.770   3.833   2.771  0.1339  0.8959  0.5198
   68poe     o2  806   1.847   3.800   2.659  0.2720  0.3169  0.7824
   68poe    c23  807   1.981   3.774   2.695  0.1321  0.1570  1.1868
   68poe    c23  808   2.022   3.632   2.740  0.3341 -0.1678  0.0144
   68poe     o2  809   1.999   3.528   2.648  0.2945 -0.5963  0.5077
   68poe    c23  810   2.089   3.420   2.662  0.4703 -0.4427  0.5540
   68poe    c23  811   2.042   3.310   2.565  0.1734  0.3424 -0.2027
   68poe     o2  812   1.979   3.381   2.460 -0.1371  0.3757  0.0074
   68poe    c23  813   2.001   3.314   2.338  0.7592  1.0375 -0.2023
   68poe    c23  814   1.884   3.357   2.248  0.3762  0.3464 -0.0425
   68poe     o2  815   1.889   3.497   2.233 -0.3892  0.3314 -0.5005
   68poe    c31  816   1.781   3.553   2.161 -0.7300 -0.5284 -0.6710
   69poe    c31  817   2.309   4.820   2.865  1.3959 -0.1918  0.0687
   69poe     o2  818   2.327   4.741   2.981  0.1842 -0.4471  0.0914
   69poe    c23  819   2.234   4.779   3.080  0.0166  0.0392 -0.2477
   69poe    c23  820   2.264   4.702   3.210 -0.2837  0.4184  0.0499
   69poe     o2  821   2.278   4.571   3.161 -0.2945  0.2444  0.5097
   69poe    c23  822   2.327   4.483   3.260  0.3826  0.2677  0.2039
   69poe    c23  823   2.405   4.375   3.183 -0.5825 -0.1670 -0.1867
   69poe     o2  824   2.477   4.441   3.081 -0.1130  0.2689  0.4156
   69poe    c23  825   2.566   4.364   3.004 -0.3285 -0.0330  0.4627
   69poe    c23  826   2.623   4.437   2.880 -0.2537  0.3082  0.6979
   69poe     o2  827   2.527   4.531   2.836 -0.5235 -0.0459  0.5226
   69poe    c31  828   2.558   4.615   2.727 -0.9166  0.2966  0.6733
   70poe    c31  829   6.428   3.272   6.676  0.3912 -0.6895 -0.3004
   70poe     o2  830   6.499   3.313   6.791  0.3807  0.1249 -0.5735
   70poe    c23  831   6.606   3.225   6.820  0.3380  0.3062  0.1541
   70poe    c23  832   6.631   3.242   6.971  0.6188  0.0925  0.1325
   70poe     o2  833   6.504   3.230   7.031  0.3682  0.3052 -0.3480
   70poe    c23  834   6.510   3.212   7.170 -0.3867 -0.4825 -0.4086
   70poe    c23  835   6.383   3.269   7.237  0.1133 -0.4134  0.4975
   70poe     o2  836   6.360   3.378   7.151 -0.3672 -0.9909 -0.1208
   70poe    c23  837   6.235   3.436   7.183  0.1151 -0.1974  0.3641
   70poe    c23  838   6.183   3.519   7.063  0.6040 -0.5790 -0.1177
   70poe     o2  839   6.225   3.455   6.945 -0.1940 -0.1719 -0.6275
   70poe    c31  840   6.186   3.549   6.847 -0.2563  0.0815 -0.3589
   71poe    c31  841   4.595   0.066   2.441  0.6783  0.4646 -0.1303
   71poe     o2  842   4.712   0.049   2.366  0.4242 -0.0960 -0.4019
   71poe    c23  843   4.757  -0.076   2.415 -0.1052 -0.2390 -0.2805
   71poe    c23  844   4.874  -0.122   2.327  0.0301 -0.9044  0.2444
   71poe     o2  845   4.834  -0.106   2.193  0.4352  0.5020  0.2743
   71poe    c23  846   4.940  -0.144   2.108 -0.4597 -0.4983 -0.4140
   71poe    c23  847   4.876  -0.174   1.971 -0.0504 -0.2272 -0.6678
   71poe     o2  848   4.832  -0.061   1.900 -0.0595  0.2192  0.0395
   71poe    c23  849   4.696  -0.089   1.875 -0.1847 -0.0972  1.0394
   71poe    c23  850   4.591   0.012   1.927 -0.2809  0.3086  0.0837
   71poe     o2  851   4.622   0.067   2.053  0.0073 -0.0450  0.1690
   71poe    c31  852   4.540   0.179   2.078 -0.9904 -0.6923 -0.1196
   72poe    c31  853   4.962   3.262   0.708 -0.6954  0.8661 -0.1023
   72poe     o2  854   5.087   3.281   0.646 -0.2512  0.5640  0.6875
   72poe    c23  855   5.080   3.232   0.514  0.5620  0.3563  0.7156
   72poe    c23  856   5.212   3.256   0.438 -0.0291 -0.9649 -0.7847
   72poe     o2  857   5.317   3.188   0.502  0.0617  0.1458  0.2879
   72poe    c23  858   5.433   3.244   0.446  0.0012 -0.1302 -0.1188
   72poe    c23  859   5.542   3.256   0.555  0.1246 -0.9687 -0.1485
   72poe     o2  860   5.467   3.328   0.650  0.8510  0.0628 -0.3388
   72poe    c23  861   5.528   3.325   0.777 -0.3319 -0.5127  0.2400
   72poe    c23  862   5.434   3.405   0.869 -0.2361  0.0390 -0.1368
   72poe     o2  863   5.296   3.379   0.859 -0.3103  0.5598 -0.4968
   72poe    c31  864   5.234   3.458   0.958  0.4340 -0.1377  0.5426
   73poe    c31  865   5.269   0.653   5.680 -0.3429  0.1459 -0.2275
   73poe     o2  866   5.307   0.709   5.804  0.1436 -0.1623 -0.2373
   73poe    c23  867   5.191   0.779   5.842  0.0887 -0.0749 -0.5623
   73poe    c23  868   5.211   0.902   5.932 -0.5292 -0.2202 -0.2219
   73poe     o2  869   5.251   0.886   6.067  0.0099  0.8314 -0.2414
   73poe    c23  870   5.344   0.988   6.091  0.2684  0.6060 -0.2797
   73poe    c23  871   5.479   0.913   6.099  0.1219  0.3756  0.0631
   73poe     o2  872   5.522   0.857   5.977 -0.0934  0.3150  0.0126
   73poe    c23  873   5.662   0.849   5.961 -0.1213  0.2177 -0.1851
   73poe    c23  874   5.676   0.798   5.817 -0.2140  0.8681 -0.4223
   73poe     o2  875   5.567   0.716   5.782 -0.0144  0.1687  0.5654
   73poe    c31  876   5.606   0.652   5.663  0.2523  1.2727  0.0450
   74poe    c31  877   4.140   1.248   2.544  0.5187  0.0511  0.4498
   74poe     o2  878   4.160   1.387   2.558 -0.3078  0.2238 -0.0323
   74poe    c23  879   4.077   1.444   2.459 -0.5937 -0.3774 -0.1442
   74poe    c23  880   4.125   1.590   2.448 -0.3591 -0.4578 -0.1927
   74poe     o2  881   4.177   1.625   2.574 -0.6819  0.1464 -0.2239
   74poe    c23  882   4.222   1.759   2.573  0.8221 -0.3473 -0.1078
   74poe    c23  883   4.292   1.771   2.710 -0.3827  0.1452  0.4740
   74poe     o2  884   4.334   1.639   2.736 -0.3435  0.0088 -0.2631
   74poe    c23  885   4.474   1.629   2.744 -0.3776 -0.2264  0.0159
   74poe    c23  886   4.513   1.480   2.734 -0.0784 -0.1859  0.5007
   74poe     o2  887   4.423   1.433   2.636  0.1689 -0.4834  0.4151
   74poe    c31  888   4.495   1.347   2.550  0.3502  0.0194  0.0579
   75poe    c31  889   5.819   5.171   5.617  0.2968  0.2585  0.3689
   75poe     o2  890   5.775   5.040   5.591  0.0092  0.3900  0.1799
   75poe    c23  891   5.852   4.969   5.497  0.0054  0.3086  0.2377
   75poe    c23  892   5.772   4.849   5.440 -0.3736  0.5258  0.3090
   75poe     o2  893   5.702   4.798   5.551  0.1328 -0.1831  0.3111
   75poe    c23  894   5.574   4.753   5.511  0.4813 -0.9909  0.0956
   75poe    c23  895   5.509   4.702   5.640 -0.3259 -0.3307 -0.0435
   75poe     o2  896   5.523   4.807   5.733  0.7147 -0.4159 -0.0976
   75poe    c23  897   5.500   4.780   5.870  0.1468  0.2067 -0.0638
   75poe    c23  898   5.539   4.918   5.926 -0.3569  0.5032 -0.4274
   75poe     o2  899   5.645   4.981   5.857  0.1794 -0.0973 -0.1723
   75poe    c31  900   5.710   5.069   5.946  0.1625 -0.1706 -0.0871
   76poe    c31  901   3.016   2.776   5.505  0.3306  0.3169  0.1501
   76poe     o2  902   2.939   2.894   5.512 -0.3111 -0.0384 -0.7529
   76poe    c23  903   2.899   2.944   5.387 -0.1203  0.4680 -0.6109
   76poe    c23  904   2.754   2.989   5.411  0.0789  0.5850  0.4244
   76poe     o2  905   2.748   3.031   5.545 -0.2745  0.5941  0.4062
   76poe    c23  906   2.616   3.077   5.567 -0.4018  0.3477  0.1662
   76poe    c23  907   2.621   3.095   5.720 -0.1226  0.0467  0.1949
   76poe     o2  908   2.647   2.962   5.757  0.4032 -0.0604 -0.5452
   76poe    c23  909   2.663   2.956   5.897 -0.4149 -1.1258 -0.4848
   76poe    c23  910   2.750   2.830   5.916  0.4887 -0.4508 -0.0832
   76poe     o2  911   2.859   2.814   5.828  0.2939 -0.2856 -0.3561
   76poe    c31  912   2.915   2.688   5.859  0.3373 -0.1280  0.2129
   77poe    c31  913   5.488   6.301   0.675  0.1541  0.5960  0.8008
   77poe     o2  914   5.476   6.247   0.804 -0.1781 -0.7626  0.2212
   77poe    c23  915   5.542   6.122   0.808  0.3001 -0.5207 -0.0317
   77poe    c23  916   5.567   6.083   0.955  0.6562 -0.3911 -0.0568
   77poe     o2  917   5.455   6.107   1.036  0.5593 -0.2504 -0.2332
   77poe    c23  918   5.478   6.117   1.175 -0.4730 -0.1752 -0.0540
   77poe    c23  919   5.350   6.191   1.217 -0.3773  0.0654 -0.1768
   77poe     o2  920   5.341   6.300   1.128  0.2932  0.0710 -0.2425
   77poe    c23  921   5.240   6.390   1.170  0.4726  0.0128  0.3231
   77poe    c23  922   5.191   6.478   1.053 -0.8727 -0.7202  0.3143
   77poe     o2  923   5.284   6.438   0.955 -0.1092  0.5856  0.4725
   77poe    c31  924   5.245   6.501   0.836 -0.8663 -0.5137  0.1264
   78poe    c31  925   0.410   2.402   0.014 -0.1675  0.6125  0.4832
   78poe     o2  926   0.496   2.313   0.081 -0.1062 -0.1554 -0.5810
   78poe    c23  927   0.413   2.214   0.137  0.3531 -0.4047 -0.3362
   78poe    c23  928   0.505   2.106   0.196  0.6671  0.0390 -0.0151
   78poe     o2  929   0.598   2.190   0.261  0.2869  0.3154  0.1701
   78poe    c23  930   0.700   2.120   0.328  0.8276  0.2333 -0.7302
   78poe    c23  931   0.777   2.214   0.422 -0.5557  0.1560  0.5014
   78poe     o2  932   0.790   2.333   0.348 -0.4724  0.2413  0.6514
   78poe    c23  933   0.783   2.456   0.417 -0.2018  0.2755  0.6201
   78poe    c23  934   0.777   2.556   0.300  0.1738 -0.2151  0.1781
   78poe     o2  935   0.704   2.516   0.187 -0.2343  0.0232  0.3582
   78poe    c31  936   0.700   2.635   0.111  0.4724  0.1504  0.5151
   79poe    c31  937   5.347   2.570   5.711 -0.2019 -0.5466 -0.0776
   79poe     o2  938   5.362   2.564   5.851  0.3110 -0.1290 -0.1160
   79poe    c23  939   5.453   2.664   5.894 -0.3311  0.6406 -0.5209
   79poe    c23  940   5.518   2.630   6.029 -0.8805  0.0448 -0.4012
   79poe     o2  941   5.418   2.571   6.110 -0.4839  0.6213  0.5257
   79poe    c23  942   5.469   2.519   6.231  0.2042  0.0737  0.0129
   79poe    c23  943   5.342   2.458   6.293  0.2545  0.4027  0.4465
   79poe     o2  944   5.290   2.399   6.175  0.3140  0.5761  0.3335
   79poe    c23  945   5.162   2.351   6.210  0.4365  0.1887  0.2510
   79poe    c23  946   5.084   2.324   6.080  0.2340  0.1950  0.3707
   79poe     o2  947   5.119   2.422   5.985  0.0805  0.0360  0.1483
   79poe    c31  948   5.041   2.415   5.867 -0.1362 -0.6328  0.3289
   80poe    c31  949   3.748   5.832   2.782  0.0263  0.2044 -0.0147
   80poe     o2  950   3.870   5.896   2.752 -0.4854  0.6076 -1.3140
   80poe    c23  951   3.951   5.836   2.653  0.6854 -0.2985  0.1434
   80poe    c23  952   3.952   5.923   2.526  0.7986  0.0371  0.3718
   80poe     o2  953   3.941   6.057   2.569  0.2142 -0.0116  0.3855
   80poe    c23  954   3.895   6.140   2.465 -0.0491 -0.6114  0.0155
   80poe    c23  955   3.845   6.271   2.530 -0.2915 -0.6999  0.0066
   80poe     o2  956   3.791   6.219   2.650 -0.0955  0.0612  0.4286
   80poe    c23  957   3.716   6.301   2.736  0.1882  0.3484  0.4071
   80poe    c23  958   3.680   6.219   2.861 -0.7716 -0.3781 -0.3240
   80poe     o2  959   3.790   6.134   2.882 -0.3446  0.1696 -0.3189
   80poe    c31  960   3.828   6.138   3.018 -0.3313  0.2727 -0.3257
   81poe    c31  961   3.021   2.451   0.718  0.4398  0.0735 -0.1564
   81poe     o2  962   2.905   2.435   0.640  0.2211  0.0090  0.1771
   81poe    c23  963   2.893   2.549   0.557  0.2519 -0.4933 -0.5286
   81poe    c23  964   2.753   2.557   0.493  0.1258  0.8260 -0.1037
   81poe     o2  965   2.738   2.419   0.468 -0.5687  0.7765  0.5379
   81poe    c23  966   2.628   2.389   0.386 -0.0641  0.0255  0.1295
   81poe    c23  967   2.626   2.235   0.385  0.1141  0.0225  0.2475
   81poe     o2  968   2.636   2.191   0.519 -0.4587 -0.3191  0.1832
   81poe    c23  969   2.663   2.053   0.534 -0.4259 -0.3973 -0.5378
   81poe    c23  970   2.815   2.032   0.521 -0.3109 -0.3611  0.5749
   81poe     o2  971   2.882   2.141   0.579 -0.1268 -0.4807  0.5889
   81poe    c31  972   3.011   2.106   0.622 -0.1269 -0.6053  0.4898
   82poe    c31  973   0.536   6.370   4.248  0.3378  0.3523  0.2326
   82poe     o2  974   0.516   6.510   4.241 -0.3288  0.2438 -0.0763
   82poe    c23  975   0.395   6.535   4.172 -0.1929 -0.1878 -0.4842
   82poe    c23  976   0.356   6.684   4.160  0.1836 -0.0282  0.2183
   82poe     o2  977   0.475   6.756   4.138  0.2049 -0.1436 -0.0495
   82poe    c23  978   0.454   6.891   4.175 -0.2470 -0.2145 -0.0481
   82poe    c23  979   0.599   6.939   4.197  0.0226 -0.5231 -1.0945
   82poe     o2  980   0.669   6.844   4.274  0.0700  0.5652  0.2410
   82poe    c23  981   0.807   6.869   4.271  0.1702 -0.0087 -0.0535
   82poe    c23  982   0.872   6.733   4.304 -0.5651 -0.2515  0.4063
   82poe     o2  983   0.808   6.620   4.249  0.2345 -0.2840 -0.4830
   82poe    c31  984   0.861   6.512   4.323 -0.3646 -0.4472 -0.2889
   83poe    c31  985   2.173   5.250   2.738  0.0513  0.9572 -0.4966
   83poe     o2  986   2.204   5.360   2.821 -0.1139  0.7913 -0.2145
   83poe    c23  987   2.100   5.413   2.900 -0.2983 -0.3570  0.3376
   83poe    c23  988   2.160   5.537   2.969 -0.0744 -0.0439 -0.4072
   83poe     o2  989   2.293   5.520   3.013 -0.2709  0.5598  0.4276
   83poe    c23  990   2.332   5.634   3.087  0.2569  0.8086 -0.2268
   83poe    c23  991   2.479   5.676   3.103  0.4966  0.3388 -1.1220
   83poe     o2  992   2.553   5.598   3.194  0.1211  0.3742 -0.7855
   83poe    c23  993   2.669   5.669   3.229  0.1320 -0.0933  0.1566
   83poe    c23  994   2.772   5.588   3.311 -0.0433 -0.1514  0.3183
   83poe     o2  995   2.839   5.488   3.239 -0.3952  0.0048 -0.2301
   83poe    c31  996   2.892   5.376   3.307  0.0103  0.1758 -0.2594
   84poe    c31  997   3.484   4.790   6.458  0.0250 -0.5501 -0.2786
   84poe     o2  998   3.565   4.904   6.441 -0.1612 -0.3978 -0.1435
   84poe    c23  999   3.643   4.907   6.559 -0.1864  0.0739 -0.1369
   84poe    c23 1000   3.743   5.024   6.552 -0.2088  0.1121  0.1599
   84poe     o2 1001   3.661   5.130   6.509 -0.1512 -0.2248 -0.8108
   84poe    c23 1002   3.733   5.250   6.496 -0.8717  0.2566 -0.4076
   84poe    c23 1003   3.659   5.339   6.395 -0.6529  0.2183 -0.6010
   84poe     o2 1004   3.674   5.250   6.286  0.0764 -0.2754 -0.1009
   84poe    c23 1005   3.591   5.289   6.179  0.2566  0.0499 -0.1243
   84poe    c23 1006   3.444   5.248   6.194  0.1838  0.1373 -0.5801
   84poe     o2 1007   3.422   5.128   6.265  0.0397  0.4578 -0.0695
   84poe    c31 1008   3.288   5.089   6.243 -0.0624  0.2464  0.8876
   85poe    c31 1009   5.435   2.047   2.493 -0.4233  0.3956 -0.8165
   85poe     o2 1010   5.363   1.929   2.520  1.0673 -0.3412  0.0558
   85poe    c23 1011   5.359   1.846   2.407  0.0197 -0.4032  0.1287
   85poe    c23 1012   5.311   1.702   2.435 -0.1336 -0.1599  1.1522
   85poe     o2 1013   5.197   1.724   2.515 -0.6799  0.0172  0.3362
   85poe    c23 1014   5.148   1.620   2.596  0.2306 -0.0271  0.8474
   85poe    c23 1015   5.038   1.691   2.678 -0.4393  0.2914 -0.3086
   85poe     o2 1016   5.081   1.818   2.721  0.5178  0.0380 -0.5024
   85poe    c23 1017   5.040   1.869   2.845  0.2058 -0.2797 -0.4719
   85poe    c23 1018   5.127   1.994   2.866 -0.2564  0.0261 -0.3565
   85poe     o2 1019   5.240   1.995   2.781 -0.2973 -0.8590 -0.4232
   85poe    c31 1020   5.331   2.095   2.820 -0.4735 -0.8814  0.0479
   86poe    c31 1021   6.655   0.351   4.153  0.8534 -0.2152  0.3326
   86poe     o2 1022   6.550   0.265   4.192  0.2873  0.0784 -0.5245
   86poe    c23 1023   6.453   0.305   4.287  0.9164  0.5976 -0.0831
   86poe    c23 1024   6.390   0.169   4.323  0.7315  0.4727 -0.8409
   86poe     o2 1025   6.386   0.076   4.217  0.9507 -0.3089 -0.1797
   86poe    c23 1026   6.348  -0.053   4.259  0.0508  0.2074  0.6407
   86poe    c23 1027   6.311  -0.134   4.133  1.0683 -0.1276  0.5501
   86poe     o2 1028   6.407  -0.098   4.036  0.9456 -0.6527  0.2309
   86poe    c23 1029   6.420  -0.211   3.952  0.0311 -0.3914 -0.2744
   86poe    c23 1030   6.393  -0.176   3.805 -0.7861  0.0311 -0.0319
   86poe     o2 1031   6.361  -0.286   3.723 -0.0801 -0.2667  0.0842
   86poe    c31 1032   6.458  -0.385   3.698 -0.2618 -0.5011  0.3051
   87poe    c31 1033   1.310   6.641   0.093  0.3046  0.4165  0.3639
   87poe     o2 1034   1.379   6.595  -0.021 -0.0428  0.0099  0.3161
   87poe    c23 1035   1.352   6.686  -0.126 -0.2857 -0.3312  0.0780
   87poe    c23 1036   1.392   6.616  -0.257  0.0555 -0.5277  0.2857
   87poe     o2 1037   1.420   6.479  -0.236 -0.4520 -0.7110 -0.2158
   87poe    c23 1038   1.520   6.431  -0.322 -0.2998 -0.3534 -0.2419
   87poe    c23 1039   1.542   6.286  -0.275 -0.2918 -0.2304  0.1396
   87poe     o2 1040   1.539   6.303  -0.135  0.7989  0.5618  0.0838
   87poe    c23 1041   1.584   6.193  -0.060 -0.3210  0.2229  0.2824
   87poe    c23 1042   1.568   6.230   0.089 -0.3108  0.2274  0.2824
   87poe     o2 1043   1.442   6.293   0.093 -0.4076  0.0408  0.1952
   87poe    c31 1044   1.391   6.301   0.224 -0.5768  0.5683  0.0996
   88poe    c31 1045   0.029   4.664   5.022  0.2155 -0.3609 -0.3783
   88poe     o2 1046  -0.078   4.681   4.931 -0.0841  0.8847  0.1828
   88poe    c23 1047  -0.027   4.713   4.803  0.4844 -1.1481 -0.1350
   88poe    c23 1048  -0.143   4.696   4.703  0.2738 -0.0366 -0.0941
   88poe     o2 1049  -0.260   4.743   4.765 -0.1643 -0.6577 -0.4431
   88poe    c23 1050  -0.370   4.712   4.682 -0.7296 -0.6274  0.2847
   88poe    c23 1051  -0.485   4.780   4.758 -0.1740  0.1930  0.4062
   88poe     o2 1052  -0.455   4.726   4.884 -0.2771 -0.6783  0.0668
   88poe    c23 1053  -0.529   4.769   4.996 -0.1262 -0.4820  0.0916
   88poe    c23 1054  -0.439   4.766   5.121  0.0460  0.4112 -0.0087
   88poe     o2 1055  -0.300   4.772   5.097  0.0916 -0.2904  0.0508
   88poe    c31 1056  -0.237   4.839   5.204  0.2458  0.7280 -0.6512
   89poe    c31 1057   5.118   0.572   0.805 -0.4829 -0.5656  0.2276
   89poe     o2 1058   5.046   0.552   0.686 -0.0867  0.3382 -0.1723
   89poe    c23 1059   5.119   0.477   0.591 -0.0143  0.5464 -0.2815
   89poe    c23 1060   5.033   0.459   0.464 -0.7419 -0.4142  0.3344
   89poe     o2 1061   4.993   0.587   0.421  0.1236 -0.4345 -0.5776
   89poe    c23 1062   4.861   0.571   0.372 -0.3690 -0.5223  0.7202
   89poe    c23 1063   4.770   0.670   0.447 -0.4204 -0.0925  0.0955
   89poe     o2 1064   4.753   0.635   0.582  0.0696  0.1933  0.2339
   89poe    c23 1065   4.627   0.573   0.600 -0.0471  0.3734  0.0361
   89poe    c23 1066   4.605   0.546   0.750  0.5382  0.9240  0.2293
   89poe     o2 1067   4.724   0.499   0.811  0.3371 -0.3397 -0.3061
   89poe    c31 1068   4.718   0.391   0.901 -0.5985 -0.4035 -0.4344
   90poe    c31 1069   2.767   5.610   6.798  0.3647  0.3612  0.4514
   90poe     o2 1070   2.811   5.654   6.671  0.2816 -0.3314  0.1768
   90poe    c23 1071   2.869   5.782   6.685  0.1282 -0.2408 -0.0150
   90poe    c23 1072   2.923   5.829   6.549 -0.0090  0.4240  0.1542
   90poe     o2 1073   2.839   5.769   6.452  0.0094  0.6237  0.0143
   90poe    c23 1074   2.857   5.820   6.322 -0.7664  0.4166 -0.1747
   90poe    c23 1075   2.767   5.725   6.240  0.0558 -0.3709 -0.1801
   90poe     o2 1076   2.793   5.594   6.285  0.0344 -0.2930  0.0620
   90poe    c23 1077   2.913   5.527   6.252  0.1486  0.0698 -0.2713
   90poe    c23 1078   2.917   5.389   6.321 -0.8097  0.4538  0.5785
   90poe     o2 1079   2.886   5.425   6.454 -0.4031  0.7257  0.6024
   90poe    c31 1080   2.838   5.312   6.522  0.7567  0.0773  0.3694
   91poe    c31 1081   6.638   5.228   4.074  0.5131 -0.2393  0.2205
   91poe     o2 1082   6.772   5.243   4.114  0.6145  0.3093 -0.3003
   91poe    c23 1083   6.772   5.296   4.245 -0.4804  0.0836 -0.2047
   91poe    c23 1084   6.920   5.314   4.283 -0.2364 -0.1009 -1.0497
   91poe     o2 1085   6.980   5.406   4.194 -0.1278  0.4855 -0.3826
   91poe    c23 1086   7.110   5.365   4.155 -0.1183  0.3954 -0.2592
   91poe    c23 1087   7.100   5.363   4.001 -0.9076 -0.5720 -0.2072
   91poe     o2 1088   7.038   5.251   3.944 -0.2917 -0.7747 -0.4900
   91poe    c23 1089   7.024   5.249   3.803 -1.0372  0.3632 -0.4440
   91poe    c23 1090   6.949   5.118   3.774  0.1453 -0.3617 -0.3137
   91poe     o2 1091   6.831   5.126   3.852  0.7386  0.5293  0.5244
   91poe    c31 1092   6.717   5.097   3.773  1.1628  0.4954 -0.0866
   92poe    c31 1093   0.079   4.553   1.085  0.1608 -0.5960  0.0003
   92poe     o2 1094  -0.005   4.448   1.043  0.2087 -0.4100 -0.5760
   92poe    c23 1095  -0.106   4.422   1.139  0.0594  0.4419 -0.4954
   92poe    c23 1096  -0.178   4.297   1.084 -0.1740  0.3636 -0.0096
   92poe     o2 1097  -0.193   4.315   0.945  0.1670 -0.0371 -0.0994
   92poe    c23 1098  -0.256   4.208   0.878 -0.2700  0.1707 -0.0271
   92poe    c23 1099  -0.189   4.197   0.740  0.4630 -0.8009  0.3887
   92poe     o2 1100  -0.052   4.228   0.751  0.4684 -0.6897  0.0413
   92poe    c23 1101   0.021   4.231   0.630  0.1140 -0.7539 -0.1743
   92poe    c23 1102   0.153   4.303   0.664 -0.4712  0.0341  0.4772
   92poe     o2 1103   0.149   4.357   0.794 -0.4975  0.4214  0.3183
   92poe    c31 1104   0.277   4.392   0.839 -0.0598  0.2693 -0.7903
   93poe    c31 1105   4.632   0.629   2.807 -0.5122 -0.1415 -0.4811
   93poe     o2 1106   4.633   0.659   2.945 -0.4856  0.2578 -0.5668
   93poe    c23 1107   4.501   0.686   2.988 -0.4253  0.5640 -0.5765
   93poe    c23 1108   4.500   0.707   3.140 -0.1605 -0.7735 -0.3787
   93poe     o2 1109   4.612   0.791   3.156 -0.5375 -0.3602  0.1572
   93poe    c23 1110   4.622   0.826   3.292 -0.9285  0.9982 -0.1458
   93poe    c23 1111   4.745   0.919   3.296 -0.6331  0.6064 -0.0085
   93poe     o2 1112   4.838   0.837   3.228 -0.9630  0.0730  0.1822
   93poe    c23 1113   4.976   0.844   3.255 -0.7826  0.1711 -0.7432
   93poe    c23 1114   5.042   0.721   3.189  0.0456  0.2207 -0.0277
   93poe     o2 1115   4.977   0.697   3.066 -0.3892 -0.4889  0.3355
   93poe    c31 1116   5.080   0.655   2.980 -0.1258  0.5191  0.1450
   94poe    c31 1117   1.385   3.826   0.892 -0.3037  0.0984  0.4746
   94poe     o2 1118   1.261   3.892   0.894 -0.4032 -0.0688 -0.1908
   94poe    c23 1119   1.263   3.982   1.002  0.2123 -0.3531  0.0334
   94poe    c23 1120   1.114   4.014   1.025  0.2732 -0.0743  0.0438
   94poe     o2 1121   1.035   3.898   1.013  0.2931 -0.0832 -0.0043
   94poe    c23 1122   1.041   3.847   1.145 -1.0064  0.4760  0.2820
   94poe    c23 1123   1.041   3.694   1.125 -0.0622  0.5335 -0.2381
   94poe     o2 1124   1.108   3.664   1.006 -0.5851 -0.0965 -0.3808
   94poe    c23 1125   1.086   3.534   0.954 -0.1936 -0.1012 -0.5432
   94poe    c23 1126   1.175   3.525   0.829  0.0274 -0.0912 -0.3876
   94poe     o2 1127   1.167   3.650   0.766  0.1764 -0.1244 -0.4727
   94poe    c31 1128   1.198   3.629   0.630 -0.3959  0.5949 -0.7222
   95poe    c31 1129   5.447   1.592   1.933  0.2821 -0.5099  0.4545
   95poe     o2 1130   5.540   1.518   1.858  0.6163 -0.0974  0.4584
   95poe    c23 1131   5.637   1.605   1.804  0.0106  0.4674  0.2789
   95poe    c23 1132   5.746   1.524   1.731  0.2019  0.4415  0.5949
   95poe     o2 1133   5.686   1.436   1.640  0.1889  0.6110  0.4395
   95poe    c23 1134   5.786   1.370   1.566 -0.3919 -0.5072  0.6309
   95poe    c23 1135   5.717   1.293   1.451 -0.0059  0.1066 -0.0174
   95poe     o2 1136   5.626   1.378   1.386 -0.0756  0.0666  0.0273
   95poe    c23 1137   5.585   1.318   1.265 -0.1008  0.2181 -0.0406
   95poe    c23 1138   5.497   1.418   1.188  0.1810  0.5722  0.0964
   95poe     o2 1139   5.391   1.482   1.255  0.1294 -0.1664  0.7385
   95poe    c31 1140   5.273   1.406   1.245  0.6070 -0.7998 -0.2443
   96poe    c31 1141   2.717   0.934   5.128  0.5778  0.0434  0.3691
   96poe     o2 1142   2.808   0.871   5.041  0.2438 -0.2869  0.2511
   96poe    c23 1143   2.750   0.757   4.984  0.3396 -0.2288  0.0356
   96poe    c23 1144   2.850   0.683   4.893  0.5590  0.2733 -0.1331
   96poe     o2 1145   2.907   0.780   4.809  0.2364 -0.0216 -0.7024
   96poe    c23 1146   3.033   0.739   4.761  0.2169 -0.1644 -0.6307
   96poe    c23 1147   3.136   0.853   4.759 -0.1813  0.2137  0.1241
   96poe     o2 1148   3.098   0.927   4.873 -0.1189  0.5068 -0.0434
   96poe    c23 1149   3.202   0.981   4.951 -0.4708  0.5391  0.4100
   96poe    c23 1150   3.132   1.017   5.083  0.0341  0.1346  0.7926
   96poe     o2 1151   3.005   1.069   5.049  0.1026 -0.0537  0.2383
   96poe    c31 1152   3.009   1.207   5.074  0.5599  0.0400 -0.3161
   97poe    c31 1153   6.736   2.638   2.976 -0.3171 -0.0346  0.7680
   97poe     o2 1154   6.650   2.660   2.866  0.3616  0.2796  0.2987
   97poe    c23 1155   6.538   2.593   2.918  0.2512  0.0277 -0.2570
   97poe    c23 1156   6.422   2.594   2.817 -0.0198  0.7359  0.0564
   97poe     o2 1157   6.481   2.574   2.691  0.4193  0.6924  0.2663
   97poe    c23 1158   6.409   2.597   2.572  0.5980  0.6300  0.1465
   97poe    c23 1159   6.511   2.574   2.458  0.0577  0.2056 -0.2565
   97poe     o2 1160   6.628   2.640   2.500 -0.0774  0.1241  0.2655
   97poe    c23 1161   6.729   2.647   2.401  0.2364  0.4064  0.6007
   97poe    c23 1162   6.823   2.751   2.465  0.2876  0.8279 -0.1480
   97poe     o2 1163   6.828   2.726   2.604 -0.0678 -0.2904 -0.3233
   97poe    c31 1164   6.860   2.840   2.680 -0.6414  0.0412 -0.5671
   98poe    c31 1165   6.340   0.739   6.031  0.3139  0.0151 -0.3731
   98poe     o2 1166   6.343   0.786   5.898 -0.5833 -0.0351 -0.4181
   98poe    c23 1167   6.444   0.717   5.829  0.2351  0.3255  0.3898
   98poe    c23 1168   6.483   0.804   5.707 -0.1803  0.1389  0.1205
   98poe     o2 1169   6.373   0.880   5.663 -0.1792 -0.1326 -0.3540
   98poe    c23 1170   6.414   0.990   5.584  0.1496  0.0653  0.0907
   98poe    c23 1171   6.312   1.101   5.613  0.0291 -0.1533  0.5250
   98poe     o2 1172   6.240   1.047   5.721  0.0510 -0.0673  0.5832
   98poe    c23 1173   6.115   1.106   5.748 -0.2033 -0.0544 -0.5681
   98poe    c23 1174   6.044   1.047   5.871  0.2842 -0.0865 -0.2996
   98poe     o2 1175   6.086   0.912   5.871  0.2033 -0.1133 -0.0194
   98poe    c31 1176   6.011   0.827   5.954  0.2404 -0.4169 -0.2963
   99poe    c31 1177   1.548   0.165   1.735  0.2817 -0.4044  0.3746
   99poe     o2 1178   1.475   0.044   1.729  0.5218 -0.5490  0.3720
   99poe    c23 1179   1.497  -0.038   1.616  0.2218  0.5907 -0.5288
   99poe    c23 1180   1.456  -0.183   1.645  0.1872  0.5978 -0.5416
   99poe     o2 1181   1.435  -0.205   1.783  0.1876 -0.0988 -0.6457
   99poe    c23 1182   1.341  -0.305   1.813  0.1359 -0.0133 -0.5198
   99poe    c23 1183   1.293  -0.248   1.947  0.6986  0.4194 -0.5016
   99poe     o2 1184   1.261  -0.110   1.949 -0.0629  0.2386  0.3664
   99poe    c23 1185   1.221  -0.077   2.081  0.1957 -0.5766  0.6574
   99poe    c23 1186   1.270   0.068   2.092 -0.3143 -0.3701  0.2351
   99poe     o2 1187   1.385   0.094   2.015 -0.4778 -0.7686 -0.1508
   99poe    c31 1188   1.502   0.086   2.094 -0.5041  0.6582  0.0721
  100poe    c31 1189   1.262   1.699   6.588  0.7727  0.6715 -0.3366
  100poe     o2 1190   1.164   1.746   6.499  0.2728 -0.3031 -0.3189
  100poe    c23 1191   1.247   1.828   6.419  0.0906  0.1747 -0.0243
  100poe    c23 1192   1.154   1.936   6.360 -0.5123 -0.1806  0.2640
  100poe     o2 1193   1.036   1.869   6.320 -0.3182 -0.2173 -0.2480
  100poe    c23 1194   0.925   1.950   6.291 -0.2797 -0.1181 -0.1211
  100poe    c23 1195   0.819   1.840   6.272  0.0165 -0.3194 -0.6250
  100poe     o2 1196   0.854   1.733   6.357 -0.1008  0.4686  0.4425
  100poe    c23 1197   0.755   1.633   6.367 -0.2403  0.5555 -0.0235
  100poe    c23 1198   0.778   1.578   6.509 -0.2997 -0.4663 -0.3992
  100poe     o2 1199   0.914   1.543   6.527 -0.2750 -0.3626 -0.3853
  100poe    c31 1200   0.942   1.477   6.648  1.5450  0.9322 -0.0605
  101poe    c31 1201   5.097   2.057   5.310 -0.2834 -0.0882 -1.0770
  101poe     o2 1202   5.057   1.929   5.353 -0.1021  0.0238 -0.5674
  101poe    c23 1203   4.925   1.902   5.310 -0.4986  0.2488  0.4761
  101poe    c23 1204   4.867   1.785   5.392 -0.4511  0.2419  0.5001
  101poe     o2 1205   4.964   1.686   5.416 -0.1633  0.3486 -0.1810
  101poe    c23 1206   4.921   1.577   5.338  0.7954  0.0118 -0.2560
  101poe    c23 1207   4.980   1.456   5.412 -0.5220 -0.6978 -0.3426
  101poe     o2 1208   5.118   1.436   5.396 -0.3350 -0.3680  0.7520
  101poe    c23 1209   5.147   1.345   5.292  0.5002  0.3312  0.3646
  101poe    c23 1210   5.293   1.347   5.243  0.6478  0.2469  0.8039
  101poe     o2 1211   5.379   1.322   5.353  0.3208 -0.3580  0.9285
  101poe    c31 1212   5.501   1.275   5.301  0.1953  0.3827 -0.0742
  102poe    c31 1213   0.126   0.422   5.156 -0.0040 -0.2760 -0.0858
  102poe     o2 1214   0.064   0.547   5.172 -0.0287 -0.2934 -0.0438
  102poe    c23 1215   0.117   0.638   5.077 -0.0877 -0.4940 -0.2682
  102poe    c23 1216   0.064   0.779   5.108  0.0158 -0.6605  0.7050
  102poe     o2 1217   0.020   0.789   5.242 -0.9143  0.2850  0.3388
  102poe    c23 1218  -0.050   0.910   5.258 -0.5721  0.4622  0.4905
  102poe    c23 1219  -0.201   0.899   5.289 -0.6676  0.6145  0.0891
  102poe     o2 1220  -0.229   0.808   5.393  0.2838  0.3263  0.1066
  102poe    c23 1221  -0.268   0.680   5.349 -0.5026  0.4737  0.3518
  102poe    c23 1222  -0.213   0.575   5.448 -0.7521 -0.1942 -0.2059
  102poe     o2 1223  -0.085   0.522   5.426 -0.4990  0.4092 -0.2215
  102poe    c31 1224  -0.091   0.392   5.481  0.6634  0.5106  0.1670
  103poe    c31 1225   1.192   2.252   5.150  0.4370  0.2827  0.5267
  103poe     o2 1226   1.279   2.274   5.041 -0.1445  0.2646  0.0503
  103poe    c23 1227   1.416   2.244   5.059 -0.4484 -1.1211  0.1640
  103poe    c23 1228   1.489   2.283   4.929  0.0611 -0.2693  0.6931
  103poe     o2 1229   1.446   2.405   4.873  0.3351 -0.3341  0.3425
  103poe    c23 1230   1.510   2.445   4.754 -0.0791 -0.4540  0.0737
  103poe    c23 1231   1.420   2.551   4.689 -0.0181 -0.4191  0.0458
  103poe     o2 1232   1.291   2.493   4.698 -0.3202  0.2989  0.4077
  103poe    c23 1233   1.197   2.597   4.684 -0.1252  0.4556  0.2525
  103poe    c23 1234   1.079   2.572   4.780 -0.6834  0.3526 -0.4516
  103poe     o2 1235   1.133   2.519   4.899 -0.3582 -0.0096 -0.7598
  103poe    c31 1236   1.027   2.505   4.991  0.0798 -0.6060 -0.3385
  104poe    c31 1237   1.443   3.227   2.014 -0.1089 -0.0913  0.5811
  104poe     o2 1238   1.409   3.113   1.939 -0.7229 -0.0636  0.8087
  104poe    c23 1239   1.382   3.158   1.808 -0.0727 -0.6693  0.4578
  104poe    c23 1240   1.337   3.042   1.718  0.0620 -0.5373  0.2195
  104poe     o2 1241   1.237   2.969   1.785  0.1157 -0.5710  0.2641
  104poe    c23 1242   1.221   2.834   1.747  0.0009 -0.4677 -0.0579
  104poe    c23 1243   1.329   2.742   1.808 -0.1557 -0.4165  0.2952
  104poe     o2 1244   1.342   2.771   1.946 -0.2996 -0.1559  0.2561
  104poe    c23 1245   1.412   2.671   2.016  0.1459  0.3613  0.5550
  104poe    c23 1246   1.426   2.730   2.157  0.3007  0.3006  0.5659
  104poe     o2 1247   1.451   2.869   2.161 -0.1344  0.3896  0.2210
  104poe    c31 1248   1.491   2.901   2.292 -0.4324  0.0271  0.4026
  105poe    c31 1249   1.758   1.395   4.751  0.0201  0.5458 -0.2010
  105poe     o2 1250   1.788   1.414   4.614 -0.4461 -0.4327 -0.4413
  105poe    c23 1251   1.862   1.298   4.581 -0.3625 -0.4208 -0.2974
  105poe    c23 1252   1.889   1.316   4.430  0.2350 -0.1653 -0.1606
  105poe     o2 1253   1.899   1.454   4.403 -0.1024 -0.1347 -0.1288
  105poe    c23 1254   1.927   1.493   4.270  0.1827  0.7185  0.1760
  105poe    c23 1255   1.823   1.605   4.253 -0.5008  0.0935  0.1836
  105poe     o2 1256   1.795   1.674   4.373  0.1416  0.0712  0.3509
  105poe    c23 1257   1.685   1.762   4.366  0.0133 -0.0930  0.2884
  105poe    c23 1258   1.580   1.709   4.466 -0.3865  0.1228 -0.0147
  105poe     o2 1259   1.661   1.655   4.568  0.0916  0.6737 -0.0975
  105poe    c31 1260   1.578   1.659   4.682  0.1773 -0.8484  0.0344
  106poe    c31 1261   4.098   4.237   2.640 -0.2456  0.4621  0.6336
  106poe     o2 1262   4.151   4.333   2.729  0.5070  0.1616  0.5170
  106poe    c23 1263   4.129   4.316   2.867  1.1988 -1.0125  0.4934
  106poe    c23 1264   4.212   4.429   2.931  0.1613  0.0303  0.0468
  106poe     o2 1265   4.334   4.439   2.859 -0.0051  0.1102 -0.2250
  106poe    c23 1266   4.409   4.549   2.906  0.2655 -0.3659  0.4705
  106poe    c23 1267   4.541   4.568   2.828  0.0827 -0.2177  0.1951
  106poe     o2 1268   4.525   4.525   2.695 -0.1042 -0.3242  0.2505
  106poe    c23 1269   4.585   4.402   2.661  0.4965  0.0151  0.0482
  106poe    c23 1270   4.519   4.355   2.530 -0.1279 -0.0302  0.3741
  106poe     o2 1271   4.380   4.373   2.545 -0.1015  0.7003 -0.1853
  106poe    c31 1272   4.325   4.357   2.416 -0.4278  0.2931 -0.0001
  107poe    c31 1273   0.768   5.607   2.340 -0.3634 -0.0086 -0.1408
  107poe     o2 1274   0.773   5.669   2.214  0.7464  0.0977 -0.0491
  107poe    c23 1275   0.680   5.602   2.133  0.9539  0.1604 -0.3427
  107poe    c23 1276   0.690   5.638   1.983  0.2315  0.0001 -0.4344
  107poe     o2 1277   0.697   5.778   1.971  0.1418  0.0822  0.3881
  107poe    c23 1278   0.758   5.822   1.851 -0.4547  0.0545  0.0699
  107poe    c23 1279   0.912   5.824   1.860 -0.4402 -0.1796 -0.1483
  107poe     o2 1280   0.949   5.865   1.990  0.5949  0.0500 -0.5065
  107poe    c23 1281   1.082   5.904   2.014  0.5932 -0.2409 -0.0050
  107poe    c23 1282   1.066   5.965   2.154  0.3540  0.5943 -0.3893
  107poe     o2 1283   0.986   5.895   2.246  0.7507  0.0148 -0.4841
  107poe    c31 1284   1.047   5.889   2.373  0.3972  0.1641 -0.3057
  108poe    c31 1285   5.683   5.340   3.230  0.0885  0.4776  0.2308
  108poe     o2 1286   5.701   5.274   3.353  0.2803 -0.0129 -0.0557
  108poe    c23 1287   5.710   5.133   3.349  0.2924 -0.0091 -0.1362
  108poe    c23 1288   5.846   5.074   3.305  0.3849  0.0283  0.0995
  108poe     o2 1289   5.957   5.101   3.388  0.1139  0.1282  0.4342
  108poe    c23 1290   6.060   5.166   3.317  0.1689 -0.1833  0.2308
  108poe    c23 1291   6.095   5.304   3.375 -0.0633  0.3142 -0.7833
  108poe     o2 1292   5.985   5.389   3.398 -0.4256 -0.1734 -0.7012
  108poe    c23 1293   6.030   5.522   3.393 -0.0605 -0.2631  0.1011
  108poe    c23 1294   5.951   5.586   3.510  0.0678  0.0676  0.0093
  108poe     o2 1295   5.815   5.550   3.508  0.1295 -0.1905  0.3932
  108poe    c31 1296   5.737   5.661   3.548  0.1166  0.1244 -0.4897
  109poe    c31 1297   0.120   5.824   2.143  0.4804  0.1671  0.2465
  109poe     o2 1298   0.035   5.849   2.033  0.3575 -0.2227  0.2525
  109poe    c23 1299  -0.080   5.903   2.094  0.0939 -0.0918 -0.3598
  109poe    c23 1300  -0.163   5.957   1.976  0.4860 -0.0877 -0.6359
  109poe     o2 1301  -0.194   5.846   1.894 -0.6391 -0.5069  0.3280
  109poe    c23 1302  -0.285   5.875   1.791 -0.1206 -0.1863 -0.0460
  109poe    c23 1303  -0.263   5.755   1.696  0.3401  0.0792 -0.2746
  109poe     o2 1304  -0.123   5.734   1.698  0.3565  0.2345  0.5992
  109poe    c23 1305  -0.115   5.599   1.660  0.2098  0.3196  0.2512
  109poe    c23 1306   0.027   5.567   1.711 -0.0811 -0.3288  0.6705
  109poe     o2 1307   0.061   5.640   1.826 -0.3148  0.0637  0.4913
  109poe    c31 1308   0.196   5.619   1.863 -0.1283 -0.2121 -0.3338
  110poe    c31 1309   5.753   0.135   0.213 -1.1668 -0.4126 -0.5120
  110poe     o2 1310   5.727   0.106   0.348  0.1113 -0.2378 -0.2144
  110poe    c23 1311   5.841   0.129   0.427 -0.0280 -0.3449  0.0215
  110poe    c23 1312   5.820   0.095   0.576 -0.3233 -0.4649 -0.0464
  110poe     o2 1313   5.694   0.153   0.599 -0.1996 -0.1804 -0.0792
  110poe    c23 1314   5.657   0.152   0.735 -0.3648 -0.3000 -0.1253
  110poe    c23 1315   5.503   0.160   0.733 -0.3469  0.2441  0.2851
  110poe     o2 1316   5.450   0.090   0.622 -0.4888  0.2291  0.3620
  110poe    c23 1317   5.428  -0.049   0.631 -0.3624  0.2234  0.5918
  110poe    c23 1318   5.373  -0.080   0.491 -0.2016  0.3997  0.4899
  110poe     o2 1319   5.467  -0.021   0.403 -0.5777  0.1536 -0.0804
  110poe    c31 1320   5.418  -0.070   0.280  0.4657 -0.0283 -0.4338
  111poe    c31 1321   5.034   6.497   6.487 -1.0379  0.6480 -0.6223
  111poe     o2 1322   5.115   6.581   6.408  0.0931  0.3150  0.1557
  111poe    c23 1323   5.047   6.701   6.379  0.1244  0.2745 -0.0878
  111poe    c23 1324   5.117   6.799   6.283  0.3214  0.4087  0.1914
  111poe     o2 1325   5.249   6.808   6.330  0.2734 -0.1074  0.4330
  111poe    c23 1326   5.321   6.855   6.218 -0.1920 -0.2364  0.0759
  111poe    c23 1327   5.437   6.755   6.201  0.2370  0.2883 -0.1290
  111poe     o2 1328   5.376   6.629   6.183  0.4952  0.2097 -0.4606
  111poe    c23 1329   5.466   6.526   6.150 -0.1284 -0.3435 -0.4424
  111poe    c23 1330   5.409   6.389   6.195 -0.1565 -0.2596 -0.2204
  111poe     o2 1331   5.342   6.408   6.317  0.4512  0.1298  0.0612
  111poe    c31 1332   5.312   6.283   6.376 -0.1665  0.2335 -0.0231
  112poe    c31 1333   2.221   6.240   6.216  0.2633  0.2600 -0.1570
  112poe     o2 1334   2.182   6.106   6.193  0.7329  0.1387 -0.2575
  112poe    c23 1335   2.201   6.068   6.058  0.6397 -0.5544 -0.0769
  112poe    c23 1336   2.201   5.916   6.037 -0.4483 -0.5236 -0.3488
  112poe     o2 1337   2.090   5.862   6.105 -0.3650 -0.0955  0.1312
  112poe    c23 1338   2.103   5.725   6.139 -0.4656 -0.2760 -0.5351
  112poe    c23 1339   1.985   5.691   6.232  0.1533 -0.6547  0.1209
  112poe     o2 1340   1.992   5.785   6.337  0.1450 -0.1171 -0.3557
  112poe    c23 1341   1.872   5.822   6.400  0.2881 -0.2739  0.0132
  112poe    c23 1342   1.908   5.923   6.510 -0.0184  0.2777 -0.3890
  112poe     o2 1343   2.000   6.016   6.458  0.6162 -0.1927 -0.1222
  112poe    c31 1344   2.016   6.129   6.541 -0.2183 -1.1436  1.3791
  113poe    c31 1345   3.734   0.559   4.219 -0.6133  0.0720 -0.3060
  113poe     o2 1346   3.767   0.498   4.097  0.0502  0.0270 -0.1083
  113poe    c23 1347   3.789   0.585   3.988  0.3786 -0.3689 -0.3664
  113poe    c23 1348   3.928   0.592   3.923  0.3385  0.0426 -0.4120
  113poe     o2 1349   3.964   0.486   3.837  0.2490 -0.2754 -0.0616
  113poe    c23 1350   4.092   0.515   3.786  0.1254 -0.0307 -0.2404
  113poe    c23 1351   4.096   0.483   3.635  0.9576 -0.5361 -0.1204
  113poe     o2 1352   4.042   0.353   3.630 -0.3446 -0.0048 -0.2590
  113poe    c23 1353   4.115   0.275   3.539  0.0714 -0.3173  0.3322
  113poe    c23 1354   4.011   0.185   3.468 -0.4552  0.6039 -0.0765
  113poe     o2 1355   3.916   0.145   3.564  0.0946 -0.4486  0.0452
  113poe    c31 1356   3.847   0.025   3.540  0.4695 -0.4415 -1.1201
  114poe    c31 1357   6.631   0.133   2.537 -0.4835 -0.1364 -0.7414
  114poe     o2 1358   6.685   0.183   2.417  0.0122 -0.2479 -0.5682
  114poe    c23 1359   6.818   0.136   2.420  0.0106 -0.2286 -0.0557
  114poe    c23 1360   6.910   0.232   2.343 -0.7227  0.1216 -0.5113
  114poe     o2 1361   6.964   0.333   2.425  0.1531 -0.5851 -0.2011
  114poe    c23 1362   7.045   0.423   2.354 -0.4909  0.2063  0.0560
  114poe    c23 1363   7.060   0.563   2.418  0.2146  0.2155 -0.1169
  114poe     o2 1364   7.100   0.528   2.548 -0.2918 -0.2153 -0.0712
  114poe    c23 1365   7.082   0.633   2.641 -0.1239 -0.7562  0.5790
  114poe    c23 1366   7.177   0.618   2.762  1.2415  0.0664 -0.3575
  114poe     o2 1367   7.153   0.491   2.818 -0.2704  0.2786 -0.4871
  114poe    c31 1368   7.254   0.477   2.915 -0.1255 -0.3842 -0.7309
  115poe    c31 1369   0.598   1.622   0.832  0.1252 -0.2553  1.0396
  115poe     o2 1370   0.687   1.512   0.834  0.5491  0.0617  0.3209
  115poe    c23 1371   0.767   1.495   0.949  0.1538 -0.1236  0.5707
  115poe    c23 1372   0.821   1.351   0.954  0.1838 -0.1345 -0.0336
  115poe     o2 1373   0.925   1.326   0.862 -0.1983  0.5468 -0.6639
  115poe    c23 1374   0.874   1.241   0.762 -0.4037  0.1409 -0.2181
  115poe    c23 1375   0.993   1.219   0.667  0.0336  0.4608  0.2516
  115poe     o2 1376   1.085   1.178   0.766 -0.0042  0.3327  0.2337
  115poe    c23 1377   1.206   1.140   0.703 -0.3177  0.1320 -0.2571
  115poe    c23 1378   1.309   1.117   0.815  0.0823  0.2896 -0.5922
  115poe     o2 1379   1.306   1.244   0.875 -0.2318 -0.1677  0.3886
  115poe    c31 1380   1.422   1.297   0.935 -0.3280  0.6907 -0.1528
  116poe    c31 1381   6.737   1.065   0.873  0.4234 -0.8841 -0.0332
  116poe     o2 1382   6.753   1.135   0.994 -0.1389  0.6268 -0.7977
  116poe    c23 1383   6.752   1.040   1.099 -0.2566  0.5598 -0.8587
  116poe    c23 1384   6.745   1.106   1.238  0.3881 -0.6030 -0.2648
  116poe     o2 1385   6.812   1.230   1.236 -0.7157  0.0079 -0.1944
  116poe    c23 1386   6.792   1.297   1.359 -0.7517  0.1675 -0.2878
  116poe    c23 1387   6.842   1.439   1.326 -0.3334  0.0649 -0.0991
  116poe     o2 1388   6.836   1.457   1.186 -0.0669  0.2159 -0.0922
  116poe    c23 1389   6.926   1.557   1.144 -0.1128  0.4547  0.3699
  116poe    c23 1390   6.957   1.542   0.994 -0.4976  0.3067  0.3043
  116poe     o2 1391   6.942   1.411   0.944 -0.0197  0.2636  0.2704
  116poe    c31 1392   7.032   1.375   0.841 -0.2456 -0.1248  0.2072
  117poe    c31 1393   1.365   1.774   0.107 -0.2152  0.1268  0.4032
  117poe     o2 1394   1.476   1.734   0.183  0.1845 -0.2791 -0.3775
  117poe    c23 1395   1.461   1.599   0.221 -0.1067 -0.1151  0.0984
  117poe    c23 1396   1.568   1.549   0.319 -0.5377 -0.9404  0.1544
  117poe     o2 1397   1.701   1.588   0.291 -0.5892 -0.5145  0.4939
  117poe    c23 1398   1.789   1.563   0.398  0.5633 -0.0895 -0.3352
  117poe    c23 1399   1.929   1.588   0.338  0.5396  0.2796 -0.2407
  117poe     o2 1400   1.928   1.711   0.270 -0.2031  0.4440  0.0532
  117poe    c23 1401   2.050   1.738   0.205 -0.3143  0.4828 -0.1398
  117poe    c23 1402   2.041   1.866   0.119  0.2495  0.4795 -0.2127
  117poe     o2 1403   2.050   1.977   0.205  0.3318  0.5003 -0.2482
  117poe    c31 1404   1.970   2.092   0.188  0.2220  0.4011 -0.4029
  118poe    c31 1405   1.194   2.361   5.593 -0.2141 -0.1893 -0.6861
  118poe     o2 1406   1.222   2.499   5.591  0.3136 -0.2975 -1.0891
  118poe    c23 1407   1.096   2.562   5.582  0.4360  0.1978  0.4053
  118poe    c23 1408   1.111   2.713   5.607  0.6319  0.2973 -0.2961
  118poe     o2 1409   1.225   2.764   5.542  0.3642  0.5226 -0.5914
  118poe    c23 1410   1.271   2.884   5.602  0.1755  0.1645  0.2782
  118poe    c23 1411   1.416   2.904   5.555  0.0786 -0.1492 -0.1680
  118poe     o2 1412   1.496   2.804   5.614 -0.4326 -0.4580  0.0019
  118poe    c23 1413   1.614   2.771   5.544  0.0529  0.0872  0.5564
  118poe    c23 1414   1.675   2.641   5.599  0.0544 -0.1336  0.0315
  118poe     o2 1415   1.570   2.547   5.613 -0.1731  0.1178  0.0213
  118poe    c31 1416   1.605   2.411   5.597 -0.3390  0.0236  0.4748
  119poe    c31 1417   0.190   3.520   6.795 -0.5396  0.4145  0.3586
  119poe     o2 1418   0.322   3.559   6.827  0.0713 -0.6967 -0.7159
  119poe    c23 1419   0.396   3.455   6.887 -0.3082 -0.1691  0.6974
  119poe    c23 1420   0.507   3.487   6.989 -0.2852  0.2453  0.5456
  119poe     o2 1421   0.602   3.574   6.932 -0.3683  0.3822  0.6157
  119poe    c23 1422   0.692   3.616   7.032  0.1803  0.0988  0.2435
  119poe    c23 1423   0.782   3.732   6.985  0.5273 -0.2034  0.1543
  119poe     o2 1424   0.817   3.697   6.853 -0.8515  0.2351 -0.3407
  119poe    c23 1425   0.937   3.766   6.827 -0.3061 -0.5047  0.1745
  119poe    c23 1426   1.009   3.735   6.695  0.3926  1.1968  0.1267
  119poe     o2 1427   0.936   3.781   6.584 -0.2489 -0.1676 -0.0376
  119poe    c31 1428   0.981   3.742   6.456  0.2278  0.4207 -0.0553
  120poe    c31 1429   1.903   1.045   3.806  0.2007 -0.9672  0.2914
  120poe     o2 1430   1.822   0.979   3.901 -0.9821 -0.5204 -0.3892
  120poe    c23 1431   1.870   0.847   3.914 -0.0851 -0.1723 -0.0452
  120poe    c23 1432   1.765   0.771   3.997 -0.1256 -0.4152 -0.3161
  120poe     o2 1433   1.726   0.861   4.098  0.3873 -0.0676 -0.4224
  120poe    c23 1434   1.601   0.836   4.160  0.5255 -0.0476 -0.1322
  120poe    c23 1435   1.545   0.969   4.212  0.0691 -0.3724  0.2109
  120poe     o2 1436   1.574   1.070   4.118 -0.4435 -0.3691  0.0554
  120poe    c23 1437   1.521   1.188   4.173  0.2934 -0.1041  0.1982
  120poe    c23 1438   1.570   1.287   4.065  0.2573  0.0278  0.3017
  120poe     o2 1439   1.699   1.250   4.020 -0.0865 -0.2145 -0.4896
  120poe    c31 1440   1.728   1.332   3.910  0.6763  0.6206  0.3253
  121poe    c31 1441   4.668   0.564   2.037  0.1369 -0.3991 -0.2299
  121poe     o2 1442   4.731   0.681   1.992 -0.1539  0.1106  0.6702
  121poe    c23 1443   4.770   0.663   1.858 -0.5180  0.5228  0.5070
  121poe    c23 1444   4.899   0.744   1.836  0.0363 -0.4176  0.2854
  121poe     o2 1445   4.878   0.875   1.881  0.1773 -0.2681 -0.0791
  121poe    c23 1446   5.001   0.936   1.914  0.1185  0.0544 -0.4495
  121poe    c23 1447   4.980   1.039   2.027  0.0653  0.0391 -0.4456
  121poe     o2 1448   4.906   0.966   2.122  0.4487  0.1461 -0.0607
  121poe    c23 1449   4.880   1.041   2.238  0.0256 -0.0697 -0.0135
  121poe    c23 1450   4.815   0.955   2.348  0.4311 -0.8184 -0.3572
  121poe     o2 1451   4.721   0.886   2.268  0.2915 -0.5359 -0.4363
  121poe    c31 1452   4.626   0.823   2.351  0.1831  0.6142  0.3499
  122poe    c31 1453   6.504   3.095   3.677 -0.6423  0.1447 -0.6930
  122poe     o2 1454   6.530   2.958   3.701  0.9532  0.5044 -0.2692
  122poe    c23 1455   6.613   2.921   3.593  0.3927 -0.0337 -0.5182
  122poe    c23 1456   6.626   2.767   3.599 -0.4368 -0.1091 -0.5209
  122poe     o2 1457   6.654   2.733   3.733 -0.4399 -0.0744 -0.5113
  122poe    c23 1458   6.642   2.598   3.772 -0.2655  0.1768  0.4371
  122poe    c23 1459   6.495   2.556   3.791 -0.0519 -0.3839  0.8718
  122poe     o2 1460   6.436   2.666   3.856 -0.0377  0.0595  0.1465
  122poe    c23 1461   6.298   2.657   3.886 -0.0966 -0.0913 -0.1680
  122poe    c23 1462   6.224   2.774   3.818  0.0460 -0.0311 -0.2210
  122poe     o2 1463   6.291   2.893   3.853 -0.5618  0.2762 -0.0808
  122poe    c31 1464   6.208   3.000   3.815 -0.0909  0.5944 -0.2253
  123poe    c31 1465   1.978   6.624   4.422  0.3046  0.3699 -0.0015
  123poe     o2 1466   1.895   6.660   4.530 -0.4028 -0.0545 -0.3904
  123poe    c23 1467   1.799   6.747   4.474 -0.3084  0.4072  0.1498
  123poe    c23 1468   1.715   6.797   4.593 -0.6740  0.4279 -0.1133
  123poe     o2 1469   1.819   6.832   4.682 -0.4702 -0.6284  0.0848
  123poe    c23 1470   1.772   6.863   4.811 -0.6154 -0.9266  0.1020
  123poe    c23 1471   1.899   6.875   4.897 -0.5864  0.1785 -0.0928
  123poe     o2 1472   1.979   6.763   4.867 -0.2818  0.4072 -0.1375
  123poe    c23 1473   2.106   6.769   4.929 -0.4841 -0.2541  0.3430
  123poe    c23 1474   2.174   6.632   4.906  0.7289  0.4257 -0.2437
  123poe     o2 1475   2.133   6.582   4.781  0.8758 -0.1073 -0.0832
  123poe    c31 1476   2.163   6.451   4.739  0.5687 -0.1931 -0.0354
  124poe    c31 1477   1.752   0.458   0.053 -0.0580 -0.3818  0.1521
  124poe     o2 1478   1.884   0.413   0.072  0.2760  0.3298 -0.4351
  124poe    c23 1479   1.870   0.307   0.165  0.2987  0.4143 -0.3348
  124poe    c23 1480   2.013   0.292   0.221 -0.0177 -0.3558  0.2820
  124poe     o2 1481   2.097   0.328   0.114 -0.3457 -0.5857 -0.0587
  124poe    c23 1482   2.223   0.297   0.169 -0.0362  0.3249 -0.2331
  124poe    c23 1483   2.330   0.320   0.060  0.4039 -0.0962  0.1067
  124poe     o2 1484   2.314   0.444  -0.005 -0.2918 -0.2521 -0.0262
  124poe    c23 1485   2.436   0.493  -0.057  0.0483 -0.3142  0.6932
  124poe    c23 1486   2.512   0.417  -0.167 -0.5887 -0.1810  0.1557
  124poe     o2 1487   2.613   0.335  -0.114 -0.3369  0.0859  0.0935
  124poe    c31 1488   2.701   0.284  -0.211 -0.2202  0.1045  0.1901
  125poe    c31 1489   3.614   2.927   1.127 -0.4133 -0.1491  0.1187
  125poe     o2 1490   3.572   2.855   1.014 -0.3956 -0.4450  0.2998
  125poe    c23 1491   3.616   2.721   1.014  0.6148 -0.1190 -0.0503
  125poe    c23 1492   3.515   2.657   0.917  0.0804  0.6558 -0.0183
  125poe     o2 1493   3.510   2.747   0.809  0.4757  0.1755 -0.4425
  125poe    c23 1494   3.572   2.703   0.690  0.7802  0.3994 -0.3677
  125poe    c23 1495   3.579   2.831   0.604 -0.6820  0.5141 -0.3443
  125poe     o2 1496   3.579   2.942   0.690  0.5131  0.2941 -0.0317
  125poe    c23 1497   3.537   3.059   0.622 -0.1522  0.3809  0.5162
  125poe    c23 1498   3.571   3.171   0.722  0.1179  0.7839 -0.0258
  125poe     o2 1499   3.520   3.133   0.848  0.5795  0.4929  0.0742
  125poe    c31 1500   3.510   3.241   0.938  0.2334  0.3998  0.1489
  126poe    c31 1501   4.265   0.550   0.912  0.5681  0.2728 -0.0471
  126poe     o2 1502   4.317   0.431   0.966 -0.0515 -0.0477 -0.1478
  126poe    c23 1503   4.266   0.319   0.897  0.3691 -0.1378 -0.3107
  126poe    c23 1504   4.354   0.195   0.921 -0.5633 -0.6559  0.4754
  126poe     o2 1505   4.371   0.180   1.060 -0.0415  0.1351  0.5020
  126poe    c23 1506   4.277   0.099   1.127 -0.5254  0.4109  0.1594
  126poe    c23 1507   4.227   0.170   1.254 -0.3775 -0.1725  0.5485
  126poe     o2 1508   4.226   0.309   1.228 -0.4327 -0.2747 -0.0069
  126poe    c23 1509   4.185   0.375   1.346 -0.5683  0.0511 -0.2364
  126poe    c23 1510   4.196   0.526   1.317  0.0026  0.1032  0.2372
  126poe     o2 1511   4.318   0.538   1.246 -0.3584 -0.4060 -0.4762
  126poe    c31 1512   4.349   0.675   1.248 -0.6800 -0.3340 -0.3750
  127poe    c31 1513   6.335   1.564   5.639 -1.1358  0.5059 -0.2121
  127poe     o2 1514   6.391   1.640   5.744  0.1042 -0.3730 -0.2152
  127poe    c23 1515   6.486   1.562   5.812  0.3830  0.0172 -0.1514
  127poe    c23 1516   6.571   1.667   5.886  0.0940 -0.1552  0.4359
  127poe     o2 1517   6.488   1.749   5.966 -0.0428  0.0920  0.0468
  127poe    c23 1518   6.549   1.836   6.059  0.1580  0.3032 -0.2826
  127poe    c23 1519   6.432   1.917   6.117  0.3751 -0.0737  0.6935
  127poe     o2 1520   6.349   1.952   6.009  0.2976 -0.5697  0.5889
  127poe    c23 1521   6.217   1.945   6.060  0.1259 -0.0223  0.2363
  127poe    c23 1522   6.124   1.886   5.952 -0.0242  0.3249  0.1772
  127poe     o2 1523   6.179   1.766   5.905  0.3705  0.7033 -0.3346
  127poe    c31 1524   6.075   1.685   5.855  0.0774  0.7167  0.2463
  128poe    c31 1525   5.359   6.505   4.401  0.0207 -0.4939  0.0877
  128poe     o2 1526   5.350   6.541   4.536 -0.2796  0.0804 -0.0827
  128poe    c23 1527   5.221   6.527   4.591  0.1205 -0.0682  0.8523
  128poe    c23 1528   5.223   6.627   4.707 -0.6977  0.5305  0.3598
  128poe     o2 1529   5.338   6.625   4.789 -0.5946 -0.3383  0.1952
  128poe    c23 1530   5.329   6.740   4.869  0.2296  0.0166 -0.2206
  128poe    c23 1531   5.471   6.772   4.922 -0.1653  1.3177  0.1012
  128poe     o2 1532   5.548   6.746   4.807  0.3046  0.2329  0.6527
  128poe    c23 1533   5.687   6.772   4.804  0.3175  0.0872 -0.3982
  128poe    c23 1534   5.733   6.706   4.672 -0.1124  0.1862 -0.5990
  128poe     o2 1535   5.655   6.590   4.656 -0.3031  0.2817 -0.3729
  128poe    c31 1536   5.712   6.524   4.546  0.1020  0.5424 -0.3201
  129poe    c31 1537   4.228   3.865   3.479  0.2690 -0.1199  0.2907
  129poe     o2 1538   4.141   3.813   3.381  0.9085 -0.0904 -0.3053
  129poe    c23 1539   4.210   3.735   3.286 -0.1976 -1.3347 -0.1306
  129poe    c23 1540   4.119   3.679   3.175 -0.4753 -0.3678 -0.3989
  129poe     o2 1541   4.053   3.791   3.122 -0.8308 -0.2065  0.3714
  129poe    c23 1542   4.012   3.768   2.989 -0.2351  1.1156 -0.0579
  129poe    c23 1543   3.973   3.896   2.912  0.3483  1.0479 -0.4812
  129poe     o2 1544   3.869   3.966   2.978 -0.3005 -0.0563 -0.2960
  129poe    c23 1545   3.823   4.082   2.914 -0.1274  0.3601  0.3282
  129poe    c23 1546   3.698   4.142   2.983  0.3374  0.1307  1.3888
  129poe     o2 1547   3.582   4.064   2.967  0.0343  0.7415  0.5449
  129poe    c31 1548   3.485   4.119   3.054 -1.0983 -0.7125  0.2432
  130poe    c31 1549   6.011   6.672   2.696  0.3290 -0.1787 -0.6625
  130poe     o2 1550   6.069   6.562   2.764  0.3903  0.4246  0.2750
  130poe    c23 1551   6.113   6.612   2.888 -0.2135  0.4204  0.4980
  130poe    c23 1552   6.195   6.510   2.969 -0.4620  0.0107  0.2344
  130poe     o2 1553   6.299   6.547   3.056  0.0277  0.1845 -0.4186
  130poe    c23 1554   6.246   6.636   3.152  0.1905  0.4784 -0.5998
  130poe    c23 1555   6.357   6.665   3.255 -0.2210 -0.4312  0.1172
  130poe     o2 1556   6.472   6.683   3.175 -0.3648  0.1854  0.0469
  130poe    c23 1557   6.582   6.738   3.243  0.4395 -0.5455 -0.6483
  130poe    c23 1558   6.706   6.711   3.155  0.4430  0.1231 -0.8580
  130poe     o2 1559   6.679   6.586   3.094  0.0999 -0.2803  0.1013
  130poe    c31 1560   6.801   6.532   3.050  0.3491  0.3560 -0.0012
  131poe    c31 1561   2.342   2.528   2.063 -0.5816 -0.3011  0.1252
  131poe     o2 1562   2.445   2.431   2.059 -0.5450 -0.2557 -0.0418
  131poe    c23 1563   2.544   2.466   2.153  0.1480 -0.0260 -0.8458
  131poe    c23 1564   2.649   2.355   2.137  0.5763  0.2003  0.3084
  131poe     o2 1565   2.640   2.316   2.002  0.3005 -0.1792  0.4355
  131poe    c23 1566   2.732   2.216   1.965  0.2528 -0.0789  0.0336
  131poe    c23 1567   2.703   2.201   1.815 -0.5032 -0.1194  0.1781
  131poe     o2 1568   2.563   2.209   1.822 -0.5353 -0.3274 -0.1821
  131poe    c23 1569   2.517   2.236   1.691 -0.3220  0.2388 -0.1459
  131poe    c23 1570   2.364   2.254   1.704 -0.2827  0.8469 -0.4775
  131poe     o2 1571   2.348   2.342   1.813 -0.4537  0.3333 -0.0807
  131poe    c31 1572   2.214   2.384   1.805 -0.5467  0.0789  0.1218
  132poe    c31 1573   6.282   2.788   0.405 -0.3573  0.3773 -0.5581
  132poe     o2 1574   6.194   2.797   0.514  0.3866 -0.3670  0.1149
  132poe    c23 1575   6.059   2.812   0.478  0.2385 -0.6735  0.5346
  132poe    c23 1576   5.990   2.897   0.586 -0.5584 -0.1175 -0.3995
  132poe     o2 1577   6.035   2.873   0.717 -0.2776  0.6941 -0.3413
  132poe    c23 1578   5.952   2.776   0.777  0.0236  0.7181  0.1223
  132poe    c23 1579   6.033   2.699   0.883 -0.3765 -0.2583 -0.2703
  132poe     o2 1580   6.163   2.692   0.830 -0.3224 -0.4255 -0.1167
  132poe    c23 1581   6.241   2.590   0.887  0.3513 -0.0283 -0.3099
  132poe    c23 1582   6.339   2.540   0.779  0.3051 -0.2633 -0.2437
  132poe     o2 1583   6.383   2.655   0.710  0.1642 -0.0668 -0.0064
  132poe    c31 1584   6.515   2.639   0.663 -0.0301 -0.8267 -0.3033
  133poe    c31 1585   2.082   4.253   1.263  0.0898  0.2265  1.0947
  133poe     o2 1586   2.172   4.145   1.273 -0.3531 -0.2576  0.0241
  133poe    c23 1587   2.105   4.022   1.258  0.4516 -0.6437 -0.4787
  133poe    c23 1588   2.205   3.906   1.248  0.5176 -0.7201  0.9478
  133poe     o2 1589   2.308   3.953   1.333  0.3970  0.3123  0.5334
  133poe    c23 1590   2.398   3.845   1.347 -0.5790 -0.5751  0.1424
  133poe    c23 1591   2.494   3.908   1.449 -0.4641 -0.3635 -0.0955
  133poe     o2 1592   2.510   4.042   1.410 -0.0835 -0.0995  0.9345
  133poe    c23 1593   2.621   4.121   1.448  0.3548 -0.1317 -0.2580
  133poe    c23 1594   2.597   4.250   1.367  0.1353 -0.0296 -0.0284
  133poe     o2 1595   2.459   4.264   1.339  0.1801  0.1523 -0.1599
  133poe    c31 1596   2.442   4.337   1.220  0.0528 -0.2114 -0.3687
  134poe    c31 1597   6.037   2.113   4.108  0.3703  0.0705 -0.1928
  134poe     o2 1598   6.056   2.193   4.222 -0.8584  0.1014  0.0029
  134poe    c23 1599   6.030   2.329   4.194 -0.4421  0.2155  0.1510
  134poe    c23 1600   5.962   2.372   4.326 -0.2398  0.6336  0.1200
  134poe     o2 1601   6.044   2.327   4.432  0.3877  0.8745 -0.2551
  134poe    c23 1602   5.992   2.351   4.561 -0.4805 -0.5713 -0.3183
  134poe    c23 1603   6.063   2.254   4.657 -0.2688  0.1366  0.2449
  134poe     o2 1604   6.066   2.142   4.571  0.3875  0.0351  0.3962
  134poe    c23 1605   6.114   2.026   4.634 -0.0234 -0.3642 -0.0200
  134poe    c23 1606   6.129   1.924   4.520  0.6037  0.4351 -0.6623
  134poe     o2 1607   6.178   1.993   4.407 -0.0850  0.4974 -0.9309
  134poe    c31 1608   6.239   1.895   4.326 -0.4110 -0.2325 -0.3084
  135poe    c31 1609   1.244   5.583   4.472  0.0009 -0.0256 -0.8656
  135poe     o2 1610   1.164   5.512   4.564  0.3089  0.4797 -0.1977
  135poe    c23 1611   1.235   5.394   4.595 -0.0381  0.1972 -0.4590
  135poe    c23 1612   1.150   5.346   4.713 -1.0984  0.2331 -1.1989
  135poe     o2 1613   1.023   5.310   4.663 -0.9519 -1.1908 -0.5949
  135poe    c23 1614   0.926   5.338   4.761  0.1186 -0.0568  0.1697
  135poe    c23 1615   0.793   5.356   4.685  0.4481 -0.2916 -0.4736
  135poe     o2 1616   0.821   5.466   4.600  0.1146  0.0965 -0.0884
  135poe    c23 1617   0.710   5.479   4.515  0.1947 -0.1190 -0.2280
  135poe    c23 1618   0.747   5.600   4.427  0.0717 -0.3060 -0.5386
  135poe     o2 1619   0.886   5.606   4.407  0.0948  0.0377 -0.2951
  135poe    c31 1620   0.938   5.675   4.295  0.1533  0.4788  0.0058
  136poe    c31 1621   6.069   5.008   6.127  0.2405 -0.6102  0.1295
  136poe     o2 1622   6.091   5.095   6.236  0.0411 -0.1390 -0.2014
  136poe    c23 1623   6.168   5.201   6.185 -0.1764  0.2039  0.1798
  136poe    c23 1624   6.309   5.211   6.246 -0.2388  0.0334  0.3509
  136poe     o2 1625   6.302   5.152   6.374 -0.0485  0.1600  0.4200
  136poe    c23 1626   6.421   5.095   6.422 -0.2345 -0.3862  0.2442
  136poe    c23 1627   6.382   4.990   6.528 -0.4345 -0.1915  0.3660
  136poe     o2 1628   6.250   4.950   6.498 -0.3709 -0.0420 -0.1226
  136poe    c23 1629   6.193   4.873   6.600  0.0697 -0.5823 -0.2763
  136poe    c23 1630   6.047   4.844   6.561 -0.0830  0.0049 -0.1475
  136poe     o2 1631   6.002   4.951   6.481  0.1975  0.1151 -0.1582
  136poe    c31 1632   5.875   4.930   6.422  0.1961 -0.1541 -0.0629
  137poe    c31 1633   1.834   0.827   3.101  0.3079  0.4619 -0.1488
  137poe     o2 1634   1.739   0.770   3.013  0.3478 -0.2738  0.2764
  137poe    c23 1635   1.810   0.698   2.914  0.3254  0.2283 -0.1105
  137poe    c23 1636   1.723   0.589   2.849 -0.1127  0.4001  0.1771
  137poe     o2 1637   1.640   0.554   2.957 -0.4995  0.2118 -0.1795
  137poe    c23 1638   1.559   0.442   2.927 -0.2368  0.0390 -0.2506
  137poe    c23 1639   1.578   0.349   3.048  0.0030  0.6883  0.2175
  137poe     o2 1640   1.527   0.432   3.150 -0.8573  0.2670  0.1417
  137poe    c23 1641   1.608   0.439   3.264 -0.2451  0.0889 -0.2772
  137poe    c23 1642   1.555   0.552   3.355  0.4517 -0.0559  0.3191
  137poe     o2 1643   1.594   0.672   3.292  0.4468 -0.0756  0.2789
  137poe    c31 1644   1.544   0.774   3.376 -0.6809 -0.1283 -0.2962
  138poe    c31 1645   5.147   5.507   1.935 -0.2000 -0.2726  0.3276
  138poe     o2 1646   5.086   5.577   1.830  0.1964 -0.3566  0.0417
  138poe    c23 1647   5.027   5.694   1.882  0.1528 -0.2374 -0.2703
  138poe    c23 1648   4.967   5.772   1.763 -0.6569 -0.3138  0.0767
  138poe     o2 1649   4.944   5.692   1.649  0.1321 -0.2321 -0.1485
  138poe    c23 1650   4.982   5.753   1.528  0.3439  0.0932  0.0774
  138poe    c23 1651   4.932   5.656   1.419 -0.1089  0.2403  0.1499
  138poe     o2 1652   4.989   5.544   1.484 -0.3888  0.2285  0.3720
  138poe    c23 1653   5.020   5.438   1.397  0.8706  1.0542 -0.2111
  138poe    c23 1654   5.137   5.357   1.458 -0.2877 -0.8502 -0.4563
  138poe     o2 1655   5.124   5.351   1.598 -0.4889 -0.3990 -0.4563
  138poe    c31 1656   5.161   5.230   1.659  0.2359 -0.2553 -0.5980
  139poe    c31 1657   1.931   5.934   3.879 -0.1328 -0.2320  0.0934
  139poe     o2 1658   2.017   5.848   3.950  0.0927 -0.0329  0.0651
  139poe    c23 1659   2.149   5.887   3.919  0.0371  0.0328 -0.0903
  139poe    c23 1660   2.240   5.763   3.918  0.1851  0.1418 -0.8455
  139poe     o2 1661   2.254   5.705   4.046  0.6142  0.4628 -0.7427
  139poe    c23 1662   2.319   5.772   4.151 -0.1546 -0.4806  0.3599
  139poe    c23 1663   2.233   5.741   4.275  0.1615 -0.5601  0.5612
  139poe     o2 1664   2.099   5.773   4.246  0.3944 -0.1734 -0.0964
  139poe    c23 1665   2.009   5.718   4.339  0.2031 -0.3055 -0.3583
  139poe    c23 1666   1.865   5.768   4.316  0.3198  0.1692 -0.0644
  139poe     o2 1667   1.857   5.784   4.176 -0.1974 -0.0223 -0.0582
  139poe    c31 1668   1.726   5.807   4.129 -0.2774 -0.3180  0.0214
  140poe    c31 1669   1.110   6.271   4.229  0.0547 -0.2188 -0.0409
  140poe     o2 1670   1.245   6.234   4.237  0.2596  0.5592  0.1953
  140poe    c23 1671   1.248   6.171   4.363 -0.2653  0.5046  0.1805
  140poe    c23 1672   1.389   6.118   4.394 -0.1707  0.0490 -0.9927
  140poe     o2 1673   1.467   6.234   4.409 -0.5588  0.1638  0.2086
  140poe    c23 1674   1.600   6.191   4.426 -0.5254  0.3732  0.4878
  140poe    c23 1675   1.687   6.307   4.373 -0.4804  0.1366  0.0455
  140poe     o2 1676   1.615   6.375   4.272 -0.5786 -0.4627 -0.2940
  140poe    c23 1677   1.673   6.353   4.145 -0.0221 -0.7725  0.0115
  140poe    c23 1678   1.569   6.406   4.046  0.2333  0.1981  0.2544
  140poe     o2 1679   1.441   6.359   4.081  0.0428  0.6406  0.1626
  140poe    c31 1680   1.340   6.392   3.988  0.5044  0.7501 -0.2995
  141poe    c31 1681   5.968   3.842   6.760  0.1063 -0.2569 -0.4226
  141poe     o2 1682   5.878   3.938   6.710  0.0060 -0.0104  0.2233
  141poe    c23 1683   5.916   4.071   6.740 -0.6222  0.1411  0.3734
  141poe    c23 1684   5.840   4.188   6.676  0.3203  0.4260 -0.2486
  141poe     o2 1685   5.706   4.208   6.714  0.2963  0.7282 -0.4919
  141poe    c23 1686   5.622   4.275   6.622  0.0893  0.2057 -0.6879
  141poe    c23 1687   5.632   4.428   6.635 -0.8956  0.1982  0.2991
  141poe     o2 1688   5.573   4.487   6.749 -0.0515  0.6581  0.5134
  141poe    c23 1689   5.566   4.623   6.714 -0.2716  0.4669 -0.2242
  141poe    c23 1690   5.515   4.701   6.837 -0.5742  0.5953 -0.4303
  141poe     o2 1691   5.409   4.633   6.901  0.1187 -0.0209  0.0873
  141poe    c31 1692   5.361   4.701   7.015  0.3267 -0.0312  0.1809
  142poe    c31 1693   2.143   0.980   1.053  0.0930  0.6282 -0.5277
  142poe     o2 1694   2.003   0.971   1.055  0.1594 -0.5386  0.3276
  142poe    c23 1695   1.959   1.105   1.061  0.7687 -0.3650  1.0897
  142poe    c23 1696   1.818   1.080   1.118  0.3874 -0.0491  0.3089
  142poe     o2 1697   1.773   1.003   1.009  0.2473  0.6242 -0.1125
  142poe    c23 1698   1.637   0.964   1.006  0.3418  0.3436 -0.8649
  142poe    c23 1699   1.642   0.844   0.909 -0.4111 -0.2621 -0.1642
  142poe     o2 1700   1.754   0.766   0.946 -0.6040 -0.2440  0.4790
  142poe    c23 1701   1.743   0.642   0.879 -0.2796  0.1742 -0.3640
  142poe    c23 1702   1.887   0.588   0.890 -0.3718 -0.0333 -0.1610
  142poe     o2 1703   1.978   0.689   0.851 -0.5082 -0.0337 -0.4857
  142poe    c31 1704   2.111   0.656   0.818 -0.4815 -0.5520  0.1237
  143poe    c31 1705   3.038   4.696   6.025 -0.0369  0.3322 -0.4937
  143poe     o2 1706   3.132   4.747   5.933  0.2272 -0.1412 -0.4879
  143poe    c23 1707   3.261   4.740   5.989  0.2259 -0.0857 -0.4775
  143poe    c23 1708   3.347   4.864   5.957  0.5496 -0.3329 -0.5712
  143poe     o2 1709   3.351   4.844   5.817  1.0563 -0.0277 -0.6040
  143poe    c23 1710   3.417   4.949   5.750  0.0121  0.8824 -0.2361
  143poe    c23 1711   3.374   4.935   5.603 -0.2860  0.2436 -0.0931
  143poe     o2 1712   3.236   4.905   5.608 -0.2703  0.2870  0.7479
  143poe    c23 1713   3.150   4.999   5.548 -0.0975  0.2174  0.3882
  143poe    c23 1714   3.010   4.967   5.603 -0.1953 -0.2338 -0.1263
  143poe     o2 1715   3.014   4.901   5.727  0.3704 -0.2470 -0.1494
  143poe    c31 1716   2.902   4.944   5.801  0.3853  0.4607 -0.5336
  144poe    c31 1717   5.913   1.288   3.574 -0.3946 -0.3096  0.3113
  144poe     o2 1718   5.877   1.247   3.444  0.2108  0.1479 -0.0064
  144poe    c23 1719   5.984   1.185   3.375 -0.5423 -0.1544 -0.9146
  144poe    c23 1720   5.951   1.036   3.389  0.0603 -0.1153  1.3210
  144poe     o2 1721   5.820   1.010   3.344  0.3874  0.5669 -0.0977
  144poe    c23 1722   5.801   0.988   3.206 -0.4727  0.0138  0.0948
  144poe    c23 1723   5.692   1.082   3.151 -0.1589  0.3587  0.0597
  144poe     o2 1724   5.721   1.216   3.187  0.8430  0.1519  0.0469
  144poe    c23 1725   5.648   1.309   3.111  0.2268 -0.6528 -0.3575
  144poe    c23 1726   5.668   1.452   3.164 -0.2538 -0.7920  0.2172
  144poe     o2 1727   5.674   1.434   3.304  0.7334  0.2932  0.3296
  144poe    c31 1728   5.691   1.557   3.371  0.3868  0.5132  0.0176
  145poe    c31 1729   0.135   2.468   3.890 -0.7569 -0.1628  0.3110
  145poe     o2 1730   0.122   2.336   3.939  0.4703 -0.4452 -0.0971
  145poe    c23 1731   0.153   2.245   3.836  0.2711 -0.5319 -0.0795
  145poe    c23 1732   0.168   2.103   3.894  0.0707 -0.0968  1.0567
  145poe     o2 1733   0.048   2.092   3.968 -0.7573  0.1324 -0.2279
  145poe    c23 1734   0.072   1.974   4.041  0.2799  0.7012  0.3745
  145poe    c23 1735   0.003   1.977   4.179 -0.0073 -0.7239  0.2751
  145poe     o2 1736  -0.002   2.105   4.238 -0.0081 -0.5404 -0.1219
  145poe    c23 1737   0.116   2.150   4.299 -0.2358 -0.1739  0.0514
  145poe    c23 1738   0.075   2.294   4.338 -0.2544 -0.0730 -0.3396
  145poe     o2 1739   0.031   2.357   4.219 -0.6476 -0.5977 -0.4785
  145poe    c31 1740   0.008   2.489   4.262  0.0755 -0.7797  0.5276
  146poe    c31 1741   0.485   1.530   0.010 -0.1945  0.2138 -0.4103
  146poe     o2 1742   0.488   1.429   0.109 -0.1383  0.4481 -0.1705
  146poe    c23 1743   0.445   1.305   0.057 -0.2868  0.2334  0.4651
  146poe    c23 1744   0.470   1.198   0.165  0.0867  0.0531  0.2047
  146poe     o2 1745   0.433   1.251   0.291 -0.8552 -0.3013  0.0892
  146poe    c23 1746   0.452   1.152   0.389  0.4903 -0.0383  0.1215
  146poe    c23 1747   0.576   1.192   0.469 -0.0062  0.2224  0.7660
  146poe     o2 1748   0.553   1.331   0.471  0.2390  0.2975 -0.6579
  146poe    c23 1749   0.678   1.395   0.489  0.2012  0.0760  0.5036
  146poe    c23 1750   0.650   1.544   0.463  0.2650  0.0607  0.3472
  146poe     o2 1751   0.612   1.571   0.330  0.3221  0.0069  0.3195
  146poe    c31 1752   0.661   1.694   0.283  0.5046 -0.2991 -0.3017
  147poe    c31 1753   2.178   4.533   6.039  0.3332  0.1979  0.3561
  147poe     o2 1754   2.272   4.539   5.934  0.4627  0.1031  0.4657
  147poe    c23 1755   2.237   4.633   5.835 -0.1807  0.2600  0.8359
  147poe    c23 1756   2.302   4.577   5.707 -0.1447  0.3721  0.8052
  147poe     o2 1757   2.433   4.540   5.744  0.2638  0.8599 -0.1249
  147poe    c23 1758   2.495   4.467   5.639 -0.0566 -0.3246  0.4899
  147poe    c23 1759   2.639   4.431   5.679 -0.0312 -0.4760  0.2632
  147poe     o2 1760   2.620   4.377   5.808 -0.0592  0.5410  0.6963
  147poe    c23 1761   2.723   4.422   5.894  0.1535 -0.2079  0.8393
  147poe    c23 1762   2.681   4.546   5.975 -0.3935  0.6740 -0.7525
  147poe     o2 1763   2.551   4.524   6.025  0.3253 -0.6657  0.5834
  147poe    c31 1764   2.547   4.583   6.153  0.0596  0.1445  0.2070
  148poe    c31 1765   5.678   1.392   0.171  0.5552 -0.4311  0.0766
  148poe     o2 1766   5.743   1.268   0.192 -0.1801 -0.8686 -0.1640
  148poe    c23 1767   5.882   1.289   0.204 -0.3541 -0.0664  0.5402
  148poe    c23 1768   5.955   1.156   0.232 -0.1641 -0.0280  0.2301
  148poe     o2 1769   5.903   1.059   0.144 -0.3672  0.3871 -0.1114
  148poe    c23 1770   5.892   0.933   0.207  0.0310  0.0751 -0.6628
  148poe    c23 1771   5.758   0.905   0.278  0.1005  0.4692 -0.3769
  148poe     o2 1772   5.661   1.003   0.249 -0.3855  0.1588  0.1938
  148poe    c23 1773   5.531   0.967   0.293 -0.1461 -0.3236  0.5131
  148poe    c23 1774   5.437   1.082   0.254  0.5864  0.1990  0.2565
  148poe     o2 1775   5.486   1.148   0.140  0.0198  0.1657 -0.0070
  148poe    c31 1776   5.392   1.213   0.056 -0.1144  0.2938  0.2409
  149poe    c31 1777   6.597   3.824   2.739 -0.3724 -0.4721 -0.1069
  149poe     o2 1778   6.503   3.839   2.635 -0.7099 -0.5694  0.1825
  149poe    c23 1779   6.532   3.754   2.526 -0.3745  0.1715 -0.3100
  149poe    c23 1780   6.528   3.844   2.401  0.3499  0.3168 -0.2323
  149poe     o2 1781   6.422   3.937   2.405  0.7709  0.8029 -0.1639
  149poe    c23 1782   6.442   4.065   2.351  0.2641  0.9079 -0.1108
  149poe    c23 1783   6.309   4.142   2.358 -0.0205  0.4221 -0.1773
  149poe     o2 1784   6.280   4.139   2.497  0.1926 -0.4625 -0.1477
  149poe    c23 1785   6.145   4.131   2.534  0.0088  0.2048 -0.6615
  149poe    c23 1786   6.107   3.984   2.559 -0.1789  0.4858  0.7966
  149poe     o2 1787   6.210   3.915   2.625  0.1345 -0.0734 -0.2619
  149poe    c31 1788   6.166   3.859   2.747 -0.8732  0.4231 -0.3859
  150poe    c31 1789   6.737   6.343   1.338 -0.4857 -0.2438  0.0425
  150poe     o2 1790   6.842   6.263   1.288 -0.0832  0.1239  0.2931
  150poe    c23 1791   6.957   6.344   1.287 -0.3311  0.4813  0.4207
  150poe    c23 1792   7.088   6.279   1.237 -0.0198  1.0357  0.5076
  150poe     o2 1793   7.079   6.142   1.265  0.1486  1.0007  0.3876
  150poe    c23 1794   7.105   6.064   1.150 -0.0378  0.4693  0.7021
  150poe    c23 1795   6.977   6.025   1.074  0.2894  0.1564  0.3091
  150poe     o2 1796   6.896   5.970   1.176  0.0690 -0.2831 -0.1021
  150poe    c23 1797   6.788   5.895   1.124  0.4434 -0.9098  0.0157
  150poe    c23 1798   6.729   5.830   1.250 -0.2202 -0.2407  0.0533
  150poe     o2 1799   6.751   5.923   1.354 -0.2480  0.2179 -0.3468
  150poe    c31 1800   6.638   5.986   1.411 -0.6754 -0.0561 -0.8888
  151poe    c31 1801   6.732   0.798   0.598  0.7362 -0.4089  0.0367
  151poe     o2 1802   6.714   0.658   0.587  0.5267 -0.4268  0.5649
  151poe    c23 1803   6.579   0.621   0.573  0.4848 -0.0228 -0.1831
  151poe    c23 1804   6.567   0.475   0.524  0.0529 -0.0264 -0.0685
  151poe     o2 1805   6.664   0.476   0.422  0.2783  0.3818  0.1499
  151poe    c23 1806   6.656   0.347   0.366 -0.5367  0.5113 -0.0404
  151poe    c23 1807   6.760   0.326   0.255 -0.1505  0.4423  0.3286
  151poe     o2 1808   6.883   0.367   0.311 -0.2826  0.2860  0.7365
  151poe    c23 1809   6.955   0.449   0.221 -0.5181  0.2770  0.5381
  151poe    c23 1810   7.053   0.534   0.304  0.1580  0.2147 -0.1869
  151poe     o2 1811   6.977   0.611   0.394  0.2009  1.0349 -0.8445
  151poe    c31 1812   7.073   0.664   0.482  0.0713  0.0140 -0.0713
  152poe    c31 1813   4.273   3.330   5.912  0.1265 -0.0145  0.5341
  152poe     o2 1814   4.249   3.450   5.983 -0.2675 -0.1055  0.5597
  152poe    c23 1815   4.331   3.468   6.097 -1.0018  0.0259  1.0760
  152poe    c23 1816   4.350   3.616   6.135  0.3116  0.0970  0.2373
  152poe     o2 1817   4.222   3.674   6.124  0.4562  0.3776  0.0380
  152poe    c23 1818   4.219   3.811   6.089 -0.5160  0.6599  1.1728
  152poe    c23 1819   4.128   3.841   5.968  0.8408  0.1082 -0.0130
  152poe     o2 1820   4.122   3.735   5.876  0.0924  0.5642 -0.4945
  152poe    c23 1821   4.011   3.736   5.789 -0.4845  0.2379  0.2241
  152poe    c23 1822   4.031   3.624   5.685 -0.1061  0.0864  0.4579
  152poe     o2 1823   4.061   3.507   5.757  0.8048  0.0664  0.0577
  152poe    c31 1824   3.994   3.407   5.683 -0.0308  0.1131  0.7426
  153poe    c31 1825   1.944   1.386   2.390 -0.1764  0.0190 -0.2444
  153poe     o2 1826   1.842   1.300   2.346 -0.1350  0.1081 -0.5177
  153poe    c23 1827   1.782   1.220   2.446  0.7029 -0.9137 -0.8237
  153poe    c23 1828   1.667   1.130   2.397 -0.3453  0.2329 -0.4891
  153poe     o2 1829   1.721   1.064   2.285  0.1507 -0.7613  0.3230
  153poe    c23 1830   1.621   1.006   2.205 -0.5241  0.4361  0.2762
  153poe    c23 1831   1.682   1.003   2.063  0.0020  0.2712  0.5045
  153poe     o2 1832   1.751   1.125   2.043  0.3316 -0.0144 -0.1040
  153poe    c23 1833   1.853   1.110   1.947  0.1294 -0.6878 -0.2243
  153poe    c23 1834   1.927   1.244   1.926 -0.2449 -0.4392  0.0299
  153poe     o2 1835   1.952   1.308   2.048 -0.4945 -0.0939 -0.0977
  153poe    c31 1836   2.028   1.424   2.023 -0.1798 -0.2123  0.2945
  154poe    c31 1837   5.809   2.336   5.954 -0.7983 -0.0170 -0.0210
  154poe     o2 1838   5.845   2.468   5.922  0.3424 -0.2927  0.0895
  154poe    c23 1839   5.952   2.526   5.993  0.0586  0.3414  0.0037
  154poe    c23 1840   6.085   2.528   5.914 -0.0594 -0.0732 -0.2047
  154poe     o2 1841   6.077   2.604   5.796 -0.4964  0.2435  0.0282
  154poe    c23 1842   6.200   2.624   5.731 -0.1737 -0.3626  0.4442
  154poe    c23 1843   6.158   2.711   5.611 -0.2055 -0.0729  0.6642
  154poe     o2 1844   6.021   2.689   5.588 -0.0634 -0.2367 -0.0395
  154poe    c23 1845   5.991   2.657   5.454  0.4255 -0.3762 -0.1166
  154poe    c23 1846   5.905   2.529   5.468 -0.1097  0.0290  0.3236
  154poe     o2 1847   5.836   2.539   5.591  0.3824  0.7088  0.5545
  154poe    c31 1848   5.712   2.473   5.575  0.6050  0.3598  0.2523
  155poe    c31 1849   3.689   3.961   6.161 -0.4516  0.0144  0.1716
  155poe     o2 1850   3.621   3.879   6.254  0.0406  0.0676  0.5821
  155poe    c23 1851   3.520   3.947   6.326 -0.0533  0.4005  0.1450
  155poe    c23 1852   3.531   3.869   6.458 -0.8059 -0.0029 -0.0208
  155poe     o2 1853   3.499   3.735   6.429 -0.2890 -0.1721  0.1762
  155poe    c23 1854   3.508   3.659   6.547 -0.0427  0.0918  0.3285
  155poe    c23 1855   3.458   3.514   6.534  0.4733 -0.0546 -0.0267
  155poe     o2 1856   3.525   3.473   6.417  0.5442  1.1099 -0.4002
  155poe    c23 1857   3.429   3.407   6.338  0.6714  0.4322  0.0069
  155poe    c23 1858   3.444   3.464   6.195  0.2752 -0.8821 -0.5806
  155poe     o2 1859   3.446   3.604   6.175 -0.1452 -0.7819  0.0395
  155poe    c31 1860   3.312   3.645   6.164  0.0757 -0.0896 -0.0963
  156poe    c31 1861   3.482   3.297   2.999  0.3829 -0.3666  0.3619
  156poe     o2 1862   3.357   3.337   3.053  0.2762  0.2244 -0.3130
  156poe    c23 1863   3.380   3.359   3.190  0.2263  0.1805 -0.2978
  156poe    c23 1864   3.249   3.326   3.264  0.0131  0.2372 -0.6454
  156poe     o2 1865   3.148   3.410   3.213  0.1183  0.6712 -0.1553
  156poe    c23 1866   3.019   3.355   3.225  0.6681 -0.6457 -0.0373
  156poe    c23 1867   2.994   3.246   3.119  0.5534 -0.4844 -0.1767
  156poe     o2 1868   3.057   3.293   3.001  0.0040  0.5578 -0.0687
  156poe    c23 1869   3.044   3.212   2.887  0.4994  0.1477  0.1601
  156poe    c23 1870   3.098   3.316   2.786  0.0830  0.2227  0.0139
  156poe     o2 1871   3.230   3.360   2.808  0.3115 -0.2315 -0.4175
  156poe    c31 1872   3.302   3.355   2.687 -0.0286  0.0340 -0.6377
  157poe    c31 1873   2.548   4.168   4.228 -0.5360  0.4635  0.1263
  157poe     o2 1874   2.464   4.209   4.122  0.1268  0.3975 -0.4334
  157poe    c23 1875   2.343   4.232   4.190 -0.2144 -0.3589 -0.7740
  157poe    c23 1876   2.259   4.303   4.083  0.7166  1.1360 -0.5379
  157poe     o2 1877   2.285   4.233   3.964 -0.3883 -0.2357 -0.0013
  157poe    c23 1878   2.221   4.288   3.851 -0.4102 -0.7485 -0.2423
  157poe    c23 1879   2.322   4.377   3.776 -0.4044 -0.2269  0.3715
  157poe     o2 1880   2.445   4.314   3.804 -0.2510  0.0284  0.2672
  157poe    c23 1881   2.553   4.394   3.758 -0.5307  0.0288 -0.4068
  157poe    c23 1882   2.665   4.292   3.788 -0.6568 -0.0580 -0.2236
  157poe     o2 1883   2.629   4.224   3.906 -0.3902 -0.2614 -0.2607
  157poe    c31 1884   2.726   4.128   3.944 -0.0024  0.1437 -0.2209
  158poe    c31 1885   3.595   5.390   1.231  0.2396  0.0530 -0.6072
  158poe     o2 1886   3.458   5.418   1.252  0.1088 -0.3151 -0.9497
  158poe    c23 1887   3.372   5.327   1.186 -0.2339 -0.5553 -0.1790
  158poe    c23 1888   3.247   5.394   1.126  0.1414  0.4174  0.0923
  158poe     o2 1889   3.193   5.478   1.225 -0.4153 -0.1280  0.2611
  158poe    c23 1890   3.083   5.552   1.176 -0.2227  0.6236  0.9340
  158poe    c23 1891   3.068   5.655   1.289 -1.0649  0.4026  1.0280
  158poe     o2 1892   3.202   5.687   1.321 -0.7352 -0.2716  0.3395
  158poe    c23 1893   3.214   5.786   1.421 -0.4522  0.0620 -0.0223
  158poe    c23 1894   3.363   5.798   1.457 -0.3471  0.5114 -0.5967
  158poe     o2 1895   3.427   5.674   1.437 -0.5482  0.2493  0.3459
  158poe    c31 1896   3.564   5.687   1.467 -0.4238  0.5705 -0.3479
  159poe    c31 1897   4.072   6.835   6.097 -0.2967  0.6078  0.1242
  159poe     o2 1898   3.963   6.861   6.011 -0.2582  0.7043  0.1042
  159poe    c23 1899   3.851   6.786   6.052  0.2189 -0.1878 -0.2007
  159poe    c23 1900   3.759   6.784   5.928  0.3687  0.4447 -0.3267
  159poe     o2 1901   3.803   6.696   5.827 -0.3793  0.0975 -0.3494
  159poe    c23 1902   3.740   6.571   5.844 -0.3072  0.1078  0.0051
  159poe    c23 1903   3.790   6.475   5.734 -0.1987  0.1579  0.0109
  159poe     o2 1904   3.823   6.541   5.614 -0.1485  0.0386 -0.0409
  159poe    c23 1905   3.864   6.443   5.522  0.0231  0.0589  0.0127
  159poe    c23 1906   3.924   6.512   5.398  0.2003 -0.5765 -0.2596
  159poe     o2 1907   4.034   6.596   5.424 -0.7405  0.5007  0.3097
  159poe    c31 1908   4.102   6.655   5.315  0.4097 -1.1563  0.0967
  160poe    c31 1909   3.218   4.850   0.788  0.8351 -0.1968 -0.5171
  160poe     o2 1910   3.233   4.731   0.715  0.6877 -0.3325 -0.3282
  160poe    c23 1911   3.288   4.761   0.589  1.1594 -0.2652 -0.1103
  160poe    c23 1912   3.320   4.627   0.519  0.2957 -0.3084 -0.4333
  160poe     o2 1913   3.216   4.533   0.529 -0.0800  0.1789  0.2932
  160poe    c23 1914   3.214   4.472   0.402 -0.7877 -0.2754  0.5177
  160poe    c23 1915   3.249   4.322   0.412  0.9772  0.0584 -0.3922
  160poe     o2 1916   3.270   4.243   0.298 -0.3117 -0.0305 -0.5770
  160poe    c23 1917   3.290   4.111   0.344 -0.0309  0.2599  0.1497
  160poe    c23 1918   3.363   4.040   0.228  0.5040 -0.0846  0.6893
  160poe     o2 1919   3.304   4.068   0.103  0.7829 -0.3464  0.4973
  160poe    c31 1920   3.318   3.955   0.019 -0.3580 -0.1396 -0.0015
  161poe    c31 1921   6.002   6.481   1.574 -0.7273  0.0123  0.4791
  161poe     o2 1922   5.866   6.462   1.606 -0.9087 -0.1987 -0.3802
  161poe    c23 1923   5.853   6.329   1.653  0.2833 -0.1143  0.2172
  161poe    c23 1924   5.704   6.302   1.680  0.1120  0.8566  0.2791
  161poe     o2 1925   5.650   6.374   1.572  0.3045 -0.3520 -0.6383
  161poe    c23 1926   5.509   6.386   1.573  0.3471  0.1545 -0.0057
  161poe    c23 1927   5.470   6.499   1.476 -0.0947  0.2002  0.2237
  161poe     o2 1928   5.563   6.603   1.498  0.0093  0.1265  0.1345
  161poe    c23 1929   5.540   6.736   1.454 -0.1330 -0.0713 -0.4004
  161poe    c23 1930   5.659   6.819   1.505 -0.4388  0.4345 -0.5091
  161poe     o2 1931   5.766   6.727   1.502 -0.5368  0.2874  0.4479
  161poe    c31 1932   5.879   6.793   1.555 -0.2320  0.0563  0.0887
  162poe    c31 1933   4.483   3.452   1.316  0.6080  0.5923  0.3765
  162poe     o2 1934   4.454   3.572   1.383  0.2822  0.7026  0.0434
  162poe    c23 1935   4.571   3.602   1.455 -0.0363  0.4955  0.6616
  162poe    c23 1936   4.534   3.713   1.555  0.1026  0.5082  0.7005
  162poe     o2 1937   4.470   3.804   1.468  0.0693  0.0988  0.2919
  162poe    c23 1938   4.432   3.922   1.536 -0.1840  0.2860 -0.1640
  162poe    c23 1939   4.335   4.014   1.461 -0.1088  0.2898 -0.2570
  162poe     o2 1940   4.278   3.919   1.374  0.0393 -0.0853  0.0529
  162poe    c23 1941   4.140   3.896   1.397  0.0158  0.2821  0.2802
  162poe    c23 1942   4.105   3.781   1.301  0.2129  0.3825  0.0868
  162poe     o2 1943   4.214   3.692   1.306  0.0169  0.1341 -0.0452
  162poe    c31 1944   4.167   3.581   1.233  0.1818  0.1606 -0.1928
  163poe    c31 1945   6.061   3.625   3.032 -0.5933 -0.2574  0.2002
  163poe     o2 1946   6.081   3.756   3.079 -0.0789 -0.2808  0.0461
  163poe    c23 1947   5.952   3.811   3.066  0.2589  0.5030 -0.1136
  163poe    c23 1948   5.927   3.936   3.152 -0.0254  0.5263 -0.2275
  163poe     o2 1949   6.006   3.898   3.263  0.1882 -0.0037 -0.5575
  163poe    c23 1950   6.005   3.985   3.374  0.2054 -0.5362 -0.1387
  163poe    c23 1951   6.117   3.928   3.463  0.2918  0.4412  0.3823
  163poe     o2 1952   6.223   3.898   3.375  0.2905  0.7418  0.2783
  163poe    c23 1953   6.306   3.805   3.441 -0.4220  0.1206  0.3057
  163poe    c23 1954   6.413   3.775   3.334 -0.4083  0.2334  0.2874
  163poe     o2 1955   6.361   3.759   3.204  0.0093 -1.1358  0.2674
  163poe    c31 1956   6.441   3.676   3.123 -0.6896 -0.7147 -0.8796
  164poe    c31 1957   3.348   6.304   2.998  0.8923 -0.5801 -0.0233
  164poe     o2 1958   3.307   6.383   3.107 -0.3088 -0.1229 -0.7942
  164poe    c23 1959   3.318   6.519   3.071  0.1029  0.1283  0.2486
  164poe    c23 1960   3.280   6.594   3.200 -0.2514  0.4833 -0.0586
  164poe     o2 1961   3.156   6.551   3.251 -0.3208  0.4692 -0.2370
  164poe    c23 1962   3.136   6.585   3.387 -0.1178 -0.0663 -0.0692
  164poe    c23 1963   2.993   6.540   3.422 -0.1609 -0.0531 -0.2257
  164poe     o2 1964   2.982   6.410   3.368 -0.3483 -0.3523  0.5142
  164poe    c23 1965   2.851   6.366   3.339 -0.3641  0.2424 -0.3904
  164poe    c23 1966   2.859   6.249   3.239  0.1737  0.3795 -0.5136
  164poe     o2 1967   2.975   6.263   3.161  0.6832  0.0142  0.1681
  164poe    c31 1968   3.000   6.142   3.092 -0.0882 -0.0445 -0.0129
  165poe    c31 1969   4.098   5.070   6.402 -0.4143 -0.2207 -0.0898
  165poe     o2 1970   4.153   5.200   6.401 -0.8030 -0.0566 -0.0851
  165poe    c23 1971   4.239   5.212   6.512 -0.1729  0.0561 -0.5790
  165poe    c23 1972   4.356   5.309   6.491 -0.0502 -0.0548 -0.4091
  165poe     o2 1973   4.295   5.419   6.428  0.4950  0.5792  0.1533
  165poe    c23 1974   4.368   5.530   6.382  0.6759  0.4425  0.1127
  165poe    c23 1975   4.395   5.490   6.235 -0.0347  1.1762 -0.2234
  165poe     o2 1976   4.279   5.458   6.161  0.3896  0.1937 -0.4723
  165poe    c23 1977   4.303   5.383   6.045  0.4792  0.3905 -0.5815
  165poe    c23 1978   4.166   5.312   6.035  0.4449  0.3936 -0.1386
  165poe     o2 1979   4.104   5.291   6.159  0.0563 -0.4144 -0.4674
  165poe    c31 1980   3.969   5.253   6.145 -0.1435  0.0984  0.0061
  166poe    c31 1981   3.213   5.843   4.405 -0.4875  0.3143 -0.0574
  166poe     o2 1982   3.233   5.777   4.282  0.1399  0.2479  0.0781
  166poe    c23 1983   3.339   5.822   4.200  0.0711 -0.1551 -0.2351
  166poe    c23 1984   3.298   5.934   4.104 -0.1271  0.1600  0.2159
  166poe     o2 1985   3.192   5.901   4.017  0.1259 -0.1403  0.0210
  166poe    c23 1986   3.133   6.024   3.984 -0.2487 -0.3850 -0.2383
  166poe    c23 1987   3.059   6.011   3.849 -0.6394  0.8103 -0.1522
  166poe     o2 1988   2.940   5.936   3.854 -0.0046 -0.2067 -0.1105
  166poe    c23 1989   2.887   5.937   3.723 -0.4881  0.4838  0.0904
  166poe    c23 1990   2.779   5.829   3.708  0.0106  0.0867 -0.7082
  166poe     o2 1991   2.828   5.710   3.766 -0.2868  0.5512  0.5295
  166poe    c31 1992   2.753   5.597   3.727  0.3590  0.3319 -0.1007
  167poe    c31 1993   5.112   6.034   3.270  0.1463 -0.5037 -0.1961
  167poe     o2 1994   5.142   6.061   3.135 -0.3681  0.7927 -0.0600
  167poe    c23 1995   5.030   6.025   3.058 -0.3031  0.3156  0.0665
  167poe    c23 1996   5.024   6.114   2.932  0.1758  0.0127 -0.1732
  167poe     o2 1997   5.145   6.091   2.863 -0.2605 -0.3774 -0.8170
  167poe    c23 1998   5.182   6.188   2.767 -0.5080  0.5482 -0.0020
  167poe    c23 1999   5.228   6.311   2.846 -0.0232 -0.0795  0.7143
  167poe     o2 2000   5.310   6.256   2.945  0.7217 -0.4129 -0.0790
  167poe    c23 2001   5.375   6.362   3.012  0.0210 -0.3081  0.4480
  167poe    c23 2002   5.456   6.295   3.125  0.5286 -0.4467  0.0106
  167poe     o2 2003   5.380   6.188   3.177 -0.1424  0.0953  0.1681
  167poe    c31 2004   5.472   6.126   3.264 -0.2799  0.1979  0.3889
  168poe    c31 2005   5.752   3.830   5.983 -0.9912 -0.1936 -0.1547
  168poe     o2 2006   5.670   3.935   6.030 -0.0800  0.2179  0.5643
  168poe    c23 2007   5.703   3.960   6.164  1.0032 -0.0354  0.3564
  168poe    c23 2008   5.595   4.033   6.245  0.1506 -0.9313  0.0475
  168poe     o2 2009   5.519   4.100   6.147  0.3467 -0.0636  0.4726
  168poe    c23 2010   5.408   4.172   6.197  0.0333 -0.3259  0.1597
  168poe    c23 2011   5.360   4.254   6.076 -0.2262  0.1881  0.6098
  168poe     o2 2012   5.400   4.190   5.956  0.2548  0.6908  0.4945
  168poe    c23 2013   5.456   4.280   5.863  0.3453  0.1411  0.0159
  168poe    c23 2014   5.547   4.205   5.764 -0.2811 -0.5403 -0.0490
  168poe     o2 2015   5.658   4.145   5.828 -0.3331 -0.5156  0.0635
  168poe    c31 2016   5.764   4.123   5.739  0.0667  0.9138  0.1624
  169poe    c31 2017   5.335   5.995   6.577  0.8009  0.4045  0.2925
  169poe     o2 2018   5.326   5.875   6.651  0.1294  0.2553 -0.0221
  169poe    c23 2019   5.327   5.767   6.560  0.1705 -0.1185  0.4199
  169poe    c23 2020   5.335   5.647   6.656  0.1305  0.0185  0.5963
  169poe     o2 2021   5.241   5.652   6.761 -0.5532  0.0922 -0.0130
  169poe    c23 2022   5.262   5.560   6.865 -0.1462  0.4994  0.2687
  169poe    c23 2023   5.150   5.592   6.967 -0.2711 -0.2472  0.3759
  169poe     o2 2024   5.027   5.612   6.900 -0.0660  0.0273  0.0728
  169poe    c23 2025   4.921   5.623   6.993 -0.3310  0.2659 -0.2581
  169poe    c23 2026   4.809   5.672   6.899 -0.6654 -0.8035 -0.4223
  169poe     o2 2027   4.835   5.795   6.836 -0.1370 -1.0690 -0.7292
  169poe    c31 2028   4.704   5.843   6.820  0.2951  0.4430  0.0422
  170poe    c31 2029   4.032   4.311   4.770 -0.0661  0.1280 -0.1783
  170poe     o2 2030   4.033   4.402   4.878  0.3481  0.2611 -0.2912
  170poe    c23 2031   4.135   4.496   4.851  0.4077  0.0564 -0.7875
  170poe    c23 2032   4.252   4.480   4.949 -0.5358 -0.2194  0.3301
  170poe     o2 2033   4.173   4.484   5.065 -0.2791  0.0435  0.4988
  170poe    c23 2034   4.242   4.421   5.172  0.2808 -0.1125  0.0485
  170poe    c23 2035   4.143   4.355   5.269  0.1258  0.0046 -0.0288
  170poe     o2 2036   4.044   4.320   5.174 -0.1216  0.1393  0.1804
  170poe    c23 2037   3.930   4.263   5.234 -0.0334 -0.2693 -0.0419
  170poe    c23 2038   3.828   4.269   5.119  0.6179 -0.3066 -0.6267
  170poe     o2 2039   3.824   4.400   5.067 -0.2603  0.0255  0.2513
  170poe    c31 2040   3.744   4.392   4.950 -0.0352 -0.2108  0.1130
  171poe    c31 2041   1.255   2.062   0.371 -0.2178 -0.0945  0.3280
  171poe     o2 2042   1.300   2.183   0.426 -0.3466  0.3103 -0.4393
  171poe    c23 2043   1.255   2.178   0.559  0.4848 -0.6009 -0.1767
  171poe    c23 2044   1.335   2.278   0.645  0.5144 -0.6913 -0.0992
  171poe     o2 2045   1.470   2.265   0.608  0.2707 -0.2683 -1.1869
  171poe    c23 2046   1.548   2.362   0.674 -0.4247 -0.2774 -0.3273
  171poe    c23 2047   1.669   2.391   0.582 -0.0039  0.0935  0.3329
  171poe     o2 2048   1.592   2.399   0.464 -0.1081  0.1276  0.4025
  171poe    c23 2049   1.670   2.409   0.347 -0.3565 -0.3038  0.1969
  171poe    c23 2050   1.569   2.404   0.231 -0.3845  0.1590  0.2014
  171poe     o2 2051   1.489   2.289   0.235  0.1637 -0.2362 -0.1123
  171poe    c31 2052   1.414   2.299   0.115 -0.1973 -0.2856  0.1070
  172poe    c31 2053   6.667   1.179   1.804  0.0451 -0.0481 -0.6451
  172poe     o2 2054   6.767   1.082   1.779 -0.0460 -0.1425 -0.6471
  172poe    c23 2055   6.739   1.022   1.655 -0.4051 -0.2738 -0.5052
  172poe    c23 2056   6.850   0.917   1.636  0.2165  0.4088 -0.7437
  172poe     o2 2057   6.972   0.986   1.647  0.3497 -0.0273  0.7816
  172poe    c23 2058   7.076   0.915   1.583 -0.5926 -0.5046 -0.2627
  172poe    c23 2059   7.204   0.982   1.637 -0.6617 -0.6343  0.0606
  172poe     o2 2060   7.183   1.025   1.770  0.2633 -0.4200  0.1477
  172poe    c23 2061   7.272   1.130   1.799 -0.0150 -0.2155  0.2682
  172poe    c23 2062   7.208   1.210   1.914 -0.6300  0.3241 -0.4401
  172poe     o2 2063   7.081   1.239   1.860 -0.4809  0.3463 -0.7758
  172poe    c31 2064   7.034   1.365   1.903 -0.3505  0.2873 -0.4630
  173poe    c31 2065   4.947   4.443   5.877 -0.0419  0.0819  0.1760
  173poe     o2 2066   4.876   4.483   5.761 -0.2774 -0.2014  0.2209
  173poe    c23 2067   4.848   4.620   5.782  0.4851 -0.0326  0.1575
  173poe    c23 2068   4.754   4.648   5.663  0.4375 -1.0287 -0.0453
  173poe     o2 2069   4.647   4.558   5.678 -0.2742 -0.2563 -0.4319
  173poe    c23 2070   4.570   4.558   5.560  0.2201 -0.4659 -0.7570
  173poe    c23 2071   4.459   4.453   5.579 -0.1821  0.1480  0.3881
  173poe     o2 2072   4.549   4.349   5.613  0.2802  0.2873 -0.3963
  173poe    c23 2073   4.487   4.222   5.624  0.0664  0.4732  0.5487
  173poe    c23 2074   4.614   4.135   5.625 -0.1880  0.0894 -0.2747
  173poe     o2 2075   4.697   4.170   5.734  0.3729 -0.1868 -0.6086
  173poe    c31 2076   4.812   4.090   5.740  0.1377 -0.4737  0.1749
  174poe    c31 2077   4.085   2.017   5.797  0.8227 -0.1129 -1.1042
  174poe     o2 2078   4.056   1.886   5.756 -0.1647 -0.2568 -0.0280
  174poe    c23 2079   4.172   1.835   5.693 -0.1036 -0.4970  0.2787
  174poe    c23 2080   4.141   1.691   5.650 -0.2216 -0.5055  0.3916
  174poe     o2 2081   4.027   1.646   5.719 -0.6099 -0.0499  0.0562
  174poe    c23 2082   3.972   1.517   5.704  0.5946 -0.5664 -0.0101
  174poe    c23 2083   3.854   1.497   5.801 -0.0701  0.1542 -0.6532
  174poe     o2 2084   3.822   1.625   5.852 -0.2905  0.0712 -0.5817
  174poe    c23 2085   3.686   1.636   5.885 -0.2321 -0.0573 -0.2967
  174poe    c23 2086   3.680   1.776   5.948  0.5004 -0.0348 -0.2712
  174poe     o2 2087   3.777   1.853   5.881  0.6667 -0.1142 -0.1241
  174poe    c31 2088   3.744   1.989   5.900  0.2245 -0.2485  0.0783
  175poe    c31 2089   3.868   4.901   4.574  0.1924 -0.1887 -0.2700
  175poe     o2 2090   3.915   4.888   4.442 -0.3658 -0.1170 -0.4761
  175poe    c23 2091   3.843   4.968   4.350 -0.7186 -0.1607 -0.2404
  175poe    c23 2092   3.905   4.965   4.209  0.3520  0.3464  0.2087
  175poe     o2 2093   3.943   4.830   4.194 -0.0899  0.2910 -0.4128
  175poe    c23 2094   4.004   4.796   4.072  0.4279 -0.0724 -0.0535
  175poe    c23 2095   4.052   4.651   4.092  0.3578 -0.1413 -0.3826
  175poe     o2 2096   4.074   4.640   4.231  0.1776  0.2419 -0.3247
  175poe    c23 2097   4.214   4.643   4.249  0.1112  0.4301  0.1923
  175poe    c23 2098   4.240   4.660   4.399 -0.0935 -0.1873  0.2997
  175poe     o2 2099   4.141   4.742   4.457 -0.1880 -0.3853  0.4229
  175poe    c31 2100   4.169   4.787   4.588 -0.1229 -0.6233  0.4905
  176poe    c31 2101   2.473   2.783   0.591  0.4827  0.0189 -0.1457
  176poe     o2 2102   2.416   2.893   0.659  0.2990 -0.0381 -0.2063
  176poe    c23 2103   2.525   2.967   0.709  0.3290 -0.1510 -0.1036
  176poe    c23 2104   2.520   3.119   0.727 -0.2383 -0.1676 -0.1019
  176poe     o2 2105   2.393   3.120   0.788 -0.0254  0.3854  0.3503
  176poe    c23 2106   2.359   3.249   0.832  0.0624  0.8789 -0.9984
  176poe    c23 2107   2.222   3.258   0.902  0.4340 -0.8948  0.0116
  176poe     o2 2108   2.111   3.202   0.835  0.0557 -0.6710  0.4459
  176poe    c23 2109   2.014   3.171   0.932  0.0131 -0.2759  0.5299
  176poe    c23 2110   1.903   3.072   0.891  0.0339 -0.2381  0.3837
  176poe     o2 2111   1.804   3.147   0.824 -0.0759 -0.1979  0.5891
  176poe    c31 2112   1.701   3.057   0.789  0.2299  0.0307 -0.9726
  177poe    c31 2113   2.406   6.666   6.478 -0.0904 -0.1612 -0.0336
  177poe     o2 2114   2.367   6.700   6.609 -0.8846 -0.1168 -0.2788
  177poe    c23 2115   2.325   6.834   6.622 -0.1214  0.1217 -0.2001
  177poe    c23 2116   2.240   6.843   6.751  0.2957  0.1280  0.0755
  177poe     o2 2117   2.303   6.762   6.847  0.1254 -0.2791 -0.1570
  177poe    c23 2118   2.247   6.754   6.976 -0.0981  0.3094 -0.2171
  177poe    c23 2119   2.277   6.614   7.033  0.5760  0.3812 -0.3892
  177poe     o2 2120   2.250   6.522   6.929 -0.2578 -0.0070  0.1535
  177poe    c23 2121   2.297   6.390   6.947  0.2298  0.1503  0.0734
  177poe    c23 2122   2.307   6.334   6.804  0.6688  0.0778  0.1324
  177poe     o2 2123   2.385   6.422   6.726 -0.0881 -0.2801 -1.0464
  177poe    c31 2124   2.442   6.337   6.629  0.4628 -1.0876 -0.0356
  178poe    c31 2125   0.592   6.628   1.743 -0.7593  0.6450  0.4015
  178poe     o2 2126   0.662   6.630   1.865 -0.3480 -0.0126  0.1791
  178poe    c23 2127   0.802   6.613   1.852 -0.4402 -0.5078 -0.2019
  178poe    c23 2128   0.860   6.587   1.992  0.1411  0.3346 -0.2776
  178poe     o2 2129   0.810   6.694   2.069 -0.5349  0.0648 -0.3299
  178poe    c23 2130   0.797   6.661   2.205  0.1655  0.0920 -0.2509
  178poe    c23 2131   0.682   6.749   2.259  0.2852  0.2527 -0.2585
  178poe     o2 2132   0.592   6.785   2.156  0.1207 -0.1280 -0.2464
  178poe    c23 2133   0.457   6.812   2.185  0.1640  0.8834 -0.9572
  178poe    c23 2134   0.371   6.734   2.083 -0.0710 -0.4061  0.1946
  178poe     o2 2135   0.436   6.773   1.964  0.1914 -0.1460  0.4199
  178poe    c31 2136   0.337   6.825   1.879  0.2049 -0.2208  0.3582
  179poe    c31 2137   4.989   4.447   1.438 -0.3929 -0.1533 -0.2902
  179poe     o2 2138   4.898   4.420   1.542 -0.1993  0.3678  0.0151
  179poe    c23 2139   4.927   4.294   1.597 -0.4822  0.5105  0.5045
  179poe    c23 2140   4.796   4.240   1.656 -0.5109  0.0258  0.0058
  179poe     o2 2141   4.726   4.357   1.690 -0.3398  0.0267  0.3596
  179poe    c23 2142   4.589   4.333   1.711 -0.4470  0.1304 -0.1943
  179poe    c23 2143   4.518   4.443   1.792  0.4415  0.1696  0.5404
  179poe     o2 2144   4.578   4.553   1.728  0.2252 -0.4005 -0.6581
  179poe    c23 2145   4.603   4.663   1.813  0.4946 -0.7501 -0.2829
  179poe    c23 2146   4.699   4.763   1.746 -0.5474 -0.0275 -0.7176
  179poe     o2 2147   4.796   4.681   1.684 -0.2264 -0.4512  0.3227
  179poe    c31 2148   4.921   4.745   1.669 -0.7177  0.6526  0.8670
  180poe    c31 2149   5.513   5.709   4.119 -0.5025 -0.5001 -0.2789
  180poe     o2 2150   5.436   5.824   4.093 -0.0604 -0.0688  0.2708
  180poe    c23 2151   5.417   5.887   4.217 -0.1023  0.0154  0.2215
  180poe    c23 2152   5.313   5.998   4.191  0.0854  0.1716  0.1429
  180poe     o2 2153   5.369   6.082   4.092 -0.1027 -0.0259 -0.1328
  180poe    c23 2154   5.278   6.180   4.047  0.9895  1.0448 -0.0582
  180poe    c23 2155   5.258   6.167   3.895  0.1781 -0.4868  0.1616
  180poe     o2 2156   5.250   6.028   3.872  0.3054 -0.5417  0.4452
  180poe    c23 2157   5.189   6.002   3.747  0.4766  0.7514  0.0780
  180poe    c23 2158   5.219   5.854   3.717  0.6059  0.7825  0.0499
  180poe     o2 2159   5.329   5.828   3.801  0.0065  0.2517  0.6899
  180poe    c31 2160   5.356   5.692   3.779  0.0392  0.3174  0.3259
  181poe    c31 2161   4.846   2.489   5.116  0.0190 -0.0656 -0.5026
  181poe     o2 2162   4.766   2.375   5.092  0.0211 -0.2543  0.3513
  181poe    c23 2163   4.826   2.249   5.113 -0.7312 -0.6713  0.0350
  181poe    c23 2164   4.824   2.175   4.978  0.2000  0.2204 -0.4900
  181poe     o2 2165   4.689   2.196   4.942 -0.0163  0.2114  0.2939
  181poe    c23 2166   4.669   2.183   4.803  0.3012 -0.5229  0.3123
  181poe    c23 2167   4.660   2.326   4.747  0.1630 -0.4629  0.4881
  181poe     o2 2168   4.574   2.391   4.838 -0.3137 -0.1758 -0.1594
  181poe    c23 2169   4.560   2.523   4.791  0.3190  0.1243  0.4721
  181poe    c23 2170   4.505   2.612   4.904 -0.4326 -0.0627  0.2575
  181poe     o2 2171   4.542   2.549   5.025 -0.5859 -0.8790 -0.1086
  181poe    c31 2172   4.480   2.632   5.121  0.0395 -0.4647 -0.0583
  182poe    c31 2173   1.864   2.484   4.973 -0.1248 -0.4961  0.0331
  182poe     o2 2174   1.986   2.507   4.906 -0.2429  0.6387  0.1917
  182poe    c23 2175   2.093   2.462   4.986 -0.1779  0.4804  0.0159
  182poe    c23 2176   2.229   2.493   4.922 -0.2901 -0.2854 -0.6089
  182poe     o2 2177   2.230   2.629   4.883  0.3627 -0.0847  0.0646
  182poe    c23 2178   2.348   2.653   4.811  0.4139  0.2709  0.2661
  182poe    c23 2179   2.342   2.805   4.787  0.0324  0.1763 -0.2481
  182poe     o2 2180   2.213   2.845   4.747  0.0850 -0.0732 -0.6732
  182poe    c23 2181   2.175   2.981   4.738 -0.1337 -0.0793  0.1219
  182poe    c23 2182   2.027   2.967   4.695 -0.3823 -0.0253  0.9337
  182poe     o2 2183   1.982   2.837   4.726  0.4549 -0.4140  0.5511
  182poe    c31 2184   1.858   2.800   4.670  0.4905  0.7337 -0.3447
  183poe    c31 2185   0.363   5.108   6.054 -0.3570  0.1783  0.1900
  183poe     o2 2186   0.461   5.198   6.007  0.1256 -0.2364  0.3838
  183poe    c23 2187   0.436   5.325   6.063  0.0135  0.0774 -0.3547
  183poe    c23 2188   0.526   5.440   6.015  0.2430  0.2216  0.4105
  183poe     o2 2189   0.658   5.431   6.064  0.4496  0.0544 -0.1761
  183poe    c23 2190   0.740   5.521   5.991  0.2306  0.6927  0.3568
  183poe    c23 2191   0.868   5.531   6.076  0.9169 -0.4912 -0.5094
  183poe     o2 2192   0.888   5.398   6.116  0.4390 -0.5140 -0.3488
  183poe    c23 2193   1.009   5.414   6.187  0.0455 -0.3642  0.3045
  183poe    c23 2194   1.067   5.297   6.269  0.7246  0.3780  0.9022
  183poe     o2 2195   0.982   5.256   6.374 -0.1968  0.1020  0.0718
  183poe    c31 2196   1.057   5.162   6.448  0.3450  0.1775 -0.3694
  184poe    c31 2197   6.697   1.704   2.122 -0.3308  0.2546 -0.9904
  184poe     o2 2198   6.743   1.827   2.174  0.1888 -0.2701 -0.1808
  184poe    c23 2199   6.817   1.816   2.293 -0.2650 -0.1214  0.1162
  184poe    c23 2200   6.840   1.961   2.339  0.0165  0.1227 -0.7800
  184poe     o2 2201   6.897   2.028   2.229  0.9797 -0.0711 -0.4039
  184poe    c23 2202   6.912   2.168   2.240 -0.2223 -0.0167  0.7320
  184poe    c23 2203   6.946   2.217   2.098 -0.7301 -0.4461  0.4617
  184poe     o2 2204   6.872   2.149   1.998  0.0510 -0.4630 -0.1126
  184poe    c23 2205   6.751   2.208   1.956  0.1804  0.1613  0.3787
  184poe    c23 2206   6.673   2.103   1.876  0.2549 -0.3713  0.9936
  184poe     o2 2207   6.663   1.985   1.951 -0.2315 -0.9354  0.0644
  184poe    c31 2208   6.528   1.947   1.966 -0.3571 -0.2022  0.8521
  185poe    c31 2209   4.926   1.073   4.998  0.3882 -0.3443  0.2851
  185poe     o2 2210   4.852   1.087   5.117 -0.2438 -0.1043 -0.1303
  185poe    c23 2211   4.803   1.215   5.152 -0.3232 -0.1510 -0.0690
  185poe    c23 2212   4.676   1.262   5.078 -0.3003 -0.3107 -0.2120
  185poe     o2 2213   4.574   1.170   5.109 -0.1744 -0.3109  0.2073
  185poe    c23 2214   4.456   1.204   5.040  0.2145 -0.3794 -0.5056
  185poe    c23 2215   4.350   1.094   5.027  0.0486 -0.2997  0.1052
  185poe     o2 2216   4.330   1.049   5.159 -0.4283 -0.1652  0.0802
  185poe    c23 2217   4.208   0.985   5.189 -0.2872 -0.5317 -0.1145
  185poe    c23 2218   4.221   0.964   5.342  1.0365  0.5404 -0.0614
  185poe     o2 2219   4.320   0.873   5.381 -0.0653 -0.7367 -0.1592
  185poe    c31 2220   4.285   0.778   5.479 -0.6450 -0.5518 -0.1847
  186poe    c31 2221   2.291   3.676   5.047  0.4422 -0.3064  0.0418
  186poe     o2 2222   2.269   3.564   4.964  0.2537 -0.1618 -0.1066
  186poe    c23 2223   2.397   3.520   4.922  0.3505 -0.0473  0.0648
  186poe    c23 2224   2.371   3.416   4.812  0.0418  0.0491  0.0461
  186poe     o2 2225   2.267   3.464   4.729  0.1475 -0.1872 -0.2232
  186poe    c23 2226   2.235   3.365   4.633  0.0300 -0.5178  0.1504
  186poe    c23 2227   2.081   3.363   4.628  0.0433 -0.4504 -0.3595
  186poe     o2 2228   2.056   3.351   4.766  0.4236  0.2332 -0.2289
  186poe    c23 2229   1.917   3.339   4.789  0.3559  1.2244 -0.0362
  186poe    c23 2230   1.909   3.362   4.941  0.0985  0.8658  0.0057
  186poe     o2 2231   2.009   3.445   4.994  0.4838  0.0428  0.5777
  186poe    c31 2232   1.954   3.509   5.107  0.2785  0.2358  0.3670
  187poe    c31 2233   4.101   6.469   5.894  1.4634  0.0967 -0.3551
  187poe     o2 2234   4.086   6.585   5.815 -0.2489  0.0620 -0.1040
  187poe    c23 2235   4.194   6.675   5.826 -0.2102 -0.0206  0.1945
  187poe    c23 2236   4.191   6.770   5.705  0.2961 -0.1579  0.0737
  187poe     o2 2237   4.060   6.813   5.674  0.5691  0.2435 -0.5524
  187poe    c23 2238   4.046   6.918   5.581  0.4783  0.7797  0.0624
  187poe    c23 2239   3.894   6.934   5.563  0.4119 -0.0826 -0.2193
  187poe     o2 2240   3.821   6.815   5.545  0.0476  0.0381  0.4011
  187poe    c23 2241   3.683   6.825   5.519 -0.0893  0.0394  1.1069
  187poe    c23 2242   3.599   6.698   5.496 -0.4635  0.5961 -0.8111
  187poe     o2 2243   3.609   6.650   5.364 -0.0469 -0.6150 -0.3513
  187poe    c31 2244   3.496   6.691   5.291 -0.4415 -0.2289  0.4647
  188poe    c31 2245   1.195   3.112   5.195 -0.0920 -0.3097  0.1745
  188poe     o2 2246   1.080   3.192   5.208 -0.0137 -0.1568 -0.0857
  188poe    c23 2247   0.957   3.124   5.216 -0.2512  0.3540  0.6795
  188poe    c23 2248   0.856   3.218   5.285  0.3313  0.9486  0.7322
  188poe     o2 2249   0.844   3.337   5.211  0.2694  0.5721  0.1255
  188poe    c23 2250   0.788   3.421   5.310 -0.3927  0.2467  0.0337
  188poe    c23 2251   0.833   3.564   5.272  0.2131  0.1039  0.1925
  188poe     o2 2252   0.963   3.545   5.222  0.1207  0.3067 -0.1311
  188poe    c23 2253   1.024   3.653   5.157  0.3988  0.0452 -0.3055
  188poe    c23 2254   1.174   3.615   5.157  0.3491 -0.1516 -0.4380
  188poe     o2 2255   1.188   3.476   5.140 -0.1942 -0.1621 -0.8591
  188poe    c31 2256   1.320   3.428   5.122 -0.3266 -0.5354 -0.8452
  189poe    c31 2257   6.255   5.466   2.656 -0.5738  0.2091 -0.3637
  189poe     o2 2258   6.344   5.509   2.756 -0.3909 -0.2646 -0.3165
  189poe    c23 2259   6.280   5.516   2.882  0.0868  0.1090 -0.0881
  189poe    c23 2260   6.394   5.467   2.973 -0.2617  0.2965  0.4520
  189poe     o2 2261   6.516   5.524   2.931 -0.2259  0.0345  0.1927
  189poe    c23 2262   6.636   5.471   2.985  0.1128  0.3618 -0.2373
  189poe    c23 2263   6.746   5.486   2.878  0.2117 -0.0656 -0.1969
  189poe     o2 2264   6.682   5.481   2.752  0.1781 -0.4195 -0.1654
  189poe    c23 2265   6.773   5.531   2.656  0.3237 -0.1979  0.0876
  189poe    c23 2266   6.681   5.557   2.536  0.4070  0.8931  0.2531
  189poe     o2 2267   6.543   5.574   2.561  0.2610  0.5683 -0.3042
  189poe    c31 2268   6.491   5.586   2.431  0.1317  0.3736 -0.2714
  190poe    c31 2269   0.722   6.408   4.962  0.0851  0.2565 -0.7061
  190poe     o2 2270   0.836   6.355   4.898  0.4016 -0.0088  0.0654
  190poe    c23 2271   0.843   6.417   4.771 -0.3283 -0.1374 -0.0399
  190poe    c23 2272   0.980   6.384   4.709 -0.3177 -0.1543 -0.0084
  190poe     o2 2273   1.079   6.402   4.807  0.0119  0.3040 -0.4183
  190poe    c23 2274   1.200   6.350   4.755  0.0044 -0.7173  0.5473
  190poe    c23 2275   1.273   6.271   4.865  0.7005  0.1364  0.7086
  190poe     o2 2276   1.169   6.195   4.923  0.3363  0.4306  0.4418
  190poe    c23 2277   1.219   6.094   5.008  0.2191  0.4922  0.5834
  190poe    c23 2278   1.092   6.034   5.072  0.0692  0.6962  0.4817
  190poe     o2 2279   0.990   6.129   5.090  0.1047  0.7454  0.4240
  190poe    c31 2280   0.880   6.102   5.173  0.0374 -0.3552 -0.0007
  191poe    c31 2281   1.339   2.138   2.628 -0.3263 -0.2341 -0.8879
  191poe     o2 2282   1.389   2.232   2.721  0.2798 -0.4280 -1.0105
  191poe    c23 2283   1.355   2.207   2.855  0.9796  0.4583 -0.6597
  191poe    c23 2284   1.395   2.323   2.947 -0.3765  0.2749  0.1887
  191poe     o2 2285   1.536   2.321   2.938 -0.3766  0.0376  0.2375
  191poe    c23 2286   1.605   2.392   3.038  0.0051  0.2495 -0.1713
  191poe    c23 2287   1.753   2.384   2.998 -0.0464 -0.1389 -0.2872
  191poe     o2 2288   1.744   2.378   2.857 -0.0858  0.5582 -0.3202
  191poe    c23 2289   1.870   2.333   2.814 -0.0469  0.3629 -0.0070
  191poe    c23 2290   1.865   2.185   2.770 -0.3508  0.3558  0.0476
  191poe     o2 2291   1.755   2.156   2.688 -0.4480 -0.3112  0.4044
  191poe    c31 2292   1.789   2.037   2.621 -0.8202 -0.0530 -0.2530
  192poe    c31 2293   2.224   0.652   5.455 -0.2616  0.9557 -0.1903
  192poe     o2 2294   2.141   0.639   5.568 -0.3013 -0.8499 -0.4018
  192poe    c23 2295   2.204   0.562   5.669  0.2259  0.2254  0.1002
  192poe    c23 2296   2.167   0.610   5.810  0.0530 -0.0585  0.1506
  192poe     o2 2297   2.028   0.633   5.812  0.0150 -0.2437 -0.2426
  192poe    c23 2298   1.972   0.715   5.913  0.3289  0.1713 -0.4047
  192poe    c23 2299   1.840   0.770   5.857  0.0172 -0.0948  0.0673
  192poe     o2 2300   1.862   0.805   5.722 -0.6012 -0.1308 -0.0474
  192poe    c23 2301   1.833   0.941   5.703 -0.0175 -0.0318 -0.2570
  192poe    c23 2302   1.832   0.941   5.549 -0.3685 -0.0302 -0.2561
  192poe     o2 2303   1.925   0.844   5.507  0.0732  0.2056  0.1735
  192poe    c31 2304   1.951   0.881   5.374  0.3797  0.1843  0.2265
  193poe    c31 2305   6.695   4.787   2.104 -0.2608  0.2459 -0.0261
  193poe     o2 2306   6.785   4.893   2.079 -0.2448  0.2509  0.0564
  193poe    c23 2307   6.866   4.857   1.969 -0.0501  0.2184  0.2103
  193poe    c23 2308   6.988   4.940   2.014  0.2956 -0.2024  0.0520
  193poe     o2 2309   6.941   5.073   2.006  0.6780 -0.0654  0.0748
  193poe    c23 2310   7.032   5.159   2.070  0.6499  0.2231 -0.2719
  193poe    c23 2311   6.950   5.289   2.056 -0.0587 -0.1596  0.2792
  193poe     o2 2312   6.819   5.255   2.096 -0.1370  0.2721  0.3888
  193poe    c23 2313   6.724   5.349   2.051  0.3364  0.0212 -1.1785
  193poe    c23 2314   6.584   5.285   2.038  0.1547  0.3097 -0.6553
  193poe     o2 2315   6.623   5.154   2.005  0.0023 -0.0712  0.6388
  193poe    c31 2316   6.511   5.072   1.976  0.2272 -0.2184  0.1779
  194poe    c31 2317   0.177   4.760   0.282  0.1170  0.0853  0.1894
  194poe     o2 2318   0.280   4.795   0.193  0.3599 -0.0519  0.4186
  194poe    c23 2319   0.393   4.713   0.217  0.2211 -0.2944  0.2467
  194poe    c23 2320   0.499   4.753   0.112  0.2428  0.0317  0.3913
  194poe     o2 2321   0.501   4.893   0.132  0.6202 -0.0547  0.9918
  194poe    c23 2322   0.596   4.964   0.056  0.1632 -0.3127  0.1706
  194poe    c23 2323   0.538   5.106   0.076  0.2797 -0.2980  0.4026
  194poe     o2 2324   0.398   5.102   0.065  0.2774 -0.0116  0.3223
  194poe    c23 2325   0.322   5.213   0.107  0.0187 -0.1243  0.1562
  194poe    c23 2326   0.193   5.156   0.168 -0.1834 -0.0009 -0.1507
  194poe     o2 2327   0.157   5.033   0.110  0.6262 -0.5612  0.5145
  194poe    c31 2328   0.020   5.033   0.077  0.6055 -0.6494  0.5967
  195poe    c31 2329   5.253   2.940   0.124  0.2493 -0.9459 -0.3331
  195poe     o2 2330   5.373   2.866   0.128  0.3276 -0.7901  0.3105
  195poe    c23 2331   5.469   2.943   0.060  0.0267 -0.6705  0.0191
  195poe    c23 2332   5.598   2.861   0.042  0.1902 -0.3641 -0.2190
  195poe     o2 2333   5.624   2.806   0.169  0.1111 -0.0576 -0.0701
  195poe    c23 2334   5.741   2.729   0.187  0.6462  0.7680  0.0695
  195poe    c23 2335   5.721   2.644   0.314  0.3473  0.4786 -0.1689
  195poe     o2 2336   5.583   2.613   0.320  0.3357  0.5294 -0.1756
  195poe    c23 2337   5.546   2.587   0.453 -0.2177  0.0863 -0.4114
  195poe    c23 2338   5.393   2.594   0.444 -0.2652  0.4791  0.5194
  195poe     o2 2339   5.339   2.697   0.363  0.2879  0.0480 -0.4160
  195poe    c31 2340   5.198   2.690   0.371  0.2856  0.8820  0.4610
  196poe    c31 2341   3.544   0.778   4.786  0.3917  0.2588 -0.1983
  196poe     o2 2342   3.678   0.755   4.824  0.2077  0.3675  0.5247
  196poe    c23 2343   3.756   0.848   4.753  0.0599 -0.5939 -0.9202
  196poe    c23 2344   3.891   0.852   4.827 -0.2136 -0.5712 -0.4214
  196poe     o2 2345   3.924   0.722   4.872 -0.3002 -0.5233 -0.2176
  196poe    c23 2346   4.062   0.714   4.899 -0.2926  1.1572  0.3332
  196poe    c23 2347   4.078   0.652   5.039 -0.6780  0.0389 -0.1086
  196poe     o2 2348   4.028   0.521   5.048  0.2422 -0.3836 -1.0043
  196poe    c23 2349   4.116   0.437   5.119  0.0201  1.2347  1.2974
  196poe    c23 2350   4.073   0.342   5.232  0.3769 -0.3023  0.1796
  196poe     o2 2351   3.996   0.404   5.333  0.4326  0.1099 -0.0313
  196poe    c31 2352   4.089   0.470   5.416  0.4762 -0.3870  0.3184
  197poe    c31 2353   4.545   1.103   0.445  0.6621  0.6188 -0.3496
  197poe     o2 2354   4.469   1.072   0.560 -0.0037  0.0352 -0.9363
  197poe    c23 2355   4.432   0.937   0.568 -0.3842  0.1586 -0.5785
  197poe    c23 2356   4.325   0.920   0.678  0.4702 -0.1368  0.2241
  197poe     o2 2357   4.356   0.997   0.792  0.2612 -0.4128  0.4693
  197poe    c23 2358   4.262   0.995   0.898 -0.1293 -0.1712  0.1325
  197poe    c23 2359   4.348   1.077   0.997 -0.7563  0.7435 -0.0672
  197poe     o2 2360   4.409   1.183   0.927  0.0770  0.1209 -0.2966
  197poe    c23 2361   4.510   1.243   1.005 -0.6652  0.2355  0.5873
  197poe    c23 2362   4.565   1.340   0.899 -0.8713  0.1978  0.4461
  197poe     o2 2363   4.594   1.271   0.779 -0.3791 -0.0059  0.6784
  197poe    c31 2364   4.675   1.344   0.690 -0.1656 -1.4357 -0.3371
  198poe    c31 2365   0.020   2.793   0.445  0.0697  0.5297 -0.0741
  198poe     o2 2366   0.044   2.789   0.584 -0.3770  0.1007 -0.0091
  198poe    c23 2367  -0.028   2.889   0.652 -0.1727  0.0450  0.2877
  198poe    c23 2368  -0.009   2.854   0.801  0.0638 -0.5535  0.1213
  198poe     o2 2369   0.129   2.828   0.816  0.1514 -0.0059  0.2741
  198poe    c23 2370   0.168   2.817   0.951  0.1715  0.9270  0.3494
  198poe    c23 2371   0.321   2.800   0.963  0.0929  0.0698  0.1683
  198poe     o2 2372   0.375   2.681   0.911 -0.0339  0.3260 -0.5638
  198poe    c23 2373   0.516   2.690   0.905  0.0662  0.0455  0.8757
  198poe    c23 2374   0.542   2.540   0.883 -1.1876 -0.1035  0.3190
  198poe     o2 2375   0.501   2.454   0.987 -0.0597 -0.9196  0.1065
  198poe    c31 2376   0.599   2.437   1.086  0.7876 -0.2632 -0.6027
  199poe    c31 2377   0.652   4.297   5.983 -0.1305 -0.0049  0.5152
  199poe     o2 2378   0.790   4.309   5.956 -0.2424  0.3224  0.0724
  199poe    c23 2379   0.829   4.344   5.826 -0.0987  0.1168  0.0588
  199poe    c23 2380   0.982   4.330   5.814 -0.1396  0.1366 -0.5237
  199poe     o2 2381   1.037   4.365   5.939 -0.2216 -0.0463 -0.4367
  199poe    c23 2382   1.177   4.370   5.947 -0.2063 -0.5344 -0.3861
  199poe    c23 2383   1.225   4.350   6.092  0.0319  0.3257 -0.3430
  199poe     o2 2384   1.133   4.423   6.171  0.4411  0.3018  0.1552
  199poe    c23 2385   1.175   4.484   6.291  0.3928 -0.1946  0.4303
  199poe    c23 2386   1.228   4.628   6.272 -0.1892  0.1035  1.0343
  199poe     o2 2387   1.135   4.725   6.231  0.4047  0.0774 -0.4249
  199poe    c31 2388   1.179   4.859   6.222  0.8621 -0.0042  0.4654
  200poe    c31 2389   5.325   3.109   4.411 -0.4219 -0.6186 -0.2606
  200poe     o2 2390   5.411   3.045   4.503  0.0937  0.4833  0.0395
  200poe    c23 2391   5.354   3.050   4.632  0.2247 -0.8021  0.1540
  200poe    c23 2392   5.440   2.957   4.719  1.1406 -0.0833  0.0241
  200poe     o2 2393   5.453   2.823   4.678 -0.1885 -0.2343  0.0829
  200poe    c23 2394   5.530   2.784   4.567 -0.4801  0.2700 -0.3028
  200poe    c23 2395   5.520   2.633   4.541 -0.0853  0.1367  0.2829
  200poe     o2 2396   5.545   2.548   4.651  0.6237 -0.6630 -0.4774
  200poe    c23 2397   5.510   2.420   4.605 -0.8754 -0.5727  0.3715
  200poe    c23 2398   5.537   2.336   4.731  0.4745 -0.2074  0.3375
  200poe     o2 2399   5.483   2.397   4.846 -0.2257 -0.1234 -0.0326
  200poe    c31 2400   5.467   2.306   4.953  0.7725  0.3636  0.5394
  201poe    c31 2401   5.227   4.450   6.560 -0.8595  0.0038  0.0786
  201poe     o2 2402   5.264   4.414   6.691 -0.2635 -0.3061 -0.1739
  201poe    c23 2403   5.154   4.357   6.758  0.0307 -0.5146  0.1375
  201poe    c23 2404   5.180   4.379   6.908 -0.1099 -0.2849  0.1286
  201poe     o2 2405   5.315   4.347   6.933  0.1595  0.3704 -0.4772
  201poe    c23 2406   5.324   4.372   7.071  0.0464 -0.1149 -0.3810
  201poe    c23 2407   5.466   4.342   7.125  0.1103  0.7248 -0.0725
  201poe     o2 2408   5.544   4.414   7.032  0.1547  0.2864 -0.3790
  201poe    c23 2409   5.675   4.370   7.058 -0.0183 -0.0033  0.0253
  201poe    c23 2410   5.778   4.458   6.985  0.0200  0.2414  0.3730
  201poe     o2 2411   5.779   4.590   7.036 -0.0047  0.7124 -0.8043
  201poe    c31 2412   5.883   4.674   6.992  0.1236  0.7338 -0.4619
  202poe    c31 2413   3.780   5.442   2.324 -0.3434 -0.0249 -0.0231
  202poe     o2 2414   3.711   5.354   2.238 -0.2332  0.2789 -0.4251
  202poe    c23 2415   3.609   5.415   2.162 -0.3559  1.0854  0.3747
  202poe    c23 2416   3.488   5.321   2.148  0.4300  0.0860  0.1575
  202poe     o2 2417   3.522   5.192   2.194  0.2160  0.1168  0.4013
  202poe    c23 2418   3.447   5.156   2.309  0.0735 -0.3040  0.1781
  202poe    c23 2419   3.536   5.063   2.393  0.8295  0.0367 -0.2260
  202poe     o2 2420   3.663   5.123   2.383  0.6884  0.3425 -0.2002
  202poe    c23 2421   3.746   5.060   2.478 -0.2163  0.3684  0.6156
  202poe    c23 2422   3.883   5.121   2.444 -0.4379  0.4736 -0.0885
  202poe     o2 2423   3.895   5.138   2.304 -0.0744  0.2424 -0.0873
  202poe    c31 2424   4.030   5.158   2.270 -0.0590 -0.1913 -0.2864
  203poe    c31 2425   4.995   2.656   3.871 -0.1269  0.2016 -0.2649
  203poe     o2 2426   4.951   2.553   3.785 -0.0306  0.0264 -0.1053
  203poe    c23 2427   4.824   2.586   3.733 -0.1881  0.0884  0.3100
  203poe    c23 2428   4.817   2.535   3.588 -0.2904  0.1409  0.2969
  203poe     o2 2429   4.860   2.401   3.590 -0.1987  0.1593 -0.1467
  203poe    c23 2430   4.870   2.331   3.468 -0.2121 -0.2168  0.0660
  203poe    c23 2431   4.913   2.191   3.516 -0.1127 -0.0697  0.4137
  203poe     o2 2432   5.039   2.214   3.575  0.2220 -0.3592 -0.1724
  203poe    c23 2433   5.056   2.120   3.678 -0.3903 -0.3287 -0.0396
  203poe    c23 2434   5.156   2.190   3.772  0.0532 -0.8273 -0.1397
  203poe     o2 2435   5.114   2.321   3.799  0.1284 -0.8222 -0.0488
  203poe    c31 2436   5.197   2.359   3.907  0.0845 -0.0919 -0.2671
  204poe    c31 2437   5.816   6.641   3.092  0.1539  0.1111  0.0405
  204poe     o2 2438   5.850   6.607   3.225  0.5805  0.2606 -0.0270
  204poe    c23 2439   5.875   6.470   3.247 -0.4394  0.0235 -0.2746
  204poe    c23 2440   5.897   6.430   3.394 -0.7277  0.4130 -0.1222
  204poe     o2 2441   5.972   6.543   3.431  0.3005 -0.4255  0.4121
  204poe    c23 2442   6.010   6.543   3.566  0.6152 -0.3966  0.3264
  204poe    c23 2443   6.066   6.685   3.581 -0.2084 -0.0519  0.2031
  204poe     o2 2444   5.976   6.777   3.524  0.1063 -0.3665 -0.8328
  204poe    c23 2445   6.038   6.904   3.521  0.2621 -0.3827  0.7662
  204poe    c23 2446   5.950   6.963   3.410  0.4943 -0.8064  0.3520
  204poe     o2 2447   5.948   6.872   3.302  0.3252 -0.1549 -0.2033
  204poe    c31 2448   5.971   6.929   3.175 -0.0712 -0.0253 -0.2196
  205poe    c31 2449   3.651   2.341   1.995 -0.3454  0.3293  0.5304
  205poe     o2 2450   3.532   2.295   1.935  0.3552 -0.0259 -0.6268
  205poe    c23 2451   3.512   2.165   1.988 -0.3344  0.4305  0.2725
  205poe    c23 2452   3.369   2.119   1.954 -0.0964 -0.1668  0.0682
  205poe     o2 2453   3.286   2.233   1.950 -0.0637 -0.1326  0.3481
  205poe    c23 2454   3.147   2.210   1.950  0.0376 -0.7742  0.5833
  205poe    c23 2455   3.095   2.355   1.941  0.2791 -0.7644 -0.7746
  205poe     o2 2456   3.193   2.429   1.870  0.2568  0.0030 -0.0181
  205poe    c23 2457   3.142   2.559   1.852 -0.4240 -0.2095  0.3356
  205poe    c23 2458   3.271   2.639   1.830 -0.3522 -0.5971 -0.7121
  205poe     o2 2459   3.372   2.563   1.892  0.4870  0.2955 -0.9477
  205poe    c31 2460   3.489   2.641   1.880  0.7238  0.1824  0.4504
  206poe    c31 2461   4.761   1.804   0.146  0.8191  0.5771 -0.1533
  206poe     o2 2462   4.717   1.930   0.192  0.5031  0.2215  0.5396
  206poe    c23 2463   4.822   2.018   0.221  0.4740  0.4645 -0.0719
  206poe    c23 2464   4.764   2.141   0.293 -0.0035  0.2659 -0.1185
  206poe     o2 2465   4.664   2.085   0.375  0.4790  0.5930  0.6993
  206poe    c23 2466   4.584   2.180   0.442 -0.3872  0.1529  0.3002
  206poe    c23 2467   4.465   2.105   0.507 -0.1589 -0.2639  0.2426
  206poe     o2 2468   4.459   1.991   0.424  0.4427  0.1909 -0.4404
  206poe    c23 2469   4.327   1.946   0.409  0.6599 -0.7140  0.3223
  206poe    c23 2470   4.353   1.815   0.332  0.3786 -0.8217  0.4082
  206poe     o2 2471   4.460   1.816   0.240  0.2454 -0.5240  0.2567
  206poe    c31 2472   4.412   1.758   0.121  0.1111 -0.6728  0.3823
  207poe    c31 2473   1.507   5.796   5.688  0.0244  0.5125 -0.1118
  207poe     o2 2474   1.528   5.928   5.644  1.0097  0.2869 -0.3388
  207poe    c23 2475   1.448   5.965   5.534  0.9412 -0.1359 -0.4315
  207poe    c23 2476   1.431   6.117   5.518 -0.2738 -0.2051  0.0422
  207poe     o2 2477   1.567   6.150   5.537 -0.0849 -0.6798 -0.4489
  207poe    c23 2478   1.599   6.282   5.498  0.0281 -0.7264 -0.5142
  207poe    c23 2479   1.753   6.287   5.511  0.0110 -0.6568 -0.3335
  207poe     o2 2480   1.779   6.204   5.622 -0.2116  0.4394  0.5571
  207poe    c23 2481   1.910   6.207   5.675  0.0325  0.3800 -0.0355
  207poe    c23 2482   1.929   6.059   5.712  0.1467  0.5436  0.5674
  207poe     o2 2483   1.809   6.006   5.765  0.0725  0.0347 -0.1035
  207poe    c31 2484   1.830   5.905   5.861 -0.0822 -0.1308 -0.2431
  208poe    c31 2485   4.964   4.802   0.885 -0.4544 -0.0432  0.0753
  208poe     o2 2486   4.903   4.825   0.760  0.4479  0.0763 -0.3558
  208poe    c23 2487   4.950   4.944   0.700 -0.1064  0.1120 -0.7298
  208poe    c23 2488   4.858   4.990   0.586 -0.1297  0.2356 -0.6603
  208poe     o2 2489   4.818   4.867   0.530  0.4086 -0.3199  0.1579
  208poe    c23 2490   4.760   4.900   0.406  0.2455 -0.6739  0.1417
  208poe    c23 2491   4.642   4.801   0.390  0.2342 -0.5726 -0.4441
  208poe     o2 2492   4.685   4.671   0.422  0.1631 -0.3012  0.8034
  208poe    c23 2493   4.583   4.592   0.480  0.2310 -0.8658  0.1598
  208poe    c23 2494   4.635   4.517   0.604  0.4342 -0.1512  0.5141
  208poe     o2 2495   4.692   4.612   0.690  0.0120  0.2706  0.3312
  208poe    c31 2496   4.690   4.556   0.819  0.3215 -0.4683  0.0194
  209poe    c31 2497   1.218   3.164   4.389  0.2684  0.5563 -0.1232
  209poe     o2 2498   1.303   3.150   4.278  0.0752 -0.2344 -0.1826
  209poe    c23 2499   1.348   3.281   4.252  0.1290 -0.2251 -0.0447
  209poe    c23 2500   1.424   3.297   4.119  0.1391  0.0748 -0.0047
  209poe     o2 2501   1.507   3.185   4.098 -0.5677 -0.4088 -0.2590
  209poe    c23 2502   1.583   3.191   3.979 -0.6488 -0.3198 -0.3069
  209poe    c23 2503   1.654   3.055   3.971  1.2063  0.5332  0.9417
  209poe     o2 2504   1.574   2.968   4.047  0.2419  0.1874 -0.4193
  209poe    c23 2505   1.647   2.855   4.091 -0.1628  0.1093  0.0613
  209poe    c23 2506   1.675   2.882   4.239 -0.1084 -0.1522  0.1002
  209poe     o2 2507   1.562   2.942   4.299  0.3706  0.4263  0.4510
  209poe    c31 2508   1.579   2.946   4.439  0.0955 -0.0556  0.5030
  210poe    c31 2509   5.590   1.976   3.712 -0.0527 -0.6770  0.2638
  210poe     o2 2510   5.648   2.067   3.621 -0.1559 -0.3979  0.4738
  210poe    c23 2511   5.614   2.193   3.674  0.4873 -0.2349  0.5060
  210poe    c23 2512   5.729   2.285   3.628 -0.0473  0.1839 -0.0029
  210poe     o2 2513   5.747   2.277   3.488  0.0860  0.4362  0.0007
  210poe    c23 2514   5.850   2.363   3.445  0.4130 -0.3314 -0.7697
  210poe    c23 2515   5.844   2.340   3.293 -0.6999 -0.4990 -0.7041
  210poe     o2 2516   5.838   2.199   3.280  0.6327 -0.6056 -0.3190
  210poe    c23 2517   5.761   2.157   3.169 -0.2319  0.4828 -0.1516
  210poe    c23 2518   5.703   2.015   3.172 -0.2466  0.4944  0.1285
  210poe     o2 2519   5.656   2.006   3.304 -0.0460 -0.1117  0.1624
  210poe    c31 2520   5.602   1.876   3.293  0.0471 -0.1455  0.1052
  211poe    c31 2521   3.651   4.019   0.641  0.6529 -0.8424  0.3466
  211poe     o2 2522   3.770   3.960   0.593  0.9467  0.1392 -0.1618
  211poe    c23 2523   3.880   4.042   0.625  0.8671 -0.0136  0.5318
  211poe    c23 2524   4.012   3.968   0.597  0.6100  0.0319 -0.8990
  211poe     o2 2525   3.982   3.847   0.663  0.3753  0.7872  0.4084
  211poe    c23 2526   4.075   3.742   0.677 -0.6595 -0.2141 -0.0295
  211poe    c23 2527   4.004   3.633   0.760 -0.2882 -0.2444  0.2529
  211poe     o2 2528   3.873   3.642   0.708 -0.1759  0.2216  0.0492
  211poe    c23 2529   3.787   3.576   0.796  0.2625 -0.3688  0.0394
  211poe    c23 2530   3.651   3.557   0.727  0.1553  0.3882  0.0324
  211poe     o2 2531   3.622   3.681   0.668  0.2599  0.1095 -0.6235
  211poe    c31 2532   3.490   3.680   0.617 -0.2730  0.3408  0.6895
  212poe    c31 2533   3.481   1.622   3.792  0.2234  0.5223  0.1033
  212poe     o2 2534   3.533   1.636   3.662 -0.5850 -0.3712 -0.3323
  212poe    c23 2535   3.473   1.738   3.585  0.4619  0.7253  0.2632
  212poe    c23 2536   3.474   1.710   3.434  0.0346 -0.6101  0.4918
  212poe     o2 2537   3.608   1.666   3.428  0.1902 -0.0676 -0.1368
  212poe    c23 2538   3.662   1.637   3.301 -0.3068 -0.0064 -0.3628
  212poe    c23 2539   3.807   1.591   3.324 -0.3590 -0.0837 -0.1944
  212poe     o2 2540   3.816   1.534   3.453  0.7213  0.4758 -0.0100
  212poe    c23 2541   3.921   1.442   3.469  0.7553  0.3697 -0.8133
  212poe    c23 2542   3.941   1.399   3.615 -0.4567 -0.2333 -0.8190
  212poe     o2 2543   3.816   1.417   3.678 -0.0931 -0.1913 -0.0999
  212poe    c31 2544   3.816   1.376   3.813  0.3282 -0.0344 -0.0498
  213poe    c31 2545   4.394   2.751   1.200  0.1869  0.3926  0.1503
  213poe     o2 2546   4.493   2.804   1.285  0.3137  0.3036  0.0576
  213poe    c23 2547   4.429   2.916   1.342 -0.1894 -0.0287  0.1432
  213poe    c23 2548   4.519   3.009   1.425  0.0753 -0.4700  0.3582
  213poe     o2 2549   4.594   2.935   1.517  0.4987 -0.6335 -0.1134
  213poe    c23 2550   4.719   2.985   1.560  0.2628  0.3130 -0.5157
  213poe    c23 2551   4.772   2.860   1.632  0.0671  0.4834 -0.0661
  213poe     o2 2552   4.765   2.748   1.546 -0.2469  0.1534  0.3821
  213poe    c23 2553   4.744   2.629   1.619 -0.1518  0.2813  0.6179
  213poe    c23 2554   4.707   2.511   1.527 -0.0814  0.7021  0.0381
  213poe     o2 2555   4.647   2.573   1.416 -0.3861 -0.2200 -0.3192
  213poe    c31 2556   4.625   2.483   1.309  0.2562 -0.0492 -0.5948
  214poe    c31 2557   3.281   4.933   2.870 -0.1758 -0.2121 -0.6370
  214poe     o2 2558   3.206   4.869   2.769  0.0809 -0.9688 -0.3534
  214poe    c23 2559   3.113   4.952   2.703 -0.0226 -0.1412  0.8051
  214poe    c23 2560   2.969   4.917   2.743 -0.2096 -0.0565  0.2105
  214poe     o2 2561   2.980   4.776   2.746  0.6940 -0.0160 -0.7264
  214poe    c23 2562   2.921   4.730   2.865  0.4331 -0.3432 -0.9806
  214poe    c23 2563   2.947   4.579   2.882  0.1437 -0.2604  0.3828
  214poe     o2 2564   3.077   4.572   2.827 -0.0985  0.3288 -0.2925
  214poe    c23 2565   3.161   4.462   2.855  0.0574  0.4448 -0.3073
  214poe    c23 2566   3.267   4.460   2.743  0.1133 -0.5201 -0.2442
  214poe     o2 2567   3.296   4.595   2.713  0.4523 -0.6100 -0.3247
  214poe    c31 2568   3.394   4.602   2.612 -0.0327  0.1799 -0.7516
  215poe    c31 2569   5.426   6.162   2.107  0.6408 -0.0892  0.0415
  215poe     o2 2570   5.393   6.269   2.192 -0.6125 -0.2852 -0.1787
  215poe    c23 2571   5.263   6.241   2.237 -0.6605  0.7276  0.3582
  215poe    c23 2572   5.237   6.322   2.365  0.2487  0.1740  0.9045
  215poe     o2 2573   5.277   6.449   2.320  0.5795 -0.2540 -0.0253
  215poe    c23 2574   5.276   6.559   2.408 -0.3481  0.0936 -0.4678
  215poe    c23 2575   5.402   6.542   2.494 -0.1936  0.0512 -0.7030
  215poe     o2 2576   5.506   6.523   2.400  0.1337 -0.1936 -0.2926
  215poe    c23 2577   5.638   6.513   2.450 -0.1693 -0.8025  0.4048
  215poe    c23 2578   5.731   6.479   2.333  0.0894 -0.4613  0.5093
  215poe     o2 2579   5.664   6.386   2.250 -0.1264 -0.3794  0.5924
  215poe    c31 2580   5.761   6.325   2.168 -0.1179  0.5210 -0.0946
  216poe    c31 2581   5.471   0.488   4.036  0.5025 -0.0331 -0.0378
  216poe     o2 2582   5.465   0.627   4.011 -0.4940 -0.1309 -0.3959
  216poe    c23 2583   5.393   0.690   4.115 -0.2636 -0.3034 -0.1311
  216poe    c23 2584   5.333   0.822   4.063  0.2939  0.0059  0.0016
  216poe     o2 2585   5.418   0.908   3.990  0.5909 -0.1121  0.2089
  216poe    c23 2586   5.467   1.010   4.074 -0.1751  0.3457  0.1035
  216poe    c23 2587   5.600   1.052   4.009 -0.0710 -0.1051  0.0249
  216poe     o2 2588   5.640   0.926   3.961 -0.1081 -0.2233  0.2986
  216poe    c23 2589   5.778   0.925   3.929 -0.0129 -0.3188  0.7071
  216poe    c23 2590   5.816   0.776   3.942  0.5560 -0.2780 -0.3542
  216poe     o2 2591   5.723   0.706   3.863  0.0088 -0.0566  0.0873
  216poe    c31 2592   5.775   0.575   3.869  0.1933 -0.0027 -0.2926
  217poe    c31 2593   2.469   2.114   4.265 -0.2508 -0.0366  0.5078
  217poe     o2 2594   2.421   2.234   4.209  0.0617  0.1840  0.7092
  217poe    c23 2595   2.293   2.205   4.158  0.5538 -0.2221 -0.3204
  217poe    c23 2596   2.274   2.245   4.010 -0.0910  0.1490 -0.1408
  217poe     o2 2597   2.360   2.181   3.918 -0.0768  0.4795 -0.3570
  217poe    c23 2598   2.293   2.078   3.850  0.3516  0.0175 -0.0838
  217poe    c23 2599   2.347   2.032   3.714  0.7209  0.0467  0.0519
  217poe     o2 2600   2.371   2.125   3.610  0.2546  0.3652  0.2233
  217poe    c23 2601   2.342   2.078   3.480  0.8900 -0.4969  0.3829
  217poe    c23 2602   2.324   2.193   3.380  0.1261 -0.2779  0.7686
  217poe     o2 2603   2.439   2.273   3.399 -0.1837  0.3487  0.0388
  217poe    c31 2604   2.467   2.358   3.289  0.7508  0.3955  0.3079
  218poe    c31 2605   6.676   0.447   6.788 -0.5620 -0.3496 -0.8686
  218poe     o2 2606   6.673   0.306   6.799 -1.0325 -0.2341  0.7000
  218poe    c23 2607   6.542   0.256   6.808 -1.1209 -0.0848  0.2666
  218poe    c23 2608   6.569   0.105   6.818  0.3509  0.1810  0.4791
  218poe     o2 2609   6.635   0.070   6.699 -0.0072  0.2005  0.2742
  218poe    c23 2610   6.705  -0.050   6.679 -0.3204  0.0926 -0.2072
  218poe    c23 2611   6.799  -0.029   6.559 -0.2230 -0.1526 -0.1770
  218poe     o2 2612   6.871   0.092   6.569 -0.1727 -0.1827 -0.1761
  218poe    c23 2613   6.916   0.145   6.447  0.2453 -0.3395 -0.0900
  218poe    c23 2614   6.988   0.273   6.496  0.1783 -0.1890 -0.3831
  218poe     o2 2615   6.882   0.351   6.547  0.3363  0.2765 -0.7554
  218poe    c31 2616   6.933   0.479   6.576 -0.1199  0.2122  0.4056
  219poe    c31 2617   6.466   4.613   0.082  0.2817 -1.0072 -0.3297
  219poe     o2 2618   6.483   4.717  -0.012  0.7105 -0.2458  0.5800
  219poe    c23 2619   6.565   4.694  -0.124  0.6976  0.5358  0.4043
  219poe    c23 2620   6.716   4.680  -0.097  0.6780  0.2346  0.3584
  219poe     o2 2621   6.741   4.562  -0.025 -0.0907  0.6123  1.2624
  219poe    c23 2622   6.871   4.563   0.029  0.2565 -0.3671  0.4932
  219poe    c23 2623   6.896   4.446   0.125  0.3602 -0.7021  0.0592
  219poe     o2 2624   6.880   4.316   0.073  0.4663 -0.5407 -0.3768
  219poe    c23 2625   6.900   4.233   0.185 -0.1530  0.0617  0.1855
  219poe    c23 2626   6.910   4.090   0.129 -0.0562  0.0512  0.2283
  219poe     o2 2627   6.946   4.086  -0.008 -0.0018 -0.3489  0.2533
  219poe    c31 2628   6.998   3.962  -0.052  1.1384  0.0419  0.4675
  220poe    c31 2629   0.176   4.238   5.605 -0.0434 -0.3485  0.9379
  220poe     o2 2630   0.235   4.110   5.604  0.9393  0.0987 -0.1506
  220poe    c23 2631   0.264   4.069   5.735 -0.7762 -0.4712  0.0639
  220poe    c23 2632   0.344   3.937   5.731 -0.1896 -0.1386  0.6668
  220poe     o2 2633   0.463   3.957   5.656 -0.5513 -0.2991  0.0412
  220poe    c23 2634   0.568   3.866   5.680 -0.6979 -0.8054 -1.1645
  220poe    c23 2635   0.672   3.909   5.576  0.3963  0.0362  0.2449
  220poe     o2 2636   0.606   3.957   5.461  0.6741  0.7170  0.3598
  220poe    c23 2637   0.673   4.030   5.361  0.3126  0.6271  0.0479
  220poe    c23 2638   0.572   4.101   5.269  0.0068  0.3686  0.1816
  220poe     o2 2639   0.453   4.106   5.344 -0.1334  0.3561 -0.0400
  220poe    c31 2640   0.351   4.169   5.270  0.4245  0.5204 -0.6766
  221poe    c31 2641   3.909   5.516   0.979  0.4872 -0.2930  0.5488
  221poe     o2 2642   3.919   5.649   0.933  0.0310 -0.2394  0.6020
  221poe    c23 2643   3.815   5.678   0.842  0.6508 -0.3111 -0.1454
  221poe    c23 2644   3.817   5.816   0.775 -0.1802 -0.2804 -0.1191
  221poe     o2 2645   3.780   5.924   0.858 -0.0676 -0.2586 -0.0965
  221poe    c23 2646   3.803   6.051   0.800 -0.7811 -0.4515 -0.8332
  221poe    c23 2647   3.732   6.159   0.883  0.0169 -0.3786 -0.2281
  221poe     o2 2648   3.807   6.161   1.002  0.1169 -0.1844 -0.2938
  221poe    c23 2649   3.770   6.277   1.073  0.1179 -0.1404 -0.3657
  221poe    c23 2650   3.765   6.231   1.220 -0.3413 -0.3862 -0.4567
  221poe     o2 2651   3.722   6.097   1.214 -0.1807 -0.4533 -0.1305
  221poe    c31 2652   3.699   6.066   1.350 -0.3893  0.3611  0.0209
  222poe    c31 2653   4.126   0.444   4.275 -0.2197  0.3579  0.2573
  222poe     o2 2654   4.152   0.560   4.350  0.1204  0.2335  0.3333
  222poe    c23 2655   4.209   0.520   4.473  0.0117 -0.3201  0.2054
  222poe    c23 2656   4.243   0.645   4.557  0.6021 -0.3473  0.0072
  222poe     o2 2657   4.279   0.751   4.471 -0.4996  0.0541  0.0170
  222poe    c23 2658   4.317   0.861   4.550 -0.1089  0.1731 -0.3296
  222poe    c23 2659   4.329   0.970   4.441 -0.0416  0.3114 -0.1843
  222poe     o2 2660   4.259   0.921   4.329 -0.7049  0.2052  0.2679
  222poe    c23 2661   4.329   0.967   4.216  0.1667 -0.4329  0.5403
  222poe    c23 2662   4.271   0.880   4.103 -0.6610  0.0223  0.6093
  222poe     o2 2663   4.262   0.749   4.156 -0.3729 -0.3439 -0.2130
  222poe    c31 2664   4.329   0.677   4.056  0.3223 -0.2649  0.1897
  223poe    c31 2665   5.166   1.141   1.014 -0.7669 -0.2521 -0.5715
  223poe     o2 2666   5.236   1.059   0.923  0.3241 -0.0089  0.0355
  223poe    c23 2667   5.322   0.967   0.986 -0.2128 -0.1735  0.5418
  223poe    c23 2668   5.414   0.912   0.875 -0.7590  0.1127 -0.0557
  223poe     o2 2669   5.338   0.911   0.755 -0.5318 -0.4323 -0.1940
  223poe    c23 2670   5.394   0.832   0.652  0.1790  0.1504 -0.2597
  223poe    c23 2671   5.278   0.818   0.552 -0.0361 -0.8261  0.1131
  223poe     o2 2672   5.208   0.940   0.558  0.5741 -0.4349 -0.5093
  223poe    c23 2673   5.112   0.945   0.454  0.1428  0.2251 -0.0835
  223poe    c23 2674   5.071   1.085   0.405  0.4555  0.4695  0.3416
  223poe     o2 2675   5.035   1.108   0.271 -0.6057 -0.4914  0.4474
  223poe    c31 2676   5.031   1.249   0.261  0.4022 -0.5112 -0.3736
  224poe    c31 2677   3.758   3.943   6.797  0.2233  0.8908 -0.0078
  224poe     o2 2678   3.790   4.076   6.762 -0.1423  0.8783 -0.3936
  224poe    c23 2679   3.884   4.069   6.657 -0.0144 -0.3239 -0.2045
  224poe    c23 2680   3.926   4.210   6.611  0.8929 -0.4534  0.2033
  224poe     o2 2681   3.963   4.294   6.718  0.1961  0.3743 -0.1966
  224poe    c23 2682   3.958   4.433   6.695  0.4050  0.4890  0.4091
  224poe    c23 2683   3.900   4.511   6.814  0.1015  0.2813  0.4006
  224poe     o2 2684   3.829   4.410   6.882 -0.0393  0.1124  0.0081
  224poe    c23 2685   3.796   4.464   7.008  0.1956  0.0683  0.0894
  224poe    c23 2686   3.732   4.344   7.079  0.1239  0.2969  0.4143
  224poe     o2 2687   3.794   4.220   7.049 -1.0706 -0.1675 -0.1861
  224poe    c31 2688   3.753   4.121   7.140 -0.4507  0.3196  0.6332
  225poe    c31 2689   0.489   3.306   3.421  0.3133  0.0862 -0.4018
  225poe     o2 2690   0.381   3.217   3.423  0.1969  0.2341  0.2974
  225poe    c23 2691   0.403   3.130   3.532  0.2000 -0.4286 -0.2255
  225poe    c23 2692   0.293   3.022   3.535 -0.3321  0.1192  0.5168
  225poe     o2 2693   0.240   3.009   3.405 -0.7360  0.6918  0.6225
  225poe    c23 2694   0.140   2.909   3.396  0.0984 -0.1363  0.3683
  225poe    c23 2695   0.141   2.871   3.247 -0.1417  0.7981  0.1206
  225poe     o2 2696   0.129   2.991   3.174 -0.3064  0.6573 -0.0858
  225poe    c23 2697   0.198   2.998   3.052  0.4425 -0.0491  0.2849
  225poe    c23 2698   0.216   3.149   3.024  0.9479 -0.2619 -0.5800
  225poe     o2 2699   0.274   3.197   3.143  0.4338  0.2408 -0.5312
  225poe    c31 2700   0.276   3.335   3.114 -0.0412  0.1760 -0.8871
  226poe    c31 2701   4.230   1.226   1.667 -0.0477 -0.1024 -0.4100
  226poe     o2 2702   4.357   1.283   1.683  0.0213 -0.4045  0.1408
  226poe    c23 2703   4.366   1.385   1.781 -0.5407 -0.2775  0.0589
  226poe    c23 2704   4.490   1.355   1.866 -0.5904 -0.0772  0.2032
  226poe     o2 2705   4.583   1.311   1.769  0.1449  0.2158  0.7604
  226poe    c23 2706   4.713   1.283   1.814  0.4039  0.3946  0.1453
  226poe    c23 2707   4.788   1.217   1.697  0.4849  0.7959 -0.0316
  226poe     o2 2708   4.696   1.139   1.622  0.4242  0.9562 -0.1237
  226poe    c23 2709   4.731   1.064   1.508 -0.1018 -0.0766  0.3789
  226poe    c23 2710   4.605   0.982   1.478  0.1315 -0.2104 -0.2510
  226poe     o2 2711   4.494   1.068   1.462  0.6751  0.3960 -0.8236
  226poe    c31 2712   4.391   1.005   1.390  0.8097 -0.8239  0.0084
  227poe    c31 2713   2.812   1.747   2.154 -0.1111  0.1481 -0.1586
  227poe     o2 2714   2.789   1.786   2.287  0.9402 -0.0232  0.0763
  227poe    c23 2715   2.802   1.926   2.299 -0.4901  0.1420 -0.1404
  227poe    c23 2716   2.763   1.940   2.447 -0.3321  0.2431 -0.1075
  227poe     o2 2717   2.651   1.856   2.460 -0.1245  0.0316  0.3351
  227poe    c23 2718   2.592   1.873   2.587 -0.1295  0.2366  0.3047
  227poe    c23 2719   2.455   1.804   2.575 -0.1078  0.3813 -0.7991
  227poe     o2 2720   2.471   1.683   2.504  0.2691  0.0542 -0.1584
  227poe    c23 2721   2.361   1.688   2.416 -0.2025 -0.3428  0.3962
  227poe    c23 2722   2.388   1.595   2.296  0.3162  0.1931  0.0882
  227poe     o2 2723   2.507   1.647   2.241  0.5793 -0.2345  0.2449
  227poe    c31 2724   2.491   1.596   2.111 -1.2276  0.2453  0.2403
  228poe    c31 2725   1.536   4.484   5.349  0.1503  0.1968 -0.0663
  228poe     o2 2726   1.496   4.615   5.314  0.5818  0.2184 -0.4983
  228poe    c23 2727   1.592   4.671   5.228  0.6217 -0.0399 -0.6221
  228poe    c23 2728   1.568   4.817   5.184  0.9211  0.1760 -0.0782
  228poe     o2 2729   1.507   4.883   5.292  0.0477 -0.4864 -0.1461
  228poe    c23 2730   1.429   4.991   5.246 -0.1839 -0.7516 -0.3763
  228poe    c23 2731   1.337   5.029   5.363 -0.1694 -0.4634 -0.4580
  228poe     o2 2732   1.272   4.910   5.402  0.7450 -0.9370 -0.3524
  228poe    c23 2733   1.147   4.884   5.342  0.1971 -0.2882  0.4889
  228poe    c23 2734   1.113   4.738   5.376 -0.0534 -0.1263  0.9385
  228poe     o2 2735   1.224   4.652   5.375 -0.2026 -0.3180  0.5525
  228poe    c31 2736   1.188   4.518   5.347 -0.3124 -0.1079 -0.3506
  229poe    c31 2737   0.756   2.655   6.078  0.3999 -0.4388  0.5027
  229poe     o2 2738   0.715   2.589   6.196 -1.0409 -1.0120 -0.2864
  229poe    c23 2739   0.825   2.520   6.252 -0.7216 -0.2841 -0.0045
  229poe    c23 2740   0.769   2.463   6.384  0.3769 -0.1687  0.5182
  229poe     o2 2741   0.644   2.403   6.362  0.0573  0.5263  0.4304
  229poe    c23 2742   0.619   2.296   6.450  0.3317 -0.0339 -0.1616
  229poe    c23 2743   0.478   2.236   6.445  0.2941  0.0148  0.2429
  229poe     o2 2744   0.451   2.181   6.318 -0.7169  0.1011  0.4127
  229poe    c23 2745   0.315   2.155   6.291 -0.7777  0.8650 -0.0660
  229poe    c23 2746   0.283   2.104   6.149 -0.2403  0.6368 -0.1077
  229poe     o2 2747   0.300   2.205   6.052  0.0894  0.3985 -0.3021
  229poe    c31 2748   0.177   2.213   5.984  0.1812  0.0001 -0.5153
  230poe    c31 2749   5.754   4.524   1.027  0.0065  0.6172 -0.1847
  230poe     o2 2750   5.864   4.497   0.943 -0.3331 -0.1173 -0.4050
  230poe    c23 2751   5.979   4.557   1.000 -0.2786 -0.5549 -0.0529
  230poe    c23 2752   6.104   4.551   0.910 -0.2036 -0.0629  0.0179
  230poe     o2 2753   6.131   4.426   0.850  0.5843  0.1366 -0.0477
  230poe    c23 2754   6.251   4.414   0.776  0.5824 -0.2659  0.0143
  230poe    c23 2755   6.221   4.290   0.690 -0.0747  0.1854 -0.4145
  230poe     o2 2756   6.082   4.274   0.672 -0.1054  0.1309 -0.1261
  230poe    c23 2757   6.036   4.329   0.551 -0.1425  0.9134  0.2380
  230poe    c23 2758   5.887   4.291   0.560  0.0289  0.3008  0.5164
  230poe     o2 2759   5.851   4.343   0.686 -0.0510  0.6812  0.3351
  230poe    c31 2760   5.718   4.303   0.709 -0.0309  0.4670  0.0802
  231poe    c31 2761   0.250   2.123   5.394  0.2488 -0.0505  0.1454
  231poe     o2 2762   0.198   2.132   5.263 -0.0087  0.8386  0.3018
  231poe    c23 2763   0.231   2.256   5.206  0.1712  0.5448 -0.2459
  231poe    c23 2764   0.272   2.222   5.062 -0.2378 -0.0258 -0.2274
  231poe     o2 2765   0.156   2.188   4.988 -0.2216 -0.2800 -0.1390
  231poe    c23 2766   0.181   2.186   4.850  0.0893 -0.5282 -0.0794
  231poe    c23 2767   0.043   2.180   4.783 -0.0847 -0.5321  0.2784
  231poe     o2 2768  -0.011   2.076   4.862 -0.0550 -0.7203  0.0526
  231poe    c23 2769  -0.106   2.009   4.782 -1.3934  0.6533  0.4388
  231poe    c23 2770  -0.176   1.898   4.863 -0.5390 -0.3743 -0.2046
  231poe     o2 2771  -0.103   1.785   4.908 -0.2906  0.0820  0.5625
  231poe    c31 2772  -0.187   1.685   4.961  0.5458 -0.7334  0.3631
  232poe    c31 2773   5.549   5.082   5.118 -0.1340 -0.1637  0.1346
  232poe     o2 2774   5.420   5.080   5.174 -0.5437  0.4711 -0.7764
  232poe    c23 2775   5.365   5.210   5.171 -0.7140  0.4021 -0.6789
  232poe    c23 2776   5.274   5.222   5.048 -0.6520  0.8455 -0.6841
  232poe     o2 2777   5.169   5.128   5.060  0.1088  0.1236  0.4301
  232poe    c23 2778   5.099   5.127   4.938  0.6247  0.0239  0.1319
  232poe    c23 2779   5.049   4.982   4.931 -0.3942  0.3701  0.1157
  232poe     o2 2780   5.070   4.914   5.052  0.2965  0.1946 -0.0964
  232poe    c23 2781   5.070   4.773   5.041 -0.7420  0.1418  0.4077
  232poe    c23 2782   5.152   4.719   5.160  0.6446 -0.1202 -0.6401
  232poe     o2 2783   5.268   4.799   5.165  0.0240  0.7771 -0.1267
  232poe    c31 2784   5.352   4.722   5.248 -0.5097  0.4410  0.1061
  233poe    c31 2785   2.800   0.970   2.063  0.2973  1.1195  0.1335
  233poe     o2 2786   2.853   0.903   2.175 -0.1079  0.6699  0.0637
  233poe    c23 2787   2.765   0.925   2.284 -0.6864  0.6069 -0.3865
  233poe    c23 2788   2.851   0.997   2.389  0.3982 -0.1894 -0.7057
  233poe     o2 2789   2.954   0.902   2.407 -0.2354 -0.7685 -0.0442
  233poe    c23 2790   3.057   0.932   2.498 -0.1014 -0.1689 -0.3876
  233poe    c23 2791   3.157   0.822   2.458 -0.1019 -0.4180  0.2901
  233poe     o2 2792   3.157   0.812   2.318 -0.5831 -0.6732  0.3057
  233poe    c23 2793   3.245   0.712   2.272 -0.4121 -0.2583 -0.2815
  233poe    c23 2794   3.236   0.731   2.120  0.0384 -0.0999 -0.2908
  233poe     o2 2795   3.104   0.762   2.082  0.0530  0.0983 -0.1813
  233poe    c31 2796   3.122   0.827   1.958 -0.4192 -0.2637 -0.4483
  234poe    c31 2797   3.204   3.511   1.049  0.5843  0.3192 -0.4675
  234poe     o2 2798   3.161   3.644   1.064 -0.1874  0.0409 -0.1388
  234poe    c23 2799   3.255   3.734   1.010 -0.2483  0.1516 -0.0616
  234poe    c23 2800   3.195   3.874   0.985  0.4084  0.4594  0.0773
  234poe     o2 2801   3.136   3.907   1.109 -0.3938 -0.7597  0.0394
  234poe    c23 2802   3.042   4.008   1.083  0.4625  0.1153  0.2611
  234poe    c23 2803   2.956   4.026   1.209 -0.1324 -0.1965 -0.0939
  234poe     o2 2804   2.922   3.896   1.251 -0.1069 -0.3449 -0.5305
  234poe    c23 2805   2.936   3.877   1.390  0.1555 -0.1262 -0.5280
  234poe    c23 2806   2.912   3.729   1.423 -0.4467 -0.0492 -0.6062
  234poe     o2 2807   3.002   3.657   1.342  0.1696 -0.0403  0.0624
  234poe    c31 2808   2.963   3.523   1.320  0.1956 -0.0110 -0.1624
  235poe    c31 2809   4.742   6.404   5.277 -0.7076 -0.4174  0.5860
  235poe     o2 2810   4.878   6.368   5.287 -0.6575 -0.0438  1.3312
  235poe    c23 2811   4.894   6.228   5.287 -0.2073 -0.0070 -0.2264
  235poe    c23 2812   5.031   6.194   5.224  0.0253 -0.3035  0.4212
  235poe     o2 2813   5.122   6.280   5.289  0.2579 -0.5294  0.3937
  235poe    c23 2814   5.229   6.316   5.204  0.1683 -0.5970  0.2503
  235poe    c23 2815   5.272   6.439   5.287 -0.1221 -0.0499 -0.4079
  235poe     o2 2816   5.160   6.521   5.313 -0.0385  0.0233 -0.2793
  235poe    c23 2817   5.205   6.648   5.357  0.3305 -0.3589  0.4623
  235poe    c23 2818   5.069   6.720   5.364  0.5211  0.0100  0.3884
  235poe     o2 2819   4.970   6.642   5.428  0.2524 -0.6562 -0.8114
  235poe    c31 2820   4.854   6.719   5.448  0.5865 -0.2539 -0.4037
  236poe    c31 2821   2.579   0.155   3.312 -0.3149 -0.7493 -1.1861
  236poe     o2 2822   2.454   0.213   3.343  0.0700 -0.5744  0.0729
  236poe    c23 2823   2.461   0.323   3.431  0.1942 -0.4990 -0.0312
  236poe    c23 2824   2.452   0.273   3.576  0.8968 -0.2796  0.0881
  236poe     o2 2825   2.338   0.192   3.564  0.4083  0.4434 -0.2237
  236poe    c23 2826   2.253   0.179   3.676  0.2717  0.0212 -0.3724
  236poe    c23 2827   2.163   0.064   3.627  0.1996 -0.0435 -0.0923
  236poe     o2 2828   2.133   0.089   3.492  0.3282 -0.0714 -0.1263
  236poe    c23 2829   2.074  -0.027   3.439  0.1148 -0.0006 -0.0414
  236poe    c23 2830   2.112  -0.015   3.290  0.4505 -0.2139  0.0268
  236poe     o2 2831   2.248   0.019   3.275  0.4070  0.0165  0.1477
  236poe    c31 2832   2.304  -0.097   3.218  0.1685 -0.1535  0.2576
  237poe    c31 2833   0.125   4.789   1.620 -0.7623  0.1763  0.3974
  237poe     o2 2834   0.049   4.671   1.602 -0.2097 -0.1211 -0.0191
  237poe    c23 2835  -0.078   4.719   1.566  0.2340  0.7180 -0.4880
  237poe    c23 2836  -0.104   4.723   1.414  0.5263  1.0670 -0.5317
  237poe     o2 2837  -0.232   4.777   1.392 -0.0270 -0.2450 -0.6440
  237poe    c23 2838  -0.260   4.783   1.254  0.0870 -0.8943 -0.6971
  237poe    c23 2839  -0.409   4.812   1.230  0.0617 -0.2910  0.1458
  237poe     o2 2840  -0.434   4.932   1.301 -0.0743 -0.4335  0.3373
  237poe    c23 2841  -0.564   4.985   1.295  0.0722 -0.0763  0.3249
  237poe    c23 2842  -0.573   5.083   1.414  0.3779  0.5854 -0.1897
  237poe     o2 2843  -0.518   5.029   1.532 -0.0996 -0.8528 -0.6028
  237poe    c31 2844  -0.629   5.021   1.620  0.5017  0.3013  0.2832
  238poe    c31 2845   0.367   4.598   2.881 -0.0724  0.4965  0.1589
  238poe     o2 2846   0.443   4.581   2.764 -0.5443  0.5430 -0.1581
  238poe    c23 2847   0.408   4.464   2.693 -0.2079  0.2922  0.0890
  238poe    c23 2848   0.483   4.452   2.559  0.4011  0.0984  0.4415
  238poe     o2 2849   0.612   4.396   2.564  0.5741  0.4575 -0.0539
  238poe    c23 2850   0.652   4.372   2.430  0.1352 -0.0220 -0.1010
  238poe    c23 2851   0.761   4.265   2.421 -0.0810 -0.2896  0.3822
  238poe     o2 2852   0.693   4.142   2.435 -0.5628 -0.0348  0.2814
  238poe    c23 2853   0.789   4.039   2.426 -0.8771 -0.3623  0.6551
  238poe    c23 2854   0.714   3.908   2.400 -0.8688 -0.1116 -0.6806
  238poe     o2 2855   0.579   3.926   2.439 -0.6100 -0.0835  0.2063
  238poe    c31 2856   0.514   3.801   2.447 -0.2048 -0.3609 -0.6810
  239poe    c31 2857   5.528   5.172   6.761 -0.0145  0.2484  0.2366
  239poe     o2 2858   5.583   5.271   6.844  0.5380  0.0323  0.1300
  239poe    c23 2859   5.642   5.372   6.766 -0.1373 -0.0806 -0.5426
  239poe    c23 2860   5.692   5.487   6.856  0.4152 -1.0885  0.4686
  239poe     o2 2861   5.594   5.497   6.957  0.1318 -0.4625  0.1412
  239poe    c23 2862   5.615   5.597   7.054  0.8330 -0.0258 -0.4556
  239poe    c23 2863   5.701   5.535   7.166  0.1638  0.0046  0.0757
  239poe     o2 2864   5.661   5.400   7.178  0.3028  0.0151  0.6925
  239poe    c23 2865   5.767   5.313   7.211  0.2498 -0.3748 -0.1460
  239poe    c23 2866   5.723   5.165   7.210 -0.6124 -0.1303  0.5000
  239poe     o2 2867   5.658   5.139   7.088 -0.2336  0.0622  0.2571
  239poe    c31 2868   5.653   4.999   7.074 -0.8880  0.1682 -0.6698
  240poe    c31 2869   6.230   1.202   2.146 -0.2387  0.1621  0.1332
  240poe     o2 2870   6.254   1.187   2.284  0.1071 -0.4192  0.0128
  240poe    c23 2871   6.353   1.089   2.307  1.0017  0.4133 -0.2327
  240poe    c23 2872   6.387   1.086   2.457 -0.1803  0.1747  0.0419
  240poe     o2 2873   6.271   1.137   2.519  0.0284  0.6085  0.0738
  240poe    c23 2874   6.270   1.137   2.660 -0.7965 -0.4916  0.0759
  240poe    c23 2875   6.146   1.220   2.700 -0.0564  0.8033 -0.2713
  240poe     o2 2876   6.115   1.304   2.591  0.0602  0.3481 -0.6591
  240poe    c23 2877   6.019   1.404   2.617 -0.2236 -0.0996  0.0374
  240poe    c23 2878   5.975   1.458   2.480 -0.1730  0.1067  0.1027
  240poe     o2 2879   6.025   1.372   2.380  0.0198  0.0734  0.2271
  240poe    c31 2880   5.957   1.404   2.260  0.1244  0.1867  0.1974
  241poe    c31 2881   0.316   4.620   2.129  0.1170  0.1093  0.3608
  241poe     o2 2882   0.339   4.530   2.023  0.2677  0.0518  0.4410
  241poe    c23 2883   0.466   4.550   1.966  0.2476 -0.3668  0.2516
  241poe    c23 2884   0.495   4.465   1.840  0.4729  0.8229 -0.5119
  241poe     o2 2885   0.435   4.340   1.864  0.2758  0.8356 -0.9259
  241poe    c23 2886   0.378   4.272   1.755 -0.4312  0.4087 -0.3024
  241poe    c23 2887   0.239   4.322   1.711 -0.5065 -0.1830 -0.7600
  241poe     o2 2888   0.171   4.359   1.829  0.4236 -0.1860 -0.2072
  241poe    c23 2889   0.034   4.378   1.802  0.4822  0.8301  0.1487
  241poe    c23 2890  -0.042   4.365   1.936  0.7444  0.1276  0.2357
  241poe     o2 2891   0.038   4.425   2.036  0.2855  0.2467  0.5317
  241poe    c31 2892  -0.020   4.401   2.162  0.4313 -0.1296  0.5277
  242poe    c31 2893   3.232   2.929   1.280  0.0988  0.1079 -0.4263
  242poe     o2 2894   3.152   2.869   1.181 -0.0232  0.0785 -0.3090
  242poe    c23 2895   3.136   2.734   1.221 -0.2211  0.1243 -0.2326
  242poe    c23 2896   3.084   2.654   1.101 -0.3606 -0.1764  0.0265
  242poe     o2 2897   2.973   2.724   1.051 -0.0471  0.2879 -0.0310
  242poe    c23 2898   2.852   2.651   1.040 -0.0709  0.2942  0.1804
  242poe    c23 2899   2.748   2.737   0.965 -0.3719 -0.0956  0.1497
  242poe     o2 2900   2.764   2.871   1.006  0.6622 -0.1764  0.0502
  242poe    c23 2901   2.685   2.916   1.114  0.4729 -0.6985  0.1370
  242poe    c23 2902   2.745   3.052   1.156  0.1792 -0.5431  0.0540
  242poe     o2 2903   2.886   3.047   1.157  0.1805 -0.5190 -0.0686
  242poe    c31 2904   2.928   3.172   1.206 -0.3181 -0.2314 -0.3625
  243poe    c31 2905   0.744   2.318   3.229  0.1527  0.4344  0.8634
  243poe     o2 2906   0.806   2.399   3.327  0.5086  0.4132  0.6589
  243poe    c23 2907   0.934   2.438   3.283  0.4427  0.3250  0.3886
  243poe    c23 2908   1.023   2.451   3.408  0.4615  0.1250  0.3977
  243poe     o2 2909   0.994   2.579   3.461  0.1332  0.0830  0.3206
  243poe    c23 2910   1.051   2.596   3.589  0.2577  0.6010  0.1976
  243poe    c23 2911   0.944   2.683   3.658  0.0021  0.4207  0.0312
  243poe     o2 2912   0.821   2.631   3.613  0.2278 -0.1274  0.0360
  243poe    c23 2913   0.707   2.674   3.684  0.1541 -0.7212  0.2844
  243poe    c23 2914   0.591   2.581   3.645 -0.6957  0.4741 -0.1205
  243poe     o2 2915   0.598   2.528   3.514  0.3812 -0.0748  0.1440
  243poe    c31 2916   0.494   2.440   3.476  0.4725 -0.0577 -0.1474
  244poe    c31 2917   3.416   2.006   0.007  0.2979 -0.1236  0.0496
  244poe     o2 2918   3.357   1.932   0.110  0.0115 -0.3340 -0.2630
  244poe    c23 2919   3.408   1.967   0.237 -0.3760 -0.6570 -0.0147
  244poe    c23 2920   3.361   1.850   0.325 -0.5671 -0.4676  0.1344
  244poe     o2 2921   3.245   1.798   0.265 -0.5280 -0.4934  0.0811
  244poe    c23 2922   3.169   1.738   0.367  0.2231 -0.6009  0.5778
  244poe    c23 2923   3.051   1.674   0.292 -0.0111  0.2071  0.2493
  244poe     o2 2924   3.030   1.763   0.185 -0.0865 -0.2822 -0.1448
  244poe    c23 2925   2.914   1.742   0.107 -0.5017  0.4756  0.2535
  244poe    c23 2926   2.917   1.853   0.000 -0.3196 -0.2169 -0.4768
  244poe     o2 2927   3.052   1.883  -0.025 -0.2005 -0.2937  0.0561
  244poe    c31 2928   3.060   1.976  -0.130 -0.0434  0.2878  0.5766
  245poe    c31 2929   6.159   3.650   4.020 -0.1537  0.8620 -0.2695
  245poe     o2 2930   6.061   3.563   4.071  0.6935  0.2192  0.2899
  245poe    c23 2931   6.104   3.431   4.092 -0.1507 -0.0206  0.5531
  245poe    c23 2932   5.978   3.366   4.153 -0.3891  0.2474  0.3431
  245poe     o2 2933   5.874   3.410   4.068 -0.1134  0.1220 -0.0641
  245poe    c23 2934   5.744   3.374   4.109 -0.0989  0.3965  0.2289
  245poe    c23 2935   5.639   3.438   4.018 -0.8544 -0.1317  0.7127
  245poe     o2 2936   5.630   3.577   4.040  0.4298  0.0532  0.1591
  245poe    c23 2937   5.605   3.653   3.924  0.0242 -0.1289  0.1241
  245poe    c23 2938   5.678   3.787   3.947  0.2560 -0.2116 -0.1307
  245poe     o2 2939   5.818   3.770   3.962  0.3070  0.1046 -0.2386
  245poe    c31 2940   5.875   3.899   3.967 -0.9348  0.6452  0.4105
  246poe    c31 2941   4.332   6.356   6.595  0.2534 -0.2816 -0.3200
  246poe     o2 2942   4.239   6.387   6.696  0.3743  0.1662 -0.3433
  246poe    c23 2943   4.256   6.520   6.737  0.2242 -0.0382  0.4060
  246poe    c23 2944   4.127   6.568   6.805  0.1160 -0.1976  0.3125
  246poe     o2 2945   4.081   6.453   6.873  0.1872 -0.1682  0.4110
  246poe    c23 2946   3.960   6.484   6.939  0.2831 -0.2170  0.6105
  246poe    c23 2947   3.872   6.357   6.942 -0.0361 -0.0340 -0.5214
  246poe     o2 2948   3.926   6.270   6.844  0.4838  0.1437 -0.3991
  246poe    c23 2949   3.900   6.133   6.866 -0.1603  0.3404  0.1210
  246poe    c23 2950   3.956   6.071   6.737 -0.0933  0.7764 -0.0615
  246poe     o2 2951   4.063   6.149   6.691  0.5123  0.2416  0.4297
  246poe    c31 2952   4.116   6.075   6.583  0.1865  0.4824  0.1044
  247poe    c31 2953   5.248   5.237   6.370 -0.3874  0.7619 -0.4502
  247poe     o2 2954   5.136   5.162   6.328 -0.2698  0.2589  0.1285
  247poe    c23 2955   5.121   5.037   6.392 -0.3079 -0.2492 -0.8536
  247poe    c23 2956   4.969   5.028   6.415 -0.1699  0.5454  0.4579
  247poe     o2 2957   4.905   5.069   6.296  0.6069  0.2086 -0.0851
  247poe    c23 2958   4.788   4.996   6.266  0.1982  0.5325  0.6658
  247poe    c23 2959   4.789   4.990   6.112 -0.0517 -0.2130  0.6861
  247poe     o2 2960   4.826   5.121   6.072  0.2547 -0.3932  0.3758
  247poe    c23 2961   4.847   5.133   5.933  0.5063 -0.7150  0.3823
  247poe    c23 2962   4.998   5.119   5.911  0.4391 -0.4923 -0.2411
  247poe     o2 2963   5.067   5.147   6.031  0.2683  0.1072 -0.2804
  247poe    c31 2964   5.196   5.091   6.020  0.3068  0.1560 -0.0708
  248poe    c31 2965   6.826   1.296   6.270  0.4584  0.1275  0.0886
  248poe     o2 2966   6.823   1.156   6.282  0.2347  0.1623  0.4432
  248poe    c23 2967   6.881   1.102   6.166 -0.5732 -0.2199  0.2070
  248poe    c23 2968   6.905   0.950   6.166  0.2430 -0.0989  0.5614
  248poe     o2 2969   6.773   0.914   6.200  0.2212 -0.0423  0.5376
  248poe    c23 2970   6.775   0.775   6.223  0.2989 -0.1775 -0.2686
  248poe    c23 2971   6.655   0.743   6.314  0.3492  0.5021  0.0392
  248poe     o2 2972   6.663   0.848   6.407 -0.3786  0.7905 -0.2159
  248poe    c23 2973   6.562   0.854   6.505  0.3623 -0.5462  0.6721
  248poe    c23 2974   6.596   0.976   6.594 -0.2554  0.0607  0.0943
  248poe     o2 2975   6.639   1.073   6.502  0.2564 -0.1051  0.1550
  248poe    c31 2976   6.641   1.205   6.552  0.5893 -0.1358  0.2253
  249poe    c31 2977   0.080   5.567   5.523  0.3287  0.8816  0.6100
  249poe     o2 2978   0.160   5.451   5.530 -0.4461  0.3001 -0.0477
  249poe    c23 2979   0.200   5.430   5.663  0.2588 -0.3489 -0.3536
  249poe    c23 2980   0.324   5.341   5.681  0.2957 -0.3497 -0.6088
  249poe     o2 2981   0.273   5.222   5.626 -0.6500 -0.4948  0.5311
  249poe    c23 2982   0.377   5.157   5.555 -0.9061 -0.1499 -0.1760
  249poe    c23 2983   0.343   5.116   5.411  0.2799  0.0040 -0.5091
  249poe     o2 2984   0.267   5.219   5.350  0.2469  0.0082 -0.4609
  249poe    c23 2985   0.235   5.192   5.215  0.3448  0.0444 -0.4912
  249poe    c23 2986   0.127   5.294   5.176  0.2014 -0.0427 -0.3237
  249poe     o2 2987   0.039   5.304   5.285  0.4436  0.2413 -0.1530
  249poe    c31 2988  -0.090   5.333   5.234 -0.1599 -0.2268  1.0699
  250poe    c31 2989   2.901   1.505   1.432 -0.3423  0.1607  0.7785
  250poe     o2 2990   2.932   1.631   1.377 -0.4682 -0.5258 -0.9522
  250poe    c23 2991   3.070   1.633   1.345 -0.2769 -0.4934 -0.1552
  250poe    c23 2992   3.111   1.777   1.308 -0.5071 -0.4668 -0.3104
  250poe     o2 2993   3.015   1.865   1.363  0.4847  0.1088  0.5222
  250poe    c23 2994   3.058   1.998   1.338 -0.6271  0.2980 -0.4605
  250poe    c23 2995   2.955   2.083   1.415 -0.0511  0.2412  0.3926
  250poe     o2 2996   2.848   2.001   1.456 -0.2252  0.2489 -0.0355
  250poe    c23 2997   2.728   2.058   1.409 -0.0934  0.2970 -0.3120
  250poe    c23 2998   2.632   1.938   1.422  0.1083  0.1130 -0.5075
  250poe     o2 2999   2.698   1.822   1.377 -0.4611 -0.2708 -0.3623
  250poe    c31 3000   2.615   1.708   1.372 -0.7466 -0.1122  0.5850
  251poe    c31 3001   6.166   1.889   2.324 -0.4260 -0.4805  0.3031
  251poe     o2 3002   6.117   1.957   2.210 -0.8269  0.3627  0.9692
  251poe    c23 3003   6.160   2.091   2.205  0.1050  0.0436  0.1047
  251poe    c23 3004   6.183   2.145   2.063  0.1950  0.0212  0.1105
  251poe     o2 3005   6.086   2.083   1.982  0.1449  0.5087 -0.2091
  251poe    c23 3006   6.116   2.085   1.845  0.6315  0.5774 -0.1016
  251poe    c23 3007   5.990   2.013   1.795  0.7678  0.4119 -0.2101
  251poe     o2 3008   5.958   1.904   1.879  1.0742  0.2758 -0.2688
  251poe    c23 3009   6.011   1.787   1.820 -0.6267 -0.7239  0.1300
  251poe    c23 3010   6.045   1.683   1.929  0.5157  0.2969  0.7646
  251poe     o2 3011   6.128   1.739   2.029  0.5908 -0.0096  0.8756
  251poe    c31 3012   6.185   1.634   2.102  0.0471 -0.7956  0.1880
  252poe    c31 3013   3.769   5.835   0.278 -0.1903 -0.0766 -0.2234
  252poe     o2 3014   3.906   5.828   0.245 -0.2016 -0.7598 -0.1381
  252poe    c23 3015   3.985   5.836   0.362 -0.0635  0.0002 -0.2783
  252poe    c23 3016   4.113   5.751   0.353  0.0132  0.0336  0.4504
  252poe     o2 3017   4.067   5.618   0.361  0.4831 -0.2258 -0.8828
  252poe    c23 3018   4.169   5.530   0.403 -0.0096 -0.1738  0.4791
  252poe    c23 3019   4.107   5.390   0.419  0.3554 -0.4115 -0.1422
  252poe     o2 3020   4.062   5.335   0.297 -0.0869  0.1592 -0.2418
  252poe    c23 3021   4.039   5.197   0.316 -0.0972  0.0775 -0.8341
  252poe    c23 3022   4.033   5.118   0.184  0.1161 -0.3461 -0.5928
  252poe     o2 3023   3.944   5.199   0.110 -0.1819 -0.2672 -0.1534
  252poe    c31 3024   3.912   5.134  -0.010  0.8573 -0.8467 -0.1282
  253poe    c31 3025   5.080   2.968   3.710 -0.6111 -0.4410 -1.4727
  253poe     o2 3026   5.186   2.961   3.618  0.4050 -0.0352 -0.3611
  253poe    c23 3027   5.127   2.968   3.490  0.1796  0.6237 -0.2267
  253poe    c23 3028   5.230   2.917   3.388  0.1081 -0.1954  0.0958
  253poe     o2 3029   5.348   2.981   3.433 -0.1728  0.4238 -0.0311
  253poe    c23 3030   5.468   2.922   3.389 -0.1741  0.1749  0.2949
  253poe    c23 3031   5.581   3.022   3.417 -0.0642  0.1360 -0.0051
  253poe     o2 3032   5.581   3.056   3.554 -0.4683 -0.6070  0.1814
  253poe    c23 3033   5.634   2.954   3.635  0.7183  0.1464  0.3744
  253poe    c23 3034   5.580   2.988   3.775 -0.0525  1.0849 -0.1413
  253poe     o2 3035   5.441   3.007   3.766 -0.1975 -0.0335 -0.3464
  253poe    c31 3036   5.399   3.070   3.885 -0.2212 -0.1785 -0.2775
  254poe    c31 3037   6.414   0.667   4.057 -0.0448 -0.3722 -0.6065
  254poe     o2 3038   6.353   0.697   3.934 -0.5303 -0.3137 -0.3521
  254poe    c23 3039   6.228   0.760   3.951 -0.9792 -1.2397 -0.1199
  254poe    c23 3040   6.138   0.717   3.834 -0.8755 -0.2401 -0.5745
  254poe     o2 3041   6.210   0.737   3.714  0.3624  0.0105  0.1865
  254poe    c23 3042   6.129   0.762   3.601  0.1501 -0.7577  0.1652
  254poe    c23 3043   6.049   0.651   3.531 -0.1463 -0.2377 -0.3298
  254poe     o2 3044   5.985   0.684   3.410 -0.5797  0.4073  0.0680
  254poe    c23 3045   5.910   0.572   3.368 -0.2652  0.2327 -0.0306
  254poe    c23 3046   5.843   0.604   3.233 -0.0113  0.7140 -0.0426
  254poe     o2 3047   5.921   0.552   3.129  0.0038  0.1246  0.2609
  254poe    c31 3048   5.859   0.571   3.004 -0.0329  0.0063  0.2605
  255poe    c31 3049   4.543   6.665   0.184 -0.7925 -0.6246 -0.0195
  255poe     o2 3050   4.684   6.665   0.195 -0.7520  0.1162 -0.4996
  255poe    c23 3051   4.722   6.540   0.247 -0.4655  0.3022 -0.2623
  255poe    c23 3052   4.873   6.535   0.213 -0.5504  0.2878 -0.6459
  255poe     o2 3053   4.931   6.661   0.237  0.0566 -0.1961  0.4760
  255poe    c23 3054   5.051   6.690   0.169  0.5010 -0.5596  1.0916
  255poe    c23 3055   5.085   6.840   0.180 -0.0683 -0.3819  0.4355
  255poe     o2 3056   4.968   6.901   0.129  0.0175 -0.5802 -0.0037
  255poe    c23 3057   4.962   7.037   0.163 -0.0543 -0.5791 -0.0190
  255poe    c23 3058   4.813   7.074   0.149  0.2056  0.4153 -0.2796
  255poe     o2 3059   4.739   6.966   0.202  0.3794  0.2643 -0.3397
  255poe    c31 3060   4.606   7.015   0.194  0.2033 -0.0685  0.4906
  256poe    c31 3061   3.464   3.109   4.628  0.1155  0.3652 -0.1405
  256poe     o2 3062   3.411   3.232   4.673 -0.2027  0.0603  0.3188
  256poe    c23 3063   3.277   3.220   4.717 -0.3005  0.3437  0.1013
  256poe    c23 3064   3.230   3.362   4.757 -0.3011  0.4279 -0.1996
  256poe     o2 3065   3.271   3.462   4.666 -0.1884  0.6911  0.1400
  256poe    c23 3066   3.175   3.479   4.564  0.2405 -0.3687 -0.4502
  256poe    c23 3067   3.252   3.510   4.434  0.4058 -0.4318 -0.3681
  256poe     o2 3068   3.368   3.430   4.430  0.4093 -0.4565  0.1236
  256poe    c23 3069   3.460   3.491   4.342  0.1280 -0.4222 -0.1516
  256poe    c23 3070   3.589   3.408   4.358  0.2672 -0.2150 -0.2083
  256poe     o2 3071   3.603   3.389   4.497  0.6149  0.4011 -0.1538
  256poe    c31 3072   3.730   3.356   4.548  0.3551 -0.4826 -0.0668
  257poe    c31 3073   1.199   4.496   3.214  0.2767 -0.9356 -0.5520
  257poe     o2 3074   1.116   4.483   3.101 -0.6732  0.5007 -0.0493
  257poe    c23 3075   1.199   4.410   3.013 -0.9976 -1.4016  1.1687
  257poe    c23 3076   1.122   4.375   2.884  0.4417  0.0726 -0.1401
  257poe     o2 3077   1.021   4.474   2.880  0.2077 -0.1261  0.6125
  257poe    c23 3078   0.933   4.443   2.774 -0.2865  0.1245  0.9472
  257poe    c23 3079   0.843   4.566   2.754  0.2894  0.3916 -0.1084
  257poe     o2 3080   0.834   4.639   2.875  0.0226 -0.6926  0.5380
  257poe    c23 3081   0.708   4.668   2.931 -0.1826 -0.7752  0.1291
  257poe    c23 3082   0.698   4.575   3.054 -0.3188  0.2507  0.9150
  257poe     o2 3083   0.824   4.570   3.116  0.1455 -0.0686 -0.0282
  257poe    c31 3084   0.796   4.532   3.249 -0.3134  0.0621 -0.0861
  258poe    c31 3085   1.643   2.311   3.864 -0.2022 -0.6007  0.1540
  258poe     o2 3086   1.527   2.254   3.808 -0.0987 -0.5776 -0.0836
  258poe    c23 3087   1.450   2.350   3.740  0.4011 -0.2425 -0.1781
  258poe    c23 3088   1.348   2.280   3.648  0.5361  0.4868 -0.8972
  258poe     o2 3089   1.295   2.198   3.749 -0.0770  0.7725 -0.9830
  258poe    c23 3090   1.197   2.109   3.701  0.3312 -0.0772 -0.2817
  258poe    c23 3091   1.158   2.017   3.819 -0.2456  0.6926  0.1444
  258poe     o2 3092   1.278   1.988   3.886 -0.1443  0.3600 -0.1742
  258poe    c23 3093   1.270   1.931   4.015  0.6130 -0.0826 -0.3135
  258poe    c23 3094   1.329   2.040   4.108 -0.3325  0.4981 -0.3767
  258poe     o2 3095   1.440   2.080   4.031  0.1391  0.4305  0.2607
  258poe    c31 3096   1.542   2.103   4.126  0.2094 -0.1363  0.3280
  259poe    c31 3097   1.228   3.591   1.718  0.0415 -0.4433 -0.7254
  259poe     o2 3098   1.302   3.710   1.726 -1.3706  0.4303 -0.4095
  259poe    c23 3099   1.312   3.741   1.864  0.7802 -0.8238 -0.2273
  259poe    c23 3100   1.423   3.839   1.906 -0.0374 -0.0735  0.2292
  259poe     o2 3101   1.431   3.927   1.797  0.5377 -0.2651  0.1112
  259poe    c23 3102   1.549   4.003   1.781  0.2828  0.1468  0.1726
  259poe    c23 3103   1.531   4.071   1.643 -0.7810  0.7035  0.5741
  259poe     o2 3104   1.474   3.981   1.551 -0.0390  0.3289  0.4797
  259poe    c23 3105   1.396   4.048   1.455 -0.3547 -1.1697 -0.3367
  259poe    c23 3106   1.252   4.058   1.510  0.2033 -0.2998  0.9901
  259poe     o2 3107   1.212   3.930   1.552  0.1269 -0.6036  0.0082
  259poe    c31 3108   1.082   3.941   1.605 -0.1281 -0.6667 -0.5966
  260poe    c31 3109   0.335   2.977   1.909 -0.2307  0.4168 -0.0035
  260poe     o2 3110   0.365   3.092   1.985  0.3559 -0.0853  0.5339
  260poe    c23 3111   0.503   3.100   2.011  0.4216  0.5668  0.0221
  260poe    c23 3112   0.536   3.218   2.104  0.0528  0.3707  0.4035
  260poe     o2 3113   0.451   3.322   2.060 -0.7759 -0.4827 -0.0540
  260poe    c23 3114   0.457   3.419   2.162  0.0771 -0.0010 -0.5409
  260poe    c23 3115   0.362   3.533   2.123 -0.2020  0.0260  0.2022
  260poe     o2 3116   0.238   3.466   2.128 -0.4410  0.3866 -0.6799
  260poe    c23 3117   0.127   3.549   2.154 -0.3356  0.3832 -0.2015
  260poe    c23 3118   0.069   3.554   2.297 -0.2845  0.2530 -0.1758
  260poe     o2 3119  -0.016   3.450   2.340 -0.1709  0.2241 -0.0223
  260poe    c31 3120  -0.151   3.480   2.313 -0.0785  0.6254 -0.0468
  261poe    c31 3121   4.872   5.256   5.210 -0.4560  0.2096 -0.2064
  261poe     o2 3122   4.740   5.210   5.217 -0.3509 -0.1773 -0.7238
  261poe    c23 3123   4.740   5.073   5.252 -0.0328  0.1319  0.5635
  261poe    c23 3124   4.602   5.012   5.219  0.1134 -0.2144  0.5803
  261poe     o2 3125   4.515   5.114   5.264  0.1722  0.1815 -0.1818
  261poe    c23 3126   4.387   5.102   5.206  0.2239  0.0846 -0.2752
  261poe    c23 3127   4.320   5.234   5.249  0.3042 -0.0914  0.4006
  261poe     o2 3128   4.402   5.346   5.226 -0.1452  0.2362  0.3878
  261poe    c23 3129   4.386   5.402   5.098  0.0216 -0.2127  0.1694
  261poe    c23 3130   4.490   5.516   5.085 -0.4038  0.1686  0.0651
  261poe     o2 3131   4.606   5.485   5.159 -0.6450 -0.0551  0.3552
  261poe    c31 3132   4.701   5.590   5.160  0.0842 -0.6871 -0.6775
  262poe    c31 3133   2.277   6.632   4.086 -0.2505 -0.3216  0.5658
  262poe     o2 3134   2.334   6.531   4.006 -0.8803 -0.1256 -0.1406
  262poe    c23 3135   2.246   6.420   4.004 -0.9808 -0.0567  0.2431
  262poe    c23 3136   2.325   6.307   3.936 -0.7531  0.0945  0.2538
  262poe     o2 3137   2.465   6.327   3.937 -0.6220 -0.7450 -0.3407
  262poe    c23 3138   2.542   6.234   3.864  0.5626  0.2430 -0.3801
  262poe    c23 3139   2.682   6.263   3.921  0.2278 -0.0396  0.5908
  262poe     o2 3140   2.696   6.403   3.923 -0.5496  0.0702 -0.7379
  262poe    c23 3141   2.809   6.449   3.993 -0.5804  0.1579 -0.7457
  262poe    c23 3142   2.779   6.597   4.022 -0.2701  0.0858 -0.0336
  262poe     o2 3143   2.641   6.605   4.049 -0.3366  0.2627 -0.4151
  262poe    c31 3144   2.623   6.731   4.110  0.4065  0.2717 -0.2144
  263poe    c31 3145   4.384   6.684   4.389 -0.0814 -0.2303  0.0948
  263poe     o2 3146   4.401   6.796   4.473  0.0020 -0.0949 -0.1046
  263poe    c23 3147   4.420   6.922   4.411 -0.7062  0.3554  0.5735
  263poe    c23 3148   4.487   7.006   4.521  0.1602  0.3093  0.0914
  263poe     o2 3149   4.392   6.994   4.625 -0.0951 -0.1907 -0.1931
  263poe    c23 3150   4.414   7.087   4.729 -0.1005  0.3877 -0.7018
  263poe    c23 3151   4.336   7.017   4.843  0.6635  0.2821 -0.2338
  263poe     o2 3152   4.370   6.881   4.838 -0.2103  0.0519 -0.0860
  263poe    c23 3153   4.324   6.809   4.950 -1.0008  0.3870 -0.1911
  263poe    c23 3154   4.356   6.664   4.909 -0.2493  0.5284 -0.1179
  263poe     o2 3155   4.324   6.662   4.771  0.4361 -0.5405 -0.2712
  263poe    c31 3156   4.259   6.542   4.735 -0.0899  0.0028 -1.1315
  264poe    c31 3157   4.433   1.507   6.056  0.4363  0.1242 -0.6358
  264poe     o2 3158   4.375   1.378   6.058 -0.1034  0.3650 -0.5130
  264poe    c23 3159   4.407   1.312   5.938  0.4759 -0.0783 -0.1202
  264poe    c23 3160   4.314   1.190   5.936  0.7468 -0.2792 -0.7920
  264poe     o2 3161   4.186   1.249   5.944  0.5657 -0.7312 -0.2999
  264poe    c23 3162   4.074   1.170   5.979 -0.4031  0.6214 -0.2831
  264poe    c23 3163   4.093   1.133   6.127  0.4117  0.1623 -0.4931
  264poe     o2 3164   4.130   1.253   6.193  0.1462 -0.0500  0.0532
  264poe    c23 3165   4.164   1.208   6.322  0.5937 -0.4874 -0.2087
  264poe    c23 3166   4.211   1.319   6.418  0.4826  0.1419 -0.8734
  264poe     o2 3167   4.290   1.409   6.343  1.0568  0.4075  0.0341
  264poe    c31 3168   4.302   1.527   6.420  0.9546 -0.0679  0.7880
  265poe    c31 3169   0.691   4.983   5.607  0.4527  0.1778  0.4481
  265poe     o2 3170   0.769   4.993   5.724  1.0765  0.2278  0.0341
  265poe    c23 3171   0.805   5.129   5.733 -0.1243  0.5526  0.0218
  265poe    c23 3172   0.875   5.165   5.865  0.1717 -0.3559  0.1202
  265poe     o2 3173   0.818   5.166   5.994 -0.0139  0.2211  0.0388
  265poe    c23 3174   0.823   5.052   6.077 -0.1103 -0.2685 -0.6248
  265poe    c23 3175   0.721   5.054   6.192  0.7967 -0.5037  0.1931
  265poe     o2 3176   0.716   5.188   6.235  0.2072 -0.5809  0.3667
  265poe    c23 3177   0.655   5.206   6.361 -0.3246 -0.5056  0.1052
  265poe    c23 3178   0.672   5.339   6.437 -0.0010 -0.5881  0.1790
  265poe     o2 3179   0.615   5.439   6.357  0.5295 -0.2995  0.1613
  265poe    c31 3180   0.606   5.560   6.428  0.9640 -0.0355 -0.2223
  266poe    c31 3181   6.809   3.655   1.077 -0.1055  0.6311 -0.3683
  266poe     o2 3182   6.947   3.683   1.093  0.0385 -0.2313 -0.0504
  266poe    c23 3183   7.044   3.606   1.025  0.2218 -0.3767  0.3699
  266poe    c23 3184   7.186   3.639   1.073  0.2168 -0.4091  0.4071
  266poe     o2 3185   7.180   3.628   1.213 -0.4917 -0.1651  0.3993
  266poe    c23 3186   7.300   3.673   1.273 -0.4747 -0.3442  0.5013
  266poe    c23 3187   7.273   3.700   1.422 -0.0290  0.4863  0.4338
  266poe     o2 3188   7.150   3.769   1.424 -0.1131  0.3653 -0.3772
  266poe    c23 3189   7.096   3.761   1.553  0.0783 -0.4559 -0.3455
  266poe    c23 3190   6.947   3.797   1.544  0.1769  0.1996  0.4817
  266poe     o2 3191   6.907   3.772   1.411 -0.2224  1.3057  0.3819
  266poe    c31 3192   6.768   3.760   1.429 -0.1787 -0.2673 -0.1500
  267poe    c31 3193   2.965   0.498   0.771 -0.0641 -0.3732  0.1703
  267poe     o2 3194   2.839   0.467   0.715 -0.0002 -0.2240 -0.0574
  267poe    c23 3195   2.737   0.463   0.813 -0.8176  1.1726 -0.8177
  267poe    c23 3196   2.643   0.342   0.797  0.0420  0.3632  0.0742
  267poe     o2 3197   2.640   0.333   0.656 -0.3262  0.2437  0.0874
  267poe    c23 3198   2.592   0.209   0.609 -0.3066  0.2929 -0.0614
  267poe    c23 3199   2.600   0.214   0.455 -0.3983  0.3963 -0.0627
  267poe     o2 3200   2.721   0.276   0.416 -0.2594  0.1874  0.0366
  267poe    c23 3201   2.721   0.337   0.290  0.3975  0.9077  0.3838
  267poe    c23 3202   2.857   0.411   0.295  0.3952  0.9151  0.3336
  267poe     o2 3203   2.854   0.483   0.416  0.1732 -0.4552  1.1625
  267poe    c31 3204   2.951   0.585   0.415  0.0400 -0.3236  0.0450
  268poe    c31 3205   6.774   5.688   3.775 -0.9936 -0.6408  0.3346
  268poe     o2 3206   6.690   5.762   3.689 -0.2002 -0.1706 -0.0506
  268poe    c23 3207   6.780   5.845   3.621 -0.2722 -0.4708 -0.5135
  268poe    c23 3208   6.705   5.922   3.510  0.1585 -0.0585 -0.5221
  268poe     o2 3209   6.602   5.970   3.594  0.3414 -0.2683 -0.1743
  268poe    c23 3210   6.495   6.019   3.517 -0.1522  0.1896  0.7803
  268poe    c23 3211   6.364   5.998   3.596 -0.4230 -0.7347  0.1028
  268poe     o2 3212   6.358   5.858   3.611  0.0518 -0.7335  0.3117
  268poe    c23 3213   6.243   5.815   3.679 -0.8405  0.1409 -0.6046
  268poe    c23 3214   6.297   5.680   3.730  0.7669  1.1408  0.4352
  268poe     o2 3215   6.420   5.697   3.796  0.2226  0.4162  1.6870
  268poe    c31 3216   6.457   5.584   3.872 -0.4585 -0.5966  0.5331
  269poe    c31 3217   0.201   0.448   6.135  0.6775 -0.2271 -0.2469
  269poe     o2 3218   0.297   0.493   6.042  0.5580 -0.3915 -0.4487
  269poe    c23 3219   0.379   0.587   6.106  0.1172 -0.0841 -0.3322
  269poe    c23 3220   0.530   0.574   6.076  0.1737  0.7656 -0.4427
  269poe     o2 3221   0.531   0.559   5.936 -0.6091 -0.9695 -0.2828
  269poe    c23 3222   0.654   0.526   5.874 -0.3062 -0.5296  0.0780
  269poe    c23 3223   0.647   0.383   5.817  0.1317 -0.3918 -0.3234
  269poe     o2 3224   0.508   0.376   5.795  0.0677  0.3392 -0.1849
  269poe    c23 3225   0.482   0.253   5.731  0.3091  0.1030  0.1616
  269poe    c23 3226   0.328   0.260   5.716  0.3042 -0.0906  0.1223
  269poe     o2 3227   0.257   0.324   5.820 -0.0596 -0.1472 -0.0918
  269poe    c31 3228   0.140   0.248   5.842 -0.1882 -0.0256 -0.3469
  270poe    c31 3229   3.348   1.673   4.119 -0.1931  0.2960  0.7386
  270poe     o2 3230   3.257   1.778   4.141 -0.4813  0.2449 -0.1736
  270poe    c23 3231   3.280   1.836   4.267 -0.0211  0.5048 -0.3749
  270poe    c23 3232   3.182   1.955   4.271 -0.4090  0.1876 -0.3328
  270poe     o2 3233   3.047   1.916   4.257 -0.3663 -0.0949  0.0245
  270poe    c23 3234   2.961   2.026   4.237  0.0619  0.0463 -1.1501
  270poe    c23 3235   2.821   1.972   4.204 -0.3291  0.4920 -0.2633
  270poe     o2 3236   2.818   1.868   4.108  0.4811  0.0752  0.1526
  270poe    c23 3237   2.809   1.907   3.973  0.6257  0.4332  0.2453
  270poe    c23 3238   2.872   1.789   3.897 -0.4609 -0.0017  0.0115
  270poe     o2 3239   3.006   1.778   3.938 -0.4815 -0.2529  0.0097
  270poe    c31 3240   3.076   1.684   3.858  0.0570 -0.0661  0.2532
  271poe    c31 3241   2.518   5.113   2.004  0.6611  0.6541  0.5347
  271poe     o2 3242   2.408   5.194   2.037 -0.0586 -0.0033 -0.1853
  271poe    c23 3243   2.279   5.137   2.042 -0.1000  0.1301  0.3104
  271poe    c23 3244   2.195   5.228   2.134 -0.4026 -0.4424  0.6094
  271poe     o2 3245   2.224   5.344   2.058  0.6782 -0.5836  0.7876
  271poe    c23 3246   2.148   5.459   2.086  1.3333 -0.0708  0.5045
  271poe    c23 3247   2.193   5.558   1.978 -0.0700 -0.0829 -0.1178
  271poe     o2 3248   2.329   5.523   1.972 -0.1252 -0.3689  0.2855
  271poe    c23 3249   2.390   5.601   1.872  0.0532 -1.0341 -0.1355
  271poe    c23 3250   2.527   5.534   1.846  0.4598 -0.3415  0.1730
  271poe     o2 3251   2.547   5.432   1.941 -0.3844 -0.2887  0.4203
  271poe    c31 3252   2.685   5.404   1.946 -0.2686  0.0711 -0.6392
  272poe    c31 3253   3.886   2.880   3.942  0.2035  0.6123  0.4887
  272poe     o2 3254   3.889   2.976   3.839  0.6062  0.6599  0.5436
  272poe    c23 3255   3.816   2.930   3.728  0.1333  0.6084  0.8760
  272poe    c23 3256   3.835   3.021   3.606 -0.4526 -0.4476 -0.0221
  272poe     o2 3257   3.819   3.155   3.648  0.1773 -0.3777  0.0096
  272poe    c23 3258   3.886   3.260   3.582 -0.1232 -0.1790  0.0179
  272poe    c23 3259   3.886   3.369   3.692  0.2389 -0.2073  0.0478
  272poe     o2 3260   3.949   3.320   3.808 -0.1621  0.1753  0.4316
  272poe    c23 3261   3.936   3.416   3.910 -0.8150  0.2674  0.2645
  272poe    c23 3262   3.983   3.346   4.038  0.8489  0.5056 -0.1894
  272poe     o2 3263   3.928   3.218   4.016 -0.1846  0.7493  0.8552
  272poe    c31 3264   3.923   3.157   4.143  0.3646 -0.4718  0.3038
  273poe    c31 3265   0.813   2.833   6.492  0.5344  0.2579 -0.8134
  273poe     o2 3266   0.708   2.740   6.480 -0.0756  0.9205 -0.6898
  273poe    c23 3267   0.579   2.786   6.512 -0.1596  0.4273 -0.3001
  273poe    c23 3268   0.472   2.680   6.480  0.3185 -0.3251  0.5464
  273poe     o2 3269   0.469   2.639   6.345 -0.1992  0.3052  0.3643
  273poe    c23 3270   0.405   2.740   6.269 -0.1174  0.4475  0.4849
  273poe    c23 3271   0.339   2.663   6.153  0.2704 -0.3736  0.7991
  273poe     o2 3272   0.443   2.591   6.091 -0.3050 -1.1462  0.7243
  273poe    c23 3273   0.402   2.479   6.015 -0.3110 -0.1608 -0.7740
  273poe    c23 3274   0.508   2.441   5.910  0.0676  0.1418 -0.5062
  273poe     o2 3275   0.630   2.401   5.968 -0.1252 -0.0493 -0.2250
  273poe    c31 3276   0.683   2.288   5.902 -0.3388 -0.6139  0.5631
  274poe    c31 3277   5.099   0.160   4.822  0.8438  0.7531  0.8057
  274poe     o2 3278   5.054   0.280   4.882 -0.4641  0.5265  0.3174
  274poe    c23 3279   4.921   0.266   4.926 -0.7001  0.2463 -0.4529
  274poe    c23 3280   4.913   0.371   5.039  0.7029 -0.2922  0.1715
  274poe     o2 3281   4.966   0.487   4.978 -0.9457  0.2936 -0.1831
  274poe    c23 3282   5.004   0.574   5.082 -0.5916  0.2361 -0.2641
  274poe    c23 3283   5.082   0.688   5.015 -0.1232  0.0399 -0.0607
  274poe     o2 3284   5.176   0.628   4.929  0.3605  0.4397  0.1843
  274poe    c23 3285   5.191   0.685   4.801  0.0330  0.3450  0.1030
  274poe    c23 3286   5.278   0.586   4.721  0.1212 -0.1140  0.7594
  274poe     o2 3287   5.226   0.455   4.726 -0.0470 -0.0746  0.0923
  274poe    c31 3288   5.300   0.368   4.643  0.0322 -0.2402  0.3370
  275poe    c31 3289   5.094   2.207   4.637 -0.6736  0.0432  0.4064
  275poe     o2 3290   5.176   2.110   4.576 -0.0682  0.6807  0.1965
  275poe    c23 3291   5.220   2.025   4.679 -0.3126  0.3854  0.0571
  275poe    c23 3292   5.239   1.882   4.623  0.0049  0.5079 -0.1501
  275poe     o2 3293   5.266   1.905   4.487 -0.7423  0.0827 -0.3713
  275poe    c23 3294   5.242   1.794   4.404  0.3446 -0.2679 -0.2371
  275poe    c23 3295   5.134   1.840   4.304 -0.1069  0.2015  0.4636
  275poe     o2 3296   5.169   1.973   4.273 -0.0744  0.0908  0.0215
  275poe    c23 3297   5.066   2.024   4.192 -0.4521 -0.6831  0.0059
  275poe    c23 3298   5.100   2.174   4.188 -0.4641 -0.6818 -0.0672
  275poe     o2 3299   5.149   2.207   4.316  0.0433  0.2060 -0.4850
  275poe    c31 3300   5.164   2.347   4.326  0.1069  0.1414  0.4539
  276poe    c31 3301   3.085   2.841   0.086 -0.0692  0.2707 -0.3302
  276poe     o2 3302   3.123   2.889  -0.041  0.3736  0.0564 -0.2820
  276poe    c23 3303   3.176   2.796  -0.134  0.1762 -0.0667 -0.2743
  276poe    c23 3304   3.226   2.858  -0.266  0.2613 -0.0950 -0.2555
  276poe     o2 3305   3.348   2.928  -0.259  0.1836 -0.0411  0.6543
  276poe    c23 3306   3.370   2.983  -0.386 -0.0765 -0.4285  0.4382
  276poe    c23 3307   3.511   3.046  -0.382 -0.4570  0.4403  0.4780
  276poe     o2 3308   3.530   3.130  -0.270  0.1039  0.2797  0.5054
  276poe    c23 3309   3.655   3.194  -0.271 -0.1713  0.8211  0.2650
  276poe    c23 3310   3.692   3.251  -0.132 -0.3481  0.7547  0.3395
  276poe     o2 3311   3.719   3.156  -0.032 -0.5771  0.5568  0.2140
  276poe    c31 3312   3.858   3.149  -0.013 -0.5767  0.1093  0.0450
  277poe    c31 3313   2.808   0.318   4.105 -1.0253  0.1102  0.1233
  277poe     o2 3314   2.763   0.398   4.212 -0.6228  0.6277 -0.0931
  277poe    c23 3315   2.874   0.477   4.249 -0.4682  0.3424  0.0624
  277poe    c23 3316   2.842   0.547   4.382 -0.7628  0.4679 -0.0728
  277poe     o2 3317   2.715   0.606   4.369 -0.4134  1.2196 -0.1310
  277poe    c23 3318   2.671   0.615   4.502  0.1580  0.0407  0.1527
  277poe    c23 3319   2.527   0.669   4.492 -0.1401 -0.6915  0.4324
  277poe     o2 3320   2.449   0.593   4.402 -0.1720 -0.4406  0.2450
  277poe    c23 3321   2.405   0.652   4.282  0.3056 -0.4039  0.0875
  277poe    c23 3322   2.371   0.541   4.181 -0.1780  0.0697 -0.2801
  277poe     o2 3323   2.488   0.464   4.165 -0.1216 -0.0751  0.7220
  277poe    c31 3324   2.445   0.369   4.069  0.2737  0.6096 -0.1501
  278poe    c31 3325   0.167   6.374   0.472 -0.1301 -0.1771  0.3366
  278poe     o2 3326   0.087   6.410   0.361  0.2947 -0.1378  0.0441
  278poe    c23 3327   0.072   6.289   0.289  0.6742  0.1461 -0.5200
  278poe    c23 3328   0.002   6.315   0.154 -0.4002 -0.3394 -0.0701
  278poe     o2 3329  -0.097   6.405   0.197  0.3934  0.4275  0.1718
  278poe    c23 3330  -0.167   6.472   0.095 -0.1940 -0.4826 -0.0351
  278poe    c23 3331  -0.217   6.612   0.137  0.4294 -0.2477 -0.0675
  278poe     o2 3332  -0.115   6.664   0.219  0.3194 -0.2496  0.0694
  278poe    c23 3333  -0.156   6.755   0.318  0.3101  0.3620 -0.4887
  278poe    c23 3334  -0.023   6.795   0.386  0.3264  0.2250 -0.4385
  278poe     o2 3335   0.012   6.674   0.448  0.1794  0.2048 -0.3937
  278poe    c31 3336   0.089   6.706   0.562 -0.4226  0.3561 -0.0274
  279poe    c31 3337   2.034   1.756   5.166 -0.0538  0.2136  0.0308
  279poe     o2 3338   1.970   1.830   5.065  0.1231 -0.4041 -0.5451
  279poe    c23 3339   1.837   1.786   5.046 -0.0460 -0.1391 -0.0240
  279poe    c23 3340   1.772   1.912   4.985  0.0025 -0.1106 -0.0178
  279poe     o2 3341   1.845   1.973   4.881 -0.0259 -0.0158  0.0181
  279poe    c23 3342   1.820   2.111   4.864 -0.3093 -0.1039 -0.2940
  279poe    c23 3343   1.946   2.162   4.792 -0.2016 -0.0919 -0.0978
  279poe     o2 3344   2.054   2.113   4.868  0.0783  0.0077 -0.4312
  279poe    c23 3345   2.182   2.148   4.819  0.2607  0.0708  0.0781
  279poe    c23 3346   2.284   2.089   4.918  0.7667  0.4107 -0.2411
  279poe     o2 3347   2.248   1.964   4.972  0.2137  0.6802  0.0185
  279poe    c31 3348   2.355   1.911   5.046 -0.1323 -0.1506 -0.0692
  280poe    c31 3349   6.673   4.127   6.646  0.1552 -0.6301  0.3502
  280poe     o2 3350   6.781   4.217   6.645 -0.5001  0.1729  0.2681
  280poe    c23 3351   6.768   4.300   6.532 -0.0975 -0.3270 -0.1521
  280poe    c23 3352   6.907   4.341   6.481 -0.2165  0.2782  0.0070
  280poe     o2 3353   6.979   4.356   6.602 -0.2656 -0.1358  0.0897
  280poe    c23 3354   7.119   4.363   6.586 -0.2733 -0.0908  0.0416
  280poe    c23 3355   7.215   4.393   6.702 -0.6195 -0.0559  0.3222
  280poe     o2 3356   7.187   4.314   6.816  0.0516  0.4039  0.8106
  280poe    c23 3357   7.307   4.270   6.876 -0.1637 -0.2104  0.7877
  280poe    c23 3358   7.317   4.346   7.009 -0.0548  0.5625  0.3386
  280poe     o2 3359   7.232   4.303   7.113 -0.0044 -0.4442 -0.0279
  280poe    c31 3360   7.275   4.353   7.237  0.0275 -1.0029  0.1867
  281poe    c31 3361   1.789   1.800   1.918 -0.8926  1.0052 -0.0367
  281poe     o2 3362   1.730   1.858   2.032 -0.4804  0.4063  0.4934
  281poe    c23 3363   1.836   1.908   2.111  0.2802  0.0558 -0.2870
  281poe    c23 3364   1.795   2.042   2.173 -0.2655  0.1247 -0.7844
  281poe     o2 3365   1.675   2.025   2.246 -0.2225  0.1056 -0.7179
  281poe    c23 3366   1.592   2.135   2.274 -0.4309 -0.3563  0.5324
  281poe    c23 3367   1.498   2.173   2.158 -0.4088 -0.4039  0.4989
  281poe     o2 3368   1.474   2.052   2.090  0.8335 -0.4871  0.1900
  281poe    c23 3369   1.381   2.071   1.986  0.7371 -0.3867  0.2952
  281poe    c23 3370   1.345   1.929   1.937  0.5178 -0.0839 -0.4343
  281poe     o2 3371   1.464   1.855   1.926  1.0152  0.5829  0.3099
  281poe    c31 3372   1.466   1.785   1.804  0.5798  0.4433  0.3810
  282poe    c31 3373   2.776   4.061   5.088  1.2436  0.8995  0.4794
  282poe     o2 3374   2.782   4.113   4.956 -0.2516  0.3619  0.1792
  282poe    c23 3375   2.771   4.018   4.853 -0.8197  0.2500  0.3367
  282poe    c23 3376   2.863   4.066   4.740 -0.2421  0.0063  0.6968
  282poe     o2 3377   2.819   4.182   4.672  0.2434 -0.2369 -0.0514
  282poe    c23 3378   2.878   4.231   4.554 -0.7345  0.3509 -0.3072
  282poe    c23 3379   2.837   4.376   4.523 -0.7336  0.3810 -0.1690
  282poe     o2 3380   2.828   4.444   4.646  0.2483 -0.2278  0.2523
  282poe    c23 3381   2.753   4.563   4.632  0.6890 -0.0329 -0.5630
  282poe    c23 3382   2.793   4.688   4.713 -0.9215  0.4387 -0.4610
  282poe     o2 3383   2.766   4.651   4.846  0.1450 -0.2008 -0.4089
  282poe    c31 3384   2.788   4.763   4.929 -1.0854 -0.3934  0.2057
  283poe    c31 3385   2.063   4.855   4.736  0.1239 -0.0193 -0.0554
  283poe     o2 3386   1.997   4.974   4.771  0.1465 -0.2093  0.6536
  283poe    c23 3387   1.997   5.058   4.658 -0.1885 -0.5753  0.3788
  283poe    c23 3388   1.851   5.106   4.650  0.1536  0.3280 -0.6760
  283poe     o2 3389   1.833   5.182   4.768  0.7685 -0.0736 -0.3222
  283poe    c23 3390   1.700   5.227   4.765  0.7457 -0.1284 -0.1509
  283poe    c23 3391   1.680   5.244   4.916 -0.1900 -0.0098 -0.2815
  283poe     o2 3392   1.733   5.134   4.987 -0.6942 -0.0708  0.0130
  283poe    c23 3393   1.761   5.165   5.121 -0.1600 -0.7477  0.0674
  283poe    c23 3394   1.853   5.051   5.167 -0.3245 -0.9362 -0.0683
  283poe     o2 3395   1.948   5.029   5.065  0.0020 -0.0687  0.0348
  283poe    c31 3396   2.056   4.951   5.113 -0.0500 -0.4396 -0.4367
  284poe    c31 3397   4.044   4.400   2.052  0.1662 -0.2326 -0.6667
  284poe     o2 3398   3.920   4.454   2.092  0.4876  0.3027 -0.3900
  284poe    c23 3399   3.888   4.586   2.053 -0.4694  0.1311 -0.1999
  284poe    c23 3400   3.760   4.612   2.136 -0.1342  0.6258  0.1631
  284poe     o2 3401   3.681   4.500   2.104  0.8013  0.0379 -0.1458
  284poe    c23 3402   3.550   4.515   2.154  0.3510 -0.1497 -1.2291
  284poe    c23 3403   3.486   4.376   2.164  0.0673  0.0360 -0.2874
  284poe     o2 3404   3.593   4.284   2.169 -0.1255 -0.1595  0.2602
  284poe    c23 3405   3.599   4.219   2.294 -0.1665  0.1735  0.4370
  284poe    c23 3406   3.723   4.128   2.290 -0.1260  0.2486  0.0164
  284poe     o2 3407   3.833   4.206   2.249  0.0544  0.0687  0.1605
  284poe    c31 3408   3.954   4.136   2.270  0.1827 -0.0033 -0.7921
  285poe    c31 3409   5.054   1.368   6.313  0.0034  0.6904 -0.0680
  285poe     o2 3410   5.060   1.383   6.173 -0.5556 -0.1858 -0.1987
  285poe    c23 3411   5.059   1.258   6.108  0.0160 -0.4851  0.3584
  285poe    c23 3412   5.048   1.256   5.955  0.7180 -0.3266  0.3015
  285poe     o2 3413   5.145   1.333   5.887  0.0044  0.1635 -0.1784
  285poe    c23 3414   5.128   1.338   5.747  0.2282 -0.2565 -0.2221
  285poe    c23 3415   5.249   1.411   5.686 -0.2759 -0.0591 -0.9961
  285poe     o2 3416   5.251   1.544   5.732  0.4408 -0.4718  0.1889
  285poe    c23 3417   5.347   1.617   5.659 -0.2505  0.1962 -0.0694
  285poe    c23 3418   5.323   1.768   5.647  0.0706  0.1834 -0.9214
  285poe     o2 3419   5.205   1.806   5.580  0.0209  0.6899 -0.5498
  285poe    c31 3420   5.139   1.896   5.666  0.2380 -0.1164  0.4794
  286poe    c31 3421   1.830   1.727   6.052 -0.3082 -0.4390 -0.4589
  286poe     o2 3422   1.742   1.625   6.010 -0.3653 -0.3690 -0.5117
  286poe    c23 3423   1.615   1.644   6.068 -0.0728  0.5415 -0.1611
  286poe    c23 3424   1.533   1.751   5.995  0.1179  0.6682 -0.1919
  286poe     o2 3425   1.470   1.694   5.882  0.2544 -0.1579  0.1406
  286poe    c23 3426   1.376   1.783   5.826  0.1158 -0.5944 -0.3307
  286poe    c23 3427   1.243   1.832   5.887  0.4620 -0.4644  0.3266
  286poe     o2 3428   1.132   1.752   5.856  0.2334  0.1244 -0.4002
  286poe    c23 3429   1.013   1.817   5.895  0.0823 -0.4822  0.1777
  286poe    c23 3430   0.908   1.706   5.910 -0.6801  0.1967 -0.0555
  286poe     o2 3431   0.871   1.628   5.799 -0.3842  0.0663 -0.0630
  286poe    c31 3432   0.768   1.696   5.730 -0.2385  0.8362  0.4748
  287poe    c31 3433   6.221   1.899   1.265 -0.1862 -0.0280  0.2382
  287poe     o2 3434   6.173   1.778   1.209  0.0588 -0.2633  0.5316
  287poe    c23 3435   6.161   1.692   1.320 -0.0733 -0.6600  0.2125
  287poe    c23 3436   6.129   1.556   1.256 -0.3473 -0.1329 -0.7852
  287poe     o2 3437   6.028   1.574   1.159 -0.9511  0.1597 -0.1079
  287poe    c23 3438   6.018   1.463   1.073 -1.2414  0.0529  0.0608
  287poe    c23 3439   5.914   1.496   0.964 -1.1189  0.4673  0.0640
  287poe     o2 3440   5.948   1.626   0.922 -0.1270  0.3368  0.4321
  287poe    c23 3441   5.833   1.702   0.891 -0.0758  0.2435  0.0043
  287poe    c23 3442   5.895   1.843   0.880  0.5096 -0.0238 -0.1849
  287poe     o2 3443   5.979   1.871   0.989  0.1653  0.6611 -0.0937
  287poe    c31 3444   5.997   2.008   1.020  0.1233  0.7583 -0.4994
  288poe    c31 3445   0.188   5.561   6.615 -0.1845 -0.0688  0.2460
  288poe     o2 3446   0.056   5.601   6.585 -0.3639 -0.6515  0.2446
  288poe    c23 3447   0.035   5.603   6.445 -0.0369 -0.7129  0.1931
  288poe    c23 3448  -0.101   5.662   6.402  0.1667  0.1207  0.6609
  288poe     o2 3449  -0.192   5.609   6.496  0.4996 -0.1483  0.8356
  288poe    c23 3450  -0.329   5.636   6.477  0.6304 -0.2378 -0.3669
  288poe    c23 3451  -0.397   5.561   6.594  0.1056 -0.1079 -0.5864
  288poe     o2 3452  -0.315   5.567   6.708 -0.1465  0.1308 -0.4173
  288poe    c23 3453  -0.322   5.439   6.766 -0.5856  0.5821  0.5626
  288poe    c23 3454  -0.216   5.431   6.877  0.0051 -0.6602 -0.0695
  288poe     o2 3455  -0.103   5.497   6.823 -0.7142  0.4327 -0.2641
  288poe    c31 3456  -0.002   5.475   6.919 -0.3019 -0.3205 -0.8590
  289poe    c31 3457   0.652   0.878   5.186  0.1000 -0.9015  0.9956
  289poe     o2 3458   0.581   0.846   5.068  0.2440 -0.4849  0.7939
  289poe    c23 3459   0.454   0.907   5.077  0.5491  0.1474  0.9136
  289poe    c23 3460   0.395   0.927   4.937 -0.1179 -0.7738  1.0529
  289poe     o2 3461   0.384   0.797   4.883 -0.1226 -0.3607  0.0368
  289poe    c23 3462   0.352   0.792   4.745 -0.1463  0.0979  0.0256
  289poe    c23 3463   0.473   0.740   4.667  0.2595  0.6130  0.3022
  289poe     o2 3464   0.596   0.774   4.728  0.4048  0.0798  0.3161
  289poe    c23 3465   0.690   0.721   4.637 -0.3920 -0.2901 -0.3033
  289poe    c23 3466   0.812   0.768   4.717 -0.8149 -0.1435  0.2643
  289poe     o2 3467   0.791   0.769   4.857 -0.1383 -0.0584  0.3707
  289poe    c31 3468   0.889   0.844   4.924 -0.0167 -0.5134  0.7002
  290poe    c31 3469   1.626   5.656   3.524  0.9282  0.5705  0.0314
  290poe     o2 3470   1.551   5.550   3.470  0.2749  0.6336  0.8118
  290poe    c23 3471   1.483   5.485   3.575  0.7710 -0.7161  0.3212
  290poe    c23 3472   1.379   5.385   3.523  0.2919 -0.1163  0.1197
  290poe     o2 3473   1.444   5.313   3.420  0.2813  0.7356 -0.4956
  290poe    c23 3474   1.368   5.242   3.325  0.0510 -0.1793  0.3576
  290poe    c23 3475   1.332   5.322   3.199  0.0958 -0.6855  0.0217
  290poe     o2 3476   1.456   5.378   3.160 -0.4365  0.3993 -0.1266
  290poe    c23 3477   1.449   5.481   3.064  0.2602  0.5126 -0.0591
  290poe    c23 3478   1.591   5.539   3.054  0.5423 -0.1175  0.2342
  290poe     o2 3479   1.631   5.558   3.188  0.7474  0.0442  0.1514
  290poe    c31 3480   1.768   5.593   3.195  0.6909  0.1393  0.8752
  291poe    c31 3481   0.694   3.614   4.600 -0.0340  0.4026 -0.1073
  291poe     o2 3482   0.781   3.722   4.576 -0.4922  0.7634 -0.1615
  291poe    c23 3483   0.849   3.721   4.452 -0.0018 -0.0963  0.1140
  291poe    c23 3484   0.831   3.867   4.408  0.4672 -0.1402 -0.2308
  291poe     o2 3485   0.888   3.955   4.502  0.3458 -0.3654  0.0544
  291poe    c23 3486   0.844   4.087   4.482 -0.4585 -0.5824  0.3342
  291poe    c23 3487   0.718   4.107   4.568 -0.6788  0.3196 -0.1767
  291poe     o2 3488   0.726   4.010   4.671 -0.6977 -0.3625 -0.8098
  291poe    c23 3489   0.611   4.023   4.751 -0.2366  0.4705 -0.2678
  291poe    c23 3490   0.602   3.879   4.807  0.2077  0.3392 -0.5296
  291poe     o2 3491   0.733   3.829   4.823 -0.0024 -0.2957 -0.7835
  291poe    c31 3492   0.731   3.722   4.915 -0.3300  0.1566 -0.2606
  292poe    c31 3493   3.695   1.876   5.522 -0.8055 -0.5952  0.1766
  292poe     o2 3494   3.607   1.811   5.434 -0.4883 -0.7943  0.0042
  292poe    c23 3495   3.482   1.801   5.498 -0.6197  0.2084 -0.0755
  292poe    c23 3496   3.370   1.838   5.399 -0.6307  1.1517  0.2843
  292poe     o2 3497   3.395   1.772   5.277 -0.3438  0.7868  0.5373
  292poe    c23 3498   3.302   1.819   5.182 -0.0750  0.0733 -0.0852
  292poe    c23 3499   3.343   1.760   5.046 -0.3086 -0.6412  0.1510
  292poe     o2 3500   3.482   1.778   5.061 -0.3874 -0.0390  0.1671
  292poe    c23 3501   3.569   1.683   5.003  0.1685  0.5075  0.0968
  292poe    c23 3502   3.709   1.737   5.037  0.5193 -0.4084  0.1298
  292poe     o2 3503   3.732   1.731   5.176 -0.1795  0.4938  0.2942
  292poe    c31 3504   3.835   1.643   5.214 -0.3683  0.0788 -0.1528
  293poe    c31 3505   2.724   1.423   0.990  0.1635  0.5463  0.2790
  293poe     o2 3506   2.672   1.345   0.884  0.0936 -0.2884  0.9173
  293poe    c23 3507   2.557   1.286   0.939 -1.2269  0.8698 -0.4908
  293poe    c23 3508   2.532   1.166   0.846  1.0453 -0.0746  0.0519
  293poe     o2 3509   2.520   1.217   0.715 -0.2652 -0.4459  0.0152
  293poe    c23 3510   2.538   1.125   0.609  0.4822 -1.1090  0.6957
  293poe    c23 3511   2.682   1.101   0.562  0.4874 -0.1486  0.1897
  293poe     o2 3512   2.742   1.228   0.575  0.0769  0.0596  0.0558
  293poe    c23 3513   2.877   1.218   0.535  0.3156 -0.3189  0.9216
  293poe    c23 3514   2.929   1.361   0.558 -0.0677 -0.0242 -0.0065
  293poe     o2 3515   2.879   1.419   0.676  0.0275 -0.7938  0.4166
  293poe    c31 3516   2.945   1.543   0.688 -0.4139 -0.5531  0.4168
  294poe    c31 3517   6.018   3.993   4.878  0.0276 -0.9992 -0.7309
  294poe     o2 3518   5.881   3.970   4.854 -0.3037  0.3981 -0.2621
  294poe    c23 3519   5.873   3.832   4.882 -0.0516  0.3716 -0.3231
  294poe    c23 3520   5.732   3.784   4.844 -0.2333  0.4365  0.2648
  294poe     o2 3521   5.655   3.902   4.851  0.0041  0.5986  0.1440
  294poe    c23 3522   5.521   3.876   4.817  0.2067  0.3057 -0.4513
  294poe    c23 3523   5.462   4.016   4.839 -0.3807 -0.0389  0.2215
  294poe     o2 3524   5.543   4.110   4.772 -0.4652  0.0532  0.2487
  294poe    c23 3525   5.498   4.240   4.802 -0.5203  0.0060  0.3706
  294poe    c23 3526   5.623   4.325   4.776 -0.3134 -0.3108  0.3242
  294poe     o2 3527   5.742   4.254   4.799  0.3494  0.6076 -0.1624
  294poe    c31 3528   5.851   4.342   4.810  0.3481  0.5496  0.3526
  295poe    c31 3529   4.392   2.742   0.453 -0.1174 -0.0194  0.4238
  295poe     o2 3530   4.360   2.873   0.414  0.1558 -0.0284  0.1673
  295poe    c23 3531   4.278   2.877   0.299 -0.7012 -0.0374  0.7723
  295poe    c23 3532   4.203   3.011   0.310 -0.5565  0.1069  0.0589
  295poe     o2 3533   4.262   3.096   0.407 -0.5030 -0.2886  0.3739
  295poe    c23 3534   4.190   3.212   0.443  0.2496  0.0149  0.9113
  295poe    c23 3535   4.209   3.209   0.596 -0.3952 -0.8528  0.9843
  295poe     o2 3536   4.347   3.179   0.602 -0.1338  0.0191 -0.1842
  295poe    c23 3537   4.380   3.173   0.739  0.1956 -0.0890 -0.2689
  295poe    c23 3538   4.527   3.128   0.751  0.0835 -0.3557  0.1167
  295poe     o2 3539   4.537   3.009   0.677  0.2470 -0.1974 -0.1185
  295poe    c31 3540   4.614   2.915   0.750 -0.1881 -0.1313  0.4297
  296poe    c31 3541   2.556   3.549   3.304  0.1123 -0.0356  0.0969
  296poe     o2 3542   2.441   3.611   3.251 -0.1122  0.1880  0.8313
  296poe    c23 3543   2.330   3.527   3.274 -0.3244  0.1331 -0.2962
  296poe    c23 3544   2.196   3.604   3.275 -0.4816 -0.1389  0.4434
  296poe     o2 3545   2.205   3.692   3.165 -0.5970 -0.3434  0.2684
  296poe    c23 3546   2.089   3.745   3.106 -0.1592 -0.1720 -0.4479
  296poe    c23 3547   2.144   3.855   3.014 -0.0995  0.4838  0.3731
  296poe     o2 3548   2.267   3.801   2.972 -0.4327  0.1218 -0.1405
  296poe    c23 3549   2.351   3.886   2.898  0.3013 -0.4532  0.0129
  296poe    c23 3550   2.477   3.806   2.863  0.2528 -0.6321  0.2484
  296poe     o2 3551   2.514   3.756   2.989  0.1386 -0.6070  0.2926
  296poe    c31 3552   2.654   3.739   2.984  0.0596 -1.0824 -0.6154
  297poe    c31 3553   5.060   1.689   3.373  0.4914 -0.3104 -0.0049
  297poe     o2 3554   4.947   1.607   3.353  0.3585 -0.1037 -0.1142
  297poe    c23 3555   4.843   1.702   3.343  0.1179 -0.3740 -0.1797
  297poe    c23 3556   4.715   1.649   3.276 -0.0734  0.2443 -0.3073
  297poe     o2 3557   4.653   1.547   3.351  0.2117 -0.2354 -0.7104
  297poe    c23 3558   4.634   1.423   3.288 -0.1332 -0.4778 -0.1331
  297poe    c23 3559   4.721   1.317   3.358 -0.0684 -0.0440  0.4512
  297poe     o2 3560   4.861   1.326   3.352 -0.0577 -0.4389  0.0933
  297poe    c23 3561   4.904   1.255   3.237 -0.0673  0.0716 -0.2299
  297poe    c23 3562   5.058   1.254   3.233 -0.0665  0.3594 -0.2836
  297poe     o2 3563   5.094   1.381   3.283  0.1041  0.1248  0.2035
  297poe    c31 3564   5.227   1.412   3.248 -0.0282  0.2739 -0.1749
  298poe    c31 3565   0.950   4.763   0.868 -0.5351 -0.2515  0.1724
  298poe     o2 3566   0.903   4.668   0.775 -0.0619 -0.1142 -0.2093
  298poe    c23 3567   0.849   4.560   0.848 -0.3118  0.1926  0.0556
  298poe    c23 3568   0.870   4.436   0.760  0.0570  0.3291 -0.0507
  298poe     o2 3569   0.814   4.477   0.638  0.0599  0.4985  0.0054
  298poe    c23 3570   0.858   4.388   0.538  0.1282  0.1791  0.3161
  298poe    c23 3571   0.859   4.471   0.408 -0.0183  0.2916  0.3864
  298poe     o2 3572   0.907   4.596   0.454  0.1217  0.1362  0.6622
  298poe    c23 3573   0.921   4.702   0.363 -0.2983 -0.2080  0.1917
  298poe    c23 3574   0.974   4.834   0.422 -0.3843  0.1701 -0.5642
  298poe     o2 3575   0.925   4.867   0.550 -0.0715 -0.6399 -0.2265
  298poe    c31 3576   0.916   5.006   0.575  0.4995 -0.5969 -0.2539
  299poe    c31 3577   0.467   5.746   5.083  0.1105 -0.5935 -0.2970
  299poe     o2 3578   0.598   5.757   5.133  0.0866 -0.3561 -0.2889
  299poe    c23 3579   0.692   5.774   5.029  0.3786  0.0239  0.0341
  299poe    c23 3580   0.817   5.690   5.061  0.5249  0.3343  0.2889
  299poe     o2 3581   0.855   5.754   5.181 -0.3457 -0.7453  1.1719
  299poe    c23 3582   0.967   5.696   5.242  0.4940 -0.0688  0.3027
  299poe    c23 3583   0.991   5.775   5.372  0.0694  0.2247  0.2027
  299poe     o2 3584   0.859   5.779   5.421 -0.0672  0.0707 -0.1494
  299poe    c23 3585   0.842   5.828   5.552  0.1227  0.0797 -0.1281
  299poe    c23 3586   0.715   5.913   5.536  0.5778  0.7524 -0.1759
  299poe     o2 3587   0.637   5.849   5.437  0.5027  0.3380  0.1488
  299poe    c31 3588   0.507   5.835   5.490  0.3566  0.1885 -0.2521
  300poe    c31 3589   2.870   1.484   3.598  0.2099 -0.6706  0.0837
  300poe     o2 3590   2.850   1.367   3.673 -0.5295 -0.3641  0.3818
  300poe    c23 3591   2.967   1.292   3.699 -0.0271  0.2433 -0.0799
  300poe    c23 3592   2.953   1.149   3.642 -0.7255  0.2597  0.0407
  300poe     o2 3593   2.939   1.133   3.503  0.0239  0.4299 -0.0590
  300poe    c23 3594   2.918   0.993   3.498 -0.2456  0.4482  0.4831
  300poe    c23 3595   2.959   0.917   3.370 -0.3584 -0.0911  0.7646
  300poe     o2 3596   2.925   0.995   3.258 -0.0474 -0.6497  0.2809
  300poe    c23 3597   2.971   0.945   3.134  0.0895 -0.2345  0.1642
  300poe    c23 3598   2.946   1.046   3.020  0.3480 -0.0443  0.2739
  300poe     o2 3599   2.951   1.173   3.080  0.6905 -0.1212  0.4085
  300poe    c31 3600   3.008   1.268   2.993 -0.1192  0.1908  0.2129
  301poe    c31 3601   4.057   3.556   2.118 -0.0279 -0.4685 -0.1998
  301poe     o2 3602   4.150   3.573   2.223  0.0455  0.0947 -0.3498
  301poe    c23 3603   4.209   3.700   2.209  0.6412 -0.1554 -0.1238
  301poe    c23 3604   4.259   3.738   2.349  0.3347 -0.1109 -0.0261
  301poe     o2 3605   4.347   3.634   2.386  0.2106 -0.0775  0.3671
  301poe    c23 3606   4.371   3.648   2.525 -0.0698 -0.5534  0.4633
  301poe    c23 3607   4.477   3.538   2.547  0.4919 -0.0561  0.2656
  301poe     o2 3608   4.430   3.419   2.487 -0.1374  0.4042 -0.1636
  301poe    c23 3609   4.339   3.351   2.570 -0.1215  0.5583 -0.0186
  301poe    c23 3610   4.258   3.253   2.483  0.3327 -0.5239  0.7480
  301poe     o2 3611   4.212   3.322   2.369 -0.1263 -0.0269  1.2311
  301poe    c31 3612   4.094   3.258   2.326  0.0051 -0.1238  1.0115
  302poe    c31 3613   1.508   1.726   2.806  1.0975  0.3169 -0.1471
  302poe     o2 3614   1.492   1.641   2.918 -0.4939 -0.2495 -0.7693
  302poe    c23 3615   1.426   1.519   2.893  0.1123 -0.7379 -0.0266
  302poe    c23 3616   1.392   1.455   3.028 -0.4590 -0.0198  0.1744
  302poe     o2 3617   1.515   1.458   3.097 -0.0604 -0.4371 -0.5128
  302poe    c23 3618   1.512   1.408   3.229  0.1804 -0.0530 -0.3625
  302poe    c23 3619   1.627   1.453   3.322 -0.4085 -0.0784  0.3858
  302poe     o2 3620   1.625   1.586   3.275  0.1048 -0.0242  0.5196
  302poe    c23 3621   1.736   1.662   3.318  0.0838  0.0133  0.5062
  302poe    c23 3622   1.682   1.797   3.267  0.0111 -0.3918 -0.5052
  302poe     o2 3623   1.633   1.791   3.135  0.0904  0.1102 -0.5582
  302poe    c31 3624   1.582   1.914   3.086  0.6454  0.6111  0.1041
  303poe    c31 3625   1.722   6.200   1.714  0.0287  0.1415 -0.2710
  303poe     o2 3626   1.705   6.142   1.586 -0.2810 -0.4583  0.0391
  303poe    c23 3627   1.805   6.198   1.504  0.1600 -0.7290  0.3865
  303poe    c23 3628   1.847   6.106   1.387 -0.3282 -0.7086  0.1941
  303poe     o2 3629   1.720   6.086   1.330 -0.2866  0.1694 -0.2262
  303poe    c23 3630   1.723   5.969   1.250 -0.1897 -0.2365  0.3638
  303poe    c23 3631   1.576   5.933   1.219 -0.0604 -0.2282 -0.2620
  303poe     o2 3632   1.530   5.924   1.352  0.3967 -0.7543 -0.1362
  303poe    c23 3633   1.395   5.946   1.382  0.5220  0.3829 -0.3791
  303poe    c23 3634   1.364   6.097   1.386  0.1824  0.3028  0.1200
  303poe     o2 3635   1.461   6.145   1.476  0.3689  0.2862 -0.0731
  303poe    c31 3636   1.386   6.245   1.541 -0.0344 -0.4853  0.6738
  304poe    c31 3637   5.033   5.033   4.397  0.5795 -1.1078  0.4568
  304poe     o2 3638   5.157   5.037   4.331  0.2141  0.2387 -0.1916
  304poe    c23 3639   5.225   4.916   4.355  0.0485  0.2556  0.3935
  304poe    c23 3640   5.352   4.906   4.268  0.0088  0.0185  0.3601
  304poe     o2 3641   5.384   5.040   4.237 -0.2965 -0.1528 -0.7468
  304poe    c23 3642   5.500   5.054   4.159  0.4921 -0.1027  0.4161
  304poe    c23 3643   5.475   5.197   4.108 -0.1085 -0.2736  0.2225
  304poe     o2 3644   5.337   5.212   4.084 -0.0629  0.0219  0.1408
  304poe    c23 3645   5.298   5.332   4.021 -0.8819 -0.7178 -0.7841
  304poe    c23 3646   5.145   5.337   4.038 -0.7338  0.7283  0.3526
  304poe     o2 3647   5.108   5.280   4.162 -0.4505  0.2158  0.2042
  304poe    c31 3648   4.982   5.335   4.194 -0.3297  0.2848  0.5648
  305poe    c31 3649   3.333   6.419   0.698  1.0475 -0.5593 -0.0145
  305poe     o2 3650   3.287   6.528   0.622  0.3274 -0.5111  0.4779
  305poe    c23 3651   3.321   6.658   0.666  0.1613 -0.2145 -0.2539
  305poe    c23 3652   3.293   6.751   0.547  0.2399  0.3748  0.1867
  305poe     o2 3653   3.167   6.720   0.491  0.2310  0.2257  0.2898
  305poe    c23 3654   3.159   6.786   0.367 -0.4021  0.1544  0.2926
  305poe    c23 3655   3.013   6.785   0.318 -0.1977  0.7520 -0.3442
  305poe     o2 3656   2.985   6.647   0.327  0.1839  0.7241  0.5112
  305poe    c23 3657   2.865   6.626   0.397  0.3057 -0.3608  0.4091
  305poe    c23 3658   2.860   6.484   0.457  0.1865 -0.2369  0.6952
  305poe     o2 3659   2.986   6.466   0.519  0.3813 -0.4658  0.2442
  305poe    c31 3660   2.984   6.342   0.587 -0.3679  0.2011  1.4941
  306poe    c31 3661   6.672   4.490   3.191 -0.6750  0.0632  0.3944
  306poe     o2 3662   6.687   4.350   3.187 -0.1404  0.1438 -0.7100
  306poe    c23 3663   6.593   4.281   3.266  0.8098 -0.4751 -0.1004
  306poe    c23 3664   6.623   4.133   3.294 -0.6671 -0.7880 -0.1186
  306poe     o2 3665   6.661   4.071   3.174  0.1172 -0.4794 -0.0362
  306poe    c23 3666   6.736   3.955   3.201  0.2347 -0.4707 -0.3226
  306poe    c23 3667   6.831   3.934   3.081  0.1285 -0.2712 -0.4421
  306poe     o2 3668   6.840   4.065   3.029 -0.7483 -0.1804 -0.3741
  306poe    c23 3669   6.919   4.074   2.913 -0.4608  0.3420 -0.1395
  306poe    c23 3670   6.970   4.219   2.907  0.2557  0.0766 -0.6768
  306poe     o2 3671   6.859   4.303   2.931 -0.1239 -0.5073 -0.3574
  306poe    c31 3672   6.888   4.435   2.889 -0.7496 -0.2598 -0.0222
  307poe    c31 3673   3.794   0.965   5.459 -0.1380  0.1046 -0.0162
  307poe     o2 3674   3.857   0.924   5.339 -0.0135  0.3230 -0.0251
  307poe    c23 3675   3.801   0.967   5.217 -1.2531  0.5590  0.5996
  307poe    c23 3676   3.691   0.897   5.136 -0.0848  0.0298 -0.5842
  307poe     o2 3677   3.728   0.764   5.104 -0.4703 -0.1684 -0.2144
  307poe    c23 3678   3.684   0.677   5.206  0.3143 -0.0924  0.1961
  307poe    c23 3679   3.720   0.539   5.149  0.4887  0.1315 -0.2383
  307poe     o2 3680   3.687   0.526   5.012  0.1561  0.7294 -0.2167
  307poe    c23 3681   3.710   0.394   4.968 -0.5151  0.4221  0.3133
  307poe    c23 3682   3.691   0.402   4.815  0.6176 -0.1387  0.1300
  307poe     o2 3683   3.804   0.478   4.777  0.7188 -0.1447  0.4179
  307poe    c31 3684   3.827   0.464   4.639  0.7401 -0.0352  0.4094
  308poe    c31 3685   2.515   5.409   6.145  0.0566 -0.2746  0.5759
  308poe     o2 3686   2.581   5.292   6.105  0.0419  0.0476 -0.4374
  308poe    c23 3687   2.618   5.315   5.971  0.8002 -0.4984 -0.3328
  308poe    c23 3688   2.562   5.196   5.890  0.0432 -0.1489 -0.3311
  308poe     o2 3689   2.570   5.080   5.970  0.2973  0.1563  0.0969
  308poe    c23 3690   2.509   4.967   5.910  0.6541 -0.1546  0.3179
  308poe    c23 3691   2.383   4.928   5.989  0.3639 -0.1613 -0.1465
  308poe     o2 3692   2.422   4.952   6.122 -0.1753  0.0776 -0.0270
  308poe    c23 3693   2.318   4.938   6.215 -0.0729 -0.2383  0.0386
  308poe    c23 3694   2.356   5.002   6.350  0.7596 -0.1980 -0.2113
  308poe     o2 3695   2.426   5.120   6.316  0.0779  0.1958 -0.2590
  308poe    c31 3696   2.435   5.208   6.426  0.0441 -0.5605  0.3628
  309poe    c31 3697   0.324   5.650   3.009  0.0018  0.1142  0.7449
  309poe     o2 3698   0.324   5.544   3.102 -0.6187 -0.5756 -0.0278
  309poe    c23 3699   0.198   5.545   3.167 -0.5334  0.0127  0.1340
  309poe    c23 3700   0.190   5.413   3.247  0.6940  0.0248  0.2975
  309poe     o2 3701   0.232   5.328   3.143  0.0986  0.2608 -0.1396
  309poe    c23 3702   0.240   5.190   3.172 -0.2168  0.3566  0.4247
  309poe    c23 3703   0.373   5.166   3.246  0.0899 -0.0324 -0.2376
  309poe     o2 3704   0.468   5.233   3.166  0.2780 -0.6639 -0.5480
  309poe    c23 3705   0.604   5.231   3.204  0.2118  0.4652 -0.2129
  309poe    c23 3706   0.701   5.313   3.118 -0.0564  0.0795 -0.8897
  309poe     o2 3707   0.631   5.425   3.069 -0.5250  0.0489 -0.2964
  309poe    c31 3708   0.723   5.492   2.986 -0.4640  0.3392  0.0054
  310poe    c31 3709   1.434   4.175   5.565 -0.6115 -0.2587 -0.6974
  310poe     o2 3710   1.539   4.153   5.473  0.1374 -0.3186  0.1599
  310poe    c23 3711   1.505   4.098   5.348 -0.2586  0.2079  0.0277
  310poe    c23 3712   1.638   4.067   5.278  0.1028  0.3301  0.6546
  310poe     o2 3713   1.728   3.986   5.350  0.0569  0.2605  0.6333
  310poe    c23 3714   1.859   3.995   5.297 -0.0799 -0.3947  0.1785
  310poe    c23 3715   1.923   4.097   5.392 -0.2941  0.0455 -0.1452
  310poe     o2 3716   1.878   4.058   5.520 -0.1670  0.4653  0.0269
  310poe    c23 3717   1.934   4.141   5.620  0.0771  0.0073  0.2711
  310poe    c23 3718   1.859   4.084   5.742 -0.2600 -0.1599 -0.0129
  310poe     o2 3719   1.722   4.073   5.710 -0.1507  0.1206 -0.5925
  310poe    c31 3720   1.667   4.047   5.837 -0.6304  0.6245 -0.6911
  311poe    c31 3721   0.277   2.208   3.127  0.4552 -0.1979  0.3584
  311poe     o2 3722   0.224   2.084   3.087 -0.1871  0.3755 -0.5974
  311poe    c23 3723   0.088   2.080   3.124  0.0337 -0.0186  0.1890
  311poe    c23 3724   0.014   1.977   3.037 -0.3770  0.0717  0.4284
  311poe     o2 3725   0.090   1.858   3.038 -0.1115  0.2423  0.3654
  311poe    c23 3726   0.012   1.742   3.024  0.0738  0.0426  0.9784
  311poe    c23 3727   0.101   1.632   2.964 -0.2125  0.3721 -0.0751
  311poe     o2 3728   0.232   1.657   3.012 -0.3292  0.1770  0.3442
  311poe    c23 3729   0.277   1.577   3.119  0.3742  0.0398 -0.0506
  311poe    c23 3730   0.426   1.542   3.107  0.4980  0.6960 -0.4574
  311poe     o2 3731   0.474   1.476   2.992 -0.1920 -0.8888  0.1251
  311poe    c31 3732   0.606   1.427   3.007 -0.0954 -0.7926 -0.3616
  312poe    c31 3733   4.941   4.715   6.641  0.2347 -0.5062 -0.1954
  312poe     o2 3734   4.880   4.627   6.732  0.2163 -0.0317  0.2563
  312poe    c23 3735   4.871   4.690   6.858  0.6754 -0.2600  0.4052
  312poe    c23 3736   4.793   4.600   6.956 -0.2464  0.4810  0.3685
  312poe     o2 3737   4.673   4.579   6.884  0.3098 -0.2373 -0.3738
  312poe    c23 3738   4.606   4.472   6.945 -0.3626  0.2436 -0.2560
  312poe    c23 3739   4.489   4.443   6.849 -0.0868 -0.6709 -0.3291
  312poe     o2 3740   4.549   4.460   6.723 -0.3167  0.6396 -0.2793
  312poe    c23 3741   4.466   4.449   6.609 -0.2621  0.6772 -0.3228
  312poe    c23 3742   4.580   4.445   6.507 -0.5985 -0.0700 -0.6741
  312poe     o2 3743   4.676   4.547   6.523 -0.1960 -0.4297 -0.7599
  312poe    c31 3744   4.755   4.556   6.406  0.1154  0.2007 -0.5044
  313poe    c31 3745   5.974   3.072   2.769 -0.6297 -0.4710  0.4041
  313poe     o2 3746   6.113   3.052   2.784 -0.4653  0.3728  0.0702
  313poe    c23 3747   6.171   2.957   2.697  0.1021  0.4022  0.4128
  313poe    c23 3748   6.319   2.944   2.737  0.2419  1.1823  0.1706
  313poe     o2 3749   6.327   2.938   2.877 -0.4906 -0.8210  0.1705
  313poe    c23 3750   6.463   2.954   2.914 -0.5425 -0.2501  0.1298
  313poe    c23 3751   6.449   3.039   3.042  0.0642  0.2898 -0.1605
  313poe     o2 3752   6.353   3.136   3.007 -0.3666 -0.1508 -0.2178
  313poe    c23 3753   6.340   3.227   3.114  0.3152 -0.0222 -0.2395
  313poe    c23 3754   6.193   3.236   3.159  0.1097  0.9522 -1.0656
  313poe     o2 3755   6.110   3.203   3.050 -0.4787 -0.3088 -0.2558
  313poe    c31 3756   5.975   3.212   3.089 -0.4274  0.6348 -0.2710
  314poe    c31 3757   1.488   1.115   1.385  0.8805 -0.4532 -0.4066
  314poe     o2 3758   1.440   1.059   1.505  0.3238  0.5584 -0.1452
  314poe    c23 3759   1.479   1.134   1.619 -0.7901  0.6343  0.1934
  314poe    c23 3760   1.397   1.091   1.743 -0.0935 -0.1994  0.3764
  314poe     o2 3761   1.405   0.953   1.772  0.4422 -0.0998  0.7238
  314poe    c23 3762   1.317   0.925   1.878 -0.8061 -0.0769 -0.2732
  314poe    c23 3763   1.279   0.778   1.851  0.0794 -0.5890  1.1608
  314poe     o2 3764   1.274   0.769   1.711  0.0700  0.6508  1.0698
  314poe    c23 3765   1.262   0.637   1.664  0.2392  1.0243 -0.0772
  314poe    c23 3766   1.261   0.637   1.510 -0.5472  0.4257 -0.0822
  314poe     o2 3767   1.357   0.726   1.458  0.3108 -0.2118  0.3722
  314poe    c31 3768   1.335   0.717   1.318 -0.1555 -0.6879  0.4723
  315poe    c31 3769   5.411   4.481   1.454 -0.1997  0.6388 -0.1913
  315poe     o2 3770   5.539   4.503   1.510 -0.1292  0.0930 -0.1342
  315poe    c23 3771   5.632   4.456   1.415 -0.2744  0.3760 -0.4156
  315poe    c23 3772   5.765   4.531   1.434 -0.0374 -0.1041 -0.1604
  315poe     o2 3773   5.783   4.541   1.573  0.1234  0.0938 -0.1953
  315poe    c23 3774   5.909   4.599   1.600 -0.0105  0.3648 -0.1484
  315poe    c23 3775   5.879   4.648   1.743  0.3471 -0.2006  0.1251
  315poe     o2 3776   5.758   4.721   1.738  0.4987  0.0299 -0.3371
  315poe    c23 3777   5.702   4.754   1.863  0.2799  1.2392 -0.7442
  315poe    c23 3778   5.558   4.800   1.834 -0.2087  0.1150 -0.1550
  315poe     o2 3779   5.502   4.698   1.754 -0.5083 -0.1287  0.3563
  315poe    c31 3780   5.369   4.738   1.728 -0.4155  0.0970  0.2317
  316poe    c31 3781   4.046   1.358   1.057 -0.3780 -0.6210  0.1094
  316poe     o2 3782   3.935   1.441   1.032  0.0385 -0.1992 -0.3748
  316poe    c23 3783   3.842   1.356   0.967 -0.2486 -0.2188  0.0618
  316poe    c23 3784   3.719   1.447   0.950 -0.1640 -0.1663 -0.2650
  316poe     o2 3785   3.772   1.566   0.894 -0.1612  0.0614  0.2166
  316poe    c23 3786   3.680   1.645   0.824 -0.2162  0.3370  0.5961
  316poe    c23 3787   3.762   1.751   0.748 -0.8304  0.2433 -0.2252
  316poe     o2 3788   3.846   1.825   0.835  0.0649 -0.2734 -0.6325
  316poe    c23 3789   3.982   1.817   0.798  0.2810 -0.0224  0.0959
  316poe    c23 3790   4.084   1.831   0.913  0.1805  0.4136  0.1317
  316poe     o2 3791   4.048   1.715   0.984  0.3483 -0.0811 -0.5795
  316poe    c31 3792   4.145   1.719   1.086 -0.1835 -0.5049 -0.0478
  317poe    c31 3793   6.528   6.590   5.044  0.8825 -0.8437  0.6525
  317poe     o2 3794   6.398   6.538   5.055  0.5129 -0.1339 -0.2125
  317poe    c23 3795   6.330   6.593   5.166 -0.1372  0.1221 -0.7318
  317poe    c23 3796   6.213   6.510   5.223 -0.1346  0.3332 -0.4179
  317poe     o2 3797   6.176   6.434   5.110 -0.6428  0.0328 -0.0535
  317poe    c23 3798   6.087   6.328   5.136 -0.1135 -0.4952 -0.3723
  317poe    c23 3799   6.030   6.261   5.010 -0.1809  0.3498 -0.7975
  317poe     o2 3800   6.123   6.249   4.904  0.4215  0.0847 -0.2428
  317poe    c23 3801   6.053   6.198   4.793 -0.1786  0.0481  0.1442
  317poe    c23 3802   6.146   6.128   4.692  0.0271  0.2000  0.2291
  317poe     o2 3803   6.077   6.061   4.589  0.6341 -0.3549  0.1813
  317poe    c31 3804   6.148   5.964   4.515  0.2207  0.4608 -1.3193
  318poe    c31 3805   3.440   0.858   3.369 -0.0840 -0.0072 -0.5048
  318poe     o2 3806   3.467   0.855   3.507  0.2880  0.4748 -0.5638
  318poe    c23 3807   3.352   0.837   3.587  0.6702  0.2780 -0.0563
  318poe    c23 3808   3.358   0.828   3.741 -0.3998 -0.1242 -0.0291
  318poe     o2 3809   3.463   0.915   3.777 -0.3861 -0.0690 -0.2024
  318poe    c23 3810   3.549   0.858   3.873  0.0794  0.8086 -0.0868
  318poe    c23 3811   3.673   0.949   3.889 -0.0532  0.9351  0.2186
  318poe     o2 3812   3.723   0.963   3.758 -0.3867  0.8737  0.0829
  318poe    c23 3813   3.858   1.004   3.748 -0.2826  0.5522  0.1666
  318poe    c23 3814   3.874   0.981   3.597  0.0617  0.2329  0.2503
  318poe     o2 3815   3.764   0.969   3.509  0.4007 -0.8134 -0.0473
  318poe    c31 3816   3.802   0.945   3.376  0.1516  0.4997 -0.3725
  319poe    c31 3817   6.088   0.517   1.132 -0.8067  0.1530 -0.0088
  319poe     o2 3818   6.086   0.611   1.026 -0.1404 -0.2277 -0.3700
  319poe    c23 3819   6.007   0.725   1.054 -0.0193 -0.2716  0.1736
  319poe    c23 3820   6.085   0.850   1.010  0.1982 -0.4184  0.1386
  319poe     o2 3821   6.125   0.822   0.878 -0.0973 -0.3510  0.0333
  319poe    c23 3822   6.229   0.911   0.842 -0.3332 -0.2239 -0.3368
  319poe    c23 3823   6.244   0.878   0.693 -0.2929  0.0016 -0.3826
  319poe     o2 3824   6.256   0.737   0.688 -0.7318 -0.0490  0.0072
  319poe    c23 3825   6.186   0.687   0.576 -0.2754 -0.0405 -0.2829
  319poe    c23 3826   6.132   0.549   0.617 -0.2508  0.0403  0.0266
  319poe     o2 3827   6.072   0.542   0.745 -0.1021  0.2794  0.1100
  319poe    c31 3828   6.044   0.404   0.755  0.7620  0.0855 -0.0852
  320poe    c31 3829   0.873   4.751   4.539 -0.0716 -0.8332 -0.6887
  320poe     o2 3830   0.922   4.776   4.669 -0.4949  0.4091 -0.7494
  320poe    c23 3831   0.946   4.913   4.693 -0.8114  0.3361  0.0213
  320poe    c23 3832   0.830   4.953   4.786 -0.3405  0.2712  0.6388
  320poe     o2 3833   0.871   4.877   4.898  0.2354 -0.5563 -0.1203
  320poe    c23 3834   0.769   4.859   4.994 -0.5830 -0.7258 -0.9989
  320poe    c23 3835   0.786   4.719   5.055  0.0866 -0.3182 -0.2275
  320poe     o2 3836   0.782   4.638   4.940 -0.5323 -0.2071 -0.2876
  320poe    c23 3837   0.758   4.500   4.956 -0.4860 -0.1954 -0.1161
  320poe    c23 3838   0.795   4.439   4.820 -0.1158  0.0439 -0.1259
  320poe     o2 3839   0.912   4.493   4.762  0.0062  0.2810  0.3416
  320poe    c31 3840   0.975   4.387   4.693  0.4976  0.6570  0.2122
  321poe    c31 3841   0.689   6.370   0.839  0.0816 -0.4992  0.5711
  321poe     o2 3842   0.775   6.286   0.912  0.3523 -0.2179  0.5766
  321poe    c23 3843   0.906   6.338   0.903  0.2065  0.2201  0.9348
  321poe    c23 3844   1.012   6.228   0.916 -0.3342 -0.3796  0.3602
  321poe     o2 3845   0.976   6.127   1.008 -0.4894 -0.4702  0.2008
  321poe    c23 3846   1.046   6.011   0.970  0.2873 -0.0201  0.2418
  321poe    c23 3847   0.962   5.892   1.018  0.3416  0.1290  0.7131
  321poe     o2 3848   0.826   5.931   1.011  0.3385  0.0034 -0.0118
  321poe    c23 3849   0.764   5.919   1.137  0.7128  0.5423  0.2332
  321poe    c23 3850   0.772   6.040   1.232 -0.1622  0.5585  0.2918
  321poe     o2 3851   0.723   6.138   1.143  0.1038 -0.0758 -0.5740
  321poe    c31 3852   0.694   6.257   1.214 -0.2734 -0.2970 -0.3538
  322poe    c31 3853   2.619   1.213   0.010 -0.0220  0.0763 -0.0877
  322poe     o2 3854   2.530   1.295  -0.063 -0.4177 -0.3027 -0.0417
  322poe    c23 3855   2.603   1.375  -0.153 -0.1056 -0.3338  0.1787
  322poe    c23 3856   2.515   1.472  -0.235  0.4438  0.1357  0.1426
  322poe     o2 3857   2.420   1.527  -0.147  0.4318 -0.0107  0.2211
  322poe    c23 3858   2.313   1.591  -0.212 -0.2057 -1.1065  0.1764
  322poe    c23 3859   2.217   1.603  -0.092  0.5855 -0.5735  0.7662
  322poe     o2 3860   2.214   1.475  -0.033 -0.2696 -0.5884  0.6994
  322poe    c23 3861   2.111   1.390  -0.079 -0.2893 -0.0332 -0.3116
  322poe    c23 3862   2.128   1.247  -0.024 -0.8192  0.1000  0.2038
  322poe     o2 3863   2.268   1.232  -0.026 -0.8372 -0.1340  0.5087
  322poe    c31 3864   2.303   1.106   0.026  0.5451 -0.0911 -0.2723
  323poe    c31 3865   2.374   4.115   2.206  1.0063 -0.1593 -0.4142
  323poe     o2 3866   2.420   4.237   2.259  0.1126  0.1570 -0.3352
  323poe    c23 3867   2.559   4.223   2.283  0.0260  0.1466  0.1637
  323poe    c23 3868   2.609   4.354   2.347  0.0085  0.1110  0.2508
  323poe     o2 3869   2.564   4.467   2.276  0.3773 -0.6251 -1.1849
  323poe    c23 3870   2.663   4.535   2.202  0.5506 -0.0403 -0.4287
  323poe    c23 3871   2.589   4.625   2.101 -0.0649 -0.1782 -0.1016
  323poe     o2 3872   2.471   4.549   2.081  0.1200 -0.5257  0.1088
  323poe    c23 3873   2.398   4.585   1.965 -0.1175 -0.0527  0.4005
  323poe    c23 3874   2.257   4.536   2.004 -0.3027 -0.0003 -0.2063
  323poe     o2 3875   2.275   4.409   2.062 -0.5182  0.1189  0.1229
  323poe    c31 3876   2.160   4.329   2.084 -0.2918 -0.4097 -0.5763
  324poe    c31 3877   0.347   1.861   4.693  0.4486 -0.5089 -0.3362
  324poe     o2 3878   0.280   1.885   4.815  0.7016 -0.5289 -0.1929
  324poe    c23 3879   0.262   1.780   4.907  0.4572 -0.3965 -0.0903
  324poe    c23 3880   0.233   1.829   5.050 -0.1067  0.3453 -0.4544
  324poe     o2 3881   0.107   1.883   5.085 -0.3127 -0.1514 -0.4280
  324poe    c23 3882   0.070   1.849   5.217  0.1805  0.4365 -0.1324
  324poe    c23 3883  -0.075   1.899   5.236  0.1699  0.1767  0.4850
  324poe     o2 3884  -0.082   2.027   5.178  0.0601 -0.0703 -0.0455
  324poe    c23 3885  -0.193   2.098   5.228  0.1197  0.0686 -0.1070
  324poe    c23 3886  -0.279   2.145   5.110 -0.0912 -0.4275 -0.1543
  324poe     o2 3887  -0.199   2.212   5.016  0.3155  0.0449  0.5221
  324poe    c31 3888  -0.257   2.337   4.986 -0.3920 -0.3500  0.2280
  325poe    c31 3889   0.566   1.466   5.291  0.2970  0.6144  0.6646
  325poe     o2 3890   0.477   1.514   5.390 -0.7156  0.3515 -0.1019
  325poe    c23 3891   0.491   1.654   5.386 -0.1873  0.3044 -0.0804
  325poe    c23 3892   0.436   1.695   5.524  0.0161 -0.0040  0.0910
  325poe     o2 3893   0.324   1.610   5.528  0.1572 -0.2074 -0.2063
  325poe    c23 3894   0.286   1.631   5.662  0.4286 -0.0615 -0.1518
  325poe    c23 3895   0.231   1.500   5.721  0.2465  0.3363  0.5892
  325poe     o2 3896   0.345   1.416   5.723 -0.1450 -0.1955  0.7764
  325poe    c23 3897   0.295   1.284   5.732  0.4770 -0.4342  0.7460
  325poe    c23 3898   0.372   1.196   5.631 -0.0602  0.0195 -0.0667
  325poe     o2 3899   0.359   1.256   5.504  0.1391  0.1674 -0.0171
  325poe    c31 3900   0.377   1.150   5.412 -0.6847 -0.0331  0.0466
  326poe    c31 3901   0.893   1.260   2.093 -0.4063 -0.1269 -0.3980
  326poe     o2 3902   0.948   1.376   2.151 -0.2671 -0.1386 -0.5046
  326poe    c23 3903   0.882   1.490   2.101 -0.3089 -0.1366 -0.4451
  326poe    c23 3904   0.947   1.618   2.156  0.0661 -0.5352  0.0576
  326poe     o2 3905   0.950   1.638   2.295 -0.1354  0.0182 -0.0117
  326poe    c23 3906   0.961   1.774   2.330 -0.0820  0.1922 -0.6844
  326poe    c23 3907   1.070   1.765   2.438 -0.7819  0.5975  0.0704
  326poe     o2 3908   1.021   1.667   2.528  0.6910 -0.7641 -0.5669
  326poe    c23 3909   1.123   1.618   2.612  0.1707 -0.1873  0.4130
  326poe    c23 3910   1.057   1.487   2.660 -0.4405  0.2146  0.6775
  326poe     o2 3911   1.011   1.413   2.550  0.2847 -0.0265  0.5301
  326poe    c31 3912   1.059   1.281   2.558  0.0607 -0.1768 -0.4350
  327poe    c31 3913   6.570   1.790   6.812 -0.6630 -0.1970 -0.5463
  327poe     o2 3914   6.607   1.922   6.842 -0.6018 -0.4214  0.3917
  327poe    c23 3915   6.496   1.993   6.893 -0.0795  0.3308  0.4932
  327poe    c23 3916   6.556   2.100   6.987  0.1650  0.2889  0.3873
  327poe     o2 3917   6.676   2.120   6.916 -0.2963  0.3120 -0.4085
  327poe    c23 3918   6.751   2.218   6.985  0.7022 -0.4084 -0.4503
  327poe    c23 3919   6.874   2.249   6.897  0.3689 -0.0325 -0.7859
  327poe     o2 3920   6.916   2.128   6.839  1.0125 -0.1902  0.0031
  327poe    c23 3921   6.971   2.138   6.709  0.1451 -0.3192 -0.3838
  327poe    c23 3922   6.953   2.002   6.640 -0.1065 -0.4007 -0.1550
  327poe     o2 3923   6.825   1.947   6.662  0.1984 -0.8686  0.4862
  327poe    c31 3924   6.796   1.840   6.575 -0.3575 -0.2158 -0.1479
  328poe    c31 3925   3.781   0.556   0.068  0.6735  0.0422  0.1834
  328poe     o2 3926   3.832   0.445   0.138 -1.1603 -0.9146  0.0601
  328poe    c23 3927   3.807   0.447   0.276 -1.5964 -0.2920 -0.0275
  328poe    c23 3928   3.835   0.304   0.326 -0.2357 -0.0216  0.0236
  328poe     o2 3929   3.767   0.207   0.250 -0.1682  0.2236 -0.3530
  328poe    c23 3930   3.798   0.071   0.270  0.4423  0.3138 -0.6547
  328poe    c23 3931   3.756  -0.007   0.144  0.1922 -0.2762 -0.2120
  328poe     o2 3932   3.788   0.074   0.034  0.7542 -0.1240  0.0585
  328poe    c23 3933   3.872   0.016  -0.064 -0.2914 -0.6933 -0.5243
  328poe    c23 3934   3.927   0.129  -0.154  0.2418 -0.4266  0.1214
  328poe     o2 3935   3.943   0.238  -0.067  0.3882 -0.5231  0.2143
  328poe    c31 3936   4.025   0.333  -0.131  0.3850 -0.6205  0.0657
  329poe    c31 3937   2.456   5.007   4.876  0.2302 -0.2786  0.3001
  329poe     o2 3938   2.409   4.895   4.805 -0.3738  0.1214  0.0714
  329poe    c23 3939   2.433   4.772   4.868  0.1928  0.1510 -0.0873
  329poe    c23 3940   2.314   4.721   4.952  0.1702 -0.0056 -0.2133
  329poe     o2 3941   2.344   4.601   5.020  0.3591  0.1383 -0.0398
  329poe    c23 3942   2.437   4.604   5.125 -0.3756 -0.3650  0.6348
  329poe    c23 3943   2.491   4.466   5.169  0.1936 -0.2051  0.4562
  329poe     o2 3944   2.379   4.394   5.216  0.0077 -0.2515 -0.0478
  329poe    c23 3945   2.392   4.254   5.228  0.0034 -0.2709 -0.2657
  329poe    c23 3946   2.266   4.168   5.205 -0.2829  0.0732  0.0025
  329poe     o2 3947   2.219   4.187   5.074 -0.3488  0.4055  0.0741
  329poe    c31 3948   2.099   4.119   5.049 -0.2308  0.4171 -0.5462
  330poe    c31 3949   4.320   5.817   1.974  0.3572  0.1595 -0.3703
  330poe     o2 3950   4.255   5.692   1.985  0.9750 -0.1491 -0.1775
  330poe    c23 3951   4.307   5.611   2.087  0.2740  0.4578  0.6711
  330poe    c23 3952   4.185   5.520   2.114  0.2620  0.1732 -0.3206
  330poe     o2 3953   4.166   5.464   1.986 -0.5425  0.1308 -0.1860
  330poe    c23 3954   4.064   5.367   1.978 -0.3457 -0.0700 -0.2718
  330poe    c23 3955   4.024   5.359   1.830 -0.0050 -0.0978 -0.3632
  330poe     o2 3956   4.029   5.491   1.782 -0.3360  0.0961  0.1238
  330poe    c23 3957   4.022   5.512   1.642  0.3810  0.6736  0.1674
  330poe    c23 3958   4.043   5.664   1.627 -0.8790  0.8477  0.0695
  330poe     o2 3959   4.153   5.697   1.708  0.3781 -0.7626 -0.9300
  330poe    c31 3960   4.245   5.781   1.642  0.2215  0.4588  0.3712
  331poe    c31 3961   4.979   0.851   5.513  0.2402 -0.9770  0.7052
  331poe     o2 3962   5.110   0.835   5.466  0.1431 -0.1033  0.1305
  331poe    c23 3963   5.132   0.940   5.373  0.1583  0.1244  0.3887
  331poe    c23 3964   5.263   0.917   5.295  0.1460  0.4793  0.2613
  331poe     o2 3965   5.290   0.999   5.184  0.2654 -0.0220 -0.0814
  331poe    c23 3966   5.401   0.946   5.115  0.3508  0.0514  0.0016
  331poe    c23 3967   5.424   1.012   4.977 -0.3426 -0.8212 -0.5394
  331poe     o2 3968   5.459   1.148   4.980 -0.0701 -0.8967 -0.0742
  331poe    c23 3969   5.410   1.197   4.857 -0.0848 -0.5671  0.0607
  331poe    c23 3970   5.387   1.349   4.852  0.0636 -0.5467 -0.0292
  331poe     o2 3971   5.508   1.421   4.850 -0.2569 -0.0100 -0.2362
  331poe    c31 3972   5.473   1.556   4.874  0.0117 -0.0102  0.1556
  332poe    c31 3973   2.293   2.291   6.048  0.3581  0.3995 -0.1408
  332poe     o2 3974   2.267   2.189   6.142  0.7160 -0.3644 -0.8486
  332poe    c23 3975   2.133   2.149   6.122  0.0642  0.8135  0.8739
  332poe    c23 3976   2.123   2.017   6.201  0.3614  0.1747 -0.1391
  332poe     o2 3977   2.164   2.053   6.331 -0.3677  0.0705  0.1277
  332poe    c23 3978   2.168   1.945   6.421  0.4540 -0.2174 -0.2413
  332poe    c23 3979   2.258   1.990   6.537 -0.0292  0.3545 -0.0854
  332poe     o2 3980   2.352   2.068   6.466  0.1821  0.0336 -0.1614
  332poe    c23 3981   2.471   2.095   6.537  0.0693 -0.2539  0.1401
  332poe    c23 3982   2.564   2.167   6.438 -0.5587 -0.0252 -0.2881
  332poe     o2 3983   2.485   2.266   6.376  0.0159  0.3380 -0.4488
  332poe    c31 3984   2.573   2.353   6.309  0.0161  0.6398 -0.0634
  333poe    c31 3985   0.349   1.754   3.778  0.3029 -0.1607 -0.2054
  333poe     o2 3986   0.267   1.688   3.685  0.0513  0.3064 -0.3196
  333poe    c23 3987   0.171   1.764   3.615 -0.3386  0.4527  0.3621
  333poe    c23 3988   0.161   1.744   3.463  0.0871 -0.5702  0.4578
  333poe     o2 3989   0.275   1.764   3.382 -0.1526  0.1538  0.2945
  333poe    c23 3990   0.363   1.869   3.417  0.0585  0.0616  0.0410
  333poe    c23 3991   0.462   1.886   3.300  0.5641 -0.5021  0.3759
  333poe     o2 3992   0.421   1.898   3.166 -0.0380 -0.5847  0.5484
  333poe    c23 3993   0.527   1.937   3.082 -0.4483  0.0294  0.3102
  333poe    c23 3994   0.495   1.900   2.936  0.3113 -0.0463  0.1568
  333poe     o2 3995   0.356   1.916   2.914  0.4136  0.3932 -0.1834
  333poe    c31 3996   0.319   1.879   2.784 -0.2317  1.2133 -0.2406
  334poe    c31 3997   3.140   1.810   2.976 -0.6467 -0.1114  0.2670
  334poe     o2 3998   3.064   1.920   2.930 -0.1015  0.1237 -0.0731
  334poe    c23 3999   3.114   1.972   2.809  0.3446  0.0969  0.0974
  334poe    c23 4000   2.995   2.062   2.771  0.4240  0.1409 -0.0517
  334poe     o2 4001   2.937   2.107   2.892 -0.6027 -0.0499 -0.4573
  334poe    c23 4002   2.844   2.213   2.887 -0.1430  0.4042  0.3263
  334poe    c23 4003   2.770   2.225   3.021 -1.1952  0.3807 -0.2438
  334poe     o2 4004   2.773   2.103   3.091  0.0404  0.5115 -0.0551
  334poe    c23 4005   2.655   2.026   3.092  0.1916  0.2737  0.5586
  334poe    c23 4006   2.687   1.877   3.072  0.2128  0.3435  0.0386
  334poe     o2 4007   2.791   1.855   2.979 -0.1369  0.4126 -0.3720
  334poe    c31 4008   2.775   1.733   2.911  0.3630  0.1214  0.0262
  335poe    c31 4009   0.874   0.977   1.134 -0.2601 -0.4523  0.5987
  335poe     o2 4010   0.926   1.107   1.111 -0.1945 -0.5422  0.2191
  335poe    c23 4011   1.049   1.124   1.178 -0.3134  0.3092  0.2348
  335poe    c23 4012   1.103   1.266   1.204  0.1002  0.2162 -0.1007
  335poe     o2 4013   1.129   1.340   1.087 -0.8772  0.1006 -0.4037
  335poe    c23 4014   1.139   1.473   1.132 -0.1563 -0.0814 -0.0018
  335poe    c23 4015   1.190   1.557   1.014 -1.5949  0.6928 -0.0940
  335poe     o2 4016   1.136   1.503   0.895 -0.5275 -0.7326  0.0478
  335poe    c23 4017   1.145   1.588   0.783  0.0362 -0.7629  0.0662
  335poe    c23 4018   1.130   1.526   0.643 -0.2109 -0.2354 -0.1443
  335poe     o2 4019   1.241   1.466   0.581 -0.1999 -0.3932  0.0273
  335poe    c31 4020   1.195   1.390   0.471 -0.0270 -0.4586 -0.0002
  336poe    c31 4021   6.683   1.011   2.780 -0.0226  0.1319  0.1935
  336poe     o2 4022   6.794   1.094   2.801  0.2118 -0.1782  0.1912
  336poe    c23 4023   6.775   1.170   2.919  0.2309  0.1324 -0.0049
  336poe    c23 4024   6.910   1.240   2.946  0.3601 -0.0237 -0.2421
  336poe     o2 4025   6.958   1.278   2.819 -0.3274  1.0649 -0.1817
  336poe    c23 4026   7.098   1.273   2.835 -0.4057 -0.1496  0.1953
  336poe    c23 4027   7.151   1.245   2.693  0.8611 -0.1627  0.6559
  336poe     o2 4028   7.061   1.159   2.626  0.4473  0.3998  0.4767
  336poe    c23 4029   7.087   1.127   2.492  0.6298 -0.4172  0.7002
  336poe    c23 4030   6.973   1.030   2.456  0.3828 -0.1736  0.8235
  336poe     o2 4031   6.851   1.071   2.513  0.2631  1.0936 -0.2903
  336poe    c31 4032   6.754   0.992   2.448  0.9780 -0.1802  0.1497
  337poe    c31 4033   6.353   1.795   0.355  0.0439 -0.3842 -0.0769
  337poe     o2 4034   6.318   1.684   0.434  0.3642 -0.7894 -0.4926
  337poe    c23 4035   6.188   1.702   0.488  0.9724 -0.1451  0.8155
  337poe    c23 4036   6.133   1.567   0.539 -0.1251 -0.0713 -0.1309
  337poe     o2 4037   6.247   1.486   0.555 -0.2883 -0.3194 -0.2215
  337poe    c23 4038   6.260   1.353   0.511 -0.2330 -0.3438 -0.1332
  337poe    c23 4039   6.409   1.326   0.485 -0.4437 -0.1205 -1.6839
  337poe     o2 4040   6.463   1.453   0.454  0.6074 -0.0746  0.2177
  337poe    c23 4041   6.601   1.454   0.428  0.5415  0.2374 -0.1260
  337poe    c23 4042   6.650   1.600   0.436 -0.0392  0.4556 -0.5412
  337poe     o2 4043   6.585   1.670   0.540 -0.4738 -0.1703 -0.3883
  337poe    c31 4044   6.658   1.781   0.587  0.0982 -0.6216 -0.2012
  338poe    c31 4045   5.966   6.252   4.362 -0.6612  0.7570 -0.3002
  338poe     o2 4046   5.954   6.168   4.249 -0.4719  0.6528 -0.2426
  338poe    c23 4047   6.071   6.151   4.173 -0.8346  0.0848 -0.6788
  338poe    c23 4048   6.128   6.008   4.163 -0.4388  0.2304 -0.5534
  338poe     o2 4049   6.001   5.949   4.181 -0.3357  0.2281  0.1966
  338poe    c23 4050   6.001   5.809   4.165 -0.3721  0.2262  0.2121
  338poe    c23 4051   5.940   5.742   4.290  0.2184 -0.3184  0.2156
  338poe     o2 4052   5.827   5.825   4.303  0.2907 -0.1940  0.0579
  338poe    c23 4053   5.787   5.806   4.437 -0.5225 -0.3138 -0.2004
  338poe    c23 4054   5.704   5.930   4.475 -0.2592 -0.2168  0.0669
  338poe     o2 4055   5.728   6.024   4.373 -0.2942 -0.4990 -0.2058
  338poe    c31 4056   5.633   6.127   4.395  0.0891 -0.1370 -0.2329
  339poe    c31 4057   3.282   0.229   3.170 -0.3698 -0.2678 -0.7721
  339poe     o2 4058   3.149   0.260   3.207 -0.0361  0.3297 -0.0389
  339poe    c23 4059   3.145   0.313   3.337 -0.2975 -0.2416  0.1905
  339poe    c23 4060   2.998   0.291   3.376 -0.4686  0.4292 -0.0656
  339poe     o2 4061   2.938   0.357   3.267  0.4101  0.6789 -0.4058
  339poe    c23 4062   2.837   0.454   3.283  0.3414  0.5615 -0.1195
  339poe    c23 4063   2.813   0.525   3.149  0.4009  0.5839 -0.1180
  339poe     o2 4064   2.834   0.430   3.046  0.1957 -0.4072  0.7442
  339poe    c23 4065   2.727   0.345   3.011  0.1710  0.0936 -0.4292
  339poe    c23 4066   2.781   0.222   2.937  0.0079  0.0751 -0.5175
  339poe     o2 4067   2.885   0.167   3.015 -0.3523  0.0400 -0.0602
  339poe    c31 4068   2.914   0.041   2.958  0.3481 -0.1235  0.6474
  340poe    c31 4069   0.428   3.380   0.843 -0.0053 -0.5228 -0.3364
  340poe     o2 4070   0.398   3.453   0.726  0.1686  0.2369  0.0843
  340poe    c23 4071   0.524   3.479   0.667  0.5964 -0.5986  0.6144
  340poe    c23 4072   0.516   3.599   0.571 -0.6185 -0.8459  0.3890
  340poe     o2 4073   0.432   3.573   0.461 -0.3903  0.8068 -0.2046
  340poe    c23 4074   0.357   3.685   0.418 -0.3331  0.8112 -0.2917
  340poe    c23 4075   0.213   3.632   0.407  0.0908 -0.3590 -0.3420
  340poe     o2 4076   0.165   3.577   0.528  0.3551  0.7041  0.2616
  340poe    c23 4077   0.027   3.552   0.544  0.5432 -0.2357  0.4766
  340poe    c23 4078   0.006   3.488   0.683 -0.0535 -0.1258  0.4420
  340poe     o2 4079   0.106   3.394   0.718 -0.0213 -0.3590 -0.2507
  340poe    c31 4080   0.055   3.329   0.832  0.3381  0.0222  0.1307
  341poe    c31 4081   6.509   6.324   3.267  1.0570  0.0795 -0.4550
  341poe     o2 4082   6.483   6.388   3.144  0.2771  0.0774 -0.2980
  341poe    c23 4083   6.479   6.281   3.052  0.4742 -0.3348  0.1678
  341poe    c23 4084   6.523   6.320   2.910  1.0597 -0.3136  0.3540
  341poe     o2 4085   6.493   6.456   2.884  0.2997 -0.4494  0.5243
  341poe    c23 4086   6.542   6.499   2.760 -0.4768  0.6157  0.5762
  341poe    c23 4087   6.489   6.644   2.756 -0.1284  0.7248 -0.2939
  341poe     o2 4088   6.511   6.706   2.880  0.4351 -0.0072 -0.0178
  341poe    c23 4089   6.525   6.847   2.880  0.1974  0.0167 -0.0512
  341poe    c23 4090   6.405   6.936   2.842  0.0173  0.0131  0.5004
  341poe     o2 4091   6.304   6.917   2.938 -0.0279  0.4139  0.5343
  341poe    c31 4092   6.195   6.988   2.884  0.2011  0.4561  0.1256
  342poe    c31 4093   5.103   0.022   1.449 -0.9148  0.2140  0.2156
  342poe     o2 4094   5.127   0.155   1.491 -0.0126  0.0638  0.1996
  342poe    c23 4095   5.182   0.167   1.619 -0.0920  0.2835  0.2139
  342poe    c23 4096   5.164   0.307   1.680  0.2321 -0.0381  1.0767
  342poe     o2 4097   5.230   0.390   1.587  0.9386 -0.5785  1.0940
  342poe    c23 4098   5.216   0.526   1.619 -0.3129 -0.3374 -0.3760
  342poe    c23 4099   5.228   0.594   1.481  0.5217 -0.1604 -0.2194
  342poe     o2 4100   5.167   0.506   1.390 -0.0488 -0.0109  0.0134
  342poe    c23 4101   5.168   0.553   1.257  1.0651 -0.8403 -0.2948
  342poe    c23 4102   5.109   0.443   1.166 -0.1257 -0.1531 -0.3817
  342poe     o2 4103   5.114   0.318   1.231  0.1111 -0.0013 -0.1020
  342poe    c31 4104   5.004   0.242   1.187  0.4438 -0.2353 -0.5364
  343poe    c31 4105   2.130   6.215   2.698 -0.2378 -0.3189  0.1434
  343poe     o2 4106   1.997   6.213   2.650 -0.1949 -0.3171  0.0254
  343poe    c23 4107   1.929   6.309   2.728  0.7760  0.5960 -0.2177
  343poe    c23 4108   1.824   6.382   2.642  0.4534 -0.0247 -0.3615
  343poe     o2 4109   1.750   6.293   2.562 -0.2290  0.4556 -0.2849
  343poe    c23 4110   1.694   6.357   2.450 -0.0867  0.0708 -0.5804
  343poe    c23 4111   1.621   6.255   2.360 -0.1286 -0.4036 -0.0152
  343poe     o2 4112   1.714   6.149   2.360  0.0620 -0.2387  0.3894
  343poe    c23 4113   1.644   6.032   2.327 -0.2813 -0.0169  0.3267
  343poe    c23 4114   1.655   5.987   2.180 -0.0919  0.1745  0.2832
  343poe     o2 4115   1.602   6.078   2.086 -0.2903  0.1314  0.3536
  343poe    c31 4116   1.546   5.995   1.987  0.0841 -0.5285  0.6874
  344poe    c31 4117   5.821   2.020   4.926  0.3521  0.0064 -0.2991
  344poe     o2 4118   5.873   2.021   5.057  0.5070 -0.0061 -0.3601
  344poe    c23 4119   5.931   2.150   5.061 -0.5932  0.4837  0.5225
  344poe    c23 4120   5.978   2.192   5.201 -0.0516  0.0636  0.4706
  344poe     o2 4121   5.920   2.115   5.304  0.2281  0.6195  1.0475
  344poe    c23 4122   6.006   2.070   5.407  0.5812 -0.2055  0.4042
  344poe    c23 4123   5.949   1.938   5.460  0.6954 -0.4591 -0.0985
  344poe     o2 4124   5.946   1.842   5.357  0.2196 -0.1250 -0.4011
  344poe    c23 4125   5.891   1.719   5.399 -0.0218  0.1059 -0.0398
  344poe    c23 4126   5.804   1.657   5.288  0.0801 -0.0292 -0.0435
  344poe     o2 4127   5.825   1.712   5.160  0.1592 -0.2815 -0.1404
  344poe    c31 4128   5.779   1.616   5.067 -0.0855 -0.5641  0.2673
  345poe    c31 4129   6.353   0.827   2.042  0.6321 -0.0946  0.2521
  345poe     o2 4130   6.317   0.869   1.912  0.9361  0.2702  0.2828
  345poe    c23 4131   6.411   0.825   1.817  0.3303 -0.3298 -0.0492
  345poe    c23 4132   6.370   0.850   1.671 -0.5725  0.6468  0.3578
  345poe     o2 4133   6.244   0.792   1.647 -0.4777  0.3224  0.6368
  345poe    c23 4134   6.205   0.819   1.514 -0.5484 -0.0141  0.5862
  345poe    c23 4135   6.070   0.752   1.481 -0.4483  0.0110  0.1162
  345poe     o2 4136   5.995   0.771   1.599  0.4546  0.7003  0.6012
  345poe    c23 4137   5.881   0.691   1.621  0.6602  0.2712  0.1335
  345poe    c23 4138   5.911   0.540   1.629  0.6648  0.2674  0.0403
  345poe     o2 4139   5.969   0.487   1.512 -0.3487 -0.1754 -0.2729
  345poe    c31 4140   5.910   0.379   1.443 -0.4609 -0.2402 -0.0768
  346poe    c31 4141   6.205   6.466   0.567  0.3790 -0.1098 -0.1002
  346poe     o2 4142   6.259   6.541   0.674  0.2781 -0.0981 -0.0571
  346poe    c23 4143   6.164   6.641   0.705  0.2061 -0.1172 -0.2136
  346poe    c23 4144   6.239   6.757   0.772 -0.2238 -0.3725  0.7356
  346poe     o2 4145   6.339   6.698   0.851  0.2896  0.0320  0.3992
  346poe    c23 4146   6.436   6.789   0.898  0.5906  0.1306 -0.4103
  346poe    c23 4147   6.545   6.716   0.978  0.4208 -0.0105 -0.3089
  346poe     o2 4148   6.543   6.588   0.919  0.1775 -0.2135  0.1319
  346poe    c23 4149   6.566   6.472   0.996  0.0512 -0.5124 -0.2778
  346poe    c23 4150   6.426   6.424   1.039 -0.1451  0.1136 -0.2143
  346poe     o2 4151   6.342   6.427   0.927 -0.1234  0.1807 -0.2287
  346poe    c31 4152   6.207   6.390   0.947 -0.0947  0.5355  0.6498
  347poe    c31 4153   6.082   3.084   4.656 -0.2225  0.3159  0.1329
  347poe     o2 4154   6.120   2.976   4.574 -0.1136  0.2942  0.2126
  347poe    c23 4155   6.008   2.898   4.539  0.1869  0.1914 -0.5373
  347poe    c23 4156   6.046   2.774   4.456  0.5959  0.2877 -0.5008
  347poe     o2 4157   6.160   2.731   4.525 -0.0714  0.0022  0.4436
  347poe    c23 4158   6.203   2.612   4.462  0.1066  0.1368  0.3111
  347poe    c23 4159   6.338   2.574   4.525  0.2399 -0.3372 -0.2586
  347poe     o2 4160   6.397   2.694   4.567 -0.2129 -0.1189 -0.2431
  347poe    c23 4161   6.467   2.669   4.687  0.2505  0.2509 -0.4334
  347poe    c23 4162   6.448   2.789   4.783  0.2012 -0.0572 -0.0555
  347poe     o2 4163   6.318   2.841   4.766  0.5475  0.6886 -0.4577
  347poe    c31 4164   6.281   2.915   4.880 -0.7230  0.0817 -0.4529
  348poe    c31 4165   0.210   3.389   4.827  0.1512 -0.2440  0.2977
  348poe     o2 4166   0.198   3.337   4.957  0.2988 -0.3218  0.2803
  348poe    c23 4167   0.317   3.337   5.033  0.5040 -0.2964 -0.0405
  348poe    c23 4168   0.293   3.211   5.118  1.1313 -0.1285  0.3912
  348poe     o2 4169   0.322   3.093   5.046  0.0240  0.1180 -0.5013
  348poe    c23 4170   0.286   2.977   5.117  0.0289  0.2924 -0.2112
  348poe    c23 4171   0.318   2.868   5.013  0.3410  0.6430 -0.4867
  348poe     o2 4172   0.457   2.851   4.996  0.3064 -0.0668 -0.1085
  348poe    c23 4173   0.494   2.764   4.891  0.6428  0.1142 -0.1390
  348poe    c23 4174   0.646   2.743   4.907  0.5571  0.0764  0.6585
  348poe     o2 4175   0.695   2.872   4.936  0.0195  0.3936  0.1780
  348poe    c31 4176   0.834   2.874   4.914  0.0550 -0.7137  0.2813
  349poe    c31 4177   3.425   3.494   1.355  0.3445 -0.1556  0.0127
  349poe     o2 4178   3.466   3.538   1.483  0.4624 -0.5979  0.1273
  349poe    c23 4179   3.365   3.511   1.578  0.0435  0.2061 -0.0810
  349poe    c23 4180   3.417   3.587   1.701 -0.3162 -0.2546  0.3651
  349poe     o2 4181   3.558   3.580   1.707 -0.3147  0.0984  0.7496
  349poe    c23 4182   3.607   3.659   1.814  0.4881  0.9816 -0.2487
  349poe    c23 4183   3.757   3.624   1.813  0.2635 -0.0344 -0.4674
  349poe     o2 4184   3.784   3.602   1.676  0.3706  0.8379 -0.5949
  349poe    c23 4185   3.870   3.494   1.650  0.3054  0.4878  0.6130
  349poe    c23 4186   3.877   3.486   1.497 -0.4662  0.7151  0.5599
  349poe     o2 4187   3.752   3.465   1.435 -0.1582  0.4835  0.0043
  349poe    c31 4188   3.769   3.416   1.304  0.8030 -0.3303  0.4178
  350poe    c31 4189   3.883   2.781   1.427 -0.5071  0.2483 -0.5002
  350poe     o2 4190   3.901   2.734   1.559 -0.5087 -0.2374 -0.6688
  350poe    c23 4191   3.871   2.598   1.578 -0.7977 -0.1759 -0.6713
  350poe    c23 4192   3.817   2.579   1.720  0.1540 -0.5830 -0.3553
  350poe     o2 4193   3.915   2.653   1.789 -0.4225 -0.3030  0.1735
  350poe    c23 4194   3.867   2.693   1.916  0.6055  0.2618  0.3962
  350poe    c23 4195   3.947   2.820   1.948  0.5847  0.4395 -0.2301
  350poe     o2 4196   3.950   2.906   1.836 -0.7767  0.7603 -0.0333
  350poe    c23 4197   4.000   3.036   1.857  0.8609  0.1982 -0.3549
  350poe    c23 4198   3.993   3.104   1.720  0.3871  0.8748  0.0047
  350poe     o2 4199   4.044   3.019   1.620 -0.2431  0.4639  0.0285
  350poe    c31 4200   4.073   3.082   1.497  0.3847  0.0983 -0.0131
  351poe    c31 4201   4.909   5.376   2.735 -0.0596  0.6077  0.1508
  351poe     o2 4202   4.987   5.345   2.849 -0.0683 -0.3345 -0.0885
  351poe    c23 4203   4.984   5.208   2.880 -0.0410 -0.3940 -0.3496
  351poe    c23 4204   5.113   5.175   2.957 -0.2686 -0.0232  0.1905
  351poe     o2 4205   5.210   5.253   2.891 -0.1746 -0.1746  0.1505
  351poe    c23 4206   5.343   5.244   2.935  0.0686  0.7414 -0.3767
  351poe    c23 4207   5.403   5.360   2.854  0.4194  0.6414 -0.2616
  351poe     o2 4208   5.313   5.462   2.892 -0.0513 -0.0052  0.3765
  351poe    c23 4209   5.333   5.581   2.819  0.2687 -0.1055  0.2983
  351poe    c23 4210   5.227   5.691   2.840  0.1791  0.0134 -0.7503
  351poe     o2 4211   5.107   5.617   2.841  0.1194  0.1119 -0.5771
  351poe    c31 4212   4.988   5.690   2.822  0.1568  0.2395 -0.3192
  352poe    c31 4213   5.961   4.240   4.183  0.4308  0.0540 -0.3020
  352poe     o2 4214   5.866   4.332   4.233  0.4320 -0.1500  0.0764
  352poe    c23 4215   5.894   4.344   4.371 -0.4793 -0.5170  0.2990
  352poe    c23 4216   5.781   4.432   4.429 -0.1874  0.1348 -0.1023
  352poe     o2 4217   5.802   4.542   4.344 -0.1963 -0.0158 -0.3029
  352poe    c23 4218   5.711   4.648   4.368  0.4818  0.4784  0.1225
  352poe    c23 4219   5.712   4.744   4.248  0.0069 -0.0141 -0.2839
  352poe     o2 4220   5.689   4.665   4.134  0.0992  0.1768 -0.4367
  352poe    c23 4221   5.712   4.728   4.011  0.2896  0.5048 -0.2348
  352poe    c23 4222   5.849   4.684   3.956  0.3258 -0.1344  0.3683
  352poe     o2 4223   5.873   4.549   3.989 -0.0805 -0.2632  0.1408
  352poe    c31 4224   6.000   4.518   3.937 -0.0135  0.8420 -0.3857
  353poe    c31 4225   3.077   4.534   6.460 -0.7307  0.4564  0.9824
  353poe     o2 4226   2.973   4.441   6.444 -0.2263  0.0949 -0.3127
  353poe    c23 4227   3.006   4.387   6.318  0.7176  0.3005 -0.1623
  353poe    c23 4228   2.939   4.249   6.325  0.1358  0.5592 -0.5251
  353poe     o2 4229   2.806   4.291   6.349  0.2584  0.3214  0.6345
  353poe    c23 4230   2.721   4.179   6.337  0.4576  0.1745  0.5891
  353poe    c23 4231   2.600   4.215   6.426  0.1362  0.9904 -0.1710
  353poe     o2 4232   2.624   4.258   6.558  0.4014  0.5687 -0.0823
  353poe    c23 4233   2.511   4.285   6.637  0.0320 -0.3474 -0.2811
  353poe    c23 4234   2.530   4.347   6.777 -1.3572 -0.5690  0.0247
  353poe     o2 4235   2.553   4.486   6.783 -0.5654 -0.6884 -0.1382
  353poe    c31 4236   2.433   4.558   6.791 -0.2256 -0.2103  0.6955
  354poe    c31 4237   3.317   0.651   0.992  0.6631  0.2680  0.3816
  354poe     o2 4238   3.257   0.774   1.024 -0.5241 -0.1016 -0.3865
  354poe    c23 4239   3.136   0.769   1.097 -0.3744  0.4189 -0.1025
  354poe    c23 4240   3.080   0.913   1.103 -0.0432  0.5420  0.0775
  354poe     o2 4241   3.091   0.951   0.968  0.1384 -0.2082 -0.1235
  354poe    c23 4242   2.979   0.938   0.883  0.1088  0.4107 -0.1821
  354poe    c23 4243   3.040   0.935   0.742 -0.0974  0.3045 -0.2693
  354poe     o2 4244   3.161   0.863   0.746 -0.0421  0.4204  0.1224
  354poe    c23 4245   3.238   0.888   0.630 -0.0827 -0.2049 -0.0413
  354poe    c23 4246   3.382   0.844   0.663  0.1774  0.4995 -0.2308
  354poe     o2 4247   3.419   0.893   0.790 -0.5963  0.1136  0.1522
  354poe    c31 4248   3.552   0.862   0.823 -0.2898  0.6992 -0.5026
  355poe    c31 4249   1.226   5.871   6.155 -0.1265 -0.0313 -0.0810
  355poe     o2 4250   1.281   5.897   6.282  0.2864  0.4572 -0.3558
  355poe    c23 4251   1.419   5.869   6.293  0.1506 -0.1986 -0.2910
  355poe    c23 4252   1.463   5.957   6.411  0.2806 -0.6186 -0.0232
  355poe     o2 4253   1.389   5.903   6.518 -0.5205 -0.4859 -0.5024
  355poe    c23 4254   1.453   5.797   6.586 -0.1773 -0.1571 -0.3127
  355poe    c23 4255   1.342   5.726   6.666 -0.1368  0.4308  0.2755
  355poe     o2 4256   1.238   5.714   6.571  0.0900  0.3308  0.0363
  355poe    c23 4257   1.122   5.646   6.613  0.4047 -0.2021  0.0458
  355poe    c23 4258   1.039   5.655   6.484  0.4095  0.2752  0.0780
  355poe     o2 4259   1.025   5.790   6.443  0.7618  0.2594 -0.0924
  355poe    c31 4260   0.920   5.803   6.351  0.2803  0.3722  0.4651
  356poe    c31 4261   3.206   3.266   6.689  1.0477  0.9598  0.7314
  356poe     o2 4262   3.308   3.194   6.756  0.9403  0.3164  0.2182
  356poe    c23 4263   3.268   3.184   6.890 -0.4813 -0.3991 -0.2400
  356poe    c23 4264   3.367   3.096   6.969 -0.5119 -0.0684  0.1757
  356poe     o2 4265   3.392   2.989   6.880  0.4018  0.3894 -0.1312
  356poe    c23 4266   3.489   2.906   6.940  0.0337 -0.7435 -1.0576
  356poe    c23 4267   3.549   2.790   6.859  0.4409 -0.9639 -0.4472
  356poe     o2 4268   3.583   2.839   6.731  0.3146  0.1589 -0.0545
  356poe    c23 4269   3.657   2.734   6.673 -0.4622 -0.6372  0.3708
  356poe    c23 4270   3.726   2.795   6.549 -0.5312  0.0873  0.6828
  356poe     o2 4271   3.831   2.882   6.586  0.8954 -0.9012 -0.9273
  356poe    c31 4272   3.903   2.922   6.472  0.9376 -0.0227 -0.5923
  357poe    c31 4273   3.125   6.849   6.158 -0.1212 -0.5593  0.1317
  357poe     o2 4274   3.078   6.804   6.032 -0.1114  0.1178 -0.1196
  357poe    c23 4275   3.114   6.906   5.942 -0.2814  0.3476  0.0691
  357poe    c23 4276   3.162   6.830   5.817 -0.4756  0.9413 -0.3752
  357poe     o2 4277   3.080   6.717   5.797  0.7295  0.0107 -0.1897
  357poe    c23 4278   2.999   6.715   5.682  0.1622 -0.1743  0.2125
  357poe    c23 4279   2.873   6.633   5.718 -0.1599  0.0636 -0.3495
  357poe     o2 4280   2.866   6.653   5.858  0.5471 -0.2876 -0.2578
  357poe    c23 4281   2.741   6.622   5.917  0.2439  0.4217 -0.5137
  357poe    c23 4282   2.748   6.616   6.070  0.0412 -0.3293 -0.5277
  357poe     o2 4283   2.861   6.551   6.122 -0.5851 -0.9604  0.0712
  357poe    c31 4284   2.868   6.546   6.263  0.4380  0.2196  0.0811
  358poe    c31 4285   3.209   2.987   1.917 -0.2453 -0.5291  0.4229
  358poe     o2 4286   3.074   3.020   1.897  0.0151  0.1943 -0.2063
  358poe    c23 4287   3.050   3.121   1.802 -0.1901  0.1471 -0.2052
  358poe    c23 4288   2.898   3.144   1.793 -0.2671 -0.3365 -0.1925
  358poe     o2 4289   2.843   3.146   1.923 -0.1812 -0.3874 -0.1555
  358poe    c23 4290   2.706   3.112   1.921 -0.2545 -0.2543  1.4376
  358poe    c23 4291   2.679   2.995   2.018 -0.1486 -0.9585  0.6248
  358poe     o2 4292   2.803   2.946   2.063  0.1766 -0.5111  0.2218
  358poe    c23 4293   2.783   2.844   2.158 -0.3627 -0.4540  0.1744
  358poe    c23 4294   2.929   2.820   2.202 -0.2617  0.0524  0.1239
  358poe     o2 4295   3.006   2.938   2.192 -0.2330  0.0645  0.5085
  358poe    c31 4296   3.110   2.925   2.286 -0.3796  0.3517  0.7122
  359poe    c31 4297   1.192   3.754   3.230 -0.5269 -0.2532 -0.2998
  359poe     o2 4298   1.077   3.809   3.289 -0.0482  0.1175  0.3069
  359poe    c23 4299   1.114   3.926   3.358  0.7654 -0.1398  0.3111
  359poe    c23 4300   0.988   3.962   3.440  0.3733 -0.1608 -0.2813
  359poe     o2 4301   0.875   3.971   3.357 -0.0260  0.8232  0.3480
  359poe    c23 4302   0.762   4.035   3.412 -0.1964  0.2893  0.6267
  359poe    c23 4303   0.637   3.988   3.336  0.3187 -0.3042  0.1377
  359poe     o2 4304   0.658   3.848   3.330 -0.2391 -0.3840 -0.0481
  359poe    c23 4305   0.560   3.769   3.267 -0.1616 -0.8084  0.3650
  359poe    c23 4306   0.629   3.710   3.142 -0.0864  0.1820 -0.0706
  359poe     o2 4307   0.752   3.663   3.192  0.1137  0.5007 -0.2582
  359poe    c31 4308   0.754   3.527   3.153 -0.5312  0.1828  0.7634
  360poe    c31 4309   0.501   5.152   3.643  0.3841  0.0077 -0.5655
  360poe     o2 4310   0.594   5.070   3.711  0.1955  0.5675  0.3834
  360poe    c23 4311   0.730   5.105   3.709  0.2210  0.4549  0.0164
  360poe    c23 4312   0.825   4.998   3.767  0.1512  0.5754  0.3553
  360poe     o2 4313   0.962   5.012   3.734  0.0151  0.4179 -0.2924
  360poe    c23 4314   1.047   5.007   3.847  0.1722  0.7376 -0.3945
  360poe    c23 4315   1.193   5.039   3.811  0.2140  0.2262 -0.6976
  360poe     o2 4316   1.260   4.945   3.729  0.3245 -0.5272  0.2379
  360poe    c23 4317   1.361   5.006   3.653  0.0016 -0.4200 -0.1096
  360poe    c23 4318   1.418   4.893   3.564  0.3104 -0.1871 -0.2104
  360poe     o2 4319   1.319   4.814   3.503  0.1413  0.1529 -0.3772
  360poe    c31 4320   1.380   4.746   3.396 -0.3072 -0.5304 -0.2035
  361poe    c31 4321   1.158   0.182   0.350  0.1238  0.4021  0.7392
  361poe     o2 4322   1.073   0.280   0.294 -0.0612  0.0408  0.3849
  361poe    c23 4323   1.130   0.402   0.336  0.4144 -0.0558  0.0333
  361poe    c23 4324   1.045   0.510   0.267 -0.0732 -0.3427  0.1809
  361poe     o2 4325   0.909   0.480   0.291 -0.1867  0.1584  0.1712
  361poe    c23 4326   0.834   0.594   0.256 -0.4292  0.0840  0.4426
  361poe    c23 4327   0.693   0.547   0.213 -0.3850  0.4492 -0.1128
  361poe     o2 4328   0.715   0.413   0.176  0.1891  0.2424  0.9355
  361poe    c23 4329   0.612   0.318   0.163  0.5003  0.0241 -0.0239
  361poe    c23 4330   0.675   0.188   0.110  0.0758 -0.1427 -0.1259
  361poe     o2 4331   0.808   0.163   0.149  0.1374  0.2823 -0.0553
  361poe    c31 4332   0.860   0.036   0.117 -0.6232 -0.1908  0.5598
  362poe    c31 4333   6.634   1.945   1.427 -0.2820 -0.2739 -0.7883
  362poe     o2 4334   6.637   2.045   1.328 -0.5054  0.9993  0.4597
  362poe    c23 4335   6.710   1.981   1.225 -0.9841  0.1306  0.6555
  362poe    c23 4336   6.717   2.078   1.106 -0.2881 -1.2533 -0.4572
  362poe     o2 4337   6.583   2.121   1.113  0.0903 -0.1122  0.0576
  362poe    c23 4338   6.542   2.217   1.019 -0.4995 -0.2714  0.1503
  362poe    c23 4339   6.554   2.364   1.063 -0.8609 -0.2178  0.0757
  362poe     o2 4340   6.565   2.355   1.203 -0.1913 -0.5404  0.0084
  362poe    c23 4341   6.602   2.478   1.261 -0.4477 -0.4292 -0.0588
  362poe    c23 4342   6.623   2.445   1.410  0.1204  0.2194  0.0107
  362poe     o2 4343   6.654   2.308   1.413  0.1818  0.2423  0.5836
  362poe    c31 4344   6.726   2.262   1.525  0.3009  0.1069  0.4529
  363poe    c31 4345   5.659   5.633   1.087  0.2840  0.9493 -0.1311
  363poe     o2 4346   5.752   5.626   1.192  0.2191 -0.1015 -0.1358
  363poe    c23 4347   5.827   5.745   1.203  0.1866 -0.1060  0.1624
  363poe    c23 4348   5.958   5.716   1.280  0.1372 -0.2122  0.2066
  363poe     o2 4349   5.952   5.668   1.412  0.3605  0.0290  0.3059
  363poe    c23 4350   6.072   5.654   1.485  0.0908 -0.0274  0.7369
  363poe    c23 4351   6.027   5.590   1.618  0.0985 -0.3896  0.5666
  363poe     o2 4352   5.949   5.474   1.600 -0.4428  0.0738 -0.1008
  363poe    c23 4353   5.933   5.388   1.710 -0.3935  0.1941  0.0012
  363poe    c23 4354   5.839   5.271   1.674  0.2079 -0.4147  0.3797
  363poe     o2 4355   5.801   5.182   1.777  0.3518 -0.1798  0.6412
  363poe    c31 4356   5.879   5.065   1.781  0.3622 -0.2283 -0.5234
  364poe    c31 4357   6.745   3.838   5.837 -0.0433 -0.2542  0.4622
  364poe     o2 4358   6.724   3.710   5.783 -0.0767 -0.1235  0.1587
  364poe    c23 4359   6.607   3.704   5.705 -0.0991 -0.1003  0.1905
  364poe    c23 4360   6.605   3.567   5.636  0.2544  0.0618 -0.1464
  364poe     o2 4361   6.648   3.467   5.726 -0.1770  0.0439  0.0442
  364poe    c23 4362   6.644   3.337   5.671  0.4117 -0.0791  0.2803
  364poe    c23 4363   6.698   3.247   5.783  0.3669  0.1143  0.4576
  364poe     o2 4364   6.817   3.294   5.842  0.4761 -0.2230  0.5115
  364poe    c23 4365   6.935   3.304   5.766 -0.1161  0.1355 -0.3773
  364poe    c23 4366   7.012   3.417   5.837 -0.6236  0.2234  0.0346
  364poe     o2 4367   6.933   3.531   5.866 -0.5169  0.0507  1.0554
  364poe    c31 4368   7.002   3.611   5.959  0.6575 -0.1655  0.3901
  365poe    c31 4369   0.961   3.287   6.212 -0.3629  0.5900  0.7161
  365poe     o2 4370   0.987   3.236   6.084  0.0295 -0.0878  1.0573
  365poe    c23 4371   1.004   3.100   6.118  1.0483 -0.2759 -0.0936
  365poe    c23 4372   0.980   3.015   5.992 -0.8034 -0.6243  0.4509
  365poe     o2 4373   0.874   3.071   5.918 -0.3234 -0.4566 -0.1268
  365poe    c23 4374   0.844   2.996   5.803  0.4105 -0.4361 -0.3334
  365poe    c23 4375   0.767   3.100   5.720 -0.1696 -0.2739  0.3978
  365poe     o2 4376   0.815   3.227   5.758 -0.0803 -0.1225 -0.2045
  365poe    c23 4377   0.744   3.337   5.708  0.4692  0.2086 -0.2694
  365poe    c23 4378   0.820   3.462   5.756 -0.7236  0.7234  0.3412
  365poe     o2 4379   0.847   3.441   5.893 -0.2479  0.0233  0.1468
  365poe    c31 4380   0.911   3.554   5.949  0.2121 -0.2835  0.2468
  366poe    c31 4381   3.678   4.332   5.696 -0.3382 -0.0487  0.3232
  366poe     o2 4382   3.624   4.328   5.566  0.0622  0.0871  0.1507
  366poe    c23 4383   3.601   4.193   5.534  0.3450  0.2447 -0.7470
  366poe    c23 4384   3.492   4.170   5.428 -0.0231 -0.1348 -0.2949
  366poe     o2 4385   3.488   4.298   5.369 -0.1203  0.1047  0.2320
  366poe    c23 4386   3.406   4.308   5.255  0.0373  0.2347  0.1291
  366poe    c23 4387   3.442   4.447   5.200 -0.1355  0.1843 -0.1138
  366poe     o2 4388   3.489   4.520   5.311  0.6316 -0.3779 -0.0593
  366poe    c23 4389   3.523   4.652   5.277 -0.0810 -0.1053  0.2639
  366poe    c23 4390   3.634   4.693   5.377  0.1211  0.6976 -0.2744
  366poe     o2 4391   3.586   4.640   5.499 -0.2300  1.1203 -0.2279
  366poe    c31 4392   3.668   4.684   5.605  0.3141  0.2702 -0.2873
  367poe    c31 4393   5.038   0.184   4.017  1.1582 -0.2032 -0.2882
  367poe     o2 4394   5.040   0.298   3.935 -0.1009  0.4660  0.5926
  367poe    c23 4395   5.156   0.313   3.856 -0.7946 -0.3402 -0.6129
  367poe    c23 4396   5.154   0.450   3.786 -0.9285 -0.0663 -0.0820
  367poe     o2 4397   5.116   0.549   3.880  0.1059  0.2065  0.0661
  367poe    c23 4398   5.067   0.667   3.822 -0.0840  0.3385  0.4947
  367poe    c23 4399   4.923   0.653   3.767  0.0305  0.7119  0.0892
  367poe     o2 4400   4.848   0.584   3.865 -0.2331  0.0339 -0.5816
  367poe    c23 4401   4.729   0.527   3.816 -0.7285  0.4301  0.1493
  367poe    c23 4402   4.673   0.423   3.914  0.7177 -0.6966 -0.1920
  367poe     o2 4403   4.780   0.393   4.001  0.4248 -0.3791  0.2800
  367poe    c31 4404   4.726   0.314   4.105  0.1873 -0.3353  0.1891
  368poe    c31 4405   6.192   0.045   1.299 -0.5702  0.1191  0.3738
  368poe     o2 4406   6.250   0.092   1.419  0.1304 -0.0502  0.1038
  368poe    c23 4407   6.297   0.222   1.392  0.5522 -0.1720  0.2471
  368poe    c23 4408   6.332   0.283   1.529 -0.1408 -0.0035  0.3514
  368poe     o2 4409   6.403   0.179   1.591 -0.4203 -0.5957 -0.3091
  368poe    c23 4410   6.380   0.207   1.727 -0.0403 -0.0664 -0.3493
  368poe    c23 4411   6.388   0.074   1.804  0.0778  0.3300  0.3341
  368poe     o2 4412   6.343  -0.027   1.716  0.0645  0.4060  0.2546
  368poe    c23 4413   6.409  -0.148   1.745 -0.7438 -0.0469  0.2218
  368poe    c23 4414   6.349  -0.257   1.654  0.0252  0.1522 -0.5397
  368poe     o2 4415   6.346  -0.204   1.524 -0.1230  0.5880 -0.3615
  368poe    c31 4416   6.351  -0.303   1.424  0.2194  0.0429  0.1905
  369poe    c31 4417   4.041   0.547   2.089 -0.2939 -0.7143  0.0689
  369poe     o2 4418   4.009   0.616   2.208  0.1526 -0.3149 -0.0416
  369poe    c23 4419   4.108   0.715   2.225 -0.1698 -0.0213  0.1280
  369poe    c23 4420   4.055   0.795   2.346 -0.0363  0.2375  0.0148
  369poe     o2 4421   4.029   0.700   2.446  0.1898 -0.1620 -0.3022
  369poe    c23 4422   3.961   0.776   2.544 -0.2567  0.1351 -0.8357
  369poe    c23 4423   3.855   0.682   2.605  0.7190 -0.5305 -0.1325
  369poe     o2 4424   3.797   0.608   2.500 -0.4704  0.3794 -0.1447
  369poe    c23 4425   3.747   0.486   2.551 -0.5999  0.3871 -0.2555
  369poe    c23 4426   3.679   0.417   2.431 -0.0555 -0.4398 -0.0925
  369poe     o2 4427   3.763   0.412   2.318 -0.2316  0.3099 -0.2631
  369poe    c31 4428   3.693   0.366   2.205 -0.0844 -0.5691 -0.0090
  370poe    c31 4429   2.032   3.025   5.633 -0.0497  0.0966  0.2702
  370poe     o2 4430   2.145   3.108   5.649 -0.2482  0.4204  0.0235
  370poe    c23 4431   2.136   3.225   5.572  0.4089  0.0658 -0.6017
  370poe    c23 4432   2.233   3.338   5.609 -0.0394  0.1247  0.4070
  370poe     o2 4433   2.187   3.415   5.718  0.3773  0.2194  0.5201
  370poe    c23 4434   2.274   3.520   5.751  0.5321  0.1189  0.4305
  370poe    c23 4435   2.219   3.604   5.867 -0.1284  0.3155 -0.0193
  370poe     o2 4436   2.172   3.520   5.970  0.4036 -0.3655 -0.3299
  370poe    c23 4437   2.169   3.604   6.083 -0.0262 -0.7365 -0.0615
  370poe    c23 4438   2.179   3.541   6.223 -0.3872 -0.2624  0.1771
  370poe     o2 4439   2.294   3.460   6.233  0.0807  0.3655 -0.0729
  370poe    c31 4440   2.414   3.526   6.267  0.0136  0.3663  0.1591
  371poe    c31 4441   4.255   2.492   5.520 -0.1145  0.1835 -0.2240
  371poe     o2 4442   4.233   2.593   5.616 -1.0880 -0.4515  0.2436
  371poe    c23 4443   4.136   2.686   5.572 -0.5750  0.1162  0.2922
  371poe    c23 4444   4.164   2.834   5.601  0.2928  0.0762 -0.3074
  371poe     o2 4445   4.195   2.818   5.738 -0.7135 -0.1379 -0.1003
  371poe    c23 4446   4.232   2.943   5.791  0.4116 -0.3352 -0.4048
  371poe    c23 4447   4.279   2.917   5.936  0.2520  0.6135 -0.1728
  371poe     o2 4448   4.368   2.807   5.936  0.2818  0.6366  0.6038
  371poe    c23 4449   4.354   2.730   6.053 -0.2609  0.0021  0.1304
  371poe    c23 4450   4.407   2.589   6.019 -0.3305 -0.0961  0.4226
  371poe     o2 4451   4.348   2.546   5.899 -0.5588  0.5334  0.3013
  371poe    c31 4452   4.405   2.421   5.863 -0.1485  0.6949  0.3813
  372poe    c31 4453   1.876   4.572   4.554  0.3324 -0.1994  0.4519
  372poe     o2 4454   1.744   4.522   4.558  0.1248  0.3304  0.2715
  372poe    c23 4455   1.727   4.439   4.671  0.2801 -0.1298 -0.0456
  372poe    c23 4456   1.586   4.381   4.647  0.6834 -0.7935 -0.8851
  372poe     o2 4457   1.504   4.474   4.581  0.5882 -0.0609  0.2373
  372poe    c23 4458   1.392   4.410   4.523  0.3293  0.3744  0.2507
  372poe    c23 4459   1.308   4.521   4.457  0.3411  0.4393  0.3422
  372poe     o2 4460   1.402   4.580   4.370  0.0868 -0.2963 -0.4493
  372poe    c23 4461   1.374   4.711   4.327  0.0358 -0.4462 -0.8789
  372poe    c23 4462   1.490   4.804   4.286  0.2179 -0.4154 -0.3047
  372poe     o2 4463   1.590   4.788   4.383 -0.0003 -0.1092 -0.0266
  372poe    c31 4464   1.696   4.865   4.333 -0.1610  0.0481 -0.1256
  373poe    c31 4465   5.601   4.709   2.377 -0.1056 -0.2032  0.1374
  373poe     o2 4466   5.631   4.606   2.468  0.1378 -0.2123  0.0472
  373poe    c23 4467   5.763   4.559   2.456  0.1412 -0.1786 -0.0442
  373poe    c23 4468   5.808   4.455   2.560  0.0938 -0.1064  0.0483
  373poe     o2 4469   5.763   4.513   2.680 -0.0958  0.0977 -0.1209
  373poe    c23 4470   5.779   4.421   2.786  0.4552  0.1741 -0.1342
  373poe    c23 4471   5.680   4.469   2.894  0.8980  0.2482  0.2440
  373poe     o2 4472   5.561   4.522   2.840  0.6603 -0.1488  0.3693
  373poe    c23 4473   5.454   4.432   2.857  0.5896 -0.1728 -0.1965
  373poe    c23 4474   5.354   4.516   2.775  0.1196 -0.5477 -0.0076
  373poe     o2 4475   5.404   4.576   2.658 -0.1880  0.2238  0.2518
  373poe    c31 4476   5.293   4.595   2.573  0.3668 -0.2168 -0.5879
  374poe    c31 4477   4.262   1.090   0.170 -0.0238  0.0749 -0.3175
  374poe     o2 4478   4.123   1.084   0.187 -0.0462  0.1846 -0.4660
  374poe    c23 4479   4.085   0.958   0.239  0.2865  0.4355  0.3995
  374poe    c23 4480   3.951   0.947   0.313 -0.0086  0.2338 -0.1578
  374poe     o2 4481   3.871   1.056   0.273 -0.1168  0.0596 -0.4223
  374poe    c23 4482   3.756   1.021   0.199  0.1988 -0.5609 -0.6227
  374poe    c23 4483   3.723   1.145   0.114 -0.2773 -0.3299 -0.1114
  374poe     o2 4484   3.843   1.192   0.056 -0.2232  0.1480  0.3817
  374poe    c23 4485   3.822   1.313  -0.013  0.0864 -0.2776 -0.4751
  374poe    c23 4486   3.961   1.352  -0.066  0.0616  0.2329 -0.1677
  374poe     o2 4487   4.040   1.342   0.050  0.3078  0.0067 -0.3547
  374poe    c31 4488   4.168   1.401   0.040  0.4157 -0.3695 -1.2626
  375poe    c31 4489   5.067   2.024   2.198  0.4557  0.5726 -0.1864
  375poe     o2 4490   4.941   2.068   2.152 -0.3671 -1.1327  0.3249
  375poe    c23 4491   4.957   2.106   2.017 -0.4357 -0.6431  0.4541
  375poe    c23 4492   4.822   2.160   1.966 -0.0498  0.3700  0.4772
  375poe     o2 4493   4.726   2.062   1.999 -0.1217  0.3358  0.1704
  375poe    c23 4494   4.599   2.104   1.958 -0.3860 -0.3008  0.3132
  375poe    c23 4495   4.509   2.050   2.070 -0.3816 -0.1665  0.3816
  375poe     o2 4496   4.576   2.051   2.194  0.0281  0.0743  0.1584
  375poe    c23 4497   4.514   1.961   2.283  0.7481 -0.6939 -0.1017
  375poe    c23 4498   4.594   1.962   2.414 -0.2292 -0.9394  0.5064
  375poe     o2 4499   4.729   1.947   2.375 -0.0492  0.3553  0.5968
  375poe    c31 4500   4.806   1.903   2.484  0.6325 -0.5740 -0.2457
  376poe    c31 4501   0.545   4.191   3.673 -0.1216  0.3409 -0.7303
  376poe     o2 4502   0.544   4.322   3.724 -0.1278  0.1678 -0.2754
  376poe    c23 4503   0.438   4.391   3.662 -0.2405 -0.2105 -0.5092
  376poe    c23 4504   0.453   4.536   3.712 -0.0155 -0.1439 -0.7672
  376poe     o2 4505   0.581   4.590   3.691  0.1273 -0.3936 -0.5475
  376poe    c23 4506   0.606   4.703   3.772  0.7553 -1.0061  0.1293
  376poe    c23 4507   0.634   4.654   3.915  0.2425  0.5333  0.7777
  376poe     o2 4508   0.725   4.547   3.902 -0.3333  0.1125  0.2103
  376poe    c23 4509   0.786   4.514   4.025  0.4775  0.4606 -0.0954
  376poe    c23 4510   0.824   4.365   4.034 -0.1703  0.2970 -0.0357
  376poe     o2 4511   0.758   4.283   3.941  0.3362  0.4377 -0.5198
  376poe    c31 4512   0.843   4.173   3.917  0.0238  0.1548 -0.3392
  377poe    c31 4513   6.324   5.301   0.792 -0.2235 -0.6032  0.1941
  377poe     o2 4514   6.410   5.365   0.701 -0.2054 -0.2645  0.4471
  377poe    c23 4515   6.441   5.275   0.597  0.4813  0.4845 -0.0006
  377poe    c23 4516   6.363   5.333   0.477  0.6489 -0.3571 -0.5243
  377poe     o2 4517   6.400   5.469   0.476  0.4084 -0.2898 -0.2927
  377poe    c23 4518   6.299   5.551   0.421 -0.1339 -0.1060  0.9541
  377poe    c23 4519   6.310   5.683   0.500  0.5581  0.5928 -0.2894
  377poe     o2 4520   6.313   5.649   0.636  0.1041  0.8773 -0.2045
  377poe    c23 4521   6.293   5.758   0.723  0.0855  0.6328  0.0980
  377poe    c23 4522   6.324   5.702   0.863  0.7540 -0.0609 -0.3202
  377poe     o2 4523   6.423   5.601   0.853  0.3680 -0.4754 -0.0275
  377poe    c31 4524   6.507   5.590   0.966 -1.4194 -1.0002  1.2916
  378poe    c31 4525   3.689   3.031   2.799 -0.4353  0.1973 -0.0784
  378poe     o2 4526   3.723   2.928   2.708 -0.1650 -0.1821  0.4498
  378poe    c23 4527   3.768   2.806   2.764  0.3037 -0.2357 -0.0372
  378poe    c23 4528   3.661   2.696   2.743 -0.3105  0.2487  0.4870
  378poe     o2 4529   3.600   2.728   2.619 -0.0280  0.7469  0.4695
  378poe    c23 4530   3.469   2.679   2.600 -0.0077  0.6540  0.5604
  378poe    c23 4531   3.418   2.752   2.474  0.4185 -0.0551 -0.0305
  378poe     o2 4532   3.461   2.883   2.503 -0.4946  0.2362  0.0351
  378poe    c23 4533   3.428   2.974   2.400 -0.2680  0.1788 -0.0888
  378poe    c23 4534   3.508   3.098   2.444  0.0382 -0.0725  0.0700
  378poe     o2 4535   3.637   3.044   2.464  0.2050  0.3383  0.1053
  378poe    c31 4536   3.730   3.145   2.431  0.3694 -0.0899 -0.7817
  379poe    c31 4537   0.275   0.511   1.388  0.0819  0.0058 -0.3813
  379poe     o2 4538   0.365   0.472   1.286  0.8651 -0.1880  0.3673
  379poe    c23 4539   0.363   0.566   1.181  0.4973 -0.4117  0.1696
  379poe    c23 4540   0.494   0.555   1.101  0.6239 -0.2904  0.3597
  379poe     o2 4541   0.545   0.424   1.115  0.5478 -0.2952  0.5893
  379poe    c23 4542   0.672   0.411   1.055  0.1470 -0.1719 -0.2942
  379poe    c23 4543   0.695   0.265   1.097 -0.5339 -0.2085 -0.0319
  379poe     o2 4544   0.659   0.246   1.232  0.0642 -0.1894  0.1356
  379poe    c23 4545   0.742   0.165   1.312  0.1861 -0.0210  0.1807
  379poe    c23 4546   0.734   0.011   1.313  0.0621 -0.0179 -0.1765
  379poe     o2 4547   0.606  -0.044   1.334  0.2336 -0.3533 -0.0137
  379poe    c31 4548   0.589  -0.184   1.329  0.5532 -0.3836 -0.2617
  380poe    c31 4549   5.545   1.837   6.637 -0.1836  0.1828 -0.0132
  380poe     o2 4550   5.573   1.969   6.677  0.4722  0.1409 -0.3210
  380poe    c23 4551   5.612   2.051   6.569  0.0771  0.3233 -0.3275
  380poe    c23 4552   5.621   2.203   6.592  0.5295  0.1993  0.3478
  380poe     o2 4553   5.702   2.206   6.707  0.6673 -0.5672  0.2775
  380poe    c23 4554   5.696   2.322   6.788 -0.4189 -0.5129  0.1310
  380poe    c23 4555   5.786   2.297   6.910  0.1168 -0.2772 -0.2098
  380poe     o2 4556   5.729   2.175   6.952  0.9987 -0.6150  0.0183
  380poe    c23 4557   5.733   2.151   7.091 -0.4932 -0.3573  0.1253
  380poe    c23 4558   5.737   1.998   7.111 -0.8901 -0.3076  0.6041
  380poe     o2 4559   5.637   1.928   7.041 -0.3522 -0.0312 -0.4672
  380poe    c31 4560   5.620   1.791   7.071  0.5235  0.0050  0.2436
  381poe    c31 4561   3.390   4.945   3.394 -0.0185 -0.5848  0.1490
  381poe     o2 4562   3.311   4.934   3.511 -0.0880  0.2807  0.1834
  381poe    c23 4563   3.175   4.958   3.483 -0.0777 -0.0110 -0.1258
  381poe    c23 4564   3.106   4.825   3.520  0.2601 -0.1289  0.0848
  381poe     o2 4565   3.141   4.782   3.649  0.3434 -0.5179 -0.0661
  381poe    c23 4566   3.080   4.671   3.713  0.5588 -0.2748  0.5744
  381poe    c23 4567   3.125   4.702   3.857  0.3658 -0.1373  0.6061
  381poe     o2 4568   3.257   4.752   3.852  0.2557  0.0886 -0.2887
  381poe    c23 4569   3.302   4.822   3.965  1.2358 -0.1095 -0.5463
  381poe    c23 4570   3.447   4.866   3.937  1.0310  0.8549 -0.1315
  381poe     o2 4571   3.426   4.916   3.806 -0.5219  0.0134 -0.2213
  381poe    c31 4572   3.551   4.973   3.777 -0.0632 -0.6442  0.4228
  382poe    c31 4573   1.809   3.624   0.029  0.0547  0.0007 -0.6466
  382poe     o2 4574   1.755   3.696   0.137 -0.0608 -0.5302 -0.3485
  382poe    c23 4575   1.818   3.673   0.261 -0.0088  0.0458 -0.2667
  382poe    c23 4576   1.798   3.802   0.343 -0.0708 -0.3901  0.4066
  382poe     o2 4577   1.667   3.832   0.300  0.4795  0.1987 -0.8853
  382poe    c23 4578   1.614   3.933   0.382 -0.2322 -0.7231 -0.2021
  382poe    c23 4579   1.464   3.908   0.356 -0.4381  0.5923 -0.3580
  382poe     o2 4580   1.461   3.889   0.216  0.4017 -0.0559 -0.2979
  382poe    c23 4581   1.331   3.855   0.172  0.0173  0.3190  0.5196
  382poe    c23 4582   1.350   3.863   0.020 -0.8965 -0.3655  0.3651
  382poe     o2 4583   1.466   3.787  -0.005 -0.5970  0.2162 -0.0375
  382poe    c31 4584   1.454   3.734  -0.135 -0.2538  0.5229 -0.1973
  383poe    c31 4585   5.006   1.011   4.652 -0.0383  0.1104  0.1606
  383poe     o2 4586   5.021   1.091   4.537  0.2369  0.1279  0.2075
  383poe    c23 4587   5.155   1.077   4.494  0.2473 -0.6569  0.4633
  383poe    c23 4588   5.158   1.165   4.368  0.4502 -0.2496  0.7482
  383poe     o2 4589   5.030   1.164   4.308  0.5965 -0.2834  0.4325
  383poe    c23 4590   5.018   1.269   4.215 -0.3047 -0.3658  0.4485
  383poe    c23 4591   4.869   1.272   4.175  0.0322  0.4347 -0.8002
  383poe     o2 4592   4.810   1.260   4.303 -0.0838  0.1614 -0.8804
  383poe    c23 4593   4.670   1.270   4.296 -0.1019  0.1321 -0.5618
  383poe    c23 4594   4.597   1.244   4.430 -0.2552  0.1271 -0.6451
  383poe     o2 4595   4.664   1.129   4.476 -0.8441 -0.0535 -0.2252
  383poe    c31 4596   4.625   1.093   4.606  0.0148 -0.6075 -0.1132
  384poe    c31 4597   2.233   1.036   6.369 -0.4100 -0.1949 -0.3281
  384poe     o2 4598   2.290   1.084   6.249 -0.0015 -0.3808 -0.2085
  384poe    c23 4599   2.350   0.986   6.167  0.3577 -0.0419 -0.3528
  384poe    c23 4600   2.435   1.053   6.057 -0.0987  0.6298 -0.2997
  384poe     o2 4601   2.342   1.131   5.986 -0.1789  0.3456 -0.5092
  384poe    c23 4602   2.421   1.224   5.915  0.1145  0.1576 -0.4280
  384poe    c23 4603   2.330   1.329   5.849 -0.4870 -0.1943 -0.1590
  384poe     o2 4604   2.248   1.371   5.957  0.9275  0.0812  0.8362
  384poe    c23 4605   2.111   1.342   5.940  1.0072  0.0132  0.2675
  384poe    c23 4606   2.051   1.378   6.078  0.3980  0.2035 -0.0442
  384poe     o2 4607   2.119   1.317   6.186 -0.3597  0.2340  0.4543
  384poe    c31 4608   2.027   1.317   6.293 -0.8107  0.1890  0.0731
  385poe    c31 4609   3.613   4.633   1.778  0.6321  1.3080 -0.4601
  385poe     o2 4610   3.564   4.619   1.647  0.2706  0.7318 -0.2671
  385poe    c23 4611   3.663   4.561   1.565  0.2551  0.1294  0.1393
  385poe    c23 4612   3.629   4.575   1.416  0.4754  0.3138  0.1070
  385poe     o2 4613   3.499   4.526   1.392  0.4450  0.2883  0.3237
  385poe    c23 4614   3.499   4.387   1.372  0.0053  0.2552  0.5561
  385poe    c23 4615   3.399   4.312   1.462 -0.4881  0.0583 -0.1397
  385poe     o2 4616   3.377   4.370   1.589 -0.3319 -0.9828  0.3759
  385poe    c23 4617   3.265   4.311   1.651 -0.7597  0.1147  0.6701
  385poe    c23 4618   3.246   4.402   1.773 -0.2306  0.3326  0.5897
  385poe     o2 4619   3.246   4.535   1.726  0.0906 -0.0129 -0.3993
  385poe    c31 4620   3.154   4.607   1.805  0.2104  0.7292 -0.9243
  386poe    c31 4621   4.125   2.372   1.323  0.2681  0.0264 -0.1577
  386poe     o2 4622   4.025   2.409   1.231 -0.2116 -0.2318  0.2541
  386poe    c23 4623   4.049   2.535   1.173  0.5421 -0.7789 -0.6687
  386poe    c23 4624   3.944   2.578   1.069  0.2165 -0.5815 -0.2616
  386poe     o2 4625   3.977   2.476   0.977  0.4739 -0.9464  0.2327
  386poe    c23 4626   3.887   2.450   0.873 -0.1332  0.2978  0.4252
  386poe    c23 4627   3.778   2.348   0.912 -0.6100  0.7436  0.2714
  386poe     o2 4628   3.846   2.258   0.996 -0.1218  0.8482 -0.0088
  386poe    c23 4629   3.754   2.168   1.054  0.0741  0.3958 -0.3912
  386poe    c23 4630   3.833   2.068   1.140 -0.0281  0.4044 -0.2876
  386poe     o2 4631   3.933   2.129   1.218 -0.0378  0.3932 -0.2664
  386poe    c31 4632   4.011   2.033   1.286 -0.2399 -0.0094 -0.6006
  387poe    c31 4633   2.017   4.886   5.704  0.0847  0.5067 -0.0608
  387poe     o2 4634   1.916   4.973   5.750 -0.5659 -0.2914  0.0455
  387poe    c23 4635   1.882   4.948   5.884 -0.5544 -0.3431  0.0386
  387poe    c23 4636   1.748   5.017   5.917 -0.2463  0.2087  0.1531
  387poe     o2 4637   1.738   5.128   5.831 -0.3530 -0.1868 -0.3505
  387poe    c23 4638   1.611   5.189   5.822 -0.0598  0.5991  0.5712
  387poe    c23 4639   1.642   5.297   5.717 -0.2905 -0.2952 -0.4373
  387poe     o2 4640   1.713   5.237   5.611 -0.3003 -0.6890 -0.2209
  387poe    c23 4641   1.772   5.336   5.530  0.1964 -0.3617  0.5330
  387poe    c23 4642   1.882   5.275   5.442  0.1181 -0.1398  0.2811
  387poe     o2 4643   1.942   5.180   5.526  0.7883 -0.0953 -0.1411
  387poe    c31 4644   2.068   5.155   5.468  0.4256 -0.5493 -0.7403
  388poe    c31 4645   2.736   0.531   1.719  0.1172 -0.4908  0.2495
  388poe     o2 4646   2.699   0.433   1.624 -0.3667 -0.2908  0.2293
  388poe    c23 4647   2.751   0.306   1.656  0.0794 -0.1556  0.0463
  388poe    c23 4648   2.759   0.203   1.542  0.1409  0.0533 -0.1398
  388poe     o2 4649   2.797   0.274   1.426  0.0480  0.1813 -0.0915
  388poe    c23 4650   2.831   0.172   1.336 -0.3719 -0.0658  0.0259
  388poe    c23 4651   2.827   0.255   1.207 -0.5227 -0.5848 -0.3089
  388poe     o2 4652   2.712   0.337   1.218  0.0589  0.2363 -0.2189
  388poe    c23 4653   2.592   0.277   1.175 -0.0892  0.2196  0.2110
  388poe    c23 4654   2.468   0.343   1.239 -0.2735 -0.3045  0.3953
  388poe     o2 4655   2.510   0.361   1.372 -0.1301 -0.6266  0.3961
  388poe    c31 4656   2.409   0.412   1.457 -0.0506  0.4631 -0.1479
  389poe    c31 4657   4.969   1.738   1.249 -0.2323 -0.1328 -0.2534
  389poe     o2 4658   4.967   1.682   1.379 -0.2725  0.5016  0.0222
  389poe    c23 4659   4.924   1.549   1.365 -0.8087  0.6452  0.2601
  389poe    c23 4660   4.936   1.470   1.497 -0.1441  0.1821 -0.0688
  389poe     o2 4661   4.878   1.553   1.595 -0.1955  0.6697 -0.5031
  389poe    c23 4662   4.937   1.550   1.723  0.3504  0.4270 -0.7589
  389poe    c23 4663   4.950   1.695   1.774  0.0659  0.0522  0.4194
  389poe     o2 4664   4.995   1.763   1.658  0.2619 -0.2855  0.2967
  389poe    c23 4665   5.029   1.896   1.687 -0.0451 -0.0816 -0.2671
  389poe    c23 4666   5.031   1.995   1.568 -0.4731  0.6243  0.3069
  389poe     o2 4667   4.902   1.982   1.514 -0.2707 -0.1845 -0.0043
  389poe    c31 4668   4.900   2.055   1.393  0.1004  0.3886  0.3278
  390poe    c31 4669   0.231   0.163   4.461  0.2992  0.1397 -0.4479
  390poe     o2 4670   0.167   0.194   4.583  0.5736  0.4152 -0.3737
  390poe    c23 4671   0.263   0.267   4.656  0.1003 -0.0701  0.7465
  390poe    c23 4672   0.241   0.219   4.801 -0.4857  1.1952  1.0908
  390poe     o2 4673   0.110   0.167   4.801 -0.0387  0.0341 -0.0402
  390poe    c23 4674   0.123   0.047   4.875  0.7246  0.0081 -0.2065
  390poe    c23 4675  -0.010  -0.027   4.852  0.8446 -0.2420 -0.0906
  390poe     o2 4676  -0.040  -0.044   4.715 -0.0073 -0.5976  0.1324
  390poe    c23 4677  -0.178  -0.062   4.698  0.0128 -0.2250 -0.4383
  390poe    c23 4678  -0.186  -0.068   4.544 -0.2560 -0.2853 -0.4240
  390poe     o2 4679  -0.084   0.021   4.503 -0.1247 -0.4459 -0.4461
  390poe    c31 4680  -0.076  -0.006   4.365  0.0152 -0.0450 -0.5180
  391poe    c31 4681   1.723   2.633   6.575 -0.4850 -0.0560  0.2367
  391poe     o2 4682   1.703   2.772   6.566 -0.1398 -0.0146  0.0843
  391poe    c23 4683   1.817   2.849   6.537  0.2345 -0.8367 -0.6431
  391poe    c23 4684   1.779   2.962   6.440 -0.0928 -0.1494  0.2736
  391poe     o2 4685   1.674   3.030   6.505 -0.3928  0.0834 -0.4411
  391poe    c23 4686   1.658   3.167   6.476 -0.2932  0.3715  0.8307
  391poe    c23 4687   1.520   3.211   6.422 -0.0556  0.6896  0.4774
  391poe     o2 4688   1.410   3.196   6.509 -0.5493 -0.5288 -0.3280
  391poe    c23 4689   1.283   3.247   6.477 -0.1050  0.9747  0.2293
  391poe    c23 4690   1.169   3.228   6.579 -0.7064  0.0506 -0.5932
  391poe     o2 4691   1.121   3.096   6.591  0.1144 -0.2301 -0.3620
  391poe    c31 4692   1.026   3.071   6.692  0.5556 -0.5291 -0.0173
  392poe    c31 4693   1.789   4.616   2.265 -0.1993  0.1119 -0.0279
  392poe     o2 4694   1.765   4.480   2.291 -0.0220  0.1852  0.5361
  392poe    c23 4695   1.828   4.399   2.194 -0.3963  0.2339  0.2517
  392poe    c23 4696   1.810   4.251   2.231  0.1678 -0.0961 -0.7442
  392poe     o2 4697   1.761   4.256   2.363 -0.6770  0.3612 -1.0678
  392poe    c23 4698   1.710   4.132   2.405 -0.0706  0.6690  0.6905
  392poe    c23 4699   1.705   4.135   2.559  0.5101 -0.3043  0.7437
  392poe     o2 4700   1.649   4.260   2.595 -0.0032 -0.2936 -0.0558
  392poe    c23 4701   1.688   4.296   2.726 -0.6869  0.1602  0.0257
  392poe    c23 4702   1.676   4.450   2.729 -0.3334  0.1996 -0.5463
  392poe     o2 4703   1.749   4.499   2.618 -0.1595  0.1739 -0.4444
  392poe    c31 4704   1.763   4.639   2.634 -0.3047  0.1541 -0.1234
  393poe    c31 4705   3.890   2.540   3.859  0.2827  0.3778 -0.1906
  393poe     o2 4706   4.005   2.570   3.783  0.0373  0.4541 -0.5350
  393poe    c23 4707   4.045   2.456   3.710  0.2688  0.0079  0.2859
  393poe    c23 4708   4.165   2.496   3.622 -0.2562  0.0144 -0.4321
  393poe     o2 4709   4.201   2.400   3.525  0.1255  0.1966 -0.4730
  393poe    c23 4710   4.339   2.376   3.538  0.0332 -0.1507 -0.1147
  393poe    c23 4711   4.391   2.292   3.420 -0.4569 -0.1461 -0.3365
  393poe     o2 4712   4.339   2.162   3.402 -0.3621 -0.1605 -0.5100
  393poe    c23 4713   4.412   2.108   3.294  0.5067 -0.0292 -0.0032
  393poe    c23 4714   4.377   1.958   3.296  0.5699 -0.0516 -0.4889
  393poe     o2 4715   4.237   1.953   3.313  0.5977 -0.1368 -0.2811
  393poe    c31 4716   4.183   1.839   3.248  0.1534  0.5413 -1.1205
  394poe    c31 4717   3.254   0.912   5.466 -0.3270 -0.0250 -0.5089
  394poe     o2 4718   3.274   0.969   5.593 -0.1859 -0.2112 -0.4466
  394poe    c23 4719   3.319   0.864   5.676  0.2345 -0.0468 -0.4619
  394poe    c23 4720   3.329   0.922   5.818 -0.0610  0.2982 -0.5784
  394poe     o2 4721   3.200   0.971   5.846 -0.0750 -0.0321 -0.0421
  394poe    c23 4722   3.182   1.016   5.978 -0.0302  0.0175 -0.0528
  394poe    c23 4723   3.050   1.094   5.974  0.5817  1.0723  0.0299
  394poe     o2 4724   3.040   1.180   5.862 -0.6111  0.2113 -0.5516
  394poe    c23 4725   2.915   1.197   5.800 -0.6384  0.3001 -0.4715
  394poe    c23 4726   2.941   1.256   5.660  0.3950  0.2082 -0.3285
  394poe     o2 4727   3.018   1.155   5.599  0.4269 -0.2794  0.5063
  394poe    c31 4728   3.033   1.182   5.462  0.2051 -0.2584  0.4852
  395poe    c31 4729   1.155   4.697   1.905 -0.0148 -0.2914  0.3331
  395poe     o2 4730   1.129   4.589   1.991 -0.0180 -0.4811  0.0956
  395poe    c23 4731   1.010   4.518   1.964 -0.1832 -0.3698  0.5097
  395poe    c23 4732   0.980   4.429   2.086 -0.8167 -0.6530  0.1527
  395poe     o2 4733   1.101   4.358   2.102 -0.3888  0.0602  0.0903
  395poe    c23 4734   1.120   4.254   2.008 -0.1702 -0.2638  0.4925
  395poe    c23 4735   1.269   4.218   1.992 -0.0870  0.5199 -0.6373
  395poe     o2 4736   1.340   4.340   1.993 -0.2041  0.5924  0.6574
  395poe    c23 4737   1.470   4.337   1.940 -0.2257  0.6420  0.6019
  395poe    c23 4738   1.513   4.481   1.908 -0.4924  0.5185 -0.3565
  395poe     o2 4739   1.492   4.557   2.025 -0.9688 -0.0730 -0.0530
  395poe    c31 4740   1.530   4.693   2.013  0.6966 -0.4850  0.2807
  396poe    c31 4741   4.195   6.197   0.779  0.3972  0.9686  0.0423
  396poe     o2 4742   4.303   6.126   0.724 -0.8721 -1.2280  0.2549
  396poe    c23 4743   4.247   6.012   0.663 -0.5909 -0.6978 -1.0321
  396poe    c23 4744   4.370   5.937   0.610  0.2280  0.2663 -0.5365
  396poe     o2 4745   4.467   6.033   0.575 -0.0164  0.6288 -0.2306
  396poe    c23 4746   4.584   5.969   0.527 -0.2589  0.4737 -0.6265
  396poe    c23 4747   4.669   6.091   0.486  0.2759  0.2046 -0.3244
  396poe     o2 4748   4.634   6.198   0.570  0.3023  0.3618 -0.5143
  396poe    c23 4749   4.714   6.313   0.553  0.6446  0.1050 -0.6472
  396poe    c23 4750   4.663   6.393   0.674  0.6236 -0.2922 -0.3913
  396poe     o2 4751   4.541   6.359   0.737  0.4182  1.1822  0.0436
  396poe    c31 4752   4.496   6.428   0.852 -0.0875 -0.1896  0.6871
  397poe    c31 4753   4.612   5.629   5.978 -0.6561 -0.4005 -0.4473
  397poe     o2 4754   4.581   5.705   5.862  0.1576  0.1019 -0.3439
  397poe    c23 4755   4.441   5.698   5.853  0.1026 -0.6321  0.7714
  397poe    c23 4756   4.415   5.781   5.725  0.2776 -0.9224  0.5471
  397poe     o2 4757   4.514   5.754   5.628 -0.2461 -0.2623 -0.1844
  397poe    c23 4758   4.494   5.796   5.495  0.0394 -0.5232 -0.3112
  397poe    c23 4759   4.642   5.818   5.460 -0.0500  0.5534 -0.0706
  397poe     o2 4760   4.718   5.864   5.569  0.1972  0.1461 -0.0682
  397poe    c23 4761   4.853   5.836   5.538  0.0849 -0.2676 -0.1836
  397poe    c23 4762   4.916   5.855   5.677  1.0290 -0.3884 -0.5837
  397poe     o2 4763   4.831   5.807   5.779  0.9410  0.4083 -0.2662
  397poe    c31 4764   4.891   5.844   5.901  0.4084  1.1019 -0.2087
  398poe    c31 4765   5.627   3.737   0.087  1.0234  0.5430 -0.6594
  398poe     o2 4766   5.519   3.790   0.013  0.0342 -0.4200  0.0464
  398poe    c23 4767   5.533   3.927  -0.019 -0.1728 -0.3786  0.1326
  398poe    c23 4768   5.433   3.970  -0.127  0.9280  0.3593 -0.6148
  398poe     o2 4769   5.350   3.856  -0.134  0.5646  0.5749  0.0729
  398poe    c23 4770   5.258   3.883  -0.239 -0.0500  0.2266  0.5171
  398poe    c23 4771   5.159   3.765  -0.233  0.0841  0.0586 -0.3946
  398poe     o2 4772   5.240   3.658  -0.190 -0.4714  0.0337  0.6379
  398poe    c23 4773   5.158   3.558  -0.133  0.1244 -0.6922  0.2394
  398poe    c23 4774   5.252   3.462  -0.058  0.1425 -0.7422  0.1534
  398poe     o2 4775   5.336   3.550   0.013  0.2241 -0.3341 -0.4349
  398poe    c31 4776   5.311   3.527   0.150 -0.1253  1.0422 -0.2581
  399poe    c31 4777   2.850   3.898   6.014 -0.1273  0.1254 -0.2653
  399poe     o2 4778   2.888   3.800   5.920 -0.4383  0.0773 -0.3415
  399poe    c23 4779   2.901   3.682   5.997  0.5082  0.4187  0.0334
  399poe    c23 4780   3.033   3.614   5.955  0.1413 -0.1335 -0.2349
  399poe     o2 4781   3.038   3.630   5.815 -0.2960  0.1526 -0.2198
  399poe    c23 4782   3.163   3.596   5.759 -0.3094 -0.9045  0.3667
  399poe    c23 4783   3.128   3.637   5.615  0.3647  0.1452  0.4916
  399poe     o2 4784   3.060   3.761   5.609  0.5646  0.2203 -0.2457
  399poe    c23 4785   3.142   3.875   5.611 -0.1218  0.7119  0.8525
  399poe    c23 4786   3.043   3.991   5.592 -0.8373 -0.0848 -0.4083
  399poe     o2 4787   2.936   3.978   5.683 -0.3323 -0.1209  0.1811
  399poe    c31 4788   2.855   4.092   5.692  0.4049  0.3915  0.4338
  400poe    c31 4789   3.212   4.365   4.222 -1.0046 -0.3745  0.0514
  400poe     o2 4790   3.289   4.248   4.225 -0.4918 -0.0331  0.2777
  400poe    c23 4791   3.257   4.169   4.338  0.0169 -0.8450 -0.1302
  400poe    c23 4792   3.380   4.088   4.382  0.6210  0.2224  0.2010
  400poe     o2 4793   3.437   4.024   4.270  0.2119 -0.1435  0.1982
  400poe    c23 4794   3.569   3.978   4.287  0.4427  0.5980  0.4274
  400poe    c23 4795   3.623   3.941   4.148  0.1620  0.4728  0.3532
  400poe     o2 4796   3.603   4.065   4.083  0.5620  0.1980 -0.3052
  400poe    c23 4797   3.614   4.054   3.943  0.5223 -0.1152 -0.2842
  400poe    c23 4798   3.581   4.189   3.878  0.3994  0.1142  0.2469
  400poe     o2 4799   3.476   4.253   3.946  0.1950  0.0745 -0.0291
  400poe    c31 4800   3.412   4.355   3.872  0.1000  0.0498  0.0175
  401poe    c31 4801   6.037   4.876   2.322  0.1592 -0.0472  0.5107
  401poe     o2 4802   6.136   4.925   2.410  0.2586  0.1580  0.2837
  401poe    c23 4803   6.192   5.048   2.372 -0.2698  0.2212 -0.3006
  401poe    c23 4804   6.313   5.081   2.460 -0.5712  0.2945  0.0887
  401poe     o2 4805   6.277   5.039   2.590 -0.4068  0.0670  0.0622
  401poe    c23 4806   6.371   5.050   2.694 -0.5805  0.3322  0.1922
  401poe    c23 4807   6.459   4.925   2.712 -0.5414  0.3056 -0.1766
  401poe     o2 4808   6.379   4.817   2.667  0.1344 -0.1175 -0.3712
  401poe    c23 4809   6.451   4.696   2.669 -0.1544 -0.2836  0.0272
  401poe    c23 4810   6.410   4.617   2.543  0.1295  0.2273 -0.3873
  401poe     o2 4811   6.278   4.642   2.500  0.1189  0.1497 -0.3990
  401poe    c31 4812   6.246   4.544   2.404 -0.2792  0.6401 -0.7773
  402poe    c31 4813   1.482   4.128   6.408  0.0818 -0.3602  0.0910
  402poe     o2 4814   1.444   4.222   6.506 -0.4050 -0.4877  0.0275
  402poe    c23 4815   1.321   4.177   6.559 -0.5204  0.5870  0.7118
  402poe    c23 4816   1.280   4.284   6.662 -0.0791  0.8638  0.6063
  402poe     o2 4817   1.390   4.282   6.751  0.4891 -0.1597 -0.0951
  402poe    c23 4818   1.369   4.382   6.848  0.4400  0.0243 -0.2947
  402poe    c23 4819   1.501   4.395   6.925  0.3270 -0.3368 -0.0371
  402poe     o2 4820   1.584   4.393   6.811  0.6612  0.6406  0.1790
  402poe    c23 4821   1.719   4.433   6.815  0.8002  0.1967 -0.0248
  402poe    c23 4822   1.759   4.407   6.669 -0.0064  0.1007 -0.2338
  402poe     o2 4823   1.700   4.327   6.569 -0.1755 -0.4543  0.3058
  402poe    c31 4824   1.751   4.363   6.443  0.3322 -0.8672  0.3944
  403poe    c31 4825   1.827   0.615   0.452  0.2787  0.3538 -0.0070
  403poe     o2 4826   1.951   0.554   0.428  0.1160 -0.1370  0.3909
  403poe    c23 4827   2.060   0.641   0.412  0.0763 -0.1101  0.2627
  403poe    c23 4828   2.059   0.744   0.298  0.5699 -0.1454  0.2223
  403poe     o2 4829   2.071   0.686   0.170  0.1776  0.2514  0.0002
  403poe    c23 4830   2.060   0.784   0.069 -0.1359  0.4360  0.2106
  403poe    c23 4831   2.127   0.720  -0.055 -0.3541  0.3676  0.1286
  403poe     o2 4832   2.062   0.599  -0.089  0.4146  0.1478 -0.5778
  403poe    c23 4833   2.080   0.577  -0.227 -0.0033 -0.2887 -0.5637
  403poe    c23 4834   2.009   0.447  -0.269 -0.5750 -0.2071  0.1403
  403poe     o2 4835   2.033   0.352  -0.167  0.7654  0.2808  0.2938
  403poe    c31 4836   1.957   0.240  -0.208 -0.4619  1.0090  0.5497
  404poe    c31 4837   3.297   3.947   3.543  0.7219 -0.3413  0.3788
  404poe     o2 4838   3.175   3.911   3.602  0.2302  0.3261 -0.2151
  404poe    c23 4839   3.098   4.028   3.584  0.2170  0.4288  0.4586
  404poe    c23 4840   2.952   3.991   3.615  0.2527 -0.4142 -0.3419
  404poe     o2 4841   2.938   3.895   3.718 -0.0692  0.2964  0.2814
  404poe    c23 4842   2.816   3.825   3.725  0.1350 -0.1486 -0.4461
  404poe    c23 4843   2.852   3.697   3.803 -0.0362  0.3070  0.3983
  404poe     o2 4844   2.978   3.663   3.749 -0.5532 -0.7797 -0.1655
  404poe    c23 4845   3.034   3.540   3.788  0.1686 -0.5517 -0.4751
  404poe    c23 4846   3.167   3.535   3.710  0.1988  0.3455 -0.4929
  404poe     o2 4847   3.232   3.658   3.733 -0.0818  0.4351 -0.1722
  404poe    c31 4848   3.370   3.634   3.718 -0.2146 -0.3890 -0.1671
  405poe    c31 4849   5.303   2.405   2.562 -0.1126 -0.5289  1.2554
  405poe     o2 4850   5.308   2.517   2.647 -0.4491  0.5377 -0.1007
  405poe    c23 4851   5.219   2.490   2.752  0.2088 -1.4360 -0.0082
  405poe    c23 4852   5.290   2.506   2.888 -0.7204  0.2605  0.3125
  405poe     o2 4853   5.375   2.614   2.858 -0.1231 -0.1646  0.4665
  405poe    c23 4854   5.460   2.644   2.967  0.5676 -0.2710 -0.0389
  405poe    c23 4855   5.548   2.764   2.928 -0.6634  0.4391 -0.6727
  405poe     o2 4856   5.545   2.769   2.787  0.1233  0.5257 -0.6920
  405poe    c23 4857   5.523   2.894   2.723  0.4001  0.9412  0.0150
  405poe    c23 4858   5.480   2.867   2.578  0.0601 -0.6101  0.3855
  405poe     o2 4859   5.403   2.750   2.557 -0.5574 -0.2484  0.6215
  405poe    c31 4860   5.352   2.743   2.426  0.9676  0.5569 -0.0407
  406poe    c31 4861   1.698   1.393   5.779 -0.3330 -0.1249 -0.0106
  406poe     o2 4862   1.624   1.478   5.695 -0.4751 -0.0436  0.1952
  406poe    c23 4863   1.698   1.536   5.590 -0.5009  0.2598  0.3419
  406poe    c23 4864   1.768   1.670   5.622 -0.3982  0.3324 -0.1784
  406poe     o2 4865   1.683   1.770   5.673 -0.1644  0.4203  0.0375
  406poe    c23 4866   1.734   1.898   5.642  1.8624 -0.2756  0.3718
  406poe    c23 4867   1.653   2.007   5.714  0.3844 -0.8146 -0.4305
  406poe     o2 4868   1.650   2.011   5.854 -0.2208  0.3335 -0.4680
  406poe    c23 4869   1.580   2.130   5.887 -0.5357 -0.0679  0.3432
  406poe    c23 4870   1.639   2.218   5.998  0.2269 -0.6088  0.3720
  406poe     o2 4871   1.580   2.189   6.123 -0.4379 -0.6973  0.0392
  406poe    c31 4872   1.635   2.267   6.226 -0.4416 -0.5208 -0.0931
  407poe    c31 4873   1.309   5.587   0.776  0.5567 -0.2752  0.0174
  407poe     o2 4874   1.341   5.614   0.641  0.2878 -0.2562 -0.0432
  407poe    c23 4875   1.219   5.627   0.571  0.4617  0.1282 -0.2767
  407poe    c23 4876   1.162   5.498   0.510  0.0462  0.2886 -0.2303
  407poe     o2 4877   1.272   5.438   0.445 -0.4897 -0.3031 -0.6030
  407poe    c23 4878   1.257   5.298   0.443 -0.4456 -0.3086 -0.5316
  407poe    c23 4879   1.399   5.240   0.436 -0.3955 -0.4308  1.0102
  407poe     o2 4880   1.470   5.330   0.518 -0.0772  0.7107 -0.4585
  407poe    c23 4881   1.560   5.266   0.606 -0.8458  0.1118 -0.0874
  407poe    c23 4882   1.624   5.376   0.693 -0.3824 -0.1162 -0.1349
  407poe     o2 4883   1.610   5.482   0.602 -0.6077  0.1173  0.1679
  407poe    c31 4884   1.674   5.601   0.646  0.0857 -0.2419  0.1479
  408poe    c31 4885   0.676   1.786   1.899  0.3567 -0.2425  0.3656
  408poe     o2 4886   0.658   1.712   1.781  0.3391 -0.0277  0.2323
  408poe    c23 4887   0.684   1.577   1.815  0.4119 -0.1857 -0.4281
  408poe    c23 4888   0.636   1.473   1.713  0.6332 -0.3694 -0.3442
  408poe     o2 4889   0.694   1.512   1.590  0.4219  0.0466 -0.3102
  408poe    c23 4890   0.632   1.453   1.478 -0.1670  0.3209 -0.1347
  408poe    c23 4891   0.658   1.558   1.368 -0.4447  0.1432 -0.3709
  408poe     o2 4892   0.621   1.682   1.423 -0.5473  0.0196 -0.1634
  408poe    c23 4893   0.680   1.782   1.343  0.0011 -0.0312  0.1716
  408poe    c23 4894   0.623   1.914   1.398 -1.1033 -0.4465  0.0508
  408poe     o2 4895   0.646   1.894   1.535 -0.7938  0.0316  0.0694
  408poe    c31 4896   0.590   1.990   1.622  0.0687  0.4077  0.2189
  409poe    c31 4897   5.563   1.346   4.547 -0.0915  0.8413  0.1122
  409poe     o2 4898   5.683   1.383   4.483  0.3100  0.1572  0.4653
  409poe    c23 4899   5.786   1.399   4.579  0.8317 -0.3141 -0.0071
  409poe    c23 4900   5.916   1.446   4.512  0.5808  0.0819 -0.2243
  409poe     o2 4901   5.894   1.524   4.398  0.2994  0.7503  0.2811
  409poe    c23 4902   6.007   1.541   4.316 -0.0204  0.3917 -0.2458
  409poe    c23 4903   5.951   1.610   4.190 -0.5157 -0.1190 -0.3066
  409poe     o2 4904   5.830   1.538   4.181 -0.4206 -0.4009  0.5661
  409poe    c23 4905   5.760   1.548   4.059  0.6633 -0.0908 -0.0434
  409poe    c23 4906   5.647   1.444   4.071  0.0890  0.5264 -0.0142
  409poe     o2 4907   5.574   1.439   4.192  0.2599 -0.3374  0.0593
  409poe    c31 4908   5.452   1.508   4.180  0.1794 -0.4281  0.3579
  410poe    c31 4909   2.242   1.736   1.153  0.1067 -0.0525 -0.7853
  410poe     o2 4910   2.252   1.874   1.123  0.1919  0.1479  0.1267
  410poe    c23 4911   2.187   1.945   1.226 -0.0844  0.1818 -0.0686
  410poe    c23 4912   2.226   2.093   1.211  0.0628  0.1209 -0.2862
  410poe     o2 4913   2.217   2.128   1.074 -0.3760 -0.2356 -0.3494
  410poe    c23 4914   2.268   2.257   1.049 -0.0604 -0.2212  0.3188
  410poe    c23 4915   2.238   2.253   0.898  0.5747 -0.5101  0.1973
  410poe     o2 4916   2.276   2.126   0.849 -0.5646 -0.6935 -0.2530
  410poe    c23 4917   2.227   2.114   0.718 -0.4432 -0.1797 -0.3470
  410poe    c23 4918   2.211   1.963   0.694  0.4435 -0.2738 -0.3409
  410poe     o2 4919   2.187   1.909   0.822  0.0820  0.2549 -0.1826
  410poe    c31 4920   2.114   1.789   0.805  0.1709  0.2589 -0.6168
  411poe    c31 4921   2.843   4.688   1.535  0.2975 -0.1241 -0.2789
  411poe     o2 4922   2.867   4.775   1.427 -0.2265  0.8663  0.3808
  411poe    c23 4923   2.747   4.776   1.352 -0.1680 -0.4393  0.2360
  411poe    c23 4924   2.783   4.842   1.217 -0.1137 -0.2481  0.3441
  411poe     o2 4925   2.862   4.956   1.245 -0.4597  0.1713 -0.3353
  411poe    c23 4926   2.839   5.070   1.167 -0.3749  0.4014 -0.0250
  411poe    c23 4927   2.909   5.180   1.250  0.1052 -0.0455  0.1674
  411poe     o2 4928   2.926   5.131   1.381  0.3153  0.3351  0.2839
  411poe    c23 4929   2.984   5.227   1.466 -0.2247  0.5925  0.3661
  411poe    c23 4930   2.980   5.150   1.600  0.4186 -0.6323 -0.3022
  411poe     o2 4931   3.028   5.018   1.586  0.4644 -0.6129 -0.3311
  411poe    c31 4932   3.090   4.977   1.706 -0.0573 -0.4979 -0.0217
  412poe    c31 4933   2.482   3.336   5.950  0.3235  0.1216 -0.0554
  412poe     o2 4934   2.372   3.254   5.918  0.4652 -0.1768  0.2215
  412poe    c23 4935   2.319   3.193   6.034 -0.2729 -0.0702 -0.0545
  412poe    c23 4936   2.179   3.141   5.997 -0.0447 -0.5121 -0.3012
  412poe     o2 4937   2.090   3.250   5.993  0.1238 -0.3741 -0.2862
  412poe    c23 4938   1.956   3.208   5.996  0.0902 -0.2222  0.9846
  412poe    c23 4939   1.862   3.317   5.941  0.7090 -0.0180  0.3084
  412poe     o2 4940   1.917   3.384   5.831  0.2674 -0.0929  0.0382
  412poe    c23 4941   1.819   3.472   5.780  0.2625 -0.0900  0.0530
  412poe    c23 4942   1.846   3.536   5.643  0.3378  0.2537  0.2258
  412poe     o2 4943   1.965   3.610   5.659  0.4816  0.0557  0.0606
  412poe    c31 4944   1.990   3.670   5.534 -0.0751  0.1010 -0.0307
  413poe    c31 4945   2.062   6.066   5.195 -0.7017 -0.2073  0.1483
  413poe     o2 4946   2.125   5.941   5.178  0.0499  0.2288 -0.3313
  413poe    c23 4947   2.048   5.854   5.259  0.2897 -0.1068 -0.4599
  413poe    c23 4948   1.960   5.769   5.166 -0.1394  0.8491 -0.9489
  413poe     o2 4949   2.009   5.733   5.038  0.3051 -0.1869 -0.4995
  413poe    c23 4950   1.904   5.751   4.945  0.1497  0.9448 -0.1188
  413poe    c23 4951   1.984   5.789   4.819 -0.0478 -0.2834 -0.6278
  413poe     o2 4952   2.087   5.876   4.861  0.1269 -0.6308 -0.3334
  413poe    c23 4953   2.194   5.878   4.770  0.1371  0.2580 -0.3075
  413poe    c23 4954   2.287   5.982   4.835 -0.8143  0.5527  0.6016
  413poe     o2 4955   2.313   5.980   4.974 -0.2948  0.3904  0.5047
  413poe    c31 4956   2.415   6.073   5.004  0.0558  0.1991 -0.0827
  414poe    c31 4957   3.220   3.567   5.231  0.7335  0.0700 -0.1950
  414poe     o2 4958   3.147   3.611   5.119  0.2162  0.1829  0.1823
  414poe    c23 4959   3.049   3.513   5.091  0.7656 -0.3297  0.0240
  414poe    c23 4960   2.976   3.565   4.966  0.8538  0.5034  0.3086
  414poe     o2 4961   3.071   3.627   4.881  0.3513 -0.2945 -0.8639
  414poe    c23 4962   3.022   3.715   4.782 -0.5738  0.6420  0.3916
  414poe    c23 4963   3.145   3.803   4.753 -0.0294 -0.1397  0.2879
  414poe     o2 4964   3.187   3.853   4.878 -0.0743  0.0268  0.2363
  414poe    c23 4965   3.294   3.945   4.863 -0.3375  0.2493 -0.3054
  414poe    c23 4966   3.330   3.965   5.011  0.0348 -0.6115 -0.2707
  414poe     o2 4967   3.322   3.843   5.081 -0.6157 -0.2524  0.2955
  414poe    c31 4968   3.407   3.854   5.193  0.7853 -0.1662 -0.7574
  415poe    c31 4969   4.984   3.592   4.683 -0.0966 -0.1150  0.1788
  415poe     o2 4970   5.124   3.578   4.673 -0.1050  0.0766 -0.2204
  415poe    c23 4971   5.161   3.443   4.684 -0.5030  0.0371  0.7114
  415poe    c23 4972   5.310   3.433   4.650 -0.6042  0.3898  0.1586
  415poe     o2 4973   5.343   3.519   4.543 -0.0708  0.1077  0.0883
  415poe    c23 4974   5.482   3.540   4.532 -0.1453  1.0299  0.8072
  415poe    c23 4975   5.503   3.669   4.451  0.2029  0.4324 -0.0651
  415poe     o2 4976   5.397   3.749   4.496 -0.6164 -0.3603 -0.5558
  415poe    c23 4977   5.378   3.862   4.414 -0.9581  0.2179  0.2930
  415poe    c23 4978   5.225   3.881   4.410 -1.0612 -0.6660 -0.4131
  415poe     o2 4979   5.152   3.832   4.520 -0.6143 -0.4191 -0.0014
  415poe    c31 4980   5.018   3.874   4.507 -0.7414 -0.6897  0.4218
  416poe    c31 4981   6.518   3.741   4.858  0.9736  0.3487  0.2960
  416poe     o2 4982   6.602   3.638   4.908  0.2575 -0.7383 -0.6850
  416poe    c23 4983   6.720   3.705   4.946  0.1619 -0.8450 -0.1919
  416poe    c23 4984   6.785   3.631   5.064  0.3633 -0.7292 -0.2303
  416poe     o2 4985   6.690   3.540   5.114 -0.3935  0.2145  0.0787
  416poe    c23 4986   6.728   3.445   5.211 -0.5666  0.3045  0.2334
  416poe    c23 4987   6.650   3.322   5.164 -0.0149 -0.0327  0.1945
  416poe     o2 4988   6.645   3.328   5.023  0.0444 -0.1376  0.1874
  416poe    c23 4989   6.624   3.207   4.954  0.1198  0.1320 -0.3090
  416poe    c23 4990   6.590   3.259   4.813  0.1269 -0.0750 -0.3871
  416poe     o2 4991   6.521   3.382   4.806  0.0318 -0.1182 -0.2081
  416poe    c31 4992   6.439   3.385   4.692 -0.0507 -0.5223 -0.1623
  417poe    c31 4993   0.394   5.950   2.711 -0.4201 -0.3096  0.1152
  417poe     o2 4994   0.448   6.066   2.652  0.0918 -0.9116 -0.6037
  417poe    c23 4995   0.341   6.153   2.623 -0.0514 -0.8368  0.1301
  417poe    c23 4996   0.387   6.299   2.638 -0.4481 -0.6606 -0.3375
  417poe     o2 4997   0.504   6.297   2.558  0.0199 -0.4272  0.3363
  417poe    c23 4998   0.575   6.418   2.554  0.0158 -0.4477 -0.5144
  417poe    c23 4999   0.721   6.381   2.518  0.2736 -0.8136  0.8439
  417poe     o2 5000   0.749   6.253   2.570 -0.3702 -0.9262  0.9284
  417poe    c23 5001   0.883   6.207   2.571 -0.2313 -0.5390  0.6356
  417poe    c23 5002   0.873   6.085   2.664  0.6446 -0.8302  0.3503
  417poe     o2 5003   0.751   6.019   2.642  0.3698 -0.2313  0.0675
  417poe    c31 5004   0.770   5.879   2.649  0.0954 -0.3095 -0.6562
  418poe    c31 5005   6.276   1.002   4.932  0.0112  0.1865  0.2281
  418poe     o2 5006   6.214   1.081   5.030  0.1003  0.5579 -0.0159
  418poe    c23 5007   6.296   1.104   5.143  0.0160  0.3194  0.0938
  418poe    c23 5008   6.233   1.218   5.226 -0.1241  0.2288  0.1129
  418poe     o2 5009   6.097   1.197   5.199 -0.1519 -0.0043  0.4198
  418poe    c23 5010   6.028   1.309   5.252  0.6929  0.7898 -0.1336
  418poe    c23 5011   5.884   1.310   5.198  0.5636  0.1044  0.1917
  418poe     o2 5012   5.896   1.274   5.062 -0.3712  0.1530  0.0912
  418poe    c23 5013   5.774   1.244   4.998 -0.2663 -0.2675  0.0843
  418poe    c23 5014   5.805   1.147   4.883  0.8146 -0.0938  0.2207
  418poe     o2 5015   5.915   1.068   4.924  0.8531 -0.4323 -0.5159
  418poe    c31 5016   5.915   0.955   4.840 -1.4296 -0.2885 -0.7790
  419poe    c31 5017   0.514   2.963   1.524  0.1913  0.3823  0.4573
  419poe     o2 5018   0.609   2.965   1.420 -0.6073  0.3539 -0.2865
  419poe    c23 5019   0.634   2.837   1.366 -0.7027  0.3988 -0.4355
  419poe    c23 5020   0.734   2.849   1.249  0.1564  0.3987  0.2911
  419poe     o2 5021   0.844   2.929   1.284  0.1684  0.4730  0.0863
  419poe    c23 5022   0.960   2.869   1.338  0.0048  0.0937  0.0193
  419poe    c23 5023   1.013   2.989   1.418 -0.7782  0.5574 -0.1460
  419poe     o2 5024   0.920   3.044   1.508 -0.4469  0.3416  0.3315
  419poe    c23 5025   0.962   3.131   1.611 -0.0820  0.1691  0.3296
  419poe    c23 5026   0.857   3.244   1.617  0.1207  0.3570  0.3556
  419poe     o2 5027   0.735   3.194   1.568  0.0126  0.4505  0.5302
  419poe    c31 5028   0.636   3.294   1.558 -0.0903  0.2612 -0.3972
  420poe    c31 5029   5.791   0.321   4.729 -0.1444 -0.7562  1.1793
  420poe     o2 5030   5.917   0.383   4.720 -0.6756  0.1840  0.0605
  420poe    c23 5031   5.985   0.413   4.840 -0.0216  0.5077 -0.3836
  420poe    c23 5032   6.103   0.509   4.816  0.3783  0.1191  0.0034
  420poe     o2 5033   6.081   0.549   4.683 -0.5409  0.4165  0.2348
  420poe    c23 5034   6.190   0.624   4.632 -0.3833 -0.4258 -0.7049
  420poe    c23 5035   6.161   0.642   4.482  0.3913 -0.2756 -0.8371
  420poe     o2 5036   6.113   0.517   4.439  0.3884 -0.7150  0.4069
  420poe    c23 5037   6.111   0.480   4.303  0.0295  0.1136  0.1805
  420poe    c23 5038   6.023   0.354   4.295 -0.5542  0.5641 -0.6419
  420poe     o2 5039   6.015   0.297   4.424  0.1413  0.1545 -0.7742
  420poe    c31 5040   5.935   0.181   4.414 -0.1834  0.3352 -0.3036
  421poe    c31 5041   3.541   5.573   5.609  1.3089 -0.1339  0.7243
  421poe     o2 5042   3.660   5.584   5.534  0.3228  0.2844 -0.8397
  421poe    c23 5043   3.706   5.716   5.524  0.7495  0.1943 -0.0991
  421poe    c23 5044   3.848   5.728   5.465  0.7780  0.0332 -0.0646
  421poe     o2 5045   3.921   5.627   5.531  0.3162 -0.0911  0.2588
  421poe    c23 5046   4.046   5.620   5.468  0.1024 -0.2386 -0.1550
  421poe    c23 5047   4.119   5.489   5.502  0.3655 -0.0851 -0.1244
  421poe     o2 5048   4.020   5.390   5.489  0.3419 -0.0666 -0.0832
  421poe    c23 5049   4.029   5.272   5.566 -0.8723 -0.3066 -0.2880
  421poe    c23 5050   3.968   5.282   5.707  0.2936  0.4912  0.1698
  421poe     o2 5051   3.844   5.344   5.682  0.0709  0.0203  0.1093
  421poe    c31 5052   3.744   5.320   5.778  0.2367  0.0028  0.2785
  422poe    c31 5053   5.295   0.851   2.235  0.2847  0.0810  0.5859
  422poe     o2 5054   5.406   0.920   2.181 -0.2664  0.0410 -0.6359
  422poe    c23 5055   5.517   0.834   2.170 -0.3399 -0.0903 -0.3807
  422poe    c23 5056   5.585   0.896   2.046  0.0731  0.0006 -0.1098
  422poe     o2 5057   5.602   1.027   2.096  0.0071  0.2224 -0.6615
  422poe    c23 5058   5.634   1.118   1.993  0.2348  0.5280 -0.3248
  422poe    c23 5059   5.618   1.264   2.039 -0.4277  0.4799 -0.3852
  422poe     o2 5060   5.503   1.240   2.117 -0.2910  0.2360 -0.2549
  422poe    c23 5061   5.468   1.346   2.204 -0.7821 -0.0676 -0.0830
  422poe    c23 5062   5.330   1.297   2.251 -0.7147  0.1756  0.3722
  422poe     o2 5063   5.355   1.162   2.286  0.0237  0.2409  0.1103
  422poe    c31 5064   5.338   1.160   2.426  0.6515 -0.3826  0.1798
  423poe    c31 5065   0.882   1.017   6.425 -0.6668 -0.4411  0.2861
  423poe     o2 5066   0.746   1.048   6.409 -0.4968  0.1134 -0.1505
  423poe    c23 5067   0.724   1.139   6.514  0.0327  0.0714 -0.0001
  423poe    c23 5068   0.579   1.182   6.487  0.0659  0.3958  0.3336
  423poe     o2 5069   0.562   1.190   6.347 -0.3813  0.3508  0.3824
  423poe    c23 5070   0.449   1.264   6.307 -0.8116 -0.3051  0.3806
  423poe    c23 5071   0.437   1.240   6.155  0.8078  0.0446  0.1881
  423poe     o2 5072   0.483   1.108   6.140  0.3058 -0.1116  0.0076
  423poe    c23 5073   0.517   1.091   6.004 -0.4717  0.2318 -0.2326
  423poe    c23 5074   0.599   0.961   6.007 -0.1805  0.4199 -0.0761
  423poe     o2 5075   0.682   0.960   6.121 -0.0214  0.1048 -0.1927
  423poe    c31 5076   0.779   0.858   6.110 -0.0137  0.1157 -0.2263
  424poe    c31 5077   4.602   4.097   0.293 -0.0910  0.0998  0.4466
  424poe     o2 5078   4.641   3.999   0.386  0.1247 -0.5862 -0.3569
  424poe    c23 5079   4.712   4.052   0.495 -0.6368 -0.2027 -0.0395
  424poe    c23 5080   4.847   3.981   0.512 -0.6701 -0.0798  0.8082
  424poe     o2 5081   4.819   3.843   0.498  0.0224 -0.1668  0.1959
  424poe    c23 5082   4.933   3.768   0.534  0.4754 -0.0572 -0.9545
  424poe    c23 5083   4.903   3.617   0.533  0.5936 -0.0940  0.0169
  424poe     o2 5084   4.864   3.599   0.399 -0.5388  0.2551  0.2865
  424poe    c23 5085   4.766   3.498   0.392  0.1156 -0.3691 -0.0291
  424poe    c23 5086   4.638   3.552   0.325  0.3883  0.5528  0.1824
  424poe     o2 5087   4.592   3.674   0.377  0.0597  0.3524  0.3618
  424poe    c31 5088   4.452   3.671   0.399 -0.0202  0.6881 -0.0758
  425poe    c31 5089   0.948   0.584   1.283 -0.0720 -0.0844  0.2753
  425poe     o2 5090   0.907   0.523   1.404 -0.4339  0.2652  0.3293
  425poe    c23 5091   0.800   0.588   1.469 -0.3935  0.3747  0.2873
  425poe    c23 5092   0.716   0.502   1.565 -0.2488 -0.1862 -0.0857
  425poe     o2 5093   0.615   0.420   1.509 -0.0531 -0.2016 -0.4182
  425poe    c23 5094   0.585   0.306   1.587  0.0837  0.0431 -0.0049
  425poe    c23 5095   0.449   0.249   1.542 -0.3112  0.7695  0.2335
  425poe     o2 5096   0.437   0.233   1.402 -0.1841 -0.1068  0.3149
  425poe    c23 5097   0.318   0.160   1.380 -0.3095  0.2387 -0.1670
  425poe    c23 5098   0.332   0.104   1.237 -0.2265 -0.0689 -0.0408
  425poe     o2 5099   0.351   0.219   1.156  0.5358 -0.1241  0.0528
  425poe    c31 5100   0.263   0.214   1.046  0.1178 -0.2621  0.3892
  426poe    c31 5101   6.266   4.645   4.314  0.4606  0.6702  0.0081
  426poe     o2 5102   6.207   4.754   4.248 -0.3070  0.3331  0.1318
  426poe    c23 5103   6.108   4.800   4.338 -0.3274  0.4919  0.0279
  426poe    c23 5104   6.017   4.915   4.290 -0.2073  0.4081 -0.4071
  426poe     o2 5105   5.938   4.978   4.388 -0.9063 -0.4125 -0.4268
  426poe    c23 5106   5.867   5.071   4.310 -0.1305  0.6763  0.1305
  426poe    c23 5107   5.777   5.150   4.407 -0.8531  0.1668 -0.1167
  426poe     o2 5108   5.850   5.174   4.525 -0.1869  0.3572 -0.5648
  426poe    c23 5109   5.804   5.293   4.586 -0.4961  0.0238 -0.1370
  426poe    c23 5110   5.811   5.259   4.736  0.2541 -0.2451 -0.2276
  426poe     o2 5111   5.902   5.161   4.781  0.1734 -0.2846 -0.1525
  426poe    c31 5112   5.865   5.119   4.911  0.0848 -0.1944 -0.1478
  427poe    c31 5113   0.811   5.326   2.633  0.3989 -0.2984  0.2148
  427poe     o2 5114   0.752   5.269   2.519  0.2035 -0.2586  0.2960
  427poe    c23 5115   0.853   5.250   2.422  0.2605  0.4723  0.2038
  427poe    c23 5116   0.779   5.198   2.297  0.0590  0.0508  0.4917
  427poe     o2 5117   0.683   5.106   2.342  0.3369 -0.4810  0.0062
  427poe    c23 5118   0.574   5.092   2.252  0.4522 -0.7573 -0.0926
  427poe    c23 5119   0.462   5.012   2.321 -0.2478  0.5058  0.2707
  427poe     o2 5120   0.461   5.023   2.462 -0.7163  0.1766  0.2951
  427poe    c23 5121   0.482   4.894   2.515  0.0950  0.1229 -0.1412
  427poe    c23 5122   0.596   4.892   2.618 -0.0012 -0.5013 -0.0473
  427poe     o2 5123   0.702   4.975   2.576  0.0747 -0.7161 -0.2791
  427poe    c31 5124   0.821   4.932   2.639 -0.1625  0.2940  0.8882
  428poe    c31 5125   1.450   6.408   1.155  0.3881  0.4582 -0.8280
  428poe     o2 5126   1.516   6.498   1.069  1.0018  0.6127 -0.2104
  428poe    c23 5127   1.441   6.617   1.072 -0.2932 -0.2021  0.6612
  428poe    c23 5128   1.534   6.731   1.027 -0.1324 -0.5279  0.1573
  428poe     o2 5129   1.611   6.680   0.921 -0.0786  0.0069 -0.0684
  428poe    c23 5130   1.728   6.756   0.899 -0.0359 -0.1034 -0.2252
  428poe    c23 5131   1.823   6.673   0.811 -0.1456 -0.3674 -0.0946
  428poe     o2 5132   1.816   6.541   0.862 -0.5250 -0.2402  0.1840
  428poe    c23 5133   1.879   6.438   0.790  0.7772  0.4260  0.3411
  428poe    c23 5134   1.888   6.332   0.902 -0.1942  0.0349  0.0583
  428poe     o2 5135   1.757   6.330   0.954 -0.0378  0.4606  0.4722
  428poe    c31 5136   1.745   6.201   1.010  0.6353  0.0670 -0.2713
  429poe    c31 5137   2.316   3.752   4.311 -0.1278  0.4904 -0.2197
  429poe     o2 5138   2.181   3.789   4.324 -0.1122  0.4953 -0.0696
  429poe    c23 5139   2.154   3.903   4.244  0.0346  0.4834 -0.1358
  429poe    c23 5140   2.052   3.856   4.139  0.3053 -0.2449 -0.0808
  429poe     o2 5141   1.942   3.817   4.217  0.2687  0.2029  0.0893
  429poe    c23 5142   1.819   3.880   4.187 -0.0981 -0.4734  0.1682
  429poe    c23 5143   1.722   3.864   4.306 -0.2806 -0.0024  0.0834
  429poe     o2 5144   1.725   3.731   4.352 -1.2673 -0.1968 -0.4008
  429poe    c23 5145   1.666   3.691   4.473 -0.4122 -0.2033  0.0182
  429poe    c23 5146   1.516   3.712   4.502 -0.4526 -0.5905  0.1023
  429poe     o2 5147   1.440   3.620   4.427 -0.1299  0.0402 -1.0267
  429poe    c31 5148   1.300   3.631   4.441 -0.0559  0.0818 -0.2211
  430poe    c31 5149   4.684   6.445   1.178 -0.7651  0.2025 -0.0001
  430poe     o2 5150   4.678   6.469   1.317  0.4341  0.5244  0.0080
  430poe    c23 5151   4.563   6.542   1.352  0.2383  0.3170 -0.1951
  430poe    c23 5152   4.543   6.529   1.504  0.1199 -0.1662 -0.2501
  430poe     o2 5153   4.531   6.389   1.513 -1.0850 -0.0544  0.1046
  430poe    c23 5154   4.473   6.351   1.636  0.0792 -0.1931  0.6173
  430poe    c23 5155   4.470   6.197   1.642  0.3970 -0.2288 -0.0164
  430poe     o2 5156   4.584   6.168   1.564  0.4554  0.2834 -0.1241
  430poe    c23 5157   4.578   6.035   1.519  0.5037  0.3061 -0.1977
  430poe    c23 5158   4.707   6.005   1.441 -0.1586 -0.4320 -1.0326
  430poe     o2 5159   4.730   6.099   1.337  0.4099 -0.0020 -0.5261
  430poe    c31 5160   4.842   6.063   1.260  0.6026 -0.3340 -0.1001
  431poe    c31 5161   6.649   1.329   4.793  0.3141  0.4612 -0.1072
  431poe     o2 5162   6.753   1.267   4.720  0.0330 -0.1070 -0.0295
  431poe    c23 5163   6.868   1.237   4.796 -0.2169  0.3584  0.5443
  431poe    c23 5164   6.977   1.207   4.692 -0.6361 -0.1787  0.2486
  431poe     o2 5165   6.915   1.144   4.583 -0.4166  1.0060 -0.5897
  431poe    c23 5166   7.008   1.080   4.499  0.1380  0.4048  0.4646
  431poe    c23 5167   6.928   1.036   4.375 -0.3118 -0.1359  0.9392
  431poe     o2 5168   6.842   1.143   4.342  0.0038 -0.2443 -0.2648
  431poe    c23 5169   6.732   1.134   4.254  0.1434  0.2851 -0.5040
  431poe    c23 5170   6.600   1.098   4.325  0.4670  0.4922  0.2101
  431poe     o2 5171   6.600   1.159   4.453  0.0372  0.0341  0.4271
  431poe    c31 5172   6.472   1.136   4.507 -0.2076 -0.1686 -0.2168
  432poe    c31 5173   4.725   0.359   6.081 -0.2434  0.2986 -0.4102
  432poe     o2 5174   4.769   0.275   5.976 -0.1969  0.0614 -0.1999
  432poe    c23 5175   4.759   0.144   6.028  0.0136  0.0955 -0.0720
  432poe    c23 5176   4.845   0.062   5.931  0.7596  0.7983 -0.0142
  432poe     o2 5177   4.843   0.127   5.806  0.3011 -0.0766 -0.4780
  432poe    c23 5178   4.954   0.094   5.726  0.0419 -0.5502 -0.6388
  432poe    c23 5179   4.960   0.200   5.615  0.4489  0.4363  0.3131
  432poe     o2 5180   4.901   0.315   5.671  0.5288  0.4879  0.2917
  432poe    c23 5181   4.888   0.417   5.575  1.2015  0.4967  0.2055
  432poe    c23 5182   4.820   0.533   5.651  0.1094 -0.0224  0.0306
  432poe     o2 5183   4.754   0.476   5.762 -0.3927 -0.0955 -0.2982
  432poe    c31 5184   4.671   0.579   5.811 -0.1384 -0.0522  0.0489
  433poe    c31 5185   2.763   2.657   2.883 -0.4783 -0.2618 -0.5774
  433poe     o2 5186   2.750   2.636   3.022 -0.0054  0.9577 -0.3345
  433poe    c23 5187   2.820   2.737   3.091 -0.1355  0.6427  0.2589
  433poe    c23 5188   2.807   2.704   3.241 -0.4148 -0.4485  0.0025
  433poe     o2 5189   2.913   2.641   3.309  0.1308 -0.0461 -0.4674
  433poe    c23 5190   2.884   2.504   3.331 -0.2619  0.0645 -0.2834
  433poe    c23 5191   2.993   2.432   3.413 -0.5263 -0.1429 -0.1162
  433poe     o2 5192   3.111   2.492   3.364 -0.4271 -0.4396 -0.2383
  433poe    c23 5193   3.219   2.410   3.403 -0.2904  0.1160  0.5670
  433poe    c23 5194   3.343   2.501   3.414 -0.1662  0.0806 -0.4708
  433poe     o2 5195   3.313   2.611   3.497 -0.0543 -0.3505  0.1485
  433poe    c31 5196   3.433   2.680   3.524 -0.0148  0.0721 -1.0584
  434poe    c31 5197   0.643   6.002   3.559 -0.3856 -0.0925  0.1502
  434poe     o2 5198   0.538   6.041   3.473 -0.4457 -0.4371  0.0646
  434poe    c23 5199   0.456   6.137   3.536  0.5934  0.3434  0.2615
  434poe    c23 5200   0.324   6.147   3.457  0.7849 -0.0686 -0.1132
  434poe     o2 5201   0.363   6.101   3.329 -0.1705 -0.5131 -0.2544
  434poe    c23 5202   0.262   6.064   3.238 -0.1026 -0.8655 -0.1861
  434poe    c23 5203   0.333   6.057   3.102  0.2294  0.1519 -0.0676
  434poe     o2 5204   0.458   5.997   3.129 -0.0171 -0.2730  0.1186
  434poe    c23 5205   0.556   6.030   3.034 -0.1287  0.9157  0.4011
  434poe    c23 5206   0.695   5.987   3.087 -0.1326  0.6404  0.1898
  434poe     o2 5207   0.689   6.002   3.227  0.4268 -0.3614  0.3248
  434poe    c31 5208   0.822   6.007   3.274  0.4331 -0.3784  0.3090
  435poe    c31 5209   4.935   6.250   4.515  0.1139  0.1688  0.1213
  435poe     o2 5210   4.856   6.140   4.478  0.1599  0.3117 -0.4060
  435poe    c23 5211   4.922   6.019   4.509  0.0871  0.4119  0.1458
  435poe    c23 5212   4.884   5.935   4.633  0.1647  0.0984 -0.0416
  435poe     o2 5213   4.744   5.939   4.643  0.1706  0.1316  0.0262
  435poe    c23 5214   4.691   5.853   4.742 -0.2117  0.7293  0.3440
  435poe    c23 5215   4.538   5.835   4.731 -0.1852  0.7938 -0.1488
  435poe     o2 5216   4.486   5.966   4.724  0.1260  0.9120 -0.2651
  435poe    c23 5217   4.347   5.947   4.707  0.2168 -0.4709  0.4296
  435poe    c23 5218   4.247   6.051   4.760 -0.3829 -0.4761 -0.6740
  435poe     o2 5219   4.241   6.163   4.674  0.3958  0.1271  0.0401
  435poe    c31 5220   4.138   6.155   4.578  0.2443 -0.4044  0.2413
  436poe    c31 5221   6.073   3.811   0.833 -0.5403 -0.2016 -0.0042
  436poe     o2 5222   6.028   3.683   0.792  0.4422 -0.3784 -0.5506
  436poe    c23 5223   6.056   3.633   0.664  1.3736  0.2466 -0.6022
  436poe    c23 5224   6.003   3.489   0.651  0.3101  0.5659  0.0952
  436poe     o2 5225   6.001   3.417   0.772  0.0665 -0.3016 -0.4155
  436poe    c23 5226   5.944   3.290   0.752 -0.2233 -0.2123 -0.1662
  436poe    c23 5227   5.920   3.223   0.888  0.9641  0.0780  0.1962
  436poe     o2 5228   5.827   3.286   0.973  0.0235 -0.2020 -0.6107
  436poe    c23 5229   5.788   3.193   1.072  0.3321  0.5999  0.2714
  436poe    c23 5230   5.701   3.254   1.184 -0.4457 -0.5719  0.3236
  436poe     o2 5231   5.570   3.282   1.140 -0.0888 -0.3159 -0.5955
  436poe    c31 5232   5.482   3.338   1.235  0.4182  0.2920 -0.4685
  437poe    c31 5233   1.250   0.026   3.822 -0.5219  0.4271 -0.3318
  437poe     o2 5234   1.343   0.086   3.735  0.0652 -0.1012 -0.0736
  437poe    c23 5235   1.353  -0.003   3.626 -0.0197 -0.0147 -0.1521
  437poe    c23 5236   1.432   0.059   3.510 -0.1424 -0.6577 -0.5855
  437poe     o2 5237   1.547   0.120   3.564 -0.0179 -1.2698 -0.1463
  437poe    c23 5238   1.636   0.148   3.458  0.3406 -0.6031  0.3201
  437poe    c23 5239   1.737   0.244   3.523  0.0715  0.0332 -0.2009
  437poe     o2 5240   1.660   0.341   3.591 -0.3617 -0.5537  0.1551
  437poe    c23 5241   1.743   0.429   3.663 -0.2547 -0.4437 -0.0983
  437poe    c23 5242   1.646   0.495   3.763  0.4513 -0.2281  0.4523
  437poe     o2 5243   1.544   0.406   3.802 -0.1338  0.0726 -0.3552
  437poe    c31 5244   1.460   0.445   3.908 -0.1635  0.0625 -0.3749
  438poe    c31 5245   2.178   2.820   2.947  0.6164  0.6330 -0.0669
  438poe     o2 5246   2.162   2.793   2.809  0.1919 -0.0356  0.1069
  438poe    c23 5247   2.032   2.829   2.769  0.3204  0.3442  0.0243
  438poe    c23 5248   2.036   2.805   2.617 -0.6788  0.3059 -0.0003
  438poe     o2 5249   2.156   2.859   2.566 -0.3523 -0.3136  0.1038
  438poe    c23 5250   2.132   2.917   2.440  0.4772 -0.4521 -0.1240
  438poe    c23 5251   2.265   2.981   2.397  0.2102  0.0561 -0.2098
  438poe     o2 5252   2.369   2.886   2.387  0.0498 -0.1467  0.0512
  438poe    c23 5253   2.489   2.928   2.448  0.0042  0.0216  0.0258
  438poe    c23 5254   2.529   2.852   2.576 -0.3680 -0.6192 -0.2327
  438poe     o2 5255   2.431   2.863   2.676 -0.3859 -0.2111 -0.2966
  438poe    c31 5256   2.475   2.970   2.757  0.4040 -0.3890 -0.4859
  439poe    c31 5257   3.655   5.497   3.622  0.1439  0.6220  0.3029
  439poe     o2 5258   3.572   5.500   3.508  0.1800 -0.4641  0.2366
  439poe    c23 5259   3.482   5.391   3.510 -0.3585 -0.0295 -0.0180
  439poe    c23 5260   3.439   5.371   3.363 -0.1094 -0.4469 -0.0367
  439poe     o2 5261   3.425   5.499   3.307 -0.4384 -0.3173  0.3368
  439poe    c23 5262   3.472   5.489   3.175  0.4968 -0.3963  0.6689
  439poe    c23 5263   3.481   5.638   3.138 -0.4472 -0.5708 -0.3252
  439poe     o2 5264   3.554   5.701   3.241 -0.3749 -0.4344 -0.4594
  439poe    c23 5265   3.670   5.758   3.186 -0.1576 -0.5271 -0.1068
  439poe    c23 5266   3.722   5.839   3.306 -0.8043 -0.3720  0.0733
  439poe     o2 5267   3.691   5.778   3.430 -0.3056  0.3853  0.5810
  439poe    c31 5268   3.774   5.823   3.535  0.4790  0.2207  0.0450
  440poe    c31 5269   0.608   6.052   0.270 -0.4754  0.7079 -0.3817
  440poe     o2 5270   0.701   6.153   0.303 -0.2778  0.1861  0.7129
  440poe    c23 5271   0.652   6.285   0.299  0.3864  0.4128 -0.0955
  440poe    c23 5272   0.761   6.386   0.338  0.5804  0.3650 -0.4996
  440poe     o2 5273   0.802   6.354   0.469  0.2202 -0.3746 -0.5655
  440poe    c23 5274   0.925   6.413   0.502  0.0261 -0.5816  0.5733
  440poe    c23 5275   1.031   6.306   0.537  0.5927 -0.3742 -0.4595
  440poe     o2 5276   1.002   6.189   0.466  0.0147 -0.5033 -0.0244
  440poe    c23 5277   1.097   6.087   0.488  0.3961 -0.1845 -0.1772
  440poe    c23 5278   1.063   5.987   0.375  0.4337 -0.9319  0.4657
  440poe     o2 5279   0.924   5.968   0.358  0.2647  0.4798  0.1010
  440poe    c31 5280   0.894   5.866   0.266 -0.0677 -0.1288  0.8694
  441poe    c31 5281   2.053   5.249   1.612 -0.1250 -0.2044 -0.4864
  441poe     o2 5282   1.997   5.196   1.494 -0.1362 -0.2494 -0.4609
  441poe    c23 5283   1.973   5.292   1.393 -0.3685  0.4304  0.2374
  441poe    c23 5284   2.092   5.367   1.332 -0.2139 -0.0152 -0.0072
  441poe     o2 5285   2.153   5.282   1.237 -0.0188 -0.1194  0.2085
  441poe    c23 5286   2.291   5.277   1.261  0.1561  0.5313 -0.5972
  441poe    c23 5287   2.374   5.333   1.144  0.4219  0.5980 -0.3789
  441poe     o2 5288   2.312   5.286   1.026 -0.4106  0.5138  0.0811
  441poe    c23 5289   2.363   5.349   0.911  0.6217  0.0343  0.2590
  441poe    c23 5290   2.293   5.296   0.784  0.3707 -0.7368  0.7136
  441poe     o2 5291   2.154   5.283   0.799  0.1693  0.4312 -0.0171
  441poe    c31 5292   2.076   5.264   0.684  0.7378  0.2039 -0.3681
  442poe    c31 5293   0.397   4.758   5.956 -0.1321  0.0231  0.1935
  442poe     o2 5294   0.527   4.761   6.010 -0.0655 -0.3687  0.0584
  442poe    c23 5295   0.622   4.731   5.910 -0.0528  0.3347 -0.1448
  442poe    c23 5296   0.769   4.712   5.950 -0.2690 -0.1988  0.4075
  442poe     o2 5297   0.801   4.600   6.029 -0.0140 -0.2739  0.1994
  442poe    c23 5298   0.822   4.642   6.162 -0.4086 -0.1624  0.2256
  442poe    c23 5299   0.778   4.535   6.263 -0.0731  0.0334  0.5812
  442poe     o2 5300   0.846   4.414   6.237  0.1170  0.3095 -0.2225
  442poe    c23 5301   0.819   4.326   6.344 -0.2824  0.4717 -0.1880
  442poe    c23 5302   0.914   4.205   6.338 -0.4752  0.2979  0.2032
  442poe     o2 5303   0.952   4.189   6.203 -0.8892 -0.3670  0.1632
  442poe    c31 5304   0.990   4.054   6.183 -0.2446 -0.1795  0.1033
  443poe    c31 5305   6.837   4.148   4.346  0.4882 -0.5061 -0.6329
  443poe     o2 5306   6.744   4.088   4.258 -0.4415 -0.6102  0.4003
  443poe    c23 5307   6.625   4.053   4.326 -0.4955 -0.2922  0.4684
  443poe    c23 5308   6.575   3.925   4.257 -0.7776  0.0092  0.1042
  443poe     o2 5309   6.578   3.980   4.128 -0.1497 -0.1443  0.0483
  443poe    c23 5310   6.497   3.909   4.036  0.0265 -0.4588  0.1341
  443poe    c23 5311   6.534   3.981   3.905 -0.1317 -0.2932  0.1801
  443poe     o2 5312   6.673   3.962   3.895 -0.0373  0.4531  0.0265
  443poe    c23 5313   6.732   4.036   3.791 -0.0162  0.7329  0.2362
  443poe    c23 5314   6.870   4.091   3.830  0.3684  0.0258 -0.1091
  443poe     o2 5315   6.858   4.116   3.969  0.4308 -0.1487 -0.0722
  443poe    c31 5316   6.982   4.176   4.000  0.2356  0.2451 -0.0456
  444poe    c31 5317   3.179   6.191   1.702  0.0167  0.0034 -0.2306
  444poe     o2 5318   3.276   6.205   1.804 -0.3208  0.1859  0.0662
  444poe    c23 5319   3.246   6.122   1.914 -0.2048  0.1791  0.0927
  444poe    c23 5320   3.314   6.180   2.039  0.2927  0.1247 -0.1501
  444poe     o2 5321   3.294   6.319   2.027  0.1345  0.1083 -0.0749
  444poe    c23 5322   3.358   6.372   2.141  0.5116 -0.3238 -0.0877
  444poe    c23 5323   3.412   6.509   2.098  0.2947 -0.1592  0.1620
  444poe     o2 5324   3.489   6.480   1.983 -0.2424 -0.0913 -0.2159
  444poe    c23 5325   3.517   6.587   1.896  0.6424  0.1076  0.2965
  444poe    c23 5326   3.549   6.514   1.764  0.1279  0.2723  0.0777
  444poe     o2 5327   3.457   6.409   1.742  0.0824  0.1829  0.6751
  444poe    c31 5328   3.497   6.338   1.627  0.0957  0.5280  0.4640
  445poe    c31 5329   3.403   2.122   2.877  0.1121 -0.3691 -0.6658
  445poe     o2 5330   3.514   2.040   2.849  0.4315 -0.0151 -0.4347
  445poe    c23 5331   3.480   1.904   2.833  0.0674  0.0480 -0.1981
  445poe    c23 5332   3.590   1.822   2.903  0.3068  0.2490 -0.3370
  445poe     o2 5333   3.708   1.894   2.875  0.4194  0.5373  0.8398
  445poe    c23 5334   3.821   1.831   2.931  0.4267  0.1229  0.3697
  445poe    c23 5335   3.931   1.918   2.867 -0.1280  0.0702 -0.6722
  445poe     o2 5336   3.876   2.047   2.855 -0.1416  0.1638  0.3533
  445poe    c23 5337   3.964   2.140   2.795 -0.1444 -0.1596 -0.1521
  445poe    c23 5338   3.869   2.260   2.775  0.0673  0.0976  0.3536
  445poe     o2 5339   3.735   2.216   2.770  0.3059 -0.5624 -0.4482
  445poe    c31 5340   3.681   2.243   2.642 -0.5137 -0.0373  0.0083
  446poe    c31 5341   6.355   0.409   3.163 -0.4424 -0.0445  0.5892
  446poe     o2 5342   6.362   0.548   3.144  0.2019 -0.1668 -0.1222
  446poe    c23 5343   6.255   0.603   3.218 -0.0601 -0.1385 -0.5165
  446poe    c23 5344   6.243   0.740   3.148  0.0548  0.0325 -0.2072
  446poe     o2 5345   6.374   0.790   3.154  0.0207  0.0508  0.3773
  446poe    c23 5346   6.386   0.912   3.084  0.0860 -0.2810 -0.1907
  446poe    c23 5347   6.534   0.952   3.090 -0.0003  0.1113 -0.6036
  446poe     o2 5348   6.606   0.832   3.111  0.4559  0.4037 -0.4731
  446poe    c23 5349   6.688   0.829   3.225  0.4564 -0.0999 -0.4840
  446poe    c23 5350   6.763   0.695   3.215  0.4877 -0.1396  0.2213
  446poe     o2 5351   6.652   0.609   3.222  0.5378 -0.2302 -0.1028
  446poe    c31 5352   6.678   0.471   3.238 -0.0693 -0.3347  0.0166
  447poe    c31 5353   6.351   5.694   4.708 -0.2130 -0.7118  0.0357
  447poe     o2 5354   6.278   5.624   4.806 -0.5149  0.0264  0.3464
  447poe    c23 5355   6.152   5.593   4.750 -0.4000 -0.0399  0.1242
  447poe    c23 5356   6.045   5.544   4.849 -0.2540 -0.1817  0.2131
  447poe     o2 5357   6.109   5.442   4.923  0.1484  0.2837  0.5165
  447poe    c23 5358   6.046   5.453   5.049 -0.1168  0.1406  0.3978
  447poe    c23 5359   6.151   5.477   5.159 -0.1626  0.1897  0.4313
  447poe     o2 5360   6.259   5.552   5.107  0.0669 -0.3322  0.1389
  447poe    c23 5361   6.357   5.559   5.208  0.3788 -0.3370 -0.1639
  447poe    c23 5362   6.482   5.623   5.144  0.2135  0.2343  0.0788
  447poe     o2 5363   6.508   5.564   5.018 -0.4930 -0.0621  0.0622
  447poe    c31 5364   6.640   5.593   4.976 -0.2195 -0.1457  0.8538
  448poe    c31 5365   1.349   4.073   3.671 -0.3371 -0.1204 -0.5026
  448poe     o2 5366   1.483   4.036   3.651 -0.1402  0.2219  0.1445
  448poe    c23 5367   1.565   4.141   3.697  0.2108 -0.1095  0.2892
  448poe    c23 5368   1.672   4.087   3.794  0.4618  0.3302  0.2631
  448poe     o2 5369   1.712   3.967   3.731 -0.1023 -0.1919  0.8909
  448poe    c23 5370   1.851   3.947   3.727 -0.1136 -0.0796 -0.1658
  448poe    c23 5371   1.878   3.803   3.681  0.3493 -0.2043  0.4885
  448poe     o2 5372   1.765   3.720   3.695  0.4060 -0.3136  0.3088
  448poe    c23 5373   1.781   3.583   3.722 -0.3688 -0.5443 -0.3841
  448poe    c23 5374   1.827   3.484   3.614 -0.2121 -0.8833 -0.0105
  448poe     o2 5375   1.964   3.481   3.582 -0.0961 -0.2737  0.4353
  448poe    c31 5376   2.062   3.419   3.662 -0.0824 -0.5059  0.2371
  449poe    c31 5377   5.318   3.647   1.627 -0.3090 -0.6015 -0.0406
  449poe     o2 5378   5.188   3.598   1.649 -0.5858 -0.2201 -0.7696
  449poe    c23 5379   5.188   3.468   1.594 -0.1661 -0.4692 -0.1991
  449poe    c23 5380   5.072   3.386   1.652 -0.2794  0.2161  0.5557
  449poe     o2 5381   4.969   3.475   1.687 -0.1404  0.7212 -0.3184
  449poe    c23 5382   4.868   3.415   1.765 -0.2600  0.0651 -0.9692
  449poe    c23 5383   4.814   3.512   1.871  0.4797 -0.5787  0.0155
  449poe     o2 5384   4.872   3.632   1.827  0.5939 -0.5433  0.2592
  449poe    c23 5385   4.839   3.736   1.916 -0.5909 -0.4012 -0.3275
  449poe    c23 5386   4.912   3.862   1.866 -0.1973 -0.2567  0.5952
  449poe     o2 5387   5.030   3.824   1.799 -0.2076  0.5383  0.1099
  449poe    c31 5388   5.114   3.937   1.810 -0.1419  0.4258  0.8257
  450poe    c31 5389   2.327   2.815   3.405 -0.1364  0.0651  0.6631
  450poe     o2 5390   2.234   2.860   3.500  0.1761  0.3447  0.8382
  450poe    c23 5391   2.222   3.000   3.491 -0.0404  0.2736 -0.0929
  450poe    c23 5392   2.137   3.061   3.605  0.0055 -0.7190  0.4802
  450poe     o2 5393   2.188   3.026   3.731  0.1346  0.1022  0.6558
  450poe    c23 5394   2.098   3.046   3.837  0.0117  0.3824  0.5010
  450poe    c23 5395   2.094   2.910   3.911  0.1869 -0.1941 -0.5295
  450poe     o2 5396   2.089   2.806   3.817  0.1983 -0.4716 -0.2249
  450poe    c23 5397   2.052   2.675   3.856  0.4871 -0.5985 -0.3719
  450poe    c23 5398   2.006   2.600   3.730 -0.1786 -0.8248  0.0068
  450poe     o2 5399   2.094   2.617   3.621 -0.0910  0.2213  0.2392
  450poe    c31 5400   2.046   2.537   3.516  0.1846  0.1306  0.1819
  451poe    c31 5401   5.074   5.475   3.657  0.0153  0.2231  0.3954
  451poe     o2 5402   4.980   5.371   3.674  0.1668 -0.0556 -0.4584
  451poe    c23 5403   4.844   5.407   3.661  0.1541  0.1203  0.1567
  451poe    c23 5404   4.751   5.286   3.681  0.5567 -0.1025  0.7263
  451poe     o2 5405   4.818   5.205   3.586 -0.6305 -0.0116 -0.2140
  451poe    c23 5406   4.771   5.189   3.455  0.0044  0.0545 -0.4515
  451poe    c23 5407   4.866   5.085   3.393  0.0783 -0.1122 -0.0604
  451poe     o2 5408   4.994   5.112   3.446  0.1039 -0.3401 -0.0017
  451poe    c23 5409   5.097   5.041   3.382  0.3289 -0.5503  0.5917
  451poe    c23 5410   5.220   5.134   3.393  0.1489 -0.3164  0.6259
  451poe     o2 5411   5.210   5.199   3.518  0.0178  0.5177  0.1894
  451poe    c31 5412   5.335   5.195   3.582  0.0201  0.2817  0.1705
  452poe    c31 5413   2.011   5.333   6.565 -0.2434  0.0607 -0.6990
  452poe     o2 5414   1.880   5.291   6.594 -0.1180  0.2722  0.1806
  452poe    c23 5415   1.796   5.313   6.483 -0.0668  0.3807  0.1637
  452poe    c23 5416   1.654   5.340   6.537  0.0129  0.0440  0.5457
  452poe     o2 5417   1.633   5.229   6.621 -0.3648 -0.2039  0.1240
  452poe    c23 5418   1.508   5.239   6.684 -0.5647 -0.8264 -0.1604
  452poe    c23 5419   1.543   5.178   6.821  0.4520 -0.1893 -0.1238
  452poe     o2 5420   1.680   5.204   6.843  0.3069 -0.0926  0.7205
  452poe    c23 5421   1.731   5.134   6.954  0.8256 -0.1412  0.4534
  452poe    c23 5422   1.884   5.146   6.960  0.8019  0.2683  0.2882
  452poe     o2 5423   1.944   5.158   6.832  0.1522 -0.1265 -0.0565
  452poe    c31 5424   2.070   5.098   6.852  0.4372  0.8292  1.1258
  453poe    c31 5425   2.239   6.329   1.146  0.0267  0.4029  0.7270
  453poe     o2 5426   2.347   6.403   1.094 -0.0352 -0.0911 -0.1295
  453poe    c23 5427   2.335   6.531   1.152 -0.4055 -0.1050 -0.1762
  453poe    c23 5428   2.464   6.605   1.112 -0.3486 -0.0339  0.1317
  453poe     o2 5429   2.574   6.517   1.100 -0.2905  0.0674 -0.0874
  453poe    c23 5430   2.693   6.587   1.131 -0.0517 -0.4491  0.1893
  453poe    c23 5431   2.768   6.481   1.213  0.3654 -0.1988  0.1341
  453poe     o2 5432   2.756   6.350   1.162 -0.5565 -0.1529  0.2055
  453poe    c23 5433   2.740   6.248   1.258  0.3301 -0.1821  0.3336
  453poe    c23 5434   2.662   6.124   1.209 -0.5885  0.4976  0.0496
  453poe     o2 5435   2.551   6.174   1.138 -0.7499  0.2859  0.1524
  453poe    c31 5436   2.460   6.069   1.114 -0.0604 -0.3476  0.2687
  454poe    c31 5437   6.430   0.165   5.692  0.2071 -0.2786  0.1871
  454poe     o2 5438   6.364   0.073   5.776 -0.2818 -0.2232 -0.1303
  454poe    c23 5439   6.401  -0.062   5.760 -0.8631 -0.3444 -0.5004
  454poe    c23 5440   6.324  -0.141   5.868 -0.2827 -0.2080  0.0205
  454poe     o2 5441   6.333  -0.077   5.993  0.1313 -0.6946  0.2431
  454poe    c23 5442   6.286  -0.146   6.107 -0.0216 -0.2663  0.4440
  454poe    c23 5443   6.196  -0.047   6.183 -0.2478 -0.1313  0.0071
  454poe     o2 5444   6.176   0.061   6.094 -0.4688 -0.1819 -0.0051
  454poe    c23 5445   6.045   0.113   6.097 -0.2911  0.2556  0.4031
  454poe    c23 5446   6.061   0.251   6.031  0.7996  0.2640  0.6671
  454poe     o2 5447   6.114   0.218   5.905  0.5854  0.5032  0.5150
  454poe    c31 5448   6.126   0.328   5.817 -0.6203  0.3058  0.0721
  455poe    c31 5449   4.744   6.199   6.508  0.5434 -0.0699  0.1558
  455poe     o2 5450   4.773   6.127   6.390 -0.2773 -0.4524  0.1773
  455poe    c23 5451   4.816   5.996   6.421  0.2048 -0.4305 -0.3848
  455poe    c23 5452   4.952   5.969   6.354  0.0973 -1.2106 -0.2952
  455poe     o2 5453   4.969   5.967   6.214  0.1669 -0.4675 -0.2994
  455poe    c23 5454   5.045   6.079   6.174  0.1527 -0.2344  0.3185
  455poe    c23 5455   4.975   6.213   6.141 -0.2132 -0.5621 -0.2536
  455poe     o2 5456   4.910   6.284   6.244  0.3873 -0.1892 -0.1257
  455poe    c23 5457   4.869   6.413   6.207 -0.1478 -0.2431  0.2762
  455poe    c23 5458   4.740   6.460   6.277 -0.1664 -0.0584  0.1191
  455poe     o2 5459   4.648   6.354   6.261 -0.4228  0.1330  0.3153
  455poe    c31 5460   4.522   6.417   6.249 -0.7302 -0.6431 -0.6853
  456poe    c31 5461   3.013   5.902   2.734  0.0098  0.3717 -0.1404
  456poe     o2 5462   2.978   5.765   2.735  0.5196  0.2369 -0.3122
  456poe    c23 5463   2.901   5.723   2.846 -0.0567 -0.1180 -0.8436
  456poe    c23 5464   2.950   5.586   2.894 -0.1951  0.1349  0.0406
  456poe     o2 5465   2.935   5.515   2.773  0.0105  0.2095 -0.0293
  456poe    c23 5466   2.990   5.385   2.779  0.2810  0.3095 -0.3339
  456poe    c23 5467   2.936   5.316   2.652 -0.3537  0.4202 -0.1291
  456poe     o2 5468   2.995   5.396   2.552  0.4441 -0.1175 -0.1075
  456poe    c23 5469   2.950   5.354   2.426 -0.4244  0.0519  0.1378
  456poe    c23 5470   3.041   5.417   2.319 -0.0243 -0.8115 -0.0463
  456poe     o2 5471   2.986   5.413   2.189 -0.3310 -0.0581  0.0530
  456poe    c31 5472   3.079   5.427   2.084 -0.6050  0.3185 -0.1439
  457poe    c31 5473   5.395   3.849   3.644  0.3935 -0.3937 -0.4491
  457poe     o2 5474   5.261   3.820   3.679  0.1172  0.4526 -0.7949
  457poe    c23 5475   5.236   3.816   3.818  0.4117 -0.4723 -0.7608
  457poe    c23 5476   5.117   3.724   3.847 -0.1070  0.3721 -0.1662
  457poe     o2 5477   5.020   3.758   3.750  0.1213 -0.1084 -0.5692
  457poe    c23 5478   4.917   3.662   3.760  0.4520 -0.4473 -0.3985
  457poe    c23 5479   4.829   3.708   3.642 -0.0396 -1.0978 -0.2849
  457poe     o2 5480   4.917   3.744   3.539  0.3150 -0.0024  0.3855
  457poe    c23 5481   4.855   3.831   3.446  0.1378 -0.6637 -0.1248
  457poe    c23 5482   4.974   3.881   3.362  0.2631 -0.2828  0.2748
  457poe     o2 5483   5.079   3.924   3.446  0.4651 -0.3980  0.0832
  457poe    c31 5484   5.183   3.995   3.382 -0.0303  0.1310 -0.1470
  458poe    c31 5485   0.988   1.302   3.168  0.1089 -0.3124  0.2428
  458poe     o2 5486   0.942   1.182   3.110  0.3767 -0.5503  0.5152
  458poe    c23 5487   0.936   1.194   2.970  0.1660  0.6918  0.6194
  458poe    c23 5488   0.827   1.105   2.908  0.2858  0.6195  0.5123
  458poe     o2 5489   0.858   0.989   2.983  0.0983 -0.2977 -0.7943
  458poe    c23 5490   0.759   0.896   2.944 -0.4101 -0.0166 -0.1844
  458poe    c23 5491   0.783   0.777   3.040 -0.9832  0.2549  0.3005
  458poe     o2 5492   0.806   0.836   3.166  0.5241 -0.4363  0.3590
  458poe    c23 5493   0.862   0.747   3.260 -0.6754 -0.8945  0.6484
  458poe    c23 5494   0.925   0.838   3.367 -0.1639 -0.4940  0.0078
  458poe     o2 5495   0.990   0.947   3.305 -0.3565 -0.1418  0.4176
  458poe    c31 5496   1.099   0.994   3.381  0.0513 -0.1588 -0.1492
  459poe    c31 5497   4.099   4.485   0.725 -0.0784  0.8180 -0.4285
  459poe     o2 5498   4.018   4.562   0.811  0.2272  0.0042  0.6076
  459poe    c23 5499   4.018   4.698   0.772 -0.3058 -0.3723 -0.7577
  459poe    c23 5500   4.017   4.788   0.897  0.4282 -0.7214 -0.4967
  459poe     o2 5501   4.027   4.715   1.016 -0.1941 -0.1451 -0.0847
  459poe    c23 5502   3.985   4.779   1.135  0.2203  0.0270 -0.0279
  459poe    c23 5503   3.960   4.661   1.230 -0.6254  0.3984  0.2170
  459poe     o2 5504   3.925   4.544   1.160 -0.3515 -0.0368  0.8036
  459poe    c23 5505   3.972   4.432   1.232 -0.4609 -0.0659  0.8304
  459poe    c23 5506   3.958   4.312   1.136  0.7797  0.1647  0.3396
  459poe     o2 5507   3.968   4.343   0.999  0.7025 -0.2634  0.2329
  459poe    c31 5508   4.010   4.222   0.941  0.4928 -0.5527  0.6765
  460poe    c31 5509   4.650   3.378   4.583 -0.5412  0.5038  0.2154
  460poe     o2 5510   4.515   3.383   4.541 -0.3758 -0.5406 -0.4789
  460poe    c23 5511   4.510   3.503   4.468  0.0285 -0.4318 -0.3284
  460poe    c23 5512   4.367   3.508   4.411 -0.3366 -0.0918  0.5963
  460poe     o2 5513   4.280   3.468   4.515 -0.0243 -0.4387  0.7299
  460poe    c23 5514   4.150   3.438   4.470  0.1943  0.2678 -0.4337
  460poe    c23 5515   4.077   3.373   4.589  0.2185 -0.2524 -0.6997
  460poe     o2 5516   4.180   3.288   4.636  0.5138  0.5315  0.1161
  460poe    c23 5517   4.145   3.256   4.769  0.4616  0.1999  0.0248
  460poe    c23 5518   4.264   3.176   4.825  0.2597  0.1305  0.3606
  460poe     o2 5519   4.376   3.246   4.773  0.3024 -0.2516 -0.0623
  460poe    c31 5520   4.495   3.184   4.815  0.4131 -0.3821 -0.5515
  461poe    c31 5521   6.481   1.317   0.036  0.2740  0.4831 -0.2707
  461poe     o2 5522   6.366   1.358  -0.035  0.2653 -0.1261 -0.6141
  461poe    c23 5523   6.300   1.257  -0.108  0.1418 -0.2634 -0.3140
  461poe    c23 5524   6.156   1.256  -0.161  0.1864 -0.3023 -0.4365
  461poe     o2 5525   6.116   1.328  -0.276 -0.1945 -0.1834 -0.2324
  461poe    c23 5526   6.145   1.465  -0.279 -0.2211 -0.1767 -0.1926
  461poe    c23 5527   6.018   1.538  -0.327 -0.3846 -0.3531 -0.0234
  461poe     o2 5528   5.992   1.485  -0.455 -0.2317  0.1063 -0.2447
  461poe    c23 5529   5.889   1.551  -0.526 -0.1694 -0.0896 -0.5168
  461poe    c23 5530   5.868   1.471  -0.656 -0.0150  0.1827 -0.7085
  461poe     o2 5531   5.884   1.335  -0.625  0.3114  0.2820 -0.4427
  461poe    c31 5532   5.862   1.246  -0.732 -0.1816  0.0640 -0.1614
  462poe    c31 5533   5.738   3.625   1.032 -0.1116 -0.0936  0.0223
  462poe     o2 5534   5.867   3.572   1.017 -0.1287 -0.3133  0.6448
  462poe    c23 5535   5.920   3.570   1.148  0.1979 -0.5499  0.5102
  462poe    c23 5536   6.034   3.466   1.137  0.0014 -0.7557  0.4170
  462poe     o2 5537   6.117   3.493   1.026 -0.4615 -0.3263  0.1689
  462poe    c23 5538   6.230   3.410   1.040 -0.0759  0.0725 -0.5184
  462poe    c23 5539   6.352   3.468   0.967  0.2176  0.0712 -0.0357
  462poe     o2 5540   6.335   3.505   0.832  0.0752 -0.6770 -0.2274
  462poe    c23 5541   6.449   3.564   0.773  0.1096 -0.3422  0.1737
  462poe    c23 5542   6.452   3.717   0.788 -0.1372 -0.2633 -0.5572
  462poe     o2 5543   6.481   3.745   0.923 -0.1987 -0.1021 -0.5768
  462poe    c31 5544   6.488   3.884   0.942 -0.2038 -0.1005 -0.5870
  463poe    c31 5545   3.397   1.071   2.414 -0.1710  0.3515 -0.5066
  463poe     o2 5546   3.385   1.186   2.495 -0.1874  0.0980 -0.1495
  463poe    c23 5547   3.454   1.163   2.616 -1.1587  0.6199  0.5165
  463poe    c23 5548   3.502   1.298   2.673  1.0238  0.1590 -0.1683
  463poe     o2 5549   3.547   1.373   2.563  0.0993  0.3069 -0.4529
  463poe    c23 5550   3.608   1.495   2.599  0.8110 -0.0248 -0.5181
  463poe    c23 5551   3.589   1.586   2.476  0.3702  0.4817 -0.0836
  463poe     o2 5552   3.457   1.554   2.438  0.4515 -0.2265  0.2183
  463poe    c23 5553   3.441   1.596   2.304  0.3574 -0.5815  0.1182
  463poe    c23 5554   3.307   1.542   2.250  0.3424 -0.6402  0.2116
  463poe     o2 5555   3.289   1.408   2.288 -0.5717 -0.5224  0.1993
  463poe    c31 5556   3.221   1.339   2.185  0.6212 -0.0631 -0.9157
  464poe    c31 5557   1.258   6.632   5.798 -0.0645  1.2440  0.0420
  464poe     o2 5558   1.317   6.687   5.682 -0.1337  0.0602 -0.5698
  464poe    c23 5559   1.427   6.604   5.651 -0.0821 -0.0113 -0.1951
  464poe    c23 5560   1.479   6.675   5.525 -0.3714  0.4921 -0.0368
  464poe     o2 5561   1.449   6.809   5.554  0.7363  0.7885 -0.2283
  464poe    c23 5562   1.490   6.888   5.445  0.4865  0.2261 -0.7288
  464poe    c23 5563   1.452   7.035   5.467  0.1372  0.0040  0.1820
  464poe     o2 5564   1.350   7.035   5.564 -0.0591  0.1454 -0.0229
  464poe    c23 5565   1.219   7.053   5.515 -0.1087  0.2021  0.1305
  464poe    c23 5566   1.114   7.019   5.622 -0.0390 -0.4154  0.0027
  464poe     o2 5567   1.168   6.911   5.695  0.4155 -0.0529  0.2058
  464poe    c31 5568   1.055   6.869   5.767  0.3678 -0.9390 -0.3627
  465poe    c31 5569   2.740   3.109   6.777  0.5758  0.3434  0.5164
  465poe     o2 5570   2.631   3.029   6.819  0.4316  0.3287  0.1233
  465poe    c23 5571   2.688   2.901   6.839 -0.3419 -0.0653 -0.1702
  465poe    c23 5572   2.569   2.805   6.820 -0.4362 -0.0524  0.3440
  465poe     o2 5573   2.446   2.855   6.868 -0.3075  0.3093  0.2999
  465poe    c23 5574   2.344   2.776   6.811  0.0385 -0.0681  0.1966
  465poe    c23 5575   2.230   2.877   6.785  0.1989  0.0608 -0.0107
  465poe     o2 5576   2.295   2.998   6.755 -0.3578  0.3757  0.0521
  465poe    c23 5577   2.238   3.099   6.674 -0.2780  0.0559 -0.4063
  465poe    c23 5578   2.359   3.177   6.620 -0.3132  0.5337  0.1981
  465poe     o2 5579   2.443   3.207   6.730  0.0482  0.1463  0.0333
  465poe    c31 5580   2.468   3.345   6.744 -0.5266  0.3069 -0.4542
  466poe    c31 5581   6.688   2.460   5.526  0.1410  0.7200  0.3062
  466poe     o2 5582   6.759   2.541   5.619  0.2689  0.7041  0.2230
  466poe    c23 5583   6.684   2.508   5.734 -0.0761 -0.6250 -0.3571
  466poe    c23 5584   6.665   2.629   5.828 -0.5486 -0.7503 -0.2874
  466poe     o2 5585   6.787   2.699   5.824 -0.8452 -0.2339 -0.3034
  466poe    c23 5586   6.807   2.816   5.901 -0.2154 -0.5012 -0.0516
  466poe    c23 5587   6.959   2.839   5.894 -0.2196 -0.4815 -0.0782
  466poe     o2 5588   6.992   2.809   5.760 -0.1384  0.3802 -0.2572
  466poe    c23 5589   7.124   2.761   5.749 -0.3020 -0.0994 -0.1405
  466poe    c23 5590   7.130   2.697   5.609  0.2962  0.3330 -0.3203
  466poe     o2 5591   7.016   2.624   5.569  0.4168  0.0451 -0.1385
  466poe    c31 5592   7.035   2.541   5.457 -0.7214 -0.4503  0.0152
  467poe    c31 5593   4.386   5.232   0.063  0.2123  0.2586 -0.3695
  467poe     o2 5594   4.286   5.302  -0.008  0.0124  0.5650  0.2137
  467poe    c23 5595   4.291   5.441   0.018  0.3737  0.6647 -0.3738
  467poe    c23 5596   4.170   5.519  -0.034 -0.0574 -0.0084 -0.3867
  467poe     o2 5597   4.047   5.484   0.027 -0.1705 -0.1355 -0.6844
  467poe    c23 5598   3.950   5.573  -0.025  0.3011 -0.1601 -1.6352
  467poe    c23 5599   3.822   5.489  -0.042 -0.3512  0.5350 -0.2902
  467poe     o2 5600   3.799   5.416   0.077  0.7839  0.6954  0.0365
  467poe    c23 5601   3.664   5.430   0.115  0.5624 -0.8275 -0.1236
  467poe    c23 5602   3.661   5.380   0.260  0.4807 -0.6707 -0.0704
  467poe     o2 5603   3.767   5.454   0.316  0.0920 -0.1089 -0.0711
  467poe    c31 5604   3.756   5.463   0.456 -0.7086  0.5783 -0.1759
  468poe    c31 5605   0.801   2.096   4.486  0.1825 -0.0850  1.4567
  468poe     o2 5606   0.789   2.220   4.420  0.2848 -0.7421  0.1742
  468poe    c23 5607   0.912   2.287   4.436 -0.1298  0.0863 -0.0354
  468poe    c23 5608   0.893   2.440   4.431 -0.4351  0.0414 -0.2892
  468poe     o2 5609   0.810   2.443   4.317 -0.2656 -0.2746 -0.4244
  468poe    c23 5610   0.780   2.575   4.277 -0.0757 -0.0437  0.1883
  468poe    c23 5611   0.672   2.561   4.169 -0.4287  0.6407  0.4456
  468poe     o2 5612   0.584   2.466   4.224  0.3100 -0.1029  0.3622
  468poe    c23 5613   0.495   2.415   4.126  0.4203 -0.2870  0.3570
  468poe    c23 5614   0.440   2.290   4.196 -0.3606 -0.0773  0.1197
  468poe     o2 5615   0.548   2.217   4.248 -0.1187  0.0209 -0.2426
  468poe    c31 5616   0.496   2.089   4.276  0.4440 -0.2586 -0.4402
  469poe    c31 5617   2.301   1.290   1.684  0.4294 -0.8154  0.9048
  469poe     o2 5618   2.247   1.190   1.600 -0.5339  0.3825  0.0762
  469poe    c23 5619   2.192   1.239   1.479 -0.7185 -0.2587 -0.1046
  469poe    c23 5620   2.113   1.132   1.402 -0.1682 -0.4646 -0.3938
  469poe     o2 5621   2.192   1.017   1.414  0.0410 -0.2430  0.4396
  469poe    c23 5622   2.128   0.893   1.433 -0.0700 -0.2937 -0.2405
  469poe    c23 5623   2.150   0.838   1.575  0.5420 -1.3409 -0.7242
  469poe     o2 5624   2.282   0.882   1.598 -0.0079 -0.0309  0.0915
  469poe    c23 5625   2.322   0.849   1.730  0.1691 -0.2982 -0.0263
  469poe    c23 5626   2.465   0.897   1.758  0.0312  0.0763  0.0505
  469poe     o2 5627   2.496   1.022   1.699 -0.3812  0.4405  0.6032
  469poe    c31 5628   2.601   1.077   1.775 -0.0551 -0.0180  0.4921
  470poe    c31 5629   5.710   0.040   5.235  1.1492  0.5225 -0.6167
  470poe     o2 5630   5.738   0.098   5.360  0.0339 -0.2876  0.0177
  470poe    c23 5631   5.818   0.214   5.348 -0.2320 -0.0019  0.9108
  470poe    c23 5632   5.856   0.259   5.490 -0.3638  0.7726  0.7014
  470poe     o2 5633   5.728   0.276   5.547 -0.7171  0.5102 -0.0077
  470poe    c23 5634   5.723   0.289   5.687 -0.1876  0.1203  0.0486
  470poe    c23 5635   5.573   0.277   5.719 -0.1327 -0.1875  0.1940
  470poe     o2 5636   5.533   0.154   5.663  0.0489 -0.0484 -0.2428
  470poe    c23 5637   5.544   0.042   5.748 -0.5397 -0.0032 -0.1014
  470poe    c23 5638   5.489  -0.080   5.672 -0.0303 -0.2173 -0.1311
  470poe     o2 5639   5.552  -0.064   5.546  0.3934 -0.2927  0.0688
  470poe    c31 5640   5.559  -0.185   5.474  0.5318 -0.0046 -0.4062
  471poe    c31 5641   3.721   4.898   2.974 -0.2884 -0.2171  0.2933
  471poe     o2 5642   3.812   4.884   3.081 -0.3117 -0.2359  0.3105
  471poe    c23 5643   3.809   4.745   3.108 -0.3190 -0.2297  0.3410
  471poe    c23 5644   3.894   4.725   3.235 -0.2734  0.0388  0.3541
  471poe     o2 5645   4.014   4.792   3.204 -0.4539  0.3973  0.4215
  471poe    c23 5646   4.105   4.798   3.312  0.4948 -0.4578 -0.3104
  471poe    c23 5647   4.227   4.879   3.266  0.2397  0.2321  0.2097
  471poe     o2 5648   4.163   4.990   3.209  0.0933  0.0354 -0.0123
  471poe    c23 5649   4.241   5.030   3.099  0.3187 -0.1093  0.0957
  471poe    c23 5650   4.172   5.122   2.997 -0.4086 -0.6344  0.1152
  471poe     o2 5651   4.046   5.063   2.969 -0.0042 -1.0260 -0.9300
  471poe    c31 5652   3.971   5.144   2.882 -0.0745  0.5632  0.5561
  472poe    c31 5653   1.426   2.917   6.269  0.2678 -0.0962  0.0248
  472poe     o2 5654   1.476   2.837   6.374  0.0760 -0.3786 -0.0990
  472poe    c23 5655   1.373   2.782   6.454  0.1425 -0.3928 -0.0229
  472poe    c23 5656   1.309   2.854   6.574  0.2126 -0.0162 -0.2078
  472poe     o2 5657   1.418   2.897   6.652  0.1369  0.5810 -0.4283
  472poe    c23 5658   1.388   2.990   6.755  0.7578  0.1336  0.1609
  472poe    c23 5659   1.503   2.983   6.858  0.5752  0.0144  0.3572
  472poe     o2 5660   1.626   2.977   6.789  0.4573 -0.4168  0.1807
  472poe    c23 5661   1.712   3.010   6.895 -0.0083  0.6386  0.2492
  472poe    c23 5662   1.863   3.023   6.867 -0.0389  0.3773 -0.0447
  472poe     o2 5663   1.898   3.137   6.793  0.0755  0.4417  0.1069
  472poe    c31 5664   1.969   3.234   6.867  0.5561 -0.2177  0.5165
  473poe    c31 5665   2.349   0.979   3.480 -0.8726 -0.1935 -0.1664
  473poe     o2 5666   2.390   1.085   3.564  0.3039 -0.5381 -0.2824
  473poe    c23 5667   2.507   1.036   3.626  0.5906  0.6900  0.1801
  473poe    c23 5668   2.537   1.131   3.744  0.4584  0.0914  0.7020
  473poe     o2 5669   2.541   1.256   3.678  0.5583 -0.2028  0.1446
  473poe    c23 5670   2.541   1.366   3.766  1.2203  0.1840 -0.3322
  473poe    c23 5671   2.549   1.486   3.671  0.3317  0.2712 -0.3022
  473poe     o2 5672   2.447   1.458   3.578  0.4859  0.0973 -0.4193
  473poe    c23 5673   2.348   1.557   3.569 -0.0090 -0.3593 -0.1039
  473poe    c23 5674   2.248   1.495   3.469  0.1399 -0.0727 -0.4345
  473poe     o2 5675   2.233   1.356   3.484  0.3754 -0.0537  0.0193
  473poe    c31 5676   2.171   1.298   3.371  0.4648 -0.5455  0.2190
  474poe    c31 5677   6.679   4.353   5.492  0.2732  0.2152  0.1988
  474poe     o2 5678   6.564   4.320   5.417  0.3304  0.2880  0.0795
  474poe    c23 5679   6.460   4.411   5.446 -0.0552 -0.1351  0.0306
  474poe    c23 5680   6.343   4.409   5.345 -0.1230 -0.3481  0.1131
  474poe     o2 5681   6.312   4.272   5.331 -0.2539 -0.3255  0.1814
  474poe    c23 5682   6.196   4.248   5.254  0.3099 -0.2633 -0.7082
  474poe    c23 5683   6.177   4.096   5.239 -0.0338 -0.2753 -0.2026
  474poe     o2 5684   6.308   4.052   5.212  0.0830 -0.2560  0.3240
  474poe    c23 5685   6.346   3.922   5.250  0.6913 -0.0454  0.4623
  474poe    c23 5686   6.496   3.919   5.215  0.6060 -0.0482  0.0886
  474poe     o2 5687   6.557   4.022   5.289  0.2690  0.2311 -0.0186
  474poe    c31 5688   6.693   3.997   5.317  0.3146  0.1073 -0.3394
  475poe    c31 5689   2.201   0.063   5.796 -0.1491  0.2020  0.1419
  475poe     o2 5690   2.282   0.113   5.692 -0.1914 -0.5535 -0.2579
  475poe    c23 5691   2.411   0.090   5.745 -0.1824  0.3912  0.1452
  475poe    c23 5692   2.519   0.086   5.636 -0.1006  1.1243  0.1950
  475poe     o2 5693   2.443   0.086   5.517 -0.4703  0.1453  0.4201
  475poe    c23 5694   2.515   0.120   5.400 -0.3096  0.0125  0.4813
  475poe    c23 5695   2.409   0.214   5.340 -0.1400  0.1427  0.3858
  475poe     o2 5696   2.281   0.155   5.337 -0.3320  0.5779 -0.0951
  475poe    c23 5697   2.174   0.242   5.308 -0.2188  0.9910  0.7119
  475poe    c23 5698   2.045   0.165   5.343  0.3449 -0.1442  0.3213
  475poe     o2 5699   2.060   0.119   5.475 -0.4667 -0.2330  0.3850
  475poe    c31 5700   1.955   0.035   5.517 -0.2176 -0.7918 -0.0941
  476poe    c31 5701   2.492   0.747   2.641  0.3757  0.1332  0.1270
  476poe     o2 5702   2.419   0.818   2.738  0.1750  0.2866 -0.1352
  476poe    c23 5703   2.299   0.746   2.762  0.4328 -0.1213 -0.0567
  476poe    c23 5704   2.219   0.830   2.863  1.0085  0.3778 -0.0118
  476poe     o2 5705   2.197   0.961   2.814  0.2900  0.3568  0.2439
  476poe    c23 5706   2.137   1.054   2.900 -0.6149  0.2131 -0.2257
  476poe    c23 5707   2.163   1.198   2.853 -0.1840  0.1328 -0.2319
  476poe     o2 5708   2.261   1.202   2.752  0.4947  0.0451  0.4160
  476poe    c23 5709   2.340   1.317   2.730 -0.0973  0.3339 -0.2712
  476poe    c23 5710   2.453   1.268   2.638 -0.1518  0.1857 -0.2587
  476poe     o2 5711   2.486   1.135   2.674 -0.4726  0.1731 -0.0065
  476poe    c31 5712   2.614   1.085   2.642 -0.7445 -0.5246 -0.0110
  477poe    c31 5713   3.100   0.096   4.863  0.3319 -0.2260  0.4379
  477poe     o2 5714   2.959   0.099   4.863  0.3377  0.1795 -0.2512
  477poe    c23 5715   2.906   0.225   4.827  0.4513  0.1116 -0.6596
  477poe    c23 5716   2.776   0.229   4.910  0.8014  0.2778 -0.1165
  477poe     o2 5717   2.725   0.098   4.905  0.5501  0.3483  0.5737
  477poe    c23 5718   2.592   0.114   4.950  0.2777  0.3562 -0.2254
  477poe    c23 5719   2.546  -0.028   4.985  0.2511  0.2841 -0.5423
  477poe     o2 5720   2.585  -0.110   4.877 -0.1247 -0.2646 -0.2670
  477poe    c23 5721   2.594  -0.241   4.928  0.0582 -0.1076  0.1114
  477poe    c23 5722   2.722  -0.276   4.850  0.3098  0.3333  0.3248
  477poe     o2 5723   2.841  -0.204   4.874  0.6582 -0.1676  0.1031
  477poe    c31 5724   2.944  -0.264   4.797 -0.2869 -0.7114 -0.7624
  478poe    c31 5725   4.244   3.085   3.953 -0.6699 -0.9411  0.0002
  478poe     o2 5726   4.321   2.974   3.992  0.0394 -0.3604  0.2940
  478poe    c23 5727   4.294   2.867   3.904  0.4221 -0.1405 -0.0939
  478poe    c23 5728   4.357   2.737   3.959  0.1458 -0.1702  0.1565
  478poe     o2 5729   4.487   2.772   4.001 -0.0770  0.0992  0.6274
  478poe    c23 5730   4.550   2.678   4.084  0.4438 -0.1276 -0.0150
  478poe    c23 5731   4.676   2.753   4.131  0.3701 -0.0712  0.0944
  478poe     o2 5732   4.647   2.886   4.169 -0.5956 -0.2478  0.0141
  478poe    c23 5733   4.765   2.963   4.164 -0.8689  0.2183  0.6289
  478poe    c23 5734   4.718   3.103   4.122 -0.3795  0.2308  0.1055
  478poe     o2 5735   4.609   3.092   4.033  0.0023 -0.1321 -0.3257
  478poe    c31 5736   4.598   3.214   3.963  0.4222 -0.2241 -0.5479
  479poe    c31 5737   6.534   2.984   1.608 -0.3472  0.3263 -0.5649
  479poe     o2 5738   6.405   3.041   1.616 -0.5190 -0.2022  0.7872
  479poe    c23 5739   6.300   2.952   1.586  0.3720 -1.1523  0.4228
  479poe    c23 5740   6.210   2.939   1.711 -0.4703  0.0829 -0.0297
  479poe     o2 5741   6.198   3.069   1.765 -0.9273  0.1133 -0.2003
  479poe    c23 5742   6.251   3.079   1.895  0.0958 -0.1852 -0.5834
  479poe    c23 5743   6.292   3.227   1.906 -0.4199 -0.0578 -0.3575
  479poe     o2 5744   6.385   3.255   1.804  0.3020 -0.6919  0.1125
  479poe    c23 5745   6.425   3.390   1.800  0.0725 -0.6351 -0.4073
  479poe    c23 5746   6.521   3.411   1.682  0.1228 -0.1248 -0.2813
  479poe     o2 5747   6.461   3.351   1.569 -0.3500  0.3744 -0.2980
  479poe    c31 5748   6.518   3.382   1.444 -0.1854  0.2049 -0.2648
  480poe    c31 5749   5.410   0.285   6.666 -0.8198 -0.2219 -0.1393
  480poe     o2 5750   5.371   0.406   6.605  0.2393  0.0036 -0.4022
  480poe    c23 5751   5.230   0.407   6.597  0.2195  0.2143 -0.0345
  480poe    c23 5752   5.190   0.536   6.524 -0.0417  0.2948  0.2457
  480poe     o2 5753   5.274   0.632   6.584  0.4753  0.0363 -0.0537
  480poe    c23 5754   5.305   0.730   6.488  0.7533 -0.2677 -0.2773
  480poe    c23 5755   5.434   0.803   6.530  0.3207  0.5872 -0.4125
  480poe     o2 5756   5.524   0.698   6.558 -0.4126 -0.0308 -0.3546
  480poe    c23 5757   5.659   0.713   6.522 -0.1796 -0.4475  0.3325
  480poe    c23 5758   5.718   0.572   6.537  0.0465 -0.4062 -0.1426
  480poe     o2 5759   5.646   0.515   6.644 -0.1843  0.2609  0.0619
  480poe    c31 5760   5.736   0.431   6.713 -0.8632 -0.2949  0.2823
  481poe    c31 5761   4.906   5.288   0.861  0.2528 -0.3395  0.7507
  481poe     o2 5762   5.027   5.352   0.826 -0.3969  0.0248 -0.8885
  481poe    c23 5763   5.082   5.377   0.953 -0.1962 -0.3836 -0.8921
  481poe    c23 5764   5.232   5.398   0.926 -0.2515  0.4408 -0.5978
  481poe     o2 5765   5.251   5.493   0.824 -0.2135  0.4514 -0.5802
  481poe    c23 5766   5.381   5.548   0.827  0.1398 -0.3885  0.4962
  481poe    c23 5767   5.407   5.606   0.686 -0.0395 -1.1685  0.1399
  481poe     o2 5768   5.283   5.672   0.676  0.7677  0.4460  0.4377
  481poe    c23 5769   5.285   5.725   0.545  0.4085  0.2198  0.3370
  481poe    c23 5770   5.136   5.751   0.518  0.2907  0.0812  0.8357
  481poe     o2 5771   5.063   5.645   0.574  0.1737 -0.3798 -0.1574
  481poe    c31 5772   4.951   5.637   0.489  0.5286 -0.7277 -0.5973
  482poe    c31 5773   6.569   4.774   3.890 -0.0069  0.5138  0.0572
  482poe     o2 5774   6.462   4.798   3.801 -0.0503 -0.4794 -0.1646
  482poe    c23 5775   6.360   4.872   3.863  0.1014 -0.7227  0.3846
  482poe    c23 5776   6.253   4.911   3.760  0.4356  0.1858  0.3688
  482poe     o2 5777   6.241   4.785   3.697  0.1860  0.6380 -0.5031
  482poe    c23 5778   6.141   4.785   3.598 -0.1259 -0.3927 -0.1982
  482poe    c23 5779   6.155   4.664   3.504 -0.6044 -0.5184 -0.1112
  482poe     o2 5780   6.293   4.648   3.481 -0.4618  0.4241  0.0686
  482poe    c23 5781   6.358   4.746   3.403 -0.4563  0.4723  0.1326
  482poe    c23 5782   6.509   4.721   3.423 -0.4838  0.2827  0.1114
  482poe     o2 5783   6.543   4.736   3.559 -0.3765  0.6450  0.0456
  482poe    c31 5784   6.683   4.745   3.559 -0.4077  1.1766 -0.1846
  483poe    c31 5785   0.417   1.039   4.099 -0.3291  0.5169  0.3394
  483poe     o2 5786   0.354   1.081   3.981  0.1466 -0.3786 -0.2534
  483poe    c23 5787   0.287   1.199   4.020  1.0222 -0.1445  0.5695
  483poe    c23 5788   0.255   1.286   3.896  0.9571 -0.3747  0.4247
  483poe     o2 5789   0.163   1.205   3.826  0.6866  0.0375  0.3047
  483poe    c23 5790   0.148   1.233   3.689  0.4913 -0.1471  0.2887
  483poe    c23 5791   0.110   1.106   3.610  0.0072  0.1001  0.1195
  483poe     o2 5792   0.211   1.021   3.662 -0.3501  0.2072  0.9906
  483poe    c23 5793   0.215   0.891   3.609  0.1246  0.5477  0.1833
  483poe    c23 5794   0.339   0.828   3.674  0.1600  0.3260 -0.0982
  483poe     o2 5795   0.328   0.845   3.813 -0.3134  0.1576 -0.1143
  483poe    c31 5796   0.431   0.773   3.876 -0.4266 -0.1282 -0.2580
  484poe    c31 5797   2.572   1.380   5.335 -0.0861 -0.0299  0.5283
  484poe     o2 5798   2.443   1.353   5.286  0.1090  0.2563 -0.1512
  484poe    c23 5799   2.387   1.460   5.213 -0.1976  0.1101 -0.1319
  484poe    c23 5800   2.359   1.422   5.067  0.9551  0.0670 -0.3470
  484poe     o2 5801   2.309   1.292   5.088 -0.2624  0.5841  0.0230
  484poe    c23 5802   2.303   1.210   4.974 -0.0349 -0.0118  0.4327
  484poe    c23 5803   2.280   1.070   5.032  0.2433 -0.2325  0.0167
  484poe     o2 5804   2.371   1.065   5.139 -0.1556 -0.2467  0.3600
  484poe    c23 5805   2.340   0.956   5.222  0.0213 -0.6593 -0.1099
  484poe    c23 5806   2.413   0.983   5.355 -0.2140 -0.1119 -0.0909
  484poe     o2 5807   2.383   1.114   5.399  0.3858 -0.0176  0.0565
  484poe    c31 5808   2.437   1.123   5.529 -0.0688 -0.0892  0.2527
  485poe    c31 5809   4.725   3.538   6.491 -1.0206 -0.2803  0.4688
  485poe     o2 5810   4.669   3.659   6.445  0.4089  0.3977  0.4547
  485poe    c23 5811   4.691   3.668   6.306 -0.3805  0.1282  0.3097
  485poe    c23 5812   4.645   3.806   6.255  0.1215  0.0869 -0.2573
  485poe     o2 5813   4.518   3.824   6.314  0.1739 -0.4521  0.0321
  485poe    c23 5814   4.481   3.957   6.342  0.2087 -0.4388  0.0149
  485poe    c23 5815   4.373   3.953   6.451  0.4050  0.7461  0.2700
  485poe     o2 5816   4.436   3.883   6.556  0.4655  0.8368  0.2944
  485poe    c23 5817   4.350   3.854   6.664  0.4599 -0.0209  0.0678
  485poe    c23 5818   4.447   3.794   6.767 -0.0995 -0.1385  0.5269
  485poe     o2 5819   4.526   3.699   6.700 -0.5365 -0.0051 -0.1892
  485poe    c31 5820   4.543   3.583   6.778 -0.7134 -0.1735 -0.4004
  486poe    c31 5821   3.184   5.658   5.520 -0.7721 -0.3169  0.5440
  486poe     o2 5822   3.064   5.667   5.447  0.0761  0.2956 -0.8083
  486poe    c23 5823   3.023   5.533   5.433  0.0371  0.1126  0.8449
  486poe    c23 5824   2.883   5.530   5.368  0.0848  0.4654  0.7219
  486poe     o2 5825   2.796   5.601   5.452 -0.5976  0.6597 -0.1364
  486poe    c23 5826   2.669   5.583   5.393 -0.6477 -0.7323  0.3564
  486poe    c23 5827   2.562   5.618   5.499 -0.2590  0.3860  0.4001
  486poe     o2 5828   2.599   5.743   5.552 -0.1155  0.4503  0.1501
  486poe    c23 5829   2.497   5.799   5.631  0.0225 -0.2119  0.8163
  486poe    c23 5830   2.561   5.912   5.713 -0.1862  0.0119  0.6735
  486poe     o2 5831   2.667   5.953   5.630 -0.5549  0.7066  0.5378
  486poe    c31 5832   2.722   6.076   5.670  1.0057  0.0816  0.3660
  487poe    c31 5833   4.002   3.003   3.242  0.3142 -0.0844  0.7251
  487poe     o2 5834   4.104   2.942   3.166 -0.0308  0.0669  0.1296
  487poe    c23 5835   4.081   2.803   3.158  0.0477  0.0297  0.5008
  487poe    c23 5836   4.206   2.724   3.115 -0.2380  0.2795 -0.8513
  487poe     o2 5837   4.306   2.788   3.192 -0.0566 -0.5930 -0.3455
  487poe    c23 5838   4.436   2.739   3.168  0.1602 -0.1583 -0.0633
  487poe    c23 5839   4.514   2.820   3.062 -0.3450  0.2426 -0.1314
  487poe     o2 5840   4.486   2.947   3.117  0.2679  0.4296 -0.2540
  487poe    c23 5841   4.535   3.055   3.041 -0.1081  0.5080 -0.3838
  487poe    c23 5842   4.464   3.175   3.105 -0.4944  0.2197 -0.2674
  487poe     o2 5843   4.329   3.134   3.102 -0.4262 -0.0078 -0.2606
  487poe    c31 5844   4.263   3.259   3.106  0.0001  0.2269 -0.5001
  488poe    c31 5845   5.929   3.379   5.643  0.4745 -0.3463 -0.4279
  488poe     o2 5846   5.849   3.403   5.529  0.5121 -0.5111 -0.4902
  488poe    c23 5847   5.810   3.538   5.544  0.0117 -0.6104 -0.8437
  488poe    c23 5848   5.714   3.580   5.432 -0.2951  0.0365 -0.3456
  488poe     o2 5849   5.752   3.518   5.311  0.8627  0.0940 -0.0246
  488poe    c23 5850   5.659   3.536   5.206  0.4938  0.0834  0.2971
  488poe    c23 5851   5.732   3.444   5.106  0.4266 -0.1995  0.5050
  488poe     o2 5852   5.776   3.327   5.170 -0.1953 -0.5568  0.2860
  488poe    c23 5853   5.868   3.257   5.089 -0.0299  0.0421 -0.0477
  488poe    c23 5854   5.895   3.141   5.187  0.1960  0.2458  0.1323
  488poe     o2 5855   5.931   3.190   5.315  0.0582 -0.1720  0.3315
  488poe    c31 5856   5.977   3.095   5.408  0.0755 -0.3285  0.1659
  489poe    c31 5857   3.449   0.793   6.525 -0.2472 -0.1024  0.4379
  489poe     o2 5858   3.409   0.664   6.563 -0.4884 -0.2873 -0.4202
  489poe    c23 5859   3.483   0.575   6.482  0.1993 -0.5191  0.4410
  489poe    c23 5860   3.381   0.479   6.418 -0.3439  0.0409  0.4590
  489poe     o2 5861   3.315   0.436   6.535 -0.4682 -0.0153  0.3690
  489poe    c23 5862   3.188   0.383   6.502 -0.1424 -0.3733 -0.3390
  489poe    c23 5863   3.110   0.400   6.634 -0.0741  0.2569 -0.3760
  489poe     o2 5864   3.138   0.529   6.682 -0.0266 -0.1891  0.8217
  489poe    c23 5865   3.061   0.580   6.789 -0.3779 -0.0510  0.5061
  489poe    c23 5866   3.125   0.717   6.815 -0.4985  0.3021 -0.9792
  489poe     o2 5867   3.263   0.688   6.811 -0.5492 -0.1951  0.3265
  489poe    c31 5868   3.332   0.803   6.855 -0.0711 -0.4192  0.1654
  490poe    c31 5869   1.750   2.233   1.505 -0.0660  0.6853 -0.6193
  490poe     o2 5870   1.642   2.156   1.457  0.0561 -0.0439  0.2434
  490poe    c23 5871   1.558   2.116   1.562 -0.2726 -0.0735 -0.0289
  490poe    c23 5872   1.421   2.067   1.510 -0.2959 -0.7170  0.6321
  490poe     o2 5873   1.450   1.984   1.400  0.7226  0.2861  0.1177
  490poe    c23 5874   1.338   1.968   1.316  0.8805  0.3194 -0.0980
  490poe    c23 5875   1.394   1.893   1.194  0.3177 -0.4467  0.1075
  490poe     o2 5876   1.503   1.979   1.170 -0.2332  0.2332  0.0190
  490poe    c23 5877   1.604   1.917   1.094 -0.6143  0.0602 -0.3499
  490poe    c23 5878   1.692   2.037   1.053  0.1559 -0.4641 -0.2504
  490poe     o2 5879   1.718   2.108   1.172 -0.3576 -0.0960 -0.3536
  490poe    c31 5880   1.827   2.197   1.160 -0.2493 -0.0728  0.7154
  491poe    c31 5881   2.045   6.101   0.231 -0.5455  0.5192  0.4497
  491poe     o2 5882   2.117   5.980   0.222 -0.5341  0.5620 -0.0628
  491poe    c23 5883   2.213   6.006   0.122  0.0923 -0.1793  0.3351
  491poe    c23 5884   2.274   5.875   0.071  0.8558  0.0764  0.5835
  491poe     o2 5885   2.249   5.777   0.170  0.8205 -0.2572  0.2489
  491poe    c23 5886   2.257   5.645   0.123 -0.1501 -0.3500  0.3295
  491poe    c23 5887   2.195   5.557   0.233 -0.3361  0.2458  0.7059
  491poe     o2 5888   2.074   5.615   0.274 -0.5454  0.4815 -0.2229
  491poe    c23 5889   2.052   5.575   0.408  0.0180 -0.1149 -0.3051
  491poe    c23 5890   2.098   5.690   0.499 -0.3130 -0.3011  0.0983
  491poe     o2 5891   2.040   5.799   0.431  0.0542 -0.0227  0.2226
  491poe    c31 5892   2.034   5.891   0.537 -0.5689  0.0582  0.1234
  492poe    c31 5893   3.209   0.120   2.095  0.3300 -0.4820  0.4629
  492poe     o2 5894   3.071   0.090   2.100  0.3080 -0.4121  0.2743
  492poe    c23 5895   3.000   0.190   2.030  0.5319 -0.2542  0.2723
  492poe    c23 5896   2.866   0.129   1.984  0.1503  0.7430  0.0470
  492poe     o2 5897   2.817   0.051   2.090  0.1660  0.0689 -0.4358
  492poe    c23 5898   2.705  -0.031   2.066  0.3125 -0.1508 -0.3671
  492poe    c23 5899   2.672  -0.098   2.201  0.1624  0.5035 -0.0787
  492poe     o2 5900   2.798  -0.132   2.255  0.1561  1.0046  0.2612
  492poe    c23 5901   2.787  -0.187   2.384  0.0584  0.1543 -0.1044
  492poe    c23 5902   2.934  -0.222   2.414 -0.0682  0.0181  0.3556
  492poe     o2 5903   3.010  -0.111   2.370 -0.0403 -0.0408  0.2571
  492poe    c31 5904   3.148  -0.128   2.391 -0.0252 -0.0046  0.1851
  493poe    c31 5905   4.383   1.783   4.162  0.0475 -0.4716 -0.0764
  493poe     o2 5906   4.346   1.713   4.045 -0.1335 -0.0755 -0.2574
  493poe    c23 5907   4.266   1.600   4.071 -0.3060  0.1254  0.0864
  493poe    c23 5908   4.211   1.574   3.930 -0.5733 -0.3479  0.2768
  493poe     o2 5909   4.306   1.612   3.834 -0.2866 -0.5453  0.4823
  493poe    c23 5910   4.276   1.568   3.703 -0.1178  0.2612  0.1689
  493poe    c23 5911   4.405   1.596   3.624 -0.3625  0.7964 -0.0497
  493poe     o2 5912   4.442   1.721   3.677 -0.3405  0.4731  0.7211
  493poe    c23 5913   4.581   1.742   3.661 -0.3826  0.2971  0.0783
  493poe    c23 5914   4.607   1.871   3.741  0.0658  0.0932  0.2676
  493poe     o2 5915   4.561   1.831   3.869 -0.5447 -0.4669 -0.1189
  493poe    c31 5916   4.671   1.857   3.953 -0.8614 -0.0610  0.1707
  494poe    c31 5917   1.126   2.651   0.914 -0.2995  0.2791 -0.1263
  494poe     o2 5918   1.148   2.781   0.863  0.2373  0.1494 -0.2282
  494poe    c23 5919   1.256   2.837   0.935  0.4970 -0.0572 -0.4521
  494poe    c23 5920   1.331   2.955   0.871  0.2600  0.2617 -0.1450
  494poe     o2 5921   1.254   2.991   0.758 -0.3732 -0.4229  0.0539
  494poe    c23 5922   1.261   3.125   0.713  0.8213 -0.5642 -0.2139
  494poe    c23 5923   1.186   3.122   0.579  0.0897 -0.7390  0.1988
  494poe     o2 5924   1.078   3.035   0.606 -0.3093 -0.2106  0.3292
  494poe    c23 5925   1.004   3.004   0.490 -0.3786  0.5661  0.1599
  494poe    c23 5926   0.891   2.914   0.544  0.4205 -0.2191  0.5375
  494poe     o2 5927   0.950   2.830   0.641  0.2160 -0.9724  0.0169
  494poe    c31 5928   0.864   2.734   0.698 -1.2467  0.5921  0.5155
  495poe    c31 5929   1.163   0.636   5.434  0.4716 -0.1530  0.1299
  495poe     o2 5930   1.188   0.734   5.532  0.2423  0.0862 -0.0501
  495poe    c23 5931   1.253   0.670   5.639  0.2614  0.4273  0.1438
  495poe    c23 5932   1.322   0.783   5.718  0.1084  0.6617 -0.0559
  495poe     o2 5933   1.415   0.849   5.634  0.2424  0.2101 -0.2673
  495poe    c23 5934   1.456   0.971   5.691  0.5686 -0.1291  0.2281
  495poe    c23 5935   1.463   1.066   5.570  0.4266 -0.4349 -0.0235
  495poe     o2 5936   1.359   1.036   5.481  0.2322  0.1835 -0.0115
  495poe    c23 5937   1.385   1.050   5.343  0.4616  0.4566  0.0598
  495poe    c23 5938   1.251   1.036   5.269  0.1453  0.0401  0.7064
  495poe     o2 5939   1.183   0.922   5.317  0.1807 -0.4338 -0.3428
  495poe    c31 5940   1.076   0.909   5.226  0.5225 -0.2498 -0.7731
  496poe    c31 5941   0.788   4.661   1.461 -0.9279  0.1883  0.0991
  496poe     o2 5942   0.782   4.788   1.400  0.1312 -0.1083 -0.6381
  496poe    c23 5943   0.898   4.845   1.343  0.0463  0.3777 -0.3290
  496poe    c23 5944   0.844   4.952   1.247 -0.1909  0.1761 -0.4233
  496poe     o2 5945   0.761   5.029   1.331 -0.3609 -0.5331  0.0608
  496poe    c23 5946   0.690   5.128   1.259 -0.4687 -0.9221 -0.3764
  496poe    c23 5947   0.576   5.172   1.353  0.6607 -0.3672  0.7633
  496poe     o2 5948   0.528   5.042   1.377 -0.1225 -0.2047  0.0969
  496poe    c23 5949   0.390   5.046   1.406 -0.1931 -0.4617 -0.1939
  496poe    c23 5950   0.342   4.905   1.368  0.0430 -0.4432 -0.5672
  496poe     o2 5951   0.446   4.812   1.388 -0.0717 -0.2197  1.2426
  496poe    c31 5952   0.403   4.681   1.361 -0.2007  0.0831 -0.0770
  497poe    c31 5953   6.421   2.784   6.343  0.2900  0.5466 -0.0454
  497poe     o2 5954   6.420   2.751   6.480  0.8715 -0.3491 -0.2455
  497poe    c23 5955   6.477   2.860   6.548  0.1248 -0.0456 -0.0909
  497poe    c23 5956   6.427   2.887   6.691 -0.0942 -0.5472 -0.0694
  497poe     o2 5957   6.437   2.771   6.770  0.4080 -0.3810  0.1185
  497poe    c23 5958   6.310   2.748   6.828  0.0270 -0.1803 -0.6269
  497poe    c23 5959   6.289   2.595   6.824  0.1609 -0.2220  0.1791
  497poe     o2 5960   6.272   2.553   6.691 -0.0983  0.3812  0.0182
  497poe    c23 5961   6.240   2.416   6.680 -1.3417  0.6391  0.2646
  497poe    c23 5962   6.202   2.392   6.533  0.0645  0.1838 -0.0392
  497poe     o2 5963   6.294   2.456   6.447  0.3654  0.0694  0.1952
  497poe    c31 5964   6.307   2.378   6.331 -0.1793  0.5759 -0.2154
  498poe    c31 5965   4.434   3.803   4.984  0.3856  0.0934  0.0914
  498poe     o2 5966   4.427   3.664   5.008 -0.0408 -0.0162 -0.6340
  498poe    c23 5967   4.548   3.590   5.009  0.0863  0.1928 -0.2642
  498poe    c23 5968   4.546   3.454   5.082 -0.0010  0.4508  0.2228
  498poe     o2 5969   4.471   3.482   5.198  0.1461  0.4706  0.3136
  498poe    c23 5970   4.445   3.371   5.281 -0.2060  0.1461 -0.2222
  498poe    c23 5971   4.306   3.385   5.345 -0.2238  0.1867 -0.2703
  498poe     o2 5972   4.240   3.478   5.262 -0.4406  0.2892  0.0129
  498poe    c23 5973   4.100   3.474   5.273 -0.4963 -0.1082 -0.7651
  498poe    c23 5974   4.051   3.502   5.129 -0.6582  0.4083 -0.6122
  498poe     o2 5975   4.148   3.583   5.067  0.3887 -0.7096 -0.4871
  498poe    c31 5976   4.109   3.645   4.946  0.4159  0.5327  0.1167
  499poe    c31 5977   3.923   0.842   1.614  0.2545  0.4346 -0.2617
  499poe     o2 5978   3.811   0.914   1.566  0.2042  0.1272 -0.6117
  499poe    c23 5979   3.851   1.047   1.540  0.0908  0.3338  0.2252
  499poe    c23 5980   3.728   1.130   1.501 -0.0491 -0.0659 -0.2022
  499poe     o2 5981   3.661   1.052   1.405 -0.2114  0.3916 -0.4674
  499poe    c23 5982   3.529   1.097   1.388 -0.3986 -0.0754 -0.2879
  499poe    c23 5983   3.437   0.983   1.340 -0.4445 -0.3906  0.5294
  499poe     o2 5984   3.504   0.873   1.399  0.1772  0.0813  0.7210
  499poe    c23 5985   3.424   0.757   1.402  0.3788 -0.0707  0.2183
  499poe    c23 5986   3.530   0.648   1.425  0.6814  0.1257 -0.2273
  499poe     o2 5987   3.625   0.699   1.516  0.7070 -0.0594 -0.1489
  499poe    c31 5988   3.671   0.585   1.586  0.4860 -0.2076 -0.2444
  500poe    c31 5989   0.224   6.493   6.332  0.3325  0.5917 -0.7198
  500poe     o2 5990   0.346   6.423   6.348  0.2176  0.5987  0.2456
  500poe    c23 5991   0.428   6.427   6.233 -0.3274 -0.6821 -0.2183
  500poe    c23 5992   0.566   6.367   6.263 -0.2476 -0.2075  0.3962
  500poe     o2 5993   0.533   6.249   6.333  0.1636 -0.0919  0.7874
  500poe    c23 5994   0.650   6.171   6.339  0.4458  0.1651 -0.8848
  500poe    c23 5995   0.604   6.027   6.367 -0.1735  0.4399 -0.4830
  500poe     o2 5996   0.541   6.032   6.494  0.0888 -0.7820 -0.2864
  500poe    c23 5997   0.515   5.900   6.533 -0.6659 -0.5990 -0.1598
  500poe    c23 5998   0.542   5.876   6.683 -0.0748  0.2876 -0.1195
  500poe     o2 5999   0.539   5.739   6.716  0.4486  0.1754 -0.5266
  500poe    c31 6000   0.585   5.713   6.847 -0.7000  0.1641 -0.1156
  501poe    c31 6001   3.796   2.463   4.460 -0.4016  0.7829  0.1140
  501poe     o2 6002   3.895   2.498   4.555  0.0053  0.4885 -0.1970
  501poe    c23 6003   3.830   2.598   4.630  0.4693  0.5655  0.1062
  501poe    c23 6004   3.917   2.604   4.756  0.3638  0.1241  0.2035
  501poe     o2 6005   4.049   2.643   4.724  0.2889 -0.0815 -0.3520
  501poe    c23 6006   4.135   2.574   4.811  0.5378  0.0802 -0.4696
  501poe    c23 6007   4.170   2.440   4.743 -0.1651 -0.5608  0.4104
  501poe     o2 6008   4.190   2.458   4.604 -0.4070  0.1171  0.4550
  501poe    c23 6009   4.178   2.336   4.535  0.4120  0.2504  0.0621
  501poe    c23 6010   4.175   2.346   4.381  0.3530 -0.5179  0.0090
  501poe     o2 6011   4.095   2.456   4.348  0.4745 -0.4685 -0.1211
  501poe    c31 6012   4.113   2.477   4.209  0.4843 -0.1714 -0.0762
  502poe    c31 6013   3.785   2.069   1.727 -0.0377 -0.3108  0.4813
  502poe     o2 6014   3.818   1.955   1.803  0.2715 -0.3077  0.3550
  502poe    c23 6015   3.707   1.867   1.799  0.0478 -0.0043 -0.2468
  502poe    c23 6016   3.704   1.757   1.907  0.5192  0.1123 -0.1097
  502poe     o2 6017   3.840   1.727   1.929  0.3884 -0.1488  0.3545
  502poe    c23 6018   3.852   1.616   2.015  0.0705  0.1082  0.7335
  502poe    c23 6019   4.002   1.587   2.033  0.1915  0.5150  0.4066
  502poe     o2 6020   4.068   1.711   2.038  0.0362  0.5839  0.7675
  502poe    c23 6021   4.192   1.709   1.972 -0.1033  0.3333  0.5154
  502poe    c23 6022   4.207   1.830   1.878  0.0117  0.1165  0.2532
  502poe     o2 6023   4.081   1.865   1.827  0.0997  0.0861  0.0143
  502poe    c31 6024   4.066   1.799   1.703  0.7742  0.0184 -0.0335
  503poe    c31 6025   5.965   5.799   6.217 -0.2998  0.1388  0.8721
  503poe     o2 6026   6.090   5.827   6.277  0.2435  0.1537 -0.2420
  503poe    c23 6027   6.106   5.966   6.297  0.6896  0.0349  0.2462
  503poe    c23 6028   6.252   5.967   6.347  0.9371 -0.1804 -0.4509
  503poe     o2 6029   6.251   6.073   6.440  0.3533 -0.3567 -0.2445
  503poe    c23 6030   6.275   6.029   6.572 -0.0638 -0.2788 -0.1441
  503poe    c23 6031   6.204   6.133   6.661  0.6182  0.3484 -0.3218
  503poe     o2 6032   6.226   6.264   6.615 -0.0219  0.5824  0.0299
  503poe    c23 6033   6.158   6.355   6.699 -0.2388 -0.0712  0.5763
  503poe    c23 6034   6.219   6.496   6.685 -0.4468 -0.0555 -0.2049
  503poe     o2 6035   6.182   6.561   6.565 -0.2187 -0.3528 -0.4382
  503poe    c31 6036   6.227   6.695   6.557 -0.3074 -0.3019 -0.1000
  504poe    c31 6037   5.094   4.172   4.985  0.3337 -0.2994  0.1030
  504poe     o2 6038   5.110   4.099   5.104 -0.0624 -0.5746 -0.0123
  504poe    c23 6039   5.242   4.119   5.148 -0.0516  0.1918 -0.3845
  504poe    c23 6040   5.258   4.056   5.287  0.0623  0.1764 -0.4050
  504poe     o2 6041   5.141   3.981   5.307  0.2779 -0.0984 -0.1566
  504poe    c23 6042   5.132   3.924   5.435  0.1509  0.4314  0.0719
  504poe    c23 6043   4.990   3.865   5.427  0.1604  0.4228 -0.0281
  504poe     o2 6044   4.906   3.969   5.381  0.3311  0.6174  0.0970
  504poe    c23 6045   4.784   3.912   5.338  0.5187  0.3110 -0.0318
  504poe    c23 6046   4.747   4.006   5.222 -0.3802 -0.4592 -0.3773
  504poe     o2 6047   4.851   4.034   5.131 -0.7802  0.4156 -0.5685
  504poe    c31 6048   4.820   3.954   5.020 -0.2030 -0.7608  0.1028
  505poe    c31 6049   0.206   6.670   2.453 -0.1476 -0.7589 -0.5150
  505poe     o2 6050   0.150   6.736   2.342 -0.6126  0.3217  0.3488
  505poe    c23 6051   0.039   6.659   2.303 -0.2461  0.2592 -0.6019
  505poe    c23 6052  -0.014   6.699   2.164 -0.4052  0.2966 -0.5307
  505poe     o2 6053  -0.109   6.803   2.164 -0.2183  0.4683 -0.0741
  505poe    c23 6054  -0.124   6.842   2.029  0.0116 -0.1057 -0.2681
  505poe    c23 6055  -0.125   6.994   2.007 -0.4601 -0.0823 -0.0819
  505poe     o2 6056  -0.236   7.051   2.073 -0.0418 -0.0384  0.5976
  505poe    c23 6057  -0.214   7.190   2.061 -0.4841 -0.0129 -0.0046
  505poe    c23 6058  -0.303   7.269   2.159 -0.3327  0.4795 -0.2614
  505poe     o2 6059  -0.305   7.222   2.292 -0.3187  0.1828 -0.3643
  505poe    c31 6060  -0.298   7.316   2.397  0.6519 -0.3306  0.0421
  506poe    c31 6061   5.334   4.293   2.268 -0.7237  0.0687 -0.0256
  506poe     o2 6062   5.358   4.162   2.221 -0.5278  0.0596  0.0980
  506poe    c23 6063   5.249   4.123   2.141 -0.3254 -0.7554  0.2164
  506poe    c23 6064   5.281   3.975   2.114  0.4782 -0.6623  0.6326
  506poe     o2 6065   5.417   3.964   2.079  0.2575 -0.5640 -0.2827
  506poe    c23 6066   5.431   3.837   2.019  0.4893 -0.1876 -1.0326
  506poe    c23 6067   5.584   3.815   2.016  0.5698  0.2464 -0.3203
  506poe     o2 6068   5.621   3.855   2.146 -0.4266  0.4290 -0.0809
  506poe    c23 6069   5.755   3.815   2.163 -0.7846 -0.6279  0.2822
  506poe    c23 6070   5.803   3.783   2.306 -0.0676 -0.1852  0.1480
  506poe     o2 6071   5.777   3.648   2.338 -0.6546 -0.1028  0.0303
  506poe    c31 6072   5.879   3.561   2.294 -0.1588  0.2613  0.4493
  507poe    c31 6073   4.975   3.069   5.318 -0.4838  0.4828  0.0100
  507poe     o2 6074   4.999   3.036   5.453  0.1971  0.1104 -0.1969
  507poe    c23 6075   5.124   2.973   5.435  0.1784 -0.0198  0.1106
  507poe    c23 6076   5.144   2.863   5.540  0.0944 -0.3420 -0.2117
  507poe     o2 6077   5.116   2.917   5.667 -0.1352  0.4006 -0.5754
  507poe    c23 6078   5.225   2.986   5.723 -0.1003 -0.7817  0.8962
  507poe    c23 6079   5.190   3.099   5.822 -0.3001  0.1768 -0.2446
  507poe     o2 6080   5.105   3.191   5.757  0.2810  0.7820 -0.1653
  507poe    c23 6081   5.163   3.303   5.694  0.2203  0.5894 -0.5651
  507poe    c23 6082   5.050   3.371   5.613 -0.1915  0.2644 -0.2693
  507poe     o2 6083   4.952   3.288   5.557 -0.1102  0.1463 -0.2360
  507poe    c31 6084   4.842   3.363   5.511 -0.5492 -0.0010  0.5631
  508poe    c31 6085   5.533   3.343   6.100  0.1308 -0.4988 -0.5448
  508poe     o2 6086   5.510   3.252   6.206  0.4731  0.2133  0.1420
  508poe    c23 6087   5.619   3.173   6.247  0.5770  0.6790  0.7808
  508poe    c23 6088   5.547   3.055   6.315  0.5060  0.5854  0.5434
  508poe     o2 6089   5.431   3.095   6.385  0.0071  0.2013 -0.0531
  508poe    c23 6090   5.445   3.072   6.523 -0.4384  0.2469 -0.0001
  508poe    c23 6091   5.306   3.093   6.587 -0.3167  0.2102  0.2799
  508poe     o2 6092   5.248   3.218   6.558 -0.1094  0.1434 -0.4474
  508poe    c23 6093   5.131   3.205   6.479 -0.1985 -0.2317 -0.2604
  508poe    c23 6094   5.104   3.298   6.359  0.2951  0.3542  0.0712
  508poe     o2 6095   5.217   3.285   6.277  0.2995 -0.2744  0.1668
  508poe    c31 6096   5.202   3.332   6.145  0.8953  0.4533  0.3475
  509poe    c31 6097   6.574   5.909   5.715 -0.1809 -0.2649  0.0892
  509poe     o2 6098   6.488   6.017   5.684 -0.2983 -0.4972 -0.4113
  509poe    c23 6099   6.550   6.098   5.587 -0.2702 -0.1206 -0.0820
  509poe    c23 6100   6.442   6.197   5.540  0.1386  0.2913 -0.1618
  509poe     o2 6101   6.363   6.232   5.651 -0.4667 -0.0067 -0.4913
  509poe    c23 6102   6.233   6.276   5.620 -0.4604 -0.0025 -0.5105
  509poe    c23 6103   6.140   6.157   5.652  0.3961 -0.6408 -0.3711
  509poe     o2 6104   6.186   6.109   5.776 -0.2040  0.1114  0.1511
  509poe    c23 6105   6.134   5.978   5.792 -0.0850  0.0478  0.0130
  509poe    c23 6106   6.204   5.928   5.920 -0.1156  0.1102  0.0547
  509poe     o2 6107   6.340   5.966   5.916 -0.1816  0.3356 -0.0799
  509poe    c31 6108   6.394   5.892   6.023 -0.6555  0.1354  0.0247
  510poe    c31 6109   2.916   1.110   4.282  0.2841 -0.2781  0.1803
  510poe     o2 6110   3.051   1.140   4.310  0.2557 -0.0158  0.0386
  510poe    c23 6111   3.129   1.076   4.212 -0.2903 -0.6136 -0.0061
  510poe    c23 6112   3.277   1.075   4.255 -0.6545  0.4065  1.3339
  510poe     o2 6113   3.302   1.195   4.324  0.0092  1.1999 -0.2361
  510poe    c23 6114   3.440   1.199   4.350 -0.0464 -0.1029  0.3456
  510poe    c23 6115   3.467   1.351   4.343  0.1310 -0.1539 -0.1420
  510poe     o2 6116   3.595   1.391   4.388  0.2381 -0.0357 -0.5527
  510poe    c23 6117   3.591   1.532   4.388  0.5329 -0.0246  0.2264
  510poe    c23 6118   3.734   1.581   4.357  0.2361  0.5258 -0.2979
  510poe     o2 6119   3.822   1.551   4.463  0.1587  1.0711 -0.0816
  510poe    c31 6120   3.909   1.660   4.483  1.4667  0.1060 -0.3871
  511poe    c31 6121   3.349   0.264   0.885  0.2754 -0.6337 -0.7002
  511poe     o2 6122   3.466   0.232   0.956 -0.0212 -0.3712 -0.0931
  511poe    c23 6123   3.568   0.201   0.864  0.0221  0.3118 -0.2741
  511poe    c23 6124   3.635   0.073   0.917  0.2275  0.6431  0.2814
  511poe     o2 6125   3.536   0.007   0.993  0.2548 -0.3454 -0.5149
  511poe    c23 6126   3.585  -0.105   1.063 -0.7588 -0.0471  0.7303
  511poe    c23 6127   3.542  -0.109   1.211 -0.3481 -0.7735  0.8332
  511poe     o2 6128   3.545   0.025   1.253  0.2943 -0.5338  0.0591
  511poe    c23 6129   3.477   0.062   1.371  0.6894  0.2865  0.0341
  511poe    c23 6130   3.435   0.211   1.364  0.0349  0.0742 -0.8741
  511poe     o2 6131   3.367   0.221   1.241 -0.0113  0.0950 -0.8471
  511poe    c31 6132   3.311   0.349   1.228 -0.6465 -0.2182 -1.2111
  512poe    c31 6133   0.540   0.866   2.079 -0.4784  0.3204 -0.1686
  512poe     o2 6134   0.653   0.879   2.163  0.0035  0.4320 -0.8267
  512poe    c23 6135   0.647   1.007   2.222  0.9847  0.2612 -0.3409
  512poe    c23 6136   0.758   1.011   2.329  0.6366  0.0460  0.0266
  512poe     o2 6137   0.865   0.958   2.255  0.4556  0.5581 -0.6084
  512poe    c23 6138   0.983   0.951   2.332 -0.4599 -0.0830  0.7704
  512poe    c23 6139   1.075   0.853   2.257  0.1450  0.7093  0.4591
  512poe     o2 6140   0.983   0.753   2.219  0.0947  0.8277  0.2690
  512poe    c23 6141   1.031   0.658   2.127 -0.0282 -0.1578  1.2020
  512poe    c23 6142   0.925   0.552   2.092  0.0749  0.2837 -0.5538
  512poe     o2 6143   0.808   0.630   2.109 -0.0888 -0.1743  0.5205
  512poe    c31 6144   0.699   0.541   2.094  0.3316 -0.7865  1.0350
  513poe    c31 6145   2.992   1.336   6.419 -0.6529 -0.3739 -0.2141
  513poe     o2 6146   3.108   1.391   6.362 -0.3836 -0.5895  0.1208
  513poe    c23 6147   3.064   1.498   6.281  0.0505 -0.3062  0.2497
  513poe    c23 6148   3.188   1.557   6.212 -0.0538 -0.1200  0.2201
  513poe     o2 6149   3.299   1.506   6.281  0.1257  0.2718  0.2219
  513poe    c23 6150   3.419   1.537   6.214  0.0645  0.1911  0.0760
  513poe    c23 6151   3.516   1.440   6.285 -0.0772 -0.1385 -0.1742
  513poe     o2 6152   3.480   1.426   6.420  0.1337 -0.6827 -0.1740
  513poe    c23 6153   3.539   1.312   6.479  0.1226 -0.9973 -0.7625
  513poe    c23 6154   3.462   1.180   6.454 -0.0275 -0.9860 -0.3733
  513poe     o2 6155   3.326   1.217   6.458  0.3590  0.4396  0.4396
  513poe    c31 6156   3.245   1.102   6.462  0.9029  0.0344  0.0393
  514poe    c31 6157   3.828   3.035   5.974 -0.2244 -0.1001 -0.2571
  514poe     o2 6158   3.760   3.071   5.856  0.7081  0.5676 -0.6091
  514poe    c23 6159   3.643   3.139   5.895  0.3035 -0.3252 -0.2265
  514poe    c23 6160   3.589   3.212   5.770  0.0714 -0.3989 -0.1695
  514poe     o2 6161   3.602   3.123   5.661 -0.1418 -0.6195 -0.0150
  514poe    c23 6162   3.501   3.155   5.568 -0.6154 -0.0459  0.6878
  514poe    c23 6163   3.408   3.032   5.572  0.0226 -0.5336  0.6827
  514poe     o2 6164   3.480   2.918   5.531  0.2466 -0.1361 -0.0521
  514poe    c23 6165   3.403   2.804   5.559 -0.0335  0.0607 -0.0189
  514poe    c23 6166   3.440   2.698   5.453 -0.2481  0.4062 -0.4427
  514poe     o2 6167   3.572   2.651   5.466 -0.4849 -0.1405  0.0502
  514poe    c31 6168   3.662   2.708   5.374 -0.1989 -0.5070  0.1008
  515poe    c31 6169   5.303   2.432   1.900  0.3517  0.2442 -0.1669
  515poe     o2 6170   5.443   2.421   1.892  0.3880  1.0197 -0.7388
  515poe    c23 6171   5.499   2.481   2.007 -0.1916  0.3299 -0.0898
  515poe    c23 6172   5.652   2.464   2.010 -0.2848 -0.5755 -0.1387
  515poe     o2 6173   5.680   2.448   1.873  0.2150 -0.2922 -0.0719
  515poe    c23 6174   5.816   2.422   1.850  0.3026 -0.3552  0.4956
  515poe    c23 6175   5.828   2.384   1.701 -0.1318  0.3816  0.2700
  515poe     o2 6176   5.718   2.306   1.660  0.1958  0.2565 -0.3922
  515poe    c23 6177   5.692   2.282   1.524  0.2819  0.3090 -0.4176
  515poe    c23 6178   5.557   2.208   1.519  0.2679  0.3006  0.0476
  515poe     o2 6179   5.465   2.270   1.606  0.0348 -0.8068  0.6109
  515poe    c31 6180   5.334   2.219   1.590 -0.2514 -0.2058  0.9903
  516poe    c31 6181   6.165   3.315   6.412 -0.0704  0.3956 -0.0762
  516poe     o2 6182   6.178   3.366   6.281  0.6003  0.1705 -0.1014
  516poe    c23 6183   6.148   3.266   6.186  0.3556  0.7293 -0.6157
  516poe    c23 6184   6.162   3.318   6.042  0.3877 -0.1166 -0.9206
  516poe     o2 6185   6.274   3.402   6.049  0.3360 -0.1403  0.5126
  516poe    c23 6186   6.264   3.504   5.951  0.0365 -0.0291  0.6601
  516poe    c23 6187   6.169   3.614   6.002  0.0772  0.2689  0.0949
  516poe     o2 6188   6.229   3.634   6.128 -0.1059  0.0167  0.2236
  516poe    c23 6189   6.177   3.755   6.179  0.3703  0.3290 -0.0275
  516poe    c23 6190   6.268   3.794   6.297  0.5432 -0.0134 -0.0467
  516poe     o2 6191   6.298   3.668   6.354  0.0395  0.0104  0.2795
  516poe    c31 6192   6.384   3.684   6.465 -0.9321  0.4752  0.9771
  517poe    c31 6193   4.297   4.979   1.338 -0.0902  0.0823 -0.1021
  517poe     o2 6194   4.311   5.117   1.364  0.4466 -0.0226  0.1844
  517poe    c23 6195   4.226   5.168   1.464 -0.0934  0.1053 -0.3312
  517poe    c23 6196   4.158   5.281   1.385 -0.3636 -0.0510 -0.3244
  517poe     o2 6197   4.268   5.353   1.334 -0.2134 -0.2191 -0.2399
  517poe    c23 6198   4.213   5.431   1.230 -0.7750  0.3313  0.4673
  517poe    c23 6199   4.337   5.489   1.161 -0.5237  0.0151  0.6516
  517poe     o2 6200   4.419   5.375   1.148  0.0898  0.4361  0.7975
  517poe    c23 6201   4.546   5.397   1.090 -0.4137 -0.0331 -0.5060
  517poe    c23 6202   4.625   5.265   1.089 -0.3437  0.0029  0.1399
  517poe     o2 6203   4.610   5.206   1.216  0.3424 -0.4250  0.0300
  517poe    c31 6204   4.701   5.101   1.237  0.2508 -0.4753  0.1774
  518poe    c31 6205   3.147   2.485   4.640  0.0710  0.2751 -0.4777
  518poe     o2 6206   3.162   2.625   4.635 -0.2826  0.3355  0.0990
  518poe    c23 6207   3.260   2.662   4.541 -0.3780  0.4196  0.0327
  518poe    c23 6208   3.211   2.800   4.494 -0.3767  0.3287 -0.2351
  518poe     o2 6209   3.162   2.870   4.606  0.2569 -0.1334  0.3402
  518poe    c23 6210   3.055   2.955   4.570  0.1793 -0.1957  0.4252
  518poe    c23 6211   2.928   2.884   4.621 -0.0983 -0.3071 -0.4119
  518poe     o2 6212   2.951   2.842   4.754  0.0807 -0.3903 -0.4690
  518poe    c23 6213   2.847   2.763   4.807  0.1968 -0.2028  0.0466
  518poe    c23 6214   2.902   2.693   4.932 -0.0755 -0.4502  0.0283
  518poe     o2 6215   3.027   2.637   4.901 -0.0937 -0.2258 -0.4540
  518poe    c31 6216   3.085   2.567   5.009 -0.3304  0.1151 -0.1054
  519poe    c31 6217   5.064   0.185   2.645  0.1313  0.1496 -0.4226
  519poe     o2 6218   5.018   0.138   2.770  0.5672 -0.2025 -0.3904
  519poe    c23 6219   4.907   0.054   2.749  0.2017  0.2378 -0.2584
  519poe    c23 6220   4.837   0.016   2.881  0.0108 -0.6567 -0.6064
  519poe     o2 6221   4.944  -0.051   2.943  0.1738 -0.1613 -0.3498
  519poe    c23 6222   4.930  -0.095   3.077 -0.5013 -0.0173 -0.3692
  519poe    c23 6223   5.059  -0.058   3.153 -0.3901  0.0251 -0.5779
  519poe     o2 6224   5.096   0.073   3.116 -0.0893  0.2014  0.3313
  519poe    c23 6225   5.191   0.131   3.203 -0.2048  0.3075  0.3866
  519poe    c23 6226   5.194   0.279   3.161 -0.6904  0.1036 -0.3866
  519poe     o2 6227   5.203   0.277   3.020 -0.4228  0.3132 -0.3727
  519poe    c31 6228   5.290   0.374   2.966 -0.3044  0.5162  0.1699
  520poe    c31 6229   2.155   3.685   0.781 -0.1323  0.7549 -0.0401
  520poe     o2 6230   2.046   3.600   0.754  0.1219  0.4319 -0.0500
  520poe    c23 6231   2.074   3.562   0.622 -0.7089 -0.6194  0.0684
  520poe    c23 6232   1.985   3.437   0.609 -0.4323 -0.8729  0.5889
  520poe     o2 6233   1.856   3.494   0.601 -0.0730  0.0167  1.0933
  520poe    c23 6234   1.756   3.397   0.583 -0.0973  0.2799 -0.2623
  520poe    c23 6235   1.643   3.462   0.666 -0.0071  0.5475 -0.3463
  520poe     o2 6236   1.680   3.501   0.796 -0.1111  0.0565 -0.1644
  520poe    c23 6237   1.655   3.405   0.896 -0.3961  0.3875  0.0870
  520poe    c23 6238   1.708   3.485   1.016  0.2359  0.1829 -0.0489
  520poe     o2 6239   1.829   3.544   0.974  0.1268  0.1190 -0.4606
  520poe    c31 6240   1.876   3.628   1.077 -0.2405 -0.2372  0.0006
  521poe    c31 6241   2.210   3.819   1.682  0.0102 -0.3620 -0.6872
  521poe     o2 6242   2.305   3.752   1.761 -0.3747  0.0798  0.1654
  521poe    c23 6243   2.390   3.850   1.816 -0.1083  0.1762 -0.4133
  521poe    c23 6244   2.512   3.770   1.866 -0.2222  0.8009  0.9144
  521poe     o2 6245   2.457   3.668   1.945 -0.2766  0.1739  0.0790
  521poe    c23 6246   2.553   3.583   2.002 -0.3761  0.1917  0.2731
  521poe    c23 6247   2.462   3.472   2.057 -0.2414  0.0743  0.2610
  521poe     o2 6248   2.371   3.424   1.961  0.3824 -0.9774  0.1788
  521poe    c23 6249   2.261   3.360   2.024  0.1458 -0.2362  0.5282
  521poe    c23 6250   2.128   3.374   1.949  0.1712 -0.1264  0.5030
  521poe     o2 6251   2.126   3.505   1.896 -0.4333 -0.0187  0.7773
  521poe    c31 6252   1.998   3.533   1.846  0.1253  0.2731 -0.5297
  522poe    c31 6253   2.999   2.857   4.063  0.1912  0.1978 -0.3784
  522poe     o2 6254   2.971   2.990   4.099 -0.2657  0.0391 -0.1330
  522poe    c23 6255   3.083   3.065   4.140 -0.1140 -0.0925 -0.3077
  522poe    c23 6256   3.031   3.207   4.168  0.5982  0.2194 -0.5364
  522poe     o2 6257   2.945   3.215   4.056 -0.2598  0.0385  0.1042
  522poe    c23 6258   2.881   3.340   4.065 -0.3615 -0.0339  0.4106
  522poe    c23 6259   2.743   3.346   3.998  0.1341  0.0987 -0.6209
  522poe     o2 6260   2.692   3.226   4.052 -0.4422  0.5606 -0.1119
  522poe    c23 6261   2.563   3.204   4.001 -0.2648  0.4373 -0.5128
  522poe    c23 6262   2.527   3.059   4.040 -0.2283  0.5915  0.0996
  522poe     o2 6263   2.638   2.998   3.978 -0.3713  0.4758 -0.0441
  522poe    c31 6264   2.600   2.865   3.951 -0.2115  0.4638 -0.2115
  523poe    c31 6265   4.810   6.360   2.249 -1.0546 -0.0929 -0.3802
  523poe     o2 6266   4.802   6.236   2.314  0.1346 -0.1032 -0.2342
  523poe    c23 6267   4.753   6.274   2.440 -0.8560 -0.6884 -0.4292
  523poe    c23 6268   4.714   6.148   2.521  0.5227 -0.8070  0.0755
  523poe     o2 6269   4.631   6.070   2.438 -0.0745  0.3629 -0.4570
  523poe    c23 6270   4.519   6.032   2.514  0.0110 -0.0431 -0.5288
  523poe    c23 6271   4.459   5.915   2.435  0.4691 -0.8243  0.2630
  523poe     o2 6272   4.519   5.912   2.307 -0.1884 -0.0430 -0.0701
  523poe    c23 6273   4.593   5.794   2.287  0.6263  0.4097  0.1984
  523poe    c23 6274   4.701   5.817   2.180  0.1526 -0.1434 -0.4148
  523poe     o2 6275   4.746   5.949   2.204  0.3708 -0.2597 -0.1818
  523poe    c31 6276   4.872   5.984   2.151  0.2542  0.5072  0.0331
  524poe    c31 6277   2.341   5.155   3.135  0.0724 -0.3808 -0.0710
  524poe     o2 6278   2.393   5.238   3.034  0.3710 -0.3929  0.0738
  524poe    c23 6279   2.506   5.293   3.099  0.0399  0.1398  0.2024
  524poe    c23 6280   2.604   5.349   2.995  0.1965  0.1247  0.3416
  524poe     o2 6281   2.530   5.427   2.904 -0.0160 -0.3293  0.1192
  524poe    c23 6282   2.610   5.484   2.803 -0.4760 -0.1964 -0.1719
  524poe    c23 6283   2.526   5.593   2.734 -0.4646 -0.4620 -0.6112
  524poe     o2 6284   2.479   5.690   2.825 -0.5223 -0.4376 -0.6670
  524poe    c23 6285   2.440   5.819   2.781 -0.5199 -0.3503 -0.4143
  524poe    c23 6286   2.510   5.892   2.666 -0.3147 -0.2803 -0.2452
  524poe     o2 6287   2.648   5.915   2.686 -0.5871  0.5386  0.7623
  524poe    c31 6288   2.692   6.024   2.608 -0.3794 -0.0549  0.0359
  525poe    c31 6289   4.544   0.528   6.415  0.2685  0.2402  0.5883
  525poe     o2 6290   4.562   0.633   6.508  0.6416  0.3749  0.3660
  525poe    c23 6291   4.452   0.629   6.596  1.1128  0.0229  0.9443
  525poe    c23 6292   4.434   0.780   6.624 -0.7474  0.0174 -0.1054
  525poe     o2 6293   4.559   0.839   6.649 -0.4440 -0.3081 -0.8067
  525poe    c23 6294   4.573   0.971   6.600 -0.0011 -0.1923 -0.3762
  525poe    c23 6295   4.715   1.020   6.636 -0.0601  0.0304 -0.4496
  525poe     o2 6296   4.793   0.909   6.599 -0.1050 -0.1773  0.0705
  525poe    c23 6297   4.921   0.892   6.657 -0.1485  0.1697  0.2684
  525poe    c23 6298   4.896   0.768   6.744 -0.3637 -0.0941 -0.1660
  525poe     o2 6299   4.815   0.676   6.676 -0.4879  0.0278 -0.1825
  525poe    c31 6300   4.849   0.541   6.698  0.4184  0.1871 -0.5535
  526poe    c31 6301   6.422   2.296   3.178 -0.0951 -0.0346 -0.1729
  526poe     o2 6302   6.383   2.169   3.131 -0.6484  0.1225 -0.1444
  526poe    c23 6303   6.413   2.069   3.226  0.0067 -0.3099 -0.7897
  526poe    c23 6304   6.387   1.935   3.155  0.2800 -0.8087  0.0432
  526poe     o2 6305   6.278   1.951   3.068  0.1000 -0.3166  0.3523
  526poe    c23 6306   6.218   1.832   3.022 -0.4648 -0.1063  0.5431
  526poe    c23 6307   6.214   1.844   2.868 -0.2493 -0.1908  0.5307
  526poe     o2 6308   6.208   1.983   2.845 -0.2070 -0.2366  0.2370
  526poe    c23 6309   6.078   2.013   2.801 -0.1763  0.9020  0.8841
  526poe    c23 6310   6.060   2.165   2.820  0.1184  1.1316 -0.5662
  526poe     o2 6311   6.134   2.195   2.936 -0.2925  0.4101 -0.1119
  526poe    c31 6312   6.098   2.313   3.005  0.1860  0.8406 -0.5927
  527poe    c31 6313   4.587   5.020   1.976 -0.0071  0.7016 -0.5455
  527poe     o2 6314   4.641   5.021   2.106 -0.2571 -0.1986 -0.4290
  527poe    c23 6315   4.730   5.131   2.109 -0.3747 -0.1152  0.4491
  527poe    c23 6316   4.791   5.174   2.243  0.2383  0.3189  0.0337
  527poe     o2 6317   4.815   5.045   2.297  0.4299  0.2730 -0.1559
  527poe    c23 6318   4.872   5.038   2.426 -0.0029 -0.6732 -0.0087
  527poe    c23 6319   4.763   5.008   2.531 -0.1945 -0.3512 -0.1136
  527poe     o2 6320   4.688   4.912   2.461 -0.2188 -0.0851 -0.4563
  527poe    c23 6321   4.552   4.929   2.490 -0.1901  0.0385 -0.3964
  527poe    c23 6322   4.484   4.813   2.415 -0.2337  0.3580 -0.8557
  527poe     o2 6323   4.524   4.808   2.280 -0.3396  0.5253 -0.8941
  527poe    c31 6324   4.472   4.690   2.221  0.0110 -0.2491  0.3190
  528poe    c31 6325   5.505   3.450   3.098  0.0966 -0.2682 -0.5384
  528poe     o2 6326   5.372   3.430   3.057  0.0088  0.0061 -0.3849
  528poe    c23 6327   5.333   3.295   3.071 -0.4014  0.1586 -0.0032
  528poe    c23 6328   5.193   3.277   3.010 -0.3598 -0.1161 -0.0174
  528poe     o2 6329   5.115   3.394   3.019 -0.4658 -0.2019  0.1710
  528poe    c23 6330   5.033   3.409   2.906  0.2661 -0.3471 -0.3854
  528poe    c23 6331   5.016   3.561   2.891 -0.5541 -0.4222 -0.2863
  528poe     o2 6332   5.139   3.630   2.880 -0.4681 -0.5584 -0.1708
  528poe    c23 6333   5.133   3.770   2.890  0.4595 -0.5489  0.3513
  528poe    c23 6334   5.268   3.820   2.946  0.9046 -0.5073 -0.7203
  528poe     o2 6335   5.296   3.739   3.058 -0.4107 -0.4045 -0.2927
  528poe    c31 6336   5.420   3.780   3.111 -0.7237  0.6288 -0.3336
  529poe    c31 6337   1.824   6.169   3.590  0.1628 -0.1740  0.3892
  529poe     o2 6338   1.761   6.161   3.464  0.5805 -0.7937  0.2108
  529poe    c23 6339   1.645   6.081   3.465  0.3684 -0.4899  0.3148
  529poe    c23 6340   1.670   5.983   3.348 -0.4369  0.1883 -0.4354
  529poe     o2 6341   1.721   6.048   3.234 -0.0040 -0.0750 -0.3939
  529poe    c23 6342   1.778   5.962   3.138 -0.0584 -0.4363 -0.1016
  529poe    c23 6343   1.862   6.067   3.064 -0.2515 -0.0632  0.2004
  529poe     o2 6344   1.930   6.152   3.154  0.4612 -0.8374  0.4090
  529poe    c23 6345   2.027   6.213   3.073 -0.4050  0.2094  0.1348
  529poe    c23 6346   2.114   6.281   3.180 -0.0849 -0.6948  0.4586
  529poe     o2 6347   2.034   6.308   3.293 -0.8014 -0.3568 -0.1204
  529poe    c31 6348   2.105   6.367   3.400 -1.1093 -0.2204  0.0103
  530poe    c31 6349   6.149   6.332   6.165 -0.1810 -0.2170  0.0870
  530poe     o2 6350   6.124   6.333   6.304 -0.3326  0.6510  0.0612
  530poe    c23 6351   5.995   6.389   6.318 -0.2392  0.9636 -0.3021
  530poe    c23 6352   5.890   6.294   6.378  0.4605  0.1317 -0.3706
  530poe     o2 6353   5.935   6.205   6.478 -1.0114  0.5654  0.7306
  530poe    c23 6354   5.818   6.165   6.545 -0.8717 -0.5211  0.3574
  530poe    c23 6355   5.879   6.105   6.673  0.5239  0.1412  0.0275
  530poe     o2 6356   5.894   6.188   6.786  0.0879 -0.4898  0.5634
  530poe    c23 6357   5.775   6.211   6.858 -0.4376  0.0409 -0.4496
  530poe    c23 6358   5.718   6.105   6.954  0.0533 -0.0488 -0.2531
  530poe     o2 6359   5.822   6.058   7.037 -0.0955  0.1416  0.0422
  530poe    c31 6360   5.790   5.935   7.098  0.3007  0.1083  0.1873
  531poe    c31 6361   2.954   3.592   2.554  0.0914  0.0658  0.4383
  531poe     o2 6362   2.967   3.704   2.469 -0.1988  0.0254  0.3369
  531poe    c23 6363   2.858   3.790   2.494  0.0937  0.3963  0.3583
  531poe    c23 6364   2.831   3.892   2.383 -0.6401  0.4429  0.5728
  531poe     o2 6365   2.956   3.957   2.374 -0.0038 -0.8046  0.3069
  531poe    c23 6366   2.945   4.068   2.289  0.1479 -0.4695  0.7220
  531poe    c23 6367   3.081   4.142   2.293  0.0755 -0.2124 -0.8152
  531poe     o2 6368   3.179   4.044   2.319  0.3932  0.2276 -0.3573
  531poe    c23 6369   3.225   3.980   2.202  0.0497 -0.1157 -0.3027
  531poe    c23 6370   3.297   3.847   2.231 -0.2749 -0.1192  0.5091
  531poe     o2 6371   3.202   3.767   2.298 -0.8980  0.0033 -0.2112
  531poe    c31 6372   3.272   3.658   2.354 -0.1404  0.2498 -0.6712
  532poe    c31 6373   6.700   1.766   3.781 -0.1513  0.3704 -0.2265
  532poe     o2 6374   6.656   1.632   3.781  0.0749  0.2943  0.2242
  532poe    c23 6375   6.720   1.580   3.896 -0.3039 -0.0430  0.2847
  532poe    c23 6376   6.688   1.430   3.911  0.0975 -0.1774 -0.1724
  532poe     o2 6377   6.674   1.376   3.782  0.7389  0.0950 -0.3602
  532poe    c23 6378   6.626   1.246   3.806 -0.2702  0.5432  0.1141
  532poe    c23 6379   6.520   1.228   3.695 -0.1983  0.0816  0.1170
  532poe     o2 6380   6.452   1.352   3.687  0.2080  0.2848 -0.2682
  532poe    c23 6381   6.341   1.356   3.601  0.1487 -0.0389 -0.2091
  532poe    c23 6382   6.296   1.502   3.585  0.5012  0.0714 -0.2181
  532poe     o2 6383   6.407   1.587   3.574  0.7527 -0.3083 -0.6103
  532poe    c31 6384   6.379   1.718   3.529 -0.0668 -0.2587  0.0397
  533poe    c31 6385   2.326   4.741   3.871  0.0134  0.1625  0.1517
  533poe     o2 6386   2.415   4.835   3.926 -0.6761  0.7729  0.2456
  533poe    c23 6387   2.494   4.873   3.816 -0.2827 -0.2569  0.1642
  533poe    c23 6388   2.554   5.012   3.845 -0.1219 -0.4040  0.5381
  533poe     o2 6389   2.581   5.005   3.983  0.4860 -0.0703  0.4385
  533poe    c23 6390   2.646   5.119   4.036  0.6401 -0.0064  0.1128
  533poe    c23 6391   2.678   5.113   4.186 -0.4288  0.3244  0.3643
  533poe     o2 6392   2.556   5.060   4.232 -0.6302 -0.0259 -0.5528
  533poe    c23 6393   2.573   4.980   4.347  0.1644  0.4921 -0.2990
  533poe    c23 6394   2.445   4.894   4.351  0.3745  0.1970  0.1453
  533poe     o2 6395   2.430   4.817   4.233 -0.2545  0.2321  0.2017
  533poe    c31 6396   2.316   4.739   4.259 -0.4196  0.4755  0.2169
  534poe    c31 6397   1.089   0.231   1.163 -0.3482 -0.4407  0.4566
  534poe     o2 6398   1.148   0.214   1.036  0.0329 -0.0850  0.5844
  534poe    c23 6399   1.106   0.096   0.971 -0.0090  0.7111 -0.8742
  534poe    c23 6400   1.165   0.086   0.830 -0.3557 -0.1267 -0.9642
  534poe     o2 6401   1.302   0.120   0.835 -0.4818  0.2601 -0.0868
  534poe    c23 6402   1.366   0.120   0.709 -0.6952 -0.1701 -0.1959
  534poe    c23 6403   1.514   0.155   0.735 -0.8432  0.5706 -0.3317
  534poe     o2 6404   1.506   0.244   0.844 -0.1814  0.2601 -0.0246
  534poe    c23 6405   1.620   0.256   0.925  0.1761 -0.3457 -0.4262
  534poe    c23 6406   1.579   0.338   1.049  0.6999 -0.7358  0.0106
  534poe     o2 6407   1.450   0.297   1.087  0.4646  0.2204  0.2841
  534poe    c31 6408   1.435   0.345   1.219 -0.3091  0.0034  0.2786
  535poe    c31 6409   0.785   2.272   2.795  0.0824 -0.1959  0.1473
  535poe     o2 6410   0.842   2.400   2.784  0.0939 -0.1556  0.6618
  535poe    c23 6411   0.976   2.358   2.769  0.0066 -0.1470 -0.1777
  535poe    c23 6412   1.066   2.481   2.744 -0.0188 -0.1030 -0.0519
  535poe     o2 6413   1.047   2.567   2.854 -0.1624 -0.0015 -0.1550
  535poe    c23 6414   1.068   2.693   2.795  0.3432  0.0937  0.2207
  535poe    c23 6415   0.942   2.782   2.796  0.0113 -0.3602 -0.4149
  535poe     o2 6416   0.848   2.712   2.718 -0.3227  0.1780 -0.4959
  535poe    c23 6417   0.760   2.790   2.641 -0.1852  0.5260 -0.3046
  535poe    c23 6418   0.699   2.702   2.530  0.0215  0.1680 -0.1325
  535poe     o2 6419   0.655   2.586   2.597 -0.1705  0.6110  0.5234
  535poe    c31 6420   0.563   2.502   2.530 -0.3611  0.3543  1.1067
  536poe    c31 6421   1.339   2.377   1.714 -0.2262 -0.2075 -0.1335
  536poe     o2 6422   1.296   2.319   1.835  0.1777 -0.6268 -0.1901
  536poe    c23 6423   1.157   2.300   1.837  0.1522 -0.4176  0.2481
  536poe    c23 6424   1.067   2.419   1.875 -0.3992 -0.4633 -0.8501
  536poe     o2 6425   0.928   2.393   1.881 -0.5183  0.3149  0.2005
  536poe    c23 6426   0.884   2.364   1.750  0.0921  0.5094 -0.0577
  536poe    c23 6427   0.730   2.370   1.747  0.0711 -0.0489 -0.3200
  536poe     o2 6428   0.683   2.452   1.853  0.1494 -0.2459 -0.1330
  536poe    c23 6429   0.543   2.468   1.849  0.2191  0.3302 -0.3144
  536poe    c23 6430   0.502   2.591   1.933 -0.0613 -0.2062  0.3440
  536poe     o2 6431   0.524   2.576   2.071  0.1200 -0.1899  0.3178
  536poe    c31 6432   0.484   2.677   2.161 -0.1997 -0.2900  0.2883
  537poe    c31 6433   0.511   6.317   6.674  0.3731  0.5367 -0.8968
  537poe     o2 6434   0.392   6.297   6.601 -0.4287  0.0077  0.4994
  537poe    c23 6435   0.317   6.194   6.662 -0.3069 -0.1261  0.4260
  537poe    c23 6436   0.206   6.149   6.566 -0.1751  0.0143  0.2073
  537poe     o2 6437   0.247   6.176   6.434 -0.4930  0.1082  0.1272
  537poe    c23 6438   0.141   6.116   6.364 -0.2620 -0.5770  0.3598
  537poe    c23 6439   0.180   6.068   6.223 -0.2441 -0.1541  0.2182
  537poe     o2 6440   0.261   5.955   6.249 -0.4361 -0.3543 -0.0516
  537poe    c23 6441   0.310   5.904   6.126 -0.8481 -0.0027 -0.3673
  537poe    c23 6442   0.275   5.760   6.087 -0.2320 -0.4570  0.7123
  537poe     o2 6443   0.353   5.706   5.983 -0.0920  0.4051  0.3688
  537poe    c31 6444   0.307   5.733   5.852  0.4685 -0.4162 -0.0080
  538poe    c31 6445   6.848   4.524   5.925  0.5245  0.3184 -0.8726
  538poe     o2 6446   6.766   4.629   5.879 -0.0560  0.1675 -0.2064
  538poe    c23 6447   6.651   4.598   5.804 -0.4021 -0.0123  0.3881
  538poe    c23 6448   6.570   4.729   5.798 -0.1782  0.1151  0.0829
  538poe     o2 6449   6.534   4.765   5.929  0.3426  0.4274  0.1463
  538poe    c23 6450   6.404   4.720   5.961  0.4042  0.1810  0.0523
  538poe    c23 6451   6.394   4.743   6.113 -0.0161 -0.3827  0.1145
  538poe     o2 6452   6.528   4.732   6.154  0.1308  0.3331 -0.1566
  538poe    c23 6453   6.539   4.775   6.288 -0.3751 -0.2110  0.0614
  538poe    c23 6454   6.679   4.718   6.317 -0.0836  0.6118  0.3062
  538poe     o2 6455   6.754   4.737   6.200 -0.4328 -0.4863 -0.1154
  538poe    c31 6456   6.886   4.695   6.225 -0.1756  0.2941 -0.1257
  539poe    c31 6457   4.644   4.743   3.467 -0.0130  0.0135 -0.1897
  539poe     o2 6458   4.772   4.694   3.434  0.0369  0.0738 -0.0837
  539poe    c23 6459   4.854   4.684   3.549  0.5148 -0.6219 -0.4734
  539poe    c23 6460   4.994   4.687   3.485  0.7686 -0.0520  0.0899
  539poe     o2 6461   4.991   4.601   3.373  0.5661 -0.1863  0.1989
  539poe    c23 6462   5.111   4.568   3.307  0.2460 -0.6612 -0.1573
  539poe    c23 6463   5.080   4.454   3.209  0.2911 -0.3236 -0.5660
  539poe     o2 6464   4.963   4.483   3.137 -0.0083 -0.2818 -0.0623
  539poe    c23 6465   4.883   4.371   3.107 -0.0499  0.0161 -1.0956
  539poe    c23 6466   4.734   4.402   3.133  0.1881  0.4451 -0.2151
  539poe     o2 6467   4.699   4.454   3.259  0.3213  0.5821 -0.2343
  539poe    c31 6468   4.561   4.445   3.288  0.4470 -0.9565 -0.0198
  540poe    c31 6469   4.377   2.513   6.448 -0.1704  1.0963  0.4726
  540poe     o2 6470   4.471   2.442   6.525 -0.1948  0.5314 -0.0129
  540poe    c23 6471   4.462   2.305   6.494  0.8059  0.3333  0.5291
  540poe    c23 6472   4.550   2.220   6.588  0.4364 -0.4751  0.1573
  540poe     o2 6473   4.658   2.309   6.608  0.2382 -0.3551  0.7034
  540poe    c23 6474   4.763   2.264   6.689  0.8538 -0.2203 -0.0080
  540poe    c23 6475   4.838   2.381   6.756  0.2800  0.3894 -0.4259
  540poe     o2 6476   4.747   2.488   6.747 -0.2493 -0.0325 -0.1536
  540poe    c23 6477   4.802   2.618   6.761  0.3667 -0.3481  0.4565
  540poe    c23 6478   4.690   2.724   6.758 -0.0475 -0.7779  0.5623
  540poe     o2 6479   4.606   2.690   6.650 -0.2669 -0.0180  0.4935
  540poe    c31 6480   4.506   2.788   6.634 -0.5193 -0.2917  0.3826
  541lim     li 6481   1.934   6.676   4.710 -0.9203  0.1607 -0.1864
  542lim     li 6482   2.101   3.379   5.877 -0.7027  0.1888 -0.6794
  543lim     li 6483   0.410   4.956   4.474  0.8585  1.4069 -0.3844
  544lim     li 6484   2.532   6.491   3.960 -0.1523  0.4445  0.2041
  545lim     li 6485   5.209   1.026   0.728 -0.1029 -0.7247 -0.4569
  546lim     li 6486   6.843   2.230   4.084 -0.7416  0.1223 -0.7564
  547lim     li 6487   1.706   4.398   2.456  0.6652  0.9874  0.1553
  548lim     li 6488   6.761   3.501   5.846 -0.0059  1.3590 -0.0968
  549lim     li 6489   2.567   1.873   5.734  0.1728 -0.4892 -0.1778
  550lim     li 6490   3.529   2.923   0.845 -0.1036  0.7744 -0.3184
  551lim     li 6491   0.349   0.474   5.871 -0.7802  0.2237 -0.6433
  552lim     li 6492   3.801   3.777   0.605 -0.1157  0.4312 -0.7449
  553lim     li 6493   0.437   4.002   5.474  0.8122  0.6161 -0.0313
  554lim     li 6494   3.972   1.193   0.183  0.2544  0.5749  0.9289
  555lim     li 6495   3.517   4.432   5.482 -0.3350 -0.5878 -0.4666
  556lim     li 6496   1.335   3.122   3.398 -0.0695 -1.1451 -1.1580
  557lim     li 6497   1.754   0.631   4.603  0.2405 -0.8785  0.3820
  558lim     li 6498   4.222   1.409   6.174  0.2832 -0.4140 -0.6709
  559lim     li 6499   1.359   0.009   1.860 -0.6781  0.6027  0.6146
  560lim     li 6500   2.451   4.202   3.944 -0.3233  0.0970 -0.3405
  561lim     li 6501   6.767   1.207   4.519  0.6767  0.9516  0.2094
  562lim     li 6502   2.001   3.714   4.335  1.3954 -0.2893  0.8831
  563lim     li 6503   6.562   3.468   4.960 -0.1723 -0.0439  0.3225
  564lim     li 6504   5.573   5.299   0.168  0.3862 -0.7972 -1.2222
  565lim     li 6505   4.478   6.185   0.651  0.2626 -0.2045  0.0168
  566lim     li 6506   6.157   0.637   0.864 -1.1197  0.0992  0.7912
  567lim     li 6507   1.845   3.590   0.796  0.1735 -0.2227  0.0401
  568lim     li 6508   5.772   5.009   1.003 -0.0866  0.4602  0.3845
  569lim     li 6509   4.191   0.735   4.320 -0.4336 -0.3514 -0.8037
  570lim     li 6510   6.049   1.920   2.039 -0.1347  0.6738 -1.2870
  571lim     li 6511   2.917   1.988   3.023  0.4771 -1.0487  0.3776
  572lim     li 6512   6.686   2.636   2.676  0.0410 -0.8501  0.3421
  573lim     li 6513   4.781   0.825   2.099  0.3066 -0.6196  0.7532
  574lim     li 6514   2.095   5.937   6.286  0.5791  0.0405  0.0770
  575lim     li 6515   1.809   5.167   6.699  0.5946  0.1686  0.4270
  576lim     li 6516   5.924   2.645   5.724  2.0884  1.7214  0.4086
  577lim     li 6517   4.322   2.967   3.203  0.2612 -0.3494 -0.8685
  578lim     li 6518   4.174   2.078   3.420  0.2989  0.4636  1.3084
  579lim     li 6519   0.849   5.838   2.137 -0.6301  0.1656  0.1590
  580lim     li 6520   2.265   1.985   0.968  0.5202 -0.8765 -0.3277
  581lim     li 6521   5.898   6.718   3.382  0.6944  0.5522  0.4648
  582lim     li 6522   0.689   4.412   3.778 -1.2504  0.8267 -0.5889
  583lim     li 6523   3.108   1.230   4.447 -0.5370 -0.3344 -0.1572
  584lim     li 6524   2.932   6.848   2.225 -0.3837  0.3710 -0.3770
  585lim     li 6525   4.987   5.185   6.173  0.3576 -0.9980 -0.1784
  586lim     li 6526   2.304   3.571   1.877  0.2332 -1.4121  0.3914
  587lim     li 6527   2.966   5.748   3.880  1.1526 -0.2636  0.1499
  588lim     li 6528   4.711   6.550   3.772  0.3497  0.4129  0.7466
  589lim     li 6529   1.319   6.466   3.186 -1.9034  0.4283 -0.0406
  590lim     li 6530   2.958   4.957   1.414  0.1384  0.6281  1.2358
  591lim     li 6531   3.745   3.016   5.675  0.3124  0.0642  0.0280
  592lim     li 6532   4.002   4.455   5.055 -0.0783 -0.4102  0.1058
  593lim     li 6533   6.012   6.046   2.619 -0.3005 -0.8273 -0.4267
  594lim     li 6534   2.360   1.035   1.562  1.8242 -1.5059  0.3552
  595lim     li 6535   5.252   2.072   4.404 -0.1047 -1.5903  0.4760
  596lim     li 6536   4.504   1.056   5.231  0.4191 -0.3432 -0.3776
  597lim     li 6537   2.463   3.065   6.849  0.4567 -0.9216 -0.9549
  598lim     li 6538   4.116   6.309   6.790  0.4179  0.3161  0.1004
  599lim     li 6539   5.358   5.780   4.898 -0.1894 -1.0030 -0.9445
  600lim     li 6540   5.772   4.472   4.133 -1.2004 -0.7409  0.1466
  601lim     li 6541   1.671   6.485   0.959  0.2818 -0.1467 -0.4373
  602lim     li 6542   5.837   6.009   4.242 -1.8327  0.1860  0.7637
  603lim     li 6543   1.854   6.229   3.299  0.3504 -1.1863  0.6864
  604lim     li 6544   5.651   2.056   6.846  0.0079 -1.4395 -1.4775
  605lim     li 6545   5.586   0.124   0.463  0.0880  1.3507 -0.2765
  606lim     li 6546   4.822   4.720   0.621 -1.2782 -0.3548 -0.5745
  607lim     li 6547   4.624   2.743   1.403 -0.6295  0.8801  0.7238
  608lim     li 6548   3.704   6.026   6.131  0.1352 -0.5895  0.0274
  609lim     li 6549   0.614   6.755   1.986  0.4048  0.0764  0.7365
  610lim     li 6550   3.730   5.166   2.225 -0.1397 -0.9852 -1.1632
  611lim     li 6551   0.012   0.119   4.628 -0.7808  0.8794 -0.8599
  612lim     li 6552   1.123   1.318   0.909 -0.4470  0.0103  0.8765
  613lim     li 6553   2.250   2.994   0.737  0.5387  0.5085  1.4029
  614lim     li 6554   4.243   5.399   3.985  0.6437  0.2215  0.8125
  615lim     li 6555   2.080   5.809   0.259  0.1004 -0.6735  1.2685
  616lim     li 6556   5.752   4.061   4.796  0.5298  0.3839 -0.5303
  617lim     li 6557   3.899   1.621   1.010  0.6984 -1.0536  1.2065
  618lim     li 6558   3.881   6.072   2.735  0.9331 -1.3031 -0.1876
  619lim     li 6559   2.008   5.751   4.091 -0.0423  0.3461  0.3692
  620lim     li 6560   4.686   0.737   6.551  0.0487 -0.7814  0.1945
  621lim     li 6561   1.029   3.371   5.149 -0.0762  0.5692  1.4681
  622lim     li 6562   4.296   2.663   5.778 -0.1130 -0.5762  0.4758
  623lim     li 6563   5.973   4.344   0.817  1.0746  0.4683 -0.5937
  624lim     li 6564   5.833   3.351   5.350  0.0455  1.1589  0.6834
  625lim     li 6565   1.654   6.066   5.699 -1.0068  0.9370 -0.5795
  626lim     li 6566   4.720   2.891   6.041  0.5096  0.1789 -0.3606
  627lim     li 6567   3.130   4.682   2.700  1.0887 -1.1411  0.9265
  628lim     li 6568   4.888   1.130   4.426  0.4101  0.2657  0.2571
  629lim     li 6569   3.023   1.811   4.120 -1.4424  0.6413 -1.1155
  630lim     li 6570   5.641   5.970   5.656 -0.0126 -0.6032  0.4576
  631lim     li 6571   1.964   0.708   5.619  0.5732  0.3642  0.3414
  632lim     li 6572   3.856   5.439   5.523  1.3036 -0.0380 -0.4153
  633lim     li 6573   4.109   3.559   5.935  0.2367 -0.7386 -1.0231
  634lim     li 6574   5.477   6.420   2.251 -0.3729  0.5393 -0.3240
  635lim     li 6575   4.578   3.780   6.531  0.2089  0.9141 -0.1595
  636lim     li 6576   5.719   1.501   4.332 -0.4219  0.2149 -0.1178
  637lim     li 6577   2.261   0.076   5.494 -0.2323  0.3575  0.6538
  638lim     li 6578   5.670   1.120   0.133 -0.0331 -0.1166 -0.8158
  639lim     li 6579   1.007   0.217   4.855 -0.8915 -0.2983  0.2809
  640lim     li 6580   2.924   0.966   4.931 -0.9182 -0.1346  0.0703
  641lim     li 6581   4.111   4.567   6.044  0.7451  0.5324  1.1877
  642lim     li 6582   4.662   6.276   1.442 -0.4661  0.2614 -0.2349
  643lim     li 6583   4.795   0.758   3.069  0.2276  1.7475 -0.8011
  644lim     li 6584   4.610   6.054   2.245 -0.4861  0.4700  0.1155
  645lim     li 6585   6.426   5.536   0.681  0.2838 -0.4850 -0.2335
  646lim     li 6586   4.998   4.079   5.246  0.8736 -0.6895 -0.0572
  647lim     li 6587   6.114   2.156   4.402 -0.3230 -1.0267 -0.0997
  648lim     li 6588   2.715   0.422   1.380  0.0292  0.8244 -0.5654
  649lim     li 6589   1.012   1.709   6.414  0.2457 -0.4733  1.1747
  650lim     li 6590   4.700   3.806   0.382  0.9116  0.1695  0.9464
  651lim     li 6591   1.378   2.640   5.602  1.2926  0.0635 -0.3657
  652lim     li 6592   3.028   3.765   1.158 -0.9653 -0.5944  1.5296
  653lim     li 6593   4.382   6.810   4.669 -0.6116  0.6783  0.8601
  654lim     li 6594   0.611   1.047   6.265  0.0070 -0.5249  1.2696
  655lim     li 6595   6.501   6.552   3.040  0.4553  0.9829 -0.6506
  656lim     li 6596   3.605   0.941   3.589 -0.5095  0.7076  0.1901
  657lim     li 6597   0.191   3.734   1.286  0.2819 -0.4969 -0.8882
  658lim     li 6598   4.762   2.019   2.186 -1.2040  0.1288 -0.4327
  659lim     li 6599   0.943   5.707   3.828  0.0252 -0.6948  0.6153
  660lim     li 6600   2.140   5.301   1.024  1.3964  0.4537 -0.1763
  661lim     li 6601   0.697   3.603   6.770  1.3143 -0.2267 -0.6000
  662lim     li 6602   0.109   5.913   0.538  0.4481  0.1502 -0.4043
  663lim     li 6603   0.815   0.806   2.155  0.1190 -1.3071  1.2041
  664lim     li 6604   3.438   3.399   4.575 -0.2810  0.2940 -0.5514
  665lim     li 6605   3.678   1.569   3.573 -0.7216 -1.6087  0.6530
  666lim     li 6606   3.262   5.074   4.846 -0.1612 -1.0423  0.1790
  667lim     li 6607   5.249   3.562   3.050  0.6432  0.1364 -0.4547
  668lim     li 6608   2.274   4.419   5.043  0.3158 -1.0949  0.0824
  669lim     li 6609   6.236   2.772   0.688  0.3462 -0.4994 -0.2017
  670lim     li 6610   1.703   1.065   3.997 -0.4005 -1.4875 -1.0573
  671lim     li 6611   3.217   3.417   2.980 -0.4431 -0.4147  0.9795
  672lim     li 6612   3.576   5.066   6.356  0.2110 -0.4014 -0.2319
  673lim     li 6613   5.379   6.274   0.944  0.6366  1.2193 -0.1756
  674lim     li 6614   6.727   5.575   6.678 -0.5145 -0.6317 -0.7136
  675lim     li 6615   1.704   4.016   5.532  0.1966  0.2096  0.2458
  676lim     li 6616   5.693   2.112   3.453  0.5943  0.7395 -0.4945
  677lim     li 6617   4.752   4.622   4.464  0.5923 -0.7144  0.8044
  678lim     li 6618   0.260   3.464   0.617 -1.1046 -0.1080  0.5712
  679lim     li 6619   4.575   5.298   5.260 -0.5619  0.5330  0.7525
  680lim     li 6620   2.076   1.948   4.948  1.3135 -0.4506 -0.3918
  681lim     li 6621   2.951   1.192   3.273  0.3931  1.0051 -0.0877
  682lim     li 6622   5.038   5.731   6.760  0.5163 -0.4350  0.3488
  683lim     li 6623   6.734   4.203   3.080  1.2903 -0.0543  0.1063
  684lim     li 6624   1.745   0.121   6.135  0.1699  0.1970  1.0458
  685lim     li 6625   5.725   6.532   1.523 -0.6316  0.6405 -0.2336
  686lim     li 6626   1.579   3.872   3.664  0.0067 -0.9915 -0.0661
  687lim     li 6627   2.805   5.593   6.462  0.3204  0.0794 -0.5832
  688lim     li 6628   1.381   1.025   6.765  0.1473  0.0513 -0.6030
  689lim     li 6629   6.383   3.976   2.588  1.1096 -0.0646  0.0880
  690lim     li 6630   0.168   6.537   5.411  0.6162 -0.4218 -0.1876
  691lim     li 6631   4.609   2.500   6.636  0.0097 -0.3800  1.4255
  692lim     li 6632   3.769   0.661   4.955 -0.1084 -2.0189 -1.0381
  693lim     li 6633   6.053   1.739   1.072  0.6288  0.6085  1.2473
  694lim     li 6634   0.976   1.508   5.725 -0.0078  0.2378 -0.0105
  695lim     li 6635   0.265   3.287   2.038 -0.5623  0.8208 -2.2694
  696lim     li 6636   3.272   0.925   0.883 -1.3672  0.7958 -0.8409
  697lim     li 6637   1.112   3.802   0.880 -0.2681 -0.2096  0.3249
  698lim     li 6638   5.526   4.053   2.175 -0.1454 -1.1721 -0.8558
  699lim     li 6639   6.483   2.850   3.837 -0.2289  0.5884  0.8003
  700lim     li 6640   4.670   5.802   5.726  0.0499 -0.3964  0.6059
  701lim     li 6641   2.540   5.093   6.166 -0.8212  0.0777  1.3928
  702lim     li 6642   6.572   0.202   2.269 -0.9476 -0.1724  0.8868
  703lim     li 6643   0.021   0.635   5.323 -1.2189  0.3908  0.1886
  704lim     li 6644   4.062   2.555   4.514 -0.6133 -0.5651 -0.4493
  705lim     li 6645   1.014   0.386   2.652  0.4529  0.6160  0.4809
  706lim     li 6646   3.649   2.892   2.546  0.2251 -0.3560  1.3431
  707lim     li 6647   2.295   2.185   6.330  0.5813  0.5718  0.5465
  708lim     li 6648   5.384   3.265   6.344 -0.0981  0.2894 -0.7342
  709lim     li 6649   3.286   1.388   6.431 -0.7910 -1.3112 -0.1913
  710lim     li 6650   2.870   1.803   1.442  0.3095  0.2360  0.3057
  711lim     li 6651   3.980   4.963   3.144  0.2833  0.1501 -0.1210
  712lim     li 6652   4.725   6.196   6.242 -0.1231 -0.4456 -0.3492
  713lim     li 6653   4.428   5.255   1.295 -0.5259 -0.4898 -0.7764
  714lim     li 6654   6.467   4.924   1.482 -0.3116 -0.2258 -0.0134
  715lim     li 6655   3.104   6.376   3.216  0.3621  0.0651 -0.9976
  716lim     li 6656   6.768   1.997   6.824  0.5762  0.5264  0.0461
  717lim     li 6657   5.007   2.404   3.676  0.5111  0.1173 -0.3955
  718lim     li 6658   4.002   4.757   4.358 -0.7400  0.8568  1.1532
  719lim     li 6659   0.840   3.872   4.673  0.3124 -0.5262 -0.4591
  720lim     li 6660   2.642   3.871   0.240 -1.3159  0.7468  0.9112
  721lim     li 6661   4.375   3.746   1.335  0.9339  0.6985  0.2941
  722lim     li 6662   4.613   6.051   4.600 -0.3546  0.5987  0.0518
  723lim     li 6663   0.465   1.431   0.289  0.5847  1.0634 -0.1341
  724lim     li 6664   0.972   1.316   3.961  0.5775  0.1055  0.3663
  725lim     li 6665   5.542   2.376   1.739  0.4104  0.6226  0.1199
  726lim     li 6666   1.593   2.900   6.612 -0.2349 -0.7065  1.1249
  727lim     li 6667   5.133   5.427   2.903 -1.0950  0.5013 -0.6128
  728lim     li 6668   3.980   6.269   4.072  0.8883 -0.2666 -0.0697
  729lim     li 6669   2.099   0.120   2.650  0.0805 -0.3241 -0.3810
  730lim     li 6670   0.655   4.896   1.402  1.3879  0.2020  0.2190
  731lim     li 6671   6.518   5.827   3.737  0.2141  0.3973  0.4608
  732lim     li 6672   1.596   3.800   0.135  0.6506  0.1006  0.5726
  733lim     li 6673   5.280   6.101   3.035  1.6387 -0.7870  0.1630
  734lim     li 6674   2.938   3.784   5.754 -0.5002 -1.8016 -0.5710
  735lim     li 6675   0.634   0.754   4.909  1.9529  0.8663 -0.2634
  736lim     li 6676   3.614   2.501   5.570 -0.7437 -0.4803  0.2123
  737lim     li 6677   3.878   3.146   3.863  1.0919  1.5293  0.1047
  738lim     li 6678   2.761   5.780   0.601 -0.4509 -0.4051  1.1551
  739lim     li 6679   0.859   4.667   0.611  0.7908 -1.5211 -0.6017
  740lim     li 6680   4.621   2.364   4.999  0.0253 -0.6308  0.2415
  741lim     li 6681   2.360   5.383   2.914  1.3751  0.4563 -1.3523
  742lim     li 6682   5.233   5.169   4.233 -0.2846 -0.2714 -0.4036
  743lim     li 6683   0.512   0.191   3.309  0.3184  0.5936 -0.1748
  744lim     li 6684   0.057   4.265   6.759 -0.0436 -0.1006 -0.7288
  745lim     li 6685   0.678   2.329   4.315 -0.0500 -0.5993 -0.2848
  746lim     li 6686   2.634   1.709   2.378 -0.9197  0.3571  1.0491
  747lim     li 6687   1.425   6.422   6.788  0.2185  1.2872 -1.4614
  748lim     li 6688   5.495   1.082   2.226  0.9109  0.1761 -0.5194
  749lim     li 6689   2.825   6.828   4.836 -0.6036  0.1445 -0.8406
  750lim     li 6690   5.601   3.618   2.394  0.9812  0.8017 -1.7149
  751lim     li 6691   0.269   0.375   2.658  0.4909 -0.0308  0.3180
  752lim     li 6692   5.626   0.101   5.499 -0.2931 -0.4467  0.2518
  753lim     li 6693   3.958   5.377   0.146  1.2077 -0.1002 -0.5518
  754lim     li 6694   2.367   6.603   6.776 -0.0257  1.4697  1.0828
  755lim     li 6695   6.386   0.664   3.768  0.7850 -0.5980  0.2918
  756lim     li 6696   1.460   3.033   4.181 -0.5222 -0.1300 -0.4068
  757lim     li 6697   5.886   1.891   5.183 -0.3496  0.7132 -0.0011
  758lim     li 6698   6.142   0.815   1.793 -0.0452 -0.0234  0.2143
  759lim     li 6699   3.001   0.797   2.246 -0.4360 -0.3869 -0.4779
  760lim     li 6700   4.440   5.982   3.198  0.1190 -1.3549  0.6675
  761lim     li 6701   3.198   4.206   0.098 -0.5368 -0.9918 -0.5537
  762lim     li 6702   1.579   1.633   3.078  0.0170 -0.8054 -0.5447
  763lim     li 6703   2.099   2.726   4.810  0.1026 -0.0094  0.7760
  764lim     li 6704   4.763   0.295   5.787 -0.4238 -1.1332 -0.2890
  765lim     li 6705   3.901   6.687   5.663 -1.2088  0.7934 -1.5377
  766lim     li 6706   3.185   4.551   0.739  0.6076  0.0654 -0.0822
  767lim     li 6707   3.423   0.114   1.096  0.4703  0.7233  0.6735
  768lim     li 6708   4.310   3.592   5.170  0.9885  0.1167  0.7562
  769lim     li 6709   3.775   4.351   2.133 -0.2938 -0.4418  0.1015
  770lim     li 6710   3.088   2.651   3.309 -1.2269  0.0143 -0.0495
  771lim     li 6711   1.599   2.336   2.767  0.5680  0.0771 -0.5704
  772lim     li 6712   6.763   0.228   6.647 -1.5430 -0.9701 -0.6075
  773lim     li 6713   0.433   5.407   3.085  0.3668  0.6500  0.4118
  774lim     li 6714   2.304   0.144   3.384 -0.8245 -0.2760  1.2862
  775lim     li 6715   3.946   1.869   1.931  0.1969 -0.3577  0.3470
  776lim     li 6716   2.783   4.329   4.782  1.6480 -0.2492 -0.2845
  777lim     li 6717   3.039   0.465   5.597  1.0615  0.4842 -0.3993
  778lim     li 6718   6.410   1.590   0.578  0.1296 -0.4001  0.2125
  779lim     li 6719   2.186   2.775   3.654  1.0535  0.0466  0.7894
  780lim     li 6720   1.241   0.890   5.492  0.4151  0.1071  1.1720
  781lim     li 6721   6.803   0.583   0.416  1.4449  0.2887  0.9048
  782lim     li 6722   2.717   0.639   6.088  0.3081  0.2396  0.9182
  783lim     li 6723   4.723   0.038   2.193  0.6103 -0.5087 -0.6656
  784lim     li 6724   2.618   0.467   4.271 -0.1692  0.8873  0.5977
  785lim     li 6725   1.537   0.234   3.741  0.1656  0.2951  0.8630
  786lim     li 6726   2.382   4.563   2.966  1.5138  0.2034 -1.0779
  787lim     li 6727   4.806   6.806   0.229 -0.0104 -0.8618 -0.6416
  788lim     li 6728   3.117   5.001   0.246 -0.2333  0.2248  0.3465
  789lim     li 6729   5.589   5.450   2.195 -0.2457  0.7860  0.3924
  790lim     li 6730   3.144   1.070   5.715  0.1522  0.1202 -0.0685
  791lim     li 6731   3.536   5.646   3.420 -0.4546  0.5159 -0.4817
  792lim     li 6732   1.403   0.852   1.601 -0.4326  0.3383  1.0039
  793lim     li 6733   3.994   2.847   1.676  0.9772 -0.3814 -0.2137
  794lim     li 6734   5.263   1.990   0.725  0.7511  0.2148  0.6507
  795lim     li 6735   2.764   5.828   5.544  0.7100 -0.6128  0.1279
  796lim     li 6736   3.315   0.564   6.680 -0.1398  1.2481 -0.3299
  797lim     li 6737   0.615   5.137   2.521  0.5529  1.0373  0.9646
  798lim     li 6738   0.738   3.262   3.980  1.2464  0.3763 -0.3965
  799lim     li 6739   0.799   0.081   6.420  0.0605  0.9757  0.0896
  800lim     li 6740   0.046   3.349   2.472 -0.7304 -0.7928  0.9684
  801lim     li 6741   0.643   6.656   4.197  0.3590 -0.4075 -1.4004
  802lim     li 6742   0.987   4.576   3.015  0.0379 -0.3550 -0.1808
  803lim     li 6743   4.579   1.923   0.310  1.5632 -0.7084  0.0449
  804lim     li 6744   5.554   1.477   1.541  0.6924  0.2032 -0.8103
  805lim     li 6745   2.419   1.286   3.543  1.0868 -0.9625  0.1780
  806lim     li 6746   4.183   4.097   4.010 -1.3213  0.9858 -0.8682
  807lim     li 6747   6.170   4.323   6.141  1.2048  0.4926  0.0541
  808lim     li 6748   5.582   4.583   2.660  1.1117 -0.1353  0.4328
  809lim     li 6749   5.374   5.938   3.942 -1.5721 -0.0232  0.4880
  810lim     li 6750   6.404   6.521   0.797  0.7904 -0.6781  0.8489
  811lim     li 6751   2.350   4.119   1.373  0.5674  0.5957  1.5590
  812lim     li 6752   0.752   5.289   6.111  0.1459 -0.8864  0.9381
  813lim     li 6753   0.529   4.065   2.512 -0.1148  0.3936 -0.2826
  814lim     li 6754   1.338   0.018   5.682  0.5188 -0.5443  1.5036
  815lim     li 6755   3.889   0.282   3.697  0.2207  1.4622  0.3183
  816lim     li 6756   2.516   2.381   4.204 -0.7493 -1.3090  0.6336
  817lim     li 6757   6.738   4.038   4.075 -0.5373  0.1442  0.2064
  818lim     li 6758   3.938   0.558   2.366 -0.5479 -1.3381 -1.2430
  819lim     li 6759   6.493   0.671   3.110 -0.1212  1.0114  1.3932
  820lim     li 6760   0.191   2.721   0.658  0.4470 -0.6007 -0.1826
  821lim     li 6761   2.328   1.037   2.720  0.4307  1.5277 -0.4348
  822lim     li 6762   1.472   2.253   0.428  0.7552 -0.1513  0.0752
  823lim     li 6763   4.866   1.721   1.527  0.1224 -0.4268 -0.3961
  824lim     li 6764   2.804   2.298   0.596 -0.8654  0.3533 -0.8924
  825lim     li 6765   5.116   1.750   5.427 -0.6756  0.4613  0.0899
  826lim     li 6766   3.990   2.308   1.099 -0.9640  0.1134  0.4764
  827lim     li 6767   4.826   4.580   3.302 -0.3416  0.1698  0.4533
  828lim     li 6768   3.561   3.697   6.265 -0.6333  0.5590 -0.6141
  829lim     li 6769   1.375   3.554   5.817 -0.7855 -1.7250  0.2061
  830lim     li 6770   2.123   3.487   4.861 -0.5000 -0.6956  1.8459
  831lim     li 6771   2.369   1.391   6.846 -1.1724  0.2768 -0.1070
  832lim     li 6772   6.567   2.199   1.285 -0.3862  0.7305  0.8189
  833lim     li 6773   1.741   1.739   0.216 -0.2642  0.6155 -0.0118
  834lim     li 6774   0.394   6.275   6.434  0.6027  1.0347  0.2032
  835lim     li 6775   4.965   0.453   3.963  0.3245  0.1987 -0.7829
  836lim     li 6776   1.120   2.884   0.706  0.1392 -0.1306  0.5264
  837lim     li 6777   6.593   4.691   4.940 -0.1547 -0.0870  0.2008
  838lim     li 6778   1.442   5.504   0.495  1.1522  0.8789 -0.1571
  839lim     li 6779   3.337   5.575   1.275 -0.0897  0.7516 -0.9405
  840lim     li 6780   3.970   4.541   0.985  2.2108  0.0328  0.8163
  841lim     li 6781   4.735   4.391   5.695  0.6775 -0.7717 -0.9843
  842lim     li 6782   1.414   2.118   3.855  1.6494 -0.4223 -0.2853
  843lim     li 6783   1.118   3.515   2.497  0.8363 -0.2052  0.9008
  844lim     li 6784   6.471   5.195   5.714  0.4569  0.0653 -0.0384
  845lim     li 6785   0.752   2.549   3.432 -0.4448 -0.3614 -0.2614
  846lim     li 6786   4.399   1.759   3.858  0.5550 -0.3597  1.1236
  847lim     li 6787   5.941   5.070   4.643  0.5903  0.8544  1.4606
  848lim     li 6788   1.601   6.037   1.473  0.2415  0.6808 -0.4066
  849lim     li 6789   0.226   0.988   3.859  0.6648 -0.0893  1.4332
  850lim     li 6790   1.011   6.285   4.954 -0.9279  0.3606  0.7506
  851lim     li 6791   3.970   3.861   3.316 -1.5369 -1.0628  0.6261
  852lim     li 6792   2.466   2.305   1.940  0.6739  0.2791 -0.8786
  853lim     li 6793   5.439   2.626   2.690 -0.5877 -0.3294 -0.2881
  854lim     li 6794   3.173   6.390   6.788 -0.4638  0.6776  0.7595
  855lim     li 6795   5.125   0.450   4.892  0.6040  0.3422  0.2864
  856lim     li 6796   0.138   5.287   5.458  0.1060 -1.4438  1.0741
  857lim     li 6797   0.050   5.184   4.022  0.6198 -0.9390 -0.0763
  858lim     li 6798   1.552   4.284   6.643  0.5458 -0.2569 -1.5665
  859lim     li 6799   2.959   2.041   4.811 -0.7757 -0.3367  0.0138
  860lim     li 6800   4.743   4.504   1.598 -0.0701 -0.0310 -1.0596
  861lim     li 6801   1.579   5.309   2.351 -0.4898  0.7713 -0.3668
  862lim     li 6802   2.398   4.423   2.197 -0.4710  0.0781 -0.8114
  863lim     li 6803   0.037   2.066   5.039  0.3857  0.5535 -1.3151
  864lim     li 6804   2.521   4.860   4.082  0.3943  0.4868 -0.4573
  865lim     li 6805   6.286   6.414   4.973 -1.1195  0.9522 -0.1139
  866lim     li 6806   3.103   3.811   3.731  2.2504 -0.3035  0.8058
  867lim     li 6807   5.649   4.943   5.675  0.0900  0.1908  0.2015
  868lim     li 6808   4.005   0.545   6.138  0.6145  0.4092  0.9196
  869lim     li 6809   2.018   2.778   1.551 -0.0571 -0.6332 -0.5597
  870lim     li 6810   3.873   4.235   0.037 -1.1845  0.0862 -0.9386
  871lim     li 6811   5.497   2.578   4.831 -0.3208  1.1240 -1.2540
  872lim     li 6812   5.809   5.383   3.455 -0.2933 -0.1572  0.2631
  873lim     li 6813   3.245   3.709   4.996 -0.2263  0.5262 -1.3532
  874lim     li 6814   0.060   6.073   1.329  0.3043  0.4715  0.7204
  875lim     li 6815   3.797   0.250   0.058 -0.1341  2.0969  1.0681
  876lim     li 6816   2.839   3.076   4.016 -0.0755  0.1345  0.9081
  877lim     li 6817   6.473   0.097   4.064  0.0994  0.4579 -0.6929
  878lim     li 6818   5.003   6.459   5.373 -0.1178  0.7064  0.3898
  879lim     li 6819   6.467   4.185   5.283 -0.3514  0.5231 -0.5676
  880lim     li 6820   1.857   5.131   5.681  0.3168  0.7807  1.3200
  881lim     li 6821   6.834   6.530   0.314 -0.0081  1.0668 -0.6051
  882lim     li 6822   5.213   4.978   5.162  1.2611  1.0227 -0.1023
  883lim     li 6823   2.275   2.774   2.675  0.6979  0.4102 -0.3446
  884lim     li 6824   0.479   0.318   1.246  1.1008  0.1052 -0.6189
  885lim     li 6825   6.783   5.080   2.106 -1.4552 -1.2578  0.3393
  886lim     li 6826   5.817   5.554   1.399 -0.2642 -0.2889 -0.4491
  887lim     li 6827   0.750   2.553   2.754  0.8496  0.3890 -0.3588
  888lim     li 6828   4.698   4.574   6.691  0.2482  0.8332  0.1171
  889lim     li 6829   1.880   6.135   2.462 -1.6495  0.4959 -1.0436
  890lim     li 6830   5.193   4.118   1.043 -0.1721 -0.6941  0.2606
  891lim     li 6831   0.913   4.675   4.834 -1.4705 -1.1426 -0.4546
  892lim     li 6832   1.486   1.549   5.793 -0.6287  0.0943 -0.2624
  893lim     li 6833   2.945   2.896   1.067 -0.3155  0.3552  0.7391
  894lim     li 6834   5.388   3.694   6.759 -1.2195  1.3929 -0.4837
  895lim     li 6835   1.826   1.244   2.165  1.0061  0.7060  1.4016
  896lim     li 6836   0.031   1.173   2.645  0.1284  0.0213 -0.1675
  897lim     li 6837   5.470   6.591   4.667  0.9797  0.5860  0.1482
  898lim     li 6838   1.284   4.477   2.096  0.7650 -1.6453  0.4017
  899lim     li 6839   2.802   4.413   6.496 -0.7502  1.0288 -0.2699
  900lim     li 6840   2.366   3.710   3.089 -0.6408 -1.5455 -0.8492
  901lim     li 6841   6.221   4.077   1.572  0.0212  0.5775  0.5900
  902lim     li 6842   5.891   3.607   4.053  0.1317 -0.2047  0.5771
  903lim     li 6843   2.051   0.449   0.003 -0.4281 -0.4689  0.2861
  904lim     li 6844   4.289   4.435   2.684 -1.0242  0.7138  0.5404
  905lim     li 6845   5.701   0.338   2.458  0.4442  1.0187  0.8864
  906lim     li 6846   3.114   2.769   4.750 -1.9375  0.1883 -1.7993
  907lim     li 6847   1.984   5.029   1.481 -0.1554 -0.7996 -0.3054
  908lim     li 6848   0.873   0.316   0.254  1.3655 -0.6546  0.7616
  909lim     li 6849   0.274   4.364   1.993 -1.0878 -1.0609  0.3760
  910lim     li 6850   4.286   3.475   2.308  1.1574  0.5801  1.1885
  911lim     li 6851   6.270   2.099   2.984  0.0307 -0.0389  0.2539
  912lim     li 6852   6.365   6.124   5.799 -0.7792  1.0194  0.3296
  913lim     li 6853   3.403   4.541   1.595  0.3439 -0.0247 -0.1087
  914lim     li 6854   6.399   4.701   3.663 -0.2581 -0.2562 -0.9673
  915lim     li 6855   2.104   5.257   3.670  0.4461  0.9144 -0.5645
  916lim     li 6856   3.658   6.182   4.872  0.0207  0.8555 -0.1337
  917lim     li 6857   5.999   1.315   6.382 -0.8233  0.4240  0.0203
  918lim     li 6858   4.442   1.150   0.745  0.0680 -0.6140  0.4418
  919lim     li 6859   5.045   5.512   1.653  0.1920 -0.9262 -1.0432
  920lim     li 6860   6.268   2.838   4.594  1.2879  0.1453  0.9411
  921lim     li 6861   4.452   6.502   3.189  0.6426  0.1479 -0.4969
  922lim     li 6862   0.837   6.122   0.411 -0.1558  0.0993  0.8498
  923lim     li 6863   6.807   1.323   1.069  1.4967 -0.3209 -0.0983
  924lim     li 6864   0.601   6.140   2.557 -0.2098  0.3287  0.1951
  925lim     li 6865   6.356   3.205   1.639 -0.0538  0.1513  0.0015
  926lim     li 6866   5.442   4.469   0.005  1.0319 -0.0922  0.5985
  927lim     li 6867   3.707   2.086   2.881 -1.0128 -0.2856  1.1022
  928lim     li 6868   0.968   5.517   4.543 -1.0200  0.3283  1.4515
  929lim     li 6869   3.320   4.831   3.691  1.3890 -0.0817 -0.2736
  930lim     li 6870   4.044   6.725   1.927  0.0692  0.2445 -0.8459
  931lim     li 6871   6.237   4.833   2.553  1.0744 -0.6553 -0.0165
  932lim     li 6872   2.401   5.374   2.035  0.0075  1.2496 -0.0841
  933lim     li 6873   5.298   2.478   6.005  0.5378  0.0276  0.5775
  934lim     li 6874   5.467   2.741   0.233 -0.2419 -0.1431  0.8774
  935lim     li 6875   0.521   6.028   3.301  1.1579  0.4617 -0.6025
  936lim     li 6876   1.549   4.501   0.670 -0.9358 -0.3812  0.0121
  937lim     li 6877   5.539   4.054   5.967 -0.1500 -0.1969  0.0773
  938lim     li 6878   0.940   1.592   4.919 -0.3548  0.5393  0.4700
  939lim     li 6879   3.163   6.539   0.497  0.1017 -0.7653 -0.9706
  940lim     li 6880   6.186   3.849   3.196 -0.2155 -0.2234 -1.2050
  941lim     li 6881   4.863   0.573   0.723 -0.4795  0.0102 -0.9735
  942lim     li 6882   0.872   3.245   5.938  0.6148 -0.1078 -0.3711
  943lim     li 6883   3.390   1.358   2.437  0.1981 -0.9375  0.9650
  944lim     li 6884   3.643   3.591   1.546 -0.9678  0.3727  0.1314
  945lim     li 6885   2.336   1.230   5.260  0.2590  0.0711 -0.1984
  946lim     li 6886   1.182   4.827   3.612  0.6370 -0.0740  0.1701
  947lim     li 6887   4.151   5.373   6.308  0.4299 -0.5201  0.1820
  948lim     li 6888   0.797   2.444   1.988  0.0072 -0.4533 -0.0195
  949lim     li 6889   3.933   2.404   0.281  0.8155  0.2191  0.5256
  950lim     li 6890   6.337   5.540   4.946  0.2856 -0.0175 -1.3167
  951lim     li 6891   2.299   1.252   6.134  0.6393 -0.2495  0.1126
  952lim     li 6892   6.339   2.606   6.542 -0.4042 -0.5623  0.4137
  953lim     li 6893   5.295   6.573   6.343  0.1373 -0.0752 -1.2052
  954lim     li 6894   3.765   1.368   4.494 -0.0700  0.1455 -0.8064
  955lim     li 6895   1.413   6.330   4.260  0.3271 -0.7136  0.4548
  956lim     li 6896   6.732   3.320   4.144  0.6673 -1.3438  0.3494
  957lim     li 6897   4.999   5.207   3.588 -0.9027  1.1149 -0.9834
  958lim     li 6898   3.095   3.825   2.412  0.3063 -1.0453 -0.0886
  959lim     li 6899   5.155   1.520   5.949 -0.2903  0.6683  0.6959
  960lim     li 6900   2.463   4.431   5.895  1.1827 -0.7195 -0.9304
  961lim     li 6901   6.022   1.108   5.063 -0.1389 -0.4612  0.1129
  962lim     li 6902   1.600   0.679   3.082  0.4640 -0.6680  0.3696
  963lim     li 6903   1.348   2.944   2.038 -1.2906 -0.3249 -0.6060
  964lim     li 6904   3.007   0.318   3.096 -0.4289  0.9369 -0.9793
  965lim     li 6905   3.339   6.361   1.857  1.2785  0.0375  0.5257
  966lim     li 6906   3.193   5.594   4.254  0.8782 -0.0441  0.6565
  967lim     li 6907   3.573   1.793   5.231 -0.5752 -0.6913 -0.4916
  968lim     li 6908   3.656   5.628   4.973 -1.0389 -0.0936  0.9544
  969lim     li 6909   0.017   6.168   4.383 -0.5404  1.4432  1.5503
  970lim     li 6910   1.282   2.422   4.912 -0.4202  0.5781 -0.4793
  971lim     li 6911   6.828   1.960   2.053  0.7405  0.0365  0.5852
  972lim     li 6912   1.837   1.576   4.532 -0.1930  1.0202  0.4656
  973lim     li 6913   0.663   2.335   0.183  0.5378  0.1654  0.4310
  974lim     li 6914   4.978   1.442   3.410  0.5791 -0.4201  1.7659
  975lim     li 6915   5.221   3.660   4.528 -1.0315 -0.1816  0.0000
  976lim     li 6916   2.701   1.347   0.705 -0.1654 -0.9096 -0.7710
  977lim     li 6917   3.368   2.384   1.856 -0.6711 -1.2752 -0.0888
  978lim     li 6918   2.943   3.048   2.050 -0.3344  0.0135 -0.8272
  979lim     li 6919   3.031   5.616   2.638 -0.2350 -1.4162  0.1338
  980lim     li 6920   2.332   4.606   0.762  1.4171 -1.0714  0.1539
  981lim     li 6921   0.385   5.402   0.816 -1.2159  1.0406 -0.4403
  982lim     li 6922   6.351   1.813   5.856 -0.5244 -0.3835 -0.6676
  983lim     li 6923   6.819   5.796   1.835  0.0121 -0.5353 -0.8156
  984lim     li 6924   5.024   3.653   1.719  0.6083  0.2021  0.7899
  985lim     li 6925   6.200   3.102   2.933 -0.3171 -0.1517  1.0395
  986lim     li 6926   0.671   6.429   5.604 -0.0328 -2.0472 -1.1680
  987lim     li 6927   1.379   4.753   5.408  1.1613 -0.0858  0.3408
  988lim     li 6928   2.471   1.425   4.528  0.3587 -0.0205  0.0950
  989lim     li 6929   1.892   0.878   0.942 -0.8854  0.2214  1.0964
  990lim     li 6930   6.278   3.503   6.221 -0.4929  0.4296 -0.8858
  991lim     li 6931   6.371   0.002   1.540  0.9620  0.6217  0.5037
  992lim     li 6932   2.845   2.925   5.661 -0.6681  0.3908 -1.0375
  993lim     li 6933   0.028   2.703   5.652  0.3752  0.3465 -0.3123
  994lim     li 6934   4.403   3.046   0.504 -1.0781  1.0531  1.4577
  995lim     li 6935   1.275   5.214   1.330 -1.3986 -0.6832 -1.2049
  996lim     li 6936   2.495   2.259   3.569  0.5430  0.5570 -0.9696
  997lim     li 6937   1.918   5.081   4.902  0.5037  0.2642 -0.2319
  998lim     li 6938   1.206   5.869   6.467 -0.4804 -1.1469  1.8063
  999lim     li 6939   1.369   3.858   1.630  1.0360  0.9178 -0.6237
 1000lim     li 6940   0.952   1.524   2.436  0.1699 -0.7872 -0.7301
 1001lim     li 6941   2.718   5.549   4.621 -0.6739  1.0005 -1.1938
 1002lim     li 6942   5.722   1.252   3.364 -0.5839  0.3141 -0.1878
 1003lim     li 6943   5.997   0.430   4.552  0.0388 -0.8596  0.0058
 1004lim     li 6944   4.493   2.936   4.078 -1.2380  0.1997  0.8010
 1005lim     li 6945   5.470   2.959   1.823  0.1781  0.2929  1.6286
 1006lim     li 6946   4.344   3.316   4.596 -0.2962  0.0487  0.0172
 1007lim     li 6947   4.314   1.867   4.968  0.6989 -0.3882 -0.0693
 1008lim     li 6948   1.579   2.073   1.304  0.2989 -1.9101  1.3879
 1009lim     li 6949   1.354   0.275   0.944  1.2857  0.0260  0.2576
 1010lim     li 6950   6.508   5.582   2.746 -0.1322  0.8739 -0.1325
 1011lim     li 6951   2.326   2.658   5.343 -0.1999  0.8863 -0.6137
 1012lim     li 6952   5.477   0.549   6.634  0.2557  0.8647 -0.1515
 1013lim     li 6953   3.181   4.809   5.760 -0.5345 -0.1856 -1.0521
 1014lim     li 6954   2.758   0.408   0.555 -0.5472 -1.5543 -0.2136
 1015lim     li 6955   4.134   5.608   1.875  0.8314 -1.2349  0.6605
 1016lim     li 6956   2.570   5.993   2.074 -0.1782 -0.4103  1.6190
 1017lim     li 6957   6.139   5.058   6.405 -0.6383 -0.4933 -0.6092
 1018lim     li 6958   4.245   1.485   2.663 -0.3938  1.2450  0.0479
 1019lim     li 6959   5.193   2.784   1.125  1.0889  0.0930 -0.1526
 1020lim     li 6960   3.417   3.038   6.712 -0.2220  0.6128  1.5342
 1021lim     li 6961   0.873   1.004   3.161 -0.5842 -0.1238  0.5015
 1022lim     li 6962   2.157   5.847   5.023 -0.2579 -0.0277 -0.1537
 1023lim     li 6963   2.097   0.142   1.959  0.4123  0.2740 -0.4319
 1024lim     li 6964   5.282   4.436   3.801  0.1985 -0.1630  0.3993
 1025lim     li 6965   6.387   3.359   0.115 -0.6954 -0.3942  1.0032
 1026lim     li 6966   1.560   5.444   3.303 -0.5958 -0.4776 -0.4195
 1027lim     li 6967   0.702   1.722   1.594  0.2746  0.5840  1.0043
 1028lim     li 6968   6.232   0.882   5.775 -0.1346 -0.3030  0.2611
 1029lim     li 6969   1.557   1.903   2.073 -0.0067  0.7251  0.4081
 1030lim     li 6970   2.558   6.327   1.049  1.0321 -0.0148 -0.0569
 1031lim     li 6971   0.312   4.935   0.077 -1.1753  0.3266  0.4242
 1032lim     li 6972   3.665   0.870   1.459  0.4301 -0.8290 -1.0273
 1033lim     li 6973   3.440   0.044   4.102  0.8322  0.2652  0.9587
 1034lim     li 6974   6.004   3.545   0.907 -1.0307  0.6613  0.4986
 1035lim     li 6975   4.502   1.208   1.621 -0.2348 -0.0524  0.3930
 1036lim     li 6976   5.554   0.773   3.911 -0.0767  0.4942 -0.0100
 1037lim     li 6977   0.786   6.109   0.981 -1.3028  0.1275  0.1499
 1038lim     li 6978   6.227   6.254   6.442  0.9643  0.8848  0.5082
 1039lim     li 6979   0.725   5.750   5.308  0.3464  0.3993  0.3507
 1040lim     li 6980   3.433   4.176   4.136  0.1256 -0.3648  1.6276
 1041lim     li 6981   3.182   1.831   0.100  0.9865 -0.3091  0.0859
 1042lim     li 6982   6.836   4.372   0.879  0.0288  1.0947 -0.3706
 1043lim     li 6983   5.290   3.244   0.694  0.5230 -0.2299  0.4123
 1044lim     li 6984   6.570   1.488   3.690  1.1966  1.5468  0.0086
 1045lim     li 6985   5.616   4.581   1.668 -0.9673  0.7769 -1.1990
 1046lim     li 6986   4.972   3.114   5.619  0.1511 -0.9122  1.3726
 1047lim     li 6987   5.547   6.520   3.829 -0.8141  0.3272  0.3598
 1048lim     li 6988   4.403   2.637   2.399  1.1666  0.0468 -0.0127
 1049lim     li 6989   5.094   3.801   3.598 -0.0748 -0.0333 -0.0402
 1050lim     li 6990   3.016   6.654   5.943  0.2496 -0.2349 -0.0120
 1051lim     li 6991   3.580   3.903   2.926  0.5488  1.2840  0.4530
 1052lim     li 6992   5.092   0.129   2.942  0.2522  0.2686 -1.4901
 1053lim     li 6993   1.933   3.547   2.469 -0.2291  1.1717 -0.5069
 1054lim     li 6994   0.559   2.521   6.229  0.4066 -1.4722  0.5609
 1055lim     li 6995   5.173   0.329   1.421  0.3733  0.3004 -0.5037
 1056lim     li 6996   5.441   0.717   5.908  0.6267  0.0567 -0.7697
 1057lim     li 6997   0.565   2.976   5.022  0.8753 -1.5175  0.2674
 1058lim     li 6998   6.674   4.756   6.044 -0.3128 -0.9068 -0.3216
 1059lim     li 6999   4.096   0.032   2.849 -0.4653 -0.1915  1.2538
 1060lim     li 7000   0.391   2.321   0.976 -0.3815 -0.3946  0.7166
 1061lim     li 7001   6.258   0.102   5.950 -0.4844 -0.5616 -0.3886
 1062lim     li 7002   4.683   4.914   2.263  0.5802  0.1449  0.0846
 1063lim     li 7003   0.245   3.142   3.309  0.2057 -1.0814 -0.7450
 1064lim     li 7004   4.365   0.374   1.126  0.4421 -0.6230 -1.0910
 1065lim     li 7005   4.976   3.363   2.370 -0.0279  0.7040 -0.4021
 1066lim     li 7006   0.161   1.090   1.797 -0.7398 -1.9770 -0.4392
 1067lim     li 7007   0.264   1.908   3.077  0.7153  1.2619 -1.5088
 1068lim     li 7008   5.364   3.036   3.604 -0.5229  0.1019  0.8731
 1069lim     li 7009   6.706   1.023   6.338 -0.0805  0.5700  0.5103
 1070lim     li 7010   1.598   4.621   4.503  0.6017  0.9496 -1.1653
 1071lim     li 7011   5.275   1.874   2.672 -0.6108  0.9428 -0.1941
 1072lim     li 7012   3.442   2.266   6.376  1.2241  1.2522  0.8433
 1073lim     li 7013   6.189   1.281   2.436 -0.0754  0.0010  0.0254
 1074lim     li 7014   5.130   5.592   0.733  0.5743  0.7450 -0.4682
 1075lim     li 7015   0.858   3.798   3.246 -0.5550 -0.0786 -0.5886
 1076lim     li 7016   0.928   4.350   6.088 -0.1001 -0.1902 -0.1888
 1077lim     li 7017   0.347   1.437   5.484 -1.0545  0.7879 -1.1935
 1078lim     li 7018   0.753   3.065   1.431 -1.3013 -0.0798  0.4081
 1079lim     li 7019   3.922   1.770   5.828  0.0375 -0.1107 -0.8222
 1080lim     li 7020   3.808   5.990   1.088  0.7852 -0.0334 -1.0946
 1081ntf    cn1 7021   4.599   3.511   0.878  0.5079  0.4938  0.2874
 1081ntf    sn2 7022   4.657   3.681   0.850  0.0336  0.5494 -0.3842
 1081ntf    nn3 7023   4.594   3.751   0.976 -0.0413 -0.3040  0.0594
 1081ntf    sn2 7024   4.459   3.821   1.014 -0.0142 -0.1315 -0.1623
 1081ntf    cn1 7025   4.516   3.993   1.001  0.1508 -0.2059 -0.4094
 1081ntf    fn4 7026   4.477   3.493   0.829  0.5837  0.3303  0.1561
 1081ntf    fn4 7027   4.673   3.434   0.799 -0.6046 -0.4748  0.1550
 1081ntf    fn4 7028   4.594   3.465   1.002 -0.2498 -0.4743 -0.0848
 1081ntf    on5 7029   4.799   3.663   0.858 -0.0584 -0.1394 -0.1776
 1081ntf    on5 7030   4.587   3.706   0.727 -0.3022  0.3137 -0.2454
 1081ntf    on5 7031   4.347   3.810   0.924  0.2558 -0.0364 -0.5110
 1081ntf    on5 7032   4.431   3.803   1.154  0.0562  0.5453 -0.0554
 1081ntf    fn4 7033   4.580   4.018   0.887 -0.4230  0.3539 -0.6141
 1081ntf    fn4 7034   4.601   4.029   1.096 -0.2815  0.1448 -0.1498
 1081ntf    fn4 7035   4.419   4.082   0.998  0.2073 -0.1424 -0.3485
 1082ntf    cn1 7036   1.898   1.573   1.035 -0.0782 -0.0483 -0.4040
 1082ntf    sn2 7037   1.804   1.555   1.189  0.1727 -0.1343 -0.2597
 1082ntf    nn3 7038   1.874   1.670   1.271  0.1102 -0.5670  0.4134
 1082ntf    sn2 7039   1.828   1.734   1.406 -0.4022 -0.0433 -0.0021
 1082ntf    cn1 7040   1.881   1.614   1.532 -0.3353  0.4069  0.4037
 1082ntf    fn4 7041   1.844   1.510   0.932  0.1758 -0.8585 -0.0542
 1082ntf    fn4 7042   1.901   1.700   1.000 -0.5133 -0.0079 -0.2960
 1082ntf    fn4 7043   2.023   1.532   1.049  0.0784  0.3739 -0.5540
 1082ntf    on5 7044   1.668   1.580   1.147  0.0014  0.0905  0.4131
 1082ntf    on5 7045   1.836   1.422   1.233  0.5401 -0.1090 -0.4555
 1082ntf    on5 7046   1.907   1.852   1.436  0.3416 -0.4753 -0.2480
 1082ntf    on5 7047   1.688   1.735   1.440 -0.3713 -0.0898  0.1273
 1082ntf    fn4 7048   2.012   1.597   1.541 -0.3271  0.3106  0.1158
 1082ntf    fn4 7049   1.827   1.496   1.509 -0.1985  0.3216  0.5204
 1082ntf    fn4 7050   1.840   1.643   1.655 -0.4979 -0.3043  0.5217
 1083ntf    cn1 7051   1.744   3.868   3.291 -0.1194 -0.0283  0.0477
 1083ntf    sn2 7052   1.570   3.832   3.333 -0.2121  0.2794 -0.0701
 1083ntf    nn3 7053   1.499   3.971   3.312  0.0749  0.4625  0.1673
 1083ntf    sn2 7054   1.488   4.061   3.184  0.0003  0.2462  0.0214
 1083ntf    cn1 7055   1.542   4.220   3.254 -0.4395  0.5455 -0.3154
 1083ntf    fn4 7056   1.774   3.854   3.163  1.6822  0.6694  0.3672
 1083ntf    fn4 7057   1.773   3.994   3.318  0.4123 -0.1172 -0.1122
 1083ntf    fn4 7058   1.825   3.789   3.360 -0.1621  0.4646  0.6730
 1083ntf    on5 7059   1.533   3.722   3.248 -0.1550  0.3199 -0.1475
 1083ntf    on5 7060   1.582   3.814   3.475 -0.0018 -0.5739 -0.1914
 1083ntf    on5 7061   1.587   4.046   3.079 -0.1249  0.2046 -0.0911
 1083ntf    on5 7062   1.352   4.097   3.156  0.0431  0.5610  0.2093
 1083ntf    fn4 7063   1.672   4.232   3.276 -0.4262 -0.3781  0.1782
 1083ntf    fn4 7064   1.486   4.241   3.372 -0.8596 -0.4589 -0.3185
 1083ntf    fn4 7065   1.517   4.312   3.162 -0.2019  1.0080  0.0784
 1084ntf    cn1 7066   5.057   4.450   5.380 -0.2239 -0.0689  0.0307
 1084ntf    sn2 7067   4.892   4.376   5.381 -0.2877  0.0784  0.4284
 1084ntf    nn3 7068   4.815   4.485   5.298 -0.4655 -0.3756 -0.0121
 1084ntf    sn2 7069   4.801   4.502   5.143  0.2611 -0.0105 -0.0406
 1084ntf    cn1 7070   4.633   4.434   5.129  0.0384  0.5296 -0.0311
 1084ntf    fn4 7071   5.122   4.433   5.266 -0.5833  0.5591 -0.2748
 1084ntf    fn4 7072   5.065   4.579   5.408 -0.1594 -0.0526 -0.0606
 1084ntf    fn4 7073   5.135   4.384   5.465 -0.3051  0.3161  0.4056
 1084ntf    on5 7074   4.911   4.251   5.311  0.0619  0.3338  0.0686
 1084ntf    on5 7075   4.855   4.366   5.520  0.4415 -0.4045  0.5887
 1084ntf    on5 7076   4.777   4.640   5.107 -0.2791 -0.0943 -0.0028
 1084ntf    on5 7077   4.887   4.419   5.062 -0.2098 -0.4384 -0.1037
 1084ntf    fn4 7078   4.580   4.427   5.250 -0.3433  0.3718 -0.2085
 1084ntf    fn4 7079   4.634   4.306   5.096 -0.8619  0.4489  0.2444
 1084ntf    fn4 7080   4.552   4.501   5.050 -0.1552  0.1684 -0.1382
 1085ntf    cn1 7081   2.338   0.366   2.891 -0.1404 -0.1761  0.4904
 1085ntf    sn2 7082   2.161   0.326   2.903 -0.1716 -0.1732  0.0478
 1085ntf    nn3 7083   2.174   0.309   3.058 -0.2797 -0.1689  0.0573
 1085ntf    sn2 7084   2.105   0.388   3.175 -0.0295  0.1713 -0.0216
 1085ntf    cn1 7085   2.161   0.560   3.184 -0.0790  0.1877 -0.0248
 1085ntf    fn4 7086   2.413   0.272   2.946 -0.3376 -0.2257  0.6762
 1085ntf    fn4 7087   2.380   0.366   2.765 -0.4284  0.8915  0.3843
 1085ntf    fn4 7088   2.364   0.484   2.944 -0.4511 -0.1668  0.6263
 1085ntf    on5 7089   2.092   0.443   2.856  0.0055 -0.2195 -0.3322
 1085ntf    on5 7090   2.141   0.207   2.824  0.0077 -0.3160  0.2174
 1085ntf    on5 7091   1.964   0.404   3.150  0.0065  0.0841 -0.2798
 1085ntf    on5 7092   2.137   0.328   3.302  0.1843  0.0958 -0.1112
 1085ntf    fn4 7093   2.116   0.610   3.298  0.6033 -0.5318  0.5698
 1085ntf    fn4 7094   2.115   0.644   3.092  0.0109  0.2546 -0.0096
 1085ntf    fn4 7095   2.293   0.571   3.188 -0.0144 -0.3441 -0.4977
 1086ntf    cn1 7096   2.553   5.110   0.407  0.2365  0.0509  0.3951
 1086ntf    sn2 7097   2.393   5.160   0.337  0.4929  0.0017 -0.2315
 1086ntf    nn3 7098   2.415   5.150   0.182  0.0265 -0.0943 -0.2944
 1086ntf    sn2 7099   2.492   5.260   0.100  0.1434 -0.2715 -0.4230
 1086ntf    cn1 7100   2.645   5.169   0.063  0.2663 -0.2586  0.0422
 1086ntf    fn4 7101   2.546   5.065   0.531  0.0979 -0.0402  0.3539
 1086ntf    fn4 7102   2.610   5.016   0.334 -0.3982  0.1024 -0.1725
 1086ntf    fn4 7103   2.638   5.211   0.413  0.1904  0.0844  0.4790
 1086ntf    on5 7104   2.298   5.066   0.391  0.7511 -0.1754 -0.0832
 1086ntf    on5 7105   2.367   5.292   0.388 -0.3191 -0.1154 -0.3251
 1086ntf    on5 7106   2.429   5.286  -0.027 -0.1651  0.1682 -0.1819
 1086ntf    on5 7107   2.546   5.373   0.173 -0.2860 -0.2567 -0.1231
 1086ntf    fn4 7108   2.738   5.248   0.014 -0.3855  0.7225  0.3629
 1086ntf    fn4 7109   2.639   5.067  -0.021 -0.4898 -0.2616  0.0880
 1086ntf    fn4 7110   2.695   5.112   0.172 -0.3395 -0.3125  0.2975
 1087ntf    cn1 7111   3.425   4.613   0.061  0.1497 -0.1828  0.0343
 1087ntf    sn2 7112   3.315   4.501  -0.030  0.3205  0.0745 -0.4926
 1087ntf    nn3 7113   3.407   4.459  -0.149 -0.3712 -0.5806 -0.8059
 1087ntf    sn2 7114   3.456   4.323  -0.212 -0.1091 -0.5964 -0.5727
 1087ntf    cn1 7115   3.369   4.323  -0.372 -0.2950  0.3722 -0.4806
 1087ntf    fn4 7116   3.441   4.729  -0.000 -0.5727 -0.1320 -0.0618
 1087ntf    fn4 7117   3.381   4.642   0.183 -0.2707 -0.4851 -0.0440
 1087ntf    fn4 7118   3.550   4.569   0.057  0.2409  0.0511  0.3138
 1087ntf    on5 7119   3.280   4.398   0.064 -0.1077 -0.0030 -0.7287
 1087ntf    on5 7120   3.204   4.583  -0.072 -0.0957 -0.3886 -0.3060
 1087ntf    on5 7121   3.596   4.328  -0.245  0.0612 -0.4024  0.1616
 1087ntf    on5 7122   3.418   4.201  -0.145  0.2373 -0.1933  0.3705
 1087ntf    fn4 7123   3.418   4.231  -0.454  1.1212  0.9061 -0.2632
 1087ntf    fn4 7124   3.385   4.439  -0.434  0.7059  0.1688 -0.6113
 1087ntf    fn4 7125   3.240   4.308  -0.344 -0.1708 -0.0262 -0.1061
 1088ntf    cn1 7126   1.015   6.420   1.232 -0.0179 -0.2282  0.1232
 1088ntf    sn2 7127   0.998   6.452   1.410 -0.1073  0.5249 -0.0169
 1088ntf    nn3 7128   0.957   6.310   1.463  0.4771  0.3289 -0.0768
 1088ntf    sn2 7129   0.974   6.235   1.600 -0.2865  0.1611 -0.0702
 1088ntf    cn1 7130   0.802   6.235   1.661 -0.4491 -0.0887 -0.5247
 1088ntf    fn4 7131   0.893   6.432   1.182  0.1907 -0.0717 -0.3593
 1088ntf    fn4 7132   1.084   6.515   1.171  0.0800 -0.1964  0.2831
 1088ntf    fn4 7133   1.064   6.301   1.202 -0.2564 -0.2903 -0.0285
 1088ntf    on5 7134   1.129   6.504   1.440  0.2115 -0.2033 -0.1214
 1088ntf    on5 7135   0.886   6.543   1.413 -0.1764  0.4488 -0.2537
 1088ntf    on5 7136   1.026   6.102   1.590 -0.2346  0.0812  1.1162
 1088ntf    on5 7137   1.039   6.315   1.701 -0.2732  0.2408 -0.1422
 1088ntf    fn4 7138   0.737   6.350   1.667  0.1855  0.2765 -0.5283
 1088ntf    fn4 7139   0.810   6.205   1.789  0.3115 -0.5676 -0.6768
 1088ntf    fn4 7140   0.721   6.149   1.602 -0.2001 -0.1937 -0.7144
 1089ntf    cn1 7141   2.714   0.883   6.682  0.4202  0.1009 -0.4254
 1089ntf    sn2 7142   2.666   0.984   6.539 -0.4027  0.3779  0.0398
 1089ntf    nn3 7143   2.717   0.889   6.424  0.4855  0.2201  0.5552
 1089ntf    sn2 7144   2.757   0.920   6.276  0.0141  0.1184  0.4062
 1089ntf    cn1 7145   2.938   0.920   6.288  0.0485  0.2446 -0.0858
 1089ntf    fn4 7146   2.836   0.835   6.665  0.6354  0.3917  0.2648
 1089ntf    fn4 7147   2.708   0.940   6.801 -0.8895  0.3687 -0.6045
 1089ntf    fn4 7148   2.642   0.772   6.683  0.4919  0.0564  0.3726
 1089ntf    on5 7149   2.523   0.999   6.546 -0.3852  0.3704  0.4346
 1089ntf    on5 7150   2.748   1.102   6.546  0.6455 -0.3353 -0.0103
 1089ntf    on5 7151   2.742   0.805   6.191 -0.2317  0.1626  0.3871
 1089ntf    on5 7152   2.714   1.045   6.217  0.3500 -0.1176 -0.3505
 1089ntf    fn4 7153   2.989   1.041   6.300  0.6486 -0.0210  0.0979
 1089ntf    fn4 7154   3.000   0.864   6.185 -0.3210  0.3894 -0.3905
 1089ntf    fn4 7155   2.980   0.844   6.388  0.3688 -0.4207 -0.7132
 1090ntf    cn1 7156   6.073   5.252   4.015 -0.1821  0.0762 -0.1945
 1090ntf    sn2 7157   5.949   5.385   4.018 -0.1743  0.0820 -0.1428
 1090ntf    nn3 7158   5.907   5.379   3.867 -0.6849  0.3845 -0.0143
 1090ntf    sn2 7159   5.778   5.319   3.800 -0.5333  0.2325 -0.1695
 1090ntf    cn1 7160   5.661   5.445   3.859 -0.3820  0.1870  0.2284
 1090ntf    fn4 7161   6.019   5.132   4.015  0.3434 -0.1637 -0.3512
 1090ntf    fn4 7162   6.148   5.270   3.908  0.1283 -0.5929 -0.0908
 1090ntf    fn4 7163   6.154   5.261   4.120 -0.0359  0.2772 -0.3222
 1090ntf    on5 7164   5.852   5.333   4.111  0.2261 -0.6382 -0.1180
 1090ntf    on5 7165   6.033   5.499   4.047 -0.2498  0.2509 -0.5849
 1090ntf    on5 7166   5.787   5.334   3.657 -0.2837 -0.0818 -0.1868
 1090ntf    on5 7167   5.722   5.195   3.848  0.3407 -0.3471 -0.6111
 1090ntf    fn4 7168   5.562   5.451   3.772  0.2330 -0.0262 -0.4997
 1090ntf    fn4 7169   5.717   5.565   3.856  0.0168 -0.0008  0.2231
 1090ntf    fn4 7170   5.596   5.421   3.972 -0.3853  0.9077  0.3820
 1091ntf    cn1 7171   3.650   4.062   1.882 -0.1575  0.1585 -0.0088
 1091ntf    sn2 7172   3.708   4.221   1.815 -0.1686  0.1505 -0.0366
 1091ntf    nn3 7173   3.818   4.164   1.718 -0.1930 -0.2169  0.1484
 1091ntf    sn2 7174   3.968   4.128   1.747 -0.1395 -0.1536 -0.0421
 1091ntf    cn1 7175   3.950   3.948   1.726  0.4876 -0.3231  0.8070
 1091ntf    fn4 7176   3.535   4.074   1.946 -0.3336  0.0631 -0.3111
 1091ntf    fn4 7177   3.640   3.973   1.785  0.1597 -0.1051  0.1978
 1091ntf    fn4 7178   3.729   4.020   1.980  0.4017  0.1597 -0.4548
 1091ntf    on5 7179   3.587   4.273   1.756  0.0791  0.6854 -0.0753
 1091ntf    on5 7180   3.761   4.300   1.923 -0.0123 -0.3332  0.2455
 1091ntf    on5 7181   4.075   4.166   1.659  0.1399  0.6828  0.6414
 1091ntf    on5 7182   4.005   4.123   1.887  0.2310 -0.4881 -0.1498
 1091ntf    fn4 7183   4.062   3.877   1.728  0.7384  0.0005 -0.4139
 1091ntf    fn4 7184   3.893   3.912   1.612  0.4218 -0.0113  0.7409
 1091ntf    fn4 7185   3.864   3.905   1.816 -0.3220 -0.0641  0.1683
 1092ntf    cn1 7186   6.684   0.541   2.733 -0.0330 -0.1557 -0.5062
 1092ntf    sn2 7187   6.520   0.537   2.809  0.3065 -0.6543  0.2110
 1092ntf    nn3 7188   6.423   0.586   2.695  0.5501 -0.2835  0.1610
 1092ntf    sn2 7189   6.423   0.734   2.644  0.1125 -0.1153  0.6408
 1092ntf    cn1 7190   6.252   0.730   2.580  0.5190 -0.4905 -0.4388
 1092ntf    fn4 7191   6.706   0.440   2.650  0.3223  0.0567 -0.6773
 1092ntf    fn4 7192   6.706   0.654   2.667 -1.2289  0.0623 -0.5474
 1092ntf    fn4 7193   6.778   0.536   2.827  0.3194  0.3234 -0.8285
 1092ntf    on5 7194   6.510   0.399   2.851 -0.3132 -0.6790  0.0004
 1092ntf    on5 7195   6.524   0.629   2.920  0.1759 -0.0023 -0.3159
 1092ntf    on5 7196   6.418   0.841   2.741  0.1252  0.3118  0.1730
 1092ntf    on5 7197   6.494   0.763   2.522 -0.2336  0.1576  0.5011
 1092ntf    fn4 7198   6.164   0.687   2.668  0.4236  0.1461 -0.2180
 1092ntf    fn4 7199   6.231   0.652   2.476 -0.0208 -0.4393 -0.3702
 1092ntf    fn4 7200   6.213   0.848   2.534 -0.4943 -0.3322  0.7807
 1093ntf    cn1 7201   1.988   2.491   5.504 -0.0446 -0.1842  0.2562
 1093ntf    sn2 7202   2.126   2.386   5.448  0.1145  0.2361 -0.1459
 1093ntf    nn3 7203   2.033   2.324   5.338 -0.2977 -0.2296  0.4559
 1093ntf    sn2 7204   2.027   2.174   5.290  0.1570 -0.1469  0.1314
 1093ntf    cn1 7205   1.851   2.146   5.324  0.1497 -0.2032  0.0467
 1093ntf    fn4 7206   1.902   2.414   5.568 -0.3941 -0.4649 -0.5340
 1093ntf    fn4 7207   2.025   2.584   5.591  0.2441 -0.1945  0.1468
 1093ntf    fn4 7208   1.929   2.561   5.409 -0.3396 -0.2688  0.3770
 1093ntf    on5 7209   2.223   2.482   5.402  0.0816  0.7653  0.8607
 1093ntf    on5 7210   2.158   2.304   5.562 -0.2152  0.0375 -0.1950
 1093ntf    on5 7211   2.030   2.149   5.149 -0.3031 -0.1357  0.1197
 1093ntf    on5 7212   2.103   2.083   5.372  0.4358  0.5040  0.6117
 1093ntf    fn4 7213   1.768   2.246   5.298  0.0585 -0.1242  0.6113
 1093ntf    fn4 7214   1.830   2.120   5.452 -0.0952 -0.0934  0.0298
 1093ntf    fn4 7215   1.809   2.041   5.257 -0.4452 -0.1662  0.3521
 1094ntf    cn1 7216   6.743   1.590   2.600 -0.1802 -0.1867 -0.1709
 1094ntf    sn2 7217   6.692   1.432   2.526 -0.1503 -0.2142 -0.1325
 1094ntf    nn3 7218   6.538   1.443   2.550 -0.1939  0.1728 -0.5815
 1094ntf    sn2 7219   6.433   1.530   2.472 -0.4535  0.2622 -0.1335
 1094ntf    cn1 7220   6.377   1.609   2.626 -0.1651 -0.0987  0.1577
 1094ntf    fn4 7221   6.873   1.616   2.600 -0.3851  0.9131  0.0811
 1094ntf    fn4 7222   6.687   1.694   2.541 -0.2632 -0.1080  0.0436
 1094ntf    fn4 7223   6.702   1.598   2.726 -0.0661 -0.7279 -0.0966
 1094ntf    on5 7224   6.734   1.438   2.388  0.1147 -0.4425 -0.0645
 1094ntf    on5 7225   6.757   1.327   2.601  0.3710 -0.0507 -0.3503
 1094ntf    on5 7226   6.485   1.640   2.395  1.1058 -0.6125 -0.3681
 1094ntf    on5 7227   6.319   1.457   2.424  0.2644 -0.6453 -0.4700
 1094ntf    fn4 7228   6.294   1.708   2.598  0.4607  0.3505 -0.1292
 1094ntf    fn4 7229   6.480   1.653   2.696 -0.1272  0.5949 -0.3268
 1094ntf    fn4 7230   6.315   1.521   2.704 -0.3477 -0.3897 -0.3112
 1095ntf    cn1 7231   5.140   3.907   5.854 -0.2541 -0.0126  0.1067
 1095ntf    sn2 7232   5.265   3.806   5.938 -0.0543  0.2510  0.1267
 1095ntf    nn3 7233   5.279   3.676   5.851  1.1832 -0.1728  0.9269
 1095ntf    sn2 7234   5.366   3.663   5.721 -0.0280  0.0924  0.0709
 1095ntf    cn1 7235   5.497   3.549   5.776  0.2502  0.4003  0.0475
 1095ntf    fn4 7236   5.191   3.943   5.738  0.1980 -0.0891  0.2802
 1095ntf    fn4 7237   5.023   3.849   5.834 -0.5339  0.5577  0.0589
 1095ntf    fn4 7238   5.115   4.025   5.908 -0.2451  0.3370 -0.6519
 1095ntf    on5 7239   5.383   3.890   5.934  0.2006 -0.1148 -0.1524
 1095ntf    on5 7240   5.204   3.774   6.065 -0.3147  0.0696 -0.0429
 1095ntf    on5 7241   5.295   3.580   5.627 -0.3080  0.8719 -0.4134
 1095ntf    on5 7242   5.449   3.769   5.670 -0.2216  0.2330  0.0475
 1095ntf    fn4 7243   5.560   3.505   5.668 -0.4679 -0.0990 -0.1769
 1095ntf    fn4 7244   5.435   3.440   5.817  1.0664 -0.2429 -0.4025
 1095ntf    fn4 7245   5.574   3.596   5.872  0.0741  0.3175  0.2305
 1096ntf    cn1 7246   0.800   2.159   4.062  0.0528  0.2578  0.2331
 1096ntf    sn2 7247   0.703   2.181   3.910 -0.0453  0.3227  0.3052
 1096ntf    nn3 7248   0.776   2.074   3.821 -0.9151 -0.5906  0.6743
 1096ntf    sn2 7249   0.714   2.003   3.695  0.0769  0.2167 -0.2845
 1096ntf    cn1 7250   0.830   2.053   3.565  0.4335 -0.0170 -0.0573
 1096ntf    fn4 7251   0.930   2.177   4.046 -0.0074  0.1951 -0.3407
 1096ntf    fn4 7252   0.764   2.245   4.157  0.1589  0.3113  0.2252
 1096ntf    fn4 7253   0.789   2.042   4.124  0.1368 -0.0905 -0.4013
 1096ntf    on5 7254   0.568   2.144   3.945  0.0653 -0.7832 -0.4011
 1096ntf    on5 7255   0.730   2.318   3.874  0.3132  0.3088  0.5196
 1096ntf    on5 7256   0.724   1.859   3.696 -0.2344  0.1939 -0.2696
 1096ntf    on5 7257   0.589   2.056   3.646  0.1152  0.4633 -0.1172
 1096ntf    fn4 7258   0.948   1.994   3.578  0.4237 -0.1205 -0.4199
 1096ntf    fn4 7259   0.856   2.183   3.561 -0.2764  0.1424  0.4263
 1096ntf    fn4 7260   0.775   2.014   3.451  0.0063  0.9965 -0.2049
 1097ntf    cn1 7261   1.364   4.938   4.689 -0.0017 -0.1800 -0.2885
 1097ntf    sn2 7262   1.465   4.804   4.758  0.0319 -0.0307 -0.0457
 1097ntf    nn3 7263   1.343   4.711   4.789  0.3232 -0.4128 -0.0333
 1097ntf    sn2 7264   1.258   4.679   4.917 -0.0719  0.4266 -0.0803
 1097ntf    cn1 7265   1.347   4.532   4.978  0.1874  0.7778  0.4001
 1097ntf    fn4 7266   1.279   4.900   4.596 -0.3726 -0.2522  0.0742
 1097ntf    fn4 7267   1.290   5.009   4.773  1.1840  0.1814  0.4882
 1097ntf    fn4 7268   1.433   5.032   4.628 -0.5769  0.4412  0.0002
 1097ntf    on5 7269   1.547   4.747   4.654  0.6709 -0.1939  0.5350
 1097ntf    on5 7270   1.529   4.871   4.868  0.2940 -0.3790  0.0176
 1097ntf    on5 7271   1.270   4.772   5.027  0.0760  0.1364  0.1530
 1097ntf    on5 7272   1.125   4.630   4.892 -0.1356  0.3344  0.4169
 1097ntf    fn4 7273   1.319   4.489   5.100 -0.2104  0.9738  0.3819
 1097ntf    fn4 7274   1.478   4.544   4.966  0.1947  0.2582 -0.1157
 1097ntf    fn4 7275   1.320   4.429   4.900  0.9207  0.6083  0.3705
 1098ntf    cn1 7276   0.097   5.658   0.834 -0.1490 -0.1429  0.0004
 1098ntf    sn2 7277   0.152   5.616   0.666 -0.1517 -0.0116 -0.0334
 1098ntf    nn3 7278   0.020   5.538   0.633 -0.0694 -0.2405  0.1748
 1098ntf    sn2 7279  -0.108   5.595   0.562  0.2826  0.0157 -0.2574
 1098ntf    cn1 7280  -0.105   5.465   0.435 -0.3158 -0.3867  0.1368
 1098ntf    fn4 7281  -0.022   5.714   0.840 -0.2208 -0.2990  0.0305
 1098ntf    fn4 7282   0.090   5.552   0.912 -0.1249  0.0857  0.3156
 1098ntf    fn4 7283   0.173   5.751   0.890 -0.5060  0.1052  0.0726
 1098ntf    on5 7284   0.176   5.745   0.605 -0.1607 -0.1347 -0.2977
 1098ntf    on5 7285   0.265   5.528   0.686 -0.3326 -0.2842 -0.2133
 1098ntf    on5 7286  -0.237   5.579   0.624  0.5374  0.0360  0.2805
 1098ntf    on5 7287  -0.078   5.714   0.486  0.1834  0.2543  0.0722
 1098ntf    fn4 7288  -0.120   5.341   0.476  0.0289 -0.4352  0.1200
 1098ntf    fn4 7289   0.014   5.469   0.378 -0.4716 -0.1011 -0.1739
 1098ntf    fn4 7290  -0.190   5.490   0.336 -0.3498  0.3169  0.3388
 1099ntf    cn1 7291   6.165   1.920   6.469 -0.0366  0.1816  0.2293
 1099ntf    sn2 7292   6.090   1.996   6.616 -0.1831 -0.0291  0.2651
 1099ntf    nn3 7293   6.028   1.860   6.663 -0.1901 -0.1300 -0.0303
 1099ntf    sn2 7294   5.941   1.832   6.791  0.2228  0.2299  0.3304
 1099ntf    cn1 7295   6.071   1.852   6.918  0.1236  0.1570  0.4430
 1099ntf    fn4 7296   6.073   1.856   6.398  0.1856  0.1578 -0.0373
 1099ntf    fn4 7297   6.225   2.006   6.388 -0.2630 -0.0521 -0.1938
 1099ntf    fn4 7298   6.252   1.825   6.499  0.1896  0.2152 -0.3048
 1099ntf    on5 7299   6.207   2.041   6.688  0.2582 -0.9568  0.1483
 1099ntf    on5 7300   5.998   2.095   6.565  0.1826  0.2045  0.0538
 1099ntf    on5 7301   5.837   1.928   6.819  0.0852  0.2104 -0.1038
 1099ntf    on5 7302   5.895   1.698   6.817  0.0583  0.2674  0.2327
 1099ntf    fn4 7303   6.181   1.787   6.885 -0.2902 -0.2762 -0.1220
 1099ntf    fn4 7304   6.035   1.806   7.037  0.0637  0.0719  0.3931
 1099ntf    fn4 7305   6.101   1.980   6.929  0.0902  0.3473 -1.3378
 1100ntf    cn1 7306   5.505   6.558   3.437 -0.3385  0.0626 -0.2569
 1100ntf    sn2 7307   5.587   6.681   3.542 -0.3877 -0.1677  0.0521
 1100ntf    nn3 7308   5.466   6.781   3.546 -0.0476  0.2743 -0.5713
 1100ntf    sn2 7309   5.466   6.937   3.524 -0.1836  0.3248 -0.2182
 1100ntf    cn1 7310   5.517   7.008   3.683  0.0662  0.3446 -0.3064
 1100ntf    fn4 7311   5.470   6.609   3.320 -0.0114  0.4163 -0.2022
 1100ntf    fn4 7312   5.576   6.449   3.410 -0.1964  0.1988 -0.4368
 1100ntf    fn4 7313   5.398   6.528   3.508  0.0616 -0.1347  0.2667
 1100ntf    on5 7314   5.616   6.612   3.666 -0.3071 -0.1179  0.0609
 1100ntf    on5 7315   5.703   6.715   3.463 -0.2166 -0.0645  0.3430
 1100ntf    on5 7316   5.547   6.989   3.417  0.3864  0.1622  0.1286
 1100ntf    on5 7317   5.331   6.988   3.530 -0.3687 -0.1026 -0.6291
 1100ntf    fn4 7318   5.439   7.103   3.733 -0.1445  0.1579 -0.2801
 1100ntf    fn4 7319   5.637   7.063   3.675  0.0714  0.2054 -1.2580
 1100ntf    fn4 7320   5.529   6.917   3.778 -0.0902  0.3299 -0.2995
 1101ntf    cn1 7321   5.857   2.807   2.413 -0.3377 -0.2935  0.0426
 1101ntf    sn2 7322   5.765   2.653   2.384 -0.1317 -0.3315 -0.4174
 1101ntf    nn3 7323   5.695   2.626   2.522  0.0476 -0.0644 -0.2736
 1101ntf    sn2 7324   5.706   2.497   2.611  0.2374  0.1991  0.0891
 1101ntf    cn1 7325   5.855   2.530   2.710 -0.0216 -0.0745  0.5733
 1101ntf    fn4 7326   5.792   2.908   2.468 -0.4996 -0.1931 -0.3351
 1101ntf    fn4 7327   5.954   2.787   2.502 -0.5396 -0.0664  0.3159
 1101ntf    fn4 7328   5.918   2.856   2.306 -0.2267  0.4822  0.4546
 1101ntf    on5 7329   5.670   2.688   2.281 -0.1636  0.1174 -0.2382
 1101ntf    on5 7330   5.873   2.564   2.352  0.6569  0.3185  0.3918
 1101ntf    on5 7331   5.601   2.503   2.709 -0.3724  0.1099 -0.5485
 1101ntf    on5 7332   5.724   2.371   2.544 -0.2016  0.7796 -1.1653
 1101ntf    fn4 7333   5.916   2.432   2.774 -0.3459 -0.3071  0.5245
 1101ntf    fn4 7334   5.849   2.634   2.790  0.3363  0.2125  0.2358
 1101ntf    fn4 7335   5.947   2.567   2.622 -0.2035 -0.4359  0.2280
 1102ntf    cn1 7336   2.540   2.433   5.613 -0.1710  0.2720  0.3166
 1102ntf    sn2 7337   2.579   2.589   5.529  0.1936 -0.3111 -0.6271
 1102ntf    nn3 7338   2.658   2.549   5.399  0.6296 -0.2932 -0.3696
 1102ntf    sn2 7339   2.615   2.542   5.249  0.1015  0.1483 -0.2418
 1102ntf    cn1 7340   2.657   2.366   5.233 -0.3178 -0.0189  0.4847
 1102ntf    fn4 7341   2.421   2.385   5.582  0.0332  0.2372 -0.4566
 1102ntf    fn4 7342   2.623   2.335   5.579  0.1621  0.5489  0.3254
 1102ntf    fn4 7343   2.554   2.445   5.744  0.2126 -0.8871  0.3940
 1102ntf    on5 7344   2.447   2.643   5.505  0.3250  0.3366  0.0438
 1102ntf    on5 7345   2.660   2.665   5.620 -0.6894 -0.9617  0.7392
 1102ntf    on5 7346   2.473   2.549   5.223 -0.1287 -0.1295  0.9096
 1102ntf    on5 7347   2.706   2.629   5.178  0.3694 -0.2770 -0.4169
 1102ntf    fn4 7348   2.658   2.325   5.108  0.2447  0.1372  0.4349
 1102ntf    fn4 7349   2.568   2.289   5.293 -0.3647 -0.4774 -0.1692
 1102ntf    fn4 7350   2.774   2.337   5.288  0.0396  0.5217  0.0148
 1103ntf    cn1 7351   1.701   1.025   0.396 -0.0381 -0.1826  0.0943
 1103ntf    sn2 7352   1.837   1.142   0.419 -0.3144  0.2002 -0.2209
 1103ntf    nn3 7353   1.933   1.055   0.507 -0.2704  0.5225  0.0512
 1103ntf    sn2 7354   2.006   1.083   0.643  0.2751  0.1690 -0.1642
 1103ntf    cn1 7355   2.178   1.081   0.586  0.4877  0.1479  0.4672
 1103ntf    fn4 7356   1.733   0.903   0.355 -0.1312 -0.1155 -0.1762
 1103ntf    fn4 7357   1.628   1.005   0.505  0.0141 -0.1610  0.1328
 1103ntf    fn4 7358   1.618   1.074   0.305  0.1567  0.0478  0.0426
 1103ntf    on5 7359   1.888   1.167   0.286  0.0261 -0.3219 -0.1878
 1103ntf    on5 7360   1.772   1.258   0.475 -0.4004  0.1888 -0.2961
 1103ntf    on5 7361   1.994   1.221   0.682 -0.4599  0.1469 -0.2999
 1103ntf    on5 7362   1.981   0.983   0.745 -0.2518  0.0133 -0.4444
 1103ntf    fn4 7363   2.219   1.196   0.536 -0.3186  0.4230  0.4357
 1103ntf    fn4 7364   2.198   0.982   0.500 -0.4824  0.3355  0.0186
 1103ntf    fn4 7365   2.253   1.056   0.692  0.2077  0.0760  0.6487
 1104ntf    cn1 7366   2.965   0.156   5.288 -0.2663 -0.0875  0.3131
 1104ntf    sn2 7367   2.920   0.330   5.318  0.1952  0.0633  0.1382
 1104ntf    nn3 7368   2.997   0.396   5.198 -0.6700  0.3628 -0.2601
 1104ntf    sn2 7369   3.099   0.514   5.189  0.0289 -0.2005  0.1291
 1104ntf    cn1 7370   3.179   0.453   5.037  0.1105 -0.0597  0.1142
 1104ntf    fn4 7371   2.952   0.086   5.400 -0.1743  0.7270  0.8423
 1104ntf    fn4 7372   2.879   0.111   5.199 -0.1266  0.2349  0.0142
 1104ntf    fn4 7373   3.086   0.151   5.236 -0.5538 -0.1160 -0.3616
 1104ntf    on5 7374   2.776   0.335   5.317  0.2276  1.0838 -0.2031
 1104ntf    on5 7375   2.980   0.353   5.447  0.4832 -0.0822  0.0323
 1104ntf    on5 7376   3.027   0.634   5.152  0.5643  0.0115 -0.2478
 1104ntf    on5 7377   3.207   0.524   5.285 -0.1681 -0.1036  0.3414
 1104ntf    fn4 7378   3.088   0.392   4.962 -0.2381  0.1675  0.3464
 1104ntf    fn4 7379   3.271   0.359   5.055  0.1603 -0.0877 -0.2793
 1104ntf    fn4 7380   3.223   0.548   4.956  1.0204 -0.7674 -0.2416
 1105ntf    cn1 7381   6.425   4.246   4.634  0.2737 -0.1370 -0.0131
 1105ntf    sn2 7382   6.412   4.209   4.812  0.1407 -0.5288 -0.1048
 1105ntf    nn3 7383   6.535   4.296   4.858  0.7339 -1.3732 -0.0682
 1105ntf    sn2 7384   6.566   4.341   5.005  0.0157 -0.0868 -0.2953
 1105ntf    cn1 7385   6.737   4.283   5.020 -0.1045 -0.2858  0.3384
 1105ntf    fn4 7386   6.551   4.271   4.600 -0.1182  0.6910 -0.8888
 1105ntf    fn4 7387   6.375   4.148   4.562 -0.2380  0.4312 -0.4438
 1105ntf    fn4 7388   6.355   4.354   4.601  0.1999 -0.2771 -0.3145
 1105ntf    on5 7389   6.284   4.266   4.846  0.6361  0.6597 -0.1945
 1105ntf    on5 7390   6.437   4.067   4.805  1.0233 -0.3645 -0.5251
 1105ntf    on5 7391   6.563   4.485   5.015  0.0845 -0.0790 -0.3909
 1105ntf    on5 7392   6.506   4.254   5.104 -0.1322  0.0192 -0.2905
 1105ntf    fn4 7393   6.799   4.319   4.909  0.0422 -0.2624  0.4274
 1105ntf    fn4 7394   6.752   4.152   5.038  0.3770 -0.2110  0.5012
 1105ntf    fn4 7395   6.816   4.339   5.111  0.0643  0.0064  0.0148
 1106ntf    cn1 7396   4.438   3.644   5.674 -0.3843 -0.0537  0.0276
 1106ntf    sn2 7397   4.426   3.813   5.609 -0.1644 -0.0357  0.0337
 1106ntf    nn3 7398   4.304   3.793   5.513  0.1304  0.1868 -0.3956
 1106ntf    sn2 7399   4.257   3.859   5.379 -0.1609  0.4446 -0.1697
 1106ntf    cn1 7400   4.081   3.886   5.414 -0.0983  0.4819  0.1166
 1106ntf    fn4 7401   4.318   3.607   5.715 -0.7778  0.3453 -0.7312
 1106ntf    fn4 7402   4.471   3.554   5.582 -0.0039 -0.2495  0.3546
 1106ntf    fn4 7403   4.535   3.637   5.764  0.0148  0.0898 -0.3874
 1106ntf    on5 7404   4.397   3.898   5.722  0.1509  0.0403  0.0605
 1106ntf    on5 7405   4.553   3.832   5.542 -0.0943  0.5255  0.3196
 1106ntf    on5 7406   4.311   3.990   5.353 -0.4167  0.6151  0.1615
 1106ntf    on5 7407   4.259   3.775   5.262 -0.3809  0.0084  0.1397
 1106ntf    fn4 7408   4.056   3.956   5.523  0.5950  0.6882  0.1497
 1106ntf    fn4 7409   4.018   3.771   5.433  0.0267  0.4298  0.2195
 1106ntf    fn4 7410   4.015   3.948   5.318 -0.2288 -0.1496 -0.2096
 1107ntf    cn1 7411   6.311   4.210   6.494 -0.2641  0.3074  0.0737
 1107ntf    sn2 7412   6.387   4.345   6.399 -0.1150 -0.0571 -0.3325
 1107ntf    nn3 7413   6.508   4.269   6.335  0.0328  0.2455 -0.4141
 1107ntf    sn2 7414   6.564   4.264   6.188  0.5646 -0.1230 -0.2014
 1107ntf    cn1 7415   6.623   4.092   6.181  0.4803 -0.1648  0.0972
 1107ntf    fn4 7416   6.278   4.114   6.409 -0.1850 -0.1494  0.5558
 1107ntf    fn4 7417   6.384   4.152   6.588  0.0361  0.3839 -0.1114
 1107ntf    fn4 7418   6.202   4.242   6.561  0.0601  0.8422  0.3497
 1107ntf    on5 7419   6.284   4.379   6.304 -0.5937 -0.0147  0.1979
 1107ntf    on5 7420   6.414   4.441   6.503 -0.1173 -0.2793 -0.1261
 1107ntf    on5 7421   6.458   4.266   6.091  0.4449  0.0646 -0.0692
 1107ntf    on5 7422   6.688   4.337   6.170  0.4153  0.3349  0.5643
 1107ntf    fn4 7423   6.663   4.043   6.065 -0.3811 -0.4395 -0.0955
 1107ntf    fn4 7424   6.517   4.017   6.207  0.7875 -0.6407 -0.0191
 1107ntf    fn4 7425   6.715   4.072   6.273  0.1014  0.0601  0.5338
 1108ntf    cn1 7426   2.453   5.994   3.433 -0.2845 -0.1368  0.1702
 1108ntf    sn2 7427   2.385   5.876   3.553 -0.1251 -0.4114 -0.0067
 1108ntf    nn3 7428   2.233   5.915   3.551 -0.1834 -0.5495  1.1430
 1108ntf    sn2 7429   2.124   5.835   3.471 -0.0344  0.0432  0.3418
 1108ntf    cn1 7430   2.092   5.693   3.580 -0.0767 -0.3726 -0.2039
 1108ntf    fn4 7431   2.397   5.974   3.315  0.3557  0.0534 -0.1749
 1108ntf    fn4 7432   2.437   6.121   3.467 -0.2670 -0.0216 -0.2424
 1108ntf    fn4 7433   2.581   5.981   3.398 -0.2720  0.3112  0.0428
 1108ntf    on5 7434   2.422   5.745   3.506 -0.2569 -0.7872  0.9130
 1108ntf    on5 7435   2.442   5.916   3.679  0.2280  0.0217 -0.3045
 1108ntf    on5 7436   1.995   5.900   3.466 -0.1731 -0.2771 -0.4380
 1108ntf    on5 7437   2.166   5.783   3.343 -0.0886 -0.2520  0.4430
 1108ntf    fn4 7438   2.197   5.669   3.657  0.1657 -0.0080 -0.4148
 1108ntf    fn4 7439   2.054   5.584   3.517 -0.1061 -0.4420 -0.0655
 1108ntf    fn4 7440   1.997   5.718   3.668 -0.1408 -0.5411 -0.2252
 1109ntf    cn1 7441   0.543   2.944   0.542 -0.3880 -0.3504 -0.4326
 1109ntf    sn2 7442   0.377   3.010   0.576 -0.1885  0.1221 -0.3759
 1109ntf    nn3 7443   0.336   3.059   0.432 -0.2894 -0.1425 -0.4363
 1109ntf    sn2 7444   0.276   3.198   0.392  0.1222  0.1257 -0.1302
 1109ntf    cn1 7445   0.099   3.161   0.372 -0.0197  0.3036  0.7473
 1109ntf    fn4 7446   0.559   2.913   0.414  0.1759 -0.6843 -0.2829
 1109ntf    fn4 7447   0.641   3.023   0.583 -0.5286 -0.2998 -0.1930
 1109ntf    fn4 7448   0.567   2.837   0.616  0.3146 -0.2578 -0.5158
 1109ntf    on5 7449   0.293   2.895   0.596  0.4614 -0.3515 -0.3550
 1109ntf    on5 7450   0.394   3.107   0.681  0.0327 -0.1709 -0.1408
 1109ntf    on5 7451   0.277   3.302   0.492 -0.2592  0.2449 -0.2473
 1109ntf    on5 7452   0.322   3.233   0.260  0.7239  0.1685  0.0882
 1109ntf    fn4 7453   0.037   3.131   0.485 -0.2292 -0.1254  0.5216
 1109ntf    fn4 7454   0.083   3.058   0.290  0.1889  0.4098  0.5699
 1109ntf    fn4 7455   0.037   3.267   0.323  0.5513  0.3293  0.0663
 1110ntf    cn1 7456   5.510   4.679   6.364  0.0113 -0.0915  0.8624
 1110ntf    sn2 7457   5.355   4.762   6.318  0.3100 -0.0724 -0.1431
 1110ntf    nn3 7458   5.292   4.644   6.237  0.4846 -0.7300  0.6720
 1110ntf    sn2 7459   5.173   4.655   6.135  0.7109 -0.2455  0.4582
 1110ntf    cn1 7460   5.077   4.514   6.199  0.2922 -0.1974 -0.0583
 1110ntf    fn4 7461   5.588   4.752   6.442  0.3319  0.0458  0.4157
 1110ntf    fn4 7462   5.497   4.566   6.432 -0.3176 -0.3027  0.4513
 1110ntf    fn4 7463   5.575   4.654   6.251 -0.9198 -0.0088  0.2975
 1110ntf    on5 7464   5.296   4.773   6.449 -0.2388  0.2047 -0.4078
 1110ntf    on5 7465   5.375   4.885   6.245 -0.0289  0.2234  0.2531
 1110ntf    on5 7466   5.086   4.768   6.150  0.2582 -0.5757  0.3418
 1110ntf    on5 7467   5.204   4.610   6.001 -0.5364 -0.2603  0.1664
 1110ntf    fn4 7468   4.972   4.488   6.123  0.0255  0.0114  0.2394
 1110ntf    fn4 7469   5.024   4.533   6.319  0.0726 -0.1368 -0.1646
 1110ntf    fn4 7470   5.156   4.408   6.196 -0.3607 -0.6792 -0.5241
 1111ntf    cn1 7471   3.437   0.654   2.678  0.0607  0.6097  0.4650
 1111ntf    sn2 7472   3.358   0.684   2.839 -0.1822  0.2492  0.4156
 1111ntf    nn3 7473   3.274   0.552   2.833  0.2579 -0.0363  0.4999
 1111ntf    sn2 7474   3.125   0.546   2.883 -0.0083  0.1920 -0.2512
 1111ntf    cn1 7475   3.038   0.504   2.730 -0.0052 -0.3255 -0.1134
 1111ntf    fn4 7476   3.506   0.541   2.682 -0.7105  0.1308  0.5607
 1111ntf    fn4 7477   3.349   0.640   2.580  0.4116  0.0764  0.2191
 1111ntf    fn4 7478   3.509   0.754   2.630 -0.9177  0.9751 -0.2871
 1111ntf    on5 7479   3.472   0.690   2.927  0.1205  0.7127 -0.0047
 1111ntf    on5 7480   3.278   0.801   2.811 -0.1270  0.0573 -0.5662
 1111ntf    on5 7481   3.113   0.424   2.960 -0.6630  0.2858 -0.1999
 1111ntf    on5 7482   3.059   0.661   2.939 -0.1070 -0.0456  0.1328
 1111ntf    fn4 7483   3.121   0.458   2.638  0.1965 -0.3046  0.0588
 1111ntf    fn4 7484   2.972   0.612   2.692  0.2092 -0.1755 -0.0612
 1111ntf    fn4 7485   2.943   0.412   2.743 -0.0985 -0.2197 -0.0442
 1112ntf    cn1 7486   6.381   1.338   1.008  0.0524 -0.4269  0.0100
 1112ntf    sn2 7487   6.508   1.448   0.940 -0.3059  0.0647  0.1345
 1112ntf    nn3 7488   6.449   1.587   0.985  0.4459  0.3989  0.1123
 1112ntf    sn2 7489   6.369   1.693   0.902 -0.0813 -0.0642  0.0207
 1112ntf    cn1 7490   6.467   1.842   0.936  0.1004 -0.0175 -0.6867
 1112ntf    fn4 7491   6.351   1.372   1.132 -0.3063 -0.0085 -0.1886
 1112ntf    fn4 7492   6.268   1.323   0.940  0.0367  0.0867 -0.0795
 1112ntf    fn4 7493   6.436   1.217   1.014  0.4821 -0.2305  0.0571
 1112ntf    on5 7494   6.628   1.418   1.014 -0.5184 -0.1708  0.3847
 1112ntf    on5 7495   6.519   1.427   0.798  0.1602 -0.3180  0.2217
 1112ntf    on5 7496   6.375   1.675   0.759  0.0582  0.4256 -0.0372
 1112ntf    on5 7497   6.240   1.721   0.960 -0.0910  0.2751 -0.1627
 1112ntf    fn4 7498   6.593   1.817   0.902  0.2741 -0.1449  0.0396
 1112ntf    fn4 7499   6.458   1.894   1.057  0.0684  0.3354 -0.8382
 1112ntf    fn4 7500   6.423   1.942   0.862  0.0532  0.6370  0.2043
 1113ntf    cn1 7501   4.035   1.214   4.126  0.1075  0.2750  0.0165
 1113ntf    sn2 7502   3.886   1.172   4.221  0.1296  0.1493 -0.0039
 1113ntf    nn3 7503   3.942   1.048   4.300 -0.2854  0.0129  0.0777
 1113ntf    sn2 7504   3.912   0.899   4.261  0.0724  0.0678 -0.4238
 1113ntf    cn1 7505   3.753   0.881   4.348  0.0467 -0.1550 -0.5175
 1113ntf    fn4 7506   4.096   1.113   4.065  0.3031  0.6102 -0.3526
 1113ntf    fn4 7507   4.010   1.298   4.027  0.0692  0.0298 -0.1835
 1113ntf    fn4 7508   4.124   1.283   4.195  0.3242  0.0246 -0.0093
 1113ntf    on5 7509   3.867   1.283   4.311 -0.0382  0.2911 -0.2139
 1113ntf    on5 7510   3.786   1.157   4.119  0.1032  0.0363  0.0380
 1113ntf    on5 7511   3.902   0.876   4.119  0.2837  0.1028 -0.4437
 1113ntf    on5 7512   4.008   0.811   4.323 -0.1429  0.0792 -0.0694
 1113ntf    fn4 7513   3.736   0.964   4.450  0.3685 -0.4402 -0.2278
 1113ntf    fn4 7514   3.742   0.760   4.401 -0.1204  0.2419  0.3749
 1113ntf    fn4 7515   3.655   0.904   4.262 -0.2380  0.5339 -0.0129
 1114ntf    cn1 7516   4.920   0.241   3.499  0.1173 -0.3386  0.1079
 1114ntf    sn2 7517   4.871   0.389   3.405  0.3418 -0.1937  0.2179
 1114ntf    nn3 7518   4.884   0.329   3.260 -0.8882 -0.0390  0.0359
 1114ntf    sn2 7519   4.818   0.379   3.127 -0.1302  0.1883 -0.2582
 1114ntf    cn1 7520   4.666   0.280   3.136  0.1362 -0.2000 -0.0119
 1114ntf    fn4 7521   4.930   0.251   3.630  0.6709  0.0136  0.0423
 1114ntf    fn4 7522   4.829   0.147   3.480 -0.2833 -0.0116  0.3996
 1114ntf    fn4 7523   5.028   0.179   3.455  0.1556  0.0419 -0.3410
 1114ntf    on5 7524   4.735   0.404   3.449  0.4401 -0.6250  0.6811
 1114ntf    on5 7525   4.978   0.476   3.446 -0.2977 -0.0119  1.5607
 1114ntf    on5 7526   4.781   0.519   3.129  0.1044  0.2371  0.8019
 1114ntf    on5 7527   4.885   0.323   3.012  0.2993  0.4621 -0.1433
 1114ntf    fn4 7528   4.703   0.154   3.124 -0.1152 -0.2606 -0.1457
 1114ntf    fn4 7529   4.589   0.305   3.031  0.7876  0.3181 -0.3739
 1114ntf    fn4 7530   4.588   0.291   3.242  0.8324 -0.2949  0.5174
 1115ntf    cn1 7531   1.003   0.165   1.576  0.2604  0.2056  0.1833
 1115ntf    sn2 7532   1.068   0.190   1.744  0.1895 -0.0825  0.2540
 1115ntf    nn3 7533   0.944   0.123   1.814  0.1315  0.0069  0.2368
 1115ntf    sn2 7534   0.828   0.197   1.890  0.1900  0.2103  0.1299
 1115ntf    cn1 7535   0.905   0.219   2.054 -0.2044  0.0844  0.3321
 1115ntf    fn4 7536   0.924   0.266   1.544  0.0093 -0.0235  0.0773
 1115ntf    fn4 7537   1.095   0.178   1.481  0.1145 -0.4899 -0.0599
 1115ntf    fn4 7538   0.945   0.048   1.551  0.8773 -0.1436  0.3627
 1115ntf    on5 7539   1.183   0.103   1.740  0.0618 -0.2299 -0.3377
 1115ntf    on5 7540   1.089   0.332   1.752 -1.0379  0.1129  0.2616
 1115ntf    on5 7541   0.794   0.334   1.861 -0.0965  0.2159  0.4857
 1115ntf    on5 7542   0.732   0.093   1.916  0.0928  0.2624 -0.0209
 1115ntf    fn4 7543   1.006   0.303   2.047 -0.0252 -0.1706 -0.1673
 1115ntf    fn4 7544   0.958   0.110   2.106  0.2644  0.2181  0.1332
 1115ntf    fn4 7545   0.819   0.270   2.141 -0.3871 -0.0215  0.2163
 1116ntf    cn1 7546   6.698   3.659   6.834 -0.1866 -0.1204  0.4124
 1116ntf    sn2 7547   6.631   3.647   7.002 -0.5561  0.1796  0.2894
 1116ntf    nn3 7548   6.617   3.799   7.040  0.5982  0.4364 -0.2625
 1116ntf    sn2 7549   6.605   3.854   7.187 -0.0072 -0.1663 -0.0826
 1116ntf    cn1 7550   6.426   3.888   7.200  0.0522  0.1622 -0.1053
 1116ntf    fn4 7551   6.696   3.539   6.778  0.3194  0.1185 -0.1313
 1116ntf    fn4 7552   6.627   3.734   6.750  0.1666  0.3755  0.5544
 1116ntf    fn4 7553   6.821   3.706   6.821 -0.2993  0.2698  0.7231
 1116ntf    on5 7554   6.509   3.571   7.001 -0.4246 -0.0294 -0.7816
 1116ntf    on5 7555   6.741   3.580   7.068 -0.2873  0.6158  0.2946
 1116ntf    on5 7556   6.631   3.767   7.299 -0.1519 -0.0282  0.0601
 1116ntf    on5 7557   6.661   3.986   7.197 -0.1349 -0.1477  0.4178
 1116ntf    fn4 7558   6.393   4.011   7.165 -0.0963  0.1246 -0.0969
 1116ntf    fn4 7559   6.370   3.863   7.317 -0.2992  0.3654 -0.2316
 1116ntf    fn4 7560   6.357   3.806   7.122 -0.1950  0.0412  0.2393
 1117ntf    cn1 7561   1.631   6.108   0.538  0.2430  0.0926 -0.1464
 1117ntf    sn2 7562   1.482   6.100   0.641  0.0463  0.2011 -0.4246
 1117ntf    nn3 7563   1.419   6.242   0.619 -0.4753  0.1261  0.5265
 1117ntf    sn2 7564   1.415   6.371   0.709 -0.7320  0.4275  0.0872
 1117ntf    cn1 7565   1.419   6.491   0.572 -0.3180  0.0743 -0.2165
 1117ntf    fn4 7566   1.724   6.187   0.591  0.3219  0.0381 -0.2030
 1117ntf    fn4 7567   1.686   5.990   0.513  0.0553 -0.2124  0.8286
 1117ntf    fn4 7568   1.599   6.165   0.423 -0.0089 -0.5192 -0.3817
 1117ntf    on5 7569   1.405   5.988   0.592  0.5740 -0.4326  0.1724
 1117ntf    on5 7570   1.532   6.079   0.774  1.1474 -0.3217 -0.9096
 1117ntf    on5 7571   1.288   6.395   0.772 -0.7723  0.1162  0.1225
 1117ntf    on5 7572   1.536   6.410   0.777 -0.2170 -0.5871 -0.2183
 1117ntf    fn4 7573   1.535   6.507   0.511 -0.1056 -0.2684  0.0989
 1117ntf    fn4 7574   1.389   6.613   0.613  0.0469  0.0737  0.0545
 1117ntf    fn4 7575   1.328   6.469   0.478  0.0860 -0.5906 -0.4530
 1118ntf    cn1 7576   5.233   4.213   0.653  0.0662 -0.3205 -0.3145
 1118ntf    sn2 7577   5.084   4.317   0.654  0.3570  0.0940 -0.1839
 1118ntf    nn3 7578   5.104   4.394   0.519 -0.0930  0.0448 -0.2783
 1118ntf    sn2 7579   5.071   4.543   0.482  0.0109  0.2043  0.2700
 1118ntf    cn1 7580   5.229   4.621   0.526  0.1931 -0.0065 -0.0145
 1118ntf    fn4 7581   5.275   4.195   0.529  0.5432 -0.6579 -0.1060
 1118ntf    fn4 7582   5.324   4.265   0.734 -0.2914  0.1023 -0.1776
 1118ntf    fn4 7583   5.201   4.092   0.694 -0.1764  0.0792  0.6973
 1118ntf    on5 7584   4.970   4.231   0.670  0.3193  0.1751 -0.0098
 1118ntf    on5 7585   5.108   4.410   0.762  0.9495  0.1514 -0.3570
 1118ntf    on5 7586   5.049   4.571   0.342  0.9573 -0.5835 -0.0475
 1118ntf    on5 7587   4.975   4.607   0.569 -0.5340 -0.2621  0.0160
 1118ntf    fn4 7588   5.320   4.613   0.429 -0.6159 -0.1008 -0.7805
 1118ntf    fn4 7589   5.282   4.571   0.636 -0.4599 -0.0173  0.2962
 1118ntf    fn4 7590   5.214   4.752   0.536 -0.2237 -0.1054  0.6546
 1119ntf    cn1 7591   2.523   0.693   1.163 -0.1451 -0.1335 -0.0005
 1119ntf    sn2 7592   2.658   0.740   1.274 -0.1440  0.1698 -0.1273
 1119ntf    nn3 7593   2.590   0.856   1.355 -0.3551 -0.0635  0.0297
 1119ntf    sn2 7594   2.580   1.004   1.305 -0.2219  0.1320  0.5716
 1119ntf    cn1 7595   2.744   1.067   1.351  0.1472 -0.4896  0.1247
 1119ntf    fn4 7596   2.490   0.793   1.082  0.4150 -0.2074 -0.3212
 1119ntf    fn4 7597   2.550   0.585   1.092 -0.0950 -0.3794  0.3941
 1119ntf    fn4 7598   2.416   0.672   1.238 -0.4047  0.3248 -0.2379
 1119ntf    on5 7599   2.671   0.621   1.355  0.4845 -0.0631 -0.5597
 1119ntf    on5 7600   2.777   0.760   1.195 -0.0677  0.5871  0.0903
 1119ntf    on5 7601   2.568   1.027   1.163 -0.5218  0.2470  0.6136
 1119ntf    on5 7602   2.484   1.070   1.390 -0.0644  0.3359  0.5916
 1119ntf    fn4 7603   2.752   1.059   1.483 -0.8835  0.3347  0.2510
 1119ntf    fn4 7604   2.760   1.193   1.314 -0.9966 -0.1684  0.6682
 1119ntf    fn4 7605   2.845   0.997   1.302  0.3574 -0.2274  0.1786
 1120ntf    cn1 7606   2.678   0.343   5.851 -0.1437  0.2948 -0.7041
 1120ntf    sn2 7607   2.847   0.285   5.814 -0.2150 -0.3228 -0.0698
 1120ntf    nn3 7608   2.920   0.302   5.952 -0.0965  0.5827 -0.2355
 1120ntf    sn2 7609   2.975   0.434   6.015  0.0212  0.3140  0.2300
 1120ntf    cn1 7610   3.073   0.388   6.162 -0.1290 -0.5307  0.0697
 1120ntf    fn4 7611   2.615   0.278   5.947 -0.2136  1.1110 -0.1877
 1120ntf    fn4 7612   2.684   0.471   5.885  0.2121  0.1677 -0.2773
 1120ntf    fn4 7613   2.599   0.332   5.745 -0.2746 -0.1752 -0.5604
 1120ntf    on5 7614   2.827   0.149   5.773 -0.1539 -0.1979 -0.5126
 1120ntf    on5 7615   2.892   0.380   5.716 -0.3817 -0.1306  0.0378
 1120ntf    on5 7616   3.064   0.505   5.926 -0.0417 -0.4332 -0.4276
 1120ntf    on5 7617   2.861   0.501   6.072 -0.6744 -0.9762  0.3932
 1120ntf    fn4 7618   2.999   0.303   6.231  0.1869 -0.9174 -0.0660
 1120ntf    fn4 7619   3.081   0.498   6.236 -1.4639 -0.2725 -0.1326
 1120ntf    fn4 7620   3.191   0.336   6.134 -0.0081 -0.0740 -0.2814
 1121ntf    cn1 7621   0.666   6.057   4.555  0.1794 -0.2701  0.3497
 1121ntf    sn2 7622   0.826   6.048   4.469  0.0904 -0.3281  0.1902
 1121ntf    nn3 7623   0.869   5.906   4.520 -0.3884 -0.5300  0.0445
 1121ntf    sn2 7624   0.931   5.863   4.658  0.2637 -0.0928 -0.1059
 1121ntf    cn1 7625   1.101   5.923   4.633  0.2615  0.0456  0.2133
 1121ntf    fn4 7626   0.593   5.947   4.542  0.1966 -0.2870  0.4008
 1121ntf    fn4 7627   0.673   6.081   4.685  0.2845 -0.1543  0.3234
 1121ntf    fn4 7628   0.591   6.154   4.505 -0.0527 -0.2405  0.7544
 1121ntf    on5 7629   0.792   6.040   4.329  0.1685 -0.4202  0.1772
 1121ntf    on5 7630   0.898   6.165   4.513 -0.5319  0.2235 -0.2331
 1121ntf    on5 7631   0.903   5.936   4.778  0.1095 -0.1168 -0.1268
 1121ntf    on5 7632   0.956   5.721   4.669  0.1107 -0.1198 -0.0937
 1121ntf    fn4 7633   1.188   5.847   4.698 -0.6142 -0.5468  0.7247
 1121ntf    fn4 7634   1.123   6.051   4.656 -0.6075  0.1622  0.4247
 1121ntf    fn4 7635   1.135   5.910   4.506 -0.3146  0.2192  0.0400
 1122ntf    cn1 7636   5.770   4.072   2.608  0.1213 -0.0431  0.3877
 1122ntf    sn2 7637   5.599   4.110   2.655 -0.0387  0.0334 -0.2398
 1122ntf    nn3 7638   5.521   3.977   2.626 -0.1090 -0.1228  0.6275
 1122ntf    sn2 7639   5.475   3.913   2.490  0.3166  0.7465  0.0653
 1122ntf    cn1 7640   5.295   3.928   2.515  0.1943 -0.0838 -0.2812
 1122ntf    fn4 7641   5.861   4.156   2.654 -0.1488  0.2590  0.3741
 1122ntf    fn4 7642   5.805   3.952   2.652 -0.4283 -0.2775  0.2007
 1122ntf    fn4 7643   5.780   4.059   2.476 -0.0547 -0.2562  0.3933
 1122ntf    on5 7644   5.612   4.143   2.795  0.8042 -0.1413 -0.2703
 1122ntf    on5 7645   5.577   4.215   2.559 -0.4509  0.2156  0.0523
 1122ntf    on5 7646   5.502   3.989   2.371  0.2184  0.6921  0.0082
 1122ntf    on5 7647   5.495   3.770   2.487 -0.1697  0.6771  0.0230
 1122ntf    fn4 7648   5.258   4.049   2.478  0.3697  0.2460  0.5877
 1122ntf    fn4 7649   5.248   3.901   2.636  0.1600  0.4791 -0.1658
 1122ntf    fn4 7650   5.234   3.840   2.437  0.2366 -0.0435 -0.3596
 1123ntf    cn1 7651   6.202   0.032   2.176  0.0796 -0.2610 -0.1934
 1123ntf    sn2 7652   6.327  -0.008   2.303 -0.2702 -0.5492  0.0624
 1123ntf    nn3 7653   6.396  -0.138   2.249 -0.3277 -0.5662  0.0289
 1123ntf    sn2 7654   6.416  -0.277   2.319 -0.0885 -0.3227  0.4413
 1123ntf    cn1 7655   6.443  -0.385   2.176  0.0991 -0.3793  0.5206
 1123ntf    fn4 7656   6.135  -0.078   2.145  0.4965 -0.6115  0.1164
 1123ntf    fn4 7657   6.130   0.138   2.206  0.2207 -0.1807 -0.1361
 1123ntf    fn4 7658   6.263   0.069   2.065 -0.2289  0.1821 -0.2167
 1123ntf    on5 7659   6.409   0.110   2.292 -0.4326 -0.5011 -0.7496
 1123ntf    on5 7660   6.259  -0.013   2.430 -0.0057  0.5746  0.2616
 1123ntf    on5 7661   6.547  -0.284   2.379  0.1390 -0.3042 -0.0472
 1123ntf    on5 7662   6.302  -0.335   2.386 -0.6874  0.2255 -0.0916
 1123ntf    fn4 7663   6.327  -0.411   2.119  0.1630 -0.4287  0.4116
 1123ntf    fn4 7664   6.503  -0.498   2.213  1.2150 -0.1219 -0.4455
 1123ntf    fn4 7665   6.517  -0.333   2.080 -0.5073 -0.3156  0.0900
 1124ntf    cn1 7666   2.949   5.217   3.873 -0.1779 -0.0032 -0.0434
 1124ntf    sn2 7667   3.118   5.244   3.811  0.0222 -0.3005  0.3645
 1124ntf    nn3 7668   3.171   5.337   3.926  0.5245  0.0981 -0.1814
 1124ntf    sn2 7669   3.192   5.492   3.920 -0.1245  0.2026  0.1413
 1124ntf    cn1 7670   3.349   5.508   3.831 -0.0006 -0.0829  0.3065
 1124ntf    fn4 7671   2.949   5.194   4.003  0.3591  0.3138  0.0139
 1124ntf    fn4 7672   2.875   5.325   3.851  0.1201  0.1756 -0.1863
 1124ntf    fn4 7673   2.885   5.120   3.809  0.7017 -0.3063 -0.4787
 1124ntf    on5 7674   3.179   5.114   3.815  0.4532 -0.1132 -0.0458
 1124ntf    on5 7675   3.096   5.302   3.681  0.3482 -0.7601  0.1055
 1124ntf    on5 7676   3.099   5.574   3.845  0.2124  0.7164  0.2771
 1124ntf    on5 7677   3.230   5.541   4.050  0.0521  0.6663 -0.0820
 1124ntf    fn4 7678   3.325   5.495   3.701  0.0947  0.2427  0.2540
 1124ntf    fn4 7679   3.434   5.412   3.864  0.1597 -0.3394 -0.8040
 1124ntf    fn4 7680   3.399   5.627   3.861 -0.2907 -0.1449  1.0448
 1125ntf    cn1 7681   1.905   2.978   0.476 -0.3007 -0.1725  0.2674
 1125ntf    sn2 7682   2.084   2.946   0.467 -0.2450  0.2121 -0.0116
 1125ntf    nn3 7683   2.102   2.790   0.471 -0.7966  0.1429 -0.1797
 1125ntf    sn2 7684   2.118   2.696   0.347 -0.0612 -0.2697  0.2286
 1125ntf    cn1 7685   2.070   2.538   0.423  0.5509 -0.2990  0.5650
 1125ntf    fn4 7686   1.835   2.953   0.366 -0.4321  0.5278  0.1898
 1125ntf    fn4 7687   1.849   2.890   0.557 -0.2998 -0.3216  0.1083
 1125ntf    fn4 7688   1.871   3.103   0.504  0.5113  0.1376 -0.0932
 1125ntf    on5 7689   2.116   2.999   0.337  0.7519 -0.0513  0.1197
 1125ntf    on5 7690   2.132   3.002   0.591 -0.5208  0.0512  0.1683
 1125ntf    on5 7691   2.018   2.719   0.247  0.4263  0.4614 -0.0978
 1125ntf    on5 7692   2.252   2.673   0.298 -0.4488 -0.8498 -0.5966
 1125ntf    fn4 7693   2.138   2.504   0.532  0.3856 -0.2328  0.6899
 1125ntf    fn4 7694   2.066   2.443   0.332  0.1764 -0.0974  0.3680
 1125ntf    fn4 7695   1.947   2.557   0.468  0.1979 -0.3071 -0.3805
 1126ntf    cn1 7696   1.040   2.199   0.069  0.3771 -0.2309 -0.0422
 1126ntf    sn2 7697   0.890   2.178  -0.032  0.1624 -0.3383  0.2944
 1126ntf    nn3 7698   0.838   2.034   0.003 -1.1223  0.0317 -0.0377
 1126ntf    sn2 7699   0.841   1.907  -0.088 -0.2707  0.1512 -0.1845
 1126ntf    cn1 7700   0.670   1.909  -0.150 -0.4590  0.1918  0.3392
 1126ntf    fn4 7701   1.129   2.102   0.069  0.4836 -0.1346 -0.2502
 1126ntf    fn4 7702   1.107   2.303   0.022  0.2191 -0.2324 -0.2730
 1126ntf    fn4 7703   1.019   2.225   0.197  0.1935 -0.2246 -0.0733
 1126ntf    on5 7704   0.804   2.274   0.032  0.2728  0.2561 -0.4323
 1126ntf    on5 7705   0.933   2.215  -0.165 -0.4084  0.7702  0.4077
 1126ntf    on5 7706   0.924   1.902  -0.207  0.3856 -0.0835  0.2753
 1126ntf    on5 7707   0.839   1.787  -0.009 -0.3906  0.3620  0.1301
 1126ntf    fn4 7708   0.588   1.889  -0.048 -0.0149  0.0365  0.6679
 1126ntf    fn4 7709   0.628   1.817  -0.235 -0.6709  0.5886  0.0107
 1126ntf    fn4 7710   0.632   2.023  -0.205 -0.3194 -0.3482 -0.9045
 1127ntf    cn1 7711   4.926   1.577   4.512  0.4282  0.1376 -0.3046
 1127ntf    sn2 7712   4.833   1.509   4.653  0.6289  0.1274 -0.1771
 1127ntf    nn3 7713   4.866   1.619   4.760 -0.2919 -0.0349  0.2805
 1127ntf    sn2 7714   4.976   1.616   4.872  0.4250  0.0065 -0.4137
 1127ntf    cn1 7715   4.943   1.757   4.982  0.1053 -0.5573  0.2237
 1127ntf    fn4 7716   5.041   1.621   4.557  0.6444 -0.6078 -0.1045
 1127ntf    fn4 7717   4.951   1.483   4.421 -0.0826 -0.5620  0.2635
 1127ntf    fn4 7718   4.867   1.682   4.457 -1.1367 -0.3968  0.2814
 1127ntf    on5 7719   4.698   1.505   4.602  0.6895 -0.5053 -0.2954
 1127ntf    on5 7720   4.902   1.384   4.669  0.1112 -0.0979  0.3517
 1127ntf    on5 7721   4.962   1.511   4.970  0.4175  0.0210 -0.3992
 1127ntf    on5 7722   5.105   1.648   4.816  0.5582 -0.4532 -0.3719
 1127ntf    fn4 7723   4.826   1.746   5.043 -0.1267  0.7180  0.0468
 1127ntf    fn4 7724   4.947   1.870   4.912 -0.2488 -0.3987  0.4582
 1127ntf    fn4 7725   5.032   1.764   5.079  0.1426  0.5631  0.1302
 1128ntf    cn1 7726   5.972   1.227   1.821  0.0431 -0.6684  0.1140
 1128ntf    sn2 7727   6.090   1.148   1.707  0.3720  0.2303 -0.1744
 1128ntf    nn3 7728   6.212   1.242   1.736  0.1821  0.3325  0.3029
 1128ntf    sn2 7729   6.267   1.369   1.662 -0.2234  0.2830 -0.0838
 1128ntf    cn1 7730   6.361   1.293   1.526 -0.0421  0.3004  0.0313
 1128ntf    fn4 7731   6.015   1.216   1.946  0.6747 -0.9281 -0.1234
 1128ntf    fn4 7732   5.967   1.359   1.814 -0.5609 -0.6852  0.1819
 1128ntf    fn4 7733   5.846   1.187   1.813 -0.1111 -0.2733  0.5589
 1128ntf    on5 7734   6.108   1.023   1.776  0.2170  0.3176  0.0256
 1128ntf    on5 7735   6.036   1.146   1.573 -0.6301 -0.0617  0.2266
 1128ntf    on5 7736   6.163   1.448   1.599  0.1011  0.5617 -0.2774
 1128ntf    on5 7737   6.365   1.450   1.729  0.2824 -0.2750 -0.1483
 1128ntf    fn4 7738   6.290   1.196   1.471  0.5930  0.2414 -0.7051
 1128ntf    fn4 7739   6.467   1.228   1.569  0.2274  0.6333 -0.1204
 1128ntf    fn4 7740   6.407   1.371   1.430 -0.1415 -0.2231 -0.4453
 1129ntf    cn1 7741   2.725   1.116   4.567 -0.3681  0.0580 -0.3043
 1129ntf    sn2 7742   2.848   1.183   4.682 -0.2765  0.2295 -0.5038
 1129ntf    nn3 7743   2.789   1.326   4.709 -0.1221  0.1747  0.1235
 1129ntf    sn2 7744   2.661   1.349   4.797 -0.1095 -0.2329  0.2507
 1129ntf    cn1 7745   2.726   1.474   4.912  0.6273  0.0832 -0.5012
 1129ntf    fn4 7746   2.715   1.198   4.463 -0.0142  0.3542 -0.1057
 1129ntf    fn4 7747   2.757   0.996   4.520  0.1603  0.2081 -0.3320
 1129ntf    fn4 7748   2.608   1.093   4.626 -0.1506 -0.7553 -0.1733
 1129ntf    on5 7749   2.860   1.089   4.790 -0.3745 -0.1585 -0.8258
 1129ntf    on5 7750   2.964   1.197   4.597  0.3069  0.2048  0.2760
 1129ntf    on5 7751   2.551   1.408   4.724  0.1046 -0.1694 -0.0184
 1129ntf    on5 7752   2.624   1.245   4.891  0.2530 -0.4169  0.1910
 1129ntf    fn4 7753   2.777   1.582   4.856  0.7337  0.1693 -0.2384
 1129ntf    fn4 7754   2.823   1.424   4.986  0.1461  0.8430  0.6659
 1129ntf    fn4 7755   2.638   1.514   5.002  0.5346 -0.4338 -0.3582
 1130ntf    cn1 7756   0.358   1.568   4.309 -0.2241  0.3973 -0.1162
 1130ntf    sn2 7757   0.187   1.567   4.249 -0.1038  0.2269 -0.4574
 1130ntf    nn3 7758   0.111   1.514   4.376  0.1695  0.0525 -0.3653
 1130ntf    sn2 7759  -0.043   1.517   4.405  0.2168  0.2579 -0.1420
 1130ntf    cn1 7760  -0.050   1.661   4.517 -0.1005  0.1436 -0.0134
 1130ntf    fn4 7761   0.390   1.454   4.367  0.1227  0.5202 -0.0615
 1130ntf    fn4 7762   0.442   1.563   4.207 -0.4468 -0.4127 -0.2613
 1130ntf    fn4 7763   0.387   1.675   4.383 -0.3166  0.2101  0.1930
 1130ntf    on5 7764   0.156   1.705   4.222  0.5552  0.2836 -0.9317
 1130ntf    on5 7765   0.182   1.476   4.137  0.2378 -0.0589 -0.2413
 1130ntf    on5 7766  -0.125   1.557   4.293  0.1451  0.3328 -0.0644
 1130ntf    on5 7767  -0.086   1.402   4.482 -0.8537  0.8490  0.1785
 1130ntf    fn4 7768  -0.009   1.776   4.467  0.5888 -0.0323  0.1489
 1130ntf    fn4 7769   0.032   1.654   4.620  0.0689 -0.1704 -0.1648
 1130ntf    fn4 7770  -0.171   1.680   4.568 -0.0048  0.2682  0.1665
 1131ntf    cn1 7771   2.390   1.847   4.543  0.2272 -0.0633  0.2997
 1131ntf    sn2 7772   2.320   1.699   4.622  0.1547  0.0721  0.4885
 1131ntf    nn3 7773   2.166   1.707   4.594  0.3439  0.9446 -0.3602
 1131ntf    sn2 7774   2.046   1.775   4.669  0.1948  0.3138 -0.0175
 1131ntf    cn1 7775   1.990   1.895   4.545  0.0291  0.2269 -0.0265
 1131ntf    fn4 7776   2.519   1.849   4.573  0.4175  0.2729 -0.5093
 1131ntf    fn4 7777   2.386   1.835   4.411  0.2440  0.0799  0.2867
 1131ntf    fn4 7778   2.327   1.958   4.575 -0.4376 -0.1612 -0.5963
 1131ntf    on5 7779   2.374   1.591   4.543 -0.0714  0.4456 -0.1884
 1131ntf    on5 7780   2.372   1.714   4.756  0.8196 -0.2815  0.2724
 1131ntf    on5 7781   1.936   1.683   4.681  0.1622  0.3304 -0.2041
 1131ntf    on5 7782   2.093   1.853   4.781  0.0076  0.3492  0.0361
 1131ntf    fn4 7783   1.997   1.839   4.425 -0.0388 -0.0241  0.0844
 1131ntf    fn4 7784   2.071   1.999   4.532  0.3888 -0.0528 -0.0511
 1131ntf    fn4 7785   1.865   1.937   4.559 -0.1380 -0.0870 -0.5248
 1132ntf    cn1 7786   3.579   2.218   3.303  0.4333 -0.0720  0.4329
 1132ntf    sn2 7787   3.704   2.100   3.242  0.1147 -0.1936  0.0126
 1132ntf    nn3 7788   3.838   2.162   3.294 -0.1238  0.2047  0.1645
 1132ntf    sn2 7789   3.950   2.252   3.230  0.1293 -0.2921 -0.1074
 1132ntf    cn1 7790   3.934   2.407   3.324  0.0776 -0.1660 -0.3228
 1132ntf    fn4 7791   3.555   2.213   3.433 -0.0089  0.3755  0.3700
 1132ntf    fn4 7792   3.604   2.345   3.277  0.4351 -0.1740 -0.0875
 1132ntf    fn4 7793   3.461   2.190   3.250  0.2960  0.2668  0.5614
 1132ntf    on5 7794   3.684   1.973   3.307 -0.0847 -0.2116 -0.0828
 1132ntf    on5 7795   3.692   2.107   3.098 -0.5558 -0.3221  0.0563
 1132ntf    on5 7796   4.082   2.201   3.257  0.0768 -0.3867 -0.0273
 1132ntf    on5 7797   3.932   2.305   3.097  0.0615 -0.0712 -0.0113
 1132ntf    fn4 7798   3.844   2.486   3.268  0.0925  0.0470 -0.0529
 1132ntf    fn4 7799   4.048   2.475   3.321 -0.1602  0.2215 -0.5603
 1132ntf    fn4 7800   3.902   2.385   3.451  0.4911 -0.2059 -0.2217
 1133ntf    cn1 7801   6.659   2.108   3.624 -0.0028  0.3766 -0.0455
 1133ntf    sn2 7802   6.798   2.138   3.511  0.1318  0.0171  0.0221
 1133ntf    nn3 7803   6.807   2.295   3.517 -0.2389  0.0412 -0.0584
 1133ntf    sn2 7804   6.929   2.389   3.485  0.0531 -0.4192 -0.3083
 1133ntf    cn1 7805   6.880   2.468   3.329  0.1933  0.4518  0.0863
 1133ntf    fn4 7806   6.543   2.162   3.592 -0.1737  0.4586  0.7056
 1133ntf    fn4 7807   6.635   1.979   3.640 -0.2695  0.3337 -0.7513
 1133ntf    fn4 7808   6.697   2.159   3.740  0.3444  0.1306 -0.0467
 1133ntf    on5 7809   6.904   2.065   3.578  0.2772  0.6728  0.5259
 1133ntf    on5 7810   6.758   2.093   3.380 -0.4075  0.0009  0.1906
 1133ntf    on5 7811   6.933   2.504   3.572  0.4569 -0.2559 -0.5433
 1133ntf    on5 7812   7.051   2.318   3.454  0.4863  0.1105  0.1645
 1133ntf    fn4 7813   6.765   2.533   3.340  0.0946  0.1907  0.6249
 1133ntf    fn4 7814   6.852   2.381   3.234  0.1709 -0.0030  0.5091
 1133ntf    fn4 7815   6.961   2.560   3.280  0.9664  0.1712  0.8232
 1134ntf    cn1 7816   1.815   4.714   3.906 -0.1919  0.2174  0.6474
 1134ntf    sn2 7817   1.932   4.608   3.995 -0.0495 -0.0400  0.1576
 1134ntf    nn3 7818   1.857   4.472   4.015  0.2441 -0.1297  0.6532
 1134ntf    sn2 7819   1.838   4.384   4.144  0.0263 -0.0241  0.6942
 1134ntf    cn1 7820   1.681   4.442   4.214 -0.3818 -0.1175 -0.1386
 1134ntf    fn4 7821   1.853   4.841   3.909  0.0576  0.1641 -0.0625
 1134ntf    fn4 7822   1.795   4.675   3.781  0.1340 -0.3166  0.7572
 1134ntf    fn4 7823   1.697   4.725   3.964 -0.3659  0.9098  0.1736
 1134ntf    on5 7824   2.043   4.597   3.903 -0.0980  0.3094  0.0577
 1134ntf    on5 7825   1.959   4.687   4.112 -0.0445 -0.3290  0.3544
 1134ntf    on5 7826   1.815   4.250   4.096  0.7366  0.1113 -0.0463
 1134ntf    on5 7827   1.938   4.394   4.248  0.2467  0.1898  0.4661
 1134ntf    fn4 7828   1.580   4.419   4.132 -0.0957  0.6506 -0.7216
 1134ntf    fn4 7829   1.692   4.573   4.231 -0.2225 -0.1985  0.3809
 1134ntf    fn4 7830   1.654   4.392   4.333 -0.1637  0.2714  0.0745
 1135ntf    cn1 7831   6.565   0.377   0.926  0.3887  0.2580  0.3566
 1135ntf    sn2 7832   6.403   0.423   0.994 -0.0094 -0.3217 -0.1908
 1135ntf    nn3 7833   6.451   0.468   1.137  0.9248  0.2156 -0.6700
 1135ntf    sn2 7834   6.488   0.614   1.181 -0.2935  0.3877 -0.1878
 1135ntf    cn1 7835   6.656   0.593   1.247 -0.2345  0.2081 -0.3928
 1135ntf    fn4 7836   6.611   0.257   0.959 -0.1286  0.0277  0.2622
 1135ntf    fn4 7837   6.549   0.374   0.795  0.3259 -0.3084  0.3717
 1135ntf    fn4 7838   6.658   0.464   0.961  0.1938  0.4106  0.4950
 1135ntf    on5 7839   6.353   0.522   0.903 -0.8921  0.0151  0.6371
 1135ntf    on5 7840   6.319   0.306   1.003  0.4401 -0.5872  0.7513
 1135ntf    on5 7841   6.509   0.706   1.072 -0.2124  0.0000 -0.5024
 1135ntf    on5 7842   6.418   0.659   1.299 -0.1061 -0.3418  0.2073
 1135ntf    fn4 7843   6.744   0.551   1.157 -0.3501 -0.2179 -0.3060
 1135ntf    fn4 7844   6.676   0.514   1.351 -0.1633  0.9734  0.1831
 1135ntf    fn4 7845   6.711   0.709   1.279  0.1896  0.0924 -0.6910
 1136ntf    cn1 7846   0.310   1.717   1.989  0.0827  0.0742 -0.0394
 1136ntf    sn2 7847   0.239   1.832   1.867  0.3262  0.2566 -0.0114
 1136ntf    nn3 7848   0.201   1.733   1.752  0.6119  0.5204 -0.3322
 1136ntf    sn2 7849   0.121   1.771   1.622 -0.3786  0.2414  0.1881
 1136ntf    cn1 7850   0.257   1.759   1.502 -0.5028  0.2727  0.0434
 1136ntf    fn4 7851   0.381   1.781   2.080 -0.2440  0.4977 -0.0832
 1136ntf    fn4 7852   0.223   1.639   2.050 -0.1245  0.1641 -0.2170
 1136ntf    fn4 7853   0.392   1.632   1.928 -0.4302 -0.5376  0.1149
 1136ntf    on5 7854   0.129   1.890   1.940 -0.1221 -0.0621 -0.4291
 1136ntf    on5 7855   0.352   1.911   1.826  0.4831  0.1659  0.2406
 1136ntf    on5 7856   0.028   1.670   1.577 -0.1092  0.3761 -0.6823
 1136ntf    on5 7857   0.083   1.909   1.607 -0.6208  0.1091 -0.4723
 1136ntf    fn4 7858   0.322   1.874   1.490  0.1569 -0.0873  0.1041
 1136ntf    fn4 7859   0.212   1.734   1.381  0.1075  0.2671 -0.1870
 1136ntf    fn4 7860   0.350   1.666   1.519 -0.2986  0.6496  1.0767
 1137ntf    cn1 7861   2.768   0.463   3.728 -0.5982  0.0191  0.4777
 1137ntf    sn2 7862   2.755   0.627   3.650  0.0273 -0.2208 -0.1426
 1137ntf    nn3 7863   2.736   0.721   3.774  0.9375 -0.4415  0.1659
 1137ntf    sn2 7864   2.851   0.787   3.859  0.5482  0.0124  0.3423
 1137ntf    cn1 7865   2.765   0.791   4.019  0.0578  0.0902  0.0791
 1137ntf    fn4 7866   2.878   0.454   3.800 -0.5967  0.2871  0.5119
 1137ntf    fn4 7867   2.662   0.445   3.806 -0.1616  0.3575  1.1618
 1137ntf    fn4 7868   2.782   0.364   3.642  0.3546  0.6272 -0.0798
 1137ntf    on5 7869   2.870   0.651   3.568  0.7333 -0.0968  0.8681
 1137ntf    on5 7870   2.626   0.609   3.587  0.0734 -0.1272 -0.2620
 1137ntf    on5 7871   2.958   0.695   3.889  0.6323  0.2840  0.8936
 1137ntf    on5 7872   2.868   0.927   3.829 -0.0211  0.0036 -0.0437
 1137ntf    fn4 7873   2.846   0.840   4.112  0.0766 -0.3393  0.2954
 1137ntf    fn4 7874   2.726   0.670   4.057  1.0201 -0.2717 -0.0541
 1137ntf    fn4 7875   2.665   0.877   4.018 -0.2327 -0.2437 -0.0933
 1138ntf    cn1 7876   3.097   2.385   5.459 -0.2521 -0.1620  0.4204
 1138ntf    sn2 7877   3.244   2.286   5.418 -0.3164  0.1135 -0.5034
 1138ntf    nn3 7878   3.271   2.254   5.569  0.5300 -0.7041 -0.8190
 1138ntf    sn2 7879   3.371   2.319   5.673 -0.4144 -0.0934 -0.2762
 1138ntf    cn1 7880   3.489   2.181   5.689 -0.4773 -0.1813 -0.5601
 1138ntf    fn4 7881   3.018   2.411   5.356  0.2957  0.5578  0.1714
 1138ntf    fn4 7882   3.020   2.327   5.549 -0.1209  0.0560  0.6730
 1138ntf    fn4 7883   3.118   2.502   5.518 -0.2151  0.1826 -0.2617
 1138ntf    on5 7884   3.192   2.178   5.339 -0.5107  0.3310 -0.6740
 1138ntf    on5 7885   3.329   2.383   5.354  0.2410  0.0735  0.1618
 1138ntf    on5 7886   3.445   2.440   5.650 -0.4144  0.0489  0.4750
 1138ntf    on5 7887   3.317   2.304   5.806  0.2195 -0.7862 -0.0887
 1138ntf    fn4 7888   3.557   2.169   5.576  0.0311 -0.4341 -0.2279
 1138ntf    fn4 7889   3.445   2.060   5.718 -0.2871 -0.0916  0.1239
 1138ntf    fn4 7890   3.587   2.203   5.775 -0.9949  0.6722 -0.1666
 1139ntf    cn1 7891   5.724   5.870   5.031  0.2898  0.5417 -0.4048
 1139ntf    sn2 7892   5.692   5.761   4.889  0.2107  0.0974 -0.0487
 1139ntf    nn3 7893   5.704   5.626   4.967 -0.1761 -0.3218 -0.7089
 1139ntf    sn2 7894   5.588   5.534   5.021 -0.0770 -0.1460 -0.1908
 1139ntf    cn1 7895   5.657   5.514   5.188 -0.2674  0.4433 -0.0398
 1139ntf    fn4 7896   5.607   5.893   5.089  0.1057  0.2893 -0.6784
 1139ntf    fn4 7897   5.803   5.807   5.117 -1.0100  0.2475  0.6160
 1139ntf    fn4 7898   5.772   5.988   4.995 -0.1769  0.8680  0.0273
 1139ntf    on5 7899   5.562   5.805   4.844  0.1943  0.3584  0.2445
 1139ntf    on5 7900   5.808   5.781   4.806  0.2672  0.0764  0.0251
 1139ntf    on5 7901   5.456   5.591   5.035  0.1846  0.3482  0.3371
 1139ntf    on5 7902   5.601   5.404   4.959  0.3923 -0.1109 -0.1739
 1139ntf    fn4 7903   5.678   5.629   5.251  0.4696  0.7205 -0.7836
 1139ntf    fn4 7904   5.774   5.453   5.179 -0.6681 -0.3878  0.2619
 1139ntf    fn4 7905   5.585   5.438   5.270  0.4094 -0.1532  0.0089
 1140ntf    cn1 7906   0.502   3.491   5.990  0.1120 -0.0475 -0.0644
 1140ntf    sn2 7907   0.554   3.358   6.103  0.1800 -0.0033 -0.0440
 1140ntf    nn3 7908   0.426   3.267   6.106  0.1605  0.0033 -0.5623
 1140ntf    sn2 7909   0.421   3.113   6.132 -0.0051  0.0452 -0.3428
 1140ntf    cn1 7910   0.313   3.109   6.278 -0.4011  0.3818 -0.6239
 1140ntf    fn4 7911   0.590   3.583   5.954  0.2787 -0.0992  0.2062
 1140ntf    fn4 7912   0.451   3.448   5.876 -0.5156  0.1615  0.1295
 1140ntf    fn4 7913   0.404   3.552   6.055 -0.5181 -0.1816 -0.8654
 1140ntf    on5 7914   0.664   3.304   6.028  0.5517  0.8773 -0.1480
 1140ntf    on5 7915   0.576   3.435   6.223 -0.0643  0.0723 -0.0462
 1140ntf    on5 7916   0.350   3.036   6.033 -0.2416 -0.2352  0.0385
 1140ntf    on5 7917   0.547   3.054   6.170  0.0988  0.1975 -0.4526
 1140ntf    fn4 7918   0.204   3.183   6.270 -0.4850  0.2045 -1.1326
 1140ntf    fn4 7919   0.385   3.151   6.381 -0.6178 -0.0943 -0.2713
 1140ntf    fn4 7920   0.274   2.988   6.314 -0.2365  0.6538  0.5101
 1141ntf    cn1 7921   1.428   2.575   6.053 -0.5418 -0.0930  0.4486
 1141ntf    sn2 7922   1.297   2.577   5.927 -0.2064 -0.2046  0.0957
 1141ntf    nn3 7923   1.244   2.429   5.933 -0.1167 -0.2429 -0.0559
 1141ntf    sn2 7924   1.110   2.372   5.992 -0.1414  0.4225  0.5462
 1141ntf    cn1 7925   1.103   2.208   5.914 -0.5128  0.5871  0.2257
 1141ntf    fn4 7926   1.476   2.698   6.070 -0.5038  0.0064 -0.3314
 1141ntf    fn4 7927   1.371   2.541   6.167  0.3535  0.1426  0.9775
 1141ntf    fn4 7928   1.531   2.496   6.027 -0.4755  0.1392 -0.0017
 1141ntf    on5 7929   1.208   2.682   5.971 -0.2031 -0.2151  0.1287
 1141ntf    on5 7930   1.360   2.603   5.800 -0.3516  0.3251  0.1297
 1141ntf    on5 7931   1.121   2.335   6.131 -0.1956 -1.2676  0.1224
 1141ntf    on5 7932   0.994   2.446   5.947 -0.4001 -0.1700  0.2327
 1141ntf    fn4 7933   1.028   2.114   5.969 -0.4329 -0.0098 -0.6777
 1141ntf    fn4 7934   1.228   2.165   5.907 -0.6277  0.2395  0.2935
 1141ntf    fn4 7935   1.061   2.220   5.789  0.5264 -0.2509 -0.2201
 1142ntf    cn1 7936   6.784   5.168   1.232  0.0010 -0.0730 -0.3809
 1142ntf    sn2 7937   6.669   5.295   1.294  0.0653 -0.3056  0.2259
 1142ntf    nn3 7938   6.713   5.300   1.444  0.6178 -0.7303  0.0791
 1142ntf    sn2 7939   6.655   5.215   1.563 -0.3342  0.1419  0.2500
 1142ntf    cn1 7940   6.800   5.165   1.660  0.0421 -0.0084 -0.3819
 1142ntf    fn4 7941   6.746   5.047   1.271  0.8287  0.0434  0.8605
 1142ntf    fn4 7942   6.797   5.167   1.101  0.0392  0.7989 -0.3919
 1142ntf    fn4 7943   6.903   5.181   1.287  0.0578 -0.1310 -0.4919
 1142ntf    on5 7944   6.714   5.418   1.234 -0.6875  0.0321  0.3406
 1142ntf    on5 7945   6.534   5.251   1.267  0.1713 -0.3901 -0.1665
 1142ntf    on5 7946   6.567   5.289   1.650  0.0839  0.6378  0.2518
 1142ntf    on5 7947   6.617   5.086   1.511 -0.7984  0.2744  0.2608
 1142ntf    fn4 7948   6.888   5.100   1.586  0.0184  0.1672 -0.5637
 1142ntf    fn4 7949   6.768   5.097   1.769  0.6374 -0.0472 -0.2267
 1142ntf    fn4 7950   6.865   5.268   1.712 -0.0519 -0.2449  0.2191
 1143ntf    cn1 7951   3.250   2.863   6.068 -0.4687 -0.0431  0.3399
 1143ntf    sn2 7952   3.232   3.044   6.063  0.0518  0.0003  0.0660
 1143ntf    nn3 7953   3.191   3.073   5.914  0.4621  0.4238  0.0334
 1143ntf    sn2 7954   3.052   3.122   5.862  0.2535 -0.3062 -0.1122
 1143ntf    cn1 7955   3.121   3.246   5.748 -0.3967  0.0169 -0.1599
 1143ntf    fn4 7956   3.337   2.809   5.985 -0.7658  0.2124 -0.1416
 1143ntf    fn4 7957   3.285   2.830   6.191 -0.2325 -0.4036  0.1776
 1143ntf    fn4 7958   3.138   2.800   6.037  0.0550 -0.8888  0.1361
 1143ntf    on5 7959   3.133   3.054   6.167 -0.3065 -0.0889 -0.2616
 1143ntf    on5 7960   3.365   3.097   6.079  0.3350 -0.3757 -0.9230
 1143ntf    on5 7961   2.994   3.032   5.766 -1.1345  0.3941  0.0362
 1143ntf    on5 7962   2.962   3.205   5.939  0.4762 -0.4160  0.2663
 1143ntf    fn4 7963   3.168   3.180   5.644 -0.1771 -0.2810  0.1275
 1143ntf    fn4 7964   3.223   3.318   5.790  0.3183 -0.9856 -0.1467
 1143ntf    fn4 7965   3.025   3.325   5.702  0.1306  0.7832  0.0497
 1144ntf    cn1 7966   6.098   3.653   4.434 -0.1126 -0.3426 -0.2035
 1144ntf    sn2 7967   5.919   3.673   4.407 -0.1429 -0.1748  0.1096
 1144ntf    nn3 7968   5.873   3.796   4.493 -0.2395 -0.6318  0.7208
 1144ntf    sn2 7969   5.859   3.950   4.465  0.5680 -0.6544  0.1287
 1144ntf    cn1 7970   6.033   4.003   4.467  0.2576  0.3954  0.0150
 1144ntf    fn4 7971   6.173   3.734   4.361 -0.2422 -0.1882 -0.1683
 1144ntf    fn4 7972   6.145   3.663   4.557  0.0062  0.2343 -0.2933
 1144ntf    fn4 7973   6.136   3.530   4.404 -0.1606 -0.4211  0.0582
 1144ntf    on5 7974   5.901   3.689   4.264  0.8485  0.5777  0.0594
 1144ntf    on5 7975   5.857   3.558   4.467 -0.2652 -0.1331  0.0643
 1144ntf    on5 7976   5.797   3.969   4.337 -0.0269  0.1193  0.5201
 1144ntf    on5 7977   5.807   4.026   4.576  0.3816 -0.2935 -0.2037
 1144ntf    fn4 7978   6.082   3.970   4.348 -0.4690  0.6616 -0.3655
 1144ntf    fn4 7979   6.099   3.931   4.556  0.6588  0.0941 -0.5168
 1144ntf    fn4 7980   6.058   4.130   4.492  0.8645  0.3741 -0.4472
 1145ntf    cn1 7981   5.631   4.937   2.924 -0.3768 -0.2442 -0.1416
 1145ntf    sn2 7982   5.705   4.879   2.768  0.1547 -0.0527  0.0371
 1145ntf    nn3 7983   5.845   4.833   2.822  0.0711  0.7053  0.9273
 1145ntf    sn2 7984   5.996   4.861   2.789 -0.0315 -0.1558 -0.3597
 1145ntf    cn1 7985   6.073   4.807   2.945 -0.7287 -0.0512  0.0263
 1145ntf    fn4 7986   5.525   5.016   2.914 -0.2972 -0.1598 -0.3171
 1145ntf    fn4 7987   5.594   4.832   2.996  0.1984 -0.2029  0.2140
 1145ntf    fn4 7988   5.725   4.989   3.001 -0.7273  0.0744  0.0738
 1145ntf    on5 7989   5.626   4.766   2.726 -0.1913  0.1157  0.2269
 1145ntf    on5 7990   5.705   4.999   2.688  0.3621 -0.1092 -0.0456
 1145ntf    on5 7991   6.055   4.786   2.681  0.2743 -0.1256 -0.2140
 1145ntf    on5 7992   6.022   5.003   2.797 -0.1508 -0.1534 -0.0096
 1145ntf    fn4 7993   6.201   4.839   2.955 -0.7706  0.1152  0.0382
 1145ntf    fn4 7994   6.070   4.675   2.948  1.0832 -0.1351 -0.4706
 1145ntf    fn4 7995   6.024   4.865   3.053 -0.3324 -0.0417  0.2028
 1146ntf    cn1 7996   5.081   0.537   2.404 -0.0850  0.0965 -0.1835
 1146ntf    sn2 7997   5.040   0.556   2.228  0.3411 -0.4930 -0.3493
 1146ntf    nn3 7998   4.937   0.439   2.211 -0.3891  0.1695 -0.5392
 1146ntf    sn2 7999   4.953   0.287   2.173  0.3684  0.0126  0.3784
 1146ntf    cn1 8000   4.969   0.291   1.992  0.2078 -0.4353  0.3525
 1146ntf    fn4 8001   4.975   0.507   2.477 -0.2557  0.1215 -0.4210
 1146ntf    fn4 8002   5.183   0.458   2.432  0.3707  0.7327 -0.0346
 1146ntf    fn4 8003   5.107   0.655   2.456  0.3958 -0.2110  0.2848
 1146ntf    on5 8004   4.983   0.687   2.210  0.1060 -0.5551 -0.0736
 1146ntf    on5 8005   5.171   0.530   2.173  0.4342 -1.0864  0.1307
 1146ntf    on5 8006   5.070   0.216   2.219  0.3025  0.0275  0.5694
 1146ntf    on5 8007   4.827   0.217   2.180  0.4498 -0.1629  0.0899
 1146ntf    fn4 8008   4.865   0.350   1.936  0.3653 -0.5160 -0.0277
 1146ntf    fn4 8009   4.984   0.168   1.947 -0.0218 -0.3548  0.0539
 1146ntf    fn4 8010   5.075   0.362   1.958 -0.1780  0.2312  0.5249
 1147ntf    cn1 8011   4.876   4.081   6.567  0.1710 -0.4578  0.2881
 1147ntf    sn2 8012   4.757   3.997   6.675 -0.2194 -0.0279  0.1976
 1147ntf    nn3 8013   4.832   3.972   6.811 -0.2651 -0.0732  0.2146
 1147ntf    sn2 8014   4.851   3.845   6.901 -0.1565 -0.1791  0.0411
 1147ntf    cn1 8015   5.019   3.890   6.954 -0.0838 -0.4956  0.0811
 1147ntf    fn4 8016   4.910   4.203   6.604  0.4032 -0.3371 -0.3035
 1147ntf    fn4 8017   4.991   4.016   6.552  0.3557 -0.0577 -0.0533
 1147ntf    fn4 8018   4.818   4.091   6.449  0.4921  0.2447  0.1821
 1147ntf    on5 8019   4.641   4.080   6.695 -0.7167 -0.7213  0.2497
 1147ntf    on5 8020   4.742   3.872   6.604  0.2215 -0.1509  0.3129
 1147ntf    on5 8021   4.779   3.839   7.025 -0.3219  0.6570 -0.0137
 1147ntf    on5 8022   4.876   3.722   6.829 -0.4422 -0.1148 -0.1680
 1147ntf    fn4 8023   5.112   3.896   6.861 -0.3044 -0.8669 -0.1632
 1147ntf    fn4 8024   5.066   3.814   7.052  0.5943 -0.3604 -0.1378
 1147ntf    fn4 8025   5.022   4.013   7.003 -0.1522 -0.3579 -0.2581
 1148ntf    cn1 8026   6.687   3.279   3.334 -0.1693 -0.3570 -0.0376
 1148ntf    sn2 8027   6.827   3.323   3.442 -0.0373 -0.0969 -0.3170
 1148ntf    nn3 8028   6.827   3.473   3.392 -0.8848  0.0059 -0.0222
 1148ntf    sn2 8029   6.783   3.602   3.470 -0.2927  0.0072  0.3221
 1148ntf    cn1 8030   6.937   3.648   3.554 -0.4194  0.4180  0.3291
 1148ntf    fn4 8031   6.630   3.169   3.380 -0.1910 -0.2058  0.3003
 1148ntf    fn4 8032   6.614   3.386   3.307  0.2366 -0.0934 -0.1068
 1148ntf    fn4 8033   6.736   3.255   3.214 -0.3505 -0.0255 -0.1796
 1148ntf    on5 8034   6.780   3.316   3.577  0.4944  0.1283 -0.1148
 1148ntf    on5 8035   6.941   3.251   3.390 -0.4708 -0.5259 -0.6878
 1148ntf    on5 8036   6.769   3.711   3.377  0.1928 -0.6806 -0.5741
 1148ntf    on5 8037   6.685   3.601   3.576 -0.4902  0.4061  0.1437
 1148ntf    fn4 8038   7.036   3.674   3.470 -0.4942  0.3478  0.2197
 1148ntf    fn4 8039   6.981   3.553   3.635 -0.2573  0.3074  0.1105
 1148ntf    fn4 8040   6.922   3.748   3.640 -0.6669  0.0664  0.6983
 1149ntf    cn1 8041   2.067   4.672   6.401  0.0336  0.1219  0.0505
 1149ntf    sn2 8042   1.990   4.820   6.473  0.0274  0.1480 -0.0100
 1149ntf    nn3 8043   1.857   4.760   6.530 -0.1712  0.4682 -0.1266
 1149ntf    sn2 8044   1.744   4.837   6.606 -0.2357  0.2425  0.0098
 1149ntf    cn1 8045   1.619   4.819   6.476 -0.0848  0.0223 -0.1046
 1149ntf    fn4 8046   2.092   4.583   6.495 -0.7547 -0.2739 -0.1040
 1149ntf    fn4 8047   1.996   4.620   6.302  0.6928 -0.1734 -0.2756
 1149ntf    fn4 8048   2.186   4.699   6.351 -0.2670  0.7395 -0.3492
 1149ntf    on5 8049   2.092   4.849   6.571  0.4481 -0.3119 -0.3045
 1149ntf    on5 8050   1.977   4.913   6.362  0.2343  0.0427 -0.1238
 1149ntf    on5 8051   1.697   4.763   6.720  0.1123  0.1356  0.0854
 1149ntf    on5 8052   1.765   4.980   6.617 -0.1795  0.2519 -0.2091
 1149ntf    fn4 8053   1.527   4.914   6.476  0.2625  0.3615  0.3039
 1149ntf    fn4 8054   1.561   4.700   6.477  0.0243 -0.0270  1.2681
 1149ntf    fn4 8055   1.667   4.836   6.354 -0.3481  0.5803 -0.1320
 1150ntf    cn1 8056   0.347   2.764   3.946 -0.1316  0.1625  0.2721
 1150ntf    sn2 8057   0.371   2.936   4.000  0.2512  0.1869  0.0203
 1150ntf    nn3 8058   0.483   2.912   4.107 -0.2943  0.0265  0.5590
 1150ntf    sn2 8059   0.611   2.994   4.146  0.0194 -0.2327  0.0826
 1150ntf    cn1 8060   0.544   3.065   4.299  0.0328 -0.0441  0.0019
 1150ntf    fn4 8061   0.316   2.691   4.052 -0.3432  0.1120  0.1763
 1150ntf    fn4 8062   0.241   2.756   3.867  0.7283 -0.2013 -0.8603
 1150ntf    fn4 8063   0.450   2.704   3.889 -0.3661 -0.1333  0.1530
 1150ntf    on5 8064   0.405   3.011   3.881 -0.1999  0.0176 -0.2174
 1150ntf    on5 8065   0.243   2.966   4.058  0.0505 -0.5861 -0.0135
 1150ntf    on5 8066   0.720   2.907   4.184  0.3421  0.1938  0.1471
 1150ntf    on5 8067   0.638   3.110   4.065  0.3186  0.4057  1.0832
 1150ntf    fn4 8068   0.627   3.147   4.362 -0.4182  0.4111  0.0082
 1150ntf    fn4 8069   0.504   2.980   4.393 -0.2985  0.2354  0.1114
 1150ntf    fn4 8070   0.443   3.145   4.273 -0.0776 -0.0600  0.3781
 1151ntf    cn1 8071   1.706   2.995   1.893 -0.2494 -0.0450 -0.3387
 1151ntf    sn2 8072   1.854   2.949   1.988 -0.5821 -0.1770  0.1211
 1151ntf    nn3 8073   1.857   2.794   1.959 -0.4436 -0.1594  0.0410
 1151ntf    sn2 8074   1.940   2.698   1.867 -0.1755 -0.1152  0.2345
 1151ntf    cn1 8075   1.819   2.564   1.853 -0.2622  0.0251 -0.3894
 1151ntf    fn4 8076   1.603   2.915   1.914 -0.3321  0.0322 -0.4463
 1151ntf    fn4 8077   1.666   3.118   1.922  0.4368  0.1577 -0.2509
 1151ntf    fn4 8078   1.729   2.994   1.763 -0.1757  0.6107 -0.3344
 1151ntf    on5 8079   1.952   3.024   1.914 -0.5014 -0.1707  0.2363
 1151ntf    on5 8080   1.824   2.986   2.124 -0.0959  0.2012  0.1286
 1151ntf    on5 8081   1.956   2.743   1.731  0.1382 -0.3184  0.2022
 1151ntf    on5 8082   2.058   2.654   1.938  0.3692 -0.0275 -0.5929
 1151ntf    fn4 8083   1.713   2.587   1.776 -0.3094 -0.2619 -0.4103
 1151ntf    fn4 8084   1.770   2.525   1.970  0.1229  0.2384 -0.1562
 1151ntf    fn4 8085   1.870   2.455   1.799 -0.0784 -0.2651  0.3625
 1152ntf    cn1 8086   5.269   6.579   1.935 -0.3002 -0.2716 -0.3685
 1152ntf    sn2 8087   5.402   6.656   2.031 -0.5660 -0.1911 -0.0629
 1152ntf    nn3 8088   5.484   6.719   1.912  0.0746 -0.5355  0.1897
 1152ntf    sn2 8089   5.622   6.792   1.931 -0.2470  0.0357  0.3787
 1152ntf    cn1 8090   5.730   6.671   1.848  0.0406  0.3222  0.3318
 1152ntf    fn4 8091   5.190   6.675   1.891 -0.1294  0.0533  0.0394
 1152ntf    fn4 8092   5.315   6.510   1.831  0.6485 -0.1429 -0.0474
 1152ntf    fn4 8093   5.198   6.498   2.012 -0.0315 -0.0422  0.1230
 1152ntf    on5 8094   5.332   6.753   2.111 -0.0703  0.1063  0.0144
 1152ntf    on5 8095   5.464   6.542   2.093  0.2890  0.2685 -0.0524
 1152ntf    on5 8096   5.632   6.906   1.844  0.0676 -0.8947 -0.8432
 1152ntf    on5 8097   5.663   6.812   2.068 -0.3783  0.2302  0.3892
 1152ntf    fn4 8098   5.676   6.620   1.738  0.2381  0.3316  0.2316
 1152ntf    fn4 8099   5.739   6.567   1.930 -0.3275  0.1640  0.1769
 1152ntf    fn4 8100   5.851   6.717   1.823 -0.0140  0.4555  0.3147
 1153ntf    cn1 8101   4.901   0.765   1.125 -0.1666 -0.0300 -0.1804
 1153ntf    sn2 8102   4.788   0.897   1.072  0.0976  0.3141  0.1060
 1153ntf    nn3 8103   4.862   0.962   0.950  0.0810  0.2380  0.0548
 1153ntf    sn2 8104   4.891   0.903   0.808 -0.2167  0.3700 -0.0622
 1153ntf    cn1 8105   4.758   0.965   0.702  0.0310 -0.1297 -0.6777
 1153ntf    fn4 8106   4.999   0.824   1.192 -0.1653 -0.0970 -0.1226
 1153ntf    fn4 8107   4.853   0.681   1.215 -0.2759  0.2176 -0.0070
 1153ntf    fn4 8108   4.966   0.697   1.032 -0.3486 -0.1398 -0.2281
 1153ntf    on5 8109   4.669   0.825   1.031 -0.1970  0.8820 -0.0418
 1153ntf    on5 8110   4.774   0.981   1.188  0.6388  0.2177  0.2416
 1153ntf    on5 8111   5.013   0.963   0.759  0.2373 -0.2758  0.2461
 1153ntf    on5 8112   4.881   0.760   0.794  0.7756  0.2825 -0.0048
 1153ntf    fn4 8113   4.717   0.879   0.610 -0.3508 -0.4164 -0.2420
 1153ntf    fn4 8114   4.788   1.075   0.635  0.3103 -0.1008 -0.5083
 1153ntf    fn4 8115   4.646   1.000   0.765  0.4698  0.4955 -0.2316
 1154ntf    cn1 8116   1.744   2.562   2.408  0.0211 -0.0816  0.0139
 1154ntf    sn2 8117   1.592   2.505   2.491 -0.1082 -0.1946 -0.2993
 1154ntf    nn3 8118   1.557   2.647   2.549  0.3239 -0.1843 -0.0555
 1154ntf    sn2 8119   1.560   2.677   2.702  0.3146  0.0839 -0.1079
 1154ntf    cn1 8120   1.483   2.842   2.703 -0.3811 -0.2374 -0.0642
 1154ntf    fn4 8121   1.821   2.469   2.355  0.3783  0.2028  0.0302
 1154ntf    fn4 8122   1.718   2.649   2.311  0.0024 -0.4487 -0.3135
 1154ntf    fn4 8123   1.829   2.621   2.490 -0.3733  0.3821  0.0931
 1154ntf    on5 8124   1.509   2.457   2.383 -0.1154 -0.2012 -0.2909
 1154ntf    on5 8125   1.626   2.408   2.591 -0.3217  0.0928  0.0521
 1154ntf    on5 8126   1.469   2.606   2.789  0.0159  0.4478 -0.1160
 1154ntf    on5 8127   1.692   2.697   2.757 -0.0182  0.1303  0.7018
 1154ntf    fn4 8128   1.368   2.841   2.638  0.0204 -0.2326 -0.7852
 1154ntf    fn4 8129   1.545   2.945   2.648  0.2235 -0.3635  0.3652
 1154ntf    fn4 8130   1.452   2.889   2.823 -1.1235  0.4554 -0.5163
 1155ntf    cn1 8131   5.204   3.662   5.125 -0.2286 -0.2140  0.9722
 1155ntf    sn2 8132   5.107   3.516   5.079  0.3968 -0.3628  0.0915
 1155ntf    nn3 8133   5.222   3.442   5.003  0.2048 -0.5575 -0.0122
 1155ntf    sn2 8134   5.314   3.322   5.047 -0.1523 -0.7745  0.1432
 1155ntf    cn1 8135   5.201   3.180   5.033 -0.5384 -0.4683  0.1244
 1155ntf    fn4 8136   5.262   3.717   5.019 -0.3616 -0.6289  0.6809
 1155ntf    fn4 8137   5.150   3.763   5.191 -0.4134  0.2736  0.0888
 1155ntf    fn4 8138   5.303   3.634   5.208  0.2068  0.4137  0.6721
 1155ntf    on5 8139   5.066   3.463   5.207 -0.0027 -0.1661  0.0464
 1155ntf    on5 8140   5.002   3.561   4.990  0.5686  0.3480  0.2429
 1155ntf    on5 8141   5.408   3.285   4.944 -0.1627 -0.3087 -0.0373
 1155ntf    on5 8142   5.343   3.318   5.188 -0.4441 -0.2182  0.2251
 1155ntf    fn4 8143   5.196   3.134   4.909 -0.0570  0.1614 -0.1318
 1155ntf    fn4 8144   5.077   3.221   5.054 -0.2327  0.3479  0.3763
 1155ntf    fn4 8145   5.219   3.085   5.123  0.5224 -0.6249 -0.2404
 1156ntf    cn1 8146   3.077   4.410   5.558 -0.3177  0.6190 -0.3431
 1156ntf    sn2 8147   3.199   4.500   5.658  0.0479 -0.3190  0.0729
 1156ntf    nn3 8148   3.180   4.422   5.793 -0.6279 -0.1497  0.0798
 1156ntf    sn2 8149   3.253   4.291   5.837 -0.0429 -0.0252 -0.5051
 1156ntf    cn1 8150   3.384   4.361   5.942 -0.0764 -0.3535 -0.2403
 1156ntf    fn4 8151   3.061   4.470   5.441  0.6188  0.5441 -0.5189
 1156ntf    fn4 8152   3.109   4.283   5.538 -0.3186  0.5557  0.0620
 1156ntf    fn4 8153   2.952   4.409   5.602 -0.2615 -0.3923 -0.1795
 1156ntf    on5 8154   3.322   4.487   5.584 -0.2015  0.2014 -0.4485
 1156ntf    on5 8155   3.149   4.635   5.671  0.1425 -0.2532 -0.2266
 1156ntf    on5 8156   3.168   4.210   5.921  0.1717 -0.2613 -0.5118
 1156ntf    on5 8157   3.325   4.227   5.730  0.1877 -0.7049  0.0456
 1156ntf    fn4 8158   3.449   4.268   6.009  0.2679 -0.0496 -0.1451
 1156ntf    fn4 8159   3.331   4.446   6.029  0.1689 -0.2091 -0.2303
 1156ntf    fn4 8160   3.465   4.427   5.861  0.0607 -0.1291  0.0764
 1157ntf    cn1 8161   5.550   2.101   1.895  0.3219 -0.0905 -0.3353
 1157ntf    sn2 8162   5.495   1.998   2.034  0.9622 -0.0820 -0.0762
 1157ntf    nn3 8163   5.619   1.901   2.044  0.7323 -0.4224 -0.5414
 1157ntf    sn2 8164   5.710   1.868   2.166 -0.0635 -0.1364  0.1398
 1157ntf    cn1 8165   5.666   1.694   2.195  0.0881 -0.2134 -0.0933
 1157ntf    fn4 8166   5.637   2.194   1.930 -0.2967  0.4033 -0.0814
 1157ntf    fn4 8167   5.614   2.029   1.805  0.3643 -0.7127  0.1901
 1157ntf    fn4 8168   5.449   2.168   1.841 -0.1565 -0.1849  0.4238
 1157ntf    on5 8169   5.473   2.093   2.140  0.1433 -0.0131 -0.3018
 1157ntf    on5 8170   5.373   1.945   1.979  0.5103  0.5371  0.3230
 1157ntf    on5 8171   5.849   1.857   2.128 -0.0958 -0.1723  0.0334
 1157ntf    on5 8172   5.678   1.938   2.288 -0.2698 -0.0370  0.0284
 1157ntf    fn4 8173   5.741   1.633   2.285 -0.2224 -0.1810  0.1876
 1157ntf    fn4 8174   5.680   1.620   2.086 -0.1768  0.1248 -0.3612
 1157ntf    fn4 8175   5.541   1.682   2.235  0.0732  0.0604 -0.0578
 1158ntf    cn1 8176   1.116   6.278   6.458 -0.4224  0.3504  0.4345
 1158ntf    sn2 8177   1.134   6.164   6.598  0.0315 -0.0205  0.0752
 1158ntf    nn3 8178   0.994   6.187   6.664  0.2709  0.1591  0.5258
 1158ntf    sn2 8179   0.954   6.194   6.816 -0.1587  0.1329  0.4175
 1158ntf    cn1 8180   0.964   6.375   6.832  0.0455  0.1557  0.0532
 1158ntf    fn4 8181   1.120   6.404   6.498 -0.8506  0.5967 -0.2846
 1158ntf    fn4 8182   1.205   6.252   6.363 -0.0850  0.2041  0.7896
 1158ntf    fn4 8183   0.995   6.273   6.405  0.0546  0.4539 -0.6907
 1158ntf    on5 8184   1.150   6.033   6.538 -0.8118 -0.5341  0.9372
 1158ntf    on5 8185   1.237   6.218   6.683 -0.2781  0.3390  0.2262
 1158ntf    on5 8186   0.813   6.170   6.832 -0.1326  0.0134  0.4643
 1158ntf    on5 8187   1.043   6.139   6.915  0.5000  0.5119  0.0442
 1158ntf    fn4 8188   0.887   6.434   6.742 -0.5309 -0.4460  0.1452
 1158ntf    fn4 8189   1.081   6.436   6.818 -0.0546  0.3635  0.1146
 1158ntf    fn4 8190   0.928   6.417   6.952  0.1798  0.3925  0.0127
 1159ntf    cn1 8191   3.573   0.432   3.185 -0.0777  0.3019  0.0245
 1159ntf    sn2 8192   3.641   0.371   3.342  0.2296  0.1327 -0.1738
 1159ntf    nn3 8193   3.603   0.487   3.440 -0.6755 -0.2848 -0.0192
 1159ntf    sn2 8194   3.649   0.478   3.590  0.0011  0.1604 -0.1949
 1159ntf    cn1 8195   3.495   0.432   3.674 -0.1907  0.0913 -0.5827
 1159ntf    fn4 8196   3.455   0.492   3.189 -0.5165 -0.5828  0.5530
 1159ntf    fn4 8197   3.658   0.506   3.116 -0.3498  0.1152 -0.5184
 1159ntf    fn4 8198   3.540   0.325   3.115 -0.1378 -0.1892  0.8060
 1159ntf    on5 8199   3.567   0.250   3.367 -0.5740  0.7305  0.3931
 1159ntf    on5 8200   3.783   0.355   3.320  0.3400 -0.0182  0.6190
 1159ntf    on5 8201   3.738   0.372   3.631  0.3644  0.2574 -0.7222
 1159ntf    on5 8202   3.672   0.613   3.634  0.2916 -0.2214  0.8720
 1159ntf    fn4 8203   3.453   0.309   3.650  0.1455 -0.2633  0.5729
 1159ntf    fn4 8204   3.397   0.506   3.625  0.1192  0.6341 -0.3903
 1159ntf    fn4 8205   3.503   0.457   3.804  0.5021 -0.2792 -0.5527
 1160ntf    cn1 8206   6.736   5.602   6.017  0.0062 -0.5897 -0.3370
 1160ntf    sn2 8207   6.562   5.548   6.026 -0.1375 -0.1399 -0.3359
 1160ntf    nn3 8208   6.528   5.597   5.881 -0.3782  0.0138 -0.2273
 1160ntf    sn2 8209   6.477   5.498   5.769 -0.1703 -0.3723  0.0158
 1160ntf    cn1 8210   6.327   5.587   5.718 -0.4967 -0.6288  0.5143
 1160ntf    fn4 8211   6.787   5.542   5.912  0.2297 -0.2569 -0.4196
 1160ntf    fn4 8212   6.742   5.730   5.984 -0.5113 -0.3559  0.4207
 1160ntf    fn4 8213   6.805   5.587   6.129 -0.3862  0.1046  0.0101
 1160ntf    on5 8214   6.583   5.406   6.046  0.2006 -0.0654 -0.1435
 1160ntf    on5 8215   6.509   5.629   6.132  0.2153  0.2650 -0.4623
 1160ntf    on5 8216   6.556   5.487   5.649 -0.3243  0.7952 -0.2055
 1160ntf    on5 8217   6.419   5.374   5.813 -0.2611 -0.3846 -0.1386
 1160ntf    fn4 8218   6.304   5.572   5.589  0.2731 -0.6495  0.3775
 1160ntf    fn4 8219   6.338   5.719   5.731  0.2077 -0.6049 -0.2778
 1160ntf    fn4 8220   6.216   5.553   5.781 -0.9739 -0.3561 -0.1660
 1161ntf    cn1 8221   5.554   3.093   5.524  0.1346  0.0330 -0.1747
 1161ntf    sn2 8222   5.646   2.955   5.598  0.2149  0.2022  0.0453
 1161ntf    nn3 8223   5.761   3.020   5.683 -0.0419  0.3634  0.2702
 1161ntf    sn2 8224   5.840   2.954   5.801  0.2074  0.1806  0.0025
 1161ntf    cn1 8225   5.753   3.027   5.943 -0.0193 -0.1764  0.0484
 1161ntf    fn4 8226   5.522   3.190   5.608  0.1411  0.0533 -0.1956
 1161ntf    fn4 8227   5.622   3.148   5.425  0.5631 -0.4292 -0.1419
 1161ntf    fn4 8228   5.432   3.065   5.480 -0.1122  0.3229  0.3087
 1161ntf    on5 8229   5.551   2.883   5.680  0.3239 -0.1115 -0.1003
 1161ntf    on5 8230   5.695   2.888   5.480  0.4523 -0.0073  0.2629
 1161ntf    on5 8231   5.823   2.813   5.822 -0.3032  0.3117  0.4990
 1161ntf    on5 8232   5.967   3.019   5.817  0.1127  0.2940  0.3040
 1161ntf    fn4 8233   5.623   3.033   5.918 -0.1201 -0.2304  0.5372
 1161ntf    fn4 8234   5.796   3.152   5.953  0.0291 -0.1963  0.0904
 1161ntf    fn4 8235   5.782   2.970   6.059  0.2641  0.1027  0.1156
 1162ntf    cn1 8236   0.224   2.951   2.288  0.0396 -0.3013  0.3943
 1162ntf    sn2 8237   0.111   3.094   2.280  0.0453 -0.3244 -0.1194
 1162ntf    nn3 8238  -0.025   3.017   2.268 -0.5331  0.5401  0.7407
 1162ntf    sn2 8239  -0.154   3.063   2.190 -0.0522  0.5601 -0.0509
 1162ntf    cn1 8240  -0.147   2.994   2.022  0.2309  0.2788  0.0743
 1162ntf    fn4 8241   0.213   2.895   2.407 -0.2261  0.6982  0.8549
 1162ntf    fn4 8242   0.205   2.861   2.193 -0.7824 -0.0505  0.3111
 1162ntf    fn4 8243   0.350   2.992   2.281 -0.1666  0.2820 -0.0313
 1162ntf    on5 8244   0.116   3.167   2.404 -0.1115  0.2050 -0.4236
 1162ntf    on5 8245   0.163   3.164   2.166 -0.3347 -0.2736 -0.2640
 1162ntf    on5 8246  -0.266   2.991   2.245  0.0089 -0.3369 -1.0718
 1162ntf    on5 8247  -0.155   3.206   2.172 -0.1278  0.5903  0.1902
 1162ntf    fn4 8248  -0.236   3.039   1.936 -0.0319 -0.5806 -0.1196
 1162ntf    fn4 8249  -0.156   2.862   2.027  0.5121  0.2556 -0.0636
 1162ntf    fn4 8250  -0.028   3.011   1.968  0.6412  0.2154  0.9487
 1163ntf    cn1 8251   2.406   3.774   3.711 -0.4019  0.0833 -0.1154
 1163ntf    sn2 8252   2.328   3.932   3.758  0.1619  0.3269  0.0159
 1163ntf    nn3 8253   2.359   4.020   3.631  0.2446 -0.0198 -0.2062
 1163ntf    sn2 8254   2.294   4.024   3.489 -0.0830 -0.1803 -0.0607
 1163ntf    cn1 8255   2.423   3.983   3.368 -0.3384  0.1362 -0.4429
 1163ntf    fn4 8256   2.526   3.797   3.660 -0.5083  0.6979 -0.0986
 1163ntf    fn4 8257   2.413   3.704   3.823 -0.7439 -0.1591 -0.2445
 1163ntf    fn4 8258   2.340   3.697   3.626  0.5137 -0.1334 -0.6398
 1163ntf    on5 8259   2.187   3.910   3.778  0.1547  0.4305  0.0795
 1163ntf    on5 8260   2.413   3.968   3.868 -0.0179  0.1168  0.2239
 1163ntf    on5 8261   2.197   3.919   3.469 -0.0676 -0.2381  0.1681
 1163ntf    on5 8262   2.263   4.159   3.452 -0.0115 -0.2203 -0.2697
 1163ntf    fn4 8263   2.387   4.001   3.242 -0.2368 -0.5682 -0.5783
 1163ntf    fn4 8264   2.455   3.855   3.385 -0.0141  0.3363  0.5093
 1163ntf    fn4 8265   2.536   4.049   3.388 -0.3955 -0.0086  0.3931
 1164ntf    cn1 8266   3.601   4.466   3.596 -0.1154  0.2505  0.3763
 1164ntf    sn2 8267   3.520   4.605   3.511  0.1675  0.0743 -0.1901
 1164ntf    nn3 8268   3.473   4.533   3.380  0.1484 -0.2219 -0.0205
 1164ntf    sn2 8269   3.338   4.457   3.350 -0.2669  0.3830  0.3006
 1164ntf    cn1 8270   3.276   4.585   3.237 -0.0147  0.4206  0.2034
 1164ntf    fn4 8271   3.699   4.414   3.523 -0.5269 -0.3248  0.2224
 1164ntf    fn4 8272   3.653   4.503   3.711  0.1757 -0.2365  0.4061
 1164ntf    fn4 8273   3.526   4.361   3.623  0.0168  0.1530  0.3640
 1164ntf    on5 8274   3.423   4.659   3.603  0.3451  0.6420 -0.3296
 1164ntf    on5 8275   3.627   4.700   3.494 -0.1617  0.3239 -0.8680
 1164ntf    on5 8276   3.353   4.343   3.264 -0.1063  0.7362 -0.1400
 1164ntf    on5 8277   3.245   4.449   3.461  0.2302  0.2631  0.7152
 1164ntf    fn4 8278   3.277   4.712   3.274 -0.4330  0.5664 -0.2724
 1164ntf    fn4 8279   3.150   4.560   3.204 -0.1376  0.8403  0.3522
 1164ntf    fn4 8280   3.326   4.568   3.116  0.1085  0.1832  0.2860
 1165ntf    cn1 8281   5.794   0.773   5.189  0.1426 -0.3917 -0.0247
 1165ntf    sn2 8282   5.960   0.832   5.234  0.0416  0.0966 -0.2771
 1165ntf    nn3 8283   5.957   0.777   5.381  0.3748  0.3059 -0.1925
 1165ntf    sn2 8284   6.087   0.732   5.457 -0.2770 -0.8431  0.2552
 1165ntf    cn1 8285   6.033   0.561   5.489 -0.2181 -0.9178 -0.0446
 1165ntf    fn4 8286   5.759   0.814   5.068  0.2822  0.0695  0.0873
 1165ntf    fn4 8287   5.795   0.642   5.177 -0.0111 -0.3853 -0.1211
 1165ntf    fn4 8288   5.696   0.810   5.270  0.1082  0.3926 -0.4065
 1165ntf    on5 8289   6.047   0.760   5.145 -0.1820 -0.5485  0.0147
 1165ntf    on5 8290   5.940   0.972   5.204  0.1677  0.1659 -0.0424
 1165ntf    on5 8291   6.212   0.704   5.390  0.0752 -0.4520  0.7442
 1165ntf    on5 8292   6.099   0.788   5.589 -0.5830 -0.0445 -0.0498
 1165ntf    fn4 8293   6.123   0.478   5.537  0.0969 -0.3133  0.4127
 1165ntf    fn4 8294   5.986   0.508   5.377  0.1668 -1.0580 -0.1401
 1165ntf    fn4 8295   5.930   0.559   5.573  0.2579 -0.2709  0.5642
 1166ntf    cn1 8296   1.382   0.677   4.495 -0.2276  0.1321  0.4647
 1166ntf    sn2 8297   1.468   0.818   4.571 -0.0816  0.3700 -0.1338
 1166ntf    nn3 8298   1.407   0.802   4.715 -0.1716 -0.1438 -0.2265
 1166ntf    sn2 8299   1.277   0.865   4.776  0.1311  0.2294  0.0328
 1166ntf    cn1 8300   1.326   1.036   4.816  0.6492  0.0360  0.2329
 1166ntf    fn4 8301   1.436   0.641   4.379 -0.3275  0.1301  0.4185
 1166ntf    fn4 8302   1.386   0.559   4.554  0.2706  0.0433  0.2588
 1166ntf    fn4 8303   1.255   0.706   4.471 -0.1980  0.1768  0.3604
 1166ntf    on5 8304   1.606   0.778   4.560 -0.2920 -0.3955 -0.0475
 1166ntf    on5 8305   1.422   0.933   4.497  0.1533 -0.0731 -0.9888
 1166ntf    on5 8306   1.167   0.878   4.684  0.5123  0.2961 -0.4148
 1166ntf    on5 8307   1.255   0.816   4.910  0.8327  0.7907  0.3606
 1166ntf    fn4 8308   1.233   1.092   4.891  0.2897 -0.1557 -0.0606
 1166ntf    fn4 8309   1.344   1.117   4.713 -0.3253 -0.0040  0.0217
 1166ntf    fn4 8310   1.440   1.034   4.883  0.5848  0.0359  0.3425
 1167ntf    cn1 8311   0.288   3.279   1.355  0.0339  0.0778 -0.0635
 1167ntf    sn2 8312   0.156   3.362   1.448  0.2567 -0.0907  0.4057
 1167ntf    nn3 8313   0.206   3.367   1.596  0.2897 -0.0744  0.3940
 1167ntf    sn2 8314   0.116   3.329   1.719  0.2774  0.0190  0.4143
 1167ntf    cn1 8315   0.013   3.478   1.729 -0.3194 -0.3417 -0.2547
 1167ntf    fn4 8316   0.267   3.263   1.225  1.3743  0.3526 -0.3353
 1167ntf    fn4 8317   0.395   3.356   1.368  0.5022 -0.5064 -0.3947
 1167ntf    fn4 8318   0.326   3.163   1.405 -0.3713  0.1620  0.4494
 1167ntf    on5 8319   0.152   3.493   1.387  0.2521 -0.4515 -0.3813
 1167ntf    on5 8320   0.042   3.280   1.414  0.6482 -0.6675  0.4775
 1167ntf    on5 8321   0.024   3.218   1.705 -0.1326  0.4160 -0.0412
 1167ntf    on5 8322   0.185   3.331   1.846 -0.0630 -0.9017  0.6246
 1167ntf    fn4 8323  -0.034   3.518   1.612  0.1545 -0.3249 -0.4436
 1167ntf    fn4 8324   0.093   3.575   1.772 -0.3530 -0.5450  0.2730
 1167ntf    fn4 8325  -0.091   3.465   1.809 -0.1213  0.8403  0.2174
 1168ntf    cn1 8326   0.822   2.805   1.826 -0.0119  0.0369  0.4307
 1168ntf    sn2 8327   0.852   2.786   2.004  0.3618  0.0860  0.3728
 1168ntf    nn3 8328   0.994   2.848   2.027  0.3506  0.4470 -0.4897
 1168ntf    sn2 8329   1.035   2.960   2.130 -0.0544  0.0794  0.0769
 1168ntf    cn1 8330   0.939   3.096   2.058  0.2220  0.1134 -0.2313
 1168ntf    fn4 8331   0.923   2.759   1.754 -0.4838  0.0228 -0.2438
 1168ntf    fn4 8332   0.730   2.718   1.785 -0.3164  0.0704  1.0330
 1168ntf    fn4 8333   0.794   2.927   1.784 -0.2264  0.0231  0.5327
 1168ntf    on5 8334   0.742   2.864   2.056  0.5219  0.5058  0.0861
 1168ntf    on5 8335   0.846   2.643   2.021  0.1252  0.0346 -0.1328
 1168ntf    on5 8336   0.996   2.957   2.269 -0.0961 -0.0719  0.0623
 1168ntf    on5 8337   1.169   3.006   2.105 -0.1341  0.1639 -0.1976
 1168ntf    fn4 8338   0.822   3.127   2.113  0.2973  0.1350 -0.0848
 1168ntf    fn4 8339   0.909   3.082   1.929 -0.0220 -1.1613 -0.0509
 1168ntf    fn4 8340   1.009   3.207   2.070 -0.1070  0.3099 -0.1036
 1169ntf    cn1 8341   5.644   0.521   0.393  0.0365  0.1523 -0.1431
 1169ntf    sn2 8342   5.490   0.433   0.352  0.1599  0.0853 -0.4635
 1169ntf    nn3 8343   5.479   0.452   0.196 -0.5244 -0.1508 -0.4510
 1169ntf    sn2 8344   5.408   0.571   0.122  0.2081  0.3132 -0.4294
 1169ntf    cn1 8345   5.242   0.500   0.098  0.3651 -0.2913  0.2330
 1169ntf    fn4 8346   5.743   0.497   0.308 -0.2616 -0.5208 -0.3106
 1169ntf    fn4 8347   5.609   0.649   0.396 -0.4613  0.0211 -0.1339
 1169ntf    fn4 8348   5.684   0.491   0.515 -0.2605 -0.5494 -0.2121
 1169ntf    on5 8349   5.535   0.306   0.401  0.6549  0.1646 -0.7054
 1169ntf    on5 8350   5.390   0.491   0.438 -0.0997 -0.4035 -0.4326
 1169ntf    on5 8351   5.393   0.693   0.198 -0.2513 -0.0704  0.1135
 1169ntf    on5 8352   5.464   0.580  -0.010  0.5237  0.4312 -0.2891
 1169ntf    fn4 8353   5.151   0.581   0.046  0.3685 -0.5503 -0.1787
 1169ntf    fn4 8354   5.188   0.461   0.213 -0.4828  0.5432  0.1349
 1169ntf    fn4 8355   5.240   0.395   0.018 -0.4261  0.0980 -0.2779
 1170ntf    cn1 8356   6.086   2.546   5.055 -0.1819  0.5129  0.0431
 1170ntf    sn2 8357   5.986   2.580   4.907 -0.1880  0.3928  0.0194
 1170ntf    nn3 8358   5.907   2.702   4.966  0.0504  0.7863 -0.4691
 1170ntf    sn2 8359   5.761   2.705   5.024  0.1377  0.4974 -0.2349
 1170ntf    cn1 8360   5.723   2.877   4.979  0.3375  0.6192  0.0573
 1170ntf    fn4 8361   6.173   2.643   5.076  0.0880  0.1826  0.4841
 1170ntf    fn4 8362   6.018   2.529   5.168 -0.5128  0.3940 -0.1748
 1170ntf    fn4 8363   6.166   2.441   5.039 -0.0741  0.5713  0.1899
 1170ntf    on5 8364   6.081   2.606   4.801 -0.1772 -0.1203 -0.0961
 1170ntf    on5 8365   5.909   2.459   4.898  0.3791 -0.0112  0.5237
 1170ntf    on5 8366   5.667   2.633   4.941  0.4237 -0.5293  0.3113
 1170ntf    on5 8367   5.755   2.714   5.168 -0.6358  0.4932 -0.2622
 1170ntf    fn4 8368   5.700   2.905   4.852 -0.0396 -0.5323 -0.1400
 1170ntf    fn4 8369   5.830   2.950   5.005  0.1588  0.8787  0.0679
 1170ntf    fn4 8370   5.618   2.929   5.041 -0.1635  0.2265 -0.4455
 1171ntf    cn1 8371   1.205   3.316   5.545 -0.3813  0.1463 -0.1164
 1171ntf    sn2 8372   1.200   3.314   5.727  0.2886  0.0395 -0.0976
 1171ntf    nn3 8373   1.327   3.229   5.761  0.1813 -0.0964 -0.0397
 1171ntf    sn2 8374   1.473   3.268   5.804  0.1208  0.2087 -0.1150
 1171ntf    cn1 8375   1.498   3.142   5.932 -0.1115  0.1714 -0.1049
 1171ntf    fn4 8376   1.282   3.222   5.494  0.2524  0.1786  0.7575
 1171ntf    fn4 8377   1.082   3.300   5.497 -0.5942  0.1621  0.4071
 1171ntf    fn4 8378   1.255   3.429   5.500  0.0747 -0.1486 -0.3475
 1171ntf    on5 8379   1.204   3.449   5.778  0.2559  0.1790 -0.4615
 1171ntf    on5 8380   1.092   3.232   5.775  0.5204 -0.2916 -0.1375
 1171ntf    on5 8381   1.561   3.224   5.698  0.2526  0.5192 -0.1344
 1171ntf    on5 8382   1.485   3.395   5.871 -0.1316 -0.0221  0.3689
 1171ntf    fn4 8383   1.502   3.019   5.884  0.3323  0.4232 -0.7233
 1171ntf    fn4 8384   1.397   3.142   6.017 -0.1190 -0.4713 -0.1158
 1171ntf    fn4 8385   1.609   3.168   6.000  0.1678 -0.7990 -0.1855
 1172ntf    cn1 8386   2.882   5.351   5.729 -0.4450 -0.1312 -0.1095
 1172ntf    sn2 8387   2.989   5.432   5.852 -0.2416  0.0120 -0.3807
 1172ntf    nn3 8388   2.998   5.577   5.793  0.3106  0.1203 -0.0340
 1172ntf    sn2 8389   2.919   5.710   5.821  0.1029  0.0162 -0.1294
 1172ntf    cn1 8390   3.047   5.815   5.895  0.3998 -0.3301 -0.1494
 1172ntf    fn4 8391   2.943   5.324   5.615  0.5832 -0.1126  0.4247
 1172ntf    fn4 8392   2.840   5.233   5.772 -0.2638 -0.0648  0.2511
 1172ntf    fn4 8393   2.774   5.419   5.695 -0.4413 -0.0971 -0.0536
 1172ntf    on5 8394   2.913   5.418   5.974 -0.9036 -0.0247 -0.7892
 1172ntf    on5 8395   3.113   5.358   5.845 -0.0901  0.2711 -0.4522
 1172ntf    on5 8396   2.894   5.778   5.696  0.3126 -0.9879 -0.7306
 1172ntf    on5 8397   2.820   5.712   5.926 -0.4592  0.2991 -0.6561
 1172ntf    fn4 8398   3.023   5.943   5.871  0.6433 -0.3686 -0.6256
 1172ntf    fn4 8399   3.167   5.793   5.843  0.6157  0.3538  0.0513
 1172ntf    fn4 8400   3.054   5.794   6.025 -0.3763  0.3477  0.0107
 1173ntf    cn1 8401   6.792   4.934   5.510 -0.0192 -0.5346 -0.2217
 1173ntf    sn2 8402   6.753   5.084   5.606  0.1607 -0.4485 -0.2836
 1173ntf    nn3 8403   6.798   5.038   5.749  0.9132  0.4060 -0.2363
 1173ntf    sn2 8404   6.727   5.049   5.888  0.0551 -0.3229 -0.6019
 1173ntf    cn1 8405   6.828   5.179   5.965 -0.0818 -0.3541 -0.3697
 1173ntf    fn4 8406   6.714   4.831   5.539 -0.2802 -0.3091 -0.1102
 1173ntf    fn4 8407   6.788   4.962   5.381  0.9787  0.1600 -0.1095
 1173ntf    fn4 8408   6.909   4.891   5.554 -0.2493 -0.3524  0.5980
 1173ntf    on5 8409   6.843   5.180   5.547 -0.3569  0.3219  0.1638
 1173ntf    on5 8410   6.612   5.106   5.587  0.2800  0.2565 -0.3966
 1173ntf    on5 8411   6.590   5.091   5.874  0.1044  0.2605  0.4969
 1173ntf    on5 8412   6.756   4.932   5.967  0.2242  0.5606  0.6882
 1173ntf    fn4 8413   6.829   5.293   5.897  0.1399 -0.3377 -0.3415
 1173ntf    fn4 8414   6.956   5.143   5.961  0.0965  0.2949 -0.6944
 1173ntf    fn4 8415   6.800   5.198   6.093  0.1775  0.2367 -0.3948
 1174ntf    cn1 8416   3.559   1.339   1.948  0.0650 -0.1066 -0.0543
 1174ntf    sn2 8417   3.631   1.235   2.078 -0.3528  0.1030  0.3501
 1174ntf    nn3 8418   3.598   1.091   2.025  0.0967  0.0120  0.3118
 1174ntf    sn2 8419   3.660   0.949   2.049  0.0086 -0.0949 -0.0918
 1174ntf    cn1 8420   3.767   0.943   1.902  0.4234 -0.3204  0.2167
 1174ntf    fn4 8421   3.566   1.467   1.983  0.5931 -0.0489 -0.3515
 1174ntf    fn4 8422   3.614   1.338   1.828 -0.6268 -0.1473 -0.3735
 1174ntf    fn4 8423   3.432   1.308   1.930  0.1902 -0.4699 -0.3251
 1174ntf    on5 8424   3.769   1.273   2.058 -0.4607  0.1863 -0.2632
 1174ntf    on5 8425   3.563   1.283   2.195 -0.4524  0.3124  0.2064
 1174ntf    on5 8426   3.751   0.942   2.160 -0.3871 -0.7384  0.1976
 1174ntf    on5 8427   3.559   0.850   2.018 -0.8513  0.6365  0.3491
 1174ntf    fn4 8428   3.745   0.832   1.834  0.2558 -0.0297 -0.2090
 1174ntf    fn4 8429   3.894   0.964   1.934  0.3790  0.5324 -0.1414
 1174ntf    fn4 8430   3.729   1.040   1.821 -0.2956 -0.4446  0.4016
 1175ntf    cn1 8431   1.990   5.581   5.750  0.3374  0.1108 -0.0960
 1175ntf    sn2 8432   2.164   5.528   5.738  0.2820 -0.0613 -0.1284
 1175ntf    nn3 8433   2.159   5.435   5.864  0.2181 -0.3977 -0.3751
 1175ntf    sn2 8434   2.112   5.287   5.886 -0.1455 -0.2207  0.0583
 1175ntf    cn1 8435   2.015   5.302   6.039 -0.0121  0.0320  0.1184
 1175ntf    fn4 8436   1.959   5.645   5.861 -0.4388  0.3499 -0.4430
 1175ntf    fn4 8437   1.954   5.661   5.650  0.0787  0.4553  0.2726
 1175ntf    fn4 8438   1.901   5.485   5.737  0.2799  0.1175  0.2430
 1175ntf    on5 8439   2.179   5.451   5.616 -0.1514 -0.3397 -0.0117
 1175ntf    on5 8440   2.255   5.639   5.742  0.3946 -0.1327 -0.6087
 1175ntf    on5 8441   2.014   5.239   5.792 -0.7549  0.3349  0.4005
 1175ntf    on5 8442   2.220   5.197   5.921 -0.4422 -0.3045  0.7780
 1175ntf    fn4 8443   1.930   5.404   6.036  0.0408  0.0811  0.3185
 1175ntf    fn4 8444   2.101   5.326   6.137  0.4369  0.2848 -0.3324
 1175ntf    fn4 8445   1.941   5.196   6.070 -0.4195  0.1096 -0.5684
 1176ntf    cn1 8446   6.747   5.167   2.537 -0.5405 -0.4010  0.1785
 1176ntf    sn2 8447   6.747   5.024   2.425  0.4354 -0.5497  0.3657
 1176ntf    nn3 8448   6.830   4.921   2.510 -0.4579 -0.8135  0.9260
 1176ntf    sn2 8449   6.869   4.775   2.466 -0.1149 -0.4577  0.0277
 1176ntf    cn1 8450   6.892   4.704   2.632  0.4071 -0.1051  0.1097
 1176ntf    fn4 8451   6.776   5.276   2.468  0.6867 -0.8655 -0.0544
 1176ntf    fn4 8452   6.628   5.180   2.594 -0.6066  0.3335 -0.1133
 1176ntf    fn4 8453   6.828   5.158   2.641 -0.1852 -0.5038 -0.1052
 1176ntf    on5 8454   6.607   4.991   2.426  0.2663  0.1200 -0.4154
 1176ntf    on5 8455   6.807   5.067   2.301  0.5002  0.4242  0.7307
 1176ntf    on5 8456   6.754   4.705   2.416 -0.5802  0.1777  0.1983
 1176ntf    on5 8457   6.991   4.754   2.393 -0.1155  0.2400 -0.1880
 1176ntf    fn4 8458   6.941   4.581   2.621  0.3988 -0.1267  0.3142
 1176ntf    fn4 8459   6.789   4.692   2.714  0.2358 -0.3933 -0.1489
 1176ntf    fn4 8460   6.980   4.764   2.711  0.2015 -0.0974  0.3316
 1177ntf    cn1 8461   0.949   0.396   3.769  0.3346  0.2774 -0.1467
 1177ntf    sn2 8462   0.926   0.435   3.593 -0.0441  0.3673 -0.0793
 1177ntf    nn3 8463   1.028   0.335   3.528 -0.1607  0.4174 -0.3428
 1177ntf    sn2 8464   1.065   0.329   3.376 -0.0807  0.2009 -0.3155
 1177ntf    cn1 8465   1.231   0.400   3.398  0.1603 -0.4515  0.0178
 1177ntf    fn4 8466   0.902   0.480   3.860 -0.2869 -0.3492  0.1179
 1177ntf    fn4 8467   0.891   0.282   3.802  1.2235 -0.2397 -0.3443
 1177ntf    fn4 8468   1.078   0.375   3.789  0.3338 -0.5105 -0.9063
 1177ntf    on5 8469   0.788   0.396   3.577 -0.1669 -0.1942  2.0071
 1177ntf    on5 8470   0.958   0.575   3.592 -0.1483  0.3925  0.0832
 1177ntf    on5 8471   1.103   0.199   3.326  0.2237  0.2778 -0.2907
 1177ntf    on5 8472   0.995   0.418   3.287  0.2374  0.1459 -0.6277
 1177ntf    fn4 8473   1.220   0.513   3.467 -0.2975 -0.1149 -0.5934
 1177ntf    fn4 8474   1.307   0.412   3.290  0.9032 -0.1846  0.5677
 1177ntf    fn4 8475   1.284   0.313   3.482 -0.4863 -0.8275  0.0416
 1178ntf    cn1 8476   4.458   0.489   1.636 -0.0448  0.1728  0.1646
 1178ntf    sn2 8477   4.532   0.324   1.619 -0.3844  0.0555 -0.1862
 1178ntf    nn3 8478   4.520   0.313   1.463  0.1715 -0.7210 -0.1789
 1178ntf    sn2 8479   4.617   0.346   1.344  0.3185 -0.0243  0.1319
 1178ntf    cn1 8480   4.660   0.173   1.307  0.3154  0.0559 -0.2463
 1178ntf    fn4 8481   4.455   0.536   1.759 -0.4372  0.6169 -0.0109
 1178ntf    fn4 8482   4.520   0.574   1.555 -0.2207 -0.2129 -0.3757
 1178ntf    fn4 8483   4.331   0.480   1.600  0.0160 -1.1091  0.2421
 1178ntf    on5 8484   4.664   0.354   1.668 -0.5050  0.3201 -0.0201
 1178ntf    on5 8485   4.442   0.243   1.697  0.4074 -0.0998  0.5737
 1178ntf    on5 8486   4.545   0.384   1.225 -0.2182  0.2141  0.5257
 1178ntf    on5 8487   4.740   0.417   1.372  0.6926 -0.6668  0.1407
 1178ntf    fn4 8488   4.746   0.127   1.396 -0.0281  0.1998  0.1606
 1178ntf    fn4 8489   4.708   0.152   1.185  0.4871 -0.4787 -0.0870
 1178ntf    fn4 8490   4.562   0.087   1.325 -0.2471  0.6553 -0.3838
 1179ntf    cn1 8491   3.408   5.907   4.711  0.2316  0.4043 -0.2838
 1179ntf    sn2 8492   3.561   5.864   4.800 -0.1322  0.2035  0.2446
 1179ntf    nn3 8493   3.653   5.821   4.681  0.4886  0.0041  0.7907
 1179ntf    sn2 8494   3.767   5.899   4.607  0.1698 -0.0287  0.2596
 1179ntf    cn1 8495   3.732   5.835   4.441  0.6224  0.0265  0.1425
 1179ntf    fn4 8496   3.369   5.807   4.634  0.7621  0.2296 -0.3335
 1179ntf    fn4 8497   3.308   5.934   4.793  0.3004 -0.4061  0.0774
 1179ntf    fn4 8498   3.416   5.993   4.611  0.0842 -0.0915 -0.7307
 1179ntf    on5 8499   3.598   5.988   4.865 -0.2474  0.2221  0.2777
 1179ntf    on5 8500   3.530   5.749   4.881  0.1314  0.0414  0.1116
 1179ntf    on5 8501   3.762   6.043   4.597  0.7078 -0.0013  0.3368
 1179ntf    on5 8502   3.900   5.849   4.628  0.4097  0.5059  0.0406
 1179ntf    fn4 8503   3.735   5.703   4.436 -0.5294  0.0008 -0.1514
 1179ntf    fn4 8504   3.830   5.876   4.361  0.3652  0.1690 -0.0991
 1179ntf    fn4 8505   3.615   5.873   4.393  0.6764  0.0249  0.0088
 1180ntf    cn1 8506   3.263   1.351   1.055  0.3794  0.0359  0.3063
 1180ntf    sn2 8507   3.389   1.233   0.997  0.1240 -0.0123 -0.1522
 1180ntf    nn3 8508   3.423   1.295   0.857  0.6630 -0.5268 -0.2530
 1180ntf    sn2 8509   3.369   1.257   0.714 -0.0771 -0.0375 -0.1106
 1180ntf    cn1 8510   3.321   1.424   0.659 -0.5415 -0.1772 -0.1279
 1180ntf    fn4 8511   3.149   1.338   0.990  0.3473  0.7513  0.2088
 1180ntf    fn4 8512   3.228   1.333   1.181 -0.1164  0.1237  0.1828
 1180ntf    fn4 8513   3.293   1.480   1.052  0.2517  0.0512 -0.7305
 1180ntf    on5 8514   3.491   1.254   1.096  0.3997 -0.6676 -0.2907
 1180ntf    on5 8515   3.322   1.105   0.994  0.3748 -0.1332 -0.6286
 1180ntf    on5 8516   3.474   1.216   0.624 -0.2702  0.3486 -0.5186
 1180ntf    on5 8517   3.242   1.189   0.712  0.5223 -1.1594 -0.5499
 1180ntf    fn4 8518   3.228   1.473   0.740  0.1339  0.4291  0.2905
 1180ntf    fn4 8519   3.274   1.431   0.536 -0.2190 -0.4101 -0.2642
 1180ntf    fn4 8520   3.420   1.510   0.669 -0.9706  0.2961  0.1069
 1181ntf    cn1 8521   2.696   3.366   4.432  0.2339 -0.0028 -0.3998
 1181ntf    sn2 8522   2.675   3.197   4.497 -0.3230  0.2664  0.1370
 1181ntf    nn3 8523   2.670   3.238   4.648 -0.3187 -0.6910  0.4074
 1181ntf    sn2 8524   2.787   3.271   4.748 -0.2834 -0.1835  0.2053
 1181ntf    cn1 8525   2.746   3.151   4.878 -0.3032 -0.1718  0.2097
 1181ntf    fn4 8526   2.805   3.428   4.473 -0.0206  0.2230 -0.0553
 1181ntf    fn4 8527   2.697   3.375   4.300 -0.6631 -0.0118 -0.4164
 1181ntf    fn4 8528   2.592   3.434   4.477 -0.0175 -0.4333 -0.3147
 1181ntf    on5 8529   2.551   3.153   4.439  0.0972 -0.7585 -0.0056
 1181ntf    on5 8530   2.790   3.123   4.450 -0.1920  0.5314  0.0392
 1181ntf    on5 8531   2.925   3.255   4.709 -0.4991 -0.5105 -0.4561
 1181ntf    on5 8532   2.757   3.397   4.811  0.2080  0.1773 -0.2808
 1181ntf    fn4 8533   2.734   3.029   4.828  0.2238 -0.2064  0.1653
 1181ntf    fn4 8534   2.633   3.187   4.938 -0.1966 -0.5476  0.6428
 1181ntf    fn4 8535   2.832   3.133   4.977  0.3196 -0.2157 -0.3362
 1182ntf    cn1 8536   4.675   0.157   0.591 -0.0393 -0.1696  0.1401
 1182ntf    sn2 8537   4.823   0.061   0.547  0.0491  0.0470 -0.0313
 1182ntf    nn3 8538   4.850  -0.015   0.681  0.4375 -0.4448 -0.3830
 1182ntf    sn2 8539   4.989  -0.072   0.728  0.4044 -0.2737 -0.0713
 1182ntf    cn1 8540   5.031   0.060   0.845  0.0250 -0.0832 -0.1482
 1182ntf    fn4 8541   4.704   0.263   0.665  0.1278  0.2015 -0.4567
 1182ntf    fn4 8542   4.613   0.208   0.487  0.5666 -0.0960 -0.1914
 1182ntf    fn4 8543   4.589   0.082   0.659 -0.0592 -0.4053 -0.1431
 1182ntf    on5 8544   4.799  -0.020   0.430 -0.1963 -0.6423  0.4950
 1182ntf    on5 8545   4.920   0.166   0.527 -0.1785  0.1984 -0.3556
 1182ntf    on5 8546   4.965  -0.187   0.811 -0.4204  0.1316  0.2700
 1182ntf    on5 8547   5.097  -0.078   0.633  1.0255  0.0823  0.6036
 1182ntf    fn4 8548   4.929   0.086   0.925  0.3013  0.0335  0.1658
 1182ntf    fn4 8549   5.044   0.175   0.779  0.2268 -0.2638 -0.4246
 1182ntf    fn4 8550   5.138   0.027   0.915 -0.0395 -0.2776 -0.1413
 1183ntf    cn1 8551   5.581   0.531   4.503  0.0391 -0.0250 -0.3407
 1183ntf    sn2 8552   5.720   0.620   4.428  0.1970 -0.0375 -0.0667
 1183ntf    nn3 8553   5.721   0.751   4.514 -0.6071 -0.1005  0.0457
 1183ntf    sn2 8554   5.646   0.886   4.483 -0.2190  0.1358  0.1332
 1183ntf    cn1 8555   5.555   0.907   4.639  0.2442  0.1761  0.4006
 1183ntf    fn4 8556   5.573   0.399   4.488  0.3618 -0.1129  0.2358
 1183ntf    fn4 8557   5.586   0.525   4.635 -0.2268 -0.2669 -0.3384
 1183ntf    fn4 8558   5.465   0.585   4.469  0.3107  0.6427 -0.2011
 1183ntf    on5 8559   5.828   0.532   4.465 -0.7241 -1.0526  0.2621
 1183ntf    on5 8560   5.684   0.634   4.289 -0.1781 -0.3829 -0.0061
 1183ntf    on5 8561   5.734   1.000   4.490  0.1032 -0.1214  0.3571
 1183ntf    on5 8562   5.537   0.873   4.391 -0.3752 -0.9304  0.4477
 1183ntf    fn4 8563   5.490   0.798   4.677  0.2229  0.0204 -0.0770
 1183ntf    fn4 8564   5.460   0.999   4.633  0.1540  0.0522 -0.1346
 1183ntf    fn4 8565   5.634   0.952   4.736  0.3638 -0.2063  0.4816
 1184ntf    cn1 8566   3.743   4.567   4.632 -0.4418 -0.0769  0.0827
 1184ntf    sn2 8567   3.791   4.504   4.468  0.1730 -0.0535  0.2518
 1184ntf    nn3 8568   3.657   4.475   4.391  0.1150 -0.0185  0.3384
 1184ntf    sn2 8569   3.644   4.431   4.241 -0.2702 -0.1659  0.4143
 1184ntf    cn1 8570   3.583   4.588   4.172  0.3723  0.1361  0.5274
 1184ntf    fn4 8571   3.678   4.477   4.703 -0.3166 -0.4984 -0.3370
 1184ntf    fn4 8572   3.842   4.602   4.712 -0.9219  0.3867  0.4907
 1184ntf    fn4 8573   3.660   4.671   4.629 -0.2083  0.1093  0.0856
 1184ntf    on5 8574   3.865   4.613   4.410 -1.3282  0.6734 -0.3502
 1184ntf    on5 8575   3.856   4.378   4.493 -0.0616 -0.1942  0.1499
 1184ntf    on5 8576   3.762   4.392   4.167 -0.4021  0.5011 -0.1673
 1184ntf    on5 8577   3.531   4.345   4.215  0.1422 -0.5887 -0.0007
 1184ntf    fn4 8578   3.473   4.626   4.236  0.1848 -0.2290  0.4241
 1184ntf    fn4 8579   3.541   4.586   4.047  0.1991  0.7874  0.5723
 1184ntf    fn4 8580   3.669   4.687   4.192  0.2897  0.3252 -0.0258
 1185ntf    cn1 8581   2.654   6.823   0.083 -0.0160 -0.3080  0.1678
 1185ntf    sn2 8582   2.661   6.648   0.037  0.0543 -0.2149 -0.1765
 1185ntf    nn3 8583   2.813   6.619   0.008  0.1358  0.2408 -0.2005
 1185ntf    sn2 8584   2.867   6.539  -0.115  0.0794  0.0917 -0.1281
 1185ntf    cn1 8585   2.933   6.667  -0.226  0.2610  0.0937 -0.0192
 1185ntf    fn4 8586   2.746   6.893   0.019 -0.5093 -0.3605 -0.6139
 1185ntf    fn4 8587   2.535   6.871   0.050  0.0261 -0.4219 -0.1540
 1185ntf    fn4 8588   2.670   6.847   0.212 -0.4197 -0.1865  0.1972
 1185ntf    on5 8589   2.601   6.581   0.150 -0.0121  0.3158  0.1037
 1185ntf    on5 8590   2.585   6.649  -0.086 -0.2480  0.8189  0.0118
 1185ntf    on5 8591   2.989   6.468  -0.082 -0.1041 -0.6666 -1.0116
 1185ntf    on5 8592   2.772   6.462  -0.192  0.4686 -1.1884  0.6409
 1185ntf    fn4 8593   2.849   6.769  -0.238  0.1681  0.0041 -0.1336
 1185ntf    fn4 8594   2.958   6.618  -0.347 -0.2302  0.2716 -0.1961
 1185ntf    fn4 8595   3.042   6.725  -0.179 -0.0624  0.5116  0.2228
 1186ntf    cn1 8596   2.957   3.059   0.527 -0.1492  0.2736  0.4095
 1186ntf    sn2 8597   3.111   2.981   0.583 -0.1666  0.1598  0.2982
 1186ntf    nn3 8598   3.163   3.076   0.696 -0.4521 -0.0610  0.6188
 1186ntf    sn2 8599   3.173   3.038   0.848  0.2062 -0.1247  0.5648
 1186ntf    cn1 8600   3.174   3.210   0.908  0.0935  0.0778 -0.0140
 1186ntf    fn4 8601   2.970   3.185   0.488 -0.3411  0.2422  0.2399
 1186ntf    fn4 8602   2.893   2.996   0.430 -0.1059  0.8975 -0.0325
 1186ntf    fn4 8603   2.863   3.064   0.620 -0.3147  0.2249  0.2446
 1186ntf    on5 8604   3.061   2.852   0.626  0.2797  0.1743  0.8679
 1186ntf    on5 8605   3.200   2.978   0.470 -0.3664 -0.3710  0.1534
 1186ntf    on5 8606   3.060   2.986   0.922  0.3242 -0.5571  0.4429
 1186ntf    on5 8607   3.301   2.979   0.877  0.2828 -0.0314  0.4156
 1186ntf    fn4 8608   3.052   3.259   0.922 -0.0872 -0.1315 -0.7903
 1186ntf    fn4 8609   3.233   3.293   0.823 -0.1201 -0.0299 -0.2706
 1186ntf    fn4 8610   3.224   3.220   1.029  0.1728 -0.3693 -0.0075
 1187ntf    cn1 8611   2.415   6.324   4.441 -0.2581 -0.0685  0.1083
 1187ntf    sn2 8612   2.363   6.181   4.341 -0.1600 -0.0824  0.0771
 1187ntf    nn3 8613   2.232   6.239   4.276  0.1654  0.4676 -0.0972
 1187ntf    sn2 8614   2.089   6.180   4.252  0.3838 -0.0517 -0.1322
 1187ntf    cn1 8615   2.030   6.160   4.422 -0.0276 -0.2985 -0.3014
 1187ntf    fn4 8616   2.458   6.417   4.357 -0.3621 -0.7404 -0.7057
 1187ntf    fn4 8617   2.315   6.377   4.508  0.2760  0.3846  0.5596
 1187ntf    fn4 8618   2.504   6.306   4.538 -0.2753  0.6265  0.2542
 1187ntf    on5 8619   2.463   6.152   4.241 -0.2030  0.2494 -0.0625
 1187ntf    on5 8620   2.328   6.086   4.443 -0.3075 -0.2832 -0.1609
 1187ntf    on5 8621   2.003   6.275   4.185  0.5213  0.2288  0.0889
 1187ntf    on5 8622   2.091   6.051   4.187  0.4036 -0.4862  0.7140
 1187ntf    fn4 8623   2.028   6.279   4.480  0.2878 -0.3762 -0.1264
 1187ntf    fn4 8624   2.097   6.071   4.492  0.5281  0.3489  0.0033
 1187ntf    fn4 8625   1.902   6.125   4.430 -0.1729  0.0819 -0.8861
 1188ntf    cn1 8626   5.012   4.130   3.900  0.7642 -0.2643  0.0148
 1188ntf    sn2 8627   5.031   4.218   3.743 -0.1413  0.2270  0.1773
 1188ntf    nn3 8628   4.888   4.283   3.733 -0.0725  0.3833  0.2150
 1188ntf    sn2 8629   4.776   4.243   3.631  0.2619 -0.1825  0.0673
 1188ntf    cn1 8630   4.640   4.341   3.702  0.1560 -0.1257 -0.2121
 1188ntf    fn4 8631   4.929   4.198   3.978  0.3957  0.0506 -0.6528
 1188ntf    fn4 8632   4.946   4.016   3.886  0.6904 -0.3496  0.9461
 1188ntf    fn4 8633   5.123   4.107   3.969  0.5669 -0.3233  0.3138
 1188ntf    on5 8634   5.135   4.312   3.775 -0.0680  0.2649 -0.1640
 1188ntf    on5 8635   5.066   4.115   3.649 -0.1184 -0.2330  0.6864
 1188ntf    on5 8636   4.776   4.292   3.496  0.2011  0.0862  0.1641
 1188ntf    on5 8637   4.714   4.114   3.656  0.0733 -0.0812  0.1264
 1188ntf    fn4 8638   4.643   4.322   3.833 -0.1829  0.3164 -0.1370
 1188ntf    fn4 8639   4.523   4.299   3.658  0.2272 -0.1957 -0.3369
 1188ntf    fn4 8640   4.656   4.472   3.695 -0.0778 -0.0883 -0.0386
 1189ntf    cn1 8641   5.268   0.335   5.462 -0.2896  0.2955 -0.5116
 1189ntf    sn2 8642   5.322   0.221   5.331  0.1504 -0.2763  0.1549
 1189ntf    nn3 8643   5.373   0.335   5.236 -0.3695  0.1594  0.3955
 1189ntf    sn2 8644   5.433   0.339   5.091  0.1701 -0.0917  0.6113
 1189ntf    cn1 8645   5.572   0.453   5.115  0.2204  0.0656 -0.3949
 1189ntf    fn4 8646   5.173   0.425   5.445 -0.4247  0.3889  0.6075
 1189ntf    fn4 8647   5.223   0.266   5.566 -0.1499 -0.1107 -0.7178
 1189ntf    fn4 8648   5.371   0.405   5.506 -0.2663 -0.1154  0.1047
 1189ntf    on5 8649   5.428   0.147   5.394  0.1476 -0.2654  0.1722
 1189ntf    on5 8650   5.202   0.154   5.285  0.1194  0.3795 -0.7535
 1189ntf    on5 8651   5.498   0.216   5.053 -0.1095 -0.1341  0.2594
 1189ntf    on5 8652   5.353   0.402   4.989  0.0472 -0.4750  0.4663
 1189ntf    fn4 8653   5.555   0.511   5.232  0.5667  0.2529 -0.4353
 1189ntf    fn4 8654   5.575   0.552   5.027 -0.2440  0.3488 -0.0922
 1189ntf    fn4 8655   5.684   0.382   5.109  0.0533 -0.2947  0.6761
 1190ntf    cn1 8656   2.225   3.450   4.073 -0.2183 -0.2758 -0.1942
 1190ntf    sn2 8657   2.070   3.410   4.159 -0.1540 -0.0328  0.0360
 1190ntf    nn3 8658   2.092   3.282   4.247  0.1866 -0.1933 -0.2837
 1190ntf    sn2 8659   1.986   3.174   4.287 -0.1367  0.2281  0.0103
 1190ntf    cn1 8660   1.840   3.277   4.316 -0.6251 -0.4404 -0.0427
 1190ntf    fn4 8661   2.329   3.422   4.149 -0.5091 -0.7704  0.0266
 1190ntf    fn4 8662   2.245   3.370   3.970  0.2561 -0.1226 -0.2215
 1190ntf    fn4 8663   2.230   3.577   4.035  0.4864 -0.3264 -0.2887
 1190ntf    on5 8664   2.060   3.528   4.242 -0.4224 -0.2158  0.2629
 1190ntf    on5 8665   1.972   3.390   4.055  0.2646 -0.6321 -0.2483
 1190ntf    on5 8666   1.948   3.084   4.181  0.3260  0.2969 -0.2199
 1190ntf    on5 8667   2.013   3.123   4.420  0.5668  0.7470  0.0730
 1190ntf    fn4 8668   1.889   3.381   4.383 -0.4847 -0.5329 -0.0020
 1190ntf    fn4 8669   1.742   3.210   4.375 -0.8158 -0.0343  0.1123
 1190ntf    fn4 8670   1.773   3.321   4.211  0.5271  0.4412 -0.4227
 1191ntf    cn1 8671   4.127   2.836   0.734  0.1998 -0.0751  0.0998
 1191ntf    sn2 8672   3.959   2.893   0.774  0.0470 -0.3093 -0.2028
 1191ntf    nn3 8673   3.977   2.951   0.918 -0.3364  0.4470 -0.4527
 1191ntf    sn2 8674   3.963   3.100   0.968 -0.2267  0.2864  0.0684
 1191ntf    cn1 8675   4.000   3.055   1.140  0.3197  0.3758 -0.0254
 1191ntf    fn4 8676   4.172   2.735   0.806 -0.3219 -0.4603 -0.1065
 1191ntf    fn4 8677   4.130   2.792   0.609 -0.0581 -0.8396  0.3522
 1191ntf    fn4 8678   4.225   2.924   0.741  0.1865 -0.0994  0.6344
 1191ntf    on5 8679   3.944   2.988   0.666  0.0126 -0.2327 -0.1302
 1191ntf    on5 8680   3.880   2.773   0.775  0.2811 -0.4615  0.0621
 1191ntf    on5 8681   4.078   3.182   0.941  0.7840 -1.2471 -0.4228
 1191ntf    on5 8682   3.827   3.141   0.992 -0.3884 -0.2252  0.0434
 1191ntf    fn4 8683   4.113   2.990   1.163  0.1732  0.0366 -0.2784
 1191ntf    fn4 8684   3.907   2.971   1.180  0.4189  0.0485 -0.4761
 1191ntf    fn4 8685   3.998   3.166   1.212  1.2932  0.1536  0.3557
 1192ntf    cn1 8686   2.982   4.481   5.117 -0.2551 -0.0956 -0.0996
 1192ntf    sn2 8687   3.041   4.372   4.983 -0.2990  0.1035 -0.2810
 1192ntf    nn3 8688   3.130   4.479   4.911 -0.4033  0.1693 -0.3130
 1192ntf    sn2 8689   3.279   4.477   4.859 -0.1608 -0.3467  0.3837
 1192ntf    cn1 8690   3.259   4.512   4.682 -0.2608  0.0263  0.4657
 1192ntf    fn4 8691   2.934   4.589   5.057 -0.0858 -0.1517 -0.3375
 1192ntf    fn4 8692   2.872   4.441   5.180 -0.2493  0.3713  0.2070
 1192ntf    fn4 8693   3.075   4.512   5.205  0.3501 -0.3758 -0.6326
 1192ntf    on5 8694   3.109   4.268   5.056 -0.4503  0.4174  0.3246
 1192ntf    on5 8695   2.929   4.344   4.898 -0.5917 -0.0266  0.1417
 1192ntf    on5 8696   3.351   4.589   4.913 -0.0353 -0.3447  0.2109
 1192ntf    on5 8697   3.332   4.344   4.871 -1.4480 -0.9016  0.1155
 1192ntf    fn4 8698   3.276   4.639   4.652  0.0894  0.0271  0.6615
 1192ntf    fn4 8699   3.134   4.480   4.651 -0.0552 -0.0790 -0.2834
 1192ntf    fn4 8700   3.338   4.437   4.607  0.0493  0.2238  0.5947
 1193ntf    cn1 8701   4.187   1.489   0.739  0.7048  0.3090 -0.0711
 1193ntf    sn2 8702   4.189   1.339   0.636  0.5300  0.3141 -0.0827
 1193ntf    nn3 8703   4.160   1.405   0.497 -0.2276  0.2977  0.0640
 1193ntf    sn2 8704   4.018   1.417   0.431 -0.2779 -0.1132  0.0986
 1193ntf    cn1 8705   4.037   1.564   0.326  0.3411 -0.1299  0.1827
 1193ntf    fn4 8706   4.222   1.602   0.679  0.3761  0.6785  0.4209
 1193ntf    fn4 8707   4.067   1.523   0.783  0.4868 -0.2764 -0.2073
 1193ntf    fn4 8708   4.258   1.476   0.850  0.4784 -0.1764  0.0187
 1193ntf    on5 8709   4.323   1.294   0.666  0.4259  0.0279 -0.0482
 1193ntf    on5 8710   4.086   1.254   0.690  0.1380  0.4258 -0.6423
 1193ntf    on5 8711   3.976   1.318   0.334 -0.1327  0.1727 -0.2557
 1193ntf    on5 8712   3.922   1.468   0.525 -0.0267  0.4729  0.0353
 1193ntf    fn4 8713   4.072   1.669   0.399  0.5694  0.0594 -0.1968
 1193ntf    fn4 8714   3.933   1.604   0.254  0.7349  0.3507 -0.1255
 1193ntf    fn4 8715   4.146   1.555   0.252  0.2824  0.2312  0.0504
 1194ntf    cn1 8716   3.883   1.166   2.960  0.2039 -0.1073  0.2586
 1194ntf    sn2 8717   3.854   1.341   2.920 -0.3319 -0.3243 -0.3138
 1194ntf    nn3 8718   3.958   1.413   3.014  0.0194 -0.4928 -0.5706
 1194ntf    sn2 8719   4.093   1.480   2.970 -0.3315  0.4760 -0.1913
 1194ntf    cn1 8720   4.211   1.365   3.046 -0.0977  0.3266 -0.7769
 1194ntf    fn4 8721   3.996   1.116   2.913 -0.0878 -1.0661  0.5587
 1194ntf    fn4 8722   3.890   1.154   3.092 -0.4241  0.4289  0.3459
 1194ntf    fn4 8723   3.788   1.084   2.918 -0.1138  0.2247  0.3254
 1194ntf    on5 8724   3.877   1.348   2.778 -0.1518  0.6283 -0.2442
 1194ntf    on5 8725   3.719   1.371   2.959 -0.0539  0.3710  0.1390
 1194ntf    on5 8726   4.129   1.479   2.830  0.1517 -0.6554 -0.0708
 1194ntf    on5 8727   4.116   1.604   3.041 -0.1702  0.4230 -0.1498
 1194ntf    fn4 8728   4.215   1.252   2.977 -0.0955 -0.2427  0.1434
 1194ntf    fn4 8729   4.175   1.354   3.173  0.6868  0.6733 -0.5208
 1194ntf    fn4 8730   4.333   1.415   3.050  0.0373 -0.0674  0.2259
 1195ntf    cn1 8731   6.101   3.256   3.510  0.2515 -0.0500 -0.6921
 1195ntf    sn2 8732   6.181   3.410   3.567 -0.1969 -0.1988  0.3756
 1195ntf    nn3 8733   6.066   3.517   3.564 -0.4298 -0.4531  0.0398
 1195ntf    sn2 8734   5.985   3.595   3.674 -0.0128 -0.0157  0.0428
 1195ntf    cn1 8735   5.842   3.660   3.583  0.2759  0.3663 -0.1410
 1195ntf    fn4 8736   6.163   3.141   3.524  0.1223 -0.0807 -0.3552
 1195ntf    fn4 8737   5.996   3.234   3.588  0.4336  0.3847 -0.3177
 1195ntf    fn4 8738   6.064   3.264   3.383  0.6509  0.4674 -0.7820
 1195ntf    on5 8739   6.228   3.368   3.696  0.2404 -1.4805 -0.1771
 1195ntf    on5 8740   6.287   3.424   3.470 -0.0925 -0.5258  0.4396
 1195ntf    on5 8741   5.930   3.517   3.782  0.3555 -0.9508 -0.4350
 1195ntf    on5 8742   6.051   3.720   3.700 -0.7100  0.2679  0.4656
 1195ntf    fn4 8743   5.782   3.562   3.518 -0.7972  0.8083  0.1441
 1195ntf    fn4 8744   5.861   3.760   3.499 -0.5766  0.6222 -0.0408
 1195ntf    fn4 8745   5.748   3.701   3.668  0.2307 -0.2330  0.0999
 1196ntf    cn1 8746   1.747   5.115   3.527 -0.3798  0.2621 -0.0580
 1196ntf    sn2 8747   1.848   5.240   3.443 -0.3227  0.0989 -0.2346
 1196ntf    nn3 8748   1.909   5.160   3.323  0.0684 -0.7207  0.5015
 1196ntf    sn2 8749   1.840   5.124   3.186 -0.1525 -0.1919  0.4732
 1196ntf    cn1 8750   1.950   4.987   3.138 -0.2259 -0.0443 -0.1330
 1196ntf    fn4 8751   1.813   5.005   3.559  0.3212  0.6753 -0.0569
 1196ntf    fn4 8752   1.694   5.162   3.638 -0.1789  0.8841 -0.2214
 1196ntf    fn4 8753   1.651   5.078   3.444  0.3032 -0.2262 -0.6483
 1196ntf    on5 8754   1.746   5.336   3.411 -0.5084  0.0834  0.3012
 1196ntf    on5 8755   1.954   5.284   3.531 -0.4036 -0.0788 -0.0477
 1196ntf    on5 8756   1.707   5.070   3.194 -0.5157  0.6408  0.1616
 1196ntf    on5 8757   1.867   5.231   3.092 -0.9373  0.0764  0.5476
 1196ntf    fn4 8758   2.068   5.024   3.091 -0.5916  0.4705 -0.6646
 1196ntf    fn4 8759   1.907   4.908   3.041 -0.4779  0.0931 -0.1332
 1196ntf    fn4 8760   1.981   4.912   3.242  0.2385  0.4691  0.1039
 1197ntf    cn1 8761   2.404   1.160   2.214 -0.0969  0.0727 -0.0497
 1197ntf    sn2 8762   2.321   1.016   2.140 -0.2044  0.0180  0.1757
 1197ntf    nn3 8763   2.300   0.942   2.276  1.3314  0.8750  0.9038
 1197ntf    sn2 8764   2.193   0.984   2.383  0.0201  0.3304 -0.1746
 1197ntf    cn1 8765   2.106   0.826   2.408 -0.1637  0.4490 -0.0653
 1197ntf    fn4 8766   2.464   1.249   2.137 -0.2063  0.0678 -0.1415
 1197ntf    fn4 8767   2.321   1.229   2.290  0.1995  0.2040  0.1527
 1197ntf    fn4 8768   2.502   1.099   2.277 -0.6999 -0.2362  0.6020
 1197ntf    on5 8769   2.209   1.072   2.069  0.1676  0.5154 -0.0237
 1197ntf    on5 8770   2.427   0.955   2.062 -0.1521  0.3951 -0.0497
 1197ntf    on5 8771   2.252   1.001   2.513 -0.0015  0.2050 -0.1475
 1197ntf    on5 8772   2.094   1.083   2.351 -0.2629  0.2177  0.3421
 1197ntf    fn4 8773   2.053   0.789   2.293 -0.3643 -0.1505  0.2190
 1197ntf    fn4 8774   2.016   0.835   2.505 -0.1653 -0.5272  0.0282
 1197ntf    fn4 8775   2.191   0.733   2.448 -0.8466 -0.3298 -0.3877
 1198ntf    cn1 8776   0.021   2.299   0.682 -0.2751  0.2288  0.0889
 1198ntf    sn2 8777   0.180   2.381   0.711 -0.0982 -0.0096 -0.2062
 1198ntf    nn3 8778   0.260   2.361   0.577 -0.1446 -0.2268 -0.2021
 1198ntf    sn2 8779   0.310   2.475   0.481  0.3144  0.2514  0.5949
 1198ntf    cn1 8780   0.174   2.461   0.362  0.8963 -0.1744 -0.0305
 1198ntf    fn4 8781   0.027   2.172   0.720 -0.2786  0.1099 -0.3108
 1198ntf    fn4 8782  -0.086   2.345   0.745 -0.4614  0.2878 -0.2699
 1198ntf    fn4 8783  -0.005   2.296   0.553  0.8499  0.4799 -0.1454
 1198ntf    on5 8784   0.135   2.515   0.741  0.0855 -0.0347  0.1843
 1198ntf    on5 8785   0.250   2.322   0.822 -0.5777 -0.4622 -0.1417
 1198ntf    on5 8786   0.321   2.611   0.527  0.4159  0.6917 -0.7104
 1198ntf    on5 8787   0.422   2.432   0.400 -0.1138 -0.4029  0.3449
 1198ntf    fn4 8788   0.066   2.506   0.425  0.4684 -0.2735 -0.6857
 1198ntf    fn4 8789   0.159   2.335   0.324 -0.1270  0.0838 -0.5085
 1198ntf    fn4 8790   0.194   2.541   0.259  0.4040  0.3731  0.2911
 1199ntf    cn1 8791   3.450   0.109   2.419 -0.2029 -0.1160 -0.1726
 1199ntf    sn2 8792   3.546  -0.045   2.404 -0.0775 -0.0304 -0.2577
 1199ntf    nn3 8793   3.457  -0.147   2.485  0.1368  0.0255  0.0507
 1199ntf    sn2 8794   3.456  -0.182   2.638 -0.0984  0.2039  0.0913
 1199ntf    cn1 8795   3.343  -0.323   2.635  0.1963 -0.0452  0.5609
 1199ntf    fn4 8796   3.508   0.201   2.344  0.2649 -0.4749 -0.2547
 1199ntf    fn4 8797   3.325   0.094   2.380 -0.1280 -0.1528 -0.4022
 1199ntf    fn4 8798   3.449   0.150   2.545 -0.9867 -0.1460 -0.1636
 1199ntf    on5 8799   3.539  -0.070   2.263 -0.7401  0.0931 -0.2520
 1199ntf    on5 8800   3.677  -0.011   2.452 -0.3355 -0.4439  0.7958
 1199ntf    on5 8801   3.580  -0.222   2.701 -0.3755 -0.4536  0.2213
 1199ntf    on5 8802   3.376  -0.089   2.714 -0.0140  0.0122  0.4144
 1199ntf    fn4 8803   3.218  -0.284   2.618  0.3990  0.3129 -0.1137
 1199ntf    fn4 8804   3.332  -0.385   2.752 -0.2933 -0.2696  0.4029
 1199ntf    fn4 8805   3.373  -0.409   2.538 -1.2349 -0.0750  0.1127
 1200ntf    cn1 8806   4.737   0.061   6.658  0.0736  0.0475  0.3521
 1200ntf    sn2 8807   4.726   0.127   6.489  0.4636 -0.1376  0.2530
 1200ntf    nn3 8808   4.579   0.176   6.510  0.4662 -0.0012 -0.0404
 1200ntf    sn2 8809   4.458   0.089   6.460  0.4561 -0.0758  0.1140
 1200ntf    cn1 8810   4.329   0.159   6.568  0.1579 -0.1585 -0.1881
 1200ntf    fn4 8811   4.711  -0.069   6.666  0.3437 -0.0244  0.0916
 1200ntf    fn4 8812   4.865   0.063   6.692  0.1870 -0.5059 -0.0098
 1200ntf    fn4 8813   4.669   0.117   6.756 -0.1131 -0.0725  0.2913
 1200ntf    on5 8814   4.823   0.233   6.476  0.2289  0.0277 -0.1800
 1200ntf    on5 8815   4.747   0.014   6.402  0.3862 -0.3199  0.4717
 1200ntf    on5 8816   4.411   0.106   6.325  0.0156  1.0432  0.3900
 1200ntf    on5 8817   4.457  -0.046   6.510 -0.5412 -0.0768  0.1092
 1200ntf    fn4 8818   4.347   0.289   6.584  0.0214 -0.1284 -0.2763
 1200ntf    fn4 8819   4.332   0.106   6.689  0.4269  0.1003 -0.0805
 1200ntf    fn4 8820   4.208   0.147   6.514  0.0955 -0.1132 -0.0586
 1201ntf    cn1 8821   6.734   3.429   6.256 -0.4930  0.0782 -0.0258
 1201ntf    sn2 8822   6.593   3.394   6.146 -0.2003 -0.2907 -0.2820
 1201ntf    nn3 8823   6.615   3.244   6.107 -0.1568 -0.2032 -0.6055
 1201ntf    sn2 8824   6.579   3.117   6.194 -0.0144  0.1387 -0.0420
 1201ntf    cn1 8825   6.745   3.051   6.226  0.0617  0.4308  0.1670
 1201ntf    fn4 8826   6.841   3.373   6.204  0.0475 -0.0673  1.2140
 1201ntf    fn4 8827   6.764   3.556   6.280  0.2144 -0.0344 -0.2955
 1201ntf    fn4 8828   6.724   3.371   6.374 -0.2511  0.4590  0.1845
 1201ntf    on5 8829   6.480   3.439   6.223  0.1360  0.3486 -0.1501
 1201ntf    on5 8830   6.619   3.473   6.027 -0.3166  0.0258 -0.0995
 1201ntf    on5 8831   6.522   3.148   6.322  0.2700 -0.6330  0.2770
 1201ntf    on5 8832   6.519   3.004   6.129  0.1501 -0.4108  0.7481
 1201ntf    fn4 8833   6.820   3.034   6.118  0.3074  0.1902  0.3709
 1201ntf    fn4 8834   6.744   2.930   6.280  0.8531  0.2024 -0.3055
 1201ntf    fn4 8835   6.812   3.138   6.300 -0.0179 -0.1109  0.8902
 1202ntf    cn1 8836   6.000   1.097   4.296 -0.7368 -0.2745 -0.0043
 1202ntf    sn2 8837   6.088   0.983   4.185 -0.1623  0.0719  0.0899
 1202ntf    nn3 8838   6.059   1.045   4.044  0.0855 -0.5763 -0.2490
 1202ntf    sn2 8839   6.147   1.152   3.970  0.1329 -0.2136  0.3241
 1202ntf    cn1 8840   6.027   1.287   3.977  0.7793  0.4077 -0.3840
 1202ntf    fn4 8841   5.876   1.136   4.273 -0.6874 -0.5420 -0.7547
 1202ntf    fn4 8842   5.995   1.052   4.420 -0.1499  0.4057  0.2764
 1202ntf    fn4 8843   6.058   1.216   4.298  0.5353 -0.8781 -0.0878
 1202ntf    on5 8844   6.220   0.998   4.241 -0.3278 -0.0552  0.5194
 1202ntf    on5 8845   6.032   0.853   4.216 -0.2183 -0.0504 -0.5248
 1202ntf    on5 8846   6.250   1.213   4.051 -0.2342  0.6257  0.1672
 1202ntf    on5 8847   6.159   1.123   3.829  0.2238 -0.3430  0.3574
 1202ntf    fn4 8848   5.960   1.287   4.091  0.5884 -0.4986 -0.4910
 1202ntf    fn4 8849   5.942   1.289   3.875 -0.0753  1.1844  0.3243
 1202ntf    fn4 8850   6.089   1.404   3.985  0.4737  0.5493 -0.0325
 1203ntf    cn1 8851   0.035   4.896   4.343 -0.0886  0.0355 -0.5154
 1203ntf    sn2 8852   0.170   4.919   4.223  0.2683  0.1120 -0.1044
 1203ntf    nn3 8853   0.192   4.778   4.159  0.1186  0.1058 -0.1409
 1203ntf    sn2 8854   0.160   4.716   4.018  0.2624 -0.1301 -0.0704
 1203ntf    cn1 8855   0.023   4.604   4.057 -0.0515  0.3603  0.2438
 1203ntf    fn4 8856   0.054   4.802   4.435  0.1365  0.3112 -0.2746
 1203ntf    fn4 8857   0.016   5.002   4.420 -0.0248 -0.5275  0.2890
 1203ntf    fn4 8858  -0.080   4.867   4.286 -0.4813  0.4149  0.0722
 1203ntf    on5 8859   0.122   5.020   4.132 -0.4044 -0.1957 -0.1027
 1203ntf    on5 8860   0.283   4.960   4.303  0.0333  0.3293  0.1175
 1203ntf    on5 8861   0.109   4.813   3.924  0.8358  0.5737  0.3319
 1203ntf    on5 8862   0.263   4.626   3.971  0.0732 -0.0326 -0.6863
 1203ntf    fn4 8863   0.064   4.496   4.122 -0.6271  0.2683  0.4649
 1203ntf    fn4 8864  -0.035   4.553   3.950  0.5559 -0.2660  0.2024
 1203ntf    fn4 8865  -0.070   4.659   4.134 -0.0565 -0.3891  0.7952
 1204ntf    cn1 8866   1.797   0.559   1.301 -0.1876  0.2727  0.1323
 1204ntf    sn2 8867   1.772   0.735   1.339 -0.1503  0.2957  0.0503
 1204ntf    nn3 8868   1.803   0.744   1.493 -0.5136 -0.7149  0.1898
 1204ntf    sn2 8869   1.723   0.817   1.606 -0.1445  0.0936 -0.0683
 1204ntf    cn1 8870   1.812   0.757   1.752  0.2586 -0.0458 -0.3724
 1204ntf    fn4 8871   1.712   0.484   1.369 -0.0155 -0.2945 -0.2741
 1204ntf    fn4 8872   1.788   0.531   1.172 -0.0598 -0.3768  0.2609
 1204ntf    fn4 8873   1.922   0.525   1.330 -0.1595  0.0715 -0.2267
 1204ntf    on5 8874   1.879   0.798   1.266 -0.1650  0.2026 -0.0530
 1204ntf    on5 8875   1.635   0.755   1.296 -0.2087  0.0084  0.0981
 1204ntf    on5 8876   1.755   0.958   1.610  0.4541 -0.0242 -0.5677
 1204ntf    on5 8877   1.589   0.773   1.637 -0.0147  0.1596  0.5835
 1204ntf    fn4 8878   1.807   0.625   1.760 -0.7507  0.0144  0.0443
 1204ntf    fn4 8879   1.776   0.806   1.869  0.8635 -0.5512  0.0328
 1204ntf    fn4 8880   1.940   0.785   1.735  0.1553  0.3746 -0.4561
 1205ntf    cn1 8881   0.870   1.295   5.364 -0.0667  0.1699  0.1404
 1205ntf    sn2 8882   0.826   1.266   5.538  0.0061 -0.4088  0.0637
 1205ntf    nn3 8883   0.838   1.110   5.552 -0.2494 -0.4645 -0.3455
 1205ntf    sn2 8884   0.918   1.024   5.656  0.2453  0.2400 -0.1403
 1205ntf    cn1 8885   0.826   0.867   5.659  0.2426  0.2413 -0.1542
 1205ntf    fn4 8886   0.782   1.248   5.278 -0.1310  0.0930  0.2472
 1205ntf    fn4 8887   0.890   1.425   5.347 -0.6565  0.2568  0.1142
 1205ntf    fn4 8888   0.984   1.236   5.333  0.2128  0.3243  0.8393
 1205ntf    on5 8889   0.922   1.330   5.625 -0.3887  0.2564  0.0156
 1205ntf    on5 8890   0.690   1.313   5.550 -0.0057 -0.4575  0.1241
 1205ntf    on5 8891   1.052   0.986   5.618  0.4232  0.0118  0.6894
 1205ntf    on5 8892   0.889   1.065   5.791 -0.0583  0.4043 -0.2566
 1205ntf    fn4 8893   0.876   0.793   5.756  0.0945  0.2571 -0.0659
 1205ntf    fn4 8894   0.835   0.805   5.542 -1.0925  0.6036 -0.4691
 1205ntf    fn4 8895   0.697   0.883   5.684  0.1381 -0.1073 -0.4561
 1206ntf    cn1 8896   2.724   5.876   1.512 -0.0960 -0.2081  0.0590
 1206ntf    sn2 8897   2.821   5.760   1.612  0.1602 -0.1865 -0.1660
 1206ntf    nn3 8898   2.742   5.768   1.747  0.0287 -0.5886 -0.2179
 1206ntf    sn2 8899   2.775   5.873   1.859 -0.1685 -0.6685 -0.0834
 1206ntf    cn1 8900   2.914   5.780   1.931  0.4451  0.0262 -0.3532
 1206ntf    fn4 8901   2.772   5.881   1.389  0.2443  0.2462  0.2069
 1206ntf    fn4 8902   2.596   5.847   1.493 -0.2224  0.0875  0.4279
 1206ntf    fn4 8903   2.721   5.997   1.567 -0.3238 -0.3004  0.2542
 1206ntf    on5 8904   2.812   5.634   1.542  0.6275 -0.2700 -0.0824
 1206ntf    on5 8905   2.951   5.823   1.605 -0.2234  0.5959 -0.3875
 1206ntf    on5 8906   2.827   6.001   1.817 -0.0356 -0.5970  0.3013
 1206ntf    on5 8907   2.670   5.881   1.957 -0.0618  0.4956 -0.0505
 1206ntf    fn4 8908   2.884   5.655   1.960  0.0115  0.2524  0.2037
 1206ntf    fn4 8909   2.957   5.845   2.038  0.3724  0.5920 -0.6630
 1206ntf    fn4 8910   3.019   5.778   1.851  0.8160  0.3106  0.1236
 1207ntf    cn1 8911   5.300   5.362   2.490  0.1564  0.4056 -0.4680
 1207ntf    sn2 8912   5.355   5.509   2.399  0.4129  0.5621 -0.0627
 1207ntf    nn3 8913   5.217   5.582   2.380  0.2031  0.0702 -0.4544
 1207ntf    sn2 8914   5.188   5.726   2.325  0.1557  0.3096  0.1862
 1207ntf    cn1 8915   5.132   5.813   2.474  0.2355  0.4353  0.1431
 1207ntf    fn4 8916   5.257   5.275   2.400  0.2645 -0.1976  0.0575
 1207ntf    fn4 8917   5.397   5.296   2.551 -0.1424  0.3168 -0.0868
 1207ntf    fn4 8918   5.198   5.375   2.574  0.4218 -0.6383  0.0248
 1207ntf    on5 8919   5.450   5.560   2.495  0.6409  1.4208 -0.7324
 1207ntf    on5 8920   5.421   5.450   2.286  0.1145 -0.2864  0.2052
 1207ntf    on5 8921   5.305   5.805   2.294  0.1573  0.3720  0.3518
 1207ntf    on5 8922   5.071   5.734   2.242  0.2103  0.0842  0.0878
 1207ntf    fn4 8923   5.037   5.743   2.535 -0.1383  0.3437 -0.5360
 1207ntf    fn4 8924   5.080   5.927   2.432 -0.1644  0.2986  0.2569
 1207ntf    fn4 8925   5.240   5.832   2.548  0.2104  0.8151  0.0845
 1208ntf    cn1 8926   4.396   2.305   3.970 -0.2237 -0.2210 -0.0308
 1208ntf    sn2 8927   4.575   2.297   4.004 -0.1836 -0.3490 -0.2762
 1208ntf    nn3 8928   4.576   2.351   4.151 -0.0233  0.0107 -0.4090
 1208ntf    sn2 8929   4.582   2.271   4.286  0.2097  0.1664 -0.3258
 1208ntf    cn1 8930   4.748   2.199   4.272 -0.0246 -0.4229 -0.1283
 1208ntf    fn4 8931   4.328   2.219   4.044 -0.9449  0.0926 -0.3216
 1208ntf    fn4 8932   4.346   2.426   3.994 -0.6871 -0.3100 -0.5533
 1208ntf    fn4 8933   4.375   2.278   3.843  0.1595  0.0524 -0.1555
 1208ntf    on5 8934   4.593   2.154   3.988  0.0269 -0.3293 -0.2114
 1208ntf    on5 8935   4.627   2.381   3.899 -0.7310 -0.3641 -0.5643
 1208ntf    on5 8936   4.588   2.360   4.399  0.3792  0.3679 -0.4939
 1208ntf    on5 8937   4.490   2.161   4.299  0.2974  0.1435  0.1117
 1208ntf    fn4 8938   4.778   2.128   4.164  0.3336 -0.3027 -0.1093
 1208ntf    fn4 8939   4.780   2.128   4.378 -0.0316 -0.2231  0.0092
 1208ntf    fn4 8940   4.833   2.301   4.279  0.1319 -0.5090 -0.7222
 1209ntf    cn1 8941   2.438   3.096   5.128 -0.4284 -0.1418  0.0643
 1209ntf    sn2 8942   2.280   3.071   5.215 -0.2110 -0.3884  0.3909
 1209ntf    nn3 8943   2.202   2.983   5.111  0.4416 -0.2767 -0.2050
 1209ntf    sn2 8944   2.130   2.845   5.134  0.0719 -0.0306  0.1418
 1209ntf    cn1 8945   1.980   2.883   5.229 -0.1094 -0.5358  0.0578
 1209ntf    fn4 8946   2.494   3.207   5.172 -0.5359  0.1120 -0.4327
 1209ntf    fn4 8947   2.524   2.999   5.154  0.2293  0.3883 -0.1165
 1209ntf    fn4 8948   2.428   3.099   4.997 -0.1203 -0.0352  0.0414
 1209ntf    on5 8949   2.323   2.997   5.331 -0.3053 -0.4291  0.4000
 1209ntf    on5 8950   2.225   3.201   5.242  0.3927  0.1273 -0.8001
 1209ntf    on5 8951   2.081   2.811   5.003 -0.3698 -0.9451  0.5374
 1209ntf    on5 8952   2.196   2.749   5.218  0.3193  0.3151  0.3452
 1209ntf    fn4 8953   2.026   2.928   5.345 -0.2992 -0.1418 -0.0177
 1209ntf    fn4 8954   1.899   2.778   5.239 -0.5018 -0.2268  0.1414
 1209ntf    fn4 8955   1.908   2.982   5.180  0.7856  0.3387  0.4925
 1210ntf    cn1 8956   3.639   1.965   2.343  0.4120  0.3106 -0.2801
 1210ntf    sn2 8957   3.802   1.891   2.376  0.2204 -0.1509 -0.3606
 1210ntf    nn3 8958   3.911   2.001   2.350  0.6749 -0.4719  0.1508
 1210ntf    sn2 8959   4.002   2.027   2.225 -0.0849  0.3859 -0.2363
 1210ntf    cn1 8960   3.987   2.208   2.228 -0.4154  0.3551 -0.0138
 1210ntf    fn4 8961   3.609   2.076   2.408 -0.4510  0.0723 -0.2726
 1210ntf    fn4 8962   3.625   2.002   2.217  0.1333 -0.3137 -0.4367
 1210ntf    fn4 8963   3.546   1.875   2.368  0.4356  0.3172 -0.1711
 1210ntf    on5 8964   3.799   1.866   2.518  0.0301  0.4912 -0.2500
 1210ntf    on5 8965   3.801   1.782   2.282  0.0605 -0.0065 -0.5272
 1210ntf    on5 8966   4.142   1.998   2.247 -0.2116  0.1618  0.2675
 1210ntf    on5 8967   3.948   1.987   2.098 -1.5018  0.5824  0.2925
 1210ntf    fn4 8968   4.046   2.259   2.336  0.2106 -0.2934 -0.0418
 1210ntf    fn4 8969   3.858   2.237   2.234 -0.5143 -0.0350 -0.2317
 1210ntf    fn4 8970   4.041   2.270   2.124 -0.1499 -0.7640 -0.5558
 1211ntf    cn1 8971   0.185   4.328   3.332  0.5309 -0.3134  0.3176
 1211ntf    sn2 8972   0.327   4.423   3.270  0.2664  0.0284  0.2271
 1211ntf    nn3 8973   0.273   4.565   3.310 -0.6920 -0.0935 -0.6038
 1211ntf    sn2 8974   0.268   4.700   3.231 -0.0536  0.2769 -0.0237
 1211ntf    cn1 8975   0.242   4.818   3.367  0.1544  0.0731  0.1945
 1211ntf    fn4 8976   0.185   4.201   3.295 -0.1153 -0.2885  0.2277
 1211ntf    fn4 8977   0.185   4.318   3.464 -0.3820 -0.5720  0.3044
 1211ntf    fn4 8978   0.072   4.384   3.292  0.4392 -0.1713  0.7698
 1211ntf    on5 8979   0.432   4.370   3.354  0.7814  0.1530 -0.3278
 1211ntf    on5 8980   0.319   4.385   3.131 -0.0716 -0.6841  0.4349
 1211ntf    on5 8981   0.391   4.754   3.177  0.3879 -0.2510  0.4446
 1211ntf    on5 8982   0.146   4.699   3.153 -0.5138  0.1598  0.6924
 1211ntf    fn4 8983   0.163   4.920   3.335  0.1265 -0.1041 -0.3172
 1211ntf    fn4 8984   0.352   4.869   3.419 -0.1721  0.5681  0.4142
 1211ntf    fn4 8985   0.188   4.756   3.471 -0.3470  0.4383  0.1571
 1212ntf    cn1 8986   5.720   4.963   1.405 -0.0604 -0.0653 -0.6317
 1212ntf    sn2 8987   5.874   4.980   1.311  0.2533  0.1538 -0.0822
 1212ntf    nn3 8988   5.902   5.134   1.325 -0.1886  0.1846  0.4793
 1212ntf    sn2 8989   5.873   5.256   1.231 -0.4477 -0.0649  0.2304
 1212ntf    cn1 8990   6.027   5.302   1.144 -0.6179  0.1664  0.0496
 1212ntf    fn4 8991   5.741   4.976   1.535 -0.0899  0.1004 -0.6427
 1212ntf    fn4 8992   5.634   5.053   1.359 -0.2194 -0.0171 -0.2456
 1212ntf    fn4 8993   5.670   4.841   1.395 -0.3778  0.0196 -0.1462
 1212ntf    on5 8994   5.962   4.900   1.392 -0.0524  0.3209  0.4192
 1212ntf    on5 8995   5.853   4.945   1.173 -1.0061 -0.3457  0.2235
 1212ntf    on5 8996   5.787   5.221   1.121 -0.2953 -0.1023  0.1219
 1212ntf    on5 8997   5.839   5.370   1.313 -0.1623  0.0062  0.2543
 1212ntf    fn4 8998   6.018   5.396   1.052  0.5774 -0.0301 -0.2872
 1212ntf    fn4 8999   6.089   5.205   1.078 -0.6209  0.0084  0.2779
 1212ntf    fn4 9000   6.120   5.344   1.227 -0.0648 -0.5584 -0.1889
 1213ntf    cn1 9001   4.432   3.976   2.118  0.0747  0.7959 -0.0390
 1213ntf    sn2 9002   4.565   4.091   2.073  0.4875  0.3461  0.0299
 1213ntf    nn3 9003   4.644   4.109   2.208  1.0443  0.4209 -0.3001
 1213ntf    sn2 9004   4.723   3.998   2.287 -0.0783 -0.0509  0.1834
 1213ntf    cn1 9005   4.864   4.097   2.344  0.1781  0.2371 -0.9208
 1213ntf    fn4 9006   4.358   4.025   2.217  0.0542 -0.0735  0.3787
 1213ntf    fn4 9007   4.347   3.952   2.019 -0.0927  0.7288  0.1203
 1213ntf    fn4 9008   4.466   3.854   2.156 -0.4971  0.4015 -0.7532
 1213ntf    on5 9009   4.641   4.031   1.966  0.8700  0.1360  0.4137
 1213ntf    on5 9010   4.496   4.215   2.051 -0.1428  0.0547  0.3469
 1213ntf    on5 9011   4.664   3.951   2.410 -0.0815  0.2324  0.2898
 1213ntf    on5 9012   4.783   3.898   2.202 -0.5062  0.7717 -1.1244
 1213ntf    fn4 9013   4.958   4.018   2.393 -0.1551  0.3247 -0.1163
 1213ntf    fn4 9014   4.821   4.190   2.427  0.0490 -0.3506 -0.3148
 1213ntf    fn4 9015   4.925   4.161   2.246  0.8355  0.5412 -0.3235
 1214ntf    cn1 9016   2.314   4.374   1.606  0.6837 -0.5051 -0.2460
 1214ntf    sn2 9017   2.254   4.219   1.681 -0.4443  0.1012  0.1224
 1214ntf    nn3 9018   2.119   4.272   1.741 -0.4559  0.0462  0.1442
 1214ntf    sn2 9019   1.972   4.217   1.731 -0.4713  0.0919  0.1212
 1214ntf    cn1 9020   1.892   4.340   1.624 -0.1371 -0.0919 -0.3409
 1214ntf    fn4 9021   2.444   4.367   1.580  0.8181 -0.8934  0.4969
 1214ntf    fn4 9022   2.256   4.388   1.488 -0.1084 -0.3767  0.1556
 1214ntf    fn4 9023   2.292   4.479   1.682  0.1225 -0.6074 -0.2631
 1214ntf    on5 9024   2.250   4.137   1.563 -0.0573  0.1847  0.0467
 1214ntf    on5 9025   2.346   4.203   1.791 -0.1896  0.6316 -0.0107
 1214ntf    on5 9026   1.957   4.092   1.661 -0.2645 -0.1700  0.5436
 1214ntf    on5 9027   1.894   4.238   1.851 -0.0836 -0.7626  0.5290
 1214ntf    fn4 9028   1.771   4.298   1.591 -0.3193 -0.1002  0.3369
 1214ntf    fn4 9029   1.959   4.357   1.511  0.5427  0.4388  0.1323
 1214ntf    fn4 9030   1.877   4.455   1.687  1.1163  0.1391 -0.4341
 1215ntf    cn1 9031   0.427   0.412   5.041 -0.1400 -0.0521 -0.0797
 1215ntf    sn2 9032   0.596   0.417   4.973 -0.0732 -0.2418  0.0718
 1215ntf    nn3 9033   0.673   0.367   5.100  0.6280  0.4024 -0.0919
 1215ntf    sn2 9034   0.791   0.263   5.106  0.1241 -0.1703  0.0884
 1215ntf    cn1 9035   0.695   0.111   5.134 -0.1828  0.0105  0.0232
 1215ntf    fn4 9036   0.410   0.448   5.166  0.0115  0.2556 -0.1474
 1215ntf    fn4 9037   0.342   0.487   4.973 -0.0872 -0.1924 -0.3031
 1215ntf    fn4 9038   0.384   0.287   5.028 -0.4960  0.0580  0.0259
 1215ntf    on5 9039   0.591   0.329   4.858 -0.4722 -0.9527  0.6226
 1215ntf    on5 9040   0.617   0.556   4.945 -0.3461 -0.1094  0.5075
 1215ntf    on5 9041   0.853   0.249   4.977  0.5968 -0.7019  0.3707
 1215ntf    on5 9042   0.871   0.271   5.226 -0.2533  0.1608  0.3230
 1215ntf    fn4 9043   0.607   0.119   5.232  0.0554 -0.2404  0.2589
 1215ntf    fn4 9044   0.765   0.003   5.165 -0.2564 -0.0897 -0.1609
 1215ntf    fn4 9045   0.628   0.078   5.025 -0.4886 -0.4993  0.3656
 1216ntf    cn1 9046   5.310   0.363   6.057 -0.2257  0.3851  0.0740
 1216ntf    sn2 9047   5.421   0.488   6.127  0.1660  0.0021  0.1436
 1216ntf    nn3 9048   5.557   0.457   6.056  0.0978 -0.1369  0.0739
 1216ntf    sn2 9049   5.701   0.495   6.107  0.0135  0.1270  0.1163
 1216ntf    cn1 9050   5.747   0.372   6.233 -0.1998  0.1193  0.1859
 1216ntf    fn4 9051   5.185   0.362   6.102 -0.2027  0.4547  0.1384
 1216ntf    fn4 9052   5.318   0.366   5.925  0.0211  0.2601  0.0853
 1216ntf    fn4 9053   5.357   0.242   6.085 -0.4404  0.3196  0.1624
 1216ntf    on5 9054   5.371   0.617   6.087  0.5662 -0.0277 -0.4639
 1216ntf    on5 9055   5.423   0.450   6.266  0.1950  0.1987  0.1984
 1216ntf    on5 9056   5.793   0.471   5.998  0.3245  0.7471  0.2371
 1216ntf    on5 9057   5.700   0.620   6.179 -0.8352  0.0233  0.2952
 1216ntf    fn4 9058   5.721   0.251   6.187  0.1056 -0.0551  0.4749
 1216ntf    fn4 9059   5.663   0.383   6.336  0.3182  0.5672  0.5675
 1216ntf    fn4 9060   5.873   0.381   6.271 -0.1937 -0.4559  0.3134
 1217ntf    cn1 9061   2.823   3.926   4.255  0.2998  0.0917  0.1371
 1217ntf    sn2 9062   2.990   3.854   4.267  0.1378 -0.3076 -0.0068
 1217ntf    nn3 9063   3.073   3.947   4.173  0.0476 -0.5709 -0.3506
 1217ntf    sn2 9064   3.174   3.893   4.066  0.4045 -0.2333 -0.1872
 1217ntf    cn1 9065   3.263   3.755   4.144  0.1304 -0.3909 -0.1517
 1217ntf    fn4 9066   2.773   3.896   4.137  0.1840  0.0103  0.2074
 1217ntf    fn4 9067   2.736   3.882   4.345  0.4110  0.2890  0.3418
 1217ntf    fn4 9068   2.823   4.057   4.270  0.3131  0.1387 -0.2635
 1217ntf    on5 9069   3.027   3.879   4.404 -0.0305 -0.0365 -0.0102
 1217ntf    on5 9070   2.976   3.714   4.234 -0.2049 -0.1280 -0.6316
 1217ntf    on5 9071   3.114   3.830   3.951  0.0778 -0.0133 -0.1400
 1217ntf    on5 9072   3.280   3.988   4.039  0.6287 -0.2015  0.7560
 1217ntf    fn4 9073   3.306   3.784   4.265  0.0935  0.1376 -0.2645
 1217ntf    fn4 9074   3.375   3.731   4.076  0.1037  0.3110 -0.4479
 1217ntf    fn4 9075   3.200   3.639   4.137  0.1698 -0.3834 -0.7678
 1218ntf    cn1 9076   3.101   3.791   3.065 -0.4625  0.0548 -0.0392
 1218ntf    sn2 9077   3.225   3.757   2.937 -0.3018  0.1160  0.0995
 1218ntf    nn3 9078   3.144   3.819   2.817  0.2357 -0.3942 -0.5363
 1218ntf    sn2 9079   3.185   3.946   2.736  0.3767  0.2132  0.4657
 1218ntf    cn1 9080   3.041   4.057   2.747  0.1153 -0.0286 -0.4040
 1218ntf    fn4 9081   3.138   3.758   3.188 -0.3284  0.9039  0.1534
 1218ntf    fn4 9082   3.055   3.915   3.060 -0.4337  0.0695  0.0632
 1218ntf    fn4 9083   2.989   3.725   3.040 -0.1025 -0.4656 -0.2856
 1218ntf    on5 9084   3.341   3.828   2.984 -0.2468 -0.2849  0.5712
 1218ntf    on5 9085   3.235   3.613   2.937  0.3259  0.1602  0.0707
 1218ntf    on5 9086   3.302   4.018   2.780  0.5374 -0.2477  0.7893
 1218ntf    on5 9087   3.176   3.907   2.597 -0.5193 -0.3827  0.6831
 1218ntf    fn4 9088   3.045   4.181   2.701 -0.6367  0.2783  0.3269
 1218ntf    fn4 9089   3.008   4.066   2.875 -0.6672 -0.1406 -0.5910
 1218ntf    fn4 9090   2.932   4.000   2.698 -0.1057  0.1308 -0.1059
 1219ntf    cn1 9091   6.180   2.708   3.478  0.2671 -0.3433  0.4106
 1219ntf    sn2 9092   6.235   2.766   3.314 -0.1041 -0.0923  0.3741
 1219ntf    nn3 9093   6.098   2.827   3.268  0.3587  0.2909 -0.5194
 1219ntf    sn2 9094   5.985   2.762   3.181 -0.0955  0.0601  0.2328
 1219ntf    cn1 9095   6.001   2.854   3.026 -0.2000  0.1607  0.2814
 1219ntf    fn4 9096   6.068   2.640   3.462  0.1516 -0.0087 -0.2073
 1219ntf    fn4 9097   6.267   2.627   3.536  0.5174 -0.2947  0.1056
 1219ntf    fn4 9098   6.145   2.812   3.550  0.5870  0.0748 -0.0275
 1219ntf    on5 9099   6.332   2.871   3.336 -0.2875  0.2496 -0.4188
 1219ntf    on5 9100   6.277   2.653   3.235  0.5212 -0.1079  0.7213
 1219ntf    on5 9101   6.003   2.624   3.142  0.4736  0.1638  0.1266
 1219ntf    on5 9102   5.853   2.796   3.227  0.0018  0.3441  0.3067
 1219ntf    fn4 9103   6.007   2.781   2.915  0.4181  0.8740 -0.1627
 1219ntf    fn4 9104   6.112   2.927   3.020 -0.0947  0.0160  0.4951
 1219ntf    fn4 9105   5.898   2.933   2.998 -0.2180 -0.0367 -0.2339
 1220ntf    cn1 9106   5.527   3.302   2.190 -0.1424 -0.4819  0.2584
 1220ntf    sn2 9107   5.451   3.457   2.133  0.4765 -0.1788  0.2523
 1220ntf    nn3 9108   5.301   3.419   2.158  0.3378 -0.0619 -0.3977
 1220ntf    sn2 9109   5.165   3.438   2.081  0.0445 -0.3708  0.0368
 1220ntf    cn1 9110   5.163   3.286   1.981  0.2466 -0.2328 -0.1792
 1220ntf    fn4 9111   5.482   3.265   2.309  0.3985  0.3595  0.7375
 1220ntf    fn4 9112   5.499   3.208   2.101  0.1646  0.2265 -0.5969
 1220ntf    fn4 9113   5.659   3.300   2.195 -0.1375 -0.1012  0.3429
 1220ntf    on5 9114   5.508   3.552   2.226  0.5361  0.0138  0.0206
 1220ntf    on5 9115   5.485   3.471   1.994 -0.0222 -0.8476  0.0591
 1220ntf    on5 9116   5.051   3.420   2.166  0.5186  0.1659  0.7926
 1220ntf    on5 9117   5.171   3.547   1.987  0.4174 -0.3325  0.1046
 1220ntf    fn4 9118   5.038   3.256   1.947  0.1113  0.0137  0.0992
 1220ntf    fn4 9119   5.213   3.182   2.044  0.0232  0.1732  0.6761
 1220ntf    fn4 9120   5.240   3.286   1.873  0.2085  0.4229 -0.2108
 1221ntf    cn1 9121   5.926   6.052   3.270 -0.0171  0.2190 -0.0277
 1221ntf    sn2 9122   6.098   6.107   3.252  0.0017  0.0077 -0.5178
 1221ntf    nn3 9123   6.168   5.991   3.173  0.2201  0.0065 -0.3256
 1221ntf    sn2 9124   6.199   5.842   3.211 -0.1284 -0.0004 -0.0687
 1221ntf    cn1 9125   6.377   5.826   3.176 -0.1163 -0.5146  0.2157
 1221ntf    fn4 9126   5.883   5.971   3.174  0.1153  0.2083 -0.0768
 1221ntf    fn4 9127   5.902   5.982   3.379  0.3395  0.2501  0.0690
 1221ntf    fn4 9128   5.842   6.155   3.274  0.1853  0.3947 -0.2460
 1221ntf    on5 9129   6.081   6.222   3.167  0.8567  0.0742 -0.6057
 1221ntf    on5 9130   6.139   6.123   3.390 -0.5809 -0.3732 -0.2961
 1221ntf    on5 9131   6.180   5.806   3.350  0.0760 -0.1767 -0.0851
 1221ntf    on5 9132   6.139   5.749   3.119 -1.4197  0.4057  0.3382
 1221ntf    fn4 9133   6.440   5.781   3.283  0.3406  0.1620  0.2378
 1221ntf    fn4 9134   6.432   5.942   3.146 -0.3457 -0.2152  0.9289
 1221ntf    fn4 9135   6.396   5.745   3.074 -0.4489  0.2834 -0.4868
 1222ntf    cn1 9136   4.131   6.329   0.431 -0.5997 -0.0590 -0.2413
 1222ntf    sn2 9137   4.309   6.339   0.393 -0.5508 -0.2038 -0.0534
 1222ntf    nn3 9138   4.317   6.225   0.285  0.2455 -0.2366  0.0383
 1222ntf    sn2 9139   4.369   6.236   0.137  0.1122  0.0251  0.0101
 1222ntf    cn1 9140   4.472   6.086   0.139 -0.3302 -0.2850 -0.3309
 1222ntf    fn4 9141   4.092   6.208   0.466  0.2982 -0.2015  0.3055
 1222ntf    fn4 9142   4.101   6.416   0.526 -0.5527 -0.2832 -0.0205
 1222ntf    fn4 9143   4.059   6.358   0.324 -0.3149 -0.1823 -0.4689
 1222ntf    on5 9144   4.324   6.474   0.345 -0.2492 -0.0661  0.4244
 1222ntf    on5 9145   4.377   6.300   0.514  0.0476  0.7239 -0.0848
 1222ntf    on5 9146   4.258   6.195   0.056  0.1057 -0.8984  0.4712
 1222ntf    on5 9147   4.466   6.334   0.095  0.3300 -0.2167 -0.0592
 1222ntf    fn4 9148   4.577   6.120   0.213 -0.7506 -0.6342  0.4358
 1222ntf    fn4 9149   4.526   6.055   0.022 -0.5617 -0.4999 -0.3809
 1222ntf    fn4 9150   4.410   5.986   0.199  0.2613  0.1777  1.0861
 1223ntf    cn1 9151   2.659   3.224   0.349  0.0003 -0.3298  0.0875
 1223ntf    sn2 9152   2.486   3.229   0.292 -0.0647  0.1220  0.3245
 1223ntf    nn3 9153   2.493   3.374   0.231  0.1428 -0.0070  0.0464
 1223ntf    sn2 9154   2.416   3.503   0.273 -0.2917 -0.3627  0.3523
 1223ntf    cn1 9155   2.250   3.487   0.200 -0.2879  0.5163  0.1298
 1223ntf    fn4 9156   2.680   3.122   0.430  0.5089 -0.2333  0.0797
 1223ntf    fn4 9157   2.742   3.211   0.247  0.2640 -0.4879  0.3209
 1223ntf    fn4 9158   2.702   3.325   0.422  1.2761 -0.4593 -0.4746
 1223ntf    on5 9159   2.477   3.122   0.196 -0.3640 -0.0087  0.4957
 1223ntf    on5 9160   2.419   3.212   0.419 -0.7063  0.1504 -0.0077
 1223ntf    on5 9161   2.385   3.536   0.410 -0.0595 -0.5196  0.4416
 1223ntf    on5 9162   2.471   3.612   0.195 -0.1085 -0.4347  0.3810
 1223ntf    fn4 9163   2.177   3.597   0.208 -0.6963  0.2692 -0.1347
 1223ntf    fn4 9164   2.190   3.391   0.270 -0.1766  0.3802  0.0382
 1223ntf    fn4 9165   2.238   3.458   0.072 -0.1524  0.0087  0.2269
 1224ntf    cn1 9166   3.354   6.045   2.610  0.3275 -0.0943  0.0093
 1224ntf    sn2 9167   3.241   6.055   2.468 -0.0941  0.2086  0.3648
 1224ntf    nn3 9168   3.218   5.901   2.452  0.0238  0.2010  0.2651
 1224ntf    sn2 9169   3.114   5.819   2.367  0.6340  0.0242 -0.3142
 1224ntf    cn1 9170   3.224   5.756   2.236 -0.0150 -0.5659 -0.5831
 1224ntf    fn4 9171   3.318   5.950   2.695 -0.0426 -0.0348 -0.0802
 1224ntf    fn4 9172   3.478   6.013   2.577  0.0869 -0.7940 -0.2432
 1224ntf    fn4 9173   3.366   6.156   2.680 -0.0423  0.1849 -0.3701
 1224ntf    on5 9174   3.123   6.128   2.509 -0.2339  0.2586 -0.1146
 1224ntf    on5 9175   3.331   6.102   2.366  0.6580 -1.0176  0.4487
 1224ntf    on5 9176   3.079   5.703   2.445  0.6482  0.1926 -0.0561
 1224ntf    on5 9177   3.015   5.892   2.293  0.3744 -0.4057 -0.3964
 1224ntf    fn4 9178   3.154   5.707   2.136 -0.1533 -0.2392 -0.6461
 1224ntf    fn4 9179   3.301   5.659   2.285 -0.2386 -0.6691 -0.4345
 1224ntf    fn4 9180   3.303   5.846   2.180  0.0970 -0.5620 -0.4202
 1225ntf    cn1 9181   4.687   1.613   2.303  0.3347 -0.0519 -0.3554
 1225ntf    sn2 9182   4.740   1.658   2.135 -0.1520 -0.1595 -0.5405
 1225ntf    nn3 9183   4.862   1.558   2.135 -0.1315 -0.1345 -0.5344
 1225ntf    sn2 9184   5.016   1.582   2.153 -0.1898 -0.1208 -0.0334
 1225ntf    cn1 9185   5.059   1.430   2.063 -0.1072 -0.1131 -0.0065
 1225ntf    fn4 9186   4.641   1.490   2.308  0.2444  0.0009  0.2158
 1225ntf    fn4 9187   4.779   1.629   2.397  0.4802 -0.1389 -0.4820
 1225ntf    fn4 9188   4.584   1.686   2.343  0.3841  0.1468 -0.5904
 1225ntf    on5 9189   4.624   1.610   2.066 -0.1320 -0.1454 -0.5836
 1225ntf    on5 9190   4.769   1.799   2.129 -0.4184 -0.1053 -0.5233
 1225ntf    on5 9191   5.069   1.690   2.074 -0.0639 -0.1103  0.0647
 1225ntf    on5 9192   5.074   1.547   2.280 -0.6317  0.0146  0.2068
 1225ntf    fn4 9193   5.188   1.416   2.035 -0.1394 -0.6264  0.0975
 1225ntf    fn4 9194   4.989   1.418   1.952 -0.1075 -0.8034  0.0661
 1225ntf    fn4 9195   5.038   1.322   2.137 -0.0018 -0.5950 -0.6717
 1226ntf    cn1 9196   3.661   0.919   6.200  0.4199 -0.1939 -0.0901
 1226ntf    sn2 9197   3.801   0.820   6.260  0.3353  0.0101  0.4493
 1226ntf    nn3 9198   3.787   0.816   6.417 -0.5704 -0.2668  0.3677
 1226ntf    sn2 9199   3.876   0.872   6.534  0.0964 -0.1094 -0.2050
 1226ntf    cn1 9200   3.829   1.048   6.536 -0.3409 -0.2279  0.2019
 1226ntf    fn4 9201   3.656   1.039   6.256 -0.2344 -0.5129  0.5517
 1226ntf    fn4 9202   3.659   0.939   6.069 -0.4676  0.1693 -0.0246
 1226ntf    fn4 9203   3.547   0.859   6.230  0.3297  0.0181 -0.0037
 1226ntf    on5 9204   3.780   0.687   6.209 -0.7312  0.3436 -0.0113
 1226ntf    on5 9205   3.911   0.898   6.211  0.6542 -0.2586  0.7283
 1226ntf    on5 9206   3.825   0.823   6.660 -0.1118  0.4171 -0.0836
 1226ntf    on5 9207   4.016   0.879   6.503 -0.0422 -0.1078 -0.8587
 1226ntf    fn4 9208   3.908   1.119   6.614 -0.3661 -0.2089  0.2099
 1226ntf    fn4 9209   3.707   1.079   6.576 -0.5408  0.1400 -0.6553
 1226ntf    fn4 9210   3.843   1.101   6.415 -0.2680  0.1372  0.3690
 1227ntf    cn1 9211   4.001   4.756   2.754  0.3778 -0.1275  0.6119
 1227ntf    sn2 9212   4.048   4.661   2.606 -0.3142 -0.0217  0.3202
 1227ntf    nn3 9213   3.944   4.544   2.622  0.5709 -0.9154 -0.3152
 1227ntf    sn2 9214   3.793   4.550   2.580  0.3578 -0.1355  0.5126
 1227ntf    cn1 9215   3.715   4.469   2.723 -0.5035  0.1785  0.2255
 1227ntf    fn4 9216   3.984   4.676   2.859  0.7799 -0.0891  0.7084
 1227ntf    fn4 9217   4.089   4.849   2.789  0.0894  0.2946  0.2286
 1227ntf    fn4 9218   3.893   4.829   2.731  0.3386 -0.3654  0.0241
 1227ntf    on5 9219   4.036   4.751   2.495  0.0388 -0.2047  0.1300
 1227ntf    on5 9220   4.178   4.610   2.644  0.0765  0.2859 -0.5838
 1227ntf    on5 9221   3.724   4.674   2.557  0.3483 -0.2164  0.0774
 1227ntf    on5 9222   3.766   4.446   2.483 -2.1110  0.7570  0.1671
 1227ntf    fn4 9223   3.595   4.417   2.702 -0.1139 -0.5324 -0.2643
 1227ntf    fn4 9224   3.695   4.556   2.821  0.2324  0.1587  0.3949
 1227ntf    fn4 9225   3.801   4.378   2.765 -0.7557  0.0495  0.4660
 1228ntf    cn1 9226   0.351   3.509   2.741  0.2359  0.0718  0.1888
 1228ntf    sn2 9227   0.349   3.401   2.595 -0.0572 -0.0663  0.2931
 1228ntf    nn3 9228   0.377   3.258   2.653 -0.3548 -0.2346  0.0305
 1228ntf    sn2 9229   0.498   3.161   2.625 -0.3441 -0.2032 -0.0320
 1228ntf    cn1 9230   0.432   3.000   2.678 -0.2550 -0.1647  0.1988
 1228ntf    fn4 9231   0.448   3.474   2.823  0.1649 -0.3283  0.1063
 1228ntf    fn4 9232   0.358   3.638   2.713  0.1737  0.0560  0.0997
 1228ntf    fn4 9233   0.237   3.502   2.809 -0.1332 -0.0657 -0.4320
 1228ntf    on5 9234   0.212   3.423   2.556 -0.0486  0.1630  0.3945
 1228ntf    on5 9235   0.452   3.448   2.506 -0.3756  0.0341 -0.0264
 1228ntf    on5 9236   0.521   3.134   2.486 -0.1420  0.0370 -0.0471
 1228ntf    on5 9237   0.614   3.185   2.708 -0.3790 -0.0024 -0.0397
 1228ntf    fn4 9238   0.319   2.969   2.616 -0.0923 -0.0984 -0.1293
 1228ntf    fn4 9239   0.404   3.001   2.808 -0.0817  0.4802  0.2384
 1228ntf    fn4 9240   0.511   2.900   2.646  0.3474  0.3624  0.0151
 1229ntf    cn1 9241   0.315   0.430   4.170 -0.0871 -0.0702  0.3480
 1229ntf    sn2 9242   0.375   0.572   4.266  0.0566 -0.1130  0.3207
 1229ntf    nn3 9243   0.522   0.523   4.292  0.3118  0.3293 -0.2618
 1229ntf    sn2 9244   0.656   0.605   4.292  0.3243  0.3089 -0.2096
 1229ntf    cn1 9245   0.727   0.566   4.129 -0.1752  0.6534 -0.5088
 1229ntf    fn4 9246   0.211   0.460   4.094  0.3036 -0.0385 -0.1827
 1229ntf    fn4 9247   0.413   0.385   4.093 -0.2360  0.5555 -0.2166
 1229ntf    fn4 9248   0.281   0.328   4.247 -0.8985  0.4566  0.7003
 1229ntf    on5 9249   0.358   0.689   4.184  0.0909 -0.6910 -0.5228
 1229ntf    on5 9250   0.299   0.577   4.388 -0.4544 -0.1770  0.0091
 1229ntf    on5 9251   0.657   0.749   4.298  0.3546  0.2936  0.2059
 1229ntf    on5 9252   0.754   0.539   4.375 -0.7098 -0.7766  0.1739
 1229ntf    fn4 9253   0.829   0.639   4.086  0.6223  0.2145  0.5969
 1229ntf    fn4 9254   0.625   0.570   4.045 -0.6548 -0.1371  0.0233
 1229ntf    fn4 9255   0.768   0.441   4.120 -0.4096  0.4638  0.8241
 1230ntf    cn1 9256   5.852   1.362   5.589  0.3035 -0.2818  0.1997
 1230ntf    sn2 9257   5.723   1.420   5.702 -0.1735  0.1052 -0.5333
 1230ntf    nn3 9258   5.617   1.306   5.681  0.2261 -0.2473 -0.6547
 1230ntf    sn2 9259   5.628   1.159   5.736 -0.1873  0.0487  0.2423
 1230ntf    cn1 9260   5.498   1.074   5.642 -0.2304  0.0796  0.2730
 1230ntf    fn4 9261   5.929   1.461   5.549  0.6519 -0.5900  0.0967
 1230ntf    fn4 9262   5.930   1.260   5.624  0.4996 -0.2800 -0.2226
 1230ntf    fn4 9263   5.793   1.317   5.479 -0.1886  0.4200  0.1726
 1230ntf    on5 9264   5.804   1.436   5.820 -0.3984 -0.1447 -0.3417
 1230ntf    on5 9265   5.674   1.540   5.640  0.3123  0.1148 -0.9062
 1230ntf    on5 9266   5.738   1.082   5.685  0.4244  0.8560  0.3125
 1230ntf    on5 9267   5.596   1.150   5.876  0.2098  0.7527  0.3858
 1230ntf    fn4 9268   5.378   1.117   5.676 -0.1015  0.1899  0.5943
 1230ntf    fn4 9269   5.502   0.944   5.670 -0.1146  0.1496  0.5829
 1230ntf    fn4 9270   5.518   1.082   5.512 -0.4215 -0.2240  0.2223
 1231ntf    cn1 9271   1.258   6.353   5.293 -0.3627 -0.2254  0.3424
 1231ntf    sn2 9272   1.126   6.467   5.241 -0.0069  0.0891  0.1266
 1231ntf    nn3 9273   1.022   6.461   5.358 -0.3388 -0.1000 -0.1766
 1231ntf    sn2 9274   0.886   6.539   5.371 -0.2956 -0.0540  0.0022
 1231ntf    cn1 9275   0.951   6.696   5.436  0.0462 -0.3284  0.3282
 1231ntf    fn4 9276   1.344   6.330   5.195  0.0462 -0.0083  0.6468
 1231ntf    fn4 9277   1.335   6.413   5.381 -0.0391 -0.0081 -0.0866
 1231ntf    fn4 9278   1.217   6.235   5.337  0.3901 -0.3434  0.7316
 1231ntf    on5 9279   1.185   6.597   5.219  0.5290 -0.0715  0.5819
 1231ntf    on5 9280   1.080   6.388   5.129 -0.5262  0.4321  0.0968
 1231ntf    on5 9281   0.824   6.575   5.246 -0.4031  0.3844  0.1829
 1231ntf    on5 9282   0.805   6.494   5.482 -0.6316  0.0252 -0.2109
 1231ntf    fn4 9283   0.865   6.775   5.497 -0.3285 -0.1904 -0.3743
 1231ntf    fn4 9284   1.007   6.759   5.334 -0.5403  0.2440  0.3588
 1231ntf    fn4 9285   1.044   6.683   5.530  0.2581  0.2462  0.1968
 1232ntf    cn1 9286   1.098   3.174   4.802  0.1387 -0.1614 -0.0650
 1232ntf    sn2 9287   0.971   3.302   4.830  0.0082 -0.3025 -0.0127
 1232ntf    nn3 9288   0.841   3.214   4.837 -0.0025 -0.2523  0.4736
 1232ntf    sn2 9289   0.689   3.253   4.841  0.0808  0.1127  0.1563
 1232ntf    cn1 9290   0.631   3.218   4.672  0.2291 -0.1510  0.1591
 1232ntf    fn4 9291   1.080   3.087   4.704 -0.3136  0.0392 -0.1646
 1232ntf    fn4 9292   1.220   3.221   4.783 -0.1930  0.7625  0.0045
 1232ntf    fn4 9293   1.108   3.105   4.914  0.1572  0.3741  0.2682
 1232ntf    on5 9294   0.993   3.366   4.957  0.4434  0.4332 -0.4566
 1232ntf    on5 9295   0.970   3.381   4.710  0.4729 -0.0195  0.1701
 1232ntf    on5 9296   0.612   3.152   4.910  0.0474 -0.0093 -0.0567
 1232ntf    on5 9297   0.661   3.393   4.863  0.2225  0.1159  0.3133
 1232ntf    fn4 9298   0.500   3.234   4.672  0.1835 -0.5217  0.1305
 1232ntf    fn4 9299   0.666   3.098   4.629  0.8589 -0.2223  0.8523
 1232ntf    fn4 9300   0.672   3.305   4.581 -0.0217  0.5465  0.7030
 1233ntf    cn1 9301   1.368   0.827   3.808 -0.0058 -0.0600  0.0987
 1233ntf    sn2 9302   1.507   0.922   3.739 -0.2835  0.0661 -0.2906
 1233ntf    nn3 9303   1.427   1.000   3.629  0.3784  0.0225 -0.8038
 1233ntf    sn2 9304   1.440   1.153   3.596 -0.0847  0.3615  0.5456
 1233ntf    cn1 9305   1.615   1.173   3.550 -0.0417  0.4224  0.7327
 1233ntf    fn4 9306   1.252   0.889   3.813 -0.2873 -0.5624 -0.1047
 1233ntf    fn4 9307   1.344   0.717   3.739  0.1133  0.1004 -0.1991
 1233ntf    fn4 9308   1.393   0.777   3.928 -0.2952 -0.8524 -0.1654
 1233ntf    on5 9309   1.553   1.003   3.850  0.3518 -0.8568  0.1326
 1233ntf    on5 9310   1.603   0.829   3.687 -0.1168  0.0831 -0.0174
 1233ntf    on5 9311   1.370   1.194   3.477  0.5651 -0.5033 -0.1433
 1233ntf    on5 9312   1.431   1.237   3.713  0.5262  0.8212  0.2689
 1233ntf    fn4 9313   1.651   1.300   3.552 -0.1141  0.4751 -0.4026
 1233ntf    fn4 9314   1.632   1.134   3.424  0.3381  0.1957  0.8531
 1233ntf    fn4 9315   1.709   1.103   3.612  0.1594 -0.1151 -0.1557
 1234ntf    cn1 9316   1.626   0.489   5.681  0.1044 -0.1607  0.1037
 1234ntf    sn2 9317   1.717   0.458   5.527  0.2073  0.3032  0.0705
 1234ntf    nn3 9318   1.600   0.484   5.426 -0.0659  0.2714  0.3787
 1234ntf    sn2 9319   1.556   0.605   5.336  0.1873  0.1701  0.1184
 1234ntf    cn1 9320   1.704   0.615   5.231  0.1042 -0.3293 -0.0520
 1234ntf    fn4 9321   1.547   0.384   5.697 -0.3636  0.1798  0.0365
 1234ntf    fn4 9322   1.699   0.506   5.791  0.2232 -0.0575  0.0086
 1234ntf    fn4 9323   1.537   0.586   5.685  0.2469 -0.0440  0.5737
 1234ntf    on5 9324   1.822   0.557   5.529  0.2109  0.2976  0.1794
 1234ntf    on5 9325   1.762   0.321   5.536  0.2889  0.3346  0.1458
 1234ntf    on5 9326   1.447   0.570   5.248  0.4870  0.7000 -0.4708
 1234ntf    on5 9327   1.551   0.739   5.387 -0.8271  0.1496  0.0936
 1234ntf    fn4 9328   1.816   0.637   5.298  0.1595 -0.2659 -0.1642
 1234ntf    fn4 9329   1.688   0.718   5.150 -0.9069 -0.5401 -0.1346
 1234ntf    fn4 9330   1.722   0.508   5.156  0.3932 -0.2209 -0.1382
 1235ntf    cn1 9331   3.897   0.917   1.081 -0.1686 -0.1528  0.0386
 1235ntf    sn2 9332   3.892   0.788   1.208 -0.0729  0.2171  0.4203
 1235ntf    nn3 9333   3.897   0.659   1.118  0.3368  0.3132  0.3048
 1235ntf    sn2 9334   3.780   0.566   1.068  0.3691  0.3158  0.2243
 1235ntf    cn1 9335   3.823   0.406   1.143  0.1701 -0.1055 -0.5442
 1235ntf    fn4 9336   3.780   0.906   1.020  0.0279 -0.2589 -0.3276
 1235ntf    fn4 9337   3.918   1.033   1.141 -0.0735 -0.0118 -0.2642
 1235ntf    fn4 9338   3.991   0.896   0.990 -0.0779 -0.2545  0.1564
 1235ntf    on5 9339   4.016   0.810   1.278  0.0107  0.1479  0.2930
 1235ntf    on5 9340   3.772   0.809   1.286 -0.7981  0.0419 -0.6256
 1235ntf    on5 9341   3.650   0.606   1.115 -0.0812 -0.5520 -0.2767
 1235ntf    on5 9342   3.797   0.531   0.929 -0.2549 -0.0215  0.2331
 1235ntf    fn4 9343   3.830   0.420   1.275 -0.3060  0.6460 -0.5938
 1235ntf    fn4 9344   3.938   0.355   1.101  0.1037 -1.0207  0.3502
 1235ntf    fn4 9345   3.735   0.311   1.118 -0.0652 -0.0752  0.1297
 1236ntf    cn1 9346   5.741   4.764   0.756 -0.2738 -0.1303  0.0159
 1236ntf    sn2 9347   5.846   4.754   0.608 -0.3865 -0.0487 -0.0700
 1236ntf    nn3 9348   5.898   4.902   0.613 -0.1365 -0.1250 -0.3591
 1236ntf    sn2 9349   5.960   4.980   0.734 -0.3003 -0.4697 -0.0522
 1236ntf    cn1 9350   6.025   5.119   0.637 -0.0931 -0.3169  0.3042
 1236ntf    fn4 9351   5.661   4.660   0.772  0.1069 -0.4415 -0.0962
 1236ntf    fn4 9352   5.819   4.772   0.862  0.7548 -0.5793 -0.6919
 1236ntf    fn4 9353   5.659   4.868   0.749 -0.5400 -0.3442 -0.0787
 1236ntf    on5 9354   5.939   4.650   0.644 -0.4786 -0.0214  0.2477
 1236ntf    on5 9355   5.765   4.719   0.495  0.0723  0.2145 -0.4851
 1236ntf    on5 9356   5.870   5.040   0.830  0.4611  0.0257  0.3653
 1236ntf    on5 9357   6.080   4.914   0.782 -0.2405 -0.3696 -0.0629
 1236ntf    fn4 9358   6.112   5.076   0.547 -0.0442 -0.0706  0.2331
 1236ntf    fn4 9359   6.092   5.210   0.707  0.8446 -0.2852 -0.6005
 1236ntf    fn4 9360   5.922   5.177   0.578  0.0905  0.1729  0.4622
 1237ntf    cn1 9361   4.919   4.956   3.942 -0.0166 -0.2947  0.1660
 1237ntf    sn2 9362   5.077   4.991   3.859 -0.2515  0.2701 -0.0504
 1237ntf    nn3 9363   5.131   4.853   3.807 -0.0011  0.2268  0.3246
 1237ntf    sn2 9364   5.232   4.749   3.867 -0.0225  0.1331  0.1992
 1237ntf    cn1 9365   5.382   4.838   3.818 -0.4493  0.6957 -0.0905
 1237ntf    fn4 9366   4.874   5.067   3.998 -0.5273 -0.1400 -0.5381
 1237ntf    fn4 9367   4.829   4.913   3.855 -0.3749  0.1803  0.2937
 1237ntf    fn4 9368   4.936   4.867   4.038  0.0498 -0.0707  0.3641
 1237ntf    on5 9369   5.031   5.069   3.746  0.3040  0.0740 -0.4167
 1237ntf    on5 9370   5.155   5.044   3.968  0.1117  0.1583 -0.2526
 1237ntf    on5 9371   5.237   4.741   4.011 -0.4062  0.2431  0.2191
 1237ntf    on5 9372   5.232   4.628   3.789 -0.4112 -0.0852  0.5334
 1237ntf    fn4 9373   5.421   4.944   3.889 -0.2804  0.3090  0.3989
 1237ntf    fn4 9374   5.386   4.884   3.694  0.3173  0.3708 -0.1929
 1237ntf    fn4 9375   5.488   4.760   3.830 -0.7529  0.3588  0.4137
 1238ntf    cn1 9376   5.643   0.636   1.225  0.1265  0.3505  0.1687
 1238ntf    sn2 9377   5.556   0.544   1.095  0.3156 -0.3658  0.5414
 1238ntf    nn3 9378   5.453   0.465   1.183 -0.2336 -0.7419 -0.4296
 1238ntf    sn2 9379   5.478   0.330   1.258  0.3175 -0.3408  0.1182
 1238ntf    cn1 9380   5.435   0.206   1.132 -0.2845  0.0223 -0.0385
 1238ntf    fn4 9381   5.701   0.746   1.180 -0.3644  0.4900 -0.1204
 1238ntf    fn4 9382   5.566   0.668   1.328  0.3671 -0.4524  0.6084
 1238ntf    fn4 9383   5.742   0.565   1.276 -0.0487 -0.1838 -0.2364
 1238ntf    on5 9384   5.482   0.651   1.032  0.4391 -0.5705  0.0410
 1238ntf    on5 9385   5.660   0.477   1.021  0.1474  0.1163 -0.1405
 1238ntf    on5 9386   5.614   0.312   1.303  0.3101  0.5583  0.5294
 1238ntf    on5 9387   5.372   0.307   1.354 -0.2032  0.0679 -0.3530
 1238ntf    fn4 9388   5.318   0.230   1.076 -0.2301  0.0868 -0.1267
 1238ntf    fn4 9389   5.439   0.086   1.188  0.2582  0.0826  0.0617
 1238ntf    fn4 9390   5.535   0.213   1.045  0.0652 -0.1367  0.3461
 1239ntf    cn1 9391   6.510   5.117   4.825  0.0450  0.5488 -0.5533
 1239ntf    sn2 9392   6.349   5.202   4.832 -0.0010  0.4225 -0.0151
 1239ntf    nn3 9393   6.346   5.227   4.677  0.1058 -0.0333 -0.0921
 1239ntf    sn2 9394   6.237   5.203   4.567 -0.0800  0.0116  0.0830
 1239ntf    cn1 9395   6.340   5.126   4.439 -0.3596 -0.0455 -0.1094
 1239ntf    fn4 9396   6.516   5.044   4.715 -0.3062 -0.0272 -0.1973
 1239ntf    fn4 9397   6.610   5.204   4.832  0.2758  0.3004 -0.7406
 1239ntf    fn4 9398   6.519   5.026   4.921  0.0980  0.0713 -1.0046
 1239ntf    on5 9399   6.259   5.096   4.872  0.5700  0.1730  0.6287
 1239ntf    on5 9400   6.373   5.319   4.913 -0.0036  0.5952 -0.2625
 1239ntf    on5 9401   6.142   5.100   4.604 -0.3441  0.2323  0.0247
 1239ntf    on5 9402   6.172   5.323   4.520  0.1852  0.0015 -0.3115
 1239ntf    fn4 9403   6.436   5.206   4.396 -0.0815 -0.1471  0.3269
 1239ntf    fn4 9404   6.270   5.088   4.333 -0.1919  0.3438 -0.3612
 1239ntf    fn4 9405   6.397   5.016   4.486  0.7380  0.1632 -0.8977
 1240ntf    cn1 9406   0.080   2.237   2.739 -0.0865  0.2052  0.2104
 1240ntf    sn2 9407  -0.075   2.288   2.658 -0.0270  0.0284 -0.0157
 1240ntf    nn3 9408  -0.188   2.228   2.749  0.1523 -0.1227  0.1082
 1240ntf    sn2 9409  -0.328   2.163   2.717  0.2022 -0.1508 -0.0497
 1240ntf    cn1 9410  -0.295   1.986   2.693 -0.0860 -0.2556  0.3246
 1240ntf    fn4 9411   0.089   2.106   2.725 -0.8677  0.2750 -1.1177
 1240ntf    fn4 9412   0.191   2.275   2.678 -0.2755  0.1600 -0.1691
 1240ntf    fn4 9413   0.083   2.264   2.868  0.0102  0.0569  0.2384
 1240ntf    on5 9414  -0.064   2.431   2.668 -0.0759  0.0354 -0.0602
 1240ntf    on5 9415  -0.066   2.238   2.523  0.0475 -0.0080  0.0027
 1240ntf    on5 9416  -0.414   2.170   2.832 -0.0404  0.1930 -0.2497
 1240ntf    on5 9417  -0.387   2.207   2.593 -0.0524 -0.4733 -0.0434
 1240ntf    fn4 9418  -0.215   1.938   2.787  0.0184  0.0750  0.4061
 1240ntf    fn4 9419  -0.240   1.966   2.574  0.1803  0.8810  0.2460
 1240ntf    fn4 9420  -0.407   1.916   2.695 -0.3942  0.2265  0.1014
 1241ntf    cn1 9421   1.937   2.356   4.212 -0.4534  0.0304 -0.2149
 1241ntf    sn2 9422   1.997   2.517   4.269 -0.0472 -0.1391 -0.1618
 1241ntf    nn3 9423   2.148   2.522   4.226 -0.0693 -0.1586 -0.2429
 1241ntf    sn2 9424   2.272   2.532   4.322 -0.1726  0.4555 -0.1690
 1241ntf    cn1 9425   2.254   2.697   4.396  0.3908  0.4296  0.0357
 1241ntf    fn4 9426   1.815   2.329   4.255 -0.2994  0.5210  0.5346
 1241ntf    fn4 9427   1.942   2.346   4.080 -0.5037 -0.2554 -0.1977
 1241ntf    fn4 9428   2.016   2.258   4.254 -0.4556 -0.0472 -0.3898
 1241ntf    on5 9429   1.918   2.610   4.193 -0.0460 -0.0131 -0.0113
 1241ntf    on5 9430   1.975   2.505   4.411  0.7383 -0.3937 -0.0548
 1241ntf    on5 9431   2.281   2.446   4.437  0.3849  0.5032 -0.1711
 1241ntf    on5 9432   2.398   2.536   4.251 -0.0591  0.1825  0.0157
 1241ntf    fn4 9433   2.353   2.725   4.479  0.4837  0.5093 -0.1005
 1241ntf    fn4 9434   2.141   2.705   4.465  0.1127 -0.1153 -0.3484
 1241ntf    fn4 9435   2.251   2.794   4.306 -0.0029 -0.1645 -0.6026
 1242ntf    cn1 9436   0.015   0.852   5.769  0.2856 -0.1895 -0.0022
 1242ntf    sn2 9437   0.194   0.823   5.773  0.3211  0.0533  0.1284
 1242ntf    nn3 9438   0.233   0.812   5.621 -0.5107 -0.3022 -0.0598
 1242ntf    sn2 9439   0.266   0.683   5.539  0.0910 -0.3296  0.2225
 1242ntf    cn1 9440   0.405   0.739   5.435  0.1432 -0.4346  0.2346
 1242ntf    fn4 9441  -0.025   0.952   5.693  0.0109 -0.1320  0.2175
 1242ntf    fn4 9442  -0.057   0.746   5.735 -0.0270 -0.0719  0.2896
 1242ntf    fn4 9443  -0.034   0.886   5.887 -0.1858  0.0618 -0.2673
 1242ntf    on5 9444   0.244   0.942   5.839 -0.0382  0.3152 -0.0672
 1242ntf    on5 9445   0.204   0.696   5.840 -0.4124 -0.1919 -0.2265
 1242ntf    on5 9446   0.323   0.571   5.610 -0.4553 -0.8725 -0.1801
 1242ntf    on5 9447   0.170   0.650   5.436 -0.0246 -0.3064  0.3234
 1242ntf    fn4 9448   0.512   0.777   5.503  0.1755  0.2373 -0.1840
 1242ntf    fn4 9449   0.360   0.839   5.360 -0.1061 -0.5043  0.2887
 1242ntf    fn4 9450   0.457   0.650   5.353 -0.1743 -0.1855 -0.2459
 1243ntf    cn1 9451   0.849   1.179   4.953 -0.1560 -0.4064  0.0994
 1243ntf    sn2 9452   0.737   1.320   4.929  0.0957 -0.2497 -0.1518
 1243ntf    nn3 9453   0.712   1.317   4.774 -0.1806 -0.0777 -0.1112
 1243ntf    sn2 9454   0.586   1.259   4.700 -0.1312  0.0262 -0.2777
 1243ntf    cn1 9455   0.653   1.211   4.538  0.4527  0.0774 -0.0537
 1243ntf    fn4 9456   0.926   1.180   5.061 -0.4146  0.2981  0.2800
 1243ntf    fn4 9457   0.781   1.068   4.975 -0.8500  0.0282  0.1924
 1243ntf    fn4 9458   0.926   1.171   4.846 -0.1518  0.7240  0.0077
 1243ntf    on5 9459   0.627   1.291   5.017  0.5347  0.0070  0.4916
 1243ntf    on5 9460   0.819   1.432   4.970  0.0387  0.1080 -0.9792
 1243ntf    on5 9461   0.534   1.133   4.747  0.2089 -0.1720 -0.4269
 1243ntf    on5 9462   0.490   1.364   4.677  0.1607  0.3802  0.1017
 1243ntf    fn4 9463   0.765   1.140   4.539  0.2457 -0.2467  0.3959
 1243ntf    fn4 9464   0.675   1.322   4.469  0.3349  0.2434  0.1719
 1243ntf    fn4 9465   0.567   1.139   4.469  0.4111  0.3442 -0.2848
 1244ntf    cn1 9466   5.840   4.569   5.915  0.6540  0.1673 -0.2276
 1244ntf    sn2 9467   5.886   4.630   6.080  0.1993  0.0081 -0.0422
 1244ntf    nn3 9468   5.796   4.534   6.167  0.0206  0.0168 -0.2156
 1244ntf    sn2 9469   5.850   4.417   6.257 -0.2135 -0.1218 -0.2564
 1244ntf    cn1 9470   5.907   4.512   6.401 -0.2767 -0.2863 -0.1225
 1244ntf    fn4 9471   5.712   4.588   5.890  0.5762 -0.3656 -0.2407
 1244ntf    fn4 9472   5.907   4.630   5.819  0.7992 -0.0389 -0.2593
 1244ntf    fn4 9473   5.863   4.440   5.898  0.5344  0.0588  0.4139
 1244ntf    on5 9474   6.030   4.627   6.080  0.1902 -0.5673 -0.3466
 1244ntf    on5 9475   5.835   4.765   6.084  0.2221  0.0067  0.3257
 1244ntf    on5 9476   5.746   4.335   6.315  0.1308 -0.3462  0.0431
 1244ntf    on5 9477   5.969   4.354   6.206  0.0833 -0.0249  0.3059
 1244ntf    fn4 9478   5.829   4.612   6.440 -0.3599 -0.4014  0.0056
 1244ntf    fn4 9479   6.030   4.557   6.383 -0.5578  0.4344 -0.2699
 1244ntf    fn4 9480   5.899   4.434   6.507 -0.7352  0.0297  0.0818
 1245ntf    cn1 9481   3.134   6.100   1.111 -0.0953  0.1308 -0.0688
 1245ntf    sn2 9482   3.308   6.064   1.151 -0.1070  0.2164  0.0607
 1245ntf    nn3 9483   3.311   5.907   1.142  0.4550  0.2256  0.0337
 1245ntf    sn2 9484   3.431   5.823   1.086  0.1209 -0.1422 -0.1409
 1245ntf    cn1 9485   3.393   5.800   0.910  0.4949 -0.3823 -0.1917
 1245ntf    fn4 9486   3.045   6.055   1.197  0.0348 -0.0151 -0.0104
 1245ntf    fn4 9487   3.097   6.226   1.092  0.0764  0.2055  0.0841
 1245ntf    fn4 9488   3.104   6.035   1.000 -0.7923  0.4783 -0.0860
 1245ntf    on5 9489   3.384   6.138   1.053  0.4923 -0.7937 -0.2592
 1245ntf    on5 9490   3.314   6.102   1.290  0.7739 -0.2317  0.1529
 1245ntf    on5 9491   3.562   5.884   1.087 -0.1561  0.4553  0.0812
 1245ntf    on5 9492   3.424   5.688   1.134  0.1149 -0.0463  0.1311
 1245ntf    fn4 9493   3.464   5.873   0.826 -0.2111 -0.0477 -0.5002
 1245ntf    fn4 9494   3.264   5.800   0.882  0.3703 -0.2569  0.3589
 1245ntf    fn4 9495   3.425   5.677   0.874  0.0860 -0.5210 -0.0839
 1246ntf    cn1 9496   3.320   1.839   6.437  0.0305  0.3376 -0.2998
 1246ntf    sn2 9497   3.272   1.985   6.340 -0.4440  0.0413 -0.5148
 1246ntf    nn3 9498   3.129   2.017   6.394 -0.2231 -0.3570  0.3126
 1246ntf    sn2 9499   2.996   1.953   6.339 -0.3568  0.1527  0.0394
 1246ntf    cn1 9500   2.941   2.085   6.227  0.7578  0.3079 -0.3405
 1246ntf    fn4 9501   3.348   1.868   6.563  0.2110 -0.2679 -0.1975
 1246ntf    fn4 9502   3.220   1.753   6.438  0.7995 -0.5752  0.2596
 1246ntf    fn4 9503   3.424   1.771   6.392 -0.0339  0.1194 -0.1207
 1246ntf    on5 9504   3.371   2.083   6.379 -0.4816 -0.0095 -0.2897
 1246ntf    on5 9505   3.275   1.937   6.204 -1.0222  0.0314 -0.5242
 1246ntf    on5 9506   3.008   1.830   6.265 -0.4676  0.4247 -0.4369
 1246ntf    on5 9507   2.886   1.952   6.433 -0.6754 -0.0860 -0.3367
 1246ntf    fn4 9508   2.918   2.183   6.313 -0.0262  0.3769 -0.6147
 1246ntf    fn4 9509   2.827   2.057   6.166  0.8087 -0.3923 -0.1215
 1246ntf    fn4 9510   3.022   2.130   6.133  0.7360  0.2194 -0.4018
 1247ntf    cn1 9511   3.469   2.310   0.662  0.0181 -0.1272  0.3169
 1247ntf    sn2 9512   3.609   2.287   0.548  0.0056 -0.0296  0.2813
 1247ntf    nn3 9513   3.547   2.322   0.408  0.0120  0.0753  0.3047
 1247ntf    sn2 9514   3.595   2.432   0.307  0.2129 -0.2002  0.1002
 1247ntf    cn1 9515   3.474   2.427   0.172  0.0778 -0.0020  0.2136
 1247ntf    fn4 9516   3.504   2.290   0.788  0.1085 -0.2437  0.2735
 1247ntf    fn4 9517   3.420   2.433   0.668  0.1330 -0.0627 -0.0387
 1247ntf    fn4 9518   3.367   2.228   0.644 -0.1737  0.2393 -0.3287
 1247ntf    on5 9519   3.711   2.381   0.589 -0.2830  0.1452  0.6083
 1247ntf    on5 9520   3.641   2.148   0.569  0.3203 -0.0120 -0.0827
 1247ntf    on5 9521   3.568   2.567   0.350 -0.2259 -0.3212  0.2072
 1247ntf    on5 9522   3.721   2.397   0.247  0.3722 -0.0392  0.3392
 1247ntf    fn4 9523   3.350   2.462   0.202 -0.0134 -0.3085  0.1994
 1247ntf    fn4 9524   3.467   2.310   0.110 -0.1420  0.7126 -1.1493
 1247ntf    fn4 9525   3.521   2.516   0.086  0.4754  0.3108  0.7525
 1248ntf    cn1 9526   6.025   2.948   6.329 -0.2765  0.0712 -0.5212
 1248ntf    sn2 9527   6.022   2.772   6.373 -0.4441  0.2573  0.2378
 1248ntf    nn3 9528   5.870   2.734   6.378 -0.5240  0.5406  0.0119
 1248ntf    sn2 9529   5.761   2.768   6.486 -0.2205  0.0354  0.4889
 1248ntf    cn1 9530   5.773   2.616   6.585 -0.4106 -0.5941 -0.4332
 1248ntf    fn4 9531   6.152   2.983   6.314 -0.1927 -0.1007 -0.2172
 1248ntf    fn4 9532   5.973   2.969   6.209  0.0685  0.3642 -0.6227
 1248ntf    fn4 9533   5.969   3.027   6.419  0.0529 -0.1964 -0.0745
 1248ntf    on5 9534   6.093   2.717   6.259  0.3852  1.2413  0.2674
 1248ntf    on5 9535   6.097   2.758   6.495 -0.0111  1.1424  0.0821
 1248ntf    on5 9536   5.775   2.887   6.566 -0.1385  0.3560  0.0055
 1248ntf    on5 9537   5.632   2.765   6.420 -0.0420  0.3328  0.1190
 1248ntf    fn4 9538   5.670   2.592   6.664  0.0416  0.3678  0.4773
 1248ntf    fn4 9539   5.879   2.619   6.665 -0.5659  0.9312 -0.2509
 1248ntf    fn4 9540   5.789   2.510   6.508  0.5472 -1.1071  0.4554
 1249ntf    cn1 9541   0.119   4.225   2.487  0.2097  0.0278  0.0511
 1249ntf    sn2 9542   0.174   4.057   2.447  0.0370 -0.0913  0.3078
 1249ntf    nn3 9543   0.175   4.057   2.290 -0.2310  0.3850  0.3048
 1249ntf    sn2 9544   0.298   4.105   2.204 -0.1245 -0.2335  0.1073
 1249ntf    cn1 9545   0.342   3.946   2.128  0.1598 -0.0500 -0.1113
 1249ntf    fn4 9546  -0.001   4.252   2.436  0.1719 -0.3850 -0.0820
 1249ntf    fn4 9547   0.098   4.224   2.618 -0.2731 -0.1841 -0.0256
 1249ntf    fn4 9548   0.212   4.311   2.449  0.4118 -0.2859 -0.1668
 1249ntf    on5 9549   0.305   4.050   2.506  0.2334 -0.9423 -0.2054
 1249ntf    on5 9550   0.069   3.973   2.500  0.0507 -0.5574 -0.3818
 1249ntf    on5 9551   0.257   4.198   2.102 -0.3466 -0.6494 -0.1884
 1249ntf    on5 9552   0.423   4.142   2.265 -0.2704  0.5330 -0.0512
 1249ntf    fn4 9553   0.245   3.877   2.069  0.2898  0.1732 -0.5939
 1249ntf    fn4 9554   0.388   3.860   2.218  0.5967 -0.0957 -0.3747
 1249ntf    fn4 9555   0.435   3.962   2.035  0.1803  0.2107 -0.0464
 1250ntf    cn1 9556   3.376   1.275   3.697 -0.1827  0.3985  0.0267
 1250ntf    sn2 9557   3.475   1.254   3.546 -0.0627 -0.6146  0.2353
 1250ntf    nn3 9558   3.365   1.219   3.439 -0.2137  0.5351  0.0050
 1250ntf    sn2 9559   3.262   1.311   3.363 -0.4520 -0.0836 -0.4244
 1250ntf    cn1 9560   3.352   1.336   3.207 -0.0534 -0.0505 -0.1923
 1250ntf    fn4 9561   3.453   1.301   3.802 -0.1977 -0.6844  0.3203
 1250ntf    fn4 9562   3.295   1.379   3.686 -0.4882  0.1763  0.1625
 1250ntf    fn4 9563   3.299   1.171   3.724 -0.0916  0.0931 -0.8696
 1250ntf    on5 9564   3.533   1.384   3.524 -0.4894 -0.4298  0.1911
 1250ntf    on5 9565   3.554   1.137   3.572  0.4182 -0.4368 -0.3879
 1250ntf    on5 9566   3.146   1.235   3.324 -0.5217 -0.1823 -0.0303
 1250ntf    on5 9567   3.240   1.443   3.414 -0.1256 -0.5580  0.9850
 1250ntf    fn4 9568   3.450   1.418   3.238 -0.3149  0.3471 -0.4031
 1250ntf    fn4 9569   3.282   1.410   3.121 -0.1959 -0.3005 -0.2932
 1250ntf    fn4 9570   3.404   1.233   3.143  0.2645 -0.2986  0.4657
 1251ntf    cn1 9571   4.426   2.762   1.785 -0.6702  0.0789  0.3403
 1251ntf    sn2 9572   4.302   2.688   1.675 -0.0456 -0.3014 -0.1163
 1251ntf    nn3 9573   4.252   2.566   1.761  0.0842 -0.1416  0.1887
 1251ntf    sn2 9574   4.270   2.413   1.728  0.1798 -0.0992  0.0445
 1251ntf    cn1 9575   4.130   2.335   1.814 -0.4533  0.5916 -0.3435
 1251ntf    fn4 9576   4.491   2.868   1.740 -0.7563  0.0354  0.1107
 1251ntf    fn4 9577   4.380   2.792   1.905 -0.7381  0.8445  0.1278
 1251ntf    fn4 9578   4.509   2.660   1.805 -0.6616  0.1182  0.5092
 1251ntf    on5 9579   4.203   2.793   1.679  0.3238  0.0595 -0.4684
 1251ntf    on5 9580   4.382   2.671   1.557  0.8683  0.6885  0.3469
 1251ntf    on5 9581   4.239   2.378   1.592  0.1820 -0.4995  0.1477
 1251ntf    on5 9582   4.385   2.360   1.796  0.3033 -0.2450 -0.2775
 1251ntf    fn4 9583   4.017   2.333   1.745 -0.8080 -0.1928  0.2508
 1251ntf    fn4 9584   4.112   2.384   1.936 -0.0275  0.1330 -0.0936
 1251ntf    fn4 9585   4.148   2.206   1.836 -0.5324  0.5992 -0.2326
 1252ntf    cn1 9586   6.246   0.106   4.877  0.6207  0.3879 -0.4130
 1252ntf    sn2 9587   6.162   0.038   4.731  0.0700  0.2029 -0.0113
 1252ntf    nn3 9588   6.175  -0.115   4.763 -0.1663  0.1948  0.0466
 1252ntf    sn2 9589   6.235  -0.246   4.702 -0.0458  0.1686  0.2186
 1252ntf    cn1 9590   6.094  -0.294   4.598  0.1192 -0.2154  0.1709
 1252ntf    fn4 9591   6.268   0.236   4.869  0.0598  0.4981 -0.2008
 1252ntf    fn4 9592   6.193   0.080   4.995  0.1752 -0.3066 -0.7541
 1252ntf    fn4 9593   6.364   0.047   4.888  0.0429 -0.7232 -0.0382
 1252ntf    on5 9594   6.023   0.072   4.749 -0.0793 -0.2527 -0.2797
 1252ntf    on5 9595   6.226   0.093   4.614  0.6350 -0.7846 -0.1731
 1252ntf    on5 9596   6.345  -0.228   4.610 -0.0398 -0.0953  0.1719
 1252ntf    on5 9597   6.244  -0.351   4.800 -0.2302 -0.3555 -0.3174
 1252ntf    fn4 9598   5.987  -0.294   4.676 -0.0649 -0.0576 -0.0810
 1252ntf    fn4 9599   6.107  -0.416   4.547  0.1416 -0.2713  0.3088
 1252ntf    fn4 9600   6.070  -0.220   4.492 -0.0942  0.4914  0.7079
 1253ntf    cn1 9601   6.743   0.557   3.655  0.0197  0.1239 -0.2680
 1253ntf    sn2 9602   6.702   0.731   3.689 -0.1395  0.0553 -0.1022
 1253ntf    nn3 9603   6.814   0.781   3.787  0.0473  0.5438 -0.5577
 1253ntf    sn2 9604   6.796   0.840   3.931 -0.0849 -0.2593 -0.2395
 1253ntf    cn1 9605   6.809   0.687   4.029 -0.0663 -0.0763  0.0433
 1253ntf    fn4 9606   6.668   0.509   3.557  0.2305 -0.0434 -0.3479
 1253ntf    fn4 9607   6.870   0.546   3.621  0.1348  0.1354  0.1551
 1253ntf    fn4 9608   6.724   0.481   3.762 -0.5072 -0.2342 -0.6097
 1253ntf    on5 9609   6.724   0.804   3.566  0.1570 -0.3607 -0.2971
 1253ntf    on5 9610   6.563   0.720   3.726  0.0491 -0.2391  0.5309
 1253ntf    on5 9611   6.914   0.915   3.966 -0.3153  0.0712 -0.1752
 1253ntf    on5 9612   6.666   0.895   3.963  0.3039  0.9214 -0.6387
 1253ntf    fn4 9613   6.734   0.589   3.984 -0.0332 -0.3507  0.5818
 1253ntf    fn4 9614   6.771   0.726   4.150 -0.7466  0.2242 -0.2675
 1253ntf    fn4 9615   6.934   0.644   4.037 -0.1338 -0.3283 -0.2636
 1254ntf    cn1 9616   3.973   2.716   6.134 -0.6092 -0.2054 -0.0863
 1254ntf    sn2 9617   3.908   2.604   6.006 -0.1519 -0.4305 -0.1201
 1254ntf    nn3 9618   3.857   2.711   5.904 -0.2776  0.1389  0.5320
 1254ntf    sn2 9619   3.740   2.702   5.800 -0.1514 -0.4758  0.4393
 1254ntf    cn1 9620   3.594   2.714   5.907 -0.2721  0.4475  0.1801
 1254ntf    fn4 9621   4.092   2.763   6.104 -0.2081 -0.8169  0.5179
 1254ntf    fn4 9622   3.891   2.818   6.156  0.0732  0.2446  0.4189
 1254ntf    fn4 9623   3.988   2.650   6.248  0.0125  0.5070  0.2519
 1254ntf    on5 9624   4.018   2.537   5.941 -0.2455 -0.3148 -0.3979
 1254ntf    on5 9625   3.817   2.523   6.083 -0.2152 -0.1345  0.1171
 1254ntf    on5 9626   3.743   2.824   5.723 -0.0316 -0.2354  0.8259
 1254ntf    on5 9627   3.724   2.579   5.727  0.6799  0.0871 -0.7356
 1254ntf    fn4 9628   3.481   2.709   5.840  0.0177 -0.3053 -0.2582
 1254ntf    fn4 9629   3.591   2.823   5.983  0.2830 -0.0590  0.9491
 1254ntf    fn4 9630   3.593   2.613   5.992 -0.2092  0.9529  0.7973
 1255ntf    cn1 9631   2.833   5.167   5.326 -0.0425 -0.1025 -0.1677
 1255ntf    sn2 9632   2.701   5.057   5.268 -0.1437 -0.0130 -0.1065
 1255ntf    nn3 9633   2.717   4.941   5.372  0.4549 -0.1417 -0.3366
 1255ntf    sn2 9634   2.613   4.923   5.488  0.0512  0.4766 -0.5999
 1255ntf    cn1 9635   2.462   4.886   5.394 -0.0779 -0.2904 -0.0992
 1255ntf    fn4 9636   2.951   5.112   5.299  0.3380  0.2006  0.8279
 1255ntf    fn4 9637   2.833   5.284   5.263 -0.2539  0.0862  0.1788
 1255ntf    fn4 9638   2.841   5.185   5.456 -0.0714  0.0348 -0.1848
 1255ntf    on5 9639   2.577   5.131   5.280 -0.0051  0.3043 -0.6035
 1255ntf    on5 9640   2.744   5.031   5.133  0.0239  0.4997 -0.1539
 1255ntf    on5 9641   2.620   4.808   5.575  0.1915  0.7624 -0.2318
 1255ntf    on5 9642   2.585   5.037   5.572  0.2999  0.4563 -0.4892
 1255ntf    fn4 9643   2.470   4.901   5.263  0.6598  0.9454  0.0678
 1255ntf    fn4 9644   2.365   4.965   5.439 -0.0046 -0.4091  0.2723
 1255ntf    fn4 9645   2.430   4.759   5.411  0.1219 -0.3087  0.1592
 1256ntf    cn1 9646   4.361   0.834   1.930 -0.1139 -0.1818 -0.0693
 1256ntf    sn2 9647   4.471   0.978   1.929 -0.2116 -0.1096 -0.4530
 1256ntf    nn3 9648   4.379   1.081   2.004 -0.5858 -0.8094  0.0585
 1256ntf    sn2 9649   4.365   1.118   2.155 -0.1068 -0.0049 -0.0913
 1256ntf    cn1 9650   4.201   1.197   2.146 -0.1383 -0.0742 -0.1093
 1256ntf    fn4 9651   4.243   0.865   1.879 -0.1483  0.1071  0.1846
 1256ntf    fn4 9652   4.397   0.725   1.865 -0.1737 -0.1814 -0.1031
 1256ntf    fn4 9653   4.323   0.791   2.050  0.1864 -0.0157  0.0884
 1256ntf    on5 9654   4.577   0.927   2.012 -0.5370  0.4253  0.3037
 1256ntf    on5 9655   4.491   0.998   1.788 -0.3222  0.1168 -0.4368
 1256ntf    on5 9656   4.344   1.011   2.249  0.0544  0.3329  0.3403
 1256ntf    on5 9657   4.455   1.224   2.194 -0.0559 -0.1938  0.3176
 1256ntf    fn4 9658   4.118   1.148   2.055 -0.1252 -0.1410 -0.0859
 1256ntf    fn4 9659   4.213   1.327   2.127 -0.4273  0.0333  0.4198
 1256ntf    fn4 9660   4.120   1.180   2.250 -0.2057 -0.3779 -0.2085
 1257ntf    cn1 9661   5.205   6.169   4.805  0.0500  0.2902  0.0261
 1257ntf    sn2 9662   5.371   6.096   4.816 -0.1463 -0.1527  0.0930
 1257ntf    nn3 9663   5.437   6.196   4.918  0.4164 -0.2203 -0.1993
 1257ntf    sn2 9664   5.513   6.331   4.892  0.3389 -0.1165  0.1039
 1257ntf    cn1 9665   5.682   6.268   4.867  0.3303 -0.3881  0.7156
 1257ntf    fn4 9666   5.151   6.134   4.689 -0.0945 -0.2806  0.2568
 1257ntf    fn4 9667   5.113   6.134   4.895 -0.1734 -0.2688 -0.4143
 1257ntf    fn4 9668   5.212   6.301   4.809 -0.8788  0.3540 -0.0504
 1257ntf    on5 9669   5.332   5.977   4.888  0.1242 -0.2199  0.1297
 1257ntf    on5 9670   5.436   6.090   4.688 -0.6176  0.0174 -0.1561
 1257ntf    on5 9671   5.473   6.399   4.771 -0.2057  0.3407  0.5356
 1257ntf    on5 9672   5.514   6.415   5.009  0.2249 -0.2924  0.2309
 1257ntf    fn4 9673   5.730   6.226   4.983 -0.1278 -0.5090  0.8654
 1257ntf    fn4 9674   5.760   6.367   4.828  0.0548 -0.3338  0.2951
 1257ntf    fn4 9675   5.688   6.178   4.771 -0.0399  0.1540  0.1770
 1258ntf    cn1 9676   3.644   2.233   5.117  0.2118  0.1220  0.1529
 1258ntf    sn2 9677   3.715   2.110   5.230 -0.0926 -0.1760  0.0208
 1258ntf    nn3 9678   3.726   2.158   5.379 -0.0892  0.5748 -0.2158
 1258ntf    sn2 9679   3.814   2.277   5.431  0.4166  0.0397  0.1571
 1258ntf    cn1 9680   3.917   2.182   5.548 -0.0137 -0.5072  0.0977
 1258ntf    fn4 9681   3.523   2.254   5.167  0.3693  0.2136  0.4958
 1258ntf    fn4 9682   3.709   2.348   5.101  0.6156 -0.1453 -0.1554
 1258ntf    fn4 9683   3.626   2.183   4.996  0.4534  0.2879  0.0462
 1258ntf    on5 9684   3.617   2.004   5.231 -0.7455  0.4172 -0.0135
 1258ntf    on5 9685   3.838   2.080   5.162  0.1318  0.5029  0.1235
 1258ntf    on5 9686   3.890   2.345   5.329  0.3137  0.6359  0.4738
 1258ntf    on5 9687   3.743   2.368   5.517 -0.1674  0.1864 -0.4812
 1258ntf    fn4 9688   3.955   2.069   5.490  0.1886 -0.5938  0.3959
 1258ntf    fn4 9689   3.842   2.142   5.649 -0.0728 -0.0903  0.2188
 1258ntf    fn4 9690   4.024   2.236   5.603 -0.3405  0.1587  0.0845
 1259ntf    cn1 9691   1.062   5.108   4.358 -0.5910  0.0932  0.4703
 1259ntf    sn2 9692   0.918   5.211   4.315 -0.1035  0.5914  0.0081
 1259ntf    nn3 9693   0.803   5.127   4.383 -0.3312  0.8738 -0.0283
 1259ntf    sn2 9694   0.659   5.098   4.327 -0.1737 -0.5433  0.2674
 1259ntf    cn1 9695   0.707   4.997   4.184  0.1564  0.0768 -0.0634
 1259ntf    fn4 9696   1.087   5.112   4.488 -0.1177 -0.1984  0.3897
 1259ntf    fn4 9697   1.021   4.985   4.333  0.5779 -0.1526 -0.3184
 1259ntf    fn4 9698   1.167   5.130   4.282 -0.8169 -0.2484  0.0540
 1259ntf    on5 9699   0.951   5.327   4.394 -0.1904  0.4209  0.2994
 1259ntf    on5 9700   0.919   5.204   4.171  0.0236  0.0062  0.0326
 1259ntf    on5 9701   0.584   5.003   4.406 -0.4582 -0.7871 -0.2952
 1259ntf    on5 9702   0.590   5.209   4.267  0.9805 -0.6058 -1.2312
 1259ntf    fn4 9703   0.826   4.946   4.208 -0.1794 -0.4850  0.4373
 1259ntf    fn4 9704   0.710   5.049   4.062 -0.1850  0.6965  0.1845
 1259ntf    fn4 9705   0.618   4.899   4.172  0.6585 -0.3829 -0.0522
 1260ntf    cn1 9706   2.910   1.638   5.224  0.2899 -0.4474  0.3689
 1260ntf    sn2 9707   2.843   1.707   5.378  0.1031 -0.4995  0.3122
 1260ntf    nn3 9708   2.704   1.753   5.323  0.2486  0.1797  0.5012
 1260ntf    sn2 9709   2.584   1.829   5.390 -0.0804  0.1386 -0.0337
 1260ntf    cn1 9710   2.595   1.988   5.303 -0.2381  0.1601 -0.0144
 1260ntf    fn4 9711   2.827   1.552   5.167  0.2697  0.1064 -0.4623
 1260ntf    fn4 9712   2.938   1.729   5.131 -0.8398 -0.8530 -0.3866
 1260ntf    fn4 9713   3.022   1.570   5.246  0.0751 -0.9020  0.0688
 1260ntf    on5 9714   2.834   1.588   5.460  0.5697 -1.0018 -0.3446
 1260ntf    on5 9715   2.930   1.815   5.417 -0.2040 -0.2161  0.2139
 1260ntf    on5 9716   2.456   1.777   5.348  0.1474 -0.6349  0.2133
 1260ntf    on5 9717   2.592   1.868   5.529 -0.6124  0.3153 -0.0517
 1260ntf    fn4 9718   2.503   2.069   5.352 -0.8166 -0.5412  0.0679
 1260ntf    fn4 9719   2.575   1.964   5.174 -0.2653  0.2683 -0.0302
 1260ntf    fn4 9720   2.711   2.048   5.326 -0.1226 -0.1285  0.1610
 1261ntf    cn1 9721   3.936   6.664   4.548 -0.0740 -0.0119 -0.0958
 1261ntf    sn2 9722   3.996   6.820   4.620 -0.1224 -0.0994  0.1333
 1261ntf    nn3 9723   3.955   6.774   4.765  0.9917  0.6788  0.7004
 1261ntf    sn2 9724   3.829   6.795   4.857  0.1960 -0.1055 -0.1967
 1261ntf    cn1 9725   3.891   6.899   4.993 -0.0884 -0.3323  0.1075
 1261ntf    fn4 9726   3.967   6.653   4.420  0.0199  0.5875 -0.1253
 1261ntf    fn4 9727   3.981   6.560   4.617 -0.4275 -0.4460 -0.5078
 1261ntf    fn4 9728   3.805   6.651   4.535 -0.2103  0.5652  0.6953
 1261ntf    on5 9729   4.140   6.819   4.613 -0.1000  0.5840  0.3838
 1261ntf    on5 9730   3.926   6.935   4.568  0.4579  0.5531  0.7741
 1261ntf    on5 9731   3.721   6.871   4.801 -0.1409 -0.6201 -0.2482
 1261ntf    on5 9732   3.802   6.673   4.929 -0.2403  0.6266  0.8894
 1261ntf    fn4 9733   3.976   6.839   5.075  0.5850 -0.0340 -0.3573
 1261ntf    fn4 9734   3.796   6.942   5.074  0.5933  0.3858  0.5359
 1261ntf    fn4 9735   3.947   7.012   4.953  0.4448 -0.8183 -0.5427
 1262ntf    cn1 9736   4.977   6.103   0.765  0.0735 -0.0066 -0.1862
 1262ntf    sn2 9737   5.129   6.055   0.852 -0.2979 -0.5204  0.1879
 1262ntf    nn3 9738   5.074   5.980   0.978 -0.0970 -0.1480  0.4986
 1262ntf    sn2 9739   5.039   5.827   0.985 -0.1803 -0.1604 -0.1093
 1262ntf    cn1 9740   5.164   5.790   1.112 -0.2550  0.2460  0.0828
 1262ntf    fn4 9741   4.902   5.998   0.734 -0.5592  0.6917 -1.0749
 1262ntf    fn4 9742   4.900   6.187   0.833  0.0843 -0.0374 -0.1352
 1262ntf    fn4 9743   5.004   6.161   0.650  0.5557  0.3681  0.1128
 1262ntf    on5 9744   5.203   5.972   0.760  0.0133 -0.4236  0.3515
 1262ntf    on5 9745   5.184   6.179   0.900  0.4119 -0.3281 -1.0690
 1262ntf    on5 9746   4.913   5.800   1.050  0.2811 -1.0023  0.4636
 1262ntf    on5 9747   5.069   5.729   0.883  0.0880  0.1484 -0.3273
 1262ntf    fn4 9748   5.189   5.662   1.134 -0.6788  0.1429 -0.0288
 1262ntf    fn4 9749   5.126   5.843   1.228  0.3139 -0.3593  0.5503
 1262ntf    fn4 9750   5.282   5.845   1.084 -0.0193 -0.5747 -0.5562
 1263ntf    cn1 9751   0.547   0.729   6.528 -0.2516  0.4527 -0.1466
 1263ntf    sn2 9752   0.417   0.822   6.440 -0.3803  0.3782 -0.0357
 1263ntf    nn3 9753   0.375   0.918   6.557  0.5510  0.3691  0.3213
 1263ntf    sn2 9754   0.234   0.974   6.600  0.1274 -0.3780 -0.0679
 1263ntf    cn1 9755   0.195   0.844   6.720  0.4884 -0.0898  0.3670
 1263ntf    fn4 9756   0.610   0.648   6.444 -0.2868  0.9081 -0.6169
 1263ntf    fn4 9757   0.636   0.816   6.573  0.3149  0.0002 -0.3840
 1263ntf    fn4 9758   0.514   0.649   6.628  0.1274  0.5706  0.0752
 1263ntf    on5 9759   0.492   0.873   6.328  0.2917 -1.1710 -0.3118
 1263ntf    on5 9760   0.320   0.720   6.413  0.1785 -0.1925  0.0779
 1263ntf    on5 9761   0.242   1.094   6.680  0.1502 -0.4836  0.0877
 1263ntf    on5 9762   0.136   0.970   6.494  0.1517 -0.3541 -0.0914
 1263ntf    fn4 9763   0.302   0.827   6.796  0.8244 -0.4692 -0.1897
 1263ntf    fn4 9764   0.155   0.726   6.675 -0.6090  0.1639  0.6362
 1263ntf    fn4 9765   0.097   0.872   6.805 -0.1928  0.2798 -0.5186
 1264ntf    cn1 9766   6.278   3.326   2.545 -0.4677 -0.3060 -0.2964
 1264ntf    sn2 9767   6.362   3.388   2.693 -0.5628 -0.4874 -0.1664
 1264ntf    nn3 9768   6.508   3.396   2.634 -0.3474  0.6310  0.4937
 1264ntf    sn2 9769   6.633   3.319   2.688 -0.2216  0.4533 -0.0418
 1264ntf    cn1 9770   6.669   3.422   2.834 -0.4493  0.2243  0.1771
 1264ntf    fn4 9771   6.157   3.281   2.575 -0.8293  0.7626 -0.1206
 1264ntf    fn4 9772   6.252   3.427   2.463 -0.1843  0.2390  0.2822
 1264ntf    fn4 9773   6.337   3.226   2.482  0.1230 -0.3434  0.3088
 1264ntf    on5 9774   6.303   3.518   2.710 -0.4165 -0.5188  0.6146
 1264ntf    on5 9775   6.332   3.285   2.790  0.0383 -0.3812  0.1381
 1264ntf    on5 9776   6.635   3.181   2.728  0.8628  0.5382  0.2340
 1264ntf    on5 9777   6.743   3.357   2.602 -0.3439 -0.0939 -0.4380
 1264ntf    fn4 9778   6.798   3.425   2.866 -0.3300 -0.2249 -0.2498
 1264ntf    fn4 9779   6.604   3.383   2.942  0.4695  0.1997  0.7346
 1264ntf    fn4 9780   6.621   3.544   2.815 -0.4474  0.1949 -0.0179
 1265ntf    cn1 9781   5.573   2.143   5.308  0.2483  0.3231  0.3927
 1265ntf    sn2 9782   5.568   1.964   5.337 -0.1002  0.3236  0.3484
 1265ntf    nn3 9783   5.421   1.924   5.301  0.0539 -0.2975  0.3873
 1265ntf    sn2 9784   5.370   1.788   5.242  0.0682 -0.1817  0.1073
 1265ntf    cn1 9785   5.339   1.821   5.066 -0.3193  0.0773  0.2234
 1265ntf    fn4 9786   5.547   2.170   5.181 -0.1649  0.3910  0.4878
 1265ntf    fn4 9787   5.489   2.223   5.372 -0.4128  0.1381 -0.2292
 1265ntf    fn4 9788   5.696   2.185   5.334  0.3553  0.0527  0.3238
 1265ntf    on5 9789   5.662   1.922   5.236 -0.5636 -0.0055  0.0521
 1265ntf    on5 9790   5.607   1.931   5.472  0.6414 -1.0748 -0.1854
 1265ntf    on5 9791   5.472   1.686   5.234  0.0147 -0.2369  0.1294
 1265ntf    on5 9792   5.235   1.752   5.279  0.0780 -0.1349  0.1906
 1265ntf    fn4 9793   5.258   1.926   5.063 -0.1137  0.2410  0.3603
 1265ntf    fn4 9794   5.283   1.716   5.008 -0.0787  0.2793 -0.3762
 1265ntf    fn4 9795   5.443   1.856   4.993 -0.4657  0.1984  0.0711
 1266ntf    cn1 9796   0.082   1.729   6.226  0.1602  0.4449  0.0240
 1266ntf    sn2 9797   0.186   1.656   6.097 -0.2047 -0.1197  0.0451
 1266ntf    nn3 9798   0.296   1.764   6.067 -0.2602 -0.0453  0.1100
 1266ntf    sn2 9799   0.450   1.758   6.100 -0.1843 -0.2740 -0.2722
 1266ntf    cn1 9800   0.514   1.838   5.950  0.1732 -0.0172  0.0155
 1266ntf    fn4 9801   0.053   1.856   6.203  0.5862  0.5216 -0.0965
 1266ntf    fn4 9802  -0.028   1.657   6.239  0.1042  0.4873 -0.2084
 1266ntf    fn4 9803   0.138   1.721   6.345 -0.7926  0.0510  0.4551
 1266ntf    on5 9804   0.249   1.548   6.169 -0.8473 -0.5224  0.0114
 1266ntf    on5 9805   0.099   1.623   5.986 -0.0685 -0.1190 -0.0631
 1266ntf    on5 9806   0.506   1.854   6.192 -1.1341  0.0938 -0.0673
 1266ntf    on5 9807   0.511   1.628   6.091  0.5353  0.0466 -0.1071
 1266ntf    fn4 9808   0.506   1.765   5.841  0.0290 -0.1373  0.1068
 1266ntf    fn4 9809   0.643   1.864   5.964  0.0855  0.4622 -0.0488
 1266ntf    fn4 9810   0.463   1.959   5.928 -0.1448 -0.1163  0.1979
 1267ntf    cn1 9811   4.386   1.153   3.854  0.4496  0.4419  0.0256
 1267ntf    sn2 9812   4.347   1.127   3.679  0.4123  0.3420  0.0493
 1267ntf    nn3 9813   4.418   0.988   3.657  0.0975  0.0884  0.6043
 1267ntf    sn2 9814   4.345   0.852   3.628 -0.1043  0.3438 -0.0993
 1267ntf    cn1 9815   4.478   0.729   3.630  0.0020  0.4566 -0.1971
 1267ntf    fn4 9816   4.368   1.279   3.889  1.0452  0.7186 -0.6322
 1267ntf    fn4 9817   4.315   1.089   3.946  0.3402  0.0872 -0.3054
 1267ntf    fn4 9818   4.514   1.125   3.876  0.1753 -0.3579  0.6720
 1267ntf    on5 9819   4.203   1.135   3.674  0.4386  0.6061 -0.3092
 1267ntf    on5 9820   4.424   1.228   3.611  0.1840  0.3693 -0.1702
 1267ntf    on5 9821   4.257   0.799   3.729  0.0335 -0.2930 -0.3087
 1267ntf    on5 9822   4.304   0.836   3.490 -0.2261 -0.5419  0.0365
 1267ntf    fn4 9823   4.422   0.610   3.612  0.2424  0.3393 -0.1856
 1267ntf    fn4 9824   4.541   0.735   3.746 -0.2998 -0.5772  0.0371
 1267ntf    fn4 9825   4.568   0.744   3.534  0.1021 -0.2417 -0.2237
 1268ntf    cn1 9826   5.032   2.901   2.737 -0.2272 -0.2117 -0.0925
 1268ntf    sn2 9827   4.926   2.983   2.860 -0.0982 -0.3909  0.1374
 1268ntf    nn3 9828   4.920   3.125   2.795 -0.0940 -0.2234  0.5022
 1268ntf    sn2 9829   4.835   3.166   2.670  0.0743 -0.2487  0.3786
 1268ntf    cn1 9830   4.722   3.283   2.751  0.1378  0.2951 -0.3102
 1268ntf    fn4 9831   5.001   2.935   2.613  0.1273 -0.3913 -0.2310
 1268ntf    fn4 9832   5.160   2.931   2.745 -0.3100  0.0858  0.1422
 1268ntf    fn4 9833   5.028   2.770   2.754 -0.2449 -0.3446 -1.0353
 1268ntf    on5 9834   4.798   2.917   2.869 -0.0835 -0.4364  0.0062
 1268ntf    on5 9835   5.002   2.992   2.983 -0.9104 -0.2125  0.6348
 1268ntf    on5 9836   4.901   3.259   2.582  0.0954 -0.1222  0.5286
 1268ntf    on5 9837   4.750   3.069   2.605 -0.5534 -0.0192  0.8453
 1268ntf    fn4 9838   4.648   3.225   2.845  0.2877  0.2432 -0.2246
 1268ntf    fn4 9839   4.637   3.326   2.659  0.3638  0.0378 -0.6415
 1268ntf    fn4 9840   4.785   3.384   2.808  0.0418  0.3917 -0.3745
 1269ntf    cn1 9841   2.630   1.486   6.181  0.0381  0.3880  0.2907
 1269ntf    sn2 9842   2.460   1.549   6.198 -0.0744  0.1989 -0.1052
 1269ntf    nn3 9843   2.443   1.622   6.060 -0.0332 -0.2586 -0.3529
 1269ntf    sn2 9844   2.403   1.770   6.027 -0.2218 -0.2795 -0.2204
 1269ntf    cn1 9845   2.223   1.752   6.014 -0.2864 -0.0614  0.3277
 1269ntf    fn4 9846   2.674   1.435   6.295 -0.0791 -0.1171  0.1135
 1269ntf    fn4 9847   2.637   1.396   6.084  0.8066  0.6790  0.0689
 1269ntf    fn4 9848   2.715   1.583   6.152 -0.1401  0.6091  0.5056
 1269ntf    on5 9849   2.386   1.426   6.195  0.9926 -0.4504 -0.5586
 1269ntf    on5 9850   2.459   1.634   6.315  1.0634 -0.1016  0.1388
 1269ntf    on5 9851   2.405   1.877   6.124 -0.2416 -0.3840 -0.1050
 1269ntf    on5 9852   2.440   1.798   5.890 -1.0580 -0.4458 -0.4856
 1269ntf    fn4 9853   2.157   1.855   5.965  0.1912 -0.0060 -0.2094
 1269ntf    fn4 9854   2.163   1.710   6.124 -0.1771 -0.9353  0.0636
 1269ntf    fn4 9855   2.186   1.657   5.929 -0.1962 -0.0262  0.2486
 1270ntf    cn1 9856   3.755   5.069   3.507 -0.2745  0.5628  0.0669
 1270ntf    sn2 9857   3.810   5.163   3.361  0.0419 -0.2606 -0.3531
 1270ntf    nn3 9858   3.894   5.273   3.436  0.2767 -0.4603 -0.3205
 1270ntf    sn2 9859   3.940   5.413   3.382 -0.1332 -0.2523 -0.1344
 1270ntf    cn1 9860   4.049   5.362   3.245 -0.1351 -0.1468 -0.1757
 1270ntf    fn4 9861   3.849   5.001   3.571 -0.6028 -0.2939 -0.3354
 1270ntf    fn4 9862   3.698   5.146   3.598 -0.8262 -0.1153  0.3094
 1270ntf    fn4 9863   3.667   4.974   3.479  0.3347  0.1377 -0.4445
 1270ntf    on5 9864   3.897   5.076   3.286 -0.0643 -0.6250 -0.0589
 1270ntf    on5 9865   3.687   5.190   3.290  0.4277  0.4836 -0.7442
 1270ntf    on5 9866   3.831   5.479   3.312  0.2224  0.3081 -0.1661
 1270ntf    on5 9867   4.031   5.492   3.460  0.4719 -0.2557 -0.8294
 1270ntf    fn4 9868   3.982   5.324   3.138 -0.7987  0.0194  0.1729
 1270ntf    fn4 9869   4.125   5.259   3.278  0.2706  0.0466 -0.5000
 1270ntf    fn4 9870   4.121   5.465   3.204  0.5369 -0.6614 -0.2979
 1271ntf    cn1 9871   0.198   2.144   1.293 -0.1655  0.2770 -0.1074
 1271ntf    sn2 9872   0.199   2.320   1.245 -0.3257  0.3084  0.0047
 1271ntf    nn3 9873   0.205   2.388   1.386 -1.1622  0.9002 -0.2374
 1271ntf    sn2 9874   0.309   2.495   1.435 -0.1866  0.0828 -0.4955
 1271ntf    cn1 9875   0.200   2.599   1.536 -0.1297 -0.2666 -0.0746
 1271ntf    fn4 9876   0.301   2.112   1.370 -0.1910 -0.3063 -0.3155
 1271ntf    fn4 9877   0.091   2.106   1.361  0.1827  0.1365  0.3656
 1271ntf    fn4 9878   0.220   2.063   1.191  0.3006  0.1222  0.1117
 1271ntf    on5 9879   0.320   2.332   1.169  0.2181 -0.4897  0.7208
 1271ntf    on5 9880   0.068   2.330   1.185  0.2693  0.3666 -1.3056
 1271ntf    on5 9881   0.399   2.447   1.536 -0.2843  0.0130 -0.4423
 1271ntf    on5 9882   0.363   2.577   1.329 -0.2312  0.2958 -0.3542
 1271ntf    fn4 9883   0.102   2.651   1.465  0.1183 -0.1097 -0.3060
 1271ntf    fn4 9884   0.271   2.696   1.592  0.2689 -0.5681 -0.0493
 1271ntf    fn4 9885   0.156   2.526   1.637  0.1975 -0.2200  0.1028
 1272ntf    cn1 9886   1.706   6.849   3.088 -0.6264  0.1483 -0.1290
 1272ntf    sn2 9887   1.762   6.676   3.082 -0.3593  0.2131  0.4324
 1272ntf    nn3 9888   1.721   6.626   3.225  0.9903 -0.4876  0.5900
 1272ntf    sn2 9889   1.647   6.498   3.277 -0.1740 -0.0524  0.0227
 1272ntf    cn1 9890   1.653   6.537   3.454  0.5374  0.0867 -0.0300
 1272ntf    fn4 9891   1.738   6.921   2.981  0.0052  0.0004 -0.0475
 1272ntf    fn4 9892   1.575   6.856   3.100 -0.6082  0.4554 -0.1146
 1272ntf    fn4 9893   1.758   6.928   3.180  0.4863 -0.5129 -0.1688
 1272ntf    on5 9894   1.678   6.611   2.984  0.5719  0.1697 -0.3466
 1272ntf    on5 9895   1.904   6.676   3.056 -0.3724 -0.0019  0.3550
 1272ntf    on5 9896   1.504   6.487   3.256 -0.2471  0.0710  0.4547
 1272ntf    on5 9897   1.729   6.380   3.273  0.3914  0.3568 -0.6967
 1272ntf    fn4 9898   1.774   6.538   3.508  0.1572  0.4544  0.8362
 1272ntf    fn4 9899   1.578   6.459   3.530  0.4963  0.2732  0.1223
 1272ntf    fn4 9900   1.610   6.663   3.460 -0.0912 -0.1035 -0.4047
 1273ntf    cn1 9901   5.872   4.077   1.158  0.0942  0.4313  0.6006
 1273ntf    sn2 9902   6.032   4.130   1.088  0.0552 -0.0656  0.1301
 1273ntf    nn3 9903   6.077   4.248   1.182  0.2020  0.2386 -0.3161
 1273ntf    sn2 9904   6.208   4.270   1.266 -0.2053  0.0302  0.3863
 1273ntf    cn1 9905   6.199   4.446   1.309 -0.2094  0.1142  0.0449
 1273ntf    fn4 9906   5.817   3.978   1.091  0.9659  0.2645  0.1113
 1273ntf    fn4 9907   5.867   4.039   1.285  0.0972 -0.6027  0.2985
 1273ntf    fn4 9908   5.786   4.177   1.144  0.1043  0.3651  0.0660
 1273ntf    on5 9909   6.116   4.014   1.080  0.0097 -0.0909  0.0327
 1273ntf    on5 9910   5.998   4.191   0.962 -0.5610 -0.0762  0.2866
 1273ntf    on5 9911   6.203   4.221   1.401 -0.1778 -0.2377  0.2905
 1273ntf    on5 9912   6.331   4.259   1.192 -0.1832 -0.2191  0.4595
 1273ntf    fn4 9913   6.197   4.524   1.202  0.4899  0.4413  0.2650
 1273ntf    fn4 9914   6.305   4.488   1.376 -0.2066  0.0648  0.0709
 1273ntf    fn4 9915   6.091   4.474   1.381 -0.1034 -0.2885  0.3602
 1274ntf    cn1 9916   3.650   4.034   1.412  0.3929 -0.0361 -0.1727
 1274ntf    sn2 9917   3.597   3.870   1.354 -0.2467 -0.0516  0.4378
 1274ntf    nn3 9918   3.723   3.825   1.271 -0.4660 -0.0743  0.1132
 1274ntf    sn2 9919   3.740   3.780   1.122  0.1681 -0.1210  0.1963
 1274ntf    cn1 9920   3.771   3.935   1.031 -0.1270 -0.1464  0.0521
 1274ntf    fn4 9921   3.779   4.034   1.442  0.3880 -0.0281 -0.1517
 1274ntf    fn4 9922   3.642   4.132   1.324  0.4361  0.5531  0.4713
 1274ntf    fn4 9923   3.576   4.078   1.512  0.0161 -0.4671 -0.2614
 1274ntf    on5 9924   3.599   3.781   1.467 -0.5642 -0.5242  0.0759
 1274ntf    on5 9925   3.476   3.895   1.280  0.0868  0.2982  0.0008
 1274ntf    on5 9926   3.860   3.702   1.106  0.2525  0.0043  0.2113
 1274ntf    on5 9927   3.623   3.721   1.063  0.2247  0.1537 -0.1944
 1274ntf    fn4 9928   3.654   3.996   1.026  0.0307  0.1231 -0.4518
 1274ntf    fn4 9929   3.818   3.921   0.908 -0.1294 -1.0686  0.1483
 1274ntf    fn4 9930   3.853   4.017   1.094  0.0698 -0.3471  0.0599
 1275ntf    cn1 9931   6.343   3.991   5.910  0.0881  0.1287 -0.0988
 1275ntf    sn2 9932   6.188   4.086   5.915  0.0108 -0.0250  0.6797
 1275ntf    nn3 9933   6.233   4.188   5.805 -0.4117  0.0290  0.5521
 1275ntf    sn2 9934   6.255   4.343   5.813 -0.2149  0.0367 -0.0630
 1275ntf    cn1 9935   6.132   4.409   5.697 -0.2552 -0.2145 -0.1621
 1275ntf    fn4 9936   6.401   3.982   6.028  0.2905 -0.7503 -0.2577
 1275ntf    fn4 9937   6.324   3.868   5.865  0.0616  0.1375 -0.1123
 1275ntf    fn4 9938   6.429   4.044   5.826  0.0545  0.0525 -0.1811
 1275ntf    on5 9939   6.090   3.997   5.857  0.2866  0.1335 -0.0493
 1275ntf    on5 9940   6.179   4.136   6.049 -0.0830 -0.0760  0.6926
 1275ntf    on5 9941   6.222   4.408   5.938  0.5093 -0.2848  0.3051
 1275ntf    on5 9942   6.379   4.377   5.747  0.1680 -0.1674  0.5420
 1275ntf    fn4 9943   6.010   4.365   5.723 -0.6896  0.9011 -0.2781
 1275ntf    fn4 9944   6.161   4.368   5.574  0.6868 -0.6305  0.1913
 1275ntf    fn4 9945   6.134   4.541   5.697 -0.3571 -0.2126  0.1349
 1276ntf    cn1 9946   1.273   2.669   0.120  0.5065  0.6688  0.4794
 1276ntf    sn2 9947   1.190   2.788   0.230 -0.1097  0.5426  0.1551
 1276ntf    nn3 9948   1.308   2.787   0.333 -0.2299  0.5206  0.2930
 1276ntf    sn2 9949   1.316   2.715   0.472  0.5308  0.1694  0.0709
 1276ntf    cn1 9950   1.477   2.777   0.529  0.7287 -0.1816 -0.1022
 1276ntf    fn4 9951   1.401   2.676   0.090  0.4417  0.1085  0.0516
 1276ntf    fn4 9952   1.252   2.547   0.168  0.4339  0.3270 -0.4027
 1276ntf    fn4 9953   1.213   2.658   0.002  0.3318 -0.0669  0.6295
 1276ntf    on5 9954   1.184   2.910   0.153  0.6481  0.3300 -0.2500
 1276ntf    on5 9955   1.063   2.736   0.274 -0.4754  0.7397 -0.6447
 1276ntf    on5 9956   1.227   2.763   0.575  0.0674 -0.1485 -0.1784
 1276ntf    on5 9957   1.332   2.572   0.465  0.5091  0.1734 -0.0507
 1276ntf    fn4 9958   1.501   2.720   0.646 -0.5915  0.2894  0.4151
 1276ntf    fn4 9959   1.485   2.906   0.555 -0.1681 -0.1325 -0.0304
 1276ntf    fn4 9960   1.571   2.756   0.438  0.3377 -0.0372 -0.5401
 1277ntf    cn1 9961   3.615   1.319   4.907 -0.3945 -0.3617 -0.0351
 1277ntf    sn2 9962   3.538   1.285   4.746  0.0755 -0.3273 -0.2698
 1277ntf    nn3 9963   3.418   1.386   4.744  0.2285 -0.1396  0.0089
 1277ntf    sn2 9964   3.264   1.361   4.732  0.1392  0.2725  0.2763
 1277ntf    cn1 9965   3.227   1.539   4.721 -0.6045  0.1007 -0.0654
 1277ntf    fn4 9966   3.532   1.343   5.007 -0.2061 -0.4771  0.1493
 1277ntf    fn4 9967   3.697   1.226   4.953 -0.1752 -0.3489 -0.3961
 1277ntf    fn4 9968   3.694   1.424   4.890 -0.2948 -0.3831  0.2839
 1277ntf    on5 9969   3.639   1.318   4.649  0.3373  0.6354  0.3195
 1277ntf    on5 9970   3.498   1.147   4.766  0.4648 -0.5561 -1.0459
 1277ntf    on5 9971   3.227   1.316   4.600  0.6898  0.0988  0.1792
 1277ntf    on5 9972   3.199   1.302   4.847 -0.0516  0.0735  0.0674
 1277ntf    fn4 9973   3.118   1.567   4.651 -0.5063  0.3912 -0.1038
 1277ntf    fn4 9974   3.324   1.611   4.668 -0.0210 -0.7335 -0.1474
 1277ntf    fn4 9975   3.198   1.600   4.835  0.1787  0.2115  0.0788
 1278ntf    cn1 9976   3.854   3.416   3.068  0.4205  0.1437  0.6716
 1278ntf    sn2 9977   3.777   3.459   3.227 -0.1952  0.1624  0.3687
 1278ntf    nn3 9978   3.676   3.567   3.176 -0.1821 -0.0827 -0.1899
 1278ntf    sn2 9979   3.673   3.723   3.200  0.2769 -0.1192  0.1091
 1278ntf    cn1 9980   3.525   3.728   3.305  0.1867 -0.1693 -0.0159
 1278ntf    fn4 9981   3.795   3.308   3.020 -0.2451  0.8010 -0.0247
 1278ntf    fn4 9982   3.830   3.506   2.974  0.4560 -0.1463  0.3847
 1278ntf    fn4 9983   3.986   3.400   3.074  0.4913  0.5248  0.2140
 1278ntf    on5 9984   3.702   3.346   3.277 -0.3661  0.1047 -0.0110
 1278ntf    on5 9985   3.891   3.506   3.301 -0.0430  0.1741  0.1279
 1278ntf    on5 9986   3.777   3.780   3.282 -0.1369  0.2194  0.4014
 1278ntf    on5 9987   3.648   3.791   3.075  0.5208 -0.1826  0.0243
 1278ntf    fn4 9988   3.538   3.677   3.426 -0.6724  0.4727  0.3651
 1278ntf    fn4 9989   3.425   3.658   3.253  0.2846 -0.1828 -0.1865
 1278ntf    fn4 9990   3.471   3.848   3.320  0.4320 -0.1539  0.7453
 1279ntf    cn1 9991   2.731   4.745   0.821  0.1389  0.1350 -0.0018
 1279ntf    sn2 9992   2.651   4.586   0.859  0.1835  0.1170  0.0153
 1279ntf    nn3 9993   2.741   4.489   0.773 -0.4527 -0.8457  0.4224
 1279ntf    sn2 9994   2.877   4.415   0.801  0.0758  0.0691  0.2970
 1279ntf    cn1 9995   2.877   4.291   0.668 -0.4231  0.2792  0.0979
 1279ntf    fn4 9996   2.861   4.730   0.837  0.1627  0.5350  0.1699
 1279ntf    fn4 9997   2.719   4.778   0.693 -0.9320  0.3352  0.1409
 1279ntf    fn4 9998   2.688   4.849   0.890 -0.5556 -0.3332  0.2946
 1279ntf    on5 9999   2.656   4.578   1.003 -0.1193 -0.3516  0.0027
 1279ntf    on510000   2.515   4.599   0.813 -0.0723 -0.4691  0.5884
 1279ntf    on510001   2.989   4.497   0.762 -0.1213  0.1735 -0.0537
 1279ntf    on510002   2.889   4.345   0.926  0.0974  0.5762  0.5796
 1279ntf    fn410003   2.934   4.332   0.556 -0.2494  0.2927  0.1917
 1279ntf    fn410004   2.751   4.262   0.639 -0.2442 -0.3343 -0.0753
 1279ntf    fn410005   2.927   4.173   0.700 -0.6760  0.1306 -0.0447
 1280ntf    cn110006   3.825   1.463   1.366  0.1978 -0.1387 -0.5736
 1280ntf    sn210007   3.788   1.637   1.329 -0.2090 -0.0991 -0.0078
 1280ntf    nn310008   3.638   1.637   1.281 -0.2309  1.0805  0.0469
 1280ntf    sn210009   3.512   1.669   1.369 -0.4680  0.2450  0.0217
 1280ntf    cn110010   3.445   1.502   1.392  0.3844 -0.1537 -0.3352
 1280ntf    fn410011   3.783   1.427   1.487  0.1376  0.9390 -0.2653
 1280ntf    fn410012   3.774   1.382   1.275 -0.2692 -0.0152 -0.4268
 1280ntf    fn410013   3.955   1.442   1.357  0.3076  0.3338 -0.1254
 1280ntf    on510014   3.831   1.727   1.433 -0.0601  0.1317 -0.2676
 1280ntf    on510015   3.859   1.664   1.206 -0.0119  0.5982  0.2617
 1280ntf    on510016   3.532   1.699   1.509 -0.1845 -0.4748  0.1408
 1280ntf    on510017   3.410   1.750   1.306 -0.4092  0.3029 -0.0003
 1280ntf    fn410018   3.526   1.426   1.463  0.1327  0.1217  0.2542
 1280ntf    fn410019   3.419   1.436   1.281  0.1840  0.1593 -0.4754
 1280ntf    fn410020   3.331   1.502   1.460  0.3690 -0.3288 -0.3611
 1281ntf    cn110021   6.307   3.347   5.421 -0.6370 -0.6944 -0.0294
 1281ntf    sn210022   6.269   3.510   5.349 -0.1575 -0.5606  0.0222
 1281ntf    nn310023   6.180   3.474   5.225 -0.4004  0.4417 -0.1017
 1281ntf    sn210024   6.218   3.474   5.072 -0.3494 -0.3184 -0.0912
 1281ntf    cn110025   6.134   3.624   5.014  0.5020  0.0606 -0.3490
 1281ntf    fn410026   6.393   3.366   5.520 -0.3450 -0.5000 -0.3188
 1281ntf    fn410027   6.201   3.290   5.476 -0.5458 -0.7523  0.0876
 1281ntf    fn410028   6.363   3.262   5.338  0.4658  0.0647 -0.0862
 1281ntf    on510029   6.190   3.578   5.448  0.1118 -0.1248 -0.0575
 1281ntf    on510030   6.395   3.574   5.321 -0.2478 -0.4743 -0.1844
 1281ntf    on510031   6.360   3.485   5.053 -0.4861  0.8044 -0.5374
 1281ntf    on510032   6.146   3.374   4.996  0.0907 -0.4285 -0.3664
 1281ntf    fn410033   6.182   3.721   5.091 -0.6180  0.0604  0.3718
 1281ntf    fn410034   6.006   3.617   5.045  0.4299  0.4416 -0.5531
 1281ntf    fn410035   6.136   3.653   4.885 -0.2522 -0.0154 -0.3829
 1282ntf    cn110036   1.343   0.963   2.608  0.6223 -0.2585  0.0615
 1282ntf    sn210037   1.243   1.006   2.753  0.1775 -0.0147 -0.3138
 1282ntf    nn310038   1.284   0.896   2.857  0.5511  0.0104 -0.4341
 1282ntf    sn210039   1.401   0.901   2.962 -0.0122  0.3147  0.1877
 1282ntf    cn110040   1.310   0.983   3.097  0.2988  0.5131  0.2786
 1282ntf    fn410041   1.466   1.011   2.609  0.3788  0.3663  0.4101
 1282ntf    fn410042   1.361   0.833   2.587  0.1352 -0.1725 -0.9763
 1282ntf    fn410043   1.282   1.012   2.501  0.1468  0.0168  0.4565
 1282ntf    on510044   1.294   1.137   2.785  0.5381 -0.3954  0.7074
 1282ntf    on510045   1.104   0.994   2.717  0.0639 -0.0701  0.1382
 1282ntf    on510046   1.439   0.778   3.027 -0.0879  0.2166  0.0467
 1282ntf    on510047   1.511   0.990   2.934  0.5304 -0.3140  0.2972
 1282ntf    fn410048   1.383   0.991   3.207  0.3666 -0.0491  0.2808
 1282ntf    fn410049   1.200   0.917   3.130  0.3962 -0.0871 -0.5352
 1282ntf    fn410050   1.287   1.109   3.067  0.0381  0.3128 -0.3850
 1283ntf    cn110051   2.769   6.014   5.125 -0.3586 -0.2112  0.1024
 1283ntf    sn210052   2.876   5.929   5.245  0.0193  0.1506  0.0244
 1283ntf    nn310053   2.985   6.039   5.271  0.2073 -0.0264 -0.0150
 1283ntf    sn210054   3.080   6.106   5.166  0.1505  0.1725  0.0600
 1283ntf    cn110055   3.023   6.279   5.164  0.3134  0.2245 -0.1294
 1283ntf    fn410056   2.654   5.951   5.107  0.0782 -0.8349 -0.5433
 1283ntf    fn410057   2.750   6.137   5.172  0.4145  0.0607 -0.2931
 1283ntf    fn410058   2.826   6.028   5.007 -0.3599  0.1972  0.1470
 1283ntf    on510059   2.793   5.913   5.362  0.3160 -0.7445  0.1147
 1283ntf    on510060   2.918   5.810   5.175 -0.5565  0.2509 -0.5099
 1283ntf    on510061   3.213   6.124   5.217  0.1116  0.7970 -0.0493
 1283ntf    on510062   3.066   6.059   5.030  0.4764  0.0259  0.0762
 1283ntf    fn410063   2.997   6.330   5.283  0.3192 -0.7497  0.2975
 1283ntf    fn410064   2.911   6.300   5.096 -0.1648  0.1212  0.6153
 1283ntf    fn410065   3.106   6.360   5.102  0.0264  0.1365 -0.6320
 1284ntf    cn110066   1.424   3.816   2.497 -0.3142 -0.2029  0.0731
 1284ntf    sn210067   1.418   3.639   2.456  0.1201 -0.2308  0.1256
 1284ntf    nn310068   1.508   3.589   2.575 -0.0513  0.0804  0.3882
 1284ntf    sn210069   1.620   3.479   2.570 -0.4089 -0.2614 -0.1657
 1284ntf    cn110070   1.642   3.424   2.742  0.2850 -0.2908 -0.2622
 1284ntf    fn410071   1.546   3.867   2.504 -0.3071 -0.1586 -0.3294
 1284ntf    fn410072   1.356   3.890   2.410  0.2519  0.1718 -0.0609
 1284ntf    fn410073   1.375   3.842   2.617  0.1692  0.0809  0.2095
 1284ntf    on510074   1.276   3.617   2.462  0.0426  0.3240  0.4418
 1284ntf    on510075   1.470   3.638   2.322 -0.1928 -0.6005  0.0044
 1284ntf    on510076   1.572   3.353   2.519  0.2022 -0.3341 -0.5725
 1284ntf    on510077   1.747   3.534   2.528 -0.6201  0.3873  0.0349
 1284ntf    fn410078   1.688   3.300   2.734  0.4515 -0.2484  0.0344
 1284ntf    fn410079   1.527   3.416   2.807  0.1291  0.5498 -0.4263
 1284ntf    fn410080   1.725   3.500   2.812 -0.4078  0.3719 -0.1520
 1285ntf    cn110081   5.850   6.081   6.045  0.4945 -0.5010  0.2313
 1285ntf    sn210082   5.681   6.080   5.976  0.4984  0.2668  0.2022
 1285ntf    nn310083   5.636   5.945   6.042  0.6725  0.2896  0.3714
 1285ntf    sn210084   5.539   5.928   6.165  0.1420 -0.1234 -0.0956
 1285ntf    cn110085   5.545   5.747   6.151 -0.0929 -0.1392  0.0181
 1285ntf    fn410086   5.863   6.096   6.176  0.2726 -0.8395  0.2945
 1285ntf    fn410087   5.913   5.977   5.993  0.2299 -0.5921  0.0892
 1285ntf    fn410088   5.918   6.186   6.004 -0.7932  0.2219 -0.1329
 1285ntf    on510089   5.626   6.204   6.023  0.6621  0.2260  0.5044
 1285ntf    on510090   5.708   6.061   5.835  0.2283 -0.5144  0.2529
 1285ntf    on510091   5.605   5.945   6.292  0.1651 -0.0941 -0.1113
 1285ntf    on510092   5.402   5.970   6.152  0.0164 -0.3305  0.5563
 1285ntf    fn410093   5.666   5.693   6.147 -0.0837 -0.1448  0.3614
 1285ntf    fn410094   5.496   5.706   6.035 -0.1920 -0.0032  0.0112
 1285ntf    fn410095   5.476   5.692   6.250  0.1489 -0.5435 -0.0349
 1286ntf    cn110096   2.664   4.482   4.191  0.0870  0.0668  0.2067
 1286ntf    sn210097   2.762   4.621   4.127  0.2517  0.0055  0.3236
 1286ntf    nn310098   2.878   4.632   4.232  0.4131  0.0391  0.1436
 1286ntf    sn210099   2.960   4.757   4.280  0.0745  0.2596  0.1514
 1286ntf    cn110100   3.126   4.693   4.316 -0.1666 -0.2669  0.3329
 1286ntf    fn410101   2.607   4.504   4.308 -0.1181  0.4944  0.0284
 1286ntf    fn410102   2.565   4.465   4.105  0.7292  0.1501 -0.5567
 1286ntf    fn410103   2.730   4.368   4.204 -0.4305 -0.2944 -0.3177
 1286ntf    on510104   2.809   4.569   4.001  0.3857 -0.0392  0.3927
 1286ntf    on510105   2.663   4.726   4.126  0.3064  0.0550  0.0344
 1286ntf    on510106   2.987   4.861   4.184 -0.3512 -0.2359 -0.5109
 1286ntf    on510107   2.918   4.810   4.407 -0.4219 -0.1171  0.1467
 1286ntf    fn410108   3.206   4.781   4.374 -0.0276 -0.0055 -0.2473
 1286ntf    fn410109   3.178   4.648   4.203 -0.3010  0.0585  0.1402
 1286ntf    fn410110   3.124   4.584   4.392  0.3036 -0.5643 -0.0740
 1287ntf    cn110111   1.241   4.922   3.042 -0.3616  0.2152  0.2241
 1287ntf    sn210112   1.063   4.899   3.071 -0.3021 -0.1290  0.3141
 1287ntf    nn310113   1.046   4.865   3.224 -0.1914 -0.3022  0.2885
 1287ntf    sn210114   1.013   4.964   3.341  0.2940  0.0625  0.1219
 1287ntf    cn110115   0.831   4.968   3.333  0.3094  0.2837 -0.1357
 1287ntf    fn410116   1.306   4.986   3.138  0.6578  0.3279 -0.5197
 1287ntf    fn410117   1.306   4.807   3.036 -0.1412  0.3485  0.0452
 1287ntf    fn410118   1.270   4.978   2.925 -0.5484 -0.1821 -0.0132
 1287ntf    on510119   0.998   5.023   3.038  0.3856  0.0104 -0.5502
 1287ntf    on510120   1.040   4.772   3.006  0.0746 -0.1368  0.1899
 1287ntf    on510121   1.045   4.900   3.466  0.3418 -0.3809 -0.1147
 1287ntf    on510122   1.058   5.101   3.336  0.3549  0.0222 -0.4631
 1287ntf    fn410123   0.799   5.013   3.213 -0.5195  0.1589  0.0338
 1287ntf    fn410124   0.788   5.059   3.418  0.0933  0.0977 -0.0439
 1287ntf    fn410125   0.772   4.850   3.345 -0.5920  0.6979 -0.4139
 1288ntf    cn110126   4.227   2.227   5.184  0.5294  0.1955  0.3674
 1288ntf    sn210127   4.393   2.172   5.136  0.2662  0.0150 -0.3476
 1288ntf    nn310128   4.466   2.158   5.275 -1.0057  0.1074  0.3449
 1288ntf    sn210129   4.474   2.025   5.358 -0.3602 -0.3292 -0.3983
 1288ntf    cn110130   4.594   2.074   5.485  0.2981 -0.1887 -1.0692
 1288ntf    fn410131   4.214   2.332   5.264  0.6644 -0.0378  0.7005
 1288ntf    fn410132   4.173   2.272   5.072  0.3869  0.2937  0.4749
 1288ntf    fn410133   4.149   2.130   5.229  0.5046  0.3050  0.5654
 1288ntf    on510134   4.360   2.046   5.074 -0.4430  0.0847 -0.1137
 1288ntf    on510135   4.450   2.280   5.059  0.0688  0.0366 -0.4642
 1288ntf    on510136   4.349   1.995   5.424 -0.1107 -0.5662 -0.0299
 1288ntf    on510137   4.550   1.918   5.299  0.5517  0.0284  0.1150
 1288ntf    fn410138   4.614   1.995   5.589  0.2932  0.0784 -0.8610
 1288ntf    fn410139   4.571   2.196   5.531  0.5012 -0.6447  0.2804
 1288ntf    fn410140   4.718   2.093   5.442  0.5916 -0.0945 -0.1953
 1289ntf    cn110141   1.826   1.978   0.548  0.2853  0.0193  0.1191
 1289ntf    sn210142   1.672   1.925   0.468  0.2092  0.2790  0.0928
 1289ntf    nn310143   1.615   1.817   0.568 -0.0333  0.2470 -0.0803
 1289ntf    sn210144   1.520   1.843   0.690  0.2628  0.4912  0.0996
 1289ntf    cn110145   1.564   1.691   0.781 -0.2549  0.1455 -0.2196
 1289ntf    fn410146   1.898   2.060   0.473  0.0025 -0.2770 -0.4728
 1289ntf    fn410147   1.791   2.046   0.656 -0.5161 -0.1867 -0.0085
 1289ntf    fn410148   1.900   1.872   0.577  0.3680  0.0473  0.0111
 1289ntf    on510149   1.597   2.048   0.470 -0.3377 -0.0516  0.0484
 1289ntf    on510150   1.713   1.875   0.340 -0.2873  0.2618 -0.0615
 1289ntf    on510151   1.566   1.954   0.769  0.0957  0.1882  0.6298
 1289ntf    on510152   1.379   1.837   0.662  0.2675 -0.2745  0.2206
 1289ntf    fn410153   1.570   1.580   0.710  0.5416  0.0014  0.0635
 1289ntf    fn410154   1.492   1.672   0.890  0.4151 -0.5155  0.1116
 1289ntf    fn410155   1.687   1.698   0.830 -0.4947  0.1356  0.3963
 1290ntf    cn110156   4.382   3.335   1.675 -0.3040  0.0720  0.0964
 1290ntf    sn210157   4.304   3.457   1.784 -0.3015 -0.1999  0.4028
 1290ntf    nn310158   4.284   3.369   1.913 -0.5296  0.0358  0.5288
 1290ntf    sn210159   4.397   3.329   2.015 -0.2499  0.4203  0.3738
 1290ntf    cn110160   4.378   3.148   2.027 -0.1730  0.3725 -0.1754
 1290ntf    fn410161   4.371   3.208   1.710 -0.4893  0.0488 -0.0468
 1290ntf    fn410162   4.342   3.340   1.549  0.5015 -0.1079 -0.1757
 1290ntf    fn410163   4.514   3.348   1.682 -0.3041 -0.0822  0.3912
 1290ntf    on510164   4.400   3.558   1.816 -0.7087  0.0800  0.7502
 1290ntf    on510165   4.180   3.486   1.715  0.4641  0.3521 -0.7636
 1290ntf    on510166   4.530   3.339   1.960 -0.2947  0.2317  0.2265
 1290ntf    on510167   4.365   3.382   2.145  0.4517 -0.0008  0.7226
 1290ntf    fn410168   4.425   3.082   1.923  0.3320  0.5327 -0.0517
 1290ntf    fn410169   4.252   3.107   2.030 -0.1702  0.3367 -0.5513
 1290ntf    fn410170   4.447   3.102   2.129  0.0886  0.0775 -0.4858
 1291ntf    cn110171   3.493   6.494   0.262 -0.0809  0.0465  0.1366
 1291ntf    sn210172   3.346   6.388   0.252  0.1272 -0.2377  0.0602
 1291ntf    nn310173   3.416   6.260   0.310  0.0883 -0.0649  0.4901
 1291ntf    sn210174   3.358   6.152   0.408 -0.1065 -0.4143 -0.0110
 1291ntf    cn110175   3.343   5.995   0.316 -0.1323 -0.1607 -0.4446
 1291ntf    fn410176   3.545   6.480   0.383  0.1122 -0.3175  0.0133
 1291ntf    fn410177   3.575   6.480   0.159 -0.1265 -0.2150  0.1351
 1291ntf    fn410178   3.468   6.624   0.258 -0.2704  0.0008 -0.1831
 1291ntf    on510179   3.256   6.458   0.340  0.6600 -0.6266  0.9291
 1291ntf    on510180   3.314   6.384   0.112  0.1196 -0.2093  0.0611
 1291ntf    on510181   3.449   6.126   0.516 -0.0166 -0.1067 -0.0127
 1291ntf    on510182   3.221   6.175   0.447  0.0988  0.6610  0.0881
 1291ntf    fn410183   3.455   5.925   0.313 -0.1126 -0.1414 -0.2247
 1291ntf    fn410184   3.303   6.024   0.194 -0.9532  0.2254 -0.0929
 1291ntf    fn410185   3.259   5.907   0.367 -0.0797 -0.0483 -0.1562
 1292ntf    cn110186   6.031   0.319   1.905 -0.2550  0.0202  0.3883
 1292ntf    sn210187   6.121   0.454   1.987 -0.1212  0.0078  0.2611
 1292ntf    nn310188   6.003   0.526   2.060 -0.4538 -0.4659  0.1937
 1292ntf    sn210189   5.927   0.655   2.012 -0.0981 -0.3457 -0.0485
 1292ntf    cn110190   5.888   0.721   2.177  0.2459 -0.1691 -0.0367
 1292ntf    fn410191   5.998   0.220   1.986 -0.2594 -0.5194 -0.2659
 1292ntf    fn410192   5.909   0.353   1.865  0.1358  0.2248 -0.6628
 1292ntf    fn410193   6.091   0.258   1.804  0.0920 -0.2155  0.7355
 1292ntf    on510194   6.209   0.383   2.077 -0.0912 -0.2718  0.0151
 1292ntf    on510195   6.191   0.526   1.883 -0.2788  0.5915  0.5552
 1292ntf    on510196   6.006   0.759   1.951 -0.3093  0.0045  0.2670
 1292ntf    on510197   5.798   0.638   1.949 -0.1350 -1.1929  0.2518
 1292ntf    fn410198   6.005   0.712   2.237  0.0823  1.3022  0.5448
 1292ntf    fn410199   5.789   0.669   2.247 -0.5042  0.4583 -0.6084
 1292ntf    fn410200   5.857   0.849   2.165  0.4122 -0.1538 -0.3108
 1293ntf    cn110201   6.524   2.930   1.169  0.2138 -0.4545 -0.1066
 1293ntf    sn210202   6.444   2.888   1.011  0.2035  0.1318 -0.2582
 1293ntf    nn310203   6.502   2.984   0.901 -0.1323  1.2597  0.5270
 1293ntf    sn210204   6.452   3.010   0.754 -0.0920  0.0117  0.2801
 1293ntf    cn110205   6.381   3.175   0.777 -0.1792  0.0583 -0.3096
 1293ntf    fn410206   6.511   2.836   1.261 -0.3021 -0.2480  0.0359
 1293ntf    fn410207   6.653   2.955   1.159  0.2919 -0.7811  0.0823
 1293ntf    fn410208   6.478   3.042   1.222 -0.0506 -0.6243  0.0254
 1293ntf    on510209   6.485   2.751   0.995  0.2234  0.0580  0.4013
 1293ntf    on510210   6.305   2.912   1.042  0.3080 -0.1283  0.4262
 1293ntf    on510211   6.551   3.045   0.656  0.1874 -0.5249  0.3655
 1293ntf    on510212   6.346   2.932   0.696  0.0296 -0.3644  0.5528
 1293ntf    fn410213   6.337   3.218   0.660  0.2705 -0.1718 -0.5625
 1293ntf    fn410214   6.465   3.263   0.829 -0.3976  0.1495 -0.1046
 1293ntf    fn410215   6.274   3.168   0.856 -0.2834  0.0702 -0.4504
 1294ntf    cn110216   4.038   4.852   4.989 -0.3981 -0.1461  0.1432
 1294ntf    sn210217   3.951   4.785   5.135 -0.1365  0.4092  0.5573
 1294ntf    nn310218   4.058   4.811   5.246  0.0072 -0.2214  0.5712
 1294ntf    sn210219   4.058   4.734   5.383 -0.2161 -0.0709  0.6569
 1294ntf    cn110220   4.014   4.875   5.490 -0.0121  0.4727  0.0337
 1294ntf    fn410221   3.966   4.868   4.879  0.3654  0.2846 -0.3015
 1294ntf    fn410222   4.082   4.974   5.011 -0.4792 -0.1378  0.2627
 1294ntf    fn410223   4.138   4.772   4.956 -0.3151 -0.1820  0.4779
 1294ntf    on510224   3.835   4.867   5.157 -0.1545  0.6681 -0.4369
 1294ntf    on510225   3.933   4.646   5.100  0.0063  0.5449 -0.0818
 1294ntf    on510226   3.956   4.636   5.408 -0.7288  0.0582 -0.8443
 1294ntf    on510227   4.194   4.699   5.418 -0.4395 -0.9241  0.6795
 1294ntf    fn410228   4.113   4.961   5.505  0.1625  0.3085 -0.1533
 1294ntf    fn410229   3.979   4.838   5.612 -0.6525  0.1171 -0.2464
 1294ntf    fn410230   3.910   4.953   5.465  0.2094  0.5496 -0.6573
 1295ntf    cn110231   6.625   1.462   5.309  0.0952 -0.2539  0.4126
 1295ntf    sn210232   6.676   1.289   5.289 -0.0793 -0.2394 -0.1793
 1295ntf    nn310233   6.825   1.302   5.337 -0.3150 -0.0924  0.5101
 1295ntf    sn210234   6.936   1.392   5.272 -0.3469 -0.1610  0.3605
 1295ntf    cn110235   7.034   1.279   5.169  0.0629  0.5344 -0.0198
 1295ntf    fn410236   6.603   1.508   5.186  0.3107 -0.2331  0.3805
 1295ntf    fn410237   6.507   1.479   5.367  0.0617  0.3593  0.1768
 1295ntf    fn410238   6.713   1.546   5.362  0.1484  0.0603 -0.1581
 1295ntf    on510239   6.599   1.217   5.387 -0.0115 -0.1910 -0.0905
 1295ntf    on510240   6.657   1.260   5.149  0.3434 -0.2889 -0.2290
 1295ntf    on510241   6.904   1.489   5.170  0.2927 -0.6540 -0.3170
 1295ntf    on510242   7.041   1.431   5.363 -0.1464  0.9767 -0.3503
 1295ntf    fn410243   7.037   1.149   5.195  0.5021  0.5582  0.0531
 1295ntf    fn410244   7.164   1.301   5.177  0.2458 -0.4340 -0.1883
 1295ntf    fn410245   7.006   1.305   5.043 -0.7796  0.1340  0.0774
 1296ntf    cn110246   0.381   5.163   4.795  0.0155  0.0570  0.1016
 1296ntf    sn210247   0.265   5.193   4.659  0.0524 -0.0034  0.0570
 1296ntf    nn310248   0.291   5.344   4.628 -0.3252 -0.0479 -0.5051
 1296ntf    sn210249   0.243   5.467   4.713  0.2584 -0.0488 -0.1686
 1296ntf    cn110250   0.403   5.552   4.722  0.0390  0.3302  0.2062
 1296ntf    fn410251   0.370   5.043   4.848 -0.6964  0.1107  0.0797
 1296ntf    fn410252   0.505   5.170   4.749 -0.0236  0.3795  0.0443
 1296ntf    fn410253   0.371   5.255   4.890  0.1343  0.0744  0.0975
 1296ntf    on510254   0.319   5.112   4.553  0.2996  0.4646 -0.1761
 1296ntf    on510255   0.139   5.158   4.721 -0.1458 -0.5853 -0.6569
 1296ntf    on510256   0.156   5.561   4.647 -0.0286 -0.1270  0.0932
 1296ntf    on510257   0.217   5.428   4.850  0.0020 -0.1103 -0.2338
 1296ntf    fn410258   0.386   5.657   4.801 -0.0066  0.4194  0.0799
 1296ntf    fn410259   0.432   5.603   4.603  0.1118  0.0933  0.1208
 1296ntf    fn410260   0.502   5.478   4.768  0.0486 -0.2618 -0.7345
 1297ntf    cn110261   1.129   3.958   0.483  0.2390 -0.1402  0.0899
 1297ntf    sn210262   1.010   3.996   0.614 -0.0201  0.3085 -0.2733
 1297ntf    nn310263   0.890   4.014   0.514  0.0739  0.2043 -0.4042
 1297ntf    sn210264   0.752   3.940   0.526  0.1599  0.1570  0.3949
 1297ntf    cn110265   0.645   4.065   0.602 -0.0649  0.1222  0.1369
 1297ntf    fn410266   1.084   3.857   0.410  0.2272 -0.1525  0.1146
 1297ntf    fn410267   1.154   4.054   0.394 -0.5683 -0.0339 -0.0284
 1297ntf    fn410268   1.249   3.921   0.527  0.0011 -0.7124  0.2632
 1297ntf    on510269   1.028   3.880   0.697 -0.4710  0.1529 -0.3869
 1297ntf    on510270   1.045   4.122   0.676 -0.7437  0.3683  0.0359
 1297ntf    on510271   0.686   3.919   0.399  0.4551 -0.0812  0.2807
 1297ntf    on510272   0.746   3.828   0.616 -0.5162  0.1136  0.3050
 1297ntf    fn410273   0.698   4.105   0.716 -0.0117 -0.1535  0.2085
 1297ntf    fn410274   0.516   4.039   0.619 -0.2545  0.5091 -0.6516
 1297ntf    fn410275   0.645   4.177   0.530  0.0069  0.5144  0.7387
 1298ntf    cn110276   2.633   6.512   3.567 -0.2050  0.3668  0.1818
 1298ntf    sn210277   2.558   6.644   3.667 -0.1874  0.3440  0.2256
 1298ntf    nn310278   2.687   6.715   3.721  0.0422  0.3990 -0.3976
 1298ntf    sn210279   2.757   6.854   3.698 -0.2030  0.6233  0.1985
 1298ntf    cn110280   2.931   6.822   3.739 -0.2593 -0.0543 -0.0787
 1298ntf    fn410281   2.666   6.554   3.446 -0.0133  0.5634  0.2992
 1298ntf    fn410282   2.748   6.472   3.620 -0.1350  0.6893  0.2799
 1298ntf    fn410283   2.565   6.401   3.547 -0.5475  0.6063  0.0136
 1298ntf    on510284   2.473   6.720   3.579 -0.4655  0.7564  0.8446
 1298ntf    on510285   2.486   6.569   3.768 -0.0760  0.3679  0.3227
 1298ntf    on510286   2.762   6.895   3.560  0.1078  0.2090  0.0841
 1298ntf    on510287   2.713   6.957   3.788 -0.4623  0.3651  0.3686
 1298ntf    fn410288   2.943   6.753   3.852 -0.1222 -0.3954 -0.3002
 1298ntf    fn410289   3.004   6.931   3.756  0.2815 -0.4320  0.0499
 1298ntf    fn410290   2.994   6.747   3.650 -0.4532  0.1954 -0.4304
 1299ntf    cn110291   6.057   3.186   6.754  0.2982 -0.0507  0.0799
 1299ntf    sn210292   6.090   3.144   6.928  0.1085 -0.2562  0.0678
 1299ntf    nn310293   5.993   3.239   7.007  0.8128  0.4252  0.1372
 1299ntf    sn210294   5.878   3.193   7.103  0.3837  0.2719 -0.4401
 1299ntf    cn110295   5.752   3.185   6.972 -0.1731  0.2116  0.0942
 1299ntf    fn410296   5.931   3.223   6.738  0.3458  0.0686 -0.0159
 1299ntf    fn410297   6.129   3.292   6.725  0.6065 -0.1294  0.5412
 1299ntf    fn410298   6.085   3.094   6.663 -0.2518  0.1342 -0.2852
 1299ntf    on510299   6.058   3.004   6.931 -0.2964 -0.1594  0.3405
 1299ntf    on510300   6.231   3.171   6.946  0.1101  0.1538 -0.5308
 1299ntf    on510301   5.893   3.064   7.165 -0.2989  0.2507 -0.3042
 1299ntf    on510302   5.835   3.304   7.185  0.7019  0.3176 -0.3351
 1299ntf    fn410303   5.780   3.091   6.884  0.2712  0.0193  0.4352
 1299ntf    fn410304   5.724   3.295   6.904 -0.1799 -0.1523 -0.5001
 1299ntf    fn410305   5.639   3.147   7.031 -0.1341 -0.0057  0.0313
 1300ntf    cn110306   1.438   2.644   1.220  0.8803 -0.0037 -0.1872
 1300ntf    sn210307   1.419   2.509   1.340  0.2796 -0.0156 -0.2913
 1300ntf    nn310308   1.270   2.468   1.313  0.1363  0.1479  0.2487
 1300ntf    sn210309   1.134   2.538   1.351 -0.1027  0.0842 -0.4851
 1300ntf    cn110310   1.033   2.397   1.404  0.0065  0.3836  0.5302
 1300ntf    fn410311   1.386   2.759   1.260 -0.2180 -0.4740 -0.2349
 1300ntf    fn410312   1.561   2.671   1.179  0.8064  0.5193 -0.0705
 1300ntf    fn410313   1.378   2.597   1.111  0.5900 -0.1939  0.0515
 1300ntf    on510314   1.503   2.406   1.284  0.0415 -0.4012  0.0536
 1300ntf    on510315   1.452   2.559   1.471  0.7307 -0.5416 -0.2019
 1300ntf    on510316   1.132   2.614   1.473  0.4658  0.3173 -0.6203
 1300ntf    on510317   1.063   2.583   1.234 -0.0143 -0.0995 -0.6104
 1300ntf    fn410318   1.033   2.295   1.319 -0.1502  0.4758  0.4192
 1300ntf    fn410319   0.905   2.420   1.431 -0.1628  0.0377  0.0386
 1300ntf    fn410320   1.082   2.351   1.518  0.4850 -0.3306  0.0506
 1301ntf    cn110321   4.956   2.764   4.704 -0.0967 -0.3333 -0.2828
 1301ntf    sn210322   5.025   2.611   4.774 -0.2357 -0.0844  0.4093
 1301ntf    nn310323   5.072   2.650   4.918 -0.3184  0.7215  0.2226
 1301ntf    sn210324   5.214   2.664   4.984 -0.1007  0.6713 -0.2376
 1301ntf    cn110325   5.202   2.512   5.083  0.0064  1.0015  0.2824
 1301ntf    fn410326   4.932   2.758   4.574  0.1375  0.0522 -0.3430
 1301ntf    fn410327   4.842   2.815   4.749  0.6004  0.3104  0.7692
 1301ntf    fn410328   5.043   2.860   4.726 -0.0877 -0.3968 -0.0370
 1301ntf    on510329   4.916   2.516   4.770 -0.0624 -0.2628 -0.1556
 1301ntf    on510330   5.137   2.577   4.690  0.0153  0.4325  0.5325
 1301ntf    on510331   5.332   2.649   4.901 -0.4405  0.0581 -0.6226
 1301ntf    on510332   5.222   2.765   5.086  0.7311  0.1913  0.1866
 1301ntf    fn410333   5.124   2.526   5.189 -0.2787 -0.5856  0.3048
 1301ntf    fn410334   5.324   2.478   5.121 -0.3976 -0.4442  0.3317
 1301ntf    fn410335   5.149   2.411   5.016 -0.0870  0.9765  0.3942
 1302ntf    cn110336   5.460   2.216   5.715 -0.2381 -0.1547  0.0607
 1302ntf    sn210337   5.426   2.176   5.889 -0.1405  0.0797  0.1359
 1302ntf    nn310338   5.542   2.079   5.930 -0.3289 -0.2355 -0.0668
 1302ntf    sn210339   5.562   1.988   6.057  0.1288 -0.1462 -0.0739
 1302ntf    cn110340   5.653   2.088   6.178 -0.2879  0.4644 -0.2627
 1302ntf    fn410341   5.469   2.109   5.639  0.5827  0.1970 -0.3549
 1302ntf    fn410342   5.361   2.286   5.663  0.1967  0.2755 -0.1995
 1302ntf    fn410343   5.580   2.272   5.702 -0.0761 -0.5075  0.0246
 1302ntf    on510344   5.449   2.308   5.940  0.1925  0.0721  0.0057
 1302ntf    on510345   5.289   2.130   5.895 -0.2924  0.4464 -0.4211
 1302ntf    on510346   5.450   1.955   6.140  0.3089  0.9805  0.6267
 1302ntf    on510347   5.656   1.882   6.028  0.0050 -0.4064  0.4573
 1302ntf    fn410348   5.657   2.013   6.287  0.0312 -0.1456 -0.6881
 1302ntf    fn410349   5.586   2.197   6.211 -0.1419  0.3129  0.5690
 1302ntf    fn410350   5.777   2.115   6.140 -0.1041  0.2090  0.1417
 1303ntf    cn110351   1.866   6.593   0.255  0.1370  0.1210 -0.0111
 1303ntf    sn210352   1.780   6.703   0.139  0.1172 -0.1338 -0.2375
 1303ntf    nn310353   1.884   6.700   0.021  0.5165  0.1793  0.1021
 1303ntf    sn210354   1.857   6.674  -0.132 -0.1715 -0.1757  0.2780
 1303ntf    cn110355   1.877   6.493  -0.141  0.0413 -0.1322 -0.1246
 1303ntf    fn410356   1.989   6.613   0.298 -0.1760  0.1254  0.9058
 1303ntf    fn410357   1.804   6.581   0.372 -0.0314  0.8952 -0.0185
 1303ntf    fn410358   1.860   6.475   0.195  0.0920 -0.0002  0.2292
 1303ntf    on510359   1.658   6.630   0.114  0.2485 -0.3478 -0.2569
 1303ntf    on510360   1.774   6.822   0.220 -0.5924 -0.1930 -0.1967
 1303ntf    on510361   1.724   6.688  -0.184  0.0831  0.1818 -0.2811
 1303ntf    on510362   1.965   6.733  -0.207 -0.2194  0.1844  0.4908
 1303ntf    fn410363   1.877   6.450  -0.267 -0.1993  0.5385 -0.3564
 1303ntf    fn410364   1.774   6.432  -0.085  0.0847  0.1978  0.3191
 1303ntf    fn410365   1.985   6.441  -0.085  0.4830  0.1304 -0.7137
 1304ntf    cn110366   6.730   5.956   3.014  0.3648  0.2711 -0.2588
 1304ntf    sn210367   6.826   5.969   2.860  0.4005  0.5867 -0.2119
 1304ntf    nn310368   6.694   5.990   2.776 -0.0167 -0.0295  0.2794
 1304ntf    sn210369   6.619   5.902   2.671  0.2219  0.3343 -0.2015
 1304ntf    cn110370   6.490   6.018   2.615 -0.1031  0.1503  0.1579
 1304ntf    fn410371   6.634   6.046   3.018 -0.0851 -0.1959 -0.5012
 1304ntf    fn410372   6.675   5.837   3.030 -0.1766  0.5781  0.2044
 1304ntf    fn410373   6.811   5.966   3.118  0.2948 -0.1677 -0.1605
 1304ntf    on510374   6.909   6.086   2.866 -0.2206  1.0703 -0.8622
 1304ntf    on510375   6.893   5.841   2.856 -0.9393 -0.1286 -0.4546
 1304ntf    on510376   6.679   5.882   2.542  0.1820  0.3794 -0.2269
 1304ntf    on510377   6.538   5.797   2.729  0.5908  0.0634 -0.1747
 1304ntf    fn410378   6.436   5.992   2.498  0.0253 -0.0178  0.1343
 1304ntf    fn410379   6.555   6.131   2.591  0.2499 -0.1783 -0.4562
 1304ntf    fn410380   6.396   6.039   2.706  0.0941 -0.1429  0.4358
 1305ntf    cn110381   4.818   6.412   5.744 -0.0774 -0.1873 -0.0554
 1305ntf    sn210382   4.995   6.397   5.705 -0.1180 -0.0017 -0.3183
 1305ntf    nn310383   5.051   6.538   5.745 -0.5545 -0.0277  0.4178
 1305ntf    sn210384   5.144   6.566   5.868  0.0893 -0.4868  0.0424
 1305ntf    cn110385   5.297   6.490   5.805  0.2305  0.0578 -0.2838
 1305ntf    fn410386   4.751   6.464   5.642  0.6098 -0.0362 -0.4377
 1305ntf    fn410387   4.765   6.295   5.772  0.4307 -0.3807  0.1026
 1305ntf    fn410388   4.783   6.489   5.846 -0.4534  0.4391 -0.6430
 1305ntf    on510389   5.029   6.280   5.782 -0.1130 -0.0115 -0.3343
 1305ntf    on510390   5.000   6.385   5.561  0.8713  0.3405 -0.3127
 1305ntf    on510391   5.166   6.709   5.871  0.0006 -0.4701 -0.0592
 1305ntf    on510392   5.108   6.503   5.992  0.3108 -0.2173  0.2467
 1305ntf    fn410393   5.290   6.469   5.675  0.3602  0.1773 -0.3113
 1305ntf    fn410394   5.327   6.372   5.856 -0.1614 -0.2286 -0.7207
 1305ntf    fn410395   5.401   6.567   5.838  0.2368 -0.2630  0.4685
 1306ntf    cn110396   4.673   5.946   3.841 -0.0175  0.1722  0.3344
 1306ntf    sn210397   4.777   5.820   3.761 -0.3967  0.2737 -0.3270
 1306ntf    nn310398   4.887   5.803   3.872 -0.6870  0.3747 -0.0226
 1306ntf    sn210399   4.921   5.691   3.976 -0.2048 -0.1831 -0.7794
 1306ntf    cn110400   4.857   5.780   4.121  0.0865  0.0800 -0.8112
 1306ntf    fn410401   4.586   5.894   3.927 -0.8771  0.2094 -0.4914
 1306ntf    fn410402   4.741   6.042   3.901  0.2163  0.2115  0.0034
 1306ntf    fn410403   4.599   6.008   3.751 -0.1019  0.3783  0.5424
 1306ntf    on510404   4.689   5.709   3.735 -0.1171 -0.0021 -0.0972
 1306ntf    on510405   4.827   5.892   3.647  0.1914 -0.3785 -0.4816
 1306ntf    on510406   4.852   5.564   3.980  0.1629 -0.3902 -0.9208
 1306ntf    on510407   5.061   5.676   4.007 -0.3454 -0.0508 -0.0550
 1306ntf    fn410408   4.896   5.906   4.120  0.3140  0.0171 -0.3617
 1306ntf    fn410409   4.886   5.725   4.238 -1.0278 -0.1508 -0.6339
 1306ntf    fn410410   4.725   5.774   4.123  0.1066 -0.3506 -0.6868
 1307ntf    cn110411   0.813   1.231   0.089  0.4350  0.3254 -0.3029
 1307ntf    sn210412   0.972   1.219   0.175  0.0770 -0.0753  0.3138
 1307ntf    nn310413   1.009   1.074   0.128 -0.5114  0.0484 -0.5474
 1307ntf    sn210414   1.067   1.018  -0.007  0.2115 -0.0866 -0.1854
 1307ntf    cn110415   0.983   0.857  -0.002 -0.3322  0.2017  0.0620
 1307ntf    fn410416   0.826   1.254  -0.040 -0.2183 -0.8048 -0.5852
 1307ntf    fn410417   0.745   1.119   0.106  0.1432  0.4926 -0.3544
 1307ntf    fn410418   0.727   1.323   0.132  0.1880  0.3504 -0.8449
 1307ntf    on510419   1.045   1.331   0.121 -0.3745  0.3773  0.6428
 1307ntf    on510420   0.925   1.226   0.311 -0.1512 -0.1951  0.2410
 1307ntf    on510421   1.006   1.091  -0.116 -0.1985  0.0322  0.1245
 1307ntf    on510422   1.210   1.001  -0.014  0.3259  0.7559  0.0650
 1307ntf    fn410423   1.008   0.798   0.113 -0.2729  0.6174  0.2628
 1307ntf    fn410424   1.023   0.774  -0.098 -0.7479  0.2713 -0.1726
 1307ntf    fn410425   0.851   0.867  -0.004 -0.3565 -0.1083  0.1046
 1308ntf    cn110426   3.420   3.091   1.523  0.1235 -0.0301  0.4483
 1308ntf    sn210427   3.520   3.007   1.649 -0.0311 -0.2671  0.4126
 1308ntf    nn310428   3.487   3.081   1.783 -0.0570  0.1414  0.1817
 1308ntf    sn210429   3.537   3.209   1.858 -0.0974  0.1607  0.1752
 1308ntf    cn110430   3.581   3.145   2.022  0.4402  0.0605 -0.0081
 1308ntf    fn410431   3.453   3.045   1.403  0.0908 -0.1039  0.4677
 1308ntf    fn410432   3.291   3.074   1.542 -0.0137  0.1727 -0.2689
 1308ntf    fn410433   3.446   3.221   1.524  0.1230 -0.0202 -0.3100
 1308ntf    on510434   3.469   2.872   1.639  0.6556 -0.5113  0.1149
 1308ntf    on510435   3.657   3.028   1.607 -0.0513 -0.0192  0.4727
 1308ntf    on510436   3.665   3.267   1.828  0.0097 -0.2733 -0.2018
 1308ntf    on510437   3.430   3.302   1.888 -0.1157  0.1822  0.0424
 1308ntf    fn410438   3.478   3.154   2.105  0.5118 -0.7137  0.1756
 1308ntf    fn410439   3.678   3.217   2.077  0.3713 -0.2396  0.5187
 1308ntf    fn410440   3.622   3.019   2.029 -0.2900 -0.2556 -1.1875
 1309ntf    cn110441   0.860   3.013   0.879 -0.0624 -0.2598  0.3438
 1309ntf    sn210442   0.880   3.164   0.977  0.2796  0.1665 -0.3767
 1309ntf    nn310443   0.730   3.205   0.999  0.2603  0.0465 -0.2885
 1309ntf    sn210444   0.674   3.239   1.142  0.7831  0.3112 -0.1457
 1309ntf    cn110445   0.744   3.406   1.158  0.5111  0.3940  0.1921
 1309ntf    fn410446   0.767   3.025   0.785  0.2909  0.2326  0.0527
 1309ntf    fn410447   0.969   2.968   0.819  0.0099  0.0679  0.2304
 1309ntf    fn410448   0.809   2.917   0.955 -0.3449 -0.1427  0.3022
 1309ntf    on510449   0.962   3.122   1.088  0.7100  0.3770 -0.6125
 1309ntf    on510450   0.948   3.247   0.880  0.2779  0.8291  0.1783
 1309ntf    on510451   0.534   3.273   1.139  0.7345  0.1547  0.2739
 1309ntf    on510452   0.730   3.168   1.255 -0.1852 -0.3188 -0.0480
 1309ntf    fn410453   0.714   3.484   1.055  1.0094  0.2374 -0.0758
 1309ntf    fn410454   0.875   3.406   1.145  0.5098 -0.2413  0.1330
 1309ntf    fn410455   0.716   3.469   1.271 -0.2939 -0.1662  0.3132
 1310ntf    cn110456   5.138   2.868   0.703 -0.1376  0.4982  0.1436
 1310ntf    sn210457   5.267   2.937   0.811  0.1886  0.7548 -0.4061
 1310ntf    nn310458   5.395   2.875   0.745  0.0107  0.1015 -0.1402
 1310ntf    sn210459   5.545   2.878   0.794  0.0412  0.1496 -0.2359
 1310ntf    cn110460   5.570   2.733   0.901 -0.0279  0.0735 -0.3222
 1310ntf    fn410461   5.116   2.739   0.721 -0.0535  0.4938  0.2183
 1310ntf    fn410462   5.017   2.918   0.722 -0.2031  0.5367 -0.3766
 1310ntf    fn410463   5.165   2.876   0.574  0.2047 -0.3637  0.1567
 1310ntf    on510464   5.258   3.078   0.784 -0.5539  0.7074 -0.4103
 1310ntf    on510465   5.241   2.881   0.942  0.2962 -0.1130 -0.7524
 1310ntf    on510466   5.629   2.831   0.687  0.1535 -0.4436  0.1115
 1310ntf    on510467   5.582   2.997   0.866 -0.4837  0.0226  0.2495
 1310ntf    fn410468   5.487   2.723   1.003  0.1775  0.4015 -0.1197
 1310ntf    fn410469   5.688   2.711   0.958  0.0171  0.1181 -0.3976
 1310ntf    fn410470   5.543   2.629   0.824 -0.3158 -0.1229  0.0423
 1311ntf    cn110471   4.686   4.051   2.976 -0.3233 -0.2752 -0.1023
 1311ntf    sn210472   4.517   3.984   2.961 -0.3901 -0.1030 -0.1217
 1311ntf    nn310473   4.541   3.848   3.036  0.8983  0.2828  0.2001
 1311ntf    sn210474   4.545   3.705   2.969  0.3894  0.3784 -0.0430
 1311ntf    cn110475   4.585   3.604   3.115  0.5646 -0.0480 -0.3886
 1311ntf    fn410476   4.727   4.070   3.100 -0.2078 -0.2793 -0.1400
 1311ntf    fn410477   4.774   3.974   2.913 -0.3009 -0.3481  0.0193
 1311ntf    fn410478   4.686   4.167   2.913  0.3191  0.1459  0.6652
 1311ntf    on510479   4.443   4.072   3.048  0.2495  0.0772  0.2544
 1311ntf    on510480   4.483   3.979   2.821  0.2170  0.2582 -0.2888
 1311ntf    on510481   4.421   3.651   2.921  0.3476  0.4661 -0.0331
 1311ntf    on510482   4.662   3.687   2.887  0.2224  0.9278 -0.4104
 1311ntf    fn410483   4.705   3.628   3.165  0.0344 -0.1522  0.9660
 1311ntf    fn410484   4.585   3.475   3.083 -0.0195 -0.1869  0.1672
 1311ntf    fn410485   4.496   3.617   3.211  0.5083  0.1721 -0.4712
 1312ntf    cn110486   1.912   4.025   0.637 -0.3882 -0.3704 -0.2948
 1312ntf    sn210487   1.886   3.971   0.808 -0.3137  0.1992 -0.1016
 1312ntf    nn310488   1.757   4.049   0.855 -0.7270 -0.1109 -0.7131
 1312ntf    sn210489   1.745   4.205   0.862 -0.2263 -0.0993  0.0235
 1312ntf    cn110490   1.665   4.207   1.025 -0.3654 -0.1554 -0.0438
 1312ntf    fn410491   1.891   4.156   0.637  0.0786 -0.2802  1.0243
 1312ntf    fn410492   2.038   4.015   0.598 -0.0267  0.4226  0.6327
 1312ntf    fn410493   1.832   3.977   0.543 -0.3856 -0.3011 -0.3323
 1312ntf    on510494   1.863   3.829   0.799  0.0025  0.1670 -0.3961
 1312ntf    on510495   2.012   4.004   0.869 -0.3107  0.1366 -0.0738
 1312ntf    on510496   1.857   4.294   0.883 -0.1180 -0.1225 -0.4362
 1312ntf    on510497   1.644   4.257   0.773  0.7169  0.5769 -0.6830
 1312ntf    fn410498   1.587   4.313   1.038 -0.4394 -0.1835 -0.2565
 1312ntf    fn410499   1.749   4.199   1.127 -0.1742  1.4227 -0.0555
 1312ntf    fn410500   1.582   4.105   1.034 -0.4908 -0.0619 -0.1394
 1313ntf    cn110501   5.863   2.003   1.390  0.0526 -0.0186 -0.1917
 1313ntf    sn210502   5.778   1.846   1.356 -0.2281  0.1083 -0.0792
 1313ntf    nn310503   5.625   1.878   1.368 -0.3106 -0.3707  0.1811
 1313ntf    sn210504   5.511   1.790   1.430 -0.3097 -0.3618  0.1959
 1313ntf    cn110505   5.387   1.764   1.300 -0.0349 -0.1464 -0.1114
 1313ntf    fn410506   5.837   2.054   1.509 -0.0802 -0.4594 -0.0305
 1313ntf    fn410507   5.995   1.991   1.384  0.0957  0.2347  0.1851
 1313ntf    fn410508   5.833   2.095   1.301 -0.2003 -0.1924 -0.2878
 1313ntf    on510509   5.832   1.805   1.228  0.2521 -0.6760  0.3673
 1313ntf    on510510   5.822   1.765   1.466 -0.3374  0.2697  0.0828
 1313ntf    on510511   5.551   1.658   1.473  0.0222 -0.0832  0.7479
 1313ntf    on510512   5.449   1.881   1.523  0.0966  0.2405 -0.1185
 1313ntf    fn410513   5.334   1.883   1.281  0.3526  0.1063  0.3625
 1313ntf    fn410514   5.289   1.685   1.341 -0.0703  0.2034  0.4936
 1313ntf    fn410515   5.430   1.719   1.184  0.2205 -0.4285  0.0914
 1314ntf    cn110516   6.351   2.263   5.419  0.1321  0.0544  0.6446
 1314ntf    sn210517   6.368   2.218   5.594 -0.5158  0.3165  0.7773
 1314ntf    nn310518   6.500   2.136   5.575 -0.5950  0.2908  0.3227
 1314ntf    sn210519   6.545   2.004   5.646  0.0545  0.3432  0.0133
 1314ntf    cn110520   6.667   2.070   5.764  0.3057 -0.2161  0.0714
 1314ntf    fn410521   6.463   2.314   5.371 -0.2765  0.1626 -0.2305
 1314ntf    fn410522   6.311   2.162   5.343 -0.7723  0.9380 -0.0984
 1314ntf    fn410523   6.257   2.356   5.403  0.1268 -0.0225  0.1952
 1314ntf    on510524   6.404   2.332   5.674 -0.1440  0.4975  0.3559
 1314ntf    on510525   6.249   2.142   5.621 -0.5281  0.1566  0.2798
 1314ntf    on510526   6.453   1.934   5.732  0.0525  0.3592  0.0243
 1314ntf    on510527   6.625   1.924   5.556  0.1080  0.1957  0.1920
 1314ntf    fn410528   6.783   2.088   5.704  0.4819 -0.4567  0.3371
 1314ntf    fn410529   6.695   1.973   5.850 -0.0816 -0.1037  0.3296
 1314ntf    fn410530   6.637   2.182   5.828 -1.0654 -0.5173 -0.0102
 1315ntf    cn110531   4.655   2.957   3.427  0.1346  0.0769 -0.1516
 1315ntf    sn210532   4.597   2.962   3.599  0.1353 -0.1121 -0.1454
 1315ntf    nn310533   4.482   3.069   3.607 -0.1038 -0.3959  0.2653
 1315ntf    sn210534   4.344   3.068   3.532  0.0736  0.2069 -0.0748
 1315ntf    cn110535   4.329   3.241   3.478  0.2289  0.2499  0.0176
 1315ntf    fn410536   4.677   3.078   3.377  0.3845 -0.0159 -0.2688
 1315ntf    fn410537   4.773   2.897   3.430  0.0254 -0.1052  0.8470
 1315ntf    fn410538   4.570   2.901   3.343 -0.3262  0.5280  0.0081
 1315ntf    on510539   4.556   2.826   3.625  0.4509 -0.0214  0.8941
 1315ntf    on510540   4.713   3.014   3.666 -0.0229 -0.3694  0.3338
 1315ntf    on510541   4.343   2.997   3.407 -0.0999  0.2126 -0.0770
 1315ntf    on510542   4.227   3.057   3.617 -0.1337  0.8528 -0.2727
 1315ntf    fn410543   4.440   3.271   3.414  0.2034  0.9564  0.2959
 1315ntf    fn410544   4.324   3.322   3.583  0.5661  0.3571 -0.0492
 1315ntf    fn410545   4.225   3.274   3.402  0.3407 -0.0363 -0.2597
 1316ntf    cn110546   4.181   3.967   0.227  0.1223  0.0041 -0.4361
 1316ntf    sn210547   4.204   4.134   0.158  0.1318  0.2122  0.0616
 1316ntf    nn310548   4.270   4.216   0.274 -0.1761 -0.2661  0.5802
 1316ntf    sn210549   4.245   4.366   0.316  0.0563  0.0367 -0.3386
 1316ntf    cn110550   4.093   4.358   0.416  0.2230 -0.0392 -0.0896
 1316ntf    fn410551   4.301   3.919   0.255  0.1332  0.1700 -0.1889
 1316ntf    fn410552   4.116   3.970   0.342 -0.0445 -0.0511 -0.5286
 1316ntf    fn410553   4.130   3.881   0.141  0.0335  0.0864 -0.4661
 1316ntf    on510554   4.296   4.095   0.054 -0.1737 -0.4428  0.0280
 1316ntf    on510555   4.072   4.183   0.126  0.0197  0.1996  0.5050
 1316ntf    on510556   4.341   4.413   0.413 -0.5997 -0.0008  0.3348
 1316ntf    on510557   4.214   4.449   0.202  0.1883 -0.0295 -0.4234
 1316ntf    fn410558   4.120   4.306   0.534  0.6677 -0.0256 -0.1824
 1316ntf    fn410559   4.004   4.288   0.348  0.1219 -0.1120  0.1187
 1316ntf    fn410560   4.033   4.473   0.441 -0.0149 -0.0939 -0.4087
 1317ntf    cn110561   6.082   0.139   3.929  0.2434 -0.2114  0.1467
 1317ntf    sn210562   6.217   0.255   3.893 -0.3848  0.4060 -0.2562
 1317ntf    nn310563   6.229   0.259   3.737  0.8442 -0.1757 -0.1903
 1317ntf    sn210564   6.297   0.360   3.638  0.0948  0.4192 -0.1102
 1317ntf    cn110565   6.450   0.274   3.590 -0.1096  0.0521 -0.1009
 1317ntf    fn410566   6.111   0.015   3.893 -0.2706 -0.4238  0.4396
 1317ntf    fn410567   6.071   0.136   4.060 -0.0324  0.0348  0.1307
 1317ntf    fn410568   5.971   0.182   3.871  0.4223 -0.1517 -0.1558
 1317ntf    on510569   6.169   0.378   3.952 -0.5952  0.1851  0.0389
 1317ntf    on510570   6.324   0.183   3.957 -0.4900  0.0551 -0.4733
 1317ntf    on510571   6.223   0.365   3.514 -0.5546 -0.2546  0.2449
 1317ntf    on510572   6.339   0.490   3.684  0.5962  0.3352 -0.3209
 1317ntf    fn410573   6.525   0.236   3.691  0.0146 -0.2423 -0.3006
 1317ntf    fn410574   6.521   0.352   3.510  0.1600 -0.0109  0.0787
 1317ntf    fn410575   6.433   0.161   3.522 -0.2684 -0.3655  0.6172
 1318ntf    cn110576   4.843   3.297   1.243  0.1896  0.3941 -0.4199
 1318ntf    sn210577   4.952   3.153   1.230 -0.0233  0.1850  0.0675
 1318ntf    nn310578   4.850   3.036   1.250 -0.0858  0.1299 -0.5396
 1318ntf    sn210579   4.863   2.889   1.195  0.2178 -0.0021 -0.1135
 1318ntf    cn110580   4.781   2.911   1.035  0.0910  0.3478 -0.0031
 1318ntf    fn410581   4.804   3.322   1.367 -0.1275 -0.3043 -0.3777
 1318ntf    fn410582   4.901   3.411   1.207  0.8740  0.3601  0.5295
 1318ntf    fn410583   4.733   3.293   1.170  0.2585 -0.7070 -0.4713
 1318ntf    on510584   5.010   3.172   1.099 -0.5746  0.0362 -0.1991
 1318ntf    on510585   5.041   3.172   1.341  1.0552 -0.0290 -0.7365
 1318ntf    on510586   4.994   2.836   1.164  0.4176  0.4697 -0.0837
 1318ntf    on510587   4.775   2.802   1.268  0.0039  0.2804 -0.0334
 1318ntf    fn410588   4.754   2.787   0.996 -0.0209  0.1108  0.8153
 1318ntf    fn410589   4.853   2.987   0.954  0.2825 -0.1856 -0.3425
 1318ntf    fn410590   4.667   2.976   1.045 -0.1753 -0.0586 -0.3295
 1319ntf    cn110591   1.386   4.875   5.787 -0.1237  0.1440  0.1031
 1319ntf    sn210592   1.380   4.703   5.728  0.0396  0.2893 -0.3416
 1319ntf    nn310593   1.483   4.630   5.821  0.4178  0.9472 -0.2436
 1319ntf    sn210594   1.614   4.552   5.784 -0.1550 -0.2849  0.2863
 1319ntf    cn110595   1.601   4.425   5.913 -0.2262 -0.5065  0.0622
 1319ntf    fn410596   1.479   4.943   5.723 -0.1554  0.3554  0.2825
 1319ntf    fn410597   1.272   4.937   5.763 -0.0890  0.3639  0.5028
 1319ntf    fn410598   1.419   4.885   5.914 -0.3608  0.5626  0.1328
 1319ntf    on510599   1.242   4.659   5.731 -0.0515  0.5794 -0.2473
 1319ntf    on510600   1.436   4.718   5.596 -0.2717  0.0139 -0.5092
 1319ntf    on510601   1.621   4.474   5.663 -0.5679  0.1367 -0.0122
 1319ntf    on510602   1.737   4.621   5.813 -0.0832 -0.2901 -0.0040
 1319ntf    fn410603   1.491   4.351   5.907 -0.2657 -0.4912  0.5492
 1319ntf    fn410604   1.589   4.482   6.032  0.3333 -0.2219 -0.0138
 1319ntf    fn410605   1.714   4.358   5.908 -0.2414 -0.5157 -0.1667
 1320ntf    cn110606   5.506   5.951   1.755  0.9264  0.3563 -0.0304
 1320ntf    sn210607   5.557   5.865   1.603  0.2443  0.0735 -0.1005
 1320ntf    nn310608   5.460   5.742   1.595  0.2518  0.0478  0.1798
 1320ntf    sn210609   5.492   5.604   1.525 -0.5623  0.1385 -0.3930
 1320ntf    cn110610   5.392   5.626   1.375 -0.2406  0.4181 -0.5694
 1320ntf    fn410611   5.548   5.881   1.859  0.2608  0.0168  0.0147
 1320ntf    fn410612   5.570   6.067   1.764  0.4452  0.6426 -0.2322
 1320ntf    fn410613   5.376   5.967   1.774  0.7415 -0.8426 -0.2533
 1320ntf    on510614   5.540   5.954   1.491 -0.8495  0.0776  0.0518
 1320ntf    on510615   5.693   5.834   1.639 -0.1160 -0.5636  0.7783
 1320ntf    on510616   5.629   5.579   1.486 -0.2540 -0.6866  1.1346
 1320ntf    on510617   5.424   5.499   1.596  0.3660 -0.0760  0.2013
 1320ntf    fn410618   5.462   5.685   1.280  0.5689  0.3963  0.0093
 1320ntf    fn410619   5.282   5.692   1.409 -0.7257 -0.5136 -0.2973
 1320ntf    fn410620   5.356   5.507   1.332 -0.1052  0.2955 -0.3461
 1321ntf    cn110621   5.818   5.883   3.831 -0.0657 -0.2662  0.0427
 1321ntf    sn210622   5.708   5.999   3.918  0.0091 -0.1160 -0.0637
 1321ntf    nn310623   5.720   6.127   3.828  0.4857 -0.0694  0.0654
 1321ntf    sn210624   5.621   6.185   3.721 -0.0519  0.1583  0.6822
 1321ntf    cn110625   5.728   6.197   3.575 -0.3907 -0.0760  0.4136
 1321ntf    fn410626   5.949   5.902   3.833 -0.1579  0.3852  0.1379
 1321ntf    fn410627   5.802   5.757   3.868  0.1342 -0.1671  0.4656
 1321ntf    fn410628   5.775   5.891   3.706 -1.2675  0.8895  0.5054
 1321ntf    on510629   5.578   5.938   3.906  0.1383 -0.5054  0.4887
 1321ntf    on510630   5.761   6.006   4.051 -0.0106  0.3641 -0.0802
 1321ntf    on510631   5.523   6.091   3.672  0.3013  0.4322 -0.5902
 1321ntf    on510632   5.579   6.322   3.740 -0.2136  0.2804 -0.4692
 1321ntf    fn410633   5.663   6.227   3.464 -0.0299 -0.0033  0.2216
 1321ntf    fn410634   5.785   6.081   3.544  0.2164  0.2915  0.1384
 1321ntf    fn410635   5.824   6.287   3.589 -0.3541 -0.0396 -0.0490
 1322ntf    cn110636   1.499   4.824   0.224  0.2776  0.5718  0.2647
 1322ntf    sn210637   1.345   4.803   0.317  0.1417 -0.2425 -0.1288
 1322ntf    nn310638   1.360   4.887   0.449  0.3273 -0.1573 -0.2045
 1322ntf    sn210639   1.410   4.851   0.594  0.3309  0.1881 -0.1186
 1322ntf    cn110640   1.253   4.822   0.681  0.3491  0.5083  0.0209
 1322ntf    fn410641   1.481   4.759   0.110 -0.4926 -0.4424  0.9509
 1322ntf    fn410642   1.534   4.949   0.200  0.5161  0.5083  0.2740
 1322ntf    fn410643   1.606   4.765   0.276  0.1222  0.1960  0.1646
 1322ntf    on510644   1.253   4.857   0.220 -0.7809 -0.1336  0.7832
 1322ntf    on510645   1.342   4.661   0.341 -1.1064 -0.3412 -0.7564
 1322ntf    on510646   1.495   4.735   0.605  0.0389 -0.0481 -0.3352
 1322ntf    on510647   1.460   4.969   0.660  0.4177  0.4892 -0.7132
 1322ntf    fn410648   1.177   4.931   0.678  0.1333  0.3618  0.1524
 1322ntf    fn410649   1.273   4.806   0.811 -0.0484  0.3664  0.0652
 1322ntf    fn410650   1.178   4.727   0.628  0.0329  0.8477 -0.1437
 1323ntf    cn110651   3.242   1.731   1.778 -0.1397  0.1161  0.3907
 1323ntf    sn210652   3.111   1.795   1.886 -0.1932  0.2518  0.2444
 1323ntf    nn310653   2.987   1.707   1.847  0.0003  0.0787  0.0215
 1323ntf    sn210654   2.854   1.751   1.777  0.0878 -0.2079 -0.3297
 1323ntf    cn110655   2.755   1.601   1.804  0.1020 -0.2384 -0.4475
 1323ntf    fn410656   3.336   1.823   1.763  0.6351 -0.7537 -0.2673
 1323ntf    fn410657   3.311   1.623   1.813  0.7791  0.4800 -0.2596
 1323ntf    fn410658   3.188   1.702   1.661  0.3328 -0.1077  0.2250
 1323ntf    on510659   3.163   1.767   2.017 -0.0065 -0.0844  0.0980
 1323ntf    on510660   3.100   1.932   1.841  0.0394  0.1741 -0.0479
 1323ntf    on510661   2.785   1.854   1.852  0.7778  0.1948 -0.2428
 1323ntf    on510662   2.854   1.765   1.634 -0.2736  0.2390 -0.2894
 1323ntf    fn410663   2.725   1.578   1.931  0.4185  0.5620 -0.2230
 1323ntf    fn410664   2.820   1.490   1.771 -0.2690 -0.4566 -0.4469
 1323ntf    fn410665   2.640   1.609   1.740 -0.0759 -0.4016 -0.1468
 1324ntf    cn110666   2.469   0.723   0.688 -0.0649 -0.0072 -0.3264
 1324ntf    sn210667   2.607   0.724   0.569  0.3521 -0.4166  0.1505
 1324ntf    nn310668   2.555   0.818   0.455  0.4647 -0.7115 -0.1465
 1324ntf    sn210669   2.479   0.792   0.320  0.1197  0.4824 -0.1953
 1324ntf    cn110670   2.610   0.811   0.196 -0.0129  0.5079 -0.3314
 1324ntf    fn410671   2.450   0.833   0.759  0.3326 -0.6572  0.8176
 1324ntf    fn410672   2.351   0.706   0.631  0.0980  0.0384 -0.6783
 1324ntf    fn410673   2.485   0.626   0.776  0.6565  0.7688  0.4196
 1324ntf    on510674   2.705   0.783   0.657  0.1722 -0.0750  0.1200
 1324ntf    on510675   2.636   0.588   0.530 -0.1389 -0.3275 -0.5356
 1324ntf    on510676   2.418   0.662   0.301  0.1837  0.5583 -0.9286
 1324ntf    on510677   2.390   0.903   0.297 -0.3374  0.1327 -0.1464
 1324ntf    fn410678   2.653   0.936   0.193 -0.1814  0.5771  0.0062
 1324ntf    fn410679   2.569   0.784   0.073  0.4135  0.1153 -0.3882
 1324ntf    fn410680   2.715   0.733   0.216 -0.1861  0.4340  0.2990
 1325ntf    cn110681   4.692   5.273   4.834 -0.2396  0.0763 -0.0302
 1325ntf    sn210682   4.662   5.119   4.742  0.1446 -0.0713  0.0920
 1325ntf    nn310683   4.543   5.154   4.645  0.1933 -0.3182 -0.0570
 1325ntf    sn210684   4.390   5.166   4.679  0.1917 -0.4044 -0.0306
 1325ntf    cn110685   4.342   5.318   4.592 -0.1713 -0.3785  0.2139
 1325ntf    fn410686   4.580   5.332   4.875 -0.2509 -0.1413  0.2524
 1325ntf    fn410687   4.755   5.254   4.948  0.1113  0.4799 -0.1539
 1325ntf    fn410688   4.761   5.367   4.772  0.2006 -0.0747  0.2277
 1325ntf    on510689   4.782   5.095   4.666 -0.0645  0.1673 -0.3221
 1325ntf    on510690   4.643   5.016   4.840  0.9244 -0.4513 -0.1426
 1325ntf    on510691   4.305   5.062   4.629  0.8788 -0.5443 -0.9368
 1325ntf    on510692   4.367   5.205   4.816 -0.2560  0.0556 -0.2313
 1325ntf    fn410693   4.378   5.313   4.464  0.2098 -0.5906  0.3294
 1325ntf    fn410694   4.399   5.423   4.649  0.0250 -0.3058 -0.1088
 1325ntf    fn410695   4.212   5.344   4.603 -0.1307 -0.1747  0.2218
 1326ntf    cn110696   0.888   3.564   3.519 -0.0667 -0.1614 -0.0530
 1326ntf    sn210697   0.975   3.412   3.471 -0.0409 -0.2224  0.1888
 1326ntf    nn310698   1.005   3.428   3.318 -0.3800  0.2437  0.1719
 1326ntf    sn210699   1.099   3.337   3.232 -0.3096  0.2811  0.2087
 1326ntf    cn110700   0.979   3.239   3.135  0.2894  0.0019 -0.2548
 1326ntf    fn410701   0.962   3.666   3.480 -0.3903 -0.0231 -0.3146
 1326ntf    fn410702   0.768   3.581   3.464  0.0877  0.5230 -0.1833
 1326ntf    fn410703   0.868   3.573   3.649 -0.0752  0.0790 -0.0703
 1326ntf    on510704   1.093   3.406   3.554  0.3225  0.4835 -0.2640
 1326ntf    on510705   0.880   3.306   3.496  0.3080 -0.6203 -0.1533
 1326ntf    on510706   1.155   3.422   3.130 -0.4437 -0.6037 -0.6175
 1326ntf    on510707   1.177   3.247   3.313  0.2443  0.7076  0.1446
 1326ntf    fn410708   0.910   3.312   3.049 -0.1453 -0.1323 -0.0181
 1326ntf    fn410709   0.892   3.163   3.199  0.0658  0.3130 -0.1854
 1326ntf    fn410710   1.040   3.151   3.058  0.0078 -0.1194 -0.3388
 1327ntf    cn110711   0.506   4.619   1.023 -0.1214  0.0618  0.3707
 1327ntf    sn210712   0.481   4.790   0.966 -0.0741  0.0795  0.4021
 1327ntf    nn310713   0.557   4.784   0.828  0.1977 -0.8175  0.5844
 1327ntf    sn210714   0.514   4.733   0.686 -0.2343  0.1350  0.3656
 1327ntf    cn110715   0.458   4.886   0.606 -0.6546  0.1495  0.6803
 1327ntf    fn410716   0.624   4.607   1.083  0.3421  0.4567 -0.4407
 1327ntf    fn410717   0.412   4.562   1.096 -0.5088  0.1828 -0.0318
 1327ntf    fn410718   0.535   4.537   0.923 -0.3900 -0.0540  0.3898
 1327ntf    on510719   0.339   4.797   0.940  0.0344 -0.0890 -0.2576
 1327ntf    on510720   0.537   4.873   1.069  0.1494  0.4860 -0.0423
 1327ntf    on510721   0.636   4.700   0.616 -0.2296  0.0046  0.4358
 1327ntf    on510722   0.410   4.634   0.674  0.2496 -0.4591  1.0101
 1327ntf    fn410723   0.362   4.954   0.667 -0.4724  0.7499  0.3094
 1327ntf    fn410724   0.413   4.868   0.483 -0.4879  0.2964  0.5958
 1327ntf    fn410725   0.559   4.972   0.603  0.3889 -1.0552  0.4321
 1328ntf    cn110726   0.119   0.450   1.947  0.2749 -0.3749 -0.1134
 1328ntf    sn210727   0.181   0.604   1.872  0.0702 -0.1035  0.2689
 1328ntf    nn310728   0.078   0.713   1.918  0.3125  0.3265 -0.2039
 1328ntf    sn210729   0.096   0.819   2.032 -0.1421  0.0167  0.1586
 1328ntf    cn110730  -0.078   0.863   2.065 -0.1799 -0.1570  0.1908
 1328ntf    fn410731   0.089   0.471   2.074 -0.3056 -0.0238 -0.3056
 1328ntf    fn410732   0.009   0.403   1.892 -0.2850  0.4349  0.3025
 1328ntf    fn410733   0.204   0.349   1.956  0.3286 -0.3494 -0.3367
 1328ntf    on510734   0.312   0.626   1.928  0.1950  0.6915 -0.3269
 1328ntf    on510735   0.172   0.578   1.731  0.5226 -0.2533  0.2649
 1328ntf    on510736   0.137   0.765   2.159  0.3525 -0.1051 -0.0496
 1328ntf    on510737   0.158   0.941   1.985  0.2293 -0.2226  0.0282
 1328ntf    fn410738  -0.146   0.881   1.953  0.2649  0.2648 -0.0171
 1328ntf    fn410739  -0.101   0.975   2.132 -0.3005 -0.1677  0.1671
 1328ntf    fn410740  -0.140   0.772   2.137  0.2502 -0.4063  0.2537
 1329ntf    cn110741   0.592   6.503   3.320 -0.2986  0.1387  0.1003
 1329ntf    sn210742   0.572   6.438   3.152  0.2187 -0.2588  0.1883
 1329ntf    nn310743   0.703   6.492   3.084  0.6398 -0.6030  0.7214
 1329ntf    sn210744   0.782   6.440   2.959 -0.4249  0.4764 -0.4331
 1329ntf    cn110745   0.783   6.597   2.868 -0.7892  0.5591 -0.2938
 1329ntf    fn410746   0.552   6.627   3.346 -0.0696  0.2623 -0.1308
 1329ntf    fn410747   0.512   6.434   3.400 -0.0879  0.0673  0.2515
 1329ntf    fn410748   0.718   6.495   3.361 -0.1725 -0.3707 -0.3833
 1329ntf    on510749   0.569   6.295   3.169 -0.1762 -0.3280 -0.4378
 1329ntf    on510750   0.458   6.511   3.101 -0.2194 -0.6376  0.6261
 1329ntf    on510751   0.912   6.402   3.009 -0.8452 -0.3604  0.0434
 1329ntf    on510752   0.721   6.345   2.869  0.2400 -0.2407 -0.1424
 1329ntf    fn410753   0.865   6.585   2.765 -0.3796  0.2506  0.0663
 1329ntf    fn410754   0.829   6.690   2.950 -0.1535 -0.1029  0.1106
 1329ntf    fn410755   0.663   6.631   2.824 -0.5706  0.8022 -0.7051
 1330ntf    cn110756   5.449   0.766   3.455  0.4135  0.6613  0.1564
 1330ntf    sn210757   5.408   0.859   3.605  0.1335  0.2520  0.3363
 1330ntf    nn310758   5.481   0.997   3.586 -0.1323  0.3339 -0.1137
 1330ntf    sn210759   5.445   1.114   3.488  0.3966  0.4471 -0.1766
 1330ntf    cn110760   5.329   1.215   3.585  0.3596  0.1444  0.0957
 1330ntf    fn410761   5.436   0.635   3.466  0.8406  0.5781 -0.2780
 1330ntf    fn410762   5.363   0.797   3.360 -0.1014 -0.2120  0.3308
 1330ntf    fn410763   5.565   0.795   3.398  0.5899 -0.2014  0.0522
 1330ntf    on510764   5.265   0.877   3.612 -0.0201 -0.8197  0.0255
 1330ntf    on510765   5.465   0.793   3.720 -0.2434 -0.1630  0.2844
 1330ntf    on510766   5.555   1.202   3.458  0.2890  0.4743 -0.4929
 1330ntf    on510767   5.382   1.072   3.365  0.0821 -0.0184  0.1430
 1330ntf    fn410768   5.387   1.282   3.683  0.4920  0.3243 -0.1057
 1330ntf    fn410769   5.241   1.150   3.659 -0.2827 -0.6105 -1.2875
 1330ntf    fn410770   5.278   1.310   3.508  0.4131  0.0620 -0.0431
 1331ntf    cn110771   5.176   6.716   3.867  0.0186 -0.0389 -0.6147
 1331ntf    sn210772   5.201   6.536   3.872 -0.3642 -0.0765  0.0995
 1331ntf    nn310773   5.117   6.490   3.997  0.2495 -0.0553  0.5238
 1331ntf    sn210774   4.964   6.481   4.030  0.0872  0.0924 -0.1754
 1331ntf    cn110775   4.942   6.595   4.170  0.4350 -0.2616  0.1702
 1331ntf    fn410776   5.057   6.749   3.819  0.2260  0.6459 -0.6608
 1331ntf    fn410777   5.179   6.769   3.988 -0.1481 -0.8484 -0.2429
 1331ntf    fn410778   5.261   6.778   3.788  0.2750  0.0905 -0.2430
 1331ntf    on510779   5.155   6.480   3.748 -0.2695 -0.2738  0.1530
 1331ntf    on510780   5.345   6.543   3.883 -0.3492  0.0683 -0.1983
 1331ntf    on510781   4.876   6.535   3.929 -0.5483  0.0997  0.3737
 1331ntf    on510782   4.929   6.352   4.085 -0.7036  0.4711  0.2206
 1331ntf    fn410783   5.014   6.560   4.276  0.4090  0.5014  0.4405
 1331ntf    fn410784   4.819   6.602   4.219  0.4486  0.0854  0.1528
 1331ntf    fn410785   4.978   6.716   4.131 -0.0790 -0.2415 -0.2539
 1332ntf    cn110786   1.074   5.368   0.035  0.0555 -0.1713  0.3827
 1332ntf    sn210787   0.893   5.355   0.019  0.0934 -0.2583  0.0189
 1332ntf    nn310788   0.861   5.411   0.162 -0.0412 -0.1076 -0.0697
 1332ntf    sn210789   0.792   5.350   0.289  0.2676  0.2540  0.2760
 1332ntf    cn110790   0.627   5.425   0.285  0.0190 -0.3018  0.0291
 1332ntf    fn410791   1.129   5.297   0.132  0.5394 -0.4715 -0.1026
 1332ntf    fn410792   1.135   5.346  -0.080 -0.0145 -0.0198  0.3153
 1332ntf    fn410793   1.102   5.492   0.071 -0.1491 -0.2198  0.7101
 1332ntf    on510794   0.865   5.442  -0.093  0.0728  0.1522  0.3429
 1332ntf    on510795   0.874   5.214  -0.003 -0.4665 -0.2528  0.4597
 1332ntf    on510796   0.765   5.210   0.265 -0.0614  0.3871 -0.1444
 1332ntf    on510797   0.846   5.391   0.416 -0.0186  0.1595  0.4272
 1332ntf    fn410798   0.561   5.395   0.396  0.4001  0.2775  0.4128
 1332ntf    fn410799   0.551   5.395   0.181  0.0903  0.2671 -0.1895
 1332ntf    fn410800   0.645   5.556   0.279  0.2854 -0.3383  0.0097
 1333ntf    cn110801   1.849   5.646   0.984  0.0352 -0.1712  0.2574
 1333ntf    sn210802   2.022   5.593   0.965 -0.0669 -0.3656 -0.1464
 1333ntf    nn310803   2.103   5.682   1.066 -1.1660  0.5729 -0.0748
 1333ntf    sn210804   2.166   5.820   1.025  0.0285  0.0858  0.0975
 1333ntf    cn110805   2.334   5.770   0.975 -0.1092 -0.1801 -0.1063
 1333ntf    fn410806   1.808   5.624   1.107 -0.2465 -0.0278  0.1900
 1333ntf    fn410807   1.818   5.773   0.961 -0.0843 -0.3397 -0.5291
 1333ntf    fn410808   1.770   5.577   0.904 -0.2554  0.1147  0.2950
 1333ntf    on510809   2.021   5.456   1.010 -0.1896 -0.3800 -0.1925
 1333ntf    on510810   2.047   5.607   0.824 -0.4345  1.1183 -0.0815
 1333ntf    on510811   2.103   5.888   0.915 -0.9992 -0.7234  0.1763
 1333ntf    on510812   2.181   5.898   1.145  0.0840  0.2425 -0.0104
 1333ntf    fn410813   2.388   5.885   0.937  0.0275 -0.0404  0.4961
 1333ntf    fn410814   2.333   5.690   0.871 -0.6986 -0.3795  0.0490
 1333ntf    fn410815   2.409   5.712   1.067  0.0950 -0.0449 -0.1872
 1334ntf    cn110816   1.811   5.590   6.829 -0.2828  0.2332 -0.4134
 1334ntf    sn210817   1.784   5.740   6.928  0.1526  0.1766 -0.2056
 1334ntf    nn310818   1.719   5.681   7.058 -0.0255 -0.5073 -0.6002
 1334ntf    sn210819   1.564   5.665   7.078 -0.0031 -0.1709 -0.1297
 1334ntf    cn110820   1.524   5.814   7.174  0.2558 -0.0580 -0.1961
 1334ntf    fn410821   1.913   5.516   6.869 -0.5986 -0.3330 -0.6521
 1334ntf    fn410822   1.703   5.514   6.832 -0.0721 -0.0602 -0.1938
 1334ntf    fn410823   1.827   5.630   6.704  0.2175  0.3339 -0.3188
 1334ntf    on510824   1.919   5.788   6.949 -0.0730  0.7160  0.0319
 1334ntf    on510825   1.711   5.825   6.838  0.8572  0.4034 -0.5682
 1334ntf    on510826   1.480   5.691   6.963 -0.2018 -0.4095 -0.0400
 1334ntf    on510827   1.528   5.563   7.174 -0.3874  0.1844  0.1051
 1334ntf    fn410828   1.580   5.825   7.293 -0.0281  0.0120 -0.0688
 1334ntf    fn410829   1.397   5.835   7.202  0.2628  0.0827 -0.2719
 1334ntf    fn410830   1.563   5.923   7.110  0.0568 -0.0740 -0.3436
 1335ntf    cn110831   4.146   4.266   3.330  0.2734 -0.1500 -0.2735
 1335ntf    sn210832   3.999   4.181   3.264 -0.2719  0.2639  0.3965
 1335ntf    nn310833   3.910   4.203   3.391 -0.0730  0.6947  0.4646
 1335ntf    sn210834   3.848   4.107   3.499 -0.0581  0.0727 -0.0763
 1335ntf    cn110835   3.675   4.107   3.443  0.1987 -0.0496 -0.8803
 1335ntf    fn410836   4.118   4.388   3.370  0.4009 -0.2057 -0.0168
 1335ntf    fn410837   4.195   4.199   3.432  0.8682 -0.2468 -0.6169
 1335ntf    fn410838   4.245   4.273   3.242 -0.1672 -0.0697 -0.7665
 1335ntf    on510839   3.963   4.253   3.145  0.3764 -0.1074 -0.0327
 1335ntf    on510840   4.042   4.044   3.253 -0.1450  0.2880  0.5714
 1335ntf    on510841   3.895   3.970   3.496  0.1973  0.1721 -0.8704
 1335ntf    on510842   3.827   4.166   3.629 -0.0071  0.3195 -0.1811
 1335ntf    fn410843   3.601   4.014   3.501  0.3404  0.6150  0.4138
 1335ntf    fn410844   3.661   4.088   3.313 -0.3246  0.6749 -0.9367
 1335ntf    fn410845   3.613   4.222   3.464 -0.4251 -0.5506  0.1054
 1336ntf    cn110846   6.606   4.433   0.420  0.2935 -0.3924 -0.8871
 1336ntf    sn210847   6.710   4.578   0.458 -0.1710 -0.1877 -0.3712
 1336ntf    nn310848   6.632   4.637   0.580  0.7529 -0.4186  0.3395
 1336ntf    sn210849   6.641   4.620   0.736 -0.4457  0.2473  0.4985
 1336ntf    cn110850   6.714   4.774   0.798 -0.2590  0.2543  0.2640
 1336ntf    fn410851   6.530   4.403   0.524  0.8976  0.1988 -0.2611
 1336ntf    fn410852   6.511   4.455   0.330 -0.1746 -0.0256 -0.3190
 1336ntf    fn410853   6.667   4.322   0.382  0.2043 -0.5354 -0.6150
 1336ntf    on510854   6.841   4.522   0.480  0.0487  0.1422 -0.8108
 1336ntf    on510855   6.684   4.659   0.342 -0.3578  0.8880  0.4115
 1336ntf    on510856   6.515   4.618   0.805 -0.3605 -0.8829  0.6401
 1336ntf    on510857   6.731   4.513   0.771  0.0312  0.4728 -0.0300
 1336ntf    fn410858   6.845   4.781   0.784 -0.2702 -0.3015 -0.1135
 1336ntf    fn410859   6.689   4.781   0.928  0.1276 -0.5353  0.3844
 1336ntf    fn410860   6.664   4.888   0.755  0.3840  0.3797 -0.1626
 1337ntf    cn110861   0.495   1.228   1.140  0.3525 -0.2295  0.1962
 1337ntf    sn210862   0.380   1.088   1.122  0.2832 -0.1817  0.2646
 1337ntf    nn310863   0.376   1.074   0.966  0.3232 -0.5868  0.3006
 1337ntf    sn210864   0.326   0.948   0.886  0.0835  0.1460 -0.7150
 1337ntf    cn110865   0.479   0.868   0.830  0.2746  0.1049 -0.1401
 1337ntf    fn410866   0.623   1.197   1.154  0.3886 -0.0404  0.2862
 1337ntf    fn410867   0.483   1.293   1.026  0.3901 -0.1538  0.2357
 1337ntf    fn410868   0.466   1.315   1.236 -0.0274 -0.3351  0.1792
 1337ntf    on510869   0.443   0.977   1.188 -0.2976 -0.8243 -0.2533
 1337ntf    on510870   0.259   1.141   1.179 -0.4012 -0.7802 -0.6054
 1337ntf    on510871   0.255   0.843   0.955  0.9709  0.4142  0.6313
 1337ntf    on510872   0.270   0.991   0.760 -0.3059  0.1706 -0.5344
 1337ntf    fn410873   0.451   0.757   0.762  0.8086 -0.5063  0.6194
 1337ntf    fn410874   0.550   0.826   0.933 -0.4412  0.5086  0.5305
 1337ntf    fn410875   0.563   0.945   0.762 -0.2130  0.3445 -0.4738
 1338ntf    cn110876   1.719   0.725   2.482 -0.4042  0.2213  0.0702
 1338ntf    sn210877   1.705   0.569   2.390 -0.1208  0.2067  0.0513
 1338ntf    nn310878   1.613   0.595   2.265 -0.3996  0.2145  0.2557
 1338ntf    sn210879   1.498   0.517   2.194 -0.0631 -0.0646  0.0134
 1338ntf    cn110880   1.555   0.510   2.021 -0.0799  0.1858 -0.0019
 1338ntf    fn410881   1.788   0.819   2.419  0.1207 -0.6840 -0.7244
 1338ntf    fn410882   1.600   0.774   2.511 -0.0269  0.8081  0.6605
 1338ntf    fn410883   1.782   0.716   2.598 -0.0039 -0.7197 -0.2070
 1338ntf    on510884   1.842   0.541   2.354 -0.0444 -0.0474  0.5344
 1338ntf    on510885   1.658   0.471   2.485 -0.0972 -0.5379 -0.6903
 1338ntf    on510886   1.485   0.377   2.226 -0.2736 -0.0438  0.0191
 1338ntf    on510887   1.375   0.593   2.192  0.6019  1.0089 -0.8927
 1338ntf    fn410888   1.479   0.443   1.937 -0.1060  0.1945  0.0149
 1338ntf    fn410889   1.675   0.455   2.021  0.1317  0.6396 -0.6401
 1338ntf    fn410890   1.567   0.633   1.975  1.0518  0.2406  0.3946
 1339ntf    cn110891   3.721   4.775   0.465  0.4469 -0.3782  0.0426
 1339ntf    sn210892   3.689   4.925   0.368  0.2652 -0.3529  0.1410
 1339ntf    nn310893   3.533   4.927   0.385  0.2164 -0.0816 -0.3060
 1339ntf    sn210894   3.422   5.031   0.344  0.2261 -0.0490 -0.2493
 1339ntf    cn110895   3.412   5.125   0.500 -0.6342 -0.7814  0.1449
 1339ntf    fn410896   3.645   4.677   0.419 -0.0910 -0.2742  0.6845
 1339ntf    fn410897   3.848   4.743   0.450  0.3675 -0.5544 -0.2527
 1339ntf    fn410898   3.706   4.786   0.596  0.9704 -0.1018  0.0807
 1339ntf    on510899   3.761   5.034   0.429 -0.4959  0.3438 -0.1730
 1339ntf    on510900   3.731   4.893   0.234 -0.4635  0.3156 -0.2603
 1339ntf    on510901   3.455   5.130   0.245 -0.3326  0.9281  0.5175
 1339ntf    on510902   3.294   4.968   0.322  0.3920 -0.4467 -0.1015
 1339ntf    fn410903   3.335   5.230   0.475  0.2089 -0.1489  0.2036
 1339ntf    fn410904   3.525   5.181   0.538 -0.4257 -0.2192 -1.2396
 1339ntf    fn410905   3.369   5.062   0.608 -0.5956 -0.6264  0.2508
 1340ntf    cn110906   4.726   5.420   5.696 -0.2251 -0.0356 -0.2029
 1340ntf    sn210907   4.583   5.346   5.612 -0.4687 -0.2731  0.4152
 1340ntf    nn310908   4.585   5.198   5.665 -0.0401 -0.3204  0.2692
 1340ntf    sn210909   4.478   5.115   5.745 -0.0524 -0.1071  0.4770
 1340ntf    cn110910   4.500   4.957   5.656  0.3090  0.3454 -0.2534
 1340ntf    fn410911   4.715   5.401   5.827  0.1778 -0.1931 -0.1884
 1340ntf    fn410912   4.844   5.364   5.672 -0.1962 -0.1266  0.1497
 1340ntf    fn410913   4.739   5.549   5.672 -0.9731  0.1209  0.2166
 1340ntf    on510914   4.470   5.422   5.662 -0.7809 -0.0489 -0.6187
 1340ntf    on510915   4.616   5.348   5.472  0.1122 -0.4353  0.5485
 1340ntf    on510916   4.504   5.086   5.884 -0.1701  0.2296  0.5694
 1340ntf    on510917   4.344   5.157   5.712  0.1045  0.0342  0.0104
 1340ntf    fn410918   4.427   4.862   5.713  0.7735  0.2573  0.2036
 1340ntf    fn410919   4.624   4.911   5.663  0.3886  0.6703  0.5888
 1340ntf    fn410920   4.468   4.953   5.528 -0.1780  0.5224 -0.1422
 1341ntf    cn110921   1.253   3.938   4.844  0.1951 -0.1252  0.5147
 1341ntf    sn210922   1.106   4.037   4.802  0.0899 -0.6936 -0.4800
 1341ntf    nn310923   1.086   4.098   4.945 -0.9520  0.0915 -0.9528
 1341ntf    sn210924   0.986   4.067   5.062 -0.4050  0.1323 -0.4717
 1341ntf    cn110925   1.104   4.030   5.195 -0.4546  0.3441 -0.3688
 1341ntf    fn410926   1.298   3.860   4.747 -0.1722  0.0136  0.2294
 1341ntf    fn410927   1.348   4.021   4.884  0.7725 -0.5435  0.0308
 1341ntf    fn410928   1.231   3.850   4.940 -0.6578  0.3044  0.7254
 1341ntf    on510929   1.168   4.125   4.706 -0.9417  0.0116 -0.5204
 1341ntf    on510930   1.004   3.941   4.768 -0.9311  0.1091  0.2579
 1341ntf    on510931   0.925   4.186   5.115  0.1075  0.1217  0.1551
 1341ntf    on510932   0.907   3.946   5.055 -0.4366  0.1405 -0.2676
 1341ntf    fn410933   1.172   3.917   5.184  0.3200  0.7482  0.1835
 1341ntf    fn410934   1.037   4.015   5.309  0.2494  0.6413  0.0851
 1341ntf    fn410935   1.188   4.129   5.219  0.0701 -0.1454 -0.1705
 1342ntf    cn110936   5.364   3.890   0.559  0.2246  0.1577  0.4257
 1342ntf    sn210937   5.459   3.742   0.604  0.2487 -0.0311 -0.2499
 1342ntf    nn310938   5.583   3.760   0.509  0.5331 -0.0857  0.1132
 1342ntf    sn210939   5.705   3.856   0.531  0.2174  0.3070  0.1650
 1342ntf    cn110940   5.664   3.987   0.412 -0.1287 -0.3601 -0.4543
 1342ntf    fn410941   5.370   3.921   0.431 -0.8768  0.4167  0.4229
 1342ntf    fn410942   5.234   3.874   0.583  0.0645 -1.1717 -1.1522
 1342ntf    fn410943   5.417   3.990   0.627 -0.2085  0.4875  0.2842
 1342ntf    on510944   5.475   3.749   0.747  0.8170  0.3161 -0.3282
 1342ntf    on510945   5.371   3.641   0.548  0.0254  0.3923 -0.6766
 1342ntf    on510946   5.706   3.929   0.656  0.5927  0.6960 -0.0609
 1342ntf    on510947   5.831   3.802   0.486  0.3790  0.8584 -0.0468
 1342ntf    fn410948   5.548   4.048   0.428 -0.1312 -0.4916  0.0479
 1342ntf    fn410949   5.669   3.928   0.294 -0.2533 -0.7452 -0.2691
 1342ntf    fn410950   5.745   4.092   0.403 -0.6012  0.0483 -0.0010
 1343ntf    cn110951   4.959   5.658   3.201  0.2203  0.0510  0.0602
 1343ntf    sn210952   5.063   5.510   3.221  0.0248 -0.0891  0.0350
 1343ntf    nn310953   5.179   5.579   3.301 -0.1018  0.3010 -0.1172
 1343ntf    sn210954   5.324   5.520   3.305 -0.2592 -0.1115 -0.4585
 1343ntf    cn110955   5.420   5.650   3.223  0.3045 -0.0730  0.2506
 1343ntf    fn410956   4.848   5.647   3.130 -0.0106  0.8550  0.2880
 1343ntf    fn410957   4.915   5.691   3.321 -0.0521  0.6388 -0.1964
 1343ntf    fn410958   5.029   5.761   3.158  0.7871 -0.2907  0.1529
 1343ntf    on510959   4.980   5.422   3.300 -0.1137  0.4778  0.5330
 1343ntf    on510960   5.103   5.481   3.086  0.1236  0.1736  0.0062
 1343ntf    on510961   5.382   5.524   3.437 -0.4335  0.1798 -0.3908
 1343ntf    on510962   5.371   5.412   3.222  0.1856 -0.3779  0.1327
 1343ntf    fn410963   5.364   5.675   3.106 -0.5683  0.0238  0.6857
 1343ntf    fn410964   5.548   5.624   3.198  0.1144 -1.0758  0.2869
 1343ntf    fn410965   5.407   5.766   3.286  0.2171  0.1220 -0.1210
 1344ntf    cn110966   4.688   3.401   5.920  0.1707  0.4110 -0.2163
 1344ntf    sn210967   4.790   3.326   6.050 -0.2532 -0.0491 -0.1444
 1344ntf    nn310968   4.670   3.281   6.140 -0.6116  0.1384 -0.5254
 1344ntf    sn210969   4.603   3.142   6.167  0.3014 -0.1789  0.1702
 1344ntf    cn110970   4.551   3.178   6.338 -0.0960 -0.1074  0.0350
 1344ntf    fn410971   4.686   3.531   5.945  0.4705  0.3702  0.0180
 1344ntf    fn410972   4.740   3.377   5.801  0.7760 -0.0447  0.1352
 1344ntf    fn410973   4.560   3.366   5.927  0.1954  0.4239  0.3804
 1344ntf    on510974   4.861   3.218   5.985  0.0286  0.1205 -0.1186
 1344ntf    on510975   4.868   3.431   6.109 -0.3687 -0.3286  0.5142
 1344ntf    on510976   4.481   3.127   6.092 -0.2287  0.6329  0.8393
 1344ntf    on510977   4.700   3.036   6.168 -0.4894 -0.9243 -0.6656
 1344ntf    fn410978   4.469   3.088   6.389 -0.0649  0.0225  0.3141
 1344ntf    fn410979   4.490   3.294   6.358  0.1478 -0.1041  0.7621
 1344ntf    fn410980   4.664   3.172   6.405 -0.0076 -0.0627 -0.1086
 1345ntf    cn110981   4.037   6.685   6.449 -0.2130  0.5427 -0.3067
 1345ntf    sn210982   3.927   6.563   6.371  0.0942  0.0092  0.0896
 1345ntf    nn310983   3.803   6.660   6.373 -0.2746 -0.4364 -0.5485
 1345ntf    sn210984   3.664   6.635   6.440 -0.0166  0.0586  0.1878
 1345ntf    cn110985   3.546   6.670   6.306  0.2059  0.2659  0.0442
 1345ntf    fn410986   4.045   6.805   6.394  0.2604  0.6331 -0.0428
 1345ntf    fn410987   4.002   6.708   6.574 -0.4068 -0.2116 -0.2181
 1345ntf    fn410988   4.157   6.631   6.460 -0.4904 -0.1157 -0.4655
 1345ntf    on510989   3.985   6.542   6.241 -0.3419  0.1860 -0.1359
 1345ntf    on510990   3.926   6.455   6.467  0.1328 -0.1546 -0.0946
 1345ntf    on510991   3.632   6.504   6.493  0.1432 -0.6284 -1.3618
 1345ntf    on510992   3.639   6.742   6.534 -0.9529 -0.1397  0.1759
 1345ntf    fn410993   3.562   6.605   6.192  0.0797  0.0417  0.1527
 1345ntf    fn410994   3.533   6.799   6.283  1.0243  0.3259 -0.0863
 1345ntf    fn410995   3.424   6.635   6.345  0.0912  0.0371 -0.5153
 1346ntf    cn110996   2.661   4.047   0.883 -0.0684  0.0928 -0.4282
 1346ntf    sn210997   2.563   3.947   0.998  0.1952  0.0577 -0.2333
 1346ntf    nn310998   2.685   3.866   1.056 -0.2579 -0.0905  0.5393
 1346ntf    sn210999   2.729   3.720   1.022  0.2509  0.2053 -0.0990
 1346ntf    cn111000   2.635   3.630   1.148 -0.3725 -0.0417 -0.7301
 1346ntf    fn411001   2.602   4.151   0.826  0.0923  0.5558  0.2468
 1346ntf    fn411002   2.762   4.102   0.949 -0.1591 -0.4001  0.1251
 1346ntf    fn411003   2.714   3.970   0.789 -0.0950 -0.3569 -0.0788
 1346ntf    on511004   2.523   4.056   1.084 -0.8047  0.2753 -0.9509
 1346ntf    on511005   2.469   3.876   0.915 -0.2867 -0.5224  0.7866
 1346ntf    on511006   2.692   3.676   0.889 -0.1859  0.2626  0.0017
 1346ntf    on511007   2.868   3.697   1.054 -0.0345 -0.1967  0.8756
 1346ntf    fn411008   2.655   3.499   1.157  0.1624  0.0710 -0.2236
 1346ntf    fn411009   2.504   3.636   1.126 -0.6874  0.1658  1.0157
 1346ntf    fn411010   2.663   3.678   1.268 -0.5154 -0.1645 -0.6462
 1347ntf    cn111011   6.436   2.198   3.963 -0.0458  0.1260 -0.2181
 1347ntf    sn211012   6.518   2.282   4.102 -0.0593  0.0378 -0.1563
 1347ntf    nn311013   6.485   2.190   4.225  0.3366  0.0198 -0.0634
 1347ntf    sn211014   6.483   2.230   4.376  0.0972  0.1814 -0.1094
 1347ntf    cn111015   6.555   2.082   4.454  0.4919  0.2751 -0.2932
 1347ntf    fn411016   6.476   2.073   3.947  0.1260  0.1928 -0.3087
 1347ntf    fn411017   6.304   2.200   3.976 -0.0548  0.3201 -0.3463
 1347ntf    fn411018   6.470   2.257   3.850 -0.1542 -0.8495 -0.7708
 1347ntf    on511019   6.653   2.278   4.051  0.0848 -0.1916  0.2421
 1347ntf    on511020   6.447   2.407   4.093 -0.4894 -0.1378  0.6987
 1347ntf    on511021   6.578   2.333   4.410  0.6389 -0.5989  0.8190
 1347ntf    on511022   6.350   2.226   4.432  0.2173 -0.6821  0.1388
 1347ntf    fn411023   6.686   2.081   4.472  0.4089  0.3084  0.3480
 1347ntf    fn411024   6.521   1.964   4.404  0.3680  0.1644  0.0483
 1347ntf    fn411025   6.520   2.085   4.582  0.1133 -0.0814 -0.3842
 1348ntf    cn111026   6.471   4.344   2.757  0.4332  0.1947 -0.2408
 1348ntf    sn211027   6.455   4.188   2.849 -0.4011  0.2999 -0.2002
 1348ntf    nn311028   6.344   4.221   2.955  0.1291 -0.5222  0.6227
 1348ntf    sn211029   6.221   4.150   3.021 -0.2353 -0.0733  0.4275
 1348ntf    cn111030   6.166   4.282   3.134  0.1299  0.0781  0.4310
 1348ntf    fn411031   6.504   4.448   2.832  0.0129  0.2100 -0.0790
 1348ntf    fn411032   6.560   4.348   2.659  0.2146 -0.2026 -0.4561
 1348ntf    fn411033   6.354   4.381   2.708  0.5358  1.0023  0.1026
 1348ntf    on511034   6.429   4.083   2.754  0.7901  0.3168 -0.5674
 1348ntf    on511035   6.592   4.182   2.894 -0.5206 -0.5146  0.0671
 1348ntf    on511036   6.112   4.133   2.927  0.0181 -0.1484  0.1473
 1348ntf    on511037   6.247   4.042   3.112 -0.7356  0.2765  0.9940
 1348ntf    fn411038   6.124   4.236   3.251 -0.1052 -0.2265  0.2313
 1348ntf    fn411039   6.076   4.359   3.075  0.0277 -0.2659  0.1286
 1348ntf    fn411040   6.269   4.361   3.155  0.0551  0.2827  0.0268
 1349ntf    cn111041   3.373   5.209   4.305  0.2258  0.2515  0.1725
 1349ntf    sn211042   3.370   5.350   4.420  0.0337  0.4447 -0.0694
 1349ntf    nn311043   3.337   5.280   4.556  0.1042  0.6687  0.0641
 1349ntf    sn211044   3.236   5.324   4.668 -0.0435 -0.2253  0.2916
 1349ntf    cn111045   3.268   5.502   4.687  0.1070 -0.1464 -0.6671
 1349ntf    fn411046   3.377   5.242   4.177 -0.4253  0.4133  0.1880
 1349ntf    fn411047   3.476   5.129   4.324  0.3454  0.3903  0.1070
 1349ntf    fn411048   3.260   5.143   4.324  0.0894  0.6970  0.9518
 1349ntf    on511049   3.502   5.405   4.409 -0.1055  0.7570 -0.2096
 1349ntf    on511050   3.261   5.431   4.370 -0.2935 -0.2346 -0.4743
 1349ntf    on511051   3.099   5.297   4.633 -0.1581  0.5069  0.1631
 1349ntf    on511052   3.283   5.268   4.793 -0.0337 -0.0755  0.3551
 1349ntf    fn411053   3.219   5.531   4.806 -0.0247 -0.3040 -0.6811
 1349ntf    fn411054   3.197   5.573   4.601 -0.1454 -0.0729 -0.4002
 1349ntf    fn411055   3.394   5.540   4.675 -0.1713  1.1506  0.2829
 1350ntf    cn111056   0.366   3.757   5.134  0.4881  0.2133 -0.0434
 1350ntf    sn211057   0.274   3.730   5.289  0.1988 -0.3380 -0.3081
 1350ntf    nn311058   0.261   3.575   5.305 -0.3526 -0.2919 -0.2747
 1350ntf    sn211059   0.215   3.507   5.439 -0.4694  0.0306 -0.1506
 1350ntf    cn111060   0.376   3.482   5.520 -0.3818 -0.1416 -0.3782
 1350ntf    fn411061   0.286   3.773   5.029  0.1742 -0.6038  0.0585
 1350ntf    fn411062   0.458   3.851   5.136  0.4222  0.2741  0.1831
 1350ntf    fn411063   0.432   3.645   5.110  0.7119  0.2931  0.1959
 1350ntf    on511064   0.363   3.794   5.382 -0.4462  0.1886 -0.0411
 1350ntf    on511065   0.150   3.802   5.268  0.5457  0.4163  0.2117
 1350ntf    on511066   0.145   3.588   5.536 -0.3105  0.1159 -0.1081
 1350ntf    on511067   0.175   3.368   5.432 -0.3429  0.0042 -0.3365
 1350ntf    fn411068   0.474   3.425   5.451  0.0442 -0.1703  0.2478
 1350ntf    fn411069   0.376   3.408   5.630 -0.0786  0.1064 -0.2127
 1350ntf    fn411070   0.433   3.597   5.549 -0.2602 -0.1800 -0.4604
 1351ntf    cn111071   5.135   1.168   2.828 -0.1875  0.1457  0.0994
 1351ntf    sn211072   5.003   1.134   2.707  0.1739  0.0366 -0.2656
 1351ntf    nn311073   4.881   1.147   2.804 -0.1917 -0.3673 -0.6654
 1351ntf    sn211074   4.786   1.064   2.898  0.1196 -0.1719 -0.1724
 1351ntf    cn111075   4.663   1.018   2.772  0.0663  0.2309 -0.2688
 1351ntf    fn411076   5.152   1.299   2.839 -0.0483  0.1761 -0.4473
 1351ntf    fn411077   5.113   1.120   2.949 -0.4377  0.6888  0.2744
 1351ntf    fn411078   5.248   1.119   2.780  0.1213  0.6953  0.2571
 1351ntf    on511079   5.012   1.254   2.627  0.9576  0.3993  0.3514
 1351ntf    on511080   5.021   1.002   2.651  0.4537  0.2913 -0.7856
 1351ntf    on511081   4.830   0.936   2.948  0.4236 -0.1379 -0.3479
 1351ntf    on511082   4.710   1.152   2.982  0.6026  0.1512 -0.0697
 1351ntf    fn411083   4.548   0.986   2.830  0.1498  0.9108  0.2835
 1351ntf    fn411084   4.692   0.915   2.694 -0.5999 -0.0947 -0.0981
 1351ntf    fn411085   4.631   1.114   2.688 -0.0225  0.5162  0.0889
 1352ntf    cn111086   5.849   6.810   6.552 -0.2813 -0.2866 -0.2523
 1352ntf    sn211087   5.682   6.881   6.563 -0.1208  0.0158  0.2883
 1352ntf    nn311088   5.609   6.744   6.537  0.5966 -0.2979 -0.1183
 1352ntf    sn211089   5.469   6.707   6.597  0.4349 -0.0636 -0.3448
 1352ntf    cn111090   5.507   6.579   6.720  0.5512  0.5343  0.2487
 1352ntf    fn411091   5.869   6.729   6.450 -0.0662 -0.3998 -0.1232
 1352ntf    fn411092   5.937   6.909   6.547 -0.8285  0.2151  0.0321
 1352ntf    fn411093   5.866   6.738   6.662 -0.2995  0.6462  0.3773
 1352ntf    on511094   5.689   6.947   6.691  1.1179 -0.1239  0.3078
 1352ntf    on511095   5.681   6.967   6.448  0.5772 -0.0489  0.2297
 1352ntf    on511096   5.396   6.808   6.669  0.8284 -0.0501  0.0361
 1352ntf    on511097   5.385   6.637   6.503  0.3426 -0.1104 -0.2278
 1352ntf    fn411098   5.597   6.614   6.810  0.3530  0.3551  0.5196
 1352ntf    fn411099   5.534   6.457   6.675  0.3802  0.4390  0.4005
 1352ntf    fn411100   5.398   6.561   6.792  0.4997 -0.5237 -0.0690
 1353ntf    cn111101   2.850   2.568   4.390 -0.0738  0.2479 -0.5128
 1353ntf    sn211102   2.804   2.393   4.379 -0.0353  0.1842  0.2870
 1353ntf    nn311103   2.866   2.347   4.516 -0.0601  0.4421  0.3848
 1353ntf    sn211104   2.794   2.259   4.624 -0.1104 -0.1535 -0.1273
 1353ntf    cn111105   2.706   2.382   4.726 -0.1192 -0.1288 -0.1645
 1353ntf    fn411106   2.982   2.575   4.397 -0.0987  0.3379 -0.0399
 1353ntf    fn411107   2.795   2.642   4.295  0.1340  0.9250 -0.1132
 1353ntf    fn411108   2.808   2.620   4.505 -0.8668  0.3948 -0.8567
 1353ntf    on511109   2.661   2.398   4.359 -0.0728 -0.5573  0.3223
 1353ntf    on511110   2.882   2.346   4.267  0.2715 -0.3085  0.6998
 1353ntf    on511111   2.698   2.172   4.562 -0.2037 -0.2846  0.1969
 1353ntf    on511112   2.889   2.198   4.714 -0.0139  0.4274  0.1715
 1353ntf    fn411113   2.606   2.335   4.798 -0.0998  0.1248  0.0306
 1353ntf    fn411114   2.663   2.488   4.659  0.0356 -0.2611 -0.4728
 1353ntf    fn411115   2.795   2.419   4.817 -0.3881 -0.0125  0.0504
 1354ntf    cn111116   2.481   4.000   5.812 -0.1320 -0.0675 -0.3195
 1354ntf    sn211117   2.352   4.122   5.852  0.2567  0.2437 -0.0149
 1354ntf    nn311118   2.275   4.046   5.966  0.5650 -0.3020 -0.1686
 1354ntf    sn211119   2.325   4.036   6.115  0.0406  0.2923  0.0493
 1354ntf    cn111120   2.210   4.151   6.196 -0.0608  0.2325 -0.0091
 1354ntf    fn411121   2.557   4.020   5.705  0.2748 -0.0723 -0.0344
 1354ntf    fn411122   2.573   3.996   5.907 -0.1152 -0.1253 -0.3378
 1354ntf    fn411123   2.438   3.875   5.809 -1.0056  0.2277 -0.3210
 1354ntf    on511124   2.407   4.250   5.891  0.3464  0.0521  0.5026
 1354ntf    on511125   2.279   4.124   5.728  0.2073 -0.8042 -0.0092
 1354ntf    on511126   2.296   3.905   6.168  0.0206  0.5062  0.5652
 1354ntf    on511127   2.458   4.081   6.146 -0.1048 -0.0006  1.1269
 1354ntf    fn411128   2.088   4.110   6.228 -0.1987  0.4374 -0.2741
 1354ntf    fn411129   2.197   4.260   6.122 -0.1517 -0.1502 -0.5596
 1354ntf    fn411130   2.250   4.199   6.313  0.1538 -0.5406  0.2467
 1355ntf    cn111131   1.681   1.994   6.549 -0.0044  0.0359 -0.1997
 1355ntf    sn211132   1.788   1.924   6.677 -0.0815  0.3217  0.0231
 1355ntf    nn311133   1.780   1.770   6.645  0.1082  0.4119 -0.4529
 1355ntf    sn211134   1.719   1.653   6.730  0.1729  0.8675  0.2292
 1355ntf    cn111135   1.815   1.514   6.661 -0.1482  0.8964 -0.2851
 1355ntf    fn411136   1.556   1.951   6.545  0.1432 -0.4202  0.0303
 1355ntf    fn411137   1.674   2.126   6.551 -0.0678  0.0349 -0.3560
 1355ntf    fn411138   1.723   1.962   6.428 -0.5211  0.3783 -0.4756
 1355ntf    on511139   1.912   1.993   6.652  0.0531  0.0593 -0.0419
 1355ntf    on511140   1.718   1.968   6.795  0.1535 -0.5260  0.4980
 1355ntf    on511141   1.746   1.650   6.871  0.4943 -0.2854  0.1559
 1355ntf    on511142   1.586   1.620   6.687  0.5476 -0.4040 -0.0033
 1355ntf    fn411143   1.772   1.456   6.551 -0.3840  0.6724 -0.0760
 1355ntf    fn411144   1.822   1.425   6.759  0.3901  1.0802 -0.1525
 1355ntf    fn411145   1.943   1.541   6.641  0.0656  0.1107 -0.0208
 1356ntf    cn111146   3.271   0.677   4.305  0.0877  0.0492  0.1869
 1356ntf    sn211147   3.391   0.625   4.431  0.1603 -0.1056  0.0543
 1356ntf    nn311148   3.300   0.591   4.555  0.4135 -0.2265  0.2074
 1356ntf    sn211149   3.221   0.456   4.570  0.0329 -0.0476 -0.1615
 1356ntf    cn111150   3.353   0.369   4.660 -0.1163  0.2151  0.3196
 1356ntf    fn411151   3.334   0.725   4.198  0.2200 -0.3715  0.0758
 1356ntf    fn411152   3.196   0.579   4.258  0.4365  0.2453 -0.8125
 1356ntf    fn411153   3.183   0.768   4.342 -0.2136  0.1903 -0.8338
 1356ntf    on511154   3.469   0.516   4.379  0.0071 -0.3397  0.3094
 1356ntf    on511155   3.469   0.744   4.456 -0.1588  0.1378 -0.1000
 1356ntf    on511156   3.109   0.461   4.661  0.1865  0.5465  0.0031
 1356ntf    on511157   3.208   0.372   4.454 -0.4994 -0.1464 -0.0306
 1356ntf    fn411158   3.414   0.422   4.765 -0.1180 -0.4306  0.6482
 1356ntf    fn411159   3.452   0.339   4.577 -0.5396  0.6017 -0.3379
 1356ntf    fn411160   3.323   0.254   4.717  0.4210  0.0128  0.2068
 1357ntf    cn111161   2.168   0.229   6.216 -0.0143 -0.4898  0.3685
 1357ntf    sn211162   2.348   0.205   6.208  0.0417  0.1143 -0.2571
 1357ntf    nn311163   2.407   0.347   6.237 -0.4225  0.2883 -0.1537
 1357ntf    sn211164   2.442   0.470   6.145  0.4224  0.3535  0.2477
 1357ntf    cn111165   2.360   0.603   6.237  0.1085 -0.0071  0.4910
 1357ntf    fn411166   2.145   0.292   6.330  0.4803  0.0572  0.1714
 1357ntf    fn411167   2.121   0.320   6.131 -0.2828 -0.5579  0.4417
 1357ntf    fn411168   2.097   0.118   6.204 -0.4998 -0.1665  0.1967
 1357ntf    on511169   2.385   0.134   6.327 -1.0549  0.5711  0.3683
 1357ntf    on511170   2.374   0.154   6.075 -0.2784 -0.1837 -0.2073
 1357ntf    on511171   2.576   0.523   6.151  0.5842  0.0144 -0.3119
 1357ntf    on511172   2.387   0.463   6.012 -0.3060  0.5421  0.5355
 1357ntf    fn411173   2.409   0.606   6.360  0.0745 -0.4523  0.5168
 1357ntf    fn411174   2.229   0.580   6.242  0.1786 -0.5931 -0.1555
 1357ntf    fn411175   2.378   0.719   6.176 -0.0861 -0.1927  0.0776
 1358ntf    cn111176   1.137   6.465   2.364 -0.0239  0.2844 -0.9020
 1358ntf    sn211177   1.162   6.601   2.483  0.2000  0.0548 -0.6858
 1358ntf    nn311178   1.275   6.687   2.415 -0.0589  1.0590  0.1317
 1358ntf    sn211179   1.419   6.718   2.468  0.2147  0.3426 -0.1808
 1358ntf    cn111180   1.406   6.874   2.560 -0.0965  0.1451  0.1118
 1358ntf    fn411181   1.250   6.400   2.344 -0.3848 -0.5716 -0.2040
 1358ntf    fn411182   1.046   6.381   2.410  0.5114  0.1272 -0.1041
 1358ntf    fn411183   1.092   6.516   2.251  0.0190  0.3328 -0.8973
 1358ntf    on511184   1.037   6.673   2.487  0.3064  0.2066  0.0640
 1358ntf    on511185   1.193   6.513   2.594 -0.3942 -0.6389 -1.0592
 1358ntf    on511186   1.485   6.616   2.546  0.9550  0.9675  0.0245
 1358ntf    on511187   1.491   6.752   2.347 -0.0853  0.4446 -0.3322
 1358ntf    fn411188   1.516   6.917   2.619  0.0295  0.2062 -0.1663
 1358ntf    fn411189   1.315   6.854   2.654  0.0691  0.4989  0.3494
 1358ntf    fn411190   1.370   6.973   2.479 -0.4589 -0.3349 -0.3230
 1359ntf    cn111191   3.932   3.454   2.650  0.2558 -0.0400 -0.0294
 1359ntf    sn211192   3.805   3.540   2.553  0.3832  0.0019 -0.1594
 1359ntf    nn311193   3.788   3.653   2.660 -1.4312 -0.5306  0.1539
 1359ntf    sn211194   3.718   3.793   2.654 -0.0982  0.1369 -0.1843
 1359ntf    cn111195   3.579   3.780   2.539 -0.3359 -0.4263  0.1639
 1359ntf    fn411196   3.884   3.409   2.765 -0.1412  0.1466 -0.1223
 1359ntf    fn411197   3.976   3.342   2.595  0.0689 -0.0594 -0.1390
 1359ntf    fn411198   4.035   3.535   2.670 -0.0916  0.2592  0.5607
 1359ntf    on511199   3.876   3.580   2.434  0.0531  0.5971 -0.1580
 1359ntf    on511200   3.693   3.449   2.546  0.3352  0.1206 -1.0483
 1359ntf    on511201   3.653   3.810   2.782 -0.3394  0.1480 -0.3082
 1359ntf    on511202   3.799   3.899   2.599 -0.1279 -0.0230 -0.5407
 1359ntf    fn411203   3.606   3.711   2.429 -0.1028 -0.2248  0.0955
 1359ntf    fn411204   3.535   3.896   2.494  0.3037 -0.0396  0.5286
 1359ntf    fn411205   3.476   3.719   2.596 -0.2764  0.3048  1.0698
 1360ntf    cn111206   1.979   6.567   1.423 -0.5364 -0.3142  0.2544
 1360ntf    sn211207   1.823   6.592   1.334 -0.4286 -0.5742 -0.0062
 1360ntf    nn311208   1.827   6.748   1.319 -0.2495 -0.5303  0.4909
 1360ntf    sn211209   1.804   6.866   1.419 -0.2902  0.2480 -0.4231
 1360ntf    cn111210   1.933   6.980   1.359  0.1966 -0.0293  0.0869
 1360ntf    fn411211   2.077   6.527   1.344 -0.0203  0.6174  0.4046
 1360ntf    fn411212   2.017   6.677   1.486 -0.2824 -0.2440 -0.0233
 1360ntf    fn411213   1.965   6.469   1.511  0.2550 -0.6639 -0.0081
 1360ntf    on511214   1.850   6.519   1.212  0.4857 -0.6505  0.2394
 1360ntf    on511215   1.723   6.537   1.423 -0.4767  0.6917  0.7320
 1360ntf    on511216   1.687   6.948   1.398 -0.1114  0.4529 -0.6237
 1360ntf    on511217   1.838   6.834   1.556 -0.3947  0.2250 -0.4031
 1360ntf    fn411218   1.919   7.025   1.236  0.6073 -0.4646 -0.1235
 1360ntf    fn411219   2.048   6.915   1.365  0.0745 -0.2626 -0.0885
 1360ntf    fn411220   1.941   7.090   1.432  0.5866  0.2494 -0.3735
 1361ntf    cn111221   5.291   1.768   3.712 -0.1973  0.0390 -0.2154
 1361ntf    sn211222   5.124   1.742   3.777  0.0031 -0.1319  0.2344
 1361ntf    nn311223   5.114   1.586   3.781  0.0842 -0.1442 -0.0286
 1361ntf    sn211224   5.000   1.506   3.708  0.1895 -0.0957 -0.2463
 1361ntf    cn111225   5.003   1.352   3.805 -0.2097  0.1044  0.0919
 1361ntf    fn411226   5.322   1.696   3.605 -0.2618 -0.1263 -0.1233
 1361ntf    fn411227   5.312   1.897   3.691 -0.1937  0.0250 -0.2973
 1361ntf    fn411228   5.380   1.728   3.802  0.0042  0.5365 -0.1939
 1361ntf    on511229   5.133   1.801   3.909  0.1456 -0.3911  0.3425
 1361ntf    on511230   5.042   1.809   3.680 -0.2468 -0.3764  0.2740
 1361ntf    on511231   4.866   1.553   3.731  0.0062 -0.1831 -1.1036
 1361ntf    on511232   5.042   1.469   3.575 -0.4790 -0.3447 -0.3910
 1361ntf    fn411233   4.905   1.269   3.773  0.3449 -0.7125  0.4691
 1361ntf    fn411234   5.016   1.369   3.935 -0.4219 -0.0618  0.1344
 1361ntf    fn411235   5.108   1.278   3.772 -0.3253  0.1704 -0.4302
 1362ntf    cn111236   6.500   6.329   0.413 -0.0034  0.6363  0.1029
 1362ntf    sn211237   6.609   6.348   0.557  0.0137 -0.5663  0.2633
 1362ntf    nn311238   6.651   6.197   0.555  0.3666 -0.4639 -0.0136
 1362ntf    sn211239   6.728   6.119   0.667 -0.0261 -0.3353  0.3454
 1362ntf    cn111240   6.598   6.009   0.732 -0.1270 -0.2844  0.2288
 1362ntf    fn411241   6.393   6.253   0.424  0.2909  0.1612 -0.2503
 1362ntf    fn411242   6.456   6.447   0.371 -0.2125  0.6207  0.2790
 1362ntf    fn411243   6.565   6.289   0.304 -0.7949 -0.3881 -0.0074
 1362ntf    on511244   6.702   6.446   0.507  0.1983 -0.4655  0.7959
 1362ntf    on511245   6.525   6.407   0.659 -0.2246 -0.3646 -0.0483
 1362ntf    on511246   6.820   6.020   0.617  0.0835 -0.2191  0.3163
 1362ntf    on511247   6.769   6.204   0.776  0.1460 -0.2465  0.2118
 1362ntf    fn411248   6.647   5.927   0.823 -0.3877 -0.2878  0.3647
 1362ntf    fn411249   6.547   5.941   0.630  0.2007  0.0969 -0.1979
 1362ntf    fn411250   6.496   6.075   0.784 -0.1452 -0.0551 -0.0932
 1363ntf    cn111251   0.972   2.028   1.461 -0.2307  0.2247 -0.1265
 1363ntf    sn211252   1.020   1.946   1.616 -0.0758  0.2198 -0.1771
 1363ntf    nn311253   1.101   1.820   1.568  0.0346  0.1493  0.1877
 1363ntf    sn211254   1.057   1.669   1.576  0.3374  0.0430 -0.1188
 1363ntf    cn111255   1.156   1.611   1.717  0.2031  0.1579  0.0242
 1363ntf    fn411256   0.893   2.132   1.484 -0.1149  0.2523  0.1523
 1363ntf    fn411257   1.083   2.079   1.411 -0.2500  0.2252 -0.1687
 1363ntf    fn411258   0.922   1.940   1.376 -0.4320 -0.1882  0.4141
 1363ntf    on511259   1.117   2.042   1.663 -0.2458  0.2693  0.0709
 1363ntf    on511260   0.899   1.943   1.694 -0.2576  0.1458 -0.4599
 1363ntf    on511261   0.922   1.660   1.626  0.4100  0.1437  0.0989
 1363ntf    on511262   1.096   1.588   1.463  0.3204  0.5759 -0.5109
 1363ntf    fn411263   1.123   1.491   1.760  0.6497 -0.0214 -0.1227
 1363ntf    fn411264   1.151   1.705   1.810 -0.0624 -0.5395  0.7209
 1363ntf    fn411265   1.283   1.598   1.680  0.2945  0.1260  0.3465
 1364ntf    cn111266   4.637   4.245   4.320  0.6649 -0.0145  0.1234
 1364ntf    sn211267   4.551   4.343   4.446 -0.2015 -0.0069 -0.4650
 1364ntf    nn311268   4.496   4.237   4.548 -0.6190  0.7720  0.1406
 1364ntf    sn211269   4.558   4.202   4.688  0.1553 -0.0868 -0.4023
 1364ntf    cn111270   4.424   4.121   4.781 -0.1462  0.6106 -0.2262
 1364ntf    fn411271   4.674   4.322   4.218 -0.2823  0.3422  0.0378
 1364ntf    fn411272   4.744   4.177   4.358  0.1220 -0.9756 -0.0472
 1364ntf    fn411273   4.568   4.145   4.268  0.4327  0.0426  0.3203
 1364ntf    on511274   4.652   4.433   4.495  0.4061 -0.6415 -0.5412
 1364ntf    on511275   4.444   4.402   4.369  0.2245  0.4831 -0.6846
 1364ntf    on511276   4.654   4.095   4.677 -0.0967 -0.3337 -0.2310
 1364ntf    on511277   4.589   4.308   4.780 -0.0803 -0.3871  0.0284
 1364ntf    fn411278   4.325   4.199   4.822 -0.4093 -0.2681  0.8736
 1364ntf    fn411279   4.477   4.074   4.893 -0.4139  0.2386 -0.2543
 1364ntf    fn411280   4.373   4.022   4.711  0.2947  0.2826 -0.0886
 1365ntf    cn111281   6.060   6.181   1.299  0.1661  0.2512 -0.0958
 1365ntf    sn211282   6.223   6.114   1.344  0.1476  0.4643  0.2908
 1365ntf    nn311283   6.198   6.078   1.495  0.4126 -0.0620  0.2111
 1365ntf    sn211284   6.273   6.138   1.619  0.3112  0.3059  0.0945
 1365ntf    cn111285   6.217   6.018   1.744  0.7659  0.0290  0.0342
 1365ntf    fn411286   5.957   6.099   1.316  0.2791 -0.0212 -0.6935
 1365ntf    fn411287   6.039   6.290   1.371 -0.3992  0.0447  0.0589
 1365ntf    fn411288   6.057   6.221   1.173 -0.5985 -0.0339 -0.1727
 1365ntf    on511289   6.232   5.991   1.269 -0.2885  0.4832  0.2083
 1365ntf    on511290   6.306   6.227   1.309  0.3625  0.4114  0.6169
 1365ntf    on511291   6.415   6.116   1.604  0.2748  0.0998  0.0444
 1365ntf    on511292   6.222   6.266   1.661 -0.8263 -0.3800  0.8670
 1365ntf    fn411293   6.257   5.896   1.712  0.0184 -0.3735  0.6024
 1365ntf    fn411294   6.086   6.010   1.757  0.7460 -0.4553 -0.4385
 1365ntf    fn411295   6.269   6.056   1.860  0.4227  0.6799 -0.0182
 1366ntf    cn111296   2.564   3.386   2.859  0.4798  0.3350 -0.0086
 1366ntf    sn211297   2.416   3.361   2.961  0.6647 -0.1057  0.1567
 1366ntf    nn311298   2.468   3.293   3.093  0.1899  0.3847  0.6008
 1366ntf    sn211299   2.430   3.152   3.149 -0.0895  0.1814 -0.0965
 1366ntf    cn111300   2.584   3.060   3.118  0.2021  0.4319  0.5912
 1366ntf    fn411301   2.650   3.464   2.922  0.2489  0.4875  0.1155
 1366ntf    fn411302   2.626   3.272   2.830 -0.4736 -0.2590  0.2605
 1366ntf    fn411303   2.538   3.445   2.743  0.4337 -0.6135 -0.4951
 1366ntf    on511304   2.370   3.497   2.975  0.1326 -0.2607 -0.0870
 1366ntf    on511305   2.342   3.264   2.884  0.0872  0.0373  0.5232
 1366ntf    on511306   2.417   3.147   3.292 -0.4727 -0.1642 -0.1410
 1366ntf    on511307   2.329   3.071   3.085 -0.0165  0.1767 -0.2081
 1366ntf    fn411308   2.691   3.112   3.176  0.5582 -0.0620  0.3880
 1366ntf    fn411309   2.614   3.073   2.990 -0.6998  0.1303  0.3416
 1366ntf    fn411310   2.573   2.932   3.151  0.1169  0.3309  0.1753
 1367ntf    cn111311   5.663   3.970   5.305 -0.2651  0.2390  0.3668
 1367ntf    sn211312   5.662   4.134   5.227  0.4684  0.0024 -0.1596
 1367ntf    nn311313   5.636   4.228   5.350 -0.2027 -0.2690 -0.0877
 1367ntf    sn211314   5.575   4.372   5.359  0.2577 -0.0605 -0.2492
 1367ntf    cn111315   5.652   4.463   5.222 -0.2251  0.4074 -0.2157
 1367ntf    fn411316   5.645   3.881   5.208 -0.2147  0.7329 -0.1035
 1367ntf    fn411317   5.778   3.934   5.360  0.2358  0.2718 -0.6345
 1367ntf    fn411318   5.557   3.958   5.383 -0.3904 -0.4702  0.1015
 1367ntf    on511319   5.796   4.152   5.179  0.3872 -0.0829 -0.4191
 1367ntf    on511320   5.552   4.127   5.133  0.1731  0.2940  0.1611
 1367ntf    on511321   5.434   4.382   5.328  0.2124  0.1010  0.0070
 1367ntf    on511322   5.609   4.447   5.477  0.5705  0.1382 -0.4646
 1367ntf    fn411323   5.609   4.432   5.101  0.0274  0.4849 -0.3275
 1367ntf    fn411324   5.784   4.459   5.230 -0.2150  0.2794 -0.4457
 1367ntf    fn411325   5.632   4.592   5.240  0.6583  0.5139  0.0653
 1368ntf    cn111326   5.563   3.399   3.491 -0.6934 -0.1199 -0.1946
 1368ntf    sn211327   5.393   3.386   3.553 -0.5086 -0.1533  0.3046
 1368ntf    nn311328   5.315   3.420   3.421  0.0239 -0.5542 -0.1168
 1368ntf    sn211329   5.204   3.527   3.394  0.0954 -0.5148 -0.2567
 1368ntf    cn111330   5.070   3.404   3.400 -0.1580 -0.2349 -0.1554
 1368ntf    fn411331   5.577   3.326   3.381 -0.2148 -0.1007 -0.1480
 1368ntf    fn411332   5.582   3.525   3.455  0.5724 -0.1520  0.2975
 1368ntf    fn411333   5.656   3.375   3.582 -0.4212  0.0347 -0.4285
 1368ntf    on511334   5.372   3.247   3.587 -0.0836 -0.3960 -0.4171
 1368ntf    on511335   5.386   3.488   3.655  1.4078  0.1359  0.1834
 1368ntf    on511336   5.173   3.627   3.494  0.6502 -0.3316 -0.2676
 1368ntf    on511337   5.196   3.566   3.256 -0.3165  0.4933  0.0396
 1368ntf    fn411338   4.997   3.409   3.510 -0.1709  0.2051 -0.1819
 1368ntf    fn411339   5.113   3.280   3.388  0.3827 -0.0470 -0.1758
 1368ntf    fn411340   4.988   3.415   3.297  0.1694  0.9258 -0.3035
 1369ntf    cn111341   1.565   2.525   5.199  0.2189  0.2486  0.3229
 1369ntf    sn211342   1.420   2.633   5.188  0.0096 -0.0016  0.5979
 1369ntf    nn311343   1.489   2.768   5.148 -0.8350  0.1220 -0.4761
 1369ntf    sn211344   1.526   2.824   5.006 -0.2250  0.2039 -0.2898
 1369ntf    cn111345   1.675   2.918   5.049  0.0256 -0.2435 -0.1709
 1369ntf    fn411346   1.614   2.506   5.078 -0.2998 -0.1264  0.1690
 1369ntf    fn411347   1.664   2.575   5.271  0.4435 -0.3989  0.4786
 1369ntf    fn411348   1.547   2.402   5.245  0.5890  0.0921  0.0534
 1369ntf    on511349   1.338   2.564   5.093  0.0001  0.5789  0.1794
 1369ntf    on511350   1.375   2.637   5.325 -0.6774  0.1453  0.3729
 1369ntf    on511351   1.583   2.725   4.917 -0.5961 -0.4488  0.1889
 1369ntf    on511352   1.426   2.914   4.954 -0.4209 -0.0318 -0.3227
 1369ntf    fn411353   1.731   2.963   4.938 -0.7931  0.5033 -0.2945
 1369ntf    fn411354   1.767   2.851   5.117  0.2060 -0.3028 -0.4748
 1369ntf    fn411355   1.647   3.021   5.128 -0.4371 -0.2051 -0.3825
 1370ntf    cn111356   5.359   4.441   4.345  0.0789  0.0068  0.2515
 1370ntf    sn211357   5.291   4.303   4.248  0.3007  0.1961 -0.1786
 1370ntf    nn311358   5.425   4.262   4.178  0.5224  0.6399 -0.0180
 1370ntf    sn211359   5.495   4.312   4.046  0.2143 -0.1460 -0.4819
 1370ntf    cn111360   5.506   4.156   3.953  0.4432 -0.1211 -0.4973
 1370ntf    fn411361   5.273   4.503   4.424 -0.5606 -0.2225 -0.2603
 1370ntf    fn411362   5.467   4.404   4.411  0.2257 -0.1427 -0.0697
 1370ntf    fn411363   5.409   4.534   4.265  0.5316 -0.5073 -0.0688
 1370ntf    on511364   5.248   4.203   4.342  0.1719 -0.0597 -0.5078
 1370ntf    on511365   5.185   4.361   4.169 -0.1281  0.1600  0.3585
 1370ntf    on511366   5.407   4.389   3.962  0.5072  0.6018 -0.1052
 1370ntf    on511367   5.628   4.364   4.062 -0.0529  0.5600 -0.5460
 1370ntf    fn411368   5.551   4.051   4.019 -0.1757  0.1074  0.3117
 1370ntf    fn411369   5.602   4.178   3.865  0.1269  0.0906 -0.7927
 1370ntf    fn411370   5.399   4.133   3.878  0.3209 -0.5677 -0.1960
 1371ntf    cn111371   1.668   4.863   1.281  0.2160 -0.1297  0.1787
 1371ntf    sn211372   1.826   4.910   1.203  0.1098 -0.0102  0.0344
 1371ntf    nn311373   1.780   5.026   1.108  0.2901  0.1395  0.1319
 1371ntf    sn211374   1.858   5.124   1.013  0.0842  0.0393 -0.1398
 1371ntf    cn111375   1.835   5.034   0.857  0.0033 -0.3638  0.1023
 1371ntf    fn411376   1.621   4.955   1.362  0.1992  0.2961 -0.3091
 1371ntf    fn411377   1.561   4.835   1.208  0.1631 -0.1479  0.2637
 1371ntf    fn411378   1.680   4.761   1.365 -0.2192 -0.1861  0.1753
 1371ntf    on511379   1.898   4.957   1.318  0.2853  0.6471 -0.3393
 1371ntf    on511380   1.876   4.791   1.139 -0.7591  0.0889 -0.8725
 1371ntf    on511381   1.785   5.246   0.988  0.0187  0.1512  0.5851
 1371ntf    on511382   2.000   5.140   1.029  0.0277 -0.4817  1.0194
 1371ntf    fn411383   1.795   5.103   0.751 -0.1871  0.1361  0.4997
 1371ntf    fn411384   1.765   4.923   0.875  0.1649 -0.4210  0.3740
 1371ntf    fn411385   1.953   4.987   0.820 -0.1416 -0.4495 -0.2649
 1372ntf    cn111386   6.733   0.774   4.605 -0.1745 -0.1469 -0.2250
 1372ntf    sn211387   6.610   0.641   4.621  0.0418 -0.3370 -0.1293
 1372ntf    nn311388   6.692   0.509   4.643  0.0539 -0.3723 -0.3847
 1372ntf    sn211389   6.630   0.374   4.694 -0.0416 -0.2464 -0.1633
 1372ntf    cn111390   6.678   0.377   4.869 -0.0301 -0.2349 -0.1665
 1372ntf    fn411391   6.807   0.797   4.712 -0.4934 -0.1308 -0.0072
 1372ntf    fn411392   6.819   0.753   4.506 -0.1158  0.1725 -0.2406
 1372ntf    fn411393   6.674   0.889   4.580 -0.4513 -0.2389  0.0028
 1372ntf    on511394   6.535   0.688   4.736  0.1924  0.3936 -0.3247
 1372ntf    on511395   6.549   0.647   4.491  0.4299 -0.0077 -0.2990
 1372ntf    on511396   6.488   0.354   4.683 -0.1211  0.3297 -0.1852
 1372ntf    on511397   6.708   0.261   4.648  0.4237  0.0446 -0.0908
 1372ntf    fn411398   6.641   0.491   4.927  0.7069  0.0150 -0.1783
 1372ntf    fn411399   6.810   0.373   4.877 -0.0746 -0.5263  0.4624
 1372ntf    fn411400   6.630   0.277   4.941  0.0644 -0.0572  0.1466
 1373ntf    cn111401   1.021   3.426   0.280 -0.0513 -0.1699  0.5282
 1373ntf    sn211402   1.172   3.433   0.180 -0.4064 -0.5232 -0.0387
 1373ntf    nn311403   1.276   3.438   0.298  0.0216 -0.3062 -0.4200
 1373ntf    sn211404   1.424   3.490   0.296 -0.0170 -0.1636  0.1905
 1373ntf    cn111405   1.531   3.344   0.283  0.0088 -0.1437  0.1810
 1373ntf    fn411406   0.915   3.391   0.209  0.2097 -0.0278  0.0695
 1373ntf    fn411407   1.029   3.338   0.379 -0.1246 -0.5849  0.1714
 1373ntf    fn411408   1.004   3.545   0.334  0.9310  0.2855 -0.1449
 1373ntf    on511409   1.179   3.309   0.106  0.0964 -0.4674 -0.0886
 1373ntf    on511410   1.154   3.560   0.114 -0.2991 -0.5141 -0.0506
 1373ntf    on511411   1.452   3.554   0.169 -0.3029  0.0181  0.2165
 1373ntf    on511412   1.458   3.567   0.413  0.5209 -0.3800  0.1765
 1373ntf    fn411413   1.498   3.275   0.176 -0.1742 -0.7167  0.6063
 1373ntf    fn411414   1.515   3.260   0.384  0.0783  0.0413  0.3463
 1373ntf    fn411415   1.660   3.373   0.268 -0.1544  0.5245  0.0335
 1374ntf    cn111416   3.894   5.679   5.987 -0.5373 -0.2183  0.0422
 1374ntf    sn211417   3.797   5.694   6.140 -0.0051 -0.1322  0.3735
 1374ntf    nn311418   3.919   5.679   6.239  0.3516  0.2774 -0.0023
 1374ntf    sn211419   3.929   5.627   6.386  0.2178  0.2061 -0.0189
 1374ntf    cn111420   4.010   5.768   6.467  0.2648  0.3383 -0.2990
 1374ntf    fn411421   3.989   5.587   5.992 -0.6804 -0.3558  0.2449
 1374ntf    fn411422   3.825   5.647   5.879  0.0135 -0.0900 -0.3562
 1374ntf    fn411423   3.967   5.789   5.972 -0.1896 -0.5231 -0.5392
 1374ntf    on511424   3.736   5.824   6.145  1.3051  0.5027  0.4467
 1374ntf    on511425   3.708   5.581   6.142 -0.4082  0.1539 -0.7852
 1374ntf    on511426   3.804   5.607   6.455  0.0268  0.4865 -0.2841
 1374ntf    on511427   4.024   5.518   6.387  0.1643  0.1578 -0.2197
 1374ntf    fn411428   3.943   5.879   6.438 -0.6915 -0.2117 -0.2461
 1374ntf    fn411429   4.133   5.794   6.427  0.1645  0.0524 -0.8053
 1374ntf    fn411430   4.010   5.760   6.599  0.1964  0.0718 -0.3159
 1375ntf    cn111431   6.079   3.557   1.829  0.0917 -0.6086  0.1527
 1375ntf    sn211432   5.928   3.497   1.747  0.0076 -0.1391 -0.0373
 1375ntf    nn311433   5.999   3.373   1.683  0.5951  0.3814 -0.4134
 1375ntf    sn211434   6.086   3.374   1.553  0.7453 -0.2481 -0.3219
 1375ntf    cn111435   5.971   3.288   1.442  0.0560  0.0851  0.1325
 1375ntf    fn411436   6.190   3.568   1.758  0.1378 -0.2662  0.2760
 1375ntf    fn411437   6.062   3.680   1.876 -0.0896 -0.9258  0.9334
 1375ntf    fn411438   6.102   3.477   1.931 -0.7465 -0.4813  0.4499
 1375ntf    on511439   5.850   3.463   1.864  0.1963  0.2484  0.2074
 1375ntf    on511440   5.884   3.607   1.665  0.0436 -0.0474  0.0643
 1375ntf    on511441   6.093   3.506   1.495 -0.3996  0.1160  0.3444
 1375ntf    on511442   6.199   3.285   1.549  0.3371 -0.7642 -0.4006
 1375ntf    fn411443   5.881   3.373   1.395 -0.4685 -0.7805 -0.4531
 1375ntf    fn411444   5.905   3.190   1.502  0.1376 -0.1211 -0.1164
 1375ntf    fn411445   6.032   3.244   1.334  0.2618  0.1976  0.2032
 1376ntf    cn111446   0.719   2.081   1.092 -0.1493  0.4468  0.2579
 1376ntf    sn211447   0.586   2.033   0.978  0.1546  0.0516  0.0674
 1376ntf    nn311448   0.676   1.948   0.881  0.5598 -0.3550  0.7897
 1376ntf    sn211449   0.736   1.994   0.744  0.1379  0.3710  0.8413
 1376ntf    cn111450   0.883   1.887   0.741 -0.2657 -0.1738 -0.2680
 1376ntf    fn411451   0.782   1.969   1.123 -0.0080  0.6037  0.5433
 1376ntf    fn411452   0.808   2.147   1.020 -0.1523  0.4349  0.2436
 1376ntf    fn411453   0.687   2.146   1.203 -0.0605 -0.2505  0.6961
 1376ntf    on511454   0.506   1.941   1.055  0.4488 -0.5621 -0.3539
 1376ntf    on511455   0.526   2.156   0.931  0.2287  0.0389 -0.0630
 1376ntf    on511456   0.658   1.947   0.632  0.3482  0.7239  0.5419
 1376ntf    on511457   0.784   2.131   0.742  0.0958  0.3812  0.4170
 1376ntf    fn411458   0.864   1.787   0.658 -0.4518 -0.3909  0.0347
 1376ntf    fn411459   0.895   1.839   0.864 -0.5452  0.6315  0.0824
 1376ntf    fn411460   0.994   1.955   0.716 -0.3557 -0.0869 -0.4325
 1377ntf    cn111461   4.885   6.387   3.202 -0.0547 -0.5975  0.0092
 1377ntf    sn211462   4.734   6.370   3.101 -0.0242  0.3704 -0.2022
 1377ntf    nn311463   4.788   6.454   2.980 -0.1770  0.2226 -0.3711
 1377ntf    sn211464   4.783   6.421   2.826 -0.0890 -0.3427 -0.2545
 1377ntf    cn111465   4.657   6.536   2.763  0.1339 -0.1882 -0.4151
 1377ntf    fn411466   4.881   6.310   3.310 -0.6704 -0.5638  0.0158
 1377ntf    fn411467   4.993   6.369   3.129  0.1931  0.4035  0.1272
 1377ntf    fn411468   4.883   6.510   3.250  0.2278 -0.4160 -0.4461
 1377ntf    on511469   4.715   6.228   3.092  0.2536  0.3338 -0.2230
 1377ntf    on511470   4.637   6.449   3.173 -0.1458  0.2307 -0.2117
 1377ntf    on511471   4.897   6.455   2.745 -0.2833  0.5220 -0.1755
 1377ntf    on511472   4.732   6.289   2.796 -0.5088 -0.3687  0.5412
 1377ntf    fn411473   4.590   6.487   2.660  0.0398 -0.5879 -0.1637
 1377ntf    fn411474   4.714   6.652   2.732  0.1920 -0.2669 -0.6029
 1377ntf    fn411475   4.569   6.565   2.858  0.4275 -0.7075  0.0191
 1378ntf    cn111476   2.389   5.472   5.143 -0.0767  0.1104 -0.0882
 1378ntf    sn211477   2.315   5.550   4.996 -0.2397 -0.1646 -0.1526
 1378ntf    nn311478   2.193   5.453   4.980 -0.2000 -0.2098 -0.1851
 1378ntf    sn211479   2.161   5.335   4.882 -0.2018 -0.1525 -0.2526
 1378ntf    cn111480   2.063   5.419   4.754 -0.1040  0.3161 -0.0227
 1378ntf    fn411481   2.484   5.539   5.206 -0.2966  0.1873  0.1632
 1378ntf    fn411482   2.300   5.454   5.238 -0.0545 -0.3906 -0.1628
 1378ntf    fn411483   2.447   5.358   5.111 -0.2017 -0.0452  0.2444
 1378ntf    on511484   2.274   5.678   5.047 -0.3989 -0.3925  0.2942
 1378ntf    on511485   2.414   5.546   4.891 -0.7779  0.1207 -0.6739
 1378ntf    on511486   2.275   5.289   4.806  0.3447 -0.6786  0.8579
 1378ntf    on511487   2.077   5.234   4.943  0.0763 -0.5336 -0.4960
 1378ntf    fn411488   2.123   5.528   4.711  0.0348  0.1013 -0.3704
 1378ntf    fn411489   1.945   5.450   4.805 -0.3000  0.2082 -0.4105
 1378ntf    fn411490   2.027   5.339   4.655 -0.7125  1.0914 -0.4375
 1379ntf    cn111491   4.401   0.452   0.060  0.2848 -0.1892  0.0054
 1379ntf    sn211492   4.399   0.550   0.213 -0.3234 -0.1262 -0.0429
 1379ntf    nn311493   4.252   0.537   0.267 -0.3079  0.2667  0.0925
 1379ntf    sn211494   4.217   0.561   0.419 -0.4958  0.0092  0.0910
 1379ntf    cn111495   4.200   0.396   0.494 -0.0746 -0.1902 -0.2435
 1379ntf    fn411496   4.321   0.506  -0.031  0.0083  0.1870  0.4719
 1379ntf    fn411497   4.519   0.437   0.001 -0.0561 -0.4432 -0.6212
 1379ntf    fn411498   4.353   0.333   0.093 -0.5724 -0.0386 -0.6668
 1379ntf    on511499   4.496   0.472   0.286 -0.0103  0.1455 -0.1687
 1379ntf    on511500   4.427   0.687   0.180 -0.1442 -0.2091 -0.2358
 1379ntf    on511501   4.320   0.622   0.499  0.3467  0.0250 -0.9761
 1379ntf    on511502   4.087   0.623   0.418 -0.3872  0.2415 -0.7217
 1379ntf    fn411503   4.202   0.292   0.412  0.1608 -0.1901 -0.2383
 1379ntf    fn411504   4.091   0.385   0.569 -0.2601 -0.0734 -0.4908
 1379ntf    fn411505   4.302   0.378   0.575 -0.2929  0.2763  0.1390
 1380ntf    cn111506   0.621   1.552   2.601 -0.1000 -0.0492  0.4897
 1380ntf    sn211507   0.664   1.397   2.516 -0.5685 -0.0748  0.2952
 1380ntf    nn311508   0.529   1.360   2.445 -0.5484  0.0984  0.1672
 1380ntf    sn211509   0.478   1.402   2.303 -0.2102 -0.1218 -0.0210
 1380ntf    cn111510   0.319   1.486   2.329  0.1003  0.4582  0.0247
 1380ntf    fn411511   0.598   1.651   2.516 -0.8225 -0.4888  0.1595
 1380ntf    fn411512   0.514   1.550   2.678 -0.2650  0.0572  0.2649
 1380ntf    fn411513   0.720   1.594   2.678  0.0615 -0.3919  0.4707
 1380ntf    on511514   0.771   1.441   2.431 -0.3771 -0.0996  0.5227
 1380ntf    on511515   0.693   1.309   2.627  0.1187 -0.1392  0.0715
 1380ntf    on511516   0.567   1.495   2.237  0.2309 -0.5656 -0.0493
 1380ntf    on511517   0.442   1.290   2.220 -0.5699 -0.1219  0.1316
 1380ntf    fn411518   0.223   1.436   2.406  0.2767  0.2297  0.0973
 1380ntf    fn411519   0.241   1.494   2.222  0.0454  0.0435  0.0316
 1380ntf    fn411520   0.343   1.610   2.368  0.1142  0.4633 -0.0001
 1381ntf    cn111521   2.694   4.564   3.404  0.1764 -0.4594 -0.4610
 1381ntf    sn211522   2.661   4.730   3.470  0.3907 -0.6932  0.2407
 1381ntf    nn311523   2.732   4.816   3.360 -0.3086 -0.1193  0.2262
 1381ntf    sn211524   2.676   4.874   3.225  0.2457  0.1903  0.1256
 1381ntf    cn111525   2.792   5.012   3.198  0.0289  0.3021 -0.2435
 1381ntf    fn411526   2.672   4.466   3.489 -0.1027 -0.6659 -0.7690
 1381ntf    fn411527   2.620   4.546   3.296  0.3670 -0.2363 -0.6311
 1381ntf    fn411528   2.816   4.558   3.353  0.1721 -1.0189 -0.4046
 1381ntf    on511529   2.518   4.745   3.482  0.3971  0.0067 -0.4235
 1381ntf    on511530   2.736   4.732   3.593  0.5950 -0.0768  0.1118
 1381ntf    on511531   2.698   4.795   3.106 -1.3867 -0.0340 -0.0542
 1381ntf    on511532   2.550   4.943   3.240  0.1707  0.0657  0.0711
 1381ntf    fn411533   2.919   4.979   3.214 -0.1121 -0.3188 -0.3749
 1381ntf    fn411534   2.777   5.117   3.277  0.8239 -0.1638  0.5472
 1381ntf    fn411535   2.781   5.058   3.075 -0.0201 -0.0809 -0.3830
 1382ntf    cn111536   1.660   5.162   1.719 -0.0353 -0.1983  0.1251
 1382ntf    sn211537   1.716   4.991   1.697  0.0904 -0.1272 -0.1100
 1382ntf    nn311538   1.761   4.968   1.846  0.3134  0.1432 -0.1350
 1382ntf    sn211539   1.909   4.957   1.897  0.1237  0.3146  0.4591
 1382ntf    cn111540   1.916   4.785   1.955  0.3945  0.0923 -0.2265
 1382ntf    fn411541   1.617   5.211   1.604  0.2626  0.4896  0.2973
 1382ntf    fn411542   1.563   5.168   1.809 -0.3736 -0.3711 -0.2312
 1382ntf    fn411543   1.769   5.226   1.760 -0.1436  0.0391  0.0485
 1382ntf    on511544   1.594   4.920   1.667 -0.0886 -0.0757  0.4645
 1382ntf    on511545   1.823   4.994   1.601 -0.0071 -0.4674 -0.2304
 1382ntf    on511546   2.013   4.964   1.798 -0.1089  0.9765  0.2563
 1382ntf    on511547   1.921   5.041   2.014  0.1108  0.3697  0.4202
 1382ntf    fn411548   2.033   4.766   2.014  0.1208  0.3976  0.4223
 1382ntf    fn411549   1.918   4.699   1.854  0.3753 -0.2861  0.0914
 1382ntf    fn411550   1.815   4.755   2.035  0.0358  0.3794 -0.5691
 1383ntf    cn111551   4.125   6.146   1.410  0.7356 -0.1120  0.2104
 1383ntf    sn211552   4.222   6.135   1.256  0.1304  0.1034 -0.1900
 1383ntf    nn311553   4.234   5.981   1.232 -0.0231  0.1230 -0.3931
 1383ntf    sn211554   4.132   5.879   1.170  0.0540 -0.3423  0.2276
 1383ntf    cn111555   4.216   5.846   1.012 -0.2243  0.1450 -0.0232
 1383ntf    fn411556   4.119   6.264   1.468 -0.1238 -0.0297 -0.0310
 1383ntf    fn411557   4.002   6.107   1.384  0.7121  0.1495 -0.0807
 1383ntf    fn411558   4.174   6.068   1.505  0.6976 -0.0403  0.2884
 1383ntf    on511559   4.145   6.202   1.155 -0.5386 -0.4075 -0.0199
 1383ntf    on511560   4.348   6.194   1.296  0.3676 -0.1224 -0.6032
 1383ntf    on511561   4.137   5.751   1.237  0.3485 -0.0544  0.7579
 1383ntf    on511562   4.005   5.928   1.121  0.2462  0.0713  0.1425
 1383ntf    fn411563   4.346   5.829   1.032 -0.2402 -0.1568 -0.1697
 1383ntf    fn411564   4.202   5.954   0.936 -0.0690  0.3828  0.2868
 1383ntf    fn411565   4.165   5.749   0.939 -0.1485 -0.1162  0.2724
 1384ntf    cn111566   1.496   3.668   4.045  0.1569 -0.2877  0.0676
 1384ntf    sn211567   1.400   3.700   3.893  0.1290 -0.1156  0.1207
 1384ntf    nn311568   1.298   3.810   3.939 -0.5733 -0.5349 -0.4167
 1384ntf    sn211569   1.159   3.790   4.010 -0.4522 -0.1733 -0.0776
 1384ntf    cn111570   1.192   3.923   4.130  0.0064 -0.0107 -0.3788
 1384ntf    fn411571   1.594   3.581   4.025  0.3568 -0.1296  0.3585
 1384ntf    fn411572   1.542   3.783   4.092 -0.3318 -0.1348  0.1767
 1384ntf    fn411573   1.412   3.620   4.135  0.0616 -0.2357  0.0069
 1384ntf    on511574   1.492   3.751   3.794 -0.3214  0.1634 -0.1538
 1384ntf    on511575   1.346   3.571   3.859  0.2510 -0.3125  0.6555
 1384ntf    on511576   1.047   3.848   3.940 -0.1836  0.3056 -0.1146
 1384ntf    on511577   1.138   3.667   4.081 -0.6638 -0.1083 -0.0281
 1384ntf    fn411578   1.115   3.928   4.237  0.6094 -0.3617  0.0765
 1384ntf    fn411579   1.194   4.044   4.077 -0.2532 -0.0178 -0.4076
 1384ntf    fn411580   1.311   3.901   4.184 -0.1578  0.0592  0.0132
 1385ntf    cn111581   5.367   5.209   4.661 -0.5637 -0.3997 -0.2176
 1385ntf    sn211582   5.378   5.334   4.529 -0.0317 -0.0513  0.1476
 1385ntf    nn311583   5.303   5.451   4.602 -0.3301  0.1757 -0.5102
 1385ntf    sn211584   5.325   5.606   4.588  0.1255  0.1651  0.0397
 1385ntf    cn111585   5.195   5.655   4.470 -0.2824 -0.1596  0.3488
 1385ntf    fn411586   5.253   5.145   4.677 -0.5531 -0.4308 -0.2617
 1385ntf    fn411587   5.468   5.124   4.658 -0.2102  0.0136 -0.1682
 1385ntf    fn411588   5.379   5.281   4.772  0.7132 -0.5168 -0.2574
 1385ntf    on511589   5.517   5.356   4.501  0.1453 -0.6252  0.5530
 1385ntf    on511590   5.300   5.281   4.419 -0.7674  0.1240  0.5749
 1385ntf    on511591   5.283   5.671   4.710 -0.4909 -0.6255  0.2563
 1385ntf    on511592   5.441   5.656   4.520  0.1868  1.0676  0.7830
 1385ntf    fn411593   5.174   5.563   4.378  0.2168 -0.1004  0.1714
 1385ntf    fn411594   5.198   5.768   4.401 -0.4080 -0.6689 -0.5058
 1385ntf    fn411595   5.077   5.649   4.530 -0.2860  0.0707  0.3681
 1386ntf    cn111596   0.369   4.910   6.477 -0.2885  0.0995 -0.2378
 1386ntf    sn211597   0.233   4.915   6.598  0.0975  0.2145  0.1936
 1386ntf    nn311598   0.188   5.064   6.576  0.0889  0.1078 -0.5397
 1386ntf    sn211599   0.047   5.129   6.560 -0.1146 -0.0988  0.3737
 1386ntf    cn111600   0.056   5.204   6.395 -0.1843 -0.1535  0.3457
 1386ntf    fn411601   0.477   4.976   6.515 -0.3226  0.2119 -0.3347
 1386ntf    fn411602   0.407   4.785   6.451  0.8907  0.2351  0.7609
 1386ntf    fn411603   0.344   4.964   6.359  0.6707 -0.1185 -0.5466
 1386ntf    on511604   0.136   4.816   6.559 -0.2156  0.5686  0.0701
 1386ntf    on511605   0.290   4.907   6.730  0.0733 -0.1970  0.1811
 1386ntf    on511606  -0.056   5.028   6.562  0.4954 -0.7276  0.3586
 1386ntf    on511607   0.028   5.247   6.642  0.0699 -0.0052  0.2817
 1386ntf    fn411608   0.087   5.112   6.305 -0.9968  0.0694 -0.1822
 1386ntf    fn411609   0.147   5.299   6.402 -0.4042  0.1093 -0.2717
 1386ntf    fn411610  -0.057   5.263   6.357 -0.3166 -0.2714  0.5542
 1387ntf    cn111611   2.317   2.715   1.079  0.1502  0.0917  0.2948
 1387ntf    sn211612   2.182   2.827   1.030 -0.0385 -0.0886  0.4044
 1387ntf    nn311613   2.061   2.727   1.033  0.0718 -0.2359  0.0525
 1387ntf    sn211614   2.036   2.607   0.935 -0.2104 -0.1167 -0.0222
 1387ntf    cn111615   1.921   2.687   0.820 -0.2349 -0.3214 -0.1412
 1387ntf    fn411616   2.378   2.655   0.977  0.7192  0.3993  0.4466
 1387ntf    fn411617   2.405   2.784   1.150 -0.0339 -0.1524  0.7611
 1387ntf    fn411618   2.266   2.625   1.161 -0.1778 -0.4265 -0.4693
 1387ntf    on511619   2.169   2.929   1.130  0.3456  0.5224 -0.1634
 1387ntf    on511620   2.216   2.881   0.900 -0.2206  0.2972  0.5173
 1387ntf    on511621   2.149   2.576   0.852 -0.2084  0.1440 -0.1164
 1387ntf    on511622   1.974   2.498   1.007 -0.0393  0.0075  0.3165
 1387ntf    fn411623   1.866   2.606   0.731  0.2302 -0.9042  0.0965
 1387ntf    fn411624   1.963   2.799   0.764 -0.2810 -0.2678 -0.0690
 1387ntf    fn411625   1.821   2.730   0.895 -0.1100  0.1198 -0.2265
 1388ntf    cn111626   6.545   1.208   5.970 -0.0971 -0.0685 -0.4682
 1388ntf    sn211627   6.459   1.151   6.119 -0.0736  0.2009 -0.3520
 1388ntf    nn311628   6.402   1.287   6.174 -0.2924 -0.1631  0.3362
 1388ntf    sn211629   6.258   1.347   6.158 -0.3384 -0.3945 -0.1426
 1388ntf    cn111630   6.302   1.519   6.198 -0.0277 -0.5361  0.1298
 1388ntf    fn411631   6.638   1.297   6.001 -0.2072 -0.1016 -0.0420
 1388ntf    fn411632   6.617   1.109   5.918  0.2607 -0.2258  0.3164
 1388ntf    fn411633   6.474   1.244   5.864  0.1221 -0.1635 -0.6493
 1388ntf    on511634   6.353   1.064   6.073  0.2147 -0.1291 -0.3926
 1388ntf    on511635   6.563   1.096   6.202 -0.3145 -0.6085 -0.5719
 1388ntf    on511636   6.207   1.365   6.024  0.7833 -0.3700 -0.5796
 1388ntf    on511637   6.170   1.311   6.266  0.0466  0.1008  0.3408
 1388ntf    fn411638   6.206   1.608   6.179  0.2074 -0.3676 -0.2874
 1388ntf    fn411639   6.405   1.562   6.127 -0.2890  0.1836  0.1828
 1388ntf    fn411640   6.332   1.526   6.327  1.1440  0.2533 -0.1679
 1389ntf    cn111641   4.915   3.768   1.291  0.3038 -0.0648  0.1529
 1389ntf    sn211642   4.989   3.853   1.434  0.0626  0.1653  0.1414
 1389ntf    nn311643   5.136   3.876   1.384 -0.0959  0.5145 -0.1661
 1389ntf    sn211644   5.212   4.013   1.385  0.4767  0.1976 -0.1096
 1389ntf    cn111645   5.378   3.946   1.416  0.5229 -0.0898 -0.9443
 1389ntf    fn411646   4.908   3.853   1.190 -0.2779 -0.1320  0.1327
 1389ntf    fn411647   4.971   3.653   1.259  0.0437 -0.3583  0.7237
 1389ntf    fn411648   4.786   3.749   1.312  0.3078  0.2469  0.4779
 1389ntf    on511649   4.906   3.970   1.451  0.0109  0.2329 -0.5627
 1389ntf    on511650   4.984   3.746   1.531 -0.2730  0.2533  0.2227
 1389ntf    on511651   5.214   4.059   1.248  0.1835 -0.0297 -0.1913
 1389ntf    on511652   5.183   4.104   1.493  0.6553 -0.0004  0.1055
 1389ntf    fn411653   5.411   3.932   1.544 -1.0542  0.6729 -0.4283
 1389ntf    fn411654   5.472   4.016   1.355  0.4353  0.1378 -0.8201
 1389ntf    fn411655   5.378   3.823   1.366  0.6725 -0.6085  0.2888
 1390ntf    cn111656   6.160   6.824   0.099  0.1896  0.0313  0.1551
 1390ntf    sn211657   6.178   6.795   0.278  0.1470  0.1518  0.1791
 1390ntf    nn311658   6.176   6.947   0.315 -0.0202  0.4060 -0.8363
 1390ntf    sn211659   6.299   7.033   0.360  0.0501 -0.0026 -0.2337
 1390ntf    cn111660   6.265   7.184   0.264 -0.5612  0.2576  0.3815
 1390ntf    fn411661   6.042   6.871   0.064  0.1418 -0.2551 -0.0721
 1390ntf    fn411662   6.247   6.911   0.048  0.0836 -0.1276 -0.3007
 1390ntf    fn411663   6.172   6.715   0.026 -0.0943  0.1061 -0.0035
 1390ntf    on511664   6.060   6.721   0.317  0.0714  0.2894  0.2100
 1390ntf    on511665   6.307   6.730   0.285  0.1012  0.1177  0.7017
 1390ntf    on511666   6.290   7.088   0.493  0.3794 -0.2159 -0.1218
 1390ntf    on511667   6.431   6.994   0.314  0.0872 -0.2894  0.1129
 1390ntf    fn411668   6.151   7.239   0.301 -0.5583  0.1016  0.6186
 1390ntf    fn411669   6.272   7.169   0.132 -0.2828  0.1846  0.4029
 1390ntf    fn411670   6.361   7.271   0.292 -0.0227 -0.4271  0.7012
 1391ntf    cn111671   2.590   2.633   3.590  0.4671 -0.2287 -0.3625
 1391ntf    sn211672   2.457   2.563   3.692  0.2460  0.0069 -0.4884
 1391ntf    nn311673   2.526   2.550   3.832  0.4569 -0.3256 -0.6218
 1391ntf    sn211674   2.615   2.433   3.887  0.2590 -0.2832 -0.2079
 1391ntf    cn111675   2.775   2.515   3.916 -0.0675  0.3944 -0.2839
 1391ntf    fn411676   2.709   2.594   3.631  0.4195 -0.7713 -0.7293
 1391ntf    fn411677   2.568   2.593   3.466 -0.4050 -0.2255 -0.2173
 1391ntf    fn411678   2.593   2.765   3.584 -0.6478 -0.1428  0.6175
 1391ntf    on511679   2.361   2.671   3.684  0.3412  0.1447  0.1374
 1391ntf    on511680   2.408   2.441   3.631 -0.6325  0.0369  0.1338
 1391ntf    on511681   2.574   2.389   4.018  0.3311  0.2345 -0.0067
 1391ntf    on511682   2.628   2.330   3.787 -0.3211 -0.6459  0.0838
 1391ntf    fn411683   2.763   2.614   4.001 -0.3855 -0.1816  0.3487
 1391ntf    fn411684   2.810   2.585   3.809  0.1857  0.6429 -0.0405
 1391ntf    fn411685   2.872   2.432   3.951 -0.4161  0.0933 -0.0250
 1392ntf    cn111686   3.144   5.778   3.356  0.5657 -0.3074  0.1774
 1392ntf    sn211687   3.262   5.849   3.475 -0.0794  0.5327  0.3222
 1392ntf    nn311688   3.238   6.001   3.444 -0.3698  0.4112 -0.0675
 1392ntf    sn211689   3.325   6.099   3.356  0.0499  0.1236  0.0219
 1392ntf    cn111690   3.397   6.176   3.504 -0.7730  0.0394  0.4773
 1392ntf    fn411691   3.162   5.812   3.229 -0.1297 -0.0789  0.1398
 1392ntf    fn411692   3.141   5.646   3.362  1.2744 -0.3412 -0.0350
 1392ntf    fn411693   3.022   5.823   3.380  0.7835  0.0812  0.5678
 1392ntf    on511694   3.205   5.803   3.599  0.1004  0.1179  0.2512
 1392ntf    on511695   3.396   5.802   3.448 -0.2265  0.0179  0.4875
 1392ntf    on511696   3.430   6.036   3.280 -0.3263 -0.3684 -0.0975
 1392ntf    on511697   3.241   6.199   3.295 -0.0624  0.1714  0.2502
 1392ntf    fn411698   3.456   6.084   3.578 -0.4642 -0.4371 -0.3468
 1392ntf    fn411699   3.307   6.225   3.587 -0.6747  0.4063  0.3722
 1392ntf    fn411700   3.474   6.283   3.484 -0.5040 -0.2040  0.2023
 1393ntf    cn111701   4.293   6.223   2.751  0.0656  0.1267  0.1338
 1393ntf    sn211702   4.152   6.245   2.863  0.0866 -0.0605  0.1967
 1393ntf    nn311703   4.208   6.176   2.993  0.2353 -0.1600  0.0796
 1393ntf    sn211704   4.262   6.252   3.119  0.2587  0.1623 -0.1230
 1393ntf    cn111705   4.104   6.291   3.201  0.0856 -0.3967 -0.1861
 1393ntf    fn411706   4.408   6.248   2.810 -0.0969 -0.2911  0.6343
 1393ntf    fn411707   4.304   6.097   2.712 -0.1782  0.1988 -0.1807
 1393ntf    fn411708   4.286   6.301   2.644  0.3372  0.4293  0.3374
 1393ntf    on511709   4.125   6.386   2.867 -0.0661 -0.0580 -0.8376
 1393ntf    on511710   4.052   6.157   2.806  0.4577 -0.0292 -0.5098
 1393ntf    on511711   4.329   6.151   3.198  0.0159 -0.0757 -0.2168
 1393ntf    on511712   4.329   6.376   3.091  0.1287  0.3561  0.4176
 1393ntf    fn411713   4.051   6.176   3.238 -0.4207 -0.1779 -0.2256
 1393ntf    fn411714   4.023   6.349   3.115 -0.1235 -0.6844 -0.1850
 1393ntf    fn411715   4.120   6.364   3.310 -0.8545 -0.0744 -0.2587
 1394ntf    cn111716   2.406   6.423   0.645 -0.1585 -0.0534 -0.2849
 1394ntf    sn211717   2.412   6.267   0.738 -0.2778  0.0368 -0.1266
 1394ntf    nn311718   2.493   6.169   0.645 -0.1614 -0.1043  0.1237
 1394ntf    sn211719   2.452   6.061   0.539  0.4826 -0.3239  0.0926
 1394ntf    cn111720   2.541   6.132   0.397  0.1845  0.3082  0.2178
 1394ntf    fn411721   2.525   6.474   0.617 -0.0157 -0.3446 -0.2149
 1394ntf    fn411722   2.366   6.411   0.519 -0.1496  0.1489 -0.3073
 1394ntf    fn411723   2.338   6.510   0.718  0.0219  0.1833 -0.3979
 1394ntf    on511724   2.481   6.306   0.858 -0.4263 -0.1323  0.0154
 1394ntf    on511725   2.270   6.247   0.755 -0.1997 -0.4169  0.0106
 1394ntf    on511726   2.506   5.930   0.566  0.8905 -0.1140  0.3055
 1394ntf    on511727   2.310   6.065   0.512  0.5923  0.8590 -0.3880
 1394ntf    fn411728   2.669   6.116   0.423  0.0422 -0.4069  0.4954
 1394ntf    fn411729   2.511   6.261   0.399 -0.3209  0.1928  0.2391
 1394ntf    fn411730   2.511   6.066   0.286  0.6421  0.1245  0.2024
 1395ntf    cn111731   0.034   6.569   1.611 -0.0391 -0.3077 -0.2626
 1395ntf    sn211732   0.035   6.751   1.615 -0.2373 -0.3117  0.0111
 1395ntf    nn311733  -0.046   6.778   1.483 -0.2246 -0.1043  0.0454
 1395ntf    sn211734  -0.144   6.898   1.461 -0.1379 -0.0642 -0.1306
 1395ntf    cn111735  -0.107   6.930   1.286  0.1473  0.0147 -0.0560
 1395ntf    fn411736   0.076   6.519   1.496 -0.4100 -0.2126 -0.4406
 1395ntf    fn411737   0.103   6.500   1.701 -1.0327 -0.0449  0.7306
 1395ntf    fn411738  -0.090   6.523   1.618 -0.1240 -0.0501 -0.0765
 1395ntf    on511739  -0.044   6.772   1.734  0.2986  0.1302  0.2921
 1395ntf    on511740   0.176   6.780   1.619 -0.2103 -0.4751  0.2833
 1395ntf    on511741  -0.283   6.861   1.468 -0.0845 -0.3183 -0.4017
 1395ntf    on511742  -0.092   7.015   1.528  0.2039 -0.3101  0.0321
 1395ntf    fn411743  -0.170   7.039   1.243 -0.0576 -0.2071 -0.3156
 1395ntf    fn411744  -0.148   6.829   1.212  0.0616 -0.3002  0.4196
 1395ntf    fn411745   0.021   6.945   1.255  0.1794 -0.5215 -0.1855
 1396ntf    cn111746   6.004   0.869   6.483  0.5442  0.3497 -0.0966
 1396ntf    sn211747   5.895   1.005   6.432  0.1695 -0.0041 -0.2363
 1396ntf    nn311748   5.811   1.015   6.564  0.4684 -0.2654 -0.0269
 1396ntf    sn211749   5.759   1.144   6.638  0.2677 -0.2770 -0.1479
 1396ntf    cn111750   5.596   1.170   6.563  0.0797  0.2567  0.4383
 1396ntf    fn411751   5.931   0.773   6.538  0.3595  0.3982 -0.2569
 1396ntf    fn411752   6.077   0.829   6.381 -0.1747  0.3437 -0.6140
 1396ntf    fn411753   6.092   0.911   6.573  0.2568  0.1956  0.2628
 1396ntf    on511754   5.982   1.115   6.401 -0.7750  0.6236 -0.7345
 1396ntf    on511755   5.827   0.954   6.315  0.2769 -0.4826 -0.0917
 1396ntf    on511756   5.735   1.121   6.779  0.0745  1.0056  0.0366
 1396ntf    on511757   5.814   1.275   6.614 -0.1755 -0.0016  0.3107
 1396ntf    fn411758   5.522   1.255   6.632 -0.3075  0.6923 -0.5007
 1396ntf    fn411759   5.522   1.061   6.577  0.3159  0.1003  0.4734
 1396ntf    fn411760   5.615   1.206   6.438  0.4873 -0.5778  0.2495
 1397ntf    cn111761   0.209   5.782   0.153  0.4109  0.1444  0.0538
 1397ntf    sn211762   0.121   5.940   0.174  0.2535  0.0595  0.0335
 1397ntf    nn311763  -0.013   5.882   0.117  0.1223  0.2920  0.1037
 1397ntf    sn211764  -0.089   5.893  -0.020 -0.0691  0.0855  0.1925
 1397ntf    cn111765  -0.262   5.860   0.025 -0.0438 -0.0299  0.2056
 1397ntf    fn411766   0.321   5.774   0.224 -0.0196 -0.6154  0.6590
 1397ntf    fn411767   0.139   5.679   0.197 -0.5615  0.7616 -0.0369
 1397ntf    fn411768   0.242   5.756   0.028 -0.1742  0.3802 -0.1481
 1397ntf    on511769   0.123   5.947   0.318 -0.1493  0.4878  0.0183
 1397ntf    on511770   0.198   6.039   0.102 -0.3729  0.6554  0.1779
 1397ntf    on511771  -0.107   6.028  -0.067  0.4371  0.0118 -0.2316
 1397ntf    on511772  -0.067   5.784  -0.113  0.5037  0.0812  0.3260
 1397ntf    fn411773  -0.268   5.744   0.088 -0.2300 -0.0868  0.0810
 1397ntf    fn411774  -0.329   5.843  -0.088  0.0839  0.3479  0.0725
 1397ntf    fn411775  -0.321   5.951   0.101  0.1474  0.2803 -0.0136
 1398ntf    cn111776   2.841   0.813   5.444 -0.0378 -0.3000  0.2803
 1398ntf    sn211777   2.895   0.760   5.609  0.0941 -0.3367  0.2257
 1398ntf    nn311778   2.754   0.729   5.671 -0.5979  0.5544 -0.8565
 1398ntf    sn211779   2.678   0.803   5.787  0.1598 -0.0856  0.0587
 1398ntf    cn111780   2.509   0.762   5.735  0.0593  0.0527  0.2752
 1398ntf    fn411781   2.944   0.788   5.364  0.0006  1.0129 -0.0957
 1398ntf    fn411782   2.734   0.752   5.394 -0.1035 -0.1883  0.2853
 1398ntf    fn411783   2.823   0.943   5.429 -0.1333 -0.3378  0.0500
 1398ntf    on511784   2.972   0.641   5.582 -0.1692 -0.4559 -0.0048
 1398ntf    on511785   2.968   0.866   5.674  0.5233 -0.3185 -0.2822
 1398ntf    on511786   2.704   0.748   5.918  0.5550  0.2402  0.1214
 1398ntf    on511787   2.680   0.946   5.774 -0.2789 -0.1548 -0.8283
 1398ntf    fn411788   2.478   0.639   5.773 -0.1126  0.0809  0.2273
 1398ntf    fn411789   2.494   0.764   5.604  0.3062 -0.0384  0.2442
 1398ntf    fn411790   2.422   0.848   5.787  0.0922  0.1518  0.1671
 1399ntf    cn111791   3.157   6.607   1.027 -0.2535  0.3255  0.0958
 1399ntf    sn211792   3.134   6.787   1.044  0.2055  0.3940  0.0072
 1399ntf    nn311793   3.111   6.829   0.894 -0.0189 -0.4228 -0.1928
 1399ntf    sn211794   3.004   6.915   0.819  0.1443 -0.0072  0.0486
 1399ntf    cn111795   2.893   6.789   0.748  0.0848  0.2063 -0.2394
 1399ntf    fn411796   3.046   6.548   0.988 -0.2791  0.1782  0.3928
 1399ntf    fn411797   3.244   6.590   0.929 -0.1941 -0.2090  0.2416
 1399ntf    fn411798   3.210   6.555   1.137  0.1415 -0.1166 -0.2974
 1399ntf    on511799   3.023   6.819   1.130  0.0263  0.0213 -0.0834
 1399ntf    on511800   3.261   6.838   1.088  0.1586  0.3118  0.2391
 1399ntf    on511801   2.915   7.001   0.893 -0.3523  0.0175 -0.5602
 1399ntf    on511802   3.065   6.969   0.700  0.1184  0.2927  0.1701
 1399ntf    fn411803   2.817   6.832   0.649 -0.0747  0.1576 -0.1370
 1399ntf    fn411804   2.806   6.751   0.840  0.2005  0.0863 -0.1786
 1399ntf    fn411805   2.952   6.680   0.702 -0.7023 -0.1609 -0.3822
 1400ntf    cn111806   4.303   1.479   1.385 -0.3083 -0.3173 -0.1623
 1400ntf    sn211807   4.473   1.508   1.443 -0.4219  0.0163  0.0071
 1400ntf    nn311808   4.448   1.611   1.559 -0.2463  0.1986 -0.1176
 1400ntf    sn211809   4.521   1.741   1.609 -0.5480  0.1983  0.3289
 1400ntf    cn111810   4.448   1.871   1.506  0.1415  0.1077 -0.2827
 1400ntf    fn411811   4.254   1.588   1.327 -0.4972 -0.4254 -0.2068
 1400ntf    fn411812   4.310   1.383   1.294 -0.4190 -0.3544 -0.1321
 1400ntf    fn411813   4.218   1.448   1.481  0.1614 -0.5889  0.1658
 1400ntf    on511814   4.521   1.378   1.484  0.4070  0.3754  0.1958
 1400ntf    on511815   4.528   1.568   1.324  0.4481 -0.5217  0.1329
 1400ntf    on511816   4.496   1.771   1.748 -0.8020  0.7162  0.1719
 1400ntf    on511817   4.663   1.741   1.581 -0.7230 -0.0848 -0.5930
 1400ntf    fn411818   4.464   1.994   1.552 -0.1409  0.1240 -0.2290
 1400ntf    fn411819   4.324   1.842   1.471 -0.1477  0.1159  0.7087
 1400ntf    fn411820   4.520   1.877   1.395 -0.0271  0.0545 -0.3953
 1401ntf    cn111821   1.934   4.272   0.127  0.3567  0.0632  0.0513
 1401ntf    sn211822   1.963   4.122   0.029  0.0581 -0.0145  0.0789
 1401ntf    nn311823   1.840   4.135  -0.067  0.2560  0.1724 -0.1497
 1401ntf    sn211824   1.715   4.041  -0.079  0.0327  0.4381  0.0634
 1401ntf    cn111825   1.782   3.928  -0.205 -0.1334 -0.1419  0.4926
 1401ntf    fn411826   1.995   4.259   0.244  0.2187  0.2707  0.1472
 1401ntf    fn411827   1.979   4.379   0.064  0.0653  0.4383  0.4724
 1401ntf    fn411828   1.807   4.288   0.159  0.3946 -0.5618  0.5422
 1401ntf    on511829   2.091   4.163  -0.023 -0.0498  0.2004 -0.0159
 1401ntf    on511830   1.967   4.019   0.130  0.0534  0.0090  0.1025
 1401ntf    on511831   1.702   3.960   0.040  0.0407 -0.5370 -0.5821
 1401ntf    on511832   1.604   4.106  -0.142  0.4608  0.5148 -0.6249
 1401ntf    fn411833   1.909   3.897  -0.183  0.0173  0.1124 -0.0105
 1401ntf    fn411834   1.779   3.972  -0.329 -0.0198 -1.0268  0.1671
 1401ntf    fn411835   1.723   3.809  -0.206 -0.5224  0.0540 -0.1775
 1402ntf    cn111836   0.309   6.786   6.051  0.2811 -0.2743 -0.2200
 1402ntf    sn211837   0.416   6.916   6.119 -0.0219  0.0051 -0.2734
 1402ntf    nn311838   0.555   6.882   6.055  0.3228  0.1165  0.4046
 1402ntf    sn211839   0.671   6.795   6.115  0.0434 -0.2864  0.3636
 1402ntf    cn111840   0.784   6.806   5.972 -0.6971  0.0327 -0.2053
 1402ntf    fn411841   0.281   6.812   5.925  0.2109 -0.7627 -0.3078
 1402ntf    fn411842   0.354   6.661   6.050 -0.7030 -0.6413  0.0352
 1402ntf    fn411843   0.196   6.787   6.121  0.5638 -0.0659  0.2390
 1402ntf    on511844   0.370   7.041   6.065  0.4823  0.2126 -0.2268
 1402ntf    on511845   0.417   6.903   6.263  0.2333  0.0304 -0.2722
 1402ntf    on511846   0.732   6.866   6.224  0.2125 -0.4444  0.3731
 1402ntf    on511847   0.642   6.654   6.118 -0.0775 -0.2807 -0.3282
 1402ntf    fn411848   0.838   6.925   5.955  0.1424 -0.3003  0.0803
 1402ntf    fn411849   0.745   6.763   5.854 -0.1448 -0.3720 -0.2449
 1402ntf    fn411850   0.889   6.731   6.003 -0.4833  0.5932  0.4741
 1403ntf    cn111851   5.807   4.408   2.085 -0.1955  0.0075 -0.3415
 1403ntf    sn211852   5.762   4.235   2.048  0.4721 -0.2580  0.0722
 1403ntf    nn311853   5.707   4.254   1.902  0.7529  0.3899  0.0461
 1403ntf    sn211854   5.572   4.303   1.840  0.7038  0.0447 -0.1224
 1403ntf    cn111855   5.524   4.180   1.715  0.0784  0.1585  0.0007
 1403ntf    fn411856   5.902   4.403   2.177 -0.3415  0.7355 -0.1467
 1403ntf    fn411857   5.850   4.469   1.976 -0.1043  0.4607 -0.0550
 1403ntf    fn411858   5.706   4.479   2.132  0.0934  0.4774 -0.4227
 1403ntf    on511859   5.881   4.154   2.049  0.7403  0.1192 -0.6500
 1403ntf    on511860   5.669   4.191   2.149 -0.0647  0.0600 -0.2792
 1403ntf    on511861   5.460   4.287   1.930  0.3342 -0.0317 -0.5929
 1403ntf    on511862   5.596   4.423   1.763 -0.1162  0.0566 -0.3755
 1403ntf    fn411863   5.631   4.168   1.637  0.0907  0.6819 -0.0655
 1403ntf    fn411864   5.422   4.225   1.645 -0.1008  0.0880  0.2145
 1403ntf    fn411865   5.498   4.063   1.771  0.8513  0.1691  0.3968
 1404ntf    cn111866   2.429   4.133   4.737  0.1613  0.1500 -0.5421
 1404ntf    sn211867   2.446   4.312   4.762  0.1206  0.0465  0.2398
 1404ntf    nn311868   2.400   4.351   4.617 -0.2768 -0.0321  0.3426
 1404ntf    sn211869   2.267   4.422   4.571 -0.0674  0.2617  0.1844
 1404ntf    cn111870   2.151   4.282   4.574  0.1134  0.1022 -0.1584
 1404ntf    fn411871   2.322   4.102   4.667 -0.2189 -0.1372  0.1633
 1404ntf    fn411872   2.529   4.096   4.658  0.3716  0.0546 -0.2352
 1404ntf    fn411873   2.448   4.056   4.843  0.2696 -0.0984 -0.7401
 1404ntf    on511874   2.366   4.347   4.877 -0.3534 -0.1701 -0.0196
 1404ntf    on511875   2.587   4.335   4.776  0.0401  0.7619 -0.0657
 1404ntf    on511876   2.208   4.527   4.650  0.2332  0.1913  0.5031
 1404ntf    on511877   2.281   4.456   4.432  0.0014 -0.3911  0.0257
 1404ntf    fn411878   2.026   4.326   4.569 -0.1063 -0.3526  0.9235
 1404ntf    fn411879   2.155   4.219   4.690 -0.0520 -0.0309 -0.2250
 1404ntf    fn411880   2.178   4.191   4.481  0.0475 -0.4857  0.3902
 1405ntf    cn111881   0.715   6.012   5.924 -0.0352 -0.0812 -0.1404
 1405ntf    sn211882   0.859   6.108   5.980 -0.2306  0.1276  0.0040
 1405ntf    nn311883   0.936   6.106   5.843 -0.0093  0.5441  0.1221
 1405ntf    sn211884   0.913   6.215   5.732 -0.1130  0.2209 -0.1733
 1405ntf    cn111885   1.060   6.313   5.774  0.1178 -0.2503  0.1288
 1405ntf    fn411886   0.618   6.024   6.014  0.3076  0.1881  0.1954
 1405ntf    fn411887   0.669   6.062   5.811  0.1798 -0.5607 -0.4450
 1405ntf    fn411888   0.733   5.883   5.898  0.0082 -0.1351  0.1465
 1405ntf    on511889   0.804   6.237   6.016  0.2480  0.2412  0.3361
 1405ntf    on511890   0.906   6.024   6.086 -0.3055  0.0489 -0.0247
 1405ntf    on511891   0.949   6.166   5.601  0.1153 -0.0071 -0.0273
 1405ntf    on511892   0.802   6.307   5.733 -0.2412  0.0657  0.3311
 1405ntf    fn411893   1.045   6.376   5.889 -0.2102  0.1027 -0.1074
 1405ntf    fn411894   1.077   6.415   5.691  0.1537 -0.3713 -0.0132
 1405ntf    fn411895   1.168   6.238   5.783  0.2436 -0.1772 -0.6535
 1406ntf    cn111896   4.270   6.017   6.203 -0.1381  0.0563  0.0292
 1406ntf    sn211897   4.440   5.952   6.198 -0.1673 -0.0608  0.5008
 1406ntf    nn311898   4.469   5.964   6.044  0.9616 -0.1342  0.6969
 1406ntf    sn211899   4.568   6.060   5.969 -0.0326  0.2462 -0.1571
 1406ntf    cn111900   4.462   6.200   5.922 -0.3980 -0.1357 -0.4687
 1406ntf    fn411901   4.213   5.999   6.321 -0.3705 -0.2216 -0.1239
 1406ntf    fn411902   4.250   6.145   6.179 -0.5854  0.0331  0.2697
 1406ntf    fn411903   4.195   5.956   6.113 -0.1400  0.1066 -0.0029
 1406ntf    on511904   4.508   6.050   6.279  0.1366  0.1228  0.0326
 1406ntf    on511905   4.430   5.812   6.231  0.0706 -0.4379 -0.9527
 1406ntf    on511906   4.662   6.129   6.054 -0.1520  0.1422  0.0589
 1406ntf    on511907   4.628   6.017   5.846  0.0286 -0.1493  0.0089
 1406ntf    fn411908   4.365   6.164   5.838 -0.7778  0.2100 -0.1846
 1406ntf    fn411909   4.537   6.290   5.861  0.0364 -0.0509  0.1888
 1406ntf    fn411910   4.410   6.251   6.032 -0.1122  0.2139 -0.4958
 1407ntf    cn111911   2.484   0.103   4.543 -0.1225 -0.0444 -0.0885
 1407ntf    sn211912   2.627   0.197   4.482  0.0374 -0.3147 -0.1306
 1407ntf    nn311913   2.694   0.076   4.408  0.3358  0.0090 -0.3927
 1407ntf    sn211914   2.779  -0.038   4.474 -0.1195  0.1629  0.4715
 1407ntf    cn111915   2.944   0.017   4.421 -0.0992 -0.1450  0.2031
 1407ntf    fn411916   2.368   0.154   4.505 -0.1356  0.0815  0.1162
 1407ntf    fn411917   2.485  -0.024   4.508 -0.2974 -0.2604  0.6789
 1407ntf    fn411918   2.475   0.113   4.675 -0.2223  0.0770 -0.1035
 1407ntf    on511919   2.576   0.287   4.380  0.5803  0.1566  0.0102
 1407ntf    on511920   2.700   0.264   4.587  0.5035  0.2266 -0.7873
 1407ntf    on511921   2.800  -0.040   4.616  0.5824  0.3705  0.3743
 1407ntf    on511922   2.763  -0.170   4.416  0.8612  0.2620 -0.0366
 1407ntf    fn411923   2.983   0.119   4.496  0.0728 -0.3912  0.4508
 1407ntf    fn411924   2.945   0.044   4.292 -0.0848  0.3219  0.2983
 1407ntf    fn411925   3.032  -0.078   4.444 -0.1497 -0.3690 -0.5050
 1408ntf    cn111926   3.766   2.059   4.264 -0.4290  0.3872 -0.0651
 1408ntf    sn211927   3.610   2.032   4.354 -0.3600 -0.0400 -0.0715
 1408ntf    nn311928   3.679   2.025   4.494 -0.6124 -0.6786  0.0248
 1408ntf    sn211929   3.628   2.013   4.643 -0.0037 -0.1014  0.2859
 1408ntf    cn111930   3.787   2.014   4.731  0.0682 -0.1447  0.1572
 1408ntf    fn411931   3.749   2.086   4.135  0.2342 -0.4229 -0.3321
 1408ntf    fn411932   3.841   2.153   4.317  0.3847  0.0443 -0.5880
 1408ntf    fn411933   3.835   1.946   4.268 -0.0459  0.5923 -0.6563
 1408ntf    on511934   3.525   2.143   4.320  0.0744  0.5750  0.8399
 1408ntf    on511935   3.583   1.906   4.289  0.4122 -0.1096 -0.2694
 1408ntf    on511936   3.561   2.137   4.670  0.0302  0.0987 -0.5162
 1408ntf    on511937   3.570   1.885   4.675  0.4733 -0.1168  1.1114
 1408ntf    fn411938   3.842   2.133   4.747  0.4760 -0.3656  0.4383
 1408ntf    fn411939   3.872   1.944   4.657 -0.0439  0.1847 -0.2823
 1408ntf    fn411940   3.776   1.961   4.852 -0.2533 -0.5968 -0.0676
 1409ntf    cn111941   3.639   3.648   5.412 -0.3110  0.0083  0.0994
 1409ntf    sn211942   3.607   3.540   5.554 -0.1354  0.1368  0.2365
 1409ntf    nn311943   3.663   3.626   5.673  0.1044  0.0753  0.1687
 1409ntf    sn211944   3.590   3.748   5.739 -0.1940  0.1953 -0.3797
 1409ntf    cn111945   3.540   3.685   5.902  0.3216  0.0354 -0.2811
 1409ntf    fn411946   3.757   3.634   5.354 -0.1649 -0.1488  0.4325
 1409ntf    fn411947   3.545   3.607   5.328 -0.0317 -0.3315 -0.0486
 1409ntf    fn411948   3.618   3.777   5.434 -0.1413 -0.0382  0.5335
 1409ntf    on511949   3.466   3.510   5.553 -0.0682 -0.1911  0.3452
 1409ntf    on511950   3.697   3.429   5.531 -0.2372  0.1907 -0.4280
 1409ntf    on511951   3.687   3.847   5.780 -0.2407  0.3965 -0.7482
 1409ntf    on511952   3.475   3.799   5.669 -0.4919 -0.3738 -0.3058
 1409ntf    fn411953   3.631   3.611   5.962  0.2735 -0.0481 -0.3118
 1409ntf    fn411954   3.440   3.599   5.884 -0.3541  0.7734 -0.1005
 1409ntf    fn411955   3.487   3.770   5.988 -0.5227 -0.5354 -0.2211
 1410ntf    cn111956   6.142   2.025   3.526 -0.2132  0.7327  0.2182
 1410ntf    sn211957   5.999   1.921   3.484  0.2688  0.1429  0.0252
 1410ntf    nn311958   6.010   1.812   3.597  0.3367 -0.0080 -0.1277
 1410ntf    sn211959   5.966   1.805   3.747 -0.1875  0.0954 -0.2733
 1410ntf    cn111960   6.134   1.800   3.817 -0.2262  0.0946 -0.1808
 1410ntf    fn411961   6.235   1.958   3.591 -0.0595  0.5734 -0.1638
 1410ntf    fn411962   6.205   2.056   3.414  0.8841  0.0576  0.6333
 1410ntf    fn411963   6.113   2.135   3.594  0.5548  0.8609  0.3489
 1410ntf    on511964   5.887   2.011   3.493 -0.1060 -0.2769 -0.4127
 1410ntf    on511965   6.033   1.863   3.357 -0.1133 -0.3273  0.1361
 1410ntf    on511966   5.908   1.925   3.803  0.2882  0.1376  0.1417
 1410ntf    on511967   5.917   1.674   3.784 -0.0287  0.1519  0.1501
 1410ntf    fn411968   6.203   1.696   3.774  0.0162  0.0904  0.2138
 1410ntf    fn411969   6.119   1.769   3.945 -0.1790 -0.8346 -0.3973
 1410ntf    fn411970   6.202   1.911   3.796  0.2852 -0.1832  0.0015
 1411ntf    cn111971   6.609   6.409   5.940  0.0404  0.2296  0.6490
 1411ntf    sn211972   6.543   6.265   6.031 -0.3776 -0.1385 -0.2252
 1411ntf    nn311973   6.491   6.330   6.164 -0.0091 -0.4040  0.0494
 1411ntf    sn211974   6.537   6.326   6.314  0.0327  0.1002  0.0510
 1411ntf    cn111975   6.578   6.501   6.338  0.0041  0.0883  0.1919
 1411ntf    fn411976   6.725   6.453   5.986  0.1798  0.0988  0.4244
 1411ntf    fn411977   6.617   6.367   5.815 -0.0562  0.1745  0.6602
 1411ntf    fn411978   6.524   6.510   5.940  0.2032  0.3657  0.6445
 1411ntf    on511979   6.431   6.228   5.948 -0.3064 -0.2464 -0.2727
 1411ntf    on511980   6.656   6.175   6.038 -0.0943  0.2197 -0.1402
 1411ntf    on511981   6.418   6.312   6.395 -0.0944  0.4567 -0.0744
 1411ntf    on511982   6.658   6.256   6.349  0.0208  0.2544  0.4062
 1411ntf    fn411983   6.689   6.541   6.278 -0.4439  0.3254 -0.4889
 1411ntf    fn411984   6.570   6.531   6.467  0.3638  0.5663  0.1056
 1411ntf    fn411985   6.488   6.581   6.282  0.3976  0.2223 -0.2536
 1412ntf    cn111986   2.179   4.250   2.680 -0.0133 -0.3583  0.0153
 1412ntf    sn211987   2.171   4.428   2.714  0.1231 -0.3817  0.1691
 1412ntf    nn311988   2.248   4.478   2.587 -0.2694 -0.1300  0.0279
 1412ntf    sn211989   2.190   4.542   2.456 -0.0369 -0.0919 -0.0567
 1412ntf    cn111990   2.158   4.715   2.501 -0.0961 -0.1106 -0.0256
 1412ntf    fn411991   2.106   4.209   2.577  0.4768 -0.1270 -0.4308
 1412ntf    fn411992   2.302   4.209   2.651  0.1547  0.1445  0.0065
 1412ntf    fn411993   2.143   4.182   2.787 -0.3279  0.2034  0.2674
 1412ntf    on511994   2.032   4.466   2.704  0.1492 -0.3737 -0.1534
 1412ntf    on511995   2.247   4.448   2.835  0.5312 -0.4974 -0.0662
 1412ntf    on511996   2.296   4.560   2.360 -0.1495  0.2087 -0.1257
 1412ntf    on511997   2.064   4.493   2.405 -0.1047  0.7490 -0.7179
 1412ntf    fn411998   2.070   4.720   2.600 -0.3456 -0.1683 -0.2441
 1412ntf    fn411999   2.109   4.782   2.399 -0.0140  0.2801  0.1874
 1412ntf    fn412000   2.275   4.767   2.535 -0.4338  0.2387  0.6288
 1413ntf    cn112001   5.526   1.064   2.758 -0.6675 -0.6025 -0.1571
 1413ntf    sn212002   5.683   0.974   2.750 -0.3560 -0.0913  0.1737
 1413ntf    nn312003   5.686   0.964   2.593 -0.8639  0.2863  0.1357
 1413ntf    sn212004   5.724   1.074   2.488  0.0713 -0.1254  0.0279
 1413ntf    cn112005   5.867   0.980   2.428 -0.3735 -0.7084 -0.1301
 1413ntf    fn412006   5.537   1.169   2.679  0.1736 -0.4224  0.1928
 1413ntf    fn412007   5.416   1.001   2.719 -0.3937 -0.7118 -0.7448
 1413ntf    fn412008   5.506   1.101   2.884 -0.7503 -0.4298 -0.2211
 1413ntf    on512009   5.788   1.058   2.804 -0.0253  0.1994 -0.8921
 1413ntf    on512010   5.658   0.849   2.817 -0.5937 -0.3153 -0.3254
 1413ntf    on512011   5.638   1.084   2.373  0.0257 -0.6206  0.0168
 1413ntf    on512012   5.793   1.195   2.527 -0.4711  0.1657  0.1026
 1413ntf    fn412013   5.839   0.851   2.429 -0.1604 -0.7541  0.1742
 1413ntf    fn412014   5.969   0.988   2.512 -0.0062  0.2722 -0.6483
 1413ntf    fn412015   5.913   1.023   2.311  0.0880  0.4103  0.4418
 1414ntf    cn112016   0.051   0.018   2.785  0.0132  0.2406 -0.6300
 1414ntf    sn212017   0.121   0.164   2.868 -0.0703 -0.0259 -0.0849
 1414ntf    nn312018   0.175   0.115   3.007  0.8698  0.2539 -0.3395
 1414ntf    sn212019   0.210   0.207   3.129  0.6416 -0.0658 -0.0285
 1414ntf    cn112020   0.086   0.152   3.250  0.3052 -0.0702 -0.3743
 1414ntf    fn412021  -0.035  -0.050   2.859 -0.0156  0.4355 -0.4832
 1414ntf    fn412022   0.001   0.047   2.666  0.1989 -0.0791 -0.7858
 1414ntf    fn412023   0.144  -0.075   2.769 -0.1239  0.0750 -0.4705
 1414ntf    on512024   0.210   0.230   2.775  0.4650 -0.2916  0.2322
 1414ntf    on512025  -0.004   0.236   2.873 -0.3017 -0.3932 -0.5084
 1414ntf    on512026   0.330   0.165   3.196  0.3226 -0.1340  0.5028
 1414ntf    on512027   0.199   0.351   3.117 -0.0232 -0.1670 -0.7408
 1414ntf    fn412028   0.046   0.248   3.331 -0.1849  0.5548 -1.3303
 1414ntf    fn412029   0.125   0.050   3.323  0.1294 -0.1065 -0.3296
 1414ntf    fn412030  -0.025   0.114   3.189 -0.0628 -0.1717  0.3523
 1415ntf    cn112031   1.836   0.838   6.450  0.3052 -0.1412 -0.0772
 1415ntf    sn212032   1.836   0.860   6.269 -0.4232 -0.1679 -0.0857
 1415ntf    nn312033   1.744   0.986   6.281 -0.1468  0.0033  0.2312
 1415ntf    sn212034   1.643   1.034   6.171 -0.2963  0.1167  0.4180
 1415ntf    cn112035   1.655   1.211   6.213  0.3598  0.1991 -0.0998
 1415ntf    fn412036   1.833   0.707   6.468  0.1947 -0.0708  0.4271
 1415ntf    fn412037   1.944   0.889   6.506  0.1135  0.4549 -0.2394
 1415ntf    fn412038   1.730   0.896   6.504 -0.3047 -0.3441 -1.0278
 1415ntf    on512039   1.971   0.902   6.243 -0.1182 -0.5752  0.7841
 1415ntf    on512040   1.782   0.739   6.212  0.4202 -0.5275 -0.1337
 1415ntf    on512041   1.680   1.043   6.032 -0.9069 -0.3072  0.2246
 1415ntf    on512042   1.507   1.001   6.205 -0.2112 -1.0649 -0.3662
 1415ntf    fn412043   1.578   1.297   6.147  0.1544 -0.0352 -0.1667
 1415ntf    fn412044   1.780   1.253   6.202  0.6102 -0.3447  0.5927
 1415ntf    fn412045   1.620   1.223   6.340 -0.5080 -0.2279 -0.2889
 1416ntf    cn112046   4.362   0.449   2.359 -0.0472  0.1399  0.4020
 1416ntf    sn212047   4.248   0.321   2.419 -0.1182  0.0469  0.0720
 1416ntf    nn312048   4.323   0.284   2.552 -0.2247  0.3567  0.2193
 1416ntf    sn212049   4.263   0.274   2.696  0.3593  0.2772  0.4597
 1416ntf    cn112050   4.210   0.439   2.751  0.3271  0.3808  0.1205
 1416ntf    fn412051   4.329   0.518   2.251  1.0517 -0.0764 -0.0889
 1416ntf    fn412052   4.365   0.543   2.451  0.8596  0.1276  0.3992
 1416ntf    fn412053   4.488   0.415   2.336 -0.2497 -0.0152 -0.5187
 1416ntf    on512054   4.118   0.380   2.435 -0.2552 -0.3478  0.4407
 1416ntf    on512055   4.255   0.214   2.322  0.1346  0.1361 -0.0085
 1416ntf    on512056   4.139   0.201   2.706  0.4933 -0.0606 -0.2743
 1416ntf    on512057   4.364   0.232   2.790  0.0309 -0.3041  0.5598
 1416ntf    fn412058   4.090   0.471   2.707  0.1988  0.4628  0.5296
 1416ntf    fn412059   4.301   0.520   2.700  0.2979  0.6531  0.4959
 1416ntf    fn412060   4.218   0.454   2.882  0.1600 -0.5580  0.2462
 1417ntf    cn112061   0.304   4.599   4.574 -0.4871  0.0302 -0.6107
 1417ntf    sn212062   0.473   4.657   4.606 -0.4738 -0.2535 -0.1565
 1417ntf    nn312063   0.536   4.588   4.480  0.3840  0.3643 -0.0830
 1417ntf    sn212064   0.597   4.444   4.465  0.0957  0.2392 -0.0692
 1417ntf    cn112065   0.500   4.361   4.335 -0.3798  0.3448  0.2159
 1417ntf    fn412066   0.214   4.686   4.615 -0.2559  0.1790 -0.4150
 1417ntf    fn412067   0.287   4.588   4.443 -0.2721 -0.9190 -0.5631
 1417ntf    fn412068   0.289   4.480   4.629  0.6503  0.3497  0.4514
 1417ntf    on512069   0.469   4.801   4.594  0.4711 -0.1750  0.3358
 1417ntf    on512070   0.498   4.607   4.739 -0.1117 -0.5922 -0.3498
 1417ntf    on512071   0.732   4.443   4.415  0.1506  0.0741  0.0799
 1417ntf    on512072   0.561   4.367   4.581  0.4221 -0.1909 -0.2503
 1417ntf    fn412073   0.486   4.435   4.226 -0.0475  0.1723  0.0547
 1417ntf    fn412074   0.380   4.324   4.374 -0.2462  0.1778  0.4703
 1417ntf    fn412075   0.547   4.245   4.293  0.3323  0.4070  0.8071
 1418ntf    cn112076   5.668   1.644   2.742 -0.3187  0.1580  0.3583
 1418ntf    sn212077   5.680   1.789   2.851  0.0380 -0.0779  0.6307
 1418ntf    nn312078   5.568   1.758   2.957 -0.2222  0.4765  0.5193
 1418ntf    sn212079   5.431   1.685   2.933  0.0442  0.0924  0.1462
 1418ntf    cn112080   5.338   1.740   3.079 -0.3324 -0.2253  0.0270
 1418ntf    fn412081   5.569   1.658   2.654  0.3231  0.1902 -0.3725
 1418ntf    fn412082   5.779   1.617   2.675 -0.3231  0.2351  0.3192
 1418ntf    fn412083   5.645   1.534   2.812 -0.2602 -0.0834  0.0028
 1418ntf    on512084   5.812   1.778   2.909  0.3156  0.4106  0.0973
 1418ntf    on512085   5.642   1.903   2.772  0.9118  0.0188  0.3333
 1418ntf    on512086   5.362   1.747   2.822  1.4768  0.5024 -0.5403
 1418ntf    on512087   5.441   1.542   2.948  0.0191  0.1091  0.3155
 1418ntf    fn412088   5.396   1.697   3.190  0.2138  0.2290 -0.0754
 1418ntf    fn412089   5.214   1.695   3.078 -0.6181  0.5529 -0.3617
 1418ntf    fn412090   5.332   1.872   3.070 -0.0257 -0.2515 -0.6787
 1419ntf    cn112091   4.289   6.194   5.535 -0.1836  0.0242 -0.2314
 1419ntf    sn212092   4.178   6.059   5.482 -0.2699  0.1106 -0.2719
 1419ntf    nn312093   4.267   5.999   5.368  0.1206  0.4168 -0.1340
 1419ntf    sn212094   4.248   5.984   5.212 -0.1671 -0.3974 -0.0247
 1419ntf    cn112095   4.316   6.147   5.171 -0.1625 -0.3567  0.1418
 1419ntf    fn412096   4.399   6.146   5.591 -0.0459 -0.0427 -0.5552
 1419ntf    fn412097   4.322   6.265   5.429  0.5027  0.6781  0.4118
 1419ntf    fn412098   4.236   6.278   5.622 -0.2113  0.2749 -0.4902
 1419ntf    on512099   4.172   5.973   5.598 -0.0528  0.3199 -0.1022
 1419ntf    on512100   4.058   6.133   5.453 -0.2536 -0.0652 -0.7903
 1419ntf    on512101   4.342   5.881   5.175 -0.4041 -0.7244  0.2856
 1419ntf    on512102   4.114   5.978   5.161 -0.1651  0.2853 -0.1108
 1419ntf    fn412103   4.409   6.191   5.255  0.3175  0.1243 -0.6252
 1419ntf    fn412104   4.228   6.244   5.187  0.1527 -0.0698  0.1544
 1419ntf    fn412105   4.360   6.144   5.046  0.2428 -0.0554  0.2710
 1420ntf    cn112106   1.110   0.666   0.900 -0.3779 -0.0100  0.2216
 1420ntf    sn212107   1.281   0.604   0.899 -0.3905 -0.0439 -0.2355
 1420ntf    nn312108   1.320   0.636   0.750 -0.0232 -0.1565 -0.1659
 1420ntf    sn212109   1.337   0.569   0.609 -0.1282  0.1774 -0.3389
 1420ntf    cn112110   1.517   0.542   0.612 -0.1674 -0.0538  0.1332
 1420ntf    fn412111   1.032   0.607   0.811  0.0749  0.0167 -0.1963
 1420ntf    fn412112   1.056   0.646   1.019 -0.2955 -0.1264  0.2395
 1420ntf    fn412113   1.108   0.795   0.868  0.3021 -0.0288  0.0794
 1420ntf    on512114   1.354   0.690   0.989 -0.6974 -0.5101  0.4650
 1420ntf    on512115   1.286   0.465   0.937 -0.5070 -0.0974 -0.4155
 1420ntf    on512116   1.287   0.434   0.599  0.0101  0.0971  0.0104
 1420ntf    on512117   1.328   0.671   0.508  0.9085  0.9961  0.3760
 1420ntf    fn412118   1.553   0.464   0.713  0.0680  0.0887  0.1586
 1420ntf    fn412119   1.577   0.660   0.612  0.0565 -0.1674  0.2185
 1420ntf    fn412120   1.565   0.480   0.505 -0.1835 -0.0395  0.1176
 1421ntf    cn112121   3.808   2.003   3.650 -0.0131 -0.0507 -0.6493
 1421ntf    sn212122   3.910   1.853   3.631  0.2573  0.0246  0.1893
 1421ntf    nn312123   4.011   1.874   3.750  0.6284  0.1263 -0.1422
 1421ntf    sn212124   4.145   1.956   3.754  0.4732  0.3707  0.1517
 1421ntf    cn112125   4.090   2.091   3.861  0.0448  0.3238 -0.0049
 1421ntf    fn412126   3.762   2.013   3.774  0.6643 -0.2995 -0.3728
 1421ntf    fn412127   3.873   2.108   3.604  0.3913  0.3383  0.7585
 1421ntf    fn412128   3.703   1.999   3.569 -0.3797  0.2066 -0.1894
 1421ntf    on512129   3.817   1.745   3.652  0.2064  0.1065  0.3847
 1421ntf    on512130   3.971   1.855   3.500  0.0360  0.4382  0.0915
 1421ntf    on512131   4.259   1.896   3.819  0.8114  0.1313 -0.6430
 1421ntf    on512132   4.179   2.030   3.635 -0.1773 -0.1319 -0.3528
 1421ntf    fn412133   4.065   2.051   3.985  0.1301 -0.1316 -0.1344
 1421ntf    fn412134   3.990   2.158   3.806 -0.0186  0.0476 -0.2206
 1421ntf    fn412135   4.189   2.177   3.883  0.6012 -0.1857 -0.5070
 1422ntf    cn112136   1.185   5.591   2.703 -0.4707 -0.2493 -0.3503
 1422ntf    sn212137   1.112   5.568   2.868  0.1896 -0.2023 -0.0470
 1422ntf    nn312138   1.191   5.659   2.969  0.0748 -0.0576 -0.0872
 1422ntf    sn212139   1.138   5.777   3.058 -0.0757 -0.1953  0.0062
 1422ntf    cn112140   1.072   5.888   2.930 -0.1787 -0.0715  0.1657
 1422ntf    fn412141   1.123   5.514   2.615  0.2093 -1.0883 -0.1031
 1422ntf    fn412142   1.159   5.712   2.657  0.6510  0.0392 -0.2559
 1422ntf    fn412143   1.316   5.575   2.693 -0.3617  0.6960 -0.5546
 1422ntf    on512144   0.976   5.616   2.861  0.1210 -0.4638 -0.5647
 1422ntf    on512145   1.113   5.426   2.888  0.0374 -0.3112 -0.7593
 1422ntf    on512146   1.022   5.747   3.139  0.1731 -0.1478  0.3814
 1422ntf    on512147   1.240   5.854   3.124 -0.0571  0.2435 -0.5301
 1422ntf    fn412148   1.066   6.014   2.971 -0.1420 -0.0991  0.2544
 1422ntf    fn412149   0.948   5.868   2.889 -0.0697 -0.4720  0.0302
 1422ntf    fn412150   1.146   5.891   2.821 -0.3489 -0.3884  0.0401
 1423ntf    cn112151   2.874   2.504   1.460 -0.0535 -0.0720 -0.2849
 1423ntf    sn212152   2.755   2.633   1.413  0.2988  0.1282 -0.6346
 1423ntf    nn312153   2.681   2.650   1.551  0.5435 -0.1865 -0.4648
 1423ntf    sn212154   2.741   2.703   1.686 -0.2117  0.2229 -0.2872
 1423ntf    cn112155   2.608   2.681   1.807 -0.2838  0.4533 -0.3238
 1423ntf    fn412156   2.915   2.441   1.351 -0.2795 -0.4736 -0.1418
 1423ntf    fn412157   2.986   2.544   1.517 -0.3959  0.4953  0.0035
 1423ntf    fn412158   2.828   2.410   1.541  0.7633 -0.6039 -0.4236
 1423ntf    on512159   2.831   2.749   1.372  0.4284  0.6164  0.8891
 1423ntf    on512160   2.672   2.553   1.327  0.6347 -0.1786 -0.6718
 1423ntf    on512161   2.850   2.629   1.744 -0.4175 -0.1863 -0.4249
 1423ntf    on512162   2.751   2.847   1.700 -0.2959  0.2746 -0.7408
 1423ntf    fn412163   2.504   2.763   1.795 -0.7854 -0.1757 -0.2857
 1423ntf    fn412164   2.645   2.708   1.931  0.0155  0.4194 -0.4057
 1423ntf    fn412165   2.558   2.559   1.815  0.3273  0.1778 -0.6563
 1424ntf    cn112166   0.701   4.125   2.060 -0.0380 -0.5380  0.0395
 1424ntf    sn212167   0.813   4.010   1.974  0.4260 -0.0150 -0.0644
 1424ntf    nn312168   0.703   3.902   1.943  0.4318 -0.0766  0.1308
 1424ntf    sn212169   0.730   3.749   1.928 -0.1195 -0.1193 -0.4613
 1424ntf    cn112170   0.603   3.708   1.804 -0.2851 -0.0489 -0.3135
 1424ntf    fn412171   0.643   4.069   2.165 -0.3381 -0.3082 -0.0015
 1424ntf    fn412172   0.768   4.232   2.101 -0.4057 -0.2837 -0.0195
 1424ntf    fn412173   0.603   4.175   1.986  0.4722  0.4222 -0.0085
 1424ntf    on512174   0.856   4.094   1.865 -0.1843  0.1072 -0.2178
 1424ntf    on512175   0.907   3.979   2.078  0.0801  0.4641  0.3986
 1424ntf    on512176   0.853   3.714   1.859  0.5997  0.6864  0.3877
 1424ntf    on512177   0.687   3.672   2.042  0.3608 -0.2439 -0.3591
 1424ntf    fn412178   0.488   3.675   1.860 -0.2253 -0.0620 -0.1978
 1424ntf    fn412179   0.639   3.613   1.720  0.2668  0.4497 -0.6438
 1424ntf    fn412180   0.572   3.813   1.729 -0.5021 -0.1943 -0.4282
 1425ntf    cn112181   2.960   3.488   2.151  0.1848  0.1094 -0.3514
 1425ntf    sn212182   3.012   3.331   2.226 -0.1536 -0.0468 -0.4399
 1425ntf    nn312183   2.905   3.332   2.341 -0.0670 -0.1491 -0.3581
 1425ntf    sn212184   2.766   3.259   2.344 -0.0287 -0.2088  0.0269
 1425ntf    cn112185   2.688   3.362   2.472  0.4026  0.2218 -0.0551
 1425ntf    fn412186   2.928   3.580   2.240 -0.6975 -0.1028 -0.4406
 1425ntf    fn412187   3.058   3.539   2.078  0.0305  0.8445 -0.0494
 1425ntf    fn412188   2.857   3.473   2.069 -0.2395 -0.6298  0.2996
 1425ntf    on512189   2.986   3.233   2.124 -0.5893  0.1937 -0.5622
 1425ntf    on512190   3.148   3.355   2.269 -0.3208  0.5568 -0.2287
 1425ntf    on512191   2.669   3.274   2.239  0.3107 -0.2324 -0.2909
 1425ntf    on512192   2.769   3.134   2.416  0.2575 -0.2881 -0.1205
 1425ntf    fn412193   2.567   3.310   2.481  0.6932 -0.3310  0.7080
 1425ntf    fn412194   2.682   3.494   2.455 -0.5664  0.1782 -0.0992
 1425ntf    fn412195   2.744   3.340   2.589  0.0724  0.4830  0.1543
 1426ntf    cn112196   2.012   0.180   4.228  0.5045  0.4489 -0.0107
 1426ntf    sn212197   1.958   0.233   4.063  0.1556 -0.3125 -0.1440
 1426ntf    nn312198   1.846   0.125   4.043 -0.1261 -0.0852  0.1911
 1426ntf    sn212199   1.788   0.070   3.908 -0.3289 -0.0001  0.2424
 1426ntf    cn112200   1.756  -0.103   3.954 -0.2345 -0.1250 -0.1541
 1426ntf    fn412201   2.048   0.285   4.301 -0.4895  0.2037  0.8675
 1426ntf    fn412202   1.919   0.114   4.295  0.3349  0.2897 -0.4021
 1426ntf    fn412203   2.110   0.093   4.216  0.2685  0.1505  0.2045
 1426ntf    on512204   1.905   0.366   4.081 -0.2385 -0.4458 -0.3074
 1426ntf    on512205   2.082   0.224   3.991  0.3473 -0.0324  0.1491
 1426ntf    on512206   1.660   0.127   3.873 -0.3554 -0.2789 -0.1272
 1426ntf    on512207   1.887   0.062   3.803  0.0456 -0.1529  0.6025
 1426ntf    fn412208   1.677  -0.164   3.867  0.3071 -0.3954 -0.4605
 1426ntf    fn412209   1.694  -0.104   4.071 -0.2145  0.6619 -0.1326
 1426ntf    fn412210   1.863  -0.180   3.964 -0.3368 -0.3434 -0.7149
 1427ntf    cn112211   2.478   1.733   0.200 -0.0489 -0.1767  0.1282
 1427ntf    sn212212   2.500   1.557   0.241 -0.0984 -0.1952  0.0752
 1427ntf    nn312213   2.469   1.553   0.394 -0.0750 -0.5012  0.0733
 1427ntf    sn212214   2.565   1.587   0.514 -0.0252 -0.1849 -0.0555
 1427ntf    cn112215   2.475   1.715   0.606  0.2950  0.0604 -0.0802
 1427ntf    fn412216   2.514   1.756   0.075  0.0850 -0.0739  0.1864
 1427ntf    fn412217   2.357   1.783   0.214  0.0673  0.1877 -0.1723
 1427ntf    fn412218   2.555   1.806   0.279  0.5305 -0.8023  0.1592
 1427ntf    on512219   2.396   1.494   0.163 -0.7155  0.6193  0.2379
 1427ntf    on512220   2.636   1.520   0.208 -0.2460 -0.5029 -0.1932
 1427ntf    on512221   2.584   1.472   0.599  0.2525 -0.3197 -0.2951
 1427ntf    on512222   2.681   1.668   0.484 -0.5137  0.4849 -0.1671
 1427ntf    fn412223   2.436   1.820   0.536  1.0320  0.4956  0.1461
 1427ntf    fn412224   2.552   1.763   0.702 -0.6243  0.6086  0.3924
 1427ntf    fn412225   2.371   1.654   0.660  0.5404 -0.5286 -0.2653
 1428ntf    cn112226   3.969   1.384   5.010  0.1140 -0.3557 -0.1413
 1428ntf    sn212227   3.997   1.260   4.879 -0.1602 -0.2282 -0.3220
 1428ntf    nn312228   4.146   1.287   4.840 -0.0318 -0.1904  0.1841
 1428ntf    sn212229   4.211   1.394   4.745  0.2687 -0.7112 -0.1983
 1428ntf    cn112230   4.232   1.298   4.591 -0.3697 -0.5738 -0.3709
 1428ntf    fn412231   4.071   1.376   5.093 -0.2300  0.3181  0.3547
 1428ntf    fn412232   3.968   1.508   4.963  0.0593  0.1057  1.0409
 1428ntf    fn412233   3.852   1.367   5.070 -0.2285  0.0451 -0.6813
 1428ntf    on512234   3.984   1.133   4.946 -0.3065 -0.5193 -0.9036
 1428ntf    on512235   3.894   1.289   4.783 -0.3419 -0.5319 -0.2209
 1428ntf    on512236   4.134   1.513   4.720  0.5581 -0.3490  0.6000
 1428ntf    on512237   4.350   1.418   4.777  0.0882  0.0829 -0.0158
 1428ntf    fn412238   4.322   1.203   4.607 -0.0803 -0.2234  0.1028
 1428ntf    fn412239   4.261   1.375   4.488  0.2038 -0.0675  0.1588
 1428ntf    fn412240   4.118   1.232   4.573 -0.4988 -0.4184 -0.1357
 1429ntf    cn112241   1.295   4.421   3.848 -0.1457  0.1877 -0.0049
 1429ntf    sn212242   1.163   4.541   3.813 -0.1304  0.2301  0.0806
 1429ntf    nn312243   1.058   4.434   3.765 -0.0789  0.3172 -0.2322
 1429ntf    sn212244   0.963   4.435   3.640  0.0262  0.1540 -0.3139
 1429ntf    cn112245   1.032   4.297   3.546  0.3039  0.2060 -0.1864
 1429ntf    fn412246   1.396   4.477   3.912  0.0747  0.4996 -0.6202
 1429ntf    fn412247   1.245   4.326   3.925  0.7185 -0.3069 -0.0413
 1429ntf    fn412248   1.336   4.349   3.744 -0.5447 -0.8100  0.5138
 1429ntf    on512249   1.129   4.598   3.941 -0.0935  0.3755  0.0258
 1429ntf    on512250   1.207   4.642   3.719  0.2251 -0.3476 -0.3807
 1429ntf    on512251   0.829   4.385   3.656  0.2444 -0.4249 -0.2800
 1429ntf    on512252   0.975   4.551   3.555  0.2699  0.3332 -0.0370
 1429ntf    fn412253   1.054   4.188   3.619  0.1467  0.2009 -0.1480
 1429ntf    fn412254   1.149   4.331   3.493  0.3351  0.4919  0.0615
 1429ntf    fn412255   0.953   4.253   3.450  0.4430 -0.4034 -0.0311
 1430ntf    cn112256   4.286   6.434   3.605  0.0112  0.2668  0.0032
 1430ntf    sn212257   4.430   6.506   3.520  0.2166 -0.2198 -0.0658
 1430ntf    nn312258   4.369   6.650   3.504  0.0706 -0.1985  0.6373
 1430ntf    sn212259   4.335   6.726   3.370  0.1772 -0.1351  0.6461
 1430ntf    cn112260   4.450   6.864   3.397 -0.1661  0.2326  0.2194
 1430ntf    fn412261   4.175   6.460   3.538 -0.2255  0.0352  0.3032
 1430ntf    fn412262   4.294   6.302   3.600 -0.6448  0.2325 -0.2285
 1430ntf    fn412263   4.265   6.461   3.733 -0.3075  0.2632 -0.0473
 1430ntf    on512264   4.537   6.503   3.616 -0.5409  0.1376  0.8015
 1430ntf    on512265   4.432   6.437   3.393 -0.2592 -0.6448  0.1535
 1430ntf    on512266   4.387   6.678   3.245  0.3895  0.2075  0.6008
 1430ntf    on512267   4.210   6.797   3.374 -0.1215 -0.5874 -0.3160
 1430ntf    fn412268   4.412   6.924   3.509 -0.3003  0.3763  0.0982
 1430ntf    fn412269   4.425   6.956   3.305 -0.1981 -0.4965 -0.5097
 1430ntf    fn412270   4.578   6.834   3.395 -0.2923 -0.3004  0.1290
 1431ntf    cn112271   1.509   1.650   2.440 -0.1110 -0.0827 -0.3383
 1431ntf    sn212272   1.443   1.677   2.273  0.1348 -0.0634 -0.4335
 1431ntf    nn312273   1.549   1.588   2.200  0.4205 -0.1947  0.1346
 1431ntf    sn212274   1.551   1.436   2.160 -0.3376 -0.1817  0.0309
 1431ntf    cn112275   1.479   1.449   1.994 -0.0268 -0.0152 -0.0917
 1431ntf    fn412276   1.621   1.718   2.463 -0.1065 -0.2332  0.1077
 1431ntf    fn412277   1.427   1.696   2.534  0.1835  0.8314 -0.5155
 1431ntf    fn412278   1.531   1.524   2.473 -0.5240 -0.0291  0.1460
 1431ntf    on512279   1.305   1.637   2.287 -0.1009  0.9252  0.1353
 1431ntf    on512280   1.478   1.815   2.254  1.0796 -0.2377  0.0028
 1431ntf    on512281   1.684   1.382   2.142 -0.0265  0.3982  0.5459
 1431ntf    on512282   1.448   1.353   2.217  0.0328 -0.4301  0.3476
 1431ntf    fn412283   1.441   1.331   1.947 -0.1499  0.0200 -0.0810
 1431ntf    fn412284   1.562   1.498   1.903 -0.2042  0.8728  0.2195
 1431ntf    fn412285   1.368   1.521   1.995  0.0538  0.1050  0.2032
 1432ntf    cn112286   2.944   5.013   6.281  0.0850  0.0090 -0.5835
 1432ntf    sn212287   2.788   4.920   6.276  0.0740  0.0026 -0.1685
 1432ntf    nn312288   2.808   4.816   6.392 -0.0431  0.0337 -0.1191
 1432ntf    sn212289   2.703   4.732   6.472  0.1009  0.0665  0.1032
 1432ntf    cn112290   2.775   4.788   6.630  0.0403  0.0880  0.1227
 1432ntf    fn412291   3.056   4.944   6.266  0.1267 -0.0924  0.1592
 1432ntf    fn412292   2.954   5.110   6.192  0.4477  0.0501 -0.5010
 1432ntf    fn412293   2.959   5.071   6.399 -0.1977 -0.5525 -0.2686
 1432ntf    on512294   2.686   5.021   6.292 -0.4650 -0.5779  0.1091
 1432ntf    on512295   2.794   4.867   6.142 -0.2221  0.3261 -0.3102
 1432ntf    on512296   2.567   4.780   6.470  0.0271 -0.1670 -0.5461
 1432ntf    on512297   2.716   4.589   6.473 -0.3559  0.0225 -0.2258
 1432ntf    fn412298   2.873   4.708   6.670  0.0120 -0.2581 -0.4873
 1432ntf    fn412299   2.692   4.789   6.733 -0.0252  0.4196  0.0662
 1432ntf    fn412300   2.827   4.908   6.610 -0.9292  0.4916 -0.0632
 1433ntf    cn112301   2.198   0.369   4.697 -0.0142 -0.6043  0.0550
 1433ntf    sn212302   2.159   0.371   4.875 -0.0274  0.4130  0.0478
 1433ntf    nn312303   2.215   0.513   4.913  0.1195  0.2768  0.3400
 1433ntf    sn212304   2.350   0.560   4.978  0.1056  0.4454  0.2470
 1433ntf    cn112305   2.408   0.667   4.843 -0.0751  0.1391 -0.0761
 1433ntf    fn412306   2.329   0.379   4.682 -0.0783  0.6629  0.1944
 1433ntf    fn412307   2.160   0.253   4.647 -0.3217 -0.0490 -1.0308
 1433ntf    fn412308   2.147   0.473   4.632  0.2324 -0.0939  0.6663
 1433ntf    on512309   2.015   0.366   4.873 -0.0120  0.1331 -0.3231
 1433ntf    on512310   2.223   0.259   4.938 -0.0733  0.6448  0.5135
 1433ntf    on512311   2.342   0.643   5.096 -1.0057  0.0326  0.4775
 1433ntf    on512312   2.454   0.461   4.979 -0.4350 -0.1490 -0.7015
 1433ntf    fn412313   2.445   0.595   4.738  0.3047  0.0747  0.0972
 1433ntf    fn412314   2.513   0.741   4.876  0.4911 -0.2484 -0.9675
 1433ntf    fn412315   2.316   0.749   4.797 -0.2729 -0.2376 -0.3569
 1434ntf    cn112316   6.157   4.847   1.941 -0.0243 -0.1016 -0.1686
 1434ntf    sn212317   6.300   4.759   2.012  0.1413  0.4146  0.1411
 1434ntf    nn312318   6.399   4.772   1.891 -0.0058  0.2415  0.0011
 1434ntf    sn212319   6.387   4.700   1.753 -0.5900 -0.0520  0.1992
 1434ntf    cn112320   6.509   4.568   1.781 -0.2542  0.1634 -0.2239
 1434ntf    fn412321   6.061   4.867   2.029  0.2097 -0.2920  0.1327
 1434ntf    fn412322   6.198   4.970   1.916  0.7435 -0.1502  0.8081
 1434ntf    fn412323   6.120   4.809   1.819  0.3106  0.4705 -0.4543
 1434ntf    on512324   6.334   4.829   2.134  1.3570 -0.0632  0.0866
 1434ntf    on512325   6.262   4.621   2.026  0.1887  0.4472  0.6165
 1434ntf    on512326   6.268   4.624   1.726 -0.7980  0.4484 -0.3220
 1434ntf    on512327   6.444   4.781   1.647  0.0309  0.1432  0.6775
 1434ntf    fn412328   6.487   4.470   1.868  0.1283  0.3119  0.0448
 1434ntf    fn412329   6.625   4.616   1.824  0.0541 -0.9013  0.1799
 1434ntf    fn412330   6.549   4.511   1.669 -0.3362  0.1688 -0.2553
 1435ntf    cn112331   0.838   0.285   0.708  0.6684  0.1211 -0.3711
 1435ntf    sn212332   0.742   0.231   0.563  0.1847 -0.1057  0.0299
 1435ntf    nn312333   0.699   0.085   0.602 -0.0779 -0.2763 -0.8860
 1435ntf    sn212334   0.762  -0.055   0.567 -0.5082 -0.7154  0.0791
 1435ntf    cn112335   0.622  -0.165   0.607 -0.4224 -0.6014  0.7054
 1435ntf    fn412336   0.905   0.397   0.686  0.0465  0.4408 -0.6486
 1435ntf    fn412337   0.765   0.306   0.816  0.8891  0.3054 -0.2556
 1435ntf    fn412338   0.927   0.196   0.749  0.1539  0.0218  0.5524
 1435ntf    on512339   0.639   0.332   0.565  0.2690 -0.0115 -0.3338
 1435ntf    on512340   0.829   0.236   0.448  0.6190  0.4141  0.3762
 1435ntf    on512341   0.789  -0.069   0.426  0.3667  0.3931  0.1237
 1435ntf    on512342   0.859  -0.101   0.663  0.0552 -0.1263 -0.2021
 1435ntf    fn412343   0.614  -0.177   0.738  0.1020  0.3365  0.8353
 1435ntf    fn412344   0.646  -0.288   0.567  0.1543  0.0391 -1.0114
 1435ntf    fn412345   0.504  -0.134   0.556 -0.0764  0.0241  0.2659
 1436ntf    cn112346   5.189   2.164   0.013  0.2330 -0.2587 -0.1796
 1436ntf    sn212347   5.336   2.243   0.083 -0.1080  0.1088  0.1279
 1436ntf    nn312348   5.365   2.367  -0.009 -0.0653 -0.2313 -0.3178
 1436ntf    sn212349   5.307   2.512   0.005 -0.3030 -0.3475 -0.0878
 1436ntf    cn112350   5.337   2.584  -0.160  0.2999  0.3844  0.3331
 1436ntf    fn412351   5.175   2.035   0.042  0.0085 -0.0695  0.6013
 1436ntf    fn412352   5.083   2.227   0.061  0.3829 -0.3693  0.3092
 1436ntf    fn412353   5.187   2.177  -0.118 -0.3831  0.1180 -0.1361
 1436ntf    on512354   5.310   2.279   0.220 -0.5022  0.0540  0.0673
 1436ntf    on512355   5.435   2.140   0.066  0.2419  0.4467  0.0831
 1436ntf    on512356   5.164   2.525   0.008 -0.2427  0.2983  0.2854
 1436ntf    on512357   5.386   2.604   0.084 -0.3593 -0.1850 -0.2207
 1436ntf    fn412358   5.325   2.715  -0.154 -0.5891  0.3071  0.3665
 1436ntf    fn412359   5.245   2.540  -0.244  0.3134  0.5718  0.2188
 1436ntf    fn412360   5.457   2.559  -0.210 -0.2514 -0.1647 -0.7398
 1437ntf    cn112361   1.337   1.900   5.287 -0.2259 -0.0428  0.4181
 1437ntf    sn212362   1.378   1.786   5.423 -0.0727  0.0615  0.4598
 1437ntf    nn312363   1.261   1.681   5.424  0.0344 -0.0593  0.4363
 1437ntf    sn212364   1.225   1.565   5.523 -0.0959 -0.5227 -0.1506
 1437ntf    cn112365   1.236   1.434   5.397 -0.3881 -0.6308 -0.0638
 1437ntf    fn412366   1.433   1.990   5.277  0.0313 -0.4060 -0.5323
 1437ntf    fn412367   1.322   1.839   5.170 -0.5427  0.8137  0.0090
 1437ntf    fn412368   1.225   1.969   5.297 -0.2326 -0.0836  0.6241
 1437ntf    on512369   1.501   1.735   5.369  0.1681  0.0773  0.9904
 1437ntf    on512370   1.376   1.874   5.537 -0.5104  0.2463  0.3124
 1437ntf    on512371   1.335   1.540   5.613 -0.1750  0.0383  0.1095
 1437ntf    on512372   1.094   1.573   5.584 -0.1119 -0.5651 -0.1787
 1437ntf    fn412373   1.118   1.409   5.344 -0.4131 -0.5182 -0.0613
 1437ntf    fn412374   1.293   1.327   5.450  0.4450 -0.0669  0.2119
 1437ntf    fn412375   1.309   1.479   5.297 -0.5385  0.7292  0.4177
 1438ntf    cn112376   1.327   6.814   6.097  0.5371  0.3367  0.4316
 1438ntf    sn212377   1.406   6.954   6.013  0.1251  0.0683 -0.4073
 1438ntf    nn312378   1.327   7.079   6.065 -0.1722 -0.1719 -0.2837
 1438ntf    sn212379   1.223   7.170   5.991 -0.2093  0.0575  0.0469
 1438ntf    cn112380   1.262   7.330   6.069 -0.0244 -0.1240  0.3260
 1438ntf    fn412381   1.206   6.788   6.052  0.3479  0.7565  0.6949
 1438ntf    fn412382   1.398   6.702   6.090 -0.0001 -0.0090  0.4562
 1438ntf    fn412383   1.316   6.844   6.226 -0.4063 -0.4656  0.5476
 1438ntf    on512384   1.534   6.949   6.078  0.1815 -0.1910 -0.5358
 1438ntf    on512385   1.402   6.926   5.871  0.2551 -0.1045 -0.3769
 1438ntf    on512386   1.258   7.191   5.853  0.0828 -0.1370  0.0902
 1438ntf    on512387   1.089   7.129   6.026 -0.1738  0.0287  0.1487
 1438ntf    fn412388   1.180   7.424   6.025 -1.1555 -1.0603  0.3871
 1438ntf    fn412389   1.385   7.372   6.042 -0.2419  0.2586 -0.0711
 1438ntf    fn412390   1.252   7.321   6.201  0.2851  0.3954  0.3887
 1439ntf    cn112391   6.270   5.157   5.321  0.1542  0.1212  0.3968
 1439ntf    sn212392   6.236   5.200   5.494  0.2193  0.1621  0.3992
 1439ntf    nn312393   6.176   5.068   5.554  0.1656  0.2063  0.4424
 1439ntf    sn212394   6.248   4.966   5.649 -0.3927 -0.2974  0.3252
 1439ntf    cn112395   6.116   4.925   5.768 -0.3169 -0.0454  0.4974
 1439ntf    fn412396   6.172   5.091   5.262  0.1255  0.5264 -0.0182
 1439ntf    fn412397   6.299   5.263   5.248  0.0970  0.1020  0.3470
 1439ntf    fn412398   6.368   5.068   5.313  0.0942  0.0745  0.1824
 1439ntf    on512399   6.362   5.240   5.553  0.1380  0.4170  0.4006
 1439ntf    on512400   6.136   5.304   5.488  0.6650  0.5545 -0.4688
 1439ntf    on512401   6.289   4.845   5.582  0.5797  0.1454  0.1154
 1439ntf    on512402   6.350   5.024   5.733 -0.3179 -0.1688  0.1460
 1439ntf    fn412403   6.074   5.038   5.820  0.0869  0.2542  0.1808
 1439ntf    fn412404   6.158   4.850   5.868 -0.3677 -0.4633  0.2119
 1439ntf    fn412405   6.003   4.865   5.732 -0.5196  0.3938  0.3997
 1440ntf    cn112406   4.054   2.555   6.717 -0.2206 -0.1778 -0.4811
 1440ntf    sn212407   4.079   2.405   6.816 -0.3648 -0.1455 -0.3958
 1440ntf    nn312408   4.235   2.393   6.807 -0.2956  0.0055  0.5583
 1440ntf    sn212409   4.352   2.430   6.905  0.4451 -0.2361 -0.2264
 1440ntf    cn112410   4.414   2.268   6.960  0.1033 -0.3298 -0.1138
 1440ntf    fn412411   3.925   2.563   6.687 -0.3564 -0.0783  0.1106
 1440ntf    fn412412   4.100   2.667   6.770  0.3646 -0.0931 -1.1667
 1440ntf    fn412413   4.113   2.548   6.599 -0.3629  0.2724 -0.5811
 1440ntf    on512414   4.029   2.427   6.949 -0.2552 -0.7123 -0.2583
 1440ntf    on512415   4.010   2.307   6.735 -0.3621 -0.0279 -0.5399
 1440ntf    on512416   4.461   2.485   6.828  0.3670  0.5483  0.2135
 1440ntf    on512417   4.315   2.503   7.024 -0.0702  0.0302 -0.5480
 1440ntf    fn412418   4.502   2.278   7.059  0.1641 -0.5619 -0.1429
 1440ntf    fn412419   4.496   2.216   6.870  0.0775 -0.1294 -0.2560
 1440ntf    fn412420   4.332   2.171   6.996 -0.5582  0.0091 -0.6865
 1441ntf    cn112421   3.048   4.903   2.118  0.3154  0.5183  0.2452
 1441ntf    sn212422   3.120   4.784   2.235 -0.2525 -0.2975 -0.2247
 1441ntf    nn312423   3.005   4.682   2.269 -0.6024  0.1699 -0.0026
 1441ntf    sn212424   2.974   4.619   2.410 -0.4233  0.0879 -0.0002
 1441ntf    cn112425   2.990   4.447   2.353  0.5054  0.2022 -0.1048
 1441ntf    fn412426   2.928   4.944   2.158 -0.0830 -0.2079 -0.1788
 1441ntf    fn412427   3.129   5.005   2.096  0.2809  0.6843  0.8616
 1441ntf    fn412428   3.017   4.853   2.000  0.4652  0.2867  0.3029
 1441ntf    on512429   3.221   4.718   2.155  0.6837  0.3232  0.4251
 1441ntf    on512430   3.167   4.871   2.340 -0.9573  0.2413 -0.3480
 1441ntf    on512431   3.082   4.636   2.505  0.0560  0.6046 -0.6238
 1441ntf    on512432   2.837   4.629   2.452 -0.5440 -1.0341 -0.0939
 1441ntf    fn412433   3.120   4.428   2.333  0.6654  0.2925  0.8008
 1441ntf    fn412434   2.925   4.405   2.246  0.4670 -0.3931  0.1489
 1441ntf    fn412435   2.959   4.353   2.441 -0.2931  0.1597 -0.4261
 1442ntf    cn112436   2.300   1.790   1.754  0.5975  0.0585 -0.4032
 1442ntf    sn212437   2.200   1.870   1.883  0.3630 -0.7452 -0.0860
 1442ntf    nn312438   2.317   1.943   1.959 -0.0377 -0.8019  0.5981
 1442ntf    sn212439   2.295   2.059   2.063 -0.0231 -0.0008 -0.2721
 1442ntf    cn112440   2.352   1.968   2.210 -0.1972  0.4319  0.0644
 1442ntf    fn412441   2.382   1.880   1.700  0.2560  0.6854  0.1084
 1442ntf    fn412442   2.379   1.702   1.812 -0.1540 -0.4686 -0.1702
 1442ntf    fn412443   2.233   1.722   1.663  0.1337  0.0580 -0.0647
 1442ntf    on512444   2.112   1.950   1.803  0.3220 -0.2792  0.4185
 1442ntf    on512445   2.150   1.751   1.948 -0.3736 -0.5223 -0.2425
 1442ntf    on512446   2.391   2.167   2.060  0.1930 -0.1958 -0.5394
 1442ntf    on512447   2.158   2.095   2.086 -0.0957 -0.1732 -0.4301
 1442ntf    fn412448   2.318   2.034   2.319 -0.4261 -0.2083  0.3814
 1442ntf    fn412449   2.482   1.945   2.207 -0.3058 -0.2615  0.5619
 1442ntf    fn412450   2.292   1.850   2.214  0.3380  0.1717  0.6082
 1443ntf    cn112451   2.874   2.124   3.682  0.5817 -0.4209 -0.4387
 1443ntf    sn212452   2.780   2.056   3.542  0.0135 -0.5758  0.0123
 1443ntf    nn312453   2.878   2.068   3.419  0.7926  0.0974  0.6814
 1443ntf    sn212454   2.965   1.957   3.350 -0.1487 -0.1718 -0.1025
 1443ntf    cn112455   3.111   1.987   3.455  0.0237 -0.3624 -0.2883
 1443ntf    fn412456   2.976   2.046   3.714  0.3343 -0.5536  0.0389
 1443ntf    fn412457   2.917   2.248   3.664 -0.5578  0.1641  0.6599
 1443ntf    fn412458   2.797   2.135   3.789  0.9564  0.5556 -0.2588
 1443ntf    on512459   2.749   1.924   3.591  0.1154 -0.6141 -0.0249
 1443ntf    on512460   2.672   2.151   3.541  0.0105 -0.5764  0.2197
 1443ntf    on512461   2.923   1.821   3.371 -0.1350 -0.1467  0.0883
 1443ntf    on512462   3.018   1.998   3.222  0.0916 -0.8461 -0.2203
 1443ntf    fn412463   3.122   1.920   3.568  0.6432  0.3727  0.0923
 1443ntf    fn412464   3.112   2.113   3.495  0.9382 -0.4877  0.1127
 1443ntf    fn412465   3.230   1.982   3.396  0.6415  0.6511  0.8524
 1444ntf    cn112466   2.165   5.849   2.602 -0.2688  0.7608  0.3472
 1444ntf    sn212467   2.003   5.818   2.526  0.1327 -0.1181 -0.1800
 1444ntf    nn312468   1.941   5.708   2.618  0.3470 -0.1380 -0.0596
 1444ntf    sn212469   1.843   5.721   2.741  0.4095  0.1734 -0.0420
 1444ntf    cn112470   1.695   5.762   2.644  0.4910  0.1397 -0.1808
 1444ntf    fn412471   2.226   5.941   2.529 -0.3541  0.6832  0.1778
 1444ntf    fn412472   2.165   5.898   2.724 -0.3012  0.2867  0.5377
 1444ntf    fn412473   2.246   5.744   2.601 -0.1926  0.8195  0.2527
 1444ntf    on512474   1.933   5.944   2.520  0.4452  0.0939  0.4581
 1444ntf    on512475   2.030   5.750   2.402  0.5710  0.1343 -0.2263
 1444ntf    on512476   1.815   5.594   2.804 -0.2214  0.5045  0.3444
 1444ntf    on512477   1.869   5.839   2.819 -0.4507  0.1413  0.3010
 1444ntf    fn412478   1.717   5.730   2.517 -0.5729  0.5105 -0.4682
 1444ntf    fn412479   1.672   5.891   2.655 -0.1335  0.0305 -0.1767
 1444ntf    fn412480   1.591   5.694   2.688  0.8590 -0.5922 -0.4102
 1445ntf    cn112481   5.852   5.911   0.594 -0.2317 -0.0277 -0.1048
 1445ntf    sn212482   5.737   5.780   0.644 -0.3411  0.0520 -0.1477
 1445ntf    nn312483   5.823   5.653   0.610  0.0058  0.1870  0.2176
 1445ntf    sn212484   5.905   5.562   0.708  0.2055 -0.0343 -0.1544
 1445ntf    cn112485   5.789   5.437   0.768 -0.1984  0.3705 -0.0890
 1445ntf    fn412486   5.791   6.029   0.600 -0.0318  0.1128 -0.7001
 1445ntf    fn412487   5.945   5.917   0.687  0.0420  0.0468 -0.3789
 1445ntf    fn412488   5.911   5.896   0.476 -0.3792 -0.1875 -0.1591
 1445ntf    on512489   5.703   5.807   0.781 -0.0437  0.3363 -0.1283
 1445ntf    on512490   5.637   5.800   0.542  0.1306  0.7578 -0.4830
 1445ntf    on512491   6.000   5.473   0.646  0.0484 -0.4186  0.1581
 1445ntf    on512492   5.957   5.622   0.829  0.1646 -0.3500  0.0203
 1445ntf    fn412493   5.828   5.390   0.886  0.4162 -0.4904 -0.6248
 1445ntf    fn412494   5.764   5.334   0.689 -0.2474  0.1821  0.1700
 1445ntf    fn412495   5.673   5.498   0.789 -0.0538  0.5814  0.0983
 1446ntf    cn112496   2.133   5.885   1.559  0.0804  0.0503  0.1575
 1446ntf    sn212497   2.032   5.754   1.634 -0.5211  0.1684 -0.4338
 1446ntf    nn312498   1.882   5.800   1.636 -0.4040  0.5391  0.6205
 1446ntf    sn212499   1.751   5.731   1.585  0.1081  0.1815 -0.2312
 1446ntf    cn112500   1.697   5.650   1.738 -0.2673  0.6994 -0.0858
 1446ntf    fn412501   2.262   5.857   1.565 -0.0144 -0.3188  0.4724
 1446ntf    fn412502   2.094   5.907   1.434  0.3947 -0.0780  0.0361
 1446ntf    fn412503   2.119   6.003   1.617  0.4704  0.1706  0.0123
 1446ntf    on512504   2.058   5.639   1.551 -0.2938 -0.2801  0.2521
 1446ntf    on512505   2.086   5.757   1.768 -0.0657 -0.4635 -0.5983
 1446ntf    on512506   1.646   5.828   1.568  0.3973  0.5590  0.1251
 1446ntf    on512507   1.752   5.618   1.494 -0.0719 -0.0076  0.0014
 1446ntf    fn412508   1.791   5.570   1.787 -0.2891  0.1886 -0.8658
 1446ntf    fn412509   1.589   5.576   1.720  0.3641 -0.1891 -0.3445
 1446ntf    fn412510   1.681   5.750   1.824  0.4467  0.0598  0.8148
 1447ntf    cn112511   4.587   5.337   2.599  0.5939  0.3062 -0.4442
 1447ntf    sn212512   4.456   5.362   2.475  0.0671 -0.1654  0.0110
 1447ntf    nn312513   4.334   5.408   2.563  0.3973  0.1159  0.3254
 1447ntf    sn212514   4.282   5.552   2.597  0.3274  0.1001  0.2849
 1447ntf    cn112515   4.205   5.539   2.761  0.2361  0.1267  0.2444
 1447ntf    fn412516   4.693   5.272   2.555  0.3146 -0.8908  0.5725
 1447ntf    fn412517   4.621   5.455   2.649  0.1077  0.3194 -0.1294
 1447ntf    fn412518   4.543   5.276   2.708  0.1090  1.1364 -0.1660
 1447ntf    on512519   4.517   5.455   2.384 -0.0398 -0.4942 -0.4010
 1447ntf    on512520   4.438   5.226   2.430  0.7474 -0.2689  0.0371
 1447ntf    on512521   4.383   5.652   2.620 -0.0961  0.6870 -0.3566
 1447ntf    on512522   4.173   5.595   2.512 -0.0418 -0.3987  0.5051
 1447ntf    fn412523   4.144   5.653   2.786 -0.0989 -0.0404  0.1842
 1447ntf    fn412524   4.291   5.510   2.858  0.3235  0.6311  0.3218
 1447ntf    fn412525   4.118   5.440   2.752  0.3665  0.0281  0.0523
 1448ntf    cn112526   2.079   2.636   6.043 -0.2703  0.1492  0.3138
 1448ntf    sn212527   2.183   2.695   6.179  0.2508  0.0021 -0.0176
 1448ntf    nn312528   2.220   2.561   6.252  0.6775  0.1663  0.0711
 1448ntf    sn212529   2.139   2.490   6.366  0.2477  0.4451 -0.0600
 1448ntf    cn112530   2.228   2.563   6.506  0.3764  0.0571  0.0601
 1448ntf    fn412531   2.028   2.732   5.968 -0.4145 -0.0389  0.1683
 1448ntf    fn412532   2.147   2.552   5.966 -0.9909 -0.0828 -0.0857
 1448ntf    fn412533   1.976   2.566   6.087 -0.1339  0.1588  0.6485
 1448ntf    on512534   2.304   2.747   6.119  0.2846 -0.4999 -0.3862
 1448ntf    on512535   2.096   2.791   6.243  0.0074 -0.0817 -0.2207
 1448ntf    on512536   1.999   2.518   6.386  0.0035 -0.2239 -0.7742
 1448ntf    on512537   2.186   2.354   6.374  0.5617  0.5045 -0.8230
 1448ntf    fn412538   2.357   2.535   6.497  0.3933  0.2455 -0.2775
 1448ntf    fn412539   2.192   2.513   6.624  0.3680  0.3867  0.1985
 1448ntf    fn412540   2.213   2.693   6.524 -0.4491  0.0129 -0.3046
 1449ntf    cn112541   0.587   1.969   2.277 -0.0200 -0.1047  0.0612
 1449ntf    sn212542   0.599   2.148   2.246  0.0234 -0.0529  0.3688
 1449ntf    nn312543   0.749   2.163   2.292 -0.0604  0.0547  0.6081
 1449ntf    sn212544   0.851   2.281   2.279  0.1602 -0.1988 -0.0273
 1449ntf    cn112545   0.998   2.194   2.216 -0.2774 -0.4485 -0.7079
 1449ntf    fn412546   0.653   1.888   2.196  0.9555  0.7167  0.0011
 1449ntf    fn412547   0.633   1.943   2.399  0.3024  0.5176  0.0762
 1449ntf    fn412548   0.462   1.927   2.276 -0.1020  0.1400 -0.0941
 1449ntf    on512549   0.567   2.157   2.105  0.9386 -0.1313  0.1491
 1449ntf    on512550   0.501   2.209   2.332 -0.4567 -0.3199  0.0150
 1449ntf    on512551   0.824   2.373   2.172 -0.2814 -0.3580 -0.0527
 1449ntf    on512552   0.907   2.330   2.403  0.2813 -0.2613 -0.0563
 1449ntf    fn412553   1.040   2.098   2.297 -0.2294  0.2155  0.0652
 1449ntf    fn412554   1.097   2.276   2.184 -0.5630  0.1826 -0.0062
 1449ntf    fn412555   0.981   2.145   2.094 -0.6629 -0.4122 -0.6718
 1450ntf    cn112556   2.128   0.035   1.041  0.2242  0.0994  0.3582
 1450ntf    sn212557   2.094   0.138   0.895 -0.1548  0.0041  0.3780
 1450ntf    nn312558   2.129   0.030   0.787  0.7607 -0.0775  0.7475
 1450ntf    sn212559   2.174   0.053   0.638 -0.3295 -0.1702  0.3979
 1450ntf    cn112560   2.018   0.016   0.550  0.0862 -0.4577 -0.2261
 1450ntf    fn412561   2.254  -0.003   1.055  0.2220  0.4499  1.4299
 1450ntf    fn412562   2.097   0.096   1.155  0.6542  0.0615  0.4969
 1450ntf    fn412563   2.056  -0.075   1.032  0.0545  0.1874  0.6117
 1450ntf    on512564   1.957   0.183   0.897  0.0644  0.6897  0.3807
 1450ntf    on512565   2.193   0.243   0.902  0.1933 -0.2940 -0.0012
 1450ntf    on512566   2.194   0.192   0.605 -0.1849 -0.1173  0.7020
 1450ntf    on512567   2.257  -0.051   0.582 -0.0653  0.5209 -0.5109
 1450ntf    fn412568   2.035   0.013   0.419  0.0964  0.1927 -0.2455
 1450ntf    fn412569   1.927   0.110   0.567  0.0610 -0.5415  0.1100
 1450ntf    fn412570   1.973  -0.100   0.593 -0.5963 -0.1924 -0.2162
 1451ntf    cn112571   0.643   5.826   0.679  0.4936 -0.1618  0.4381
 1451ntf    sn212572   0.654   6.007   0.688  0.2300 -0.0945 -0.4861
 1451ntf    nn312573   0.516   6.040   0.622  0.1399  0.0880 -0.2112
 1451ntf    sn212574   0.375   6.060   0.688  0.1316 -0.0486 -0.1887
 1451ntf    cn112575   0.382   6.229   0.753 -0.2388 -0.1757  0.1867
 1451ntf    fn412576   0.598   5.789   0.561  0.0428  0.1676  0.5046
 1451ntf    fn412577   0.752   5.757   0.708  0.2213 -0.6386  0.3399
 1451ntf    fn412578   0.558   5.775   0.767  0.7602 -0.2133  0.6660
 1451ntf    on512579   0.672   6.034   0.829 -0.0438  0.4418 -0.5499
 1451ntf    on512580   0.767   6.045   0.606  0.2434 -0.3199 -0.5716
 1451ntf    on512581   0.286   6.074   0.575  0.0195 -0.3580 -0.1391
 1451ntf    on512582   0.349   5.962   0.791 -0.2963 -0.5632 -0.7740
 1451ntf    fn412583   0.445   6.310   0.670 -0.1958  0.0010  0.3889
 1451ntf    fn412584   0.450   6.228   0.867 -0.2640 -0.0305  0.2033
 1451ntf    fn412585   0.266   6.289   0.774  0.0582  0.3396  0.3880
 1452ntf    cn112586   4.976   0.467   4.414  0.0376  0.4100  0.1041
 1452ntf    sn212587   5.007   0.581   4.276  0.0398  0.0107 -0.2273
 1452ntf    nn312588   4.897   0.691   4.292 -0.0309 -0.1097  0.1413
 1452ntf    sn212589   4.894   0.846   4.264 -0.4205 -0.0797  0.3527
 1452ntf    cn112590   4.760   0.860   4.142  0.1872 -0.1349 -0.3234
 1452ntf    fn412591   4.853   0.419   4.407 -0.2426  1.1541 -0.1326
 1452ntf    fn412592   5.058   0.362   4.417 -0.1401  0.2635 -0.1867
 1452ntf    fn412593   4.993   0.529   4.530 -0.1961  0.1835  0.2606
 1452ntf    on512594   5.142   0.621   4.310 -0.0236 -0.4125  0.5604
 1452ntf    on512595   4.991   0.509   4.152 -0.7639 -0.1662 -0.0214
 1452ntf    on512596   4.846   0.921   4.378 -0.2579 -0.3664  0.6111
 1452ntf    on512597   4.997   0.904   4.183 -0.0007 -0.3253  0.7047
 1452ntf    fn412598   4.661   0.787   4.191  0.5277 -0.3624  0.0256
 1452ntf    fn412599   4.787   0.803   4.026 -0.1947 -0.6290 -0.1731
 1452ntf    fn412600   4.712   0.983   4.133 -0.4902 -0.3783 -0.0476
 1453ntf    cn112601   0.337   4.737   5.356 -0.1956  0.3426 -0.0316
 1453ntf    sn212602   0.280   4.596   5.455 -0.3050  0.1358 -0.3868
 1453ntf    nn312603   0.402   4.499   5.441  0.0576  0.5820 -0.3428
 1453ntf    sn212604   0.526   4.456   5.527 -0.4770 -0.2109  0.0494
 1453ntf    cn112605   0.653   4.476   5.398 -0.4841  0.2000  0.1038
 1453ntf    fn412606   0.416   4.808   5.434  0.3861 -0.0287 -0.2789
 1453ntf    fn412607   0.403   4.700   5.247 -0.3893  0.1681 -0.0900
 1453ntf    fn412608   0.236   4.818   5.328  0.0329  0.4137 -0.6565
 1453ntf    on512609   0.250   4.645   5.587  0.0089 -0.5362 -0.0636
 1453ntf    on512610   0.164   4.547   5.385  0.0619 -0.8824 -0.2981
 1453ntf    on512611   0.573   4.551   5.625 -0.4368  0.0804 -0.2505
 1453ntf    on512612   0.534   4.317   5.562 -0.6559 -0.2610 -0.1073
 1453ntf    fn412613   0.632   4.403   5.290 -0.0954  0.3003 -0.0427
 1453ntf    fn412614   0.773   4.442   5.442 -0.3818  0.0449 -0.2891
 1453ntf    fn412615   0.662   4.599   5.351  0.2188 -0.0102 -0.3371
 1454ntf    cn112616   3.940   0.115   4.107 -0.1988  0.0557  0.1654
 1454ntf    sn212617   4.023   0.099   3.947  0.4497 -0.0333  0.5084
 1454ntf    nn312618   4.141   0.201   3.962 -0.0269  0.5173  0.5459
 1454ntf    sn212619   4.286   0.171   4.014  0.0532 -0.4126 -0.1965
 1454ntf    cn112620   4.353   0.194   3.847 -0.3664  0.1500 -0.2869
 1454ntf    fn412621   3.890   0.238   4.108 -0.5120 -0.0720  0.3695
 1454ntf    fn412622   3.834   0.037   4.124 -0.3096  0.0590 -0.4948
 1454ntf    fn412623   4.023   0.095   4.208 -0.2022 -0.1364  0.1310
 1454ntf    on512624   4.047  -0.041   3.920  0.1676  0.0639 -0.2641
 1454ntf    on512625   3.929   0.163   3.859  0.3812  0.0648  0.6541
 1454ntf    on512626   4.353   0.269   4.096  0.4665 -0.7616 -0.1100
 1454ntf    on512627   4.310   0.031   4.043  0.3679 -0.2883  0.1553
 1454ntf    fn412628   4.484   0.181   3.837 -0.3398  0.4271 -0.3194
 1454ntf    fn412629   4.321   0.316   3.807  0.0772  0.3585 -0.0152
 1454ntf    fn412630   4.303   0.108   3.759  0.2416 -0.2764 -0.2217
 1455ntf    cn112631   0.581   2.155   4.851 -0.1380 -0.1323 -0.3803
 1455ntf    sn212632   0.587   2.334   4.818  0.1553 -0.1355 -0.3548
 1455ntf    nn312633   0.452   2.345   4.738 -0.1342 -0.0044  0.1480
 1455ntf    sn212634   0.444   2.377   4.584  0.0262 -0.3426  0.0690
 1455ntf    cn112635   0.385   2.548   4.599  0.0000 -0.3194 -0.3071
 1455ntf    fn412636   0.688   2.102   4.909 -0.5023 -0.6401 -0.1713
 1455ntf    fn412637   0.475   2.131   4.926  0.3833  0.2282  0.4847
 1455ntf    fn412638   0.565   2.092   4.735 -0.2460 -0.4310 -0.2028
 1455ntf    on512639   0.564   2.389   4.949 -0.1039  0.4673 -0.6511
 1455ntf    on512640   0.715   2.372   4.766  0.3054 -0.2226 -0.0515
 1455ntf    on512641   0.571   2.394   4.519 -0.3179 -0.7115 -0.7060
 1455ntf    on512642   0.338   2.306   4.517  0.1808 -0.2940 -0.2247
 1455ntf    fn412643   0.290   2.561   4.690  0.0473 -0.1027 -0.2874
 1455ntf    fn412644   0.325   2.598   4.492 -0.0019 -0.1942 -0.2476
 1455ntf    fn412645   0.481   2.632   4.633 -0.1846 -0.1863 -0.1145
 1456ntf    cn112646   1.560   5.636   5.302  0.2019 -0.1529 -0.2331
 1456ntf    sn212647   1.473   5.571   5.156 -0.1995 -0.0152 -0.0563
 1456ntf    nn312648   1.560   5.630   5.039 -0.0029 -0.0310  0.0803
 1456ntf    sn212649   1.521   5.644   4.887 -0.0669 -0.0646  0.0937
 1456ntf    cn112650   1.514   5.824   4.863  0.0822 -0.0907 -0.1474
 1456ntf    fn412651   1.551   5.552   5.404 -0.3824 -0.2036 -0.3249
 1456ntf    fn412652   1.690   5.656   5.291  0.3130 -0.3622  0.6512
 1456ntf    fn412653   1.504   5.751   5.337  0.6383  0.1236 -0.4280
 1456ntf    on512654   1.482   5.428   5.168  0.2337  0.0344  0.2419
 1456ntf    on512655   1.346   5.638   5.165 -0.2320 -0.1337  0.3554
 1456ntf    on512656   1.636   5.597   4.814  0.5940 -0.2074  1.1949
 1456ntf    on512657   1.396   5.594   4.835  0.1729  0.1867 -0.7270
 1456ntf    fn412658   1.453   5.850   4.749 -0.4508 -0.1245  0.1266
 1456ntf    fn412659   1.632   5.880   4.839 -0.0309  0.0439 -0.3853
 1456ntf    fn412660   1.447   5.893   4.954  0.7069 -0.5985  0.7209
 1457ntf    cn112661   3.897   3.568   6.519  0.4435 -0.2941 -0.2319
 1457ntf    sn212662   3.995   3.674   6.408  0.1807  0.0282 -0.1574
 1457ntf    nn312663   3.994   3.586   6.278  0.3639  0.3248 -0.3605
 1457ntf    sn212664   3.876   3.551   6.179  0.1391 -0.0303  0.0280
 1457ntf    cn112665   3.841   3.378   6.219 -0.2956  0.0442 -0.0267
 1457ntf    fn412666   3.896   3.609   6.645 -0.3214  0.0157 -0.3352
 1457ntf    fn412667   3.773   3.580   6.476  0.3599  0.3605  0.1756
 1457ntf    fn412668   3.926   3.440   6.507  0.4498 -0.3653  0.4771
 1457ntf    on512669   3.911   3.791   6.415  0.1010  0.0113 -0.7599
 1457ntf    on512670   4.120   3.669   6.478 -0.0908 -0.4917  0.2964
 1457ntf    on512671   3.753   3.621   6.209  0.3722  0.4053 -0.0160
 1457ntf    on512672   3.921   3.560   6.042 -0.2308  0.3195 -0.0734
 1457ntf    fn412673   3.944   3.295   6.214 -0.0282  0.3838 -0.1294
 1457ntf    fn412674   3.740   3.334   6.147 -0.0307 -0.2562 -0.2166
 1457ntf    fn412675   3.791   3.359   6.340  0.2313 -0.0695  0.1778
 1458ntf    cn112676   4.864   6.228   6.825 -0.0930  0.2287  0.3165
 1458ntf    sn212677   5.046   6.231   6.827 -0.0890  0.2188  0.0085
 1458ntf    nn312678   5.071   6.135   6.949  0.0135  0.1223 -0.0884
 1458ntf    sn212679   5.123   5.987   6.958  0.0288  0.1455  0.2182
 1458ntf    cn112680   5.304   5.997   6.970  0.0561  0.3194 -0.3179
 1458ntf    fn412681   4.817   6.111   6.787  0.7652  0.0626 -0.2638
 1458ntf    fn412682   4.822   6.248   6.949 -0.0370 -0.1977  0.4076
 1458ntf    fn412683   4.801   6.320   6.754  0.7279  0.4833 -0.0975
 1458ntf    on512684   5.090   6.188   6.697  0.3535  0.2760  0.1391
 1458ntf    on512685   5.074   6.370   6.852  0.1319  0.2201 -0.2375
 1458ntf    on512686   5.080   5.935   7.086  0.1918 -0.1097  0.1701
 1458ntf    on512687   5.106   5.897   6.846 -0.0625  0.6753 -0.1965
 1458ntf    fn412688   5.328   6.067   7.079  0.2498  0.1659 -0.2615
 1458ntf    fn412689   5.373   6.043   6.867  0.0345  0.2862 -0.3471
 1458ntf    fn412690   5.340   5.875   7.008 -0.2301  0.1964 -0.4346
 1459ntf    cn112691   4.551   5.596   1.549 -0.1852 -0.0032  0.3843
 1459ntf    sn212692   4.557   5.414   1.554  0.1795 -0.0030  0.0071
 1459ntf    nn312693   4.705   5.396   1.603  0.1249 -0.3760  0.0369
 1459ntf    sn212694   4.761   5.349   1.742  0.0745 -0.0799  0.1587
 1459ntf    cn112695   4.783   5.173   1.700  0.1573 -0.1290  0.4044
 1459ntf    fn412696   4.650   5.645   1.477 -0.0444 -0.4766  0.2499
 1459ntf    fn412697   4.433   5.626   1.499  0.0142 -0.4992 -0.3973
 1459ntf    fn412698   4.573   5.649   1.668  0.2281 -0.0594  0.3333
 1459ntf    on512699   4.450   5.389   1.648  0.2020  0.3944  0.1385
 1459ntf    on512700   4.547   5.361   1.420 -0.0162  0.5746 -0.2139
 1459ntf    on512701   4.895   5.399   1.757 -0.1200  0.4367  0.1823
 1459ntf    on512702   4.673   5.351   1.856  0.5257 -0.1972  0.5135
 1459ntf    fn412703   4.854   5.157   1.590  0.0437  0.0804  0.2990
 1459ntf    fn412704   4.664   5.119   1.677 -0.0344  0.3732  0.1951
 1459ntf    fn412705   4.831   5.096   1.796 -0.3549 -0.5794  0.3034
 1460ntf    cn112706   2.867   3.945   1.936 -0.1708  0.0684 -0.5442
 1460ntf    sn212707   2.848   4.032   1.778 -0.1527  0.2788 -0.4303
 1460ntf    nn312708   2.817   4.178   1.827  0.1831  0.2135 -0.0091
 1460ntf    sn212709   2.879   4.259   1.947 -0.0367  0.0725  0.1989
 1460ntf    cn112710   2.841   4.428   1.894 -0.7248 -0.1033  0.1129
 1460ntf    fn412711   2.885   3.814   1.933  0.0155  0.0746  0.1393
 1460ntf    fn412712   2.975   3.986   2.001 -0.2514 -0.0952 -0.3027
 1460ntf    fn412713   2.769   3.966   2.022 -0.5409 -0.6782 -0.7748
 1460ntf    on512714   2.985   4.022   1.734  0.0501  0.8037  0.0648
 1460ntf    on512715   2.748   3.954   1.711  0.2909 -0.7363  0.0794
 1460ntf    on512716   2.797   4.225   2.060 -0.0161  0.5260  0.3506
 1460ntf    on512717   3.022   4.256   1.963 -0.0151  0.1228  0.0225
 1460ntf    fn412718   2.911   4.460   1.786 -0.3950 -0.8182  0.1079
 1460ntf    fn412719   2.854   4.509   1.997 -0.0705 -0.3305  0.2183
 1460ntf    fn412720   2.716   4.444   1.855 -0.9170 -0.1405  0.7222
 1461ntf    cn112721   4.367   2.107   1.031  0.7169 -0.1473 -0.2641
 1461ntf    sn212722   4.264   2.219   0.932  0.2757 -0.1770  0.1564
 1461ntf    nn312723   4.344   2.353   0.931 -0.2009  0.1105  0.0178
 1461ntf    sn212724   4.364   2.459   0.816 -0.1309  0.0164 -0.0564
 1461ntf    cn112725   4.534   2.419   0.764 -0.1174 -0.1606  0.1177
 1461ntf    fn412726   4.299   2.002   1.075 -0.6621  0.8222 -0.0238
 1461ntf    fn412727   4.480   2.075   0.971  0.6139 -0.6129 -0.2132
 1461ntf    fn412728   4.413   2.173   1.136 -0.3497  0.4364 -0.1499
 1461ntf    on512729   4.270   2.147   0.806 -0.5388  0.2332 -0.1261
 1461ntf    on512730   4.141   2.214   1.008 -0.0052  0.3015 -0.2530
 1461ntf    on512731   4.289   2.440   0.694 -0.0105  0.1210 -0.1465
 1461ntf    on512732   4.371   2.588   0.879 -0.3558  0.3992 -0.8010
 1461ntf    fn412733   4.595   2.494   0.673  0.1423  0.3085  0.6723
 1461ntf    fn412734   4.546   2.292   0.729  0.6685 -0.0914  0.1152
 1461ntf    fn412735   4.622   2.425   0.862  0.1783  0.8401 -0.1876
 1462ntf    cn112736   1.089   3.778   5.549 -0.2735  0.0095 -0.2522
 1462ntf    sn212737   1.205   3.851   5.667 -0.2444 -0.1870 -0.1600
 1462ntf    nn312738   1.340   3.855   5.586 -0.2557 -0.1103 -0.1745
 1462ntf    sn212739   1.463   3.759   5.574  0.0610  0.2218  0.3826
 1462ntf    cn112740   1.446   3.724   5.396 -0.3035 -0.1088  0.4832
 1462ntf    fn412741   0.965   3.762   5.593 -0.0872  0.1643  0.3267
 1462ntf    fn412742   1.078   3.846   5.436  0.7145  0.3841 -0.1319
 1462ntf    fn412743   1.119   3.653   5.519  0.2987  0.0723  0.0493
 1462ntf    on512744   1.152   3.982   5.693 -0.2626 -0.1578 -0.3466
 1462ntf    on512745   1.203   3.757   5.777 -0.2000  0.4474  0.3960
 1462ntf    on512746   1.585   3.836   5.587  0.2093  0.1280 -0.3943
 1462ntf    on512747   1.451   3.629   5.634 -1.1807 -0.1338 -0.5853
 1462ntf    fn412748   1.559   3.680   5.344 -0.5284 -0.4731  0.3048
 1462ntf    fn412749   1.415   3.833   5.327  0.5413  0.0371  0.3226
 1462ntf    fn412750   1.350   3.636   5.372  0.2215 -0.6136  0.2189
 1463ntf    cn112751   3.989   2.937   4.470 -0.3168 -0.2629 -0.0150
 1463ntf    sn212752   4.135   2.871   4.382 -0.4820 -0.1666 -0.3617
 1463ntf    nn312753   4.249   2.953   4.453 -0.3525  0.0543 -0.8221
 1463ntf    sn212754   4.370   3.031   4.392 -0.1602 -0.2199 -0.7906
 1463ntf    cn112755   4.495   2.960   4.504  0.1131  0.4793 -0.6466
 1463ntf    fn412756   3.988   3.066   4.498  0.4160 -0.3447  0.4221
 1463ntf    fn412757   3.877   2.926   4.401 -0.1754 -0.3096 -0.2387
 1463ntf    fn412758   3.973   2.873   4.585 -0.4280  0.1101  0.1767
 1463ntf    on512759   4.129   2.731   4.414 -0.2136 -0.1273 -0.1372
 1463ntf    on512760   4.116   2.905   4.243 -0.4609  0.3676 -0.2383
 1463ntf    on512761   4.419   2.990   4.262  0.1164 -0.6446 -0.5574
 1463ntf    on512762   4.375   3.170   4.429 -0.5918 -0.3556 -0.2193
 1463ntf    fn412763   4.537   2.840   4.467  0.3886  0.2177  0.4800
 1463ntf    fn412764   4.456   2.947   4.630 -0.0903 -0.2452 -0.7765
 1463ntf    fn412765   4.599   3.041   4.516  0.0991  0.3686  0.2984
 1464ntf    cn112766   4.859   3.155   0.047 -0.2528 -0.0039 -0.0244
 1464ntf    sn212767   4.678   3.154   0.036 -0.2323 -0.1210 -0.3629
 1464ntf    nn312768   4.626   3.074   0.160  0.5633 -0.5370 -0.2934
 1464ntf    sn212769   4.677   3.081   0.309 -0.1108  0.1607 -0.0889
 1464ntf    cn112770   4.731   2.908   0.323 -0.5490  0.0705  0.5115
 1464ntf    fn412771   4.916   3.173  -0.071 -0.2250 -0.5842 -0.0985
 1464ntf    fn412772   4.895   3.259   0.122  0.3572  0.0661 -0.4036
 1464ntf    fn412773   4.909   3.043   0.097 -0.1537 -0.0533 -0.2338
 1464ntf    on512774   4.635   3.292   0.035 -0.1861 -0.1051 -0.0727
 1464ntf    on512775   4.667   3.078  -0.086 -0.3538 -0.1184 -0.3541
 1464ntf    on512776   4.803   3.149   0.328  0.4834 -1.0845  0.5717
 1464ntf    on512777   4.564   3.092   0.398 -0.5313 -0.8375 -0.4877
 1464ntf    fn412778   4.859   2.905   0.354 -0.4301  0.0780  0.0282
 1464ntf    fn412779   4.714   2.835   0.214  0.6975 -0.7628  0.8560
 1464ntf    fn412780   4.677   2.834   0.418  0.0382 -0.6411  0.2974
 1465ntf    cn112781   3.361   6.471   6.096  0.3905 -0.5047  0.3884
 1465ntf    sn212782   3.219   6.382   6.026  0.2852  0.1373 -0.2255
 1465ntf    nn312783   3.282   6.305   5.904  0.2011 -0.3782  0.0546
 1465ntf    sn212784   3.324   6.364   5.765 -0.2277  0.0223  0.0934
 1465ntf    cn112785   3.188   6.300   5.663 -0.4027  0.5254  0.0095
 1465ntf    fn412786   3.311   6.580   6.151  0.0305 -0.3092 -0.3209
 1465ntf    fn412787   3.433   6.404   6.185  0.4717  0.0232  0.7192
 1465ntf    fn412788   3.440   6.510   5.997 -0.0304  0.0714  0.2810
 1465ntf    on512789   3.172   6.295   6.131 -0.4092  0.1313 -0.5365
 1465ntf    on512790   3.139   6.500   6.006  0.2055  0.1988  0.4581
 1465ntf    on512791   3.305   6.506   5.750 -0.4086 -0.0186 -0.0724
 1465ntf    on512792   3.441   6.305   5.706 -0.5343 -0.3568 -0.1378
 1465ntf    fn412793   3.203   6.318   5.532  0.0439  0.1585  0.0098
 1465ntf    fn412794   3.071   6.351   5.698 -0.4036  0.4730  0.0812
 1465ntf    fn412795   3.173   6.172   5.691 -0.0217  0.5366  0.2719
 1466ntf    cn112796   1.294   5.416   5.717  0.2249 -0.0571 -0.0477
 1466ntf    sn212797   1.284   5.458   5.894  0.5787 -0.0052 -0.0401
 1466ntf    nn312798   1.428   5.423   5.945  0.5429  0.0736  0.1143
 1466ntf    sn212799   1.479   5.450   6.091  0.2673 -0.2357  0.2677
 1466ntf    cn112800   1.549   5.290   6.140  0.1714 -0.2216  0.4524
 1466ntf    fn412801   1.332   5.290   5.704 -0.2754 -0.2038 -0.1341
 1466ntf    fn412802   1.177   5.406   5.657  0.0259 -0.0610  0.3354
 1466ntf    fn412803   1.366   5.499   5.644 -0.7605  0.1063 -0.8585
 1466ntf    on512804   1.257   5.600   5.890 -0.6729 -0.2422 -0.2211
 1466ntf    on512805   1.177   5.373   5.938  0.6291  0.1915  0.4707
 1466ntf    on512806   1.595   5.536   6.085  0.3112 -0.2964  0.2475
 1466ntf    on512807   1.384   5.470   6.197  0.4411 -0.0719  0.3944
 1466ntf    fn412808   1.497   5.192   6.068  0.0947  0.1742 -0.0298
 1466ntf    fn412809   1.508   5.254   6.261  0.0731  0.6104  0.6673
 1466ntf    fn412810   1.681   5.272   6.139  0.1636 -0.2647 -0.4903
 1467ntf    cn112811   2.847   5.900   4.244  0.3330  0.0589  0.1890
 1467ntf    sn212812   2.797   5.754   4.147 -0.2032  0.0223  0.5183
 1467ntf    nn312813   2.765   5.649   4.259 -0.5764 -0.7762 -0.3241
 1467ntf    sn212814   2.875   5.564   4.334 -0.1256  0.1687  0.0986
 1467ntf    cn112815   2.815   5.398   4.290 -0.5539  0.2750  0.2719
 1467ntf    fn412816   2.742   5.971   4.280 -0.2571 -0.3147 -0.7543
 1467ntf    fn412817   2.924   5.868   4.347  0.0712 -0.4028  0.2445
 1467ntf    fn412818   2.914   5.984   4.166 -0.3898  0.7006  0.2558
 1467ntf    on512819   2.678   5.794   4.075 -0.2670  0.1806  0.7084
 1467ntf    on512820   2.910   5.731   4.061 -0.4773  0.1373  0.1206
 1467ntf    on512821   3.007   5.563   4.276 -0.1023 -0.0751  0.1579
 1467ntf    on512822   2.864   5.571   4.477  0.3550 -0.0408  0.1468
 1467ntf    fn412823   2.894   5.300   4.330 -0.0794  0.4692 -0.1786
 1467ntf    fn412824   2.790   5.383   4.161  0.3531  0.5349  0.0546
 1467ntf    fn412825   2.708   5.369   4.361 -0.1416 -0.3003  0.6700
 1468ntf    cn112826   1.362   3.800   6.201  0.3133  0.2303  0.0998
 1468ntf    sn212827   1.412   3.635   6.142  0.2473  0.2861 -0.1116
 1468ntf    nn312828   1.549   3.621   6.217 -0.0778 -0.2367  0.3893
 1468ntf    sn212829   1.696   3.649   6.169 -0.3230  0.4460  0.0240
 1468ntf    cn112830   1.774   3.736   6.309 -0.1784  0.1507  0.1292
 1468ntf    fn412831   1.469   3.870   6.236  0.5534  0.0179 -0.1985
 1468ntf    fn412832   1.287   3.853   6.107  0.2314  0.4250  0.2753
 1468ntf    fn412833   1.284   3.797   6.308  0.2696 -0.5149  0.0532
 1468ntf    on512834   1.313   3.552   6.205  0.3056 -0.3110 -0.7897
 1468ntf    on512835   1.415   3.638   5.998 -0.3686  0.2482 -0.1259
 1468ntf    on512836   1.756   3.518   6.173 -0.0333  0.5757 -0.0468
 1468ntf    on512837   1.719   3.743   6.063 -0.2052  0.5107  0.1060
 1468ntf    fn412838   1.732   3.862   6.309 -0.5435  0.0276  0.4715
 1468ntf    fn412839   1.906   3.738   6.297 -0.2098 -0.2281 -0.3286
 1468ntf    fn412840   1.745   3.684   6.427 -0.2255 -0.5341 -0.1817
 1469ntf    cn112841   5.647   1.808   4.637  0.1750 -0.3019 -0.1933
 1469ntf    sn212842   5.674   1.794   4.457  0.0627 -0.1333 -0.2224
 1469ntf    nn312843   5.565   1.888   4.393  0.4085  0.0509 -0.5488
 1469ntf    sn212844   5.571   2.044   4.382  0.0177  0.1235  0.1619
 1469ntf    cn112845   5.662   2.076   4.228 -0.0955  0.0181  0.0722
 1469ntf    fn412846   5.517   1.808   4.659  0.2430 -0.2453  0.1966
 1469ntf    fn412847   5.696   1.703   4.702  0.1117 -0.3101 -0.1580
 1469ntf    fn412848   5.699   1.916   4.692  0.8877 -0.5891 -0.2922
 1469ntf    on512849   5.813   1.830   4.443  0.1544 -0.4811 -0.1897
 1469ntf    on512850   5.642   1.658   4.423  0.1401 -0.3409  0.5105
 1469ntf    on512851   5.439   2.096   4.352 -0.0669 -0.3486 -0.2987
 1469ntf    on512852   5.645   2.108   4.487  0.6313 -0.7570  0.2675
 1469ntf    fn412853   5.584   2.023   4.136  0.4253 -0.4570 -0.1004
 1469ntf    fn412854   5.776   2.008   4.231 -0.0921 -0.0012 -0.4072
 1469ntf    fn412855   5.693   2.203   4.205 -0.2834 -0.0308 -0.4674
 1470ntf    cn112856   3.007   0.759   1.500 -0.1792 -0.0417  0.2249
 1470ntf    sn212857   3.058   0.586   1.475 -0.0401  0.0598 -0.2116
 1470ntf    nn312858   3.084   0.539   1.623 -0.4461 -0.5229 -0.3242
 1470ntf    sn212859   3.210   0.476   1.691 -0.1278 -0.2127 -0.6215
 1470ntf    cn112860   3.173   0.300   1.666 -0.6994 -0.3510  1.0720
 1470ntf    fn412861   2.895   0.770   1.569 -0.2374 -0.2214  0.1607
 1470ntf    fn412862   3.105   0.809   1.574  0.4812 -0.4805 -0.3363
 1470ntf    fn412863   3.003   0.834   1.391  0.6916 -0.0141  0.2034
 1470ntf    on512864   2.932   0.531   1.432 -0.1189 -0.2124  0.3613
 1470ntf    on512865   3.172   0.593   1.388  0.4823 -0.0438  0.4527
 1470ntf    on512866   3.336   0.500   1.625 -0.0241  0.1693 -0.2884
 1470ntf    on512867   3.204   0.477   1.835 -0.1767  0.9954 -0.6285
 1470ntf    fn412868   3.256   0.203   1.701 -0.4805 -0.4593  0.2655
 1470ntf    fn412869   3.130   0.276   1.543  0.3096  0.5046  0.5374
 1470ntf    fn412870   3.062   0.278   1.735 -0.4896 -0.4130  1.3891
 1471ntf    cn112871   5.887   2.181   0.701  0.0290  0.0913 -0.1520
 1471ntf    sn212872   6.018   2.144   0.581  0.1330 -0.3105  0.0874
 1471ntf    nn312873   5.985   2.258   0.479  0.3080 -0.3930 -0.0633
 1471ntf    sn212874   6.063   2.381   0.420  0.0930  0.0903  0.6344
 1471ntf    cn112875   6.165   2.289   0.300 -0.6032 -0.0971  0.1808
 1471ntf    fn412876   5.764   2.155   0.659 -0.1096 -0.1970  0.4239
 1471ntf    fn412877   5.890   2.120   0.818 -0.3286 -0.3741 -0.3834
 1471ntf    fn412878   5.894   2.312   0.723 -0.0712  0.0694  0.0144
 1471ntf    on512879   6.143   2.151   0.654  0.1647 -0.3576  0.0389
 1471ntf    on512880   5.962   2.024   0.524 -0.1376 -0.0936 -0.1007
 1471ntf    on512881   5.993   2.467   0.328 -0.4912 -0.4010  0.6078
 1471ntf    on512882   6.172   2.436   0.496  0.4316  0.1206  0.1332
 1471ntf    fn412883   6.232   2.190   0.356 -0.3063  0.1954  0.3442
 1471ntf    fn412884   6.260   2.361   0.243 -0.8516  0.3680  0.3443
 1471ntf    fn412885   6.095   2.232   0.203  0.3189 -0.5308 -0.2442
 1472ntf    cn112886   0.181   0.109   5.433 -0.0666  0.2314  0.0694
 1472ntf    sn212887   0.064  -0.005   5.513  0.2767 -0.1842 -0.0157
 1472ntf    nn312888  -0.074   0.037   5.451  0.2202  0.2953  0.4245
 1472ntf    sn212889  -0.168  -0.020   5.340  0.2312  0.1757  0.4768
 1472ntf    cn112890  -0.152   0.108   5.212  0.1067 -0.4678 -0.1948
 1472ntf    fn412891   0.305   0.094   5.478 -0.1572  0.2598  0.3293
 1472ntf    fn412892   0.177   0.084   5.303  0.2716 -0.4550  0.1866
 1472ntf    fn412893   0.148   0.237   5.433 -0.1330  0.2165  0.7086
 1472ntf    on512894   0.113  -0.137   5.483  0.3120 -0.2128  0.1661
 1472ntf    on512895   0.067   0.041   5.650 -0.6428 -0.0879 -0.0204
 1472ntf    on512896  -0.125  -0.145   5.281 -0.2029  0.6129 -0.8089
 1472ntf    on512897  -0.302  -0.011   5.392 -0.1118  0.4402 -0.4206
 1472ntf    fn412898  -0.037   0.106   5.148  0.1708 -0.3839 -0.0830
 1472ntf    fn412899  -0.154   0.228   5.267  0.4584 -0.6677  0.2592
 1472ntf    fn412900  -0.243   0.116   5.116 -0.2356  0.7295  0.2115
 1473ntf    cn112901   1.291   4.304   2.508  0.0828  0.6908  0.2465
 1473ntf    sn212902   1.359   4.444   2.413  0.1256  0.3490 -0.2289
 1473ntf    nn312903   1.306   4.551   2.515  0.2357 -0.6217  0.8672
 1473ntf    sn212904   1.380   4.679   2.568  0.1356 -0.1671 -0.0812
 1473ntf    cn112905   1.241   4.795   2.571  0.4378  0.1842  0.5073
 1473ntf    fn412906   1.300   4.189   2.445 -0.7450  0.7887 -0.0595
 1473ntf    fn412907   1.361   4.300   2.621  0.3347 -0.4876  0.0577
 1473ntf    fn412908   1.164   4.319   2.541 -0.1997  0.3050 -0.6666
 1473ntf    on512909   1.499   4.414   2.425  0.0819  0.3135  0.2500
 1473ntf    on512910   1.294   4.445   2.285 -0.1800 -0.3201 -0.0825
 1473ntf    on512911   1.423   4.659   2.704 -0.1792  0.3811  0.0996
 1473ntf    on512912   1.469   4.746   2.476  0.2114 -0.5432 -0.2861
 1473ntf    fn412913   1.143   4.748   2.646  0.2159 -0.1996 -0.0135
 1473ntf    fn412914   1.195   4.811   2.448  0.2945  0.0792  0.5470
 1473ntf    fn412915   1.282   4.917   2.603  0.2296  0.3721  0.0727
 1474ntf    cn112916   3.139   2.580   2.818 -0.2370  0.0671 -0.1605
 1474ntf    sn212917   3.269   2.521   2.930 -0.3457  0.0334 -0.0523
 1474ntf    nn312918   3.338   2.659   2.960  0.1205 -0.2128  0.0263
 1474ntf    sn212919   3.334   2.744   3.091  0.0013 -0.1599 -0.0114
 1474ntf    cn112920   3.314   2.907   3.013 -0.0134 -0.3881 -0.4860
 1474ntf    fn412921   3.036   2.497   2.816 -0.1975  0.0108  0.1590
 1474ntf    fn412922   3.087   2.691   2.868 -0.6100 -0.1033 -0.1641
 1474ntf    fn412923   3.183   2.613   2.697 -0.2475  0.6855 -0.0028
 1474ntf    on512924   3.197   2.454   3.035  0.2046 -0.8492 -0.2185
 1474ntf    on512925   3.358   2.443   2.846  0.0774  0.6278 -0.1668
 1474ntf    on512926   3.216   2.714   3.168 -0.2648  0.2757 -0.2414
 1474ntf    on512927   3.460   2.745   3.161 -0.0231  0.4142  0.0322
 1474ntf    fn412928   3.287   2.900   2.884 -0.2224  0.1422 -0.4746
 1474ntf    fn412929   3.425   2.979   3.017 -0.0469 -0.3757  0.3985
 1474ntf    fn412930   3.220   2.984   3.067  0.4110 -0.1897 -0.0269
 1475ntf    cn112931   2.832   6.373   2.690  0.4463  0.0701 -0.4884
 1475ntf    sn212932   2.756   6.496   2.800  0.3192 -0.3988 -0.0477
 1475ntf    nn312933   2.665   6.416   2.900 -0.2837  0.6325  0.2559
 1475ntf    sn212934   2.511   6.431   2.926 -0.3581  0.3760 -0.0238
 1475ntf    cn112935   2.502   6.375   3.099 -0.0017 -0.5279 -0.2897
 1475ntf    fn412936   2.903   6.438   2.599  0.0522  0.3184 -0.6258
 1475ntf    fn412937   2.896   6.277   2.754  0.3343 -0.0112 -0.4971
 1475ntf    fn412938   2.732   6.314   2.626  0.0680  0.4664 -0.2730
 1475ntf    on512939   2.871   6.556   2.862 -0.1483  0.1839  0.2691
 1475ntf    on512940   2.687   6.579   2.704  0.3666 -0.4397 -0.1172
 1475ntf    on512941   2.455   6.564   2.932 -0.7460  0.1958  0.4136
 1475ntf    on512942   2.425   6.340   2.855 -0.0394  0.5004 -0.5729
 1475ntf    fn412943   2.531   6.250   3.131 -0.6083 -0.2670  1.4179
 1475ntf    fn412944   2.377   6.395   3.138  0.3564  0.1983  0.5380
 1475ntf    fn412945   2.577   6.448   3.180 -0.0101 -0.4943 -0.3112
 1476ntf    cn112946   6.738   0.976   0.252 -0.1966 -0.4759  0.1079
 1476ntf    sn212947   6.656   0.817   0.219 -0.1013 -0.4904 -0.0596
 1476ntf    nn312948   6.508   0.840   0.267 -0.0383  0.2832 -0.2320
 1476ntf    sn212949   6.386   0.916   0.206 -0.0103  0.4941 -0.0273
 1476ntf    cn112950   6.292   0.771   0.149 -0.2689  0.4841  0.4211
 1476ntf    fn412951   6.869   0.963   0.245 -0.1093  0.4689 -0.1681
 1476ntf    fn412952   6.687   1.060   0.163  0.3895 -0.2113  0.0205
 1476ntf    fn412953   6.708   1.021   0.373 -0.5588  0.1877 -0.2225
 1476ntf    on512954   6.668   0.796   0.077  0.4114  0.2026 -0.1238
 1476ntf    on512955   6.729   0.724   0.302 -0.4350 -1.3315 -0.6803
 1476ntf    on512956   6.302   0.977   0.307 -0.0579  0.0464  0.2033
 1476ntf    on512957   6.409   0.996   0.088  0.4274  0.6105  0.1380
 1476ntf    fn412958   6.194   0.808   0.068  0.1558  0.1469 -0.2550
 1476ntf    fn412959   6.251   0.690   0.245 -0.2897  0.2255  0.1946
 1476ntf    fn412960   6.372   0.688   0.085 -0.5715  0.1151  0.5151
 1477ntf    cn112961   3.817   5.809   2.159  0.0925 -0.3090  0.0586
 1477ntf    sn212962   3.924   5.871   2.026 -0.3264 -0.1763 -0.2190
 1477ntf    nn312963   3.828   5.946   1.927 -0.5346 -0.3452 -0.1439
 1477ntf    sn212964   3.760   5.884   1.799 -0.1378 -0.2560 -0.3978
 1477ntf    cn112965   3.603   5.973   1.781 -0.1642 -0.3397 -0.5942
 1477ntf    fn412966   3.877   5.725   2.242  0.4034 -0.2010 -0.0539
 1477ntf    fn412967   3.773   5.905   2.238  0.0673 -0.1900 -0.0981
 1477ntf    fn412968   3.706   5.749   2.120  0.0218 -0.2465  0.1642
 1477ntf    on512969   4.013   5.961   2.096  0.0687 -0.3793 -0.4583
 1477ntf    on512970   3.995   5.755   1.978  0.5447 -0.0386  0.6893
 1477ntf    on512971   3.824   5.931   1.678 -0.9487  0.6826 -0.4674
 1477ntf    on512972   3.719   5.746   1.801 -0.7444 -0.0715  0.2056
 1477ntf    fn412973   3.528   5.965   1.890  0.1625  0.2837 -0.3124
 1477ntf    fn412974   3.538   5.924   1.677 -0.4460  0.3248 -0.7379
 1477ntf    fn412975   3.616   6.103   1.757  0.2981 -0.2036  0.3316
 1478ntf    cn112976   3.172   2.429   2.421  0.1849  0.0031  0.3350
 1478ntf    sn212977   3.026   2.320   2.417  0.1296  0.0931 -0.1458
 1478ntf    nn312978   2.901   2.412   2.395  0.3517  0.5099  0.3082
 1478ntf    sn212979   2.816   2.489   2.502 -0.5682 -0.0459 -0.0129
 1478ntf    cn112980   2.713   2.354   2.566 -0.0474 -0.3409  0.2093
 1478ntf    fn412981   3.202   2.473   2.301  0.2334 -0.3377  0.2207
 1478ntf    fn412982   3.145   2.535   2.496 -0.2053  0.3356 -0.2728
 1478ntf    fn412983   3.284   2.380   2.471  0.3524  0.1235  0.0769
 1478ntf    on512984   3.058   2.254   2.293 -0.7009 -0.3839 -0.1108
 1478ntf    on512985   3.030   2.236   2.535  0.3666  0.0459 -0.1863
 1478ntf    on512986   2.897   2.526   2.616 -0.3226 -0.2248 -0.1276
 1478ntf    on512987   2.725   2.581   2.438  0.1520  0.4362 -0.3555
 1478ntf    fn412988   2.642   2.303   2.467  0.4021  0.0514 -0.3150
 1478ntf    fn412989   2.631   2.384   2.666 -0.0217 -0.3668  0.2378
 1478ntf    fn412990   2.785   2.254   2.615  0.1652 -0.3518 -0.1244
 1479ntf    cn112991   0.247   5.164   2.751 -0.3829  0.0516 -0.4337
 1479ntf    sn212992   0.389   5.276   2.757 -0.2370 -0.1651  0.2132
 1479ntf    nn312993   0.336   5.395   2.669  0.0593 -0.0186  0.2284
 1479ntf    sn212994   0.349   5.406   2.513 -0.0172 -0.2952  0.2012
 1479ntf    cn112995   0.446   5.558   2.490 -0.3707 -0.0938  0.0459
 1479ntf    fn412996   0.185   5.185   2.636 -0.2874  0.0051 -0.4941
 1479ntf    fn412997   0.281   5.036   2.757  0.1388  0.2222  0.4825
 1479ntf    fn412998   0.160   5.193   2.847  0.2368  0.5015  0.0024
 1479ntf    on512999   0.404   5.320   2.894  0.1489 -0.3957  0.2460
 1479ntf    on513000   0.497   5.203   2.696 -0.2003 -0.1045  0.2050
 1479ntf    on513001   0.442   5.317   2.447 -0.2429 -0.2831 -0.1359
 1479ntf    on513002   0.223   5.427   2.446  0.1851  0.2595 -0.0129
 1479ntf    fn413003   0.572   5.542   2.527 -0.2571  0.2795 -0.1698
 1479ntf    fn413004   0.404   5.660   2.563  0.2486 -0.0559  0.3508
 1479ntf    fn413005   0.461   5.601   2.365 -0.1029 -0.6837 -0.1286
 1480ntf    cn113006   5.150   5.023   2.063  0.3864 -0.1355 -0.4490
 1480ntf    sn213007   5.175   4.862   2.144  0.0283  0.1640  0.2712
 1480ntf    nn313008   5.045   4.787   2.099  0.4261 -0.4475  0.1318
 1480ntf    sn213009   4.939   4.713   2.188 -0.1391  0.1272 -0.0561
 1480ntf    cn113010   4.931   4.551   2.106  0.2660  0.0867 -0.0153
 1480ntf    fn413011   5.233   5.031   1.961  1.2181 -0.2844  0.1962
 1480ntf    fn413012   5.026   5.050   2.027  0.0601 -0.4126  0.4222
 1480ntf    fn413013   5.174   5.132   2.136  0.2579 -0.4953  0.1417
 1480ntf    on513014   5.302   4.834   2.082 -0.0544  0.8536 -0.2269
 1480ntf    on513015   5.187   4.896   2.284 -0.4655 -0.0920  0.3743
 1480ntf    on513016   4.987   4.684   2.321  0.3921  1.1025 -0.0280
 1480ntf    on513017   4.805   4.765   2.173  0.0038  0.7686  0.7538
 1480ntf    fn413018   4.873   4.547   1.988  0.0732  0.0865  0.0799
 1480ntf    fn413019   4.868   4.457   2.174 -0.1384 -0.4058 -1.0630
 1480ntf    fn413020   5.055   4.504   2.099  0.4654  0.5844  0.1017
 1481ntf    cn113021   2.338   1.015   4.606  0.4424  0.2860  0.2110
 1481ntf    sn213022   2.352   1.123   4.461  0.1576  0.2181  0.1324
 1481ntf    nn313023   2.205   1.122   4.405  0.4332 -0.5397 -0.5826
 1481ntf    sn213024   2.125   1.042   4.296 -0.0693 -0.5192 -0.2272
 1481ntf    cn113025   2.148   1.141   4.146  0.1082  0.5847  0.5220
 1481ntf    fn413026   2.442   0.996   4.686  0.0284  0.1157  0.7143
 1481ntf    fn413027   2.254   1.058   4.699 -0.4281  0.0790 -0.4654
 1481ntf    fn413028   2.297   0.893   4.576  0.1137  0.4178  0.1208
 1481ntf    on513029   2.409   1.252   4.492  0.4996  0.2361 -0.5499
 1481ntf    on513030   2.442   1.048   4.378 -0.0098 -0.5687  0.6500
 1481ntf    on513031   2.187   0.918   4.257  0.0477 -0.3575 -0.5574
 1481ntf    on513032   1.981   1.051   4.306 -0.0313  0.1105 -0.2252
 1481ntf    fn413033   2.057   1.131   4.051  0.5429 -0.1253  0.1715
 1481ntf    fn413034   2.258   1.118   4.075 -0.3779 -0.1209 -0.0047
 1481ntf    fn413035   2.151   1.272   4.167 -0.3730  0.5697  0.6891
 1482ntf    cn113036   4.524   5.093   4.082 -0.1956 -0.3801  0.4791
 1482ntf    sn213037   4.354   5.057   4.027 -0.0675 -0.1713 -0.0574
 1482ntf    nn313038   4.385   4.966   3.904 -0.0183  0.5847 -0.6117
 1482ntf    sn213039   4.324   4.962   3.759 -0.5497 -0.0332 -0.3768
 1482ntf    cn113040   4.291   4.784   3.734 -0.0415 -0.1999  0.1220
 1482ntf    fn413041   4.606   5.159   4.003 -0.4448  0.0387  0.5700
 1482ntf    fn413042   4.517   5.167   4.192  0.4802 -0.2837  0.4575
 1482ntf    fn413043   4.597   4.997   4.137  0.6433 -0.0000  0.0333
 1482ntf    on513044   4.304   4.979   4.138 -0.8958 -0.2007 -0.4442
 1482ntf    on513045   4.292   5.185   4.005 -0.5129 -0.3649  0.0597
 1482ntf    on513046   4.190   5.015   3.752 -0.7839 -0.5809 -0.1483
 1482ntf    on513047   4.414   4.992   3.650  0.4114 -0.6210  0.2381
 1482ntf    fn413048   4.243   4.758   3.614  0.0024  0.1269  0.0322
 1482ntf    fn413049   4.201   4.743   3.821 -0.7573 -0.1857 -0.6035
 1482ntf    fn413050   4.402   4.713   3.749 -0.3156 -0.6376  0.0696
 1483ntf    cn113051   1.246   0.116   4.342  0.1817  0.2722  0.0159
 1483ntf    sn213052   1.360   0.055   4.470  0.0151 -0.4441 -0.1712
 1483ntf    nn313053   1.404  -0.080   4.403  0.2204 -0.6608  0.3949
 1483ntf    sn213054   1.330  -0.215   4.435 -0.7719 -0.1163  0.4273
 1483ntf    cn113055   1.443  -0.282   4.561 -0.3585  0.0024  0.1218
 1483ntf    fn413056   1.291   0.121   4.218  0.0287 -0.1499 -0.0588
 1483ntf    fn413057   1.138   0.040   4.328  0.3285  0.0502  0.0836
 1483ntf    fn413058   1.200   0.238   4.362 -0.9243 -0.1563  0.1966
 1483ntf    on513059   1.470   0.147   4.456 -0.4604  0.0724 -0.5427
 1483ntf    on513060   1.284   0.057   4.592  1.0506  0.1564  0.4780
 1483ntf    on513061   1.198  -0.205   4.492 -0.9238  1.0124 -0.0920
 1483ntf    on513062   1.350  -0.314   4.332  0.2609  0.1825  0.3307
 1483ntf    fn413063   1.399  -0.402   4.594  0.0096 -0.2150 -0.1723
 1483ntf    fn413064   1.454  -0.207   4.669 -0.2022  0.0188  0.0946
 1483ntf    fn413065   1.568  -0.306   4.524 -0.3785  0.5672 -0.3295
 1484ntf    cn113066   5.934   6.625   5.435 -0.6002  0.1375 -0.1769
 1484ntf    sn213067   5.950   6.733   5.580 -0.6417 -0.2290  0.1001
 1484ntf    nn313068   5.962   6.615   5.683 -0.3745 -0.3502 -0.0705
 1484ntf    sn213069   5.912   6.613   5.832 -0.2365  0.4461 -0.0133
 1484ntf    cn113070   5.777   6.492   5.825  0.0610  0.0558  0.8687
 1484ntf    fn413071   5.953   6.699   5.327  0.1915  0.1018 -0.0665
 1484ntf    fn413072   6.032   6.536   5.434 -0.8276 -0.1175  0.0214
 1484ntf    fn413073   5.820   6.558   5.439 -0.3272 -0.3251 -0.0229
 1484ntf    on513074   6.073   6.803   5.552 -0.2325 -0.9312  0.1122
 1484ntf    on513075   5.821   6.796   5.587 -0.3907  0.2455  0.4856
 1484ntf    on513076   6.007   6.545   5.916 -0.5686  0.4838  0.3968
 1484ntf    on513077   5.844   6.723   5.896  0.0078  0.0454  0.9602
 1484ntf    fn413078   5.694   6.492   5.927 -0.7746  0.2154  0.1991
 1484ntf    fn413079   5.834   6.373   5.815  0.5160  0.3573 -0.3836
 1484ntf    fn413080   5.691   6.491   5.724  0.3178  0.2198  0.6479
 1485ntf    cn113081   5.675   5.946   2.993 -0.0668  0.2453 -0.1728
 1485ntf    sn213082   5.548   5.955   2.862  0.1167 -0.1472 -0.3802
 1485ntf    nn313083   5.589   6.096   2.806  0.3486 -0.0204  0.0965
 1485ntf    sn213084   5.694   6.130   2.693 -0.2168  0.0225 -0.4198
 1485ntf    cn113085   5.589   6.126   2.545 -0.6875 -0.1563 -0.0848
 1485ntf    fn413086   5.657   5.828   3.050 -0.0539  0.2634 -0.1311
 1485ntf    fn413087   5.795   5.960   2.941  0.0643  0.4852  0.1962
 1485ntf    fn413088   5.651   6.036   3.087 -0.4019 -0.0138 -0.0039
 1485ntf    on513089   5.563   5.836   2.783  0.3630  0.0824 -0.6793
 1485ntf    on513090   5.431   5.984   2.941  0.5407  0.3561  0.0758
 1485ntf    on513091   5.722   6.270   2.707 -0.2306 -0.0623  0.5695
 1485ntf    on513092   5.802   6.040   2.664  0.2009  0.4180 -0.0977
 1485ntf    fn413093   5.659   6.133   2.433  0.0329 -0.2507  0.3544
 1485ntf    fn413094   5.502   6.224   2.532  0.3222  0.6949 -0.5364
 1485ntf    fn413095   5.518   6.015   2.532 -0.2938 -0.4355  0.1348
 1486ntf    cn113096   1.897   6.380   6.112 -0.1695  0.4740 -0.1135
 1486ntf    sn213097   1.770   6.270   6.181  0.4869 -0.1145  0.1775
 1486ntf    nn313098   1.707   6.205   6.053  0.1898  0.2474  0.1361
 1486ntf    sn213099   1.578   6.259   5.983  0.2797  0.4641  0.1380
 1486ntf    cn113100   1.438   6.172   6.060  0.1521 -0.0157 -0.6277
 1486ntf    fn413101   1.980   6.421   6.208  0.4865  0.2926 -0.5979
 1486ntf    fn413102   1.965   6.318   6.017 -0.0046 -0.0439  0.3369
 1486ntf    fn413103   1.849   6.493   6.063 -0.5763  0.6660  0.7050
 1486ntf    on513104   1.844   6.172   6.256  0.0098 -0.3617  0.3307
 1486ntf    on513105   1.688   6.362   6.255 -0.2475 -0.7917  0.2212
 1486ntf    on513106   1.558   6.399   6.012 -0.6679  0.5071 -0.6474
 1486ntf    on513107   1.565   6.206   5.850 -0.1849 -0.5977  0.5951
 1486ntf    fn413108   1.322   6.222   6.020 -0.1755 -0.2158  0.0560
 1486ntf    fn413109   1.440   6.150   6.190 -0.6313  0.1945 -0.5761
 1486ntf    fn413110   1.433   6.044   6.025 -0.2146 -0.3476  0.5914
 1487ntf    cn113111   1.032   0.418   6.612 -0.2177 -0.2074 -0.0270
 1487ntf    sn213112   1.087   0.292   6.731 -0.4470 -0.0811  0.2130
 1487ntf    nn313113   1.238   0.332   6.746 -0.2820 -0.6583  0.0928
 1487ntf    sn213114   1.364   0.256   6.692  0.1713  0.1222  0.0491
 1487ntf    cn113115   1.459   0.400   6.633 -0.2041  0.3649  0.0383
 1487ntf    fn413116   0.916   0.394   6.553 -0.2505  0.2370 -0.1457
 1487ntf    fn413117   1.015   0.536   6.669 -0.9718 -0.3208 -0.0070
 1487ntf    fn413118   1.111   0.442   6.508 -0.2171  0.0096  0.0233
 1487ntf    on513119   1.009   0.342   6.841 -0.0179 -0.0237  0.4913
 1487ntf    on513120   1.051   0.162   6.679 -0.4240  0.0563 -0.1520
 1487ntf    on513121   1.438   0.207   6.806 -0.9670  0.0760  0.7770
 1487ntf    on513122   1.342   0.175   6.575  0.3684  0.1840 -0.0325
 1487ntf    fn413123   1.575   0.347   6.598 -0.7010 -0.3801 -0.5075
 1487ntf    fn413124   1.468   0.497   6.723 -0.6808  0.3345  0.1252
 1487ntf    fn413125   1.425   0.448   6.515 -0.0790  0.1503 -0.0850
 1488ntf    cn113126   4.707   2.608   5.622  0.2349  0.2231 -0.1070
 1488ntf    sn213127   4.574   2.730   5.600  0.1436  0.1342 -0.0502
 1488ntf    nn313128   4.658   2.863   5.602  0.5939 -0.1439 -0.2727
 1488ntf    sn213129   4.690   2.957   5.723  0.0141 -0.1020 -0.1476
 1488ntf    cn113130   4.606   3.108   5.666  0.1371  0.1246  0.2632
 1488ntf    fn413131   4.656   2.486   5.632  0.8377  0.0143  0.5354
 1488ntf    fn413132   4.796   2.594   5.525  0.0945  0.1760 -0.2303
 1488ntf    fn413133   4.781   2.621   5.731 -0.1601 -0.4247  0.2431
 1488ntf    on513134   4.512   2.708   5.472 -0.7951  0.1153  0.4012
 1488ntf    on513135   4.478   2.704   5.705  0.0663 -1.1868 -0.4302
 1488ntf    on513136   4.637   2.941   5.856  0.3747  0.1466  0.0292
 1488ntf    on513137   4.825   3.005   5.707  0.1551 -0.7230 -0.8065
 1488ntf    fn413138   4.669   3.175   5.571  0.3729 -0.1003  0.2596
 1488ntf    fn413139   4.575   3.195   5.761 -0.0579  0.5265 -0.1668
 1488ntf    fn413140   4.490   3.075   5.611  0.3800 -0.4625  0.0957
 1489ntf    cn113141   2.152   1.476   5.508 -0.0651 -0.0341  0.4141
 1489ntf    sn213142   2.067   1.325   5.455 -0.0887  0.0384  0.2461
 1489ntf    nn313143   1.935   1.381   5.390 -0.4695 -0.6635  0.3967
 1489ntf    sn213144   1.867   1.338   5.256  0.3797 -0.1113 -0.2237
 1489ntf    cn113145   1.717   1.440   5.271  0.6926  0.3022  0.1059
 1489ntf    fn413146   2.264   1.441   5.571 -0.1839 -0.6344  0.2972
 1489ntf    fn413147   2.173   1.565   5.413  0.1724 -0.5507 -0.0219
 1489ntf    fn413148   2.080   1.533   5.604 -0.4549  0.4381 -0.1570
 1489ntf    on513149   2.162   1.274   5.359 -0.4361 -0.3634  0.1119
 1489ntf    on513150   2.051   1.243   5.573  0.1870  0.0300  0.2773
 1489ntf    on513151   1.930   1.394   5.139 -0.3837 -0.1963 -0.6828
 1489ntf    on513152   1.823   1.201   5.248  0.0083 -0.0382  0.5109
 1489ntf    fn413153   1.737   1.570   5.289 -0.0576  0.4332  0.0294
 1489ntf    fn413154   1.635   1.394   5.364  0.2187  0.5722 -0.1781
 1489ntf    fn413155   1.648   1.431   5.159 -0.3543 -0.6446  0.7984
 1490ntf    cn113156   1.962   4.528   5.442  0.6639  0.4672  0.0114
 1490ntf    sn213157   2.009   4.660   5.326  0.1675  0.5107 -0.1433
 1490ntf    nn313158   1.925   4.610   5.203 -0.0977 -0.9687  0.6053
 1490ntf    sn213159   1.966   4.530   5.074  0.1728 -0.2344  0.2277
 1490ntf    cn113160   1.841   4.399   5.074 -0.3082  0.2199  0.1585
 1490ntf    fn413161   1.994   4.531   5.570  0.3602 -0.2701  0.1131
 1490ntf    fn413162   1.830   4.525   5.452  0.6962  0.5938  0.5037
 1490ntf    fn413163   2.004   4.409   5.402 -0.3252  0.1381 -0.0673
 1490ntf    on513164   1.948   4.776   5.387 -0.7804 -0.0396 -0.0212
 1490ntf    on513165   2.151   4.658   5.303  0.1390 -0.5150 -0.2869
 1490ntf    on513166   1.951   4.607   4.953  1.0309 -0.4664 -0.0300
 1490ntf    on513167   2.085   4.450   5.083  0.3823  0.0120 -0.3012
 1490ntf    fn413168   1.850   4.332   5.188  0.1347 -0.3377 -0.2036
 1490ntf    fn413169   1.866   4.309   4.980 -0.0513  0.3883  0.0671
 1490ntf    fn413170   1.713   4.432   5.065 -0.2466  0.4618  0.1814
 1491ntf    cn113171   3.865   2.581   2.323 -0.2167 -0.1594  0.4908
 1491ntf    sn213172   3.914   2.746   2.380 -0.2858  0.0538 -0.0663
 1491ntf    nn313173   3.978   2.712   2.519 -0.4269  0.1717  0.0274
 1491ntf    sn213174   4.116   2.773   2.564 -0.1293 -0.3504 -0.1753
 1491ntf    cn113175   4.125   2.709   2.734 -0.3519 -0.2977 -0.1429
 1491ntf    fn413176   3.775   2.535   2.408 -0.5990  0.5334  0.4643
 1491ntf    fn413177   3.807   2.579   2.204  0.2812  0.6747  0.2285
 1491ntf    fn413178   3.968   2.497   2.322  0.5261  0.7296  0.3930
 1491ntf    on513179   4.003   2.790   2.274 -0.1717  0.0431  0.0250
 1491ntf    on513180   3.788   2.814   2.395 -0.2008  0.2115 -0.0610
 1491ntf    on513181   4.228   2.711   2.497 -0.0210  0.3018 -0.6009
 1491ntf    on513182   4.111   2.916   2.577  0.3627 -0.2648 -0.8426
 1491ntf    fn413183   4.121   2.578   2.717 -0.7003 -0.3665  0.4467
 1491ntf    fn413184   4.019   2.750   2.802 -0.3974  0.3411 -0.5913
 1491ntf    fn413185   4.230   2.729   2.812 -0.3268  0.2568 -0.3182
 1492ntf    cn113186   0.706   5.645   3.330  0.2577 -0.3071  0.2889
 1492ntf    sn213187   0.536   5.642   3.394  0.1266  0.2778 -0.0239
 1492ntf    nn313188   0.562   5.636   3.549 -0.3823 -0.3358  0.0402
 1492ntf    sn213189   0.454   5.604   3.659 -0.6307  0.5296  0.0498
 1492ntf    cn113190   0.303   5.688   3.602 -0.9003  0.1982  0.2741
 1492ntf    fn413191   0.726   5.644   3.200  0.3814  0.5250  0.2926
 1492ntf    fn413192   0.778   5.747   3.375 -0.0568 -0.1332  0.4007
 1492ntf    fn413193   0.763   5.532   3.369 -0.1643 -0.7550 -0.3744
 1492ntf    on513194   0.478   5.763   3.342 -0.4912 -0.1367 -0.3129
 1492ntf    on513195   0.491   5.516   3.340 -0.0995  0.4374 -0.2086
 1492ntf    on513196   0.419   5.465   3.674  0.5428  0.3088  0.8405
 1492ntf    on513197   0.489   5.679   3.777  0.2100 -0.1433  0.2377
 1492ntf    fn413198   0.258   5.638   3.489  0.1711 -0.7278  0.2423
 1492ntf    fn413199   0.308   5.820   3.593 -0.2961  0.1407 -0.3092
 1492ntf    fn413200   0.204   5.660   3.685 -0.9086  0.4453  0.3480
 1493ntf    cn113201   4.877   4.708   2.911 -0.3792 -0.1509 -0.2496
 1493ntf    sn213202   4.875   4.796   3.070 -0.5642 -0.1838 -0.2333
 1493ntf    nn313203   4.788   4.925   3.048 -0.0142  0.2361  0.0475
 1493ntf    sn213204   4.634   4.958   3.051 -0.0374  0.0998  0.3658
 1493ntf    cn113205   4.650   5.115   2.961  0.3345 -0.1648 -0.0329
 1493ntf    fn413206   4.960   4.763   2.824 -0.1049 -0.3636 -0.1248
 1493ntf    fn413207   4.897   4.577   2.914 -0.4609 -0.1635 -0.2529
 1493ntf    fn413208   4.758   4.719   2.854 -0.4411 -0.1738 -0.1247
 1493ntf    on513209   4.808   4.709   3.163  0.6570  0.5347  1.3677
 1493ntf    on513210   5.012   4.829   3.098 -0.6276 -0.0276 -0.1047
 1493ntf    on513211   4.537   4.880   2.979 -0.6673  1.1328  0.0697
 1493ntf    on513212   4.609   4.996   3.188 -0.5835 -0.0427  0.3072
 1493ntf    fn413213   4.744   5.192   3.014 -0.1266  0.1314  0.3609
 1493ntf    fn413214   4.530   5.171   2.951  0.2871 -0.3509 -0.5243
 1493ntf    fn413215   4.691   5.091   2.838 -0.4116  0.2615 -0.3749
 1494ntf    cn113216   4.721   2.451   6.111  0.0258 -0.1909  0.2671
 1494ntf    sn213217   4.751   2.602   6.209  0.0414 -0.0446  0.0394
 1494ntf    nn313218   4.905   2.619   6.187  0.0103  0.0122 -0.1308
 1494ntf    sn213219   4.986   2.733   6.115  0.1495  0.1837  0.2888
 1494ntf    cn113220   5.041   2.825   6.261 -0.5437  0.2883  0.4891
 1494ntf    fn413221   4.799   2.349   6.141  0.1402 -0.1152  0.2287
 1494ntf    fn413222   4.596   2.414   6.130 -0.1266 -0.0146 -0.3821
 1494ntf    fn413223   4.741   2.472   5.982  0.0937 -0.4368  0.2379
 1494ntf    on513224   4.680   2.709   6.144 -0.5525 -0.6576 -0.3401
 1494ntf    on513225   4.709   2.580   6.346 -0.0165  0.3651  0.0883
 1494ntf    on513226   5.108   2.676   6.064 -0.0452  0.3444 -0.3707
 1494ntf    on513227   4.920   2.835   6.037 -0.5188 -0.0949  0.4870
 1494ntf    fn413228   5.109   2.930   6.217  0.0540 -0.3043 -0.0257
 1494ntf    fn413229   5.129   2.765   6.340 -0.0669  0.0105 -0.2432
 1494ntf    fn413230   4.939   2.868   6.334 -0.8271  0.2331  0.1272
 1495ntf    cn113231   1.641   5.308   4.200  0.8496 -0.0150  0.2087
 1495ntf    sn213232   1.822   5.297   4.187  0.8435 -0.0730  0.1707
 1495ntf    nn313233   1.854   5.310   4.034 -0.5884  0.3678 -0.1087
 1495ntf    sn213234   1.905   5.432   3.949  0.2338 -0.0266 -0.1913
 1495ntf    cn113235   1.742   5.475   3.880  0.0209 -0.4871  0.0190
 1495ntf    fn413236   1.586   5.206   4.135  0.4332 -0.0167  0.5603
 1495ntf    fn413237   1.598   5.306   4.325  0.5224 -0.1547  0.0960
 1495ntf    fn413238   1.598   5.420   4.144 -0.2270 -0.3614  0.3215
 1495ntf    on513239   1.872   5.403   4.271 -0.1430  0.2022  0.4271
 1495ntf    on513240   1.849   5.161   4.227  0.4776 -0.1343  0.2144
 1495ntf    on513241   1.950   5.556   4.007 -0.6616  0.2392 -0.0427
 1495ntf    on513242   1.978   5.374   3.839 -0.2461 -0.3226 -0.3588
 1495ntf    fn413243   1.685   5.369   3.825 -0.3024 -0.1873 -0.2232
 1495ntf    fn413244   1.755   5.559   3.779 -0.4363 -0.7614 -0.2710
 1495ntf    fn413245   1.660   5.527   3.970 -0.5057 -0.7351 -0.3135
 1496ntf    cn113246   2.189   1.687   3.025 -0.5221  0.0308  0.2085
 1496ntf    sn213247   2.071   1.668   2.888  0.0092 -0.0396 -0.2466
 1496ntf    nn313248   2.013   1.524   2.915  0.4837 -0.1193  0.3900
 1496ntf    sn213249   1.870   1.474   2.956  0.1561  0.2103 -0.3294
 1496ntf    cn113250   1.816   1.404   2.797 -0.1216  0.0236 -0.1545
 1496ntf    fn413251   2.256   1.801   3.014 -0.2221 -0.1976 -0.3479
 1496ntf    fn413252   2.137   1.677   3.146 -0.4685 -0.4725  0.1892
 1496ntf    fn413253   2.279   1.590   3.026  0.3725  0.8419  0.0637
 1496ntf    on513254   1.969   1.767   2.912  0.2590  0.0853  0.3195
 1496ntf    on513255   2.149   1.671   2.767  0.7213 -0.7435  0.1803
 1496ntf    on513256   1.894   1.355   3.033 -0.1169 -0.2748 -0.9843
 1496ntf    on513257   1.767   1.567   2.995  0.2667 -0.3187  1.2648
 1496ntf    fn413258   1.768   1.283   2.820 -1.0534  0.5372  0.6784
 1496ntf    fn413259   1.915   1.382   2.711 -0.0683 -0.4352  0.0205
 1496ntf    fn413260   1.734   1.485   2.731  0.1084  0.1769 -0.2553
 1497ntf    cn113261   6.310   3.142   4.293 -0.1858 -0.0660 -0.3172
 1497ntf    sn213262   6.423   3.011   4.349 -0.1259  0.1616  0.1010
 1497ntf    nn313263   6.456   2.941   4.212  0.7480 -0.1604  0.4696
 1497ntf    sn213264   6.586   2.966   4.128  0.2416  0.1958 -0.2118
 1497ntf    cn113265   6.695   2.852   4.217 -0.0210  0.0835 -0.0317
 1497ntf    fn413266   6.303   3.247   4.374 -0.2460 -0.6439  0.4370
 1497ntf    fn413267   6.364   3.191   4.182  0.1479  0.6044  0.1283
 1497ntf    fn413268   6.188   3.100   4.266 -0.6583  0.5116  0.8243
 1497ntf    on513269   6.532   3.078   4.417  0.5807 -0.4969 -0.3723
 1497ntf    on513270   6.339   2.928   4.432  0.2911 -0.1344  0.2274
 1497ntf    on513271   6.571   2.915   3.993 -0.5420  0.6820 -0.3151
 1497ntf    on513272   6.635   3.100   4.142 -0.8672  0.5427  0.4797
 1497ntf    fn413273   6.764   2.902   4.318  0.8285 -0.0795 -0.5214
 1497ntf    fn413274   6.787   2.809   4.132  0.4113 -0.1384  0.5410
 1497ntf    fn413275   6.633   2.742   4.257 -0.1104  0.0929 -0.1446
 1498ntf    cn113276   0.345   6.107   1.696 -0.0950 -0.1417  0.0383
 1498ntf    sn213277   0.224   5.986   1.636 -0.2099 -0.0236  0.0327
 1498ntf    nn313278   0.322   5.869   1.600 -0.1543 -0.0001  0.1058
 1498ntf    sn213279   0.338   5.786   1.467  0.6446  0.1242  0.1223
 1498ntf    cn113280   0.449   5.651   1.516  0.1638 -0.5025 -0.5047
 1498ntf    fn413281   0.385   6.069   1.816  0.2036  0.0862  0.0124
 1498ntf    fn413282   0.457   6.120   1.626  0.2141  0.0540  0.5588
 1498ntf    fn413283   0.296   6.228   1.716 -0.3302 -0.2346  0.0270
 1498ntf    on513284   0.139   5.937   1.743  0.0163 -0.3879  0.0481
 1498ntf    on513285   0.167   6.046   1.518  0.5682 -0.4634 -0.5719
 1498ntf    on513286   0.217   5.724   1.419  0.8457 -0.1196 -0.0686
 1498ntf    on513287   0.426   5.858   1.378  1.0039 -0.4010  0.0460
 1498ntf    fn413288   0.567   5.692   1.561 -0.4461  0.0202  0.6661
 1498ntf    fn413289   0.481   5.581   1.408 -0.0040  0.4510 -1.1839
 1498ntf    fn413290   0.396   5.563   1.599  0.2219 -0.0157  0.0579
 1499ntf    cn113291   3.506   2.763   4.103 -0.2194 -0.1493  0.2170
 1499ntf    sn213292   3.523   2.932   4.167  0.3917 -0.0618 -0.1607
 1499ntf    nn313293   3.515   3.010   4.031  0.3719 -0.1568 -0.2144
 1499ntf    sn213294   3.539   3.161   3.995  0.1222 -0.0749 -0.0403
 1499ntf    cn113295   3.406   3.200   3.877  0.0780 -0.2245 -0.0408
 1499ntf    fn413296   3.600   2.726   4.018 -0.0549  0.9184 -0.0782
 1499ntf    fn413297   3.503   2.668   4.195 -0.6713 -0.5088 -0.1649
 1499ntf    fn413298   3.388   2.745   4.046  0.1367 -0.5103 -0.4193
 1499ntf    on513299   3.423   2.961   4.268  0.5475  0.2175 -0.0849
 1499ntf    on513300   3.658   2.933   4.216  0.2395 -0.3689  0.2763
 1499ntf    on513301   3.526   3.260   4.099 -0.0840 -0.4949  0.3373
 1499ntf    on513302   3.659   3.181   3.917  0.2368 -0.4178  0.0430
 1499ntf    fn413303   3.414   3.123   3.771 -0.7851  0.1407 -0.3819
 1499ntf    fn413304   3.410   3.325   3.834 -0.5035 -0.2977 -0.3158
 1499ntf    fn413305   3.286   3.195   3.931 -0.0387  0.1516 -0.2604
 1500ntf    cn113306   2.896   4.075   6.695 -0.2195 -0.2823  0.5371
 1500ntf    sn213307   2.913   4.238   6.775 -0.2236 -0.0128 -0.0095
 1500ntf    nn313308   2.810   4.212   6.890 -0.3807  0.2613 -0.0869
 1500ntf    sn213309   2.831   4.177   7.042 -0.2585  0.2796 -0.0994
 1500ntf    cn113310   2.767   4.330   7.115  0.3290  0.4582  0.0499
 1500ntf    fn413311   2.992   4.058   6.606 -0.3336 -0.2434  0.4059
 1500ntf    fn413312   2.902   3.977   6.784  0.9461 -0.2327  0.5215
 1500ntf    fn413313   2.781   4.069   6.629  0.1054  0.3553 -0.1019
 1500ntf    on513314   3.053   4.235   6.812 -0.2171  0.1297 -0.0228
 1500ntf    on513315   2.876   4.333   6.673  0.4593  0.0010 -0.2557
 1500ntf    on513316   2.746   4.068   7.084 -0.2795  0.3167 -0.0451
 1500ntf    on513317   2.969   4.170   7.083 -0.1295 -0.2106 -0.6070
 1500ntf    fn413318   2.783   4.330   7.246  0.4847 -0.3182  0.0353
 1500ntf    fn413319   2.641   4.365   7.091  0.3288 -0.0138 -0.6861
 1500ntf    fn413320   2.841   4.425   7.061  0.0160  0.3053 -0.6622
 1501ntf    cn113321   2.708   3.417   6.420  0.4144 -0.3880 -0.2743
 1501ntf    sn213322   2.807   3.517   6.536 -0.3729  0.0139  0.0605
 1501ntf    nn313323   2.904   3.598   6.442 -0.1859  0.2263  0.4348
 1501ntf    sn213324   3.048   3.651   6.472  0.0635 -0.1149 -0.1565
 1501ntf    cn113325   3.045   3.805   6.374 -0.1935 -0.2844 -0.4163
 1501ntf    fn413326   2.762   3.298   6.399  0.2212 -0.4315 -0.5243
 1501ntf    fn413327   2.584   3.401   6.465  0.3768  0.0874 -0.2031
 1501ntf    fn413328   2.699   3.483   6.306  0.2366  0.1296  0.0353
 1501ntf    on513329   2.711   3.605   6.599 -0.4944 -0.0012 -0.1018
 1501ntf    on513330   2.863   3.411   6.615 -0.2906 -0.1830 -0.2625
 1501ntf    on513331   3.072   3.696   6.607 -0.4347 -0.3859  0.0234
 1501ntf    on513332   3.151   3.574   6.406  0.8317  0.8080 -0.0525
 1501ntf    fn413333   3.020   3.779   6.247 -0.2884  0.1848 -0.4925
 1501ntf    fn413334   3.158   3.873   6.381 -0.3498 -0.0606 -0.0742
 1501ntf    fn413335   2.947   3.884   6.413  0.1878 -0.0295  0.0337
 1502ntf    cn113336   0.697   5.148   5.172  0.0199 -0.2559  0.5141
 1502ntf    sn213337   0.696   5.328   5.203  0.1957 -0.0655 -0.5467
 1502ntf    nn313338   0.718   5.310   5.357 -0.1978  0.6951 -0.4016
 1502ntf    sn213339   0.726   5.433   5.455 -0.0538  0.3027  0.0836
 1502ntf    cn113340   0.905   5.427   5.486 -0.0519  0.1191  0.0396
 1502ntf    fn413341   0.715   5.119   5.044 -0.6801  0.3222  0.2722
 1502ntf    fn413342   0.788   5.088   5.246  0.4982 -0.1024  0.0522
 1502ntf    fn413343   0.581   5.092   5.201 -0.1078 -0.2950 -0.0678
 1502ntf    on513344   0.814   5.382   5.139  0.4025  0.3622  0.1839
 1502ntf    on513345   0.567   5.377   5.163  0.0759 -0.1699 -0.2905
 1502ntf    on513346   0.702   5.558   5.388 -0.3936  0.2552  0.1174
 1502ntf    on513347   0.666   5.420   5.585  0.0284 -0.7489  0.0210
 1502ntf    fn413348   0.947   5.538   5.545 -0.2953 -0.1117  0.6578
 1502ntf    fn413349   0.981   5.414   5.378  0.2263 -0.2776  0.2786
 1502ntf    fn413350   0.946   5.331   5.567 -0.1242 -0.2149 -0.3206
 1503ntf    cn113351   1.215   2.468   4.191  0.0828 -0.0662  0.1921
 1503ntf    sn213352   1.330   2.603   4.151 -0.1260  0.0656  0.0281
 1503ntf    nn313353   1.240   2.680   4.048 -0.5705 -0.0817  0.3043
 1503ntf    sn213354   1.198   2.831   4.057 -0.1540  0.0677 -0.1929
 1503ntf    cn113355   1.048   2.831   4.160  0.0999  0.2132  0.1790
 1503ntf    fn413356   1.234   2.406   4.306 -0.0847  0.2130  0.3705
 1503ntf    fn413357   1.087   2.502   4.195  0.1498  0.1261  0.7572
 1503ntf    fn413358   1.213   2.378   4.094  0.0163  0.5573 -0.3935
 1503ntf    on513359   1.350   2.672   4.276  0.2195 -0.1970  0.1221
 1503ntf    on513360   1.444   2.533   4.096  0.2113  0.0938  0.6793
 1503ntf    on513361   1.287   2.925   4.119  0.0182 -0.4740  0.3882
 1503ntf    on513362   1.144   2.868   3.928  0.4027 -0.3906 -0.5617
 1503ntf    fn413363   0.991   2.947   4.188 -0.4657 -0.0209  0.0251
 1503ntf    fn413364   1.079   2.778   4.278 -0.2310 -0.1632  0.1022
 1503ntf    fn413365   0.952   2.757   4.106 -0.0082  0.4599  0.0358
 1504ntf    cn113366   5.449   4.668   4.638 -0.3166  0.2031 -0.3071
 1504ntf    sn213367   5.560   4.804   4.685 -0.1991  0.0267 -0.0694
 1504ntf    nn313368   5.684   4.713   4.716  0.0274  0.2265 -0.3890
 1504ntf    sn213369   5.835   4.754   4.727  0.2360 -0.6752  0.1965
 1504ntf    cn113370   5.859   4.748   4.907  0.2690  0.4896  0.2419
 1504ntf    fn413371   5.436   4.579   4.736 -0.1092  0.1855 -0.2952
 1504ntf    fn413372   5.327   4.699   4.597 -0.4666 -0.3412 -0.2798
 1504ntf    fn413373   5.503   4.612   4.531 -0.2962  0.2335 -0.3126
 1504ntf    on513374   5.567   4.875   4.560  0.1591  0.6437  0.2930
 1504ntf    on513375   5.498   4.874   4.795  0.2113  0.0837  0.1290
 1504ntf    on513376   5.915   4.647   4.673  0.2868 -0.4338 -0.2145
 1504ntf    on513377   5.872   4.890   4.696  0.3577 -0.7451  0.0349
 1504ntf    fn413378   5.768   4.811   4.978 -0.1264  0.0827  0.1018
 1504ntf    fn413379   5.978   4.787   4.950  0.4038  0.4614 -0.1026
 1504ntf    fn413380   5.844   4.624   4.953  0.6675  0.3074 -0.1112
 1505ntf    cn113381   5.121   4.889   5.565 -0.3258 -0.1677 -0.4021
 1505ntf    sn213382   5.150   5.042   5.470  0.0023 -0.1261 -0.2374
 1505ntf    nn313383   5.304   5.051   5.498 -0.0765 -0.1044  0.1918
 1505ntf    sn213384   5.373   5.136   5.612  0.1686 -0.0602  0.0126
 1505ntf    cn113385   5.417   5.280   5.511  0.0078 -0.1051 -0.1231
 1505ntf    fn413386   5.125   4.907   5.696  0.0523 -0.2206 -0.4033
 1505ntf    fn413387   5.005   4.828   5.547 -0.5936  0.3202 -0.3404
 1505ntf    fn413388   5.209   4.796   5.532  0.1831  0.2094 -0.1200
 1505ntf    on513389   5.124   4.997   5.336 -0.9599  0.3645 -0.2234
 1505ntf    on513390   5.072   5.143   5.536 -0.1868  0.0537 -0.7330
 1505ntf    on513391   5.293   5.177   5.725  0.8618 -0.0907  0.5172
 1505ntf    on513392   5.504   5.085   5.645 -0.1695 -0.7341  0.3562
 1505ntf    fn413393   5.519   5.259   5.429  0.0183  0.6783 -0.3210
 1505ntf    fn413394   5.443   5.391   5.578 -0.7726 -0.0297  0.0647
 1505ntf    fn413395   5.311   5.317   5.440  0.0802 -0.0510 -0.2041
 1506ntf    cn113396   4.583   5.394   0.383 -0.2984  0.2611 -0.0190
 1506ntf    sn213397   4.557   5.423   0.560  0.0204 -0.2319  0.1099
 1506ntf    nn313398   4.434   5.332   0.595  0.1709 -0.5421 -0.1736
 1506ntf    sn213399   4.424   5.209   0.692 -0.0295 -0.2752  0.1463
 1506ntf    cn113400   4.275   5.260   0.781 -0.2841 -0.3513 -0.2323
 1506ntf    fn413401   4.479   5.439   0.314 -0.1740 -0.1283 -0.4669
 1506ntf    fn413402   4.685   5.464   0.336  0.2455 -0.0319  0.7200
 1506ntf    fn413403   4.596   5.265   0.355 -0.3733  0.0634  0.8409
 1506ntf    on513404   4.682   5.387   0.623  0.1553  0.2318  0.1128
 1506ntf    on513405   4.531   5.565   0.556  0.0282 -0.2197  0.4288
 1506ntf    on513406   4.377   5.086   0.633  0.4429 -0.0155 -0.7962
 1506ntf    on513407   4.520   5.201   0.799  0.1821  0.2266 -0.0015
 1506ntf    fn413408   4.291   5.378   0.838 -0.4321 -0.3389 -0.2171
 1506ntf    fn413409   4.245   5.177   0.880  0.2412  0.0681  0.2834
 1506ntf    fn413410   4.170   5.265   0.700 -0.4542 -0.5404 -0.0272
 1507ntf    cn113411   2.582   6.364   5.501 -0.0051 -0.1486 -0.4771
 1507ntf    sn213412   2.434   6.377   5.398 -0.1569 -0.0089 -0.2434
 1507ntf    nn313413   2.367   6.491   5.483 -0.1134 -0.2839  0.1612
 1507ntf    sn213414   2.244   6.586   5.459  0.1709 -0.0464 -0.3633
 1507ntf    cn113415   2.113   6.494   5.545  0.5503  0.0886  0.3670
 1507ntf    fn413416   2.550   6.316   5.620  0.3500 -0.0288 -0.3320
 1507ntf    fn413417   2.682   6.292   5.454  0.1534 -0.1789 -0.1011
 1507ntf    fn413418   2.633   6.481   5.534  0.3278 -0.4362  0.0471
 1507ntf    on513419   2.487   6.405   5.267  0.3441  0.0256 -0.0319
 1507ntf    on513420   2.379   6.245   5.418  0.3371 -0.1471  0.2057
 1507ntf    on513421   2.254   6.713   5.526 -0.2579 -0.4203  0.4143
 1507ntf    on513422   2.188   6.585   5.326  0.1576 -1.1528 -0.3571
 1507ntf    fn413423   2.054   6.399   5.474  0.4443 -0.0095  0.5880
 1507ntf    fn413424   2.024   6.573   5.604  0.7269  0.4350  0.1776
 1507ntf    fn413425   2.165   6.421   5.642 -0.1325 -0.0877  0.6016
 1508ntf    cn113426   5.515   3.662   6.338 -0.4088  0.1958 -0.2387
 1508ntf    sn213427   5.534   3.536   6.467  0.2012  0.0795 -0.4377
 1508ntf    nn313428   5.686   3.497   6.458  0.1795 -0.2042  0.3252
 1508ntf    sn213429   5.814   3.588   6.452  0.0098  0.0118 -0.0954
 1508ntf    cn113430   5.917   3.508   6.578 -0.2823 -0.0202  0.1245
 1508ntf    fn413431   5.565   3.779   6.374 -0.6908  0.3424 -0.3184
 1508ntf    fn413432   5.570   3.626   6.223 -0.3862 -0.6781  0.0361
 1508ntf    fn413433   5.387   3.689   6.317 -0.2201  0.9802 -0.4128
 1508ntf    on513434   5.498   3.615   6.582  0.0766 -0.5448 -0.0423
 1508ntf    on513435   5.441   3.436   6.418 -0.4990  0.2556  0.4995
 1508ntf    on513436   5.900   3.572   6.338 -0.0446  0.1783 -0.1595
 1508ntf    on513437   5.806   3.716   6.518 -0.5794 -0.0750  0.0050
 1508ntf    fn413438   5.937   3.378   6.563 -0.2172  0.0963 -0.8736
 1508ntf    fn413439   5.854   3.519   6.694  0.5690  0.2679  0.5731
 1508ntf    fn413440   6.034   3.570   6.592 -0.2526  0.2197 -1.0768
 1509ntf    cn113441   3.393   5.742   6.844 -0.2133 -0.4399 -0.0580
 1509ntf    sn213442   3.400   5.762   6.663 -0.1387  0.0854  0.0007
 1509ntf    nn313443   3.391   5.611   6.620  0.0271  0.2274 -0.5465
 1509ntf    sn213444   3.260   5.541   6.570  0.0889 -0.3578  0.0938
 1509ntf    cn113445   3.269   5.587   6.395 -0.5760  0.1857  0.1985
 1509ntf    fn413446   3.432   5.850   6.909  0.3508 -0.7027  0.0466
 1509ntf    fn413447   3.267   5.733   6.882 -0.1216  0.6243  0.5231
 1509ntf    fn413448   3.473   5.644   6.885 -0.5168 -0.5697  0.2209
 1509ntf    on513449   3.285   5.839   6.623 -0.3520 -0.0701  0.3084
 1509ntf    on513450   3.532   5.817   6.644 -0.0538 -0.1442 -0.0878
 1509ntf    on513451   3.270   5.398   6.552 -0.2935 -0.3674 -0.0514
 1509ntf    on513452   3.133   5.592   6.617  0.0953 -0.4561  0.2185
 1509ntf    fn413453   3.211   5.498   6.316  0.7303 -0.4742 -0.0470
 1509ntf    fn413454   3.394   5.581   6.352 -0.5798  0.2657  0.1757
 1509ntf    fn413455   3.222   5.709   6.373 -0.1838  0.2619 -0.2272
 1510ntf    cn113456   6.518   2.854   5.505  0.1035 -0.6488 -0.4892
 1510ntf    sn213457   6.681   2.875   5.427  0.3539 -0.1757  0.1515
 1510ntf    nn313458   6.661   2.775   5.307  0.2643  0.6315 -0.5114
 1510ntf    sn213459   6.603   2.787   5.162 -0.4858  0.1674 -0.2543
 1510ntf    cn113460   6.755   2.856   5.089 -0.1478 -0.4232 -0.1123
 1510ntf    fn413461   6.411   2.906   5.448  0.4243  0.0297 -0.4839
 1510ntf    fn413462   6.486   2.728   5.531  0.3705 -0.5946  0.1212
 1510ntf    fn413463   6.521   2.903   5.627 -0.5601 -0.1750 -0.6613
 1510ntf    on513464   6.679   3.017   5.406 -0.0990 -0.2439 -0.2962
 1510ntf    on513465   6.778   2.829   5.524  0.3223 -0.5831 -0.0082
 1510ntf    on513466   6.575   2.658   5.102 -0.4270 -0.0011  0.0826
 1510ntf    on513467   6.507   2.893   5.150 -0.6738  0.0144 -0.1110
 1510ntf    fn413468   6.823   2.921   5.183 -0.5651  0.0481 -0.1345
 1510ntf    fn413469   6.727   2.940   4.992 -0.3948  0.3345  0.6003
 1510ntf    fn413470   6.846   2.769   5.048 -0.1607 -0.3842 -0.2223
 1511ntf    cn113471   5.559   2.511   3.952  0.0068 -0.2804  0.3086
 1511ntf    sn213472   5.602   2.579   4.115  0.1796  0.2442  0.0475
 1511ntf    nn313473   5.654   2.717   4.063  0.5851 -0.1005 -0.4666
 1511ntf    sn213474   5.773   2.807   4.113  0.1080  0.1772  0.1654
 1511ntf    cn113475   5.882   2.808   3.968 -0.1041  0.5768  0.0067
 1511ntf    fn413476   5.522   2.384   3.948  0.4833 -0.4070 -0.0636
 1511ntf    fn413477   5.462   2.585   3.900 -0.1552 -0.3190  0.5528
 1511ntf    fn413478   5.662   2.531   3.871  0.0120 -0.3376  0.3008
 1511ntf    on513479   5.477   2.569   4.186  0.6774 -0.5714  0.8266
 1511ntf    on513480   5.706   2.486   4.152  0.4190  0.6545  0.4229
 1511ntf    on513481   5.741   2.947   4.132  0.1501  0.2635 -0.3807
 1511ntf    on513482   5.847   2.751   4.223  0.6398  0.6970  0.0721
 1511ntf    fn413483   5.990   2.881   3.985  0.2006 -0.0613  0.8608
 1511ntf    fn413484   5.815   2.853   3.863 -0.1282  0.3403 -0.0801
 1511ntf    fn413485   5.929   2.691   3.927 -0.2298  0.3913  0.3806
 1512ntf    cn113486   6.022   5.200   0.050 -0.1499 -0.0493  0.1229
 1512ntf    sn213487   6.133   5.336   0.002  0.2846 -0.4997 -0.1629
 1512ntf    nn313488   6.051   5.377  -0.125 -0.1323 -0.4218  0.1312
 1512ntf    sn213489   6.083   5.358  -0.277  0.1499  0.3154  0.0955
 1512ntf    cn113490   5.926   5.410  -0.352  0.0452  0.1331  0.1875
 1512ntf    fn413491   6.079   5.085   0.084 -0.1946 -0.0756  0.1104
 1512ntf    fn413492   5.952   5.232   0.157  0.1391  0.3563  0.1915
 1512ntf    fn413493   5.937   5.163  -0.045  0.3755  0.1343 -0.4270
 1512ntf    on513494   6.122   5.416   0.121  0.0414  0.2503 -0.6859
 1512ntf    on513495   6.262   5.272  -0.011  0.2734 -0.5234 -0.1574
 1512ntf    on513496   6.168   5.459  -0.335 -0.4882  0.2713 -0.9391
 1512ntf    on513497   6.085   5.223  -0.328  0.3312  0.5523 -0.5348
 1512ntf    fn413498   5.924   5.427  -0.484 -0.2558  0.6644  0.2569
 1512ntf    fn413499   5.874   5.518  -0.294 -0.6630 -0.0827 -0.0301
 1512ntf    fn413500   5.835   5.318  -0.324  0.1603  0.0280  0.2161
 1513ntf    cn113501   6.583   5.874   4.353 -0.0995 -0.1609  0.0622
 1513ntf    sn213502   6.556   6.041   4.286  0.3082 -0.1759 -0.1419
 1513ntf    nn313503   6.520   5.996   4.140 -0.3130 -0.1337 -0.0007
 1513ntf    sn213504   6.617   6.001   4.017 -0.1967 -0.0931  0.0918
 1513ntf    cn113505   6.591   6.175   3.972 -0.4182 -0.2324 -0.3278
 1513ntf    fn413506   6.459   5.829   4.347 -0.2032  0.1794 -0.4366
 1513ntf    fn413507   6.662   5.794   4.282  0.2604  0.1444  0.1167
 1513ntf    fn413508   6.620   5.881   4.480 -0.7652 -0.1875  0.2564
 1513ntf    on513509   6.445   6.091   4.362  0.5618  0.0692  0.0673
 1513ntf    on513510   6.680   6.115   4.294 -0.1967  0.6720 -0.0705
 1513ntf    on513511   6.760   5.996   4.027 -0.1874 -0.1538 -0.0701
 1513ntf    on513512   6.561   5.932   3.903 -0.3038 -0.2898  0.2616
 1513ntf    fn413513   6.622   6.255   4.072 -0.2215 -0.3662 -0.2816
 1513ntf    fn413514   6.466   6.202   3.937 -0.3658 -0.2068 -0.4991
 1513ntf    fn413515   6.667   6.213   3.870 -0.2411  0.8540  0.1898
 1514ntf    cn113516   3.943   1.815   6.493 -0.0620  0.3386 -0.0351
 1514ntf    sn213517   3.911   1.716   6.344  0.1425  0.1492  0.0478
 1514ntf    nn313518   4.001   1.796   6.243  0.3701 -0.1116  0.0418
 1514ntf    sn213519   4.087   1.730   6.129  0.0031  0.0026 -0.3038
 1514ntf    cn113520   4.209   1.865   6.128  0.1038 -0.0812  0.2060
 1514ntf    fn413521   4.064   1.782   6.535  0.0582  0.6475 -0.1389
 1514ntf    fn413522   3.951   1.945   6.472  0.3287  0.4400  0.6823
 1514ntf    fn413523   3.852   1.791   6.586 -0.4845  0.1959 -0.4814
 1514ntf    on513524   3.959   1.586   6.388 -0.7575 -0.0829  0.3613
 1514ntf    on513525   3.771   1.728   6.312  0.1324  0.0510  0.0515
 1514ntf    on513526   4.166   1.615   6.164 -0.2252  0.0340  0.3252
 1514ntf    on513527   4.020   1.736   6.002 -0.3488  0.3274 -0.1063
 1514ntf    fn413528   4.308   1.845   6.043 -0.1189  0.1841 -0.1183
 1514ntf    fn413529   4.274   1.877   6.243  0.4929  0.1495 -0.0343
 1514ntf    fn413530   4.162   1.987   6.107  0.2850  0.1450  1.0858
 1515ntf    cn113531   4.972   2.378   2.368  0.1975 -0.2396 -0.1608
 1515ntf    sn213532   4.810   2.390   2.286 -0.0046 -0.0810  0.2556
 1515ntf    nn313533   4.834   2.440   2.139  0.0768 -0.0336  0.2857
 1515ntf    sn213534   4.852   2.586   2.083  0.0511 -0.1718 -0.0861
 1515ntf    cn113535   4.986   2.536   1.972  0.2975  0.0081  0.1302
 1515ntf    fn413536   5.065   2.320   2.293  0.1796 -0.5059  0.0229
 1515ntf    fn413537   5.025   2.495   2.398 -0.5632 -0.0463  0.4579
 1515ntf    fn413538   4.955   2.307   2.478  0.1502 -0.0145 -0.0219
 1515ntf    on513539   4.768   2.253   2.303 -0.5110  0.0940  0.4259
 1515ntf    on513540   4.735   2.479   2.371  0.1802 -0.1483  0.4912
 1515ntf    on513541   4.744   2.641   2.004 -0.1875 -0.0023  0.3511
 1515ntf    on513542   4.911   2.673   2.181  0.6233 -0.4945 -0.1402
 1515ntf    fn413543   5.072   2.467   2.046 -0.2426 -0.5574  0.2440
 1515ntf    fn413544   5.052   2.638   1.920 -0.1642  0.4096  0.3280
 1515ntf    fn413545   4.952   2.455   1.873  0.3288  0.2068 -0.0426
 1516ntf    cn113546   4.348   0.415   5.743  0.3543 -0.1123  0.3556
 1516ntf    sn213547   4.422   0.254   5.701  0.1186 -0.0477 -0.3193
 1516ntf    nn313548   4.378   0.226   5.553 -0.2266 -0.5593 -0.1227
 1516ntf    sn213549   4.470   0.212   5.426  0.3719 -0.2285  0.2656
 1516ntf    cn113550   4.463   0.032   5.403  0.1853 -0.1741 -0.1114
 1516ntf    fn413551   4.360   0.450   5.870 -0.9219  0.4987  0.3191
 1516ntf    fn413552   4.398   0.511   5.668 -0.3055  0.1141  0.1940
 1516ntf    fn413553   4.217   0.416   5.725  0.3857 -0.4811  0.0826
 1516ntf    on513554   4.564   0.263   5.728  0.0010  0.2092  0.2184
 1516ntf    on513555   4.350   0.170   5.793 -0.1848  0.2767 -0.2576
 1516ntf    on513556   4.406   0.259   5.305  0.7031  0.7687  0.4676
 1516ntf    on513557   4.609   0.247   5.433  0.1813  0.6826 -0.3671
 1516ntf    fn413558   4.342  -0.015   5.379  0.1269 -0.0953  0.0313
 1516ntf    fn413559   4.509  -0.032   5.509  0.0226 -0.0898  0.0102
 1516ntf    fn413560   4.541   0.005   5.299  0.5360 -0.0507  0.1170
 1517ntf    cn113561   5.804   1.295   0.574 -0.3339 -0.6555  0.5871
 1517ntf    sn213562   5.668   1.207   0.657 -0.6991 -0.2861  0.3812
 1517ntf    nn313563   5.569   1.328   0.640  0.2462  0.4278 -0.1342
 1517ntf    sn213564   5.415   1.336   0.669  0.2548  0.1287 -0.0080
 1517ntf    cn113565   5.380   1.400   0.503 -0.2930 -0.5087 -0.1449
 1517ntf    fn413566   5.762   1.326   0.453  0.0698  0.0352  0.6244
 1517ntf    fn413567   5.834   1.411   0.629 -0.3588 -0.2690 -0.2131
 1517ntf    fn413568   5.917   1.229   0.555  0.1107  0.3644 -0.3478
 1517ntf    on513569   5.644   1.082   0.589  0.2153 -0.4821  0.4135
 1517ntf    on513570   5.717   1.205   0.792 -0.2291  0.3293  0.2244
 1517ntf    on513571   5.342   1.211   0.672 -0.1383  0.3478 -0.4275
 1517ntf    on513572   5.378   1.435   0.767  0.2072  0.2355 -0.1345
 1517ntf    fn413573   5.255   1.388   0.463 -0.2879  0.5661 -0.5194
 1517ntf    fn413574   5.454   1.358   0.402 -0.1654  0.5130 -0.4874
 1517ntf    fn413575   5.402   1.530   0.495  0.2847 -0.5501  0.6955
 1518ntf    cn113576   0.537   6.629   3.812  0.0113  0.0534 -0.1590
 1518ntf    sn213577   0.711   6.619   3.865  0.0135  0.3426 -0.1110
 1518ntf    nn313578   0.740   6.477   3.804 -0.4620  0.3992 -0.4832
 1518ntf    sn213579   0.871   6.419   3.739 -0.4028 -0.1237  0.0879
 1518ntf    cn113580   0.939   6.341   3.888 -0.1956 -0.1346 -0.0129
 1518ntf    fn413581   0.466   6.531   3.864  0.3585 -0.1435 -0.0510
 1518ntf    fn413582   0.481   6.744   3.844  0.5711  0.2249  0.2220
 1518ntf    fn413583   0.529   6.621   3.680  0.2478  0.0910 -0.1774
 1518ntf    on513584   0.771   6.731   3.796 -0.1989  0.2019 -0.5344
 1518ntf    on513585   0.694   6.621   4.008  0.4345 -0.4327 -0.0451
 1518ntf    on513586   0.856   6.312   3.644 -0.6251 -0.1635  0.1676
 1518ntf    on513587   0.965   6.522   3.704 -0.0879 -0.5900 -0.4563
 1518ntf    fn413588   0.955   6.428   3.987 -0.3354  0.2568 -0.3335
 1518ntf    fn413589   1.059   6.292   3.860  0.1085  0.1280  0.7850
 1518ntf    fn413590   0.871   6.235   3.930  0.6820 -0.7787 -0.1795
 1519ntf    cn113591   0.343   6.320   2.034 -0.2364 -0.0387  0.2991
 1519ntf    sn213592   0.489   6.310   2.142 -0.0925 -0.1596  0.0918
 1519ntf    nn313593   0.551   6.167   2.121  0.4798  0.0460  0.3619
 1519ntf    sn213594   0.578   6.040   2.210  0.0266 -0.0563  0.3570
 1519ntf    cn113595   0.452   5.924   2.150 -0.1214  0.3684 -0.1674
 1519ntf    fn413596   0.380   6.322   1.907  0.1403  0.4507  0.4159
 1519ntf    fn413597   0.254   6.223   2.050 -0.1654 -0.1003  0.3235
 1519ntf    fn413598   0.273   6.431   2.049 -0.5837 -0.2056 -0.0674
 1519ntf    on513599   0.567   6.414   2.079 -0.7941  0.1290 -0.3057
 1519ntf    on513600   0.443   6.346   2.273  0.0615 -0.2186  0.1626
 1519ntf    on513601   0.705   5.978   2.182 -0.0656 -0.2237  0.3106
 1519ntf    on513602   0.555   6.063   2.350  0.5975  0.0548  0.4386
 1519ntf    fn413603   0.338   5.966   2.201  0.1175  0.3247  0.4062
 1519ntf    fn413604   0.471   5.809   2.212  0.4747  0.6668  0.2163
 1519ntf    fn413605   0.433   5.897   2.022 -0.6605 -0.5760  0.1025
 1520ntf    cn113606   0.478   2.905   5.427  0.0185  0.3836  0.3931
 1520ntf    sn213607   0.631   2.885   5.330 -0.2018 -0.0947  0.1421
 1520ntf    nn313608   0.619   2.735   5.284 -0.2903 -0.0813  0.1207
 1520ntf    sn213609   0.665   2.608   5.364  0.1233 -0.2027 -0.3059
 1520ntf    cn113610   0.837   2.584   5.311  0.3343  0.1407  0.2183
 1520ntf    fn413611   0.454   3.033   5.447 -1.1712  0.2697 -0.2687
 1520ntf    fn413612   0.373   2.841   5.379 -0.1550  0.6253  0.4517
 1520ntf    fn413613   0.517   2.855   5.544  0.1984 -0.2738  0.0599
 1520ntf    on513614   0.603   2.979   5.224 -0.6316 -0.3444  0.0291
 1520ntf    on513615   0.743   2.918   5.414 -0.0229 -0.3417  0.0004
 1520ntf    on513616   0.683   2.636   5.504  0.3554 -0.0083 -0.3737
 1520ntf    on513617   0.597   2.487   5.325  0.0685 -0.1968 -0.2285
 1520ntf    fn413618   0.920   2.683   5.340  0.7669  0.1166 -0.8819
 1520ntf    fn413619   0.846   2.575   5.179  0.2749  0.1498  0.2136
 1520ntf    fn413620   0.878   2.472   5.368  0.3369 -0.1018 -0.2520
 1521ntf    cn113621   3.472   6.541   3.873 -0.5906  0.2162 -0.2212
 1521ntf    sn213622   3.497   6.584   4.048 -0.0041  0.0814 -0.2714
 1521ntf    nn313623   3.352   6.548   4.094 -0.1409 -0.1076 -0.8364
 1521ntf    sn213624   3.297   6.400   4.098 -0.2825 -0.0372  0.1473
 1521ntf    cn113625   3.297   6.390   4.280 -0.1403  0.0529  0.1529
 1521ntf    fn413626   3.583   6.573   3.808 -0.5426 -0.0973 -0.2926
 1521ntf    fn413627   3.452   6.410   3.866 -0.3883  0.1594  0.2783
 1521ntf    fn413628   3.376   6.604   3.806 -0.5767  0.3592 -0.1065
 1521ntf    on513629   3.602   6.497   4.095  0.1453 -0.0495 -0.8404
 1521ntf    on513630   3.518   6.727   4.043  0.2463  0.0419 -0.3885
 1521ntf    on513631   3.160   6.398   4.053 -0.4726  0.0539  0.7099
 1521ntf    on513632   3.383   6.289   4.065 -0.0387  0.0788  0.3923
 1521ntf    fn413633   3.285   6.508   4.337 -0.0378  0.1208  0.0364
 1521ntf    fn413634   3.414   6.354   4.331 -0.2363  0.1946  0.4727
 1521ntf    fn413635   3.198   6.313   4.321 -0.6558  0.7729  0.2677
 1522ntf    cn113636   3.027   1.617   2.581 -0.0737 -0.0955  0.7085
 1522ntf    sn213637   3.050   1.438   2.560  0.2085  0.0330 -0.0996
 1522ntf    nn313638   2.978   1.444   2.421 -0.1292  0.7750  0.1068
 1522ntf    sn213639   2.825   1.422   2.393 -0.0369 -0.1417  0.3093
 1522ntf    cn113640   2.842   1.388   2.216 -0.1443  0.7469  0.1237
 1522ntf    fn413641   2.900   1.643   2.605 -0.1394 -0.0416  0.3136
 1522ntf    fn413642   3.103   1.664   2.678  0.3881  0.2204  0.2030
 1522ntf    fn413643   3.071   1.675   2.471 -0.6296 -0.3412  0.3500
 1522ntf    on513644   3.193   1.417   2.550  0.2656  0.1039  0.5225
 1522ntf    on513645   2.985   1.377   2.673  0.3413  0.1382  0.0336
 1522ntf    on513646   2.767   1.295   2.432  0.0110 -0.4206 -0.5035
 1522ntf    on513647   2.746   1.542   2.405  0.8435  0.4696  0.0366
 1522ntf    fn413648   2.843   1.257   2.193  0.1099  0.7704 -0.0111
 1522ntf    fn413649   2.947   1.443   2.158  0.3203 -0.0958  0.1445
 1522ntf    fn413650   2.730   1.427   2.157 -0.1153  0.7869  0.0950
 1523ntf    cn113651   2.504   6.007   6.367 -0.0340  0.2884  0.1445
 1523ntf    sn213652   2.386   5.919   6.473 -0.0592  0.0204 -0.1054
 1523ntf    nn313653   2.461   5.787   6.512  0.5946  0.2893 -0.4335
 1523ntf    sn213654   2.464   5.639   6.460  0.0725  0.2400 -0.3287
 1523ntf    cn113655   2.342   5.574   6.578  0.0562  0.5250 -0.1871
 1523ntf    fn413656   2.458   6.126   6.330  0.4683  0.2245 -0.7304
 1523ntf    fn413657   2.622   6.026   6.424  0.0197  0.4241 -0.0120
 1523ntf    fn413658   2.510   5.936   6.255 -0.2770 -0.5021  0.6257
 1523ntf    on513659   2.373   6.014   6.580  0.0405 -0.7305  0.5802
 1523ntf    on513660   2.267   5.899   6.393 -0.3688  0.2186  0.2998
 1523ntf    on513661   2.413   5.630   6.325  0.2899 -0.0676 -0.3902
 1523ntf    on513662   2.591   5.585   6.500  0.0728  0.0900 -0.5313
 1523ntf    fn413663   2.308   5.449   6.548 -0.2032  0.5802 -0.1252
 1523ntf    fn413664   2.229   5.642   6.582 -0.0946  0.2814 -0.2858
 1523ntf    fn413665   2.396   5.573   6.698 -0.1664  0.2666 -0.0875
 1524ntf    cn113666   6.610   6.080   4.935  0.0653  0.3182  0.0546
 1524ntf    sn213667   6.507   6.150   5.067 -0.0116  0.1869  0.0638
 1524ntf    nn313668   6.410   6.029   5.093  0.8363 -0.3530  0.8001
 1524ntf    sn213669   6.314   5.993   5.212 -0.2131 -0.4311 -0.0583
 1524ntf    cn113670   6.170   5.919   5.129 -0.4995  0.0907 -0.0292
 1524ntf    fn413671   6.670   6.168   4.856 -0.3330  0.8144  0.3041
 1524ntf    fn413672   6.701   6.000   4.987 -0.8742 -1.0407 -0.3349
 1524ntf    fn413673   6.542   6.010   4.845 -0.6469  0.9904  0.0644
 1524ntf    on513674   6.589   6.182   5.182  0.3084 -0.2468 -0.0425
 1524ntf    on513675   6.431   6.251   4.998  0.0769  0.0341 -0.2608
 1524ntf    on513676   6.357   5.881   5.292 -0.1486 -0.3926 -0.0396
 1524ntf    on513677   6.266   6.107   5.285 -0.2825 -0.5363  0.0610
 1524ntf    fn413678   6.111   6.005   5.047 -0.4543  0.0528 -0.1016
 1524ntf    fn413679   6.076   5.882   5.214  0.2315 -0.0807  0.7175
 1524ntf    fn413680   6.202   5.809   5.062 -0.1725  0.1388  0.0467
 1525ntf    cn113681   3.454   3.502   0.219  0.4870  0.0597 -0.0837
 1525ntf    sn213682   3.599   3.598   0.170  0.2652  0.4029 -0.0717
 1525ntf    nn313683   3.713   3.547   0.266  0.0690 -0.0349 -0.0703
 1525ntf    sn213684   3.850   3.615   0.302 -0.1597  0.1091  0.5524
 1525ntf    cn113685   3.916   3.467   0.385  0.7595  0.1131 -0.1553
 1525ntf    fn413686   3.347   3.564   0.172  0.1973 -0.1876  0.2372
 1525ntf    fn413687   3.460   3.381   0.166  0.0411 -0.0460  0.0973
 1525ntf    fn413688   3.437   3.484   0.349  0.8789  0.1207 -0.0248
 1525ntf    on513689   3.613   3.549   0.036  0.3441  0.6297 -0.1477
 1525ntf    on513690   3.549   3.732   0.193 -0.1296  0.3075 -0.3789
 1525ntf    on513691   3.945   3.644   0.198 -0.1059 -0.8769  0.3151
 1525ntf    on513692   3.838   3.704   0.415 -0.3325  0.2070  0.4570
 1525ntf    fn413693   3.852   3.438   0.497  0.3572  0.0397 -0.4037
 1525ntf    fn413694   4.044   3.487   0.408  0.4770  0.7529  0.8999
 1525ntf    fn413695   3.905   3.358   0.310 -0.8270 -0.1271  0.3905
 1526ntf    cn113696   5.063   5.540   5.065 -0.0545 -0.3135  0.5299
 1526ntf    sn213697   5.085   5.719   5.087  0.1982 -0.2544 -0.1898
 1526ntf    nn313698   5.133   5.740   5.235  0.5159 -0.7533 -0.2221
 1526ntf    sn213699   5.233   5.835   5.310 -0.1575 -0.0764 -0.1771
 1526ntf    cn113700   5.300   5.716   5.429 -0.1666  0.0521 -0.0443
 1526ntf    fn413701   5.166   5.468   5.106  0.1635 -0.2987  0.0096
 1526ntf    fn413702   4.946   5.497   5.110 -0.2783 -0.5571 -0.2692
 1526ntf    fn413703   5.066   5.510   4.936  0.2668  0.8873  0.2440
 1526ntf    on513704   5.190   5.747   4.992 -0.2633 -0.0045 -0.6373
 1526ntf    on513705   4.957   5.782   5.065  0.2533 -0.0409  0.1005
 1526ntf    on513706   5.351   5.884   5.244 -0.2782  0.1379 -0.2368
 1526ntf    on513707   5.167   5.930   5.397  0.6340  0.4211 -0.1073
 1526ntf    fn413708   5.424   5.747   5.464 -0.3240 -0.5747  1.1152
 1526ntf    fn413709   5.306   5.594   5.380  0.3129  0.1084 -0.1276
 1526ntf    fn413710   5.231   5.707   5.542  0.1968  0.0535  0.1775
 1527ntf    cn113711   3.169   4.612   1.296  0.2432  0.0561  0.2002
 1527ntf    sn213712   3.243   4.754   1.382  0.1001  0.2495  0.0047
 1527ntf    nn313713   3.368   4.780   1.290 -0.1427 -0.2539 -0.4694
 1527ntf    sn213714   3.412   4.895   1.192 -0.5174  0.0791 -0.2482
 1527ntf    cn113715   3.535   4.975   1.300 -0.2088 -0.0199 -0.5272
 1527ntf    fn413716   3.048   4.596   1.349  0.5111  0.1693  0.8528
 1527ntf    fn413717   3.153   4.630   1.166 -0.1032 -0.2498  0.1979
 1527ntf    fn413718   3.238   4.502   1.323 -0.0959 -0.2184 -0.0462
 1527ntf    on513719   3.135   4.849   1.395 -0.3341 -0.2474  0.0445
 1527ntf    on513720   3.285   4.683   1.500  0.4812  0.2107 -0.1498
 1527ntf    on513721   3.484   4.839   1.081  0.0439  0.1633  0.0667
 1527ntf    on513722   3.316   5.000   1.169 -0.3182  0.2912 -0.1224
 1527ntf    fn413723   3.489   5.039   1.406  0.7244  0.6694 -0.5296
 1527ntf    fn413724   3.614   5.065   1.245  0.5584 -0.1953  0.2749
 1527ntf    fn413725   3.623   4.891   1.352 -0.3093  0.2189  0.0292
 1528ntf    cn113726   2.123   3.898   4.692  0.2008  0.2624 -0.0016
 1528ntf    sn213727   2.000   3.766   4.670  0.3930  0.1165 -0.1997
 1528ntf    nn313728   1.868   3.840   4.712  0.5017 -0.2012  0.7136
 1528ntf    sn213729   1.798   3.837   4.853 -0.3050 -0.3271  0.3169
 1528ntf    cn113730   1.681   3.973   4.829  0.2003  0.0903  0.1886
 1528ntf    fn413731   2.161   3.917   4.818  0.4786 -0.3649  0.0114
 1528ntf    fn413732   2.229   3.879   4.616  0.2510 -0.0632  0.1518
 1528ntf    fn413733   2.081   4.015   4.646 -0.5734  0.0611  0.1760
 1528ntf    on513734   1.990   3.734   4.530 -0.3758  0.2334 -0.1769
 1528ntf    on513735   2.043   3.663   4.761 -0.0116 -0.4295 -0.6202
 1528ntf    on513736   1.724   3.715   4.874 -0.0769 -0.5948 -0.4065
 1528ntf    on513737   1.876   3.883   4.966  0.0647  0.2205 -0.1577
 1528ntf    fn413738   1.730   4.095   4.844 -0.0940  0.2704 -0.2780
 1528ntf    fn413739   1.579   3.973   4.914 -0.1730  0.1351 -0.2593
 1528ntf    fn413740   1.627   3.967   4.708  0.5589 -0.0969  0.0389
 1529ntf    cn113741   1.128   5.336   1.915 -0.6476 -0.6379 -0.3262
 1529ntf    sn213742   1.127   5.426   2.073  0.2004 -0.2082 -0.5599
 1529ntf    nn313743   1.276   5.472   2.084 -0.0022  0.3741 -0.2005
 1529ntf    sn213744   1.361   5.555   2.187  0.1975 -0.1898  0.0888
 1529ntf    cn113745   1.488   5.604   2.066 -0.2417 -0.3660 -0.4483
 1529ntf    fn413746   1.003   5.307   1.883 -0.8060  0.1217 -0.4225
 1529ntf    fn413747   1.181   5.407   1.817 -0.5064 -0.1847  0.0757
 1529ntf    fn413748   1.197   5.224   1.924 -0.5218 -0.5050  0.3735
 1529ntf    on513749   1.030   5.532   2.059 -0.0413 -0.3489  0.0188
 1529ntf    on513750   1.105   5.320   2.167 -0.2450  0.0603 -0.3574
 1529ntf    on513751   1.294   5.671   2.240 -0.9736 -0.5278 -0.6101
 1529ntf    on513752   1.447   5.476   2.273  0.3203  0.0933  0.2267
 1529ntf    fn413753   1.450   5.703   1.988 -0.0600 -0.1246 -0.2343
 1529ntf    fn413754   1.512   5.501   1.987 -0.3329 -0.3438 -0.5039
 1529ntf    fn413755   1.602   5.636   2.125 -0.2278 -0.2882 -0.5178
 1530ntf    cn113756   1.251   5.713   4.100 -0.0329 -0.0909 -0.0987
 1530ntf    sn213757   1.259   5.739   3.921  0.1808  0.2101 -0.0460
 1530ntf    nn313758   1.284   5.894   3.915 -0.3176  0.3022  0.1870
 1530ntf    sn213759   1.368   5.966   3.803 -0.2070  0.0416  0.1015
 1530ntf    cn113760   1.535   5.966   3.876 -0.0304 -0.1120 -0.3028
 1530ntf    fn413761   1.138   5.761   4.150 -0.0428  0.0509 -0.2579
 1530ntf    fn413762   1.251   5.587   4.142  0.4109 -0.3417 -0.8258
 1530ntf    fn413763   1.348   5.774   4.167 -0.2021 -0.0778  0.1357
 1530ntf    on513764   1.374   5.662   3.880 -0.2683 -0.5043  0.0224
 1530ntf    on513765   1.132   5.692   3.872  0.2852 -0.4477  0.3029
 1530ntf    on513766   1.384   5.902   3.675 -0.4368  0.0929  0.0476
 1530ntf    on513767   1.330   6.105   3.797 -0.1013  0.0464 -0.4499
 1530ntf    fn413768   1.599   5.852   3.895 -0.7582 -0.4683  0.0392
 1530ntf    fn413769   1.531   6.019   3.997 -0.2586 -0.4003 -0.1834
 1530ntf    fn413770   1.607   6.056   3.810 -0.3703  0.3984  0.0209
 1531ntf    cn113771   0.335   0.140   6.801  0.1733 -0.4240  0.3140
 1531ntf    sn213772   0.197   0.062   6.889 -0.3201  0.3046  0.1903
 1531ntf    nn313773   0.218  -0.080   6.825  0.0121  0.1649  0.6054
 1531ntf    sn213774   0.196  -0.228   6.872  0.2286  0.0490  0.3442
 1531ntf    cn113775   0.369  -0.269   6.909  0.4417  0.5516 -0.0890
 1531ntf    fn413776   0.319   0.153   6.670  1.1919  0.1691  0.2343
 1531ntf    fn413777   0.359   0.262   6.846  0.4757 -0.4749  0.2965
 1531ntf    fn413778   0.452   0.079   6.819  0.4857  0.1577  0.2940
 1531ntf    on513779   0.225   0.061   7.030  0.2642  0.0640  0.0739
 1531ntf    on513780   0.089   0.144   6.838 -1.0483 -0.6077  0.2480
 1531ntf    on513781   0.133  -0.247   7.000 -0.3677  0.0144  0.0515
 1531ntf    on513782   0.156  -0.311   6.761  0.0255  0.4871  0.0861
 1531ntf    fn413783   0.430  -0.173   6.977  0.0744 -0.1772  1.2797
 1531ntf    fn413784   0.453  -0.281   6.807  0.6825  0.0501  0.1672
 1531ntf    fn413785   0.384  -0.378   6.981  0.2414  0.8809  0.4524
 1532ntf    cn113786   5.247   5.100   0.416 -0.0090  0.1712  0.4485
 1532ntf    sn213787   5.267   5.251   0.315  0.2776 -0.3630 -0.2990
 1532ntf    nn313788   5.144   5.249   0.218  0.1386 -0.1021 -0.1267
 1532ntf    sn213789   5.133   5.164   0.087  0.4586  0.1652 -0.3302
 1532ntf    cn113790   4.955   5.172   0.049  0.3464 -0.3935  0.0545
 1532ntf    fn413791   5.276   4.992   0.347  0.4629  0.5868 -0.0165
 1532ntf    fn413792   5.331   5.097   0.518  0.4953 -0.7554  0.0165
 1532ntf    fn413793   5.124   5.098   0.464 -0.3328  0.6244 -0.3359
 1532ntf    on513794   5.263   5.349   0.421 -0.2639 -0.5502 -0.1470
 1532ntf    on513795   5.395   5.236   0.250  0.1541 -0.3848 -0.5391
 1532ntf    on513796   5.194   5.233  -0.023  0.9200 -0.3048 -0.3684
 1532ntf    on513797   5.157   5.023   0.107 -0.1858  0.2432  1.1320
 1532ntf    fn413798   4.895   5.286   0.083  0.5997 -0.3704  0.4328
 1532ntf    fn413799   4.881   5.082   0.111 -0.0326  0.2306  0.5281
 1532ntf    fn413800   4.931   5.146  -0.078 -0.2520 -0.3612  0.1579
 1533ntf    cn113801   3.763   4.948   5.977 -0.2616 -0.2819 -0.0385
 1533ntf    sn213802   3.804   4.893   6.145  0.1636  0.3894  0.0826
 1533ntf    nn313803   3.736   4.751   6.135  0.5552  0.2587 -0.8745
 1533ntf    sn213804   3.778   4.604   6.100  0.2648 -0.0368 -0.0152
 1533ntf    cn113805   3.737   4.535   6.263 -0.5196 -0.1918 -0.2771
 1533ntf    fn413806   3.632   4.969   5.970 -0.1957  0.2473  0.2581
 1533ntf    fn413807   3.812   5.069   5.952 -0.1930 -0.3641 -0.3077
 1533ntf    fn413808   3.793   4.873   5.872 -0.4145  0.6330 -0.7605
 1533ntf    on513809   3.948   4.904   6.146  0.2221 -0.3119  0.0934
 1533ntf    on513810   3.735   4.980   6.235 -0.3068 -0.1161  0.2175
 1533ntf    on513811   3.690   4.535   6.010 -0.1957  0.2277  0.2320
 1533ntf    on513812   3.919   4.575   6.092  0.2592  0.0308 -0.4006
 1533ntf    fn413813   3.605   4.519   6.264 -0.5591  0.0369 -0.9738
 1533ntf    fn413814   3.777   4.609   6.365 -0.4250 -0.1199 -0.3669
 1533ntf    fn413815   3.798   4.418   6.270  0.4865  0.3646  0.4436
 1534ntf    cn113816   3.454   0.616   6.078  0.2563  0.0683 -0.6534
 1534ntf    sn213817   3.494   0.485   5.959  0.1993 -0.3126 -0.2544
 1534ntf    nn313818   3.380   0.492   5.851 -0.0473 -0.3530  0.0019
 1534ntf    sn213819   3.344   0.409   5.723  0.5195  0.2951 -0.5869
 1534ntf    cn113820   3.484   0.463   5.620  0.9398  0.3890  0.0253
 1534ntf    fn413821   3.466   0.737   6.025  0.3624  0.4674  0.2673
 1534ntf    fn413822   3.328   0.605   6.117  0.2301  0.8967 -0.4807
 1534ntf    fn413823   3.517   0.617   6.194  0.3312 -0.1979 -0.6933
 1534ntf    on513824   3.620   0.534   5.909  0.0894 -0.2357 -0.4583
 1534ntf    on513825   3.492   0.381   6.059  1.4743 -0.1378 -0.0362
 1534ntf    on513826   3.360   0.267   5.745 -0.4639  0.3184  0.3683
 1534ntf    on513827   3.229   0.452   5.648  0.2308  0.5138 -0.0203
 1534ntf    fn413828   3.480   0.593   5.596 -0.6514  0.3405 -0.1104
 1534ntf    fn413829   3.490   0.409   5.499  0.7994  0.5206 -0.0413
 1534ntf    fn413830   3.597   0.442   5.685  0.7726  0.9126  0.4927
 1535ntf    cn113831   4.962   0.673   6.177 -0.1297 -0.1079  0.1880
 1535ntf    sn213832   4.866   0.804   6.258 -0.3165 -0.0681 -0.0945
 1535ntf    nn313833   4.760   0.849   6.152  0.0864  0.2976 -0.3444
 1535ntf    sn213834   4.607   0.883   6.168 -0.0118 -0.1929 -0.2172
 1535ntf    cn113835   4.616   1.060   6.127  0.3658 -0.1531  0.0282
 1535ntf    fn413836   5.029   0.598   6.263  0.0891 -0.2549 -0.1073
 1535ntf    fn413837   4.873   0.589   6.126  0.1421 -0.2632 -0.0337
 1535ntf    fn413838   5.052   0.710   6.087  0.1545 -1.3134 -0.0394
 1535ntf    on513839   4.805   0.727   6.364 -0.0365 -0.1995 -0.0278
 1535ntf    on513840   4.953   0.912   6.297  0.2714 -0.4532 -0.3424
 1535ntf    on513841   4.522   0.845   6.059 -0.0925  0.9066 -0.5475
 1535ntf    on513842   4.559   0.863   6.303 -0.3611  0.8610 -0.1751
 1535ntf    fn413843   4.502   1.118   6.159  0.5842  0.2079  0.1606
 1535ntf    fn413844   4.636   1.083   5.998  0.2532  0.4427  0.1116
 1535ntf    fn413845   4.710   1.124   6.195  0.2603  0.4839 -0.4173
 1536ntf    cn113846   1.046   1.226   1.699 -0.3024 -0.1381  0.4379
 1536ntf    sn213847   0.974   1.082   1.614  0.0477  0.1268 -0.3217
 1536ntf    nn313848   0.946   0.983   1.732  0.2149  1.1890  0.6337
 1536ntf    sn213849   0.831   0.969   1.839 -0.0386 -0.2962  0.1904
 1536ntf    cn113850   0.746   0.831   1.756 -0.3551 -0.1386  0.2508
 1536ntf    fn413851   1.099   1.307   1.608 -0.2313 -0.4481  0.2044
 1536ntf    fn413852   0.944   1.296   1.747 -0.5120 -0.2681  0.1827
 1536ntf    fn413853   1.137   1.204   1.792 -0.3345 -0.0904  0.4801
 1536ntf    on513854   0.851   1.128   1.556 -0.1678 -0.2818 -0.1905
 1536ntf    on513855   1.080   1.038   1.527 -0.1701 -0.7367 -0.1585
 1536ntf    on513856   0.882   0.914   1.962  0.4271 -0.9504 -0.2816
 1536ntf    on513857   0.736   1.077   1.844 -0.3202 -0.5353  0.0813
 1536ntf    fn413858   0.713   0.875   1.636  0.0013 -0.1725  0.1380
 1536ntf    fn413859   0.633   0.798   1.816 -0.3366 -0.2610  0.2196
 1536ntf    fn413860   0.827   0.728   1.734  0.2621  0.4254 -0.1450
 1537ntf    cn113861   4.343   4.363   1.237  0.0464  0.5008 -0.2269
 1537ntf    sn213862   4.524   4.380   1.238  0.1300 -0.2905 -0.5025
 1537ntf    nn313863   4.541   4.536   1.228  1.0630 -0.3666 -0.2346
 1537ntf    sn213864   4.619   4.642   1.314 -0.0485  0.4230 -0.1797
 1537ntf    cn113865   4.762   4.665   1.204 -0.0876 -0.2812 -0.3777
 1537ntf    fn413866   4.288   4.396   1.353  0.0348 -0.0561 -0.0698
 1537ntf    fn413867   4.283   4.427   1.138 -0.1977  0.9446  0.2049
 1537ntf    fn413868   4.309   4.236   1.221  0.0812  0.5055 -0.3444
 1537ntf    on513869   4.556   4.316   1.363 -0.0341  0.3686 -0.1201
 1537ntf    on513870   4.574   4.322   1.116  0.6013 -0.2956 -0.3106
 1537ntf    on513871   4.549   4.769   1.311  0.0147  0.4824  0.6541
 1537ntf    on513872   4.681   4.603   1.438  0.0441  0.9304 -0.0624
 1537ntf    fn413873   4.744   4.759   1.113  0.0542  0.0660 -0.0477
 1537ntf    fn413874   4.798   4.550   1.148  0.2525 -0.3250 -0.0743
 1537ntf    fn413875   4.867   4.708   1.273 -0.4000  0.5506 -0.4133
 1538ntf    cn113876   5.604   4.252   3.554 -0.1187  0.0009  0.0154
 1538ntf    sn213877   5.509   4.407   3.558  0.0208  0.0847  0.0684
 1538ntf    nn313878   5.622   4.508   3.600  0.1790  0.0737 -0.3229
 1538ntf    sn213879   5.722   4.583   3.506  0.3410  0.0870 -0.1403
 1538ntf    cn113880   5.616   4.691   3.405  0.0572 -0.2516 -0.2058
 1538ntf    fn413881   5.697   4.272   3.646  0.2999  0.0449 -0.4194
 1538ntf    fn413882   5.538   4.143   3.590  0.0789 -0.1498 -0.0835
 1538ntf    fn413883   5.664   4.229   3.439 -0.2086 -0.0545 -0.0203
 1538ntf    on513884   5.460   4.418   3.422 -0.3746  0.5764  0.2463
 1538ntf    on513885   5.409   4.390   3.660  0.7097 -0.1685  0.7018
 1538ntf    on513886   5.824   4.668   3.563  0.3620  0.1271 -0.2376
 1538ntf    on513887   5.779   4.491   3.410 -0.3532 -0.2975 -0.1928
 1538ntf    fn413888   5.682   4.802   3.376 -0.2900  0.0462  0.1170
 1538ntf    fn413889   5.515   4.729   3.482 -0.0877  0.6745 -0.8386
 1538ntf    fn413890   5.564   4.631   3.299  0.1259 -0.1119 -0.3183
 1539ntf    cn113891   1.853   6.310   4.877  0.5678  0.2378  0.5255
 1539ntf    sn213892   1.752   6.461   4.890  0.1682  0.0303 -0.1513
 1539ntf    nn313893   1.776   6.506   5.038 -0.1151  0.1389 -0.1371
 1539ntf    sn213894   1.709   6.600   5.144 -0.5555 -0.1873 -0.1239
 1539ntf    cn113895   1.855   6.635   5.247 -0.3754 -0.2608 -0.3537
 1539ntf    fn413896   1.787   6.209   4.933  0.0311  0.4427  0.2697
 1539ntf    fn413897   1.863   6.283   4.748  0.1851 -0.3669  0.6192
 1539ntf    fn413898   1.978   6.322   4.919  0.6763 -0.0418  0.2867
 1539ntf    on513899   1.813   6.550   4.794  0.2719  0.5780  0.4176
 1539ntf    on513900   1.618   6.415   4.861  0.2622 -0.0632 -0.4418
 1539ntf    on513901   1.677   6.734   5.101  1.2029  0.0494 -0.7746
 1539ntf    on513902   1.623   6.528   5.235 -0.4570 -0.6287 -0.3780
 1539ntf    fn413903   1.948   6.678   5.164  0.1464 -0.2557  0.2279
 1539ntf    fn413904   1.901   6.543   5.330 -1.0528 -0.2157  0.0875
 1539ntf    fn413905   1.823   6.740   5.322  0.6350 -0.4490  0.3584
 1540ntf    cn113906   6.755   4.024   1.845 -0.1723  0.1403  0.0876
 1540ntf    sn213907   6.719   3.868   1.932 -0.4772  0.0879 -0.1328
 1540ntf    nn313908   6.583   3.844   1.858 -0.3423  0.3932 -0.4826
 1540ntf    sn213909   6.442   3.869   1.923 -0.1391 -0.2936  0.2270
 1540ntf    cn113910   6.417   3.718   2.022 -0.5945 -0.2090  0.2446
 1540ntf    fn413911   6.852   4.092   1.904  0.1864  0.0059 -0.3349
 1540ntf    fn413912   6.802   3.999   1.724 -0.7998  0.3721 -0.2047
 1540ntf    fn413913   6.650   4.104   1.842 -0.4808 -0.2463  0.4818
 1540ntf    on513914   6.827   3.778   1.901 -0.1403  0.4782 -0.0934
 1540ntf    on513915   6.709   3.894   2.074  0.0213 -0.2767 -0.0305
 1540ntf    on513916   6.429   3.986   2.005 -0.6760  0.2052 -0.5589
 1540ntf    on513917   6.347   3.863   1.814  0.0685  0.0382  0.0288
 1540ntf    fn413918   6.524   3.703   2.098 -0.7380  0.4726  0.5910
 1540ntf    fn413919   6.410   3.617   1.937 -0.0189 -0.0591  0.0103
 1540ntf    fn413920   6.311   3.717   2.100 -0.7758  0.2169  0.0035
 1541ntf    cn113921   3.239   1.200   0.157  0.4447  0.0958 -0.1865
 1541ntf    sn213922   3.282   1.216  -0.018 -0.1810 -0.0111 -0.3535
 1541ntf    nn313923   3.336   1.363  -0.011  0.2596 -0.1586 -0.5919
 1541ntf    sn213924   3.293   1.489  -0.095  0.0032  0.0876 -0.1003
 1541ntf    cn113925   3.458   1.565  -0.111 -0.0236  0.2054  0.1915
 1541ntf    fn413926   3.229   1.075   0.198  0.4812  0.1165 -0.1137
 1541ntf    fn413927   3.336   1.253   0.230  0.3881 -0.3141  0.1899
 1541ntf    fn413928   3.126   1.264   0.183  0.4905 -0.0888  0.4902
 1541ntf    on513929   3.381   1.112  -0.036  0.3481  0.4064  0.1215
 1541ntf    on513930   3.156   1.199  -0.085 -0.4162  0.5778 -0.0648
 1541ntf    on513931   3.245   1.470  -0.230 -0.6136 -0.3044  0.1702
 1541ntf    on513932   3.215   1.582  -0.018 -0.1033  0.1961 -0.3360
 1541ntf    fn413933   3.505   1.603   0.007  0.4398 -0.5928  0.2744
 1541ntf    fn413934   3.468   1.669  -0.192  0.5202  0.3493  0.4402
 1541ntf    fn413935   3.552   1.480  -0.148 -0.2488  0.2466 -0.4874
 1542ntf    cn113936   4.150   2.905   5.099 -0.2346  0.1731  0.0588
 1542ntf    sn213937   4.139   3.032   5.229 -0.1954 -0.0183  0.2505
 1542ntf    nn313938   4.021   2.986   5.322  0.3186 -0.5211  0.6638
 1542ntf    sn213939   3.946   3.085   5.418  0.0071 -0.2539  0.1541
 1542ntf    cn113940   3.846   3.173   5.295  0.4633 -0.0037 -0.0413
 1542ntf    fn413941   4.168   2.783   5.147  0.4046  0.3009  0.1505
 1542ntf    fn413942   4.044   2.908   5.021 -0.0607 -0.1668 -0.1961
 1542ntf    fn413943   4.252   2.936   5.020 -0.1934  0.5482  0.2565
 1542ntf    on513944   4.267   3.014   5.293 -0.2702  0.2194  0.4669
 1542ntf    on513945   4.125   3.146   5.143 -0.2203 -0.1307  0.1038
 1542ntf    on513946   3.858   3.024   5.515 -0.3778  0.3412  0.1831
 1542ntf    on513947   4.032   3.183   5.479  0.2640  0.4937 -1.3654
 1542ntf    fn413948   3.914   3.267   5.232 -0.2277  0.2898 -0.3589
 1542ntf    fn413949   3.746   3.237   5.353  0.4477 -0.1277  0.0691
 1542ntf    fn413950   3.801   3.087   5.205 -0.3293 -0.0711  0.4049
 1543ntf    cn113951   3.391   3.167   5.125 -0.0750  0.0506  0.5084
 1543ntf    sn213952   3.328   3.003   5.080  0.1502  0.0643  0.1351
 1543ntf    nn313953   3.448   2.946   4.996  0.2201  0.3609  0.0327
 1543ntf    sn213954   3.424   2.827   4.895  0.3605  0.3016  0.0693
 1543ntf    cn113955   3.442   2.690   5.013  0.1290  0.1748 -0.0427
 1543ntf    fn413956   3.308   3.225   5.210 -0.9161 -0.1753 -0.1383
 1543ntf    fn413957   3.515   3.166   5.171  0.1318 -0.3514 -0.0415
 1543ntf    fn413958   3.404   3.252   5.024  0.6835  0.3412  0.8411
 1543ntf    on513959   3.301   2.934   5.204  0.2268 -0.3098 -0.0540
 1543ntf    on513960   3.210   3.041   5.007 -0.1529 -0.4691  0.3393
 1543ntf    on513961   3.288   2.803   4.853  0.4831 -0.2370 -0.0200
 1543ntf    on513962   3.531   2.812   4.801  0.2922  0.5211 -0.0447
 1543ntf    fn413963   3.539   2.706   5.101 -0.1309  0.0228  0.2714
 1543ntf    fn413964   3.473   2.579   4.947  0.3653  0.3995 -0.3121
 1543ntf    fn413965   3.332   2.664   5.081 -0.1745  0.1061 -0.5513
 1544ntf    cn113966   0.480   6.758   4.758  0.1160  0.0634  0.0983
 1544ntf    sn213967   0.479   6.639   4.621 -0.0455  0.2489 -0.0621
 1544ntf    nn313968   0.475   6.502   4.697 -0.2951  0.5240  0.4271
 1544ntf    sn213969   0.346   6.417   4.723  0.0468 -0.1504 -0.0376
 1544ntf    cn113970   0.401   6.284   4.834 -0.4882 -0.3054  0.0500
 1544ntf    fn413971   0.392   6.721   4.850  0.3901 -0.1205  0.2893
 1544ntf    fn413972   0.596   6.781   4.817  0.1550 -0.1272  0.0980
 1544ntf    fn413973   0.438   6.875   4.714 -0.5130  0.1839  0.9873
 1544ntf    on513974   0.371   6.671   4.531  0.3803  0.2863 -0.5629
 1544ntf    on513975   0.610   6.656   4.563 -0.0328  0.3620  0.0006
 1544ntf    on513976   0.245   6.481   4.804  0.2327 -0.6277  0.5772
 1544ntf    on513977   0.299   6.349   4.604  0.0531 -0.3865  0.0943
 1544ntf    fn413978   0.496   6.211   4.778 -0.1848 -0.0156  0.1796
 1544ntf    fn413979   0.305   6.199   4.864 -0.3849 -0.5720 -0.3682
 1544ntf    fn413980   0.437   6.328   4.954 -0.5585 -0.4021  0.1067
 1545ntf    cn113981   2.342   2.421   2.457  0.0886  0.0476  0.3062
 1545ntf    sn213982   2.253   2.416   2.616 -0.2891  0.3681  0.1083
 1545ntf    nn313983   2.360   2.342   2.704 -0.3042  0.3724  0.1305
 1545ntf    sn213984   2.352   2.320   2.859 -0.0771  0.2303  0.1227
 1545ntf    cn113985   2.374   2.140   2.852  0.0329  0.2532 -0.1200
 1545ntf    fn413986   2.265   2.484   2.369  0.9833  0.3166 -0.2943
 1545ntf    fn413987   2.456   2.488   2.456  0.0643  0.0872  0.1467
 1545ntf    fn413988   2.362   2.302   2.403  0.9558  0.3045  0.0389
 1545ntf    on513989   2.246   2.558   2.639  0.4960  0.4329 -0.0216
 1545ntf    on513990   2.129   2.345   2.600  0.0012 -0.1669  0.1907
 1545ntf    on513991   2.467   2.365   2.934  0.1210 -0.5185  0.2735
 1545ntf    on513992   2.222   2.335   2.920 -0.0383  0.1053  0.2383
 1545ntf    fn413993   2.418   2.083   2.963  0.2324  0.1735 -0.2396
 1545ntf    fn413994   2.465   2.106   2.763  0.5024  0.6506  0.2000
 1545ntf    fn413995   2.255   2.093   2.818  0.2299  0.0460 -0.5308
 1546ntf    cn113996   5.470   0.020   3.064  0.0385  0.6330 -0.0040
 1546ntf    sn213997   5.410  -0.011   2.895  0.3901 -0.2254  0.0209
 1546ntf    nn313998   5.502   0.089   2.816 -0.1256  0.1471 -0.1143
 1546ntf    sn213999   5.634   0.081   2.732 -0.0629 -0.1734  0.0148
 1546ntf    cn114000   5.764   0.146   2.841  0.1974 -0.2395 -0.2542
 1546ntf    fn414001   5.597  -0.013   3.073 -0.0759  0.1569 -0.0852
 1546ntf    fn414002   5.460   0.150   3.087 -0.1046  0.5354  0.4931
 1546ntf    fn414003   5.393  -0.041   3.153  0.7947  0.2236  0.3804
 1546ntf    on514004   5.439  -0.149   2.865 -0.7327 -0.5163  0.2402
 1546ntf    on514005   5.271   0.029   2.899  0.3041 -0.5100 -0.0967
 1546ntf    on514006   5.677  -0.054   2.704  0.5263  0.0293 -0.0835
 1546ntf    on514007   5.645   0.174   2.623 -0.2679 -0.2222 -0.0479
 1546ntf    fn414008   5.739   0.263   2.896 -0.7709 -0.4733 -0.1865
 1546ntf    fn414009   5.869   0.162   2.762  0.3849 -0.0421  0.0303
 1546ntf    fn414010   5.797   0.060   2.936 -0.0492  0.4844  0.4955
 1547ntf    cn114011   5.750   3.660   2.800  0.1577  0.1480  0.0260
 1547ntf    sn214012   5.762   3.479   2.787 -0.1356  0.1363 -0.0982
 1547ntf    nn314013   5.608   3.465   2.757 -0.0832  0.3072 -0.4507
 1547ntf    sn214014   5.523   3.413   2.636 -0.3365  0.2569 -0.2513
 1547ntf    cn114015   5.556   3.235   2.654 -0.2844  0.2781 -0.1376
 1547ntf    fn414016   5.698   3.695   2.916  0.0300  0.3870 -0.1011
 1547ntf    fn414017   5.867   3.721   2.803  0.5503 -0.5853 -0.1924
 1547ntf    fn414018   5.683   3.716   2.700  0.4150  0.1584 -0.1398
 1547ntf    on514019   5.850   3.464   2.674 -1.1251 -0.2027 -0.8478
 1547ntf    on514020   5.800   3.437   2.920 -0.1442  0.4327 -0.0022
 1547ntf    on514021   5.383   3.436   2.661 -0.3160 -0.0257  0.1325
 1547ntf    on514022   5.578   3.462   2.512  0.1681  0.0723 -0.1007
 1547ntf    fn414023   5.656   3.195   2.577 -0.4028 -0.2358 -0.0306
 1547ntf    fn414024   5.452   3.163   2.616 -0.4793  0.3754  0.2087
 1547ntf    fn414025   5.586   3.198   2.777  0.4449  0.5373 -0.2299
 1548ntf    cn114026   3.510   2.652   1.412  0.7245  0.1872 -0.0744
 1548ntf    sn214027   3.499   2.495   1.321 -0.1290  0.1736  0.0398
 1548ntf    nn314028   3.420   2.414   1.429 -0.6262  0.9023  0.2308
 1548ntf    sn214029   3.483   2.330   1.546 -0.6207 -0.2085 -0.5573
 1548ntf    cn114030   3.462   2.163   1.478  0.2310 -0.3769 -0.4195
 1548ntf    fn414031   3.588   2.653   1.519  0.4126 -0.6179  0.1720
 1548ntf    fn414032   3.532   2.753   1.329 -0.7807  0.3881 -0.2498
 1548ntf    fn414033   3.387   2.678   1.452  0.6160  0.5679 -0.6414
 1548ntf    on514034   3.415   2.531   1.209  0.1797  0.3100 -0.1504
 1548ntf    on514035   3.635   2.454   1.296 -0.0747  0.1386  0.3928
 1548ntf    on514036   3.624   2.346   1.569 -0.6978 -0.1172 -0.1436
 1548ntf    on514037   3.412   2.325   1.672  0.2499 -0.8652 -0.0861
 1548ntf    fn414038   3.497   2.153   1.351 -0.1106  0.0551 -0.5500
 1548ntf    fn414039   3.337   2.118   1.482  0.2384 -0.4311 -0.7709
 1548ntf    fn414040   3.537   2.073   1.539  0.0090 -0.4324 -0.2252
 1549ntf    cn114041   5.161   2.647   1.505 -0.1836 -0.1575 -0.3021
 1549ntf    sn214042   5.321   2.683   1.426 -0.0327  0.5907  0.3314
 1549ntf    nn314043   5.408   2.762   1.530  0.0248  0.4316  0.4045
 1549ntf    sn214044   5.524   2.707   1.620  0.1419 -0.1881 -0.1279
 1549ntf    cn114045   5.660   2.697   1.499  0.1147 -0.3474 -0.1466
 1549ntf    fn414046   5.074   2.744   1.529 -0.0159 -0.1477  0.2777
 1549ntf    fn414047   5.097   2.570   1.419 -0.4383 -0.0899 -0.1719
 1549ntf    fn414048   5.185   2.567   1.608 -0.1965  0.3863  0.1257
 1549ntf    on514049   5.372   2.555   1.382 -0.1714  0.5486  0.2919
 1549ntf    on514050   5.273   2.768   1.320 -0.9318 -0.9314 -0.5105
 1549ntf    on514051   5.564   2.803   1.719  0.4292 -0.1364 -0.2913
 1549ntf    on514052   5.512   2.572   1.671  0.0557 -0.1142  0.0465
 1549ntf    fn414053   5.676   2.824   1.465  0.0161 -0.2776  0.0661
 1549ntf    fn414054   5.629   2.640   1.383 -0.7581  0.5951 -0.4002
 1549ntf    fn414055   5.776   2.657   1.547 -0.0198 -0.5611  0.0008
 1550ntf    cn114056   5.301   2.301   3.209  0.1843 -0.3208 -0.1375
 1550ntf    sn214057   5.423   2.326   3.341  0.0413 -0.1905 -0.0304
 1550ntf    nn314058   5.342   2.378   3.466 -0.2685 -0.3046 -0.1842
 1550ntf    sn214059   5.276   2.518   3.487 -0.2396 -0.3614  0.2814
 1550ntf    cn114060   5.415   2.596   3.575 -0.1977 -0.0086 -0.0928
 1550ntf    fn414061   5.351   2.248   3.099 -0.3307 -0.5955 -0.2411
 1550ntf    fn414062   5.198   2.227   3.247  0.1338 -0.4101 -0.4476
 1550ntf    fn414063   5.253   2.420   3.175 -0.0788 -0.1679  0.7511
 1550ntf    on514064   5.471   2.192   3.367  0.0389 -0.2524 -0.3436
 1550ntf    on514065   5.518   2.423   3.292 -0.1943  0.1175  0.1163
 1550ntf    on514066   5.247   2.609   3.379  0.3848 -0.1915  0.2578
 1550ntf    on514067   5.171   2.504   3.586  0.2989  0.5986  1.0075
 1550ntf    fn414068   5.473   2.517   3.664 -0.1646  0.5165  0.3511
 1550ntf    fn414069   5.378   2.707   3.636 -0.8018 -0.2925  0.0674
 1550ntf    fn414070   5.523   2.624   3.504 -0.3453  0.5447 -0.0973
 1551ntf    cn114071   4.235   6.571   2.255 -0.3371  0.2275  0.1111
 1551ntf    sn214072   4.413   6.535   2.249 -0.4180 -0.0850 -0.4600
 1551ntf    nn314073   4.407   6.382   2.216 -0.2565 -0.2256  0.1561
 1551ntf    sn214074   4.444   6.309   2.082  0.0724 -0.2373  0.2523
 1551ntf    cn114075   4.278   6.243   2.047 -0.1816  0.5870 -0.1029
 1551ntf    fn414076   4.159   6.483   2.317  0.0929 -0.7162 -0.6868
 1551ntf    fn414077   4.211   6.688   2.313  0.1923  0.4825 -0.1842
 1551ntf    fn414078   4.175   6.575   2.137 -0.5117  0.3465  0.2032
 1551ntf    on514079   4.469   6.621   2.148  0.7735  0.5014  0.6753
 1551ntf    on514080   4.457   6.557   2.385 -0.5296 -0.0172 -0.4341
 1551ntf    on514081   4.466   6.388   1.964 -0.9025 -0.2463  0.0556
 1551ntf    on514082   4.523   6.190   2.104 -1.2183 -1.1635  0.0078
 1551ntf    fn414083   4.243   6.129   2.104  0.1924  0.2306 -0.5828
 1551ntf    fn414084   4.250   6.231   1.918 -0.5227  0.1794  0.0079
 1551ntf    fn414085   4.187   6.329   2.092 -0.6237 -0.4365  1.0062
 1552ntf    cn114086   3.445   1.381   5.367  0.3672  0.0383 -0.1704
 1552ntf    sn214087   3.529   1.389   5.528  0.2915  0.1067 -0.1345
 1552ntf    nn314088   3.431   1.465   5.624  0.3227 -0.3853  0.2876
 1552ntf    sn214089   3.360   1.385   5.739 -0.1643 -0.1423  0.1542
 1552ntf    cn114090   3.263   1.516   5.819 -0.3033  0.1421 -0.4752
 1552ntf    fn414091   3.416   1.494   5.306  0.1702  0.3270  0.4451
 1552ntf    fn414092   3.521   1.313   5.282  0.6136  0.0980  0.0021
 1552ntf    fn414093   3.329   1.316   5.366  0.4643 -0.1458  0.1991
 1552ntf    on514094   3.547   1.249   5.558  0.4430  0.2138  0.2743
 1552ntf    on514095   3.647   1.471   5.511  0.0562  0.4947  0.0949
 1552ntf    on514096   3.252   1.299   5.697 -0.3937  0.1886  0.0614
 1552ntf    on514097   3.440   1.343   5.851  0.3556  0.4665  0.0165
 1552ntf    fn414098   3.335   1.611   5.876 -0.2175  0.1306 -0.5646
 1552ntf    fn414099   3.187   1.465   5.914 -0.0638  0.0490 -0.3346
 1552ntf    fn414100   3.179   1.581   5.739 -0.2541  0.1140 -0.5497
 1553ntf    cn114101   1.123   1.800   4.379 -0.2231  0.4073  0.0967
 1553ntf    sn214102   1.186   1.948   4.463  0.3821  0.2544 -0.0856
 1553ntf    nn314103   1.089   1.962   4.586  0.4699  0.5746 -0.0510
 1553ntf    sn214104   1.125   1.953   4.738  0.4495  0.0656 -0.0744
 1553ntf    cn114105   1.012   2.077   4.808  0.3462  0.2532 -0.5704
 1553ntf    fn414106   0.996   1.816   4.343 -0.2908  0.1667  0.2216
 1553ntf    fn414107   1.194   1.777   4.270 -0.8824  0.0211 -0.2618
 1553ntf    fn414108   1.127   1.691   4.455  0.2163 -0.1588 -0.7231
 1553ntf    on514109   1.325   1.923   4.494  0.5355 -0.3531 -1.2125
 1553ntf    on514110   1.152   2.047   4.364 -0.4618  0.4918  0.4251
 1553ntf    on514111   1.095   1.831   4.808 -0.0544 -0.1497 -0.6588
 1553ntf    on514112   1.247   2.025   4.768  0.6296 -0.0579 -0.5117
 1553ntf    fn414113   1.045   2.203   4.785  0.4743  0.2904 -0.1832
 1553ntf    fn414114   1.002   2.070   4.940 -0.6403  0.3611 -0.6327
 1553ntf    fn414115   0.884   2.066   4.775  0.2688  0.7016 -0.4289
 1554ntf    cn114116   0.915   4.177   0.218 -0.3878  0.6848  0.1339
 1554ntf    sn214117   0.905   4.178   0.036  0.1976  0.4223  0.1004
 1554ntf    nn314118   0.909   4.333   0.013  0.7768  0.3415 -0.3829
 1554ntf    sn214119   0.802   4.425  -0.056  0.1613 -0.0815 -0.0081
 1554ntf    cn114120   0.913   4.550  -0.129  0.4604 -0.1931  0.2541
 1554ntf    fn414121   1.012   4.257   0.259 -0.1686  0.0117  0.9474
 1554ntf    fn414122   0.809   4.215   0.287 -0.0367  0.3684  0.8551
 1554ntf    fn414123   0.955   4.058   0.261  0.0756  0.7447 -0.1279
 1554ntf    on514124   1.033   4.121   0.001  0.3443  0.9212 -0.1729
 1554ntf    on514125   0.782   4.113  -0.001  0.4418 -0.3212  0.5464
 1554ntf    on514126   0.732   4.374  -0.171 -0.0489 -0.6213  0.3550
 1554ntf    on514127   0.723   4.498   0.040 -0.2099 -0.3480 -0.1079
 1554ntf    fn414128   0.845   4.630  -0.209  0.2156 -0.7678 -0.1195
 1554ntf    fn414129   1.012   4.501  -0.201  0.0293 -0.0815 -0.4257
 1554ntf    fn414130   0.971   4.618  -0.032  0.3746  0.0024  0.1681
 1555ntf    cn114131   2.618   1.544   4.193 -0.0303 -0.0332  0.1860
 1555ntf    sn214132   2.717   1.541   4.346 -0.0252 -0.0652  0.1817
 1555ntf    nn314133   2.839   1.454   4.301 -0.1052 -0.3043  0.4280
 1555ntf    sn214134   2.985   1.492   4.258 -0.0892 -0.5534  0.2554
 1555ntf    cn114135   2.984   1.430   4.088 -0.2079  0.6389 -0.1911
 1555ntf    fn414136   2.498   1.590   4.222  0.0680  0.3136  0.0464
 1555ntf    fn414137   2.663   1.625   4.098 -0.5113  0.0468  0.0244
 1555ntf    fn414138   2.614   1.419   4.149 -0.1911 -0.0212  0.1669
 1555ntf    on514139   2.743   1.678   4.382 -0.3913  0.0902 -0.1378
 1555ntf    on514140   2.630   1.471   4.437 -0.2165  0.6353  0.5481
 1555ntf    on514141   3.014   1.631   4.234 -0.4948 -0.5162 -0.0262
 1555ntf    on514142   3.088   1.414   4.322  0.1650 -0.5474 -0.1482
 1555ntf    fn414143   3.108   1.424   4.040 -0.2355 -0.2225 -0.1781
 1555ntf    fn414144   2.917   1.500   3.998 -0.1876 -0.1057 -0.7952
 1555ntf    fn414145   2.947   1.305   4.065  0.4082  0.3287  0.4612
 1556ntf    cn114146   4.673   5.037   6.675  0.2678 -0.0396  0.0302
 1556ntf    sn214147   4.549   4.911   6.633  0.1211 -0.1008  0.6405
 1556ntf    nn314148   4.422   4.971   6.702 -0.3283  0.2997 -0.5085
 1556ntf    sn214149   4.306   4.880   6.756 -0.2467  0.3437 -0.2601
 1556ntf    cn114150   4.343   4.879   6.934 -0.2140  0.1265 -0.2679
 1556ntf    fn414151   4.793   4.999   6.634  0.0958 -0.4709 -0.0718
 1556ntf    fn414152   4.643   5.155   6.623  0.2937 -0.0099  0.0832
 1556ntf    fn414153   4.670   5.063   6.805 -0.4545  0.1656 -0.0251
 1556ntf    on514154   4.545   4.915   6.489  0.2908  0.2127  0.6425
 1556ntf    on514155   4.608   4.788   6.681  0.1475 -0.3375  0.0103
 1556ntf    on514156   4.179   4.948   6.741 -0.2415  0.4288  0.0566
 1556ntf    on514157   4.302   4.742   6.717 -0.8027  0.1298  0.5047
 1556ntf    fn414158   4.282   4.777   6.991  0.2599 -0.1017 -0.1600
 1556ntf    fn414159   4.289   4.988   6.987 -0.2701  0.1844 -0.4451
 1556ntf    fn414160   4.473   4.873   6.958 -0.2838  0.0177  0.0821
 1557ntf    cn114161   2.049   3.896   2.239  0.5865 -0.0091 -0.1502
 1557ntf    sn214162   2.149   3.749   2.274  0.0801 -0.2526  0.2858
 1557ntf    nn314163   2.280   3.812   2.334  0.0328 -0.2097  0.3449
 1557ntf    sn214164   2.412   3.742   2.382  0.2445 -0.1400 -0.1304
 1557ntf    cn114165   2.466   3.845   2.521 -0.6347 -0.4672  0.4609
 1557ntf    fn414166   2.098   3.969   2.140  0.2801  0.1806 -0.1630
 1557ntf    fn414167   1.926   3.857   2.210  0.3308  0.2433  0.5741
 1557ntf    fn414168   2.042   3.977   2.343  0.0536 -0.4104  0.1313
 1557ntf    on514169   2.064   3.678   2.366  0.0004 -0.2267  0.2317
 1557ntf    on514170   2.155   3.679   2.149 -0.7400 -0.3628  0.3073
 1557ntf    on514171   2.389   3.611   2.438  0.1760  0.0956  0.3971
 1557ntf    on514172   2.524   3.754   2.291  0.0622 -0.3197 -0.3801
 1557ntf    fn414173   2.556   3.773   2.587 -0.2545 -0.8325 -0.4422
 1557ntf    fn414174   2.365   3.878   2.600 -0.8769  0.1114 -0.0807
 1557ntf    fn414175   2.532   3.954   2.483  0.1213 -0.8638  0.6116
 1558ntf    cn114176   1.094   1.288   6.285 -0.3539  0.1317  0.3500
 1558ntf    sn214177   1.071   1.428   6.172  0.3350  0.1143  0.1834
 1558ntf    nn314178   1.197   1.413   6.079  0.0246  0.6607 -0.3287
 1558ntf    sn214179   1.213   1.389   5.924 -0.4166 -0.1571 -0.2559
 1558ntf    cn114180   1.242   1.210   5.918 -0.1293 -0.1198 -0.0564
 1558ntf    fn414181   1.114   1.172   6.225  0.1826  0.2897  0.2100
 1558ntf    fn414182   1.204   1.303   6.359  0.1773 -0.4132 -0.3136
 1558ntf    fn414183   0.995   1.276   6.371 -0.2079 -0.2657  0.4674
 1558ntf    on514184   0.946   1.394   6.109  0.4494 -1.0245  0.5536
 1558ntf    on514185   1.077   1.543   6.258  0.7952  0.4895 -0.3432
 1558ntf    on514186   1.092   1.414   5.850 -0.6573  0.5637  0.3640
 1558ntf    on514187   1.340   1.434   5.871 -0.1231 -0.4826  0.1613
 1558ntf    fn414188   1.131   1.154   5.963 -0.4831  0.3318 -0.3504
 1558ntf    fn414189   1.349   1.182   5.990  0.0283  0.6802  0.0238
 1558ntf    fn414190   1.259   1.168   5.794 -0.0025 -0.1938 -0.0138
 1559ntf    cn114191   2.928   6.672   1.540  0.1107 -0.2616  0.7983
 1559ntf    sn214192   2.855   6.539   1.639 -0.0151 -0.4350  0.4753
 1559ntf    nn314193   2.971   6.499   1.738  0.0707 -0.2286  0.4580
 1559ntf    sn214194   3.086   6.586   1.800  0.2173 -0.2230  0.1813
 1559ntf    cn114195   3.023   6.588   1.971 -0.0044 -0.2418  0.1012
 1559ntf    fn414196   3.059   6.656   1.528  0.1983  0.7056  0.3901
 1559ntf    fn414197   2.877   6.667   1.418  0.7474  0.0418  0.5137
 1559ntf    fn414198   2.904   6.791   1.591 -0.3772  0.1001 -0.2461
 1559ntf    on514199   2.749   6.612   1.705  0.6408  0.6246  0.3792
 1559ntf    on514200   2.817   6.428   1.556  0.4696 -0.0975 -0.2052
 1559ntf    on514201   3.211   6.521   1.826  0.4779  0.1208 -0.1977
 1559ntf    on514202   3.084   6.728   1.775 -0.2120 -0.3377 -0.4757
 1559ntf    fn414203   2.919   6.666   1.994  0.2120  0.0390  0.1302
 1559ntf    fn414204   3.108   6.637   2.060 -0.6698  0.4021  0.3902
 1559ntf    fn414205   2.988   6.466   2.010 -0.3371 -0.1409  0.1204
 1560ntf    cn114206   6.631   5.541   3.373 -0.3536  0.1332  0.4142
 1560ntf    sn214207   6.553   5.399   3.456  0.1359 -0.4721 -0.1395
 1560ntf    nn314208   6.517   5.295   3.345 -0.2192 -0.2212 -0.2627
 1560ntf    sn214209   6.518   5.138   3.354 -0.0727 -0.2279 -0.4043
 1560ntf    cn114210   6.679   5.098   3.278 -0.2262 -0.5298 -0.5724
 1560ntf    fn414211   6.616   5.654   3.439  0.6626  0.0418  0.8254
 1560ntf    fn414212   6.762   5.528   3.356 -0.3137 -0.0984  0.8819
 1560ntf    fn414213   6.574   5.580   3.261 -0.0433 -0.1560  0.1518
 1560ntf    on514214   6.664   5.363   3.541 -0.4381 -1.0107  0.3986
 1560ntf    on514215   6.444   5.473   3.516  0.3768 -0.5773  0.4400
 1560ntf    on514216   6.537   5.084   3.487 -0.4252  0.2287 -0.1671
 1560ntf    on514217   6.420   5.070   3.273 -0.1037 -0.0964 -0.4760
 1560ntf    fn414218   6.781   5.157   3.339 -0.6734 -0.0594 -0.2637
 1560ntf    fn414219   6.679   5.127   3.149  0.6671 -1.1715 -0.7209
 1560ntf    fn414220   6.696   4.967   3.278 -0.2352 -0.5402  0.3385
 1561ntf    cn114221   1.675   3.597   1.426 -0.2195  0.4577  0.0444
 1561ntf    sn214222   1.494   3.602   1.406 -0.2210  0.6956  0.1168
 1561ntf    nn314223   1.472   3.454   1.453  0.5165  0.3950 -0.4635
 1561ntf    sn214224   1.461   3.320   1.372 -0.1976  0.1284  0.0691
 1561ntf    cn114225   1.282   3.328   1.337 -0.1019  0.2695 -0.3866
 1561ntf    fn414226   1.728   3.482   1.390 -0.5919  0.0852  0.6764
 1561ntf    fn414227   1.735   3.695   1.359 -0.0547  0.1048 -0.3313
 1561ntf    fn414228   1.710   3.621   1.551 -0.3437  0.1214  0.1441
 1561ntf    on514229   1.457   3.699   1.507  0.6438  0.0956  1.0250
 1561ntf    on514230   1.458   3.627   1.269 -0.7655 -0.1409  0.1027
 1561ntf    on514231   1.529   3.321   1.246  0.6932 -0.6318  0.5345
 1561ntf    on514232   1.474   3.203   1.455  0.6640 -0.0695 -0.3374
 1561ntf    fn414233   1.210   3.334   1.447 -0.2535  0.5906 -0.5031
 1561ntf    fn414234   1.239   3.224   1.267  0.0674 -0.1802  0.1709
 1561ntf    fn414235   1.236   3.431   1.268 -0.2450  0.2644 -0.2978
 1562ntf    cn114236   5.893   6.631   4.074 -0.0891 -0.2632  0.1040
 1562ntf    sn214237   5.713   6.616   4.090 -0.0756  0.0609  0.5768
 1562ntf    nn314238   5.668   6.766   4.091 -0.3572 -0.0151  0.0126
 1562ntf    sn214239   5.650   6.871   4.207  0.0503  0.0383  0.0302
 1562ntf    cn114240   5.468   6.874   4.201  0.0537  0.0696 -0.0619
 1562ntf    fn414241   5.926   6.707   3.971 -0.2221 -0.2015  0.1067
 1562ntf    fn414242   5.964   6.686   4.171 -0.6767  0.2123  0.2658
 1562ntf    fn414243   5.953   6.513   4.064 -0.2386 -0.3323  0.0216
 1562ntf    on514244   5.677   6.554   3.965  1.0461 -0.1094  0.3288
 1562ntf    on514245   5.683   6.532   4.203 -0.8132  0.2539  0.5294
 1562ntf    on514246   5.667   6.822   4.342 -0.0236  0.2664  0.1233
 1562ntf    on514247   5.690   7.004   4.171 -0.0722  0.1922  0.4542
 1562ntf    fn414248   5.408   6.769   4.255 -0.9158  0.6384  0.0024
 1562ntf    fn414249   5.421   6.859   4.079  0.3370 -0.2516 -0.1321
 1562ntf    fn414250   5.409   6.980   4.253 -0.4501 -0.3773  0.2891
 1563ntf    cn114251   4.847   6.297   1.899  0.0604  0.1135  0.2882
 1563ntf    sn214252   4.951   6.194   1.791 -0.3918  0.1626 -0.1929
 1563ntf    nn314253   5.017   6.309   1.707 -0.2586  0.2426  0.0224
 1563ntf    sn214254   4.977   6.370   1.568  0.0474 -0.0919 -0.2157
 1563ntf    cn114255   4.961   6.545   1.616  0.2956 -0.1632  0.1337
 1563ntf    fn414256   4.763   6.374   1.833 -0.0180 -0.0408  0.2101
 1563ntf    fn414257   4.773   6.231   1.986 -0.3405 -0.5189 -0.5323
 1563ntf    fn414258   4.929   6.384   1.957 -0.7141  0.7030  0.5077
 1563ntf    on514259   5.055   6.137   1.872 -0.0232  0.4662 -0.4521
 1563ntf    on514260   4.854   6.108   1.727 -0.2879 -0.0676 -0.0374
 1563ntf    on514261   5.091   6.363   1.480  0.7765 -1.1088  0.7761
 1563ntf    on514262   4.842   6.352   1.521 -0.2726  0.5430  0.4237
 1563ntf    fn414263   4.877   6.609   1.536  0.1597 -0.2056  0.2438
 1563ntf    fn414264   5.084   6.596   1.616  0.1312  0.2459 -0.1823
 1563ntf    fn414265   4.917   6.563   1.739 -0.3882 -0.4482 -0.0670
 1564ntf    cn114266   5.143   5.636   6.213  0.4433  0.4576 -0.2541
 1564ntf    sn214267   4.996   5.530   6.228  0.7135  0.1415  0.1729
 1564ntf    nn314268   4.984   5.540   6.384  0.1970 -0.1297  0.1531
 1564ntf    sn214269   4.871   5.614   6.465 -0.0475 -0.0896 -0.2243
 1564ntf    cn114270   4.798   5.460   6.528  0.1379 -0.3187 -0.5638
 1564ntf    fn414271   5.126   5.763   6.247 -0.0018  0.3747 -0.1591
 1564ntf    fn414272   5.244   5.586   6.281  0.0213  0.1960  0.1895
 1564ntf    fn414273   5.182   5.632   6.086  0.1990  0.1912 -0.3221
 1564ntf    on514274   4.893   5.594   6.149  0.0468 -0.5633  0.4587
 1564ntf    on514275   5.025   5.395   6.187 -0.4413 -0.0681 -0.0026
 1564ntf    on514276   4.933   5.666   6.583 -0.2630 -0.5627  0.1021
 1564ntf    on514277   4.757   5.684   6.410 -0.2896 -0.5074 -0.2602
 1564ntf    fn414278   4.781   5.359   6.444 -0.8918 -0.5899 -0.0546
 1564ntf    fn414279   4.682   5.484   6.586  0.2093  0.5122 -0.7581
 1564ntf    fn414280   4.872   5.410   6.627  0.8584  0.2094 -0.8275
 1565ntf    cn114281   0.973   4.347   1.293  0.2043  0.1898 -0.4211
 1565ntf    sn214282   1.143   4.406   1.269  0.2179  0.2839 -0.0877
 1565ntf    nn314283   1.202   4.362   1.408 -0.3376 -0.1446  0.0147
 1565ntf    sn214284   1.225   4.449   1.536 -0.1688  0.1664 -0.2256
 1565ntf    cn114285   1.377   4.536   1.488 -0.0156 -0.0870 -0.1955
 1565ntf    fn414286   0.900   4.366   1.184 -0.3273  0.8018  0.0426
 1565ntf    fn414287   0.963   4.216   1.310  0.4236  0.1181 -0.8184
 1565ntf    fn414288   0.913   4.407   1.393  0.2593 -0.6374  0.1154
 1565ntf    on514289   1.180   4.322   1.158 -0.4782  0.1619 -0.2322
 1565ntf    on514290   1.115   4.545   1.240  0.7418  0.2059 -1.0004
 1565ntf    on514291   1.123   4.552   1.538 -0.1318  0.2061 -0.3402
 1565ntf    on514292   1.252   4.372   1.655  0.7228 -0.2396 -0.6808
 1565ntf    fn414293   1.380   4.555   1.357 -0.7114 -0.3535 -0.2502
 1565ntf    fn414294   1.481   4.454   1.502  0.1740  0.2515  0.4179
 1565ntf    fn414295   1.398   4.653   1.546 -0.1911 -0.0941 -0.1163
 1566ntf    cn114296   4.708   1.775   0.716  0.1530  0.1235 -0.3014
 1566ntf    sn214297   4.772   1.745   0.549  0.0742 -0.1005 -0.2913
 1566ntf    nn314298   4.914   1.812   0.548  0.0698 -0.0929 -0.6611
 1566ntf    sn214299   5.057   1.749   0.551  0.0054 -0.2116 -0.0546
 1566ntf    cn114300   5.080   1.681   0.384  0.4451  0.0529 -0.1036
 1566ntf    fn414301   4.595   1.706   0.726  0.0473  0.3501  0.1000
 1566ntf    fn414302   4.794   1.733   0.807  0.0588  1.1273  0.2659
 1566ntf    fn414303   4.679   1.903   0.735  0.8850  0.2719 -0.1457
 1566ntf    on514304   4.781   1.601   0.547  0.0925 -0.1063  0.1994
 1566ntf    on514305   4.675   1.815   0.468 -0.6886  0.5917  1.1870
 1566ntf    on514306   5.167   1.841   0.566  0.2147 -0.2686 -1.2020
 1566ntf    on514307   5.063   1.632   0.636  0.2953 -0.1494  0.0129
 1566ntf    fn414308   4.964   1.637   0.339  0.4050  0.4002 -0.3405
 1566ntf    fn414309   5.168   1.582   0.371 -0.1609 -0.4458 -0.4627
 1566ntf    fn414310   5.116   1.779   0.303  0.3158 -0.3391 -0.6357
 1567ntf    cn114311   0.962   5.501   1.210  0.3405  0.2435 -0.6390
 1567ntf    sn214312   1.095   5.405   1.131  0.0483 -0.5998 -0.1153
 1567ntf    nn314313   1.026   5.302   1.035  0.0594 -0.5400 -0.1878
 1567ntf    sn214314   1.004   5.283   0.881  0.0195 -0.0196 -0.2473
 1567ntf    cn114315   1.136   5.164   0.844 -0.0338 -0.1628  0.0208
 1567ntf    fn414316   1.000   5.576   1.312 -0.9913  0.1972 -0.0806
 1567ntf    fn414317   0.899   5.589   1.134 -0.6885 -0.3931 -0.5438
 1567ntf    fn414318   0.868   5.426   1.264  0.5348  0.1230 -0.4682
 1567ntf    on514319   1.174   5.500   1.057  0.3698 -0.1941  0.7390
 1567ntf    on514320   1.164   5.342   1.241 -0.2695  0.7771  0.8993
 1567ntf    on514321   0.882   5.214   0.849  0.2278 -0.5636  0.1140
 1567ntf    on514322   1.046   5.393   0.798  0.5702 -0.3971 -0.4786
 1567ntf    fn414323   1.110   5.050   0.905 -0.5269 -0.0143  0.0878
 1567ntf    fn414324   1.254   5.205   0.889 -0.1524 -0.2017  0.3661
 1567ntf    fn414325   1.158   5.135   0.716  0.2608 -0.2674  0.0926
 1568ntf    cn114326   2.717   0.238   2.538  0.2004 -0.0682  0.2949
 1568ntf    sn214327   2.763   0.257   2.363 -0.2576 -0.1997  0.1598
 1568ntf    nn314328   2.808   0.407   2.367 -0.4094 -0.1471 -0.1169
 1568ntf    sn214329   2.786   0.524   2.264  0.0819 -0.0772 -0.1444
 1568ntf    cn114330   2.643   0.611   2.335  0.1327 -0.1756  0.0810
 1568ntf    fn414331   2.638   0.134   2.559  0.3738 -0.1100  0.7752
 1568ntf    fn414332   2.820   0.238   2.622  0.6150  0.1835 -0.2041
 1568ntf    fn414333   2.655   0.348   2.576  0.2825  0.0392  0.1182
 1568ntf    on514334   2.869   0.160   2.346 -0.0403  0.0997 -0.1883
 1568ntf    on514335   2.643   0.233   2.286 -0.0584  0.2531 -0.2950
 1568ntf    on514336   2.886   0.628   2.269  0.0772 -0.0916  0.2764
 1568ntf    on514337   2.742   0.490   2.131  0.7639 -0.3985 -0.2941
 1568ntf    fn414338   2.598   0.702   2.249  0.0996 -0.4310 -0.1719
 1568ntf    fn414339   2.677   0.671   2.449  0.4415  0.2398 -0.2227
 1568ntf    fn414340   2.532   0.544   2.361 -0.1970  0.4442  0.2897
 1569ntf    cn114341   5.235   2.119   1.176 -0.3462 -0.0059  0.3973
 1569ntf    sn214342   5.319   2.227   1.056  0.2896 -0.6253  0.2771
 1569ntf    nn314343   5.220   2.347   1.079  0.7289 -0.1679 -0.1902
 1569ntf    sn214344   5.184   2.459   0.975  0.0693 -0.1073  0.1006
 1569ntf    cn114345   5.007   2.430   0.946  0.0867 -0.0452 -0.0665
 1569ntf    fn414346   5.297   2.116   1.293 -0.3748  0.2496  0.4196
 1569ntf    fn414347   5.115   2.172   1.190 -0.5681 -0.2716 -0.4257
 1569ntf    fn414348   5.223   1.995   1.131 -0.0809  0.0746  0.1044
 1569ntf    on514349   5.450   2.245   1.113  0.4095 -0.8186  0.0626
 1569ntf    on514350   5.312   2.170   0.924  0.6706  0.2263 -0.1193
 1569ntf    on514351   5.181   2.584   1.048 -0.2839 -0.0237 -0.0558
 1569ntf    on514352   5.232   2.457   0.839 -0.9006 -0.1916 -0.2417
 1569ntf    fn414353   4.942   2.445   1.061 -0.2254 -0.7663 -0.1476
 1569ntf    fn414354   4.971   2.311   0.901  0.3954 -0.2949  0.3363
 1569ntf    fn414355   4.966   2.519   0.858 -0.5612 -0.1766  0.0998
 1570ntf    cn114356   1.527   2.816   3.658  0.4806 -0.1110  0.6052
 1570ntf    sn214357   1.565   2.688   3.535  0.1662  0.4107 -0.0405
 1570ntf    nn314358   1.612   2.784   3.419  0.4814 -0.5538 -0.7275
 1570ntf    sn214359   1.755   2.840   3.386  0.5323 -0.1079  0.2028
 1570ntf    cn114360   1.716   3.010   3.335  0.1511 -0.3128 -0.1942
 1570ntf    fn414361   1.614   2.800   3.756  0.1538 -0.6380  0.8167
 1570ntf    fn414362   1.520   2.942   3.619 -0.8333 -0.3077  0.1552
 1570ntf    fn414363   1.409   2.796   3.716  0.0753  0.1631 -0.1084
 1570ntf    on514364   1.675   2.614   3.593 -0.1010 -0.1313 -0.2181
 1570ntf    on514365   1.441   2.620   3.509  0.1452  0.5282 -0.2462
 1570ntf    on514366   1.843   2.875   3.494  0.6957  0.0339  0.0254
 1570ntf    on514367   1.814   2.771   3.274 -0.3178  0.7038 -0.7697
 1570ntf    fn414368   1.603   3.015   3.266 -0.2958 -0.4986  0.5125
 1570ntf    fn414369   1.813   3.071   3.270 -0.0672 -0.0312 -0.2603
 1570ntf    fn414370   1.692   3.096   3.432 -0.0990  0.0516 -0.5746
 1571ntf    cn114371   2.886   5.208   0.863  0.2035  0.0419 -0.4212
 1571ntf    sn214372   2.799   5.366   0.882  0.1189 -0.0543  0.0019
 1571ntf    nn314373   2.905   5.467   0.826 -0.0136  0.1672  0.1457
 1571ntf    sn214374   2.944   5.482   0.675 -0.4275  0.2299  0.0458
 1571ntf    cn114375   3.123   5.458   0.691 -0.3577  0.5766 -0.2073
 1571ntf    fn414376   2.988   5.191   0.946 -0.0748  0.0274 -0.0794
 1571ntf    fn414377   2.806   5.110   0.904 -0.3528  0.4286 -0.5751
 1571ntf    fn414378   2.925   5.178   0.740  0.6993 -0.0826 -0.2375
 1571ntf    on514379   2.672   5.354   0.816  0.3339  0.5757 -0.5375
 1571ntf    on514380   2.797   5.373   1.026  0.1262 -0.6763  0.0342
 1571ntf    on514381   2.896   5.377   0.587 -0.0646 -0.1081  0.2507
 1571ntf    on514382   2.932   5.620   0.634 -0.3136  0.3048  0.2619
 1571ntf    fn414383   3.197   5.453   0.581 -0.4578 -0.0684 -0.2450
 1571ntf    fn414384   3.149   5.343   0.751  0.4709  0.9072  0.0789
 1571ntf    fn414385   3.188   5.547   0.763  0.1170 -0.2652  0.4185
 1572ntf    cn114386   3.695   4.449   0.671  0.3028  0.4317  0.2855
 1572ntf    sn214387   3.627   4.502   0.830 -0.2540  0.1697  0.1341
 1572ntf    nn314388   3.560   4.362   0.858  0.1608 -0.0443  0.0676
 1572ntf    sn214389   3.409   4.324   0.838 -0.0476  0.4688  0.6366
 1572ntf    cn114390   3.357   4.230   0.984 -0.6966  0.1684  0.2211
 1572ntf    fn414391   3.590   4.405   0.604  0.1267  1.3021 -0.0228
 1572ntf    fn414392   3.769   4.540   0.608 -0.0880  0.3978 -0.2290
 1572ntf    fn414393   3.776   4.345   0.683  0.3188  0.3988 -0.0836
 1572ntf    on514394   3.742   4.520   0.916 -0.2702  0.2266  0.1434
 1572ntf    on514395   3.547   4.614   0.786 -0.1131 -0.0667 -0.7344
 1572ntf    on514396   3.307   4.427   0.833 -0.1119  0.3552 -0.8793
 1572ntf    on514397   3.380   4.222   0.740  0.2747  1.1296 -0.1598
 1572ntf    fn414398   3.251   4.156   0.958 -0.0320 -0.6632 -0.1637
 1572ntf    fn414399   3.341   4.303   1.094  0.0544  0.3935  0.1904
 1572ntf    fn414400   3.449   4.140   1.017 -0.2157  0.4313 -0.3833
 1573ntf    cn114401   0.468   4.197   1.228  0.2079 -0.3410  0.0643
 1573ntf    sn214402   0.298   4.225   1.286  0.2259  0.1767 -0.1232
 1573ntf    nn314403   0.219   4.166   1.163  0.5163  0.0851 -0.2666
 1573ntf    sn214404   0.145   4.028   1.159 -0.1585  0.4395 -0.1649
 1573ntf    cn114405   0.185   3.995   0.984  0.5174  0.2539  0.0215
 1573ntf    fn414406   0.501   4.273   1.125 -0.1392 -0.4635 -0.1383
 1573ntf    fn414407   0.545   4.236   1.328 -0.4440 -0.2327  0.5322
 1573ntf    fn414408   0.505   4.075   1.193 -0.0939 -0.4118 -0.0133
 1573ntf    on514409   0.291   4.163   1.416  0.4374  0.6104  0.0947
 1573ntf    on514410   0.291   4.368   1.297 -0.1660  0.1645 -0.1714
 1573ntf    on514411   0.206   3.909   1.211 -0.3357  0.3540 -0.1525
 1573ntf    on514412   0.001   4.027   1.150 -0.1734 -0.3494  0.1042
 1573ntf    fn414413   0.308   4.030   0.951  0.2926  0.4178 -0.6626
 1573ntf    fn414414   0.114   4.056   0.891  0.7649 -0.1982 -0.4649
 1573ntf    fn414415   0.167   3.871   0.943 -0.1285  0.4717 -0.3718
 1574ntf    cn114416   5.566   6.506   0.965  0.4006  0.1945  0.1517
 1574ntf    sn214417   5.743   6.516   0.928  0.4062 -0.2994  0.0434
 1574ntf    nn314418   5.784   6.489   1.077 -0.6933 -0.0194  0.4065
 1574ntf    sn214419   5.823   6.588   1.192 -0.2614  0.0301  0.2188
 1574ntf    cn114420   6.005   6.593   1.190 -0.2748  0.5834  0.2102
 1574ntf    fn414421   5.529   6.379   0.963 -0.3224  0.3999  0.2543
 1574ntf    fn414422   5.519   6.555   1.079 -0.8932 -0.3013 -0.1540
 1574ntf    fn414423   5.494   6.557   0.867  0.7198  0.1674 -0.0978
 1574ntf    on514424   5.770   6.405   0.839 -0.4770 -0.5918  0.1303
 1574ntf    on514425   5.761   6.646   0.869  0.0918 -0.0772  0.4337
 1574ntf    on514426   5.784   6.726   1.175  0.0067 -0.0117 -0.8411
 1574ntf    on514427   5.803   6.533   1.324  0.0688 -0.1317  0.2031
 1574ntf    fn414428   6.060   6.633   1.304  0.8968 -0.3173 -0.0138
 1574ntf    fn414429   6.046   6.665   1.087  0.0680 -0.3861 -0.3468
 1574ntf    fn414430   6.060   6.475   1.169 -0.0903  0.5919  0.6362
 1575ntf    cn114431   6.677   0.248   6.037  0.1175 -0.1838  0.4598
 1575ntf    sn214432   6.516   0.300   6.103  0.0507  0.3096 -0.0801
 1575ntf    nn314433   6.531   0.241   6.248 -0.6198  0.0930 -0.0927
 1575ntf    sn214434   6.517   0.304   6.391  0.2915  0.1668 -0.0262
 1575ntf    cn114435   6.366   0.223   6.454  0.1888  0.5084  0.1694
 1575ntf    fn414436   6.774   0.294   6.114  0.0001  0.3827  0.2779
 1575ntf    fn414437   6.694   0.118   6.023 -0.0214 -0.1311 -0.2400
 1575ntf    fn414438   6.687   0.312   5.921 -0.1138 -0.1440  0.4609
 1575ntf    on514439   6.524   0.443   6.096  0.3528  0.2684 -0.7310
 1575ntf    on514440   6.424   0.229   6.016  0.5460 -0.1501 -0.2357
 1575ntf    on514441   6.616   0.251   6.480  0.1125  0.1281  0.1495
 1575ntf    on514442   6.491   0.446   6.401  0.4388  0.1979 -0.0756
 1575ntf    fn414443   6.275   0.214   6.358  0.5523 -0.2157 -0.1144
 1575ntf    fn414444   6.310   0.287   6.555 -0.0310  0.1299  0.2872
 1575ntf    fn414445   6.389   0.100   6.497  0.4134  0.4521 -0.1061
 1576ntf    cn114446   4.305   5.941   4.058 -0.0313  0.0529  0.1777
 1576ntf    sn214447   4.159   5.974   4.160  0.0074  0.1719  0.1946
 1576ntf    nn314448   4.085   5.839   4.129 -0.1614  0.2901  0.0847
 1576ntf    sn214449   4.024   5.773   4.000 -0.0244 -0.0068  0.1732
 1576ntf    cn114450   3.860   5.722   4.062  0.1819 -0.3183  0.4721
 1576ntf    fn414451   4.393   6.036   4.085  0.1517  0.0733 -0.4665
 1576ntf    fn414452   4.362   5.824   4.082 -0.4483 -0.1463  0.1929
 1576ntf    fn414453   4.296   5.945   3.926  0.1905 -0.2487  0.1514
 1576ntf    on514454   4.213   5.986   4.293 -1.2024  0.5776  0.6623
 1576ntf    on514455   4.105   6.093   4.100  0.1643 -0.2024 -0.6972
 1576ntf    on514456   3.998   5.853   3.884  0.0869  0.0224  0.1684
 1576ntf    on514457   4.090   5.646   3.984 -0.3975 -0.1843  0.0309
 1576ntf    fn414458   3.874   5.642   4.166  0.0719 -1.0464 -0.0698
 1576ntf    fn414459   3.789   5.650   3.977  0.3375  0.2238 -0.1282
 1576ntf    fn414460   3.790   5.826   4.105  0.0320 -0.0225 -0.4611
 1577ntf    cn114461   2.694   1.825   0.979  0.2899  0.3834  0.1525
 1577ntf    sn214462   2.579   1.965   0.981 -0.0814  0.0853 -0.0988
 1577ntf    nn314463   2.677   2.063   0.906  0.1839 -0.3179 -0.2795
 1577ntf    sn214464   2.674   2.220   0.905 -0.1878 -0.3157  0.5035
 1577ntf    cn114465   2.797   2.260   1.033 -0.4349 -0.1361  0.6848
 1577ntf    fn414466   2.820   1.854   1.006  0.1893  0.5707  0.4301
 1577ntf    fn414467   2.655   1.731   1.064  0.1433  0.4480  0.1571
 1577ntf    fn414468   2.717   1.764   0.864  0.5417  0.2923  0.2491
 1577ntf    on514469   2.464   1.917   0.908 -0.1586 -0.7638  0.5645
 1577ntf    on514470   2.562   1.990   1.122  0.8961  0.0467  0.0285
 1577ntf    on514471   2.738   2.268   0.785 -0.0507 -0.3101  0.5779
 1577ntf    on514472   2.553   2.290   0.941 -0.3050 -0.0441 -0.3945
 1577ntf    fn414473   2.795   2.176   1.135  0.4083 -0.6156  0.3144
 1577ntf    fn414474   2.792   2.381   1.086  0.4976  0.3259 -0.2356
 1577ntf    fn414475   2.919   2.243   0.986 -0.5383 -0.0264  0.3728
 1578ntf    cn114476   4.567   1.829   6.424  0.0466 -0.1871  0.1166
 1578ntf    sn214477   4.735   1.762   6.444  0.1161 -0.0413  0.0318
 1578ntf    nn314478   4.724   1.711   6.592 -0.0400 -0.0567  0.0153
 1578ntf    sn214479   4.703   1.566   6.648  0.3124 -0.1318 -0.0448
 1578ntf    cn114480   4.876   1.514   6.672  0.4114  0.4215  0.4787
 1578ntf    fn414481   4.471   1.753   6.473 -0.0865  0.4235  0.8295
 1578ntf    fn414482   4.552   1.944   6.489 -1.0441 -0.2123 -0.0757
 1578ntf    fn414483   4.534   1.857   6.299  0.0698  0.0350  0.1596
 1578ntf    on514484   4.741   1.662   6.341 -0.8971 -0.4147  0.3210
 1578ntf    on514485   4.820   1.878   6.432  0.0168  0.0067 -0.2049
 1578ntf    on514486   4.650   1.573   6.782  0.3941 -0.2642 -0.0058
 1578ntf    on514487   4.639   1.471   6.561  0.4170  0.0464 -0.3163
 1578ntf    fn414488   4.932   1.600   6.755  0.4533  0.3582  0.5159
 1578ntf    fn414489   4.953   1.514   6.564 -0.5943  0.1269 -0.2562
 1578ntf    fn414490   4.879   1.393   6.725  1.1244  0.2107 -0.0335
 1579ntf    cn114491   3.544   5.250   2.802 -0.2613  0.1907 -0.7121
 1579ntf    sn214492   3.378   5.323   2.791 -0.1587  0.5302 -0.0053
 1579ntf    nn314493   3.425   5.470   2.819 -0.0217  0.4276  0.3220
 1579ntf    sn214494   3.368   5.596   2.743 -0.1170 -0.0963 -0.4950
 1579ntf    cn114495   3.466   5.609   2.591  0.1543 -0.6650 -0.3721
 1579ntf    fn414496   3.610   5.298   2.905 -0.1778 -1.0836 -0.1506
 1579ntf    fn414497   3.551   5.118   2.805  0.2254  0.2348  0.1469
 1579ntf    fn414498   3.616   5.283   2.696  0.3093  0.6087 -0.1935
 1579ntf    on514499   3.333   5.287   2.659 -0.0825 -0.2136  0.1650
 1579ntf    on514500   3.301   5.274   2.904  0.2947  0.4635  0.2766
 1579ntf    on514501   3.228   5.591   2.711 -0.1172  0.4736 -0.5864
 1579ntf    on514502   3.417   5.710   2.818 -0.5339  0.2469 -0.7456
 1579ntf    fn414503   3.398   5.656   2.487 -0.0350  0.0682  0.0729
 1579ntf    fn414504   3.506   5.490   2.548  0.4815 -0.5406 -0.4127
 1579ntf    fn414505   3.573   5.687   2.593 -0.0412 -0.3955 -0.3525
 1580ntf    cn114506   4.645   0.618   5.217  0.4926  0.3873 -0.1713
 1580ntf    sn214507   4.572   0.716   5.082 -0.1448 -0.0708 -0.1677
 1580ntf    nn314508   4.684   0.699   4.973  0.1791  0.3325  0.0983
 1580ntf    sn214509   4.681   0.713   4.816  0.0500 -0.2689  0.0423
 1580ntf    cn114510   4.672   0.542   4.756  0.0533 -0.5545  0.8470
 1580ntf    fn414511   4.768   0.650   5.252  0.5704 -0.3817  0.2949
 1580ntf    fn414512   4.568   0.632   5.323  0.6298  0.0997 -0.0326
 1580ntf    fn414513   4.644   0.490   5.180 -0.5264  0.3037  0.1037
 1580ntf    on514514   4.450   0.644   5.057 -0.3859  0.5076 -0.6628
 1580ntf    on514515   4.559   0.847   5.140 -0.0389 -0.2872  0.3466
 1580ntf    on514516   4.557   0.769   4.769  0.1400  0.1108  0.2491
 1580ntf    on514517   4.797   0.767   4.749 -0.1777 -0.3753 -0.4393
 1580ntf    fn414518   4.693   0.526   4.627  0.1968  0.2363  0.7697
 1580ntf    fn414519   4.549   0.496   4.776 -0.0768 -0.5017  0.1766
 1580ntf    fn414520   4.758   0.463   4.819  0.2010 -0.8383  0.2949
 1581ntf    cn114521   0.356   6.205   5.370  0.1698  0.1374  0.1104
 1581ntf    sn214522   0.361   6.284   5.534 -0.0223 -0.1526  0.2591
 1581ntf    nn314523   0.312   6.173   5.633 -0.7259 -0.8885 -0.8928
 1581ntf    sn214524   0.172   6.145   5.698 -0.3738 -0.3876  0.1055
 1581ntf    cn114525   0.191   6.246   5.848 -0.1816  0.3320 -0.4031
 1581ntf    fn414526   0.236   6.197   5.316  0.2679  0.3917 -0.1452
 1581ntf    fn414527   0.416   6.287   5.286  0.4551  0.3315  0.5007
 1581ntf    fn414528   0.421   6.090   5.371 -0.4209 -0.2026  0.0570
 1581ntf    on514529   0.501   6.310   5.555 -0.1534  0.4724  0.3769
 1581ntf    on514530   0.277   6.399   5.508  0.0952  0.0486  0.7661
 1581ntf    on514531   0.063   6.204   5.624 -0.0213  0.1707  0.0323
 1581ntf    on514532   0.166   6.008   5.744 -0.3827 -0.4649 -0.1223
 1581ntf    fn414533   0.103   6.221   5.943  0.2914  0.4806  0.0799
 1581ntf    fn414534   0.201   6.373   5.811  0.4844  0.3017 -0.3343
 1581ntf    fn414535   0.303   6.198   5.898 -0.4439  0.2097  0.0724
 1582ntf    cn114536   3.743   3.972   4.717 -0.7101 -0.4496  0.1826
 1582ntf    sn214537   3.732   3.791   4.705 -0.5666 -0.4418 -0.0872
 1582ntf    nn314538   3.613   3.773   4.807 -0.2734  0.4288  0.4221
 1582ntf    sn214539   3.536   3.638   4.831  0.4460 -0.0807 -0.0380
 1582ntf    cn114540   3.627   3.565   4.970  0.6361  0.2185 -0.0048
 1582ntf    fn414541   3.773   4.023   4.835 -0.4348 -0.4188  0.0990
 1582ntf    fn414542   3.818   4.025   4.622 -0.2414 -0.1406  0.7226
 1582ntf    fn414543   3.626   4.024   4.684 -0.4793  0.3048  0.5307
 1582ntf    on514544   3.712   3.769   4.564  0.6659  0.0762 -0.3576
 1582ntf    on514545   3.861   3.747   4.754 -0.2330 -0.1209 -0.6707
 1582ntf    on514546   3.398   3.650   4.872  0.2930  0.5597 -0.7274
 1582ntf    on514547   3.541   3.540   4.726  0.7323 -0.0174 -0.0839
 1582ntf    fn414548   3.745   3.522   4.928  0.1871 -0.7430 -0.2976
 1582ntf    fn414549   3.570   3.459   5.024  0.1873  0.5232  0.1280
 1582ntf    fn414550   3.649   3.645   5.073  0.3657 -0.4822  0.6057
 1583ntf    cn114551   1.982   1.870   3.954  0.1958  0.5006  0.0631
 1583ntf    sn214552   1.914   1.770   3.818  0.2380 -0.2119  0.5623
 1583ntf    nn314553   1.788   1.847   3.767  0.1944 -0.8120 -0.2528
 1583ntf    sn214554   1.638   1.840   3.813  0.1688  0.1618 -0.1526
 1583ntf    cn114555   1.553   1.720   3.706 -0.0195 -0.1156  0.3008
 1583ntf    fn414556   2.102   1.831   3.995 -0.0296 -0.6721 -0.3620
 1583ntf    fn414557   1.992   1.998   3.922 -0.0928  0.4713 -0.1437
 1583ntf    fn414558   1.896   1.868   4.054  0.1261 -0.3437 -0.0104
 1583ntf    on514559   2.025   1.772   3.726 -0.0466 -0.4583  0.2149
 1583ntf    on514560   1.880   1.647   3.884 -0.1498 -0.4331 -0.0492
 1583ntf    on514561   1.624   1.775   3.941  0.2845 -0.3571 -0.4002
 1583ntf    on514562   1.566   1.964   3.794  0.0352  0.1018 -0.0436
 1583ntf    fn414563   1.619   1.606   3.690  0.2721  0.1123 -0.1614
 1583ntf    fn414564   1.545   1.776   3.586 -0.5073 -0.0009  0.3874
 1583ntf    fn414565   1.428   1.699   3.742 -0.1486  0.7764  0.3826
 1584ntf    cn114566   2.386   3.761   5.413 -0.0753 -0.0112  0.3575
 1584ntf    sn214567   2.550   3.837   5.401 -0.0486 -0.1171  0.0382
 1584ntf    nn314568   2.621   3.798   5.536 -0.7731 -0.2275  0.3902
 1584ntf    sn214569   2.682   3.661   5.583  0.2181  0.1130  0.1175
 1584ntf    cn114570   2.769   3.598   5.436 -0.4238  0.0627 -0.2435
 1584ntf    fn414571   2.286   3.821   5.351 -0.3965 -0.5622  0.3301
 1584ntf    fn414572   2.390   3.638   5.365 -0.0805  0.0717  0.1437
 1584ntf    fn414573   2.337   3.749   5.535  0.3402 -0.0277  0.5230
 1584ntf    on514574   2.616   3.799   5.279 -0.3488 -0.4645 -0.0167
 1584ntf    on514575   2.517   3.977   5.403 -0.0152 -0.1064 -0.1750
 1584ntf    on514576   2.792   3.676   5.675  0.1824  0.2986  0.1305
 1584ntf    on514577   2.587   3.558   5.619 -0.0673  0.4821  0.4292
 1584ntf    fn414578   2.861   3.677   5.383  0.1202 -0.1764  0.3351
 1584ntf    fn414579   2.679   3.572   5.343 -0.0880  0.7506 -0.7729
 1584ntf    fn414580   2.818   3.480   5.469 -0.5732  0.1994  0.5031
 1585ntf    cn114581   6.171   5.748   2.007  0.1351  0.2765  0.1140
 1585ntf    sn214582   6.316   5.645   2.044  0.1225  0.1899 -0.0763
 1585ntf    nn314583   6.274   5.542   2.154 -0.3109  0.6184  0.1600
 1585ntf    sn214584   6.135   5.473   2.184 -0.0417 -0.0439 -0.0954
 1585ntf    cn114585   6.169   5.305   2.125 -0.5194 -0.2283  0.1520
 1585ntf    fn414586   6.097   5.696   1.910  0.0923 -0.2310  0.4134
 1585ntf    fn414587   6.093   5.773   2.111  0.1818 -0.5755  0.3615
 1585ntf    fn414588   6.200   5.868   1.960  0.5565  0.2471  0.2962
 1585ntf    on514589   6.339   5.585   1.915 -0.5559 -0.2512  0.0024
 1585ntf    on514590   6.408   5.745   2.093  0.1547 -0.0748  0.4053
 1585ntf    on514591   6.114   5.454   2.325  0.2133  0.1584 -0.0279
 1585ntf    on514592   6.023   5.520   2.107 -0.4610 -0.3761  0.3130
 1585ntf    fn414593   6.191   5.300   1.995  0.6091 -0.1252  0.3237
 1585ntf    fn414594   6.071   5.226   2.165 -0.4326 -0.5063 -0.1764
 1585ntf    fn414595   6.281   5.262   2.182 -0.5591 -0.6639 -0.0903
 1586ntf    cn114596   1.180   1.859   3.273  0.1772 -0.0898  0.1087
 1586ntf    sn214597   1.108   1.972   3.150 -0.0380 -0.0269  0.2924
 1586ntf    nn314598   0.983   1.889   3.103 -0.2227  0.1352  0.4946
 1586ntf    sn214599   0.985   1.785   2.986  0.1983  0.2816  0.3710
 1586ntf    cn114600   0.931   1.882   2.843  0.7942  0.5140  0.2992
 1586ntf    fn414601   1.292   1.916   3.314 -0.1216  0.4802  0.1398
 1586ntf    fn414602   1.099   1.844   3.377  0.0449  0.4994  0.0936
 1586ntf    fn414603   1.211   1.738   3.228 -0.3205 -0.1812  0.0066
 1586ntf    on514604   1.064   2.084   3.230 -0.3497  0.4427 -0.5243
 1586ntf    on514605   1.211   1.997   3.052 -0.0712  0.3058  0.3424
 1586ntf    on514606   1.110   1.729   2.939 -0.2335  0.1392 -0.6186
 1586ntf    on514607   0.880   1.688   3.003  0.0967  0.2489 -0.4190
 1586ntf    fn414608   0.925   1.806   2.735 -0.6045  0.6488  0.2634
 1586ntf    fn414609   0.999   1.991   2.809  0.5665  0.5119 -0.1743
 1586ntf    fn414610   0.805   1.920   2.861  0.5601 -0.0231 -0.1527
 1587ntf    cn114611   4.341   4.162   6.048  0.0739 -0.0871 -0.1119
 1587ntf    sn214612   4.332   4.329   6.118 -0.2704  0.0992 -0.5924
 1587ntf    nn314613   4.440   4.405   6.032 -0.1969 -0.6057 -1.1312
 1587ntf    sn214614   4.596   4.399   6.054 -0.4065 -0.3525  0.5967
 1587ntf    cn114615   4.636   4.575   6.074  0.2223 -0.3847 -0.3200
 1587ntf    fn414616   4.316   4.061   6.129  0.1909 -0.1920 -0.2070
 1587ntf    fn414617   4.260   4.147   5.944  0.0785  0.2093 -0.1609
 1587ntf    fn414618   4.464   4.128   6.015 -0.0762 -0.4351 -0.3154
 1587ntf    on514619   4.203   4.379   6.077 -0.5506  0.2697  0.4649
 1587ntf    on514620   4.357   4.307   6.258 -0.4116  0.8037 -0.4490
 1587ntf    on514621   4.638   4.339   6.178 -0.5435 -0.1263  0.7529
 1587ntf    on514622   4.657   4.349   5.933 -0.2856  0.1862  0.4324
 1587ntf    fn414623   4.582   4.617   6.188  1.0222  0.3463 -0.2020
 1587ntf    fn414624   4.585   4.660   5.987 -0.2839  0.3586  0.6793
 1587ntf    fn414625   4.766   4.599   6.077  0.1032  0.2422 -0.0796
 1588ntf    cn114626   4.092   6.835   0.759  0.2332 -0.2035 -0.1645
 1588ntf    sn214627   3.945   6.829   0.652  0.2609  0.2038 -0.2272
 1588ntf    nn314628   3.868   6.702   0.703 -0.1771  0.5657  0.0141
 1588ntf    sn214629   3.741   6.635   0.639  0.2331 -0.0544 -0.1541
 1588ntf    cn114630   3.826   6.508   0.539  0.4354  0.1499 -0.2430
 1588ntf    fn414631   4.062   6.862   0.885 -0.2254  0.0173 -0.3165
 1588ntf    fn414632   4.171   6.730   0.741  0.6287  0.0281  0.2050
 1588ntf    fn414633   4.168   6.937   0.724 -0.0028 -0.0263 -0.1677
 1588ntf    on514634   3.873   6.951   0.677 -0.2132  0.0262 -0.6967
 1588ntf    on514635   4.003   6.810   0.521 -0.1627  0.8737 -0.5175
 1588ntf    on514636   3.674   6.549   0.733  0.4438 -0.2725 -0.2012
 1588ntf    on514637   3.670   6.715   0.543 -0.1812  0.0162  0.2082
 1588ntf    fn414638   3.905   6.555   0.445  0.5074  0.6455  0.0592
 1588ntf    fn414639   3.741   6.421   0.486  0.4566  0.0088 -0.0460
 1588ntf    fn414640   3.900   6.435   0.620 -0.5399 -0.5420  0.0486
 1589ntf    cn114641   0.615   4.163   2.943  0.3417  0.3610 -0.1800
 1589ntf    sn214642   0.631   4.014   2.839  0.1420  0.1372  0.1094
 1589ntf    nn314643   0.788   4.013   2.841  0.1438  0.2362  0.0381
 1589ntf    sn214644   0.903   3.927   2.904  0.0270 -0.0711 -0.1657
 1589ntf    cn114645   1.036   4.051   2.908 -0.2076  0.1713  0.1059
 1589ntf    fn414646   0.496   4.219   2.926  0.1489  0.1540  0.4617
 1589ntf    fn414647   0.628   4.131   3.070 -0.3959 -0.1387 -0.2260
 1589ntf    fn414648   0.707   4.254   2.916  0.6906  0.1881  0.4094
 1589ntf    on514649   0.551   3.918   2.911 -0.1040  0.1942 -0.0855
 1589ntf    on514650   0.586   4.061   2.711 -0.8377 -0.0759  0.3694
 1589ntf    on514651   0.882   3.905   3.045  0.6347 -0.6631 -0.1591
 1589ntf    on514652   0.951   3.813   2.829  0.9412 -0.2965  0.7364
 1589ntf    fn414653   0.978   4.161   2.954  0.3091  0.2899  0.4821
 1589ntf    fn414654   1.081   4.079   2.787  0.5940 -0.2834  0.2962
 1589ntf    fn414655   1.145   4.031   2.980 -0.0374 -0.1337 -0.2348
 1590ntf    cn114656   2.461   6.262   2.358 -0.2453  0.1063 -0.4237
 1590ntf    sn214657   2.354   6.393   2.291 -0.4175  0.0319 -0.2947
 1590ntf    nn314658   2.221   6.311   2.270 -0.4047 -0.1851  0.4335
 1590ntf    sn214659   2.073   6.361   2.277 -0.2751  0.1766  0.6429
 1590ntf    cn114660   2.021   6.364   2.103 -0.0033  0.0840  0.5599
 1590ntf    fn414661   2.414   6.214   2.472 -0.2280  0.1362 -0.4040
 1590ntf    fn414662   2.473   6.151   2.286  1.2028  0.0441 -0.1143
 1590ntf    fn414663   2.586   6.301   2.377 -0.1088 -0.3834 -0.2984
 1590ntf    on514664   2.337   6.484   2.401 -0.8902 -0.8578  0.3867
 1590ntf    on514665   2.433   6.432   2.177 -0.5492 -0.6349 -0.6228
 1590ntf    on514666   1.985   6.253   2.316  0.6687 -0.9842 -0.3758
 1590ntf    on514667   2.044   6.493   2.327 -0.3619  0.1816  0.5801
 1590ntf    fn414668   1.891   6.382   2.085  0.0011 -0.1415  0.2942
 1590ntf    fn414669   2.056   6.252   2.042 -0.7673 -0.0984  0.4455
 1590ntf    fn414670   2.083   6.464   2.043 -0.3882  0.3340  0.5710
 1591ntf    cn114671   4.838   2.337   3.091 -0.3434 -0.1807  0.2255
 1591ntf    sn214672   4.812   2.158   3.108  0.1565 -0.3097 -0.3721
 1591ntf    nn314673   4.748   2.114   2.971  0.0210 -0.0516 -0.3928
 1591ntf    sn214674   4.630   2.017   2.938 -0.0360  0.0967 -0.6247
 1591ntf    cn114675   4.496   2.136   2.911 -0.2592  0.0308  0.1543
 1591ntf    fn414676   4.909   2.392   3.188  0.3049 -0.2440 -0.2110
 1591ntf    fn414677   4.894   2.367   2.975 -0.1492  0.1069  0.3911
 1591ntf    fn414678   4.729   2.412   3.099  0.0879  0.4586  0.1960
 1591ntf    on514679   4.949   2.112   3.115  0.1408 -0.2719  0.1886
 1591ntf    on514680   4.731   2.158   3.227  0.6207 -0.1867 -0.0517
 1591ntf    on514681   4.658   1.958   2.809  1.0465 -0.4042 -0.1692
 1591ntf    on514682   4.576   1.927   3.037  0.0755 -0.0520 -0.6978
 1591ntf    fn414683   4.451   2.195   3.020 -0.3698 -0.0767  0.1669
 1591ntf    fn414684   4.386   2.076   2.869 -0.2113  0.1274 -0.1129
 1591ntf    fn414685   4.519   2.221   2.812 -0.3134  0.0498  0.1580
 1592ntf    cn114686   5.408   4.796   0.910  0.3990 -0.7147  0.4581
 1592ntf    sn214687   5.481   4.830   1.072 -0.0174  0.1095  0.4832
 1592ntf    nn314688   5.365   4.916   1.133  0.1738  0.6387  0.1022
 1592ntf    sn214689   5.238   4.872   1.214  0.1080  0.2272 -0.2190
 1592ntf    cn114690   5.284   4.905   1.386 -0.4098  0.4164 -0.1123
 1592ntf    fn414691   5.468   4.706   0.834  0.0778 -0.1600 -0.4840
 1592ntf    fn414692   5.283   4.754   0.926  0.0439  0.1146 -0.0361
 1592ntf    fn414693   5.402   4.906   0.836  0.2036 -0.7845  0.3689
 1592ntf    on514694   5.504   4.699   1.129  0.2524 -0.0570 -0.0034
 1592ntf    on514695   5.598   4.907   1.037  0.0666 -0.0683  0.3698
 1592ntf    on514696   5.135   4.973   1.202  0.1893  0.3567  0.1631
 1592ntf    on514697   5.193   4.735   1.214  0.4649  0.1098  0.0023
 1592ntf    fn414698   5.413   4.896   1.417 -0.3030 -0.2510 -0.7165
 1592ntf    fn414699   5.232   4.817   1.470  0.2934 -0.0812 -0.1830
 1592ntf    fn414700   5.253   5.024   1.434  0.0483  0.2060  0.7356
 1593ntf    cn114701   0.700   4.839   1.872 -0.2747 -0.0276  0.1546
 1593ntf    sn214702   0.587   4.938   1.770 -0.2880 -0.1225  0.0778
 1593ntf    nn314703   0.629   5.082   1.815  0.4963 -0.3311  0.0229
 1593ntf    sn214704   0.549   5.214   1.840  0.5606 -0.2706 -0.0819
 1593ntf    cn114705   0.617   5.336   1.724  0.7953 -0.5057 -0.1903
 1593ntf    fn414706   0.687   4.863   2.001  0.0722  0.7391  0.0566
 1593ntf    fn414707   0.685   4.710   1.847 -0.3077 -0.0224  0.1469
 1593ntf    fn414708   0.823   4.878   1.843 -0.2640 -0.3977 -0.3118
 1593ntf    on514709   0.636   4.908   1.637  0.0626 -0.8601  0.3696
 1593ntf    on514710   0.456   4.889   1.804 -0.1566 -0.9368 -0.5354
 1593ntf    on514711   0.411   5.211   1.798  0.2000  0.2809  1.0233
 1593ntf    on514712   0.572   5.265   1.973 -0.0363 -0.3355  0.0488
 1593ntf    fn414713   0.749   5.331   1.720  0.7879 -0.4627 -0.4816
 1593ntf    fn414714   0.579   5.459   1.754 -0.0590 -0.7344 -0.3248
 1593ntf    fn414715   0.582   5.305   1.601 -0.2016 -0.3198  0.0412
 1594ntf    cn114716   3.244   3.043   3.545 -0.1313  0.8624  0.3408
 1594ntf    sn214717   3.087   2.970   3.488  0.2372  0.1226  0.2640
 1594ntf    nn314718   2.994   2.977   3.615  0.4469 -0.0432  0.4283
 1594ntf    sn214719   2.912   3.097   3.674  0.0166 -0.3699  0.4956
 1594ntf    cn114720   2.751   3.096   3.589  0.2143  0.3902  0.0989
 1594ntf    fn414721   3.224   3.138   3.635  0.0077  0.7451  0.4969
 1594ntf    fn414722   3.319   2.958   3.613  0.1126  0.4504 -0.4364
 1594ntf    fn414723   3.333   3.093   3.461 -0.2470 -0.0953 -0.3694
 1594ntf    on514724   3.043   3.043   3.372 -0.3688  0.6629  0.8248
 1594ntf    on514725   3.118   2.832   3.461  0.5822  0.1219  0.6406
 1594ntf    on514726   2.867   3.077   3.809 -0.6432 -0.2352  0.2976
 1594ntf    on514727   2.974   3.221   3.633  0.2346 -0.7733 -0.4225
 1594ntf    fn414728   2.746   3.113   3.458 -0.7832 -0.3534  0.0287
 1594ntf    fn414729   2.669   3.178   3.652  0.1478  0.3959  0.0053
 1594ntf    fn414730   2.697   2.976   3.606  0.2679  0.4551  0.7702
 1595ntf    cn114731   0.193   3.850   6.393 -0.2785 -0.4983  0.4499
 1595ntf    sn214732   0.316   3.964   6.323 -0.4916 -0.6014 -0.0957
 1595ntf    nn314733   0.423   3.868   6.259 -0.1055 -0.4783  0.3635
 1595ntf    sn214734   0.570   3.889   6.208 -0.3291  0.0801 -0.0586
 1595ntf    cn114735   0.533   3.915   6.032 -0.0082 -0.0494 -0.1450
 1595ntf    fn414736   0.251   3.761   6.471 -0.1485 -0.0544  0.8657
 1595ntf    fn414737   0.106   3.922   6.462 -0.2786 -0.1945  0.1358
 1595ntf    fn414738   0.122   3.790   6.299  0.1204  0.0867 -0.2301
 1595ntf    on514739   0.227   4.043   6.241 -0.0335 -0.1868 -0.1987
 1595ntf    on514740   0.354   4.035   6.442 -0.4068 -0.4082 -0.2387
 1595ntf    on514741   0.628   4.017   6.238  0.5674 -0.2369 -0.4184
 1595ntf    on514742   0.648   3.768   6.207 -0.8897 -0.2821 -0.7791
 1595ntf    fn414743   0.476   3.807   5.981 -0.3665  0.1027 -0.0642
 1595ntf    fn414744   0.635   3.962   5.961 -0.0104  0.0353 -0.0915
 1595ntf    fn414745   0.448   4.014   6.014 -0.3339 -0.3444 -0.2362
 1596ntf    cn114746   3.028   2.441   0.224 -0.0106 -0.2044 -0.3375
 1596ntf    sn214747   3.059   2.286   0.133  0.3515 -0.2047 -0.2121
 1596ntf    nn314748   2.977   2.290  -0.000 -0.1166 -0.3700  0.0687
 1596ntf    sn214749   2.822   2.276  -0.020 -0.1380 -0.1478  0.0794
 1596ntf    cn114750   2.780   2.447  -0.067  0.0013 -0.1989 -0.2271
 1596ntf    fn414751   3.062   2.549   0.157 -0.3321  0.0429 -0.1053
 1596ntf    fn414752   2.900   2.457   0.255  0.1012  0.8577 -0.3976
 1596ntf    fn414753   3.095   2.442   0.338 -0.3025 -0.4710 -0.1595
 1596ntf    on514754   3.198   2.291   0.093  0.2187 -0.9932 -0.7862
 1596ntf    on514755   3.017   2.188   0.230  0.0046  0.2377  0.0890
 1596ntf    on514756   2.788   2.190  -0.131  0.0189  0.1624 -0.2101
 1596ntf    on514757   2.743   2.268   0.101 -0.1647 -0.0770  0.0671
 1596ntf    fn414758   2.768   2.453  -0.199  0.0630 -0.5419 -0.2508
 1596ntf    fn414759   2.864   2.543  -0.034 -0.2081 -0.1694  0.2205
 1596ntf    fn414760   2.668   2.492  -0.014  0.1117 -0.0469 -0.1229
 1597ntf    cn114761   6.549   4.403   4.044 -0.4409  0.3667 -0.0417
 1597ntf    sn214762   6.387   4.339   3.992 -0.2171 -0.0919 -0.1817
 1597ntf    nn314763   6.423   4.298   3.845  0.1941 -0.4638  0.0167
 1597ntf    sn214764   6.418   4.371   3.706 -0.2684  0.2940  0.4224
 1597ntf    cn114765   6.254   4.326   3.644 -0.0137  0.3889 -0.3301
 1597ntf    fn414766   6.539   4.469   4.158 -0.4483  0.6713 -0.2183
 1597ntf    fn414767   6.646   4.313   4.051 -0.2189  0.6014 -0.0880
 1597ntf    fn414768   6.584   4.502   3.964  0.2947  0.3767  0.2817
 1597ntf    on514769   6.377   4.229   4.085  0.1659 -0.3576 -0.4504
 1597ntf    on514770   6.294   4.449   3.992 -0.3698 -0.2191 -0.1020
 1597ntf    on514771   6.423   4.515   3.711 -0.0061  0.2661  1.1209
 1597ntf    on514772   6.507   4.305   3.614 -0.2527  0.5940  0.2212
 1597ntf    fn414773   6.247   4.364   3.517 -0.5700  0.1548 -0.3718
 1597ntf    fn414774   6.162   4.386   3.718  0.0633 -0.1330  0.1944
 1597ntf    fn414775   6.224   4.198   3.652  0.6963  0.2624  0.3117
 1598ntf    cn114776   0.103   6.719   3.656  0.1654 -0.2284  0.0275
 1598ntf    sn214777  -0.057   6.695   3.740  0.2923 -0.0342  0.3285
 1598ntf    nn314778  -0.078   6.834   3.809  0.0113  0.4851 -0.7699
 1598ntf    sn214779  -0.061   6.867   3.962 -0.0046 -0.2419 -0.6109
 1598ntf    cn114780   0.027   7.025   3.948 -0.4190  0.0279 -0.1809
 1598ntf    fn414781   0.199   6.759   3.738 -0.1503 -0.2396  0.4069
 1598ntf    fn414782   0.141   6.604   3.604  0.4374 -0.2137  0.1904
 1598ntf    fn414783   0.100   6.811   3.562  0.9256 -0.5308 -0.2951
 1598ntf    on514784  -0.139   6.684   3.621  0.3187 -0.3875  0.3432
 1598ntf    on514785  -0.043   6.582   3.827  0.2568 -0.1938  0.1281
 1598ntf    on514786  -0.187   6.903   4.020  0.1303 -0.1753 -0.3580
 1598ntf    on514787   0.030   6.787   4.041 -0.1749  0.5260  0.3703
 1598ntf    fn414788   0.140   7.020   3.879  0.0707  0.5470  0.5587
 1598ntf    fn414789   0.062   7.081   4.063 -0.3015  0.4151 -0.4012
 1598ntf    fn414790  -0.054   7.113   3.890 -0.0050 -0.0018 -0.8175
 1599ntf    cn114791   3.897   6.606   1.402 -0.4891 -0.2278  0.4752
 1599ntf    sn214792   3.956   6.777   1.390 -0.1099 -0.3939 -0.0487
 1599ntf    nn314793   3.844   6.849   1.473 -0.0670 -0.3696 -0.0109
 1599ntf    sn214794   3.838   6.872   1.628 -0.0862  0.0600 -0.0732
 1599ntf    cn114795   3.895   7.044   1.621  0.3748 -0.0846  0.1023
 1599ntf    fn414796   3.949   6.522   1.314  0.5209  0.5985  0.2624
 1599ntf    fn414797   3.922   6.556   1.523  0.4241  0.3380  0.5323
 1599ntf    fn414798   3.766   6.602   1.385 -0.4512 -0.1430  0.1550
 1599ntf    on514799   4.092   6.781   1.438  0.0711  0.2510 -0.5863
 1599ntf    on514800   3.945   6.805   1.249 -0.0378  0.3030  0.0775
 1599ntf    on514801   3.704   6.878   1.682 -0.2187  0.4630 -0.4475
 1599ntf    on514802   3.939   6.796   1.697  0.4159  0.1413 -0.7080
 1599ntf    fn414803   3.936   7.092   1.737 -0.1481  0.2652  0.1465
 1599ntf    fn414804   3.806   7.127   1.569  0.1525 -0.6343 -0.3989
 1599ntf    fn414805   4.007   7.049   1.550  0.6895  0.1623  0.6058
 1600ntf    cn114806   3.344   0.309   0.418  0.1215  0.3228  0.2461
 1600ntf    sn214807   3.321   0.406   0.266  0.2402 -0.0637 -0.0200
 1600ntf    nn314808   3.446   0.354   0.185  0.0199 -0.5159 -0.0744
 1600ntf    sn214809   3.467   0.337   0.030  0.1475 -0.1701 -0.0959
 1600ntf    cn114810   3.357   0.193   0.013  0.3497 -0.3078 -0.2338
 1600ntf    fn414811   3.465   0.324   0.470  0.2036  0.5040  0.0034
 1600ntf    fn414812   3.255   0.344   0.510  0.0130 -0.3726  0.4131
 1600ntf    fn414813   3.335   0.179   0.396 -0.0227  0.2755  0.5716
 1600ntf    on514814   3.194   0.364   0.212  0.2743  0.3804 -0.4522
 1600ntf    on514815   3.338   0.542   0.309  0.6762  0.0154 -0.4314
 1600ntf    on514816   3.415   0.431  -0.066 -0.1191 -0.5242 -0.2996
 1600ntf    on514817   3.600   0.287   0.010 -0.0262 -0.9078  0.5385
 1600ntf    fn414818   3.349   0.112   0.117 -0.7406  0.0979  0.0144
 1600ntf    fn414819   3.401   0.123  -0.090 -0.1553 -0.1973 -0.5252
 1600ntf    fn414820   3.234   0.232  -0.015  0.4407  0.5657  0.5388
 1601ntf    cn114821   6.174   2.324   1.400 -0.2738 -0.4278  0.3307
 1601ntf    sn214822   6.299   2.216   1.475 -0.0023 -0.1788  0.2401
 1601ntf    nn314823   6.360   2.305   1.589 -0.0352 -0.0535  0.1599
 1601ntf    sn214824   6.298   2.417   1.681  0.1010  0.1218  0.0390
 1601ntf    cn114825   6.391   2.378   1.833  0.3174 -0.1671 -0.1646
 1601ntf    fn414826   6.221   2.447   1.383  0.7897 -0.8419  0.2272
 1601ntf    fn414827   6.145   2.283   1.278 -0.2655  0.2705  0.0880
 1601ntf    fn414828   6.058   2.346   1.461 -0.3910  0.4107 -0.1822
 1601ntf    on514829   6.213   2.116   1.534  0.2629 -0.6793 -0.2183
 1601ntf    on514830   6.392   2.184   1.369 -0.0842  0.4609 -0.0293
 1601ntf    on514831   6.343   2.550   1.652  0.0347  0.2737  0.6120
 1601ntf    on514832   6.159   2.397   1.712  0.2142 -0.6693  0.0657
 1601ntf    fn414833   6.347   2.457   1.930 -0.1193  0.6457 -0.9977
 1601ntf    fn414834   6.522   2.396   1.829  0.3315 -0.0812  0.5755
 1601ntf    fn414835   6.361   2.257   1.877  0.5323 -0.1671 -0.0168
 1602ntf    cn114836   4.076   5.004   1.750  0.1812  0.0204  0.4451
 1602ntf    sn214837   3.911   5.040   1.682  0.2692  0.2208  0.3377
 1602ntf    nn314838   3.849   5.110   1.808 -0.4331 -0.0887  0.1663
 1602ntf    sn214839   3.742   5.055   1.909 -0.2069  0.0382  0.4758
 1602ntf    cn114840   3.581   5.098   1.837 -0.1250  0.0329  0.2899
 1602ntf    fn414841   4.136   4.909   1.680 -0.0204  0.0563  0.2223
 1602ntf    fn414842   4.158   5.107   1.761 -0.2287  0.3950  0.0468
 1602ntf    fn414843   4.065   4.966   1.877 -0.0195  0.3200  0.5168
 1602ntf    on514844   3.922   5.120   1.563 -0.1440  0.5831  0.5400
 1602ntf    on514845   3.863   4.907   1.655 -0.1653  0.3112  0.6586
 1602ntf    on514846   3.751   4.912   1.923  0.7562 -0.0037 -0.4147
 1602ntf    on514847   3.760   5.129   2.032  0.0281  0.8846 -0.0595
 1602ntf    fn414848   3.571   5.042   1.717  0.6522  0.0097  0.2331
 1602ntf    fn414849   3.569   5.229   1.825 -0.5089 -0.0362 -0.1554
 1602ntf    fn414850   3.486   5.047   1.914  0.0979 -0.7044  0.0899
 1603ntf    cn114851   0.577   2.892   3.275 -0.2322  0.2856 -0.4734
 1603ntf    sn214852   0.669   2.770   3.177 -0.2339 -0.2294  0.1591
 1603ntf    nn314853   0.553   2.703   3.094 -0.1804 -0.1325  0.0056
 1603ntf    sn214854   0.534   2.572   3.009  0.1505 -0.0062 -0.2663
 1603ntf    cn114855   0.412   2.647   2.897  0.1412  0.0876 -0.1940
 1603ntf    fn414856   0.630   2.948   3.382 -0.5051  0.4367 -0.4163
 1603ntf    fn414857   0.549   2.991   3.192 -0.1494  0.7100  0.0028
 1603ntf    fn414858   0.470   2.832   3.325  0.2677  0.2840  0.6317
 1603ntf    on514859   0.765   2.839   3.095 -0.2329  0.1389  0.4677
 1603ntf    on514860   0.710   2.681   3.282  0.0769 -0.2741  0.0001
 1603ntf    on514861   0.638   2.532   2.918  0.0074 -0.7994 -0.0851
 1603ntf    on514862   0.466   2.460   3.070  0.3259  0.3224  0.5404
 1603ntf    fn414863   0.311   2.698   2.964 -0.0527 -0.0843 -0.3537
 1603ntf    fn414864   0.370   2.562   2.804  0.1675 -0.2973  0.1444
 1603ntf    fn414865   0.457   2.750   2.826  0.9561 -0.3319 -0.3001
 1604ntf    cn114866   0.152   3.755   3.968  0.1296  0.2683  0.0758
 1604ntf    sn214867   0.078   3.719   4.130 -0.0708  0.0706 -0.0608
 1604ntf    nn314868   0.218   3.715   4.199 -0.4274  0.5856  0.6985
 1604ntf    sn214869   0.257   3.644   4.333  0.1360  0.0002  0.2310
 1604ntf    cn114870   0.333   3.784   4.420  0.0631  0.1151  0.1092
 1604ntf    fn414871   0.240   3.665   3.926  0.0247  0.3643 -0.3560
 1604ntf    fn414872   0.061   3.775   3.874  0.1103  0.6384  0.1734
 1604ntf    fn414873   0.217   3.870   3.971  0.0753  0.3189 -0.6121
 1604ntf    on514874   0.003   3.839   4.155  0.5400  0.4689 -0.1302
 1604ntf    on514875   0.006   3.597   4.097 -0.3822  0.2091  0.1010
 1604ntf    on514876   0.156   3.611   4.431 -0.3468  0.5081 -0.0897
 1604ntf    on514877   0.366   3.552   4.314  0.3130  0.2744 -0.0794
 1604ntf    fn414878   0.263   3.896   4.419  0.5094  0.3968 -0.0777
 1604ntf    fn414879   0.456   3.810   4.379  0.2160 -0.0099  0.4814
 1604ntf    fn414880   0.346   3.758   4.549 -0.2356 -0.1924  0.0785
 1605ntf    cn114881   0.013   1.597   0.088 -0.0764  0.0627  0.1970
 1605ntf    sn214882   0.113   1.747   0.112 -0.3759  0.3812 -0.5170
 1605ntf    nn314883   0.113   1.741   0.269  0.9190  0.6886 -0.5007
 1605ntf    sn214884   0.203   1.666   0.374 -0.1806 -0.3634 -0.2941
 1605ntf    cn114885   0.290   1.806   0.449 -0.0742 -0.4600 -0.2368
 1605ntf    fn414886  -0.095   1.590   0.164  0.1798 -0.3238  0.5338
 1605ntf    fn414887  -0.034   1.585  -0.035  0.4670 -0.1246  0.0062
 1605ntf    fn414888   0.090   1.491   0.110  0.1859  0.1185 -0.4301
 1605ntf    on514889   0.231   1.711   0.039 -0.2039 -0.2550  0.0554
 1605ntf    on514890   0.032   1.858   0.069 -0.8395  0.3178  0.1663
 1605ntf    on514891   0.116   1.615   0.476  0.1966  0.0760  0.2527
 1605ntf    on514892   0.310   1.574   0.344  0.3399  0.0877  0.1552
 1605ntf    fn414893   0.340   1.799   0.572  0.2987 -0.4056 -0.3822
 1605ntf    fn414894   0.204   1.906   0.453  0.4246 -0.0310 -0.0015
 1605ntf    fn414895   0.393   1.847   0.377 -0.0734 -0.0668 -0.0195
 1606ntf    cn114896   2.611   5.118   1.542 -0.3535 -0.3622 -0.2316
 1606ntf    sn214897   2.449   5.044   1.579 -0.4420  0.1712  0.4569
 1606ntf    nn314898   2.420   4.978   1.440 -0.5119  0.8988  0.1243
 1606ntf    sn214899   2.299   4.907   1.371  0.2859 -0.1828 -0.1853
 1606ntf    cn114900   2.301   4.735   1.431 -0.2145 -0.0204  0.3054
 1606ntf    fn414901   2.600   5.215   1.453  0.2371 -0.0166  0.0657
 1606ntf    fn414902   2.663   5.168   1.653 -0.6306 -0.4567 -0.0595
 1606ntf    fn414903   2.697   5.028   1.495 -0.0347 -0.0868 -0.1792
 1606ntf    on514904   2.476   4.945   1.680 -0.0230  0.1107  0.2891
 1606ntf    on514905   2.369   5.158   1.616 -0.1010  0.5580  0.0213
 1606ntf    on514906   2.169   4.957   1.409  0.3222 -0.1660 -0.0859
 1606ntf    on514907   2.320   4.897   1.228  0.1336  0.7994 -0.2827
 1606ntf    fn414908   2.317   4.718   1.561  0.4543  0.1979  0.2575
 1606ntf    fn414909   2.395   4.660   1.376  0.0538 -0.0511  0.7984
 1606ntf    fn414910   2.189   4.670   1.404 -0.3914  0.2755  0.3240
 1607ntf    cn114911   0.588   1.266   3.429 -0.0192  0.0750  0.4816
 1607ntf    sn214912   0.614   1.086   3.417  0.1058  0.1180  0.0991
 1607ntf    nn314913   0.468   1.045   3.377  0.2427 -0.0578 -0.2189
 1607ntf    sn214914   0.402   1.012   3.238 -0.1503 -0.2227  0.0079
 1607ntf    cn114915   0.438   0.834   3.233 -0.1332 -0.2156 -0.1272
 1607ntf    fn414916   0.552   1.324   3.316 -0.5121  0.1870  0.6946
 1607ntf    fn414917   0.485   1.302   3.504 -0.3145 -0.7691  0.4957
 1607ntf    fn414918   0.697   1.331   3.466  0.2102 -0.2170  0.3267
 1607ntf    on514919   0.715   1.077   3.314 -0.5621  0.6838 -0.6100
 1607ntf    on514920   0.657   1.043   3.548  0.1149 -0.1310  0.0155
 1607ntf    on514921   0.258   1.018   3.238 -0.1254  0.5451  0.0124
 1607ntf    on514922   0.465   1.077   3.126 -0.5982  0.1614 -0.0248
 1607ntf    fn414923   0.567   0.807   3.223 -0.1291 -0.2610  0.0319
 1607ntf    fn414924   0.388   0.776   3.125 -0.3477  0.4791 -0.4049
 1607ntf    fn414925   0.399   0.772   3.343 -0.4016 -0.1789 -0.2006
 1608ntf    cn114926   6.294   1.709   5.221 -0.1164  0.0683 -0.0248
 1608ntf    sn214927   6.204   1.804   5.095 -0.2445  0.1253  0.1103
 1608ntf    nn314928   6.220   1.702   4.977 -0.1624  0.5410 -0.2412
 1608ntf    sn214929   6.105   1.647   4.885  0.0172  0.0380 -0.1650
 1608ntf    cn114930   6.217   1.591   4.753  0.0489 -0.3026  0.0040
 1608ntf    fn414931   6.412   1.673   5.173 -0.0443 -0.4970  0.5688
 1608ntf    fn414932   6.317   1.775   5.333  0.7430  0.0454 -0.1728
 1608ntf    fn414933   6.226   1.599   5.244 -0.9002  0.6826  0.6198
 1608ntf    on514934   6.068   1.821   5.138 -0.5643  0.0526 -0.8531
 1608ntf    on514935   6.289   1.919   5.076  0.1537 -0.2207 -0.2138
 1608ntf    on514936   6.045   1.523   4.929  0.5026 -0.1294  0.0427
 1608ntf    on514937   6.023   1.752   4.832 -0.9623 -0.2783  0.6922
 1608ntf    fn414938   6.290   1.687   4.700  0.0826 -0.2018  0.2303
 1608ntf    fn414939   6.149   1.542   4.651 -0.6217  0.3579  0.1251
 1608ntf    fn414940   6.304   1.499   4.790 -0.1182 -0.5141 -0.1248
 1609ntf    cn114941   2.485   3.320   1.579  0.2880 -0.1971 -0.1811
 1609ntf    sn214942   2.384   3.468   1.552 -0.2135 -0.4339  0.3554
 1609ntf    nn314943   2.289   3.415   1.438 -0.0635 -0.8814  0.4404
 1609ntf    sn214944   2.157   3.478   1.382  0.2244 -0.4854  0.2087
 1609ntf    cn114945   2.169   3.426   1.208 -0.6061 -0.6722  0.2033
 1609ntf    fn414946   2.547   3.274   1.472 -0.6655 -0.7903 -0.4895
 1609ntf    fn414947   2.575   3.363   1.666 -0.4738  0.2274  0.4089
 1609ntf    fn414948   2.419   3.218   1.631  0.1163  0.1126  0.2132
 1609ntf    on514949   2.329   3.482   1.684 -0.0201  0.5975  0.3331
 1609ntf    on514950   2.481   3.564   1.505 -0.6626 -0.3057 -0.3293
 1609ntf    on514951   2.038   3.405   1.417 -0.7316  0.6100 -0.6690
 1609ntf    on514952   2.156   3.621   1.365 -0.2292 -0.4187  0.7883
 1609ntf    fn414953   2.213   3.302   1.193 -0.2796 -0.5052 -0.2371
 1609ntf    fn414954   2.246   3.509   1.139  0.3105 -0.9150  0.9098
 1609ntf    fn414955   2.052   3.434   1.148 -0.2654  1.1681 -0.2768
 1610ntf    cn114956   4.005   3.777   3.767  0.2562  0.1417 -0.2579
 1610ntf    sn214957   4.077   3.775   3.934 -0.2016  0.2727 -0.0571
 1610ntf    nn314958   4.214   3.704   3.907 -0.3389 -0.1225  0.2666
 1610ntf    sn214959   4.286   3.578   3.966  0.0829 -0.0436 -0.0721
 1610ntf    cn114960   4.462   3.626   3.967  0.0587  0.0420  0.1296
 1610ntf    fn414961   4.054   3.881   3.703  0.6851  0.3532  0.4170
 1610ntf    fn414962   4.034   3.667   3.699 -0.0500  0.1843 -0.4596
 1610ntf    fn414963   3.873   3.784   3.772  0.2456 -0.1224 -0.1095
 1610ntf    on514964   4.083   3.916   3.963  0.1720  0.2680 -0.1119
 1610ntf    on514965   3.974   3.704   4.007  0.2660  0.5257  0.8613
 1610ntf    on514966   4.255   3.557   4.105  0.0204  0.1160 -0.0611
 1610ntf    on514967   4.285   3.462   3.880  0.3621 -0.5672  0.6213
 1610ntf    fn414968   4.497   3.685   4.080  0.2469 -0.1781  0.1863
 1610ntf    fn414969   4.491   3.699   3.861 -0.5650 -0.2083 -0.2200
 1610ntf    fn414970   4.552   3.530   3.950 -0.3856 -0.3896  0.1934
 1611ntf    cn114971   3.405   5.260   5.393  0.6699  0.0963  0.1569
 1611ntf    sn214972   3.568   5.183   5.366  0.5233 -0.1011 -0.1847
 1611ntf    nn314973   3.609   5.247   5.229 -0.0248  0.2720 -0.1756
 1611ntf    sn214974   3.724   5.351   5.208  0.3602 -0.1659 -0.2516
 1611ntf    cn114975   3.846   5.238   5.135  0.2012 -0.2884 -0.3259
 1611ntf    fn414976   3.402   5.391   5.378 -0.3742 -0.0441 -1.0178
 1611ntf    fn414977   3.324   5.217   5.297  0.0429  0.5249  0.4909
 1611ntf    fn414978   3.352   5.243   5.512 -0.1457  0.0672 -0.2065
 1611ntf    on514979   3.642   5.226   5.483 -0.7795 -0.1359  0.6716
 1611ntf    on514980   3.539   5.043   5.355  0.4666 -0.0639 -0.5105
 1611ntf    on514981   3.695   5.446   5.104 -0.3965  0.1635  0.2532
 1611ntf    on514982   3.788   5.406   5.326  0.2745 -0.2986 -0.1430
 1611ntf    fn414983   3.946   5.308   5.085  0.4944 -0.3362  0.1920
 1611ntf    fn414984   3.802   5.152   5.044 -0.8905 -0.3903  0.2764
 1611ntf    fn414985   3.896   5.164   5.231  0.3233  0.1889 -0.0204
 1612ntf    cn114986   6.738   1.317   3.357  0.0600 -0.0111  0.1731
 1612ntf    sn214987   6.652   1.476   3.375 -0.1627 -0.1327  0.1749
 1612ntf    nn314988   6.503   1.444   3.334 -0.0563  0.2578 -0.5408
 1612ntf    sn214989   6.461   1.347   3.218 -0.1632 -0.3033 -0.0392
 1612ntf    cn114990   6.336   1.458   3.147 -0.2156 -0.0158  0.4924
 1612ntf    fn414991   6.682   1.224   3.433  0.0578 -0.5009 -0.4259
 1612ntf    fn414992   6.745   1.272   3.233  0.1507 -0.3654  0.3043
 1612ntf    fn414993   6.867   1.323   3.390  0.2714 -0.5230 -0.5364
 1612ntf    on514994   6.667   1.502   3.516 -0.4274  0.7606  0.0447
 1612ntf    on514995   6.725   1.563   3.287 -0.0142 -0.5429 -0.1124
 1612ntf    on514996   6.549   1.342   3.104 -0.2441  0.2376 -0.1267
 1612ntf    on514997   6.393   1.229   3.266 -0.2330 -0.5146 -0.6459
 1612ntf    fn414998   6.390   1.565   3.091 -0.5135 -0.2504 -0.2635
 1612ntf    fn414999   6.242   1.494   3.233 -0.2493  0.0022  0.4482
 1612ntf    fn415000   6.277   1.387   3.052  0.4355  0.3020 -0.1564
 1613ntf    cn115001   4.967   6.565   4.954  0.0114 -0.2556  0.3631
 1613ntf    sn215002   4.819   6.669   4.962  0.4042  0.3305  0.0362
 1613ntf    nn315003   4.827   6.741   4.822  0.0100  0.3044 -0.0008
 1613ntf    sn215004   4.749   6.713   4.689  0.5859 -0.3255 -0.2139
 1613ntf    cn115005   4.829   6.834   4.579  0.4250 -0.3300 -0.3363
 1613ntf    fn415006   4.970   6.499   5.069 -0.3683 -0.0407  0.4946
 1613ntf    fn415007   4.975   6.485   4.849 -0.3186  0.3546 -0.1319
 1613ntf    fn415008   5.077   6.637   4.968 -0.1938  0.2314 -0.4830
 1613ntf    on515009   4.714   6.572   4.974  0.4737  0.2567  0.0463
 1613ntf    on515010   4.840   6.757   5.074 -0.3337  0.1330  0.3338
 1613ntf    on515011   4.796   6.593   4.625  0.2717 -0.6599  0.1805
 1613ntf    on515012   4.614   6.764   4.691  0.6861 -0.0263 -0.8594
 1613ntf    fn415013   4.953   6.791   4.567  0.5257 -0.2115  0.2386
 1613ntf    fn415014   4.836   6.952   4.639 -1.2362 -0.1460 -0.4613
 1613ntf    fn415015   4.770   6.852   4.462  0.0895 -0.1302 -0.1377
 1614ntf    cn115016   5.461   0.885   1.610 -0.0401 -0.2852 -0.0977
 1614ntf    sn215017   5.321   0.977   1.539  0.0682  0.1593  0.2593
 1614ntf    nn315018   5.367   1.116   1.595  0.1283  0.2087  0.0877
 1614ntf    sn215019   5.303   1.259   1.591  0.1415  0.2138  0.0483
 1614ntf    cn115020   5.233   1.261   1.759  0.1240 -0.4588  0.0523
 1614ntf    fn415021   5.461   0.883   1.742  0.5919 -0.1161 -0.0928
 1614ntf    fn415022   5.468   0.760   1.569 -0.4730 -0.3213 -0.0724
 1614ntf    fn415023   5.578   0.935   1.576 -0.3005  0.0823 -0.4742
 1614ntf    on515024   5.327   0.959   1.396 -0.0414 -0.8204  0.3728
 1614ntf    on515025   5.199   0.935   1.604 -0.3523  0.5511 -0.2623
 1614ntf    on515026   5.389   1.374   1.597  0.1054  0.2385  0.0956
 1614ntf    on515027   5.181   1.256   1.514 -0.2884 -0.5944  0.7361
 1614ntf    fn415028   5.318   1.222   1.853 -0.3037 -1.1549  0.1569
 1614ntf    fn415029   5.129   1.180   1.756 -0.0209 -0.2591 -0.4119
 1614ntf    fn415030   5.176   1.378   1.783  1.1588 -0.0713  0.7272
 1615ntf    cn115031   5.210   3.488   4.104 -0.1859 -0.2505 -0.0034
 1615ntf    sn215032   5.091   3.495   4.242 -0.1625  0.6900 -0.0240
 1615ntf    nn315033   4.981   3.581   4.171 -0.1505  0.4549 -0.3304
 1615ntf    sn215034   4.833   3.617   4.206 -0.1310 -0.1404  0.3950
 1615ntf    cn115035   4.807   3.786   4.144  0.1889 -0.2352 -0.0022
 1615ntf    fn415036   5.254   3.607   4.070 -0.5817 -0.1076 -0.0216
 1615ntf    fn415037   5.316   3.415   4.135 -0.2091 -0.1766  0.2521
 1615ntf    fn415038   5.144   3.429   4.005 -0.5298  0.0397  0.0484
 1615ntf    on515039   5.052   3.358   4.265  0.4114  0.5982  0.4336
 1615ntf    on515040   5.145   3.569   4.353 -0.2210  0.0291  0.4515
 1615ntf    on515041   4.740   3.539   4.128 -0.0762 -0.0795  0.2691
 1615ntf    on515042   4.800   3.635   4.345 -0.1876 -0.1680  0.3857
 1615ntf    fn415043   4.789   3.792   4.013 -0.3865 -0.0249  0.0841
 1615ntf    fn415044   4.909   3.867   4.171 -0.2133  0.2826 -0.0104
 1615ntf    fn415045   4.701   3.848   4.193  0.4306  0.3250 -0.1749
 1616ntf    cn115046   4.418   1.505   5.474 -0.0467 -0.0524 -0.1427
 1616ntf    sn215047   4.365   1.332   5.483  0.3044 -0.1379  0.3341
 1616ntf    nn315048   4.486   1.276   5.565  0.5914  0.2403  0.1649
 1616ntf    sn215049   4.612   1.196   5.514  0.2539  0.0579 -0.3865
 1616ntf    cn115050   4.656   1.091   5.655 -0.5795  0.2116 -0.0008
 1616ntf    fn415051   4.533   1.515   5.410 -0.2708  0.7384 -0.4296
 1616ntf    fn415052   4.336   1.584   5.407 -0.1209  0.1625  0.1969
 1616ntf    fn415053   4.426   1.568   5.590  0.6512 -0.2178 -0.0975
 1616ntf    on515054   4.242   1.340   5.559  0.1725  0.3299  0.0750
 1616ntf    on515055   4.354   1.297   5.344  0.3955  0.5259  0.1599
 1616ntf    on515056   4.584   1.103   5.408 -0.4536 -0.6197  0.3844
 1616ntf    on515057   4.724   1.283   5.488  0.2270  0.2974  0.2730
 1616ntf    fn415058   4.709   1.175   5.743 -0.5708  0.7431 -0.5110
 1616ntf    fn415059   4.750   1.001   5.628 -0.3759  0.4404 -0.0542
 1616ntf    fn415060   4.551   1.021   5.695  0.0312 -0.3510  0.6709
 1617ntf    cn115061   0.722   0.675   2.503 -0.3313 -0.0035 -0.2395
 1617ntf    sn215062   0.703   0.544   2.627  0.0388  0.4122  0.2586
 1617ntf    nn315063   0.572   0.473   2.577  0.4878  0.4064 -0.9321
 1617ntf    sn215064   0.553   0.324   2.532  0.1325  0.1862 -0.0684
 1617ntf    cn115065   0.588   0.350   2.355 -0.5628  0.0670 -0.2266
 1617ntf    fn415066   0.802   0.773   2.542 -0.0506 -0.0503 -0.6938
 1617ntf    fn415067   0.772   0.638   2.386  0.0895  0.9568 -0.3740
 1617ntf    fn415068   0.603   0.729   2.478 -0.6440 -0.5783 -0.0098
 1617ntf    on515069   0.826   0.469   2.617  0.0028  0.3995 -0.0834
 1617ntf    on515070   0.687   0.619   2.749  1.1060  0.5044  0.3533
 1617ntf    on515071   0.654   0.235   2.582 -0.4276 -0.3210  0.1731
 1617ntf    on515072   0.418   0.276   2.545  0.3146 -0.2979  0.0586
 1617ntf    fn415073   0.487   0.420   2.306 -0.1336  0.9413  0.1271
 1617ntf    fn415074   0.590   0.237   2.286  0.0346  0.2044 -0.4409
 1617ntf    fn415075   0.705   0.410   2.340 -0.4994  0.0247  0.0927
 1618ntf    cn115076   2.334   5.441   2.446 -0.3918  0.0972 -0.5024
 1618ntf    sn215077   2.480   5.378   2.358  0.1327  0.1472  0.3298
 1618ntf    nn315078   2.472   5.223   2.384 -0.8568  0.1640  0.1474
 1618ntf    sn215079   2.520   5.141   2.509 -0.3099 -0.0407 -0.1964
 1618ntf    cn115080   2.588   4.993   2.429  0.3427  0.3574 -0.3898
 1618ntf    fn415081   2.342   5.418   2.576 -0.3411 -0.7398 -0.6486
 1618ntf    fn415082   2.325   5.570   2.415  0.4090  0.2267 -0.2175
 1618ntf    fn415083   2.219   5.388   2.406 -0.5209  0.2450 -0.3268
 1618ntf    on515084   2.444   5.414   2.223 -0.3650  0.2982  0.5005
 1618ntf    on515085   2.592   5.447   2.418  0.5068  0.0709 -0.2718
 1618ntf    on515086   2.645   5.186   2.565 -0.2826  0.2443 -0.4774
 1618ntf    on515087   2.419   5.099   2.602 -0.0524  0.2578  0.2206
 1618ntf    fn415088   2.520   4.960   2.321 -0.1303  0.0045  0.0125
 1618ntf    fn415089   2.582   4.893   2.515  0.4287  0.2175 -0.5448
 1618ntf    fn415090   2.714   5.000   2.389  0.5145  0.3266  0.1459
 1619ntf    cn115091   2.542   0.956   3.189 -0.3677  0.0330  0.0432
 1619ntf    sn215092   2.497   1.115   3.115  0.0248  0.1716  0.0969
 1619ntf    nn315093   2.630   1.193   3.144  0.2381 -0.1892  0.0913
 1619ntf    sn215094   2.661   1.295   3.259 -0.0067 -0.0007 -0.0072
 1619ntf    cn115095   2.607   1.448   3.179 -0.4371 -0.1337  0.0275
 1619ntf    fn415096   2.443   0.869   3.178  0.0226 -0.3031 -0.8857
 1619ntf    fn415097   2.654   0.908   3.136 -0.1689  0.8127 -0.2411
 1619ntf    fn415098   2.574   0.980   3.315  0.5496 -0.7926 -0.0171
 1619ntf    on515099   2.481   1.079   2.977 -0.5122  0.2900  0.1231
 1619ntf    on515100   2.384   1.152   3.197  0.4313  0.1711  0.6610
 1619ntf    on515101   2.578   1.293   3.377  0.5503 -0.6609  0.3853
 1619ntf    on515102   2.802   1.311   3.285 -0.0306  0.1001  0.0571
 1619ntf    fn415103   2.698   1.506   3.103 -0.4510  0.1780  0.2442
 1619ntf    fn415104   2.569   1.536   3.271 -0.0445  0.2460 -0.1732
 1619ntf    fn415105   2.504   1.445   3.096 -0.3271  0.1892 -0.1229
 1620ntf    cn115106   0.038   2.650   6.516  0.2265 -0.0161  0.0974
 1620ntf    sn215107   0.061   2.471   6.488  0.1996  0.0131 -0.1115
 1620ntf    nn315108  -0.054   2.409   6.575 -0.1709  0.2026 -0.4665
 1620ntf    sn215109  -0.209   2.387   6.567 -0.2120  0.1641  0.4201
 1620ntf    cn115110  -0.216   2.293   6.412 -0.4671  0.0350  0.5092
 1620ntf    fn415111  -0.062   2.687   6.439  0.1902 -0.7197 -0.1981
 1620ntf    fn415112   0.021   2.688   6.642 -0.6426 -0.3822  0.1010
 1620ntf    fn415113   0.142   2.721   6.478  0.0728 -0.1366 -0.5588
 1620ntf    on515114   0.044   2.456   6.346 -0.4077 -0.6022  0.0213
 1620ntf    on515115   0.193   2.447   6.542  0.0680 -0.3309  0.0600
 1620ntf    on515116  -0.246   2.286   6.663  0.0611  0.2048  0.5685
 1620ntf    on515117  -0.297   2.501   6.557  0.0535  0.3031 -0.3800
 1620ntf    fn415118  -0.215   2.367   6.302 -0.3603  0.0475  0.5189
 1620ntf    fn415119  -0.326   2.219   6.411 -0.5656  0.1874 -0.1475
 1620ntf    fn415120  -0.113   2.211   6.396  0.2350  1.0088 -0.0852
   6.85030   6.85030   6.85030
