; Input file
;
; RUN CONTROL PARAMETERS =
integrator           = md ; md integrator
dt                   = 0.002 ;[ps] time step for integration
nsteps               = 3081250 ; maximum number of steps to integrate
comm-mode            = Linear ; Remove center of mass translation
nstcomm              = 1 ; [steps] freq to remove center of mass motion


; OUTPUT CONTROL OPTIONS =
nstxout              = 0 ; [steps] freq to write coordinates to trajectory
nstxtcout            = 2465 ; freq to write coordinates to xtc trajectory 
nstvout              = 0 ; [steps] freq to write velocities to trajectory
nstlog               = 50000 ; [steps] freq to write energies to log file
nstenergy            = 1000 ; group(s) to write to energy file

; NEIGHBORSEARCHING PARAMETERS =
cutoff-scheme        = Verlet ; This option has an explicit, exact cut-off at rvdw=rcoulomb.
nstlist              = 6 ; [steps] freq to update neighbor list
ns_type              = grid ; method of updating neighbor list
rlist                = 0.9 ; [nm] cut-off distance for the short-range neighbor list

; OPTIONS FOR ELECTROSTATICS AND VDW =
coulombtype          = PME ; Particle-Mesh Ewald electrostatics
rcoulomb             = 1.0 ; [nm] distance for Coulomb cut-off
vdw_type             = PME ; twin-range cut-off with rlist where rvdw >= rlist
rvdw                 = 1.0 ; [nm] distance for LJ cut-off
fourierspacing       = 0.1 ; [nm] grid spacing for FFT grid when using PME (optimal ratio rvdw/fourierspacing = 10)
pme_order            = 4 ; interpolation order for PME, 4 = cubic
ewald_rtol           = 1e-05 ; relative strength of Ewald-shifted potential at rcoulomb
DispCorr             = EnerPres ; apply long range dispersion corrections for Energy and Pressure
optimize_fft         = no
ewald_rtol-lj        = 0.001

; OPTIONS FOR WEAK COUPLING ALGORITHMS =
tcoupl               = nose-hoover ; temperature coupling method
tc-grps              = System ; groups to couple seperately to temperature bath
tau_t                = 1.0 ; [ps] time constant for coupling
ref_t                = 363 ; reference temperature for coupling
pcoupl               = Parrinello-Rahman ; pressure coupling method
pcoupltype           = isotropic ; pressure coupling in x-y-z directions
tau_p                = 2.0 ; [ps] time constant for coupling
compressibility      = 3.3e-5 ; [bar^-1] compressibility (value of water at 1atm and 25C)
ref_p                = 1.0 ; [bar] reference pressure for coupling

; GENERATE VELOCITIES FOR STARTUP RUN =
gen_vel              = no ; inital velocity generation turned on/off
gen_temp             = 363 ; initial temperature
gen_seed             = 1993 ; random seed

; OPTIONS FOR BONDS =

constraint_algorithm = lincs
continuation         = no
lincs_order          = 4
lincs_warnangle      = 30 ;[deg] maximum angle that a bond can rotate before LINCS will complain
morse                = no ; bonds are represented by a harmonic potential
lincs_iter           = 2 ; Number of iterations to correct for rotational lengthening in LINCS
shake_tol            = 1.0e-4 ; relative tolerance for shake
