Converted from moscito
 2376
    1SOL     ow    1   1.987   0.420   2.583 -0.7672  0.4064 -0.2535
    1SOL     hw    2   2.058   0.480   2.561  0.3066 -0.6427  0.2505
    1SOL     hw    3   1.929   0.471   2.639 -0.0713  1.0856 -0.1400
    1SOL     vw    4   1.989   0.434   2.587  0.0595 -0.0147  0.0049
    2SOL     ow    5   0.168   0.976   3.405 -0.1768  0.1087 -0.2634
    2SOL     hw    6   0.262   0.962   3.394 -0.2102  0.0378 -0.4582
    2SOL     hw    7   0.151   1.061   3.364 -0.0672  0.4749  0.4415
    2SOL     vw    8   0.178   0.985   3.398 -0.0028  0.0054 -0.0571
    3SOL     ow    9   1.807   0.229   2.810  0.3621 -0.7622  0.5413
    3SOL     hw   10   1.860   0.215   2.732 -0.9800 -0.1758 -0.5241
    3SOL     hw   11   1.819   0.322   2.831 -0.4580 -0.5424  0.0936
    3SOL     vw   12   1.815   0.239   2.802  0.0182 -0.0262  0.0243
    4SOL     ow   13   2.301   1.493   1.990 -0.3873 -0.3860  0.0775
    4SOL     hw   14   2.386   1.477   2.031  0.1044  0.6462 -0.5190
    4SOL     hw   15   2.268   1.571   2.034 -1.2371 -1.0266  0.6079
    4SOL     vw   16   2.308   1.501   2.002  0.0465  0.0788 -0.0060
    5SOL     ow   17   0.050   2.133   6.312  0.2177 -0.1424  0.0722
    5SOL     hw   18   0.103   2.133   6.391 -0.8339 -0.8313  0.8030
    5SOL     hw   19   0.114   2.129   6.241  1.2044  1.2408  0.8400
    5SOL     vw   20   0.066   2.132   6.313 -0.1006 -0.0069 -0.0460
    6SOL     ow   21   1.358   0.144   3.524 -0.1550 -0.6980 -0.0115
    6SOL     hw   22   1.277   0.189   3.549 -0.0111  0.5882 -1.6576
    6SOL     hw   23   1.365   0.158   3.429  2.4168 -0.0253  0.1982
    6SOL     vw   24   1.348   0.152   3.515 -0.0535 -0.0237  0.0099
    7SOL     ow   25   0.588   0.353   2.393  0.0985 -0.1098 -0.1466
    7SOL     hw   26   0.511   0.355   2.450  1.2925 -1.7304  1.6670
    7SOL     hw   27   0.552   0.346   2.305 -1.8493  3.7646  0.1282
    7SOL     vw   28   0.573   0.352   2.389 -0.0037 -0.0041 -0.0126
    8SOL     ow   29   0.499   2.295   0.314 -0.1278 -0.1948  0.3485
    8SOL     hw   30   0.566   2.326   0.374 -0.9304  1.8459  0.2507
    8SOL     hw   31   0.548   2.262   0.239  0.7766  0.6640  0.5413
    8SOL     vw   32   0.514   2.295   0.312 -0.0340 -0.0595  0.0607
    9SOL     ow   33   0.219   1.286   5.673  0.5193  0.0443 -0.2320
    9SOL     hw   34   0.151   1.266   5.737  0.9485  2.8542  1.2733
    9SOL     hw   35   0.300   1.259   5.716  0.6552  0.1734 -0.4089
    9SOL     vw   36   0.221   1.280   5.687 -0.0010 -0.0006  0.0467
   10SOL     ow   37   1.143   1.291   5.120 -0.3908  1.0796 -0.0220
   10SOL     hw   38   1.124   1.381   5.147  2.2451  1.4529  0.9225
   10SOL     hw   39   1.191   1.301   5.037  0.6269  0.6290  0.4955
   10SOL     vw   40   1.147   1.304   5.113 -0.0181 -0.0169  0.0324
   11SOL     ow   41   2.146   1.299   2.128 -0.0742  0.0687 -0.3949
   11SOL     hw   42   2.093   1.226   2.097 -1.9721  0.3980  1.8059
   11SOL     hw   43   2.227   1.259   2.159 -0.8595 -1.0526  0.2711
   11SOL     vw   44   2.150   1.284   2.128  0.0442 -0.0612  0.1546
   12SOL     ow   45   0.169   1.810   0.542 -0.0502  0.3502  0.1537
   12SOL     hw   46   0.098   1.825   0.604  0.2546  2.4597  0.0739
   12SOL     hw   47   0.243   1.860   0.577  0.8221 -0.2453 -0.7592
   12SOL     vw   48   0.170   1.819   0.554  0.0375  0.0188 -0.0226
   13SOL     ow   49   1.511   0.495   0.344  0.3709 -0.0604 -0.3378
   13SOL     hw   50   1.484   0.449   0.423  1.7166 -0.1026  0.1253
   13SOL     hw   51   1.430   0.509   0.295 -0.3039 -1.2238  0.4103
   13SOL     vw   52   1.497   0.491   0.348  0.0435  0.0367  0.0023
   14SOL     ow   53   2.397   0.774   1.302  0.5055 -0.9200 -0.3936
   14SOL     hw   54   2.359   0.767   1.389 -1.6860 -0.1591 -1.2176
   14SOL     hw   55   2.455   0.850   1.306  2.0991 -2.1266  0.8987
   14SOL     vw   56   2.400   0.783   1.314  0.0191 -0.0050 -0.0159
   15SOL     ow   57   0.154   1.509   0.764 -0.0243 -0.8821 -0.6098
   15SOL     hw   58   0.121   1.570   0.830  1.0761 -0.1314 -0.7280
   15SOL     hw   59   0.149   1.558   0.682  1.6830 -0.6024 -0.5791
   15SOL     vw   60   0.149   1.524   0.762  0.0403 -0.0613 -0.0327
   16SOL     ow   61   0.433   1.914   0.583 -0.0326 -0.5120  0.3821
   16SOL     hw   62   0.499   1.931   0.516 -0.6258 -2.1954 -0.7016
   16SOL     hw   63   0.484   1.907   0.664  1.0332 -0.9454 -0.2960
   16SOL     vw   64   0.448   1.915   0.585 -0.0202 -0.0386  0.0128
   17SOL     ow   65   1.193   1.137   2.612  0.0232 -0.6320  0.6010
   17SOL     hw   66   1.227   1.054   2.646  0.5536 -0.1593  1.2302
   17SOL     hw   67   1.270   1.193   2.605  0.1297 -0.9837 -2.2686
   17SOL     vw   68   1.207   1.133   2.615 -0.0282  0.0020 -0.0446
   18SOL     ow   69   1.621   0.477   3.835 -0.2395  0.1043 -0.4355
   18SOL     hw   70   1.682   0.416   3.875 -2.5116 -1.5316  0.7673
   18SOL     hw   71   1.633   0.559   3.884 -2.4059 -1.6095  3.4017
   18SOL     vw   72   1.631   0.480   3.847 -0.0119 -0.0472 -0.0279
   19SOL     ow   73   0.035   1.839   0.262  0.9935 -0.1037 -0.0585
   19SOL     hw   74   0.016   1.925   0.225  1.4407 -0.5346 -1.3343
   19SOL     hw   75  -0.050   1.806   0.291  0.6282  0.2510 -0.7017
   19SOL     vw   76   0.022   1.846   0.261 -0.0388 -0.0055 -0.0308
   20SOL     ow   77   0.356   1.866   3.413  0.6141 -0.1323 -0.6404
   20SOL     hw   78   0.425   1.880   3.478  0.9370 -2.7376 -0.3202
   20SOL     hw   79   0.380   1.924   3.340  1.0222  1.7899  0.9592
   20SOL     vw   80   0.368   1.875   3.412 -0.0211  0.0309  0.0216
   21SOL     ow   81   0.273   2.388   6.360  0.0528  0.1535 -0.8354
   21SOL     hw   82   0.233   2.342   6.287 -0.6527  1.2387 -1.1426
   21SOL     hw   83   0.338   2.326   6.394 -1.8251 -1.6385 -0.3350
   21SOL     vw   84   0.277   2.374   6.355 -0.0057  0.0290 -0.0291
   22SOL     ow   85   0.044   0.704   3.396 -0.4951 -0.3520 -0.4993
   22SOL     hw   86   0.076   0.678   3.310  0.2562 -1.7948  0.1719
   22SOL     hw   87   0.092   0.648   3.457  0.8958  2.3554  1.0765
   22SOL     vw   88   0.054   0.693   3.393  0.0108 -0.0123 -0.0465
   23SOL     ow   89   1.598   0.289   3.290 -0.4574  0.1777 -0.3826
   23SOL     hw   90   1.549   0.371   3.297  1.4819  1.2943  0.9783
   23SOL     hw   91   1.530   0.221   3.287 -2.0974  1.6749  0.6841
   23SOL     vw   92   1.583   0.291   3.290  0.0084  0.0165  0.0147
   24SOL     ow   93   0.492   2.408   5.001 -0.7158  0.5977  0.2003
   24SOL     hw   94   0.456   2.483   4.954 -0.4677  0.7654  0.2757
   24SOL     hw   95   0.416   2.353   5.020 -0.5560 -0.7188 -2.5219
   24SOL     vw   96   0.477   2.411   4.998 -0.0412 -0.0108 -0.1361
   25SOL     ow   97   0.512   1.533   3.273 -0.0282 -0.6265 -0.5897
   25SOL     hw   98   0.498   1.487   3.356 -1.0146  0.9745  0.1865
   25SOL     hw   99   0.426   1.570   3.252  0.3579 -0.4883 -2.0255
   25SOL     vw  100   0.499   1.532   3.281  0.0039  0.0035  0.0807
   26SOL     ow  101   0.210   2.022   5.353  0.2081 -0.8493 -0.1472
   26SOL     hw  102   0.256   2.102   5.327 -1.6860  0.2123 -0.4043
   26SOL     hw  103   0.203   2.028   5.449 -1.0651 -0.0119 -0.2679
   26SOL     vw  104   0.215   2.033   5.362 -0.0612  0.0343 -0.0567
   27SOL     ow  105   1.332   1.240   1.425 -0.1763 -0.1543  0.0167
   27SOL     hw  106   1.337   1.152   1.388 -0.1112 -0.0168 -0.3041
   27SOL     hw  107   1.423   1.266   1.439 -0.1732  0.1207 -0.5069
   27SOL     vw  108   1.345   1.232   1.422  0.0246 -0.0200  0.0283
   28SOL     ow  109   1.618   0.370   4.193  0.3792  0.2915  0.8539
   28SOL     hw  110   1.664   0.372   4.277 -0.1299  2.3112  1.1342
   28SOL     hw  111   1.689   0.369   4.128  0.8107  0.4656  1.3085
   28SOL     vw  112   1.634   0.371   4.195  0.0577 -0.0034  0.0648
   29SOL     ow  113   1.351   1.070   3.744 -0.0914 -0.4531 -0.1059
   29SOL     hw  114   1.403   1.046   3.668  2.5203  2.7582  0.4226
   29SOL     hw  115   1.353   1.166   3.746 -1.2488 -0.3402  3.1899
   29SOL     vw  116   1.358   1.079   3.734  0.0317 -0.0103  0.0776
   30SOL     ow  117   1.062   0.638   0.104  0.1168 -0.4182  0.1182
   30SOL     hw  118   1.034   0.626   0.013 -0.2784 -0.8336  0.2962
   30SOL     hw  119   1.149   0.599   0.107 -0.6052 -2.1178  0.3614
   30SOL     vw  120   1.070   0.631   0.092  0.0045 -0.0530 -0.0087
   31SOL     ow  121   0.372   0.252   6.310  0.6215  0.0168  0.3469
   31SOL     hw  122   0.459   0.245   6.271  0.5657  0.6190  0.1033
   31SOL     hw  123   0.342   0.162   6.319  1.0257 -0.1673 -0.1297
   31SOL     vw  124   0.379   0.239   6.306 -0.0199  0.0148  0.0393
   32SOL     ow  125   1.352   0.301   2.975  0.8483 -0.1240 -0.1483
   32SOL     hw  126   1.318   0.376   2.927 -1.0689  0.3708  1.8204
   32SOL     hw  127   1.446   0.320   2.987  0.6595  1.3111 -0.7916
   32SOL     vw  128   1.360   0.314   2.970  0.0116 -0.0286 -0.0222
   33SOL     ow  129   2.014   1.258   3.106 -0.3263 -0.0633 -0.5746
   33SOL     hw  130   2.092   1.251   3.161 -1.2326 -0.1243  0.7232
   33SOL     hw  131   1.949   1.301   3.161 -2.1810 -2.6995 -0.5477
   33SOL     vw  132   2.016   1.263   3.120 -0.0031 -0.0224 -0.0014
   34SOL     ow  133   1.332   0.407   3.782  0.4518 -0.6327 -0.0438
   34SOL     hw  134   1.260   0.345   3.770 -0.3346 -0.0135  1.2334
   34SOL     hw  135   1.353   0.402   3.875 -0.9912  2.4202  0.5639
   34SOL     vw  136   1.325   0.398   3.793  0.0051  0.0985 -0.0157
   35SOL     ow  137   0.315   2.170   1.681 -0.4222  0.0756 -0.1446
   35SOL     hw  138   0.249   2.234   1.656  0.4304  1.3273  0.6658
   35SOL     hw  139   0.393   2.222   1.700 -0.0963 -1.0414  1.9539
   35SOL     vw  140   0.317   2.185   1.680 -0.0395 -0.0001  0.0897
   36SOL     ow  141   1.542   0.337   3.563  1.0437 -0.0962  0.0957
   36SOL     hw  142   1.480   0.265   3.548  2.9199 -2.2003  1.8636
   36SOL     hw  143   1.584   0.350   3.478 -0.0689 -0.3171 -0.5078
   36SOL     vw  144   1.539   0.329   3.550  0.0156 -0.0291  0.1110
   37SOL     ow  145   1.541   1.165   1.166 -0.0064 -0.6481 -0.2220
   37SOL     hw  146   1.557   1.227   1.094 -0.4299  0.6773  0.7951
   37SOL     hw  147   1.618   1.175   1.222 -1.3182  1.0943  1.4021
   37SOL     vw  148   1.553   1.175   1.164 -0.0027 -0.0845 -0.0497
   38SOL     ow  149   1.595   1.862   5.644  0.0224  0.7517  0.4199
   38SOL     hw  150   1.595   1.828   5.734  0.2667  0.9704  0.5055
   38SOL     hw  151   1.505   1.891   5.630 -0.1592  0.1856  0.3869
   38SOL     vw  152   1.583   1.861   5.654 -0.0094 -0.0160  0.0126
   39SOL     ow  153   0.739   2.279   5.156  0.5882  0.1183  0.0000
   39SOL     hw  154   0.698   2.222   5.221 -1.2845 -0.4244 -1.5865
   39SOL     hw  155   0.816   2.230   5.126  1.5883  0.4520  1.8557
   39SOL     vw  156   0.744   2.265   5.161 -0.0142 -0.0470  0.0455
   40SOL     ow  157   1.919   2.224   4.715  0.0419 -0.7871  0.8702
   40SOL     hw  158   1.914   2.310   4.758  0.9209  0.7856 -1.9225
   40SOL     hw  159   2.013   2.207   4.707  0.0458  0.1200 -2.3217
   40SOL     vw  160   1.931   2.233   4.720  0.0387  0.0395 -0.0510
   41SOL     ow  161   0.762   1.905   1.285 -0.3733  0.1152  0.5434
   41SOL     hw  162   0.809   1.874   1.362 -0.4919 -1.3399  0.0727
   41SOL     hw  163   0.713   1.828   1.255  1.2134 -0.0088 -2.1275
   41SOL     vw  164   0.762   1.891   1.291 -0.0103 -0.0260 -0.0390
   42SOL     ow  165   1.749   0.772   6.173 -0.8021 -0.1893 -0.5309
   42SOL     hw  166   1.740   0.680   6.199 -4.3581  0.5574  1.5413
   42SOL     hw  167   1.790   0.814   6.249  0.5436  0.0723 -1.3598
   42SOL     vw  168   1.753   0.765   6.187  0.0151  0.0488  0.0017
   43SOL     ow  169   0.585   0.090   2.553 -0.6486  0.1473 -0.5416
   43SOL     hw  170   0.657   0.097   2.616 -0.4250 -1.5801 -0.5486
   43SOL     hw  171   0.615   0.138   2.476  0.5671 -0.6521 -0.5852
   43SOL     vw  172   0.598   0.097   2.551  0.0007  0.0246  0.0193
   44SOL     ow  173   1.586   2.090   2.766 -0.3765  0.0993 -0.1851
   44SOL     hw  174   1.596   2.003   2.804 -0.4661 -0.6286 -1.7596
   44SOL     hw  175   1.667   2.135   2.788  0.9613 -1.3924 -1.8551
   44SOL     vw  176   1.598   2.084   2.774 -0.0337 -0.0147 -0.0151
   45SOL     ow  177   2.107   0.387   2.939  0.5239  0.5048  0.0043
   45SOL     hw  178   2.154   0.382   2.855  1.0005  1.4721  0.2053
   45SOL     hw  179   2.071   0.475   2.941 -2.9481 -0.7403 -0.9843
   45SOL     vw  180   2.109   0.398   2.928  0.0020 -0.0293  0.0117
   46SOL     ow  181   1.682   0.196   5.578 -0.1160  0.2431  0.6461
   46SOL     hw  182   1.762   0.207   5.630  0.2021 -0.4619  0.3132
   46SOL     hw  183   1.687   0.266   5.513  0.8372 -0.4902 -0.1155
   46SOL     vw  184   1.693   0.207   5.577 -0.0239  0.0037  0.0086
   47SOL     ow  185   1.340   2.428   2.832 -0.1798  1.0355 -0.2732
   47SOL     hw  186   1.263   2.466   2.874 -0.3893 -0.2209  0.5603
   47SOL     hw  187   1.388   2.502   2.796 -1.1308  1.9530  0.3018
   47SOL     vw  188   1.336   2.443   2.833  0.0411 -0.0280  0.0186
   48SOL     ow  189   2.280   0.534   1.222 -0.1898  0.3002  0.8809
   48SOL     hw  190   2.221   0.570   1.289  1.7308 -1.2511  3.5728
   48SOL     hw  191   2.367   0.566   1.247  0.6565 -0.7144 -0.6280
   48SOL     vw  192   2.283   0.543   1.234 -0.0458  0.0362 -0.0879
   49SOL     ow  193   0.630   1.616   0.862 -0.8340 -0.2469  0.3304
   49SOL     hw  194   0.568   1.677   0.823 -1.6704 -0.7346  0.8599
   49SOL     hw  195   0.593   1.594   0.947  0.2709 -0.2511  0.8358
   49SOL     vw  196   0.617   1.621   0.868 -0.0345  0.0240  0.0366
   50SOL     ow  197   1.311   1.793   3.450 -0.0095  0.0749  0.1099
   50SOL     hw  198   1.372   1.842   3.395  0.3009 -0.2416  0.1739
   50SOL     hw  199   1.263   1.737   3.388 -0.2416  0.3303  0.0586
   50SOL     vw  200   1.312   1.792   3.434  0.0367  0.0433 -0.0275
   51SOL     ow  201   0.100   1.541   0.465 -0.2116 -0.4464  0.2317
   51SOL     hw  202   0.037   1.478   0.500  0.6705 -1.3386  0.2645
   51SOL     hw  203   0.137   1.498   0.388  0.2229  0.1337  0.1077
   51SOL     vw  204   0.097   1.527   0.460 -0.1019  0.1021 -0.0079
   52SOL     ow  205   2.337  -0.009   6.054 -0.5061 -0.7038  0.6884
   52SOL     hw  206   2.388   0.001   5.974 -1.0429 -0.8897  0.3159
   52SOL     hw  207   2.250   0.025   6.031 -0.9050 -1.5395  0.9385
   52SOL     vw  208   2.332  -0.003   6.040  0.0027  0.0561  0.0410
   53SOL     ow  209   1.538   0.492   2.243 -0.8368  0.5097 -0.1662
   53SOL     hw  210   1.479   0.434   2.292 -1.4058  0.5770 -0.7660
   53SOL     hw  211   1.569   0.438   2.171  2.3791 -0.6063  1.8464
   53SOL     vw  212   1.534   0.477   2.240  0.0229  0.0095  0.0646
   54SOL     ow  213   2.378   0.624   5.639 -0.5973 -0.0381 -0.1335
   54SOL     hw  214   2.376   0.541   5.591  0.7285 -0.1308 -0.0677
   54SOL     hw  215   2.369   0.598   5.731  3.1457 -0.4916  0.2287
   54SOL     vw  216   2.376   0.609   5.645 -0.0453  0.0685 -0.0925
   55SOL     ow  217   0.296   1.188   6.586 -0.6796 -0.1199 -0.6309
   55SOL     hw  218   0.363   1.125   6.610  0.3198  1.6333  1.5460
   55SOL     hw  219   0.213   1.144   6.607 -0.2043 -1.7069 -1.8681
   55SOL     vw  220   0.294   1.174   6.592 -0.0588  0.0485 -0.0510
   56SOL     ow  221   1.732   1.722   0.192  1.0426  0.7705  0.0837
   56SOL     hw  222   1.701   1.812   0.181 -5.1423 -0.6897  1.7871
   56SOL     hw  223   1.753   1.715   0.285  0.7624  0.3093  0.1162
   56SOL     vw  224   1.731   1.733   0.202 -0.0509 -0.1525  0.0186
   57SOL     ow  225   0.313   1.264   6.258 -0.0577 -0.3743  0.1163
   57SOL     hw  226   0.264   1.223   6.187  0.6735  1.0507 -1.2723
   57SOL     hw  227   0.399   1.282   6.220  0.1250  1.0339  1.1294
   57SOL     vw  228   0.318   1.261   6.244 -0.0449  0.0155  0.0281
   58SOL     ow  229   0.939   1.864   3.149  0.2985  0.1464  0.3857
   58SOL     hw  230   0.942   1.772   3.177  1.2316  0.0654  0.0740
   58SOL     hw  231   1.020   1.876   3.099  0.6022  1.3571  1.1127
   58SOL     vw  232   0.950   1.853   3.146  0.1675 -0.0506 -0.0194
   59SOL     ow  233   1.292   0.416   1.664  0.6464 -0.0560  0.7035
   59SOL     hw  234   1.277   0.394   1.573 -1.3495 -3.1347  1.6223
   59SOL     hw  235   1.373   0.371   1.687  0.1015 -0.9423  0.9164
   59SOL     vw  236   1.300   0.407   1.655  0.0432  0.0060  0.0388
   60SOL     ow  237   0.486   0.871   1.949  0.1693  0.0971 -0.3311
   60SOL     hw  238   0.425   0.904   2.015 -0.4115  0.8742 -1.2172
   60SOL     hw  239   0.562   0.929   1.956  0.4881 -0.3830  0.2483
   60SOL     vw  240   0.488   0.883   1.958  0.0529  0.0117 -0.0128
   61SOL     ow  241   0.498   1.246   0.990 -0.0599 -0.0661  0.2199
   61SOL     hw  242   0.453   1.329   1.009 -2.8856 -1.5617  0.6467
   61SOL     hw  243   0.511   1.206   1.076  2.0413  0.2228  0.0869
   61SOL     vw  244   0.493   1.252   1.004 -0.0109 -0.0466  0.0442
   62SOL     ow  245   2.389   2.304   3.827 -0.1783 -0.1842 -0.0340
   62SOL     hw  246   2.318   2.241   3.842 -0.5943  0.4085  0.5979
   62SOL     hw  247   2.396   2.351   3.911  0.6748  0.0517 -0.2334
   62SOL     vw  248   2.381   2.302   3.840 -0.0120  0.0618 -0.0097
   63SOL     ow  249   0.521   1.617   5.391  0.0491 -0.6410  0.3224
   63SOL     hw  250   0.571   1.642   5.313  2.8103  1.2047  2.4967
   63SOL     hw  251   0.588   1.599   5.457 -2.1864 -0.4337  2.7770
   63SOL     vw  252   0.537   1.618   5.389  0.0437  0.0407  0.0911
   64SOL     ow  253   0.617   0.862   2.789  0.0772 -0.3496  0.8437
   64SOL     hw  254   0.707   0.890   2.777 -0.3594  0.8410  0.1249
   64SOL     hw  255   0.616   0.818   2.873  1.3038 -0.2843  0.9071
   64SOL     vw  256   0.628   0.860   2.798  0.0042  0.1251  0.1023
   65SOL     ow  257   0.861   1.989   6.094 -0.6945 -0.3572  0.3720
   65SOL     hw  258   0.853   2.056   6.163  0.2772 -0.8703  1.0102
   65SOL     hw  259   0.862   2.039   6.013  2.5174  0.7263  0.9173
   65SOL     vw  260   0.860   2.005   6.093  0.0098 -0.0658  0.0105
   66SOL     ow  261   1.329   0.200   3.226 -0.2264  0.1156 -0.3811
   66SOL     hw  262   1.237   0.186   3.248 -0.2326  1.7342  0.7889
   66SOL     hw  263   1.328   0.230   3.135 -0.6620 -1.6411 -0.9932
   66SOL     vw  264   1.317   0.202   3.216  0.0135  0.1037  0.0489
   67SOL     ow  265   0.599   1.224   4.642 -1.1429  0.4604  0.1962
   67SOL     hw  266   0.625   1.281   4.570  1.8773  0.0948  0.8786
   67SOL     hw  267   0.549   1.280   4.701 -1.9924  1.2458 -1.2266
   67SOL     vw  268   0.596   1.239   4.640  0.0532 -0.0036  0.0093
   68SOL     ow  269   1.613   2.112   0.871  0.1387  0.7644  0.1882
   68SOL     hw  270   1.579   2.035   0.826 -2.2234  2.3451 -0.9471
   68SOL     hw  271   1.654   2.164   0.802 -0.3174  1.5592  0.5094
   68SOL     vw  272   1.614   2.109   0.856 -0.0139  0.0100  0.0462
   69SOL     ow  273   1.565   1.634   3.540 -0.5789  0.3113 -0.5815
   69SOL     hw  274   1.635   1.673   3.489 -0.0851 -1.6683 -1.5133
   69SOL     hw  275   1.604   1.557   3.581 -1.9064 -0.1654 -0.1308
   69SOL     vw  276   1.579   1.629   3.539  0.0080  0.0125 -0.0184
   70SOL     ow  277   2.331   2.217   0.355 -0.0482 -0.1031 -0.2553
   70SOL     hw  278   2.241   2.245   0.367  0.0574  0.7241 -1.2656
   70SOL     hw  279   2.327   2.153   0.284  0.0953 -0.5095  0.0938
   70SOL     vw  280   2.319   2.212   0.347  0.0353  0.0490 -0.0245
   71SOL     ow  281   1.279   2.139   2.646  0.1983  0.1720 -0.4889
   71SOL     hw  282   1.235   2.152   2.562  1.6651  0.4778 -1.2375
   71SOL     hw  283   1.254   2.215   2.698 -2.1251 -0.8578  0.0320
   71SOL     vw  284   1.270   2.151   2.642  0.1134  0.0405 -0.0453
   72SOL     ow  285   1.090   2.061   4.358  0.4122 -0.3822 -0.2987
   72SOL     hw  286   1.175   2.042   4.319  1.3928  1.4640  0.7665
   72SOL     hw  287   1.087   2.157   4.364 -1.8567 -0.3749 -0.5011
   72SOL     vw  288   1.101   2.072   4.354 -0.0864  0.0318 -0.0172
   73SOL     ow  289   1.900   2.016   4.956 -0.0303 -0.0256  0.0664
   73SOL     hw  290   1.852   1.944   4.996  0.1223 -0.5900 -0.7349
   73SOL     hw  291   1.916   2.077   5.027  2.0629 -1.9600  1.3947
   73SOL     vw  292   1.896   2.014   4.970 -0.0226  0.0112 -0.0193
   74SOL     ow  293   1.248   0.928   4.017  0.6808 -0.5239  0.5352
   74SOL     hw  294   1.319   0.950   4.077  1.2402 -1.7490  0.3488
   74SOL     hw  295   1.175   0.903   4.074  0.0693  1.4921  0.7528
   74SOL     vw  296   1.248   0.928   4.032 -0.0073 -0.0250 -0.0279
   75SOL     ow  297   2.033   0.016   1.659  0.7573 -0.0648  0.0820
   75SOL     hw  298   2.092   0.056   1.595 -0.9799 -0.8368 -2.1103
   75SOL     hw  299   1.970  -0.034   1.607 -1.1498 -0.2278  2.3454
   75SOL     vw  300   2.032   0.015   1.644 -0.0122 -0.0259  0.0730
   76SOL     ow  301   0.820   1.683   1.102  0.4825  0.0257 -0.3624
   76SOL     hw  302   0.827   1.631   1.182 -0.2986  0.6557  0.1426
   76SOL     hw  303   0.852   1.770   1.127 -4.0698  1.7145  0.8097
   76SOL     vw  304   0.825   1.688   1.116  0.0131 -0.1021 -0.0907
   77SOL     ow  305   0.410   1.395   0.764  0.0770 -0.1840  0.4158
   77SOL     hw  306   0.322   1.431   0.775 -0.0768 -0.8465  1.6010
   77SOL     hw  307   0.469   1.467   0.788 -0.1821 -0.0991  0.8106
   77SOL     vw  308   0.406   1.409   0.769  0.0021 -0.0027 -0.0659
   78SOL     ow  309   1.616   0.229   3.032  0.4502  0.1866  0.0284
   78SOL     hw  310   1.548   0.162   3.029 -2.6229  3.0324 -2.1153
   78SOL     hw  311   1.612   0.263   3.121 -1.1575  0.3730 -0.0738
   78SOL     vw  312   1.606   0.225   3.043  0.0387 -0.0107 -0.0298
   79SOL     ow  313   0.203   0.672   5.427  0.3050  0.0267 -0.3963
   79SOL     hw  314   0.205   0.744   5.364 -0.7264 -0.4741 -1.0426
   79SOL     hw  315   0.246   0.599   5.381  0.0847 -0.1692 -0.2927
   79SOL     vw  316   0.209   0.672   5.413  0.0771  0.0170 -0.0467
   80SOL     ow  317   2.052   2.390   6.254  0.6275 -0.4453  0.3205
   80SOL     hw  318   2.088   2.302   6.242 -1.5915 -1.1497 -2.2773
   80SOL     hw  319   1.957   2.377   6.254  0.2337  1.9541 -0.5076
   80SOL     vw  320   2.044   2.376   6.252  0.0522  0.0190  0.0269
   81SOL     ow  321   0.319   0.372   2.497 -0.7067 -0.0389 -0.1449
   81SOL     hw  322   0.285   0.449   2.542 -2.1418 -1.0682  0.6100
   81SOL     hw  323   0.247   0.343   2.441 -0.5610 -1.3952  0.3376
   81SOL     vw  324   0.305   0.378   2.495  0.0220 -0.0163  0.0378
   82SOL     ow  325   1.340   0.539   0.117 -0.3540 -0.5418  0.6218
   82SOL     hw  326   1.343   0.460   0.063 -1.8386 -0.2563  0.0840
   82SOL     hw  327   1.367   0.609   0.058 -0.6369 -0.4221  0.6329
   82SOL     vw  328   1.344   0.538   0.102 -0.1026  0.0109  0.0001
   83SOL     ow  329   1.103   0.512   1.286 -0.5707 -0.0910  0.1379
   83SOL     hw  330   1.161   0.527   1.361 -0.3486 -3.3870  0.7747
   83SOL     hw  331   1.163   0.494   1.214 -0.6466 -3.0192  0.6862
   83SOL     vw  332   1.119   0.512   1.287 -0.0668 -0.0091 -0.0039
   84SOL     ow  333   2.355   0.420   4.371 -0.1728 -0.3011 -0.5515
   84SOL     hw  334   2.305   0.464   4.303 -1.5277 -1.4915 -0.3745
   84SOL     hw  335   2.338   0.327   4.358  1.6559 -0.7397 -0.1909
   84SOL     vw  336   2.346   0.413   4.360  0.0117 -0.0357 -0.0415
   85SOL     ow  337   0.675   2.162   1.121  0.2447 -0.1417 -0.0659
   85SOL     hw  338   0.586   2.180   1.153  0.0475  1.8054 -1.4481
   85SOL     hw  339   0.669   2.179   1.027  1.7192 -1.6395 -0.4681
   85SOL     vw  340   0.662   2.167   1.113  0.0004  0.0792  0.0573
   86SOL     ow  341   0.655   0.514   2.643  0.8423  1.0347 -0.3756
   86SOL     hw  342   0.623   0.440   2.695  2.3310  1.2718  0.9542
   86SOL     hw  343   0.664   0.479   2.554  0.2515  0.0215 -0.0592
   86SOL     vw  344   0.652   0.499   2.638 -0.0452  0.0466 -0.0201
   87SOL     ow  345   2.281   0.019   6.429  0.6614 -0.2950  0.1877
   87SOL     hw  346   2.352  -0.007   6.370 -1.8033 -2.2506 -2.1356
   87SOL     hw  347   2.287  -0.043   6.502  0.0507 -1.9383 -1.1064
   87SOL     vw  348   2.292   0.007   6.431 -0.0119 -0.0231  0.0217
   88SOL     ow  349   0.962   2.083   1.108  0.1500 -0.2419 -0.4064
   88SOL     hw  350   1.019   2.019   1.066  1.2881 -0.6329  1.6240
   88SOL     hw  351   0.957   2.155   1.045  1.7183 -0.8135 -1.2423
   88SOL     vw  352   0.969   2.084   1.094  0.1087 -0.0174 -0.0140
   89SOL     ow  353   0.763   1.390   4.477 -0.1810 -0.7699  0.2325
   89SOL     hw  354   0.781   1.316   4.418 -1.3860 -1.5953  0.8479
   89SOL     hw  355   0.783   1.468   4.425 -1.8721 -1.4469 -1.5597
   89SOL     vw  356   0.768   1.391   4.462  0.0147 -0.0374  0.0222
   90SOL     ow  357   2.333   1.954   5.267 -0.2503  0.0358  0.0531
   90SOL     hw  358   2.419   1.975   5.304 -0.2768  0.2338  0.0040
   90SOL     hw  359   2.284   1.915   5.339  0.0752 -0.6163 -0.0707
   90SOL     vw  360   2.338   1.952   5.281  0.0641 -0.0082 -0.0713
   91SOL     ow  361   0.044   0.328   1.068  0.1922 -0.8052 -0.4158
   91SOL     hw  362   0.106   0.397   1.042  0.6478 -0.2519  1.8642
   91SOL     hw  363   0.095   0.248   1.066  0.8784 -0.4370  0.8489
   91SOL     vw  364   0.059   0.327   1.065 -0.0561 -0.0632  0.0650
   92SOL     ow  365   1.396   0.181   5.481  0.5704  0.4135  0.0207
   92SOL     hw  366   1.329   0.145   5.422 -0.9956  3.8975 -0.6263
   92SOL     hw  367   1.351   0.253   5.526  3.8889  3.2299 -0.7317
   92SOL     vw  368   1.381   0.186   5.479  0.0232 -0.0193 -0.0031
   93SOL     ow  369   1.887   0.262   3.110 -0.3403 -0.4004 -0.8813
   93SOL     hw  370   1.825   0.323   3.149  0.3043 -0.0312 -0.4344
   93SOL     hw  371   1.968   0.311   3.102  0.0764 -1.0762 -0.8830
   93SOL     vw  372   1.889   0.277   3.114  0.0227 -0.0321 -0.0691
   94SOL     ow  373   0.688   2.357   1.449  0.1026 -0.9005 -0.7335
   94SOL     hw  374   0.606   2.307   1.451  0.9365 -2.4080  2.3057
   94SOL     hw  375   0.702   2.382   1.540  1.8522  1.4023 -1.5551
   94SOL     vw  376   0.679   2.354   1.462  0.0251  0.0085  0.0131
   95SOL     ow  377   1.780   1.183   4.369  0.0698  0.0091  0.2792
   95SOL     hw  378   1.753   1.184   4.460 -0.9437  0.3981 -0.0144
   95SOL     hw  379   1.765   1.092   4.341 -0.2809  0.0572  0.3091
   95SOL     vw  380   1.774   1.171   4.377 -0.0560  0.1010 -0.0365
   96SOL     ow  381   1.124   1.442   1.316 -0.4082 -0.8151  0.5694
   96SOL     hw  382   1.119   1.524   1.266 -0.9012 -1.4014 -0.3917
   96SOL     hw  383   1.035   1.408   1.313 -0.0247 -1.8027  0.2231
   96SOL     vw  384   1.112   1.449   1.309  0.0204  0.0180 -0.0011
   97SOL     ow  385   1.125   2.258   1.425  0.2011  0.2641  0.0175
   97SOL     hw  386   1.094   2.348   1.418  3.3291  1.4801  0.0349
   97SOL     hw  387   1.147   2.246   1.517 -1.6020 -1.1502  0.3419
   97SOL     vw  388   1.124   2.268   1.436  0.0424 -0.0852  0.0169
   98SOL     ow  389   0.227   2.328   0.297 -0.5298 -0.8648 -1.2653
   98SOL     hw  390   0.203   2.358   0.209 -1.4927 -0.6176 -0.9270
   98SOL     hw  391   0.323   2.323   0.295 -0.3222  1.9086 -1.4367
   98SOL     vw  392   0.237   2.331   0.285 -0.0247  0.0105  0.0317
   99SOL     ow  393   2.174   1.222   0.287 -0.6450  0.4952  0.6674
   99SOL     hw  394   2.141   1.300   0.331 -1.3276 -0.5989  2.1823
   99SOL     hw  395   2.212   1.169   0.357  1.6105  0.3205 -0.6041
   99SOL     vw  396   2.175   1.225   0.302 -0.0036  0.0117 -0.0191
  100SOL     ow  397   0.094   1.338   5.438 -0.5740 -0.0646  0.9095
  100SOL     hw  398   0.098   1.322   5.532  2.6084  2.6960  1.4170
  100SOL     hw  399   0.084   1.251   5.400 -0.7612 -1.4007  3.7190
  100SOL     vw  400   0.093   1.324   5.445  0.1029  0.1250 -0.0155
  101SOL     ow  401   2.081   1.315   1.848 -0.6985  0.6219 -0.1999
  101SOL     hw  402   2.140   1.250   1.809  0.1661  2.0483 -1.3502
  101SOL     hw  403   1.996   1.297   1.809 -0.4767  0.1546 -0.4730
  101SOL     vw  404   2.078   1.304   1.838 -0.0807 -0.0556 -0.0699
  102SOL     ow  405   2.273   0.663   1.875 -0.3197  0.2748  0.0474
  102SOL     hw  406   2.223   0.583   1.894  1.5021 -0.8040  0.5368
  102SOL     hw  407   2.243   0.689   1.788 -0.5073 -1.3157 -0.3957
  102SOL     vw  408   2.263   0.656   1.866  0.0111  0.0165  0.0690
  103SOL     ow  409   1.889   1.013   0.851  0.3444  0.0807  0.5062
  103SOL     hw  410   1.830   0.991   0.779  1.2521 -0.4487 -0.0958
  103SOL     hw  411   1.968   1.045   0.809  0.6133  0.4818  1.2941
  103SOL     vw  412   1.891   1.014   0.836 -0.0694 -0.0343 -0.0081
  104SOL     ow  413   2.013   1.551   2.018  0.3894  0.3228 -0.6454
  104SOL     hw  414   2.005   1.612   2.091 -0.3851  1.1053 -1.3563
  104SOL     hw  415   1.923   1.538   1.987  0.6041 -0.7154 -0.8880
  104SOL     vw  416   2.000   1.558   2.023 -0.0327  0.0609 -0.1113
  105SOL     ow  417   0.627   1.763   3.138 -0.3135  0.6714  0.2939
  105SOL     hw  418   0.566   1.724   3.075  1.1102 -0.9553 -0.1420
  105SOL     hw  419   0.599   1.729   3.223 -1.5991  2.0488  0.4624
  105SOL     vw  420   0.615   1.753   3.141  0.1216 -0.0216 -0.0048
  106SOL     ow  421   2.165   2.157   6.190 -0.2386  0.4575 -0.3219
  106SOL     hw  422   2.214   2.203   6.122  1.1866 -0.5572 -0.0438
  106SOL     hw  423   2.091   2.118   6.145  0.8494 -0.4599 -1.4006
  106SOL     vw  424   2.162   2.158   6.175  0.0480 -0.0190  0.0176
  107SOL     ow  425   1.378   1.381   2.613 -0.4115 -0.8134 -0.4755
  107SOL     hw  426   1.356   1.347   2.700 -1.7202 -0.2406 -0.5730
  107SOL     hw  427   1.449   1.323   2.583  0.3945 -0.7233  1.1481
  107SOL     vw  428   1.385   1.369   2.620 -0.0430  0.0070  0.0409
  108SOL     ow  429   0.396   0.569   1.964 -0.2284  1.1672  0.3170
  108SOL     hw  430   0.401   0.474   1.953 -1.1790  1.0158  1.0633
  108SOL     hw  431   0.303   0.586   1.978 -0.3125  2.3992 -1.4311
  108SOL     vw  432   0.384   0.558   1.964  0.0563  0.0061 -0.0294
  109SOL     ow  433   1.622   0.454   0.060 -0.3844 -0.1216 -0.0310
  109SOL     hw  434   1.618   0.514  -0.014  1.2733 -1.9173 -1.6784
  109SOL     hw  435   1.605   0.368   0.022 -0.5998 -0.9925  1.8980
  109SOL     vw  436   1.619   0.450   0.045  0.0644  0.0238  0.0549
  110SOL     ow  437   2.190   0.292   6.359  0.5793 -0.4480 -0.0295
  110SOL     hw  438   2.140   0.352   6.414 -0.7168 -1.4748 -0.0542
  110SOL     hw  439   2.208   0.341   6.279 -1.3258 -0.3971 -0.4587
  110SOL     vw  440   2.186   0.306   6.356 -0.0758  0.0091 -0.0341
  111SOL     ow  441   1.890   0.358   1.311  0.2029 -0.4394 -0.1290
  111SOL     hw  442   1.910   0.415   1.386 -0.0272 -0.3501 -0.1351
  111SOL     hw  443   1.820   0.404   1.264  1.2344  0.1697 -1.1409
  111SOL     vw  444   1.883   0.372   1.315 -0.0108 -0.0153  0.0500
  112SOL     ow  445   2.261   2.080   4.978  0.7929  0.5587 -0.0912
  112SOL     hw  446   2.188   2.073   4.915 -0.4641  2.0569  1.1143
  112SOL     hw  447   2.233   2.148   5.039  4.3800  3.2677 -1.1274
  112SOL     vw  448   2.247   2.088   4.978  0.0629 -0.0008 -0.0315
  113SOL     ow  449   1.156   2.051   4.023 -0.0257 -0.3060 -0.3346
  113SOL     hw  450   1.149   2.128   3.965 -0.0685 -1.4360 -1.8910
  113SOL     hw  451   1.065   2.027   4.041 -0.0159  0.3609  0.6769
  113SOL     vw  452   1.143   2.058   4.017  0.0175 -0.0553 -0.0691
  114SOL     ow  453   2.196   1.511   5.004  0.0524 -0.4128 -0.2563
  114SOL     hw  454   2.264   1.502   4.937  0.4817  3.0171 -0.4602
  114SOL     hw  455   2.117   1.531   4.956 -0.4086 -1.2301  0.1412
  114SOL     vw  456   2.195   1.513   4.989 -0.0098  0.0021  0.0224
  115SOL     ow  457   1.124   0.263   3.709 -0.4488 -0.4252  0.4835
  115SOL     hw  458   1.117   0.190   3.771 -0.4994 -2.3848 -1.7123
  115SOL     hw  459   1.061   0.327   3.742 -1.2673 -1.8516  1.8599
  115SOL     vw  460   1.115   0.262   3.722  0.0072  0.0142 -0.0261
  116SOL     ow  461   0.682   1.573   5.606  0.6145 -0.4765  0.0356
  116SOL     hw  462   0.746   1.518   5.561  1.3873  1.1296 -0.9219
  116SOL     hw  463   0.647   1.518   5.676  1.6650 -2.0125 -0.6129
  116SOL     vw  464   0.686   1.559   5.609  0.0454  0.0281  0.0100
  117SOL     ow  465   1.370   0.666   2.125  0.3562 -0.1286 -0.0331
  117SOL     hw  466   1.289   0.628   2.158  0.0612  1.6970  1.4835
  117SOL     hw  467   1.439   0.610   2.161 -0.1325 -0.3539  0.5720
  117SOL     vw  468   1.369   0.653   2.134 -0.0383  0.0212  0.0424
  118SOL     ow  469   2.277   0.077   1.839 -0.0969 -0.2593  0.6367
  118SOL     hw  470   2.339   0.027   1.892  1.2672  2.0155  1.3352
  118SOL     hw  471   2.317   0.082   1.752 -0.4913 -0.7936  0.4176
  118SOL     vw  472   2.290   0.071   1.835 -0.0290  0.0204 -0.0018
  119SOL     ow  473   1.964   0.005   1.954 -0.2159  0.2828  1.0533
  119SOL     hw  474   1.890  -0.014   1.896 -0.1283  0.2097  0.9653
  119SOL     hw  475   1.972  -0.073   2.009 -0.8514  0.6948  1.7615
  119SOL     vw  476   1.955  -0.008   1.954 -0.1438  0.0115  0.0944
  120SOL     ow  477   0.506   1.903   3.649 -0.4086  0.3262 -0.0699
  120SOL     hw  478   0.532   1.986   3.688 -0.9622 -0.4522  2.1325
  120SOL     hw  479   0.588   1.852   3.644  0.1071  1.2382 -2.2830
  120SOL     vw  480   0.521   1.907   3.653 -0.0367 -0.0769 -0.1050
  121SOL     ow  481   1.601   0.829   2.952  0.2742  0.0793 -0.0568
  121SOL     hw  482   1.551   0.798   2.876 -2.2155  1.8779  0.7115
  121SOL     hw  483   1.570   0.776   3.025 -1.8261  2.1645  0.7048
  121SOL     vw  484   1.590   0.818   2.951 -0.0367  0.0388  0.0434
  122SOL     ow  485   0.136   0.912   0.987  0.6281  0.7859  0.0140
  122SOL     hw  486   0.179   0.889   1.069 -0.1943 -0.2082  0.1894
  122SOL     hw  487   0.073   0.980   1.012 -0.3951 -0.2830  0.4419
  122SOL     vw  488   0.133   0.918   1.001 -0.0278 -0.0046 -0.0116
  123SOL     ow  489   1.738   2.362   3.022 -0.5786  0.1282  0.2517
  123SOL     hw  490   1.656   2.324   3.053  0.0421  0.5086  2.4828
  123SOL     hw  491   1.781   2.291   2.974  0.0147 -1.7459  3.3118
  123SOL     vw  492   1.733   2.348   3.020  0.0386 -0.0468  0.0803
  124SOL     ow  493   1.271   1.566   3.608 -0.2332 -0.0342  0.4816
  124SOL     hw  494   1.190   1.591   3.563  0.1414 -1.5433 -1.1438
  124SOL     hw  495   1.242   1.515   3.683 -0.8172 -0.8946 -0.3006
  124SOL     vw  496   1.256   1.563   3.612  0.0274 -0.0395  0.0393
  125SOL     ow  497   1.576   2.088   1.206  0.4532 -0.0043  0.0523
  125SOL     hw  498   1.504   2.028   1.188 -0.3083  1.2569 -1.3173
  125SOL     hw  499   1.548   2.137   1.283  1.5387 -2.0150  1.8576
  125SOL     vw  500   1.563   2.086   1.214  0.0727 -0.0918 -0.0343
  126SOL     ow  501   0.447   0.983   4.820  0.5082  0.4532 -0.1222
  126SOL     hw  502   0.412   0.896   4.801  2.8772 -0.2961 -1.4438
  126SOL     hw  503   0.455   0.985   4.915 -1.6428  0.1349  0.1155
  126SOL     vw  504   0.443   0.972   4.830 -0.0575  0.1202  0.0198
  127SOL     ow  505   0.016   1.739   5.686  0.1944 -0.5054  0.1734
  127SOL     hw  506   0.023   1.822   5.732 -0.3668 -0.2503 -0.1870
  127SOL     hw  507   0.026   1.672   5.754  1.5696 -0.1663  0.3391
  127SOL     vw  508   0.018   1.741   5.701 -0.0626  0.0405 -0.0441
  128SOL     ow  509   1.949   1.341   4.151  0.6411 -0.4860 -0.1652
  128SOL     hw  510   2.004   1.412   4.118  0.2746 -0.5925 -1.0343
  128SOL     hw  511   2.011   1.269   4.166  1.1740  0.2881  1.6827
  128SOL     vw  512   1.965   1.341   4.149  0.0286  0.0114 -0.1001
  129SOL     ow  513   2.182   0.381   0.961  0.2311 -0.0905 -0.0966
  129SOL     hw  514   2.118   0.332   0.912 -0.5039  0.6808  0.0643
  129SOL     hw  515   2.243   0.415   0.895  0.3649 -0.6647 -0.2671
  129SOL     vw  516   2.182   0.379   0.946 -0.0225  0.0098 -0.0426
  130SOL     ow  517   0.167   0.455   6.433 -0.1540 -0.3591  1.7943
  130SOL     hw  518   0.206   0.540   6.453  0.5178 -0.7831  2.3314
  130SOL     hw  519   0.096   0.445   6.498 -0.9508  0.2585  1.0385
  130SOL     vw  520   0.163   0.464   6.445  0.0780  0.0384  0.1166
  131SOL     ow  521   1.470   0.452   0.624 -0.0510 -0.4107 -0.0321
  131SOL     hw  522   1.457   0.540   0.659 -3.1522 -1.1542  1.0581
  131SOL     hw  523   1.504   0.402   0.698  1.3184 -0.2374 -0.5322
  131SOL     vw  524   1.473   0.457   0.639  0.0145  0.0065 -0.0376
  132SOL     ow  525   1.878   0.849   2.822  0.6682 -0.2405  0.4923
  132SOL     hw  526   1.899   0.761   2.793  2.8300 -0.1986  1.7121
  132SOL     hw  527   1.959   0.898   2.809 -0.6594  1.7838 -0.7855
  132SOL     vw  528   1.891   0.844   2.816  0.0184 -0.0217  0.0304
  133SOL     ow  529   0.857   1.871   0.838 -0.6689 -0.6217 -0.2126
  133SOL     hw  530   0.934   1.923   0.817 -0.2525 -1.3171 -0.4150
  133SOL     hw  531   0.783   1.929   0.818 -0.2451 -0.5040 -1.5470
  133SOL     vw  532   0.857   1.885   0.833 -0.0661 -0.0173  0.0272
  134SOL     ow  533   1.300   0.763   6.088  0.5025 -0.2622 -0.3336
  134SOL     hw  534   1.207   0.782   6.081  0.0455 -1.8302  0.9130
  134SOL     hw  535   1.324   0.787   6.178  0.3817 -3.1833  0.5977
  134SOL     vw  536   1.291   0.768   6.099 -0.0220 -0.0701 -0.0157
  135SOL     ow  537   0.593   0.993   0.147  0.2572 -0.7784 -0.3484
  135SOL     hw  538   0.518   0.946   0.185 -1.1498  1.3054 -0.3831
  135SOL     hw  539   0.618   1.056   0.214  2.2184 -1.6186 -0.2333
  135SOL     vw  540   0.586   0.995   0.161  0.0019  0.0028 -0.0122
  136SOL     ow  541   0.352   0.955   2.157 -0.1597  0.0552 -0.9409
  136SOL     hw  542   0.360   1.039   2.201 -0.2811  0.3421 -1.4640
  136SOL     hw  543   0.284   0.908   2.207 -0.0794  0.2554 -0.6420
  136SOL     vw  544   0.344   0.960   2.169  0.0092 -0.0404  0.0429
  137SOL     ow  545   0.740   2.388   0.443 -0.2588  0.2787  0.0124
  137SOL     hw  546   0.673   2.442   0.486  0.5605  2.0280 -0.7820
  137SOL     hw  547   0.793   2.353   0.515 -1.8960 -1.0366  0.6461
  137SOL     vw  548   0.738   2.391   0.458  0.0222  0.0741 -0.0078
  138SOL     ow  549   1.635   1.415   4.216  0.3015  1.6036  0.0117
  138SOL     hw  550   1.590   1.499   4.224 -1.9789  0.3817  1.2165
  138SOL     hw  551   1.576   1.361   4.162  0.6862  0.1848  0.9362
  138SOL     vw  552   1.621   1.419   4.210 -0.0443  0.0190 -0.0083
  139SOL     ow  553   0.973   1.166   6.321 -0.3589  0.2089  0.0645
  139SOL     hw  554   1.029   1.157   6.243 -1.2820  2.9789 -1.0488
  139SOL     hw  555   0.884   1.154   6.288 -0.7394  1.0334  0.7464
  139SOL     vw  556   0.969   1.163   6.306  0.0153 -0.0062  0.0072
  140SOL     ow  557   0.064   0.241   6.238  0.3781  0.0587  0.1530
  140SOL     hw  558  -0.020   0.282   6.219  0.1568  0.0523  1.1053
  140SOL     hw  559   0.069   0.167   6.177 -1.2061 -1.1455  1.3927
  140SOL     vw  560   0.054   0.236   6.227  0.0045 -0.0151 -0.0417
  141SOL     ow  561   2.231   1.820   5.462 -0.0657 -0.3272 -0.0100
  141SOL     hw  562   2.289   1.839   5.535  2.4252  0.6057 -2.0815
  141SOL     hw  563   2.218   1.725   5.464  2.6801 -0.7671 -0.2100
  141SOL     vw  564   2.237   1.810   5.472  0.0538 -0.0325 -0.0489
  142SOL     ow  565   2.289   0.776   4.579  0.0005  0.0799 -0.4661
  142SOL     hw  566   2.219   0.828   4.539 -1.9922 -0.4660  2.0231
  142SOL     hw  567   2.341   0.840   4.627 -0.5000  0.1689 -0.0352
  142SOL     vw  568   2.286   0.791   4.580 -0.0663 -0.0704 -0.0274
  143SOL     ow  569   1.334   0.631   1.799  0.1816  0.0721 -0.4979
  143SOL     hw  570   1.294   0.549   1.771 -0.2958  0.7310 -1.8678
  143SOL     hw  571   1.333   0.686   1.720 -3.2096  2.8679  1.1934
  143SOL     vw  572   1.328   0.628   1.785  0.1410  0.0347  0.0610
  144SOL     ow  573   1.403   1.683   2.581  0.0121  0.4142 -1.5401
  144SOL     hw  574   1.487   1.678   2.626 -0.6389  2.7236  0.0792
  144SOL     hw  575   1.343   1.720   2.645 -2.0731 -0.3467 -2.9394
  144SOL     vw  576   1.406   1.687   2.595  0.0072  0.1292  0.0197
  145SOL     ow  577   1.224   1.817   2.738 -0.3393  0.1272  0.3187
  145SOL     hw  578   1.149   1.850   2.689  0.5158  0.0377 -1.1177
  145SOL     hw  579   1.201   1.831   2.830 -3.1657 -2.1804  0.0869
  145SOL     vw  580   1.211   1.823   2.743  0.0355 -0.0936  0.0215
  146SOL     ow  581   0.789   0.816   0.248 -0.2851  0.2752  0.3849
  146SOL     hw  582   0.734   0.776   0.315 -0.3145 -0.6043 -0.1371
  146SOL     hw  583   0.729   0.872   0.198 -0.0631  1.7279  1.6722
  146SOL     vw  584   0.773   0.818   0.250  0.0171 -0.0173 -0.0163
  147SOL     ow  585   1.825   1.485   4.419  0.6753  0.1232 -0.1069
  147SOL     hw  586   1.888   1.517   4.484 -1.3668  2.8641  0.7499
  147SOL     hw  587   1.758   1.554   4.416 -1.5571 -1.9669 -1.9580
  147SOL     vw  588   1.825   1.498   4.427  0.0012  0.0052 -0.0646
  148SOL     ow  589   0.634   0.664   1.784 -0.0375  0.1199  0.4321
  148SOL     hw  590   0.720   0.624   1.797  0.0638 -0.6291 -1.9015
  148SOL     hw  591   0.642   0.709   1.700 -1.6400  0.8826  0.6574
  148SOL     vw  592   0.646   0.665   1.774 -0.0245 -0.1079 -0.0836
  149SOL     ow  593   1.419   2.140   1.400 -0.0160  0.9966 -0.2497
  149SOL     hw  594   1.393   2.069   1.459  1.4429  0.7301  0.1076
  149SOL     hw  595   1.336   2.174   1.366 -0.8322  0.3722  1.0305
  149SOL     vw  596   1.404   2.135   1.403 -0.0584  0.0575  0.1395
  150SOL     ow  597   2.308   1.904   6.142  0.2237  0.4724  0.0309
  150SOL     hw  598   2.280   1.815   6.124 -0.6837  0.0106  3.1335
  150SOL     hw  599   2.326   1.942   6.056 -0.4962 -2.3047 -1.4413
  150SOL     vw  600   2.307   1.898   6.129  0.0271  0.0184  0.0567
  151SOL     ow  601   1.894   1.313   2.827 -0.0993  0.3337  0.1045
  151SOL     hw  602   1.927   1.295   2.739  2.7949  0.2828  1.1021
  151SOL     hw  603   1.826   1.247   2.841 -1.4093  0.9809 -2.3959
  151SOL     vw  604   1.889   1.302   2.817  0.0108  0.0143 -0.0066
  152SOL     ow  605   2.133   2.199   1.864  0.6796 -0.6223 -0.6176
  152SOL     hw  606   2.092   2.127   1.815  0.2038 -1.0944  0.4427
  152SOL     hw  607   2.189   2.156   1.928  0.1956 -0.0660  0.2027
  152SOL     vw  608   2.135   2.184   1.866  0.0991  0.0628 -0.0880
  153SOL     ow  609   0.444   1.679   5.877 -0.2828  0.4390 -0.2286
  153SOL     hw  610   0.469   1.770   5.864  0.6937  0.2032 -0.0815
  153SOL     hw  611   0.381   1.681   5.949  0.9624  0.8497  0.8960
  153SOL     vw  612   0.439   1.691   5.885  0.0465 -0.0509  0.0117
  154SOL     ow  613   1.689   1.314   5.233 -0.9791 -0.4204  0.8410
  154SOL     hw  614   1.656   1.399   5.260  1.4610  0.6612  0.6774
  154SOL     hw  615   1.660   1.305   5.142  0.6394  1.3625  0.0786
  154SOL     vw  616   1.680   1.324   5.224  0.0592  0.0146  0.0238
  155SOL     ow  617   1.111   1.780   6.112  0.0522  0.2668  0.1654
  155SOL     hw  618   1.159   1.707   6.072 -1.2137 -0.1994 -0.5478
  155SOL     hw  619   1.168   1.856   6.097  1.8368 -0.6565  1.7431
  155SOL     vw  620   1.125   1.781   6.105 -0.0468  0.0009  0.0370
  156SOL     ow  621   0.293   1.708   0.261 -0.2324  0.5347 -0.5732
  156SOL     hw  622   0.384   1.698   0.290 -0.2064  1.6710 -0.2279
  156SOL     hw  623   0.297   1.774   0.192 -0.7479  0.2963 -0.8341
  156SOL     vw  624   0.306   1.715   0.256 -0.0009  0.0114  0.0621
  157SOL     ow  625   0.593   2.231   0.863  0.4229 -0.5225 -0.0896
  157SOL     hw  626   0.678   2.249   0.824  0.9266  0.6286  1.4466
  157SOL     hw  627   0.563   2.316   0.897  0.1640 -1.4534  2.2194
  157SOL     vw  628   0.600   2.245   0.862 -0.0716  0.0060 -0.0128
  158SOL     ow  629   2.132   2.387   3.559 -0.2982 -0.7110 -0.2692
  158SOL     hw  630   2.043   2.421   3.563  0.2764  0.7272  1.6209
  158SOL     hw  631   2.121   2.293   3.541 -2.1339 -0.4265 -0.8520
  158SOL     vw  632   2.119   2.379   3.557 -0.0124  0.0459  0.0489
  159SOL     ow  633   0.289   0.723   1.743  0.0406 -0.3936  0.5926
  159SOL     hw  634   0.261   0.753   1.657  0.6264 -1.2835  0.0686
  159SOL     hw  635   0.208   0.707   1.791 -0.3559  3.1911  1.3887
  159SOL     vw  636   0.275   0.725   1.738  0.0699  0.0151  0.0325
  160SOL     ow  637   1.021   2.321   0.268  0.0834 -0.1177 -0.3256
  160SOL     hw  638   1.078   2.291   0.339  0.1180 -3.7579 -1.6740
  160SOL     hw  639   1.081   2.361   0.205  0.1765  2.1782  1.1095
  160SOL     vw  640   1.037   2.322   0.269  0.0101 -0.0371 -0.0285
  161SOL     ow  641   0.714   0.324   1.271 -0.7288  0.1130 -0.0922
  161SOL     hw  642   0.696   0.230   1.266 -0.5968  0.0945 -0.2384
  161SOL     hw  643   0.656   0.356   1.340 -2.2741  0.2848 -1.4034
  161SOL     vw  644   0.704   0.316   1.279  0.0119 -0.0569 -0.0122
  162SOL     ow  645   1.668   1.131   5.457 -0.0821 -0.3886  0.0936
  162SOL     hw  646   1.583   1.173   5.441 -0.0432 -0.7345 -1.1807
  162SOL     hw  647   1.671   1.117   5.551 -1.0951  0.3594  0.2531
  162SOL     vw  648   1.657   1.135   5.467  0.0443  0.0094 -0.0100
  163SOL     ow  649   1.395   1.340   3.758  0.2997  0.5664 -1.1454
  163SOL     hw  650   1.439   1.341   3.843 -1.2049  0.2083 -0.3236
  163SOL     hw  651   1.465   1.322   3.695  0.9667 -3.2825  0.3926
  163SOL     vw  652   1.410   1.337   3.761 -0.0413 -0.0107  0.0378
  164SOL     ow  653   0.266   1.543   5.315  0.8484  0.2039  0.1247
  164SOL     hw  654   0.282   1.561   5.223  0.3281  2.6624  0.4324
  164SOL     hw  655   0.200   1.474   5.315 -0.0606  1.0060 -1.4012
  164SOL     vw  656   0.260   1.536   5.303 -0.0452 -0.0550  0.0193
  165SOL     ow  657   0.735   1.982   3.307 -0.1217  0.6576  0.3371
  165SOL     hw  658   0.649   1.991   3.347 -0.8863 -0.7427 -0.8818
  165SOL     hw  659   0.782   1.922   3.365  0.9052  3.0488  2.1975
  165SOL     vw  660   0.730   1.975   3.320 -0.0459  0.0439  0.0336
  166SOL     ow  661   1.636   2.143   4.827  0.0195  0.1936 -0.6187
  166SOL     hw  662   1.580   2.117   4.753  0.8336  2.7006 -2.2587
  166SOL     hw  663   1.575   2.180   4.891 -0.4696  0.5936 -1.2918
  166SOL     vw  664   1.620   2.144   4.826  0.0814 -0.0112 -0.0074
  167SOL     ow  665   1.643   0.531   2.730 -0.8556 -0.3734 -0.5895
  167SOL     hw  666   1.588   0.605   2.707 -1.8243 -0.9794 -0.2501
  167SOL     hw  667   1.588   0.454   2.716  0.5122 -1.1408 -2.1682
  167SOL     vw  668   1.629   0.530   2.725 -0.0221 -0.0510  0.0396
  168SOL     ow  669   2.133   2.039   4.731 -0.0178  0.4529  0.1315
  168SOL     hw  670   2.227   2.048   4.717 -0.3435  2.9062 -0.9029
  168SOL     hw  671   2.099   2.007   4.647 -0.0745 -1.3202  0.7706
  168SOL     vw  672   2.141   2.036   4.718  0.0340 -0.0467  0.0122
  169SOL     ow  673   1.484   1.607   0.061  0.0031 -0.6871 -0.1658
  169SOL     hw  674   1.407   1.586   0.008 -0.3961  1.3313 -0.4427
  169SOL     hw  675   1.460   1.685   0.110  3.0817  2.5196 -3.1887
  169SOL     vw  676   1.471   1.614   0.061  0.0421 -0.0656 -0.0234
  170SOL     ow  677   2.349   1.567   5.369  0.7869 -0.2313 -0.0918
  170SOL     hw  678   2.431   1.598   5.331  1.1895  1.5771  2.0709
  170SOL     hw  679   2.372   1.485   5.413  1.2204 -0.2417 -0.3399
  170SOL     vw  680   2.363   1.560   5.370 -0.0066  0.0055 -0.0329
  171SOL     ow  681   0.400   0.706   2.706  0.3074  0.3134  0.1316
  171SOL     hw  682   0.350   0.729   2.628 -2.3450 -2.3713  0.8777
  171SOL     hw  683   0.351   0.744   2.779 -1.0291 -2.5829  0.8969
  171SOL     vw  684   0.387   0.714   2.706  0.0133 -0.0072  0.0306
  172SOL     ow  685   0.852   2.169   1.385 -0.0197 -0.1027 -0.2367
  172SOL     hw  686   0.792   2.229   1.429 -1.0393 -2.3232  1.5859
  172SOL     hw  687   0.939   2.195   1.416 -0.2733  1.2128 -0.5398
  172SOL     vw  688   0.855   2.181   1.395  0.0789  0.0305 -0.1639
  173SOL     ow  689   0.406   1.824   3.916 -0.4380 -0.0858  0.2546
  173SOL     hw  690   0.489   1.790   3.949 -0.7444 -0.8711  0.2303
  173SOL     hw  691   0.393   1.906   3.965  1.8322  1.7005 -1.8934
  173SOL     vw  692   0.415   1.831   3.927  0.0242 -0.0013  0.0162
  174SOL     ow  693   1.390   1.427   1.139  0.3819  0.1853  0.3192
  174SOL     hw  694   1.481   1.432   1.108  1.2088 -3.2451  1.7621
  174SOL     hw  695   1.358   1.517   1.131  2.6514  0.9216 -3.6936
  174SOL     vw  696   1.398   1.439   1.134 -0.0446 -0.0281 -0.0460
  175SOL     ow  697   0.817   1.487   4.200 -0.3595  0.1424  0.2984
  175SOL     hw  698   0.774   1.401   4.206  1.9522 -1.1817 -0.7158
  175SOL     hw  699   0.810   1.511   4.108  1.7235 -0.5446 -0.0922
  175SOL     vw  700   0.810   1.479   4.189  0.0393  0.0083 -0.0267
  176SOL     ow  701   1.982   0.200   2.409 -0.4318 -0.0164 -0.0974
  176SOL     hw  702   1.934   0.120   2.429  0.2631 -0.3832  0.1203
  176SOL     hw  703   2.052   0.203   2.474 -1.1451  1.3903  0.6602
  176SOL     vw  704   1.985   0.190   2.420 -0.0519  0.0418  0.0083
  177SOL     ow  705   0.492   1.492   2.126  0.3020 -0.0189 -0.1765
  177SOL     hw  706   0.493   1.507   2.220  0.6999  2.1366 -0.4880
  177SOL     hw  707   0.534   1.406   2.115  0.5915 -0.1302  1.5559
  177SOL     vw  708   0.497   1.482   2.137 -0.0238 -0.0274  0.0695
  178SOL     ow  709   0.557   1.105   0.729 -0.2734 -0.3708 -0.1446
  178SOL     hw  710   0.565   1.039   0.660  0.1044  1.6911 -2.1905
  178SOL     hw  711   0.610   1.179   0.698  1.0168  0.2010  2.9997
  178SOL     vw  712   0.565   1.106   0.716  0.0347 -0.0192 -0.0262
  179SOL     ow  713   0.731   2.030   3.004  0.4287  0.2312 -0.6621
  179SOL     hw  714   0.651   2.080   2.992  0.2110  0.4999  1.5377
  179SOL     hw  715   0.787   2.057   2.932 -0.2769  2.4406 -0.4485
  179SOL     vw  716   0.728   2.040   2.993  0.0232  0.0973  0.0069
  180SOL     ow  717   0.268   1.674   3.691  0.1380  0.1119  0.0929
  180SOL     hw  718   0.195   1.667   3.630 -0.0478  1.7327  0.0806
  180SOL     hw  719   0.240   1.625   3.768 -0.5580 -0.0834 -0.2776
  180SOL     vw  720   0.255   1.667   3.693  0.0254 -0.0561 -0.0447
  181SOL     ow  721   0.583   1.943   0.840  0.3908 -0.6525  0.0685
  181SOL     hw  722   0.578   2.032   0.807  1.2338 -0.2740  0.9306
  181SOL     hw  723   0.547   1.947   0.928  3.5041 -0.4081  1.4670
  181SOL     vw  724   0.577   1.955   0.847 -0.0054 -0.0151 -0.0109
  182SOL     ow  725   2.205   1.781   5.019 -0.1280 -0.2832 -0.1045
  182SOL     hw  726   2.187   1.699   5.063 -1.6610  1.3837  2.6763
  182SOL     hw  727   2.126   1.797   4.967 -0.8125  0.4113  1.1006
  182SOL     vw  728   2.192   1.773   5.018  0.0876  0.0050 -0.0896
  183SOL     ow  729   1.890   0.588   2.789  0.4710 -0.4381  0.2138
  183SOL     hw  730   1.800   0.562   2.770  0.4696  0.4476 -1.1439
  183SOL     hw  731   1.889   0.611   2.882 -0.4533 -1.3902  0.4600
  183SOL     vw  732   1.878   0.588   2.799  0.0244 -0.0421  0.0145
  184SOL     ow  733   1.477   1.952   2.505 -0.1804 -0.0215  0.0499
  184SOL     hw  734   1.454   1.962   2.413  1.0169 -1.1893 -0.3954
  184SOL     hw  735   1.469   1.858   2.522  2.6382 -0.2984  0.2623
  184SOL     vw  736   1.473   1.941   2.495  0.0331 -0.0011  0.0204
  185SOL     ow  737   2.192   1.228   2.849 -0.6041  0.5844 -0.5078
  185SOL     hw  738   2.231   1.141   2.855 -0.2609  0.8262  0.9418
  185SOL     hw  739   2.253   1.277   2.794 -0.3917  0.1338 -0.6792
  185SOL     vw  740   2.205   1.223   2.842 -0.0492 -0.0207  0.0128
  186SOL     ow  741   0.145   0.645   1.969 -0.4566  0.0315 -0.1933
  186SOL     hw  742   0.051   0.651   1.951 -0.3492  0.9354 -0.4950
  186SOL     hw  743   0.157   0.694   2.050 -0.0784  0.9083 -0.7709
  186SOL     vw  744   0.134   0.652   1.978 -0.0732 -0.0175 -0.0077
  187SOL     ow  745   0.814   2.190   6.285  0.5046  0.6333 -0.1334
  187SOL     hw  746   0.797   2.284   6.287 -0.1904  0.5059  0.0649
  187SOL     hw  747   0.737   2.150   6.325  0.6813 -0.0402 -0.4441
  187SOL     vw  748   0.802   2.197   6.291  0.0087 -0.0141  0.0234
  188SOL     ow  749   0.029   2.319   3.544  0.3487 -0.2666  0.0079
  188SOL     hw  750   0.120   2.345   3.530 -0.1985  1.9426  0.2646
  188SOL     hw  751   0.023   2.303   3.639 -0.3176  3.2762  0.6930
  188SOL     vw  752   0.040   2.320   3.555  0.0006  0.0080 -0.0125
  189SOL     ow  753   0.451   2.228   2.742  0.1188 -0.9990 -0.5738
  189SOL     hw  754   0.473   2.218   2.834 -0.0802 -0.0942 -0.4280
  189SOL     hw  755   0.412   2.144   2.718 -1.1185 -0.7701  0.5247
  189SOL     vw  756   0.449   2.215   2.751 -0.0424 -0.0576 -0.0294
  190SOL     ow  757   2.130   0.266   1.225 -0.8722  0.3901  0.4399
  190SOL     hw  758   2.134   0.183   1.272 -0.7827  1.3764  2.2691
  190SOL     hw  759   2.049   0.307   1.256 -0.9710  0.9444 -0.5263
  190SOL     vw  760   2.120   0.260   1.236 -0.0273 -0.0516 -0.0557
  191SOL     ow  761   0.771   0.597   1.262 -0.5116 -0.5299 -0.8405
  191SOL     hw  762   0.774   0.504   1.285 -0.8494 -0.4957 -0.6436
  191SOL     hw  763   0.677   0.616   1.254 -0.4822 -0.0191 -0.0806
  191SOL     vw  764   0.759   0.587   1.264 -0.1658 -0.0164  0.0194
  192SOL     ow  765   1.251   1.173   1.162  0.0007 -0.0601 -0.8504
  192SOL     hw  766   1.345   1.154   1.153 -0.3632 -1.2884 -2.4374
  192SOL     hw  767   1.208   1.111   1.104 -1.8620  0.0827  0.2965
  192SOL     vw  768   1.258   1.163   1.153  0.0295  0.0020  0.0058
  193SOL     ow  769   0.558   1.490   1.862  0.5802  0.1337  0.4020
  193SOL     hw  770   0.474   1.450   1.836 -0.1147  2.4082 -1.0677
  193SOL     hw  771   0.623   1.443   1.811 -0.1838  0.6191 -1.0661
  193SOL     vw  772   0.555   1.478   1.852  0.0501 -0.0342 -0.0513
  194SOL     ow  773   1.676   1.095   2.818  0.3866  0.0877  0.1957
  194SOL     hw  774   1.645   1.087   2.728  2.4953  1.2640 -0.7154
  194SOL     hw  775   1.611   1.151   2.861 -1.4516 -1.7007 -0.1148
  194SOL     vw  776   1.663   1.101   2.812 -0.0527  0.0014  0.0110
  195SOL     ow  777   1.803   0.488   4.435 -0.7087 -0.2991  0.5315
  195SOL     hw  778   1.861   0.444   4.373 -1.3096 -0.1772 -0.1314
  195SOL     hw  779   1.767   0.562   4.387 -0.9318 -0.0031  1.1340
  195SOL     vw  780   1.806   0.492   4.421 -0.0537 -0.0115  0.0188
  196SOL     ow  781   1.410   0.417   4.060  0.4957  0.5722 -0.0229
  196SOL     hw  782   1.489   0.393   4.108 -0.5850 -1.4600  0.9046
  196SOL     hw  783   1.352   0.454   4.126  0.7207  2.3130 -0.7468
  196SOL     vw  784   1.413   0.419   4.075 -0.0843  0.0776 -0.0863
  197SOL     ow  785   1.000   1.009   5.238  0.0319  0.1253  0.5155
  197SOL     hw  786   0.925   0.949   5.233  0.1147 -0.0030  0.8098
  197SOL     hw  787   1.076   0.952   5.252 -0.1880  0.3925  3.7436
  197SOL     vw  788   1.000   0.994   5.240 -0.0035 -0.0834  0.0267
  198SOL     ow  789   1.795   1.924   4.709 -0.2725  0.3615  0.1365
  198SOL     hw  790   1.876   1.908   4.660 -0.8878  0.3178 -0.8912
  198SOL     hw  791   1.725   1.895   4.651 -1.0761  1.0928  0.7124
  198SOL     vw  792   1.797   1.918   4.695  0.0059 -0.0578 -0.0427
  199SOL     ow  793   1.431   1.254   5.401 -0.5038 -0.1214  0.4290
  199SOL     hw  794   1.355   1.265   5.459 -1.4089  1.1797 -0.9381
  199SOL     hw  795   1.470   1.342   5.396  0.4333 -0.5355  0.2135
  199SOL     vw  796   1.426   1.267   5.408  0.0059  0.0206 -0.0265
  200SOL     ow  797   1.445   0.083   5.753 -0.4564  0.2510  0.3926
  200SOL     hw  798   1.491   0.021   5.809  2.3438  0.8267 -1.1075
  200SOL     hw  799   1.372   0.115   5.807 -1.4483 -3.5082  1.5609
  200SOL     vw  800   1.441   0.079   5.767 -0.0665 -0.0575 -0.0250
  201SOL     ow  801   0.234   0.474   6.141 -0.5083  0.2114 -0.1076
  201SOL     hw  802   0.203   0.564   6.151 -2.5313 -0.1149 -2.5005
  201SOL     hw  803   0.329   0.482   6.130 -0.4075  1.8307  1.4887
  201SOL     vw  804   0.243   0.487   6.141  0.0331  0.0366 -0.0420
  202SOL     ow  805   0.106   0.633   4.515  0.8728  0.9426  0.5019
  202SOL     hw  806   0.128   0.671   4.430  0.0809  0.3833  0.0290
  202SOL     hw  807   0.020   0.670   4.535 -0.4467 -1.3300 -0.4869
  202SOL     vw  808   0.097   0.643   4.506  0.0526  0.1189 -0.0114
  203SOL     ow  809   1.836   1.063   3.044 -0.2823  0.2301  0.1953
  203SOL     hw  810   1.885   1.140   3.072  1.1515 -0.6296  0.1670
  203SOL     hw  811   1.848   0.999   3.114  0.5340 -0.7679 -0.8033
  203SOL     vw  812   1.844   1.064   3.057  0.0732 -0.1065 -0.0294
  204SOL     ow  813   0.268   1.110   0.839  0.5543  0.1711 -0.0307
  204SOL     hw  814   0.251   1.035   0.896  0.9376  2.1894  2.9696
  204SOL     hw  815   0.182   1.134   0.805  0.4346 -1.5945 -1.1478
  204SOL     vw  816   0.255   1.103   0.842 -0.0381  0.0225 -0.0015
  205SOL     ow  817   1.455   1.291   4.027 -0.2890 -0.6049  0.2988
  205SOL     hw  818   1.371   1.267   4.066 -0.7925 -0.0586 -0.4447
  205SOL     hw  819   1.503   1.208   4.021 -1.5364 -1.2718 -1.0835
  205SOL     vw  820   1.450   1.277   4.032 -0.0589  0.0222 -0.0441
  206SOL     ow  821   0.569   2.142   3.684 -0.3269 -0.4593  0.8700
  206SOL     hw  822   0.602   2.181   3.603  0.0140 -1.9465  0.2649
  206SOL     hw  823   0.612   2.192   3.753  0.5253 -0.1092  0.1146
  206SOL     vw  824   0.579   2.154   3.682  0.0072  0.1041  0.0343
  207SOL     ow  825   0.819   1.911   4.505 -0.7330  0.3379 -0.7887
  207SOL     hw  826   0.744   1.852   4.511 -1.0425  0.8966  1.5474
  207SOL     hw  827   0.809   1.971   4.578  0.5721  2.1511 -2.0079
  207SOL     vw  828   0.808   1.911   4.515 -0.0638  0.0325 -0.0372
  208SOL     ow  829   1.538   0.931   6.107  0.0811 -0.5475  0.2119
  208SOL     hw  830   1.513   0.998   6.171 -1.3880 -2.5133  1.8521
  208SOL     hw  831   1.624   0.901   6.137  0.0522 -0.4397  0.4051
  208SOL     vw  832   1.546   0.936   6.120 -0.0312 -0.0889 -0.0238
  209SOL     ow  833   0.322   1.294   3.095  0.2163  0.8756 -0.1137
  209SOL     hw  834   0.245   1.278   3.149 -0.8089  1.5449 -1.3123
  209SOL     hw  835   0.328   1.217   3.039  2.3782 -0.7007  2.1024
  209SOL     vw  836   0.313   1.282   3.094 -0.0800  0.0250 -0.0051
  210SOL     ow  837   0.303   1.530   5.623 -0.5220  0.8867  0.2690
  210SOL     hw  838   0.272   1.443   5.646  0.3376  0.5370  0.1308
  210SOL     hw  839   0.304   1.578   5.707 -0.7005  0.6737  0.3931
  210SOL     vw  840   0.299   1.525   5.637  0.0656  0.0353 -0.0508
  211SOL     ow  841   1.719   0.414   2.426 -0.3698  0.7305  0.5343
  211SOL     hw  842   1.658   0.471   2.379  0.2107  2.5898  1.9089
  211SOL     hw  843   1.662   0.355   2.476 -0.9898  0.4795 -0.4352
  211SOL     vw  844   1.703   0.414   2.427  0.0499 -0.0546  0.0027
  212SOL     ow  845   1.653   0.932   1.042  0.0774  0.4627 -0.4031
  212SOL     hw  846   1.611   0.850   1.067  1.2737 -0.5702 -1.6374
  212SOL     hw  847   1.606   0.999   1.092 -2.6513 -0.6558 -1.2576
  212SOL     vw  848   1.641   0.930   1.052 -0.0083  0.0281 -0.0431
  213SOL     ow  849   1.901   0.364   4.713 -1.1812  0.3137  0.2196
  213SOL     hw  850   1.877   0.329   4.799 -1.1051 -1.2235 -0.3512
  213SOL     hw  851   1.904   0.287   4.656  0.4995  1.0683 -0.7764
  213SOL     vw  852   1.898   0.350   4.717  0.0225  0.0122 -0.0257
  214SOL     ow  853   1.166   1.877   2.995  0.6764 -0.2892 -0.0822
  214SOL     hw  854   1.206   1.794   3.018  1.1151 -0.2413 -0.6491
  214SOL     hw  855   1.229   1.944   3.022 -0.8163  0.0679  2.9083
  214SOL     vw  856   1.179   1.875   3.001 -0.0276 -0.0142  0.0423
  215SOL     ow  857   0.421   0.932   6.653 -0.1427 -0.3629 -0.2242
  215SOL     hw  858   0.493   0.966   6.706 -2.7854  3.3154  1.3957
  215SOL     hw  859   0.399   0.848   6.695  0.7753  0.2693  1.6385
  215SOL     vw  860   0.428   0.925   6.666 -0.0237 -0.0048 -0.1018
  216SOL     ow  861   0.289   1.803   5.467  0.2731 -0.0390  0.4535
  216SOL     hw  862   0.206   1.793   5.514  0.1508 -0.3704  0.1801
  216SOL     hw  863   0.270   1.867   5.399 -0.4905 -1.8953 -1.1822
  216SOL     vw  864   0.276   1.810   5.464 -0.0536  0.0835  0.0529
  217poe    c31  865   1.603   1.337   0.808  0.1704  0.0779  0.7085
  217poe     o2  866   1.648   1.289   0.933  0.0146 -0.5226  0.5388
  217poe    c23  867   1.747   1.377   0.981 -0.4675  0.1675  0.2840
  217poe    c23  868   1.868   1.302   1.038 -0.2716  0.0639 -0.2575
  217poe     o2  869   1.836   1.209   1.139  0.0073  0.1352 -0.0996
  217poe    c23  870   1.938   1.134   1.201 -0.2015 -0.1737 -0.1228
  217poe    c23  871   2.019   1.013   1.152 -0.0328 -0.2255  0.2760
  217poe     o2  872   1.951   0.894   1.117  0.0822 -0.2961  0.2904
  217poe    c23  873   2.043   0.789   1.103  0.3494 -0.1044  0.5953
  217poe    c23  874   1.950   0.682   1.044 -0.2357  0.4475  0.5029
  217poe     o2  875   1.849   0.725   0.955  0.0230 -0.1074 -0.0735
  217poe    c31  876   1.784   0.614   0.898  0.0856 -0.0497 -0.2605
  218poe    c31  877   2.295   1.332   1.122  0.3408  0.1097 -0.0842
  218poe     o2  878   2.225   1.382   1.234  0.2148 -0.0632 -0.0856
  218poe    c23  879   2.295   1.343   1.351 -0.0161  0.0355  0.0863
  218poe    c23  880   2.200   1.348   1.472  0.1793  0.5956  0.2183
  218poe     o2  881   2.238   1.281   1.590 -0.3681 -0.2178 -0.0560
  218poe    c23  882   2.286   1.148   1.593 -0.0728 -0.1077  0.2278
  218poe    c23  883   2.319   1.096   1.733  0.0025 -0.3162  0.1330
  218poe     o2  884   2.209   1.093   1.822  0.4504 -0.2130  0.7022
  218poe    c23  885   2.194   0.985   1.910 -0.0512 -0.2772  0.5373
  218poe    c23  886   2.053   0.982   1.973 -0.4979  0.9074 -0.3709
  218poe     o2  887   2.026   1.085   2.065 -0.4146  0.6072 -0.0078
  218poe    c31  888   1.888   1.072   2.093 -0.3878  0.1476 -0.0866
  219poe    c31  889   1.004   0.239   0.436 -0.0453  0.1131 -0.1131
  219poe     o2  890   0.917   0.168   0.350  0.1431  0.1988 -0.3751
  219poe    c23  891   0.831   0.266   0.297 -0.1974  0.1175  0.0154
  219poe    c23  892   0.798   0.225   0.152  0.3715 -0.3422  0.0117
  219poe     o2  893   0.777   0.086   0.158  0.2886 -0.3284  0.0305
  219poe    c23  894   0.701   0.025   0.056 -0.1427  0.2619 -0.0070
  219poe    c23  895   0.725  -0.127   0.052 -0.3178  0.2361 -0.1002
  219poe     o2  896   0.688  -0.191   0.172 -0.2672 -0.0603 -0.2409
  219poe    c23  897   0.749  -0.317   0.164 -0.3923 -0.1348 -0.0318
  219poe    c23  898   0.776  -0.378   0.303 -0.0386  0.6201  0.2353
  219poe     o2  899   0.673  -0.412   0.393 -0.1307  0.0541 -0.0759
  219poe    c31  900   0.738  -0.444   0.514 -0.1465  0.2521 -0.0133
  220poe    c31  901   1.741   1.757   0.529 -0.8036 -0.2305 -0.3461
  220poe     o2  902   1.770   1.650   0.441  0.3650 -0.5584  0.4226
  220poe    c23  903   1.680   1.545   0.472 -0.4274 -0.2729 -0.8434
  220poe    c23  904   1.711   1.420   0.388  0.3933 -0.4069 -0.3506
  220poe     o2  905   1.728   1.451   0.252 -0.7000 -0.0976 -0.4214
  220poe    c23  906   1.779   1.333   0.195 -0.3301  0.0772 -0.4596
  220poe    c23  907   1.862   1.357   0.068 -0.2146 -1.2155 -0.6501
  220poe     o2  908   1.787   1.446  -0.012  0.3044 -0.1834 -0.0167
  220poe    c23  909   1.835   1.451  -0.145  0.3004  0.0038 -0.0112
  220poe    c23  910   1.750   1.551  -0.225  0.1168 -0.1830 -0.0519
  220poe     o2  911   1.724   1.646  -0.124 -0.4918 -0.6821  0.2606
  220poe    c31  912   1.653   1.753  -0.181 -0.0240 -0.6610 -0.2866
  221poe    c31  913   0.950   1.631   0.686  0.2491 -0.3973 -0.4732
  221poe     o2  914   0.885   1.572   0.795 -0.1240  0.1138 -0.4197
  221poe    c23  915   0.947   1.452   0.833 -0.3745  0.1133  0.0002
  221poe    c23  916   0.845   1.359   0.902  0.0729 -0.4263 -0.0571
  221poe     o2  917   0.814   1.401   1.033  0.9249 -0.2978  0.1115
  221poe    c23  918   0.810   1.301   1.133 -0.4082 -0.3208  0.0620
  221poe    c23  919   0.760   1.379   1.255  0.4598  0.3359  0.0134
  221poe     o2  920   0.838   1.488   1.298  0.4988  0.4375 -0.3140
  221poe    c23  921   0.777   1.546   1.411 -0.0712 -0.1245 -0.3273
  221poe    c23  922   0.879   1.626   1.494 -0.0314  0.0358 -0.5293
  221poe     o2  923   0.917   1.750   1.438 -0.0980 -0.0430 -0.7480
  221poe    c31  924   1.039   1.760   1.506  0.0477 -0.1251 -0.9948
  222poe    c31  925   0.984   0.293   3.345  0.1025 -0.3909 -0.0183
  222poe     o2  926   1.074   0.205   3.282 -0.1713 -0.4307 -0.3571
  222poe    c23  927   1.028   0.072   3.284 -0.0654 -0.4582  0.4902
  222poe    c23  928   1.090  -0.015   3.174  0.3885  0.0855  0.3126
  222poe     o2  929   1.018  -0.017   3.053  0.1964 -0.0486  0.4295
  222poe    c23  930   1.069  -0.125   2.978 -0.1694  0.2151 -0.2107
  222poe    c23  931   1.012  -0.151   2.837 -0.0160  0.2149 -0.2732
  222poe     o2  932   0.919  -0.256   2.849  0.1557  0.1184  0.2754
  222poe    c23  933   0.884  -0.292   2.717  0.2977 -0.1616  0.3137
  222poe    c23  934   0.981  -0.391   2.650  0.0887 -0.0001 -0.2378
  222poe     o2  935   0.985  -0.523   2.701  0.2738 -0.0555 -0.3973
  222poe    c31  936   0.859  -0.584   2.716  0.2321  0.1058 -0.0933
  223poe    c31  937   1.123   2.421   4.433 -0.5336  0.2000  0.1806
  223poe     o2  938   1.023   2.343   4.370 -0.1083  0.2021 -0.5111
  223poe    c23  939   0.899   2.348   4.436  0.0512 -0.1619 -0.1781
  223poe    c23  940   0.782   2.363   4.337  0.3464  0.2241 -0.4719
  223poe     o2  941   0.789   2.248   4.255 -0.3139 -0.4425  0.3864
  223poe    c23  942   0.670   2.228   4.182 -0.0312  0.3421 -0.2981
  223poe    c23  943   0.679   2.178   4.037 -0.4943  0.0834 -0.2386
  223poe     o2  944   0.689   2.265   3.926 -0.2830  0.0396 -0.2548
  223poe    c23  945   0.820   2.312   3.901 -0.1926  0.0434  0.2172
  223poe    c23  946   0.809   2.433   3.806 -0.2510  0.0715  0.2590
  223poe     o2  947   0.796   2.387   3.673  0.5112  0.1060  0.1715
  223poe    c31  948   0.781   2.495   3.583 -0.5491 -0.5182 -0.4146
  224poe    c31  949   0.647   2.031   4.837  0.8137  0.1933  0.1690
  224poe     o2  950   0.760   2.023   4.753  0.4199 -0.4436 -0.3149
  224poe    c23  951   0.882   2.034   4.823  0.0689  0.7539  0.1415
  224poe    c23  952   1.003   2.054   4.730  0.1692 -0.3127  0.0263
  224poe     o2  953   1.058   1.950   4.653 -0.1033 -0.4262 -0.0118
  224poe    c23  954   1.111   1.844   4.729  0.8395 -0.1059 -0.2126
  224poe    c23  955   1.195   1.768   4.625  0.8040 -0.2728 -0.1209
  224poe     o2  956   1.110   1.766   4.513  0.2156  0.0515  0.3202
  224poe    c23  957   1.159   1.705   4.396  0.0592 -0.3443  0.4606
  224poe    c23  958   1.038   1.695   4.302  0.4121  0.3281 -0.0695
  224poe     o2  959   0.973   1.819   4.312 -0.3181 -0.1136  0.7394
  224poe    c31  960   0.922   1.836   4.182  0.1016 -0.3170  0.5474
  225poe    c31  961   2.162   0.959   3.494 -0.0648  0.1477  0.5395
  225poe     o2  962   2.288   0.920   3.544 -0.0725 -0.3842  0.1560
  225poe    c23  963   2.286   0.926   3.684  0.0262 -0.2397  0.1518
  225poe    c23  964   2.387   0.826   3.744 -0.6024 -0.8830  0.1498
  225poe     o2  965   2.497   0.810   3.658 -0.1921  0.4108  0.4140
  225poe    c23  966   2.584   0.728   3.733  0.1927  0.4971  0.0714
  225poe    c23  967   2.694   0.677   3.639  0.3047 -0.6209  0.7866
  225poe     o2  968   2.656   0.582   3.542 -0.2087 -0.1440  0.5097
  225poe    c23  969   2.764   0.510   3.486 -0.3869 -0.1802  0.2108
  225poe    c23  970   2.792   0.367   3.536  1.1071 -0.0364 -0.1795
  225poe     o2  971   2.822   0.345   3.672 -0.4495  0.0752  0.1907
  225poe    c31  972   2.706   0.327   3.751 -0.3587 -0.1619  0.2696
  226poe    c31  973   1.804   1.793   2.167  0.2508 -0.1532  0.2781
  226poe     o2  974   1.934   1.738   2.168  0.4198  0.2046 -0.5939
  226poe    c23  975   2.024   1.835   2.219  0.3468 -0.2489  0.4255
  226poe    c23  976   2.170   1.836   2.170  0.0255 -0.1420 -0.5646
  226poe     o2  977   2.259   1.727   2.188 -0.4536 -0.4896 -0.2615
  226poe    c23  978   2.392   1.773   2.173 -0.5137 -0.0561  0.4922
  226poe    c23  979   2.494   1.675   2.233 -0.0405  0.2156  0.1318
  226poe     o2  980   2.500   1.559   2.152 -0.4105  0.2502  0.0543
  226poe    c23  981   2.574   1.456   2.213 -0.1050  0.3833 -0.0887
  226poe    c23  982   2.477   1.356   2.279 -0.3083  0.7818  0.2266
  226poe     o2  983   2.400   1.276   2.191 -0.0235 -0.1460  0.8079
  226poe    c31  984   2.463   1.158   2.146  0.3088  0.2233  0.2898
  227poe    c31  985   2.325   0.517   0.648 -0.1474 -0.3405 -0.5453
  227poe     o2  986   2.372   0.474   0.774 -0.2556  0.5933 -0.1755
  227poe    c23  987   2.512   0.458   0.768 -0.3373 -0.2060 -0.0111
  227poe    c23  988   2.609   0.528   0.865  0.2293 -0.4101 -0.4179
  227poe     o2  989   2.592   0.506   1.003  0.0678 -0.0170 -0.3726
  227poe    c23  990   2.701   0.570   1.066 -0.2180  0.0993  0.0103
  227poe    c23  991   2.690   0.575   1.220  0.1680 -0.2573  0.0544
  227poe     o2  992   2.755   0.471   1.289 -0.3617 -0.3063  0.4841
  227poe    c23  993   2.735   0.471   1.429 -0.9884 -0.0374  0.4004
  227poe    c23  994   2.869   0.449   1.502 -0.6788  0.0402 -0.1367
  227poe     o2  995   2.945   0.335   1.472 -0.2751  0.3686 -0.3656
  227poe    c31  996   2.888   0.215   1.520 -0.5378  0.2991 -0.8398
  228poe    c31  997   0.412   2.330   4.650 -1.0112 -0.4428 -0.6230
  228poe     o2  998   0.326   2.366   4.755 -0.1809 -0.0847 -0.0594
  228poe    c23  999   0.271   2.246   4.804  0.0566 -0.1476  0.0542
  228poe    c23 1000   0.197   2.262   4.937 -0.1210 -0.2299 -0.0342
  228poe     o2 1001   0.280   2.300   5.045  0.1923  0.4601 -0.5133
  228poe    c23 1002   0.205   2.352   5.153 -0.0251 -0.2856 -0.2994
  228poe    c23 1003   0.301   2.351   5.274 -0.0773 -0.3070 -0.2581
  228poe     o2 1004   0.359   2.229   5.314 -0.0472 -0.2241 -0.0480
  228poe    c23 1005   0.437   2.249   5.430  0.0824 -0.0948 -0.1576
  228poe    c23 1006   0.526   2.125   5.448 -0.1272 -0.2865 -0.4370
  228poe     o2 1007   0.630   2.125   5.352  0.1507  0.0260 -0.1361
  228poe    c31 1008   0.713   2.013   5.375 -0.1900 -0.1663  0.1639
  229poe    c31 1009   1.614   1.811   1.394  0.3120 -0.0437 -0.1755
  229poe     o2 1010   1.558   1.889   1.497  0.6042 -0.1481  0.0633
  229poe    c23 1011   1.460   1.819   1.571  0.0118  0.6150  0.0151
  229poe    c23 1012   1.413   1.900   1.692  0.0394  0.1565  0.3337
  229poe     o2 1013   1.319   1.986   1.631  0.2807 -0.1290 -0.4481
  229poe    c23 1014   1.233   2.015   1.739  0.9696  0.4524 -0.0407
  229poe    c23 1015   1.232   2.164   1.779 -0.5096  0.4372  0.0412
  229poe     o2 1016   1.171   2.249   1.684 -0.1230  0.2474 -0.3826
  229poe    c23 1017   1.168   2.383   1.727  0.7488  0.1540 -0.0083
  229poe    c23 1018   1.057   2.468   1.662  0.5985 -0.0460 -0.0126
  229poe     o2 1019   1.057   2.476   1.521  0.9690 -0.3602 -0.0323
  229poe    c31 1020   0.974   2.581   1.477  0.1766 -0.5658  0.9258
  230poe    c31 1021   2.301   0.322   4.704 -0.2651  0.4313 -0.0960
  230poe     o2 1022   2.425   0.360   4.649 -0.0629 -0.2350 -0.1132
  230poe    c23 1023   2.510   0.249   4.665  0.0935 -0.1712 -0.4840
  230poe    c23 1024   2.655   0.281   4.626  0.0538  0.2123 -0.3217
  230poe     o2 1025   2.646   0.357   4.508 -0.0529  0.2641 -0.2795
  230poe    c23 1026   2.769   0.373   4.442  0.1392  0.6655  0.1737
  230poe    c23 1027   2.764   0.406   4.292  0.1998  0.2126  0.0715
  230poe     o2 1028   2.700   0.531   4.302 -0.8683 -0.2574 -0.5910
  230poe    c23 1029   2.680   0.579   4.171 -0.2511 -0.0679 -0.6202
  230poe    c23 1030   2.546   0.655   4.164 -0.3157 -0.0174  0.8059
  230poe     o2 1031   2.552   0.764   4.254  0.6862  1.0930 -0.5584
  230poe    c31 1032   2.442   0.848   4.227  0.2803  0.5445 -0.6387
  231poe    c31 1033   0.867   0.534   0.972  0.0635 -0.0139 -0.5053
  231poe     o2 1034   0.938   0.619   1.059 -0.4944  0.0289 -0.0889
  231poe    c23 1035   0.909   0.751   1.018 -0.1581  0.2339  0.3274
  231poe    c23 1036   0.993   0.846   1.105 -0.5344  0.8655  0.0104
  231poe     o2 1037   0.978   0.789   1.234 -0.0989  0.0016 -0.3113
  231poe    c23 1038   1.064   0.840   1.333 -0.2603 -0.4799  0.0815
  231poe    c23 1039   1.025   0.798   1.476  0.8227  0.5526  0.6978
  231poe     o2 1040   1.047   0.673   1.536  0.2792  0.2190  0.2149
  231poe    c23 1041   0.991   0.651   1.663  0.1077  0.0090  0.1032
  231poe    c23 1042   0.971   0.502   1.697 -0.1828  0.1118  0.3948
  231poe     o2 1043   0.853   0.489   1.773 -0.5420 -0.0923 -0.1910
  231poe    c31 1044   0.849   0.387   1.870 -0.5639 -0.2502 -0.3578
  232poe    c31 1045   0.133   1.991   3.644  0.5064 -0.1288 -0.6265
  232poe     o2 1046   0.230   1.976   3.746  0.0112  0.2066 -0.0951
  232poe    c23 1047   0.266   2.103   3.795  0.5136 -0.1257  0.4103
  232poe    c23 1048   0.251   2.131   3.945  0.2709  0.5691  0.2583
  232poe     o2 1049   0.325   2.044   4.027  0.2586  0.4716  0.1656
  232poe    c23 1050   0.315   2.067   4.165  0.0417  0.4181  0.1588
  232poe    c23 1051   0.357   1.947   4.251  0.1088  0.0788 -0.3451
  232poe     o2 1052   0.491   1.911   4.228  0.2287 -0.0289  0.4647
  232poe    c23 1053   0.533   1.779   4.254  0.0229 -0.0708  0.5866
  232poe    c23 1054   0.518   1.728   4.398  0.3604 -0.9422  0.3216
  232poe     o2 1055   0.612   1.774   4.492  0.3607 -0.1723 -0.0496
  232poe    c31 1056   0.571   1.733   4.621 -0.3489  0.3427 -0.1047
  233poe    c31 1057   0.960   0.766   5.983  1.2607 -0.3025 -0.1546
  233poe     o2 1058   1.076   0.846   5.991  0.4679  0.8017  0.5650
  233poe    c23 1059   1.064   0.953   5.900 -0.1516  0.3916  0.1449
  233poe    c23 1060   1.190   1.042   5.914  0.3004 -0.1918 -0.1881
  233poe     o2 1061   1.306   0.973   5.873  0.3585 -0.2585  0.0850
  233poe    c23 1062   1.319   0.946   5.735 -0.2286 -0.1508  0.0050
  233poe    c23 1063   1.467   0.910   5.716 -0.4815 -0.9353 -0.4993
  233poe     o2 1064   1.491   0.815   5.817 -0.0849 -0.0368  0.2560
  233poe    c23 1065   1.590   0.725   5.771  0.1796  0.1901  0.3764
  233poe    c23 1066   1.634   0.608   5.860 -0.2219 -0.2593 -0.0111
  233poe     o2 1067   1.525   0.521   5.880 -0.4309 -0.0963 -0.4335
  233poe    c31 1068   1.565   0.392   5.921  0.2775  0.2323 -0.0672
  234poe    c31 1069   2.079   1.927   5.869 -0.2980  0.5229 -0.9428
  234poe     o2 1070   2.030   2.005   5.976 -0.1548  0.3217 -0.7271
  234poe    c23 1071   1.893   1.973   5.988 -0.0191 -0.0151 -0.0831
  234poe    c23 1072   1.864   1.961   6.139 -1.0321  0.4482 -0.2375
  234poe     o2 1073   1.870   2.084   6.207  0.1903  0.3534 -0.1498
  234poe    c23 1074   1.812   2.064   6.334 -0.1940  0.2535 -0.3373
  234poe    c23 1075   1.744   2.188   6.395 -0.3535 -0.0160  0.0345
  234poe     o2 1076   1.832   2.297   6.399 -0.3121 -0.0361 -0.3386
  234poe    c23 1077   1.779   2.413   6.460  0.3466 -0.0287  0.2411
  234poe    c23 1078   1.864   2.540   6.445  0.2126 -0.1027 -1.3239
  234poe     o2 1079   1.993   2.525   6.501 -0.2759  0.4774 -0.0072
  234poe    c31 1080   2.001   2.569   6.634 -0.5777 -0.2348  0.2513
  235poe    c31 1081   1.925   0.724   2.458 -0.1853  0.1424 -0.1692
  235poe     o2 1082   1.944   0.602   2.390  0.4291 -0.0644  0.3646
  235poe    c23 1083   1.956   0.631   2.253 -0.5070 -0.1429  0.2597
  235poe    c23 1084   1.983   0.503   2.172 -0.0347 -0.1367  0.4032
  235poe     o2 1085   1.883   0.409   2.206  0.2390 -0.6667 -0.2453
  235poe    c23 1086   1.881   0.308   2.107  0.2328 -0.5629 -0.3512
  235poe    c23 1087   1.743   0.240   2.107  0.1039 -0.3014 -0.6756
  235poe     o2 1088   1.638   0.327   2.071 -0.0554 -0.1478  0.1435
  235poe    c23 1089   1.520   0.273   2.014  0.0804  0.1063 -0.3854
  235poe    c23 1090   1.532   0.217   1.872  0.1202 -0.0227 -0.3310
  235poe     o2 1091   1.524   0.316   1.772  0.1074  0.4288  0.1148
  235poe    c31 1092   1.627   0.308   1.675  0.1518  0.5193  0.1541
  236poe    c31 1093   2.326   1.881   0.784  0.4932 -0.0817 -0.2422
  236poe     o2 1094   2.344   1.875   0.644 -0.1805  0.2689 -0.3467
  236poe    c23 1095   2.246   1.949   0.575 -0.8285  0.2221  0.4936
  236poe    c23 1096   2.148   1.856   0.502  0.2034 -0.4717 -0.0365
  236poe     o2 1097   2.208   1.783   0.398  0.1862 -0.1196 -0.2941
  236poe    c23 1098   2.112   1.715   0.320  0.1604  0.5436 -0.8474
  236poe    c23 1099   2.160   1.645   0.191  0.6947  0.0729 -0.3976
  236poe     o2 1100   2.250   1.541   0.222  1.0947  0.5530  0.0659
  236poe    c23 1101   2.339   1.507   0.118  0.3837  0.6940 -0.5913
  236poe    c23 1102   2.446   1.405   0.158 -0.5790  0.1531  0.6582
  236poe     o2 1103   2.546   1.447   0.248 -0.3510  0.2541  0.3602
  236poe    c31 1104   2.656   1.359   0.256 -0.2385  0.2538 -0.9945
  237poe    c31 1105   2.230   2.127   2.393  0.0422 -0.3050 -0.2150
  237poe     o2 1106   2.142   2.131   2.283 -0.2026 -0.3454 -0.0195
  237poe    c23 1107   2.040   2.227   2.301  0.3563  0.2589 -0.0464
  237poe    c23 1108   1.898   2.186   2.258  0.1991  0.3994  0.3322
  237poe     o2 1109   1.898   2.191   2.117  0.4099 -0.1009  0.3132
  237poe    c23 1110   1.767   2.176   2.068  0.5570  0.5743 -0.3017
  237poe    c23 1111   1.759   2.107   1.931 -0.5051 -0.0705  0.0676
  237poe     o2 1112   1.778   2.211   1.838  0.2943 -0.1839  0.0919
  237poe    c23 1113   1.682   2.209   1.734 -0.1078  0.1771  0.4541
  237poe    c23 1114   1.733   2.160   1.597 -0.3416  0.7607  0.1555
  237poe     o2 1115   1.812   2.260   1.537  0.9122  0.0267  0.5345
  237poe    c31 1116   1.889   2.209   1.430 -0.1290 -0.0301 -0.2109
  238poe    c31 1117   0.268   0.060  -0.018  0.0130  0.2288  0.2794
  238poe     o2 1118   0.163   0.033   0.072  0.1871 -0.6671  0.2183
  238poe    c23 1119   0.074   0.142   0.078  0.1964 -0.5665 -1.1892
  238poe    c23 1120  -0.051   0.113   0.163  0.9476 -0.2889  0.0302
  238poe     o2 1121  -0.029   0.112   0.302 -0.4341 -0.4855  0.2633
  238poe    c23 1122  -0.127   0.169   0.386 -0.6791  0.2679 -0.5238
  238poe    c23 1123  -0.073   0.164   0.530  0.6425  0.2745 -1.0016
  238poe     o2 1124  -0.015   0.036   0.544  0.2675  0.2133  0.1161
  238poe    c23 1125  -0.001  -0.010   0.676 -0.0130 -0.2109  0.0027
  238poe    c23 1126   0.060  -0.151   0.669 -0.3701 -0.3442 -0.4140
  238poe     o2 1127   0.157  -0.145   0.566 -0.0552  0.3368 -0.0869
  238poe    c31 1128   0.210  -0.275   0.548 -0.4966  0.1227  0.1349
  239poe    c31 1129   0.970   1.310   5.446  0.7526 -0.5031 -0.2283
  239poe     o2 1130   0.899   1.233   5.351 -0.2056 -0.3120  0.3241
  239poe    c23 1131   0.781   1.301   5.312  0.1394 -0.0289 -0.2297
  239poe    c23 1132   0.728   1.231   5.186 -0.1701 -1.0007  0.4289
  239poe     o2 1133   0.838   1.221   5.099 -0.2209 -0.1920  0.2672
  239poe    c23 1134   0.787   1.179   4.975 -0.1010 -0.1964  0.2193
  239poe    c23 1135   0.902   1.209   4.877 -0.3814 -0.6045 -0.2387
  239poe     o2 1136   1.015   1.132   4.910 -0.2161 -0.4016 -0.3238
  239poe    c23 1137   1.101   1.120   4.799  0.1346  0.3135 -0.1379
  239poe    c23 1138   1.173   0.984   4.808 -0.0364  0.2400  0.1452
  239poe     o2 1139   1.068   0.891   4.790 -0.0626  0.3470 -0.2802
  239poe    c31 1140   1.120   0.787   4.711 -0.1803 -0.3441  0.5403
  240poe    c31 1141   1.165   0.728   3.676 -0.7027 -0.0343 -0.0861
  240poe     o2 1142   1.153   0.861   3.722  0.1029 -0.0498  0.1975
  240poe    c23 1143   1.025   0.911   3.691  0.3459  0.1891 -0.4598
  240poe    c23 1144   0.977   1.012   3.797  0.0044 -0.1415 -0.2963
  240poe     o2 1145   1.075   1.105   3.838 -0.5045  0.4018 -0.2846
  240poe    c23 1146   1.023   1.206   3.921 -0.5064  0.3517 -0.2243
  240poe    c23 1147   1.109   1.318   3.983  0.5575 -0.2877 -0.5148
  240poe     o2 1148   1.193   1.274   4.087  0.0178 -0.4957 -0.1634
  240poe    c23 1149   1.116   1.239   4.200  0.5590 -0.2779  0.2771
  240poe    c23 1150   1.225   1.203   4.302  0.2074 -0.6039  0.5415
  240poe     o2 1151   1.229   1.320   4.380  0.2659  0.0270 -0.3879
  240poe    c31 1152   1.307   1.317   4.498 -0.4104 -0.0035  0.0634
  241poe    c31 1153   1.053   0.793   0.448 -0.2429 -0.2534 -0.2213
  241poe     o2 1154   1.057   0.832   0.312 -0.2663 -0.1159 -0.1825
  241poe    c23 1155   1.140   0.945   0.303  0.6226 -0.7554 -0.1281
  241poe    c23 1156   1.166   0.980   0.156  0.0520 -0.2317 -0.1074
  241poe     o2 1157   1.047   0.945   0.088 -0.2998  0.0406  0.3578
  241poe    c23 1158   1.063   0.976  -0.049 -0.0524  0.2684  0.4372
  241poe    c23 1159   0.935   0.933  -0.124  0.0014  0.2689  0.3446
  241poe     o2 1160   0.916   0.796  -0.099  0.4014  0.0351 -0.6095
  241poe    c23 1161   0.889   0.727  -0.219 -0.5908 -0.3086 -0.1993
  241poe    c23 1162   0.992   0.630  -0.280 -0.6572 -0.3353 -0.2687
  241poe     o2 1163   1.018   0.530  -0.184  1.0286  0.3150 -0.0170
  241poe    c31 1164   1.089   0.424  -0.242  0.8228  0.3506 -0.3325
  242poe    c31 1165   1.048   1.626   2.482  0.6833  0.5195  0.2518
  242poe     o2 1166   1.157   1.540   2.459  0.5412  0.4455 -0.1550
  242poe    c23 1167   1.131   1.437   2.367 -0.1030  0.2744  0.2047
  242poe    c23 1168   1.254   1.450   2.275  0.2640 -0.2307  0.6148
  242poe     o2 1169   1.368   1.482   2.351  0.6456  0.0979 -0.0882
  242poe    c23 1170   1.472   1.481   2.256  0.1062 -0.2652 -0.6787
  242poe    c23 1171   1.610   1.470   2.324 -0.1380  0.4705 -0.0469
  242poe     o2 1172   1.627   1.558   2.432  0.5232  0.3930 -0.0857
  242poe    c23 1173   1.751   1.569   2.499  0.6684 -0.7928 -0.1336
  242poe    c23 1174   1.740   1.689   2.595 -0.2611 -0.8729 -0.1264
  242poe     o2 1175   1.644   1.697   2.698  0.2471  0.1719  0.2820
  242poe    c31 1176   1.647   1.601   2.801 -0.5807 -0.3307 -0.1576
  243poe    c31 1177   1.386   0.104   1.332 -0.8264 -0.6718 -0.4561
  243poe     o2 1178   1.486   0.073   1.238  0.2773  0.0623  0.4529
  243poe    c23 1179   1.418   0.028   1.123  0.2347  0.5831  0.2676
  243poe    c23 1180   1.516   0.039   1.005 -0.1122 -0.0503 -0.0864
  243poe     o2 1181   1.628  -0.047   1.017 -0.1462 -0.1295 -0.3230
  243poe    c23 1182   1.751   0.019   1.037  0.1176 -0.7318  0.0695
  243poe    c23 1183   1.875  -0.060   1.081  0.5840 -0.1371 -0.1579
  243poe     o2 1184   1.855  -0.197   1.052  0.4052 -0.2405  0.4324
  243poe    c23 1185   1.959  -0.285   1.087  0.2435 -0.4732  0.3327
  243poe    c23 1186   1.925  -0.422   1.026 -0.0548 -0.1191 -0.3083
  243poe     o2 1187   1.791  -0.456   1.051 -0.0361  0.1621  0.1718
  243poe    c31 1188   1.759  -0.583   0.999 -0.7712  0.4491 -0.0993
  244poe    c31 1189   0.386   1.349   3.561  0.9680  0.6571  0.4714
  244poe     o2 1190   0.494   1.328   3.472  0.2469 -0.0690 -0.2531
  244poe    c23 1191   0.521   1.193   3.442  0.4996  0.0005 -0.3378
  244poe    c23 1192   0.638   1.191   3.342  0.6202  0.0007 -0.1967
  244poe     o2 1193   0.605   1.247   3.217  0.3601  0.1278 -0.0729
  244poe    c23 1194   0.709   1.214   3.127 -0.0525 -0.2145 -0.4303
  244poe    c23 1195   0.632   1.229   2.995 -0.6150 -0.0674 -0.0895
  244poe     o2 1196   0.562   1.349   3.015  0.2636  0.4297  0.0515
  244poe    c23 1197   0.574   1.436   2.904  0.0705 -0.0742 -0.3653
  244poe    c23 1198   0.461   1.540   2.897  0.2750  0.1433 -0.4442
  244poe     o2 1199   0.475   1.650   2.984 -0.0626 -0.4338  0.3570
  244poe    c31 1200   0.362   1.732   2.962  0.0594 -0.1216  0.8730
  245poe    c31 1201   2.354   0.029   2.135 -0.0691  0.2462  0.3048
  245poe     o2 1202   2.369  -0.057   2.025 -0.4024  0.1059  0.3688
  245poe    c23 1203   2.466  -0.156   2.051 -0.0386  0.1536 -0.7675
  245poe    c23 1204   2.489  -0.256   1.936  0.6115  0.0319 -0.5403
  245poe     o2 1205   2.368  -0.325   1.909  0.5708  0.0470 -0.3961
  245poe    c23 1206   2.389  -0.394   1.788  0.2932 -0.3498 -0.2168
  245poe    c23 1207   2.257  -0.460   1.742 -0.0075 -0.0688  0.2327
  245poe     o2 1208   2.159  -0.396   1.664 -0.2354 -0.0985  0.4948
  245poe    c23 1209   2.067  -0.484   1.603 -0.0859  0.3179 -0.3349
  245poe    c23 1210   2.118  -0.598   1.514  0.0661 -0.2104  0.4218
  245poe     o2 1211   2.160  -0.543   1.391  0.2172  0.1281  0.6235
  245poe    c31 1212   2.244  -0.642   1.336  0.2475  0.1761  0.5828
  246poe    c31 1213   1.938   0.765   4.344  0.1169  0.0945 -0.0732
  246poe     o2 1214   2.066   0.812   4.308  0.0829  0.3187  0.0962
  246poe    c23 1215   2.059   0.951   4.285  0.4334  0.2467 -0.4817
  246poe    c23 1216   2.074   1.026   4.419  0.4779  0.1646 -0.4401
  246poe     o2 1217   2.198   1.014   4.486  0.0655 -0.0040  0.3096
  246poe    c23 1218   2.233   1.108   4.585  0.2524  0.3710 -0.1053
  246poe    c23 1219   2.373   1.095   4.648  0.3242  0.1342 -0.3102
  246poe     o2 1220   2.388   0.964   4.698 -0.3917 -0.3502 -1.3404
  246poe    c23 1221   2.525   0.935   4.704 -0.3402  0.0591 -0.2690
  246poe    c23 1222   2.558   0.824   4.805 -0.4627  0.2912  0.0266
  246poe     o2 1223   2.694   0.789   4.794 -0.5642  0.0051 -0.3517
  246poe    c31 1224   2.713   0.652   4.820  0.6309  0.3773  0.8451
  247poe    c31 1225   0.467   2.247   2.396  0.0968 -0.4993 -0.0525
  247poe     o2 1226   0.379   2.320   2.478  0.4747  0.8820 -0.8447
  247poe    c23 1227   0.278   2.394   2.413  0.0893  0.6572 -0.5023
  247poe    c23 1228   0.190   2.429   2.534  0.1583  0.2338 -0.3272
  247poe     o2 1229   0.290   2.469   2.625 -0.0506 -0.8270  0.3949
  247poe    c23 1230   0.238   2.487   2.755 -0.1230  0.1343  0.2447
  247poe    c23 1231   0.347   2.560   2.835  0.3048  0.1141 -0.3108
  247poe     o2 1232   0.474   2.506   2.807  0.3086  0.0325 -0.1394
  247poe    c23 1233   0.581   2.543   2.890  0.1707  0.4046 -0.1296
  247poe    c23 1234   0.711   2.466   2.865  0.1607  0.3575 -0.0389
  247poe     o2 1235   0.767   2.500   2.740 -0.0691  0.0935 -0.2161
  247poe    c31 1236   0.855   2.608   2.762  0.3569 -0.3556  0.2954
  248poe    c31 1237   0.822   0.427   3.609  0.1363 -0.1089  0.2104
  248poe     o2 1238   0.926   0.461   3.699  0.3059 -0.0461 -0.0084
  248poe    c23 1239   0.865   0.528   3.807 -0.3642  0.4796 -0.7014
  248poe    c23 1240   0.878   0.443   3.934 -0.0874  0.8439 -0.4854
  248poe     o2 1241   1.007   0.387   3.934 -0.2929  0.3565  0.2004
  248poe    c23 1242   1.002   0.284   4.030 -0.7616 -0.2798 -0.5007
  248poe    c23 1243   1.116   0.180   4.034 -0.1742  0.3621 -0.4137
  248poe     o2 1244   1.125   0.103   3.916  0.4050  0.9533 -0.7640
  248poe    c23 1245   1.221   0.000   3.921 -0.7478 -0.1146  0.3038
  248poe    c23 1246   1.229  -0.087   3.794  0.3191  0.2993  0.0740
  248poe     o2 1247   1.144  -0.199   3.798  0.1942  0.3933  0.0801
  248poe    c31 1248   1.119  -0.264   3.675 -0.2181 -0.3009  0.5253
  249poe    c31 1249   0.345   0.929   0.379  0.4380  0.0109  0.3023
  249poe     o2 1250   0.394   0.864   0.264  0.2389  0.5802 -0.1092
  249poe    c23 1251   0.315   0.750   0.237  0.8982 -0.0337  0.5240
  249poe    c23 1252   0.390   0.641   0.159 -0.3590 -0.7073  0.2337
  249poe     o2 1253   0.408   0.671   0.022 -0.3710  0.1734  0.4202
  249poe    c23 1254   0.447   0.557  -0.051  0.6546  0.4913  0.4471
  249poe    c23 1255   0.485   0.595  -0.195 -0.5632  0.3868  0.0827
  249poe     o2 1256   0.367   0.643  -0.255 -0.5103  0.0087 -0.3311
  249poe    c23 1257   0.389   0.731  -0.363  0.0925 -0.1951 -0.3789
  249poe    c23 1258   0.263   0.805  -0.411  0.1179 -0.1605 -0.3922
  249poe     o2 1259   0.198   0.742  -0.518 -0.1023  0.0443 -0.3803
  249poe    c31 1260   0.097   0.824  -0.572 -0.5467  0.2661  0.7630
  250poe    c31 1261   1.611   2.242   5.512 -0.6211  0.0409  0.3569
  250poe     o2 1262   1.491   2.314   5.526 -0.4780  0.6209 -1.2270
  250poe    c23 1263   1.391   2.226   5.481 -0.2404 -0.2696 -0.0457
  250poe    c23 1264   1.249   2.279   5.507  0.0414  0.2632  0.4174
  250poe     o2 1265   1.229   2.380   5.410 -0.5461 -0.0046  0.2556
  250poe    c23 1266   1.146   2.347   5.301 -0.1814  0.4810 -0.1722
  250poe    c23 1267   1.167   2.447   5.186  0.4913  0.3412 -0.1804
  250poe     o2 1268   1.303   2.437   5.152  0.5906  0.1158  0.2733
  250poe    c23 1269   1.339   2.444   5.016 -0.0071  0.0986  0.1096
  250poe    c23 1270   1.351   2.303   4.955  0.8056  0.4973 -0.6901
  250poe     o2 1271   1.465   2.232   4.995  0.1200 -0.4130 -0.3235
  250poe    c31 1272   1.433   2.165   5.115  0.0560 -0.1647 -0.2011
  251poe    c31 1273   0.638   1.364   6.515 -0.3367 -0.0737  0.1920
  251poe     o2 1274   0.521   1.411   6.451 -0.2456 -0.1065 -0.0003
  251poe    c23 1275   0.512   1.550   6.473  0.2824 -0.0674 -0.0179
  251poe    c23 1276   0.386   1.584   6.391 -0.1315  0.2595  0.7416
  251poe     o2 1277   0.285   1.498   6.438 -0.1879  0.0123  0.1708
  251poe    c23 1278   0.159   1.561   6.425  0.0789  0.5410  0.1126
  251poe    c23 1279   0.057   1.450   6.394  0.9682 -0.2969  0.1235
  251poe     o2 1280   0.047   1.339   6.480  0.1832 -0.2903  0.0461
  251poe    c23 1281  -0.037   1.236   6.434  0.2291 -0.2416 -0.1481
  251poe    c23 1282  -0.062   1.132   6.545 -0.2319  0.3427  0.2981
  251poe     o2 1283   0.054   1.100   6.617  0.0784  0.2184 -0.2532
  251poe    c31 1284   0.062   0.962   6.647 -0.3259  0.0851 -0.7584
  252poe    c31 1285   1.849   0.995   5.149 -0.3203  0.0303  0.8929
  252poe     o2 1286   1.899   1.100   5.229 -0.0423 -0.2209  1.0469
  252poe    c23 1287   2.021   1.055   5.284  0.5106  0.4024  0.3381
  252poe    c23 1288   2.077   1.190   5.335  0.6943  0.5367 -0.2106
  252poe     o2 1289   1.980   1.235   5.427  0.5697 -0.3128  0.0863
  252poe    c23 1290   2.018   1.357   5.488 -0.0412 -0.0332 -0.0856
  252poe    c23 1291   1.907   1.418   5.576  0.0754 -0.5920  0.4595
  252poe     o2 1292   1.812   1.476   5.489  0.5176  0.3414  0.5837
  252poe    c23 1293   1.703   1.533   5.557  0.2451  0.7542 -0.1881
  252poe    c23 1294   1.591   1.592   5.470 -0.4160  0.4077  0.4127
  252poe     o2 1295   1.517   1.509   5.384  0.5138  0.3221 -0.3241
  252poe    c31 1296   1.455   1.571   5.274  0.1054  0.9787  0.2654
  253poe    c31 1297   1.724   1.488   3.255  0.1738  0.0868  0.9279
  253poe     o2 1298   1.848   1.472   3.191  0.1098  0.3124  0.7479
  253poe    c23 1299   1.909   1.590   3.144  0.1130 -0.1059 -0.3366
  253poe    c23 1300   2.058   1.563   3.116  0.2180  0.1048  0.0081
  253poe     o2 1301   2.085   1.490   2.998 -0.2843 -0.1537  0.0500
  253poe    c23 1302   2.209   1.536   2.948 -0.2138  0.2025  0.5417
  253poe    c23 1303   2.187   1.574   2.800 -0.1892 -0.4787  0.3598
  253poe     o2 1304   2.135   1.461   2.733  0.2193 -0.5446  0.1500
  253poe    c23 1305   2.105   1.487   2.598 -0.0122 -0.1074  0.2839
  253poe    c23 1306   2.072   1.357   2.523  0.0496 -0.1219  0.2821
  253poe     o2 1307   1.962   1.288   2.579 -0.2534  0.0769 -0.0652
  253poe    c31 1308   1.902   1.208   2.479 -0.3581  0.1241 -0.0406
  254poe    c31 1309   0.499   1.411   4.902 -0.0586 -0.3282  0.1192
  254poe     o2 1310   0.446   1.384   4.775 -0.3044  0.2717  0.0893
  254poe    c23 1311   0.305   1.383   4.776 -0.3094  0.7660  0.0394
  254poe    c23 1312   0.253   1.335   4.639 -0.3488  0.2267  0.2422
  254poe     o2 1313   0.280   1.204   4.594 -0.1779  0.5979 -0.7679
  254poe    c23 1314   0.290   1.201   4.454 -0.4367  0.4477 -0.7841
  254poe    c23 1315   0.324   1.054   4.426  0.0464  0.3241  0.4038
  254poe     o2 1316   0.445   1.007   4.482  0.2172  0.4548  0.1482
  254poe    c23 1317   0.463   0.867   4.491  0.1728  0.4587  0.3159
  254poe    c23 1318   0.603   0.834   4.544  0.2190 -0.2031 -0.2027
  254poe     o2 1319   0.628   0.918   4.655  0.2695  0.2699 -0.5673
  254poe    c31 1320   0.759   0.907   4.705  0.0882  0.0757 -0.1306
  255poe    c31 1321   2.008   2.038   3.594  0.3596 -0.3159  0.4794
  255poe     o2 1322   2.068   2.141   3.518 -0.0135  0.0502  0.6721
  255poe    c23 1323   2.054   2.108   3.381 -0.4644 -0.1914  0.7742
  255poe    c23 1324   2.076   2.228   3.287  0.2525 -0.9838 -0.0948
  255poe     o2 1325   2.203   2.286   3.305 -0.0739 -0.1890 -0.2997
  255poe    c23 1326   2.240   2.359   3.191  0.8775 -0.8868 -0.4517
  255poe    c23 1327   2.369   2.441   3.210  0.1177  0.2068  0.0650
  255poe     o2 1328   2.344   2.509   3.331 -0.4555  0.3714 -0.1444
  255poe    c23 1329   2.422   2.626   3.344 -0.0098  0.0473  0.1076
  255poe    c23 1330   2.368   2.684   3.476 -0.1478  0.2674 -0.0442
  255poe     o2 1331   2.384   2.594   3.583  0.3161 -0.0895 -0.4072
  255poe    c31 1332   2.330   2.638   3.706  0.9473  0.3979 -0.3027
  256poe    c31 1333   1.706   0.098   0.156 -0.4698 -0.0083 -0.1081
  256poe     o2 1334   1.785   0.214   0.164 -0.3582 -0.0719 -0.2913
  256poe    c23 1335   1.875   0.219   0.272 -0.6600  0.0889 -0.0472
  256poe    c23 1336   1.939   0.359   0.279 -0.4271  0.0041 -0.4825
  256poe     o2 1337   1.853   0.465   0.314 -0.1223  0.2918 -0.5877
  256poe    c23 1338   1.926   0.584   0.296  0.1230  0.1317 -0.6571
  256poe    c23 1339   1.833   0.705   0.320 -0.0468 -0.0490 -0.3858
  256poe     o2 1340   1.725   0.671   0.237  0.0635  0.0047 -0.5531
  256poe    c23 1341   1.638   0.780   0.215 -0.4188 -0.2556  0.0345
  256poe    c23 1342   1.693   0.889   0.121 -0.7107  0.0392  0.2065
  256poe     o2 1343   1.794   0.977   0.165 -0.1012 -0.2578 -0.5982
  256poe    c31 1344   1.903   0.983   0.075  0.6295 -0.6999  0.2377
  257poe    c31 1345   0.748   0.819   5.043 -0.0196 -0.4710  0.0217
  257poe     o2 1346   0.774   0.848   5.178  0.0026 -0.1149 -0.0585
  257poe    c23 1347   0.710   0.743   5.246 -0.4882  0.2952  0.1189
  257poe    c23 1348   0.703   0.778   5.396  0.0554 -0.1518  0.2545
  257poe     o2 1349   0.826   0.804   5.460 -0.0463  0.1616  0.3235
  257poe    c23 1350   0.876   0.677   5.492  0.2791  0.1986 -0.0216
  257poe    c23 1351   1.008   0.680   5.571  0.0902 -0.0059  0.3108
  257poe     o2 1352   1.126   0.733   5.514 -0.0555  0.3820  0.3673
  257poe    c23 1353   1.161   0.672   5.391  0.2339 -0.4978  0.8749
  257poe    c23 1354   1.272   0.759   5.329 -0.5521 -0.4273 -0.4602
  257poe     o2 1355   1.217   0.872   5.265 -0.2228  0.2760  0.4794
  257poe    c31 1356   1.333   0.946   5.231  0.0102  0.0310  0.7444
  258poe    c31 1357   0.826   2.247   5.820 -0.2155  0.1933  0.6196
  258poe     o2 1358   0.850   2.109   5.826 -0.1742  0.1737  0.0203
  258poe    c23 1359   0.750   2.035   5.760  0.2822 -0.4417  0.0063
  258poe    c23 1360   0.783   1.886   5.740 -0.1197 -0.4493 -0.6135
  258poe     o2 1361   0.792   1.819   5.864  0.5394 -0.2561 -0.5568
  258poe    c23 1362   0.846   1.689   5.853 -0.0297 -0.4961 -0.5187
  258poe    c23 1363   0.811   1.593   5.968 -0.1897  0.2591  0.0751
  258poe     o2 1364   0.833   1.659   6.090  0.3116  0.7872 -0.2986
  258poe    c23 1365   0.760   1.596   6.192  0.0105  0.5101 -0.6857
  258poe    c23 1366   0.827   1.626   6.327  0.8239 -0.1947 -0.9284
  258poe     o2 1367   0.865   1.762   6.324 -0.7705  0.3019  0.2087
  258poe    c31 1368   0.920   1.812   6.444  0.0612  0.2634 -0.1460
  259poe    c31 1369   1.966   2.063   4.449  0.2782  0.2775 -0.2947
  259poe     o2 1370   2.031   1.952   4.507 -0.3928 -0.0252 -0.1000
  259poe    c23 1371   2.049   1.857   4.405 -0.8003 -0.2032 -0.0041
  259poe    c23 1372   2.084   1.713   4.446 -0.0326  0.2857  1.1076
  259poe     o2 1373   1.987   1.657   4.531 -0.5394 -0.5648 -0.0067
  259poe    c23 1374   2.044   1.628   4.657  0.4251 -0.7874 -0.4813
  259poe    c23 1375   1.935   1.607   4.764  0.8267 -0.0768  0.0724
  259poe     o2 1376   1.980   1.601   4.897 -0.2622 -0.6069  0.4243
  259poe    c23 1377   1.871   1.551   4.973 -0.5696 -0.3689  0.1435
  259poe    c23 1378   1.865   1.607   5.116 -0.1240  0.4187 -0.1387
  259poe     o2 1379   1.954   1.552   5.210 -0.3270  0.4171  0.0544
  259poe    c31 1380   2.009   1.657   5.287 -0.1211  0.4189 -0.0951
  260poe    c31 1381   1.917   0.243   3.487  0.6695  0.5839  0.1199
  260poe     o2 1382   1.916   0.109   3.531 -0.0834  0.5252 -0.0667
  260poe    c23 1383   1.783   0.066   3.550  0.0701 -0.0997 -0.3935
  260poe    c23 1384   1.766  -0.076   3.608  0.2799  0.2698  0.5765
  260poe     o2 1385   1.746  -0.078   3.748 -0.4953 -0.3303  0.4592
  260poe    c23 1386   1.720  -0.211   3.785 -0.3475 -0.5799 -0.3080
  260poe    c23 1387   1.763  -0.230   3.932 -0.5300 -0.6201 -0.2594
  260poe     o2 1388   1.897  -0.275   3.936 -0.2866  0.1217  0.1092
  260poe    c23 1389   1.971  -0.229   4.047 -0.1354  0.1920 -0.0218
  260poe    c23 1390   2.113  -0.178   4.016 -0.0277  0.3034  0.6568
  260poe     o2 1391   2.195  -0.249   3.926 -1.0191 -0.1575  0.1002
  260poe    c31 1392   2.252  -0.374   3.960  0.4026  0.3243 -0.4308
  261poe    c31 1393   1.327   1.839   3.793  0.0497  0.0691 -0.1248
  261poe     o2 1394   1.453   1.807   3.740  0.1952 -0.4742  0.5340
  261poe    c23 1395   1.560   1.852   3.820  0.1044 -0.2163  0.5089
  261poe    c23 1396   1.696   1.800   3.771  0.0012  0.6165 -0.7307
  261poe     o2 1397   1.713   1.660   3.784 -0.4533  0.5991 -0.2850
  261poe    c23 1398   1.843   1.608   3.788 -0.6877  0.0291 -0.0459
  261poe    c23 1399   1.858   1.454   3.789  0.7432  0.1507 -0.1660
  261poe     o2 1400   1.825   1.391   3.667 -0.6575 -0.1880  0.3699
  261poe    c23 1401   1.804   1.252   3.664  0.3007 -0.3353  0.1201
  261poe    c23 1402   1.728   1.229   3.532 -0.2177  0.9978  0.1676
  261poe     o2 1403   1.598   1.278   3.550 -0.3779  0.9192 -0.7167
  261poe    c31 1404   1.515   1.266   3.436 -0.1762 -0.0172 -0.7639
  262poe    c31 1405   1.698   2.052   0.204  0.5584  0.7368  0.2763
  262poe     o2 1406   1.602   1.952   0.230  0.9282  0.3865  0.3091
  262poe    c23 1407   1.471   2.006   0.231  0.6162 -0.3353 -0.4547
  262poe    c23 1408   1.361   1.908   0.276  0.2587  0.1591 -0.2554
  262poe     o2 1409   1.299   1.834   0.173  0.4224 -0.3580  0.0155
  262poe    c23 1410   1.179   1.902   0.146  0.4300 -0.4604 -0.2737
  262poe    c23 1411   1.056   1.814   0.114  0.2097 -0.5172  0.7019
  262poe     o2 1412   1.053   1.726   0.004  0.7911  0.3029  0.0142
  262poe    c23 1413   1.073   1.592   0.044 -0.1011  0.1252 -0.1263
  262poe    c23 1414   1.036   1.498  -0.073  0.0094  0.4756 -0.4448
  262poe     o2 1415   1.163   1.476  -0.131  0.2082  0.1818  0.0988
  262poe    c31 1416   1.143   1.411  -0.254 -0.0870 -0.2348  0.3629
  263poe    c31 1417   1.971   0.687   4.719 -0.2066  0.6059  0.3372
  263poe     o2 1418   1.842   0.663   4.666  0.1225 -0.3738 -0.0437
  263poe    c23 1419   1.742   0.748   4.717 -0.0050  0.0620 -1.0034
  263poe    c23 1420   1.606   0.683   4.687 -0.0645 -0.0677 -0.4616
  263poe     o2 1421   1.625   0.544   4.699 -0.5501 -0.1434 -0.5343
  263poe    c23 1422   1.514   0.482   4.638 -0.2601 -0.1034 -1.1135
  263poe    c23 1423   1.516   0.328   4.647 -0.3914 -0.0793 -0.6313
  263poe     o2 1424   1.627   0.288   4.570 -0.0952 -0.1088 -0.1967
  263poe    c23 1425   1.655   0.150   4.581  0.1262 -0.0123  0.4751
  263poe    c23 1426   1.767   0.117   4.481 -0.2769  0.1284 -0.0234
  263poe     o2 1427   1.890   0.169   4.524 -0.0160 -0.1470 -0.4311
  263poe    c31 1428   1.993   0.113   4.444  0.4371  0.5133 -0.3184
  264poe    c31 1429   0.052   0.941   5.534 -0.7738 -0.0381  0.5475
  264poe     o2 1430   0.151   0.876   5.612  0.1312  0.4050 -0.2094
  264poe    c23 1431   0.150   0.936   5.739 -0.3185  0.5331 -0.2684
  264poe    c23 1432   0.269   0.868   5.810 -0.4282  0.0905 -0.5059
  264poe     o2 1433   0.244   0.732   5.782 -0.3658 -0.0502  0.1086
  264poe    c23 1434   0.355   0.649   5.803 -0.3152 -0.0711 -0.2370
  264poe    c23 1435   0.316   0.507   5.759  0.3120 -0.3022 -0.0709
  264poe     o2 1436   0.234   0.514   5.644  1.2080 -0.0051 -0.7006
  264poe    c23 1437   0.209   0.387   5.586 -0.4919 -0.0360  0.0350
  264poe    c23 1438   0.076   0.311   5.601 -0.5438  0.0938  0.2446
  264poe     o2 1439  -0.027   0.379   5.534 -0.0652  0.1652 -0.4394
  264poe    c31 1440  -0.138   0.294   5.516  0.0693 -0.2116  0.4582
  265poe    c31 1441   0.881   0.570   2.976  0.3863 -0.7056  0.3640
  265poe     o2 1442   0.900   0.681   2.891  0.3722 -0.3976  0.7585
  265poe    c23 1443   0.942   0.794   2.963  0.6218 -0.2766  0.4256
  265poe    c23 1444   0.979   0.906   2.863 -0.5358 -0.4738 -0.2463
  265poe     o2 1445   0.865   0.955   2.798 -0.6668 -0.6433 -0.1470
  265poe    c23 1446   0.883   1.029   2.679 -0.3797  0.2140  0.4224
  265poe    c23 1447   0.902   0.939   2.556 -0.0944  0.3840  0.3418
  265poe     o2 1448   0.785   0.869   2.522  0.2942 -0.1216  0.0299
  265poe    c23 1449   0.771   0.838   2.386 -0.6347 -0.8445  0.2817
  265poe    c23 1450   0.617   0.830   2.376 -0.6521 -0.0638 -0.1411
  265poe     o2 1451   0.547   0.738   2.458  0.3333 -0.5724  0.1437
  265poe    c31 1452   0.415   0.737   2.409  0.3829 -0.3828  0.0031
  266poe    c31 1453   0.785   1.623   2.201 -1.0215 -0.0494  0.2043
  266poe     o2 1454   0.692   1.682   2.113 -0.9276 -0.1992  0.0010
  266poe    c23 1455   0.683   1.819   2.148  0.0555 -0.2596  0.5244
  266poe    c23 1456   0.585   1.880   2.045  0.1812 -0.7047  0.1369
  266poe     o2 1457   0.498   1.783   1.992  0.6519 -0.9279 -0.2325
  266poe    c23 1458   0.380   1.845   1.947  0.4235 -0.5699  0.8324
  266poe    c23 1459   0.301   1.752   1.853  0.1821  0.6568 -0.2027
  266poe     o2 1460   0.274   1.621   1.897 -0.1604  0.6010 -0.5736
  266poe    c23 1461   0.221   1.544   1.792  0.1597 -0.2657 -0.1085
  266poe    c23 1462   0.217   1.393   1.822  0.0704 -0.3721 -0.6354
  266poe     o2 1463   0.345   1.335   1.814  0.4193  0.3484 -0.3139
  266poe    c31 1464   0.357   1.204   1.864  0.0354  0.1193 -0.8142
  267poe    c31 1465   0.839   1.942   1.776 -0.6267  0.0487  0.2961
  267poe     o2 1466   0.741   1.899   1.685 -0.5071  0.7741 -0.1878
  267poe    c23 1467   0.708   2.015   1.612 -0.2193  0.7663 -0.3333
  267poe    c23 1468   0.580   2.010   1.525  0.1332 -0.1127 -0.8173
  267poe     o2 1469   0.551   2.122   1.445  0.4442 -0.5614 -1.5695
  267poe    c23 1470   0.421   2.102   1.395 -0.2614 -0.2117  0.0584
  267poe    c23 1471   0.372   2.234   1.332  0.3233 -0.0402 -0.0454
  267poe     o2 1472   0.442   2.285   1.221  0.2276 -0.2406 -0.1970
  267poe    c23 1473   0.355   2.357   1.137 -0.0453  0.0767  0.3522
  267poe    c23 1474   0.435   2.479   1.088 -0.1782  0.1207  0.2432
  267poe     o2 1475   0.503   2.450   0.968  0.6371  0.0980  0.7027
  267poe    c31 1476   0.576   2.566   0.937  0.3773 -0.0534 -0.5387
  268poe    c31 1477   1.669   0.589   5.435  0.6889  0.6014 -0.3396
  268poe     o2 1478   1.732   0.465   5.413  0.0085  0.1953 -0.0413
  268poe    c23 1479   1.866   0.484   5.372  0.0575  0.3178  0.1738
  268poe    c23 1480   1.976   0.530   5.469  0.0085 -0.2000  0.4773
  268poe     o2 1481   1.947   0.657   5.521  0.0179  0.1209 -0.2902
  268poe    c23 1482   2.029   0.680   5.633  0.2442  0.6070 -0.5542
  268poe    c23 1483   2.020   0.819   5.699  0.2844  0.2567  0.1974
  268poe     o2 1484   1.893   0.871   5.734  0.0470  0.3202 -0.7449
  268poe    c23 1485   1.918   0.999   5.789  0.0248  0.2174 -0.4974
  268poe    c23 1486   1.796   1.076   5.843  0.0894 -0.3194  0.4340
  268poe     o2 1487   1.732   1.133   5.731  0.6063 -0.3961  0.0956
  268poe    c31 1488   1.634   1.220   5.783  0.1292 -0.6169 -0.4199
  269poe    c31 1489   1.783   2.347   5.846  0.3132 -0.0684  0.3778
  269poe     o2 1490   1.648   2.312   5.867  0.2358 -0.0422 -0.0603
  269poe    c23 1491   1.603   2.344   5.997 -0.3242 -0.2025 -0.2098
  269poe    c23 1492   1.465   2.291   6.038 -0.3592 -0.1351 -0.2414
  269poe     o2 1493   1.354   2.359   5.983 -0.3397  0.0031 -0.1120
  269poe    c23 1494   1.263   2.424   6.068 -0.4029 -0.5211  0.2294
  269poe    c23 1495   1.149   2.488   5.986  0.0896 -0.8394 -0.7077
  269poe     o2 1496   1.194   2.554   5.870 -0.1747  0.2101 -0.2182
  269poe    c23 1497   1.101   2.655   5.838 -0.0550  0.3252 -0.2057
  269poe    c23 1498   1.098   2.709   5.694 -0.1675 -0.2199 -0.4106
  269poe     o2 1499   1.209   2.775   5.637  0.5016 -0.4675  0.5789
  269poe    c31 1500   1.284   2.861   5.720  0.3925  0.0990  0.0935
  270poe    c31 1501   1.080   0.464   2.272 -0.0659  0.1992 -0.0781
  270poe     o2 1502   1.111   0.548   2.163  0.2483  0.0424 -0.1118
  270poe    c23 1503   1.006   0.642   2.147  0.3871  0.1871 -0.1799
  270poe    c23 1504   1.020   0.715   2.012  0.7346 -0.2294 -0.3730
  270poe     o2 1505   1.129   0.804   2.015  0.1330  0.5187 -0.3451
  270poe    c23 1506   1.118   0.912   1.926 -0.2806  0.4835 -0.3407
  270poe    c23 1507   1.251   0.989   1.942  0.4215 -0.7077 -0.2585
  270poe     o2 1508   1.355   0.903   1.903  0.7117 -0.6912  0.4745
  270poe    c23 1509   1.479   0.971   1.900  0.0642  0.4991  0.1861
  270poe    c23 1510   1.585   0.872   1.850 -0.6477 -0.4105  0.4577
  270poe     o2 1511   1.572   0.758   1.932 -0.0394 -0.0438  1.0776
  270poe    c31 1512   1.665   0.658   1.899  0.3934  0.3127  1.2177
  271lim     li 1513   2.049   1.330   2.939 -1.0317  0.1302 -0.2981
  272lim     li 1514   0.349   1.634   5.457 -0.0352 -0.6192  0.5547
  273lim     li 1515   0.865   0.021   0.290  0.5373 -0.6318  0.8386
  274lim     li 1516   0.819   2.072   1.220  0.6362 -0.6911  0.9428
  275lim     li 1517   1.005   1.921   4.464 -0.2590  0.5663  1.1467
  276lim     li 1518   1.521   0.086   5.580  0.5247  0.1487 -0.4621
  277lim     li 1519   1.335   1.537   2.503  0.4833  0.6856  0.3469
  278lim     li 1520   0.947   0.614   1.228 -0.6506  0.5900 -0.3749
  279lim     li 1521   0.650   0.031   5.086  0.7838  0.5410  0.1667
  280lim     li 1522   2.126   0.113   6.384 -0.1800 -0.3396 -0.1421
  281lim     li 1523   0.427   1.208   0.816 -0.1170 -0.0153 -0.5616
  282lim     li 1524   1.492   0.475   3.701 -1.0996 -0.9852  0.1523
  283lim     li 1525   0.089   0.454   4.502 -0.7624  0.5263 -0.0644
  284lim     li 1526   1.419   0.853   5.979 -0.9381  0.7964  0.8233
  285lim     li 1527   2.136   1.408   1.989  0.0531 -1.4688 -0.6725
  286lim     li 1528   0.298   1.321   6.441  0.6645 -0.2425 -1.0882
  287lim     li 1529   0.595   0.760   2.632 -0.8368 -0.5576  0.4872
  288lim     li 1530   1.791   0.507   4.634 -0.6612 -0.9043 -0.6960
  289lim     li 1531   0.564   1.607   2.003 -0.7641  0.8059  0.4179
  290lim     li 1532   2.265   0.363   1.129  0.0111 -0.1102 -0.1062
  291lim     li 1533   1.808   1.366   4.268 -0.3792 -0.4355  0.6057
  292lim     li 1534   1.835   0.901   0.983 -0.0356  1.3906 -1.0259
  293lim     li 1535   0.491   1.058   4.643 -0.2439 -0.0034  0.4837
  294lim     li 1536   0.082   2.331   0.423 -0.1738 -0.2602 -0.1454
  295lim     li 1537   0.975   1.182   5.194 -0.3199 -0.8640 -0.1562
  296lim     li 1538   1.213   0.985   3.839 -0.1806 -0.9430  0.0675
  297lim     li 1539   1.676   0.496   0.249 -1.4910  0.7366  0.7553
  298lim     li 1540   0.044   0.864   3.491  0.3282 -1.3400 -0.2092
  299lim     li 1541   0.138   1.730   0.375 -0.1502 -0.6054  0.3775
  300lim     li 1542   0.447   2.390   2.655  0.9652 -0.6461 -0.0922
  301lim     li 1543   0.162   0.690   5.608  0.0490 -0.6359  0.1987
  302lim     li 1544   0.763   1.906   3.134 -1.2141  0.6360 -0.0199
  303lim     li 1545   1.403   1.707   3.592 -0.4632 -0.5568 -0.6918
  304lim     li 1546   0.813   1.690   0.906 -0.6717 -0.1652  0.3848
  305lim     li 1547   2.295   0.032   3.483 -0.1398 -1.2348  0.9519
  306lim     li 1548   2.320   1.919   5.078 -0.5228  0.6307 -1.1819
  307lim     li 1549   1.677   1.587   0.064 -0.5062  0.4672  0.9113
  308lim     li 1550   1.383   0.742   1.956  0.0810 -0.5654  0.4612
  309lim     li 1551   0.905   1.806   6.142 -0.4367  1.0529 -0.3269
  310lim     li 1552   1.909   0.387   2.392 -0.5702  0.2024 -0.6970
  311lim     li 1553   1.804   1.207   5.338  0.9926 -0.2717  0.2569
  312lim     li 1554   1.682   2.123   1.056  0.3190  1.7467 -0.5367
  313lim     li 1555   1.466   2.100   2.623  0.1820 -0.4005  0.3563
  314lim     li 1556   2.105   2.392   1.848 -0.8438 -0.2709  0.5722
  315lim     li 1557   1.741   0.943   2.911 -0.2545  0.6310  0.4645
  316lim     li 1558   1.276   1.340   1.266 -0.6591  0.6359  0.3528
  317lim     li 1559   0.484   1.357   3.177 -0.0683  0.4846  0.8649
  318lim     li 1560   0.470   0.708   1.853  0.4343 -0.7499 -0.8879
  319lim     li 1561   0.342   1.839   3.746  0.1291 -0.4359  1.8966
  320lim     li 1562   0.972   0.793   0.170  0.1536  0.8602  1.2430
  321lim     li 1563   2.278   2.028   6.296 -1.0500  0.4980  0.3093
  322lim     li 1564   1.812   0.131   2.977 -0.4896  0.5529  0.1547
  323lim     li 1565   1.831   2.091   4.785 -0.8735  0.1839 -0.4990
  324lim     li 1566   0.202   0.358   6.283 -0.5698  1.1681  0.3132
  325ntf    cn1 1567   0.744   2.318   1.941  0.3066 -0.2061  0.0008
  325ntf    sn2 1568   0.639   2.405   1.821  0.3695 -0.0420  0.0650
  325ntf    nn3 1569   0.595   2.529   1.908  0.1465 -0.0911  0.0218
  325ntf    sn2 1570   0.472   2.558   2.001  0.1522  0.0084 -0.0014
  325ntf    cn1 1571   0.363   2.623   1.872 -0.0277  0.3442  0.3193
  325ntf    fn4 1572   0.789   2.205   1.889  0.5716  0.0081 -0.2369
  325ntf    fn4 1573   0.848   2.393   1.974 -0.1167  0.2582  0.3081
  325ntf    fn4 1574   0.673   2.285   2.048  0.0495  0.1214 -0.0655
  325ntf    on5 1575   0.730   2.452   1.720  0.0388  0.1687 -0.1370
  325ntf    on5 1576   0.539   2.308   1.786  0.1476  0.1118  0.2670
  325ntf    on5 1577   0.485   2.675   2.084  0.3847 -0.3216  0.4379
  325ntf    on5 1578   0.398   2.447   2.057  0.1704 -0.1356 -0.2616
  325ntf    fn4 1579   0.403   2.740   1.824  0.0730  0.2998  0.2958
  325ntf    fn4 1580   0.353   2.541   1.769 -0.1629  0.4682  0.2338
  325ntf    fn4 1581   0.243   2.629   1.927 -0.5059 -0.3277 -0.6152
  326ntf    cn1 1582   1.648   0.785   4.051  0.2138  0.1657 -0.0976
  326ntf    sn2 1583   1.579   0.928   4.139  0.2649 -0.0706  0.3298
  326ntf    nn3 1584   1.448   0.870   4.205 -0.1018  0.5959  0.1986
  326ntf    sn2 1585   1.426   0.739   4.288 -0.0322  0.4676  0.0147
  326ntf    cn1 1586   1.330   0.809   4.425 -0.0386  0.4612  0.0140
  326ntf    fn4 1587   1.555   0.722   3.981  0.6780 -0.7843  0.1231
  326ntf    fn4 1588   1.745   0.813   3.967 -0.0226  0.2400 -0.3468
  326ntf    fn4 1589   1.695   0.700   4.142  0.0190  0.0131 -0.1387
  326ntf    on5 1590   1.679   0.975   4.232 -0.0581  0.5251  0.3814
  326ntf    on5 1591   1.551   1.028   4.039 -0.0140  0.4948  0.9636
  326ntf    on5 1592   1.541   0.687   4.358 -0.1016  0.1006 -0.1403
  326ntf    on5 1593   1.340   0.637   4.234  0.4433 -0.3564  0.7791
  326ntf    fn4 1594   1.410   0.854   4.520 -0.2255 -0.4776  0.6257
  326ntf    fn4 1595   1.255   0.914   4.395  0.1829  0.6963  0.2806
  326ntf    fn4 1596   1.262   0.710   4.481  0.4061 -0.0414 -0.3236
  327ntf    cn1 1597   0.384   1.093   5.314  0.2475  0.3202 -0.1507
  327ntf    sn2 1598   0.329   0.989   5.175 -0.3288  0.1548  0.1944
  327ntf    nn3 1599   0.223   1.090   5.118 -0.1082  0.0609 -0.3956
  327ntf    sn2 1600   0.072   1.077   5.160  0.0556 -0.2018  0.1242
  327ntf    cn1 1601  -0.004   1.194   5.043 -0.2580 -0.4419  0.0864
  327ntf    fn4 1602   0.283   1.132   5.390 -0.3729 -0.3242 -0.6164
  327ntf    fn4 1603   0.459   1.016   5.391 -0.1110 -0.0240 -0.1358
  327ntf    fn4 1604   0.449   1.201   5.277 -0.0341  0.4028 -0.4070
  327ntf    on5 1605   0.449   0.983   5.095  0.1813  0.2554  0.9474
  327ntf    on5 1606   0.297   0.870   5.249 -0.0378 -0.1569 -0.1771
  327ntf    on5 1607   0.049   1.135   5.290 -0.0286 -0.2981  0.1524
  327ntf    on5 1608   0.007   0.951   5.134  0.7871 -0.5772  0.0823
  327ntf    fn4 1609  -0.132   1.208   5.072 -0.2393 -0.0849 -0.0044
  327ntf    fn4 1610   0.052   1.312   5.064 -0.5614 -0.2056 -0.4218
  327ntf    fn4 1611   0.013   1.165   4.915  0.5807 -0.7416  0.2621
  328ntf    cn1 1612   2.014   0.191   4.071 -0.2776  0.2987 -0.1431
  328ntf    sn2 1613   1.938   0.352   4.033 -0.4640  0.1922 -0.2210
  328ntf    nn3 1614   2.043   0.423   3.941  0.1682 -0.7588 -0.2541
  328ntf    sn2 1615   2.171   0.498   3.993 -0.1402 -0.3771 -0.0347
  328ntf    cn1 1616   2.127   0.669   3.952  0.2970 -0.2083  0.1991
  328ntf    fn4 1617   1.939   0.089   4.109  0.2788 -0.0608  0.0057
  328ntf    fn4 1618   2.061   0.140   3.958  0.1010  0.7047 -0.1700
  328ntf    fn4 1619   2.112   0.197   4.160  0.0255 -0.1125 -0.4465
  328ntf    on5 1620   1.821   0.313   3.957 -0.1879 -0.3627 -0.3699
  328ntf    on5 1621   1.902   0.417   4.157 -0.5446 -0.1042 -0.0877
  328ntf    on5 1622   2.282   0.482   3.902  0.1383  0.1106  0.2226
  328ntf    on5 1623   2.207   0.499   4.132  0.2522  0.3468 -0.1364
  328ntf    fn4 1624   2.014   0.711   4.007  0.0690 -0.3149 -0.1833
  328ntf    fn4 1625   2.223   0.753   3.988 -0.3920  0.5029  0.4231
  328ntf    fn4 1626   2.105   0.683   3.822  0.0486  0.0936  0.2727
  329ntf    cn1 1627   2.250   2.365   2.810  0.1387  0.2443  0.0264
  329ntf    sn2 1628   2.072   2.365   2.773  0.1661  0.1212 -0.1048
  329ntf    nn3 1629   2.058   2.219   2.718 -0.6809  0.1951 -0.0995
  329ntf    sn2 1630   1.942   2.114   2.737 -0.4219 -0.0890 -0.0775
  329ntf    cn1 1631   2.033   1.960   2.768  0.2185  0.3861  0.4535
  329ntf    fn4 1632   2.289   2.267   2.889  0.4337 -0.0487 -0.4770
  329ntf    fn4 1633   2.325   2.350   2.702  0.0828 -0.0914  0.0348
  329ntf    fn4 1634   2.294   2.478   2.864 -0.1151  0.3092  0.0988
  329ntf    on5 1635   2.010   2.403   2.897 -0.1516  0.3455 -0.3294
  329ntf    on5 1636   2.053   2.457   2.663 -0.6866 -0.2567 -0.2875
  329ntf    on5 1637   1.881   2.086   2.609 -0.0777  0.1620 -0.2979
  329ntf    on5 1638   1.860   2.144   2.852  0.1768  0.2849  0.2602
  329ntf    fn4 1639   2.097   1.960   2.884 -0.6687  0.3830  0.9559
  329ntf    fn4 1640   1.955   1.853   2.756 -0.0885  0.5966  0.5731
  329ntf    fn4 1641   2.117   1.936   2.669 -0.3172 -0.2783  0.1487
  330ntf    cn1 1642   0.456   1.706   2.605 -0.1818  0.2436  0.2238
  330ntf    sn2 1643   0.403   1.795   2.455 -0.0993  0.1743  0.1530
  330ntf    nn3 1644   0.252   1.825   2.486 -0.0400  0.6288  0.0134
  330ntf    sn2 1645   0.199   1.953   2.559 -0.2014  0.5304  0.0724
  330ntf    cn1 1646   0.054   1.889   2.647 -0.2466  0.1729 -0.2580
  330ntf    fn4 1647   0.490   1.778   2.710  0.2504 -0.4879  0.5881
  330ntf    fn4 1648   0.359   1.627   2.647  0.1106  0.0117  0.4597
  330ntf    fn4 1649   0.558   1.628   2.575 -0.3394  0.0523  0.1859
  330ntf    on5 1650   0.495   1.906   2.444 -0.1756  0.2524  0.2919
  330ntf    on5 1651   0.412   1.691   2.356 -0.1704 -0.1426  0.4748
  330ntf    on5 1652   0.138   2.051   2.473  0.1791  0.3511 -0.4067
  330ntf    on5 1653   0.292   1.986   2.664 -0.1592 -0.8191  0.4705
  330ntf    fn4 1654   0.083   1.783   2.720  0.1378  0.3111 -0.2096
  330ntf    fn4 1655   0.001   1.978   2.730  0.4055  0.1008  0.2434
  330ntf    fn4 1656  -0.041   1.854   2.562 -0.2318  0.5663 -0.4390
  331ntf    cn1 1657   2.093   1.477   5.924  0.3098  0.1234 -0.3068
  331ntf    sn2 1658   2.260   1.531   5.970  0.2613 -0.0395  0.0632
  331ntf    nn3 1659   2.310   1.407   6.052 -0.0566 -0.0725  0.2064
  331ntf    sn2 1660   2.365   1.270   6.001  0.3263  0.0604  0.2621
  331ntf    cn1 1661   2.217   1.172   6.038  0.1521  0.1429 -0.2121
  331ntf    fn4 1662   2.085   1.361   5.861 -0.5122 -0.0466  0.0899
  331ntf    fn4 1663   2.026   1.457   6.036  0.3629  0.2824 -0.2469
  331ntf    fn4 1664   2.027   1.563   5.848  0.4098  0.6644  0.2084
  331ntf    on5 1665   2.343   1.553   5.854  0.1612  0.4717  0.0836
  331ntf    on5 1666   2.242   1.647   6.054 -0.3022 -0.1370  0.0838
  331ntf    on5 1667   2.454   1.206   6.094  0.2232  0.2842  0.5130
  331ntf    on5 1668   2.384   1.250   5.859  0.2871 -0.8340  0.3745
  331ntf    fn4 1669   2.248   1.044   6.047 -0.3582  0.0704  0.6523
  331ntf    fn4 1670   2.145   1.207   6.143  0.2615  0.8259 -0.3595
  331ntf    fn4 1671   2.137   1.172   5.932 -0.2692  0.3309  0.0998
  332ntf    cn1 1672   1.525   0.649   6.464  0.1603  0.3470  0.1381
  332ntf    sn2 1673   1.422   0.795   6.496  0.3495  0.5101 -0.0024
  332ntf    nn3 1674   1.531   0.907   6.520  0.2743  0.4477  0.6387
  332ntf    sn2 1675   1.553   1.035   6.433 -0.1451 -0.0114 -0.1611
  332ntf    cn1 1676   1.551   1.172   6.553 -0.2238 -0.5360  0.4409
  332ntf    fn4 1677   1.613   0.617   6.557  0.1164  0.4088  0.2020
  332ntf    fn4 1678   1.435   0.552   6.446 -0.1693  0.6477  0.1533
  332ntf    fn4 1679   1.582   0.660   6.345 -0.4829  0.3491 -0.1773
  332ntf    on5 1680   1.343   0.796   6.375  0.3074  0.4632  0.0249
  332ntf    on5 1681   1.354   0.753   6.616  0.1398 -0.0695 -0.3212
  332ntf    on5 1682   1.454   1.078   6.338 -0.4225 -0.4166 -0.0547
  332ntf    on5 1683   1.689   1.031   6.385 -0.1282  0.1126 -0.1230
  332ntf    fn4 1684   1.440   1.177   6.624 -0.2512  0.1604  0.3571
  332ntf    fn4 1685   1.650   1.158   6.640  0.2207 -0.0319  0.0226
  332ntf    fn4 1686   1.558   1.289   6.492  0.0842 -0.5547  0.4351
  333ntf    cn1 1687   2.312   1.066   0.569  0.3630  0.1638 -0.1819
  333ntf    sn2 1688   2.245   1.126   0.727  0.1515 -0.3756 -0.0631
  333ntf    nn3 1689   2.233   1.280   0.695 -0.1348 -0.3691  0.0666
  333ntf    sn2 1690   2.111   1.369   0.653  0.1914  0.1419  0.1952
  333ntf    cn1 1691   2.135   1.514   0.759 -0.3690  0.2600  0.1649
  333ntf    fn4 1692   2.220   1.079   0.474 -0.0696 -0.0002  0.2066
  333ntf    fn4 1693   2.419   1.136   0.537 -0.1764  0.8708 -0.4803
  333ntf    fn4 1694   2.352   0.940   0.570  0.0195  0.0511 -0.5042
  333ntf    on5 1695   2.120   1.058   0.751 -0.4407  0.5119 -0.5534
  333ntf    on5 1696   2.352   1.113   0.823 -0.0285 -0.0332  0.1881
  333ntf    on5 1697   1.976   1.329   0.685  0.2619 -0.7448 -0.5678
  333ntf    on5 1698   2.133   1.423   0.521 -0.3373 -0.4151 -0.1264
  333ntf    fn4 1699   2.143   1.480   0.887  0.0281  0.1000  0.0989
  333ntf    fn4 1700   2.232   1.596   0.721 -0.0052 -0.4042 -0.3557
  333ntf    fn4 1701   2.024   1.585   0.756 -0.6980 -0.2449  0.4098
  334ntf    cn1 1702   0.414  -0.027   5.975 -0.0984 -0.0168 -0.1853
  334ntf    sn2 1703   0.251  -0.101   5.943  0.1032 -0.4231 -0.2865
  334ntf    nn3 1704   0.270  -0.183   5.811 -0.1339 -0.0814 -0.5339
  334ntf    sn2 1705   0.200  -0.317   5.770 -0.0684 -0.2761 -0.0150
  334ntf    cn1 1706   0.335  -0.432   5.809  0.0611 -0.1409 -0.0667
  334ntf    fn4 1707   0.417   0.081   6.051 -0.2505 -0.2642  0.1743
  334ntf    fn4 1708   0.503  -0.112   6.021 -0.5243 -0.2771  0.1641
  334ntf    fn4 1709   0.453   0.017   5.856  0.6014 -0.1141  0.0084
  334ntf    on5 1710   0.215  -0.170   6.065 -0.0656  0.1856  0.0150
  334ntf    on5 1711   0.172   0.017   5.916  0.1054 -0.1863  0.7006
  334ntf    on5 1712   0.189  -0.324   5.626 -0.2437 -0.1336 -0.0088
  334ntf    on5 1713   0.092  -0.364   5.853  0.1212  0.1324  0.4627
  334ntf    fn4 1714   0.444  -0.427   5.733 -0.1072 -0.3843 -0.3265
  334ntf    fn4 1715   0.382  -0.422   5.932 -0.1768 -0.2494  0.0331
  334ntf    fn4 1716   0.296  -0.558   5.802 -0.6708  0.0778  0.0252
  335ntf    cn1 1717   0.704   0.373   5.977  0.5499  0.3477 -0.3811
  335ntf    sn2 1718   0.657   0.439   6.139 -0.1667  0.0201 -0.4533
  335ntf    nn3 1719   0.619   0.312   6.224  0.3876  0.1084 -0.0678
  335ntf    sn2 1720   0.719   0.223   6.307  0.1472 -0.1417 -0.0474
  335ntf    cn1 1721   0.705   0.295   6.473  0.2921 -0.0733 -0.0649
  335ntf    fn4 1722   0.805   0.433   5.915  0.2158  0.7159 -0.5734
  335ntf    fn4 1723   0.741   0.246   5.981 -0.4168  0.0550 -0.5016
  335ntf    fn4 1724   0.606   0.374   5.888  0.1717 -0.8639  0.0090
  335ntf    on5 1725   0.762   0.518   6.198 -0.0084 -0.4821 -0.0489
  335ntf    on5 1726   0.532   0.507   6.115 -0.8702 -0.9286  0.3983
  335ntf    on5 1727   0.858   0.234   6.272 -0.0606  0.4705 -0.6998
  335ntf    on5 1728   0.663   0.092   6.332  0.4047 -0.0948  0.7898
  335ntf    fn4 1729   0.773   0.235   6.568  0.1991  0.0173  0.0600
  335ntf    fn4 1730   0.735   0.423   6.484 -1.0132  0.2294  0.2367
  335ntf    fn4 1731   0.580   0.293   6.518  0.4398  0.3424  0.3669
  336ntf    cn1 1732   0.864   1.121   2.152  0.8449  0.2657 -0.0700
  336ntf    sn2 1733   0.784   1.190   2.003  0.1174 -0.0958  0.1485
  336ntf    nn3 1734   0.912   1.228   1.920  0.0030  0.2430  0.1296
  336ntf    sn2 1735   0.925   1.359   1.834 -0.2204  0.0359 -0.2215
  336ntf    cn1 1736   1.042   1.292   1.712  0.1868 -0.2564  0.3240
  336ntf    fn4 1737   0.886   0.991   2.136  0.3312  0.0716  0.7601
  336ntf    fn4 1738   0.979   1.182   2.176  1.1285 -0.3773  0.2174
  336ntf    fn4 1739   0.802   1.132   2.268 -0.0146 -0.2100 -0.4757
  336ntf    on5 1740   0.712   1.078   1.949  0.4015 -0.1463 -0.1255
  336ntf    on5 1741   0.703   1.299   2.049 -0.7115 -0.4361 -0.4805
  336ntf    on5 1742   0.999   1.462   1.902 -0.5922  0.0722  0.1330
  336ntf    on5 1743   0.809   1.388   1.753 -0.4738 -1.0141 -0.2471
  336ntf    fn4 1744   1.101   1.388   1.643 -0.3854 -0.5030 -0.5230
  336ntf    fn4 1745   1.137   1.234   1.784  0.3428 -0.5400 -0.1081
  336ntf    fn4 1746   0.991   1.199   1.632  0.2167  0.1392 -0.1617
  337ntf    cn1 1747   0.273   1.158   1.450  0.4530  0.2226  0.2996
  337ntf    sn2 1748   0.321   1.017   1.346 -0.2980  0.1963 -0.0247
  337ntf    nn3 1749   0.407   0.927   1.441  0.2011  0.3686 -0.3060
  337ntf    sn2 1750   0.536   0.843   1.410  0.1694  0.2264 -0.0545
  337ntf    cn1 1751   0.651   0.982   1.434  0.1066  0.2960 -0.1563
  337ntf    fn4 1752   0.189   1.240   1.387  0.2094 -0.4337 -0.2435
  337ntf    fn4 1753   0.212   1.113   1.558  0.4787 -0.1012  0.1801
  337ntf    fn4 1754   0.380   1.229   1.481  0.5111  0.2054  0.1398
  337ntf    on5 1755   0.200   0.949   1.307  0.2595 -0.4373 -0.6896
  337ntf    on5 1756   0.393   1.076   1.235  0.8305 -0.5754  0.2743
  337ntf    on5 1757   0.559   0.792   1.278 -0.4054 -0.2117  0.0158
  337ntf    on5 1758   0.572   0.764   1.526 -0.1186 -0.1315 -0.2091
  337ntf    fn4 1759   0.593   1.077   1.506 -0.2571  0.1244 -0.2222
  337ntf    fn4 1760   0.767   0.956   1.494 -0.0627 -0.3092 -0.0825
  337ntf    fn4 1761   0.687   1.043   1.322  0.2727 -0.4247 -0.5042
  338ntf    cn1 1762   1.368   0.227   6.400 -0.5858  0.5746 -0.0168
  338ntf    sn2 1763   1.397   0.209   6.579  0.6185  0.1325 -0.2489
  338ntf    nn3 1764   1.391   0.054   6.602 -0.6475  0.0909 -0.8012
  338ntf    sn2 1765   1.289  -0.039   6.678 -0.2438  0.2941 -0.0037
  338ntf    cn1 1766   1.225  -0.128   6.533 -0.0094 -0.0967  0.1311
  338ntf    fn4 1767   1.264   0.154   6.361  0.3848 -0.6167 -0.4563
  338ntf    fn4 1768   1.355   0.356   6.376  0.2157  0.5285 -0.7458
  338ntf    fn4 1769   1.476   0.190   6.332 -0.5327  0.2126  0.2592
  338ntf    on5 1770   1.532   0.256   6.596  0.5820  0.0085  0.4087
  338ntf    on5 1771   1.312   0.295   6.657  0.5431  0.1005 -0.2962
  338ntf    on5 1772   1.174   0.031   6.729 -0.1198  0.2137  0.3967
  338ntf    on5 1773   1.350  -0.138   6.764  0.0227 -0.4816 -1.0617
  338ntf    fn4 1774   1.121  -0.203   6.567 -0.4683  0.2696 -0.4605
  338ntf    fn4 1775   1.179  -0.055   6.434 -0.3391 -0.1482  0.2443
  338ntf    fn4 1776   1.321  -0.205   6.485  0.2503  0.4731 -0.2588
  339ntf    cn1 1777   0.258   2.031   0.066  0.2782  0.1998  0.1924
  339ntf    sn2 1778   0.238   1.986  -0.109  0.2098  0.4772  0.1283
  339ntf    nn3 1779   0.383   1.964  -0.167  0.1533 -0.1158  0.2023
  339ntf    sn2 1780   0.481   2.052  -0.252  0.0125 -0.1939 -0.0399
  339ntf    cn1 1781   0.410   1.995  -0.410 -0.3141  0.4408 -0.1241
  339ntf    fn4 1782   0.364   2.107   0.088  0.0832  0.5259  0.0100
  339ntf    fn4 1783   0.158   2.108   0.104  0.2185  0.2843 -0.1310
  339ntf    fn4 1784   0.276   1.930   0.149 -0.1728  0.1913  0.2806
  339ntf    on5 1785   0.166   1.862  -0.094  0.4701  0.2571 -0.4258
  339ntf    on5 1786   0.169   2.101  -0.162 -0.2172  0.4202  0.5564
  339ntf    on5 1787   0.612   1.995  -0.235  0.1144  0.0968  0.1534
  339ntf    on5 1788   0.458   2.194  -0.262  0.4863 -0.1394 -0.3827
  339ntf    fn4 1789   0.284   2.031  -0.426 -0.2781  0.6383  0.0222
  339ntf    fn4 1790   0.469   2.044  -0.518  0.2284  0.1440  0.0324
  339ntf    fn4 1791   0.421   1.864  -0.421  0.0685  0.4421  0.2234
  340ntf    cn1 1792   1.140   1.852   5.326 -0.4966  0.0417 -0.0126
  340ntf    sn2 1793   1.082   1.877   5.156 -0.0039 -0.0045 -0.1913
  340ntf    nn3 1794   0.938   1.819   5.179 -0.1387  0.1979 -0.5120
  340ntf    sn2 1795   0.890   1.670   5.164  0.2013  0.0635 -0.2717
  340ntf    cn1 1796   0.855   1.668   4.986 -0.0479 -0.6535 -0.2193
  340ntf    fn4 1797   1.097   1.739   5.379 -0.7290  0.3607  0.4918
  340ntf    fn4 1798   1.269   1.844   5.354 -0.5466  0.4409  0.3567
  340ntf    fn4 1799   1.095   1.948   5.406  0.1770  0.0881  0.3206
  340ntf    on5 1800   1.086   2.019   5.134 -0.6417  0.0705  0.1389
  340ntf    on5 1801   1.166   1.795   5.072  0.1347 -0.0086 -0.0466
  340ntf    on5 1802   0.765   1.648   5.233  0.1044 -0.6480 -0.6604
  340ntf    on5 1803   0.993   1.569   5.170  0.2222  0.1234  0.5484
  340ntf    fn4 1804   0.829   1.543   4.952  0.3325 -0.7219 -0.2640
  340ntf    fn4 1805   0.750   1.742   4.954  0.0678 -0.5091 -0.2673
  340ntf    fn4 1806   0.959   1.703   4.912  0.1229 -0.4899  0.0994
  341ntf    cn1 1807   1.529   1.449   6.026  0.6172 -0.0496 -0.1097
  341ntf    sn2 1808   1.439   1.581   5.939  0.0481 -0.1856  0.2695
  341ntf    nn3 1809   1.427   1.515   5.797  0.3101 -0.9327  0.5921
  341ntf    sn2 1810   1.294   1.458   5.738  0.3520 -0.0122 -0.4337
  341ntf    cn1 1811   1.188   1.604   5.715 -0.0804 -0.1654  0.5199
  341ntf    fn4 1812   1.644   1.427   5.965  0.8224 -0.1724  0.3165
  341ntf    fn4 1813   1.540   1.481   6.154  0.2128 -0.8298  0.1279
  341ntf    fn4 1814   1.470   1.331   6.024  0.2686  0.1320 -0.7913
  341ntf    on5 1815   1.315   1.601   6.010 -0.1698  0.7600 -0.3546
  341ntf    on5 1816   1.538   1.686   5.947 -0.3147  0.1675  0.1850
  341ntf    on5 1817   1.218   1.373   5.828  0.6416 -0.5901 -0.7272
  341ntf    on5 1818   1.311   1.401   5.607  0.2988 -0.8568 -0.0861
  341ntf    fn4 1819   1.210   1.669   5.602  0.0993 -0.5556  0.3284
  341ntf    fn4 1820   1.061   1.572   5.697 -0.0562 -0.0649  0.1719
  341ntf    fn4 1821   1.186   1.699   5.807 -0.2502 -0.5946  0.9661
  342ntf    cn1 1822   0.577   1.182   2.558  0.1324  0.1438  0.2186
  342ntf    sn2 1823   0.445   1.249   2.453  0.0757  0.1499  0.2933
  342ntf    nn3 1824   0.327   1.263   2.555  0.2663 -0.1024  0.5506
  342ntf    sn2 1825   0.284   1.153   2.659  0.1019  0.1217  0.7205
  342ntf    cn1 1826   0.113   1.195   2.702 -0.1108  0.3381 -0.3117
  342ntf    fn4 1827   0.572   1.059   2.605 -0.0100  0.0127 -0.1400
  342ntf    fn4 1828   0.690   1.191   2.490  0.0720 -0.1321  0.0836
  342ntf    fn4 1829   0.598   1.256   2.666 -0.1487 -0.2520  0.5451
  342ntf    on5 1830   0.498   1.376   2.408  0.6129 -0.0046  0.4786
  342ntf    on5 1831   0.412   1.155   2.349 -0.0013 -0.2453  0.6778
  342ntf    on5 1832   0.356   1.176   2.781  0.5076  0.4879  0.4189
  342ntf    on5 1833   0.279   1.018   2.610  0.8513  0.2321  0.3125
  342ntf    fn4 1834   0.067   1.123   2.803 -0.2911  0.2995 -0.4201
  342ntf    fn4 1835   0.100   1.323   2.735 -0.7028  0.2770 -0.2920
  342ntf    fn4 1836   0.030   1.164   2.604 -0.5615 -0.1136  0.2073
  343ntf    cn1 1837   0.891   1.289   0.330 -0.2330  0.1849 -0.4086
  343ntf    sn2 1838   0.715   1.308   0.372 -0.0783  0.0687  0.3076
  343ntf    nn3 1839   0.658   1.422   0.281  0.0043 -0.0868  0.0584
  343ntf    sn2 1840   0.674   1.575   0.313 -0.1533 -0.0989  0.1992
  343ntf    cn1 1841   0.646   1.634   0.143  0.3890  0.0741  0.1679
  343ntf    fn4 1842   0.934   1.167   0.354 -0.5553  0.1318 -0.0788
  343ntf    fn4 1843   0.918   1.306   0.202  0.4811 -0.2256 -0.3124
  343ntf    fn4 1844   0.973   1.367   0.398  0.2416 -0.5001 -0.1869
  343ntf    on5 1845   0.664   1.181   0.324  0.0916 -0.1118  0.6052
  343ntf    on5 1846   0.706   1.325   0.515  0.5393  0.0197  0.3528
  343ntf    on5 1847   0.807   1.623   0.343  0.0933 -0.1984 -0.7022
  343ntf    on5 1848   0.565   1.630   0.390 -0.0173  0.1468  0.2185
  343ntf    fn4 1849   0.545   1.565   0.094  0.4942 -0.0868  0.1783
  343ntf    fn4 1850   0.615   1.763   0.133 -0.7982 -0.1768  0.4640
  343ntf    fn4 1851   0.758   1.617   0.075  0.2341 -0.5464  0.0680
  344ntf    cn1 1852   2.177   1.703   6.532  0.1258 -0.0363  0.1603
  344ntf    sn2 1853   2.108   1.871   6.547  0.3997  0.0970 -0.0497
  344ntf    nn3 1854   2.164   1.918   6.686  0.1394  0.1488  0.0383
  344ntf    sn2 1855   2.203   2.067   6.719  0.1814  0.1799 -0.1478
  344ntf    cn1 1856   2.045   2.121   6.790 -0.1404 -0.1488 -0.6018
  344ntf    fn4 1857   2.138   1.619   6.626  0.1186 -0.8878 -0.5860
  344ntf    fn4 1858   2.146   1.650   6.415 -0.1378  0.9074 -0.2093
  344ntf    fn4 1859   2.309   1.700   6.545  0.1366 -0.3478 -0.0243
  344ntf    on5 1860   2.163   1.940   6.433  0.0419  0.1175 -0.2135
  344ntf    on5 1861   1.967   1.839   6.547  0.4403 -0.0888 -0.1969
  344ntf    on5 1862   2.218   2.168   6.617 -0.0635 -0.0613 -0.4268
  344ntf    on5 1863   2.299   2.054   6.826 -0.2013  0.3242  0.2158
  344ntf    fn4 1864   2.012   2.040   6.889 -0.0491  0.4495 -0.0725
  344ntf    fn4 1865   2.054   2.245   6.837 -0.7812 -0.2546 -0.1759
  344ntf    fn4 1866   1.946   2.117   6.703 -0.2586 -0.1009 -0.4714
  345ntf    cn1 1867   0.776   1.497   3.562 -0.2759 -0.0023  0.0115
  345ntf    sn2 1868   0.827   1.671   3.574 -0.2587  0.0031 -0.1384
  345ntf    nn3 1869   0.747   1.701   3.706 -0.0345  0.3986 -0.0917
  345ntf    sn2 1870   0.810   1.733   3.846  0.1635 -0.3399 -0.0085
  345ntf    cn1 1871   0.906   1.883   3.808  0.1983 -0.3939 -0.1363
  345ntf    fn4 1872   0.807   1.435   3.449 -0.2849 -0.6965  0.3839
  345ntf    fn4 1873   0.830   1.433   3.664  0.0333 -0.2607 -0.3135
  345ntf    fn4 1874   0.645   1.487   3.577 -0.3254 -0.1514 -0.5007
  345ntf    on5 1875   0.971   1.659   3.584 -0.2674 -0.4686 -0.5235
  345ntf    on5 1876   0.777   1.736   3.455 -0.4560 -0.1579 -0.1436
  345ntf    on5 1877   0.909   1.640   3.894  0.4605  0.0031  0.0506
  345ntf    on5 1878   0.709   1.783   3.936  0.1232 -0.0681 -0.2033
  345ntf    fn4 1879   1.016   1.862   3.739  0.3923  0.5003 -0.1106
  345ntf    fn4 1880   0.836   1.979   3.749  0.6627  0.2453  0.3324
  345ntf    fn4 1881   0.961   1.932   3.918  0.1790 -0.7968  0.0534
  346ntf    cn1 1882   2.356   0.829   3.029  0.2921 -0.0570  0.0577
  346ntf    sn2 1883   2.184   0.886   3.049  0.2872 -0.3037  0.7375
  346ntf    nn3 1884   2.121   0.742   3.051  0.0450 -0.2114  0.0603
  346ntf    sn2 1885   1.999   0.698   3.139 -0.0345 -0.2147 -0.0515
  346ntf    cn1 1886   2.081   0.619   3.281 -0.3560 -0.2892  0.0965
  346ntf    fn4 1887   2.445   0.924   3.011  0.3112 -0.1435 -0.3187
  346ntf    fn4 1888   2.393   0.767   3.140 -0.0347  0.5361  0.5029
  346ntf    fn4 1889   2.366   0.746   2.926 -0.5272 -0.3313  0.1837
  346ntf    on5 1890   2.181   0.969   3.166  0.5593  0.4884  0.1909
  346ntf    on5 1891   2.148   0.941   2.921  0.1691  0.2855  1.0227
  346ntf    on5 1892   1.928   0.591   3.074 -0.3139  0.1645 -0.3791
  346ntf    on5 1893   1.919   0.801   3.202  0.5758  0.1887  0.0739
  346ntf    fn4 1894   2.014   0.625   3.394 -0.7849 -0.3449 -0.1522
  346ntf    fn4 1895   2.109   0.493   3.252 -0.2960 -0.2377 -0.0728
  346ntf    fn4 1896   2.194   0.681   3.309 -0.3287 -0.1002 -0.4154
  347ntf    cn1 1897   2.255   1.534   3.806 -0.2280 -0.4886 -0.5011
  347ntf    sn2 1898   2.250   1.545   3.987  0.1174  0.2409 -0.5304
  347ntf    nn3 1899   2.350   1.430   4.027  0.0994  0.4777  0.2245
  347ntf    sn2 1900   2.331   1.275   4.044  0.0312  0.4696  0.0752
  347ntf    cn1 1901   2.457   1.238   4.169  0.4680  0.5723 -0.3290
  347ntf    fn4 1902   2.164   1.612   3.750  0.0769  0.1136 -0.1635
  347ntf    fn4 1903   2.376   1.564   3.762 -0.0922 -0.0293  0.1751
  347ntf    fn4 1904   2.235   1.410   3.764 -0.4077 -0.5154 -0.3391
  347ntf    on5 1905   2.311   1.673   4.014  0.4791 -0.0059 -0.1555
  347ntf    on5 1906   2.112   1.527   4.025  0.3481  0.1765  0.3137
  347ntf    on5 1907   2.378   1.195   3.933  0.4125  0.1355  0.4757
  347ntf    on5 1908   2.215   1.232   4.118  0.0216  0.2444 -0.0691
  347ntf    fn4 1909   2.400   1.240   4.289 -0.0186 -0.2465 -0.5393
  347ntf    fn4 1910   2.514   1.119   4.159 -0.3041  0.1192  0.4453
  347ntf    fn4 1911   2.548   1.333   4.179  1.1643 -0.1854  0.7682
  348ntf    cn1 1912   1.207   0.256   2.605  0.1093  0.3624  0.2961
  348ntf    sn2 1913   1.382   0.257   2.554  0.0691  0.0403  0.1508
  348ntf    nn3 1914   1.400   0.102   2.538 -0.2011  0.0791 -0.6259
  348ntf    sn2 1915   1.535   0.033   2.499  0.1405  0.2541  0.2057
  348ntf    cn1 1916   1.532   0.023   2.317  0.1667 -0.3830  0.2375
  348ntf    fn4 1917   1.189   0.176   2.709 -0.6860 -0.6027 -0.5716
  348ntf    fn4 1918   1.159   0.374   2.640 -0.4248  0.2829 -0.1671
  348ntf    fn4 1919   1.123   0.201   2.519  0.3070  0.5378 -0.0092
  348ntf    on5 1920   1.373   0.322   2.425  0.2088  0.3691  0.3052
  348ntf    on5 1921   1.450   0.328   2.659  0.0635  0.3112 -0.0280
  348ntf    on5 1922   1.526  -0.105   2.541 -0.0667  0.3778  0.5621
  348ntf    on5 1923   1.659   0.095   2.538  0.5984 -0.0175 -0.7644
  348ntf    fn4 1924   1.474   0.123   2.254  0.2542 -0.3231  0.2524
  348ntf    fn4 1925   1.655   0.019   2.267  0.1018  0.6147 -0.0249
  348ntf    fn4 1926   1.466  -0.081   2.268 -0.3303 -0.0179  0.1342
  349ntf    cn1 1927   0.653   0.459   4.695 -0.6050 -0.3040  0.4854
  349ntf    sn2 1928   0.748   0.305   4.678  0.1203  0.2571 -0.6297
  349ntf    nn3 1929   0.761   0.262   4.828  0.2973  0.5702 -0.5540
  349ntf    sn2 1930   0.868   0.188   4.917 -0.0935  0.4626 -0.1688
  349ntf    cn1 1931   0.964   0.323   4.993  0.0110  0.1578  0.2383
  349ntf    fn4 1932   0.724   0.550   4.760 -0.0638 -0.6403  0.3663
  349ntf    fn4 1933   0.627   0.515   4.578 -0.1870  0.3677  0.7062
  349ntf    fn4 1934   0.541   0.445   4.765 -0.5338 -0.6350  0.5332
  349ntf    on5 1935   0.663   0.214   4.605  0.0439  0.1314 -0.3860
  349ntf    on5 1936   0.871   0.352   4.619  0.1527  0.0794 -0.7045
  349ntf    on5 1937   0.968   0.103   4.858 -0.4231  0.0306 -0.1130
  349ntf    on5 1938   0.804   0.122   5.028  0.3393  0.3038 -0.0137
  349ntf    fn4 1939   0.930   0.334   5.121 -0.5293 -0.7318  0.1846
  349ntf    fn4 1940   1.094   0.313   5.011  0.0088  0.4804  0.4511
  349ntf    fn4 1941   0.918   0.437   4.945 -0.4632  0.1231  0.6014
  350ntf    cn1 1942   0.595   0.652   0.657  0.2888 -0.0533 -0.2707
  350ntf    sn2 1943   0.629   0.507   0.553 -0.0246 -0.3802  0.0805
  350ntf    nn3 1944   0.489   0.438   0.570 -0.4399  0.4316  0.0129
  350ntf    sn2 1945   0.448   0.287   0.561  0.3339  0.1859  0.4552
  350ntf    cn1 1946   0.336   0.294   0.417  0.3525  0.0253  0.4322
  350ntf    fn4 1947   0.609   0.616   0.784 -0.3164 -0.0763 -0.2085
  350ntf    fn4 1948   0.685   0.747   0.635  0.2315  0.0637 -0.0101
  350ntf    fn4 1949   0.472   0.700   0.652  0.3013  0.0723  0.4529
  350ntf    on5 1950   0.658   0.574   0.429  0.0078  0.0664  0.3269
  350ntf    on5 1951   0.738   0.441   0.621  0.2730  0.2820  0.2545
  350ntf    on5 1952   0.360   0.255   0.670  0.0011 -0.1534  0.0933
  350ntf    on5 1953   0.555   0.200   0.518  0.0993 -0.1758  0.5922
  350ntf    fn4 1954   0.382   0.350   0.306 -0.1795  0.1424  0.2707
  350ntf    fn4 1955   0.297   0.175   0.375 -0.4861  0.3186  0.3650
  350ntf    fn4 1956   0.224   0.356   0.448 -0.1545 -0.5312 -0.2586
  351ntf    cn1 1957   0.362   1.860   4.951  0.4348 -0.1032  0.2457
  351ntf    sn2 1958   0.199   1.780   4.953  0.4094 -0.0604 -0.1511
  351ntf    nn3 1959   0.172   1.757   4.800  0.6932  0.1861 -0.2382
  351ntf    sn2 1960   0.064   1.824   4.708  0.0170 -0.6374 -0.0609
  351ntf    cn1 1961   0.165   1.830   4.557  0.1087  0.4675  0.0352
  351ntf    fn4 1962   0.410   1.846   5.074 -0.0778  0.1741  0.4827
  351ntf    fn4 1963   0.439   1.793   4.868 -0.3563 -0.2945 -0.3462
  351ntf    fn4 1964   0.362   1.990   4.927 -0.7746 -0.0882  0.2748
  351ntf    on5 1965   0.233   1.660   5.025 -0.1796 -0.0760  0.1084
  351ntf    on5 1966   0.112   1.873   5.020  0.2106 -0.4683  0.1592
  351ntf    on5 1967   0.047   1.966   4.731  0.6640 -0.3835 -1.0537
  351ntf    on5 1968  -0.054   1.748   4.677 -0.4605 -0.0400  0.2725
  351ntf    fn4 1969   0.099   1.918   4.482 -0.0069  0.2727 -0.0944
  351ntf    fn4 1970   0.292   1.862   4.571  0.3054 -0.0412 -0.5584
  351ntf    fn4 1971   0.163   1.715   4.492 -0.7451  0.3357  0.2866
  352ntf    cn1 1972   1.996   0.870   1.575 -0.2062  0.0976 -0.0288
  352ntf    sn2 1973   2.125   0.751   1.529 -0.1866  0.1138 -0.0153
  352ntf    nn3 1974   2.109   0.666   1.660  0.2734 -0.1865 -0.1492
  352ntf    sn2 1975   2.044   0.524   1.673 -0.0882 -0.0090  0.0171
  352ntf    cn1 1976   2.184   0.426   1.610  0.0429  0.2091 -0.0296
  352ntf    fn4 1977   1.887   0.820   1.630 -0.0846  0.1053  0.2215
  352ntf    fn4 1978   2.039   0.953   1.669 -0.2163  0.5722 -0.4403
  352ntf    fn4 1979   1.958   0.946   1.473  0.0138 -0.7887 -0.7813
  352ntf    on5 1980   2.092   0.685   1.405  0.1686 -0.1368  0.0213
  352ntf    on5 1981   2.251   0.822   1.541 -0.1478  0.1680 -0.6963
  352ntf    on5 1982   1.937   0.505   1.579 -0.1578  0.5358 -0.0149
  352ntf    on5 1983   2.027   0.487   1.811  0.1954 -0.8177 -0.1552
  352ntf    fn4 1984   2.222   0.461   1.488 -0.1241 -0.4622 -0.2772
  352ntf    fn4 1985   2.298   0.439   1.677  0.4122 -0.5243 -0.4983
  352ntf    fn4 1986   2.158   0.297   1.606  0.6127  0.1135 -1.2114
  353ntf    cn1 1987   0.194   1.910   1.036  0.1165 -0.0770  0.3013
  353ntf    sn2 1988   0.237   1.735   1.012  0.2816  0.0381 -0.2732
  353ntf    nn3 1989   0.290   1.694   1.154 -0.6466 -0.5527 -0.0910
  353ntf    sn2 1990   0.421   1.613   1.186 -0.3655  0.0723  0.3497
  353ntf    cn1 1991   0.370   1.539   1.344 -0.2201 -0.0675  0.3310
  353ntf    fn4 1992   0.149   1.961   0.922  0.0471 -0.0624  0.3350
  353ntf    fn4 1993   0.094   1.925   1.122 -0.1726  0.1795 -0.0755
  353ntf    fn4 1994   0.295   1.985   1.074 -0.1034  0.3996 -0.0434
  353ntf    on5 1995   0.114   1.669   0.978  0.4182 -0.6737  0.5635
  353ntf    on5 1996   0.338   1.747   0.910 -0.3785 -0.0884 -0.9515
  353ntf    on5 1997   0.532   1.696   1.228 -0.1470  0.2100 -0.4907
  353ntf    on5 1998   0.438   1.500   1.099  0.2941  0.3890  0.0565
  353ntf    fn4 1999   0.256   1.473   1.328 -0.2699  0.2086 -0.4830
  353ntf    fn4 2000   0.450   1.452   1.404  0.2591  0.1731  0.0463
  353ntf    fn4 2001   0.352   1.633   1.435  0.0612  0.4867 -0.1786
  354ntf    cn1 2002   0.013   2.234   4.506 -0.2125 -0.0642  0.1103
  354ntf    sn2 2003  -0.077   2.209   4.350  0.1745  0.1113 -0.1400
  354ntf    nn3 2004   0.022   2.275   4.247 -0.2444  0.1451 -0.5251
  354ntf    sn2 2005   0.036   2.428   4.214 -0.1113  0.2675  0.0894
  354ntf    cn1 2006   0.213   2.443   4.254 -0.0622  0.7299 -0.3063
  354ntf    fn4 2007   0.131   2.176   4.516 -0.3237 -0.3430 -0.1718
  354ntf    fn4 2008   0.033   2.365   4.509  0.3785 -0.1544  0.0591
  354ntf    fn4 2009  -0.053   2.196   4.615 -0.5073  0.0282 -0.0333
  354ntf    on5 2010  -0.083   2.066   4.334  0.0180  0.0892  0.1128
  354ntf    on5 2011  -0.206   2.270   4.365  0.3753  0.4022  0.4476
  354ntf    on5 2012  -0.039   2.524   4.291  0.0174  0.2205  0.2740
  354ntf    on5 2013   0.027   2.453   4.073 -0.2049 -0.1025  0.0283
  354ntf    fn4 2014   0.251   2.570   4.253  0.5386  0.5550  0.1810
  354ntf    fn4 2015   0.237   2.404   4.378 -0.0223  0.0184 -0.5366
  354ntf    fn4 2016   0.298   2.376   4.178 -0.6734 -0.3430 -0.0581
  355ntf    cn1 2017   2.107   0.634   6.055 -0.0964  0.2968 -0.0147
  355ntf    sn2 2018   2.187   0.496   5.969 -0.2913  0.0039  0.2690
  355ntf    nn3 2019   2.056   0.442   5.901 -0.2980  0.3655 -0.0093
  355ntf    sn2 2020   2.007   0.295   5.875  0.0928  0.2276  0.0280
  355ntf    cn1 2021   1.909   0.265   6.025  0.0500 -0.0576 -0.0576
  355ntf    fn4 2022   2.187   0.705   6.132  0.0991  0.1954 -0.1232
  355ntf    fn4 2023   2.039   0.716   5.977 -0.4525  0.2466  0.2406
  355ntf    fn4 2024   2.021   0.576   6.137  0.2587  0.1988  0.2884
  355ntf    on5 2025   2.281   0.550   5.873 -0.3614 -0.4904 -0.0835
  355ntf    on5 2026   2.249   0.422   6.076  0.2949  0.1136  0.0104
  355ntf    on5 2027   2.110   0.194   5.879 -0.4003 -0.2865 -0.2462
  355ntf    on5 2028   1.911   0.283   5.768 -0.3641  0.7286  0.3767
  355ntf    fn4 2029   1.809   0.351   6.033 -0.2168 -0.3458 -0.2929
  355ntf    fn4 2030   1.849   0.148   6.043 -0.4098  0.1709 -0.1064
  355ntf    fn4 2031   1.985   0.270   6.134 -0.1770 -0.0438  0.1003
  356ntf    cn1 2032   1.272   1.172   0.792  0.3958  0.0555  0.1333
  356ntf    sn2 2033   1.291   0.992   0.812 -0.1073 -0.0344 -0.1832
  356ntf    nn3 2034   1.442   0.979   0.773 -0.0108  0.2565  0.0917
  356ntf    sn2 2035   1.521   0.870   0.692 -0.3744 -0.0252  0.1160
  356ntf    cn1 2036   1.486   0.947   0.531  0.0055  0.0511  0.0692
  356ntf    fn4 2037   1.304   1.243   0.899  1.0682  0.4507 -0.3204
  356ntf    fn4 2038   1.350   1.217   0.696  0.0480  0.8579  0.2201
  356ntf    fn4 2039   1.148   1.209   0.764  0.2745 -0.4338  0.0147
  356ntf    on5 2040   1.267   0.971   0.952 -0.2795  0.1967 -0.1769
  356ntf    on5 2041   1.185   0.960   0.720  0.0455 -0.1885 -0.3046
  356ntf    on5 2042   1.464   0.738   0.683  0.1103 -0.1779 -0.8050
  356ntf    on5 2043   1.663   0.879   0.713 -0.3981  0.2726  0.1574
  356ntf    fn4 2044   1.356   0.964   0.514  0.0630  0.1649 -0.2712
  356ntf    fn4 2045   1.543   1.063   0.505 -0.0607  0.2498  0.7780
  356ntf    fn4 2046   1.524   0.863   0.436  0.2017 -0.2837  0.4409
  357ntf    cn1 2047   1.507   1.454   1.826  0.1820 -0.8373  0.5170
  357ntf    sn2 2048   1.686   1.434   1.801  0.2378  0.0723  0.1682
  357ntf    nn3 2049   1.674   1.451   1.646  0.3911 -0.1854  0.1286
  357ntf    sn2 2050   1.737   1.364   1.531  0.5299  0.0113  0.0567
  357ntf    cn1 2051   1.863   1.473   1.457  0.0596  0.2651 -0.3783
  357ntf    fn4 2052   1.446   1.354   1.765 -0.2555 -0.4127  0.2546
  357ntf    fn4 2053   1.471   1.446   1.953 -0.9825 -0.3140  0.2293
  357ntf    fn4 2054   1.460   1.569   1.782  0.0029 -1.1945 -0.2431
  357ntf    on5 2055   1.760   1.547   1.851 -0.1000  0.5976 -0.5124
  357ntf    on5 2056   1.714   1.302   1.853 -0.4246 -0.0422  0.2466
  357ntf    on5 2057   1.652   1.330   1.420  0.4510 -0.0931  0.1495
  357ntf    on5 2058   1.815   1.257   1.588  0.1497 -0.4380 -0.2641
  357ntf    fn4 2059   1.939   1.540   1.542  0.1540  0.2292 -0.4350
  357ntf    fn4 2060   1.939   1.409   1.371  0.4874 -0.5885  0.6170
  357ntf    fn4 2061   1.798   1.567   1.390  0.3310  0.4132 -0.4375
  358ntf    cn1 2062   1.369   1.018   2.335 -0.1144 -0.0335  0.5207
  358ntf    sn2 2063   1.509   1.002   2.450  0.0147 -0.1646  0.3466
  358ntf    nn3 2064   1.479   0.856   2.501 -0.1832 -0.2808 -0.0954
  358ntf    sn2 2065   1.392   0.794   2.616 -0.3377  0.0951 -0.0084
  358ntf    cn1 2066   1.324   0.650   2.529  0.3779 -0.1854 -0.1134
  358ntf    fn4 2067   1.369   1.143   2.290  0.2031 -0.0257  0.5356
  358ntf    fn4 2068   1.382   0.936   2.232 -0.8098  0.4003  0.0758
  358ntf    fn4 2069   1.250   0.999   2.390 -0.2613 -0.3880  0.0884
  358ntf    on5 2070   1.621   1.010   2.360 -0.5874 -0.7657 -0.4691
  358ntf    on5 2071   1.496   1.113   2.541 -0.2298 -0.0287  0.1483
  358ntf    on5 2072   1.279   0.880   2.642 -0.4166 -0.2375  0.7411
  358ntf    on5 2073   1.459   0.731   2.727  0.0107  0.4731 -0.0016
  358ntf    fn4 2074   1.236   0.584   2.604  0.4422  0.0760  0.1926
  358ntf    fn4 2075   1.249   0.671   2.422  0.1829 -0.3815 -0.0154
  358ntf    fn4 2076   1.422   0.568   2.496  0.4016 -0.1125 -0.2268
  359ntf    cn1 2077   1.057   2.204   2.190 -0.1322  0.1773  0.2225
  359ntf    sn2 2078   1.143   2.062   2.265 -0.1772 -0.0360 -0.1233
  359ntf    nn3 2079   1.217   2.014   2.136  0.0675  0.2388 -0.0863
  359ntf    sn2 2080   1.366   1.969   2.114 -0.0966 -0.4692  0.2158
  359ntf    cn1 2081   1.357   1.804   2.038 -0.0424 -0.2371 -0.2955
  359ntf    fn4 2082   0.944   2.170   2.130  0.2375  0.0694 -0.4250
  359ntf    fn4 2083   1.025   2.291   2.284  0.5375  0.1983  0.4357
  359ntf    fn4 2084   1.134   2.270   2.105 -0.4852  0.4027  0.0783
  359ntf    on5 2085   1.216   2.131   2.369  0.1793  0.3991 -0.6615
  359ntf    on5 2086   1.036   1.970   2.297  0.0836  0.0622  1.0831
  359ntf    on5 2087   1.447   1.941   2.230 -0.7127 -0.0216  0.7640
  359ntf    on5 2088   1.423   2.045   2.007  0.4067  0.1150  0.8870
  359ntf    fn4 2089   1.324   1.714   2.129  0.7260 -0.0128  0.2157
  359ntf    fn4 2090   1.268   1.776   1.944  0.0294  0.2263 -0.5069
  359ntf    fn4 2091   1.474   1.759   1.997  0.0978 -0.6292  0.5246
  360ntf    cn1 2092   0.550   0.992   6.072 -0.2303  0.3816  0.2682
  360ntf    sn2 2093   0.643   1.147   6.061  0.2353  0.0892  0.0373
  360ntf    nn3 2094   0.680   1.151   5.908  0.3666  0.1444  0.0703
  360ntf    sn2 2095   0.609   1.242   5.803 -0.0606  0.2392  0.4384
  360ntf    cn1 2096   0.677   1.168   5.651 -0.1177  0.0509  0.5039
  360ntf    fn4 2097   0.615   0.896   6.008 -0.9470 -0.2568  0.4815
  360ntf    fn4 2098   0.531   0.941   6.193  0.2448 -0.9806 -0.2050
  360ntf    fn4 2099   0.430   1.006   6.018 -0.0338  0.3096 -0.1905
  360ntf    on5 2100   0.555   1.252   6.106 -0.4558 -0.5486  0.1830
  360ntf    on5 2101   0.758   1.119   6.143  0.5083  0.6502 -0.1451
  360ntf    on5 2102   0.655   1.379   5.800  0.5152  0.0398 -0.8099
  360ntf    on5 2103   0.468   1.222   5.779  0.2474 -1.2771 -0.2614
  360ntf    fn4 2104   0.798   1.217   5.628 -0.3726  0.0098 -0.9702
  360ntf    fn4 2105   0.693   1.037   5.648 -0.3733  0.0386 -0.2864
  360ntf    fn4 2106   0.609   1.193   5.541  0.6488 -0.0821 -0.0038
  361ntf    cn1 2107   2.285   1.375   3.478  0.1340 -0.1588 -0.2636
  361ntf    sn2 2108   2.356   1.344   3.314  0.2430  0.0002 -0.2470
  361ntf    nn3 2109   2.380   1.493   3.272  0.1156 -0.1005 -0.6900
  361ntf    sn2 2110   2.506   1.578   3.310 -0.1070 -0.1376  0.1658
  361ntf    cn1 2111   2.457   1.738   3.238 -0.1189 -0.2826 -0.1518
  361ntf    fn4 2112   2.218   1.268   3.516 -0.7661  0.4525 -0.1186
  361ntf    fn4 2113   2.379   1.403   3.568  0.1317 -0.5039 -0.1524
  361ntf    fn4 2114   2.200   1.476   3.476  0.0558 -0.2249 -0.2791
  361ntf    on5 2115   2.480   1.271   3.330  0.0196 -0.4280 -0.4442
  361ntf    on5 2116   2.257   1.278   3.232 -0.0595  0.5269 -0.3049
  361ntf    on5 2117   2.623   1.533   3.239 -0.0854 -0.1184  0.1891
  361ntf    on5 2118   2.527   1.604   3.450  0.3457  0.6099 -0.0352
  361ntf    fn4 2119   2.330   1.760   3.269 -0.0289 -0.3641  0.2877
  361ntf    fn4 2120   2.521   1.850   3.266 -0.2394 -0.1181 -0.5287
  361ntf    fn4 2121   2.459   1.725   3.107  0.1828  0.5448 -0.2336
  362ntf    cn1 2122   1.624   0.883   1.410  0.1150 -0.1091  0.4353
  362ntf    sn2 2123   1.465   0.802   1.379  0.0355  0.1096  0.2673
  362ntf    nn3 2124   1.513   0.710   1.261  0.1107 -0.0785  0.4453
  362ntf    sn2 2125   1.536   0.554   1.258 -0.1935 -0.1170 -0.0520
  362ntf    cn1 2126   1.462   0.519   1.096  0.4847 -0.3068 -0.3242
  362ntf    fn4 2127   1.632   0.948   1.525  0.4514 -0.2567  0.4966
  362ntf    fn4 2128   1.732   0.807   1.394 -0.0217 -0.0894 -0.6952
  362ntf    fn4 2129   1.650   0.981   1.324 -0.1079  0.3301  0.8619
  362ntf    on5 2130   1.418   0.731   1.495 -1.0014 -0.5502 -0.5312
  362ntf    on5 2131   1.371   0.902   1.333 -0.1325 -0.2682 -0.2187
  362ntf    on5 2132   1.464   0.466   1.346 -0.1064 -0.1769 -0.0404
  362ntf    on5 2133   1.675   0.523   1.232 -0.0529  0.2864  0.1945
  362ntf    fn4 2134   1.518   0.411   1.044  0.4061 -0.4771 -0.0610
  362ntf    fn4 2135   1.332   0.496   1.103  0.2021  1.1495 -0.5686
  362ntf    fn4 2136   1.475   0.618   1.010 -0.0862  0.1736  0.1300
  363ntf    cn1 2137   1.385   2.186   3.407 -0.5559 -0.6103  0.1473
  363ntf    sn2 2138   1.420   2.095   3.253 -0.1927  0.2264 -0.2677
  363ntf    nn3 2139   1.489   1.967   3.312  0.0738  0.2252 -0.5812
  363ntf    sn2 2140   1.642   1.941   3.287  0.0967 -0.1682 -0.0637
  363ntf    cn1 2141   1.634   1.899   3.110  0.1480 -0.2730 -0.0411
  363ntf    fn4 2142   1.496   2.233   3.461 -0.3570 -0.3054 -0.5187
  363ntf    fn4 2143   1.302   2.285   3.380  0.1966 -0.2422 -0.8735
  363ntf    fn4 2144   1.338   2.115   3.509 -0.1327 -0.7783  0.2290
  363ntf    on5 2145   1.296   2.061   3.189 -0.2529  0.5620 -0.3322
  363ntf    on5 2146   1.500   2.189   3.178  0.5533  0.2868  0.5801
  363ntf    on5 2147   1.674   1.822   3.361  0.0357 -0.3744 -0.3655
  363ntf    on5 2148   1.719   2.062   3.306  0.5672 -0.4014 -0.4750
  363ntf    fn4 2149   1.753   1.856   3.073  0.3139  0.1569 -0.0196
  363ntf    fn4 2150   1.536   1.814   3.084  0.5723 -0.6278 -0.4956
  363ntf    fn4 2151   1.619   2.005   3.032  0.2588 -0.4166 -0.2563
  364ntf    cn1 2152   0.476   0.097   3.331 -0.3150 -0.2193 -0.0390
  364ntf    sn2 2153   0.411  -0.072   3.347 -0.0698 -0.3054  0.0507
  364ntf    nn3 2154   0.379  -0.110   3.199  0.3866 -0.1356 -0.0949
  364ntf    sn2 2155   0.397  -0.243   3.117 -0.2584 -0.2124 -0.1175
  364ntf    cn1 2156   0.234  -0.261   3.038 -0.5958  0.4805  0.4126
  364ntf    fn4 2157   0.513   0.141   3.450 -0.2039 -0.2226 -0.0718
  364ntf    fn4 2158   0.579   0.113   3.248  0.0775  0.0474  0.4908
  364ntf    fn4 2159   0.381   0.176   3.285 -0.1660 -0.1119 -0.1673
  364ntf    on5 2160   0.517  -0.144   3.413  0.3072  0.7780  0.6664
  364ntf    on5 2161   0.296  -0.046   3.429  0.1163  0.0743  0.1961
  364ntf    on5 2162   0.421  -0.359   3.199  0.1863  0.1314  0.2406
  364ntf    on5 2163   0.482  -0.235   3.001  0.3149 -0.0111  0.3136
  364ntf    fn4 2164   0.134  -0.282   3.123 -0.3230 -0.0632  0.6002
  364ntf    fn4 2165   0.204  -0.158   2.961 -0.0602  0.2423 -0.1177
  364ntf    fn4 2166   0.239  -0.367   2.959 -0.3397  0.0517  0.9998
  365ntf    cn1 2167   1.701   1.872   4.222 -0.2568  0.0085 -0.2614
  365ntf    sn2 2168   1.593   1.807   4.352 -0.1345  0.1639 -0.0803
  365ntf    nn3 2169   1.491   1.927   4.353 -0.8596 -0.4399  0.2624
  365ntf    sn2 2170   1.463   2.030   4.468 -0.1289  0.1410 -0.0712
  365ntf    cn1 2171   1.493   2.185   4.377 -0.1194  0.0897 -0.1555
  365ntf    fn4 2172   1.798   1.785   4.200 -0.3124 -0.2175  0.3601
  365ntf    fn4 2173   1.634   1.900   4.112 -0.7617  0.0730  0.0597
  365ntf    fn4 2174   1.759   1.983   4.268 -0.3489 -0.2540  0.5001
  365ntf    on5 2175   1.539   1.687   4.293 -0.2698  0.1423  0.0844
  365ntf    on5 2176   1.679   1.788   4.466  0.0489  0.0573 -0.2362
  365ntf    on5 2177   1.557   2.039   4.577 -0.2374 -0.3420  0.0647
  365ntf    on5 2178   1.326   2.047   4.507  0.0158  0.2957  0.3777
  365ntf    fn4 2179   1.487   2.290   4.457  0.1086 -0.5652  0.7383
  365ntf    fn4 2180   1.612   2.186   4.319 -0.1187  0.3946 -0.1470
  365ntf    fn4 2181   1.407   2.199   4.277  0.2500 -0.5956 -0.5734
  366ntf    cn1 2182   1.278   1.894   1.205  0.1746 -0.0954 -0.0939
  366ntf    sn2 2183   1.208   1.777   1.085 -0.2703 -0.2551  0.3153
  366ntf    nn3 2184   1.289   1.812   0.955  0.4597 -0.2884  0.7600
  366ntf    sn2 2185   1.410   1.739   0.887 -0.0241 -0.1471 -0.2733
  366ntf    cn1 2186   1.311   1.637   0.774 -0.7287 -0.1601  0.3464
  366ntf    fn4 2187   1.406   1.912   1.179  0.1326  0.0293 -0.2093
  366ntf    fn4 2188   1.218   2.011   1.200  0.3955  0.0860  1.0906
  366ntf    fn4 2189   1.268   1.845   1.328 -0.6662 -0.2326 -0.2063
  366ntf    on5 2190   1.219   1.644   1.140  0.6360 -0.5758 -0.6155
  366ntf    on5 2191   1.072   1.819   1.059 -0.0756  0.4034  0.3467
  366ntf    on5 2192   1.481   1.642   0.967  0.0400 -0.0324 -0.1913
  366ntf    on5 2193   1.480   1.830   0.800  0.2999 -0.0530  0.0803
  366ntf    fn4 2194   1.377   1.573   0.678  0.1360  0.1627  0.7188
  366ntf    fn4 2195   1.245   1.541   0.836 -1.2234  0.0308  0.1185
  366ntf    fn4 2196   1.219   1.711   0.716 -0.3236 -0.2363 -0.4140
  367ntf    cn1 2197   1.286   0.725   3.291  0.0668  0.7717 -0.2495
  367ntf    sn2 2198   1.451   0.649   3.293 -0.2737  0.0308  0.3762
  367ntf    nn3 2199   1.531   0.755   3.376  0.2090 -0.0108 -0.0327
  367ntf    sn2 2200   1.533   0.775   3.532  0.1861 -0.0410 -0.0286
  367ntf    cn1 2201   1.709   0.798   3.569  0.1928 -0.3800  0.1602
  367ntf    fn4 2202   1.219   0.692   3.182 -0.3736  0.0897  0.2190
  367ntf    fn4 2203   1.211   0.678   3.390  0.8238  0.0226 -0.0175
  367ntf    fn4 2204   1.286   0.857   3.288  0.5220  0.7785 -0.0296
  367ntf    on5 2205   1.456   0.514   3.344 -1.0177 -0.0907  0.1353
  367ntf    on5 2206   1.482   0.663   3.153  0.0879 -0.0443  0.4477
  367ntf    on5 2207   1.504   0.658   3.611  0.4870  0.1447  0.3598
  367ntf    on5 2208   1.476   0.900   3.573 -0.3777 -0.5504  0.7701
  367ntf    fn4 2209   1.759   0.893   3.491 -0.4297  0.2938  0.5714
  367ntf    fn4 2210   1.735   0.829   3.695  0.2898  0.0283  0.0440
  367ntf    fn4 2211   1.777   0.688   3.544  0.0513 -0.4278 -0.0147
  368ntf    cn1 2212   1.248   2.168   0.739  0.1621 -0.3599  0.0729
  368ntf    sn2 2213   1.098   2.217   0.648 -0.0422 -0.0468  0.5716
  368ntf    nn3 2214   1.055   2.356   0.705 -0.0430  0.1548  0.0850
  368ntf    sn2 2215   0.945   2.369   0.817  0.2075 -0.1415  0.3697
  368ntf    cn1 2216   1.004   2.530   0.877 -0.1205  0.2109 -0.2354
  368ntf    fn4 2217   1.216   2.164   0.868  0.5002 -0.3303  0.1570
  368ntf    fn4 2218   1.285   2.046   0.704  0.6761  0.0265 -0.7256
  368ntf    fn4 2219   1.351   2.248   0.720  0.2506 -0.6021 -0.4898
  368ntf    on5 2220   1.135   2.228   0.509 -0.3806  0.1801  0.4993
  368ntf    on5 2221   1.008   2.108   0.675 -0.5153  0.1830 -0.0511
  368ntf    on5 2222   0.959   2.282   0.931  0.3956 -0.8786 -0.2083
  368ntf    on5 2223   0.813   2.393   0.763  0.4525 -0.3236 -0.3192
  368ntf    fn4 2224   0.968   2.550   1.003 -0.4903 -0.0345 -0.3013
  368ntf    fn4 2225   1.137   2.530   0.879 -0.1240  0.5233  0.2589
  368ntf    fn4 2226   0.971   2.638   0.808 -0.0583  0.2448 -0.2127
  369ntf    cn1 2227   1.556   1.094   4.811 -0.1380  0.2103  0.1734
  369ntf    sn2 2228   1.667   1.236   4.784  0.1367 -0.0102  0.1411
  369ntf    nn3 2229   1.558   1.347   4.769 -0.1869 -0.2884  0.4277
  369ntf    sn2 2230   1.495   1.435   4.884 -0.2292 -0.0313  0.2084
  369ntf    cn1 2231   1.523   1.606   4.831  0.1665 -0.1123  0.1499
  369ntf    fn4 2232   1.481   1.066   4.706  0.5408  0.2353 -0.3244
  369ntf    fn4 2233   1.624   0.984   4.837 -0.8483 -0.1937  0.3228
  369ntf    fn4 2234   1.474   1.116   4.912  0.0775  1.1082  0.1621
  369ntf    on5 2235   1.740   1.229   4.908  0.0099 -0.1550  0.2080
  369ntf    on5 2236   1.732   1.190   4.664  0.2591  0.6072 -0.0303
  369ntf    on5 2237   1.566   1.442   5.009  0.5271  0.9341 -0.2608
  369ntf    on5 2238   1.353   1.412   4.883 -0.1620 -0.4723 -0.2995
  369ntf    fn4 2239   1.648   1.631   4.794 -0.0166 -0.3022 -0.6051
  369ntf    fn4 2240   1.456   1.634   4.720 -0.3326  0.0897  0.4978
  369ntf    fn4 2241   1.494   1.693   4.928 -0.0954  0.0201 -0.0446
  370ntf    cn1 2242   2.320   0.637   0.133  0.1875  0.2260  0.1907
  370ntf    sn2 2243   2.295   0.505   0.011  0.3973  0.1165  0.2661
  370ntf    nn3 2244   2.235   0.596  -0.102 -0.5805  0.2449  0.8759
  370ntf    sn2 2245   2.086   0.616  -0.147 -0.3527  0.0744  0.0173
  370ntf    cn1 2246   2.120   0.758  -0.256 -0.4931 -0.0364 -0.1698
  370ntf    fn4 2247   2.201   0.678   0.174  0.1959  0.1826  0.2586
  370ntf    fn4 2248   2.396   0.602   0.236 -0.2628 -0.0979  0.4188
  370ntf    fn4 2249   2.372   0.742   0.072  0.9813 -0.3690 -0.1760
  370ntf    on5 2250   2.430   0.462  -0.019  0.0277 -0.7062 -0.2680
  370ntf    on5 2251   2.214   0.399   0.066 -0.5097  0.2686 -0.7435
  370ntf    on5 2252   1.998   0.668  -0.045 -0.0476  0.2438  0.1970
  370ntf    on5 2253   2.038   0.508  -0.228 -0.7844  0.3452 -0.0918
  370ntf    fn4 2254   2.223   0.746  -0.338 -0.2176  0.1687  0.1439
  370ntf    fn4 2255   2.015   0.784  -0.331 -0.6662  0.3220  0.1966
  370ntf    fn4 2256   2.147   0.872  -0.196 -0.2900 -0.4584  0.5615
  371ntf    cn1 2257   2.328   0.384   2.186 -0.0676  0.4652  0.3074
  371ntf    sn2 2258   2.376   0.423   2.357 -0.2939 -0.0413  0.4888
  371ntf    nn3 2259   2.481   0.534   2.324 -0.5650  0.0267 -0.1486
  371ntf    sn2 2260   2.437   0.684   2.306 -0.2485  0.1381 -0.0012
  371ntf    cn1 2261   2.443   0.735   2.480 -0.0844  0.2027 -0.0257
  371ntf    fn4 2262   2.276   0.484   2.117  0.0026  0.5770  0.4168
  371ntf    fn4 2263   2.434   0.347   2.116  0.3141  0.6424  0.7879
  371ntf    fn4 2264   2.234   0.291   2.173  0.2930  0.0575  0.5843
  371ntf    on5 2265   2.248   0.452   2.418 -0.3238  0.4962  0.1733
  371ntf    on5 2266   2.451   0.306   2.396 -0.7854 -0.3824  0.4230
  371ntf    on5 2267   2.304   0.720   2.262 -0.0264  0.3669 -0.4904
  371ntf    on5 2268   2.545   0.750   2.237 -0.6316  0.7204 -0.0576
  371ntf    fn4 2269   2.542   0.682   2.549  0.1300  0.9347  0.2381
  371ntf    fn4 2270   2.472   0.864   2.490  0.6650  0.0908 -0.7228
  371ntf    fn4 2271   2.332   0.717   2.550  0.0525 -0.8907 -0.0824
  372ntf    cn1 2272   0.369   0.515   2.941 -0.3936  0.1575  0.1208
  372ntf    sn2 2273   0.288   0.632   3.054  0.0865  0.4835  0.1330
  372ntf    nn3 2274   0.392   0.651   3.170 -0.2936 -0.0105  0.5630
  372ntf    sn2 2275   0.483   0.778   3.188  0.0724 -0.1807 -0.0544
  372ntf    cn1 2276   0.612   0.699   3.289  0.0163  0.1032  0.2384
  372ntf    fn4 2277   0.284   0.477   2.847  0.3476 -0.1740 -0.4309
  372ntf    fn4 2278   0.474   0.564   2.877 -0.4697  0.6946  0.3999
  372ntf    fn4 2279   0.404   0.399   2.995  0.0022 -0.2358 -0.9450
  372ntf    on5 2280   0.271   0.747   2.969  1.0034  0.3393 -0.2594
  372ntf    on5 2281   0.174   0.558   3.104  0.3231  0.0352  0.0192
  372ntf    on5 2282   0.432   0.870   3.286  0.0314 -0.4577  0.1855
  372ntf    on5 2283   0.550   0.836   3.074 -0.3116 -0.5048 -0.4485
  372ntf    fn4 2284   0.724   0.769   3.295 -0.1527  0.4045 -0.0518
  372ntf    fn4 2285   0.568   0.691   3.414 -0.1814  0.4168  0.1898
  372ntf    fn4 2286   0.647   0.577   3.252  0.3278  0.0643  0.6433
  373ntf    cn1 2287   0.882   0.720   4.298  0.0862 -0.2183  0.1369
  373ntf    sn2 2288   0.905   0.893   4.248  0.4331 -0.2449  0.2037
  373ntf    nn3 2289   0.768   0.931   4.181  0.6212  0.2488  0.0887
  373ntf    sn2 2290   0.699   1.071   4.173  0.0520 -0.0144  0.2837
  373ntf    cn1 2291   0.562   1.045   4.056  0.1900 -0.1786  0.1578
  373ntf    fn4 2292   0.976   0.682   4.383  0.1626 -0.2136  0.0551
  373ntf    fn4 2293   0.766   0.695   4.356  0.0549  0.3670  0.3323
  373ntf    fn4 2294   0.891   0.646   4.188 -0.1521 -0.6548  0.4097
  373ntf    on5 2295   0.939   0.972   4.363 -0.2461 -0.5346  0.6106
  373ntf    on5 2296   1.009   0.890   4.149  0.4886  0.2915  0.2437
  373ntf    on5 2297   0.767   1.173   4.097 -0.1203  0.1362  0.3294
  373ntf    on5 2298   0.621   1.120   4.284  0.0675 -0.6522  0.5796
  373ntf    fn4 2299   0.480   1.149   4.046 -0.3517 -0.6339 -0.2021
  373ntf    fn4 2300   0.608   1.031   3.933  0.1624  0.3468  0.0879
  373ntf    fn4 2301   0.481   0.943   4.080 -0.0594 -0.0290 -0.0481
  374ntf    cn1 2302   2.383   2.168   1.176 -0.1638  0.1543  0.0953
  374ntf    sn2 2303   2.357   2.345   1.210 -0.0443  0.1689  0.1096
  374ntf    nn3 2304   2.447   2.364   1.337  0.2871  0.2321 -0.1325
  374ntf    sn2 2305   2.408   2.417   1.479 -0.0954 -0.0098 -0.1475
  374ntf    cn1 2306   2.492   2.578   1.467 -0.0327 -0.0302  0.0160
  374ntf    fn4 2307   2.499   2.166   1.113 -0.2592 -0.1545 -0.0703
  374ntf    fn4 2308   2.399   2.093   1.284  0.3557 -0.6834 -0.5618
  374ntf    fn4 2309   2.291   2.114   1.098 -0.1168 -0.1663  0.2591
  374ntf    on5 2310   2.410   2.410   1.092 -0.0675  0.0693  0.0441
  374ntf    on5 2311   2.215   2.363   1.226 -0.0845 -0.2628  0.2475
  374ntf    on5 2312   2.483   2.363   1.590  0.3069  0.1872 -0.3228
  374ntf    on5 2313   2.271   2.450   1.510 -0.2337 -0.2626 -0.4833
  374ntf    fn4 2314   2.447   2.648   1.364  0.4612 -0.3977 -0.4563
  374ntf    fn4 2315   2.476   2.648   1.578 -0.7412  0.1753 -0.2123
  374ntf    fn4 2316   2.623   2.565   1.451  0.1880  0.6550  1.1615
  375ntf    cn1 2317   1.663   2.330   0.536  0.0978  0.2491 -0.4295
  375ntf    sn2 2318   1.834   2.358   0.588  0.0537 -0.6326  0.2113
  375ntf    nn3 2319   1.818   2.489   0.673  0.2770 -0.5805  0.1747
  375ntf    sn2 2320   1.903   2.618   0.698 -0.2328 -0.2530  0.2451
  375ntf    cn1 2321   1.780   2.734   0.631  0.1205  0.0768  0.1623
  375ntf    fn4 2322   1.620   2.431   0.462 -0.7015 -0.0352 -0.3639
  375ntf    fn4 2323   1.644   2.223   0.460 -0.3038  0.2468 -0.3315
  375ntf    fn4 2324   1.578   2.314   0.636  0.1896 -0.4074 -0.4527
  375ntf    on5 2325   1.839   2.242   0.674 -0.7045 -0.7347  0.1210
  375ntf    on5 2326   1.916   2.369   0.470  0.3101  0.4955  0.4783
  375ntf    on5 2327   2.018   2.641   0.612 -0.6140  0.2461 -0.1404
  375ntf    on5 2328   1.916   2.653   0.837 -0.4129  0.4807  0.0800
  375ntf    fn4 2329   1.741   2.700   0.510  0.0137 -0.0807  0.2412
  375ntf    fn4 2330   1.675   2.734   0.711 -0.0786  0.1341 -0.0978
  375ntf    fn4 2331   1.824   2.859   0.624  0.4543 -0.0258  0.3927
  376ntf    cn1 2332   2.029   2.347   5.351 -0.0357  0.3269  0.2286
  376ntf    sn2 2333   2.030   2.315   5.172 -0.2330  0.2819  0.2355
  376ntf    nn3 2334   1.985   2.455   5.116 -0.5762  0.2946  0.5422
  376ntf    sn2 2335   1.878   2.496   5.008  0.0995  0.0973 -0.2082
  376ntf    cn1 2336   1.722   2.476   5.099  0.2638  0.1259  0.0851
  376ntf    fn4 2337   1.912   2.399   5.387 -0.4118 -0.1894 -0.2251
  376ntf    fn4 2338   2.042   2.231   5.413 -0.1049  0.2705  0.1373
  376ntf    fn4 2339   2.126   2.425   5.395  0.2756 -0.0756  0.2571
  376ntf    on5 2340   2.168   2.289   5.141 -0.3826  0.3543 -0.5165
  376ntf    on5 2341   1.938   2.205   5.160 -0.0638  0.2175 -0.5545
  376ntf    on5 2342   1.860   2.407   4.896  0.4460  0.2852 -0.4133
  376ntf    on5 2343   1.880   2.638   4.984 -0.3670  0.2083  0.3645
  376ntf    fn4 2344   1.728   2.532   5.218  0.7273  0.0948  0.0750
  376ntf    fn4 2345   1.610   2.525   5.046  0.3624 -0.1658 -0.4025
  376ntf    fn4 2346   1.700   2.346   5.114  0.5256  0.0099 -0.4938
  377ntf    cn1 2347   0.618   0.283   5.523 -0.0319  0.0815  0.4013
  377ntf    sn2 2348   0.663   0.285   5.347 -0.0719  0.2088  0.3923
  377ntf    nn3 2349   0.576   0.407   5.298  0.0241 -0.0557 -0.4652
  377ntf    sn2 2350   0.434   0.403   5.231 -0.1474  0.2580 -0.1285
  377ntf    cn1 2351   0.475   0.367   5.057  0.5538  0.0873  0.0682
  377ntf    fn4 2352   0.506   0.230   5.568  0.1988 -0.7187  0.0488
  377ntf    fn4 2353   0.713   0.223   5.592  0.6057  0.3858 -0.1947
  377ntf    fn4 2354   0.620   0.405   5.574  0.4951  0.2947 -0.1087
  377ntf    on5 2355   0.805   0.310   5.355  0.0801 -0.5252  0.1139
  377ntf    on5 2356   0.630   0.158   5.287 -0.4495  0.3733  0.2480
  377ntf    on5 2357   0.378   0.535   5.226 -0.4617  0.1177 -0.3792
  377ntf    on5 2358   0.345   0.303   5.285  0.4079 -0.2261 -0.0975
  377ntf    fn4 2359   0.361   0.343   4.995  0.4202 -0.1916  0.4141
  377ntf    fn4 2360   0.530   0.469   4.994  0.3621 -0.0597 -0.3381
  377ntf    fn4 2361   0.551   0.260   5.043  0.4031  0.0459 -0.4539
  378ntf    cn1 2362   1.044   1.479   3.114 -0.0783 -0.1929  0.0554
  378ntf    sn2 2363   1.220   1.526   3.109 -0.1278 -0.0100  0.0647
  378ntf    nn3 2364   1.293   1.388   3.114  0.3748  0.2257 -0.5677
  378ntf    sn2 2365   1.340   1.282   3.008 -0.3838 -0.2665 -0.4224
  378ntf    cn1 2366   1.227   1.147   3.053 -0.0776 -0.4309 -0.1425
  378ntf    fn4 2367   1.006   1.413   3.222 -0.1137 -0.6010 -0.2019
  378ntf    fn4 2368   0.963   1.582   3.104 -0.2080 -0.3516 -0.6162
  378ntf    fn4 2369   1.018   1.397   3.013 -0.6319 -0.1377  0.1551
  378ntf    on5 2370   1.235   1.605   2.989 -0.2195 -0.3097 -0.1439
  378ntf    on5 2371   1.232   1.601   3.231  0.3036 -0.1388  0.1004
  378ntf    on5 2372   1.471   1.226   3.032  0.0895  0.9355 -0.1075
  378ntf    on5 2373   1.294   1.308   2.874 -0.2190  0.0886 -0.4121
  378ntf    fn4 2374   1.246   1.035   2.985  0.4038 -0.4894  0.0871
  378ntf    fn4 2375   1.239   1.105   3.178 -0.7148 -0.4394 -0.0811
  378ntf    fn4 2376   1.101   1.186   3.039 -0.0236 -0.1953  0.0188
   2.39876   2.39876   6.70059
