Converted from moscito
 2376
    1SOL     ow    1   2.064   1.901   1.005  0.6624  0.1720  0.1612
    1SOL     hw    2   2.020   1.830   0.959  0.4033 -0.0550  0.7410
    1SOL     hw    3   1.993   1.959   1.033  0.4305 -1.2549  2.9214
    1SOL     vw    4   2.049   1.899   1.003  0.5976 -0.0463  0.6018
    2SOL     ow    5   0.682   0.581   3.181  0.6669  0.0583  0.9890
    2SOL     hw    6   0.772   0.601   3.158  1.0438  1.7289  3.5764
    2SOL     hw    7   0.688   0.506   3.241  0.4735  0.8846  2.0685
    2SOL     vw    8   0.694   0.574   3.186  0.6911  0.3877  1.4727
    3SOL     ow    9   0.106   0.294   6.104  0.3789  0.6828 -0.0243
    3SOL     hw   10   0.176   0.230   6.115 -0.5848 -0.5546 -0.8744
    3SOL     hw   11   0.084   0.322   6.193  0.3871 -0.6583  0.4086
    3SOL     vw   12   0.112   0.290   6.117  0.2529  0.3426 -0.0792
    4SOL     ow   13   0.166   1.609   4.551 -0.4624 -0.1014  0.0833
    4SOL     hw   14   0.100   1.545   4.525 -0.1728 -1.1095  1.7537
    4SOL     hw   15   0.238   1.557   4.585  0.4954  1.0630 -0.0972
    4SOL     vw   16   0.167   1.594   4.552 -0.2978 -0.0808  0.2804
    5SOL     ow   17   0.461   0.363   5.310 -0.4311  0.1045  0.5812
    5SOL     hw   18   0.485   0.311   5.386 -1.4569  0.9973  1.5557
    5SOL     hw   19   0.518   0.440   5.315  1.2598 -0.9584 -0.9917
    5SOL     vw   20   0.472   0.367   5.321 -0.3434  0.0820  0.5026
    6SOL     ow   21   0.733   0.404   2.120 -0.5212 -0.0904 -0.1738
    6SOL     hw   22   0.755   0.329   2.176 -1.8340  0.9471  1.8685
    6SOL     hw   23   0.735   0.479   2.179  0.1133  1.4061 -2.0343
    6SOL     vw   24   0.736   0.404   2.135 -0.6107  0.2440 -0.1497
    7SOL     ow   25   0.011   0.989   5.442 -0.1004 -0.8218 -0.0413
    7SOL     hw   26  -0.080   0.988   5.414  0.2467  0.6209 -1.3099
    7SOL     hw   27   0.024   0.903   5.483 -2.3746 -0.5590  1.3926
    7SOL     vw   28   0.001   0.977   5.444 -0.3546 -0.5968 -0.0193
    8SOL     ow   29   0.651   2.126   0.314  0.4780 -0.6811 -0.3967
    8SOL     hw   30   0.691   2.047   0.351  1.6552  0.5244  1.0291
    8SOL     hw   31   0.713   2.156   0.248  0.1169 -0.8473 -0.8139
    8SOL     vw   32   0.664   2.119   0.310  0.5857 -0.5441 -0.2636
    9SOL     ow   33   1.423   1.219   1.264 -0.0752 -0.4504  0.4161
    9SOL     hw   34   1.469   1.240   1.183  1.3341  1.0286  1.5360
    9SOL     hw   35   1.334   1.198   1.236  0.0291  1.2498 -1.4149
    9SOL     vw   36   1.418   1.219   1.249  0.1246 -0.0310  0.3223
   10SOL     ow   37   1.659   0.218   5.852  0.5551 -0.2022 -0.5699
   10SOL     hw   38   1.719   0.272   5.800  0.9490 -0.3700 -0.2955
   10SOL     hw   39   1.662   0.258   5.939  1.8427 -1.4243 -0.0244
   10SOL     vw   40   1.668   0.231   5.857  0.7769 -0.3856 -0.4616
   11SOL     ow   41   1.755   0.314   4.382 -0.3753  0.1789 -0.7208
   11SOL     hw   42   1.828   0.375   4.393 -1.5154  1.3064  1.1572
   11SOL     hw   43   1.770   0.274   4.297  2.9024 -0.2920 -0.0854
   11SOL     vw   44   1.767   0.316   4.373 -0.0932  0.2655 -0.3891
   12SOL     ow   45   0.915   0.624   3.061  0.4014  0.4804  0.1802
   12SOL     hw   46   0.901   0.656   2.972 -0.3456  1.0199  0.4818
   12SOL     hw   47   0.984   0.679   3.096  0.0591  0.8674  0.2436
   12SOL     vw   48   0.922   0.635   3.053  0.2576  0.6026  0.2283
   13SOL     ow   49   1.597   1.807   4.096 -0.5157 -0.0031  0.3482
   13SOL     hw   50   1.543   1.849   4.029  0.7696  0.2248 -0.5942
   13SOL     hw   51   1.682   1.852   4.090  0.6238 -2.0594 -0.0495
   13SOL     vw   52   1.601   1.819   4.086 -0.1959 -0.2443  0.1714
   14SOL     ow   53   2.098   1.928   2.337 -0.9210  0.4430 -0.1630
   14SOL     hw   54   2.113   1.839   2.305 -1.0495  0.5672 -0.5799
   14SOL     hw   55   2.170   1.946   2.396  0.0945  0.7033 -1.4275
   14SOL     vw   56   2.109   1.919   2.340 -0.8039  0.4937 -0.3847
   15SOL     ow   57   1.457   0.934   4.778  0.0873 -0.2661  0.3177
   15SOL     hw   58   1.529   0.881   4.746  0.9817  0.1948  1.4946
   15SOL     hw   59   1.397   0.871   4.817 -0.0167 -0.6223 -0.3970
   15SOL     vw   60   1.458   0.919   4.779  0.1916 -0.2523  0.3786
   16SOL     ow   61   0.971   1.275   6.037 -0.2360  0.1710  0.1277
   16SOL     hw   62   0.995   1.368   6.033 -0.2869  0.1262 -2.2574
   16SOL     hw   63   1.003   1.238   5.955 -0.0859 -1.9774  1.0960
   16SOL     vw   64   0.978   1.282   6.026 -0.2229 -0.1184 -0.0594
   17SOL     ow   65   1.691   1.431   1.588  0.2585 -0.1402  0.0544
   17SOL     hw   66   1.651   1.515   1.567 -1.0632 -0.4781  1.1199
   17SOL     hw   67   1.677   1.419   1.682  0.1400 -1.6866 -0.1236
   17SOL     vw   68   1.684   1.440   1.597  0.0684 -0.3889  0.1715
   18SOL     ow   69   0.175   1.461   2.464 -0.0583  0.0818  0.1347
   18SOL     hw   70   0.127   1.412   2.397 -0.0454 -0.5370  0.5777
   18SOL     hw   71   0.256   1.413   2.476  1.9889  2.5109 -2.5179
   18SOL     vw   72   0.179   1.448   2.456  0.2135  0.3207 -0.1569
   19SOL     ow   73   0.698   0.137   1.806  0.3005 -0.6674  0.3367
   19SOL     hw   74   0.771   0.182   1.848 -0.2559  0.1491  0.4763
   19SOL     hw   75   0.696   0.172   1.717 -0.4935  0.0609  0.6179
   19SOL     vw   76   0.707   0.148   1.800  0.1223 -0.4636  0.3922
   20SOL     ow   77   0.161   0.448   2.291  0.6577 -0.2371 -0.1658
   20SOL     hw   78   0.110   0.486   2.362 -0.3844 -2.0238  0.0950
   20SOL     hw   79   0.126   0.489   2.211  1.3695  1.2649  0.2496
   20SOL     vw   80   0.150   0.459   2.290  0.6141 -0.2746 -0.0767
   21SOL     ow   81   0.930   0.529   1.504 -0.0244  0.5043  0.7626
   21SOL     hw   82   0.969   0.525   1.592 -3.1617 -0.2720  2.2734
   21SOL     hw   83   0.877   0.609   1.506 -1.0429 -0.1360 -0.0019
   21SOL     vw   84   0.928   0.539   1.516 -0.5727  0.3174  0.8611
   22SOL     ow   85   1.578   0.326   6.107  0.0015 -0.2210 -1.3267
   22SOL     hw   86   1.509   0.296   6.166  0.8979 -1.1049 -0.6947
   22SOL     hw   87   1.596   0.416   6.134  1.1869 -0.9541  0.5659
   22SOL     vw   88   1.571   0.334   6.118  0.2761 -0.4344 -0.9933
   23SOL     ow   89   0.280   1.191   0.030 -0.3191 -0.1797 -0.6106
   23SOL     hw   90   0.291   1.282   0.056  1.8006 -0.0518 -1.7660
   23SOL     hw   91   0.192   1.186  -0.007 -0.1597  1.5858 -1.2801
   23SOL     vw   92   0.270   1.202   0.029 -0.0184  0.0701 -0.8513
   24SOL     ow   93   0.700   0.401   6.119 -0.1018 -0.4397  0.0619
   24SOL     hw   94   0.671   0.491   6.136  0.5977 -0.2615  0.3713
   24SOL     hw   95   0.625   0.358   6.079 -0.9544 -0.1392  1.2781
   24SOL     vw   96   0.686   0.407   6.116 -0.1220 -0.3766  0.2630
   25SOL     ow   97   0.836   0.121   1.156  0.2904 -0.4743  0.6540
   25SOL     hw   98   0.764   0.158   1.105 -1.6575 -2.3184  1.9024
   25SOL     hw   99   0.854   0.187   1.223 -2.6484 -1.2798  2.4306
   25SOL     vw  100   0.829   0.135   1.158 -0.3543 -0.8239  1.0530
   26SOL     ow  101   0.725   2.314   6.189 -0.3639 -0.6666 -0.2317
   26SOL     hw  102   0.768   2.231   6.213  0.4430 -0.9840 -2.4255
   26SOL     hw  103   0.668   2.334   6.262  1.9336 -1.3875  1.8948
   26SOL     vw  104   0.723   2.306   6.202  0.0457 -0.8036 -0.2408
   27SOL     ow  105   0.519   0.509   5.057 -0.0894  0.3427 -0.4833
   27SOL     hw  106   0.614   0.512   5.074  0.4457 -1.9150 -2.5991
   27SOL     hw  107   0.492   0.601   5.058  2.1029  1.0491  0.2147
   27SOL     vw  108   0.528   0.522   5.060  0.2704  0.1380 -0.6704
   28SOL     ow  109   0.857   2.217   5.924  0.9013 -0.5161  0.1982
   28SOL     hw  110   0.898   2.133   5.944 -0.0144 -1.3975 -1.4064
   28SOL     hw  111   0.814   2.204   5.840 -1.0195  0.9336  0.8549
   28SOL     vw  112   0.856   2.204   5.916  0.5271 -0.4412  0.0730
   29SOL     ow  113   1.731   0.510   5.452  0.0168 -0.0604 -0.5050
   29SOL     hw  114   1.773   0.446   5.393 -0.2863  1.0710 -2.0194
   29SOL     hw  115   1.675   0.562   5.394 -3.3592 -1.3325  1.3820
   29SOL     vw  116   1.729   0.508   5.436 -0.4686 -0.0790 -0.4559
   30SOL     ow  117   1.775   0.512   5.105  0.1128 -0.2431  0.0167
   30SOL     hw  118   1.783   0.607   5.114 -0.3253 -0.0679 -1.2743
   30SOL     hw  119   1.685   0.493   5.131  0.3705 -0.3893  0.8264
   30SOL     vw  120   1.764   0.522   5.110  0.0890 -0.2392 -0.0472
   31SOL     ow  121   0.875   2.322   4.153  0.2537 -0.2513 -0.4064
   31SOL     hw  122   0.895   2.345   4.062 -1.1053 -0.2405 -0.7207
   31SOL     hw  123   0.816   2.247   4.147 -0.0862 -0.0676  0.4477
   31SOL     vw  124   0.870   2.315   4.140  0.0296 -0.2258 -0.3350
   32SOL     ow  125   1.256   2.040   0.506 -0.1555  0.2360 -0.2614
   32SOL     hw  126   1.290   2.118   0.461  1.0879 -1.1310 -1.8167
   32SOL     hw  127   1.174   2.020   0.461  0.6935 -0.6647 -1.4977
   32SOL     vw  128   1.250   2.048   0.494  0.1205 -0.0633 -0.6297
   33SOL     ow  129   0.541   1.336   1.447  0.0392 -0.4710  0.4786
   33SOL     hw  130   0.458   1.305   1.485  0.5085 -1.7746  0.4839
   33SOL     hw  131   0.602   1.263   1.460  1.2080  0.4908  0.5196
   33SOL     vw  132   0.538   1.322   1.454  0.2553 -0.5161  0.4847
   34SOL     ow  133   1.120   1.149   1.039  0.2731  0.5091  0.1987
   34SOL     hw  134   1.208   1.141   1.001 -0.1626  1.0704 -0.9731
   34SOL     hw  135   1.122   1.234   1.084 -0.1153  1.2710 -1.1454
   34SOL     vw  136   1.132   1.159   1.040  0.1644  0.6836 -0.1332
   35SOL     ow  137   0.864   1.012   6.073 -0.0979 -0.0026  0.1311
   35SOL     hw  138   0.849   1.003   5.979 -0.7800  0.8184  0.1422
   35SOL     hw  139   0.812   0.942   6.113 -0.9067  0.4757 -0.0487
   35SOL     vw  140   0.855   1.002   6.066 -0.2946  0.1688  0.1087
   36SOL     ow  141   0.527   0.223   2.034 -0.3569 -0.1014  0.2646
   36SOL     hw  142   0.564   0.182   1.956 -1.5610  0.6455 -0.7438
   36SOL     hw  143   0.574   0.307   2.041 -1.6501  0.7760 -0.9248
   36SOL     vw  144   0.538   0.229   2.024 -0.6864  0.1129 -0.0254
   37SOL     ow  145   1.481   1.009   0.119 -0.6084 -0.3344 -0.9648
   37SOL     hw  146   1.527   0.958   0.053 -0.1926 -2.3190  0.7561
   37SOL     hw  147   1.391   1.014   0.087 -0.2530 -0.5855 -2.0387
   37SOL     vw  148   1.475   1.003   0.106 -0.5066 -0.6294 -0.8794
   38SOL     ow  149   1.568   1.329   3.377 -0.5392 -0.4088  0.2065
   38SOL     hw  150   1.505   1.385   3.332  1.8778  0.6066 -2.1778
   38SOL     hw  151   1.633   1.389   3.414  0.4628 -1.4834  0.2807
   38SOL     vw  152   1.569   1.344   3.376 -0.0880 -0.4166 -0.0983
   39SOL     ow  153   1.510   1.107   1.589  0.2501 -0.5894 -0.1554
   39SOL     hw  154   1.484   1.182   1.643 -1.6285  0.7978 -2.7597
   39SOL     hw  155   1.486   1.030   1.642  0.7452  0.6078  1.9283
   39SOL     vw  156   1.504   1.107   1.603  0.0676 -0.2484 -0.2242
   40SOL     ow  157   1.476   1.613   5.202 -0.1531 -0.0659  0.1250
   40SOL     hw  158   1.411   1.597   5.270 -0.8615 -2.5213 -0.9989
   40SOL     hw  159   1.539   1.542   5.211  0.0658 -0.1018 -1.3628
   40SOL     vw  160   1.476   1.602   5.212 -0.2176 -0.3946 -0.2196
   41SOL     ow  161   0.954   1.541   6.022  0.2996 -0.3190 -0.3143
   41SOL     hw  162   0.913   1.531   5.936 -1.4240  3.0317 -0.0046
   41SOL     hw  163   0.883   1.568   6.080  1.6781 -1.2418  1.9356
   41SOL     vw  164   0.939   1.543   6.019  0.2541  0.0014  0.0234
   42SOL     ow  165   0.252   1.457   0.196 -0.1994  0.0710  0.2820
   42SOL     hw  166   0.321   1.499   0.247 -0.6944  1.3491 -0.0556
   42SOL     hw  167   0.213   1.528   0.146 -1.6621 -0.6512  0.3437
   42SOL     vw  168   0.256   1.472   0.196 -0.4577  0.1443  0.2456
   43SOL     ow  169   1.288   1.879   2.040  0.7166 -0.3886  0.5924
   43SOL     hw  170   1.257   1.844   1.956  0.6438 -1.4302  1.0413
   43SOL     hw  171   1.244   1.964   2.048  1.4858  0.1833 -0.8729
   43SOL     vw  172   1.278   1.886   2.030  0.8084 -0.4506  0.4582
   44SOL     ow  173   0.168   1.229   0.558  0.2599  0.1048  0.0850
   44SOL     hw  174   0.161   1.255   0.467  0.0701 -0.1214  0.0348
   44SOL     hw  175   0.195   1.137   0.555 -2.4311 -0.7842  0.1988
   44SOL     vw  176   0.170   1.220   0.546 -0.1202 -0.0424  0.0934
   45SOL     ow  177   0.548   2.042   4.562  0.4087 -0.3439  0.1084
   45SOL     hw  178   0.625   2.025   4.616  0.7795 -2.4339 -1.0103
   45SOL     hw  179   0.574   2.018   4.474 -0.7479  1.3758 -0.7675
   45SOL     vw  180   0.561   2.037   4.558  0.3050 -0.3927 -0.1550
   46SOL     ow  181   0.049   1.326   0.317  0.5935 -0.0806  0.4895
   46SOL     hw  182   0.114   1.388   0.284 -1.5478  1.3999 -1.1808
   46SOL     hw  183   0.009   1.371   0.391 -0.5315  0.3251 -0.3384
   46SOL     vw  184   0.053   1.340   0.323  0.1626  0.1683  0.1599
   47SOL     ow  185   2.352   0.741   1.966 -0.2013 -0.1017  0.1406
   47SOL     hw  186   2.368   0.656   1.924 -0.4083 -2.2930  4.0467
   47SOL     hw  187   2.270   0.729   2.014 -0.1921  2.3080  0.8767
   47SOL     vw  188   2.344   0.728   1.966 -0.2274 -0.0728  0.7530
   48SOL     ow  189   0.524   0.346   5.800  0.2600  0.0396 -0.5602
   48SOL     hw  190   0.502   0.311   5.714  0.5623 -0.8842 -0.2857
   48SOL     hw  191   0.614   0.378   5.791  0.5473 -0.6978 -0.4248
   48SOL     vw  192   0.533   0.345   5.788  0.3378 -0.1796 -0.5059
   49SOL     ow  193   1.201   0.560   0.038 -0.5878  0.0999 -0.4468
   49SOL     hw  194   1.175   0.633  -0.018 -2.5435 -0.6747 -0.6345
   49SOL     hw  195   1.119   0.518   0.062  0.3577 -0.9032  1.2378
   49SOL     vw  196   1.187   0.564   0.034 -0.7211 -0.1346 -0.2493
   50SOL     ow  197   0.898   2.249   0.947 -0.3204  0.3318  0.1922
   50SOL     hw  198   0.861   2.201   0.873 -0.0756  1.0126 -0.3891
   50SOL     hw  199   0.971   2.298   0.910  0.5556 -0.2348  1.1332
   50SOL     vw  200   0.903   2.249   0.933 -0.1726  0.3469  0.2396
   51SOL     ow  201   0.608   2.116   3.524 -0.0071  0.2048  0.0404
   51SOL     hw  202   0.679   2.167   3.563 -0.4290 -0.2755  1.4964
   51SOL     hw  203   0.651   2.039   3.488 -0.0285 -1.8710  3.9594
   51SOL     vw  204   0.623   2.113   3.525 -0.0656 -0.1323  0.7495
   52SOL     ow  205   0.766   1.609   5.570 -0.0279 -0.3855  0.1174
   52SOL     hw  206   0.677   1.576   5.557  0.3190 -0.8764 -1.1751
   52SOL     hw  207   0.800   1.559   5.644 -0.7151 -0.4399  0.3988
   52SOL     vw  208   0.759   1.598   5.578 -0.0728 -0.4574 -0.0162
   53SOL     ow  209   0.388   1.198   0.750 -0.3600 -0.3902 -0.2212
   53SOL     hw  210   0.357   1.139   0.819 -2.1751 -1.1629 -1.6289
   53SOL     hw  211   0.455   1.147   0.704 -0.2744 -0.4708 -0.0107
   53SOL     vw  212   0.393   1.184   0.753 -0.5882 -0.5028 -0.3792
   54SOL     ow  213   1.126   1.057   3.921 -0.4026  0.1780  0.4838
   54SOL     hw  214   1.075   0.995   3.973 -1.2402  2.6707  2.8662
   54SOL     hw  215   1.203   1.076   3.973 -0.5260  1.6609  0.1807
   54SOL     vw  216   1.129   1.052   3.935 -0.5294  0.7026  0.7582
   55SOL     ow  217   0.307   1.928   4.519 -0.2752  0.0789 -0.6589
   55SOL     hw  218   0.294   1.942   4.426  1.2722 -0.3208 -0.9711
   55SOL     hw  219   0.392   1.969   4.538 -0.1900 -0.5425  0.3908
   55SOL     vw  220   0.317   1.935   4.509 -0.0598 -0.0558 -0.5617
   56SOL     ow  221   1.566   0.264   5.575 -0.4293 -0.0628 -0.1764
   56SOL     hw  222   1.475   0.241   5.554 -0.2661 -1.7449  0.7607
   56SOL     hw  223   1.609   0.180   5.591  0.4384  0.7810  2.6822
   56SOL     vw  224   1.559   0.250   5.575 -0.2933 -0.1734  0.3242
   57SOL     ow  225   0.247   2.295   5.854 -0.0904 -0.1180 -0.1812
   57SOL     hw  226   0.170   2.239   5.864  0.3385 -0.4872  1.3328
   57SOL     hw  227   0.318   2.244   5.892  1.0260  0.0011 -2.0068
   57SOL     vw  228   0.246   2.281   5.861  0.1135 -0.1510 -0.2222
   58SOL     ow  229   1.668   0.249   1.408  0.5123  0.1417  0.4105
   58SOL     hw  230   1.656   0.196   1.330  1.5366  1.0702 -0.4217
   58SOL     hw  231   1.587   0.299   1.416  0.2952 -0.1617  0.0962
   58SOL     vw  232   1.656   0.249   1.398  0.6189  0.2242  0.2592
   59SOL     ow  233   0.600   2.270   1.937 -0.1691  0.4274  0.3305
   59SOL     hw  234   0.520   2.305   1.974 -0.1295 -0.6463  1.4737
   59SOL     hw  235   0.635   2.342   1.884 -2.4442  0.5522 -1.1455
   59SOL     vw  236   0.594   2.285   1.935 -0.4640  0.3022  0.2866
   60SOL     ow  237   0.285   0.162   2.120  0.5415 -0.2656  0.0433
   60SOL     hw  238   0.376   0.179   2.094  0.7138 -1.4792 -0.2259
   60SOL     hw  239   0.259   0.087   2.067 -1.1612  1.0224 -1.0407
   60SOL     vw  240   0.294   0.154   2.110  0.3395 -0.2558 -0.1352
   61SOL     ow  241   0.068   1.882   0.944 -0.2934  0.5049  0.3194
   61SOL     hw  242   0.140   1.921   0.994  0.9012  2.2887 -2.5199
   61SOL     hw  243   0.099   1.794   0.923 -0.4142  0.0723  1.8157
   61SOL     vw  244   0.082   1.875   0.948 -0.1517  0.6832  0.1422
   62SOL     ow  245   0.572   1.088   4.350  0.6881 -0.3251 -0.6359
   62SOL     hw  246   0.656   1.055   4.382 -0.0921 -2.8904 -0.9975
   62SOL     hw  247   0.535   1.015   4.300 -0.1954  1.9364 -3.5552
   62SOL     vw  248   0.578   1.074   4.347  0.4686 -0.3651 -1.0688
   63SOL     ow  249   1.675   0.031   1.594  0.0411 -0.0227 -0.3550
   63SOL     hw  250   1.625  -0.043   1.561 -0.7735  0.5202 -0.3587
   63SOL     hw  251   1.634   0.108   1.555  0.7047  0.4588 -0.1396
   63SOL     vw  252   1.663   0.032   1.584  0.0212  0.1125 -0.3271
   64SOL     ow  253   1.142   0.096   4.327 -0.1388 -0.2233  0.2794
   64SOL     hw  254   1.176   0.180   4.297  0.6293  0.0529  1.7891
   64SOL     hw  255   1.219   0.052   4.364 -0.6256 -1.4003 -0.0815
   64SOL     vw  256   1.157   0.101   4.328 -0.1017 -0.3421  0.4308
   65SOL     ow  257   1.742   2.089   5.971 -0.2043  0.0613  0.1340
   65SOL     hw  258   1.743   1.995   5.989  1.1891  0.0996  0.4021
   65SOL     hw  259   1.732   2.095   5.876  0.7402 -0.4104 -0.0122
   65SOL     vw  260   1.741   2.077   5.961  0.1041  0.0042  0.1500
   66SOL     ow  261   0.740   0.371   1.656 -1.0027 -0.3167  0.7446
   66SOL     hw  262   0.665   0.421   1.688 -0.3904  0.0074  1.7311
   66SOL     hw  263   0.800   0.369   1.731 -0.0356 -0.5663 -0.0274
   66SOL     vw  264   0.738   0.378   1.670 -0.7944 -0.3069  0.7730
   67SOL     ow  265   1.403   0.081   5.836  0.1833 -0.0219 -0.1380
   67SOL     hw  266   1.492   0.104   5.864  1.0784 -1.9156 -1.2087
   67SOL     hw  267   1.404   0.095   5.741  0.2258 -2.5209 -0.5718
   67SOL     vw  268   1.415   0.086   5.827  0.3070 -0.6015 -0.3366
   68SOL     ow  269   1.534   0.941   1.990 -0.4122  0.5216 -0.1601
   68SOL     hw  270   1.500   1.010   2.046 -1.5849 -1.3596  1.6221
   68SOL     hw  271   1.629   0.953   1.991 -0.6065  2.2522 -0.1739
   68SOL     vw  272   1.542   0.951   1.998 -0.5926  0.5018  0.0732
   69SOL     ow  273   1.671   0.835   4.133 -0.2684 -0.2612  0.1996
   69SOL     hw  274   1.651   0.794   4.049 -0.2956  0.2428 -0.0473
   69SOL     hw  275   1.669   0.929   4.115 -1.3166 -0.1132  0.9960
   69SOL     vw  276   1.668   0.842   4.120 -0.4103 -0.1752  0.2720
   70SOL     ow  277   2.077   1.017   1.165  0.2403 -0.5426 -0.4083
   70SOL     hw  278   2.062   1.011   1.071  3.0211  0.7589 -1.0388
   70SOL     hw  279   2.172   1.028   1.174 -0.1566  2.0798  2.3829
   70SOL     vw  280   2.087   1.018   1.154  0.5549 -0.0249 -0.1231
   71SOL     ow  281   0.533   0.317   4.769 -0.1371 -0.4587 -0.6454
   71SOL     hw  282   0.446   0.278   4.764 -1.5984  2.1826  1.1826
   71SOL     hw  283   0.519   0.409   4.746  1.0036  1.3115  4.3875
   71SOL     vw  284   0.519   0.324   4.765 -0.1794  0.1234  0.2596
   72SOL     ow  285   2.180   1.321   6.168  0.6137 -0.0720 -0.3737
   72SOL     hw  286   2.212   1.262   6.100 -0.1645  0.2332 -1.0184
   72SOL     hw  287   2.259   1.351   6.213  1.0405 -1.6129 -0.0044
   72SOL     vw  288   2.195   1.317   6.165  0.5673 -0.2351 -0.4101
   73SOL     ow  289   1.236   0.262   5.991  0.2841 -0.1829 -0.2872
   73SOL     hw  290   1.255   0.309   6.072  1.1839 -0.9881 -0.0204
   73SOL     hw  291   1.176   0.320   5.943 -0.2208  0.3236  0.9218
   73SOL     vw  292   1.230   0.276   5.995  0.3362 -0.2223 -0.0925
   74SOL     ow  293   1.309   0.807   2.347  0.7505 -0.5164  0.0601
   74SOL     hw  294   1.237   0.784   2.406  0.2817 -1.4076 -0.8265
   74SOL     hw  295   1.284   0.891   2.310 -0.2137 -1.1325 -0.7627
   74SOL     vw  296   1.296   0.815   2.350  0.5614 -0.7153 -0.1653
   75SOL     ow  297   2.151   0.177   2.062 -0.4741  0.2134 -0.0790
   75SOL     hw  298   2.198   0.093   2.061 -0.3236  0.2975 -0.6048
   75SOL     hw  299   2.186   0.224   1.987 -0.9092  0.5538 -0.0700
   75SOL     vw  300   2.161   0.172   2.052 -0.5118  0.2694 -0.1472
   76SOL     ow  301   1.839   0.371   3.922 -0.3731 -0.3923 -0.3947
   76SOL     hw  302   1.823   0.307   3.992 -1.5229 -0.9637 -1.1428
   76SOL     hw  303   1.752   0.395   3.891  0.0837 -1.5976 -2.8905
   76SOL     vw  304   1.825   0.365   3.927 -0.4646 -0.6267 -0.8228
   77SOL     ow  305   1.685   1.283   3.113 -0.6285  0.0396  0.7398
   77SOL     hw  306   1.716   1.369   3.086  1.4412 -0.4191  1.4508
   77SOL     hw  307   1.684   1.287   3.209 -1.6902 -0.3688  0.7624
   77SOL     vw  308   1.689   1.295   3.122 -0.4954 -0.0748  0.8365
   78SOL     ow  309   1.449   2.119   6.062 -0.2363  0.2911  0.3172
   78SOL     hw  310   1.542   2.109   6.042 -0.4529 -1.7272  0.1265
   78SOL     hw  311   1.409   2.037   6.033 -2.1984  1.3618 -0.2033
   78SOL     vw  312   1.456   2.107   6.056 -0.5237  0.1662  0.2232
   79SOL     ow  313   0.014   1.202   3.767 -0.7287 -0.3981  0.1756
   79SOL     hw  314   0.081   1.173   3.829 -0.7275 -1.0494 -0.1234
   79SOL     hw  315   0.063   1.242   3.695 -0.7259  0.2698  0.5400
   79SOL     vw  316   0.029   1.203   3.766 -0.7282 -0.3960  0.1844
   80SOL     ow  317   1.949   1.444   5.535  0.1674 -0.7584 -0.5181
   80SOL     hw  318   1.861   1.478   5.544 -0.1628 -0.9044 -2.6658
   80SOL     hw  319   1.937   1.357   5.495  1.2359 -1.0364 -0.2668
   80SOL     vw  320   1.936   1.437   5.531  0.2648 -0.8144 -0.7682
   81SOL     ow  321   1.815   0.048   5.969 -0.5341 -0.3960  0.5125
   81SOL     hw  322   1.859   0.101   6.036  0.9455 -1.2888  0.2875
   81SOL     hw  323   1.768   0.112   5.916 -0.2033  0.5185  1.2857
   81SOL     vw  324   1.815   0.064   5.971 -0.2952 -0.3931  0.5846
   82SOL     ow  325   1.875   2.079   2.227 -0.4425 -0.4972 -0.8811
   82SOL     hw  326   1.816   2.047   2.159  0.7395 -0.9847 -1.6961
   82SOL     hw  327   1.945   2.122   2.180  0.2998 -0.6724  0.0374
   82SOL     vw  328   1.876   2.080   2.212 -0.1886 -0.5847 -0.8672
   83SOL     ow  329   1.947   2.241   1.730 -0.0682 -0.6889 -0.3931
   83SOL     hw  330   1.956   2.261   1.824  3.6809  2.8724 -1.2417
   83SOL     hw  331   1.988   2.156   1.720  1.4209 -0.2012  1.0091
   83SOL     vw  332   1.954   2.233   1.741  0.6229 -0.1546 -0.3201
   84SOL     ow  333   1.768   0.316   0.111 -0.0819  0.1345  1.0368
   84SOL     hw  334   1.791   0.346   0.199  1.4415 -2.1504  1.5089
   84SOL     hw  335   1.839   0.348   0.055 -0.5670  0.7975  0.7886
   84SOL     vw  336   1.780   0.324   0.115  0.0551 -0.0795  1.0663
   85SOL     ow  337   0.735   1.267   6.187 -0.7807  0.6548  0.1273
   85SOL     hw  338   0.644   1.246   6.207 -1.2480  0.0445 -2.3577
   85SOL     hw  339   0.731   1.317   6.106  1.0672  1.2334  0.3481
   85SOL     vw  340   0.723   1.271   6.179 -0.5985  0.6507 -0.1714
   86SOL     ow  341   1.311   1.596   2.192 -0.4326 -0.1367  0.6140
   86SOL     hw  342   1.281   1.549   2.270 -3.9947  0.3696 -0.2415
   86SOL     hw  343   1.327   1.528   2.128  3.8401 -0.6670  1.9796
   86SOL     vw  344   1.309   1.581   2.194 -0.3388 -0.1398  0.6814
   87SOL     ow  345   2.275   0.585   3.109 -0.0861 -0.6938  0.1110
   87SOL     hw  346   2.315   0.509   3.152  0.7881 -0.4174 -0.1916
   87SOL     hw  347   2.334   0.658   3.130  0.0162 -0.4308 -1.0162
   87SOL     vw  348   2.288   0.585   3.118  0.0428 -0.6226 -0.0776
   88SOL     ow  349   2.252   1.667   1.062  0.2626  0.2601 -0.1613
   88SOL     hw  350   2.260   1.632   1.151 -1.4434  2.2910  0.9036
   88SOL     hw  351   2.246   1.590   1.006 -0.4706 -1.1192  1.7116
   88SOL     vw  352   2.252   1.652   1.067 -0.0592  0.3461  0.2263
   89SOL     ow  353   2.303   1.034   5.040  0.4893 -0.6191  0.1039
   89SOL     hw  354   2.244   0.982   5.094 -0.8611 -0.7170 -1.3910
   89SOL     hw  355   2.285   1.006   4.951 -0.2720  2.3261 -0.7853
   89SOL     vw  356   2.293   1.024   5.036  0.2106 -0.2434 -0.2108
   90SOL     ow  357   1.452   0.467   0.158  0.3190 -0.2166 -0.2479
   90SOL     hw  358   1.370   0.499   0.122  0.1715  0.1911  0.4460
   90SOL     hw  359   1.446   0.483   0.252  1.0087 -0.5869 -0.1293
   90SOL     vw  360   1.441   0.473   0.166  0.3905 -0.2117 -0.1407
   91SOL     ow  361   1.642   0.991   3.084 -0.3515 -0.2322  0.7648
   91SOL     hw  362   1.589   0.985   3.164 -0.9740  0.3946  0.4053
   91SOL     hw  363   1.658   0.899   3.060 -0.0615 -0.4304  1.6591
   91SOL     vw  364   1.637   0.978   3.091 -0.3954 -0.1757  0.8354
   92SOL     ow  365   1.196   1.979   4.748  0.4024  0.4367  0.0298
   92SOL     hw  366   1.102   1.967   4.735  0.7226  1.1155 -4.2695
   92SOL     hw  367   1.202   2.040   4.821 -2.4893  0.5504  0.3000
   92SOL     vw  368   1.185   1.986   4.756  0.0631  0.5412 -0.5016
   93SOL     ow  369   1.183   1.670   6.064  0.2183  0.1688  0.2165
   93SOL     hw  370   1.104   1.624   6.034  1.4756 -1.0866 -1.3932
   93SOL     hw  371   1.188   1.649   6.157 -3.1083  3.0972  1.2993
   93SOL     vw  372   1.173   1.661   6.072 -0.0547  0.3895  0.1471
   94SOL     ow  373   1.661   0.450   6.462 -0.0184  0.6518 -0.2183
   94SOL     hw  374   1.629   0.479   6.377  1.5937  0.8757 -0.7879
   94SOL     hw  375   1.747   0.491   6.470  0.5404 -0.6527  0.7949
   94SOL     vw  376   1.669   0.459   6.452  0.2680  0.5092 -0.1597
   95SOL     ow  377   1.759   1.274   1.877 -0.0161  0.1021 -0.1859
   95SOL     hw  378   1.667   1.296   1.892 -0.5836 -1.9524 -0.3246
   95SOL     hw  379   1.777   1.203   1.939  1.0134 -0.5611 -1.1955
   95SOL     vw  380   1.749   1.267   1.887  0.0449 -0.2565 -0.3375
   96SOL     ow  381   0.988   1.000   0.808  0.5978 -0.1567 -0.3211
   96SOL     hw  382   1.013   0.909   0.792  1.1367  0.0999 -0.9815
   96SOL     hw  383   1.003   1.045   0.725 -0.1385  0.4388 -0.1412
   96SOL     vw  384   0.994   0.994   0.795  0.5718 -0.0443 -0.3845
   97SOL     ow  385   1.259   2.005   4.492  0.2841  0.0424 -0.0345
   97SOL     hw  386   1.227   1.989   4.581  0.6157 -1.8524 -0.2132
   97SOL     hw  387   1.186   1.978   4.436  0.0647  1.2598 -0.3698
   97SOL     vw  388   1.245   1.999   4.496  0.2989 -0.0469 -0.1023
   98SOL     ow  389   0.866   1.508   5.780 -0.3296 -0.3712 -0.1867
   98SOL     hw  390   0.950   1.491   5.737 -1.2187  1.5603 -2.9023
   98SOL     hw  391   0.830   1.421   5.795  1.4456 -1.2018 -0.4269
   98SOL     vw  392   0.873   1.494   5.776 -0.2127 -0.2259 -0.5767
   99SOL     ow  393   2.136   1.007   1.632 -0.1813 -0.2892  0.6880
   99SOL     hw  394   2.174   0.920   1.642 -1.3246 -1.1435 -1.7752
   99SOL     hw  395   2.208   1.061   1.600  0.2739 -0.5288  1.2682
   99SOL     vw  396   2.151   1.003   1.629 -0.2720 -0.4336  0.4395
  100SOL     ow  397   1.048   0.479   1.739 -0.3955  0.2344 -0.1878
  100SOL     hw  398   1.009   0.402   1.779  2.2309 -2.7029 -2.7809
  100SOL     hw  399   1.139   0.454   1.723  0.3645  3.5710 -2.0435
  100SOL     vw  400   1.055   0.466   1.742  0.0513  0.2871 -0.7748
  101SOL     ow  401   1.519   1.808   2.174  0.0387 -0.4464 -0.2376
  101SOL     hw  402   1.560   1.722   2.177  0.8762 -0.0707 -0.5757
  101SOL     hw  403   1.539   1.841   2.086  0.8467  0.6114  0.3211
  101SOL     vw  404   1.527   1.801   2.163  0.2557 -0.2573 -0.2085
  102SOL     ow  405   0.436   1.454   3.087  0.4888 -0.1611 -0.2740
  102SOL     hw  406   0.424   1.528   3.147 -0.1355  1.0135 -1.7986
  102SOL     hw  407   0.483   1.491   3.012 -0.7003 -1.0672 -1.5115
  102SOL     vw  408   0.441   1.469   3.085  0.2495 -0.1256 -0.6385
  103SOL     ow  409   0.592   1.182   4.068 -0.4640  0.1794 -0.0102
  103SOL     hw  410   0.548   1.119   4.012 -0.9836 -0.0325  0.6184
  103SOL     hw  411   0.672   1.137   4.096 -0.4418  0.1002 -0.2025
  103SOL     vw  412   0.597   1.168   4.064 -0.5296  0.1411  0.0472
  104SOL     ow  413   1.483   1.707   3.681 -0.1720  0.1919 -0.5751
  104SOL     hw  414   1.492   1.781   3.741 -0.4540  1.2682 -1.8333
  104SOL     hw  415   1.400   1.723   3.636 -0.1511 -0.8108 -0.9814
  104SOL     vw  416   1.473   1.719   3.683 -0.2065  0.2016 -0.7946
  105SOL     ow  417   1.363   1.860   6.042  0.2155  0.2339  0.2816
  105SOL     hw  418   1.298   1.796   6.070  1.3484  0.4764  3.9409
  105SOL     hw  419   1.444   1.809   6.032  0.2096  0.4541 -1.1120
  105SOL     vw  420   1.365   1.845   6.044  0.3642  0.2949  0.5805
  106SOL     ow  421   1.522   1.909   4.331 -0.0812 -0.2884  0.7532
  106SOL     hw  422   1.533   1.863   4.249 -1.0296  0.6199  0.0887
  106SOL     hw  423   1.611   1.917   4.367  0.9247  2.3462 -1.8896
  106SOL     vw  424   1.535   1.904   4.325 -0.0737  0.1791  0.3171
  107SOL     ow  425   0.713   2.179   1.197 -0.7123  0.3332  0.1722
  107SOL     hw  426   0.633   2.199   1.148 -0.5893 -0.0188 -0.1828
  107SOL     hw  427   0.727   2.086   1.182 -0.4975  0.2927  0.6259
  107SOL     vw  428   0.704   2.169   1.188 -0.6677  0.2812  0.1853
  108SOL     ow  429   1.713   1.236   1.413 -0.5094  1.2359  0.2218
  108SOL     hw  430   1.806   1.214   1.403 -0.8568  0.5796 -2.5843
  108SOL     hw  431   1.712   1.315   1.467  1.7795  1.9016 -0.6055
  108SOL     vw  432   1.725   1.243   1.419 -0.2533  1.2371 -0.2576
  109SOL     ow  433   1.487   1.716   4.883 -0.1158  0.0673 -0.2275
  109SOL     hw  434   1.561   1.731   4.824 -0.6823 -0.3138 -1.0706
  109SOL     hw  435   1.412   1.705   4.824 -1.0343  1.4773  0.6341
  109SOL     vw  436   1.487   1.716   4.867 -0.3117  0.2030 -0.2251
  110SOL     ow  437   0.086   1.289   4.987  0.4972 -0.3537 -0.1863
  110SOL     hw  438   0.157   1.349   5.010 -1.3232  2.1619 -0.6891
  110SOL     hw  439   0.068   1.307   4.895 -2.2403  0.8015  0.4690
  110SOL     vw  440   0.093   1.299   4.978 -0.1042  0.1306 -0.1662
  111SOL     ow  441   0.018   0.425   5.826 -0.3440 -0.0727  0.0874
  111SOL     hw  442   0.043   0.423   5.733  1.8849 -2.0234  0.6312
  111SOL     hw  443   0.032   0.516   5.852  1.0195  0.0708 -1.0200
  111SOL     vw  444   0.023   0.437   5.817  0.1299 -0.3111  0.0129
  112SOL     ow  445   2.301   1.428   0.933 -0.0185  0.8097 -0.1578
  112SOL     hw  446   2.297   1.469   0.846  0.2739 -0.6461 -0.8939
  112SOL     hw  447   2.210   1.420   0.960 -0.1260  1.1057 -0.4269
  112SOL     vw  448   2.289   1.432   0.925  0.0060  0.6567 -0.2904
  113SOL     ow  449   1.438   1.440   3.720 -0.9859  0.0389  0.2277
  113SOL     hw  450   1.441   1.353   3.680  0.7497  0.5257 -0.7893
  113SOL     hw  451   1.364   1.436   3.780 -1.5174 -1.8361 -0.4916
  113SOL     vw  452   1.429   1.428   3.723 -0.8270 -0.1443 -0.0014
  114SOL     ow  453   1.967   2.293   1.986 -0.2725 -0.2233 -0.1106
  114SOL     hw  454   1.957   2.385   2.010 -1.2964 -0.1465 -0.8061
  114SOL     hw  455   2.062   2.282   1.974 -0.0655  0.5478  0.6912
  114SOL     vw  456   1.978   2.303   1.988 -0.3803 -0.1112 -0.0966
  115SOL     ow  457   1.499   1.238   4.649  0.1641  0.1387  0.4210
  115SOL     hw  458   1.553   1.305   4.691  0.5358  0.1495 -0.0684
  115SOL     hw  459   1.516   1.249   4.555 -0.8215  0.2542  0.2485
  115SOL     vw  460   1.508   1.248   4.642  0.0831  0.1553  0.3338
  116SOL     ow  461   1.849   0.291   4.873 -0.0630  0.0937 -0.5307
  116SOL     hw  462   1.791   0.289   4.797 -1.1489  1.0207  0.2423
  116SOL     hw  463   1.884   0.202   4.879  0.2471  0.0752 -2.2551
  116SOL     vw  464   1.846   0.279   4.864 -0.1653  0.2136 -0.6561
  117SOL     ow  465   0.398   2.294   5.611  0.0445 -0.4859  0.2464
  117SOL     hw  466   0.325   2.274   5.670  2.1376  0.3796  3.4173
  117SOL     hw  467   0.364   2.279   5.523 -3.3997 -1.6704  1.6401
  117SOL     vw  468   0.384   2.289   5.607 -0.1337 -0.5279  0.8488
  118SOL     ow  469   1.955   2.244   6.176  0.0528 -0.2313 -0.2341
  118SOL     hw  470   2.039   2.290   6.168  0.6426 -1.4558 -1.4146
  118SOL     hw  471   1.977   2.161   6.219 -0.7559 -0.0886  0.4931
  118SOL     vw  472   1.969   2.239   6.181  0.0240 -0.3741 -0.2940
  119SOL     ow  473   0.639   1.797   2.135 -0.2073  0.2046  0.0969
  119SOL     hw  474   0.675   1.873   2.089 -0.3137  1.4596  2.0073
  119SOL     hw  475   0.602   1.743   2.065  1.6700  0.8624 -1.5284
  119SOL     vw  476   0.639   1.800   2.119  0.0264  0.4570  0.1343
  120SOL     ow  477   1.549   1.261   0.006  0.7602  0.0435  0.6234
  120SOL     hw  478   1.582   1.216  -0.072 -0.5591 -1.7002  1.0058
  120SOL     hw  479   1.486   1.325  -0.028 -0.5665 -1.4063  0.2719
  120SOL     vw  480   1.545   1.264  -0.009  0.4111 -0.3778  0.6275
  121SOL     ow  481   1.258   2.106   0.866 -0.1572  0.1218 -0.0725
  121SOL     hw  482   1.284   2.198   0.869 -0.4281  0.1725  2.0138
  121SOL     hw  483   1.230   2.085   0.955 -1.6987 -1.5412 -0.8665
  121SOL     vw  484   1.258   2.115   0.878 -0.3964 -0.0908  0.0980
  122SOL     ow  485   1.774   1.020   1.655 -0.3320  0.2290  0.3409
  122SOL     hw  486   1.690   1.062   1.634 -1.0580 -0.7300  1.2114
  122SOL     hw  487   1.751   0.949   1.715  1.0497 -0.3817  0.1943
  122SOL     vw  488   1.760   1.016   1.660 -0.2455  0.0219  0.4364
  123SOL     ow  489   1.811   0.376   1.215  0.1507 -0.0271 -0.4785
  123SOL     hw  490   1.806   0.318   1.140  1.4075  0.0799 -0.6755
  123SOL     hw  491   1.768   0.327   1.286 -1.6984  0.1825 -1.4167
  123SOL     vw  492   1.805   0.362   1.215  0.0725  0.0146 -0.6282
  124SOL     ow  493   0.470   0.078   3.468 -0.6026 -0.0589 -0.1174
  124SOL     hw  494   0.484   0.168   3.496  1.5205 -0.8409  1.7360
  124SOL     hw  495   0.485   0.079   3.373 -1.6081  1.6669 -0.2863
  124SOL     vw  496   0.474   0.090   3.459 -0.4552  0.0656  0.1049
  125SOL     ow  497   2.239   0.560   2.229  0.4875 -0.8430  0.6160
  125SOL     hw  498   2.217   0.633   2.287  1.6498  0.3571 -0.3941
  125SOL     hw  499   2.162   0.548   2.175 -0.2399 -1.3173  1.7196
  125SOL     vw  500   2.226   0.568   2.230  0.5448 -0.7472  0.6282
  126SOL     ow  501   2.306   1.937   1.222 -0.0065 -0.8472  0.5438
  126SOL     hw  502   2.286   2.030   1.215 -2.4695 -1.4081 -1.4128
  126SOL     hw  503   2.382   1.933   1.281 -0.9794  2.2085  2.2433
  126SOL     vw  504   2.314   1.949   1.229 -0.4598 -0.5180  0.5099
  127SOL     ow  505   0.171   0.266   4.277 -0.5023  0.4338 -0.7121
  127SOL     hw  506   0.154   0.360   4.272 -1.2404  0.2504 -1.9970
  127SOL     hw  507   0.263   0.257   4.251 -1.0272  0.6366 -2.8563
  127SOL     vw  508   0.181   0.277   4.273 -0.6689  0.4364 -1.1644
  128SOL     ow  509   1.097   0.005   5.871  0.6017  0.3056  0.0463
  128SOL     hw  510   1.091   0.040   5.783 -0.5741  0.0618  0.0144
  128SOL     hw  511   1.010  -0.031   5.889  1.6397 -2.4162  0.1403
  128SOL     vw  512   1.085   0.005   5.862  0.5836 -0.0857  0.0548
  129SOL     ow  513   1.724   1.823   6.017  1.1829 -0.1110  0.3806
  129SOL     hw  514   1.724   1.758   5.946 -0.5915  2.0577 -1.7957
  129SOL     hw  515   1.673   1.783   6.087  0.2697 -1.1418 -0.8305
  129SOL     vw  516   1.717   1.809   6.017  0.8284  0.0391 -0.0663
  130SOL     ow  517   0.319   1.575   2.782  0.7209 -0.1910  0.0277
  130SOL     hw  518   0.412   1.556   2.797  1.1270 -1.2427 -3.1572
  130SOL     hw  519   0.316   1.613   2.694 -1.9926 -1.5119 -0.5484
  130SOL     vw  520   0.331   1.578   2.773  0.4164 -0.5041 -0.4686
  131SOL     ow  521   0.514   0.203   5.009 -0.4377 -0.6861  0.2699
  131SOL     hw  522   0.511   0.118   4.965 -0.5198 -1.0751  1.0111
  131SOL     hw  523   0.530   0.266   4.939 -0.0456 -1.3473 -0.2435
  131SOL     vw  524   0.516   0.200   4.994 -0.3968 -0.8247  0.2999
  132SOL     ow  525   0.310   0.471   5.912  0.1712  0.1852  0.3037
  132SOL     hw  526   0.312   0.563   5.888  1.0890  0.5708  1.7752
  132SOL     hw  527   0.388   0.433   5.871  0.9977  0.5536  1.4969
  132SOL     vw  528   0.320   0.478   5.904  0.4013  0.2847  0.6557
  133SOL     ow  529   1.870   0.838   4.397  0.5971  0.1195  0.3811
  133SOL     hw  530   1.850   0.908   4.460 -0.8871 -0.2983  0.4190
  133SOL     hw  531   1.945   0.793   4.435  1.0026  1.1246  0.8243
  133SOL     vw  532   1.877   0.841   4.411  0.4548  0.1969  0.4444
  134SOL     ow  533   1.257   0.735   0.254 -0.4813  0.2462  0.4524
  134SOL     hw  534   1.192   0.804   0.239 -0.0839  0.9408  1.7542
  134SOL     hw  535   1.232   0.665   0.194 -2.0776  0.7488  0.4770
  134SOL     vw  536   1.245   0.735   0.244 -0.6396  0.4042  0.6274
  135SOL     ow  537   0.576   1.602   1.545 -0.3811 -0.0102 -0.1582
  135SOL     hw  538   0.551   1.512   1.525 -0.1133  0.0738 -0.8910
  135SOL     hw  539   0.620   1.633   1.466  0.4871  0.4132  0.4770
  135SOL     vw  540   0.579   1.594   1.532 -0.2313  0.0566 -0.1711
  136SOL     ow  541   0.546   1.256   3.235  0.7943  0.0686 -0.1431
  136SOL     hw  542   0.499   1.322   3.184 -0.4039 -1.3623 -0.9444
  136SOL     hw  543   0.517   1.271   3.325 -2.3324 -1.5449 -0.7266
  136SOL     vw  544   0.536   1.267   3.240  0.2237 -0.3330 -0.3258
  137SOL     ow  545   1.770   0.205   4.137 -0.1098 -0.1884  0.7750
  137SOL     hw  546   1.680   0.228   4.112  0.5588  0.2031 -1.5086
  137SOL     hw  547   1.778   0.113   4.112  0.4000  0.0463  0.0467
  137SOL     vw  548   1.759   0.196   4.130  0.0457 -0.1057  0.3779
  138SOL     ow  549   0.447   2.339   0.180 -0.2156 -0.5761 -0.1309
  138SOL     hw  550   0.389   2.365   0.108 -0.0797 -0.0142 -0.0358
  138SOL     hw  551   0.512   2.408   0.185 -0.9634  0.0640  1.3871
  138SOL     vw  552   0.448   2.351   0.171 -0.2963 -0.4175  0.0820
  139SOL     ow  553   2.127   0.419   1.291 -0.0489  0.1813 -0.7811
  139SOL     hw  554   2.158   0.463   1.370  0.2292  0.8126 -1.2320
  139SOL     hw  555   2.206   0.384   1.250  0.0675  1.5617 -1.7940
  139SOL     vw  556   2.142   0.420   1.296  0.0031  0.4467 -0.9742
  140SOL     ow  557   0.055   1.440   2.750 -0.3045 -0.0085  0.6381
  140SOL     hw  558   0.064   1.447   2.655  1.0833  1.3862  0.8416
  140SOL     hw  559   0.010   1.356   2.763  0.7962 -0.9444 -1.1834
  140SOL     vw  560   0.050   1.430   2.739  0.0238  0.0520  0.4246
  141SOL     ow  561   0.249   0.867   2.189 -0.3789 -0.0736  0.2705
  141SOL     hw  562   0.272   0.931   2.256  0.8965 -0.4448  0.2109
  141SOL     hw  563   0.310   0.794   2.203 -1.3516 -0.9805 -0.0984
  141SOL     vw  564   0.260   0.866   2.199 -0.3389 -0.2422  0.2140
  142SOL     ow  565   0.157   1.637   0.936 -0.4076  0.2131  0.2663
  142SOL     hw  566   0.069   1.624   0.971 -0.0591 -0.9945  0.7428
  142SOL     hw  567   0.215   1.628   1.011  0.1192  1.3300  0.0197
  142SOL     vw  568   0.153   1.634   0.950 -0.2921  0.2012  0.2967
  143SOL     ow  569   0.455   0.226   5.575 -0.0247 -0.0672 -0.2420
  143SOL     hw  570   0.362   0.249   5.571  0.2140  1.2463  0.9393
  143SOL     hw  571   0.456   0.130   5.577 -1.2149 -0.1664 -2.4377
  143SOL     vw  572   0.443   0.216   5.575 -0.1503  0.0930 -0.3757
  144SOL     ow  573   1.920   1.097   6.240  0.2330  0.2258 -0.0177
  144SOL     hw  574   1.978   1.022   6.228 -1.4546 -1.2353  0.4843
  144SOL     hw  575   1.842   1.076   6.188 -0.5758  1.2861  0.7042
  144SOL     vw  576   1.917   1.084   6.231 -0.0964  0.1730  0.1438
  145SOL     ow  577   1.490   0.198   0.031 -0.1726 -0.0991  0.2119
  145SOL     hw  578   1.492   0.127  -0.034 -1.9800  0.6359 -0.7349
  145SOL     hw  579   1.416   0.176   0.087 -0.9249  1.1419 -0.2589
  145SOL     vw  580   1.480   0.186   0.030 -0.5104  0.1616  0.0249
  146SOL     ow  581   1.429   1.196   3.584 -0.2994  0.5495 -0.0493
  146SOL     hw  582   1.462   1.237   3.505 -0.7230  0.0139 -0.5154
  146SOL     hw  583   1.474   1.112   3.588 -0.6512  0.3589 -0.0047
  146SOL     vw  584   1.439   1.190   3.574 -0.4016  0.4537 -0.1049
  147SOL     ow  585   1.437   0.896   1.720 -0.0010 -0.1170  0.2413
  147SOL     hw  586   1.441   0.890   1.816 -1.8249  0.8773  0.4346
  147SOL     hw  587   1.417   0.807   1.691  0.6620 -0.4444  0.7691
  147SOL     vw  588   1.435   0.884   1.729 -0.1541 -0.0290  0.3365
  148SOL     ow  589   2.017   0.447   2.485 -0.3190 -0.2032  0.2509
  148SOL     hw  590   2.066   0.387   2.429  0.2112 -0.4954  1.0083
  148SOL     hw  591   1.940   0.471   2.433 -0.0222 -0.7433 -0.4552
  148SOL     vw  592   2.013   0.442   2.471 -0.2099 -0.3130  0.2577
  149SOL     ow  593   1.387   0.234   6.264  0.2687  0.0421  0.9299
  149SOL     hw  594   1.292   0.238   6.275  0.2253  0.9470  0.3952
  149SOL     hw  595   1.409   0.142   6.273 -0.8425 -0.3795 -0.3549
  149SOL     vw  596   1.378   0.223   6.267  0.1164  0.1059  0.6897
  150SOL     ow  597   2.014   2.179   5.880 -0.1661 -0.1372  0.5873
  150SOL     hw  598   2.107   2.203   5.879 -0.1738 -0.1159 -0.1079
  150SOL     hw  599   2.005   2.117   5.808 -0.4613 -1.0548  1.3820
  150SOL     vw  600   2.025   2.174   5.871 -0.2060 -0.2555  0.6006
  151SOL     ow  601   1.311   2.341   6.104 -0.4810 -0.5356 -0.3106
  151SOL     hw  602   1.376   2.274   6.081 -0.5683 -1.5509  2.0794
  151SOL     hw  603   1.272   2.309   6.185 -2.7900  0.8987 -0.7667
  151SOL     vw  604   1.314   2.328   6.111 -0.7972 -0.4803 -0.0553
  152SOL     ow  605   0.604   0.050   5.877 -0.0055 -0.0189 -0.2676
  152SOL     hw  606   0.584  -0.026   5.823  1.3665 -1.2212  0.8487
  152SOL     hw  607   0.532   0.112   5.859 -0.5254 -1.0799 -2.0678
  152SOL     vw  608   0.592   0.048   5.868  0.1069 -0.3175 -0.3579
  153SOL     ow  609   1.355   0.524   0.438  0.0628  0.2676  0.0541
  153SOL     hw  610   1.276   0.518   0.492 -0.4200 -0.3539 -0.6958
  153SOL     hw  611   1.418   0.467   0.482 -0.9856 -1.8937 -1.0786
  153SOL     vw  612   1.352   0.516   0.451 -0.1392 -0.0995 -0.1943
  154SOL     ow  613   1.005   1.195   6.324  0.5747  0.0102 -1.0904
  154SOL     hw  614   1.073   1.260   6.341  0.8648 -0.0298 -2.0261
  154SOL     hw  615   1.026   1.122   6.383  0.5579  0.5422 -0.4222
  154SOL     vw  616   1.017   1.194   6.334  0.6107  0.0752 -1.1258
  155SOL     ow  617   1.854   1.796   2.368 -0.2609  0.8028  0.1145
  155SOL     hw  618   1.893   1.717   2.332  1.0858  0.5293  1.9862
  155SOL     hw  619   1.783   1.765   2.425 -0.4591  1.0123 -0.0164
  155SOL     vw  620   1.850   1.782   2.371 -0.1093  0.7944  0.3443
  156SOL     ow  621   2.097   1.713   5.467  0.0395  0.4199 -0.5080
  156SOL     hw  622   2.089   1.741   5.376 -1.1409  2.0961  0.0459
  156SOL     hw  623   2.043   1.775   5.516  0.2362 -0.7350  1.2905
  156SOL     vw  624   2.089   1.725   5.462 -0.0902  0.4887 -0.1974
  157SOL     ow  625   1.404   0.207   3.115 -0.8562 -0.2227 -0.1418
  157SOL     hw  626   1.326   0.198   3.169  0.0860  0.3399  1.3733
  157SOL     hw  627   1.423   0.301   3.114 -0.0947 -0.3632 -0.3246
  157SOL     vw  628   1.397   0.218   3.122 -0.6314 -0.1670  0.0340
  158SOL     ow  629   1.999   1.125   1.403  0.2456  0.3774 -0.0291
  158SOL     hw  630   2.018   1.081   1.320 -0.0966  0.2311 -0.0312
  158SOL     hw  631   2.059   1.199   1.405  1.9578 -0.9476  0.7035
  158SOL     vw  632   2.009   1.129   1.392  0.4264  0.1833  0.0674
  159SOL     ow  633   0.499   0.470   1.729  0.3078  0.2699 -0.1324
  159SOL     hw  634   0.421   0.414   1.736  1.2486 -1.1499 -0.5226
  159SOL     hw  635   0.480   0.528   1.655  0.3181 -1.2790 -1.4131
  159SOL     vw  636   0.486   0.470   1.720  0.4333 -0.1218 -0.3529
  160SOL     ow  637   1.294   0.509   2.248 -0.4244  0.2940  0.4919
  160SOL     hw  638   1.212   0.540   2.285 -0.1415  1.7081 -0.0003
  160SOL     hw  639   1.284   0.521   2.153 -0.1621 -0.8304  0.3028
  160SOL     vw  640   1.282   0.514   2.240 -0.3524  0.3322  0.4021
  161SOL     ow  641   0.202   0.201   5.840  0.4224 -0.4647 -0.0147
  161SOL     hw  642   0.176   0.221   5.750  2.0114 -0.9689 -0.6152
  161SOL     hw  643   0.230   0.110   5.837  0.4902 -0.4885  1.0104
  161SOL     vw  644   0.202   0.191   5.828  0.6410 -0.5343  0.0417
  162SOL     ow  645   0.985   1.749   5.426 -0.4153  0.2458 -0.0595
  162SOL     hw  646   0.963   1.808   5.354 -0.5707 -0.2010 -0.3815
  162SOL     hw  647   1.048   1.798   5.478 -0.3364  0.5954 -0.4748
  162SOL     vw  648   0.990   1.763   5.423 -0.4254  0.2329 -0.1569
  163SOL     ow  649   0.160   1.121   5.234  0.2868 -0.2389 -0.1844
  163SOL     hw  650   0.243   1.107   5.279 -0.4104 -1.4557  0.7720
  163SOL     hw  651   0.094   1.081   5.291 -1.0158  1.0719 -0.7248
  163SOL     vw  652   0.162   1.114   5.247  0.0229 -0.2266 -0.1295
  164SOL     ow  653   0.877   0.325   1.912 -0.0413 -0.5945 -0.2076
  164SOL     hw  654   0.828   0.352   1.990 -0.9114 -1.8257 -0.2928
  164SOL     hw  655   0.949   0.273   1.946  1.3149  1.2623 -0.0790
  164SOL     vw  656   0.880   0.322   1.927  0.0228 -0.5119 -0.2019
  165SOL     ow  657   0.239   0.361   5.100 -0.6555 -0.0109 -0.0333
  165SOL     hw  658   0.189   0.346   5.180  0.0835  0.9791  0.6372
  165SOL     hw  659   0.222   0.453   5.078  0.6372  0.2759  0.0748
  165SOL     vw  660   0.230   0.371   5.108 -0.3875  0.1576  0.0694
  166SOL     ow  661   0.865   0.211   1.411  0.3658  0.6199  0.1121
  166SOL     hw  662   0.815   0.138   1.448 -1.1908  0.0699 -2.8129
  166SOL     hw  663   0.955   0.194   1.437  0.1250 -2.5841 -0.7606
  166SOL     vw  664   0.870   0.199   1.419  0.1287  0.1246 -0.3889
  167SOL     ow  665   1.689   0.274   4.654  0.2015 -0.1799  0.0638
  167SOL     hw  666   1.604   0.231   4.660  0.4577 -0.5011  2.4252
  167SOL     hw  667   1.719   0.255   4.565 -1.2803 -1.8205 -0.1495
  167SOL     vw  668   1.682   0.266   4.643  0.0398 -0.4387  0.3474
  168SOL     ow  669   0.999   2.219   1.247  0.4377 -0.3967  0.5117
  168SOL     hw  670   1.061   2.151   1.220  2.9331  2.2158 -0.8896
  168SOL     hw  671   1.029   2.247   1.333 -0.3905 -0.8123  0.9500
  168SOL     vw  672   1.011   2.214   1.254  0.6576 -0.1068  0.3846
  169SOL     ow  673   1.515   1.255   2.885 -0.0981 -0.0714  0.5556
  169SOL     hw  674   1.464   1.273   2.964 -0.2987  0.4845  0.3066
  169SOL     hw  675   1.454   1.271   2.813  1.0561  3.2911  0.1000
  169SOL     vw  676   1.500   1.260   2.886  0.0278  0.4456  0.4627
  170SOL     ow  677   0.807   1.596   5.276 -0.1011 -0.4705  0.1465
  170SOL     hw  678   0.738   1.663   5.280 -0.0669 -0.4563  0.6385
  170SOL     hw  679   0.802   1.561   5.188  0.1224  0.4427 -0.2402
  170SOL     vw  680   0.797   1.601   5.265 -0.0671 -0.3482  0.1602
  171SOL     ow  681   2.168   0.661   2.492  0.0979  0.1668 -0.1436
  171SOL     hw  682   2.200   0.674   2.581 -1.5802  0.3858  0.4629
  171SOL     hw  683   2.120   0.578   2.496  1.1237 -0.5087 -1.1922
  171SOL     vw  684   2.166   0.651   2.504  0.0118  0.1065 -0.2019
  172SOL     ow  685   0.258   1.043   4.960 -0.0799  0.7510 -0.0740
  172SOL     hw  686   0.350   1.070   4.971  0.1118  0.6028 -1.2014
  172SOL     hw  687   0.257   0.995   4.877 -0.7858 -1.0882  0.9443
  172SOL     vw  688   0.270   1.041   4.951 -0.1477  0.4887 -0.0887
  173SOL     ow  689   0.846   1.242   3.272 -0.2847  0.6286 -0.3893
  173SOL     hw  690   0.906   1.189   3.324 -1.3919 -0.4572 -0.1814
  173SOL     hw  691   0.838   1.324   3.321  0.4298  0.4967 -0.0342
  173SOL     vw  692   0.853   1.246   3.286 -0.3364  0.4680 -0.3151
  174SOL     ow  693   0.127   1.656   3.003  0.2850 -0.1281  0.0005
  174SOL     hw  694   0.067   1.667   3.077 -0.2713  0.9812 -0.6001
  174SOL     hw  695   0.199   1.716   3.021 -1.2404  2.3850 -1.7316
  174SOL     vw  696   0.129   1.665   3.015  0.0103  0.3498 -0.3073
  175SOL     ow  697   0.108   1.240   0.844 -0.1037 -0.7883 -0.1800
  175SOL     hw  698   0.070   1.153   0.855 -0.4292 -0.7593 -0.9708
  175SOL     hw  699   0.047   1.299   0.889 -1.7631 -0.5902 -2.4858
  175SOL     vw  700   0.095   1.236   0.851 -0.3656 -0.7584 -0.5886
  176SOL     ow  701   1.660   0.562   6.206 -0.6152 -0.2997 -0.1159
  176SOL     hw  702   1.616   0.624   6.149 -0.5189  1.5892  1.7439
  176SOL     hw  703   1.752   0.585   6.202 -0.4161 -1.0745 -0.2553
  176SOL     vw  704   1.666   0.573   6.198 -0.5762 -0.1527  0.1111
  177SOL     ow  705   0.156   0.015   4.056 -0.7155 -0.3735  0.2966
  177SOL     hw  706   0.204  -0.067   4.067  1.1871  0.4676 -0.9937
  177SOL     hw  707   0.101   0.001   3.979 -0.5808 -0.5232  0.2281
  177SOL     vw  708   0.155   0.002   4.047 -0.4467 -0.2823  0.1173
  178SOL     ow  709   0.035   0.147   2.279  0.4289 -0.2187 -0.1478
  178SOL     hw  710  -0.039   0.206   2.291  0.1591 -0.5485 -0.1639
  178SOL     hw  711   0.025   0.082   2.348 -0.2655 -1.2400 -1.1609
  178SOL     vw  712   0.024   0.146   2.289  0.3017 -0.3970 -0.2836
  179SOL     ow  713   0.707   2.042   2.030 -0.2752 -0.6135  0.1574
  179SOL     hw  714   0.777   2.078   2.085  1.0486 -0.4861 -1.5108
  179SOL     hw  715   0.675   2.117   1.981 -0.2005 -1.0189 -0.5195
  179SOL     vw  716   0.712   2.057   2.031 -0.0907 -0.6502 -0.1521
  180SOL     ow  717   1.673   0.570   4.308 -0.2092 -0.7765 -0.3041
  180SOL     hw  718   1.580   0.565   4.287 -1.0218 -0.3437  2.7317
  180SOL     hw  719   1.689   0.494   4.364  0.7855  0.2208  0.8150
  180SOL     vw  720   1.663   0.559   4.312 -0.1852 -0.5878  0.2441
  181SOL     ow  721   2.072   1.263   3.743  0.5461  0.2181  0.4220
  181SOL     hw  722   2.006   1.200   3.714 -0.0332  0.5323  1.0229
  181SOL     hw  723   2.103   1.304   3.663 -0.1926  0.2610  0.1521
  181SOL     vw  724   2.067   1.260   3.729  0.3724  0.2652  0.4658
  182SOL     ow  725   0.323   1.684   2.493 -0.1827 -0.0633  0.1011
  182SOL     hw  726   0.294   1.754   2.435 -1.9692  0.3279  1.3647
  182SOL     hw  727   0.250   1.622   2.494  0.5235 -0.9194  0.6035
  182SOL     vw  728   0.309   1.685   2.486 -0.3252 -0.1246  0.3340
  183SOL     ow  729   1.328   0.826   0.529 -0.1993 -0.3992  0.1076
  183SOL     hw  730   1.249   0.780   0.559 -0.5243  0.6300  0.9081
  183SOL     hw  731   1.388   0.822   0.604  0.4374 -0.9727 -0.4138
  183SOL     vw  732   1.326   0.819   0.543 -0.1582 -0.3391  0.1444
  184SOL     ow  733   1.292   1.905   2.340 -0.5026  0.1496 -0.3035
  184SOL     hw  734   1.268   1.896   2.432  1.1170  1.1022  0.2588
  184SOL     hw  735   1.270   1.996   2.319 -0.3111  0.1090 -0.6746
  184SOL     vw  736   1.286   1.916   2.350 -0.2636  0.2699 -0.2784
  185SOL     ow  737   1.066   1.947   0.696  0.2423  0.3173  0.5598
  185SOL     hw  738   1.057   1.898   0.615 -2.3751 -0.0784  0.9962
  185SOL     hw  739   1.021   1.894   0.762 -0.4266  2.0759  1.5883
  185SOL     vw  740   1.059   1.934   0.694 -0.1913  0.4971  0.7530
  186SOL     ow  741   1.497   2.300   3.234  0.7701  0.5694 -0.5074
  186SOL     hw  742   1.535   2.254   3.309 -0.5151  0.8754  0.3782
  186SOL     hw  743   1.520   2.247   3.159  0.4238 -0.8561  0.3496
  186SOL     vw  744   1.505   2.287   3.234  0.5549  0.4218 -0.2775
  187SOL     ow  745   0.677   1.830   2.876 -0.4329  0.0274 -0.5717
  187SOL     hw  746   0.617   1.877   2.818 -1.0748 -0.7659 -0.5697
  187SOL     hw  747   0.739   1.897   2.905 -1.0321  0.7685 -0.9462
  187SOL     vw  748   0.677   1.845   2.873 -0.5967  0.0204 -0.6208
  188SOL     ow  749   0.550   1.618   2.386 -0.2324  0.3447 -0.0708
  188SOL     hw  750   0.549   1.536   2.337  0.5484  0.1183  0.2747
  188SOL     hw  751   0.464   1.623   2.427  0.3135 -1.2104  1.3852
  188SOL     vw  752   0.539   1.608   2.385 -0.0574  0.1096  0.1668
  189SOL     ow  753   1.930   2.062   0.236  0.8063 -0.1599  0.3621
  189SOL     hw  754   1.967   2.104   0.159 -1.8492  1.0162 -0.4024
  189SOL     hw  755   1.932   1.968   0.216  0.2378  0.1269 -1.1174
  189SOL     vw  756   1.935   2.055   0.224  0.3809  0.0331  0.0660
  190SOL     ow  757   1.278   1.710   4.709  0.3074  0.1147  0.2828
  190SOL     hw  758   1.263   1.803   4.726 -1.0623 -0.1432  0.6456
  190SOL     hw  759   1.190   1.673   4.701  0.7239 -1.5384  2.2928
  190SOL     vw  760   1.264   1.718   4.710  0.1816 -0.1374  0.5958
  191SOL     ow  761   1.835   2.095   2.503 -0.3467 -0.0734  0.0343
  191SOL     hw  762   1.781   2.166   2.468  0.5331  1.1282  1.0620
  191SOL     hw  763   1.904   2.138   2.553  1.1055 -1.5949 -0.5350
  191SOL     vw  764   1.837   2.110   2.505 -0.0389 -0.1156  0.0948
  192SOL     ow  765   0.483   1.218   6.227 -0.0831 -0.1880 -0.1721
  192SOL     hw  766   0.456   1.130   6.255  0.6471 -0.5576 -0.6021
  192SOL     hw  767   0.438   1.277   6.287  1.0565 -0.9315  1.4576
  192SOL     vw  768   0.473   1.214   6.238  0.1636 -0.3349 -0.0138
  193SOL     ow  769   1.561   0.790   0.335  0.3844  0.3143  0.0936
  193SOL     hw  770   1.640   0.738   0.350  1.3377  2.2301  2.3009
  193SOL     hw  771   1.582   0.842   0.257  0.6318 -0.3337 -0.2845
  193SOL     vw  772   1.574   0.790   0.326  0.5429  0.4816  0.3350
  194SOL     ow  773   0.257   1.492   0.722 -0.2362  0.6018 -0.1653
  194SOL     hw  774   0.339   1.535   0.699 -0.2311 -0.0353 -1.4394
  194SOL     hw  775   0.215   1.552   0.784  0.9532  1.1683  0.1254
  194SOL     vw  776   0.262   1.506   0.727 -0.0786  0.5924 -0.2950
  195SOL     ow  777   1.571   1.588   3.936 -0.1142 -0.0702 -0.3838
  195SOL     hw  778   1.540   1.512   3.986  1.5877 -0.0977  0.7255
  195SOL     hw  779   1.579   1.658   4.001 -1.3343  1.0106 -1.3318
  195SOL     vw  780   1.568   1.587   3.952 -0.0507  0.0687 -0.3625
  196SOL     ow  781   1.473   1.941   3.909  0.2294 -0.3542  0.0388
  196SOL     hw  782   1.516   2.024   3.930 -0.8321  0.2468 -0.0811
  196SOL     hw  783   1.387   1.948   3.949  0.5869 -1.9856  1.2039
  196SOL     vw  784   1.468   1.953   3.917  0.1366 -0.4901  0.1767
  197SOL     ow  785   1.933   0.667   4.152 -0.3581 -0.1155 -0.4362
  197SOL     hw  786   1.976   0.581   4.155 -1.4098 -0.6473 -0.0922
  197SOL     hw  787   1.918   0.683   4.059  1.6716  0.6706 -0.6910
  197SOL     vw  788   1.937   0.658   4.140 -0.2291 -0.0820 -0.4244
  198SOL     ow  789   0.810   2.294   3.533  0.0880  0.0490  0.4658
  198SOL     hw  790   0.839   2.385   3.521 -0.6245  0.4056  1.3620
  198SOL     hw  791   0.868   2.243   3.475  0.4558  1.0703 -0.0987
  198SOL     vw  792   0.822   2.300   3.523  0.0425  0.2307  0.5096
  199SOL     ow  793   0.581   1.644   1.888  0.3077 -0.6143 -0.0863
  199SOL     hw  794   0.526   1.595   1.949 -0.3629  0.1534 -0.0613
  199SOL     hw  795   0.669   1.607   1.900  0.6355  0.8163  2.8002
  199SOL     vw  796   0.586   1.633   1.898  0.2625 -0.3243  0.2978
  200SOL     ow  797   0.580   1.565   2.897 -0.3655 -0.2644 -0.2831
  200SOL     hw  798   0.650   1.542   2.958 -0.9274 -0.2159  0.3931
  200SOL     hw  799   0.584   1.660   2.890 -0.1982 -0.2840 -0.4427
  200SOL     vw  800   0.590   1.575   2.904 -0.4176 -0.2606 -0.2148
  201SOL     ow  801   0.186   1.028   0.264 -0.3500  0.0841  0.1295
  201SOL     hw  802   0.240   0.997   0.337  0.2196  0.7140 -0.0096
  201SOL     hw  803   0.111   1.069   0.306  1.1218  2.6190  0.5200
  201SOL     vw  804   0.184   1.029   0.280 -0.0806  0.5016  0.1626
  202SOL     ow  805   1.747   1.993   0.462  0.8295  0.3184 -0.1275
  202SOL     hw  806   1.801   1.914   0.464  1.1266  0.4996 -0.7171
  202SOL     hw  807   1.675   1.971   0.404 -0.7303 -0.5254  1.9825
  202SOL     vw  808   1.745   1.980   0.455  0.6629  0.2310  0.0731
  203SOL     ow  809   1.940   1.249   1.669 -0.3902 -0.0563 -0.2133
  203SOL     hw  810   1.947   1.343   1.653 -0.7764  0.0740  0.3594
  203SOL     hw  811   1.896   1.242   1.754  2.1488 -0.6773  1.1902
  203SOL     vw  812   1.935   1.261   1.678 -0.1062 -0.1211  0.0474
  204SOL     ow  813   2.124   0.423   3.901 -0.5806 -0.7026 -0.1401
  204SOL     hw  814   2.149   0.457   3.987  0.2812 -0.4468 -0.4810
  204SOL     hw  815   2.028   0.418   3.904 -0.5308 -1.5924  1.1648
  204SOL     vw  816   2.114   0.427   3.913 -0.4604 -0.7863 -0.0130
  205SOL     ow  817   0.466   0.688   2.953  0.5683  0.0012  0.4015
  205SOL     hw  818   0.404   0.761   2.959  0.6308  0.2723 -1.5885
  205SOL     hw  819   0.490   0.685   2.860 -1.8276 -4.4974 -0.3667
  205SOL     vw  820   0.461   0.697   2.941  0.2605 -0.5566  0.0377
  206SOL     ow  821   1.046   1.085   3.381 -0.0981  1.1468  0.3104
  206SOL     hw  822   1.071   1.010   3.328 -0.6595 -0.2609  1.9655
  206SOL     hw  823   1.103   1.081   3.457 -1.6321  1.0435  1.5076
  206SOL     vw  824   1.056   1.075   3.384 -0.3747  0.9475  0.6865
  207SOL     ow  825   1.482   0.695   2.103 -0.1533  0.1870 -0.1174
  207SOL     hw  826   1.567   0.658   2.077 -1.1954 -1.4541 -1.4038
  207SOL     hw  827   1.482   0.782   2.064  1.0476  0.3334  0.1531
  207SOL     vw  828   1.493   0.701   2.094 -0.1323 -0.0102 -0.2514
  208SOL     ow  829   0.213   1.355   3.006 -0.8850  0.1237 -0.1516
  208SOL     hw  830   0.222   1.268   2.967 -1.6434  0.3756 -0.9072
  208SOL     hw  831   0.302   1.381   3.029 -0.7908 -1.5150  1.5580
  208SOL     vw  832   0.226   1.347   3.004 -0.9727 -0.0592 -0.0256
  209SOL     ow  833   1.164   1.128   3.605  0.0361 -0.6354  0.2997
  209SOL     hw  834   1.250   1.162   3.577 -0.5240 -0.1373 -0.9038
  209SOL     hw  835   1.111   1.207   3.619 -0.1261 -0.9306  1.4141
  209SOL     vw  836   1.169   1.143   3.603 -0.0592 -0.6086  0.2879
  210SOL     ow  837   0.054   0.670   5.896 -0.2695  0.0263 -0.2237
  210SOL     hw  838  -0.005   0.706   5.962  0.4439 -0.8489  0.9544
  210SOL     hw  839   0.134   0.723   5.904  0.5740 -1.3394  1.1167
  210SOL     vw  840   0.057   0.681   5.906 -0.0641 -0.2694  0.1085
  211SOL     ow  841   2.187   0.658   2.837  0.0628 -0.1696  0.1055
  211SOL     hw  842   2.248   0.614   2.778  1.0914  0.2495  0.8111
  211SOL     hw  843   2.209   0.751   2.829 -0.8783  0.0492 -0.0472
  211SOL     vw  844   2.198   0.665   2.828  0.0744 -0.0854  0.1785
  212SOL     ow  845   0.259   1.500   5.121 -0.4753 -1.0770 -0.4009
  212SOL     hw  846   0.255   1.490   5.216  2.9661 -2.1532 -0.2080
  212SOL     hw  847   0.305   1.582   5.107 -0.0622 -1.4078 -1.0757
  212SOL     vw  848   0.265   1.509   5.132  0.0333 -1.2627 -0.4642
  213SOL     ow  849   2.190   0.313   2.301 -0.6478 -0.1992  0.8527
  213SOL     hw  850   2.209   0.406   2.285  0.4920 -0.4327  0.7842
  213SOL     hw  851   2.179   0.275   2.213  2.7929 -0.9003  0.6169
  213SOL     vw  852   2.191   0.320   2.287 -0.0434 -0.3225  0.8125
  214SOL     ow  853   0.873   0.184   6.022 -0.3487 -0.1313  0.0432
  214SOL     hw  854   0.871   0.217   5.932  0.1214  1.1198  0.4812
  214SOL     hw  855   0.829   0.251   6.074 -2.5246 -1.7833  0.4940
  214SOL     vw  856   0.867   0.197   6.017 -0.5738 -0.1842  0.1602
  215SOL     ow  857   1.285   2.144   1.133 -0.6211  0.8655 -0.4103
  215SOL     hw  858   1.298   2.077   1.200 -1.8770 -0.4687 -1.4179
  215SOL     hw  859   1.361   2.136   1.075 -0.9534 -0.0061 -0.7490
  215SOL     vw  860   1.296   2.134   1.134 -0.8307  0.5744 -0.5879
  216SOL     ow  861   0.288   0.972   0.508 -0.1460  0.3052  0.4614
  216SOL     hw  862   0.378   0.956   0.536 -0.1251  0.3055  0.3935
  216SOL     hw  863   0.236   0.908   0.557 -0.2223  0.9304  1.2285
  216SOL     vw  864   0.293   0.962   0.518 -0.1533  0.3877  0.5536
  217poe    c31  865   2.170   0.916   0.368  0.2259 -0.8616  0.1412
  217poe     o2  866   2.299   0.894   0.422  0.4535 -0.0063 -0.0372
  217poe    c23  867   2.316   0.756   0.447  0.5399  0.0655  0.3063
  217poe    c23  868   2.375   0.720   0.584 -0.0397 -0.3823  0.4437
  217poe     o2  869   2.509   0.759   0.606 -0.1600  0.2265  0.1264
  217poe    c23  870   2.608   0.659   0.595  0.2261  0.5335  0.8011
  217poe    c23  871   2.729   0.684   0.687  0.0814  0.8800  0.8991
  217poe     o2  872   2.803   0.789   0.630  0.0285  0.4517  0.0307
  217poe    c23  873   2.912   0.821   0.713  0.2702  0.0692 -0.1357
  217poe    c23  874   2.988   0.926   0.631  0.6201 -0.1730 -0.1244
  217poe     o2  875   2.913   1.045   0.621 -0.0863 -0.6128 -0.0631
  217poe    c31  876   2.984   1.139   0.544 -0.2850 -0.2051  0.2484
  218poe    c31  877   0.737   0.208   0.108 -0.0852 -0.1914 -0.0697
  218poe     o2  878   0.635   0.166   0.196 -0.5425  0.5827 -0.2212
  218poe    c23  879   0.650   0.246   0.311 -0.0004  0.2712 -0.0682
  218poe    c23  880   0.526   0.236   0.402 -0.0363  0.1660 -0.1284
  218poe     o2  881   0.514   0.104   0.448  0.3328  0.2450  0.2048
  218poe    c23  882   0.387   0.084   0.507  0.3838  0.3433  0.3469
  218poe    c23  883   0.335  -0.057   0.539 -0.1337  0.4145 -0.1659
  218poe     o2  884   0.345  -0.131   0.419  0.1944 -0.0835  0.1694
  218poe    c23  885   0.246  -0.231   0.412  0.1566 -0.0206 -0.2240
  218poe    c23  886   0.255  -0.298   0.274  0.1681 -0.4701 -0.0075
  218poe     o2  887   0.391  -0.305   0.237  0.2654 -0.3245  0.3142
  218poe    c31  888   0.411  -0.357   0.107  0.3763 -0.1265  0.2514
  219poe    c31  889   2.256   0.952   2.290  0.0487  0.4694  0.7542
  219poe     o2  890   2.238   0.974   2.152 -0.3116  0.0314  0.7277
  219poe    c23  891   2.266   1.112   2.140 -0.1672 -0.0227  0.4155
  219poe    c23  892   2.334   1.134   2.004 -0.5125 -0.3453  0.1897
  219poe     o2  893   2.439   1.043   1.975  0.0198  0.3896 -0.2113
  219poe    c23  894   2.510   1.066   1.855 -0.1416  0.0209 -0.3777
  219poe    c23  895   2.647   0.996   1.857  0.0020  0.3134  0.0173
  219poe     o2  896   2.632   0.860   1.891  0.1829  0.2439 -0.1771
  219poe    c23  897   2.759   0.800   1.892 -0.0653 -0.2867 -0.0323
  219poe    c23  898   2.768   0.661   1.959  0.2186 -0.1670  0.1827
  219poe     o2  899   2.765   0.660   2.100 -0.4396 -0.1756  0.1741
  219poe    c31  900   2.808   0.533   2.143  0.4265  0.0465 -0.0145
  220poe    c31  901   1.494   2.297   3.611  0.0675 -0.5216  0.0013
  220poe     o2  902   1.602   2.290   3.521  0.3876  0.2980  0.3100
  220poe    c23  903   1.660   2.161   3.528  0.2208  0.1809 -0.3645
  220poe    c23  904   1.740   2.129   3.401  0.3664  0.8176 -0.4372
  220poe     o2  905   1.654   2.091   3.296  0.0872 -0.2317  0.1602
  220poe    c23  906   1.717   2.061   3.173  0.5248  0.8689  0.1029
  220poe    c23  907   1.618   2.012   3.066  0.3673  0.3924  0.4558
  220poe     o2  908   1.540   2.124   3.031  0.1231 -0.1082 -0.6637
  220poe    c23  909   1.440   2.079   2.943 -0.2404  0.2005 -0.4141
  220poe    c23  910   1.353   2.202   2.911  0.0698  0.6244  0.3579
  220poe     o2  911   1.411   2.307   2.836 -0.0036  0.1585 -0.3564
  220poe    c31  912   1.328   2.417   2.805  0.0269  0.1336 -0.5275
  221poe    c31  913   0.404   1.044   1.026  1.2591 -1.0362 -0.7437
  221poe     o2  914   0.298   1.021   0.936 -0.1120  0.2548  0.4959
  221poe    c23  915   0.203   0.953   1.016 -0.5135  0.0431 -0.1522
  221poe    c23  916   0.089   0.896   0.931 -0.3381  0.1868 -0.4863
  221poe     o2  917  -0.005   0.996   0.896 -0.1336  0.5526  0.0044
  221poe    c23  918  -0.119   0.935   0.840  0.2698  0.1794 -0.4168
  221poe    c23  919  -0.224   1.037   0.791 -0.1012 -0.1200 -0.2506
  221poe     o2  920  -0.283   1.100   0.902  0.3298  0.2704 -0.2409
  221poe    c23  921  -0.382   1.190   0.855 -0.3149 -0.3255 -0.0324
  221poe    c23  922  -0.431   1.297   0.953  0.4254  0.3580 -0.3962
  221poe     o2  923  -0.331   1.391   0.985  0.7704 -0.2876  0.4584
  221poe    c31  924  -0.400   1.497   1.047  0.0468 -0.3167 -0.2809
  222poe    c31  925   0.607   0.039   3.793 -0.0692 -0.4645  0.0662
  222poe     o2  926   0.516  -0.039   3.719  0.1269 -0.1388 -0.5246
  222poe    c23  927   0.392  -0.048   3.786  0.3042 -0.4691 -0.2379
  222poe    c23  928   0.300  -0.159   3.732 -0.2276 -0.1461 -0.0059
  222poe     o2  929   0.307  -0.141   3.592 -0.7387  0.1836  0.0064
  222poe    c23  930   0.249  -0.238   3.508  0.0411  0.0613 -0.4076
  222poe    c23  931   0.247  -0.204   3.358  0.1453 -0.0197 -0.4271
  222poe     o2  932   0.384  -0.189   3.325  0.2932  0.2245  0.2655
  222poe    c23  933   0.403  -0.153   3.190  0.0583 -0.0372  0.1603
  222poe    c23  934   0.554  -0.144   3.159  0.0760 -0.1177  0.2229
  222poe     o2  935   0.595  -0.015   3.199  0.0471  0.1987 -0.7324
  222poe    c31  936   0.734   0.009   3.211  0.0509 -0.3198  0.4497
  223poe    c31  937   0.280   1.505   1.697 -0.7861 -0.0332 -0.3643
  223poe     o2  938   0.329   1.637   1.698 -0.1900 -0.2523  0.6532
  223poe    c23  939   0.255   1.736   1.767 -0.5941 -0.0701 -0.0381
  223poe    c23  940   0.309   1.877   1.735  0.1521 -0.2963  0.2007
  223poe     o2  941   0.447   1.864   1.757  0.2011  0.0013  0.0717
  223poe    c23  942   0.522   1.972   1.705 -0.1916  0.5297  0.5787
  223poe    c23  943   0.673   1.946   1.720 -0.2503  0.2468  0.6969
  223poe     o2  944   0.699   1.809   1.698 -0.0557  0.4147 -0.1827
  223poe    c23  945   0.836   1.783   1.714 -0.0630  0.2552 -0.3860
  223poe    c23  946   0.858   1.631   1.698 -0.1739  0.1567  0.3333
  223poe     o2  947   0.808   1.550   1.801 -0.2953 -0.1984 -0.0030
  223poe    c31  948   0.820   1.423   1.740 -0.3362 -0.0163 -0.3888
  224poe    c31  949   1.677   1.798   2.666 -0.1988  0.2055  0.0240
  224poe     o2  950   1.696   1.719   2.551 -0.3092  0.2717 -0.0398
  224poe    c23  951   1.598   1.620   2.528 -0.7018  0.8654 -0.9851
  224poe    c23  952   1.636   1.520   2.417  0.1349  0.2194 -0.1316
  224poe     o2  953   1.632   1.577   2.288 -0.6146  0.2640 -0.0880
  224poe    c23  954   1.668   1.480   2.192  0.6221  0.4140  0.2114
  224poe    c23  955   1.742   1.539   2.071  0.2105  0.1348 -0.1793
  224poe     o2  956   1.669   1.650   2.023  0.0392  0.1104  0.0238
  224poe    c23  957   1.745   1.718   1.925 -0.3085  0.2402 -0.1563
  224poe    c23  958   1.689   1.860   1.905  0.2050  0.3451 -0.8655
  224poe     o2  959   1.711   1.950   2.011 -0.5462  0.0884 -0.4846
  224poe    c31  960   1.693   2.082   1.965  0.0960  0.3216 -0.0786
  225poe    c31  961   0.338   1.063   5.489 -0.4851  0.8543  0.1748
  225poe     o2  962   0.371   1.097   5.356 -0.0615  0.5878  0.2099
  225poe    c23  963   0.495   1.163   5.341  0.1958  0.0904  0.1225
  225poe    c23  964   0.518   1.222   5.200  0.2352 -0.3134 -0.0403
  225poe     o2  965   0.529   1.125   5.099 -0.4123 -0.1380 -0.2815
  225poe    c23  966   0.630   1.156   5.005  0.0905 -0.1400  0.2573
  225poe    c23  967   0.628   1.057   4.887  0.4260  0.0465  0.0948
  225poe     o2  968   0.522   1.075   4.796  0.5564  0.0353 -0.0592
  225poe    c23  969   0.525   0.977   4.695  0.1726  0.6260 -0.6572
  225poe    c23  970   0.391   0.968   4.621 -0.0146  0.6703 -0.3285
  225poe     o2  971   0.289   0.938   4.713  0.5203 -0.1382  0.0125
  225poe    c31  972   0.179   0.866   4.660  0.2911  0.0874  0.1760
  226poe    c31  973   0.716   2.247   5.559 -0.4150 -0.7032 -0.8786
  226poe     o2  974   0.707   2.157   5.667  0.1330  0.2383 -0.0242
  226poe    c23  975   0.664   2.032   5.616 -0.9554  0.6511 -0.1610
  226poe    c23  976   0.590   1.970   5.736  0.2944  0.3310  0.4642
  226poe     o2  977   0.668   1.957   5.853  0.2585  0.1802  0.4717
  226poe    c23  978   0.781   1.873   5.842 -0.3903 -0.6490  0.0471
  226poe    c23  979   0.880   1.879   5.960 -0.2810  0.6434 -0.0967
  226poe     o2  980   0.938   2.004   5.987  0.2551  0.3919 -0.0656
  226poe    c23  981   1.023   2.016   6.098 -0.2949 -0.0662  0.4105
  226poe    c23  982   0.947   2.005   6.232 -0.3002 -0.1945  0.3970
  226poe     o2  983   0.846   2.101   6.250 -0.1655  0.1253 -0.4844
  226poe    c31  984   0.819   2.058   6.382  0.7816  0.1037 -0.2872
  227poe    c31  985   2.165   0.185   4.115  0.2474 -0.0777 -0.0430
  227poe     o2  986   2.262   0.129   4.200  0.0954 -0.0970  0.1166
  227poe    c23  987   2.195   0.061   4.304 -0.1686  0.2081  0.1471
  227poe    c23  988   2.291   0.013   4.414  0.1025  0.1376 -0.1178
  227poe     o2  989   2.420  -0.013   4.363  0.2837  0.5937  0.0944
  227poe    c23  990   2.509  -0.062   4.460  0.2148 -0.2154 -0.2428
  227poe    c23  991   2.648  -0.080   4.395  0.3169 -0.3035 -0.0024
  227poe     o2  992   2.673   0.025   4.304  0.5483 -0.3500  0.0063
  227poe    c23  993   2.809   0.055   4.288  0.4400  0.3991  0.4411
  227poe    c23  994   2.833   0.157   4.175  0.4973  0.2116  0.2819
  227poe     o2  995   2.751   0.271   4.187  0.2314  0.0556 -0.0451
  227poe    c31  996   2.770   0.360   4.078  0.2753 -0.3041 -0.3322
  228poe    c31  997   2.296   1.804   2.566 -0.0359  0.4077  0.2859
  228poe     o2  998   2.254   1.936   2.540 -0.1139  0.2860 -0.2049
  228poe    c23  999   2.200   1.997   2.655 -0.0524 -0.1823  0.0743
  228poe    c23 1000   2.191   2.150   2.661 -0.4489 -0.1873 -0.3531
  228poe     o2 1001   2.096   2.205   2.572 -0.5359  0.2690  0.0144
  228poe    c23 1002   2.107   2.344   2.586  0.4070  0.2154 -0.1120
  228poe    c23 1003   2.004   2.413   2.495 -0.2401 -0.2941  0.2270
  228poe     o2 1004   1.874   2.400   2.548 -0.3488 -0.2934 -0.0405
  228poe    c23 1005   1.773   2.446   2.460 -0.1518 -0.2752 -0.2572
  228poe    c23 1006   1.639   2.382   2.501 -0.0031 -0.1653  0.4142
  228poe     o2 1007   1.613   2.246   2.472  0.3308 -0.1635  0.0914
  228poe    c31 1008   1.474   2.228   2.454  0.1824  0.1399  0.8875
  229poe    c31 1009   0.366   0.815   4.188 -0.6375 -0.0675 -0.1452
  229poe     o2 1010   0.365   0.936   4.260  0.0326 -0.1294 -0.0257
  229poe    c23 1011   0.239   0.999   4.255  0.1962  0.1559 -0.7207
  229poe    c23 1012   0.241   1.131   4.176 -0.1645  0.5503 -0.0765
  229poe     o2 1013   0.334   1.224   4.225 -0.0130  0.1707  0.3676
  229poe    c23 1014   0.296   1.356   4.193 -0.1837 -0.0770 -0.4574
  229poe    c23 1015   0.391   1.457   4.260  0.3426 -0.5001 -0.5597
  229poe     o2 1016   0.524   1.408   4.258  0.1209 -1.1082 -0.5689
  229poe    c23 1017   0.622   1.494   4.312 -0.1279 -0.9271 -0.4038
  229poe    c23 1018   0.755   1.442   4.256  0.4255 -0.4710  0.4707
  229poe     o2 1019   0.754   1.305   4.289 -0.1484 -0.2744  1.2978
  229poe    c31 1020   0.884   1.252   4.300  0.0499 -0.1638 -0.2851
  230poe    c31 1021   0.492   2.217   0.910 -0.0631 -0.1901  0.8577
  230poe     o2 1022   0.496   2.275   1.038  0.7319  0.6007  0.4914
  230poe    c23 1023   0.442   2.404   1.052  0.2447  0.4888 -0.2798
  230poe    c23 1024   0.500   2.517   0.965 -0.0892  0.4822 -0.5117
  230poe     o2 1025   0.631   2.556   1.002  0.1894 -0.4637 -0.4656
  230poe    c23 1026   0.693   2.644   0.911 -0.0749  0.3230  0.1046
  230poe    c23 1027   0.778   2.562   0.813 -0.4300 -0.4838  0.4683
  230poe     o2 1028   0.710   2.456   0.748 -0.3323 -0.0212 -0.4004
  230poe    c23 1029   0.772   2.402   0.634  0.2448  0.2548 -0.2224
  230poe    c23 1030   0.747   2.252   0.613 -0.3235  0.2777  0.2898
  230poe     o2 1031   0.777   2.160   0.717 -0.2634 -0.2962 -0.2263
  230poe    c31 1032   0.775   2.028   0.670  0.0914 -0.3044 -0.2187
  231poe    c31 1033   1.204   1.245   3.070 -0.5270 -0.5725 -0.3461
  231poe     o2 1034   1.322   1.314   3.106 -0.7317 -0.4797  0.1593
  231poe    c23 1035   1.313   1.449   3.067  0.7201 -0.5396 -0.4328
  231poe    c23 1036   1.328   1.538   3.192  0.3591 -1.0405 -0.0296
  231poe     o2 1037   1.465   1.552   3.223  0.2708  0.5413 -0.2996
  231poe    c23 1038   1.466   1.657   3.318  0.0408  0.0715  0.2245
  231poe    c23 1039   1.609   1.689   3.363  0.1373  0.1164 -0.1131
  231poe     o2 1040   1.661   1.591   3.451 -0.0090 -0.0320 -0.1919
  231poe    c23 1041   1.793   1.624   3.490 -0.3010  0.6736  0.2090
  231poe    c23 1042   1.851   1.558   3.616  0.0087  0.0765 -0.2459
  231poe     o2 1043   1.760   1.555   3.723  0.1725  0.0030 -0.1083
  231poe    c31 1044   1.843   1.515   3.829  0.2487 -0.4180 -0.3258
  232poe    c31 1045   0.757   0.036   5.187  0.7585 -0.1747 -0.1221
  232poe     o2 1046   0.693  -0.078   5.135 -0.0275  0.1948  0.0142
  232poe    c23 1047   0.710  -0.100   4.997  0.7122  0.3443  0.0758
  232poe    c23 1048   0.582  -0.132   4.917  0.0638  0.5135  1.0420
  232poe     o2 1049   0.502  -0.016   4.900 -0.0779  0.2896  0.1814
  232poe    c23 1050   0.394  -0.047   4.814  0.0268  0.1989  0.0814
  232poe    c23 1051   0.288   0.064   4.803 -0.2343 -0.0889 -0.3420
  232poe     o2 1052   0.330   0.160   4.709  0.3104  0.1861  0.1705
  232poe    c23 1053   0.221   0.244   4.678 -0.2338 -0.6317 -0.1821
  232poe    c23 1054   0.261   0.354   4.578 -0.9277 -0.1050  0.1150
  232poe     o2 1055   0.353   0.448   4.629 -0.1932 -0.6589 -0.1716
  232poe    c31 1056   0.386   0.541   4.530 -0.4732 -0.9186 -0.5123
  233poe    c31 1057   1.352   0.922   4.412  0.7463  0.2207  0.2663
  233poe     o2 1058   1.334   1.024   4.508  0.3188 -0.2455  0.6879
  233poe    c23 1059   1.195   1.044   4.520  0.1001 -1.0553 -0.3873
  233poe    c23 1060   1.145   1.035   4.665  0.2987 -0.2024 -0.2623
  233poe     o2 1061   1.221   1.123   4.746  0.1780 -0.0881 -0.2736
  233poe    c23 1062   1.158   1.154   4.868 -0.3220 -0.0052 -0.5470
  233poe    c23 1063   1.249   1.259   4.935  0.2675 -0.2388 -0.9777
  233poe     o2 1064   1.382   1.218   4.911  0.4827 -0.1939  0.1014
  233poe    c23 1065   1.468   1.277   5.006  0.2924  0.0014  0.1537
  233poe    c23 1066   1.615   1.287   4.960  0.1643  0.0101 -0.2496
  233poe     o2 1067   1.649   1.359   4.843  0.1469 -0.0344 -0.2820
  233poe    c31 1068   1.785   1.395   4.842  0.2581 -0.4443 -0.1900
  234poe    c31 1069   2.068   2.134   0.618  0.0508  0.8801  0.3052
  234poe     o2 1070   1.975   2.200   0.535  0.3290  0.2779 -0.5012
  234poe    c23 1071   1.966   2.334   0.576 -0.0493  0.0530  0.1726
  234poe    c23 1072   1.899   2.402   0.455 -0.4025  0.3285  0.5229
  234poe     o2 1073   1.782   2.327   0.433 -0.2095  0.2819 -0.3560
  234poe    c23 1074   1.700   2.390   0.337 -0.8066  0.6501  0.3888
  234poe    c23 1075   1.607   2.282   0.279  0.1406 -0.1634  0.3556
  234poe     o2 1076   1.680   2.166   0.247  0.3191  0.0876 -0.1558
  234poe    c23 1077   1.607   2.087   0.156  0.5657 -0.0272 -0.2545
  234poe    c23 1078   1.501   1.986   0.204  0.5401 -0.1635 -0.5925
  234poe     o2 1079   1.556   1.896   0.298  0.0106  0.2657  0.1300
  234poe    c31 1080   1.469   1.785   0.307  0.5392 -0.1852 -0.3072
  235poe    c31 1081   1.731   1.618   2.982  0.3444  0.3252  0.0138
  235poe     o2 1082   1.800   1.495   2.974  0.5416  0.4342  0.0146
  235poe    c23 1083   1.848   1.473   2.843  0.0359  0.0656 -0.1132
  235poe    c23 1084   1.934   1.345   2.842 -0.4836 -0.2878 -0.1075
  235poe     o2 1085   1.870   1.236   2.904 -0.5996 -0.1028  0.0981
  235poe    c23 1086   1.908   1.107   2.860  0.0852  0.2208 -0.2747
  235poe    c23 1087   1.821   1.037   2.755 -0.1454  0.0539  0.0266
  235poe     o2 1088   1.686   1.032   2.797  0.0181 -0.1769  0.5259
  235poe    c23 1089   1.616   0.960   2.699 -0.0421  0.6253 -0.0249
  235poe    c23 1090   1.472   0.932   2.745  0.1265  0.0900  0.1795
  235poe     o2 1091   1.384   1.040   2.721 -0.0500 -0.1544 -0.3014
  235poe    c31 1092   1.248   1.005   2.726 -0.0165 -0.3500 -0.7889
  236poe    c31 1093   0.147   0.606   4.917  0.0184  0.2867 -0.0361
  236poe     o2 1094   0.218   0.604   5.038 -0.3556 -0.3468  0.1772
  236poe    c23 1095   0.212   0.734   5.093 -0.1098 -0.2550 -0.0114
  236poe    c23 1096   0.264   0.745   5.237 -0.0411 -0.0947 -0.0479
  236poe     o2 1097   0.399   0.706   5.242 -0.1750 -0.5271  0.2915
  236poe    c23 1098   0.458   0.704   5.370  0.1003 -0.0127  0.1729
  236poe    c23 1099   0.611   0.696   5.349  0.0889 -0.0587  0.1105
  236poe     o2 1100   0.641   0.565   5.308  0.0151 -0.1985  0.5075
  236poe    c23 1101   0.778   0.536   5.293  0.0429 -0.0277  0.4333
  236poe    c23 1102   0.846   0.615   5.180 -0.1009 -0.0403  0.3380
  236poe     o2 1103   0.796   0.567   5.057 -0.5385  0.7722  0.1937
  236poe    c31 1104   0.825   0.644   4.942 -0.1666  0.2285 -0.0812
  237poe    c31 1105   1.179   0.008   1.556  0.1448 -0.4174  0.3249
  237poe     o2 1106   1.044  -0.010   1.518  0.1860  0.1023 -0.0800
  237poe    c23 1107   0.961  -0.031   1.630  0.2314  0.5256  0.0354
  237poe    c23 1108   0.828  -0.094   1.586  0.2608  0.3416  0.2090
  237poe     o2 1109   0.748   0.018   1.554 -0.0656  0.1541  0.3598
  237poe    c23 1110   0.622  -0.024   1.506  0.3148 -0.0185 -0.5232
  237poe    c23 1111   0.520   0.087   1.475  0.1945  0.2243  0.6651
  237poe     o2 1112   0.580   0.179   1.386 -0.4106  0.0227  0.0331
  237poe    c23 1113   0.521   0.307   1.383 -0.5238 -0.0331 -0.1073
  237poe    c23 1114   0.589   0.392   1.274 -0.1118 -0.3876 -0.1294
  237poe     o2 1115   0.720   0.427   1.313 -0.3472  0.0615  0.2693
  237poe    c31 1116   0.766   0.516   1.213  0.1152 -0.5219 -0.0468
  238poe    c31 1117   1.682   0.097   2.932  0.6841  0.3263 -0.1039
  238poe     o2 1118   1.685   0.101   3.072 -0.1879 -0.2490 -0.0618
  238poe    c23 1119   1.807   0.157   3.113 -0.4641  0.1624  0.2073
  238poe    c23 1120   1.815   0.173   3.266 -0.2683 -0.8510  0.3098
  238poe     o2 1121   1.692   0.234   3.295  0.1300  0.0200  0.2036
  238poe    c23 1122   1.692   0.281   3.428  0.0778  0.7809 -0.0555
  238poe    c23 1123   1.550   0.332   3.458 -0.3929 -0.6479  0.2248
  238poe     o2 1124   1.465   0.222   3.433 -0.3177 -0.6797  0.1081
  238poe    c23 1125   1.330   0.251   3.459 -0.1113 -0.1369  0.5877
  238poe    c23 1126   1.226   0.138   3.447 -0.4825  0.2998 -0.4816
  238poe     o2 1127   1.205   0.115   3.310  0.7307 -0.2741 -0.5852
  238poe    c31 1128   1.121   0.004   3.286  0.3704 -0.2154  0.3431
  239poe    c31 1129   0.164   0.691   2.532  0.5347 -0.2707  0.2092
  239poe     o2 1130   0.097   0.571   2.564  0.6104 -0.4368 -0.2467
  239poe    c23 1131   0.148   0.521   2.686  0.2036 -0.3929 -0.0591
  239poe    c23 1132   0.059   0.405   2.734 -0.0224 -0.2167 -0.0489
  239poe     o2 1133  -0.076   0.443   2.745  0.1607  0.4162  0.0217
  239poe    c23 1134  -0.168   0.340   2.772 -0.0870  0.6722  0.1675
  239poe    c23 1135  -0.316   0.366   2.805 -0.2010 -0.1747  0.3454
  239poe     o2 1136  -0.335   0.437   2.925  0.3280  0.6230 -0.0330
  239poe    c23 1137  -0.459   0.505   2.920 -0.1480 -0.2361 -0.1020
  239poe    c23 1138  -0.466   0.601   3.040  0.5490 -0.6341  0.2635
  239poe     o2 1139  -0.354   0.686   3.048  0.3423 -0.3411  0.0233
  239poe    c31 1140  -0.353   0.778   3.155 -0.2507 -0.4324  0.1134
  240poe    c31 1141   0.549   1.150   0.200 -0.0787  0.9168 -0.2345
  240poe     o2 1142   0.473   1.032   0.184  0.6711  0.4453 -0.3904
  240poe    c23 1143   0.551   0.931   0.124  0.4284 -0.1024  0.1966
  240poe    c23 1144   0.464   0.808   0.094  0.1296  0.3248 -0.7136
  240poe     o2 1145   0.342   0.862   0.047 -0.2726  0.0096 -0.0432
  240poe    c23 1146   0.254   0.751   0.041 -0.3806  0.0429  0.8317
  240poe    c23 1147   0.141   0.777  -0.060  0.0548  0.2902  0.3990
  240poe     o2 1148   0.061   0.889  -0.028 -0.8109 -0.2102  0.0430
  240poe    c23 1149  -0.004   0.941  -0.142 -0.9663 -0.8894 -0.1850
  240poe    c23 1150  -0.056   1.078  -0.093  0.3548 -0.4666  0.0835
  240poe     o2 1151   0.036   1.169  -0.037  0.3558  0.2281 -1.0094
  240poe    c31 1152  -0.021   1.292   0.002  0.1642 -0.2020  0.1104
  241poe    c31 1153   1.081   1.032   2.220  0.2570 -0.3968 -0.2490
  241poe     o2 1154   1.206   1.023   2.285 -0.1148  0.0233  0.5498
  241poe    c23 1155   1.274   1.144   2.263  0.0069 -0.0435  0.5589
  241poe    c23 1156   1.420   1.131   2.312  0.1745 -0.5691 -0.0655
  241poe     o2 1157   1.503   1.059   2.224  0.1174 -1.1945  0.3906
  241poe    c23 1158   1.635   1.087   2.262 -0.0210  0.3165 -0.1631
  241poe    c23 1159   1.762   1.026   2.199  0.0611  0.6648 -0.3374
  241poe     o2 1160   1.801   1.063   2.069 -0.3019  0.0933 -0.6159
  241poe    c23 1161   1.916   0.994   2.025 -0.1485 -0.1484  0.1486
  241poe    c23 1162   1.884   0.857   1.962 -0.0241  0.0103 -0.2654
  241poe     o2 1163   1.784   0.869   1.863  0.0398  0.1447 -0.3140
  241poe    c31 1164   1.761   0.742   1.807  0.4154 -0.1855  0.2628
  242poe    c31 1165   0.445   2.058   6.117  0.4853 -0.5162  0.3086
  242poe     o2 1166   0.364   2.068   6.002 -0.5061 -0.4235  0.9936
  242poe    c23 1167   0.281   1.955   6.011 -0.0741 -0.8279  0.0322
  242poe    c23 1168   0.193   1.924   5.888 -0.4035 -0.2160  0.1136
  242poe     o2 1169   0.112   2.038   5.872 -0.4624 -0.1847  0.6074
  242poe    c23 1170   0.022   2.035   5.764 -0.1842 -0.6289  0.3874
  242poe    c23 1171   0.078   2.038   5.620 -0.7515  0.4257  0.1762
  242poe     o2 1172   0.126   2.158   5.566 -0.2156  0.2271  0.2083
  242poe    c23 1173   0.124   2.176   5.426 -0.3253  0.2431  0.2114
  242poe    c23 1174   0.185   2.304   5.365 -0.0395 -0.4243 -0.9310
  242poe     o2 1175   0.325   2.299   5.353  0.0500 -0.8218  0.1664
  242poe    c31 1176   0.359   2.320   5.218 -0.2963  0.2867  0.2425
  243poe    c31 1177   2.165   1.837   5.126 -0.0494 -0.2315 -0.0013
  243poe     o2 1178   2.131   1.716   5.190 -0.2381 -0.2197 -0.0794
  243poe    c23 1179   2.169   1.598   5.123 -0.0371 -0.2509  0.0913
  243poe    c23 1180   2.119   1.471   5.194  0.3235 -0.2665  0.3218
  243poe     o2 1181   2.152   1.448   5.330  0.6308 -0.0614  0.2820
  243poe    c23 1182   2.269   1.370   5.329  0.1062 -0.8553  0.2163
  243poe    c23 1183   2.296   1.330   5.475  0.4937 -0.2055  0.3248
  243poe     o2 1184   2.269   1.442   5.556  0.0838 -0.0674  0.0020
  243poe    c23 1185   2.271   1.403   5.692  0.4550 -0.2750 -0.0622
  243poe    c23 1186   2.280   1.527   5.782 -0.4122  0.1647 -0.5633
  243poe     o2 1187   2.168   1.611   5.768 -0.2626  0.3989 -0.3698
  243poe    c31 1188   2.149   1.704   5.872 -0.7898 -0.2777  0.1508
  244poe    c31 1189   0.691   0.904   3.293  0.6661 -0.2227 -0.4785
  244poe     o2 1190   0.698   0.997   3.188 -0.2709  0.5681  0.1441
  244poe    c23 1191   0.711   0.934   3.063 -0.4898  0.5198  0.1449
  244poe    c23 1192   0.700   1.042   2.954 -0.0438  0.3349 -0.0887
  244poe     o2 1193   0.748   1.166   3.002 -0.0419  0.2872  0.0324
  244poe    c23 1194   0.764   1.262   2.900 -0.2493  0.5856  0.2821
  244poe    c23 1195   0.852   1.379   2.946  0.1750  0.4649 -0.2166
  244poe     o2 1196   0.794   1.477   3.029 -0.0272  0.2552 -0.1107
  244poe    c23 1197   0.883   1.528   3.126 -0.1891  0.0582  0.1433
  244poe    c23 1198   0.825   1.592   3.253 -0.6350 -0.1052  0.0270
  244poe     o2 1199   0.816   1.497   3.357 -0.7320 -0.0478  0.0709
  244poe    c31 1200   0.748   1.567   3.459 -0.5877  0.0684  0.0875
  245poe    c31 1201   2.156   0.710   3.658 -0.3248 -0.5603  0.5576
  245poe     o2 1202   2.257   0.638   3.725  0.1410 -0.4749 -0.0422
  245poe    c23 1203   2.383   0.700   3.723 -0.0637 -0.0532 -0.0518
  245poe    c23 1204   2.471   0.604   3.805 -0.2235  0.0267  0.2153
  245poe     o2 1205   2.429   0.475   3.765  0.0390 -0.0100  0.0573
  245poe    c23 1206   2.539   0.388   3.779  0.0533 -0.1389 -0.7768
  245poe    c23 1207   2.514   0.256   3.704  0.7158 -0.4910 -0.3951
  245poe     o2 1208   2.405   0.201   3.775  0.6453  0.0330 -0.0903
  245poe    c23 1209   2.358   0.088   3.705  0.2448  0.1974 -0.0916
  245poe    c23 1210   2.281  -0.007   3.798  0.1853  0.5015  0.1683
  245poe     o2 1211   2.366  -0.078   3.884 -0.3883  0.2131  0.5029
  245poe    c31 1212   2.288  -0.167   3.962 -0.3878 -0.2539 -0.0206
  246poe    c31 1213   1.964   0.266   5.660  0.2014  0.6237 -0.5468
  246poe     o2 1214   1.871   0.320   5.751 -0.2993 -0.3234 -0.4944
  246poe    c23 1215   1.916   0.444   5.800 -0.5903 -0.4750  0.1761
  246poe    c23 1216   1.789   0.518   5.845 -0.3591 -0.0605  0.1538
  246poe     o2 1217   1.685   0.503   5.752 -0.1896  0.1250 -0.0648
  246poe    c23 1218   1.601   0.613   5.781  0.0072  0.2533  0.0163
  246poe    c23 1219   1.456   0.571   5.754 -0.0498  0.8751 -0.6534
  246poe     o2 1220   1.469   0.522   5.622  0.4569 -0.2363 -0.1985
  246poe    c23 1221   1.388   0.603   5.541  0.6054 -0.1250 -0.2354
  246poe    c23 1222   1.406   0.583   5.389 -0.3300 -0.0681 -0.3579
  246poe     o2 1223   1.530   0.626   5.339 -0.1326  0.3198  0.4526
  246poe    c31 1224   1.536   0.765   5.318  0.2898  0.1302 -0.7679
  247poe    c31 1225   1.179   1.777   5.098  0.1739 -0.2168 -0.0280
  247poe     o2 1226   1.307   1.836   5.092 -0.2721  0.8313  0.5256
  247poe    c23 1227   1.322   1.960   5.156 -0.0410  0.5140  1.0941
  247poe    c23 1228   1.448   2.026   5.098  0.1494 -0.7190  0.0804
  247poe     o2 1229   1.540   1.924   5.131  0.6507 -0.2028  0.3006
  247poe    c23 1230   1.669   1.971   5.102  0.4335  0.3527  0.2255
  247poe    c23 1231   1.773   1.859   5.090 -0.0061 -0.0859  0.5043
  247poe     o2 1232   1.767   1.790   4.967  0.8954 -0.4271  0.6403
  247poe    c23 1233   1.853   1.832   4.864 -0.4007 -0.0306 -0.3085
  247poe    c23 1234   1.822   1.774   4.724  0.3459  0.2525 -0.5991
  247poe     o2 1235   1.685   1.783   4.694  0.1336  0.5375  0.4123
  247poe    c31 1236   1.646   1.698   4.589  0.0980  0.3469  0.5779
  248poe    c31 1237   0.324   0.637   3.307 -0.2424 -0.1608 -0.1255
  248poe     o2 1238   0.372   0.537   3.220 -0.2874  0.0111 -0.3513
  248poe    c23 1239   0.360   0.401   3.258 -0.0679  0.0264 -0.2246
  248poe    c23 1240   0.396   0.310   3.139  0.0504  0.1192 -0.2607
  248poe     o2 1241   0.516   0.365   3.091  0.2386  0.2398  0.3425
  248poe    c23 1242   0.580   0.280   2.999 -0.2047  0.2661  0.0114
  248poe    c23 1243   0.687   0.368   2.931 -0.0087 -0.1487 -0.2150
  248poe     o2 1244   0.622   0.480   2.877  0.0447  0.1306  0.2975
  248poe    c23 1245   0.680   0.518   2.755  0.0578 -0.6668  0.0531
  248poe    c23 1246   0.580   0.595   2.666  0.3704 -0.0349  0.2442
  248poe     o2 1247   0.563   0.729   2.705  0.0621 -0.0338  0.1029
  248poe    c31 1248   0.523   0.794   2.586 -0.0204 -0.4711 -0.1110
  249poe    c31 1249   1.162   1.145   0.544 -0.3379  0.1516  0.0574
  249poe     o2 1250   1.056   1.171   0.633 -0.2567 -0.1690  0.2479
  249poe    c23 1251   1.041   1.311   0.638  0.0108 -0.1606  0.8733
  249poe    c23 1252   0.926   1.368   0.723 -0.1461  0.4254  0.2755
  249poe     o2 1253   0.921   1.324   0.857 -0.2932 -0.3750  0.0111
  249poe    c23 1254   0.793   1.341   0.912 -0.3133  0.7459 -0.3596
  249poe    c23 1255   0.787   1.284   1.055  1.0267  0.2830 -0.4690
  249poe     o2 1256   0.818   1.147   1.056 -0.2607 -0.0298  0.2620
  249poe    c23 1257   0.799   1.079   1.178  0.0988  0.4063  0.5696
  249poe    c23 1258   0.803   0.926   1.157  0.1854  0.4789  0.0502
  249poe     o2 1259   0.913   0.915   1.069 -0.0439 -0.4348 -0.1324
  249poe    c31 1260   0.995   0.808   1.108  0.0413 -0.4572 -0.3701
  250poe    c31 1261   1.207   0.798   5.007  0.6328 -1.0371  0.3841
  250poe     o2 1262   1.227   0.796   4.868 -0.2849 -0.0207  0.2234
  250poe    c23 1263   1.195   0.666   4.821  0.0009 -0.0341  0.0653
  250poe    c23 1264   1.269   0.628   4.692 -0.0779 -0.0059  0.0115
  250poe     o2 1265   1.407   0.625   4.723 -0.1490 -0.5246  0.2967
  250poe    c23 1266   1.491   0.608   4.611  0.1795  0.0691  0.4505
  250poe    c23 1267   1.631   0.643   4.664  0.5511 -0.1118 -0.3930
  250poe     o2 1268   1.647   0.781   4.690 -0.3252 -0.1043  0.1367
  250poe    c23 1269   1.781   0.814   4.715 -0.4102  0.4425 -0.1179
  250poe    c23 1270   1.812   0.965   4.712  0.2851  0.3092  0.0832
  250poe     o2 1271   1.832   1.012   4.580  0.6065  0.2281  0.1021
  250poe    c31 1272   1.835   1.153   4.574 -0.4484  0.2497  0.0171
  251poe    c31 1273   1.878   1.691   0.230  0.0992 -0.5263 -0.3417
  251poe     o2 1274   1.961   1.802   0.207 -0.5527 -0.0172 -0.2856
  251poe    c23 1275   2.069   1.747   0.134 -0.2303  0.2905 -0.0456
  251poe    c23 1276   2.175   1.858   0.140 -0.2968  0.3351  0.3708
  251poe     o2 1277   2.114   1.970   0.080 -0.4500  0.1791  0.2316
  251poe    c23 1278   2.206   2.076   0.060 -0.1786  0.0445  0.7436
  251poe    c23 1279   2.146   2.201  -0.007  0.1162  0.0264  0.4447
  251poe     o2 1280   2.042   2.241   0.080 -0.1022 -0.0025  0.1982
  251poe    c23 1281   2.003   2.375   0.059 -0.0153 -0.1516 -0.9775
  251poe    c23 1282   2.099   2.485   0.107 -0.7418  0.1248 -0.1415
  251poe     o2 1283   2.121   2.486   0.247 -0.1231 -0.1800 -0.2332
  251poe    c31 1284   2.216   2.582   0.287  0.4870 -0.8253 -0.1106
  252poe    c31 1285   1.589   2.072   4.679 -0.0012 -0.2643  0.0928
  252poe     o2 1286   1.554   2.118   4.550  0.4203 -0.1582  0.0166
  252poe    c23 1287   1.581   2.254   4.528  0.8170 -0.2652 -0.1807
  252poe    c23 1288   1.557   2.283   4.378  0.0427  0.1620  0.0196
  252poe     o2 1289   1.439   2.215   4.338  0.2722 -0.3351  0.1750
  252poe    c23 1290   1.418   2.241   4.201 -0.4311  0.5045  0.4324
  252poe    c23 1291   1.290   2.176   4.145 -0.0406  0.2760 -0.2120
  252poe     o2 1292   1.276   2.036   4.153 -0.0659  0.2811 -0.1664
  252poe    c23 1293   1.151   1.998   4.100 -0.1710  0.4719 -0.0566
  252poe    c23 1294   1.110   1.872   4.179 -0.2960  0.2251 -0.5124
  252poe     o2 1295   1.102   1.879   4.320  0.1192 -0.4126 -0.4560
  252poe    c31 1296   1.102   1.750   4.378  0.0205 -0.4387 -0.5141
  253poe    c31 1297   1.518   0.045   1.188 -0.0696  0.0774 -0.0879
  253poe     o2 1298   1.657   0.042   1.165 -0.0768  0.3458 -0.1664
  253poe    c23 1299   1.674   0.057   1.025  0.0225  0.5725 -0.1322
  253poe    c23 1300   1.818   0.079   0.978  0.2181  0.1079  0.2379
  253poe     o2 1301   1.858   0.213   0.998 -0.4529  0.3748 -0.1899
  253poe    c23 1302   1.994   0.234   0.966 -0.4083 -0.3483 -0.4993
  253poe    c23 1303   1.999   0.382   0.926 -0.0458 -0.2638 -0.1431
  253poe     o2 1304   1.974   0.480   1.024  0.0882 -0.1574 -0.2148
  253poe    c23 1305   1.980   0.614   0.980  0.2069  0.0346  0.3643
  253poe    c23 1306   1.931   0.706   1.093  0.1746  0.5204 -0.0406
  253poe     o2 1307   1.978   0.660   1.217 -0.8832 -0.4785  0.0103
  253poe    c31 1308   1.935   0.723   1.336  0.4243  0.4733  0.0042
  254poe    c31 1309   1.725   1.015   1.195 -0.5230  0.3821 -0.1702
  254poe     o2 1310   1.617   1.002   1.284 -0.0689  0.1489  0.3579
  254poe    c23 1311   1.539   0.889   1.251 -0.0553  0.1517  0.3157
  254poe    c23 1312   1.436   0.856   1.361 -0.3700 -0.2491 -0.0987
  254poe     o2 1313   1.362   0.975   1.374  0.2206  0.0923  0.1790
  254poe    c23 1314   1.228   0.940   1.402  0.0797  0.4693 -0.0181
  254poe    c23 1315   1.144   1.065   1.433 -0.6558 -0.0081 -0.0522
  254poe     o2 1316   1.158   1.152   1.322 -0.4604  0.0960  0.0520
  254poe    c23 1317   1.151   1.285   1.367  0.5860  0.3044 -0.3933
  254poe    c23 1318   1.086   1.379   1.264 -0.1058  0.0443 -0.1937
  254poe     o2 1319   1.151   1.370   1.139  0.3090 -0.0621  0.0287
  254poe    c31 1320   1.152   1.497   1.077  0.0519 -0.1121 -0.0799
  255poe    c31 1321   0.397   1.622   3.365 -0.0431 -0.8685 -0.5171
  255poe     o2 1322   0.440   1.654   3.234 -0.0891 -0.5020 -0.4431
  255poe    c23 1323   0.407   1.791   3.220 -0.0905 -0.4677 -0.1198
  255poe    c23 1324   0.407   1.862   3.084 -0.4658 -0.2380 -0.0022
  255poe     o2 1325   0.279   1.835   3.030 -0.4630 -0.1931 -0.0312
  255poe    c23 1326   0.260   1.916   2.916 -0.3232 -0.3280 -0.1515
  255poe    c23 1327   0.325   1.904   2.778 -0.2495 -0.2357 -0.1243
  255poe     o2 1328   0.451   1.967   2.767 -0.0001 -0.6385  0.4084
  255poe    c23 1329   0.452   2.107   2.783  0.3492 -0.6349  0.3742
  255poe    c23 1330   0.589   2.157   2.735  0.1113  0.2942  0.6388
  255poe     o2 1331   0.686   2.084   2.806 -0.2492 -0.3778  0.4502
  255poe    c31 1332   0.801   2.163   2.787 -0.6780  0.2342  0.3726
  256poe    c31 1333   1.094   1.020   5.803  0.4619  0.3363  0.1535
  256poe     o2 1334   0.969   1.085   5.814  0.2848  0.0664 -0.2098
  256poe    c23 1335   0.919   1.124   5.688 -0.1400 -0.2896 -0.1529
  256poe    c23 1336   0.770   1.153   5.711  0.0047 -0.1054  0.5963
  256poe     o2 1337   0.744   1.255   5.805 -0.2154  0.2744  0.1291
  256poe    c23 1338   0.611   1.242   5.848 -0.3114  0.2922 -0.1633
  256poe    c23 1339   0.551   1.377   5.890 -0.0246  0.4222 -0.1688
  256poe     o2 1340   0.622   1.428   6.001 -0.2018  0.0274  0.1258
  256poe    c23 1341   0.577   1.559   6.025  0.2242  0.2162 -0.1003
  256poe    c23 1342   0.625   1.612   6.162 -0.5436  0.9689 -0.1126
  256poe     o2 1343   0.762   1.630   6.191 -0.5539  0.6447  0.1445
  256poe    c31 1344   0.799   1.631   6.327  0.0794 -0.0454 -0.0151
  257poe    c31 1345   2.049   0.590   4.887  1.0859 -0.0695 -0.1001
  257poe     o2 1346   2.023   0.514   5.003  0.0636 -0.2192 -0.4207
  257poe    c23 1347   2.145   0.465   5.055  0.1774  0.6660  0.1755
  257poe    c23 1348   2.110   0.362   5.163 -0.0471  0.4025 -0.1461
  257poe     o2 1349   1.985   0.296   5.151 -0.0074  0.3093 -0.0552
  257poe    c23 1350   1.978   0.183   5.234  0.3759  0.2947 -0.0379
  257poe    c23 1351   1.833   0.132   5.229  0.4208  0.1743 -0.1013
  257poe     o2 1352   1.745   0.235   5.268  0.1509 -0.2410  0.4021
  257poe    c23 1353   1.606   0.214   5.267  0.0987  0.1297 -0.3091
  257poe    c23 1354   1.516   0.257   5.149 -0.4285 -0.2621 -0.0556
  257poe     o2 1355   1.532   0.396   5.137  0.0392 -0.3124 -0.0424
  257poe    c31 1356   1.428   0.429   5.047 -0.1002 -0.3010  0.1232
  258poe    c31 1357   0.967   2.170   4.468 -0.3782 -0.0720 -0.0443
  258poe     o2 1358   0.922   2.302   4.447  0.2155  0.1421  0.0123
  258poe    c23 1359   0.844   2.333   4.560  0.0428  0.1673 -0.1120
  258poe    c23 1360   0.816   2.484   4.552  0.4407  0.2372 -0.1846
  258poe     o2 1361   0.793   2.516   4.416  0.0366  0.2545 -0.1114
  258poe    c23 1362   0.757   2.651   4.398  0.2777  0.3836  0.3606
  258poe    c23 1363   0.870   2.706   4.308 -0.0944  0.2058 -0.2191
  258poe     o2 1364   0.927   2.604   4.229  0.1640  0.2110 -0.0424
  258poe    c23 1365   0.916   2.642   4.093  0.0912 -0.3814 -0.2032
  258poe    c23 1366   1.011   2.571   3.994  0.3271  0.6254 -0.7093
  258poe     o2 1367   0.946   2.455   3.946  0.3232  0.5050 -0.4167
  258poe    c31 1368   1.028   2.404   3.843 -0.2374 -0.6983 -0.2776
  259poe    c31 1369   1.463   0.762   6.466 -0.0167  0.1307 -0.1660
  259poe     o2 1370   1.555   0.863   6.502  0.1779 -0.0354 -0.2020
  259poe    c23 1371   1.683   0.817   6.462  0.2586  0.4598 -0.5136
  259poe    c23 1372   1.782   0.925   6.509  0.4548 -0.0415  0.2318
  259poe     o2 1373   1.785   0.952   6.648  0.3598 -0.3774  0.3015
  259poe    c23 1374   1.861   1.067   6.681 -0.4496  0.2176  0.1238
  259poe    c23 1375   1.830   1.117   6.824 -0.1464 -0.2449  0.3547
  259poe     o2 1376   1.704   1.179   6.832 -0.0115  0.0423  0.2509
  259poe    c23 1377   1.706   1.267   6.942 -0.0753  0.3199  0.0312
  259poe    c23 1378   1.596   1.375   6.930  0.1450  0.4912 -0.4610
  259poe     o2 1379   1.494   1.309   6.857  0.2259 -0.3505  0.1791
  259poe    c31 1380   1.368   1.366   6.885  0.4263  0.3550 -0.3413
  260poe    c31 1381   1.292   1.702   0.694 -0.8409  0.3864 -0.4848
  260poe     o2 1382   1.336   1.835   0.705  0.0233  0.1437 -0.9473
  260poe    c23 1383   1.473   1.839   0.670  0.0567  0.1581 -0.8176
  260poe    c23 1384   1.540   1.954   0.747 -0.7731  0.1756 -0.1103
  260poe     o2 1385   1.498   2.079   0.696 -0.1833  0.2887 -0.3256
  260poe    c23 1386   1.580   2.182   0.745  0.1196  0.0855 -0.4035
  260poe    c23 1387   1.515   2.314   0.699  0.0025  0.3846  0.6024
  260poe     o2 1388   1.397   2.319   0.776 -0.3405  0.5338  0.0671
  260poe    c23 1389   1.316   2.414   0.710  0.2517  0.4442 -0.8014
  260poe    c23 1390   1.236   2.495   0.813 -0.5616 -0.1508 -0.9478
  260poe     o2 1391   1.155   2.415   0.896  0.3633 -0.2916 -0.1656
  260poe    c31 1392   1.162   2.474   1.024 -0.2573 -0.1258 -0.2051
  261poe    c31 1393   0.005   1.951   4.305  0.2713  0.4847  0.1584
  261poe     o2 1394  -0.001   1.882   4.428  0.1603  0.3779  0.0928
  261poe    c23 1395  -0.095   1.943   4.514  0.1519 -0.0390  0.3867
  261poe    c23 1396  -0.096   1.856   4.641 -0.0540  0.4287  0.7111
  261poe     o2 1397   0.037   1.839   4.685  0.2458  0.4205 -0.1677
  261poe    c23 1398   0.051   1.783   4.814 -0.3450  0.2461 -0.1767
  261poe    c23 1399   0.201   1.804   4.841 -0.3715  0.3516 -0.1063
  261poe     o2 1400   0.283   1.768   4.732 -0.1175  0.3146  0.0965
  261poe    c23 1401   0.408   1.723   4.778 -0.1461 -0.3090 -0.4159
  261poe    c23 1402   0.407   1.572   4.809 -0.1852 -0.2738 -0.2447
  261poe     o2 1403   0.360   1.499   4.698 -0.2169 -0.2125 -0.2723
  261poe    c31 1404   0.403   1.364   4.698  0.1332 -0.1036 -0.7249
  262poe    c31 1405   1.193   1.401   5.703  0.4349 -0.1037 -0.1488
  262poe     o2 1406   1.136   1.529   5.684 -0.0356 -0.3432 -0.3551
  262poe    c23 1407   1.241   1.620   5.704 -0.1964 -0.2758  0.1864
  262poe    c23 1408   1.189   1.761   5.737 -0.3790 -0.2648 -0.1492
  262poe     o2 1409   1.178   1.837   5.619 -0.1758 -0.2856 -0.1816
  262poe    c23 1410   1.175   1.972   5.659 -0.1223 -0.4414  0.3529
  262poe    c23 1411   1.160   2.064   5.537 -0.1507  0.0429  0.7171
  262poe     o2 1412   1.038   2.044   5.469 -0.1104  0.7085  0.4418
  262poe    c23 1413   1.047   2.110   5.344 -0.1527 -0.4156 -0.1659
  262poe    c23 1414   0.931   2.073   5.251 -0.1515 -0.5764 -0.1043
  262poe     o2 1415   0.934   1.939   5.206  0.3830 -0.5491 -0.1549
  262poe    c31 1416   0.857   1.936   5.088  0.1479 -0.1002 -0.0177
  263poe    c31 1417   0.969   1.493   2.178 -0.1615  0.1661 -0.5321
  263poe     o2 1418   0.973   1.605   2.265  0.1714  0.1322 -0.5000
  263poe    c23 1419   0.895   1.578   2.379  0.3610  0.4853 -0.2858
  263poe    c23 1420   0.889   1.698   2.475 -0.4144  0.0976  0.1651
  263poe     o2 1421   0.796   1.787   2.418 -0.1623  0.2924  0.0541
  263poe    c23 1422   0.813   1.903   2.496 -0.0831  0.5007 -0.2739
  263poe    c23 1423   0.711   2.007   2.446 -0.4456  0.1417 -0.2820
  263poe     o2 1424   0.602   1.939   2.387 -0.2789 -0.5870  0.2433
  263poe    c23 1425   0.507   2.038   2.356  0.0537 -0.2724  0.2239
  263poe    c23 1426   0.401   1.977   2.263 -0.0737  0.1925  0.0621
  263poe     o2 1427   0.330   1.860   2.294 -0.2879  0.4046  0.3745
  263poe    c31 1428   0.262   1.818   2.177  0.1782  0.3038  0.1403
  264poe    c31 1429   1.969   1.489   6.405  0.1295 -0.0440 -0.2061
  264poe     o2 1430   1.932   1.386   6.317 -0.4649 -0.1235  0.1324
  264poe    c23 1431   1.796   1.399   6.280 -0.2729 -0.5169 -0.7371
  264poe    c23 1432   1.795   1.446   6.133  0.1977  0.7774 -0.3437
  264poe     o2 1433   1.878   1.346   6.078 -0.5381 -0.1545  0.2028
  264poe    c23 1434   1.884   1.351   5.937  0.2065 -0.1150  0.2357
  264poe    c23 1435   1.931   1.212   5.890 -0.1290 -0.3032  0.4603
  264poe     o2 1436   2.052   1.169   5.948  0.5361  0.9162  0.0045
  264poe    c23 1437   2.136   1.106   5.854 -0.5981 -0.6606  0.0153
  264poe    c23 1438   2.252   1.047   5.936 -0.2670  0.2748  0.2281
  264poe     o2 1439   2.317   1.151   6.005 -0.2437  0.2969  0.1725
  264poe    c31 1440   2.447   1.123   6.052 -0.1770  0.7238  0.2551
  265poe    c31 1441   2.221   2.252   1.056 -0.0761 -0.4083  0.1369
  265poe     o2 1442   2.285   2.197   1.168 -0.3035 -0.0509  0.4480
  265poe    c23 1443   2.397   2.277   1.199 -0.4852  0.3279  0.1302
  265poe    c23 1444   2.521   2.197   1.242 -0.4883 -0.2627 -0.9422
  265poe     o2 1445   2.568   2.088   1.165  0.0608 -0.8377  0.1820
  265poe    c23 1446   2.680   2.031   1.228  0.4056 -0.6248 -0.2352
  265poe    c23 1447   2.711   1.883   1.204  0.0363 -0.6973 -0.2712
  265poe     o2 1448   2.614   1.795   1.256 -0.0639 -0.4770 -0.0897
  265poe    c23 1449   2.656   1.673   1.312  0.1378 -0.2516  0.2561
  265poe    c23 1450   2.739   1.575   1.226 -0.0527  0.0058 -0.2227
  265poe     o2 1451   2.681   1.549   1.100  0.0557 -0.0538 -0.2598
  265poe    c31 1452   2.730   1.428   1.045 -0.5696 -0.4834  0.1161
  266poe    c31 1453   1.102   1.452   3.670  0.4512 -0.2257 -0.1215
  266poe     o2 1454   1.028   1.334   3.649 -0.0393  0.1187 -0.3250
  266poe    c23 1455   0.914   1.334   3.732 -0.0220  0.1005 -0.3015
  266poe    c23 1456   0.824   1.211   3.715 -0.2291  0.0928  0.7355
  266poe     o2 1457   0.903   1.095   3.732  0.2696  0.2723 -0.2448
  266poe    c23 1458   0.818   0.988   3.699  0.4156  0.1821 -0.3257
  266poe    c23 1459   0.906   0.895   3.613  0.0126 -0.4934 -0.0207
  266poe     o2 1460   1.029   0.874   3.680  0.1297  0.2070 -0.0018
  266poe    c23 1461   1.061   0.737   3.669  0.0165  0.2087 -0.3826
  266poe    c23 1462   1.197   0.724   3.741 -0.0273  0.3720 -0.2705
  266poe     o2 1463   1.251   0.854   3.732 -0.1374  0.4283 -0.1201
  266poe    c31 1464   1.365   0.856   3.815  0.1548 -0.0448 -0.5016
  267poe    c31 1465   2.156   1.968   1.714  0.2923  0.4755  0.3929
  267poe     o2 1466   2.037   2.027   1.667  0.4650  0.4268 -0.1131
  267poe    c23 1467   2.019   1.985   1.534 -0.0404  0.6374 -0.1117
  267poe    c23 1468   1.932   2.075   1.443 -0.2759  0.1394 -0.3808
  267poe     o2 1469   1.947   2.214   1.457  0.6254  0.0612 -0.4965
  267poe    c23 1470   1.924   2.274   1.331 -0.2564  0.6038 -0.0896
  267poe    c23 1471   1.990   2.412   1.347  0.7050  0.1434 -0.0525
  267poe     o2 1472   1.938   2.466   1.466  0.3317 -0.4188  0.0439
  267poe    c23 1473   2.020   2.559   1.532 -0.4365 -0.0323  0.4654
  267poe    c23 1474   1.951   2.626   1.652 -0.1605  0.4823  0.3400
  267poe     o2 1475   1.894   2.514   1.715 -0.4135  0.0130 -0.7108
  267poe    c31 1476   1.844   2.557   1.839 -0.0564 -0.2933 -0.4582
  268poe    c31 1477   1.907   1.963   6.401  0.0004 -0.1223 -0.1969
  268poe     o2 1478   1.983   2.003   6.289 -0.4149 -0.6164 -0.6585
  268poe    c23 1479   2.113   1.949   6.280 -0.1574 -0.1324  0.0315
  268poe    c23 1480   2.188   1.965   6.146  0.0228 -0.1165  0.1343
  268poe     o2 1481   2.216   2.094   6.096  0.5421 -0.0730  0.5395
  268poe    c23 1482   2.313   2.165   6.170  0.2999  0.6169  0.2042
  268poe    c23 1483   2.307   2.310   6.118 -0.8184  0.3605 -0.4098
  268poe     o2 1484   2.174   2.353   6.129 -0.9253 -0.0496 -0.0567
  268poe    c23 1485   2.167   2.480   6.069 -0.6284 -0.0336 -0.0551
  268poe    c23 1486   2.074   2.582   6.137  0.4210  0.2961  0.9204
  268poe     o2 1487   1.940   2.539   6.134  0.5400 -0.0665  0.6918
  268poe    c31 1488   1.866   2.599   6.238 -0.5867  0.0513 -0.1572
  269poe    c31 1489   1.638   0.002   6.335  0.0721 -0.3517 -0.7469
  269poe     o2 1490   1.511   0.008   6.395  0.5144 -0.5034  0.2229
  269poe    c23 1491   1.443  -0.115   6.402 -0.4802  0.0090 -0.2247
  269poe    c23 1492   1.296  -0.111   6.446 -0.4013  0.0496  0.0378
  269poe     o2 1493   1.226  -0.051   6.340 -0.2113  0.1072 -0.0542
  269poe    c23 1494   1.108  -0.003   6.401 -0.1367  0.1225  0.0758
  269poe    c23 1495   1.053   0.126   6.337  0.1442  0.2316  0.0502
  269poe     o2 1496   1.133   0.241   6.321  0.7481 -0.3669 -1.4480
  269poe    c23 1497   1.043   0.346   6.293  0.1439 -0.4320  0.0850
  269poe    c23 1498   1.125   0.475   6.273 -0.4403 -0.0982 -0.1711
  269poe     o2 1499   1.208   0.471   6.159  0.1418 -0.5451  0.2605
  269poe    c31 1500   1.247   0.603   6.126  0.1976 -0.6538 -0.1131
  270poe    c31 1501   2.184   0.984   3.986 -0.1344  0.0559 -0.7106
  270poe     o2 1502   2.185   1.125   3.998  0.1041 -0.0169  0.1464
  270poe    c23 1503   2.109   1.176   4.105 -0.2198  0.1459 -0.1607
  270poe    c23 1504   2.173   1.313   4.134  0.3110 -0.0999 -0.1656
  270poe     o2 1505   2.215   1.364   4.010  0.1067  0.3456 -0.0549
  270poe    c23 1506   2.206   1.505   4.011 -0.0361  0.3368 -0.0558
  270poe    c23 1507   2.275   1.569   3.889 -0.1298  0.1122 -0.2270
  270poe     o2 1508   2.251   1.486   3.778 -0.1428  0.1779 -0.2733
  270poe    c23 1509   2.332   1.513   3.666  0.0955 -0.0976 -0.1705
  270poe    c23 1510   2.255   1.484   3.536 -0.1464 -0.1910 -0.0071
  270poe     o2 1511   2.176   1.367   3.537 -0.0784 -0.2374 -0.1045
  270poe    c31 1512   2.101   1.344   3.420  0.1357 -0.3473 -0.2215
  271lim     li 1513   0.640   1.776   2.315  0.1815  1.0477 -0.4442
  272lim     li 1514   0.161   1.519   2.883  0.2638  0.1068 -0.7333
  273lim     li 1515   2.246   0.460   3.760  0.8097  0.0843 -1.0639
  274lim     li 1516   1.892   0.385   5.030 -1.3156 -0.5605 -1.1647
  275lim     li 1517   2.216   1.247   3.878  0.8131 -1.4565 -0.0433
  276lim     li 1518   1.414   2.070   4.421 -0.6204  1.0724  0.1946
  277lim     li 1519   1.992   1.270   6.187  0.5944  0.1884  0.8774
  278lim     li 1520   0.958   1.091   0.970 -0.3424  1.7039 -0.5066
  279lim     li 1521   0.298   1.027   0.110 -0.1154 -0.1076  0.0156
  280lim     li 1522   0.903   1.585   5.442 -0.7333 -0.1530  0.0831
  281lim     li 1523   0.543   1.234   4.247  0.5473 -0.4466  0.1055
  282lim     li 1524   1.263   2.016   0.703  0.2549 -0.0909 -0.3555
  283lim     li 1525   0.858   2.276   1.129 -1.6411 -0.6713 -0.3728
  284lim     li 1526   2.133   0.578   2.997  0.8707 -0.5835 -0.0676
  285lim     li 1527   1.586   1.575   3.757  1.7228 -0.8793  0.0861
  286lim     li 1528   1.551   1.179   0.170  0.5719  0.3802  1.2680
  287lim     li 1529   0.941   0.071   4.301  0.5742  0.1455 -0.2990
  288lim     li 1530   0.231   1.307   0.714 -0.9063  0.9306  0.0705
  289lim     li 1531   2.110   1.531   5.486 -0.3771 -0.1107 -0.6143
  290lim     li 1532   1.959   1.084   1.592 -0.3986  0.1470 -0.3707
  291lim     li 1533   0.184   0.248   2.251 -0.4894  0.5155  0.2121
  292lim     li 1534   0.520   0.546   3.065 -1.2825 -0.2822 -0.2934
  293lim     li 1535   1.561   0.131   3.191  0.0005 -0.1776 -0.6383
  294lim     li 1536   1.909   1.968   2.370  0.5005  0.9086 -0.4827
  295lim     li 1537   0.474   2.192   0.300  0.0323  0.8395 -0.1850
  296lim     li 1538   1.971   0.462   1.195  0.3906 -0.3352 -1.0544
  297lim     li 1539   0.101   0.092   4.233  1.0828  0.0082 -0.8898
  298lim     li 1540   0.177   1.802   4.591  0.2030  0.4472  0.6494
  299lim     li 1541   1.581   0.360   0.048 -0.7935 -0.6424  0.5519
  300lim     li 1542   0.792   0.373   1.462  1.1063  0.0570 -1.3307
  301lim     li 1543   0.904   1.166   6.176  1.0414  0.2571 -0.2498
  302lim     li 1544   0.156   0.370   5.934  0.3510  0.6181 -0.1577
  303lim     li 1545   1.403   1.111   4.736  0.3587  0.4633 -0.1970
  304lim     li 1546   1.122   1.007   3.733 -0.0103 -0.6132 -0.0324
  305lim     li 1547   1.872   0.007   1.591 -0.8634  0.7235 -0.0649
  306lim     li 1548   1.392   0.717   0.389 -1.1655  0.2200 -1.5052
  307lim     li 1549   0.716   1.160   3.183  0.3589 -0.3913  0.1513
  308lim     li 1550   0.119   1.120   5.051  0.5183  0.0359  0.1252
  309lim     li 1551   1.469   1.752   5.073 -0.5969 -0.0775  0.1379
  310lim     li 1552   0.133   0.877   2.012  0.8651  1.2952  0.2968
  311lim     li 1553   1.247   0.071   5.961  0.0997  0.0696  0.3990
  312lim     li 1554   0.527   1.701   1.717 -0.4406 -0.3836 -0.6400
  313lim     li 1555   1.407   0.668   2.272  0.6354 -0.6337 -0.3602
  314lim     li 1556   1.839   2.149   0.378  0.5389  0.0043 -0.8621
  315lim     li 1557   0.483   2.259   3.546  0.1704 -0.0496 -0.0870
  316lim     li 1558   1.511   1.114   1.391  0.2031  0.8589  0.2303
  317lim     li 1559   1.634   0.437   5.597  0.4156 -0.0750 -0.2181
  318lim     li 1560   2.264   1.865   1.057  0.1185 -0.0229 -0.3142
  319lim     li 1561   1.657   1.142   2.964 -0.4144 -0.4003 -0.3745
  320lim     li 1562   0.423   0.349   5.118  0.6154 -0.6069  0.1102
  321lim     li 1563   1.780   0.732   4.256 -1.0216 -0.4738  0.1348
  322lim     li 1564   0.759   0.026   6.002 -0.4782  0.2230  1.4374
  323lim     li 1565   1.873   2.228   6.003 -0.4651 -0.5905  0.5194
  324lim     li 1566   1.340   1.783   2.203  1.1619 -0.5087 -0.7069
  325ntf    cn1 1567   0.345   0.927   3.676 -0.4052  0.2964 -0.7464
  325ntf    sn2 1568   0.389   1.059   3.793  0.2441 -0.3063 -0.3002
  325ntf    nn3 1569   0.455   1.161   3.693 -0.2032  0.2734 -0.0063
  325ntf    sn2 1570   0.405   1.297   3.632 -0.0470  0.2000 -0.2946
  325ntf    cn1 1571   0.466   1.421   3.750 -0.3078 -0.1778  0.2420
  325ntf    fn4 1572   0.297   0.969   3.561 -0.1845  0.6043 -0.7270
  325ntf    fn4 1573   0.448   0.856   3.632  0.1610  0.3370  0.4637
  325ntf    fn4 1574   0.266   0.837   3.732  0.4718 -0.2290 -0.3324
  325ntf    on5 1575   0.261   1.102   3.843  0.1627 -0.4665 -0.3689
  325ntf    on5 1576   0.485   1.005   3.886 -0.5233 -0.6440  0.3053
  325ntf    on5 1577   0.262   1.313   3.625 -0.0470  0.4708  0.2728
  325ntf    on5 1578   0.474   1.326   3.508  0.1594 -0.2823 -0.2984
  325ntf    fn4 1579   0.596   1.407   3.768 -0.2468 -0.0971 -0.1225
  325ntf    fn4 1580   0.439   1.546   3.715 -0.5695 -0.5171 -0.8281
  325ntf    fn4 1581   0.419   1.410   3.873  0.4252 -0.2444  0.5224
  326ntf    cn1 1582   0.555   0.593   3.640  0.4392  0.3287 -0.0888
  326ntf    sn2 1583   0.593   0.418   3.671  0.2282  0.2857 -0.0747
  326ntf    nn3 1584   0.737   0.411   3.610  0.4345 -0.1779  0.4589
  326ntf    sn2 1585   0.781   0.346   3.473  0.1672  0.0685  0.2552
  326ntf    cn1 1586   0.931   0.444   3.444 -0.0130  0.1387 -0.4433
  326ntf    fn4 1587   0.658   0.657   3.694  0.4406 -0.1289  0.4654
  326ntf    fn4 1588   0.549   0.612   3.510  0.0935  0.1479 -0.0997
  326ntf    fn4 1589   0.436   0.620   3.692  0.5054 -0.0721  0.2803
  326ntf    on5 1590   0.593   0.400   3.814  0.0133  0.4353 -0.0548
  326ntf    on5 1591   0.494   0.342   3.598 -0.1130  0.2462  0.4233
  326ntf    on5 1592   0.689   0.377   3.367  0.2467 -0.0691  0.1476
  326ntf    on5 1593   0.837   0.214   3.484 -0.4031 -0.2659 -0.7312
  326ntf    fn4 1594   0.902   0.567   3.403 -0.4499  0.2131  0.0876
  326ntf    fn4 1595   1.000   0.467   3.554 -0.5286 -0.0782 -0.0723
  326ntf    fn4 1596   1.017   0.387   3.361  0.2446 -0.2217  0.0662
  327ntf    cn1 1597   0.549   1.249   2.076 -0.1904  0.5207  0.2272
  327ntf    sn2 1598   0.426   1.358   2.154 -0.5309  0.4127 -0.1572
  327ntf    nn3 1599   0.477   1.370   2.302 -0.1080  0.1288 -0.2776
  327ntf    sn2 1600   0.452   1.261   2.412 -0.0437  0.2667 -0.1264
  327ntf    cn1 1601   0.623   1.212   2.451  0.0451  0.1471 -0.6690
  327ntf    fn4 1602   0.671   1.299   2.070  0.1245 -0.2244  0.3380
  327ntf    fn4 1603   0.551   1.141   2.153  0.0801  0.5232  0.2236
  327ntf    fn4 1604   0.512   1.213   1.954  0.2896  0.0040  0.2308
  327ntf    on5 1605   0.451   1.486   2.092 -0.1998  0.1673 -0.5333
  327ntf    on5 1606   0.301   1.295   2.120 -0.3133 -0.1092  0.0044
  327ntf    on5 1607   0.380   1.141   2.378 -0.2540 -0.0340  1.3159
  327ntf    on5 1608   0.397   1.318   2.533  0.1005  0.0195  0.0568
  327ntf    fn4 1609   0.663   1.128   2.357  0.0641  0.0510 -0.5758
  327ntf    fn4 1610   0.710   1.311   2.451  0.5635 -0.2990  0.1086
  327ntf    fn4 1611   0.633   1.146   2.565 -0.6376  0.5335 -0.3758
  328ntf    cn1 1612   0.040   0.097   3.251  0.4958 -0.0843  0.0930
  328ntf    sn2 1613  -0.093   0.213   3.209  0.2882 -0.3343  0.0603
  328ntf    nn3 1614  -0.154   0.254   3.348  0.4293 -0.0191  0.0294
  328ntf    sn2 1615  -0.146   0.387   3.431  0.0157 -0.0503  0.1227
  328ntf    cn1 1616  -0.299   0.467   3.374  0.1885  0.1175 -0.1079
  328ntf    fn4 1617  -0.015  -0.011   3.305 -0.3770  0.3799  0.1418
  328ntf    fn4 1618   0.121   0.047   3.159  0.5296  0.2929 -0.0797
  328ntf    fn4 1619   0.112   0.138   3.354  0.4139  0.0375  0.1013
  328ntf    on5 1620  -0.028   0.319   3.137 -0.2327 -0.0163  0.0485
  328ntf    on5 1621  -0.183   0.138   3.125  0.2695 -0.3368  0.0823
  328ntf    on5 1622  -0.047   0.487   3.399 -0.1604  0.2591  0.5448
  328ntf    on5 1623  -0.169   0.368   3.572 -0.0659 -0.6071  0.0370
  328ntf    fn4 1624  -0.311   0.461   3.242 -0.4325 -0.2150 -0.0434
  328ntf    fn4 1625  -0.407   0.404   3.418 -0.0676  0.6670  0.0608
  328ntf    fn4 1626  -0.310   0.596   3.402  0.2812  0.1451 -0.1995
  329ntf    cn1 1627   1.706   0.921   0.679 -0.1688 -0.2535 -0.0799
  329ntf    sn2 1628   1.603   0.926   0.829  0.0551  0.1794  0.0627
  329ntf    nn3 1629   1.630   1.075   0.868 -0.4627  0.3840 -0.3461
  329ntf    sn2 1630   1.517   1.174   0.913 -0.3241  0.3251  0.1394
  329ntf    cn1 1631   1.517   1.282   0.766  0.3757  0.0513 -0.0649
  329ntf    fn4 1632   1.833   0.941   0.710 -0.1862 -0.0308 -0.1488
  329ntf    fn4 1633   1.710   0.801   0.623  0.2136 -0.3900  0.2358
  329ntf    fn4 1634   1.680   1.002   0.578  0.4489 -0.1229 -0.1349
  329ntf    on5 1635   1.473   0.887   0.779  0.2364  0.0023 -0.2723
  329ntf    on5 1636   1.652   0.829   0.924 -0.4102  0.0804  0.2080
  329ntf    on5 1637   1.560   1.261   1.020 -0.2204  0.2496  0.1584
  329ntf    on5 1638   1.382   1.123   0.922 -0.1122 -0.2855 -0.0936
  329ntf    fn4 1639   1.614   1.371   0.761  0.7672 -0.3159  0.6902
  329ntf    fn4 1640   1.519   1.217   0.651  0.7796  0.5173 -0.3236
  329ntf    fn4 1641   1.408   1.357   0.770  0.1116 -0.3295 -0.0155
  330ntf    cn1 1642   1.089   0.179   5.361 -0.1225 -0.1667  0.1318
  330ntf    sn2 1643   1.115   0.230   5.534  0.1642  0.3239 -0.0546
  330ntf    nn3 1644   0.996   0.330   5.557 -0.1070 -0.0116  0.0002
  330ntf    sn2 1645   0.940   0.367   5.699 -0.1141 -0.1834  0.0433
  330ntf    cn1 1646   0.962   0.548   5.695 -0.3586 -0.1614 -0.3449
  330ntf    fn4 1647   1.170   0.080   5.329 -0.4659 -0.4020 -0.0193
  330ntf    fn4 1648   0.965   0.140   5.335 -0.0647 -0.1595 -0.1556
  330ntf    fn4 1649   1.118   0.277   5.277  0.4407 -0.1623  0.3268
  330ntf    on5 1650   1.103   0.110   5.612 -0.4377  0.4922  0.1206
  330ntf    on5 1651   1.245   0.292   5.528  0.3408 -0.0517 -0.1032
  330ntf    on5 1652   1.019   0.335   5.815 -0.4500  0.0236  0.3315
  330ntf    on5 1653   0.801   0.333   5.715 -0.2777  0.4635  0.0179
  330ntf    fn4 1654   1.086   0.582   5.665 -0.2679 -0.0679  0.1289
  330ntf    fn4 1655   0.886   0.598   5.599 -0.1267  0.0012 -0.4442
  330ntf    fn4 1656   0.931   0.605   5.810 -0.0411 -0.5371 -0.0700
  331ntf    cn1 1657   1.084   1.318   2.631 -0.0957  0.2385 -0.1086
  331ntf    sn2 1658   1.219   1.437   2.611 -0.0076  0.2506  0.5372
  331ntf    nn3 1659   1.153   1.557   2.687 -0.4463  0.3304  0.0289
  331ntf    sn2 1660   1.219   1.694   2.724  0.2520  0.0453 -0.1488
  331ntf    cn1 1661   1.123   1.725   2.876 -0.0278 -0.3170 -0.2508
  331ntf    fn4 1662   0.974   1.374   2.583  0.0662  0.4153 -0.2719
  331ntf    fn4 1663   1.102   1.202   2.570  0.2932  0.1336  0.2036
  331ntf    fn4 1664   1.061   1.284   2.757 -0.1006  0.3718 -0.0736
  331ntf    on5 1665   1.328   1.370   2.677 -0.3671 -0.5362  0.3431
  331ntf    on5 1666   1.236   1.461   2.470  0.1360  0.1464  0.5360
  331ntf    on5 1667   1.184   1.806   2.640  0.0478  0.3277  0.3085
  331ntf    on5 1668   1.353   1.684   2.777  0.1943  0.2454  0.0387
  331ntf    fn4 1669   0.996   1.728   2.838 -0.1812  0.0849  0.2868
  331ntf    fn4 1670   1.140   1.623   2.959  0.1258 -0.0132  0.0937
  331ntf    fn4 1671   1.147   1.842   2.934  0.0486 -0.3984 -0.1178
  332ntf    cn1 1672   0.536   0.087   2.464 -0.0001  0.1813  0.0523
  332ntf    sn2 1673   0.380   0.156   2.527 -0.0100  0.1013  0.1160
  332ntf    nn3 1674   0.317   0.035   2.604 -0.2771 -0.1280 -0.4547
  332ntf    sn2 1675   0.172  -0.024   2.614 -0.1511 -0.2943  0.4980
  332ntf    cn1 1676   0.131   0.003   2.789 -0.0005  0.4448  0.4218
  332ntf    fn4 1677   0.516  -0.031   2.407 -0.2776  0.3110 -0.1216
  332ntf    fn4 1678   0.595   0.162   2.373 -0.4125  0.6241  0.1486
  332ntf    fn4 1679   0.625   0.079   2.561 -0.0494 -0.4381  0.0541
  332ntf    on5 1680   0.428   0.258   2.616 -0.4603  0.3322  0.0975
  332ntf    on5 1681   0.304   0.203   2.413 -0.0814 -0.1586  0.0567
  332ntf    on5 1682   0.176  -0.167   2.598  0.0035 -0.1988 -0.3384
  332ntf    on5 1683   0.070   0.053   2.547  0.1450 -0.2599  0.0880
  332ntf    fn4 1684   0.132   0.132   2.820 -0.5488  0.4823  0.2795
  332ntf    fn4 1685   0.015  -0.053   2.819  0.2287  0.1309  0.7334
  332ntf    fn4 1686   0.222  -0.054   2.867 -0.0397 -0.3987 -0.1357
  333ntf    cn1 1687   0.119   1.142   1.314  0.3316 -0.1640 -0.1896
  333ntf    sn2 1688   0.123   1.235   1.470 -0.1421 -0.1212 -0.2027
  333ntf    nn3 1689   0.071   1.374   1.418 -0.0520 -0.1391 -0.3418
  333ntf    sn2 1690  -0.073   1.438   1.418  0.1024  0.2108  0.1083
  333ntf    cn1 1691  -0.053   1.552   1.558  0.1221  0.4923 -0.1251
  333ntf    fn4 1692   0.172   1.213   1.215 -0.1267 -0.3664 -0.5862
  333ntf    fn4 1693   0.160   1.016   1.309  0.0433 -0.2854  0.3901
  333ntf    fn4 1694  -0.008   1.133   1.280  0.1696 -0.2156  0.4230
  333ntf    on5 1695   0.029   1.164   1.554  0.2815 -0.5734 -0.1083
  333ntf    on5 1696   0.259   1.244   1.516 -0.3152  0.3399  0.2331
  333ntf    on5 1697  -0.187   1.357   1.455  0.3561 -0.2774 -0.1576
  333ntf    on5 1698  -0.093   1.527   1.307 -0.3997 -0.1009 -0.0582
  333ntf    fn4 1699  -0.167   1.604   1.600 -0.0505  0.1541 -0.1711
  333ntf    fn4 1700  -0.001   1.499   1.667 -0.6134  0.2178  0.0965
  333ntf    fn4 1701   0.023   1.652   1.516  0.6732 -0.0823 -0.5167
  334ntf    cn1 1702   2.343   1.777   0.531  0.2789  0.0411  0.0433
  334ntf    sn2 1703   2.258   1.639   0.613  0.0516  0.0744 -0.1384
  334ntf    nn3 1704   2.113   1.673   0.561 -0.0052  0.0462  0.0026
  334ntf    sn2 1705   1.975   1.690   0.633 -0.2690 -0.6493 -0.3275
  334ntf    cn1 1706   1.927   1.515   0.644 -0.2423 -0.6626 -0.4210
  334ntf    fn4 1707   2.317   1.895   0.584 -1.0226 -0.2853  0.1610
  334ntf    fn4 1708   2.473   1.757   0.518  0.1916 -0.4089 -0.1642
  334ntf    fn4 1709   2.291   1.777   0.409  0.1808  0.3228  0.0845
  334ntf    on5 1710   2.314   1.524   0.546 -0.3297 -0.5689  0.6252
  334ntf    on5 1711   2.272   1.651   0.756  0.2277 -0.1834 -0.1349
  334ntf    on5 1712   1.885   1.761   0.545  0.5198  1.4326  0.4715
  334ntf    on5 1713   1.986   1.745   0.766 -0.6065  0.2564 -0.6613
  334ntf    fn4 1714   1.810   1.504   0.705 -0.0822 -0.3132 -0.0428
  334ntf    fn4 1715   1.908   1.453   0.529 -0.4300 -0.6779 -0.3822
  334ntf    fn4 1716   2.009   1.441   0.717 -0.3598 -0.1349  0.2623
  335ntf    cn1 1717   1.148   1.569   6.405  0.0449 -0.4406  0.1420
  335ntf    sn2 1718   1.311   1.579   6.484  0.0483 -0.3192  0.1190
  335ntf    nn3 1719   1.394   1.633   6.362  0.3892 -0.7596  0.1549
  335ntf    sn2 1720   1.526   1.718   6.353 -0.0664 -0.0541  0.0844
  335ntf    cn1 1721   1.469   1.883   6.403  0.1250  0.1225 -0.2769
  335ntf    fn4 1722   1.136   1.452   6.343 -0.6623 -0.3637  0.1251
  335ntf    fn4 1723   1.049   1.568   6.493 -0.2556 -0.6487 -0.1944
  335ntf    fn4 1724   1.122   1.659   6.312  0.1866 -0.4388  0.1035
  335ntf    on5 1725   1.288   1.674   6.590  0.2742 -0.4457  0.2823
  335ntf    on5 1726   1.334   1.442   6.523 -0.1050 -0.3948 -0.0556
  335ntf    on5 1727   1.566   1.738   6.216  0.5639  0.0967  0.2871
  335ntf    on5 1728   1.631   1.684   6.445 -0.0572  0.3334  0.2203
  335ntf    fn4 1729   1.552   1.982   6.372  0.3672 -0.0763 -0.2668
  335ntf    fn4 1730   1.357   1.912   6.340  0.0700  0.3549 -0.0734
  335ntf    fn4 1731   1.448   1.883   6.534  0.5372 -0.6118 -0.2064
  336ntf    cn1 1732   1.879   2.128   3.913 -0.2389 -0.3389  0.2007
  336ntf    sn2 1733   1.764   2.148   4.053 -0.1183  0.5016  0.1843
  336ntf    nn3 1734   1.799   2.021   4.138  0.0508  0.5414  0.1734
  336ntf    sn2 1735   1.880   2.013   4.272  0.3138 -0.3317 -0.0312
  336ntf    cn1 1736   1.974   1.863   4.232  0.4315 -0.1889 -0.2910
  336ntf    fn4 1737   1.861   2.017   3.844  0.0274 -0.4035  0.2345
  336ntf    fn4 1738   1.855   2.216   3.817  0.1482 -0.4969 -0.0398
  336ntf    fn4 1739   2.006   2.130   3.949 -0.3241 -0.8738  0.5535
  336ntf    on5 1740   1.794   2.281   4.101  0.0453  0.2888  0.6736
  336ntf    on5 1741   1.642   2.132   3.978 -0.2252 -0.2857  0.5204
  336ntf    on5 1742   1.800   1.977   4.387 -0.0001  0.3773 -0.0235
  336ntf    on5 1743   1.985   2.110   4.282  0.1533 -0.1500 -0.1080
  336ntf    fn4 1744   1.894   1.758   4.218 -0.0860  0.1442  0.1459
  336ntf    fn4 1745   2.030   1.876   4.113  0.2770  0.2274 -0.3191
  336ntf    fn4 1746   2.070   1.830   4.317  0.3067  0.2898  0.0411
  337ntf    cn1 1747   1.705   0.659   3.642 -0.0530 -0.1872  0.1631
  337ntf    sn2 1748   1.792   0.773   3.754 -0.1409  0.1376 -0.0994
  337ntf    nn3 1749   1.839   0.884   3.654  0.1872 -0.0317 -0.1348
  337ntf    sn2 1750   1.765   1.014   3.605  0.1043  0.0153  0.1097
  337ntf    cn1 1751   1.832   1.023   3.436  0.1514  0.1705  0.1372
  337ntf    fn4 1752   1.768   0.640   3.527 -0.1515 -0.1706  0.1065
  337ntf    fn4 1753   1.694   0.539   3.697  0.2115 -0.0831  0.4487
  337ntf    fn4 1754   1.581   0.697   3.619 -0.2757 -0.6042  0.6339
  337ntf    on5 1755   1.692   0.810   3.851  0.3148  0.8965  0.0837
  337ntf    on5 1756   1.897   0.688   3.805  0.3244  0.7260 -0.0718
  337ntf    on5 1757   1.820   1.132   3.667 -0.5994  0.1872  0.4156
  337ntf    on5 1758   1.622   1.006   3.586  0.0587  0.7045  0.1298
  337ntf    fn4 1759   1.756   0.963   3.346  0.8764 -0.4802 -0.0453
  337ntf    fn4 1760   1.846   1.148   3.393 -0.1988  0.1937  0.0860
  337ntf    fn4 1761   1.951   0.967   3.427 -0.1420 -0.4173 -0.1439
  338ntf    cn1 1762   0.918   0.923   2.618  0.3914 -0.0440  0.0716
  338ntf    sn2 1763   0.969   0.749   2.635  0.2204 -0.0693  0.3355
  338ntf    nn3 1764   0.867   0.689   2.532  0.3539 -0.1083  0.2246
  338ntf    sn2 1765   0.888   0.611   2.397 -0.0723 -0.2974  0.2643
  338ntf    cn1 1766   0.919   0.443   2.458 -0.1660 -0.3906  0.0554
  338ntf    fn4 1767   0.983   1.008   2.695 -0.1123  0.2152  0.2129
  338ntf    fn4 1768   0.929   0.966   2.493 -0.0870  0.3516  0.1631
  338ntf    fn4 1769   0.790   0.920   2.650  0.3944 -0.1968  0.0716
  338ntf    on5 1770   1.106   0.749   2.590  0.0447  0.7257 -0.2169
  338ntf    on5 1771   0.938   0.716   2.771  0.2362  0.0850  0.3771
  338ntf    on5 1772   1.004   0.649   2.321  0.0821 -0.5099  0.3950
  338ntf    on5 1773   0.771   0.599   2.315 -0.2117 -0.1225  0.4341
  338ntf    fn4 1774   0.937   0.354   2.363  0.2777  0.3050 -0.5148
  338ntf    fn4 1775   1.031   0.434   2.528 -0.0113 -0.3001 -0.1820
  338ntf    fn4 1776   0.825   0.386   2.532  0.1074 -0.3699  0.4205
  339ntf    cn1 1777   1.391   1.265   6.094 -0.0310  0.2624 -0.0475
  339ntf    sn2 1778   1.431   1.120   6.197 -0.1550  0.2322 -0.0421
  339ntf    nn3 1779   1.453   1.013   6.085  0.3392  0.3755 -0.0840
  339ntf    sn2 1780   1.591   0.957   6.035  0.2442  0.0551  0.0049
  339ntf    cn1 1781   1.559   0.973   5.856 -0.2929 -0.2955  0.0679
  339ntf    fn4 1782   1.373   1.379   6.160  0.5227  0.1192  0.3527
  339ntf    fn4 1783   1.486   1.283   6.004  0.2495  0.3303  0.2606
  339ntf    fn4 1784   1.283   1.252   6.019  0.1281 -0.0781 -0.2200
  339ntf    on5 1785   1.540   1.152   6.285  0.4676 -0.2623 -0.6247
  339ntf    on5 1786   1.305   1.098   6.263  0.0344  0.0418  0.2550
  339ntf    on5 1787   1.598   0.816   6.064  0.3036  0.0406 -0.0783
  339ntf    on5 1788   1.706   1.042   6.057 -0.4334  0.8139  0.7057
  339ntf    fn4 1789   1.669   0.940   5.790 -0.3849  0.2673 -0.3723
  339ntf    fn4 1790   1.464   0.895   5.807 -0.3216 -0.1110 -0.1672
  339ntf    fn4 1791   1.526   1.097   5.825  0.1912 -0.0625  0.4549
  340ntf    cn1 1792   1.261   1.537   1.627 -0.3935  0.6044  0.1685
  340ntf    sn2 1793   1.320   1.599   1.788  0.0631 -0.0216  0.2464
  340ntf    nn3 1794   1.281   1.478   1.881 -0.3754 -0.0883 -0.0232
  340ntf    sn2 1795   1.360   1.352   1.931 -0.3348  0.0162  0.1756
  340ntf    cn1 1796   1.232   1.224   1.916 -0.1687 -0.0977 -0.2834
  340ntf    fn4 1797   1.271   1.405   1.621  0.1915  0.6707 -0.4396
  340ntf    fn4 1798   1.133   1.560   1.606 -0.6420 -0.2770  0.6296
  340ntf    fn4 1799   1.328   1.587   1.525  0.9698 -0.2911  0.5898
  340ntf    on5 1800   1.460   1.631   1.771 -0.1434  0.7011 -0.1101
  340ntf    on5 1801   1.236   1.713   1.815 -0.1406 -0.0471 -0.2652
  340ntf    on5 1802   1.392   1.363   2.071  0.1325 -0.0419  0.0740
  340ntf    on5 1803   1.469   1.301   1.852 -0.2467 -0.2327  0.4539
  340ntf    fn4 1804   1.275   1.101   1.940  0.0350  0.0532  0.1414
  340ntf    fn4 1805   1.135   1.243   2.004  0.2110  0.3977  0.0289
  340ntf    fn4 1806   1.173   1.222   1.798 -0.0353 -0.2434 -0.3484
  341ntf    cn1 1807   0.840   0.786   6.534  0.0363 -0.2469  0.1207
  341ntf    sn2 1808   0.990   0.851   6.454 -0.1756  0.1146  0.0133
  341ntf    nn3 1809   1.001   0.982   6.540  0.8164  0.2192 -0.2525
  341ntf    sn2 1810   1.072   1.007   6.677  0.2263 -0.0479  0.1046
  341ntf    cn1 1811   1.028   1.178   6.721  0.3614 -0.0206  0.1341
  341ntf    fn4 1812   0.815   0.658   6.511  0.7453 -0.4511  0.4729
  341ntf    fn4 1813   0.843   0.794   6.666  0.8296  0.2594  0.0826
  341ntf    fn4 1814   0.730   0.851   6.501  0.4029  0.4340  0.2184
  341ntf    on5 1815   1.094   0.752   6.471 -0.4965 -0.1871  0.2232
  341ntf    on5 1816   0.951   0.886   6.320 -0.0399 -0.0805 -0.0788
  341ntf    on5 1817   1.216   1.013   6.671  0.2295 -0.0276  0.1944
  341ntf    on5 1818   1.011   0.938   6.788 -0.0126  0.4017  0.2573
  341ntf    fn4 1819   0.897   1.194   6.734  0.2705 -0.0412 -0.6930
  341ntf    fn4 1820   1.083   1.236   6.826 -0.0449  0.6587 -0.0190
  341ntf    fn4 1821   1.052   1.260   6.619  0.1535 -0.0483  0.0612
  342ntf    cn1 1822   1.197   1.309   5.322 -0.0586  0.5080  0.1720
  342ntf    sn2 1823   1.017   1.286   5.317  0.0444 -0.2100 -0.3480
  342ntf    nn3 1824   0.999   1.145   5.384  0.0813  0.0768  0.2660
  342ntf    sn2 1825   0.973   1.004   5.320 -0.3300  0.2669  0.0144
  342ntf    cn1 1826   1.119   0.920   5.388 -0.3379  0.0740 -0.2089
  342ntf    fn4 1827   1.252   1.201   5.268 -1.2526 -0.4147  0.7414
  342ntf    fn4 1828   1.244   1.420   5.267  0.3728  0.1156 -0.2634
  342ntf    fn4 1829   1.245   1.302   5.445  0.9919 -0.1927 -0.2591
  342ntf    on5 1830   0.975   1.393   5.404  0.6819 -0.2556  0.0163
  342ntf    on5 1831   0.976   1.299   5.179 -0.8193  0.4010 -0.0470
  342ntf    on5 1832   0.995   0.987   5.179  0.2664 -0.6753  0.2163
  342ntf    on5 1833   0.862   0.938   5.386 -0.3026  0.3124  0.1059
  342ntf    fn4 1834   1.094   0.791   5.405 -0.0455  0.0777  0.2306
  342ntf    fn4 1835   1.233   0.930   5.321  0.3410  0.4898  0.9847
  342ntf    fn4 1836   1.133   0.957   5.514  0.1672 -0.2878 -0.1576
  343ntf    cn1 1837   1.033   1.860   3.714 -0.1287 -0.1874 -0.1893
  343ntf    sn2 1838   1.145   1.894   3.575  0.0800 -0.0854  0.0041
  343ntf    nn3 1839   1.037   1.870   3.463 -0.5269  0.2666  0.5115
  343ntf    sn2 1840   0.945   1.969   3.384 -0.0494  0.1867 -0.1495
  343ntf    cn1 1841   1.030   1.973   3.223 -0.0558 -0.3385 -0.1663
  343ntf    fn4 1842   0.993   1.734   3.719 -0.2300 -0.1517 -0.1017
  343ntf    fn4 1843   1.091   1.887   3.829 -0.1626 -0.4942 -0.0991
  343ntf    fn4 1844   0.927   1.939   3.716 -0.3489 -0.4905  0.1012
  343ntf    on5 1845   1.184   2.030   3.603  0.3491 -0.1412 -0.1006
  343ntf    on5 1846   1.247   1.793   3.589 -0.0045 -0.1298  0.3188
  343ntf    on5 1847   0.950   2.108   3.423  0.4779  0.0827  0.1569
  343ntf    on5 1848   0.811   1.922   3.356  0.0201 -0.0014 -0.1627
  343ntf    fn4 1849   1.158   1.950   3.248 -0.0595 -0.3311 -0.1400
  343ntf    fn4 1850   0.981   1.881   3.141  0.0017 -0.5608  0.0464
  343ntf    fn4 1851   1.024   2.086   3.154  0.7199 -0.0185  0.2781
  344ntf    cn1 1852   1.653   1.810   5.538  0.0677  0.0006  0.2464
  344ntf    sn2 1853   1.687   1.672   5.650 -0.0434 -0.0873  0.1725
  344ntf    nn3 1854   1.703   1.555   5.547  0.2325  0.1609 -0.0650
  344ntf    sn2 1855   1.588   1.467   5.487  0.0141  0.0565  0.5078
  344ntf    cn1 1856   1.585   1.339   5.617 -0.1242  0.2731  0.7193
  344ntf    fn4 1857   1.533   1.800   5.482  0.1587 -0.0929  0.0680
  344ntf    fn4 1858   1.650   1.923   5.607 -0.1110  0.1361  0.0203
  344ntf    fn4 1859   1.738   1.821   5.438 -0.3989 -0.0043 -0.1584
  344ntf    on5 1860   1.813   1.712   5.707  0.3214 -0.4477 -0.3718
  344ntf    on5 1861   1.575   1.677   5.741  0.3248 -0.0210  0.6236
  344ntf    on5 1862   1.639   1.410   5.365 -0.1654  0.9519  0.0110
  344ntf    on5 1863   1.452   1.513   5.484 -0.0478 -0.1427  0.2279
  344ntf    fn4 1864   1.673   1.243   5.594  0.3225  0.6935  0.6454
  344ntf    fn4 1865   1.626   1.390   5.732  0.3074  0.3310  0.5434
  344ntf    fn4 1866   1.470   1.278   5.639 -0.1741  0.2599  0.4312
  345ntf    cn1 1867   1.928   1.022   5.076  0.1209  0.1306  0.0162
  345ntf    sn2 1868   1.972   0.897   5.200 -0.6796  0.1738  0.3493
  345ntf    nn3 1869   1.893   0.953   5.324 -0.9865  0.4600  0.0253
  345ntf    sn2 1870   1.951   1.020   5.453  0.1318 -0.0035 -0.2219
  345ntf    cn1 1871   1.824   0.986   5.579  0.0044  0.2595 -0.2793
  345ntf    fn4 1872   2.015   1.016   4.977 -0.0243 -0.2141 -0.0932
  345ntf    fn4 1873   1.803   1.007   5.034  0.1911  0.2907 -0.2507
  345ntf    fn4 1874   1.938   1.146   5.122  0.0672  0.3630 -0.5949
  345ntf    on5 1875   1.916   0.774   5.148 -0.4650  0.3306 -0.2505
  345ntf    on5 1876   2.116   0.904   5.202 -0.6521 -0.3651  0.4621
  345ntf    on5 1877   1.951   1.164   5.440 -0.4129 -0.0117 -0.3675
  345ntf    on5 1878   2.071   0.965   5.510  0.2174  0.3276 -0.0843
  345ntf    fn4 1879   1.701   1.013   5.538 -0.0357  0.2950 -0.1355
  345ntf    fn4 1880   1.836   0.863   5.625  0.3831  0.4046  0.0171
  345ntf    fn4 1881   1.836   1.066   5.684 -0.4136  0.7841 -0.6208
  346ntf    cn1 1882   2.177   0.603   5.578 -0.1427 -0.1811  0.1686
  346ntf    sn2 1883   2.339   0.598   5.495 -0.1712 -0.0357  0.1042
  346ntf    nn3 1884   2.393   0.467   5.563 -0.0914  0.0632  0.2345
  346ntf    sn2 1885   2.439   0.334   5.492 -0.3628  0.1282 -0.0692
  346ntf    cn1 1886   2.290   0.231   5.502 -0.2143 -0.0829 -0.0344
  346ntf    fn4 1887   2.181   0.616   5.710  0.3908  0.0629  0.1318
  346ntf    fn4 1888   2.090   0.691   5.532 -0.0389 -0.0499  0.2233
  346ntf    fn4 1889   2.117   0.487   5.557 -0.3362 -0.0851  0.1978
  346ntf    on5 1890   2.304   0.581   5.357  0.1676 -0.4057  0.0625
  346ntf    on5 1891   2.410   0.718   5.534  0.0281 -0.2888  0.5264
  346ntf    on5 1892   2.537   0.262   5.569 -0.3802 -0.3584 -0.4972
  346ntf    on5 1893   2.476   0.340   5.353 -0.4310 -0.4590 -0.1114
  346ntf    fn4 1894   2.251   0.203   5.625 -0.3643  0.1247 -0.0364
  346ntf    fn4 1895   2.188   0.295   5.448 -0.0767  0.4762  0.3559
  346ntf    fn4 1896   2.291   0.111   5.446 -0.2244  0.0484 -0.3206
  347ntf    cn1 1897   0.363   0.894   1.452 -0.1970 -0.1206  0.1499
  347ntf    sn2 1898   0.502   0.782   1.488  0.0341  0.1210  0.0183
  347ntf    nn3 1899   0.579   0.870   1.592  0.1556  0.5661 -0.4434
  347ntf    sn2 1900   0.706   0.957   1.562  0.2606  0.5452 -0.0665
  347ntf    cn1 1901   0.750   1.017   1.728  0.1037  0.3234  0.0554
  347ntf    fn4 1902   0.386   0.987   1.360 -0.0707 -0.1301  0.1710
  347ntf    fn4 1903   0.253   0.831   1.417 -0.3338  0.2512 -0.0942
  347ntf    fn4 1904   0.336   0.969   1.558  0.0122  0.1470  0.0165
  347ntf    on5 1905   0.454   0.659   1.546  0.3459  0.2101  0.4649
  347ntf    on5 1906   0.574   0.771   1.364  0.8529 -0.8903  0.5726
  347ntf    on5 1907   0.678   1.083   1.497 -0.7520  0.4625  0.1886
  347ntf    on5 1908   0.826   0.886   1.525  0.1661  0.1147  0.4513
  347ntf    fn4 1909   0.742   0.921   1.819  0.2839 -0.4294 -0.7068
  347ntf    fn4 1910   0.871   1.071   1.732  0.2172  0.0684  0.0682
  347ntf    fn4 1911   0.673   1.118   1.766 -0.2156  0.1381 -0.1000
  348ntf    cn1 1912   0.139   1.851   6.450  0.0617 -0.2344  0.4736
  348ntf    sn2 1913   0.069   1.684   6.459 -0.0678 -0.2254 -0.3279
  348ntf    nn3 1914   0.183   1.608   6.381  0.1965 -0.0838 -0.0800
  348ntf    sn2 1915   0.169   1.479   6.294  0.0353 -0.2297  0.1607
  348ntf    cn1 1916   0.174   1.549   6.126 -0.2616  0.1940  0.3278
  348ntf    fn4 1917   0.267   1.863   6.483  0.3001 -0.3148 -0.3913
  348ntf    fn4 1918   0.126   1.894   6.326 -0.9228 -0.2181  0.5752
  348ntf    fn4 1919   0.067   1.931   6.527 -0.3363 -0.2119  0.0773
  348ntf    on5 1920   0.062   1.660   6.601 -0.4606  0.2153 -0.2707
  348ntf    on5 1921  -0.057   1.704   6.393 -0.0940 -0.3840 -0.3268
  348ntf    on5 1922   0.041   1.412   6.290 -0.1630  0.1705 -0.3484
  348ntf    on5 1923   0.287   1.396   6.299 -0.1208 -0.4847 -0.2666
  348ntf    fn4 1924   0.180   1.460   6.029  0.0841  0.3584  0.1952
  348ntf    fn4 1925   0.069   1.626   6.104 -0.6290 -0.3169  0.2887
  348ntf    fn4 1926   0.279   1.628   6.107 -0.3005  0.0962 -0.3163
  349ntf    cn1 1927   1.231   0.521   1.336  0.4785  0.3153  0.1732
  349ntf    sn2 1928   1.298   0.365   1.402  0.1427  0.0103 -0.2072
  349ntf    nn3 1929   1.438   0.407   1.458  0.1011 -0.3160  0.1466
  349ntf    sn2 1930   1.475   0.492   1.584  0.2227  0.2090 -0.2406
  349ntf    cn1 1931   1.500   0.362   1.708 -0.2102  0.2676 -0.0903
  349ntf    fn4 1932   1.318   0.574   1.251  0.3630 -0.3520 -0.3656
  349ntf    fn4 1933   1.122   0.500   1.265  0.5319  0.3829  0.0716
  349ntf    fn4 1934   1.209   0.613   1.429  0.0577  0.1141  0.2758
  349ntf    on5 1935   1.200   0.328   1.502 -0.0446  0.1512 -0.3366
  349ntf    on5 1936   1.308   0.277   1.288 -0.3281  0.1223 -0.3391
  349ntf    on5 1937   1.377   0.581   1.643  0.4775 -0.2056  0.8319
  349ntf    on5 1938   1.607   0.549   1.577  0.2358  0.2439  0.2517
  349ntf    fn4 1939   1.389   0.296   1.739 -0.0019 -0.0337  0.0116
  349ntf    fn4 1940   1.576   0.264   1.661 -0.1435  0.2762  0.0009
  349ntf    fn4 1941   1.551   0.393   1.826 -0.0025  0.0596 -0.1266
  350ntf    cn1 1942   1.394   0.259   3.804 -0.1481  0.0873 -0.2848
  350ntf    sn2 1943   1.459   0.358   3.942 -0.1750  0.4504 -0.5309
  350ntf    nn3 1944   1.329   0.397   4.019  0.1748 -0.0025  0.3024
  350ntf    sn2 1945   1.315   0.443   4.168  0.0496 -0.0765  0.3142
  350ntf    cn1 1946   1.204   0.585   4.139 -0.2720 -0.5173 -0.6329
  350ntf    fn4 1947   1.308   0.330   3.733  0.3263  0.5598 -0.3961
  350ntf    fn4 1948   1.487   0.212   3.722 -0.3699 -0.1096 -0.4240
  350ntf    fn4 1949   1.326   0.155   3.848 -0.1792  0.2084 -0.0474
  350ntf    on5 1950   1.531   0.254   4.012  0.0299 -0.0405 -1.4536
  350ntf    on5 1951   1.541   0.461   3.883  0.3275  0.4003  0.0626
  350ntf    on5 1952   1.434   0.497   4.230 -0.1393  0.0551  0.5672
  350ntf    on5 1953   1.235   0.352   4.246  0.7981 -1.0701 -0.0565
  350ntf    fn4 1954   1.254   0.669   4.050 -0.3540  0.2742  0.0599
  350ntf    fn4 1955   1.082   0.554   4.099 -0.6094 -0.1329  0.0794
  350ntf    fn4 1956   1.197   0.658   4.249 -0.1406 -0.7048 -0.4980
  351ntf    cn1 1957   1.991   0.569   0.526 -0.1793  0.2409 -0.0884
  351ntf    sn2 1958   1.830   0.514   0.461  0.2653 -0.5698 -0.5146
  351ntf    nn3 1959   1.752   0.494   0.596 -0.3773 -0.4744 -0.8689
  351ntf    sn2 1960   1.657   0.381   0.648 -0.1819 -0.2197  0.0620
  351ntf    cn1 1961   1.597   0.430   0.812 -0.2516  0.3197 -0.1205
  351ntf    fn4 1962   2.075   0.594   0.428 -0.4611  0.5412 -0.2538
  351ntf    fn4 1963   1.980   0.674   0.606 -0.1003  0.2260 -0.0578
  351ntf    fn4 1964   2.051   0.474   0.596 -0.0828  0.5593  0.2623
  351ntf    on5 1965   1.783   0.628   0.387  0.3229 -0.3961 -0.2849
  351ntf    on5 1966   1.854   0.390   0.391  0.4781 -0.6331 -0.3314
  351ntf    on5 1967   1.736   0.262   0.662  0.3183  0.0672 -0.2968
  351ntf    on5 1968   1.532   0.374   0.575  0.0200 -0.5560 -0.2554
  351ntf    fn4 1969   1.695   0.454   0.898 -0.0338  0.1591 -0.3239
  351ntf    fn4 1970   1.517   0.535   0.812 -0.0950  0.4461  0.6389
  351ntf    fn4 1971   1.525   0.337   0.873  0.1193 -0.0182 -0.1944
  352ntf    cn1 1972   0.147   0.357   0.680 -0.6672  0.0608  0.2360
  352ntf    sn2 1973   0.105   0.258   0.827 -0.0433 -0.2860  0.1846
  352ntf    nn3 1974   0.172   0.329   0.949 -0.2787 -0.2181  0.2752
  352ntf    sn2 1975   0.118   0.373   1.090 -0.1423 -0.5233  0.4217
  352ntf    cn1 1976   0.124   0.554   1.074  0.2195 -0.5425  0.3256
  352ntf    fn4 1977   0.120   0.299   0.564  0.3267  0.1478 -0.0430
  352ntf    fn4 1978   0.082   0.472   0.681 -0.6747  0.0622 -0.2214
  352ntf    fn4 1979   0.273   0.396   0.679 -0.5177 -0.4181  0.0846
  352ntf    on5 1980  -0.039   0.247   0.836 -0.0714 -0.2008 -0.1349
  352ntf    on5 1981   0.174   0.136   0.792  0.0907 -0.3238  0.5796
  352ntf    on5 1982   0.221   0.356   1.190  0.7363  0.2971 -0.3301
  352ntf    on5 1983  -0.018   0.349   1.132 -0.4230 -0.0102 -0.1872
  352ntf    fn4 1984   0.056   0.602   0.972  0.5653  0.0986  0.3938
  352ntf    fn4 1985   0.078   0.612   1.184 -0.1512  0.2341 -0.2339
  352ntf    fn4 1986   0.248   0.596   1.057  0.0183 -0.1795 -0.2626
  353ntf    cn1 1987   2.173   0.668   6.153  0.0642 -0.3341  0.4378
  353ntf    sn2 1988   2.019   0.705   6.243  0.2177  0.1328  0.5081
  353ntf    nn3 1989   2.062   0.692   6.394 -0.5889  0.2830  0.7575
  353ntf    sn2 1990   2.064   0.559   6.476 -0.0084 -0.0436  0.2237
  353ntf    cn1 1991   2.128   0.613   6.637 -0.2866  0.0957  0.2877
  353ntf    fn4 1992   2.157   0.659   6.022  1.0278  0.1706  0.2731
  353ntf    fn4 1993   2.261   0.764   6.173 -0.1972 -0.0538  0.2451
  353ntf    fn4 1994   2.230   0.556   6.195  0.4935 -0.4153 -0.3544
  353ntf    on5 1995   1.998   0.839   6.195  0.5175  0.0359  0.0978
  353ntf    on5 1996   1.925   0.606   6.197 -0.2692  0.5570  0.5856
  353ntf    on5 1997   2.156   0.459   6.426 -0.2769 -0.2337  0.1075
  353ntf    on5 1998   1.929   0.515   6.503 -0.0777 -0.0568 -0.1361
  353ntf    fn4 1999   2.056   0.716   6.680 -0.2207  0.0284  0.5614
  353ntf    fn4 2000   2.128   0.520   6.731 -0.8285 -0.3053 -0.1034
  353ntf    fn4 2001   2.254   0.655   6.632 -0.3019  0.0738 -0.3281
  354ntf    cn1 2002   2.079   2.188   5.474 -0.2450  0.1626  0.1309
  354ntf    sn2 2003   1.933   2.085   5.503  0.0495 -0.3082 -0.0377
  354ntf    nn3 2004   1.823   2.197   5.497 -0.2653 -0.6038  0.2021
  354ntf    sn2 2005   1.696   2.231   5.584 -0.2196 -0.3471  0.1680
  354ntf    cn1 2006   1.558   2.155   5.495 -0.3754 -0.0003  0.1129
  354ntf    fn4 2007   2.105   2.256   5.584 -0.0671 -0.2187  0.3279
  354ntf    fn4 2008   2.187   2.122   5.436 -0.6249  0.0487 -0.7788
  354ntf    fn4 2009   2.058   2.284   5.385  0.4787 -0.3609 -0.6264
  354ntf    on5 2010   1.943   2.003   5.385  0.4547  0.0806 -0.2751
  354ntf    on5 2011   1.965   2.027   5.632  0.0652  0.4143  0.2899
  354ntf    on5 2012   1.670   2.372   5.573 -0.3012 -0.3193  0.6724
  354ntf    on5 2013   1.681   2.167   5.713  0.2323  0.0930  0.4445
  354ntf    fn4 2014   1.446   2.155   5.566 -0.0982  0.6135  0.5546
  354ntf    fn4 2015   1.529   2.225   5.386  0.3456  0.2366  0.0682
  354ntf    fn4 2016   1.580   2.032   5.450  0.6323  0.2667 -0.1509
  355ntf    cn1 2017   0.020   2.333   1.625  0.2515  0.3285 -0.2243
  355ntf    sn2 2018   0.135   2.213   1.700 -0.1062  0.2758  0.2390
  355ntf    nn3 2019   0.056   2.158   1.825  0.3606 -0.3207  0.2748
  355ntf    sn2 2020   0.028   2.236   1.958  0.1166  0.0198  0.0262
  355ntf    cn1 2021  -0.010   2.102   2.075 -0.3748  0.0248 -0.1273
  355ntf    fn4 2022   0.006   2.447   1.689  0.1327  0.1473  0.0726
  355ntf    fn4 2023   0.060   2.368   1.504 -0.2358  0.3387 -0.3847
  355ntf    fn4 2024  -0.101   2.284   1.601  0.4660 -0.1410 -0.3729
  355ntf    on5 2025   0.149   2.115   1.595 -0.5246 -0.0559  0.4855
  355ntf    on5 2026   0.253   2.290   1.730  0.0052  0.0216  0.4650
  355ntf    on5 2027  -0.099   2.302   1.941  0.1353  0.1098  0.2305
  355ntf    on5 2028   0.141   2.302   2.020  0.0136 -0.0677  0.3085
  355ntf    fn4 2029  -0.113   2.029   2.035  0.4616 -0.8931 -0.6526
  355ntf    fn4 2030   0.099   2.029   2.092 -0.5633 -0.2274 -0.0098
  355ntf    fn4 2031  -0.031   2.153   2.195  0.1552 -0.5235  0.1980
  356ntf    cn1 2032   2.234   1.542   2.010 -0.1915 -0.1272 -0.0145
  356ntf    sn2 2033   2.294   1.552   2.181 -0.0113 -0.1728 -0.0740
  356ntf    nn3 2034   2.209   1.439   2.249 -0.3070 -0.1769 -0.4495
  356ntf    sn2 2035   2.070   1.449   2.321 -0.0350  0.4863 -0.0162
  356ntf    cn1 2036   2.131   1.432   2.492  0.5449  0.1719 -0.2519
  356ntf    fn4 2037   2.104   1.559   2.002 -0.1801  0.1622  0.4291
  356ntf    fn4 2038   2.283   1.637   1.932  0.4176 -0.4746 -0.0627
  356ntf    fn4 2039   2.273   1.431   1.948 -0.3339 -0.2906  0.1883
  356ntf    on5 2040   2.429   1.503   2.181  0.0068 -0.1236  0.0832
  356ntf    on5 2041   2.270   1.686   2.229  0.2804 -0.2842  0.3898
  356ntf    on5 2042   1.985   1.335   2.300  1.0126 -0.2115 -0.5456
  356ntf    on5 2043   2.001   1.576   2.327 -0.2582  0.3526  0.2963
  356ntf    fn4 2044   2.218   1.523   2.532  0.4654  0.2635 -0.2877
  356ntf    fn4 2045   2.029   1.448   2.574  0.4199  0.0763 -0.3877
  356ntf    fn4 2046   2.180   1.312   2.516 -0.0197  0.0529  0.3296
  357ntf    cn1 2047   0.677   1.734   0.919  0.1554  0.0207 -0.5025
  357ntf    sn2 2048   0.821   1.822   0.985  0.2527 -0.3499 -0.2175
  357ntf    nn3 2049   0.840   1.729   1.110 -0.1960 -0.1678 -0.0102
  357ntf    sn2 2050   0.829   1.769   1.262  0.1331  0.2213 -0.0852
  357ntf    cn1 2051   1.006   1.792   1.293  0.0574 -0.1290  0.6215
  357ntf    fn4 2052   0.618   1.798   0.819 -0.3079 -0.4070 -0.5105
  357ntf    fn4 2053   0.710   1.612   0.881  0.4458 -0.0607  0.0063
  357ntf    fn4 2054   0.580   1.725   1.009  0.5978  0.2059 -0.0016
  357ntf    on5 2055   0.922   1.792   0.886 -0.4183  0.0209 -1.0236
  357ntf    on5 2056   0.770   1.957   0.997 -0.3464 -0.5791 -0.1423
  357ntf    on5 2057   0.796   1.654   1.343  0.2385  0.5451  0.4186
  357ntf    on5 2058   0.768   1.893   1.303  0.4632  0.3838 -0.0898
  357ntf    fn4 2059   1.056   1.872   1.201 -0.2986 -0.1758  0.3876
  357ntf    fn4 2060   1.037   1.843   1.411  0.5462  0.0107  0.4345
  357ntf    fn4 2061   1.069   1.676   1.291  0.0445 -0.1262 -0.3515
  358ntf    cn1 2062   0.830   1.706   0.281 -0.2820  0.0544  0.1993
  358ntf    sn2 2063   0.852   1.627   0.444  0.1441  0.1260  0.1771
  358ntf    nn3 2064   0.719   1.681   0.508  0.0225  0.4278 -0.3153
  358ntf    sn2 2065   0.573   1.626   0.493  0.1989 -0.1597  0.0600
  358ntf    cn1 2066   0.489   1.778   0.438  0.4743  0.0089  0.1077
  358ntf    fn4 2067   0.805   1.835   0.292 -0.3345  0.0488  0.1510
  358ntf    fn4 2068   0.945   1.699   0.216 -0.4703  0.4010 -0.1750
  358ntf    fn4 2069   0.733   1.657   0.205 -0.1411  0.7650 -0.4426
  358ntf    on5 2070   0.857   1.484   0.428 -0.0564  0.1763 -0.3710
  358ntf    on5 2071   0.968   1.694   0.496 -0.1877  0.7390  0.1488
  358ntf    on5 2072   0.503   1.595   0.615  0.6943  0.4181  0.5004
  358ntf    on5 2073   0.543   1.539   0.382  0.4780  0.0123 -0.1527
  358ntf    fn4 2074   0.468   1.862   0.538 -0.4316  0.2178 -0.2560
  358ntf    fn4 2075   0.535   1.857   0.342  0.5369  0.0440  0.1659
  358ntf    fn4 2076   0.367   1.744   0.400  0.3743 -0.0274  0.4606
  359ntf    cn1 2077   0.749   1.721   4.548 -0.4350 -0.1170  0.0764
  359ntf    sn2 2078   0.825   1.800   4.692  0.0309  0.1410 -0.3067
  359ntf    nn3 2079   0.790   1.685   4.794  0.2407  0.7545  0.4730
  359ntf    sn2 2080   0.877   1.587   4.880  0.2356  0.2912 -0.0422
  359ntf    cn1 2081   0.870   1.436   4.780 -0.0435  0.1939  0.1215
  359ntf    fn4 2082   0.830   1.633   4.490  0.0621 -0.0404  0.6516
  359ntf    fn4 2083   0.635   1.661   4.576 -0.4704 -0.0556  0.0619
  359ntf    fn4 2084   0.731   1.806   4.448  0.6980  0.1042  0.0496
  359ntf    on5 2085   0.964   1.830   4.667  0.0552  0.1694 -0.1393
  359ntf    on5 2086   0.734   1.910   4.715  0.2274  0.2634 -0.1007
  359ntf    on5 2087   0.806   1.545   4.999  0.3159  0.0444 -0.0814
  359ntf    on5 2088   1.019   1.611   4.883  0.2564  0.1376  0.3381
  359ntf    fn4 2089   0.950   1.445   4.675  0.2437 -0.3943  0.2874
  359ntf    fn4 2090   0.902   1.325   4.845  0.2827 -0.0962 -0.5240
  359ntf    fn4 2091   0.745   1.421   4.738 -0.1361  0.3235  0.3508
  360ntf    cn1 2092   0.571   0.726   6.252 -0.1057  0.1594  0.6545
  360ntf    sn2 2093   0.430   0.814   6.180 -0.1462 -0.2941  0.1673
  360ntf    nn3 2094   0.488   0.847   6.038 -0.0617 -0.3098  0.1989
  360ntf    sn2 2095   0.424   0.841   5.895  0.1305 -0.0628  0.1024
  360ntf    cn1 2096   0.571   0.779   5.808  0.2117  0.0578  0.1531
  360ntf    fn4 2097   0.547   0.688   6.376  0.0217 -0.1032  0.5995
  360ntf    fn4 2098   0.600   0.621   6.177 -0.2460  0.2206  0.5134
  360ntf    fn4 2099   0.689   0.787   6.248 -0.1711  0.2652  0.2735
  360ntf    on5 2100   0.315   0.729   6.199 -0.1979 -0.3345 -0.3138
  360ntf    on5 2101   0.426   0.940   6.251 -0.2609 -0.1797 -0.0406
  360ntf    on5 2102   0.393   0.970   5.839  0.6111 -0.0158 -0.0599
  360ntf    on5 2103   0.333   0.730   5.881 -0.0399  0.1559 -0.5631
  360ntf    fn4 2104   0.556   0.750   5.680  0.0688 -0.0720  0.1977
  360ntf    fn4 2105   0.671   0.865   5.814  0.2687 -0.0239  0.3895
  360ntf    fn4 2106   0.618   0.666   5.858  0.0933 -0.0832 -0.0514
  361ntf    cn1 2107   2.137   2.080   3.565  0.2761  0.3671  0.1053
  361ntf    sn2 2108   2.189   1.907   3.544 -0.1468  0.2189  0.2682
  361ntf    nn3 2109   2.211   1.906   3.388 -0.1750 -0.0974  0.2670
  361ntf    sn2 2110   2.199   1.789   3.284 -0.1749 -0.1033  0.2739
  361ntf    cn1 2111   2.081   1.856   3.163  0.1367  0.4653  0.2822
  361ntf    fn4 2112   2.144   2.115   3.692 -0.4055 -0.0405  0.2583
  361ntf    fn4 2113   2.210   2.162   3.490  0.4754  0.5610  0.5087
  361ntf    fn4 2114   2.011   2.104   3.533  0.2556  0.0683 -0.0376
  361ntf    on5 2115   2.320   1.903   3.605  0.1188  0.1615 -0.2913
  361ntf    on5 2116   2.086   1.829   3.607  0.1572 -0.3904  0.0194
  361ntf    on5 2117   2.125   1.672   3.324 -0.4002  0.0108  0.1898
  361ntf    on5 2118   2.323   1.774   3.211  0.2130  0.8683  0.7241
  361ntf    fn4 2119   1.961   1.867   3.215 -0.1706 -0.2497 -0.2501
  361ntf    fn4 2120   2.111   1.978   3.121 -0.0206  0.2622 -0.4365
  361ntf    fn4 2121   2.066   1.788   3.050  0.7474  0.3879  0.2408
  362ntf    cn1 2122   1.561   1.894   1.534 -0.4997 -0.1437  0.2052
  362ntf    sn2 2123   1.538   2.018   1.403 -0.0026 -0.4379 -0.1657
  362ntf    nn3 2124   1.642   1.962   1.300  0.1933  0.2013 -0.3236
  362ntf    sn2 2125   1.656   1.993   1.147  0.4498  0.1985 -0.3025
  362ntf    cn1 2126   1.608   1.831   1.079  0.0779  0.1092  0.1677
  362ntf    fn4 2127   1.566   1.769   1.492 -0.0780  0.1119 -0.5369
  362ntf    fn4 2128   1.674   1.910   1.600 -0.4255 -0.8469  0.2509
  362ntf    fn4 2129   1.462   1.888   1.621 -0.2111  0.1782  0.5607
  362ntf    on5 2130   1.399   2.007   1.366 -0.0679 -0.1648 -0.0116
  362ntf    on5 2131   1.585   2.138   1.469  0.0732 -0.6544  0.1761
  362ntf    on5 2132   1.791   2.021   1.106  0.6082 -0.5930 -0.3380
  362ntf    on5 2133   1.556   2.083   1.095  0.0400 -0.0287  0.0807
  362ntf    fn4 2134   1.478   1.807   1.092  0.0685  0.0443 -0.0423
  362ntf    fn4 2135   1.643   1.817   0.953  0.0309  0.2649  0.1364
  362ntf    fn4 2136   1.670   1.738   1.150 -0.4018 -0.3248  0.0309
  363ntf    cn1 2137   1.727   0.610   2.582 -0.2428  0.1413 -0.3282
  363ntf    sn2 2138   1.715   0.671   2.411  0.2115  0.3536 -0.2842
  363ntf    nn3 2139   1.807   0.563   2.344  0.6497  0.8522 -0.4930
  363ntf    sn2 2140   1.823   0.510   2.197 -0.1560  0.0374 -0.2909
  363ntf    cn1 2141   1.776   0.335   2.214 -0.2306  0.0283 -0.5893
  363ntf    fn4 2142   1.845   0.638   2.635 -0.1936 -0.1749 -0.2690
  363ntf    fn4 2143   1.636   0.651   2.670  0.2066 -0.2587  0.3295
  363ntf    fn4 2144   1.719   0.478   2.580  0.0444  0.1307 -0.6931
  363ntf    on5 2145   1.573   0.663   2.388  0.1184  0.0946  0.3585
  363ntf    on5 2146   1.772   0.802   2.433  0.2191  0.1757  0.8277
  363ntf    on5 2147   1.962   0.500   2.161 -0.0201 -0.0685  0.2586
  363ntf    on5 2148   1.733   0.564   2.098 -0.0040 -0.1647 -0.5429
  363ntf    fn4 2149   1.763   0.273   2.097 -0.0156 -0.1009 -0.5440
  363ntf    fn4 2150   1.864   0.265   2.283 -0.6037 -0.0728 -0.2121
  363ntf    fn4 2151   1.659   0.326   2.275  0.1828  0.4345  0.2743
  364ntf    cn1 2152   2.302   2.282   5.070  0.0343 -0.0707  0.1348
  364ntf    sn2 2153   2.274   2.256   4.892  0.1500 -0.2665  0.1448
  364ntf    nn3 2154   2.137   2.178   4.893 -0.2585  0.4502  0.2168
  364ntf    sn2 2155   1.996   2.246   4.880 -0.2950  0.3803  0.2520
  364ntf    cn1 2156   1.973   2.225   4.701  0.1262  0.3232  0.2049
  364ntf    fn4 2157   2.408   2.358   5.088 -0.0676  0.1977 -0.3719
  364ntf    fn4 2158   2.205   2.344   5.136  0.3491  0.6335 -0.0541
  364ntf    fn4 2159   2.316   2.166   5.131 -0.3947 -0.3582 -0.2934
  364ntf    on5 2160   2.263   2.385   4.829  0.1206 -0.3055  0.0698
  364ntf    on5 2161   2.389   2.181   4.847  0.1133 -0.3421  0.1771
  364ntf    on5 2162   1.981   2.387   4.905 -0.8008  0.3554  0.0959
  364ntf    on5 2163   1.891   2.157   4.923 -0.4959  0.1606 -0.6760
  364ntf    fn4 2164   1.862   2.284   4.660  0.2617  0.1875 -0.3713
  364ntf    fn4 2165   2.069   2.260   4.616  0.1152 -0.1205  0.0086
  364ntf    fn4 2166   1.949   2.098   4.673  0.3207  0.2936  0.1699
  365ntf    cn1 2167   0.409   0.337   6.330 -0.3862 -0.1096  0.3598
  365ntf    sn2 2168   0.418   0.168   6.264 -0.0757 -0.0296  0.1946
  365ntf    nn3 2169   0.274   0.114   6.295 -0.0822 -0.3330 -0.3432
  365ntf    sn2 2170   0.209   0.058   6.427  0.1293 -0.0807 -0.1315
  365ntf    cn1 2171   0.064   0.163   6.452  0.2942  0.1773 -0.2590
  365ntf    fn4 2172   0.511   0.414   6.294 -0.5939  0.1873  0.4044
  365ntf    fn4 2173   0.307   0.401   6.275 -0.0477 -0.2169 -0.4059
  365ntf    fn4 2174   0.400   0.347   6.461  0.0476  0.1625  0.3707
  365ntf    on5 2175   0.446   0.189   6.124 -0.2930  0.2659  0.1949
  365ntf    on5 2176   0.522   0.108   6.344  0.3213 -0.4199 -0.5890
  365ntf    on5 2177   0.279   0.085   6.550  0.2918  0.5477 -0.3602
  365ntf    on5 2178   0.158  -0.075   6.403  0.2961 -0.0904 -0.4383
  365ntf    fn4 2179   0.080   0.287   6.406  0.6493  0.0301 -0.5369
  365ntf    fn4 2180  -0.033   0.121   6.371  0.2550  0.3469 -0.3027
  365ntf    fn4 2181   0.021   0.171   6.577  0.4784  0.4780 -0.2140
  366ntf    cn1 2182   1.268   1.351   4.225  0.3977  0.1326  0.0476
  366ntf    sn2 2183   1.371   1.302   4.083 -0.3330 -0.0327 -0.4281
  366ntf    nn3 2184   1.512   1.339   4.141 -0.4737 -0.1815  0.0175
  366ntf    sn2 2185   1.614   1.246   4.215 -0.2268  0.0381 -0.0443
  366ntf    cn1 2186   1.772   1.326   4.176 -0.2953  0.0770 -0.2408
  366ntf    fn4 2187   1.270   1.480   4.256  0.1036  0.2081 -0.2470
  366ntf    fn4 2188   1.143   1.311   4.211  0.5165  0.0490 -0.8488
  366ntf    fn4 2189   1.306   1.289   4.336  0.2012 -0.0433  0.0173
  366ntf    on5 2190   1.345   1.162   4.066  0.0283 -0.1213 -0.2398
  366ntf    on5 2191   1.332   1.387   3.973 -0.0712 -0.0739 -0.5538
  366ntf    on5 2192   1.634   1.125   4.140 -0.1909  0.2892 -0.4396
  366ntf    on5 2193   1.609   1.245   4.359  0.2889 -0.0967 -0.0254
  366ntf    fn4 2194   1.783   1.342   4.045 -0.0026 -0.2755 -0.2611
  366ntf    fn4 2195   1.780   1.448   4.227 -0.1411 -0.2678  0.5679
  366ntf    fn4 2196   1.871   1.249   4.219 -0.1830  0.0614 -0.5211
  367ntf    cn1 2197   2.211   1.056   4.482  0.0750  0.2800  0.1535
  367ntf    sn2 2198   2.280   1.165   4.610  0.1831  0.2431  0.1275
  367ntf    nn3 2199   2.177   1.284   4.603 -0.2193 -0.0942  0.2704
  367ntf    sn2 2200   2.193   1.439   4.584 -0.1426 -0.1737 -0.3542
  367ntf    cn1 2201   2.027   1.470   4.516 -0.2148 -0.5400 -0.3445
  367ntf    fn4 2202   2.189   1.119   4.367 -0.2591 -0.0197  0.0524
  367ntf    fn4 2203   2.296   0.960   4.449 -0.5465 -0.1877 -0.1150
  367ntf    fn4 2204   2.100   0.990   4.510  0.2514 -0.1499 -0.1560
  367ntf    on5 2205   2.270   1.083   4.728 -0.5878 -0.0720 -0.1502
  367ntf    on5 2206   2.411   1.197   4.560  0.1947 -0.7351 -0.5015
  367ntf    on5 2207   2.286   1.475   4.481 -0.1850 -0.2056 -0.4035
  367ntf    on5 2208   2.186   1.511   4.709  0.0904 -0.2588 -0.2925
  367ntf    fn4 2209   1.933   1.412   4.589 -0.4221  0.1680 -0.0483
  367ntf    fn4 2210   2.008   1.600   4.507  0.5762 -0.3801  0.1837
  367ntf    fn4 2211   2.020   1.416   4.395 -0.1316 -0.5059 -0.3647
  368ntf    cn1 2212   0.405   1.925   5.291  0.6322  0.0317  0.0652
  368ntf    sn2 2213   0.450   1.752   5.257  0.0143 -0.1700  0.2496
  368ntf    nn3 2214   0.339   1.674   5.336 -0.2553 -0.3262 -0.2788
  368ntf    sn2 2215   0.346   1.564   5.447  0.3410  0.1889  0.2016
  368ntf    cn1 2216   0.289   1.656   5.593  0.0846  0.1075  0.1528
  368ntf    fn4 2217   0.390   1.943   5.421 -0.2916  0.0050 -0.0258
  368ntf    fn4 2218   0.510   1.999   5.261  0.7233  0.0124  0.3338
  368ntf    fn4 2219   0.306   1.978   5.220 -0.0259 -0.9230  0.2470
  368ntf    on5 2220   0.437   1.749   5.114 -0.3466  0.2778  0.2713
  368ntf    on5 2221   0.582   1.757   5.315  0.1364  0.0983 -0.0490
  368ntf    on5 2222   0.474   1.506   5.480  0.2815 -0.1524 -0.1565
  368ntf    on5 2223   0.234   1.479   5.414  0.5346  0.1585 -0.3935
  368ntf    fn4 2224   0.297   1.584   5.704 -0.1623  0.1526  0.1999
  368ntf    fn4 2225   0.368   1.760   5.616  0.1787 -0.0258  0.4373
  368ntf    fn4 2226   0.166   1.705   5.595  0.2908  0.6528 -0.3142
  369ntf    cn1 2227   0.676   1.861   4.081  0.3077 -0.0975  0.0274
  369ntf    sn2 2228   0.612   2.019   4.144  0.1595 -0.2392  0.2327
  369ntf    nn3 2229   0.470   2.024   4.077  0.4294 -0.3402 -0.3538
  369ntf    sn2 2230   0.329   1.983   4.132  0.5996  0.0041  0.3581
  369ntf    cn1 2231   0.300   1.873   3.990  0.2068  0.3227  0.1881
  369ntf    fn4 2232   0.804   1.862   4.115  0.1896  0.0477  0.4865
  369ntf    fn4 2233   0.616   1.756   4.135 -0.4162  0.4130  0.2386
  369ntf    fn4 2234   0.677   1.855   3.949  0.2584  0.0441  0.0203
  369ntf    on5 2235   0.608   2.000   4.287 -0.4384  0.4943  0.3215
  369ntf    on5 2236   0.705   2.117   4.092  0.1380 -0.4525 -0.2124
  369ntf    on5 2237   0.229   2.084   4.107  0.0978 -0.6669 -0.4023
  369ntf    on5 2238   0.315   1.900   4.249 -0.7588 -0.2866  0.0114
  369ntf    fn4 2239   0.190   1.800   3.995  0.5151 -0.1458  0.2506
  369ntf    fn4 2240   0.297   1.953   3.885  0.1863 -0.7306 -0.6279
  369ntf    fn4 2241   0.397   1.786   3.964  0.4642  0.6657 -0.0022
  370ntf    cn1 2242   1.238   0.267   4.686 -0.1799 -0.0599  0.0854
  370ntf    sn2 2243   1.319   0.106   4.707  0.1547  0.0955  0.0020
  370ntf    nn3 2244   1.268   0.065   4.850 -0.3038  0.2051 -0.1262
  370ntf    sn2 2245   1.152  -0.029   4.897 -0.2083  0.0026 -0.2897
  370ntf    cn1 2246   1.142   0.040   5.065  0.1164 -0.0324 -0.2570
  370ntf    fn4 2247   1.264   0.330   4.572 -0.7273  0.2151  0.1107
  370ntf    fn4 2248   1.106   0.258   4.689 -0.1955  0.1144 -0.0537
  370ntf    fn4 2249   1.265   0.350   4.786 -0.8482  0.2176  0.0402
  370ntf    on5 2250   1.271   0.016   4.604 -0.0073  0.1360  0.0429
  370ntf    on5 2251   1.458   0.143   4.704  0.2035 -0.0957 -0.1977
  370ntf    on5 2252   1.197  -0.164   4.921  0.0241  0.1451  0.0910
  370ntf    on5 2253   1.020  -0.008   4.841 -0.0989 -0.0027 -0.5500
  370ntf    fn4 2254   1.087   0.160   5.066  0.4070  0.1022  0.4312
  370ntf    fn4 2255   1.061  -0.027   5.145  0.1145 -0.2022 -0.4019
  370ntf    fn4 2256   1.260   0.035   5.126  0.0908  0.1699 -0.1907
  371ntf    cn1 2257   0.145   0.325   1.745 -0.0679 -0.0758 -0.3463
  371ntf    sn2 2258   0.015   0.421   1.828 -0.1399 -0.1812 -0.3378
  371ntf    nn3 2259  -0.002   0.551   1.743 -0.0232 -0.2596 -0.4820
  371ntf    sn2 2260  -0.113   0.601   1.643 -0.0959 -0.0400 -0.2943
  371ntf    cn1 2261  -0.007   0.689   1.524 -0.2260  0.2088 -0.2264
  371ntf    fn4 2262   0.118   0.288   1.621  0.7212 -0.4011 -0.4284
  371ntf    fn4 2263   0.256   0.395   1.732 -0.2054  0.1621 -0.2448
  371ntf    fn4 2264   0.181   0.215   1.809  0.2761  0.1965 -0.0673
  371ntf    on5 2265  -0.099   0.332   1.838 -0.0377 -0.2175  0.6260
  371ntf    on5 2266   0.084   0.451   1.952  0.0006 -0.2076 -0.4096
  371ntf    on5 2267  -0.203   0.702   1.692  0.2529 -0.1825  0.6538
  371ntf    on5 2268  -0.165   0.500   1.554  0.7965 -0.1904 -0.6547
  371ntf    fn4 2269   0.039   0.610   1.428 -0.2143 -0.0326 -0.0237
  371ntf    fn4 2270  -0.078   0.777   1.457 -0.1723  0.1024 -0.4252
  371ntf    fn4 2271   0.100   0.748   1.576 -0.2058  0.0118 -0.0414
  372ntf    cn1 2272   1.313   0.021   2.005  0.0645 -0.2006  0.0349
  372ntf    sn2 2273   1.131   0.021   2.000  0.0642  0.4857 -0.0190
  372ntf    nn3 2274   1.105   0.018   2.155  0.3216 -0.4141  0.0131
  372ntf    sn2 2275   1.057  -0.107   2.235 -0.3994 -0.1757 -0.0372
  372ntf    cn1 2276   1.007  -0.042   2.398 -0.2127 -0.1407  0.0066
  372ntf    fn4 2277   1.360   0.134   2.054 -0.8946  0.0404  0.4202
  372ntf    fn4 2278   1.360  -0.078   2.079 -0.3500 -0.1522  0.3681
  372ntf    fn4 2279   1.363   0.002   1.884 -0.2316 -0.2419 -0.0819
  372ntf    on5 2280   1.095   0.147   1.939 -0.4608  0.2328 -0.2344
  372ntf    on5 2281   1.094  -0.095   1.923 -0.5286  0.3254  0.4971
  372ntf    on5 2282   1.159  -0.205   2.265 -0.2197  0.0823  0.2057
  372ntf    on5 2283   0.932  -0.164   2.190 -0.5124  0.3050 -0.3261
  372ntf    fn4 2284   0.900   0.034   2.410 -0.2132 -0.1157 -0.1515
  372ntf    fn4 2285   0.983  -0.139   2.484  0.0478 -0.5546 -0.3775
  372ntf    fn4 2286   1.102   0.032   2.452 -0.0147 -0.1804 -0.2794
  373ntf    cn1 2287   0.666   0.708   4.452  0.4397 -0.1561 -0.0651
  373ntf    sn2 2288   0.824   0.793   4.424  0.1518  0.3243 -0.2310
  373ntf    nn3 2289   0.864   0.752   4.278  0.0455  0.1172 -0.2016
  373ntf    sn2 2290   0.844   0.827   4.142  0.3348  0.1403 -0.2328
  373ntf    cn1 2291   0.746   0.703   4.052  0.0818 -0.0221  0.2618
  373ntf    fn4 2292   0.574   0.753   4.368  0.4309  0.0663  0.0628
  373ntf    fn4 2293   0.670   0.576   4.436 -0.0515 -0.1107 -0.6326
  373ntf    fn4 2294   0.610   0.729   4.569  0.3513  0.3741 -0.2027
  373ntf    on5 2295   0.795   0.934   4.438  0.9533  0.5713 -0.9914
  373ntf    on5 2296   0.907   0.736   4.527 -0.0228 -0.4750 -0.5299
  373ntf    on5 2297   0.964   0.851   4.067  0.2517  0.1396 -0.3673
  373ntf    on5 2298   0.766   0.949   4.148  0.6443  0.3435 -0.3138
  373ntf    fn4 2299   0.637   0.657   4.112  0.2535 -0.5156  0.1994
  373ntf    fn4 2300   0.714   0.759   3.936  0.0212  0.3087  0.4353
  373ntf    fn4 2301   0.817   0.597   4.020 -0.0695  0.1909 -0.8042
  374ntf    cn1 2302   1.053   0.530   0.865 -0.0782  0.1465  0.2699
  374ntf    sn2 2303   1.069   0.607   0.701 -0.1328  0.0311  0.2110
  374ntf    nn3 2304   0.922   0.594   0.646 -0.0161  0.1104 -0.1153
  374ntf    sn2 2305   0.856   0.506   0.534  0.0244  0.0992 -0.1304
  374ntf    cn1 2306   0.912   0.605   0.392  0.1268  0.1677 -0.0430
  374ntf    fn4 2307   1.048   0.398   0.855  0.3034  0.1551 -0.0877
  374ntf    fn4 2308   1.158   0.562   0.939  0.2054 -0.1458 -0.0057
  374ntf    fn4 2309   0.948   0.575   0.931  0.2787  0.5375  0.5814
  374ntf    on5 2310   1.109   0.744   0.720 -0.6589  0.1599  0.3990
  374ntf    on5 2311   1.167   0.527   0.632 -0.0223  0.2572  0.1059
  374ntf    on5 2312   0.713   0.524   0.536  0.0171  0.0346 -0.0524
  374ntf    on5 2313   0.918   0.378   0.507  0.6877  0.1714  0.9983
  374ntf    fn4 2314   1.043   0.592   0.377  0.1555  0.7793 -0.3571
  374ntf    fn4 2315   0.857   0.566   0.278  0.2027 -0.4456  0.1244
  374ntf    fn4 2316   0.884   0.733   0.408 -0.2858  0.0204  0.4421
  375ntf    cn1 2317   0.269   1.031   3.180  0.2942 -0.1264 -0.1268
  375ntf    sn2 2318   0.197   0.946   3.036  0.1479 -0.3244  0.0613
  375ntf    nn3 2319   0.124   1.059   2.955 -0.0657 -0.3253  0.2549
  375ntf    sn2 2320   0.007   1.054   2.851  0.0643 -0.2113  0.1031
  375ntf    cn1 2321   0.075   1.054   2.682 -0.4547 -0.2977 -0.1107
  375ntf    fn4 2322   0.352   0.952   3.246  0.0034 -0.3191  0.0113
  375ntf    fn4 2323   0.331   1.137   3.132 -0.2516  0.2797  0.0648
  375ntf    fn4 2324   0.188   1.071   3.276 -0.0930  0.2864 -0.6239
  375ntf    on5 2325   0.315   0.901   2.966 -0.0771 -0.3013 -0.3330
  375ntf    on5 2326   0.109   0.841   3.079 -0.1608 -0.1099 -0.0417
  375ntf    on5 2327  -0.072   1.174   2.840 -0.3006 -0.4833 -0.3415
  375ntf    on5 2328  -0.071   0.932   2.852 -0.1611 -0.0672  0.0732
  375ntf    fn4 2329  -0.007   0.988   2.602 -0.2543 -0.4822 -0.1636
  375ntf    fn4 2330   0.088   1.177   2.635 -0.6262 -0.1322  0.2721
  375ntf    fn4 2331   0.192   0.993   2.673 -0.3688 -0.0622 -0.6086
  376ntf    cn1 2332   1.399   0.620   2.915  0.2504 -0.2923  0.0632
  376ntf    sn2 2333   1.454   0.615   3.088 -0.1100  0.0838  0.1889
  376ntf    nn3 2334   1.329   0.675   3.163 -0.2687  0.2069 -0.1751
  376ntf    sn2 2335   1.284   0.823   3.189  0.0867  0.2913 -0.0327
  376ntf    cn1 2336   1.338   0.874   3.355  0.1085 -0.0909  0.0784
  376ntf    fn4 2337   1.502   0.632   2.832  0.0972  0.2928 -0.0510
  376ntf    fn4 2338   1.329   0.513   2.884  0.5201 -0.3928 -0.2092
  376ntf    fn4 2339   1.319   0.724   2.897 -0.5607 -0.8401  0.4520
  376ntf    on5 2340   1.468   0.474   3.113  0.7407  0.2263  0.5502
  376ntf    on5 2341   1.573   0.696   3.092  0.0756 -0.1738 -0.1399
  376ntf    on5 2342   1.140   0.830   3.204  0.0705 -0.2880  0.1128
  376ntf    on5 2343   1.356   0.919   3.110  0.2694  0.5253  0.4169
  376ntf    fn4 2344   1.291   0.991   3.396 -0.1983 -0.2634  0.2307
  376ntf    fn4 2345   1.289   0.793   3.448 -0.3406  0.5228  0.3868
  376ntf    fn4 2346   1.468   0.873   3.379  0.0881  0.1715  0.2120
  377ntf    cn1 2347   1.092   0.086   0.369 -0.1399 -0.1847  0.1733
  377ntf    sn2 2348   1.182  -0.015   0.248  0.3545  0.3508  0.0883
  377ntf    nn3 2349   1.063  -0.082   0.171  0.0129  0.7553  0.2628
  377ntf    sn2 2350   1.003  -0.225   0.199  0.4736  0.5225  0.0556
  377ntf    cn1 2351   1.103  -0.339   0.097 -0.0350  0.1144  0.0095
  377ntf    fn4 2352   1.033   0.006   0.456 -0.6593 -0.2261 -0.2117
  377ntf    fn4 2353   1.167   0.164   0.445 -0.5194 -0.3062  0.6812
  377ntf    fn4 2354   0.996   0.161   0.316  0.1648  0.1723  0.1258
  377ntf    on5 2355   1.242   0.083   0.161  0.0517  0.8016  0.3830
  377ntf    on5 2356   1.262  -0.108   0.325 -0.1459 -0.2156 -0.0645
  377ntf    on5 2357   0.872  -0.234   0.139  0.5355 -0.1825  0.0212
  377ntf    on5 2358   1.015  -0.272   0.335 -0.3604  0.6078  0.1643
  377ntf    fn4 2359   1.232  -0.313   0.106 -0.0725  0.1897  0.3531
  377ntf    fn4 2360   1.066  -0.459   0.139 -0.0571  0.1593  0.1214
  377ntf    fn4 2361   1.072  -0.334  -0.031 -0.5672  0.3019  0.1414
  378ntf    cn1 2362   2.341   0.743   4.264  0.2100 -0.2017  0.3134
  378ntf    sn2 2363   2.298   0.568   4.289  0.3006 -0.2245  0.3079
  378ntf    nn3 2364   2.234   0.562   4.432  0.3453  0.0823  0.3425
  378ntf    sn2 2365   2.088   0.528   4.478  0.3231 -0.1867  0.0765
  378ntf    cn1 2366   2.154   0.391   4.578  0.1516  0.0028  0.4544
  378ntf    fn4 2367   2.430   0.792   4.350  0.1811  0.0548  0.1991
  378ntf    fn4 2368   2.392   0.781   4.148  0.1986  0.5094  0.5329
  378ntf    fn4 2369   2.239   0.826   4.281 -0.1423 -0.5184 -0.2334
  378ntf    on5 2370   2.201   0.543   4.186  0.4590  0.9958 -0.1569
  378ntf    on5 2371   2.428   0.505   4.288  0.3629 -0.0841 -0.6466
  378ntf    on5 2372   1.993   0.465   4.390  0.3499 -0.2917  0.1228
  378ntf    on5 2373   2.041   0.633   4.566  0.2630  0.0097 -0.1897
  378ntf    fn4 2374   2.239   0.324   4.501 -0.5745 -0.0137 -0.3432
  378ntf    fn4 2375   2.211   0.427   4.692  0.0333 -0.3791  0.6358
  378ntf    fn4 2376   2.063   0.303   4.616  0.1688 -0.2831 -0.1445
   2.35417   2.35417   6.57608
