Converted from moscito
32400
    1SOL     ow    1   1.975   2.673   0.908 -0.2170 -0.1226  0.6619
    1SOL     hw    2   1.894   2.625   0.926 -0.0095 -0.1580  1.5420
    1SOL     hw    3   1.952   2.764   0.926 -0.2663 -0.0395  0.1858
    1SOL     vw    4   1.961   2.679   0.913 -0.1962 -0.1162  0.7153
    2SOL     ow    5   3.646   6.132   4.086  0.4750  0.8490 -0.6067
    2SOL     hw    6   3.625   6.150   3.994  0.8558 -0.1131 -0.9013
    2SOL     hw    7   3.669   6.217   4.123 -0.3526  1.3517 -1.2254
    2SOL     vw    8   3.646   6.145   4.078  0.4159  0.7885 -0.7272
    3SOL     ow    9   0.203   4.193   4.616  0.9026 -0.1185 -0.0442
    3SOL     hw   10   0.286   4.192   4.568 -0.4790  1.6452 -2.7276
    3SOL     hw   11   0.173   4.284   4.610 -3.3899 -1.4152 -3.4461
    3SOL     vw   12   0.210   4.205   4.609  0.1540 -0.0570 -0.8473
    4SOL     ow   13   0.694   2.230   7.188  0.1252 -0.2969  0.3941
    4SOL     hw   14   0.729   2.234   7.276  0.2390  1.0252  0.3159
    4SOL     hw   15   0.630   2.159   7.190 -1.5439  1.1485  2.1866
    4SOL     vw   16   0.690   2.221   7.200 -0.0800  0.0682  0.6204
    5SOL     ow   17   2.751   6.684   4.009 -0.3115 -0.2505 -0.2381
    5SOL     hw   18   2.765   6.620   3.939  0.2482 -1.2172  0.7268
    5SOL     hw   19   2.697   6.637   4.073  0.8032 -0.0630  0.8710
    5SOL     vw   20   2.746   6.669   4.008 -0.0907 -0.3531  0.0355
    6SOL     ow   21   2.769   5.896   1.422 -0.6169  0.1902 -0.1146
    6SOL     hw   22   2.733   5.891   1.333 -0.3451  1.4744 -0.3201
    6SOL     hw   23   2.770   5.990   1.442  0.4293  0.0062  0.7939
    6SOL     vw   24   2.764   5.908   1.413 -0.4431  0.3355 -0.0218
    7SOL     ow   25   0.923   5.735   3.219 -0.1989 -0.5047 -0.5638
    7SOL     hw   26   0.893   5.732   3.310  0.2787 -0.9018 -0.4104
    7SOL     hw   27   0.846   5.760   3.168 -0.1048  1.3447  0.1225
    7SOL     vw   28   0.909   5.738   3.225 -0.1234 -0.3135 -0.4530
    8SOL     ow   29   4.198   4.844   4.865 -0.2728 -0.0126 -0.0496
    8SOL     hw   30   4.237   4.807   4.785  1.1083  1.7453 -0.2249
    8SOL     hw   31   4.116   4.883   4.835 -0.2008 -0.1484 -0.4328
    8SOL     vw   32   4.192   4.844   4.850 -0.0813  0.2015 -0.1235
    9SOL     ow   33   0.265   4.653   4.488  0.0577 -0.2876  0.2396
    9SOL     hw   34   0.341   4.708   4.508 -0.6007  1.5401 -1.8773
    9SOL     hw   35   0.273   4.636   4.394 -2.4727  0.5531 -0.1840
    9SOL     vw   36   0.276   4.658   4.479 -0.3631  0.0644 -0.0956
   10SOL     ow   37   7.152   0.071   4.801 -0.7067 -0.1892 -0.3114
   10SOL     hw   38   7.066   0.105   4.824 -0.7239 -0.1579 -0.4209
   10SOL     hw   39   7.212   0.144   4.815 -0.5068 -0.5729  0.9981
   10SOL     vw   40   7.148   0.085   4.806 -0.6828 -0.2357 -0.1531
   11SOL     ow   41   7.293   2.424   1.643 -0.0170 -0.1831 -0.0235
   11SOL     hw   42   7.261   2.340   1.677 -1.2532 -0.6198 -2.0980
   11SOL     hw   43   7.356   2.400   1.575 -0.9659  0.5136 -1.1905
   11SOL     vw   44   7.297   2.410   1.639 -0.3052 -0.1488 -0.4511
   12SOL     ow   45   1.678   4.690   6.226  0.2387  0.7412  0.0126
   12SOL     hw   46   1.584   4.703   6.214 -0.1299 -1.7413 -0.2713
   12SOL     hw   47   1.698   4.734   6.309 -1.1056  1.4847 -0.0301
   12SOL     vw   48   1.669   4.698   6.235  0.0127  0.5116 -0.0303
   13SOL     ow   49   0.680   5.079   4.248 -0.0083  0.2376 -0.5022
   13SOL     hw   50   0.626   5.131   4.308 -1.7756 -0.8322 -1.0759
   13SOL     hw   51   0.699   5.138   4.175  0.6582  1.0042  0.2734
   13SOL     vw   52   0.675   5.094   4.246 -0.1535  0.1976 -0.4754
   14SOL     ow   53   2.054   7.146   4.262 -0.0305 -0.1800  0.0058
   14SOL     hw   54   2.071   7.155   4.356 -1.2116  0.5013  0.1879
   14SOL     hw   55   1.971   7.098   4.258 -0.8145  1.1469 -0.6072
   14SOL     vw   56   2.045   7.141   4.274 -0.2898  0.0849 -0.0510
   15SOL     ow   57   2.092   3.718   4.667 -0.1360 -0.1039  0.4017
   15SOL     hw   58   2.103   3.763   4.750  1.4906  0.1891  0.0518
   15SOL     hw   59   2.090   3.787   4.601  2.5330 -0.4444 -0.1549
   15SOL     vw   60   2.093   3.733   4.669  0.4308 -0.1101  0.2825
   16SOL     ow   61   1.225   0.116   4.503 -0.3328 -0.4911  0.7626
   16SOL     hw   62   1.300   0.144   4.556 -0.5884  1.5287  0.1150
   16SOL     hw   63   1.160   0.089   4.568  0.3479 -0.6946  1.3820
   16SOL     vw   64   1.226   0.116   4.519 -0.2768 -0.2515  0.7591
   17SOL     ow   65   6.012   5.252   4.365  0.6338  0.5573  0.3354
   17SOL     hw   66   6.053   5.225   4.447  0.4411 -0.8145  0.0043
   17SOL     hw   67   5.945   5.315   4.391  0.3306 -0.1386  1.2796
   17SOL     vw   68   6.008   5.257   4.379  0.5684  0.2847  0.4165
   18SOL     ow   69   6.270   6.630   3.106 -0.6248 -0.0138 -0.6729
   18SOL     hw   70   6.335   6.668   3.165 -0.8430 -2.9449  1.6967
   18SOL     hw   71   6.316   6.620   3.023  1.6704 -0.9882  0.6294
   18SOL     vw   72   6.285   6.634   3.103 -0.3507 -0.5291 -0.1885
   19SOL     ow   73   5.998   6.421   4.819  0.3370  0.2219 -0.5101
   19SOL     hw   74   6.026   6.458   4.902 -1.8009 -0.0268  0.3905
   19SOL     hw   75   6.068   6.362   4.794  0.4208 -0.7714  1.8437
   19SOL     vw   76   6.011   6.418   4.826  0.0663  0.0579 -0.0806
   20SOL     ow   77   4.237   6.133   0.641  0.2109 -0.2013  0.6404
   20SOL     hw   78   4.278   6.050   0.664  1.9996  1.0081  2.0700
   20SOL     hw   79   4.291   6.169   0.570  0.0605  0.2094  0.7292
   20SOL     vw   80   4.249   6.127   0.635  0.4272  0.0126  0.8407
   21SOL     ow   81   3.452   0.863   0.210 -0.3052  0.1697 -0.4034
   21SOL     hw   82   3.511   0.788   0.197  0.1620  0.8480 -2.7676
   21SOL     hw   83   3.369   0.823   0.235  0.4533 -0.9929  0.3994
   21SOL     vw   84   3.449   0.848   0.212 -0.1435  0.1058 -0.6094
   22SOL     ow   85   6.000   6.916   3.192  0.1221  0.0997 -0.2651
   22SOL     hw   86   6.024   6.829   3.222 -2.3444 -0.7272 -0.4234
   22SOL     hw   87   6.071   6.942   3.133 -0.5332 -3.1882 -2.7813
   22SOL     vw   88   6.012   6.908   3.188 -0.2899 -0.4430 -0.6180
   23SOL     ow   89   5.497   2.495   0.469 -0.0176  0.6130  0.2901
   23SOL     hw   90   5.591   2.478   0.463 -0.4693 -2.2733  0.1177
   23SOL     hw   91   5.473   2.530   0.383  0.6657 -0.0865 -0.1960
   23SOL     vw   92   5.506   2.498   0.457  0.0131  0.1398  0.2033
   24SOL     ow   93   6.253   3.233   1.451 -0.2442  0.1283 -0.8143
   24SOL     hw   94   6.286   3.220   1.362  0.9633  0.6456 -0.4761
   24SOL     hw   95   6.193   3.161   1.466  0.6221 -0.7798 -1.5648
   24SOL     vw   96   6.250   3.222   1.442  0.0293  0.0768 -0.8687
   25SOL     ow   97   2.699   0.903   7.098 -0.0213 -0.3474 -0.1567
   25SOL     hw   98   2.630   0.962   7.067  0.9886  0.8032 -0.2878
   25SOL     hw   99   2.704   0.834   7.032 -0.7039 -0.1816 -0.3906
   25SOL     vw  100   2.691   0.902   7.085  0.0219 -0.1737 -0.2050
   26SOL     ow  101   2.142   3.264   1.991  0.1053  0.9051  0.5466
   26SOL     hw  102   2.155   3.196   1.925 -0.2003  0.4162  0.9850
   26SOL     hw  103   2.214   3.325   1.977  0.2501  0.6129 -0.0032
   26SOL     vw  104   2.153   3.263   1.981  0.0842  0.8020  0.5319
   27SOL     ow  105   7.069   5.149   0.503 -0.5112  0.0788 -0.4781
   27SOL     hw  106   6.978   5.168   0.483 -0.3570  0.6192 -0.7099
   27SOL     hw  107   7.070   5.129   0.596 -1.1418 -1.8275 -0.8430
   27SOL     vw  108   7.057   5.149   0.513 -0.5741 -0.1016 -0.5569
   28SOL     ow  109   0.605   6.935   1.840  0.3864  0.1605  0.0351
   28SOL     hw  110   0.517   6.899   1.833  0.6548 -0.2642 -1.8440
   28SOL     hw  111   0.597   7.024   1.806 -0.0974  1.7498  3.8367
   28SOL     vw  112   0.593   6.942   1.834  0.3580  0.3142  0.2888
   29SOL     ow  113   6.256   3.927   2.244  0.5476  0.4207 -0.8968
   29SOL     hw  114   6.232   3.840   2.211 -0.5047  0.1556  0.4886
   29SOL     hw  115   6.285   3.974   2.166  1.1325 -1.1611 -1.6878
   29SOL     vw  116   6.256   3.921   2.229  0.4859  0.1773 -0.8185
   30SOL     ow  117   5.160   7.385   2.541 -0.5008 -0.0003  0.2311
   30SOL     hw  118   5.241   7.353   2.502 -1.4653 -1.1066 -0.9494
   30SOL     hw  119   5.097   7.314   2.528 -1.3694  0.3213  2.2194
   30SOL     vw  120   5.162   7.371   2.534 -0.7427 -0.1040  0.3378
   31SOL     ow  121   7.455   0.690   6.880  0.0576  0.4339  0.0316
   31SOL     hw  122   7.475   0.598   6.866 -1.0861  0.2991 -0.8884
   31SOL     hw  123   7.411   0.693   6.965 -0.9034 -0.0382 -0.4399
   31SOL     vw  124   7.452   0.679   6.890 -0.2201  0.3539 -0.1519
   32SOL     ow  125   5.301   4.335   0.103  0.3708 -1.0311 -0.0504
   32SOL     hw  126   5.364   4.402   0.078  1.6816 -2.1606  0.1078
   32SOL     hw  127   5.238   4.380   0.159 -1.3269  1.0708 -3.2940
   32SOL     vw  128   5.301   4.350   0.107  0.3200 -0.9029 -0.4574
   33SOL     ow  129   0.037   0.872   0.522 -0.1485 -0.1776  0.3586
   33SOL     hw  130   0.014   0.790   0.565 -0.8152 -0.7651 -1.0508
   33SOL     hw  131  -0.040   0.893   0.469  0.2969  0.9859  0.1499
   33SOL     vw  132   0.024   0.864   0.521 -0.1777 -0.1016  0.1451
   34SOL     ow  133   2.421   6.962   2.589 -0.3278  0.7143 -0.0701
   34SOL     hw  134   2.454   6.940   2.502 -1.9266  0.4859 -0.6338
   34SOL     hw  135   2.362   7.035   2.576 -0.9320  0.3945  0.7530
   34SOL     vw  136   2.418   6.969   2.576 -0.6185  0.6416 -0.0358
   35SOL     ow  137   2.153   2.154   0.874  0.4278 -0.2910 -0.4106
   35SOL     hw  138   2.205   2.082   0.908 -1.1498 -1.8258 -1.0822
   35SOL     hw  139   2.188   2.171   0.786 -0.3259 -1.5150 -0.9777
   35SOL     vw  140   2.164   2.147   0.867  0.1202 -0.6551 -0.5740
   36SOL     ow  141   0.322   0.310   6.947  0.0044 -0.2867 -0.1042
   36SOL     hw  142   0.264   0.359   7.005 -2.0799 -1.4176 -1.1043
   36SOL     hw  143   0.342   0.370   6.875 -0.3186 -0.0182  0.0278
   36SOL     vw  144   0.317   0.324   6.945 -0.3132 -0.4005 -0.2189
   37SOL     ow  145   0.995   2.771   5.610 -0.0496 -0.1144  0.0795
   37SOL     hw  146   0.978   2.697   5.552  0.1404  0.0221 -0.1512
   37SOL     hw  147   0.983   2.736   5.698 -1.1533 -0.1109 -0.0637
   37SOL     vw  148   0.992   2.757   5.614 -0.1701 -0.0958  0.0303
   38SOL     ow  149   6.811   2.833   2.410 -0.0383  0.2654 -0.2676
   38SOL     hw  150   6.741   2.895   2.430 -0.1372  0.1378 -0.2148
   38SOL     hw  151   6.891   2.875   2.443 -0.0870  0.4219 -0.3518
   38SOL     vw  152   6.812   2.846   2.417 -0.0577  0.2692 -0.2716
   39SOL     ow  153   2.068   5.219   0.725 -0.1169  0.5124 -0.9209
   39SOL     hw  154   2.094   5.228   0.817  1.6557  0.6839 -1.4161
   39SOL     hw  155   2.035   5.130   0.718 -0.8005  0.6759 -0.0039
   39SOL     vw  156   2.067   5.209   0.736  0.0269  0.5565 -0.8653
   40SOL     ow  157   5.961   5.138   2.155 -0.0297  0.1274  0.6266
   40SOL     hw  158   5.970   5.141   2.251 -2.1932  3.4737  0.9175
   40SOL     hw  159   5.949   5.230   2.130  1.2821 -0.5249 -3.0257
   40SOL     vw  160   5.961   5.151   2.165 -0.1419  0.4826  0.1831
   41SOL     ow  161   1.727   3.142   2.977  0.2077  1.0077  0.1449
   41SOL     hw  162   1.713   3.087   2.900  1.7840  0.4692  0.1999
   41SOL     hw  163   1.640   3.175   3.000 -0.6857 -0.9225 -0.2996
   41SOL     vw  164   1.714   3.139   2.970  0.2977  0.6820  0.0935
   42SOL     ow  165   1.091   0.163   2.346  0.1877 -0.0354 -0.2245
   42SOL     hw  166   1.120   0.072   2.346  0.5992  0.0722  1.3611
   42SOL     hw  167   1.154   0.208   2.289  0.4811 -0.5834 -0.3384
   42SOL     vw  168   1.103   0.157   2.338  0.2808 -0.0935 -0.0303
   43SOL     ow  169   1.220   0.237   0.560 -0.1488 -0.3377  0.2932
   43SOL     hw  170   1.274   0.265   0.487  1.1628 -1.5695  0.7467
   43SOL     hw  171   1.229   0.306   0.625  0.2509 -0.1648  0.0557
   43SOL     vw  172   1.228   0.250   0.559  0.0770 -0.4774  0.3217
   44SOL     ow  173   5.571   6.219   6.247  0.3517  0.2582  0.6574
   44SOL     hw  174   5.504   6.281   6.275  0.7420 -0.0610  2.4832
   44SOL     hw  175   5.646   6.273   6.224  0.2539  0.5289  0.9594
   44SOL     vw  176   5.572   6.234   6.248  0.3903  0.2518  0.9382
   45SOL     ow  177   5.189   1.906   3.792 -0.3097  0.3879  0.2184
   45SOL     hw  178   5.111   1.946   3.753 -1.0974 -0.4396  0.8934
   45SOL     hw  179   5.172   1.812   3.787  0.3099  0.2221  1.0484
   45SOL     vw  180   5.176   1.899   3.786 -0.3316  0.2568  0.4170
   46SOL     ow  181   0.527   4.214   2.173  0.0429  0.0534 -0.1465
   46SOL     hw  182   0.437   4.214   2.204 -0.1618 -0.8348 -0.7146
   46SOL     hw  183   0.542   4.125   2.141  0.8974  0.3794 -0.7024
   46SOL     vw  184   0.517   4.203   2.173  0.1287 -0.0207 -0.2948
   47SOL     ow  185   0.622   5.708   0.941  0.5525  0.3606 -0.3527
   47SOL     hw  186   0.627   5.681   0.849  0.4084 -0.3955 -0.1507
   47SOL     hw  187   0.554   5.651   0.978  0.3144  0.9497  0.1235
   47SOL     vw  188   0.614   5.697   0.934  0.5021  0.3386 -0.2632
   48SOL     ow  189   2.091   0.173   4.559 -0.0505 -0.0640 -0.3926
   48SOL     hw  190   2.092   0.220   4.476  0.1350  1.1983  0.2978
   48SOL     hw  191   2.150   0.223   4.616  1.2546 -1.9149 -0.0296
   48SOL     vw  192   2.099   0.186   4.556  0.1463 -0.1417 -0.2534
   49SOL     ow  193   2.550   6.959   2.347 -0.2401 -0.6719 -0.6993
   49SOL     hw  194   2.636   6.959   2.305 -0.5011  0.4608 -1.2753
   49SOL     hw  195   2.492   6.921   2.281 -0.0977 -2.0817 -0.0578
   49SOL     vw  196   2.554   6.954   2.333 -0.2557 -0.7083 -0.6906
   50SOL     ow  197   4.659   4.637   2.040  0.3852  0.1299  0.3010
   50SOL     hw  198   4.750   4.666   2.042  1.2546 -2.1097 -1.5159
   50SOL     hw  199   4.660   4.552   2.085 -0.7785  0.0209  0.1610
   50SOL     vw  200   4.671   4.629   2.046  0.3464 -0.1798  0.0428
   51SOL     ow  201   4.844   1.191   7.176  0.1578  0.4671  0.0918
   51SOL     hw  202   4.763   1.161   7.135  0.1306 -2.1624  1.8259
   51SOL     hw  203   4.849   1.284   7.155 -2.1867  0.2409 -1.8524
   51SOL     vw  204   4.834   1.199   7.168 -0.1550  0.0903  0.0639
   52SOL     ow  205   5.879   2.155   1.241 -0.1422  0.0895  0.0689
   52SOL     hw  206   5.891   2.136   1.335 -1.6863  1.1405  0.5091
   52SOL     hw  207   5.901   2.247   1.233  0.7950 -0.1970 -0.7865
   52SOL     vw  208   5.884   2.165   1.253 -0.2224  0.1905  0.0141
   53SOL     ow  209   2.191   3.151   7.073  0.0505  0.2282 -0.0443
   53SOL     hw  210   2.165   3.208   7.145  1.2648  0.1942  0.4495
   53SOL     hw  211   2.149   3.188   6.996  1.6021  2.4052  0.0815
   53SOL     vw  212   2.182   3.163   7.073  0.4156  0.5108  0.0377
   54SOL     ow  213   5.403   4.265   2.910 -0.1796  0.0330  0.0579
   54SOL     hw  214   5.440   4.177   2.915  0.3466  0.2036 -0.6492
   54SOL     hw  215   5.468   4.320   2.953  1.3920  0.6091 -2.7819
   54SOL     vw  216   5.416   4.260   2.916  0.0970  0.1316 -0.4101
   55SOL     ow  217   3.735   4.022   1.347 -0.0434  0.5616 -0.1234
   55SOL     hw  218   3.749   4.108   1.305 -0.8879  0.6494 -0.2469
   55SOL     hw  219   3.707   3.966   1.275 -2.9241  1.0695  0.5053
   55SOL     vw  220   3.733   4.026   1.332 -0.5349  0.6404 -0.0567
   56SOL     ow  221   3.426   3.597   6.964  1.1679 -0.4338 -0.9873
   56SOL     hw  222   3.434   3.544   6.884  0.7794 -0.1641 -1.2094
   56SOL     hw  223   3.339   3.636   6.958  1.2284 -0.2251 -0.5421
   56SOL     vw  224   3.415   3.595   6.952  1.1246 -0.3707 -0.9580
   57SOL     ow  225   2.226   3.759   6.525 -0.0960 -0.3948 -0.3399
   57SOL     hw  226   2.287   3.833   6.518 -0.7970  0.3543  1.0265
   57SOL     hw  227   2.203   3.738   6.435  0.5685  0.6861 -0.7754
   57SOL     vw  228   2.231   3.766   6.512 -0.1007 -0.1534 -0.2170
   58SOL     ow  229   3.008   1.904   4.830  0.5910  0.2750 -0.4901
   58SOL     hw  230   2.974   1.884   4.743  0.5099 -1.3089 -0.1144
   58SOL     hw  231   3.056   1.826   4.856  1.6953  1.2009  0.3807
   58SOL     vw  232   3.010   1.891   4.822  0.7260  0.1882 -0.3257
   59SOL     ow  233   6.081   6.676   3.298 -0.5200 -0.0550  0.1602
   59SOL     hw  234   5.997   6.632   3.282  0.0061 -1.0857  0.1743
   59SOL     hw  235   6.135   6.653   3.223  0.5226 -1.3273  1.2534
   59SOL     vw  236   6.077   6.667   3.286 -0.3130 -0.3591  0.3061
   60SOL     ow  237   4.891   0.790   7.393 -0.0224 -0.4120  0.3727
   60SOL     hw  238   4.891   0.715   7.334  1.0930  1.9243 -2.9174
   60SOL     hw  239   4.799   0.803   7.416 -0.6774 -0.8230 -1.7921
   60SOL     vw  240   4.879   0.782   7.388  0.0384 -0.1580 -0.3471
   61SOL     ow  241   0.922   1.707   2.777 -0.4177  0.0926 -0.1611
   61SOL     hw  242   0.975   1.649   2.832  0.0368  0.9997  0.3858
   61SOL     hw  243   0.913   1.659   2.695  0.3602 -0.5494  0.1034
   61SOL     vw  244   0.928   1.693   2.774 -0.2551  0.1276 -0.0540
   62SOL     ow  245   6.989   6.018   7.083  0.5005  0.0756  0.5177
   62SOL     hw  246   7.023   5.993   6.996  1.0763  1.2830  0.3794
   62SOL     hw  247   7.042   6.094   7.108 -0.0942  0.1264  1.6559
   62SOL     vw  248   7.001   6.024   7.075  0.4981  0.2415  0.6495
   63SOL     ow  249   5.029   3.100   6.438 -0.1942  0.3233 -0.8375
   63SOL     hw  250   5.105   3.071   6.387 -0.1722 -2.8651  0.7958
   63SOL     hw  251   4.982   3.019   6.459 -1.8633  1.8115  1.5862
   63SOL     vw  252   5.033   3.085   6.434 -0.4115  0.0991 -0.3023
   64SOL     ow  253   3.073   1.317   4.502 -0.3111  0.0948 -0.1922
   64SOL     hw  254   3.079   1.407   4.470  0.2506  0.9405  2.1388
   64SOL     hw  255   3.076   1.263   4.422 -0.8825  2.1158 -1.6488
   64SOL     vw  256   3.075   1.322   4.487 -0.3126  0.4731 -0.0768
   65SOL     ow  257   7.261   3.958   2.627 -0.2585 -0.1903  0.7545
   65SOL     hw  258   7.221   4.044   2.618 -0.0088 -0.0993  0.4876
   65SOL     hw  259   7.256   3.919   2.540  0.3271 -0.1342  0.6927
   65SOL     vw  260   7.255   3.964   2.615 -0.1483 -0.1709  0.7111
   66SOL     ow  261   2.717   2.490   1.944  0.3839 -0.6921 -0.3517
   66SOL     hw  262   2.634   2.445   1.931  0.6555 -1.2291 -0.2910
   66SOL     hw  263   2.702   2.546   2.020 -0.0418 -0.4752 -0.5935
   66SOL     vw  264   2.704   2.491   1.953  0.3635 -0.7343 -0.3756
   67SOL     ow  265   0.620   3.797   0.669  0.0383 -0.3858 -0.2852
   67SOL     hw  266   0.528   3.811   0.649  0.6630  0.9991 -2.6880
   67SOL     hw  267   0.655   3.750   0.593  1.1496 -1.7392  0.9976
   67SOL     vw  268   0.613   3.793   0.656  0.2673 -0.3816 -0.4329
   68SOL     ow  269   3.288   5.631   1.991 -0.3381  0.1658 -0.1749
   68SOL     hw  270   3.215   5.685   1.960 -0.2420 -0.1534 -0.9645
   68SOL     hw  271   3.250   5.578   2.061 -1.2061 -0.9271 -1.4388
   68SOL     vw  272   3.273   5.631   1.996 -0.4399 -0.0200 -0.4458
   69SOL     ow  273   0.254   3.859   6.184  0.1302 -0.3072  0.3005
   69SOL     hw  274   0.250   3.869   6.089  0.4955 -1.1036  0.1980
   69SOL     hw  275   0.336   3.902   6.209 -0.9793  1.8202  0.5326
   69SOL     vw  276   0.264   3.866   6.175  0.0320 -0.1316  0.3178
   70SOL     ow  277   3.500   0.934   4.684 -0.2617  0.2865  0.0684
   70SOL     hw  278   3.516   1.015   4.635  2.3160 -0.4242 -0.4108
   70SOL     hw  279   3.500   0.961   4.776  1.1149  0.7946 -0.0561
   70SOL     vw  280   3.502   0.949   4.690  0.2599  0.2598 -0.0114
   71SOL     ow  281   5.162   3.575   4.160 -0.2599  0.2940 -0.4651
   71SOL     hw  282   5.179   3.502   4.102  2.4316  0.3166  0.1580
   71SOL     hw  283   5.183   3.542   4.248  1.7214  1.9138 -0.2434
   71SOL     vw  284   5.167   3.561   4.164  0.3567  0.5108 -0.3533
   72SOL     ow  285   1.648   2.244   1.565  0.4952  0.0494 -0.6560
   72SOL     hw  286   1.587   2.187   1.611  0.4715  0.1848 -0.5175
   72SOL     hw  287   1.664   2.316   1.626  0.0463  0.5094 -1.0641
   72SOL     vw  288   1.642   2.246   1.579  0.4329  0.1279 -0.6915
   73SOL     ow  289   7.022   6.740   1.645 -0.1779  0.5506  0.3702
   73SOL     hw  290   6.962   6.668   1.662 -1.3937  1.8994  2.2895
   73SOL     hw  291   6.990   6.811   1.701  1.3498  2.3661 -0.9239
   73SOL     vw  292   7.010   6.740   1.654 -0.1366  0.9685  0.4527
   74SOL     ow  293   3.824   1.767   1.950  0.0500  0.3250  0.1927
   74SOL     hw  294   3.766   1.840   1.929  0.0662  0.5686  0.9664
   74SOL     hw  295   3.909   1.808   1.968  0.0485  0.1281  0.6702
   74SOL     vw  296   3.827   1.782   1.950  0.0520  0.3312  0.3577
   75SOL     ow  297   7.217   1.643   7.227  0.3032  0.2110  0.0564
   75SOL     hw  298   7.236   1.549   7.233  1.7408  0.4131 -1.0317
   75SOL     hw  299   7.121   1.648   7.232  0.2593 -1.1811  1.5195
   75SOL     vw  300   7.207   1.631   7.229  0.4869  0.0540  0.1059
   76SOL     ow  301   4.972   1.972   4.102  0.3548 -0.1904  0.6761
   76SOL     hw  302   4.917   2.026   4.046  1.9199 -0.2436 -0.9812
   76SOL     hw  303   5.008   2.033   4.166  1.8216  0.7353 -0.9497
   76SOL     vw  304   4.969   1.987   4.103  0.7546 -0.0753  0.2429
   77SOL     ow  305   0.117   0.337   5.215 -0.1470  0.5157  0.3052
   77SOL     hw  306   0.097   0.247   5.243 -1.1959  0.4317 -0.6480
   77SOL     hw  307   0.209   0.335   5.189  0.8579  0.5406  3.4168
   77SOL     vw  308   0.127   0.325   5.215 -0.1528  0.5079  0.5896
   78SOL     ow  309   3.820   4.793   3.892  0.3448  0.2545  0.1837
   78SOL     hw  310   3.832   4.836   3.976 -0.5472  0.7947  0.0361
   78SOL     hw  311   3.781   4.708   3.914  0.0771  0.4103  0.3111
   78SOL     vw  312   3.817   4.787   3.906  0.1919  0.3464  0.1811
   79SOL     ow  313   0.626   3.891   0.935 -0.0784 -0.0776  0.1563
   79SOL     hw  314   0.621   3.849   0.850 -0.6597  2.0010 -0.8992
   79SOL     hw  315   0.629   3.819   0.998  0.7979 -1.6607 -1.6213
   79SOL     vw  316   0.626   3.876   0.932 -0.0395 -0.0122 -0.2175
   80SOL     ow  317   2.886   6.795   0.468  0.5859  0.2840  0.0441
   80SOL     hw  318   2.915   6.706   0.488  0.0664  0.2725  0.7948
   80SOL     hw  319   2.954   6.851   0.507 -0.6890  0.2800  2.4916
   80SOL     vw  320   2.899   6.790   0.476  0.3492  0.2816  0.4660
   81SOL     ow  321   5.534   6.082   5.998 -0.1924 -0.7110  0.1751
   81SOL     hw  322   5.451   6.096   5.953  0.0193 -0.5361 -0.1685
   81SOL     hw  323   5.526   6.132   6.079  0.5805  1.5510 -1.0699
   81SOL     vw  324   5.522   6.090   6.003 -0.0625 -0.3893 -0.0346
   82SOL     ow  325   3.687   0.936   4.448  0.2320  0.1560 -0.3934
   82SOL     hw  326   3.778   0.965   4.449  0.7583 -1.4255  0.1970
   82SOL     hw  327   3.665   0.928   4.355  0.8835 -0.0127 -0.5352
   82SOL     vw  328   3.696   0.938   4.436  0.3874 -0.0750 -0.3345
   83SOL     ow  329   0.280   6.798   1.286 -0.0704  0.3795  0.0083
   83SOL     hw  330   0.255   6.750   1.207 -0.6245  0.0344  0.3841
   83SOL     hw  331   0.203   6.793   1.342 -0.1996  1.8414  0.0097
   83SOL     vw  332   0.267   6.791   1.283 -0.1605  0.5269  0.0581
   84SOL     ow  333   1.847   4.173   5.498  0.4241 -0.1569  0.0989
   84SOL     hw  334   1.769   4.227   5.482 -1.5277 -3.3010 -2.2251
   84SOL     hw  335   1.819   4.113   5.567  1.8148  0.3526  1.1456
   84SOL     vw  336   1.833   4.172   5.505  0.3501 -0.5045 -0.0696
   85SOL     ow  337   4.604   4.023   1.517  0.1080 -0.5223 -0.0812
   85SOL     hw  338   4.596   3.929   1.533  0.9257 -0.4753  0.6953
   85SOL     hw  339   4.557   4.064   1.589  0.5602 -0.3309  0.1074
   85SOL     vw  340   4.597   4.016   1.529  0.2754 -0.4909  0.0461
   86SOL     ow  341   7.168   3.384   3.477 -0.3053 -0.0019 -0.3137
   86SOL     hw  342   7.094   3.433   3.515 -0.1143  2.7691 -3.1193
   86SOL     hw  343   7.136   3.357   3.391  0.6671 -2.3481  0.0051
   86SOL     vw  344   7.154   3.387   3.471 -0.1521  0.0541 -0.6418
   87SOL     ow  345   6.094   5.102   0.601  0.5764  0.4588 -0.1196
   87SOL     hw  346   6.062   5.117   0.690 -0.8596  0.5660 -0.6431
   87SOL     hw  347   6.069   5.179   0.552  1.0361  0.2351 -0.7238
   87SOL     vw  348   6.087   5.114   0.607  0.4475  0.4432 -0.2684
   88SOL     ow  349   3.176   0.095   2.723 -0.7426  0.4581 -1.2558
   88SOL     hw  350   3.080   0.103   2.720 -0.9202 -0.5815  0.3364
   88SOL     hw  351   3.207   0.153   2.653 -2.4623  2.0946 -0.7530
   88SOL     vw  352   3.167   0.103   2.713 -0.9930  0.5368 -0.9793
   89SOL     ow  353   6.457   2.272   5.825  0.0463  0.3173 -0.1509
   89SOL     hw  354   6.505   2.203   5.870 -0.3930  0.4075  0.4606
   89SOL     hw  355   6.386   2.227   5.780 -0.3710  0.3848  0.4258
   89SOL     vw  356   6.454   2.257   5.825 -0.0668  0.3381  0.0055
   90SOL     ow  357   2.177   4.790   2.377  0.9036 -0.0165  0.0674
   90SOL     hw  358   2.271   4.778   2.390  0.8704 -0.2876  0.0703
   90SOL     hw  359   2.158   4.743   2.296  0.5755 -0.9515  0.6678
   90SOL     vw  360   2.187   4.782   2.368  0.8559 -0.1755  0.1470
   91SOL     ow  361   6.242   4.111   2.021 -0.4502  0.4780  0.6731
   91SOL     hw  362   6.179   4.175   1.988  0.2399  0.6740 -0.3107
   91SOL     hw  363   6.234   4.036   1.962 -0.0175  0.3656  0.7527
   91SOL     vw  364   6.233   4.110   2.009 -0.3021  0.4890  0.5537
   92SOL     ow  365   2.259   4.945   3.197  0.5760 -0.0808 -0.2381
   92SOL     hw  366   2.224   5.030   3.170  0.7239  0.3189  0.7941
   92SOL     hw  367   2.208   4.921   3.274  1.1223 -0.5192 -0.0067
   92SOL     vw  368   2.248   4.953   3.204  0.6676 -0.0861 -0.0713
   93SOL     ow  369   0.262   0.993   6.448  0.0134 -0.7468  0.1501
   93SOL     hw  370   0.183   1.040   6.477 -1.1765 -0.1388 -3.5902
   93SOL     hw  371   0.327   1.062   6.436 -0.7219 -0.3811 -2.1748
   93SOL     vw  372   0.260   1.009   6.450 -0.2406 -0.6183 -0.6499
   94SOL     ow  373   2.506   1.855   0.134  0.2156  0.0305  0.2591
   94SOL     hw  374   2.464   1.829   0.052  0.6846 -2.4824  0.7349
   94SOL     hw  375   2.435   1.891   0.188 -1.3048 -3.2771  0.7081
   94SOL     vw  376   2.491   1.856   0.131  0.0769 -0.7375  0.3811
   95SOL     ow  377   6.004   0.357   2.724 -0.2644 -0.0119 -0.3586
   95SOL     hw  378   6.020   0.274   2.769  1.9840  0.5793  0.0258
   95SOL     hw  379   6.076   0.414   2.751  0.0658  1.0353 -3.0905
   95SOL     vw  380   6.016   0.354   2.733  0.0758  0.2043 -0.6682
   96SOL     ow  381   2.666   7.030   4.519 -0.2797  0.1535 -0.2522
   96SOL     hw  382   2.587   7.043   4.572  0.1531  0.8981  0.2227
   96SOL     hw  383   2.698   7.118   4.501 -0.1513 -0.1081 -1.3653
   96SOL     vw  384   2.660   7.043   4.523 -0.2056  0.2172 -0.3362
   97SOL     ow  385   6.366   5.689   5.605 -0.2243 -0.5187  0.0697
   97SOL     hw  386   6.356   5.697   5.700  1.1074 -0.1271  0.1916
   97SOL     hw  387   6.348   5.777   5.572 -0.5437 -0.6215 -0.0389
   97SOL     vw  388   6.362   5.702   5.613 -0.0908 -0.4807  0.0715
   98SOL     ow  389   1.181   5.672   1.148 -0.4145  0.8410  0.3263
   98SOL     hw  390   1.153   5.676   1.056  0.3451  1.0296  0.0928
   98SOL     hw  391   1.188   5.763   1.175  0.6062  0.8213  0.1675
   98SOL     vw  392   1.178   5.684   1.139 -0.1795  0.8631  0.2745
   99SOL     ow  393   1.635   5.007   6.438 -0.4458 -0.8057  0.4477
   99SOL     hw  394   1.548   4.996   6.400 -0.4071  0.1304  0.0787
   99SOL     hw  395   1.683   5.061   6.376 -0.0973  0.0061  1.3896
   99SOL     vw  396   1.630   5.013   6.425 -0.3948 -0.5748  0.5231
  100SOL     ow  397   7.114   1.781   3.409 -0.1999 -0.6430  0.1479
  100SOL     hw  398   7.200   1.786   3.368 -0.6570  1.0538 -0.7134
  100SOL     hw  399   7.098   1.869   3.443 -1.5068 -0.9774  0.4827
  100SOL     vw  400   7.123   1.793   3.408 -0.4327 -0.4633  0.0786
  101SOL     ow  401   0.145   6.939   2.889 -0.0466 -0.1211  0.4896
  101SOL     hw  402   0.194   6.866   2.926 -2.3844 -0.9993  2.0950
  101SOL     hw  403   0.083   6.898   2.828  1.3700  0.9940 -1.8646
  101SOL     vw  404   0.143   6.924   2.886 -0.1681 -0.0899  0.3908
  102SOL     ow  405   0.322   1.198   4.732 -0.4836  0.1912 -0.1154
  102SOL     hw  406   0.341   1.152   4.814 -0.9037  0.5194  0.1742
  102SOL     hw  407   0.266   1.137   4.683 -0.8099  0.2708  0.1484
  102SOL     vw  408   0.317   1.183   4.736 -0.5821  0.2449 -0.0422
  103SOL     ow  409   0.834   4.750   3.272 -0.0558  0.1434 -0.2984
  103SOL     hw  410   0.831   4.693   3.349 -0.6511  0.6982  0.0940
  103SOL     hw  411   0.915   4.800   3.282 -2.1223  3.3691  2.2948
  103SOL     vw  412   0.844   4.749   3.283 -0.4070  0.6423  0.0956
  104SOL     ow  413   6.300   1.958   0.068 -0.2780 -0.2784 -0.0795
  104SOL     hw  414   6.227   1.902   0.042 -2.7863  3.0669 -0.8880
  104SOL     hw  415   6.325   2.004  -0.012  0.0338  1.4714  0.9732
  104SOL     vw  416   6.293   1.957   0.054 -0.5677  0.3939 -0.0473
  105SOL     ow  417   5.752   3.046   2.858 -0.2520  0.4912 -0.7768
  105SOL     hw  418   5.718   3.125   2.899  0.3706  0.9415 -1.1099
  105SOL     hw  419   5.696   3.032   2.782 -0.3797  0.5988 -0.7021
  105SOL     vw  420   5.740   3.054   2.854 -0.1864  0.5648 -0.8110
  106SOL     ow  421   1.588   7.076   3.741  0.5977 -0.0756  0.0902
  106SOL     hw  422   1.497   7.058   3.717  1.1293 -2.1600 -0.6266
  106SOL     hw  423   1.633   7.085   3.658  0.8850  2.1287  0.4448
  106SOL     vw  424   1.582   7.075   3.727  0.7057 -0.0594  0.0424
  107SOL     ow  425   0.648   7.412   7.189 -0.1988  0.6609  0.0906
  107SOL     hw  426   0.564   7.422   7.235 -1.1525 -1.7306 -0.9851
  107SOL     hw  427   0.693   7.342   7.236  0.2547  0.4776 -0.6026
  107SOL     vw  428   0.643   7.404   7.201 -0.2648  0.3211 -0.1428
  108SOL     ow  429   7.433   1.017   1.520 -0.1351  0.2022  0.2641
  108SOL     hw  430   7.423   1.081   1.590  2.0400  0.5185  0.3315
  108SOL     hw  431   7.448   0.933   1.565 -0.5784  0.0581  0.1566
  108SOL     vw  432   7.434   1.014   1.535  0.0932  0.2249  0.2587
  109SOL     ow  433   6.680   6.843   3.870  0.2683  0.6207  0.2765
  109SOL     hw  434   6.721   6.894   3.940  0.9650 -1.6006  1.5549
  109SOL     hw  435   6.753   6.817   3.814  0.3136 -1.1648  1.1172
  109SOL     vw  436   6.695   6.847   3.872  0.3662  0.0923  0.5562
  110SOL     ow  437   7.243   5.927   0.122 -0.8031  0.0794 -0.0578
  110SOL     hw  438   7.327   5.892   0.151 -0.7417 -0.0260 -0.3559
  110SOL     hw  439   7.179   5.894   0.185 -0.4899  0.9814  0.7584
  110SOL     vw  440   7.246   5.918   0.134 -0.7536  0.1845  0.0106
  111SOL     ow  441   5.290   0.483   1.665 -0.7977 -0.3300  0.1368
  111SOL     hw  442   5.275   0.578   1.660 -0.2576 -0.2303  0.3005
  111SOL     hw  443   5.352   0.473   1.737 -0.0795 -0.7175 -0.5201
  111SOL     vw  444   5.296   0.495   1.674 -0.6318 -0.3679  0.0718
  112SOL     ow  445   2.609   4.793   7.421  0.1438  0.3586  0.0596
  112SOL     hw  446   2.682   4.853   7.405 -0.5039  1.7862  2.0336
  112SOL     hw  447   2.537   4.828   7.370 -0.1919  1.2173  1.0955
  112SOL     vw  448   2.609   4.805   7.412  0.0142  0.6602  0.4570
  113SOL     ow  449   2.441   3.192   3.265  0.4272 -0.0991 -0.2960
  113SOL     hw  450   2.401   3.173   3.180  0.1504  0.8469 -0.3812
  113SOL     hw  451   2.420   3.284   3.282 -0.4328 -0.5409  1.2724
  113SOL     vw  452   2.433   3.201   3.256  0.2772 -0.0325 -0.1003
  114SOL     ow  453   0.255   1.481   2.539 -0.3950  0.6081 -0.0991
  114SOL     hw  454   0.273   1.397   2.583 -0.0563  0.2058 -0.9808
  114SOL     hw  455   0.162   1.495   2.553 -0.4547  0.0885  0.0738
  114SOL     vw  456   0.245   1.472   2.547 -0.3582  0.4864 -0.1926
  115SOL     ow  457   2.643   6.888   2.956  0.4687 -0.6811  0.2698
  115SOL     hw  458   2.651   6.924   3.045 -1.0331 -0.5474  0.3758
  115SOL     hw  459   2.651   6.965   2.899  0.6576 -0.6594  0.3230
  115SOL     vw  460   2.645   6.903   2.960  0.2956 -0.6604  0.2908
  116SOL     ow  461   6.463   4.952   5.539 -0.1596  0.0650 -0.4309
  116SOL     hw  462   6.380   4.906   5.551  0.2886 -0.5198  0.6260
  116SOL     hw  463   6.527   4.899   5.587  0.5298  1.3522  0.1403
  116SOL     vw  464   6.460   4.939   5.547 -0.0093  0.1581 -0.2160
  117SOL     ow  465   2.210   4.646   2.094 -0.6438 -0.3481  0.5786
  117SOL     hw  466   2.172   4.579   2.150  0.7093  0.2943  2.3580
  117SOL     hw  467   2.139   4.670   2.034 -1.9542 -1.5140  1.5903
  117SOL     vw  468   2.195   4.640   2.093 -0.6384 -0.4170  0.9468
  118SOL     ow  469   7.432   1.690   7.482  0.0747  0.0330  0.4100
  118SOL     hw  470   7.493   1.756   7.516  1.3232 -0.7178 -0.2842
  118SOL     hw  471   7.461   1.608   7.522  0.3152 -0.5389 -0.8882
  118SOL     vw  472   7.444   1.688   7.492  0.2711 -0.1415  0.1471
  119SOL     ow  473   2.499   0.350   6.211  0.0746 -0.0515  0.2027
  119SOL     hw  474   2.415   0.395   6.209  0.6848  1.7164  4.4977
  119SOL     hw  475   2.560   0.411   6.168 -0.3860 -0.3737 -0.9554
  119SOL     vw  476   2.496   0.364   6.205  0.0943  0.1392  0.6163
  120SOL     ow  477   4.159   1.264   3.911  0.4145  0.3293 -0.3769
  120SOL     hw  478   4.197   1.252   3.824  0.9930 -2.1111  0.1194
  120SOL     hw  479   4.233   1.257   3.971 -0.1439  0.7415  0.3733
  120SOL     vw  480   4.173   1.261   3.907  0.4172  0.0616 -0.2124
  121SOL     ow  481   4.990   2.450   2.936  0.2225  0.6110 -0.1917
  121SOL     hw  482   5.074   2.495   2.939  0.3289  0.3799  1.2365
  121SOL     hw  483   4.925   2.520   2.939  0.3640  0.7628 -0.6118
  121SOL     vw  484   4.992   2.465   2.937  0.2551  0.6006 -0.0588
  122SOL     ow  485   0.700   0.978   0.458 -0.1670 -0.3943  0.0425
  122SOL     hw  486   0.721   1.068   0.482 -1.0840 -0.1588  0.0314
  122SOL     hw  487   0.621   0.986   0.404 -3.0108 -1.4316  3.6337
  122SOL     vw  488   0.692   0.991   0.454 -0.6632 -0.5001  0.5149
  123SOL     ow  489   5.641   3.445   5.385 -0.0346 -0.4798  0.1116
  123SOL     hw  490   5.730   3.473   5.362 -0.0705  1.0206  1.6351
  123SOL     hw  491   5.654   3.365   5.436  0.7277  1.1397  2.6590
  123SOL     vw  492   5.655   3.438   5.388  0.0613 -0.0682  0.6490
  124SOL     ow  493   2.456   6.764   4.873 -0.2972  0.1407  0.0437
  124SOL     hw  494   2.438   6.764   4.967  1.2190 -0.2145  0.3634
  124SOL     hw  495   2.376   6.732   4.834 -1.0533  0.5414  1.1900
  124SOL     vw  496   2.443   6.760   4.881 -0.1971  0.1466  0.2372
  125SOL     ow  497   2.185   2.004   3.812  0.0883  0.0750  0.2081
  125SOL     hw  498   2.237   2.035   3.886 -1.4414 -1.0118  1.8143
  125SOL     hw  499   2.248   1.996   3.741  2.0632 -0.8740  1.9541
  125SOL     vw  500   2.200   2.007   3.813  0.1469 -0.1937  0.6504
  126SOL     ow  501   3.152   7.083   1.951 -0.1485  0.0073  0.4227
  126SOL     hw  502   3.183   7.167   1.918  1.1487 -0.2877  0.8352
  126SOL     hw  503   3.057   7.090   1.947 -0.0905  0.4625 -2.1331
  126SOL     vw  504   3.144   7.095   1.946  0.0303  0.0286  0.1400
  127SOL     ow  505   4.610   3.172   7.330  0.1725 -0.1858 -0.2215
  127SOL     hw  506   4.608   3.267   7.321 -1.0598 -0.3150 -1.7047
  127SOL     hw  507   4.567   3.154   7.413  1.1245  0.5726  0.4547
  127SOL     vw  508   4.604   3.182   7.339  0.1357 -0.1029 -0.3281
  128SOL     ow  509   3.969   0.590   3.444  0.5827  0.4785 -0.3203
  128SOL     hw  510   3.918   0.545   3.377  1.4827  0.0990 -0.7550
  128SOL     hw  511   4.033   0.642   3.396  1.3499  0.0695  0.2438
  128SOL     vw  512   3.970   0.591   3.429  0.8025  0.3745 -0.3031
  129SOL     ow  513   3.684   6.473   1.515 -0.3371 -0.2843  0.4694
  129SOL     hw  514   3.708   6.501   1.427 -0.3129  1.0642  0.8832
  129SOL     hw  515   3.763   6.432   1.550 -0.1123 -0.1311  0.1399
  129SOL     vw  516   3.697   6.471   1.508 -0.3042 -0.0865  0.4805
  130SOL     ow  517   5.951   0.619   3.871 -0.2553 -0.3208 -0.2747
  130SOL     hw  518   5.970   0.612   3.965  0.2359 -1.2082 -0.4296
  130SOL     hw  519   5.890   0.548   3.854 -1.3213  0.6102 -0.3933
  130SOL     vw  520   5.946   0.608   3.881 -0.3312 -0.3150 -0.3108
  131SOL     ow  521   0.347   3.049   0.418  0.5031 -0.3245  0.3007
  131SOL     hw  522   0.409   3.075   0.349  1.5088 -3.3187 -0.0510
  131SOL     hw  523   0.261   3.068   0.381  1.0909  1.8561 -0.1008
  131SOL     vw  524   0.344   3.055   0.404  0.7134 -0.4318  0.2013
  132SOL     ow  525   2.129   1.786   4.067  0.0920  0.0325  0.2612
  132SOL     hw  526   2.210   1.832   4.046 -0.9628  0.9875 -2.0276
  132SOL     hw  527   2.158   1.702   4.102  2.1390 -0.2877 -1.9234
  132SOL     vw  528   2.144   1.781   4.069  0.2228  0.1162 -0.3288
  133SOL     ow  529   4.753   4.469   3.696  1.1222 -0.3003 -0.5082
  133SOL     hw  530   4.776   4.516   3.616 -1.5446  2.3575  0.0917
  133SOL     hw  531   4.774   4.531   3.767 -2.7051  0.2956  0.3210
  133SOL     vw  532   4.759   4.483   3.695  0.2654  0.1290 -0.3196
  134SOL     ow  533   1.253   4.994   0.640 -0.2358 -0.2578 -0.0642
  134SOL     hw  534   1.198   4.935   0.589 -2.4363  1.0155  0.6830
  134SOL     hw  535   1.274   4.946   0.719 -2.5773  0.0814  0.8519
  134SOL     vw  536   1.248   4.980   0.643 -0.8351 -0.0453  0.1553
  135SOL     ow  537   0.941   6.385   0.326 -0.5026  0.0417 -0.2332
  135SOL     hw  538   0.879   6.324   0.364  1.1703 -2.7966 -1.7418
  135SOL     hw  539   0.916   6.392   0.234  1.5171 -1.4733 -0.9690
  135SOL     vw  540   0.930   6.378   0.319 -0.0153 -0.5326 -0.5293
  136SOL     ow  541   5.264   5.647   4.718 -0.5440  0.6018 -0.1915
  136SOL     hw  542   5.233   5.700   4.644  2.8496  1.4984 -1.1258
  136SOL     hw  543   5.249   5.557   4.689 -0.7700  0.9606 -1.2733
  136SOL     vw  544   5.258   5.642   4.704 -0.1261  0.7675 -0.4575
  137SOL     ow  545   0.641   4.687   1.990 -0.5996 -0.2797 -0.2668
  137SOL     hw  546   0.647   4.719   2.080 -0.5203 -1.9880  0.3652
  137SOL     hw  547   0.623   4.593   1.998  2.7989 -1.2719 -1.9462
  137SOL     vw  548   0.639   4.679   2.003 -0.1407 -0.6359 -0.4051
  138SOL     ow  549   4.538   1.060   2.058  0.3376 -0.0795 -0.1258
  138SOL     hw  550   4.600   1.007   2.107  0.8106  0.2800 -0.3208
  138SOL     hw  551   4.547   1.148   2.094  0.4303  0.1143 -0.6068
  138SOL     vw  552   4.547   1.065   2.069  0.4125 -0.0065 -0.2149
  139SOL     ow  553   2.909   6.721   4.322  0.1811  0.4848  0.8188
  139SOL     hw  554   2.921   6.771   4.241 -0.1604  3.0779  2.2614
  139SOL     hw  555   2.969   6.762   4.385 -1.3878  0.2478  2.5585
  139SOL     vw  556   2.918   6.733   4.319 -0.0710  0.7954  1.2383
  140SOL     ow  557   4.723   2.363   1.478 -0.5289  0.5598  0.1464
  140SOL     hw  558   4.694   2.401   1.562  1.8147 -0.7886  1.6665
  140SOL     hw  559   4.803   2.410   1.457  1.5223 -2.2024  1.2125
  140SOL     vw  560   4.730   2.375   1.486  0.0510  0.0174  0.4876
  141SOL     ow  561   6.822   5.301   0.361 -0.0526 -0.2807  0.9450
  141SOL     hw  562   6.747   5.302   0.420 -0.4024  0.8976  0.5277
  141SOL     hw  563   6.805   5.230   0.300 -1.1349  0.3432  0.5028
  141SOL     vw  564   6.810   5.292   0.361 -0.2418 -0.0432  0.8316
  142SOL     ow  565   3.633   2.355   1.514 -0.4451 -0.0437 -0.1300
  142SOL     hw  566   3.558   2.408   1.488 -0.0074  0.1670 -1.0121
  142SOL     hw  567   3.610   2.266   1.487  0.3981  0.3148 -2.2275
  142SOL     vw  568   3.620   2.350   1.507 -0.2761  0.0314 -0.5231
  143SOL     ow  569   5.757   7.477   6.603  0.0801 -0.2125 -0.0064
  143SOL     hw  570   5.846   7.476   6.638 -0.4075  0.4813  1.2947
  143SOL     hw  571   5.759   7.543   6.533  0.6365 -0.3913 -0.1662
  143SOL     vw  572   5.769   7.485   6.598  0.0892 -0.1445  0.1442
  144SOL     ow  573   0.788   2.289   7.459  0.2946  0.3682  0.0081
  144SOL     hw  574   0.710   2.344   7.460  0.8769  1.2844 -1.5504
  144SOL     hw  575   0.838   2.317   7.535 -1.0305 -0.4953  1.2504
  144SOL     vw  576   0.784   2.300   7.469  0.1966  0.3750 -0.0336
  145SOL     ow  577   4.246   4.381   5.505 -0.3114  0.1597  0.0740
  145SOL     hw  578   4.210   4.468   5.491  0.6600  0.5083 -0.3128
  145SOL     hw  579   4.341   4.393   5.502 -0.1562 -1.1009 -1.3241
  145SOL     vw  580   4.254   4.394   5.503 -0.1631  0.0396 -0.1616
  146SOL     ow  581   5.068   0.302   6.813 -0.4343  0.3565  0.3829
  146SOL     hw  582   5.034   0.235   6.755  0.4859  0.1304  0.0925
  146SOL     hw  583   5.001   0.371   6.812 -0.5008  0.2866 -0.8090
  146SOL     vw  584   5.054   0.303   6.805 -0.3216  0.3175  0.1872
  147SOL     ow  585   4.268   3.818   6.714  0.6159  0.4916 -0.9068
  147SOL     hw  586   4.262   3.904   6.755  0.2101 -0.2491  0.6744
  147SOL     hw  587   4.297   3.836   6.625 -0.5991  2.3471 -0.9798
  147SOL     vw  588   4.271   3.832   6.708  0.4022  0.6388 -0.7076
  148SOL     ow  589   4.154   1.193   4.799 -0.1777 -0.2758 -0.4160
  148SOL     hw  590   4.211   1.243   4.858  1.1293 -1.9224 -0.2043
  148SOL     hw  591   4.144   1.249   4.722  1.2074  0.3350 -0.1840
  148SOL     vw  592   4.160   1.207   4.797  0.1776 -0.4125 -0.3574
  149SOL     ow  593   6.740   7.065   6.206 -0.6755  0.3941 -0.0261
  149SOL     hw  594   6.743   7.131   6.275  2.6681 -0.6914  1.0500
  149SOL     hw  595   6.796   6.994   6.238  2.3345  0.4095 -4.3359
  149SOL     vw  596   6.748   7.064   6.219  0.1626  0.2527 -0.4528
  150SOL     ow  597   7.058   1.738   4.905 -0.5181  0.4623 -0.0971
  150SOL     hw  598   7.093   1.687   4.832  0.2640 -1.0257  1.2538
  150SOL     hw  599   6.978   1.777   4.871  1.0124  1.7884 -2.4722
  150SOL     vw  600   7.052   1.736   4.891 -0.2129  0.4410 -0.2325
  151SOL     ow  601   2.175   5.605   1.909  0.0457 -0.5415 -0.1524
  151SOL     hw  602   2.238   5.534   1.912  1.2404  0.4764 -0.2794
  151SOL     hw  603   2.212   5.672   1.966 -1.7616 -0.5522  1.1285
  151SOL     vw  604   2.188   5.605   1.917 -0.0350 -0.4086 -0.0001
  152SOL     ow  605   7.149   7.365   3.064 -0.1197  0.0418  0.6693
  152SOL     hw  606   7.057   7.380   3.038 -0.2342 -3.3731 -1.4681
  152SOL     hw  607   7.199   7.424   3.007 -0.8937  1.3786  1.3186
  152SOL     vw  608   7.143   7.375   3.053 -0.2372 -0.2325  0.4729
  153SOL     ow  609   1.757   4.744   7.293 -0.7286  0.7237  0.2576
  153SOL     hw  610   1.814   4.821   7.301 -0.6835  0.4815  3.4262
  153SOL     hw  611   1.674   4.779   7.262 -0.0819  1.6694 -0.5036
  153SOL     vw  612   1.754   4.759   7.290 -0.6374  0.8166  0.5753
  154SOL     ow  613   2.708   4.576   0.052  0.2553 -0.4580  0.2719
  154SOL     hw  614   2.730   4.611   0.138 -1.5966  0.6349  0.3452
  154SOL     hw  615   2.665   4.649   0.006 -0.0332 -1.4301 -1.0683
  154SOL     vw  616   2.705   4.590   0.057 -0.0272 -0.4420  0.1048
  155SOL     ow  617   4.993   3.883   2.267 -0.6004  0.5535  0.5472
  155SOL     hw  618   4.958   3.972   2.266 -0.6949  0.5181  0.6699
  155SOL     hw  619   5.006   3.863   2.360  0.0800  0.6944  0.4808
  155SOL     vw  620   4.990   3.892   2.279 -0.5231  0.5674  0.5546
  156SOL     ow  621   5.023   3.723   2.935  0.0326  0.0762  0.0862
  156SOL     hw  622   4.981   3.648   2.893 -0.9037 -0.6896  2.2463
  156SOL     hw  623   4.954   3.763   2.987  0.8104  1.7860 -0.1490
  156SOL     vw  624   5.009   3.718   2.936  0.0114  0.2010  0.3402
  157SOL     ow  625   4.055   1.122   3.489 -0.3763 -0.8792  0.5271
  157SOL     hw  626   3.978   1.142   3.543 -0.0426  0.0921  0.6729
  157SOL     hw  627   4.026   1.052   3.431 -2.1991  1.0768 -1.0977
  157SOL     vw  628   4.041   1.116   3.488 -0.5729 -0.4930  0.3319
  158SOL     ow  629   7.423   2.718   4.923  0.3042 -0.4115  0.0061
  158SOL     hw  630   7.490   2.666   4.967  2.5947  1.7607 -0.7395
  158SOL     hw  631   7.365   2.747   4.994  3.9380  3.0957  1.9383
  158SOL     vw  632   7.424   2.715   4.938  1.0858  0.3378  0.1626
  159SOL     ow  633   3.902   4.923   1.592 -0.1621  0.0362  0.5183
  159SOL     hw  634   3.847   4.899   1.517  0.6458 -1.4268  0.3537
  159SOL     hw  635   3.840   4.953   1.659 -1.1112 -0.9566  0.1160
  159SOL     vw  636   3.887   4.924   1.591 -0.1807 -0.2880  0.4435
  160SOL     ow  637   0.683   7.058   2.608 -0.0519 -0.6001 -0.0051
  160SOL     hw  638   0.619   6.992   2.581  0.8066 -1.1473 -0.7554
  160SOL     hw  639   0.705   7.105   2.528  1.5166 -1.3436 -0.0418
  160SOL     vw  640   0.677   7.056   2.594  0.2683 -0.7701 -0.1087
  161SOL     ow  641   7.104   3.413   6.728 -0.0886  0.3068 -0.2302
  161SOL     hw  642   7.195   3.436   6.714 -0.1366  0.8346  0.2536
  161SOL     hw  643   7.055   3.492   6.704 -0.3474  0.3357  0.3561
  161SOL     vw  644   7.109   3.427   6.723 -0.1292  0.3803 -0.0892
  162SOL     ow  645   1.945   2.129   6.631 -0.4831  0.4985  0.5025
  162SOL     hw  646   1.914   2.182   6.704 -0.5433  1.6878 -0.3670
  162SOL     hw  647   1.986   2.053   6.672  0.7257  1.8134  1.8241
  162SOL     vw  648   1.946   2.126   6.646 -0.3316  0.8291  0.5622
  163SOL     ow  649   3.147   1.188   3.439  0.4866 -0.3482 -0.3431
  163SOL     hw  650   3.135   1.187   3.534  0.8134  1.6401 -0.2234
  163SOL     hw  651   3.185   1.103   3.418 -1.5219 -1.6719  0.9920
  163SOL     vw  652   3.150   1.177   3.449  0.2646 -0.2605 -0.1510
  164SOL     ow  653   5.819   3.944   3.235  0.1484  0.2794  0.3050
  164SOL     hw  654   5.907   3.981   3.233  1.3220 -2.2868  0.7387
  164SOL     hw  655   5.776   3.989   3.308  1.2482  1.1932  0.4205
  164SOL     vw  656   5.825   3.955   3.244  0.4480  0.0615  0.3775
  165SOL     ow  657   6.294   5.725   0.189  0.2277  0.0119  0.6133
  165SOL     hw  658   6.308   5.640   0.146 -1.3898 -0.5241  1.0670
  165SOL     hw  659   6.199   5.734   0.193  0.3756  1.4232  1.4280
  165SOL     vw  660   6.283   5.715   0.184  0.0339  0.1278  0.7807
  166SOL     ow  661   0.213   3.162   0.911 -0.0304  0.0732  0.4862
  166SOL     hw  662   0.200   3.070   0.890 -1.4401  0.6450 -1.4773
  166SOL     hw  663   0.219   3.206   0.826  0.8182  1.7812  1.3724
  166SOL     vw  664   0.212   3.156   0.897 -0.1044  0.3740  0.3441
  167SOL     ow  665   6.521   5.333   1.951 -0.5486  0.0374  0.0593
  167SOL     hw  666   6.471   5.385   2.014 -1.8268 -0.6807 -0.3473
  167SOL     hw  667   6.597   5.389   1.930  0.0638  0.1904  2.4019
  167SOL     vw  668   6.525   5.348   1.957 -0.6363 -0.0372  0.3148
  168SOL     ow  669   0.515   0.039   6.956  0.3948 -0.0875 -0.0438
  168SOL     hw  670   0.554  -0.026   7.014  1.4954  1.1923  0.7320
  168SOL     hw  671   0.589   0.081   6.913 -0.2711  0.6823 -0.4837
  168SOL     vw  672   0.530   0.036   6.958  0.4522  0.1831  0.0005
  169SOL     ow  673   1.076   2.081   1.326 -0.2846  0.1850 -0.1520
  169SOL     hw  674   1.009   2.021   1.294 -0.1977 -0.0823  0.1609
  169SOL     hw  675   1.141   2.024   1.368 -1.4095  0.6396  2.4000
  169SOL     vw  676   1.076   2.065   1.327 -0.4215  0.2096  0.2259
  170SOL     ow  677   3.081   7.356   6.589 -0.4966  0.0053 -0.2039
  170SOL     hw  678   3.083   7.299   6.665  1.3270 -0.3292 -0.4543
  170SOL     hw  679   3.116   7.303   6.518 -2.5184  0.1864 -1.4047
  170SOL     vw  680   3.086   7.342   6.589 -0.5226 -0.0148 -0.3951
  171SOL     ow  681   4.683   0.908   0.231 -0.3723 -0.3146 -0.0040
  171SOL     hw  682   4.687   0.999   0.202  2.5047  0.5056  2.4314
  171SOL     hw  683   4.617   0.908   0.300 -1.2598 -0.4060 -0.8296
  171SOL     vw  684   4.675   0.920   0.237 -0.1099 -0.2185  0.2084
  172SOL     ow  685   0.645   0.863   4.775  0.2853  0.7703  0.3636
  172SOL     hw  686   0.712   0.859   4.843 -0.3237  0.9204  0.9818
  172SOL     hw  687   0.590   0.787   4.791  1.1078 -0.1418 -1.0086
  172SOL     vw  688   0.647   0.853   4.786  0.3135  0.6698  0.2642
  173SOL     ow  689   6.962   1.925   0.055 -0.1692  1.1711  0.0563
  173SOL     hw  690   6.910   1.909   0.134 -0.1600 -0.1855 -0.1810
  173SOL     hw  691   6.899   1.913  -0.017  0.6398 -1.9002 -0.3112
  173SOL     vw  692   6.947   1.921   0.056 -0.0613  0.5869 -0.0235
  174SOL     ow  693   1.834   6.267   3.388  0.6060 -0.5391 -0.0376
  174SOL     hw  694   1.856   6.180   3.423  2.1087  0.5392  1.8808
  174SOL     hw  695   1.764   6.250   3.325  0.0679 -3.0264  1.0942
  174SOL     vw  696   1.827   6.253   3.384  0.7332 -0.7250  0.3648
  175SOL     ow  697   5.065   4.297   7.186 -1.2669  0.0917  0.3709
  175SOL     hw  698   5.035   4.387   7.196 -0.6546  0.2248  1.1244
  175SOL     hw  699   5.045   4.275   7.095 -2.9379  0.4123  0.6290
  175SOL     vw  700   5.059   4.306   7.175 -1.4064  0.1514  0.5043
  176SOL     ow  701   1.868   3.101   0.575  0.9415  0.4484 -0.0915
  176SOL     hw  702   1.940   3.163   0.587  0.0342  1.4900  0.1028
  176SOL     hw  703   1.794   3.141   0.621  0.5549 -1.2083  0.7950
  176SOL     vw  704   1.868   3.114   0.582  0.7709  0.3672  0.0511
  177SOL     ow  705   1.334   0.376   4.455 -0.2254 -0.1029 -0.0865
  177SOL     hw  706   1.397   0.433   4.410 -3.0720  1.9830 -1.7685
  177SOL     hw  707   1.387   0.327   4.518  2.9970  1.6286 -1.2067
  177SOL     vw  708   1.349   0.377   4.457 -0.1758  0.4008 -0.4563
  178SOL     ow  709   5.401   0.122   2.603  0.2656 -0.5824  0.1213
  178SOL     hw  710   5.371   0.129   2.512  1.6109 -1.5221 -0.4351
  178SOL     hw  711   5.392   0.211   2.638 -0.9965 -0.3645 -0.6692
  178SOL     vw  712   5.396   0.135   2.595  0.2768 -0.6777 -0.0563
  179SOL     ow  713   1.604   4.878   6.912 -0.2814 -0.1166  0.1011
  179SOL     hw  714   1.641   4.942   6.851  0.7004  2.9187  3.5030
  179SOL     hw  715   1.509   4.883   6.898 -0.3397  2.9561  0.8163
  179SOL     vw  716   1.596   4.887   6.902 -0.1596  0.6893  0.6442
  180SOL     ow  717   0.947   5.926   0.745  0.5486 -0.4463  0.4535
  180SOL     hw  718   0.891   5.866   0.695  1.4898  0.0688 -1.3165
  180SOL     hw  719   0.893   6.003   0.758  0.3702 -0.4867 -0.0132
  180SOL     vw  720   0.933   5.928   0.740  0.6492 -0.3836  0.1584
  181SOL     ow  721   4.982   0.514   1.722 -0.3030 -0.0498  0.0035
  181SOL     hw  722   4.988   0.539   1.815  0.0400 -1.6135  0.4196
  181SOL     hw  723   5.072   0.512   1.691 -0.3652 -0.2445 -0.1687
  181SOL     vw  724   4.994   0.517   1.730 -0.2661 -0.2818  0.0357
  182SOL     ow  725   2.096   3.331   5.478 -0.9671  0.4957  0.8746
  182SOL     hw  726   2.082   3.367   5.390 -0.4469  0.5961  0.8247
  182SOL     hw  727   2.192   3.329   5.487 -1.0200  0.6566  1.5089
  182SOL     vw  728   2.107   3.335   5.468 -0.9054  0.5301  0.9520
  183SOL     ow  729   6.051   2.042   5.256 -0.3220  0.8487 -0.8335
  183SOL     hw  730   6.115   2.113   5.267 -0.5151  0.7375  1.5588
  183SOL     hw  731   5.973   2.072   5.301 -1.1828 -0.0088 -1.6942
  183SOL     vw  732   6.049   2.055   5.263 -0.4609  0.7209 -0.6313
  184SOL     ow  733   3.653   5.644   3.888 -0.9524  0.4834 -0.1535
  184SOL     hw  734   3.684   5.673   3.803 -1.4297 -0.6123 -0.7233
  184SOL     hw  735   3.602   5.565   3.869 -0.9624  0.1546  1.1596
  184SOL     vw  736   3.650   5.637   3.874 -1.0167  0.2956 -0.0554
  185SOL     ow  737   0.418   0.850   4.278 -0.0108 -0.4473  0.0861
  185SOL     hw  738   0.434   0.857   4.184 -0.6194 -1.9094 -0.1563
  185SOL     hw  739   0.399   0.757   4.292  1.0511 -0.4445  1.8200
  185SOL     vw  740   0.418   0.839   4.267  0.0490 -0.6399  0.2830
  186SOL     ow  741   6.944   7.344   3.558 -0.2700 -0.2109 -0.2400
  186SOL     hw  742   6.859   7.306   3.582  0.2414 -0.4212  1.3295
  186SOL     hw  743   6.982   7.281   3.497 -0.4277 -1.0793  0.5461
  186SOL     vw  744   6.938   7.331   3.553 -0.2232 -0.3536  0.0708
  187SOL     ow  745   6.708   5.122   1.131  0.2824  0.1348  0.2768
  187SOL     hw  746   6.752   5.178   1.195 -1.4987 -0.0836  1.7753
  187SOL     hw  747   6.778   5.066   1.096  1.6293  1.5286  0.6343
  187SOL     vw  748   6.723   5.122   1.135  0.2253  0.2897  0.5217
  188SOL     ow  749   4.873   5.910   7.279  0.5673 -0.2845  0.4089
  188SOL     hw  750   4.903   6.000   7.275  0.1995 -0.2122 -1.4432
  188SOL     hw  751   4.951   5.857   7.263  0.5333 -0.2475  0.1206
  188SOL     vw  752   4.887   5.915   7.276  0.5143 -0.2701  0.1264
  189SOL     ow  753   0.187   3.899   0.809  0.1480  0.1295 -0.9357
  189SOL     hw  754   0.216   3.837   0.875 -0.7752 -0.7287 -1.3090
  189SOL     hw  755   0.190   3.984   0.853 -0.1316 -0.3853  0.1116
  189SOL     vw  756   0.191   3.902   0.824 -0.0107 -0.0515 -0.8468
  190SOL     ow  757   1.287   1.484   1.719  0.3069 -0.6770  0.0565
  190SOL     hw  758   1.216   1.513   1.660  0.3984 -0.4604  0.0516
  190SOL     hw  759   1.241   1.453   1.797  0.2439  0.4996  0.5068
  190SOL     vw  760   1.271   1.484   1.722  0.3107 -0.4932  0.1153
  191SOL     ow  761   1.385   6.616   1.861 -0.2508  0.7955  0.8041
  191SOL     hw  762   1.434   6.561   1.922 -0.1701  0.4418  0.4252
  191SOL     hw  763   1.381   6.564   1.780 -1.4178  0.7372  0.8883
  191SOL     vw  764   1.391   6.602   1.858 -0.3942  0.7412  0.7652
  192SOL     ow  765   5.899   5.487   4.782 -0.2496 -0.4343 -0.0721
  192SOL     hw  766   5.865   5.526   4.862  0.1062  0.4391 -0.3331
  192SOL     hw  767   5.888   5.555   4.716 -0.0006 -0.9331 -0.6337
  192SOL     vw  768   5.893   5.501   4.784 -0.1698 -0.3850 -0.1810
  193SOL     ow  769   3.370   6.306   0.100  0.3926 -0.6098 -0.1758
  193SOL     hw  770   3.408   6.394   0.109 -2.0225  0.3774  1.5202
  193SOL     hw  771   3.318   6.311   0.020  1.2001 -0.9154 -0.7321
  193SOL     vw  772   3.368   6.318   0.091  0.1805 -0.5200 -0.0254
  194SOL     ow  773   5.456   0.359   0.527 -0.0637  0.1103  0.7390
  194SOL     hw  774   5.401   0.316   0.592 -0.7430  1.9644  1.4596
  194SOL     hw  775   5.543   0.362   0.566  0.1869 -1.2560  0.3416
  194SOL     vw  776   5.461   0.354   0.541 -0.1199  0.1746  0.7817
  195SOL     ow  777   2.394   0.855   0.467  0.3389  0.6895  0.1751
  195SOL     hw  778   2.349   0.779   0.430 -0.8422  0.8278  1.2442
  195SOL     hw  779   2.387   0.922   0.399 -0.1796  0.3817 -0.0852
  195SOL     vw  780   2.387   0.854   0.453  0.1147  0.6672  0.2818
  196SOL     ow  781   2.205   4.843   1.632  0.2858 -0.4281 -0.2225
  196SOL     hw  782   2.254   4.913   1.588  1.1470 -1.4838 -0.9718
  196SOL     hw  783   2.268   4.773   1.644 -0.4722 -0.9476  0.8866
  196SOL     vw  784   2.220   4.843   1.628  0.2993 -0.6359 -0.1750
  197SOL     ow  785   2.251   2.249   1.759 -0.3194  0.2097 -0.7466
  197SOL     hw  786   2.326   2.287   1.805  0.5311 -1.3350 -0.8016
  197SOL     hw  787   2.177   2.266   1.817  0.8012 -2.2277  1.6323
  197SOL     vw  788   2.251   2.257   1.773 -0.0595 -0.3158 -0.4401
  198SOL     ow  789   3.759   3.709   1.433  0.1761 -0.1228  0.0445
  198SOL     hw  790   3.685   3.679   1.380  0.4017 -1.2737  0.3443
  198SOL     hw  791   3.770   3.640   1.499  2.0594 -0.4166 -0.5132
  198SOL     vw  792   3.750   3.696   1.435  0.4543 -0.3135  0.0104
  199SOL     ow  793   0.964   1.512   5.982  0.2257  0.0785  0.0317
  199SOL     hw  794   1.023   1.557   6.043  0.6511 -0.6797  0.1905
  199SOL     hw  795   1.013   1.435   5.954 -0.1133  0.2240 -0.9957
  199SOL     vw  796   0.978   1.508   5.986  0.2371 -0.0023 -0.0832
  200SOL     ow  797   2.326   4.810   7.362 -0.1609 -0.1875 -0.0251
  200SOL     hw  798   2.278   4.873   7.309 -0.9223  1.3540  2.3529
  200SOL     hw  799   2.319   4.843   7.452  1.1017 -2.6250  1.0738
  200SOL     vw  800   2.319   4.823   7.367 -0.0948 -0.3059  0.4334
  201SOL     ow  801   0.843   1.964   1.180 -0.5107 -0.5644 -0.1819
  201SOL     hw  802   0.841   2.045   1.130 -0.4213  0.5584  1.5564
  201SOL     hw  803   0.863   1.896   1.115 -0.2282  0.8346 -1.6122
  201SOL     vw  804   0.845   1.966   1.165 -0.4617 -0.2317 -0.1413
  202SOL     ow  805   0.197   3.455   2.059  0.2074  0.0834 -0.5859
  202SOL     hw  806   0.287   3.472   2.089  0.0399 -0.3137  0.1676
  202SOL     hw  807   0.190   3.502   1.976  0.2095  2.5682  0.7253
  202SOL     vw  808   0.208   3.463   2.052  0.1856  0.3588 -0.3134
  203SOL     ow  809   1.809   6.684   2.560 -0.2554  0.8287 -0.2612
  203SOL     hw  810   1.899   6.676   2.528 -0.1982  1.1329 -0.1804
  203SOL     hw  811   1.796   6.778   2.572 -0.6646  0.8044 -0.4975
  203SOL     vw  812   1.820   6.695   2.557 -0.3019  0.8657 -0.2816
  204SOL     ow  813   7.054   5.832   0.278 -0.4317  0.1337 -0.1338
  204SOL     hw  814   7.094   5.745   0.286 -2.9007 -0.9472  2.1509
  204SOL     hw  815   6.965   5.814   0.247 -0.8214  1.9055 -0.1336
  204SOL     vw  816   7.047   5.818   0.275 -0.8090  0.2246  0.1677
  205SOL     ow  817   2.095   4.333   5.968  0.2179  0.2298 -0.4119
  205SOL     hw  818   2.028   4.268   5.948 -0.1497  0.5945 -0.3909
  205SOL     hw  819   2.174   4.301   5.926  0.0645 -0.2813 -0.3134
  205SOL     vw  820   2.096   4.320   5.960  0.1491  0.2103 -0.3960
  206SOL     ow  821   6.118   1.563   2.012 -0.1747  0.4993 -0.5950
  206SOL     hw  822   6.120   1.645   1.963  2.6647 -0.8143 -2.9270
  206SOL     hw  823   6.179   1.576   2.084  0.1016  0.5092 -0.8316
  206SOL     vw  824   6.126   1.575   2.015  0.2365  0.3273 -0.9339
  207SOL     ow  825   2.523   6.794   3.970  0.0796 -0.1323  0.1687
  207SOL     hw  826   2.479   6.712   3.949 -0.3973 -0.3330  1.7789
  207SOL     hw  827   2.615   6.771   3.982 -0.1878 -0.6291  1.4546
  207SOL     vw  828   2.529   6.780   3.969 -0.0186 -0.2244  0.5507
  208SOL     ow  829   3.018   5.362   0.398  0.0526 -0.0916 -0.8525
  208SOL     hw  830   2.943   5.406   0.438  2.4347  2.3362  1.3204
  208SOL     hw  831   3.001   5.367   0.304 -2.6638  0.0129 -0.4157
  208SOL     vw  832   3.006   5.369   0.391  0.0085  0.2427 -0.5082
  209SOL     ow  833   6.537   3.702   2.212  0.1138 -0.2441  0.4733
  209SOL     hw  834   6.621   3.741   2.191  0.1208 -1.0957 -1.2466
  209SOL     hw  835   6.507   3.663   2.130 -0.7855 -2.1393  1.6263
  209SOL     vw  836   6.544   3.702   2.198 -0.0041 -0.6065  0.3985
  210SOL     ow  837   0.896   3.303   4.049  0.2912  0.8378 -0.3407
  210SOL     hw  838   0.874   3.304   4.142 -0.1939 -0.3739 -0.4231
  210SOL     hw  839   0.991   3.289   4.047  0.0747 -0.8432 -0.0215
  210SOL     vw  840   0.906   3.301   4.061  0.1986  0.4561 -0.3095
  211SOL     ow  841   6.007   7.410   1.024 -0.0024 -0.1352 -0.2806
  211SOL     hw  842   5.960   7.446   1.099  0.7785  0.8605 -0.2458
  211SOL     hw  843   6.008   7.482   0.960 -0.5573 -0.9312 -1.2097
  211SOL     vw  844   6.001   7.424   1.025  0.0274 -0.1090 -0.3986
  212SOL     ow  845   6.510   4.071   2.609 -0.0565 -0.3683 -0.3160
  212SOL     hw  846   6.555   3.995   2.646  1.2247 -0.0684 -1.1932
  212SOL     hw  847   6.581   4.127   2.576 -1.0336  0.6689 -0.7151
  212SOL     vw  848   6.525   4.069   2.610 -0.0162 -0.1919 -0.4843
  213SOL     ow  849   2.379   1.433   2.136  0.9766 -0.1281  0.0776
  213SOL     hw  850   2.368   1.526   2.121  0.2436  0.0666  1.6408
  213SOL     hw  851   2.474   1.418   2.127  1.2199  0.9520  0.7128
  213SOL     vw  852   2.390   1.443   2.133  0.9120  0.0401  0.3675
  214SOL     ow  853   6.066   2.591   6.071  0.2877 -0.1173 -0.2802
  214SOL     hw  854   5.974   2.617   6.076  0.2603 -0.2073 -0.3289
  214SOL     hw  855   6.095   2.618   5.984  0.4469  0.3760 -0.0793
  214SOL     vw  856   6.058   2.598   6.061  0.3049 -0.0643 -0.2604
  215SOL     ow  857   3.406   5.452   1.821  0.2552  0.6313 -0.1294
  215SOL     hw  858   3.393   5.525   1.881  0.1769  0.5423 -0.0372
  215SOL     hw  859   3.445   5.492   1.743 -0.4339  0.8941 -0.3561
  215SOL     vw  860   3.409   5.467   1.818  0.1540  0.6542 -0.1472
  216SOL     ow  861   3.584   0.104   1.199 -1.1150 -0.1188 -0.5275
  216SOL     hw  862   3.649   0.172   1.217  0.9274 -1.9973 -0.4817
  216SOL     hw  863   3.622   0.024   1.234 -2.8853 -1.5528 -1.7024
  216SOL     vw  864   3.598   0.103   1.206 -1.0791 -0.5559 -0.6764
  217SOL     ow  865   5.822   0.730   1.782  0.0083 -0.1342  0.4902
  217SOL     hw  866   5.894   0.688   1.735 -0.0836  0.5235 -0.2402
  217SOL     hw  867   5.743   0.691   1.744 -0.0493 -2.1673  2.4806
  217SOL     vw  868   5.821   0.719   1.771 -0.0117 -0.3157  0.6564
  218SOL     ow  869   0.406   0.645   7.258  0.6367 -0.7025  0.4526
  218SOL     hw  870   0.428   0.625   7.349 -1.2365 -0.7318  0.9525
  218SOL     hw  871   0.341   0.579   7.234 -1.8326  1.5624  0.4338
  218SOL     vw  872   0.400   0.633   7.267  0.0637 -0.4075  0.5162
  219SOL     ow  873   6.449   3.182   5.688 -0.0687 -0.4205  0.2841
  219SOL     hw  874   6.387   3.176   5.615  1.5315  0.3183 -1.2211
  219SOL     hw  875   6.403   3.144   5.763 -2.7455  1.0993 -0.4714
  219SOL     vw  876   6.435   3.176   5.688 -0.2105 -0.1225 -0.0141
  220SOL     ow  877   1.418   0.857   4.730  0.0477  0.5773  0.2046
  220SOL     hw  878   1.397   0.950   4.720  1.7233  1.0678  0.8200
  220SOL     hw  879   1.388   0.835   4.818 -1.7543  0.0748 -0.4823
  220SOL     vw  880   1.411   0.867   4.740  0.0311  0.5758  0.1950
  221SOL     ow  881   6.494   4.898   2.566 -0.1031 -0.1939 -0.1067
  221SOL     hw  882   6.459   4.976   2.522 -1.6899 -0.2722  0.9653
  221SOL     hw  883   6.558   4.863   2.503 -1.1868  0.5474 -1.7066
  221SOL     vw  884   6.498   4.904   2.552 -0.4556 -0.1066 -0.1764
  222SOL     ow  885   5.946   4.402   6.945  0.1847  0.2622 -0.2888
  222SOL     hw  886   5.960   4.362   6.859 -0.1200  0.6758 -0.5353
  222SOL     hw  887   5.852   4.390   6.961 -0.8157  4.1899 -2.0939
  222SOL     vw  888   5.935   4.395   6.936  0.0124  0.8352 -0.5596
  223SOL     ow  889   2.385   7.148   4.321 -0.0662  0.1939 -0.4103
  223SOL     hw  890   2.366   7.229   4.274 -0.9562  0.4778  0.4121
  223SOL     hw  891   2.435   7.095   4.258 -0.8734  0.7187 -1.5268
  223SOL     vw  892   2.389   7.152   4.306 -0.2900  0.3006 -0.4492
  224SOL     ow  893   0.288   4.227   0.552  0.1439  0.7999 -0.4411
  224SOL     hw  894   0.289   4.146   0.502 -0.1279  0.9336 -0.6710
  224SOL     hw  895   0.229   4.284   0.503 -0.0142  0.9831 -0.0419
  224SOL     vw  896   0.280   4.224   0.539  0.0872  0.8419 -0.4188
  225SOL     ow  897   6.325   4.724   1.966  0.1889  0.2642 -0.7556
  225SOL     hw  898   6.406   4.736   1.916  0.2430 -0.1001 -0.7568
  225SOL     hw  899   6.257   4.766   1.912 -0.0071 -1.3918 -1.8667
  225SOL     vw  900   6.326   4.731   1.952  0.1700 -0.0029 -0.9024
  226SOL     ow  901   2.495   0.102   6.887  0.7083  0.0732 -0.0215
  226SOL     hw  902   2.401   0.108   6.902  0.0223 -0.6512 -3.2265
  226SOL     hw  903   2.519   0.014   6.914 -0.3954 -1.0906 -2.5207
  226SOL     vw  904   2.486   0.092   6.893  0.4723 -0.1760 -0.7741
  227SOL     ow  905   0.520   2.124   6.298  0.0315  0.0071 -0.3104
  227SOL     hw  906   0.463   2.061   6.342  0.4998 -2.0558 -2.4408
  227SOL     hw  907   0.462   2.169   6.236 -0.3430  1.9252  1.3312
  227SOL     vw  908   0.504   2.121   6.296  0.0439 -0.0120 -0.3746
  228SOL     ow  909   2.880   4.945   2.191  0.3639  0.0909  0.6919
  228SOL     hw  910   2.913   4.873   2.244  1.4850 -0.1750 -0.3172
  228SOL     hw  911   2.820   4.904   2.128  2.3319 -0.3278 -1.0529
  228SOL     vw  912   2.877   4.930   2.189  0.7715  0.0007  0.3284
  229SOL     ow  913   5.203   4.678   0.500 -0.0030 -0.2315 -0.3998
  229SOL     hw  914   5.111   4.702   0.509  0.3152  0.2463  2.3293
  229SOL     hw  915   5.237   4.741   0.436 -0.9071  1.7726  0.9725
  229SOL     vw  916   5.196   4.690   0.492 -0.0803  0.0958  0.1413
  230SOL     ow  917   1.756   6.188   4.995 -0.2646 -0.1176  0.0664
  230SOL     hw  918   1.800   6.137   4.926 -0.8364 -0.1355 -0.2929
  230SOL     hw  919   1.689   6.129   5.029  0.6778 -0.4764  1.3602
  230SOL     vw  920   1.753   6.173   4.990 -0.2156 -0.1676  0.1895
  231SOL     ow  921   3.870   3.574   5.628  0.5885 -0.1338 -0.2039
  231SOL     hw  922   3.839   3.642   5.569 -0.1831  0.0109  0.3543
  231SOL     hw  923   3.868   3.494   5.576  2.7777  0.4310 -1.2900
  231SOL     vw  924   3.866   3.572   5.614  0.7755 -0.0402 -0.2737
  232SOL     ow  925   1.664   4.300   1.471 -0.2347 -0.1398  0.2311
  232SOL     hw  926   1.575   4.267   1.458  0.3369 -2.2938  1.3670
  232SOL     hw  927   1.700   4.306   1.383 -0.8655 -1.2099 -0.1193
  232SOL     vw  928   1.657   4.297   1.458 -0.2425 -0.5653  0.3347
  233SOL     ow  929   0.050   2.298   0.483 -0.3866 -0.1946  0.0867
  233SOL     hw  930   0.004   2.284   0.566  0.6110 -1.9819  0.3852
  233SOL     hw  931   0.032   2.219   0.432 -0.4282  0.5876 -1.1500
  233SOL     vw  932   0.042   2.286   0.487 -0.2605 -0.3272 -0.0370
  234SOL     ow  933   0.249   5.526   3.968 -1.1671  0.4170 -0.7483
  234SOL     hw  934   0.275   5.508   3.878 -2.1386 -1.5703 -0.6860
  234SOL     hw  935   0.154   5.538   3.963 -1.5120 -1.5191  0.1991
  234SOL     vw  936   0.240   5.526   3.955 -1.3408 -0.1006 -0.6151
  235SOL     ow  937   7.360   0.679   5.682 -0.3423  0.1257 -0.3643
  235SOL     hw  938   7.452   0.672   5.655 -0.5727  1.0997 -1.4976
  235SOL     hw  939   7.319   0.600   5.648 -0.4156  0.8633 -2.0883
  235SOL     vw  940   7.367   0.668   5.674 -0.3827  0.3515 -0.7410
  236SOL     ow  941   6.729   0.588   5.889  0.4056 -0.3005 -0.2461
  236SOL     hw  942   6.708   0.515   5.830  0.7099 -0.6734  0.1079
  236SOL     hw  943   6.705   0.557   5.976  1.0321 -0.1743 -0.0227
  236SOL     vw  944   6.723   0.574   5.892  0.5281 -0.3331 -0.1700
  237SOL     ow  945   4.754   5.125   0.685  0.2429 -0.1933  0.1973
  237SOL     hw  946   4.808   5.196   0.719 -1.3807  1.0757  0.2465
  237SOL     hw  947   4.710   5.089   0.761 -0.7392  0.3573 -0.0815
  237SOL     vw  948   4.755   5.130   0.699 -0.1009  0.0467  0.1670
  238SOL     ow  949   0.496   1.913   2.343 -0.2576 -0.1642  0.2392
  238SOL     hw  950   0.572   1.971   2.345 -1.2752  1.4732 -2.5370
  238SOL     hw  951   0.425   1.966   2.307 -2.6259 -1.8046  2.0687
  238SOL     vw  952   0.496   1.927   2.339 -0.7043 -0.1646  0.1142
  239SOL     ow  953   0.842   1.901   7.348  0.3209 -0.1681 -0.0964
  239SOL     hw  954   0.854   1.807   7.355 -0.5711 -0.2057  1.2799
  239SOL     hw  955   0.890   1.926   7.269  1.1857 -1.6504 -0.0616
  239SOL     vw  956   0.850   1.892   7.338  0.3173 -0.3686  0.0896
  240SOL     ow  957   6.355   0.658   1.245 -0.1031  0.2624  0.3411
  240SOL     hw  958   6.379   0.750   1.259  0.7828  0.1934 -0.5502
  240SOL     hw  959   6.423   0.624   1.187 -0.5979 -0.8764  0.3879
  240SOL     vw  960   6.367   0.666   1.239 -0.0515  0.1030  0.2296
  241SOL     ow  961   6.888   7.353   5.585 -0.1925  0.5334 -0.0973
  241SOL     hw  962   6.927   7.267   5.568  1.4985  1.4793 -1.3500
  241SOL     hw  963   6.832   7.370   5.510 -1.3958  0.0870  0.6779
  241SOL     vw  964   6.886   7.344   5.573 -0.1280  0.5994 -0.1602
  242SOL     ow  965   0.640   4.883   6.478  0.4503  0.0746 -0.4876
  242SOL     hw  966   0.567   4.853   6.532  1.4415 -0.5115  0.5570
  242SOL     hw  967   0.599   4.942   6.414 -0.9070 -0.1068  0.1704
  242SOL     vw  968   0.625   4.887   6.476  0.4020 -0.0269 -0.2630
  243SOL     ow  969   0.009   3.196   3.463  0.4583  0.7871  0.2666
  243SOL     hw  970   0.104   3.182   3.467  0.4702  0.8208  0.1112
  243SOL     hw  971  -0.009   3.209   3.370  0.1991  0.0601  0.2107
  243SOL     vw  972   0.019   3.196   3.451  0.4257  0.6957  0.2387
  244SOL     ow  973   4.193   0.739   7.123  0.7323 -0.1241 -0.1510
  244SOL     hw  974   4.157   0.667   7.073  0.8256 -0.5457  0.3806
  244SOL     hw  975   4.226   0.800   7.057 -0.1558 -0.1378 -0.6200
  244SOL     vw  976   4.193   0.738   7.108  0.6275 -0.1815 -0.1428
  245SOL     ow  977   4.682   5.142   4.906 -0.2432 -0.1520 -0.7569
  245SOL     hw  978   4.695   5.124   4.999 -2.7322  0.4004 -0.2359
  245SOL     hw  979   4.750   5.206   4.885  1.1422 -1.1957  0.3355
  245SOL     vw  980   4.693   5.148   4.916 -0.3891 -0.2167 -0.5443
  246SOL     ow  981   3.325   2.365   6.937  0.2905  0.3857 -0.4064
  246SOL     hw  982   3.296   2.285   6.980  3.0328 -0.3704  0.2490
  246SOL     hw  983   3.358   2.420   7.009 -0.7395  1.7499 -0.9400
  246SOL     vw  984   3.326   2.362   6.952  0.5165  0.4660 -0.3903
  247SOL     ow  985   7.370   5.650   1.614  0.4344  0.1919 -0.2336
  247SOL     hw  986   7.371   5.555   1.629  0.4046  0.2032 -0.1627
  247SOL     hw  987   7.368   5.658   1.518 -1.7954  0.0796 -0.2694
  247SOL     vw  988   7.370   5.638   1.603  0.1364  0.1786 -0.2289
  248SOL     ow  989   5.549   7.357   6.750 -0.1861 -0.3953  0.0879
  248SOL     hw  990   5.474   7.416   6.759  0.3215  0.2118  0.3495
  248SOL     hw  991   5.613   7.407   6.699 -0.3422 -1.2815 -1.0412
  248SOL     vw  992   5.547   7.372   6.744 -0.1397 -0.4320 -0.0262
  249SOL     ow  993   4.807   4.180   0.745 -0.0878 -0.5781 -0.1105
  249SOL     hw  994   4.803   4.119   0.818 -1.3577 -0.1032  0.2489
  249SOL     hw  995   4.830   4.126   0.670 -1.3360 -1.5582  0.1704
  249SOL     vw  996   4.809   4.165   0.745 -0.4201 -0.6444 -0.0260
  250SOL     ow  997   4.147   1.601   2.744 -0.0767  0.4023 -0.2960
  250SOL     hw  998   4.151   1.665   2.672 -2.3351  1.8351  0.7440
  250SOL     hw  999   4.064   1.620   2.788  0.4729 -1.5063  1.7180
  250SOL     vw 1000   4.137   1.612   2.740 -0.3021  0.3395  0.1069
  251SOL     ow 1001   2.133   7.316   1.473 -0.3627  0.2755 -0.1103
  251SOL     hw 1002   2.204   7.253   1.484  0.1882  0.7081 -1.0443
  251SOL     hw 1003   2.060   7.280   1.523  0.1883 -0.7047 -0.0001
  251SOL     vw 1004   2.132   7.303   1.481 -0.2171  0.2031 -0.2189
  252SOL     ow 1005   6.524   5.446   4.202 -0.2250  0.0901 -0.3754
  252SOL     hw 1006   6.608   5.406   4.179 -0.8611 -1.1903 -0.5820
  252SOL     hw 1007   6.497   5.400   4.282 -1.1835 -0.2394 -0.8640
  252SOL     vw 1008   6.531   5.434   4.210 -0.4354 -0.1223 -0.4671
  253SOL     ow 1009   7.124   5.189   7.217  0.3875 -0.3939  0.0857
  253SOL     hw 1010   7.037   5.189   7.257 -0.0862  2.4905 -0.7055
  253SOL     hw 1011   7.160   5.102   7.236 -1.8603 -0.9647  2.1319
  253SOL     vw 1012   7.117   5.177   7.225  0.0284 -0.0887  0.2513
  254SOL     ow 1013   5.889   6.800   3.646 -0.0746  0.2494  0.2351
  254SOL     hw 1014   5.913   6.734   3.711 -1.0434 -0.8785 -0.5160
  254SOL     hw 1015   5.815   6.846   3.684 -1.4050 -1.1970 -0.5237
  254SOL     vw 1016   5.883   6.798   3.659 -0.3779 -0.0904  0.0359
  255SOL     ow 1017   4.483   3.022   0.063 -0.1213  0.3749 -0.4296
  255SOL     hw 1018   4.414   2.961   0.037  0.6000 -0.5989 -0.1349
  255SOL     hw 1019   4.437   3.094   0.106 -0.8550 -1.0509  1.2655
  255SOL     vw 1020   4.468   3.023   0.065 -0.1230  0.0582 -0.1670
  256SOL     ow 1021   2.601   1.719   6.426 -0.3245  0.7210  0.2217
  256SOL     hw 1022   2.685   1.745   6.464 -0.4975  0.4428  0.7906
  256SOL     hw 1023   2.608   1.624   6.417 -1.2358  0.4612  1.8931
  256SOL     vw 1024   2.613   1.710   6.430 -0.4677  0.6500  0.5171
  257SOL     ow 1025   6.620   6.149   6.801  0.2186  0.1805  0.3522
  257SOL     hw 1026   6.664   6.068   6.775  2.1516  0.8431  1.3823
  257SOL     hw 1027   6.538   6.120   6.841  0.1444 -1.1637 -0.7013
  257SOL     vw 1028   6.615   6.135   6.803  0.4637  0.0906  0.3490
  258SOL     ow 1029   2.725   0.994   3.666 -0.8622 -0.0635 -0.1697
  258SOL     hw 1030   2.671   1.064   3.703 -2.7561 -1.5140 -0.0368
  258SOL     hw 1031   2.796   0.983   3.728 -0.4758  1.7546 -0.2275
  258SOL     vw 1032   2.727   1.002   3.679 -1.0612 -0.0151 -0.1599
  259SOL     ow 1033   4.184   4.841   4.056  0.2552 -0.0049 -0.4413
  259SOL     hw 1034   4.091   4.862   4.067  0.4501  0.1884  1.1807
  259SOL     hw 1035   4.228   4.897   4.121  1.3558 -1.1565 -0.1623
  259SOL     vw 1036   4.177   4.851   4.066  0.4261 -0.1314 -0.1905
  260SOL     ow 1037   0.451   1.202   6.461  0.6903 -0.2266  0.1580
  260SOL     hw 1038   0.514   1.192   6.533  0.0242  0.1454  0.8147
  260SOL     hw 1039   0.504   1.228   6.386  1.1987  1.1514  0.9616
  260SOL     vw 1040   0.466   1.204   6.461  0.6695  0.0044  0.3510
  261SOL     ow 1041   6.759   5.918   6.739 -0.0096 -0.4084 -0.6197
  261SOL     hw 1042   6.854   5.917   6.728 -0.2262  0.0343 -2.8637
  261SOL     hw 1043   6.729   5.837   6.699 -0.4419 -1.9773  2.5379
  261SOL     vw 1044   6.767   5.907   6.733 -0.0951 -0.5569 -0.4992
  262SOL     ow 1045   7.114   6.977   4.287  0.4938 -0.3788 -0.4087
  262SOL     hw 1046   7.077   6.939   4.367 -0.3448  1.1301 -0.0328
  262SOL     hw 1047   7.104   7.072   4.298  1.0670 -0.0944 -1.9692
  262SOL     vw 1048   7.108   6.985   4.299  0.4587 -0.1421 -0.5648
  263SOL     ow 1049   1.994   1.389   1.533 -0.2181  0.3270 -0.5971
  263SOL     hw 1050   2.060   1.336   1.577  0.8749 -0.3925 -2.9346
  263SOL     hw 1051   1.934   1.417   1.603  1.3877 -0.7121  1.2777
  263SOL     vw 1052   1.995   1.386   1.548  0.1379  0.0950 -0.6582
  264SOL     ow 1053   5.047   7.081   3.010  0.1708 -0.2087 -0.1954
  264SOL     hw 1054   5.037   7.012   2.945 -1.3939  0.4198 -0.6686
  264SOL     hw 1055   5.072   7.158   2.959  1.3307 -0.2620  0.2601
  264SOL     vw 1056   5.049   7.082   2.995  0.1173 -0.1328 -0.1978
  265SOL     ow 1057   1.171   4.688   2.416  0.4125 -0.5506 -0.4209
  265SOL     hw 1058   1.188   4.609   2.466  0.7289  0.6062  1.3764
  265SOL     hw 1059   1.196   4.760   2.474 -2.3652  0.9906 -0.9407
  265SOL     vw 1060   1.176   4.687   2.430  0.0878 -0.1948 -0.2524
  266SOL     ow 1061   4.605   5.029   6.490  0.2934  0.3706  0.3073
  266SOL     hw 1062   4.648   4.944   6.499  0.4874  0.5154  0.8202
  266SOL     hw 1063   4.604   5.046   6.396 -0.4178 -0.5349  0.1347
  266SOL     vw 1064   4.611   5.020   6.479  0.2253  0.2701  0.3521
  267SOL     ow 1065   4.359   3.461   4.844  0.1804  0.4029 -0.3270
  267SOL     hw 1066   4.326   3.465   4.934 -0.2032 -3.0185 -0.1913
  267SOL     hw 1067   4.325   3.540   4.803 -2.2391  0.5769  1.7485
  267SOL     vw 1068   4.350   3.472   4.850 -0.1895 -0.0255 -0.0353
  268SOL     ow 1069   5.591   3.359   1.717 -0.1325 -0.5410  0.7176
  268SOL     hw 1070   5.639   3.431   1.678 -0.1962 -0.4988  0.7158
  268SOL     hw 1071   5.628   3.349   1.805 -0.2365 -0.3968  0.7783
  268SOL     vw 1072   5.602   3.367   1.724 -0.1547 -0.5164  0.7254
  269SOL     ow 1073   2.620   3.207   1.335  0.0647 -0.1046 -0.0868
  269SOL     hw 1074   2.533   3.183   1.368  0.5183 -0.6471  0.7447
  269SOL     hw 1075   2.619   3.179   1.244 -0.9887  0.8335 -0.3933
  269SOL     vw 1076   2.608   3.200   1.328 -0.0144 -0.0525 -0.0176
  270SOL     ow 1077   4.789   6.257   6.745 -0.0454 -0.2762  0.0416
  270SOL     hw 1078   4.795   6.261   6.841 -0.6861 -1.8297  0.1731
  270SOL     hw 1079   4.741   6.176   6.728  1.5193 -0.8842 -1.6622
  270SOL     vw 1080   4.783   6.247   6.756  0.0768 -0.5615 -0.1655
  271SOL     ow 1081   1.198   4.847   0.891  0.0389 -0.3676  0.5523
  271SOL     hw 1082   1.134   4.918   0.882 -1.0914 -0.9387  3.2783
  271SOL     hw 1083   1.163   4.776   0.838 -1.3259 -0.4723  1.5536
  271SOL     vw 1084   1.185   4.847   0.882 -0.2903 -0.4570  1.0441
  272SOL     ow 1085   0.627   2.662   0.836  0.3198 -0.2792 -0.0339
  272SOL     hw 1086   0.573   2.732   0.873  1.3321  0.7507 -0.4201
  272SOL     hw 1087   0.669   2.703   0.761 -0.5000 -1.8802 -1.4110
  272SOL     vw 1088   0.625   2.677   0.831  0.3452 -0.3545 -0.2665
  273SOL     ow 1089   0.780   4.859   2.186 -0.3543  1.1371 -0.2516
  273SOL     hw 1090   0.790   4.949   2.156  1.7158  1.6545  1.7050
  273SOL     hw 1091   0.694   4.857   2.227 -0.2724  2.3368  0.0129
  273SOL     vw 1092   0.770   4.870   2.187 -0.0704  1.3638  0.0414
  274SOL     ow 1093   6.738   2.991   6.853 -0.2213 -0.0792  0.1229
  274SOL     hw 1094   6.705   2.915   6.902 -1.1994  0.2366 -0.0075
  274SOL     hw 1095   6.760   2.956   6.767  1.0181 -0.5390  0.6050
  274SOL     vw 1096   6.736   2.977   6.848 -0.1869 -0.0982  0.1695
  275SOL     ow 1097   2.347   0.506   4.787  0.7962 -0.0846 -0.2125
  275SOL     hw 1098   2.267   0.454   4.793  1.8419 -1.8871 -0.9390
  275SOL     hw 1099   2.361   0.518   4.693  1.2653  0.4014 -0.0881
  275SOL     vw 1100   2.338   0.501   4.775  0.9960 -0.2583 -0.2918
  276SOL     ow 1101   6.429   2.915   5.975 -0.0682 -0.0648  0.0262
  276SOL     hw 1102   6.419   2.834   5.925 -0.6468  0.3757 -0.5947
  276SOL     hw 1103   6.341   2.931   6.011  0.0529  0.2616  0.1801
  276SOL     vw 1104   6.416   2.907   5.973 -0.1285  0.0364 -0.0353
  277SOL     ow 1105   7.280   6.744   4.216  0.3561  0.1634 -0.2160
  277SOL     hw 1106   7.323   6.724   4.300  0.7926 -0.4470 -0.5707
  277SOL     hw 1107   7.218   6.672   4.204  0.2496  0.2844 -0.3873
  277SOL     vw 1108   7.278   6.732   4.226  0.3994  0.0989 -0.2854
  278SOL     ow 1109   6.378   4.848   7.473  0.1381  0.0349  0.4142
  278SOL     hw 1110   6.413   4.778   7.418 -0.1747  0.1145  0.1086
  278SOL     hw 1111   6.297   4.875   7.429 -0.1077  0.1104  0.9089
  278SOL     vw 1112   6.372   4.843   7.460  0.0644  0.0556  0.4392
  279SOL     ow 1113   0.278   6.636   2.310  0.2412 -0.0527 -0.0471
  279SOL     hw 1114   0.308   6.723   2.284  0.6873 -0.6313 -1.6386
  279SOL     hw 1115   0.203   6.652   2.367  1.0263  1.3737  0.6252
  279SOL     vw 1116   0.272   6.649   2.314  0.4036  0.0594 -0.1684
  280SOL     ow 1117   1.609   7.022   5.885 -0.0049  0.6451  0.4212
  280SOL     hw 1118   1.561   6.940   5.896 -1.1094  1.3007  0.6754
  280SOL     hw 1119   1.583   7.054   5.799  1.5440  0.0415 -0.3039
  280SOL     vw 1120   1.599   7.015   5.875  0.0538  0.6521  0.3588
  281SOL     ow 1121   1.934   7.136   3.330  0.4557  0.0058 -0.5548
  281SOL     hw 1122   1.971   7.142   3.418 -0.5428 -0.2512 -0.1044
  281SOL     hw 1123   1.910   7.226   3.308 -0.2961 -0.0798 -0.1118
  281SOL     vw 1124   1.936   7.149   3.339  0.2248 -0.0396 -0.4368
  282SOL     ow 1125   4.169   1.895   1.666 -0.4955  0.9265 -0.6670
  282SOL     hw 1126   4.092   1.946   1.640 -1.5040  0.3081  0.9403
  282SOL     hw 1127   4.178   1.912   1.760  0.5160 -0.0812 -0.5644
  282SOL     vw 1128   4.160   1.904   1.675 -0.4950  0.7119 -0.4414
  283SOL     ow 1129   6.665   0.770   3.402  0.1292 -0.0911 -0.0833
  283SOL     hw 1130   6.692   0.699   3.460  0.1809  1.3137  1.7081
  283SOL     hw 1131   6.667   0.849   3.457 -0.9912  1.1424 -1.6853
  283SOL     vw 1132   6.668   0.771   3.417 -0.0117  0.2570 -0.0583
  284SOL     ow 1133   4.894   6.171   7.237 -0.1219  0.1289 -0.4660
  284SOL     hw 1134   4.949   6.249   7.238 -1.1661  1.0292 -3.0212
  284SOL     hw 1135   4.810   6.200   7.273 -0.1470 -0.1176 -0.3248
  284SOL     vw 1136   4.890   6.185   7.242 -0.2630  0.2153 -0.7842
  285SOL     ow 1137   2.143   1.128   3.077 -0.1044  0.0092 -0.1479
  285SOL     hw 1138   2.197   1.166   3.146 -0.2906  1.6643 -0.8821
  285SOL     hw 1139   2.206   1.087   3.017  0.0013 -2.6644  1.6098
  285SOL     vw 1140   2.158   1.128   3.078 -0.1150 -0.1252 -0.0126
  286SOL     ow 1141   5.795   3.898   6.484 -0.1163 -0.7573  0.3363
  286SOL     hw 1142   5.700   3.903   6.475  0.0835 -0.4504 -3.2405
  286SOL     hw 1143   5.826   3.985   6.457  1.2201 -1.1835  0.4263
  286SOL     vw 1144   5.787   3.910   6.479  0.0863 -0.7732 -0.1235
  287SOL     ow 1145   2.980   2.140   0.395  0.0582 -0.2423  0.0421
  287SOL     hw 1146   2.894   2.139   0.352 -0.3996 -1.6200  0.8939
  287SOL     hw 1147   2.994   2.049   0.421  0.8069  0.3260  1.7917
  287SOL     vw 1148   2.970   2.128   0.393  0.0966 -0.3490  0.3853
  288SOL     ow 1149   1.034   0.004   6.511 -0.3409  0.2238  0.0568
  288SOL     hw 1150   1.036  -0.045   6.429  3.8443  0.5062 -0.2242
  288SOL     hw 1151   1.018  -0.062   6.579 -0.5633 -0.5618 -0.7416
  288SOL     vw 1152   1.032  -0.011   6.509  0.1819  0.1571 -0.0856
  289SOL     ow 1153   1.833   6.791   3.499 -0.1808  0.1643  0.6815
  289SOL     hw 1154   1.868   6.754   3.580 -2.5806  0.3970  1.9382
  289SOL     hw 1155   1.749   6.746   3.487  0.0630  0.2133 -1.6634
  289SOL     vw 1156   1.826   6.780   3.508 -0.4653  0.2015  0.5379
  290SOL     ow 1157   1.818   6.329   0.490  0.4228  0.6629  0.2152
  290SOL     hw 1158   1.785   6.345   0.579  0.7995 -0.0873  0.4985
  290SOL     hw 1159   1.908   6.301   0.503  1.1757  2.5985 -0.5557
  290SOL     vw 1160   1.825   6.327   0.504  0.5718  0.8190  0.1509
  291SOL     ow 1161   0.643   5.246   6.361 -0.5071 -0.0184  0.6196
  291SOL     hw 1162   0.701   5.241   6.437  0.9962 -0.2847 -0.4909
  291SOL     hw 1163   0.556   5.230   6.396  0.2847 -1.3012  2.1200
  291SOL     vw 1164   0.639   5.243   6.376 -0.2043 -0.2227  0.6714
  292SOL     ow 1165   4.935   4.060   1.200 -0.0792 -0.1550 -0.3332
  292SOL     hw 1166   4.849   4.073   1.241  0.3501  0.0879  0.5172
  292SOL     hw 1167   4.975   4.147   1.202  0.4657 -0.4056 -0.0581
  292SOL     vw 1168   4.929   4.073   1.206  0.0494 -0.1557 -0.1847
  293SOL     ow 1169   5.634   5.650   2.859  0.5776 -0.0709 -0.0965
  293SOL     hw 1170   5.698   5.585   2.887  0.5347  0.2956  0.8797
  293SOL     hw 1171   5.625   5.709   2.934  0.2412  0.7693 -0.7800
  293SOL     vw 1172   5.641   5.649   2.872  0.5274  0.0882 -0.0577
  294SOL     ow 1173   1.103   6.168   2.437 -0.3891  0.6276  0.4631
  294SOL     hw 1174   1.112   6.098   2.373  2.1016  0.6351  0.6946
  294SOL     hw 1175   1.010   6.170   2.458 -0.7191 -1.8025 -0.4379
  294SOL     vw 1176   1.092   6.159   2.431 -0.1041  0.3078  0.3748
  295SOL     ow 1177   6.511   4.926   1.139  0.3849 -0.7565 -0.2582
  295SOL     hw 1178   6.551   5.011   1.123 -0.1747  0.2480  2.8993
  295SOL     hw 1179   6.581   4.873   1.178  0.4018 -1.3428 -1.0623
  295SOL     vw 1180   6.525   4.930   1.142  0.3135 -0.7012  0.0523
  296SOL     ow 1181   6.804   4.657   6.369 -0.3499 -0.0196  0.0701
  296SOL     hw 1182   6.894   4.684   6.382  0.3138 -1.9206 -0.3117
  296SOL     hw 1183   6.774   4.706   6.292  0.4414  0.4019  0.0290
  296SOL     vw 1184   6.812   4.667   6.361 -0.1581 -0.2148  0.0141
  297SOL     ow 1185   7.150   2.795   0.995 -0.6081 -0.1692 -0.2936
  297SOL     hw 1186   7.070   2.815   1.044 -0.6917 -2.3605  0.5475
  297SOL     hw 1187   7.219   2.843   1.041 -1.2936  1.1796 -0.6088
  297SOL     vw 1188   7.148   2.804   1.007 -0.7095 -0.2804 -0.2242
  298SOL     ow 1189   2.596   3.241   3.501  0.3882  0.0096  0.1752
  298SOL     hw 1190   2.687   3.271   3.500  0.6822 -0.8448 -1.4838
  298SOL     hw 1191   2.546   3.319   3.526  1.4850  0.7641  0.1097
  298SOL     vw 1192   2.601   3.255   3.504  0.5718 -0.0035 -0.0523
  299SOL     ow 1193   4.213   2.236   3.197 -0.0958 -0.3368  0.2271
  299SOL     hw 1194   4.156   2.194   3.261 -2.2982 -0.6150 -1.7781
  299SOL     hw 1195   4.246   2.165   3.143  1.2675 -0.0482  0.6441
  299SOL     vw 1196   4.210   2.221   3.199 -0.2062 -0.3356  0.0175
  300SOL     ow 1197   0.871   5.973   3.853  0.5018 -0.3312 -0.2762
  300SOL     hw 1198   0.841   5.899   3.906 -3.3794  1.3648  0.2053
  300SOL     hw 1199   0.941   6.012   3.905 -0.2854 -1.2231  1.5481
  300SOL     vw 1200   0.876   5.968   3.867 -0.1141 -0.2251  0.0280
  301SOL     ow 1201   3.833   4.664   6.289  0.1030  0.2984  0.6561
  301SOL     hw 1202   3.924   4.669   6.318  0.3405  1.7325 -0.2387
  301SOL     hw 1203   3.833   4.593   6.224  1.0877  1.6766 -0.9242
  301SOL     vw 1204   3.845   4.655   6.284  0.2643  0.6695  0.3300
  302SOL     ow 1205   5.711   6.963   4.045 -0.3316 -0.3661 -0.2603
  302SOL     hw 1206   5.713   6.995   3.955 -1.8367 -0.2650 -0.2810
  302SOL     hw 1207   5.699   6.868   4.036 -1.8872 -0.1983 -0.1845
  302SOL     vw 1208   5.710   6.955   4.032 -0.7355 -0.3307 -0.2532
  303SOL     ow 1209   2.800   5.887   5.928 -0.2112  0.1011 -0.1788
  303SOL     hw 1210   2.720   5.916   5.884 -0.1000 -0.6996 -0.9470
  303SOL     hw 1211   2.870   5.939   5.887 -0.0492 -0.9788 -1.3346
  303SOL     vw 1212   2.799   5.898   5.917 -0.1751 -0.1473 -0.4327
  304SOL     ow 1213   6.391   5.064   2.163 -0.0185  0.2007  0.0672
  304SOL     hw 1214   6.433   5.055   2.078 -0.2188 -1.0262  0.0750
  304SOL     hw 1215   6.324   4.995   2.164 -0.2778  0.4467  1.0673
  304SOL     vw 1216   6.388   5.054   2.152 -0.0794  0.0715  0.2000
  305SOL     ow 1217   3.849   0.738   0.299  0.1170  0.1619  0.0581
  305SOL     hw 1218   3.775   0.684   0.272 -0.3560  2.3691 -3.8810
  305SOL     hw 1219   3.917   0.676   0.325 -2.1074 -2.0176  0.9500
  305SOL     vw 1220   3.849   0.723   0.299 -0.2389  0.1656 -0.3439
  306SOL     ow 1221   3.157   6.701   4.506 -0.6341 -0.3416  0.2351
  306SOL     hw 1222   3.203   6.784   4.496 -1.8128  0.3221  0.1778
  306SOL     hw 1223   3.178   6.652   4.426  1.4970 -0.8456  1.0558
  306SOL     vw 1224   3.166   6.706   4.494 -0.5085 -0.3204  0.3357
  307SOL     ow 1225   7.209   0.620   6.785  0.0605  0.2420  0.1948
  307SOL     hw 1226   7.172   0.593   6.869  0.8359  0.0312  0.4821
  307SOL     hw 1227   7.298   0.650   6.807  0.0788  0.7028 -0.4729
  307SOL     vw 1228   7.216   0.620   6.799  0.1652  0.2750  0.1447
  308SOL     ow 1229   6.006   5.226   4.647  0.4041  0.0329 -0.1180
  308SOL     hw 1230   6.088   5.276   4.636  1.0769 -0.4659  2.1466
  308SOL     hw 1231   6.033   5.147   4.695 -1.3656 -0.2751  0.4144
  308SOL     vw 1232   6.021   5.222   4.652  0.2594 -0.0734  0.2511
  309SOL     ow 1233   0.770   0.603   4.321  0.2447  0.0312  0.2650
  309SOL     hw 1234   0.854   0.641   4.343  0.2290 -0.5287  1.3549
  309SOL     hw 1235   0.765   0.608   4.226  1.5148  0.0580  0.1897
  309SOL     vw 1236   0.780   0.608   4.311  0.4102 -0.0391  0.3989
  310SOL     ow 1237   0.384   6.091   1.999 -0.1213  0.3602 -0.0200
  310SOL     hw 1238   0.324   6.121   1.930 -1.8511 -1.5597  0.5402
  310SOL     hw 1239   0.411   6.004   1.970  1.8758  0.8907  0.1250
  310SOL     vw 1240   0.380   6.083   1.986 -0.0861  0.1771  0.0731
  311SOL     ow 1241   7.425   2.758   3.937  0.7957  0.0850  0.5417
  311SOL     hw 1242   7.441   2.849   3.963 -0.0856  0.2562  0.5190
  311SOL     hw 1243   7.379   2.720   4.012  1.4336 -0.4347  0.6743
  311SOL     vw 1244   7.421   2.765   3.950  0.7634  0.0390  0.5562
  312SOL     ow 1245   3.353   3.016   4.472  0.2372 -0.4788  0.5026
  312SOL     hw 1246   3.447   3.024   4.457  0.1697 -0.8082 -0.1475
  312SOL     hw 1247   3.334   3.080   4.541  1.0248 -0.7795  1.0222
  312SOL     vw 1248   3.363   3.025   4.479  0.3324 -0.5617  0.4854
  313SOL     ow 1249   3.234   3.348   4.177 -0.2812  0.1941 -0.6811
  313SOL     hw 1250   3.253   3.257   4.201  0.9569  0.0830 -1.9563
  313SOL     hw 1251   3.203   3.388   4.258  0.3308 -1.0451  0.2004
  313SOL     vw 1252   3.232   3.341   4.191 -0.0372  0.0159 -0.7331
  314SOL     ow 1253   2.165   6.589   6.976  0.2431 -0.0886  0.0924
  314SOL     hw 1254   2.195   6.656   7.038  0.0918  0.4468 -0.4093
  314SOL     hw 1255   2.205   6.613   6.893 -0.4252 -0.1851 -0.2635
  314SOL     vw 1256   2.174   6.601   6.973  0.1351 -0.0308 -0.0207
  315SOL     ow 1257   0.127   3.159   5.364  0.0572  0.0993 -0.0505
  315SOL     hw 1258   0.196   3.137   5.427 -0.4340  0.0532  0.4720
  315SOL     hw 1259   0.053   3.103   5.388  0.1165 -0.5017 -1.1569
  315SOL     vw 1260   0.126   3.149   5.375  0.0002  0.0141 -0.1273
  316SOL     ow 1261   0.378   2.896   5.367 -0.1002 -0.3242  0.0155
  316SOL     hw 1262   0.470   2.899   5.393 -0.1851  1.4650  0.2177
  316SOL     hw 1263   0.333   2.858   5.443  0.2673  0.3994  0.6101
  316SOL     vw 1264   0.385   2.891   5.380 -0.0629  0.0074  0.1206
  317SOL     ow 1265   3.523   6.578   5.500 -0.3013  0.3071 -0.4965
  317SOL     hw 1266   3.512   6.598   5.593  1.3405 -0.9940  0.0436
  317SOL     hw 1267   3.575   6.650   5.466  1.9493 -0.7778  0.4329
  317SOL     vw 1268   3.529   6.590   5.508  0.2123 -0.0076 -0.3026
  318SOL     ow 1269   1.933   1.047   4.643  0.5095 -0.1979  0.1112
  318SOL     hw 1270   1.950   1.055   4.549  0.6385  1.7153  0.2511
  318SOL     hw 1271   1.900   1.133   4.668 -0.2922 -0.9393  1.6773
  318SOL     vw 1272   1.931   1.060   4.634  0.4207 -0.0433  0.3362
  319SOL     ow 1273   2.427   4.117   2.252  0.2986 -0.6422 -0.3789
  319SOL     hw 1274   2.343   4.118   2.298 -0.5445 -1.9697 -1.7981
  319SOL     hw 1275   2.487   4.163   2.311 -1.5856  1.0678  0.3269
  319SOL     vw 1276   2.424   4.123   2.266 -0.0612 -0.5915 -0.4729
  320SOL     ow 1277   2.060   4.340   5.641  0.6881  0.0879  0.1362
  320SOL     hw 1278   1.979   4.307   5.601  1.0167 -1.0334  0.3546
  320SOL     hw 1279   2.093   4.405   5.579 -0.1537  0.2460 -0.1607
  320SOL     vw 1280   2.054   4.344   5.627  0.6205 -0.0393  0.1259
  321SOL     ow 1281   2.941   0.344   6.301 -0.0289  0.0778  0.2274
  321SOL     hw 1282   2.937   0.423   6.354  0.3111 -0.3358  0.8816
  321SOL     hw 1283   2.860   0.298   6.321  0.2818 -0.2722  0.7099
  321SOL     vw 1284   2.930   0.348   6.311  0.0569 -0.0229  0.3774
  322SOL     ow 1285   2.833   7.117   5.003  0.4361 -0.4738  0.2971
  322SOL     hw 1286   2.797   7.182   5.063  1.6368 -0.5863  1.1699
  322SOL     hw 1287   2.758   7.091   4.949 -0.5735  0.0008  1.4083
  322SOL     vw 1288   2.818   7.122   5.004  0.4612 -0.4261  0.5589
  323SOL     ow 1289   3.159   0.964   7.138 -0.2893  0.4125  0.5279
  323SOL     hw 1290   3.071   0.997   7.156 -0.0347  1.8565 -0.6565
  323SOL     hw 1291   3.151   0.914   7.057 -0.1405 -0.0606  0.8005
  323SOL     vw 1292   3.146   0.962   7.130 -0.2360  0.5406  0.4077
  324SOL     ow 1293   4.410   6.156   5.424 -0.6434 -0.5807 -0.6730
  324SOL     hw 1294   4.320   6.172   5.396  0.1330  0.3410 -2.8822
  324SOL     hw 1295   4.463   6.206   5.362  1.3707 -0.5260  1.0056
  324SOL     vw 1296   4.405   6.165   5.412 -0.2754 -0.4518 -0.7434
  325SOL     ow 1297   6.764   0.159   2.237 -0.4418 -0.3631 -0.3699
  325SOL     hw 1298   6.859   0.162   2.253 -0.5713 -0.6910  0.5409
  325SOL     hw 1299   6.756   0.150   2.142  0.4815 -1.6503 -0.3626
  325SOL     vw 1300   6.776   0.158   2.227 -0.3371 -0.5762 -0.2488
  326SOL     ow 1301   6.036   2.479   6.363 -0.0460  0.2072 -0.3616
  326SOL     hw 1302   6.011   2.402   6.414  0.5077  1.3158  1.6864
  326SOL     hw 1303   6.083   2.535   6.424  2.1848  0.9084 -2.5192
  326SOL     vw 1304   6.039   2.477   6.377  0.3214  0.4460 -0.3760
  327SOL     ow 1305   6.886   2.734   6.736  0.7399  0.2109 -0.4108
  327SOL     hw 1306   6.820   2.714   6.803  0.5660 -0.0222 -0.6485
  327SOL     hw 1307   6.968   2.736   6.784  0.3704  2.3188  0.2171
  327SOL     vw 1308   6.888   2.732   6.751  0.6680  0.4582 -0.3593
  328SOL     ow 1309   0.784   4.715   5.114  0.0439 -0.3042 -0.1889
  328SOL     hw 1310   0.869   4.699   5.154  0.7286 -3.0493 -2.4216
  328SOL     hw 1311   0.805   4.743   5.024 -1.4435  0.6966 -0.2593
  328SOL     vw 1312   0.798   4.717   5.107 -0.0620 -0.5345 -0.4926
  329SOL     ow 1313   5.676   7.077   6.054  0.1640  0.5071 -0.1619
  329SOL     hw 1314   5.664   7.016   5.981  1.6656  1.4436 -1.2600
  329SOL     hw 1315   5.755   7.046   6.098  0.3122  1.0162 -0.0655
  329SOL     vw 1316   5.684   7.065   6.050  0.3817  0.6976 -0.2942
  330SOL     ow 1317   1.422   5.457   1.699  0.0457 -0.3407  0.7343
  330SOL     hw 1318   1.342   5.461   1.753  0.4608 -0.2497  1.3540
  330SOL     hw 1319   1.431   5.545   1.662 -0.8733 -0.7107 -0.4330
  330SOL     vw 1320   1.412   5.469   1.701 -0.0208 -0.3777  0.6621
  331SOL     ow 1321   3.983   1.093   7.410  0.1202 -0.1523 -0.1054
  331SOL     hw 1322   4.070   1.103   7.371  0.5922 -0.7465  0.7532
  331SOL     hw 1323   3.982   1.158   7.481 -0.9410  1.3227 -1.4077
  331SOL     vw 1324   3.995   1.103   7.414  0.0424 -0.0361 -0.1643
  332SOL     ow 1325   2.458   0.278   7.077  0.1102 -0.7009 -0.2407
  332SOL     hw 1326   2.366   0.303   7.064  0.3993  0.1552 -0.6965
  332SOL     hw 1327   2.482   0.234   6.995  0.0493 -1.1119 -0.0392
  332SOL     vw 1328   2.449   0.276   7.064  0.1403 -0.6422 -0.2739
  333SOL     ow 1329   0.705   1.425   5.205  0.0932 -0.3089 -0.3749
  333SOL     hw 1330   0.714   1.340   5.163  1.0173 -0.1352 -0.5593
  333SOL     hw 1331   0.784   1.473   5.180 -0.0688  0.3458  0.3060
  333SOL     vw 1332   0.717   1.420   5.196  0.1937 -0.1996 -0.3095
  334SOL     ow 1333   0.449   6.276   1.677  0.2680  0.2404 -0.2456
  334SOL     hw 1334   0.430   6.264   1.584  0.7386 -1.4583 -0.1739
  334SOL     hw 1335   0.488   6.192   1.703 -1.6768 -0.0722  1.9503
  334SOL     vw 1336   0.452   6.263   1.668  0.0735 -0.0250  0.0536
  335SOL     ow 1337   4.492   4.759   5.193  0.1188  0.0712 -0.0280
  335SOL     hw 1338   4.585   4.781   5.194  1.3627 -4.1526  0.5730
  335SOL     hw 1339   4.463   4.771   5.283  0.5254  0.0092  0.1160
  335SOL     vw 1340   4.500   4.763   5.205  0.3366 -0.4940  0.0703
  336SOL     ow 1341   2.076   6.407   4.367 -0.8369  0.3548  0.0245
  336SOL     hw 1342   2.055   6.316   4.387 -0.5981 -0.0983 -1.5919
  336SOL     hw 1343   2.171   6.409   4.359 -0.9075  0.4999 -0.9255
  336SOL     vw 1344   2.085   6.396   4.368 -0.8147  0.3145 -0.3142
  337SOL     ow 1345   0.498   3.702   1.105  0.0700 -0.3343  0.0328
  337SOL     hw 1346   0.455   3.714   1.190 -1.8176  1.3498 -1.0654
  337SOL     hw 1347   0.534   3.614   1.108 -0.6977 -0.6312  2.2573
  337SOL     vw 1348   0.497   3.692   1.117 -0.2803 -0.1512  0.1814
  338SOL     ow 1349   5.043   1.673   4.067  0.6680 -0.7051 -0.1905
  338SOL     hw 1350   5.042   1.692   3.973 -0.5432 -1.3750 -0.3366
  338SOL     hw 1351   5.083   1.586   4.073 -2.1602 -2.1548 -0.4639
  338SOL     vw 1352   5.048   1.664   4.055  0.1349 -0.9848 -0.2460
  339SOL     ow 1353   0.913   6.738   4.883  0.4355  0.0218 -0.2346
  339SOL     hw 1354   0.952   6.704   4.803 -1.1098  0.4329 -1.2059
  339SOL     hw 1355   0.930   6.832   4.880  2.6119 -0.2522  1.2524
  339SOL     vw 1356   0.920   6.746   4.872  0.5188  0.0398 -0.1667
  340SOL     ow 1357   1.508   6.459   3.704 -0.0109  0.4862 -0.0916
  340SOL     hw 1358   1.591   6.439   3.747 -0.1917 -0.7601 -0.2812
  340SOL     hw 1359   1.506   6.554   3.698 -0.6925  0.9254  4.0926
  340SOL     vw 1360   1.519   6.469   3.709 -0.1246  0.3798  0.4355
  341SOL     ow 1361   2.723   6.600   5.336  0.2527 -0.2216  0.1396
  341SOL     hw 1362   2.721   6.512   5.298 -2.1059  0.7401 -2.3039
  341SOL     hw 1363   2.637   6.611   5.377  1.1254  0.4050  1.9178
  341SOL     vw 1364   2.711   6.590   5.336  0.0565 -0.0119  0.0517
  342SOL     ow 1365   6.406   3.104   4.666  0.0308  0.3121 -0.4232
  342SOL     hw 1366   6.385   3.074   4.577  1.3787  1.4487 -1.1628
  342SOL     hw 1367   6.382   3.030   4.722 -2.8971  0.3286 -1.4360
  342SOL     vw 1368   6.400   3.090   4.662 -0.1774  0.4641 -0.6547
  343SOL     ow 1369   2.069   5.687   7.479  0.0096 -0.1360  0.2437
  343SOL     hw 1370   2.120   5.618   7.437  1.1710  1.0578 -0.3660
  343SOL     hw 1371   2.003   5.711   7.414 -0.6457 -0.9015  0.6018
  343SOL     vw 1372   2.067   5.681   7.465  0.0763 -0.0792  0.2100
  344SOL     ow 1373   5.179   2.328   2.183  0.3004 -0.2709  0.2763
  344SOL     hw 1374   5.211   2.280   2.106  1.4319 -1.1172  1.2241
  344SOL     hw 1375   5.257   2.374   2.216 -0.1937  0.1610  0.8633
  344SOL     vw 1376   5.194   2.328   2.177  0.3843 -0.3257  0.4787
  345SOL     ow 1377   1.604   6.444   0.339 -0.2529 -0.0351 -0.5027
  345SOL     hw 1378   1.686   6.409   0.373 -0.3847  0.8131  0.7296
  345SOL     hw 1379   1.612   6.538   0.348 -0.8511  0.1439 -1.5984
  345SOL     vw 1380   1.616   6.451   0.344 -0.3492  0.1004 -0.4847
  346SOL     ow 1381   3.373   1.533   1.491  0.4318  0.2004  0.1204
  346SOL     hw 1382   3.449   1.529   1.549  1.1420 -2.0688 -0.8622
  346SOL     hw 1383   3.405   1.578   1.413  1.2464 -1.9323 -0.8466
  346SOL     vw 1384   3.387   1.539   1.489  0.6329 -0.3804 -0.1368
  347SOL     ow 1385   2.452   3.932   6.820  0.2990  0.1120  0.2642
  347SOL     hw 1386   2.438   4.010   6.873 -1.7296 -0.6391  0.8958
  347SOL     hw 1387   2.427   3.959   6.731 -2.1603 -0.2500  0.7867
  347SOL     vw 1388   2.447   3.946   6.815 -0.2933 -0.0349  0.4163
  348SOL     ow 1389   3.176   7.107   3.950  0.0137  0.0865 -0.2721
  348SOL     hw 1390   3.220   7.188   3.925 -0.3435 -0.1065 -1.6443
  348SOL     hw 1391   3.239   7.061   4.005  0.9478  0.4892 -0.9781
  348SOL     vw 1392   3.190   7.111   3.954  0.0898  0.1142 -0.5463
  349SOL     ow 1393   1.734   6.401   1.922 -0.5172  1.2609 -0.5489
  349SOL     hw 1394   1.668   6.380   1.856  0.2885  1.3594 -1.4113
  349SOL     hw 1395   1.804   6.444   1.873  1.5753 -1.4989 -0.2568
  349SOL     vw 1396   1.735   6.404   1.907 -0.1348  0.9098 -0.6242
  350SOL     ow 1397   6.882   0.685   1.903  0.2393  0.2795  0.0749
  350SOL     hw 1398   6.804   0.738   1.889  0.0788 -0.0658 -0.3545
  350SOL     hw 1399   6.878   0.660   1.995 -0.3400 -0.0268 -0.0344
  350SOL     vw 1400   6.871   0.689   1.913  0.1419  0.1936  0.0038
  351SOL     ow 1401   2.231   0.559   0.561  0.1935  0.2473 -0.9006
  351SOL     hw 1402   2.171   0.485   0.565 -1.3909  1.5300  1.4024
  351SOL     hw 1403   2.203   0.608   0.484 -1.1863  0.3658 -0.3541
  351SOL     vw 1404   2.219   0.556   0.552 -0.1976  0.4321 -0.5247
  352SOL     ow 1405   6.328   5.939   7.070 -0.2199 -0.1087 -0.1598
  352SOL     hw 1406   6.242   5.974   7.092 -0.1662  0.0599 -0.2249
  352SOL     hw 1407   6.383   5.962   7.145  0.2180  1.3454 -0.8886
  352SOL     vw 1408   6.324   5.946   7.083 -0.1552  0.1054 -0.2644
  353SOL     ow 1409   2.150   4.768   6.282 -0.1071 -0.5239  0.7239
  353SOL     hw 1410   2.245   4.782   6.283  0.0234 -1.3396  0.8583
  353SOL     hw 1411   2.115   4.844   6.236  0.5939 -0.1152  0.8450
  353SOL     vw 1412   2.158   4.780   6.276  0.0027 -0.5774  0.7577
  354SOL     ow 1413   3.818   3.605   2.489 -0.0375 -0.0370  0.3338
  354SOL     hw 1414   3.761   3.625   2.414  0.5742  0.7077  0.0523
  354SOL     hw 1415   3.763   3.624   2.566 -0.0677  1.0362  0.0667
  354SOL     vw 1416   3.803   3.610   2.489  0.0393  0.2029  0.2615
  355SOL     ow 1417   3.753   4.337   3.322  0.1023  0.6745 -0.1575
  355SOL     hw 1418   3.676   4.353   3.377 -1.2611 -2.4977 -0.9169
  355SOL     hw 1419   3.722   4.345   3.232  0.1415 -2.0326 -0.5171
  355SOL     vw 1420   3.739   4.340   3.318 -0.0725 -0.1011 -0.3052
  356SOL     ow 1421   6.689   4.228   2.398  0.0927 -0.1531  0.3853
  356SOL     hw 1422   6.716   4.318   2.382  0.0665  0.0914  1.6563
  356SOL     hw 1423   6.770   4.182   2.419  0.0668 -0.3698  0.0206
  356SOL     vw 1424   6.703   4.234   2.398  0.0858 -0.1495  0.5047
  357SOL     ow 1425   0.956   4.256   5.873  0.2944  0.1791 -0.1041
  357SOL     hw 1426   0.965   4.165   5.902  2.0819  0.5704  0.7118
  357SOL     hw 1427   1.037   4.274   5.825 -1.1351  0.6002 -2.5138
  357SOL     vw 1428   0.968   4.246   5.870  0.3417  0.2863 -0.3145
  358SOL     ow 1429   0.577   6.788   6.420  0.0003 -0.6400 -0.2109
  358SOL     hw 1430   0.637   6.727   6.463  0.8876  1.3384  1.5473
  358SOL     hw 1431   0.617   6.805   6.335  2.2828  0.9204  1.0609
  358SOL     vw 1432   0.591   6.782   6.414  0.4186 -0.1731  0.1888
  359SOL     ow 1433   4.065   4.291   7.261  0.8064  1.0004  0.1784
  359SOL     hw 1434   4.022   4.265   7.179  1.3205  0.0755  0.1819
  359SOL     hw 1435   4.024   4.373   7.285 -1.9635 -0.4678  0.8806
  359SOL     vw 1436   4.054   4.298   7.253  0.5088  0.6847  0.2713
  360SOL     ow 1437   0.803   1.294   3.003 -0.0207  0.0315 -0.1715
  360SOL     hw 1438   0.728   1.253   2.961 -1.3859  0.7822  1.3915
  360SOL     hw 1439   0.854   1.221   3.039 -0.1344 -0.4712 -1.0100
  360SOL     vw 1440   0.800   1.279   3.002 -0.2158  0.0643 -0.0759
  361SOL     ow 1441   0.639   4.683   5.341 -0.1204  0.1024  0.1885
  361SOL     hw 1442   0.689   4.723   5.270 -2.6369  2.2195 -0.5380
  361SOL     hw 1443   0.685   4.712   5.421 -0.5533  2.7366 -0.4172
  361SOL     vw 1444   0.652   4.692   5.342 -0.5096  0.7291  0.0126
  362SOL     ow 1445   5.634   4.719   2.385  0.2185  0.6120  0.2420
  362SOL     hw 1446   5.585   4.799   2.401 -0.7655  0.1985 -0.5719
  362SOL     hw 1447   5.594   4.654   2.443 -0.8370  0.0494 -1.0682
  362SOL     vw 1448   5.622   4.721   2.395 -0.0505  0.4830 -0.0383
  363SOL     ow 1449   3.602   3.653   4.432 -0.5304  0.8902 -0.2505
  363SOL     hw 1450   3.605   3.661   4.337  0.9814 -3.8562 -0.8592
  363SOL     hw 1451   3.529   3.593   4.449  1.6515 -1.6330  1.0200
  363SOL     vw 1452   3.593   3.646   4.422 -0.0432 -0.0688 -0.1633
  364SOL     ow 1453   3.600   6.544   0.326 -0.1502 -0.3671  0.3411
  364SOL     hw 1454   3.590   6.571   0.418 -0.5766 -0.5202  0.3450
  364SOL     hw 1455   3.686   6.503   0.323 -0.0625 -0.2135  0.6378
  364SOL     vw 1456   3.610   6.542   0.338 -0.1949 -0.3672  0.3807
  365SOL     ow 1457   5.046   5.278   0.673  0.3732  0.2697  0.1547
  365SOL     hw 1458   5.054   5.284   0.578 -0.6312  0.3916  0.0678
  365SOL     hw 1459   5.015   5.364   0.701  2.6846  0.9549  0.8566
  365SOL     vw 1460   5.043   5.290   0.664  0.5460  0.3760  0.2358
  366SOL     ow 1461   1.963   0.018   1.261  0.2863 -0.2890 -0.3491
  366SOL     hw 1462   1.979  -0.057   1.203  0.4368 -0.4341 -0.1200
  366SOL     hw 1463   1.875   0.048   1.238  0.6043  0.0727 -1.1266
  366SOL     vw 1464   1.953   0.012   1.250  0.3482 -0.2604 -0.4214
  367SOL     ow 1465   2.033   7.108   3.592 -0.0480 -0.4717  0.2950
  367SOL     hw 1466   2.088   7.035   3.564 -0.6700 -0.5931 -0.6539
  367SOL     hw 1467   1.946   7.070   3.606  0.4087 -0.6164  3.4628
  367SOL     vw 1468   2.029   7.094   3.590 -0.0699 -0.5066  0.5877
  368SOL     ow 1469   0.506   6.031   1.548 -0.2902 -0.0136 -0.5192
  368SOL     hw 1470   0.460   5.960   1.503  0.3403 -0.8834  0.1659
  368SOL     hw 1471   0.563   5.987   1.611  0.6049  1.0840 -0.5244
  368SOL     vw 1472   0.507   6.016   1.551 -0.0889  0.0165 -0.4295
  369SOL     ow 1473   0.187   3.982   1.655 -0.6770 -0.1120  0.0760
  369SOL     hw 1474   0.141   3.900   1.676 -0.9157  0.3463  1.4819
  369SOL     hw 1475   0.237   3.962   1.576  1.1710 -2.3622  1.6760
  369SOL     vw 1476   0.187   3.968   1.648 -0.4647 -0.3484  0.4725
  370SOL     ow 1477   2.401   3.289   2.931 -0.3380 -0.2763  0.4636
  370SOL     hw 1478   2.316   3.332   2.939 -0.9130 -1.1444 -0.6146
  370SOL     hw 1479   2.429   3.308   2.841 -0.0974 -1.2137  0.3262
  370SOL     vw 1480   2.394   3.297   2.920 -0.3822 -0.5145  0.3033
  371SOL     ow 1481   4.126   5.250   5.542  0.1057  0.2073 -0.2901
  371SOL     hw 1482   4.101   5.242   5.450  1.2886  0.1349 -0.6159
  371SOL     hw 1483   4.218   5.226   5.544  0.4124  1.3711  0.7189
  371SOL     vw 1484   4.135   5.246   5.530  0.3023  0.3514 -0.2000
  372SOL     ow 1485   6.395   2.106   0.348 -0.2739  0.2928  0.4592
  372SOL     hw 1486   6.434   2.182   0.304 -1.0792 -0.2246 -1.2183
  372SOL     hw 1487   6.435   2.107   0.435  0.9179  1.7251 -0.0421
  372SOL     vw 1488   6.406   2.116   0.354 -0.2229  0.4134  0.1717
  373SOL     ow 1489   4.498   0.018   4.140 -0.1213  0.3180  0.3664
  373SOL     hw 1490   4.477   0.052   4.227 -0.8392  0.7813  0.0205
  373SOL     hw 1491   4.583  -0.023   4.151 -0.3823  0.0082  1.3888
  373SOL     vw 1492   4.506   0.017   4.153 -0.2503  0.3383  0.4556
  374SOL     ow 1493   6.004   2.837   1.381  0.1500  0.1754 -0.7023
  374SOL     hw 1494   6.015   2.747   1.411 -1.9740  0.5754  1.5722
  374SOL     hw 1495   5.909   2.851   1.382  0.4697  2.8388  0.3117
  374SOL     vw 1496   5.993   2.827   1.385 -0.0877  0.5795 -0.2685
  375SOL     ow 1497   6.407   7.152   5.833  0.0806 -0.6033  0.4544
  375SOL     hw 1498   6.446   7.171   5.747 -2.3767  0.3732 -0.5413
  375SOL     hw 1499   6.339   7.087   5.815 -0.4606 -0.4067  1.6716
  375SOL     vw 1500   6.403   7.146   5.819 -0.3147 -0.4487  0.4838
  376SOL     ow 1501   2.015   3.032   3.360 -0.0274 -0.2165 -0.4812
  376SOL     hw 1502   2.093   2.979   3.342  0.2274 -0.4863  1.1932
  376SOL     hw 1503   1.994   3.012   3.451 -1.2196  0.9399 -0.4782
  376SOL     vw 1504   2.023   3.022   3.370 -0.1510 -0.0995 -0.2599
  377SOL     ow 1505   0.612   1.656   6.607  0.3671 -0.1244  0.1523
  377SOL     hw 1506   0.688   1.648   6.549 -0.8541 -0.6368 -1.4271
  377SOL     hw 1507   0.646   1.704   6.683  1.8851  1.1523 -1.2430
  377SOL     vw 1508   0.627   1.661   6.609  0.4063 -0.0235 -0.2401
  378SOL     ow 1509   0.529   4.116   0.822 -0.2410 -0.0724  0.5797
  378SOL     hw 1510   0.573   4.047   0.870 -0.4849  0.1663  1.1629
  378SOL     hw 1511   0.436   4.096   0.831 -0.3404  0.6295  1.2331
  378SOL     vw 1512   0.522   4.105   0.830 -0.2863  0.0520  0.7429
  379SOL     ow 1513   5.459   3.878   7.374  0.0906 -0.0135 -0.2437
  379SOL     hw 1514   5.397   3.874   7.301  0.8543 -3.4224 -0.8423
  379SOL     hw 1515   5.537   3.833   7.342  0.8603 -0.6322  2.3200
  379SOL     vw 1516   5.461   3.872   7.360  0.2930 -0.5449  0.0157
  380SOL     ow 1517   4.861   6.442   4.242 -0.3652  0.0115 -0.1337
  380SOL     hw 1518   4.947   6.406   4.222  0.3709  0.0728  2.5429
  380SOL     hw 1519   4.828   6.387   4.313 -0.7006  2.3947  1.6861
  380SOL     vw 1520   4.868   6.430   4.249 -0.3123  0.3340  0.4597
  381SOL     ow 1521   6.347   5.111   0.637  0.1967  0.2098  0.0334
  381SOL     hw 1522   6.256   5.105   0.608  0.0033  0.3078  0.6191
  381SOL     hw 1523   6.342   5.117   0.732  0.8418 -0.3073  0.1048
  381SOL     vw 1524   6.334   5.111   0.646  0.2563  0.1545  0.1201
  382SOL     ow 1525   5.547   0.244   5.129 -0.1319  0.0991  0.1181
  382SOL     hw 1526   5.546   0.308   5.058  0.3308  0.2643  0.2571
  382SOL     hw 1527   5.611   0.278   5.191 -0.8815  0.2067  0.8492
  382SOL     vw 1528   5.555   0.257   5.128 -0.1698  0.1351  0.2332
  383SOL     ow 1529   2.157   7.179   4.936 -0.2610 -0.3188  0.5781
  383SOL     hw 1530   2.250   7.182   4.960 -0.0582 -0.5139 -0.1532
  383SOL     hw 1531   2.136   7.086   4.931 -0.2155 -0.2995 -0.2538
  383SOL     vw 1532   2.167   7.167   4.938 -0.2282 -0.3419  0.3722
  384SOL     ow 1533   6.525   6.510   1.034 -0.2662  0.6142  0.7325
  384SOL     hw 1534   6.537   6.604   1.049 -0.9499  0.6106  1.3924
  384SOL     hw 1535   6.524   6.501   0.939  0.8944  1.1192  0.6574
  384SOL     vw 1536   6.527   6.522   1.024 -0.2036  0.6807  0.8097
  385SOL     ow 1537   7.114   4.536   3.166 -0.4965 -0.0167 -0.3177
  385SOL     hw 1538   7.100   4.620   3.121 -0.1744 -0.0142 -0.4196
  385SOL     hw 1539   7.055   4.539   3.241 -0.2011  0.4748 -0.0964
  385SOL     vw 1540   7.105   4.548   3.170 -0.4148  0.0484 -0.3018
  386SOL     ow 1541   4.124   0.473   0.254  0.4881  0.2337  0.1012
  386SOL     hw 1542   4.132   0.404   0.320 -0.7398  0.9605  1.0411
  386SOL     hw 1543   4.193   0.536   0.276 -0.9614  1.3056  1.7603
  386SOL     vw 1544   4.134   0.472   0.265  0.1349  0.4710  0.4441
  387SOL     ow 1545   0.412   0.115   4.013 -0.2943  0.3144  0.0233
  387SOL     hw 1546   0.407   0.037   3.958  2.3968  0.9000 -1.2054
  387SOL     hw 1547   0.371   0.183   3.961 -1.8344 -0.0432  0.7201
  387SOL     vw 1548   0.406   0.113   3.999 -0.1424  0.3445 -0.0468
  388SOL     ow 1549   4.804   6.324   2.635 -0.2944  0.2757  0.4591
  388SOL     hw 1550   4.863   6.392   2.603  1.1456 -0.3447  1.6976
  388SOL     hw 1551   4.808   6.331   2.730 -0.2468 -1.4083  0.6122
  388SOL     vw 1552   4.812   6.334   2.643 -0.0980 -0.0284  0.6427
  389SOL     ow 1553   3.422   4.171   5.701  0.0935  0.5408 -0.2253
  389SOL     hw 1554   3.474   4.251   5.701 -1.6935  1.7745 -0.2876
  389SOL     hw 1555   3.398   4.158   5.793  1.0564 -0.4276 -0.0895
  389SOL     vw 1556   3.426   4.180   5.713 -0.0153  0.5760 -0.2155
  390SOL     ow 1557   6.400   2.703   5.562  0.3770 -0.0360 -0.2668
  390SOL     hw 1558   6.374   2.624   5.514  0.3479 -0.2702  0.1268
  390SOL     hw 1559   6.404   2.771   5.495  0.6023 -0.4163 -0.6500
  390SOL     vw 1560   6.397   2.701   5.547  0.4027 -0.1171 -0.2654
  391SOL     ow 1561   0.937   2.365   0.175 -0.0615  0.2436 -0.7900
  391SOL     hw 1562   0.934   2.455   0.143  0.8540 -0.2518 -2.3792
  391SOL     hw 1563   1.029   2.346   0.189 -0.3293 -0.0720  0.7487
  391SOL     vw 1564   0.948   2.374   0.172  0.0240  0.1367 -0.7967
  392SOL     ow 1565   4.462   0.503   1.927  0.0573 -0.1763  0.1478
  392SOL     hw 1566   4.516   0.450   1.987  0.5717  0.0370 -0.1230
  392SOL     hw 1567   4.515   0.580   1.908 -1.2696  1.2144  1.7270
  392SOL     vw 1568   4.476   0.506   1.933 -0.0496  0.0353  0.3204
  393SOL     ow 1569   6.894   5.288   1.550 -0.2161 -0.4570 -0.4739
  393SOL     hw 1570   6.850   5.370   1.574 -2.2262 -1.4678 -0.5005
  393SOL     hw 1571   6.887   5.233   1.628  2.0277 -0.2963 -0.0998
  393SOL     vw 1572   6.887   5.292   1.563 -0.1855 -0.5691 -0.4280
  394SOL     ow 1573   5.077   3.919   6.256 -0.5199 -0.4915 -0.5313
  394SOL     hw 1574   5.008   3.941   6.318  0.1198  0.4444 -0.1381
  394SOL     hw 1575   5.076   3.824   6.251 -0.7557 -0.5661  0.7140
  394SOL     vw 1576   5.068   3.910   6.263 -0.4663 -0.3780 -0.3152
  395SOL     ow 1577   1.539   1.362   2.341  0.2736  0.2853 -0.0835
  395SOL     hw 1578   1.545   1.384   2.249 -0.7937  0.6145 -0.0858
  395SOL     hw 1579   1.445   1.355   2.359  0.4743 -1.9129  0.4747
  395SOL     vw 1580   1.528   1.364   2.331  0.1592  0.0387 -0.0101
  396SOL     ow 1581   1.434   7.429   4.302 -0.6165  0.3907 -0.0590
  396SOL     hw 1582   1.483   7.421   4.220 -1.2336 -0.7152 -0.3350
  396SOL     hw 1583   1.344   7.406   4.278 -0.9644  0.8724  0.7638
  396SOL     vw 1584   1.428   7.425   4.288 -0.7439  0.3083  0.0131
  397SOL     ow 1585   1.074   2.564   1.078  0.0867 -0.6019  0.8030
  397SOL     hw 1586   0.985   2.599   1.081 -0.9297 -2.8530 -0.3454
  397SOL     hw 1587   1.064   2.471   1.096  1.9741 -1.2406 -1.0452
  397SOL     vw 1588   1.061   2.557   1.081  0.2016 -0.9830  0.4076
  398SOL     ow 1589   0.581   1.435   0.100 -0.1235  0.6523 -0.1859
  398SOL     hw 1590   0.579   1.515   0.048 -0.5622  2.0346  1.8425
  398SOL     hw 1591   0.629   1.459   0.179  0.6361 -1.4080  0.0459
  398SOL     vw 1592   0.587   1.449   0.103 -0.0811  0.5628  0.1123
  399SOL     ow 1593   4.642   6.001   7.107  0.0413  0.2946 -0.1771
  399SOL     hw 1594   4.570   5.994   7.044 -0.1088  0.8421 -0.0673
  399SOL     hw 1595   4.636   6.090   7.142 -0.6986 -0.4000  1.5885
  399SOL     vw 1596   4.632   6.012   7.103 -0.0763  0.2754  0.0706
  400SOL     ow 1597   4.952   5.791   5.680  0.6440  0.7857 -0.1683
  400SOL     hw 1598   4.884   5.731   5.652  0.8641  0.1323  0.6627
  400SOL     hw 1599   5.008   5.739   5.737  1.9325  1.2744 -0.9546
  400SOL     vw 1600   4.950   5.777   5.684  0.8430  0.7639 -0.1626
  401SOL     ow 1601   4.268   6.929   0.301 -0.2960 -0.7345 -0.1404
  401SOL     hw 1602   4.336   6.883   0.351  1.4209 -0.0286 -1.6821
  401SOL     hw 1603   4.290   6.912   0.209 -1.0705  1.0809 -0.7217
  401SOL     vw 1604   4.280   6.921   0.295 -0.1719 -0.4017 -0.4205
  402SOL     ow 1605   2.232   1.114   1.357 -0.3128 -0.5186 -0.4255
  402SOL     hw 1606   2.308   1.094   1.413 -2.4174 -0.6446  2.5970
  402SOL     hw 1607   2.238   1.209   1.342  0.6562 -0.5969 -0.6591
  402SOL     vw 1608   2.243   1.124   1.362 -0.4627 -0.5455 -0.0576
  403SOL     ow 1609   5.206   0.366   0.868 -0.6862 -0.4087 -0.7967
  403SOL     hw 1610   5.287   0.329   0.832 -0.0285  0.6436 -0.4337
  403SOL     hw 1611   5.214   0.354   0.963 -1.0844 -0.5450 -0.7773
  403SOL     vw 1612   5.218   0.360   0.876 -0.6521 -0.2878 -0.7462
  404SOL     ow 1613   0.066   6.934   1.836 -0.3250 -0.3071 -0.1951
  404SOL     hw 1614  -0.014   6.954   1.884 -0.5845 -0.8625 -0.3936
  404SOL     hw 1615   0.134   6.927   1.904 -0.5334 -0.2996  0.0144
  404SOL     vw 1616   0.065   6.936   1.851 -0.3868 -0.3796 -0.1937
  405SOL     ow 1617   1.598   2.946   4.864  0.1967  0.0733  0.0142
  405SOL     hw 1618   1.503   2.933   4.867  0.1868 -0.0903  3.6427
  405SOL     hw 1619   1.634   2.857   4.859  0.1507  0.0914 -0.6182
  405SOL     vw 1620   1.590   2.933   4.864  0.1894  0.0541  0.4094
  406SOL     ow 1621   7.187   4.407   6.262 -0.4540  0.2689  0.2878
  406SOL     hw 1622   7.278   4.436   6.270  0.0017 -0.9824 -0.0153
  406SOL     hw 1623   7.144   4.474   6.209  0.1071  1.2274  1.0108
  406SOL     vw 1624   7.193   4.419   6.256 -0.3197  0.2306  0.3431
  407SOL     ow 1625   0.354   1.946   6.417  0.2783 -0.1299 -0.4040
  407SOL     hw 1626   0.268   1.981   6.394  0.1940 -1.3300 -2.1446
  407SOL     hw 1627   0.362   1.960   6.511 -0.8505  2.0601 -0.5780
  407SOL     vw 1628   0.344   1.952   6.426  0.1183  0.0007 -0.6566
  408SOL     ow 1629   2.096   4.543   4.951  0.0399  0.2529  0.3956
  408SOL     hw 1630   2.167   4.561   5.012  0.9589 -0.8376 -0.3227
  408SOL     hw 1631   2.111   4.605   4.879  1.0249 -0.7759 -0.3303
  408SOL     vw 1632   2.107   4.554   4.949  0.2913 -0.0265  0.2048
  409SOL     ow 1633   4.125   7.338   5.548 -0.7904 -0.3154  0.0013
  409SOL     hw 1634   4.059   7.277   5.581 -1.0810  1.1328  2.2580
  409SOL     hw 1635   4.074   7.408   5.507 -0.6813  0.6590  1.4857
  409SOL     vw 1636   4.109   7.339   5.547 -0.8147  0.0041  0.4950
  410SOL     ow 1637   6.703   2.708   6.938 -0.2890  1.0332 -0.1363
  410SOL     hw 1638   6.707   2.613   6.944  1.0918  1.1466  1.0378
  410SOL     hw 1639   6.609   2.729   6.946 -0.4193 -0.1051  1.5800
  410SOL     vw 1640   6.691   2.699   6.940 -0.1240  0.8980  0.2451
  411SOL     ow 1641   4.016   4.693   4.311  0.3202  0.4587  0.1176
  411SOL     hw 1642   3.963   4.701   4.390  0.4868 -0.2143  0.3031
  411SOL     hw 1643   3.963   4.641   4.251  0.5214  0.2924  0.0832
  411SOL     vw 1644   4.002   4.687   4.314  0.3686  0.3479  0.1378
  412SOL     ow 1645   3.294   4.850   2.390 -0.2423  0.3998  0.1696
  412SOL     hw 1646   3.329   4.837   2.479 -1.3690 -0.8974  0.4570
  412SOL     hw 1647   3.369   4.836   2.333  0.4348  0.9551  0.8799
  412SOL     vw 1648   3.309   4.847   2.394 -0.3017  0.3018  0.3012
  413SOL     ow 1649   0.664   4.902   3.113  0.3976  0.3137 -0.6257
  413SOL     hw 1650   0.614   4.980   3.137  1.4229  0.1795  2.4099
  413SOL     hw 1651   0.713   4.928   3.035 -0.9511  1.9539 -0.9838
  413SOL     vw 1652   0.664   4.916   3.106  0.3549  0.5126 -0.2724
  414SOL     ow 1653   0.559   4.984   4.943  0.3368  0.1543  0.3062
  414SOL     hw 1654   0.470   4.947   4.946  0.9351 -1.5195 -0.8162
  414SOL     hw 1655   0.549   5.067   4.897 -0.6014 -0.1783 -0.1174
  414SOL     vw 1656   0.546   4.990   4.937  0.2919 -0.1104  0.1020
  415SOL     ow 1657   5.127   2.865   2.966 -0.4647  0.0944  0.7263
  415SOL     hw 1658   5.168   2.783   2.939  0.9000  0.7577  0.7092
  415SOL     hw 1659   5.084   2.845   3.049  0.5163 -0.4381  1.1095
  415SOL     vw 1660   5.126   2.852   2.973 -0.1550  0.1116  0.7746
  416SOL     ow 1661   0.077   6.143   6.993 -0.0670  0.2189  0.1095
  416SOL     hw 1662   0.171   6.162   6.986  0.4034 -1.4492  1.4429
  416SOL     hw 1663   0.038   6.193   6.921  1.6231  2.2903  0.5256
  416SOL     vw 1664   0.084   6.152   6.982  0.2180  0.2720  0.3402
  417SOL     ow 1665   4.092   5.924   0.425 -0.5184 -0.1908 -0.1190
  417SOL     hw 1666   4.057   5.935   0.336 -0.0555  0.3259 -0.2436
  417SOL     hw 1667   4.053   5.843   0.456 -2.0138  0.4602 -0.1769
  417SOL     vw 1668   4.082   5.915   0.417 -0.6549 -0.0367 -0.1431
  418SOL     ow 1669   6.783   1.828   6.143  0.8139 -0.4712  0.0187
  418SOL     hw 1670   6.773   1.823   6.238 -2.0769  1.8299 -0.0070
  418SOL     hw 1671   6.717   1.769   6.109  1.4141 -0.8098 -0.5818
  418SOL     vw 1672   6.773   1.820   6.151  0.5116 -0.2123 -0.0639
  419SOL     ow 1673   0.133   2.759   4.239  0.0813 -0.3270 -0.4213
  419SOL     hw 1674   0.163   2.671   4.219 -0.8439 -0.4002 -1.5467
  419SOL     hw 1675   0.037   2.752   4.241  0.0380  0.2141  1.6045
  419SOL     vw 1676   0.124   2.747   4.237 -0.0465 -0.2654 -0.3026
  420SOL     ow 1677   3.818   5.947   4.172 -0.2822  0.2426 -0.7727
  420SOL     hw 1678   3.764   6.020   4.142  0.5660  1.1163 -0.2179
  420SOL     hw 1679   3.757   5.889   4.218 -0.8283  0.9955 -0.5280
  420SOL     vw 1680   3.803   5.949   4.174 -0.2424  0.4573 -0.6673
  421SOL     ow 1681   4.441   2.042   4.272  0.2172  0.1215 -0.3818
  421SOL     hw 1682   4.354   2.050   4.235  0.0046 -0.0261  0.0739
  421SOL     hw 1683   4.429   2.058   4.366  0.5978 -0.3803 -0.2398
  421SOL     vw 1684   4.428   2.045   4.280  0.2394  0.0358 -0.3030
  422SOL     ow 1685   2.819   0.834   1.378 -0.5579 -0.0058  0.1841
  422SOL     hw 1686   2.896   0.788   1.412 -0.9848 -0.2082  0.9035
  422SOL     hw 1687   2.793   0.783   1.301  2.7200  2.6139 -2.9672
  422SOL     vw 1688   2.826   0.821   1.372 -0.1818  0.3131 -0.1367
  423SOL     ow 1689   0.830   4.934   2.840 -0.0150  0.0744  0.0855
  423SOL     hw 1690   0.776   4.862   2.805  0.7176 -1.1123  1.3044
  423SOL     hw 1691   0.777   5.012   2.827 -0.5916 -0.5775 -1.8418
  423SOL     vw 1692   0.816   4.934   2.834  0.0055 -0.1683 -0.0080
  424SOL     ow 1693   6.237   6.377   0.749 -0.3916 -0.4816 -0.3457
  424SOL     hw 1694   6.188   6.437   0.805  0.4125  1.4631 -1.6124
  424SOL     hw 1695   6.248   6.298   0.802 -2.5800 -0.0216  0.9237
  424SOL     vw 1696   6.232   6.375   0.764 -0.5741 -0.1643 -0.3454
  425SOL     ow 1697   1.355   2.445   6.817 -0.7119  0.1475  0.4154
  425SOL     hw 1698   1.416   2.375   6.793 -2.1724 -0.1377 -2.8565
  425SOL     hw 1699   1.412   2.515   6.850  1.1940 -0.8534 -0.5733
  425SOL     vw 1700   1.371   2.445   6.818 -0.6531 -0.0222 -0.1466
  426SOL     ow 1701   2.924   7.024   3.402 -0.3902 -0.0183  0.2217
  426SOL     hw 1702   3.015   7.049   3.414 -0.4722  0.1128  0.5733
  426SOL     hw 1703   2.907   7.037   3.309 -0.3406  0.9144  0.3363
  426SOL     vw 1704   2.933   7.029   3.392 -0.3945  0.1218  0.2832
  427SOL     ow 1705   7.287   0.402   5.938  0.3795  0.6682 -0.2323
  427SOL     hw 1706   7.262   0.404   5.845 -1.8769  0.1845  0.3025
  427SOL     hw 1707   7.288   0.309   5.960  0.9071  0.7819  0.2299
  427SOL     vw 1708   7.284   0.390   5.928  0.1514  0.6194 -0.1006
  428SOL     ow 1709   0.944   1.985   2.807 -0.0390 -0.4296  0.6771
  428SOL     hw 1710   0.907   1.989   2.895 -0.1026 -1.9848  0.7533
  428SOL     hw 1711   0.941   1.892   2.784  1.9474 -0.3546 -0.1032
  428SOL     vw 1712   0.939   1.973   2.816  0.2147 -0.6249  0.5842
  429SOL     ow 1713   3.745   6.181   2.251 -0.4939  0.0916 -0.0029
  429SOL     hw 1714   3.808   6.202   2.321  1.5666  1.2192 -2.0599
  429SOL     hw 1715   3.739   6.261   2.199 -3.3119 -0.1611 -0.2124
  429SOL     vw 1716   3.753   6.194   2.254 -0.5939  0.2069 -0.3020
  430SOL     ow 1717   2.312   3.769   0.881  0.7754 -0.1119 -0.3088
  430SOL     hw 1718   2.287   3.836   0.817  1.9688 -0.3276 -1.0239
  430SOL     hw 1719   2.398   3.798   0.913  0.2333 -0.0489  1.1583
  430SOL     vw 1720   2.320   3.782   0.877  0.8614 -0.1321 -0.2096
  431SOL     ow 1721   5.814   2.147   5.059 -0.4938 -0.2212  0.4140
  431SOL     hw 1722   5.899   2.176   5.024 -0.6352 -0.1499  0.1212
  431SOL     hw 1723   5.819   2.163   5.153 -0.0075 -0.6537  0.4673
  431SOL     vw 1724   5.826   2.153   5.066 -0.4487 -0.2689  0.3824
  432SOL     ow 1725   2.723   2.114   6.537  0.1071  0.3977  0.8057
  432SOL     hw 1726   2.653   2.064   6.579  1.4490 -0.6463  1.9213
  432SOL     hw 1727   2.757   2.056   6.469  0.9783  0.1760  1.4060
  432SOL     vw 1728   2.718   2.100   6.534  0.3990  0.2309  1.0324
  433SOL     ow 1729   1.388   3.961   4.017 -0.2290 -0.2017  0.4978
  433SOL     hw 1730   1.308   4.014   4.013 -0.1556 -0.1707 -2.0008
  433SOL     hw 1731   1.459   4.025   4.018 -0.1881 -0.2468  0.4684
  433SOL     vw 1732   1.386   3.977   4.017 -0.2139 -0.2035  0.1643
  434SOL     ow 1733   6.918   2.987   0.896 -0.0151  0.7735  0.4048
  434SOL     hw 1734   6.829   2.953   0.893 -0.1104  1.0083  0.5259
  434SOL     hw 1735   6.932   3.011   0.987  0.0765  0.9847  0.3363
  434SOL     vw 1736   6.908   2.986   0.908 -0.0157  0.8323  0.4118
  435SOL     ow 1737   1.130   4.646   1.651 -0.2795  0.1920 -0.4318
  435SOL     hw 1738   1.066   4.591   1.696  0.5966 -0.6658 -0.2117
  435SOL     hw 1739   1.097   4.653   1.562  0.2598 -1.8159 -0.8296
  435SOL     vw 1740   1.117   4.640   1.645 -0.0928 -0.1860 -0.4553
  436SOL     ow 1741   3.030   6.271   6.116  0.2478  0.1915 -0.0362
  436SOL     hw 1742   3.097   6.256   6.183  1.5022  1.0457 -1.0402
  436SOL     hw 1743   3.062   6.348   6.069 -0.3341 -0.6898 -1.9435
  436SOL     vw 1744   3.043   6.280   6.119  0.3365  0.1881 -0.4201
  437SOL     ow 1745   3.531   6.293   5.341 -0.1494  0.4877 -0.1435
  437SOL     hw 1746   3.616   6.311   5.302  1.6891 -1.4968  2.5392
  437SOL     hw 1747   3.513   6.202   5.316 -2.4694  1.3743 -2.1207
  437SOL     vw 1748   3.540   6.283   5.332 -0.2128  0.3426 -0.0503
  438SOL     ow 1749   3.806   6.511   6.853  0.0115  0.8198  0.4927
  438SOL     hw 1750   3.742   6.452   6.892 -0.7064  2.0998  1.3346
  438SOL     hw 1751   3.871   6.525   6.922  0.0050  1.2513  0.4125
  438SOL     vw 1752   3.807   6.505   6.867 -0.0842  1.0457  0.5934
  439SOL     ow 1753   5.386   2.079   3.646  0.0898 -0.0884  0.1301
  439SOL     hw 1754   5.320   2.035   3.701  2.2230 -2.2138  1.1850
  439SOL     hw 1755   5.408   2.014   3.579  0.3012  1.0381 -0.9218
  439SOL     vw 1756   5.380   2.065   3.645  0.3991 -0.2202  0.1304
  440SOL     ow 1757   1.093   6.056   3.970 -0.2175 -0.3222  0.3028
  440SOL     hw 1758   1.136   5.996   4.031 -0.5895 -3.4129 -2.1974
  440SOL     hw 1759   1.157   6.066   3.898 -1.0969  0.4286 -0.3999
  440SOL     vw 1760   1.107   6.049   3.968 -0.3827 -0.6311 -0.1197
  441SOL     ow 1761   0.524   3.639   6.020 -0.0812 -0.6278 -0.2165
  441SOL     hw 1762   0.524   3.732   5.996 -0.4080 -0.3339  0.8525
  441SOL     hw 1763   0.448   3.629   6.077 -0.5744 -1.7596 -1.0355
  441SOL     vw 1764   0.514   3.650   6.025 -0.1894 -0.7383 -0.1836
  442SOL     ow 1765   0.991   1.888   3.381 -0.0378 -0.4437 -0.3371
  442SOL     hw 1766   1.027   1.971   3.349 -0.1088  0.2382  1.2435
  442SOL     hw 1767   0.896   1.900   3.374 -0.1300  0.4551  1.7515
  442SOL     vw 1768   0.983   1.901   3.376 -0.0594 -0.2351  0.1469
  443SOL     ow 1769   4.644   3.270   2.671  0.5509 -0.0791  0.3821
  443SOL     hw 1770   4.706   3.221   2.726 -0.7678 -0.4638  1.5971
  443SOL     hw 1771   4.607   3.336   2.731  1.7250  1.9600 -1.0165
  443SOL     vw 1772   4.648   3.272   2.686  0.5322  0.1391  0.3579
  444SOL     ow 1773   1.758   7.048   3.526 -0.2009  0.0856 -0.3034
  444SOL     hw 1774   1.776   6.954   3.520  2.3319  0.2183  2.4180
  444SOL     hw 1775   1.772   7.081   3.437  1.5421 -1.7867 -0.8088
  444SOL     vw 1776   1.762   7.040   3.513  0.3632 -0.1438 -0.0112
  445SOL     ow 1777   0.975   0.702   4.490  0.3413  0.3000  0.2353
  445SOL     hw 1778   1.070   0.700   4.501  0.5653  0.5287 -1.4196
  445SOL     hw 1779   0.941   0.657   4.568  1.6845  2.0296  1.9176
  445SOL     vw 1780   0.983   0.696   4.502  0.5481  0.5584  0.2391
  446SOL     ow 1781   2.178   3.249   0.258  0.2446  0.2977 -0.1503
  446SOL     hw 1782   2.190   3.339   0.286  0.3295 -0.0809  1.1262
  446SOL     hw 1783   2.235   3.239   0.182  0.5946  1.1826 -0.0137
  446SOL     vw 1784   2.187   3.259   0.252  0.3020  0.3647  0.0361
  447SOL     ow 1785   6.203   3.724   2.043 -0.1978  0.3811 -0.6120
  447SOL     hw 1786   6.233   3.745   1.955 -0.7800  0.6335 -0.7524
  447SOL     hw 1787   6.108   3.735   2.039 -0.4412 -1.4057 -0.4603
  447SOL     vw 1788   6.195   3.728   2.031 -0.3066  0.1787 -0.6105
  448SOL     ow 1789   0.702   1.693   5.887  0.6404 -0.3958  0.8127
  448SOL     hw 1790   0.787   1.660   5.915  1.5773  0.9932 -0.2523
  448SOL     hw 1791   0.719   1.783   5.860 -1.4606  0.3898  1.9032
  448SOL     vw 1792   0.715   1.700   5.887  0.4868 -0.1088  0.8161
  449SOL     ow 1793   0.663   4.033   0.547 -0.0943 -0.6415  0.3874
  449SOL     hw 1794   0.639   3.944   0.573 -0.6157 -0.3602  0.8804
  449SOL     hw 1795   0.731   4.020   0.480 -0.9159 -1.4345 -0.3383
  449SOL     vw 1796   0.669   4.019   0.541 -0.2716 -0.7091  0.3567
  450SOL     ow 1797   4.283   5.552   2.065  0.3302  0.5686 -0.1589
  450SOL     hw 1798   4.318   5.502   1.991  2.4986 -0.2603  1.3240
  450SOL     hw 1799   4.188   5.540   2.059  0.6397 -2.3592 -0.8675
  450SOL     vw 1800   4.275   5.544   2.055  0.6571  0.0730 -0.0567
  451SOL     ow 1801   5.204   7.193   4.011 -0.1645  0.0308  0.8880
  451SOL     hw 1802   5.211   7.107   3.970 -1.9525 -1.3536  3.2334
  451SOL     hw 1803   5.224   7.178   4.103 -0.2544  2.1925  1.3112
  451SOL     vw 1804   5.207   7.180   4.017 -0.4125  0.1333  1.2531
  452SOL     ow 1805   5.316   2.498   5.470  0.5203 -0.0305 -0.7268
  452SOL     hw 1806   5.277   2.424   5.424 -2.2067  0.6313  0.3046
  452SOL     hw 1807   5.402   2.467   5.497 -0.9216 -3.2833  0.6843
  452SOL     vw 1808   5.322   2.484   5.467 -0.0298 -0.3723 -0.4046
  453SOL     ow 1809   1.060   7.477   6.005 -0.1424  0.0677 -0.2494
  453SOL     hw 1810   1.054   7.411   6.074 -2.6026 -1.0077 -1.3675
  453SOL     hw 1811   0.979   7.528   6.012 -0.3752  0.0642 -2.1614
  453SOL     vw 1812   1.049   7.475   6.015 -0.4976 -0.0746 -0.6492
  454SOL     ow 1813   1.077   5.346   6.551  0.1868 -0.0157  0.3239
  454SOL     hw 1814   1.095   5.392   6.632 -1.2194  1.0960  0.0541
  454SOL     hw 1815   1.123   5.262   6.559 -0.1021 -0.0163  2.3537
  454SOL     vw 1816   1.085   5.341   6.562 -0.0368  0.1309  0.5560
  455SOL     ow 1817   0.689   4.387   5.905  0.4119 -0.2141  0.1763
  455SOL     hw 1818   0.661   4.317   5.847  2.0547 -1.3891  0.7373
  455SOL     hw 1819   0.667   4.357   5.992  0.1289  0.4791  0.3529
  455SOL     vw 1820   0.682   4.374   5.908  0.5913 -0.2773  0.2739
  456SOL     ow 1821   3.003   1.919   0.550 -0.0423 -0.1139  0.0058
  456SOL     hw 1822   2.923   1.867   0.559 -0.7815  0.6253 -1.8752
  456SOL     hw 1823   3.073   1.854   0.541 -0.9545 -0.8653 -2.3016
  456SOL     vw 1824   3.002   1.903   0.550 -0.2601 -0.1155 -0.5468
  457SOL     ow 1825   7.166   6.442   3.938 -0.4710  0.5184 -0.5560
  457SOL     hw 1826   7.189   6.494   3.861  1.4905  1.2033  0.4013
  457SOL     hw 1827   7.211   6.359   3.926  0.8348  1.0520  0.3166
  457SOL     vw 1828   7.175   6.438   3.926 -0.0396  0.6790 -0.3145
  458SOL     ow 1829   0.854   5.145   1.510  0.0743 -0.2962 -0.1878
  458SOL     hw 1830   0.925   5.087   1.481  0.7106  0.5614 -0.4063
  458SOL     hw 1831   0.840   5.123   1.602  0.8172 -0.3004 -0.0710
  458SOL     vw 1832   0.862   5.135   1.518  0.2562 -0.1838 -0.2012
  459SOL     ow 1833   6.946   5.923   0.514 -0.2126  0.1586 -0.3436
  459SOL     hw 1834   6.984   5.907   0.428  0.6497  2.2023 -0.4053
  459SOL     hw 1835   7.013   5.971   0.562 -0.3261 -1.6954  1.8462
  459SOL     vw 1836   6.960   5.927   0.509 -0.1137  0.1836 -0.0628
  460SOL     ow 1837   5.563   7.241   7.037  0.3174 -0.2722 -0.1895
  460SOL     hw 1838   5.605   7.198   7.111  0.5427 -0.0037 -0.1581
  460SOL     hw 1839   5.485   7.281   7.073  0.4850 -0.0473 -0.0702
  460SOL     vw 1840   5.559   7.241   7.051  0.3693 -0.2069 -0.1698
  461SOL     ow 1841   0.713   2.599   6.745 -0.7740 -0.4362  0.2134
  461SOL     hw 1842   0.699   2.607   6.840 -0.8602  0.5581  0.1325
  461SOL     hw 1843   0.627   2.612   6.707 -0.9765 -2.1339  0.0352
  461SOL     vw 1844   0.700   2.602   6.753 -0.8120 -0.5291  0.1795
  462SOL     ow 1845   1.313   6.242   4.092 -0.4712 -0.5512 -0.0924
  462SOL     hw 1846   1.231   6.196   4.075 -1.2004  1.0627 -1.1566
  462SOL     hw 1847   1.317   6.249   4.188 -0.2177 -2.9365  0.1214
  462SOL     vw 1848   1.303   6.237   4.103 -0.5339 -0.6533 -0.2043
  463SOL     ow 1849   7.466   0.856   7.244 -0.7775 -0.2777 -0.8742
  463SOL     hw 1850   7.445   0.764   7.228  0.1659 -0.7296  0.3811
  463SOL     hw 1851   7.404   0.884   7.311 -0.7455 -0.1200 -0.9094
  463SOL     vw 1852   7.455   0.848   7.251 -0.6490 -0.3165 -0.7131
  464SOL     ow 1853   2.687   1.167   5.095  0.5749  0.1721 -0.3596
  464SOL     hw 1854   2.775   1.164   5.133  0.8181  0.3725 -0.8939
  464SOL     hw 1855   2.667   1.261   5.088 -0.4408  0.1433  1.4534
  464SOL     vw 1856   2.696   1.179   5.099  0.4729  0.1948 -0.1910
  465SOL     ow 1857   7.292   4.872   4.575  0.2726 -0.2629  0.2901
  465SOL     hw 1858   7.210   4.906   4.540 -1.2300 -3.1176  0.7196
  465SOL     hw 1859   7.354   4.878   4.502 -0.8446  0.2225 -0.6370
  465SOL     vw 1860   7.289   4.877   4.561 -0.0730 -0.5755  0.2246
  466SOL     ow 1861   1.295   1.029   0.082 -0.1179 -0.2119 -0.0661
  466SOL     hw 1862   1.255   0.958   0.032 -0.2259  1.7264 -2.9380
  466SOL     hw 1863   1.232   1.101   0.077  0.6239  0.6194  1.5456
  466SOL     vw 1864   1.281   1.029   0.075 -0.0343  0.1535 -0.2324
  467SOL     ow 1865   1.869   4.457   1.846 -0.3523  0.4642  0.4668
  467SOL     hw 1866   1.903   4.527   1.901  1.5943  0.4288 -0.6066
  467SOL     hw 1867   1.865   4.381   1.904  1.3335  0.5160  0.7019
  467SOL     vw 1868   1.873   4.456   1.861  0.1270  0.4663  0.3562
  468SOL     ow 1869   0.237   5.776   4.024 -0.5149 -0.2783 -0.5867
  468SOL     hw 1870   0.245   5.682   4.040  1.6646  0.1706  1.4975
  468SOL     hw 1871   0.157   5.802   4.069 -1.6971 -1.2390 -2.0347
  468SOL     vw 1872   0.228   5.767   4.032 -0.3833 -0.3459 -0.5028
  469SOL     ow 1873   3.949   1.052   5.660  0.8101  0.4150 -0.1122
  469SOL     hw 1874   3.854   1.041   5.655  0.7068  1.4164 -0.5339
  469SOL     hw 1875   3.979   0.978   5.713 -0.0452 -0.6809 -1.1051
  469SOL     vw 1876   3.941   1.041   5.666  0.6835  0.4026 -0.2990
  470SOL     ow 1877   0.179   0.336   1.219 -0.4098  0.2955  0.2728
  470SOL     hw 1878   0.102   0.280   1.225 -0.6205  0.7422  2.8782
  470SOL     hw 1879   0.208   0.327   1.129 -3.3052 -0.1388 -0.7250
  470SOL     vw 1880   0.173   0.327   1.208 -0.8196  0.2972  0.4849
  471SOL     ow 1881   6.352   3.690   2.474 -0.1154  0.2134 -0.1561
  471SOL     hw 1882   6.338   3.772   2.522  1.3996  0.7079 -0.4732
  471SOL     hw 1883   6.270   3.642   2.483 -1.1256  1.8519 -0.1222
  471SOL     vw 1884   6.340   3.695   2.481 -0.0489  0.4947 -0.1935
  472SOL     ow 1885   1.435   4.932   4.212  0.0244  0.1089 -0.3953
  472SOL     hw 1886   1.409   4.850   4.253  0.2680  0.3551  0.2562
  472SOL     hw 1887   1.388   4.933   4.129  0.0365 -0.6985 -0.4169
  472SOL     vw 1888   1.425   4.921   4.206  0.0582  0.0348 -0.3123
  473SOL     ow 1889   0.920   5.811   5.961 -0.3800  0.0112 -0.4153
  473SOL     hw 1890   0.840   5.783   6.006  0.2866  0.5738  1.1865
  473SOL     hw 1891   0.895   5.891   5.914 -0.6065  0.5468  0.6005
  473SOL     vw 1892   0.906   5.818   5.961 -0.3219  0.1559 -0.0699
  474SOL     ow 1893   2.953   6.891   3.984  0.0349  0.1486  0.2701
  474SOL     hw 1894   2.893   6.821   4.011 -0.8214  0.4594 -0.7441
  474SOL     hw 1895   2.972   6.938   4.066 -1.7964  0.5455  0.5190
  474SOL     vw 1896   2.947   6.888   3.999 -0.3197  0.2420  0.1692
  475SOL     ow 1897   3.635   6.665   2.044  0.1371 -0.2180  0.4695
  475SOL     hw 1898   3.664   6.757   2.046 -0.7221  0.1359 -1.4574
  475SOL     hw 1899   3.547   6.667   2.081  0.2633 -0.3536  0.7878
  475SOL     vw 1900   3.627   6.678   2.049  0.0405 -0.1888  0.2573
  476SOL     ow 1901   2.529   0.180   4.450 -0.7186 -0.6719 -0.5895
  476SOL     hw 1902   2.516   0.247   4.383  0.8533 -2.2843 -2.6010
  476SOL     hw 1903   2.598   0.216   4.506 -0.4774 -0.2417 -1.1507
  476SOL     vw 1904   2.537   0.194   4.449 -0.4793 -0.8279 -0.9289
  477SOL     ow 1905   5.488   1.274   1.941  0.3883  0.3049 -0.8668
  477SOL     hw 1906   5.479   1.187   1.901  0.3218  0.7044 -1.7426
  477SOL     hw 1907   5.399   1.300   1.963  0.3855  0.2363 -0.7977
  477SOL     vw 1908   5.475   1.266   1.939  0.3791  0.3486 -0.9732
  478SOL     ow 1909   2.938   6.789   1.247  0.6626 -0.4518  0.0990
  478SOL     hw 1910   2.912   6.713   1.196 -0.2626  0.5044 -0.9038
  478SOL     hw 1911   2.857   6.820   1.288  0.4420  1.5968 -1.7418
  478SOL     vw 1912   2.924   6.783   1.246  0.5113 -0.0556 -0.2761
  479SOL     ow 1913   2.319   0.553   6.156 -0.3607 -0.5180 -0.3344
  479SOL     hw 1914   2.405   0.565   6.115 -0.0472 -1.3197  0.0780
  479SOL     hw 1915   2.257   0.558   6.083  0.0969 -0.7085 -0.7392
  479SOL     vw 1916   2.322   0.556   6.141 -0.2590 -0.6489 -0.3333
  480SOL     ow 1917   2.680   5.128   1.676 -0.0213  0.3196 -0.2481
  480SOL     hw 1918   2.708   5.038   1.688 -1.0199 -0.0532 -0.6316
  480SOL     hw 1919   2.696   5.146   1.583 -1.3800 -0.0315 -0.5689
  480SOL     vw 1920   2.686   5.119   1.665 -0.3322  0.2241 -0.3410
  481SOL     ow 1921   6.210   5.732   5.859 -0.1280 -0.6039 -0.3862
  481SOL     hw 1922   6.214   5.827   5.846 -0.9796 -0.5083  0.0210
  481SOL     hw 1923   6.128   5.705   5.818 -1.0912 -0.8034  1.5687
  481SOL     vw 1924   6.200   5.741   5.852 -0.3674 -0.6175 -0.0744
  482SOL     ow 1925   3.147   1.533   7.028  0.4955 -0.2793  0.5719
  482SOL     hw 1926   3.232   1.576   7.020  0.4778 -0.3820 -0.3271
  482SOL     hw 1927   3.162   1.460   7.088  1.1202 -0.4796  0.1791
  482SOL     vw 1928   3.160   1.529   7.035  0.5755 -0.3192  0.4015
  483SOL     ow 1929   5.744   5.132   4.139 -0.4981 -0.7130 -0.0282
  483SOL     hw 1930   5.678   5.142   4.208 -0.5218 -2.3345  0.2106
  483SOL     hw 1931   5.763   5.222   4.112 -0.8129 -0.0559  1.7673
  483SOL     vw 1932   5.738   5.145   4.145 -0.5429 -0.8402  0.2401
  484SOL     ow 1933   0.755   3.713   0.417  0.0455 -0.2406  0.1999
  484SOL     hw 1934   0.721   3.724   0.328  2.2295  1.5867 -0.5060
  484SOL     hw 1935   0.805   3.793   0.434  0.8214 -1.1309  2.5697
  484SOL     vw 1936   0.757   3.725   0.407  0.4360 -0.1169  0.4195
  485SOL     ow 1937   3.224   2.163   7.069 -0.7410 -0.7027 -0.0607
  485SOL     hw 1938   3.171   2.104   7.015  0.1066 -2.5646  1.0466
  485SOL     hw 1939   3.274   2.105   7.126  2.5838  0.9414 -1.0514
  485SOL     vw 1940   3.223   2.147   7.069 -0.1906 -0.7317 -0.0453
  486SOL     ow 1941   0.250   2.999   6.594 -0.7364 -0.4438 -0.3453
  486SOL     hw 1942   0.165   2.990   6.551 -1.7319  0.0746  1.3708
  486SOL     hw 1943   0.258   2.921   6.649 -1.3663  0.6700  1.4444
  486SOL     vw 1944   0.240   2.988   6.596 -0.9509 -0.2284  0.1175
  487SOL     ow 1945   6.933   4.727   1.360 -0.4247  0.3836 -0.6002
  487SOL     hw 1946   6.897   4.651   1.406 -0.9213  2.7250  3.3592
  487SOL     hw 1947   7.011   4.694   1.315 -0.3669 -2.3741  1.2839
  487SOL     vw 1948   6.938   4.713   1.360 -0.4826  0.3288  0.1708
  488SOL     ow 1949   5.259   0.537   7.410  0.1570  0.5708 -0.0422
  488SOL     hw 1950   5.279   0.485   7.332  1.4756  1.5393 -0.3846
  488SOL     hw 1951   5.204   0.480   7.463  1.1573 -0.9955 -0.6206
  488SOL     vw 1952   5.254   0.523   7.407  0.4630  0.4919 -0.1638
  489SOL     ow 1953   0.182   6.693   7.458  0.3083  0.0733 -0.5530
  489SOL     hw 1954   0.215   6.772   7.415  1.1153  0.3266  0.5031
  489SOL     hw 1955   0.253   6.629   7.447 -0.4833 -0.6486 -1.7244
  489SOL     vw 1956   0.196   6.695   7.451  0.3103  0.0114 -0.5682
  490SOL     ow 1957   7.418   4.963   4.197 -0.3011 -0.3835 -0.0586
  490SOL     hw 1958   7.338   4.926   4.234 -0.5094  0.7656  0.6942
  490SOL     hw 1959   7.487   4.903   4.224 -0.9721 -1.8212 -1.3810
  490SOL     vw 1960   7.417   4.950   4.205 -0.4170 -0.4218 -0.1338
  491SOL     ow 1961   6.805   5.486   0.609  0.0005 -0.5412 -0.2880
  491SOL     hw 1962   6.820   5.418   0.544  0.7693 -0.6852  0.0391
  491SOL     hw 1963   6.792   5.438   0.691  2.1318 -0.2663  0.2589
  491SOL     vw 1964   6.805   5.470   0.611  0.3829 -0.5238 -0.1727
  492SOL     ow 1965   1.992   0.901   6.298  0.2088  0.2589  0.7270
  492SOL     hw 1966   1.899   0.916   6.278  0.3495  0.4237  0.1889
  492SOL     hw 1967   2.023   0.847   6.226  0.4971  0.0819  0.9850
  492SOL     vw 1968   1.984   0.896   6.286  0.2654  0.2573  0.6900
  493SOL     ow 1969   6.412   2.096   3.077  0.2645 -0.0851 -0.6091
  493SOL     hw 1970   6.439   2.045   3.001 -0.7679 -1.4490 -0.0996
  493SOL     hw 1971   6.493   2.129   3.114  1.0120 -1.6537 -0.7791
  493SOL     vw 1972   6.426   2.094   3.072  0.2270 -0.4719 -0.5643
  494SOL     ow 1973   5.720   0.821   2.911 -0.2669 -0.5000  0.2255
  494SOL     hw 1974   5.728   0.860   2.998 -0.1170 -1.4164  0.6284
  494SOL     hw 1975   5.625   0.813   2.897 -0.6739 -6.6301  3.2658
  494SOL     vw 1976   5.708   0.825   2.920 -0.3006 -1.4297  0.6799
  495SOL     ow 1977   6.346   0.510   1.965  1.0608 -0.2402  0.3936
  495SOL     hw 1978   6.341   0.514   2.060  0.6528 -1.3323  0.4277
  495SOL     hw 1979   6.257   0.490   1.936  0.9375  1.1902 -0.2967
  495SOL     vw 1980   6.333   0.508   1.973  0.9909 -0.1956  0.3070
  496SOL     ow 1981   2.907   1.681   2.464  0.0103  0.1055  0.5400
  496SOL     hw 1982   2.867   1.690   2.550 -1.0462  1.3921 -0.0720
  496SOL     hw 1983   2.841   1.637   2.411  0.7113 -0.8144  0.3810
  496SOL     vw 1984   2.893   1.676   2.469 -0.0366  0.1540  0.4382
  497SOL     ow 1985   5.179   4.889   4.299  0.2328 -0.9001 -0.1370
  497SOL     hw 1986   5.258   4.911   4.248  1.1640 -0.7012  1.3417
  497SOL     hw 1987   5.117   4.959   4.277  0.6006 -0.8340 -1.0147
  497SOL     vw 1988   5.182   4.901   4.289  0.4041 -0.8652 -0.0579
  498SOL     ow 1989   4.844   6.615   6.308  0.7550 -0.0704 -0.1450
  498SOL     hw 1990   4.776   6.679   6.326  1.1345  0.5731 -0.9548
  498SOL     hw 1991   4.917   6.666   6.274  1.0160 -0.9468 -0.9495
  498SOL     vw 1992   4.845   6.630   6.306  0.8395 -0.1011 -0.3581
  499SOL     ow 1993   6.234   6.660   3.744  0.4963  0.0285 -0.0485
  499SOL     hw 1994   6.223   6.716   3.667  1.6622 -1.2602 -1.2008
  499SOL     hw 1995   6.323   6.678   3.775 -0.6113  2.0451  2.3232
  499SOL     vw 1996   6.244   6.670   3.738  0.5043  0.1245  0.1124
  500SOL     ow 1997   1.159   5.843   4.144 -0.2317  0.5080  0.0642
  500SOL     hw 1998   1.144   5.774   4.079  0.2279 -1.9834  2.4372
  500SOL     hw 1999   1.086   5.834   4.206  1.0321  0.6000  1.6277
  500SOL     vw 2000   1.148   5.833   4.143 -0.0043  0.1915  0.5836
  501SOL     ow 2001   1.260   5.939   5.949 -0.3675  0.3901 -0.0496
  501SOL     hw 2002   1.204   6.006   5.908 -0.2230  0.7574  0.3475
  501SOL     hw 2003   1.288   5.885   5.876 -3.4365 -1.5118  0.0061
  501SOL     vw 2004   1.256   5.941   5.934 -0.7533  0.1876  0.0103
  502SOL     ow 2005   5.750   7.427   2.717  0.0923 -0.2950  0.8732
  502SOL     hw 2006   5.669   7.393   2.680  0.4332 -1.2479  0.9793
  502SOL     hw 2007   5.758   7.385   2.803 -0.1971  1.1583  1.6485
  502SOL     vw 2008   5.740   7.417   2.724  0.0989 -0.2289  0.9894
  503SOL     ow 2009   4.351   5.802   5.774 -0.1196  0.2603 -0.2169
  503SOL     hw 2010   4.334   5.723   5.824  0.2754  1.4447  1.9023
  503SOL     hw 2011   4.265   5.841   5.759 -0.1803  0.2704  0.1722
  503SOL     vw 2012   4.338   5.797   5.778 -0.0756  0.4179  0.1140
  504SOL     ow 2013   4.492   7.301   1.514  0.8278 -0.1628  0.5199
  504SOL     hw 2014   4.412   7.300   1.462  1.3253  0.4407 -0.2759
  504SOL     hw 2015   4.547   7.232   1.476  1.7842  1.2445 -0.7477
  504SOL     vw 2016   4.489   7.292   1.502  1.0197  0.1028  0.2477
  505SOL     ow 2017   3.889   2.085   2.943 -0.2257 -0.0815  0.4712
  505SOL     hw 2018   3.928   2.171   2.955  0.5226 -0.3479 -0.0006
  505SOL     hw 2019   3.806   2.090   2.991  0.4518  0.4265  1.6300
  505SOL     vw 2020   3.883   2.097   2.951 -0.0374 -0.0497  0.5620
  506SOL     ow 2021   0.221   1.260   0.009  0.1108 -0.7902  0.1765
  506SOL     hw 2022   0.278   1.232   0.081  0.4775  0.2228  0.3004
  506SOL     hw 2023   0.256   1.345  -0.017  0.9114 -1.7554 -2.1934
  506SOL     vw 2024   0.233   1.267   0.015  0.2648 -0.7839 -0.1202
  507SOL     ow 2025   4.791   3.919   3.589  0.3745 -0.2946 -0.6625
  507SOL     hw 2026   4.802   3.897   3.681  0.3567  0.2329 -0.5309
  507SOL     hw 2027   4.870   3.885   3.547  0.3456 -0.6061 -0.4706
  507SOL     vw 2028   4.803   3.911   3.595  0.3684 -0.2661 -0.6200
  508SOL     ow 2029   1.758   4.925   1.569  0.3686  0.4963  0.2198
  508SOL     hw 2030   1.837   4.878   1.597  0.6278  1.1045  0.5526
  508SOL     hw 2031   1.749   4.905   1.476  0.4265 -0.2616  0.3727
  508SOL     vw 2032   1.767   4.917   1.560  0.4104  0.4764  0.2838
  509SOL     ow 2033   3.690   4.435   6.977  0.0244  0.4171  0.1218
  509SOL     hw 2034   3.779   4.458   7.004  0.5421 -1.6668  0.3954
  509SOL     hw 2035   3.634   4.486   7.034  1.0250  1.6494  0.0596
  509SOL     vw 2036   3.695   4.445   6.988  0.2248  0.3047  0.1500
  510SOL     ow 2037   4.340   1.623   1.729 -0.2964  0.0295 -0.0757
  510SOL     hw 2038   4.376   1.666   1.806  1.4181  1.1624 -1.4332
  510SOL     hw 2039   4.417   1.593   1.681 -1.3330 -0.8451 -1.2436
  510SOL     vw 2040   4.355   1.624   1.733 -0.2069  0.0636 -0.4089
  511SOL     ow 2041   4.589   4.592   4.958 -0.3649 -0.6624 -0.4597
  511SOL     hw 2042   4.659   4.529   4.975  0.4185  0.3743  0.3752
  511SOL     hw 2043   4.542   4.598   5.042 -0.3227 -0.0369 -0.4730
  511SOL     vw 2044   4.592   4.585   4.972 -0.2558 -0.4430 -0.3512
  512SOL     ow 2045   6.239   5.699   7.022 -0.2710 -0.3857  0.5303
  512SOL     hw 2046   6.262   5.787   7.051 -0.0148 -0.2245 -0.1424
  512SOL     hw 2047   6.210   5.654   7.101  0.9572 -0.1372  1.1474
  512SOL     vw 2048   6.239   5.705   7.036 -0.0751 -0.3319  0.5229
  513SOL     ow 2049   2.752   5.011   7.096  0.0912  0.2283 -0.2108
  513SOL     hw 2050   2.793   4.944   7.042  0.6645  0.7915 -0.4826
  513SOL     hw 2051   2.764   4.979   7.186  1.6274  0.6325 -0.2387
  513SOL     vw 2052   2.759   4.998   7.101  0.3697  0.3560 -0.2503
  514SOL     ow 2053   2.061   5.935   0.510  0.4092 -0.0362 -0.1354
  514SOL     hw 2054   2.141   5.902   0.550  0.7232 -0.3067 -0.9587
  514SOL     hw 2055   1.991   5.910   0.570  0.5286 -2.8911 -1.0642
  514SOL     vw 2056   2.063   5.928   0.523  0.4663 -0.4485 -0.3666
  515SOL     ow 2057   1.752   3.278   0.382 -0.2121  0.2788  0.3287
  515SOL     hw 2058   1.685   3.303   0.446  0.0242  0.9903  0.3010
  515SOL     hw 2059   1.767   3.357   0.330 -0.1805 -0.2008 -0.4165
  515SOL     vw 2060   1.745   3.291   0.383 -0.1768  0.3095  0.2267
  516SOL     ow 2061   6.455   3.493   5.986  0.0674 -0.5617 -0.3578
  516SOL     hw 2062   6.471   3.518   5.895  0.0449 -1.7004 -0.6879
  516SOL     hw 2063   6.416   3.406   5.981 -0.2569 -0.5032  0.7327
  516SOL     vw 2064   6.452   3.485   5.973  0.0215 -0.7043 -0.2570
  517SOL     ow 2065   1.614   3.714   2.713 -0.1909 -0.2064 -0.0719
  517SOL     hw 2066   1.641   3.806   2.708  2.3734 -0.9091 -0.5261
  517SOL     hw 2067   1.609   3.685   2.622  0.1485 -0.8150  0.0968
  517SOL     vw 2068   1.617   3.722   2.700  0.1923 -0.3794 -0.1098
  518SOL     ow 2069   0.478   1.029   0.300  0.0197 -0.1953 -0.1368
  518SOL     hw 2070   0.407   0.976   0.337 -1.1477 -0.0037 -1.9928
  518SOL     hw 2071   0.492   0.993   0.213 -0.5501  2.2454 -1.3178
  518SOL     vw 2072   0.470   1.017   0.293 -0.2095  0.1521 -0.5375
  519SOL     ow 2073   4.357   6.379   7.040 -0.0051 -0.0534  0.7479
  519SOL     hw 2074   4.301   6.341   6.972  0.5734 -0.6623  0.5917
  519SOL     hw 2075   4.322   6.346   7.122  0.3112 -0.7028  0.6299
  519SOL     vw 2076   4.345   6.370   7.042  0.1130 -0.2191  0.7117
  520SOL     ow 2077   6.534   6.221   2.516  0.2055 -0.2993 -0.7872
  520SOL     hw 2078   6.626   6.241   2.500  0.4025  0.2509  0.8174
  520SOL     hw 2079   6.507   6.285   2.582 -1.3616 -0.3928 -1.2854
  520SOL     vw 2080   6.543   6.232   2.522  0.0248 -0.2389 -0.6412
  521SOL     ow 2081   4.335   7.284   1.795  0.3213  0.4072 -0.2009
  521SOL     hw 2082   4.263   7.339   1.825 -1.1360 -1.5867  0.1412
  521SOL     hw 2083   4.332   7.207   1.852  0.8622 -1.0661 -2.0533
  521SOL     vw 2084   4.325   7.281   1.807  0.2000 -0.0505 -0.4002
  522SOL     ow 2085   1.258   3.766   5.387  0.0291 -0.7880 -0.1538
  522SOL     hw 2086   1.336   3.724   5.352  1.6126  0.7270  1.3726
  522SOL     hw 2087   1.230   3.710   5.459  1.8678  0.3669  1.5791
  522SOL     vw 2088   1.264   3.753   5.392  0.4807 -0.4356  0.2761
  523SOL     ow 2089   0.306   3.589   6.180 -0.2086  0.0566  0.6172
  523SOL     hw 2090   0.232   3.528   6.178  0.1589 -0.4123 -1.3544
  523SOL     hw 2091   0.266   3.675   6.165 -0.3571 -0.2713 -1.1210
  523SOL     vw 2092   0.291   3.593   6.177 -0.1797 -0.0485  0.1276
  524SOL     ow 2093   7.309   0.947   1.267 -0.7096  0.8552  0.2317
  524SOL     hw 2094   7.230   0.904   1.300 -0.2855  0.6805  1.0508
  524SOL     hw 2095   7.374   0.936   1.337 -0.6909  3.1684  0.6575
  524SOL     vw 2096   7.307   0.940   1.281 -0.6511  1.1373  0.3960
  525SOL     ow 2097   5.357   3.995   1.249  0.3269 -0.5648 -0.8493
  525SOL     hw 2098   5.269   3.957   1.253  0.1103  0.0208  1.1149
  525SOL     hw 2099   5.385   3.982   1.158 -2.4429  0.6596 -2.0131
  525SOL     vw 2100   5.349   3.988   1.237 -0.0672 -0.3259 -0.7437
  526SOL     ow 2101   0.667   5.278   5.687 -0.2320 -0.4291  0.0828
  526SOL     hw 2102   0.589   5.232   5.655 -0.9021  1.0461 -0.4823
  526SOL     hw 2103   0.738   5.247   5.630 -1.2595  1.6139 -2.5262
  526SOL     vw 2104   0.666   5.268   5.675 -0.4559  0.0350 -0.3362
  527SOL     ow 2105   2.039   4.553   6.151  0.0720 -0.4291 -0.4229
  527SOL     hw 2106   2.067   4.631   6.198  0.0337 -0.5257 -0.2411
  527SOL     hw 2107   1.965   4.519   6.201 -0.1110 -0.4056 -0.6789
  527SOL     vw 2108   2.033   4.559   6.164  0.0429 -0.4387 -0.4327
  528SOL     ow 2109   2.568   7.033   4.928 -0.5802  0.5517  0.9139
  528SOL     hw 2110   2.512   7.036   5.006 -0.3077 -0.7355  1.1734
  528SOL     hw 2111   2.565   6.942   4.899  0.7451  0.6345  0.4566
  528SOL     vw 2112   2.560   7.021   4.934 -0.3694  0.3929  0.8876
  529SOL     ow 2113   1.635   6.623   6.137 -0.6151  0.2980  0.4414
  529SOL     hw 2114   1.601   6.673   6.212 -0.9183 -1.5418  1.6269
  529SOL     hw 2115   1.663   6.540   6.176  1.4854  0.1898 -1.1619
  529SOL     vw 2116   1.634   6.618   6.152 -0.3779  0.0410  0.3865
  530SOL     ow 2117   3.248   5.169   2.072 -0.3244 -0.2251 -0.0103
  530SOL     hw 2118   3.316   5.102   2.081  1.4304  1.6213  1.1425
  530SOL     hw 2119   3.242   5.209   2.159 -2.9389 -0.2994 -0.0562
  530SOL     vw 2120   3.256   5.165   2.085 -0.4380  0.0088  0.1357
  531SOL     ow 2121   2.463   5.378   4.868 -0.5543 -0.4067 -0.0701
  531SOL     hw 2122   2.368   5.381   4.853 -0.4956 -0.9998 -0.6032
  531SOL     hw 2123   2.500   5.361   4.782 -0.0744 -1.9441  0.3982
  531SOL     vw 2124   2.455   5.376   4.855 -0.4833 -0.6878 -0.0784
  532SOL     ow 2125   0.395   7.380   7.314  0.0596  0.2133  0.1479
  532SOL     hw 2126   0.416   7.290   7.287 -0.9441 -0.2772  0.9164
  532SOL     hw 2127   0.334   7.411   7.247 -0.7785 -0.2422  0.6782
  532SOL     vw 2128   0.390   7.372   7.301 -0.1834  0.0887  0.3192
  533SOL     ow 2129   6.015   4.060   2.284  0.2118  0.2014 -0.0078
  533SOL     hw 2130   6.102   4.022   2.272 -0.0070  0.1567 -1.6699
  533SOL     hw 2131   6.031   4.153   2.295  0.4426  0.3250 -1.2244
  533SOL     vw 2132   6.029   4.067   2.284  0.2134  0.2117 -0.3878
  534SOL     ow 2133   3.076   7.442   6.279 -0.1941 -0.5376  0.0804
  534SOL     hw 2134   3.122   7.359   6.293  0.5646 -0.4741 -1.8425
  534SOL     hw 2135   3.122   7.484   6.206 -1.5248  0.8783 -0.0034
  534SOL     vw 2136   3.088   7.437   6.272 -0.2697 -0.3424 -0.1845
  535SOL     ow 2137   5.177   5.126   6.020 -0.1680  0.0647  0.0021
  535SOL     hw 2138   5.119   5.186   5.974 -0.2963 -0.1722 -0.1496
  535SOL     hw 2139   5.235   5.182   6.071  0.3053  0.3695 -0.8357
  535SOL     vw 2140   5.177   5.141   6.020 -0.1225  0.0734 -0.1287
  536SOL     ow 2141   4.424   3.175   4.855 -0.3514 -0.0228  0.3812
  536SOL     hw 2142   4.333   3.161   4.884 -0.8204  0.8604 -0.5884
  536SOL     hw 2143   4.477   3.132   4.922 -1.5239 -2.3082 -0.0732
  536SOL     vw 2144   4.419   3.168   4.868 -0.5679 -0.2079  0.1934
  537SOL     ow 2145   2.233   5.133   1.167 -0.2292  0.1915  0.2299
  537SOL     hw 2146   2.153   5.163   1.124  0.8500  0.6943 -1.5618
  537SOL     hw 2147   2.217   5.040   1.186 -0.9179  0.0575 -0.9117
  537SOL     vw 2148   2.220   5.124   1.164 -0.1777  0.2401 -0.1571
  538SOL     ow 2149   6.674   4.059   5.077  0.0695  0.2950  0.5431
  538SOL     hw 2150   6.712   4.122   5.138 -1.5119  1.0150  0.8271
  538SOL     hw 2151   6.590   4.097   5.051  0.8511  0.2217 -2.4515
  538SOL     vw 2152   6.668   4.072   5.081 -0.0358  0.3805  0.1855
  539SOL     ow 2153   5.808   1.260   3.882 -0.2135 -0.3068  0.8442
  539SOL     hw 2154   5.812   1.200   3.807  1.6448  1.6402 -0.7079
  539SOL     hw 2155   5.714   1.274   3.895 -0.6528 -2.2434  0.2391
  539SOL     vw 2156   5.796   1.254   3.874 -0.0265 -0.3054  0.5594
  540SOL     ow 2157   2.577   3.913   0.113 -0.1324 -0.5116 -0.0666
  540SOL     hw 2158   2.515   3.982   0.137  0.6597 -0.2192  1.2189
  540SOL     hw 2159   2.526   3.832   0.120 -0.1751 -0.3588  1.8627
  540SOL     vw 2160   2.562   3.912   0.117 -0.0336 -0.4529  0.3576
  541SOL     ow 2161   0.660   2.137   2.382 -0.0610 -0.8858  0.4088
  541SOL     hw 2162   0.609   2.210   2.347  1.8016 -0.1761 -1.0159
  541SOL     hw 2163   0.736   2.132   2.324  2.1274 -1.0870  3.1217
  541SOL     vw 2164   0.663   2.146   2.370  0.4736 -0.8187  0.5788
  542SOL     ow 2165   4.597   3.388   7.047  0.1805 -0.0651 -0.1018
  542SOL     hw 2166   4.510   3.364   7.015 -0.6744  1.5793  0.7949
  542SOL     hw 2167   4.632   3.445   6.979  0.0325  0.2366  0.0702
  542SOL     vw 2168   4.590   3.393   7.034  0.0479  0.1917  0.0393
  543SOL     ow 2169   0.287   0.552   4.232 -0.2937 -0.6422 -0.1349
  543SOL     hw 2170   0.303   0.604   4.153 -2.0570  0.3380  0.1121
  543SOL     hw 2171   0.213   0.496   4.210 -0.8533 -0.3059  0.8501
  543SOL     vw 2172   0.280   0.551   4.218 -0.6002 -0.4685  0.0277
  544SOL     ow 2173   2.416   5.561   1.712  0.2045 -0.3977 -0.2884
  544SOL     hw 2174   2.336   5.613   1.718  0.3938  0.0155 -1.1815
  544SOL     hw 2175   2.483   5.623   1.684  0.1355 -1.3443 -2.8214
  544SOL     vw 2176   2.414   5.576   1.709  0.2204 -0.4683 -0.7405
  545SOL     ow 2177   7.287   7.373   5.902  0.6228  0.2259 -0.3671
  545SOL     hw 2178   7.261   7.459   5.871 -0.5806 -0.5771 -1.7352
  545SOL     hw 2179   7.383   7.373   5.895  0.7216  1.7486  0.5677
  545SOL     vw 2180   7.297   7.384   5.897  0.4771  0.3209 -0.4241
  546SOL     ow 2181   5.115   6.412   7.183 -0.8548  0.0882 -0.1555
  546SOL     hw 2182   5.111   6.444   7.092 -2.1394 -1.0384 -0.5170
  546SOL     hw 2183   5.200   6.368   7.189 -0.9702 -0.2619 -0.9639
  546SOL     vw 2184   5.126   6.411   7.172 -1.0397 -0.1068 -0.3099
  547SOL     ow 2185   0.336   4.665   5.465 -0.9898 -0.2243  0.0989
  547SOL     hw 2186   0.359   4.602   5.533 -3.7840 -1.5439 -0.0452
  547SOL     hw 2187   0.275   4.725   5.507 -1.3599  0.0258 -0.7676
  547SOL     vw 2188   0.331   4.665   5.480 -1.4073 -0.3655 -0.0346
  548SOL     ow 2189   3.651   3.231   4.225  0.5267 -0.0423  0.0977
  548SOL     hw 2190   3.630   3.324   4.225  0.9126  0.1008  2.0080
  548SOL     hw 2191   3.571   3.188   4.195  0.0007  0.8450  0.1851
  548SOL     vw 2192   3.638   3.237   4.221  0.5082  0.0936  0.3612
  549SOL     ow 2193   2.781   7.381   5.833 -0.4721 -0.1956  0.6939
  549SOL     hw 2194   2.734   7.298   5.830  2.1641 -1.9330  2.5603
  549SOL     hw 2195   2.853   7.371   5.770 -1.2117  1.5300 -0.5233
  549SOL     vw 2196   2.784   7.369   5.824 -0.2220 -0.1972  0.7792
  550SOL     ow 2197   6.997   3.801   2.329 -0.1516 -0.2555  0.0714
  550SOL     hw 2198   7.082   3.842   2.316 -0.7677  1.3417  0.8233
  550SOL     hw 2199   7.011   3.738   2.400  0.7044 -1.1104 -0.8104
  550SOL     vw 2200   7.010   3.798   2.337 -0.1199 -0.1575  0.0542
  551SOL     ow 2201   3.375   3.967   2.591  0.3467  0.4085  0.5517
  551SOL     hw 2202   3.395   4.061   2.596 -2.7394  1.2852 -1.0465
  551SOL     hw 2203   3.358   3.941   2.681  0.1884  1.6624  0.8986
  551SOL     vw 2204   3.376   3.976   2.604 -0.0814  0.6896  0.3865
  552SOL     ow 2205   5.872   3.713   2.462  0.1412  0.2808 -0.0861
  552SOL     hw 2206   5.802   3.685   2.403 -0.1079 -0.5919  0.6073
  552SOL     hw 2207   5.881   3.807   2.445 -0.8669  0.3101 -0.5288
  552SOL     vw 2208   5.864   3.722   2.452 -0.0246  0.1695 -0.0529
  553SOL     ow 2209   3.367   0.125   0.857 -0.3542 -0.3363  0.9256
  553SOL     hw 2210   3.458   0.097   0.855 -0.3167 -0.1826 -0.7936
  553SOL     hw 2211   3.323   0.068   0.793 -1.1803  0.4911  0.7326
  553SOL     vw 2212   3.373   0.114   0.848 -0.4582 -0.2069  0.6733
  554SOL     ow 2213   1.058   0.767   5.871  0.3275 -0.5126  0.0476
  554SOL     hw 2214   1.116   0.829   5.915 -1.1645  1.5538 -0.7404
  554SOL     hw 2215   0.995   0.741   5.938  0.7002 -0.8674  0.2661
  554SOL     vw 2216   1.057   0.771   5.885  0.1798 -0.2868 -0.0277
  555SOL     ow 2217   2.388   4.314   5.856  0.9194  0.3766  0.4447
  555SOL     hw 2218   2.452   4.314   5.785  0.1599  0.2703 -0.2597
  555SOL     hw 2219   2.420   4.248   5.918  0.9833 -0.3825 -0.3792
  555SOL     vw 2220   2.400   4.305   5.855  0.8276  0.2625  0.2432
  556SOL     ow 2221   0.165   7.010   0.818 -0.6971 -1.0859 -0.0706
  556SOL     hw 2222   0.104   6.976   0.753 -0.1019 -1.2784 -0.5375
  556SOL     hw 2223   0.161   6.948   0.891 -0.2256 -1.7195 -0.5740
  556SOL     vw 2224   0.156   6.998   0.819 -0.5564 -1.1945 -0.1987
  557SOL     ow 2225   2.479   3.755   3.012  0.1957  0.8283  0.2020
  557SOL     hw 2226   2.439   3.797   2.936  0.9449  1.6311  0.2481
  557SOL     hw 2227   2.411   3.694   3.044  0.4435 -0.7603 -2.0750
  557SOL     vw 2228   2.464   3.752   3.006  0.3275  0.7246 -0.0924
  558SOL     ow 2229   1.582   5.531   4.246  0.1094  0.2701 -0.1495
  558SOL     hw 2230   1.530   5.608   4.268  0.3262  0.0279  1.3202
  558SOL     hw 2231   1.570   5.520   4.152  1.1314  2.8691 -0.6635
  558SOL     vw 2232   1.573   5.540   4.237  0.2728  0.5810 -0.0231
  559SOL     ow 2233   0.262   0.058   7.114  0.2156  0.1871 -0.0486
  559SOL     hw 2234   0.250   0.122   7.184 -0.3746  2.3881 -2.0514
  559SOL     hw 2235   0.175   0.021   7.101  0.5514 -1.1028  1.0909
  559SOL     vw 2236   0.249   0.061   7.122  0.1820  0.3073 -0.1626
  560SOL     ow 2237   4.991   7.328   4.068  0.2302 -0.5623  0.0706
  560SOL     hw 2238   5.070   7.277   4.045  1.1699  0.2972  1.2568
  560SOL     hw 2239   5.025   7.408   4.108 -1.2665 -0.1923  0.6624
  560SOL     vw 2240   5.006   7.332   4.070  0.1566 -0.4001  0.3052
  561SOL     ow 2241   2.145   0.324   4.813 -0.0053 -0.4420  0.1726
  561SOL     hw 2242   2.132   0.352   4.904 -0.0586  1.1788 -0.3096
  561SOL     hw 2243   2.215   0.259   4.818 -1.3958 -1.9273  1.5993
  561SOL     vw 2244   2.152   0.319   4.826 -0.1959 -0.4241  0.2973
  562SOL     ow 2245   6.301   4.334   3.018  0.0259  0.2303  0.2953
  562SOL     hw 2246   6.350   4.312   3.098  0.0680  0.5609  0.3630
  562SOL     hw 2247   6.358   4.394   2.971 -0.2282  0.4605  0.2767
  562SOL     vw 2248   6.315   4.339   3.023 -0.0019  0.3045  0.3018
  563SOL     ow 2249   3.294   7.292   2.883 -0.3753  0.3205  0.8258
  563SOL     hw 2250   3.304   7.197   2.887  1.4865  0.4900  1.0311
  563SOL     hw 2251   3.351   7.325   2.953 -0.1305  1.6244  0.0420
  563SOL     vw 2252   3.303   7.284   2.893 -0.0973  0.5150  0.7495
  564SOL     ow 2253   2.197   6.932   3.483  0.1290  0.1733  0.4259
  564SOL     hw 2254   2.268   6.938   3.420 -0.8003  0.8862 -0.5902
  564SOL     hw 2255   2.142   6.860   3.450  0.5216 -0.5923  1.3799
  564SOL     vw 2256   2.199   6.923   3.470  0.0582  0.1662  0.4176
  565SOL     ow 2257   5.251   6.856   6.018 -0.7633 -0.1709 -0.2489
  565SOL     hw 2258   5.319   6.794   6.044 -1.2389 -0.8739 -0.6651
  565SOL     hw 2259   5.221   6.824   5.933  0.9138  2.1742 -1.8576
  565SOL     vw 2260   5.256   6.844   6.010 -0.6049  0.0455 -0.5162
  566SOL     ow 2261   1.801   1.778   1.290  0.2473  0.5050 -0.0975
  566SOL     hw 2262   1.792   1.690   1.325  0.1395  0.7756  0.5726
  566SOL     hw 2263   1.715   1.818   1.304 -0.0962  0.3298 -1.5188
  566SOL     vw 2264   1.788   1.772   1.297  0.1878  0.5176 -0.1966
  567SOL     ow 2265   4.134   1.018   5.028  0.4419  0.0343 -0.3051
  567SOL     hw 2266   4.149   1.107   5.059  0.4564 -0.5525  1.4640
  567SOL     hw 2267   4.215   0.972   5.047 -0.3879 -0.9358  1.0687
  567SOL     vw 2268   4.147   1.024   5.035  0.3343 -0.1711  0.1094
  568SOL     ow 2269   5.423   1.603   5.434  0.3871  0.1035  0.2376
  568SOL     hw 2270   5.356   1.649   5.384  0.8496 -0.6165 -1.0703
  568SOL     hw 2271   5.418   1.642   5.521 -2.7724 -0.9217  0.6645
  568SOL     vw 2272   5.413   1.614   5.439  0.0310 -0.1267  0.1214
  569SOL     ow 2273   3.851   4.811   1.310 -0.5115 -0.4713 -0.2883
  569SOL     hw 2274   3.823   4.741   1.370 -1.3167  0.8704  0.9746
  569SOL     hw 2275   3.823   4.781   1.224 -1.7566 -1.2643  0.3593
  569SOL     vw 2276   3.843   4.798   1.307 -0.7820 -0.3989 -0.0363
  570SOL     ow 2277   2.278   4.341   6.840 -0.5773  0.1482  0.3625
  570SOL     hw 2278   2.329   4.308   6.765 -0.0464  2.1050 -0.2107
  570SOL     hw 2279   2.327   4.417   6.870 -2.0720  0.8397  1.1589
  570SOL     vw 2280   2.291   4.346   6.834 -0.7044  0.4976  0.3922
  571SOL     ow 2281   6.908   4.276   3.723  0.1811  0.3816  0.1959
  571SOL     hw 2282   6.818   4.246   3.707  0.6753 -1.0597 -0.0321
  571SOL     hw 2283   6.910   4.300   3.815 -0.4904  0.6508  0.1470
  571SOL     vw 2284   6.896   4.275   3.733  0.1578  0.2270  0.1593
  572SOL     ow 2285   2.601   4.164   2.447 -0.2127  0.4424  0.0464
  572SOL     hw 2286   2.686   4.168   2.489  0.2099  0.2689 -0.7633
  572SOL     hw 2287   2.543   4.126   2.513  0.8843 -1.8195 -0.2081
  572SOL     vw 2288   2.604   4.159   2.461 -0.0122  0.1214 -0.0939
  573SOL     ow 2289   0.858   6.932   6.974  0.3260 -0.0451  0.0367
  573SOL     hw 2290   0.778   6.962   7.015  0.5391  0.0568  0.3788
  573SOL     hw 2291   0.842   6.944   6.880  0.1353  0.4641  0.1273
  573SOL     vw 2292   0.846   6.938   6.967  0.3289  0.0353  0.0939
  574SOL     ow 2293   0.228   4.928   5.809  0.0790  0.1532 -0.0505
  574SOL     hw 2294   0.244   4.834   5.812  0.4790  0.2288  0.5334
  574SOL     hw 2295   0.137   4.938   5.838  0.4987  0.0369  1.4147
  574SOL     vw 2296   0.218   4.917   5.813  0.1872  0.1481  0.2198
  575SOL     ow 2297   2.417   0.072   6.095  0.4869  0.8079 -0.2997
  575SOL     hw 2298   2.477   0.128   6.143  0.7801  0.8180 -0.6681
  575SOL     hw 2299   2.331   0.091   6.132  0.8520 -0.1563  1.1442
  575SOL     vw 2300   2.414   0.081   6.106  0.5738  0.6820 -0.1578
  576SOL     ow 2301   2.532   2.209   4.810 -0.5056 -0.9642 -0.1681
  576SOL     hw 2302   2.485   2.250   4.738 -0.4126 -2.7688 -1.3118
  576SOL     hw 2303   2.576   2.134   4.771 -1.3054 -2.6453  1.9319
  576SOL     vw 2304   2.531   2.205   4.795 -0.5988 -1.4242 -0.0420
  577SOL     ow 2305   5.695   0.866   7.417 -0.2958 -0.5172 -0.2031
  577SOL     hw 2306   5.774   0.872   7.364  0.4285 -0.4147  0.8515
  577SOL     hw 2307   5.716   0.801   7.485 -0.1319  1.3617  1.6624
  577SOL     vw 2308   5.708   0.858   7.419 -0.1788 -0.2558  0.1822
  578SOL     ow 2309   2.078   1.173   6.388  0.8021 -0.3462 -0.3178
  578SOL     hw 2310   2.048   1.217   6.308  1.2444  2.0934  0.7682
  578SOL     hw 2311   2.112   1.244   6.442  0.4009 -1.9030  2.0917
  578SOL     vw 2312   2.078   1.188   6.384  0.8075 -0.2297  0.1435
  579SOL     ow 2313   2.026   6.792   4.230  0.0247  0.1231 -0.8495
  579SOL     hw 2314   2.043   6.774   4.137  0.3004 -0.9084 -0.6133
  579SOL     hw 2315   2.112   6.789   4.271 -0.3145 -1.8430 -0.1810
  579SOL     vw 2316   2.039   6.789   4.223  0.0163 -0.2725 -0.7298
  580SOL     ow 2317   2.385   2.193   0.182  0.2994  0.0261  0.3527
  580SOL     hw 2318   2.454   2.254   0.208  0.0084  0.6628 -0.3100
  580SOL     hw 2319   2.374   2.208   0.088 -1.7927  1.0658  0.6912
  580SOL     vw 2320   2.393   2.203   0.173 -0.0149  0.2472  0.3099
  581SOL     ow 2321   1.931   4.899   2.067 -0.3137 -0.1162 -0.0543
  581SOL     hw 2322   1.911   4.889   2.160 -1.9282  0.0708 -0.3530
  581SOL     hw 2323   1.999   4.967   2.064 -0.4343  0.0691  0.9631
  581SOL     vw 2324   1.937   4.907   2.079 -0.5426 -0.0672  0.0407
  582SOL     ow 2325   6.632   2.609   6.559  0.2918 -0.4266 -0.2032
  582SOL     hw 2326   6.579   2.599   6.639 -0.2406  0.3188 -0.4501
  582SOL     hw 2327   6.722   2.604   6.589  0.1215  1.1230  0.6419
  582SOL     vw 2328   6.637   2.607   6.574  0.1988 -0.1239 -0.1247
  583SOL     ow 2329   2.460   7.380   3.850  0.2804  0.0776  0.5908
  583SOL     hw 2330   2.395   7.451   3.842 -2.0897 -1.9467  0.7445
  583SOL     hw 2331   2.532   7.408   3.794 -0.4490  2.6964  0.8156
  583SOL     vw 2332   2.461   7.393   3.841 -0.1284  0.1559  0.6407
  584SOL     ow 2333   3.097   3.827   2.506 -0.1788 -0.1957  0.0245
  584SOL     hw 2334   3.008   3.852   2.482 -0.3067 -0.6990 -0.0304
  584SOL     hw 2335   3.093   3.733   2.523  1.2045 -1.2566 -4.3138
  584SOL     vw 2336   3.085   3.818   2.505 -0.0131 -0.4021 -0.5550
  585SOL     ow 2337   2.224   6.717   2.595  0.5141 -0.4655  0.0463
  585SOL     hw 2338   2.169   6.658   2.544  1.2093 -0.8436 -0.2794
  585SOL     hw 2339   2.294   6.743   2.534  1.2729 -0.8063  0.7472
  585SOL     vw 2340   2.226   6.713   2.580  0.7060 -0.5605  0.0957
  586SOL     ow 2341   1.922   2.946   5.784 -0.2806 -0.0427 -0.1701
  586SOL     hw 2342   1.916   2.978   5.874 -1.0685  3.1016 -1.2045
  586SOL     hw 2343   1.850   2.883   5.776  1.2950 -2.2830  1.9829
  586SOL     vw 2344   1.911   2.942   5.795 -0.1767  0.0764 -0.0224
  587SOL     ow 2345   4.154   6.555   2.196  0.0842  0.1957  0.7658
  587SOL     hw 2346   4.189   6.574   2.109 -0.6504  0.5361  0.5375
  587SOL     hw 2347   4.139   6.461   2.195 -2.5823  0.5562 -0.5160
  587SOL     vw 2348   4.157   6.545   2.185 -0.3645  0.2880  0.5665
  588SOL     ow 2349   0.456   5.226   4.398  0.5351  0.1975 -0.2866
  588SOL     hw 2350   0.390   5.233   4.468  0.2922  2.8390 -0.6809
  588SOL     hw 2351   0.412   5.261   4.321  1.7735  0.1048 -1.0460
  588SOL     vw 2352   0.441   5.231   4.397  0.6664  0.5341 -0.4389
  589SOL     ow 2353   1.105   2.077   3.203 -0.7453  0.4327  0.6255
  589SOL     hw 2354   1.141   2.165   3.191  0.5265 -0.0211  1.0247
  589SOL     hw 2355   1.169   2.019   3.163 -1.5676 -0.3279  0.3796
  589SOL     vw 2356   1.118   2.081   3.196 -0.6860  0.2724  0.6456
  590SOL     ow 2357   1.087   1.529   1.546  0.2111 -0.7644  0.1718
  590SOL     hw 2358   1.055   1.491   1.464 -1.4798  1.3530 -0.2132
  590SOL     hw 2359   1.026   1.600   1.566  1.8897  0.2471  2.0842
  590SOL     vw 2360   1.075   1.533   1.538  0.2096 -0.3515  0.3733
  591SOL     ow 2361   1.894   4.311   0.500 -0.2261 -0.2574 -0.9260
  591SOL     hw 2362   1.969   4.277   0.549  0.1116  1.9016  0.1875
  591SOL     hw 2363   1.886   4.252   0.425  0.7241 -2.2814  0.4758
  591SOL     vw 2364   1.903   4.298   0.497 -0.0561 -0.2396 -0.5941
  592SOL     ow 2365   3.745   3.503   1.602  0.0486  0.4491  0.6815
  592SOL     hw 2366   3.688   3.485   1.677  0.6322 -0.4759  0.9289
  592SOL     hw 2367   3.742   3.422   1.551  1.0964  0.4003  0.6764
  592SOL     vw 2368   3.737   3.490   1.605  0.2637  0.3207  0.7135
  593SOL     ow 2369   1.162   7.348   4.263 -0.1637 -0.0288 -0.2702
  593SOL     hw 2370   1.137   7.414   4.198  1.9891  0.4360 -0.6936
  593SOL     hw 2371   1.096   7.357   4.332 -0.5886  1.8029 -0.8460
  593SOL     vw 2372   1.150   7.358   4.264  0.0643  0.2742 -0.4020
  594SOL     ow 2373   1.603   6.017   3.575 -0.1131  0.1468 -0.1681
  594SOL     hw 2374   1.651   6.005   3.493 -0.5900  2.0343 -0.7861
  594SOL     hw 2375   1.512   6.029   3.548  0.0128  3.0719  0.3241
  594SOL     vw 2376   1.597   6.017   3.561 -0.1594  0.7818 -0.1848
  595SOL     ow 2377   0.233   6.546   3.838  0.0965 -0.0865 -0.8156
  595SOL     hw 2378   0.253   6.453   3.847 -0.3839 -0.0469  0.8755
  595SOL     hw 2379   0.142   6.554   3.865 -0.3857  0.6686 -2.5067
  595SOL     vw 2380   0.224   6.535   3.842 -0.0305  0.0181 -0.8155
  596SOL     ow 2381   5.420   3.272   5.293 -0.2798 -0.2807  0.0949
  596SOL     hw 2382   5.475   3.228   5.359 -0.0437 -0.5685 -0.2896
  596SOL     hw 2383   5.416   3.210   5.221 -0.4224  0.0951 -0.2224
  596SOL     vw 2384   5.427   3.258   5.292 -0.2675 -0.2691  0.0024
  597SOL     ow 2385   4.672   5.639   3.602  0.0865 -0.3469 -0.0464
  597SOL     hw 2386   4.671   5.562   3.659 -2.6557  0.8601  1.7460
  597SOL     hw 2387   4.673   5.603   3.513  0.2988 -2.3993  0.7263
  597SOL     vw 2388   4.672   5.624   3.598 -0.2470 -0.4587  0.2921
  598SOL     ow 2389   0.764   5.761   6.324 -0.3798 -0.2305  0.1676
  598SOL     hw 2390   0.743   5.724   6.237  1.8951  2.0251 -1.4736
  598SOL     hw 2391   0.695   5.825   6.339 -0.5059 -0.2778 -0.1929
  598SOL     vw 2392   0.752   5.764   6.314 -0.0963  0.0608 -0.0963
  599SOL     ow 2393   7.342   3.155   0.746 -0.1305 -0.0173  0.0350
  599SOL     hw 2394   7.275   3.179   0.809  0.0750 -1.3787  0.7890
  599SOL     hw 2395   7.355   3.061   0.757  2.0485  0.2233  0.0773
  599SOL     vw 2396   7.335   3.146   0.756  0.1841 -0.1651  0.1401
  600SOL     ow 2397   4.797   7.119   7.469  0.3544  0.2670 -0.5454
  600SOL     hw 2398   4.872   7.060   7.477 -1.6147 -2.3583 -0.1695
  600SOL     hw 2399   4.821   7.196   7.520  2.6746 -0.5630 -0.2657
  600SOL     vw 2400   4.810   7.121   7.477  0.4010 -0.1888 -0.4590
  601SOL     ow 2401   6.740   0.640   5.152  0.2207 -0.2645 -0.2039
  601SOL     hw 2402   6.734   0.575   5.222 -1.7798 -0.4743 -0.5153
  601SOL     hw 2403   6.754   0.723   5.197  0.3022 -0.5764  0.3517
  601SOL     vw 2404   6.741   0.643   5.167 -0.0327 -0.3333 -0.1714
  602SOL     ow 2405   0.533   3.238   0.948 -0.1884  0.4828 -0.0406
  602SOL     hw 2406   0.601   3.172   0.965 -0.3572  0.4891  0.7034
  602SOL     hw 2407   0.456   3.204   0.994 -0.2482  1.2454  0.4348
  602SOL     vw 2408   0.532   3.225   0.957 -0.2185  0.5841  0.1203
  603SOL     ow 2409   7.167   5.203   1.004  0.1307 -0.5111 -0.0560
  603SOL     hw 2410   7.144   5.145   1.077 -1.6815  0.1333 -0.0623
  603SOL     hw 2411   7.116   5.282   1.020  0.2456 -0.0901 -1.6672
  603SOL     vw 2412   7.157   5.206   1.016 -0.0930 -0.3705 -0.2694
  604SOL     ow 2413   4.692   6.736   0.734  0.6918 -0.8515  0.0347
  604SOL     hw 2414   4.750   6.738   0.810 -0.1428  0.0144  0.6758
  604SOL     hw 2415   4.744   6.773   0.663  0.5238  1.2268  0.9307
  604SOL     vw 2416   4.706   6.741   0.735  0.5596 -0.4632  0.2375
  605SOL     ow 2417   3.404   5.645   1.541 -0.1713 -0.6059  0.1326
  605SOL     hw 2418   3.314   5.624   1.515 -1.0156 -1.1649  3.0552
  605SOL     hw 2419   3.452   5.563   1.529 -0.4335 -0.7431  0.0097
  605SOL     vw 2420   3.399   5.632   1.536 -0.3173 -0.6976  0.5019
  606SOL     ow 2421   4.603   0.382   0.718 -1.0782  0.6455  0.1098
  606SOL     hw 2422   4.575   0.448   0.782 -1.4573 -1.5802  2.3769
  606SOL     hw 2423   4.522   0.356   0.674 -0.9341  1.5846 -0.7604
  606SOL     vw 2424   4.589   0.387   0.720 -1.1094  0.4757  0.2941
  607SOL     ow 2425   0.322   4.639   3.468 -0.0753 -0.2526 -1.1956
  607SOL     hw 2426   0.348   4.668   3.555  0.4511  1.0828 -1.7604
  607SOL     hw 2427   0.350   4.548   3.463  0.4899 -0.1421 -0.2051
  607SOL     vw 2428   0.329   4.631   3.479  0.0687 -0.0618 -1.1395
  608SOL     ow 2429   5.503   7.460   5.203 -0.2725 -0.2271  0.1972
  608SOL     hw 2430   5.482   7.444   5.295 -3.4193  0.6042 -0.2608
  608SOL     hw 2431   5.494   7.374   5.161  0.7862 -0.5318  0.5592
  608SOL     vw 2432   5.499   7.446   5.210 -0.5479 -0.1576  0.1843
  609SOL     ow 2433   3.478   6.167   2.226 -0.2806 -0.3038  0.1730
  609SOL     hw 2434   3.438   6.160   2.313 -0.0019  0.3934  0.3629
  609SOL     hw 2435   3.572   6.168   2.242 -0.2140 -0.5636 -0.1715
  609SOL     vw 2436   3.485   6.166   2.239 -0.2350 -0.2463  0.1526
  610SOL     ow 2437   2.044   5.212   1.003  0.1194  0.1674 -0.7701
  610SOL     hw 2438   1.987   5.289   1.005 -0.0491  0.0684 -1.5839
  610SOL     hw 2439   1.984   5.138   0.999  0.2668 -0.0524  0.6977
  610SOL     vw 2440   2.029   5.213   1.003  0.1165  0.1256 -0.6838
  611SOL     ow 2441   2.775   5.076   2.403 -0.9200  0.0278 -0.4283
  611SOL     hw 2442   2.797   5.003   2.461  0.1088 -0.1417 -1.0025
  611SOL     hw 2443   2.808   5.049   2.317  1.0125  1.8280 -0.3371
  611SOL     vw 2444   2.782   5.063   2.399 -0.5293  0.2429 -0.4921
  612SOL     ow 2445   5.746   2.436   0.473  0.3720 -0.1765  0.5762
  612SOL     hw 2446   5.829   2.437   0.425 -0.1661  0.6050 -0.3575
  612SOL     hw 2447   5.770   2.405   0.560  1.2722 -2.3589 -0.3628
  612SOL     vw 2448   5.760   2.432   0.478  0.4199 -0.3613  0.3291
  613SOL     ow 2449   2.646   1.351   5.844  0.0533 -0.4046  0.1236
  613SOL     hw 2450   2.647   1.282   5.910  1.3966 -0.2058  0.3249
  613SOL     hw 2451   2.736   1.381   5.839  0.1255 -0.8644 -2.3057
  613SOL     vw 2452   2.658   1.346   5.852  0.2401 -0.4390 -0.1705
  614SOL     ow 2453   7.100   5.844   1.024  0.0955  0.1612  0.2285
  614SOL     hw 2454   7.184   5.820   0.987  0.3427 -0.0423  0.9122
  614SOL     hw 2455   7.120   5.913   1.087  0.0627 -1.3816  2.0144
  614SOL     vw 2456   7.114   5.850   1.027  0.1240 -0.0691  0.5543
  615SOL     ow 2457   3.201   6.906   2.155 -0.6585 -0.0009  0.2473
  615SOL     hw 2458   3.154   6.827   2.128  0.0010  0.1463 -1.4076
  615SOL     hw 2459   3.181   6.970   2.088  0.2871  0.6871  0.5996
  615SOL     vw 2460   3.192   6.904   2.143 -0.4467  0.1092  0.0755
  616SOL     ow 2461   4.583   6.011   7.394  0.6860 -0.8403  0.0055
  616SOL     hw 2462   4.508   5.966   7.432 -0.4632  1.0192  0.0730
  616SOL     hw 2463   4.632   6.044   7.469  0.4094 -0.2773 -0.0548
  616SOL     vw 2464   4.579   6.010   7.409  0.4978 -0.5205  0.0064
  617SOL     ow 2465   1.273   0.002   6.662  0.7847 -0.1144  0.4199
  617SOL     hw 2466   1.200  -0.000   6.599  0.5247  0.5799  0.6892
  617SOL     hw 2467   1.234  -0.026   6.744  0.6776  0.8330  0.6991
  617SOL     vw 2468   1.258  -0.002   6.664  0.7363  0.1022  0.4923
  618SOL     ow 2469   5.037   7.442   3.588 -0.2657  0.1130  0.7364
  618SOL     hw 2470   5.024   7.451   3.682 -3.9343 -1.4837  0.5593
  618SOL     hw 2471   4.968   7.496   3.549 -0.5416 -1.3345 -0.9108
  618SOL     vw 2472   5.026   7.450   3.595 -0.7863 -0.2885  0.4957
  619SOL     ow 2473   6.121   4.015   2.830 -0.3497 -1.0305 -0.7407
  619SOL     hw 2474   6.187   4.019   2.900  1.4573 -1.4185 -2.3412
  619SOL     hw 2475   6.105   3.921   2.819 -0.3044 -0.9945 -1.1175
  619SOL     vw 2476   6.128   4.003   2.838 -0.1054 -1.0769 -1.0016
  620SOL     ow 2477   7.113   3.234   6.118  0.2496 -0.0094 -0.8382
  620SOL     hw 2478   7.113   3.193   6.031  2.1708  1.9935 -1.8844
  620SOL     hw 2479   7.206   3.250   6.136 -0.2443  1.2373  0.8107
  620SOL     vw 2480   7.125   3.231   6.109  0.4377  0.4193 -0.7589
  621SOL     ow 2481   4.649   6.961   0.147  0.1933 -0.0116  0.5586
  621SOL     hw 2482   4.693   7.035   0.106  1.8574  0.4520  2.9460
  621SOL     hw 2483   4.701   6.943   0.226 -1.3758 -2.3758  1.1608
  621SOL     vw 2484   4.662   6.968   0.152  0.2055 -0.2625  0.9530
  622SOL     ow 2485   4.068   2.971   2.596  0.2235 -0.0747 -0.8293
  622SOL     hw 2486   4.129   2.918   2.648 -0.4689  0.3706  0.4896
  622SOL     hw 2487   4.099   3.061   2.608 -0.3411  0.0948 -0.6234
  622SOL     vw 2488   4.081   2.976   2.605  0.0577  0.0064 -0.6281
  623SOL     ow 2489   1.122   0.241   1.205 -0.4084  0.9579 -0.1434
  623SOL     hw 2490   1.142   0.148   1.197 -0.9933  0.7839  0.3286
  623SOL     hw 2491   1.050   0.256   1.143 -1.4026  0.7317  0.9071
  623SOL     vw 2492   1.115   0.231   1.196 -0.6166  0.9051  0.0575
  624SOL     ow 2493   7.397   6.734   4.468  0.5084  0.1913  0.0243
  624SOL     hw 2494   7.426   6.788   4.542 -0.1797  0.8533 -0.1735
  624SOL     hw 2495   7.450   6.654   4.474 -0.3078 -0.2608  1.8996
  624SOL     vw 2496   7.408   6.730   4.478  0.3097  0.2191  0.2458
  625SOL     ow 2497   7.464   4.545   4.367  0.5380 -0.5464 -0.0802
  625SOL     hw 2498   7.516   4.480   4.415 -0.2870 -1.2252 -0.0773
  625SOL     hw 2499   7.404   4.581   4.433 -1.1650 -2.0693 -0.7110
  625SOL     vw 2500   7.463   4.541   4.382  0.2043 -0.8368 -0.1631
  626SOL     ow 2501   1.709   2.430   3.272  0.4260 -0.1814 -0.7218
  626SOL     hw 2502   1.715   2.337   3.294  2.1359  0.0971  0.1562
  626SOL     hw 2503   1.616   2.444   3.254 -0.6954 -1.1989  3.1625
  626SOL     vw 2504   1.698   2.419   3.273  0.5036 -0.2788 -0.0935
  627SOL     ow 2505   1.972   7.024   2.828 -0.0162  0.6082  0.3121
  627SOL     hw 2506   1.947   7.008   2.919 -0.8920  1.6629  0.2740
  627SOL     hw 2507   2.015   7.109   2.829  2.5326 -0.5697  0.1550
  627SOL     vw 2508   1.974   7.033   2.840  0.2046  0.5918  0.2865
  628SOL     ow 2509   1.612   0.956   0.116 -0.3753 -0.0599  0.0364
  628SOL     hw 2510   1.702   0.970   0.087  0.8398 -3.0046  1.8919
  628SOL     hw 2511   1.612   0.868   0.153 -3.7491  0.2951  1.2568
  628SOL     vw 2512   1.624   0.946   0.117 -0.6601 -0.4016  0.4422
  629SOL     ow 2513   5.072   6.349   4.045  0.2578 -0.2390 -0.2983
  629SOL     hw 2514   5.025   6.410   3.989 -0.2580 -0.2698  0.0974
  629SOL     hw 2515   5.155   6.393   4.065  0.1502  0.0618 -0.5155
  629SOL     vw 2516   5.077   6.363   4.040  0.1755 -0.2036 -0.2749
  630SOL     ow 2517   4.487   4.612   0.810 -0.0837 -0.2619  0.1321
  630SOL     hw 2518   4.445   4.585   0.892 -1.9438 -0.8635 -0.9676
  630SOL     hw 2519   4.420   4.663   0.765  1.3335  1.1120 -0.5110
  630SOL     vw 2520   4.473   4.615   0.815 -0.1419 -0.1597 -0.0978
  631SOL     ow 2521   1.823   4.481   2.925  0.3087  0.3985 -0.3201
  631SOL     hw 2522   1.893   4.529   2.969 -0.1240  1.2416 -0.5277
  631SOL     hw 2523   1.794   4.417   2.990 -0.9663  2.2354  1.0570
  631SOL     vw 2524   1.828   4.479   2.939  0.0833  0.7517 -0.1657
  632SOL     ow 2525   4.189   5.305   6.986  0.5863  0.3241  0.3359
  632SOL     hw 2526   4.285   5.298   6.983  0.5282 -3.0640  1.8549
  632SOL     hw 2527   4.160   5.265   6.904  0.4979 -0.7974  0.8903
  632SOL     vw 2528   4.198   5.299   6.975  0.5670 -0.2711  0.6096
  633SOL     ow 2529   6.642   4.723   0.062  0.0064 -0.1872  0.0240
  633SOL     hw 2530   6.670   4.642   0.104 -0.5840  1.0063  2.9628
  633SOL     hw 2531   6.708   4.787   0.087 -1.3199  0.9706  0.7325
  633SOL     vw 2532   6.654   4.721   0.071 -0.2465  0.1233  0.5052
  634SOL     ow 2533   6.703   5.652   0.915  0.0592 -0.1076  0.8272
  634SOL     hw 2534   6.635   5.585   0.924 -1.3013  1.1338  0.2961
  634SOL     hw 2535   6.666   5.715   0.853  2.2421 -0.0133 -0.4448
  634SOL     vw 2536   6.689   5.652   0.908  0.1676  0.0687  0.5893
  635SOL     ow 2537   1.848   5.981   2.929  0.5777 -0.4620 -0.5903
  635SOL     hw 2538   1.816   6.046   2.866  2.3537  1.5943  0.4915
  635SOL     hw 2539   1.898   5.919   2.876 -1.8968 -1.5748 -1.7720
  635SOL     vw 2540   1.850   5.982   2.914  0.4855 -0.3376 -0.6034
  636SOL     ow 2541   5.667   2.336   4.596 -0.0823  0.4609 -0.0493
  636SOL     hw 2542   5.760   2.328   4.620 -0.0726 -2.4761 -0.6684
  636SOL     hw 2543   5.668   2.337   4.500 -0.7022 -0.6308 -0.0832
  636SOL     vw 2544   5.680   2.335   4.587 -0.1631 -0.0707 -0.1354
  637SOL     ow 2545   0.755   6.339   1.396 -0.4640  0.0052  0.0414
  637SOL     hw 2546   0.835   6.368   1.352  1.6445  0.4752  3.7952
  637SOL     hw 2547   0.763   6.244   1.397 -1.0321 -0.0836 -1.3076
  637SOL     vw 2548   0.767   6.330   1.390 -0.2607  0.0553  0.3586
  638SOL     ow 2549   0.725   6.601   0.859 -0.3719  0.0119 -0.6138
  638SOL     hw 2550   0.693   6.529   0.915 -0.6565 -0.4293 -1.3306
  638SOL     hw 2551   0.812   6.620   0.893 -0.1240 -0.9533 -0.6705
  638SOL     vw 2552   0.732   6.594   0.871 -0.3767 -0.1736 -0.7158
  639SOL     ow 2553   4.777   1.992   6.732 -0.1668 -0.5071 -0.1511
  639SOL     hw 2554   4.779   1.957   6.821 -1.4196  0.9387  0.4879
  639SOL     hw 2555   4.719   2.068   6.737  0.3142  0.0449 -2.0544
  639SOL     vw 2556   4.769   1.997   6.744 -0.2687 -0.2435 -0.3178
  640SOL     ow 2557   1.190   5.858   6.957  0.4109 -0.2417  0.2943
  640SOL     hw 2558   1.159   5.921   7.022 -1.0933 -2.5263  1.9197
  640SOL     hw 2559   1.271   5.823   6.994  0.2854 -0.5651  0.2632
  640SOL     vw 2560   1.197   5.862   6.970  0.1959 -0.5860  0.5045
  641SOL     ow 2561   2.045   3.220   2.643 -0.0569 -0.0477  0.8750
  641SOL     hw 2562   2.110   3.215   2.712 -1.5701 -0.0394  2.3763
  641SOL     hw 2563   2.025   3.129   2.621  0.2176 -0.0530  0.6421
  641SOL     vw 2564   2.051   3.208   2.649 -0.2203 -0.0473  1.0422
  642SOL     ow 2565   5.653   6.718   2.814  0.2298  0.2246  0.2559
  642SOL     hw 2566   5.721   6.759   2.761  1.1625  0.4883  1.5982
  642SOL     hw 2567   5.700   6.660   2.874 -0.9855 -2.1388 -0.9410
  642SOL     vw 2568   5.668   6.716   2.815  0.1922 -0.0525  0.2751
  643SOL     ow 2569   6.471   0.721   5.923  0.0443 -0.2922  0.2045
  643SOL     hw 2570   6.441   0.633   5.945 -0.5852  0.2886  1.7611
  643SOL     hw 2571   6.454   0.773   6.001  0.4882  1.2053 -0.6536
  643SOL     vw 2572   6.465   0.716   5.936  0.0198 -0.0180  0.2966
  644SOL     ow 2573   1.772   0.186   3.038 -0.1573 -0.0137  0.2300
  644SOL     hw 2574   1.845   0.185   3.100 -0.1800 -0.2917  0.2577
  644SOL     hw 2575   1.794   0.116   2.975 -0.8444 -0.7374  0.7664
  644SOL     vw 2576   1.784   0.176   3.038 -0.2510 -0.1459  0.3045
  645SOL     ow 2577   4.806   7.086   1.019  0.0227  0.5104  0.0615
  645SOL     hw 2578   4.843   7.018   1.076 -0.0902 -0.7306 -1.2828
  645SOL     hw 2579   4.876   7.106   0.957 -0.3552  0.7483 -0.2940
  645SOL     vw 2580   4.820   7.080   1.019 -0.0422  0.3779 -0.1628
  646SOL     ow 2581   1.602   6.719   0.313  0.0769  0.3906 -0.3438
  646SOL     hw 2582   1.603   6.755   0.224  0.2779  1.9050  0.2443
  646SOL     hw 2583   1.509   6.709   0.334  0.0308 -0.0417 -0.7455
  646SOL     vw 2584   1.590   6.723   0.304  0.0973  0.5333 -0.3192
  647SOL     ow 2585   5.296   0.381   7.192  0.2506  0.6573 -0.5723
  647SOL     hw 2586   5.300   0.453   7.129 -1.1311  0.7384 -0.5869
  647SOL     hw 2587   5.241   0.315   7.150 -1.0507  0.8897  0.6875
  647SOL     vw 2588   5.289   0.382   7.178 -0.1035  0.6987 -0.4079
  648SOL     ow 2589   6.423   1.042   5.340 -0.0348  0.6906  0.1406
  648SOL     hw 2590   6.376   1.110   5.389  1.6398  0.7070  1.8593
  648SOL     hw 2591   6.486   1.090   5.287 -0.2929  0.5608 -0.2863
  648SOL     vw 2592   6.425   1.057   5.340  0.1521  0.6756  0.3111
  649SOL     ow 2593   3.515   7.362   1.838 -0.0005  0.3628 -0.0386
  649SOL     hw 2594   3.531   7.437   1.894  1.4753 -0.4100  0.6435
  649SOL     hw 2595   3.510   7.398   1.750  1.7375  1.1737  0.1491
  649SOL     vw 2596   3.516   7.376   1.834  0.4236  0.3679  0.0762
  650SOL     ow 2597   2.432   4.267   5.479  0.0973 -0.7032 -0.2345
  650SOL     hw 2598   2.500   4.301   5.537  0.3954 -2.5093  0.5346
  650SOL     hw 2599   2.375   4.343   5.464 -0.1207 -0.1674  2.6112
  650SOL     vw 2600   2.433   4.282   5.485  0.1079 -0.8709  0.2425
  651SOL     ow 2601   2.171   3.781   5.564 -0.2932  0.0400  0.6156
  651SOL     hw 2602   2.243   3.718   5.565 -0.6429 -0.4892 -1.6460
  651SOL     hw 2603   2.101   3.739   5.615 -0.4084 -1.3117 -0.5933
  651SOL     vw 2604   2.171   3.767   5.571 -0.3546 -0.2081  0.1578
  652SOL     ow 2605   5.905   7.009   6.162  0.0690  0.6271 -0.0241
  652SOL     hw 2606   5.912   6.955   6.242 -1.2079 -0.1664 -0.4172
  652SOL     hw 2607   5.940   7.094   6.188  0.6377  0.0827  1.0886
  652SOL     vw 2608   5.910   7.013   6.176 -0.0246  0.4506  0.0710
  653SOL     ow 2609   2.087   1.449   1.037  0.9604  0.2306  0.3671
  653SOL     hw 2610   2.074   1.418   1.127  3.8347  0.9048  1.1105
  653SOL     hw 2611   2.008   1.499   1.018 -0.2884 -0.9732  2.0293
  653SOL     vw 2612   2.075   1.451   1.047  1.1748  0.1608  0.6844
  654SOL     ow 2613   6.072   4.301   5.429 -0.0004  0.0975  0.2450
  654SOL     hw 2614   6.155   4.297   5.382 -0.4930 -0.2010 -0.6411
  654SOL     hw 2615   6.043   4.392   5.418 -1.0367 -0.4100 -1.7603
  654SOL     vw 2616   6.079   4.313   5.421 -0.2022 -0.0091 -0.1366
  655SOL     ow 2617   3.860   1.554   1.772  0.2986  0.1883 -0.1780
  655SOL     hw 2618   3.877   1.490   1.841 -0.0287 -0.4005 -0.6363
  655SOL     hw 2619   3.844   1.636   1.819 -0.8872 -0.4140  0.5001
  655SOL     vw 2620   3.860   1.556   1.788  0.0989  0.0311 -0.1491
  656SOL     ow 2621   3.223   0.615   7.383 -0.1205 -0.0205 -0.0490
  656SOL     hw 2622   3.266   0.694   7.351  0.9296 -0.0278  1.2526
  656SOL     hw 2623   3.249   0.546   7.322 -0.9835  0.5844 -1.1523
  656SOL     vw 2624   3.232   0.617   7.371 -0.0957  0.0583 -0.0229
  657SOL     ow 2625   6.499   3.302   7.083 -0.0639  0.1392 -0.0594
  657SOL     hw 2626   6.412   3.264   7.096 -0.8782  2.3161  1.4523
  657SOL     hw 2627   6.559   3.237   7.121 -1.3070 -0.0627  1.6888
  657SOL     vw 2628   6.495   3.288   7.090 -0.3355  0.3998  0.3707
  658SOL     ow 2629   1.170   6.183   3.065  0.4304  0.2520 -0.2373
  658SOL     hw 2630   1.117   6.142   3.133  1.7737 -0.7119  0.2530
  658SOL     hw 2631   1.144   6.275   3.067 -1.4203 -0.2389 -0.2234
  658SOL     vw 2632   1.160   6.190   3.074  0.3635  0.0598 -0.1708
  659SOL     ow 2633   1.976   6.144   3.113 -0.6597 -0.5261 -0.5227
  659SOL     hw 2634   2.068   6.120   3.111 -0.2767  0.8974 -1.1033
  659SOL     hw 2635   1.937   6.095   3.041 -0.7559 -2.4833  0.7725
  659SOL     vw 2636   1.983   6.134   3.103 -0.6219 -0.5965 -0.4283
  660SOL     ow 2637   5.829   7.236   6.890 -0.0377  0.5621  0.2520
  660SOL     hw 2638   5.884   7.158   6.897 -0.3642  0.2397 -0.6310
  660SOL     hw 2639   5.890   7.306   6.870  0.1725  0.3914  0.2863
  660SOL     vw 2640   5.844   7.235   6.889 -0.0534  0.4969  0.1397
  661SOL     ow 2641   0.437   2.415   4.083  0.0773  0.1543 -0.0490
  661SOL     hw 2642   0.413   2.365   4.161  0.0177  0.7036  0.2920
  661SOL     hw 2643   0.533   2.421   4.087  0.2427 -1.2643 -0.9317
  661SOL     vw 2644   0.447   2.409   4.094  0.0912  0.0396 -0.1204
  662SOL     ow 2645   4.445   7.131   3.047  0.3804  0.0772 -0.3100
  662SOL     hw 2646   4.501   7.184   2.991 -0.9033  0.3256 -1.4050
  662SOL     hw 2647   4.453   7.042   3.011  0.8586 -0.0902  0.1879
  662SOL     vw 2648   4.454   7.126   3.035  0.2739  0.0882 -0.3886
  663SOL     ow 2649   0.630   0.787   4.450  0.2729  0.2832 -0.0221
  663SOL     hw 2650   0.673   0.720   4.398 -1.3353 -1.3020  0.6015
  663SOL     hw 2651   0.559   0.818   4.395 -0.7437 -0.5977  0.7580
  663SOL     vw 2652   0.627   0.783   4.436 -0.0734 -0.0422  0.1631
  664SOL     ow 2653   5.130   5.599   5.386  0.3852 -0.4964 -0.2047
  664SOL     hw 2654   5.182   5.588   5.466  0.1402  0.5732  0.1117
  664SOL     hw 2655   5.040   5.583   5.413  0.5044 -2.4478 -0.7758
  664SOL     vw 2656   5.125   5.595   5.400  0.3686 -0.6130 -0.2384
  665SOL     ow 2657   4.304   4.562   1.585 -0.5385 -0.4056 -0.0134
  665SOL     hw 2658   4.399   4.566   1.574 -0.5494  0.8575  0.2055
  665SOL     hw 2659   4.269   4.604   1.506 -0.9180 -0.8638 -0.0949
  665SOL     vw 2660   4.312   4.568   1.573 -0.5901 -0.2992  0.0047
  666SOL     ow 2661   7.480   6.484   7.381 -0.1420  0.3141 -0.2150
  666SOL     hw 2662   7.464   6.439   7.464 -0.0771  0.2098 -0.2586
  666SOL     hw 2663   7.543   6.553   7.403  1.3507 -0.9120 -0.5357
  666SOL     vw 2664   7.486   6.487   7.395  0.0634  0.1385 -0.2630
  667SOL     ow 2665   6.366   5.558   1.590  0.5183  0.5721  0.4842
  667SOL     hw 2666   6.337   5.648   1.572  1.3201  0.6455 -0.5610
  667SOL     hw 2667   6.356   5.513   1.506  0.1576 -0.3110  0.9944
  667SOL     vw 2668   6.361   5.564   1.576  0.5765  0.4652  0.4136
  668SOL     ow 2669   1.891   2.505   2.527 -0.0566  0.2143  0.3328
  668SOL     hw 2670   1.892   2.499   2.432  2.5835 -2.3800  0.3749
  668SOL     hw 2671   1.937   2.587   2.547  0.1567  0.3408 -0.6529
  668SOL     vw 2672   1.898   2.515   2.517  0.3199 -0.1112  0.2083
  669SOL     ow 2673   5.285   0.473   2.052 -0.1538 -0.3192 -0.5921
  669SOL     hw 2674   5.209   0.505   2.002 -1.4137 -0.4243  1.1771
  669SOL     hw 2675   5.255   0.392   2.092  0.0853  0.7898  2.0001
  669SOL     vw 2676   5.271   0.466   2.051 -0.2887 -0.1867 -0.0166
  670SOL     ow 2677   3.300   4.043   5.429  0.0453  0.0353 -0.1358
  670SOL     hw 2678   3.347   4.065   5.349 -0.6382  0.1756 -0.5117
  670SOL     hw 2679   3.219   4.001   5.398 -0.2041  0.0489  0.4806
  670SOL     vw 2680   3.295   4.040   5.414 -0.0777  0.0553 -0.1042
  671SOL     ow 2681   1.937   7.312   6.499 -0.5055 -0.0761  0.5285
  671SOL     hw 2682   1.913   7.281   6.412  0.1654  0.4370  0.1492
  671SOL     hw 2683   1.923   7.407   6.496 -0.1869 -0.0138  0.8718
  671SOL     vw 2684   1.932   7.321   6.487 -0.3750 -0.0002  0.5238
  672SOL     ow 2685   3.141   3.655   2.184 -0.1198 -0.1728  0.2837
  672SOL     hw 2686   3.046   3.641   2.182 -0.0669 -0.5617  0.6755
  672SOL     hw 2687   3.178   3.573   2.214  0.6717 -1.5895 -3.8425
  672SOL     vw 2688   3.133   3.643   2.187 -0.0082 -0.4112 -0.2090
  673SOL     ow 2689   1.875   4.417   1.003 -0.7060 -0.4693 -0.0574
  673SOL     hw 2690   1.955   4.370   0.981 -1.1302 -0.8018 -0.9803
  673SOL     hw 2691   1.903   4.508   1.017 -0.2648 -0.4151 -1.1811
  673SOL     vw 2692   1.889   4.423   1.002 -0.7038 -0.5062 -0.3273
  674SOL     ow 2693   1.738   6.359   3.818  0.3240 -0.0510  0.1553
  674SOL     hw 2694   1.741   6.263   3.809 -2.6088 -0.2171  0.2610
  674SOL     hw 2695   1.810   6.389   3.762  0.8120 -2.2703 -0.5478
  674SOL     vw 2696   1.748   6.350   3.809  0.0014 -0.3655  0.0764
  675SOL     ow 2697   4.734   4.431   0.873  0.5906 -0.0312  0.3584
  675SOL     hw 2698   4.765   4.356   0.822 -1.0817 -0.6445  0.1848
  675SOL     hw 2699   4.676   4.393   0.938  0.8347  0.9915  1.1983
  675SOL     vw 2700   4.730   4.416   0.875  0.4022  0.0229  0.4463
  676SOL     ow 2701   6.387   7.495   2.657 -0.4989  0.4183  0.2907
  676SOL     hw 2702   6.385   7.460   2.746  1.2597  1.8450  0.9503
  676SOL     hw 2703   6.384   7.590   2.669  0.8844  0.6684 -1.0960
  676SOL     vw 2704   6.386   7.503   2.671 -0.0842  0.6394  0.1947
  677SOL     ow 2705   7.321   1.374   6.614 -0.1257  0.0124 -0.3378
  677SOL     hw 2706   7.325   1.421   6.531 -0.0984 -0.5798 -0.6743
  677SOL     hw 2707   7.243   1.409   6.658 -2.8586 -2.8272 -2.5410
  677SOL     vw 2708   7.311   1.385   6.609 -0.4823 -0.4404 -0.6728
  678SOL     ow 2709   6.671   5.426   1.260 -0.5194  0.3564 -0.4040
  678SOL     hw 2710   6.758   5.388   1.252 -1.1839 -0.8072 -3.1552
  678SOL     hw 2711   6.664   5.449   1.353  1.6340 -2.1302  0.5096
  678SOL     vw 2712   6.681   5.424   1.271 -0.3233 -0.1252 -0.6464
  679SOL     ow 2713   4.867   4.882   4.592 -0.1420  0.6359 -0.0569
  679SOL     hw 2714   4.887   4.851   4.504 -1.2270  0.7766 -0.3711
  679SOL     hw 2715   4.891   4.975   4.590  1.3283  0.2915  0.3048
  679SOL     vw 2716   4.873   4.890   4.580 -0.0911  0.6089 -0.0505
  680SOL     ow 2717   6.005   3.720   4.389  0.3250 -0.2416  0.1299
  680SOL     hw 2718   6.017   3.736   4.482 -0.6642 -1.7637  0.5537
  680SOL     hw 2719   6.089   3.682   4.360  0.6237  0.2111  0.3961
  680SOL     vw 2720   6.018   3.717   4.397  0.2339 -0.3825  0.2210
  681SOL     ow 2721   4.007   5.794   4.679 -0.5796  0.0440 -0.9379
  681SOL     hw 2722   3.980   5.721   4.736  1.8501  0.9791  1.6360
  681SOL     hw 2723   4.058   5.753   4.610 -2.2570 -0.9768 -1.6369
  681SOL     vw 2724   4.010   5.779   4.677 -0.4804  0.0327 -0.6902
  682SOL     ow 2725   5.066   7.442   3.854 -0.6280 -0.1918  0.0205
  682SOL     hw 2726   5.024   7.394   3.925  0.9186 -1.5969  0.0736
  682SOL     hw 2727   5.093   7.525   3.892 -0.8548 -0.4471  0.7472
  682SOL     vw 2728   5.064   7.446   3.868 -0.4539 -0.4110  0.1235
  683SOL     ow 2729   0.146   2.703   1.807  0.0798  0.2378 -1.0118
  683SOL     hw 2730   0.197   2.730   1.730 -0.2231 -0.9103 -1.6355
  683SOL     hw 2731   0.104   2.622   1.781 -0.6119  0.2015  0.1362
  683SOL     vw 2732   0.148   2.696   1.793 -0.0514  0.0815 -0.9427
  684SOL     ow 2733   2.189   0.913   5.137 -0.5715  0.1071 -0.1600
  684SOL     hw 2734   2.159   0.952   5.218  0.7841 -0.5428  0.6947
  684SOL     hw 2735   2.255   0.974   5.103 -0.5085 -0.0429 -0.3124
  684SOL     vw 2736   2.194   0.926   5.143 -0.3844  0.0016 -0.0675
  685SOL     ow 2737   1.501   1.282   1.087 -0.0912  0.1093  0.1788
  685SOL     hw 2738   1.424   1.327   1.052  0.8297  2.0357  0.4596
  685SOL     hw 2739   1.530   1.337   1.160  1.8262 -0.2744 -0.2317
  685SOL     vw 2740   1.495   1.295   1.092  0.2832  0.3129  0.1616
  686SOL     ow 2741   4.897   5.923   3.275 -0.4149  0.8265  0.4474
  686SOL     hw 2742   4.803   5.907   3.280 -0.7228  2.7463  2.2733
  686SOL     hw 2743   4.907   5.991   3.208 -0.7166  2.5917  2.1014
  686SOL     vw 2744   4.886   5.930   3.267 -0.4952  1.3127  0.9067
  687SOL     ow 2745   6.935   1.097   6.953 -0.1711  0.3036 -0.1259
  687SOL     hw 2746   6.984   1.180   6.954  0.8436 -0.2700  1.7585
  687SOL     hw 2747   6.935   1.068   7.044 -0.1808 -1.9734 -0.7927
  687SOL     vw 2748   6.942   1.104   6.965 -0.0386 -0.0725  0.0348
  688SOL     ow 2749   0.599   2.249   0.466  0.2728  0.3736 -0.3900
  688SOL     hw 2750   0.692   2.254   0.448  0.4292 -1.1309 -0.1520
  688SOL     hw 2751   0.588   2.299   0.547  1.3030 -1.3179  0.8691
  688SOL     vw 2752   0.609   2.256   0.475  0.4294 -0.0480 -0.1924
  689SOL     ow 2753   0.617   1.655   6.188 -0.1367  0.6818  0.0387
  689SOL     hw 2754   0.558   1.661   6.263 -1.2575 -1.0192 -0.6587
  689SOL     hw 2755   0.659   1.570   6.198 -1.5685 -0.3490 -2.1124
  689SOL     vw 2756   0.615   1.644   6.199 -0.4735  0.3213 -0.3369
  690SOL     ow 2757   0.799   3.048   3.961  0.2715 -0.5405 -0.1735
  690SOL     hw 2758   0.839   2.964   3.982  0.9129 -0.0620  0.5585
  690SOL     hw 2759   0.846   3.112   4.014 -1.4843  0.0533  0.7605
  690SOL     vw 2760   0.810   3.046   3.971  0.1245 -0.3990  0.0463
  691SOL     ow 2761   0.114   1.244   6.718 -0.1147  0.1369 -0.3882
  691SOL     hw 2762   0.087   1.162   6.676 -0.1643  0.5774 -1.2422
  691SOL     hw 2763   0.149   1.297   6.647 -1.4647  1.4373 -0.1313
  691SOL     vw 2764   0.115   1.240   6.703 -0.2994  0.3666 -0.4671
  692SOL     ow 2765   4.891   4.531   1.284 -0.4088 -0.4203  0.5161
  692SOL     hw 2766   4.934   4.539   1.369 -1.5797 -0.8207  1.1705
  692SOL     hw 2767   4.804   4.497   1.305 -0.8891 -0.0370 -0.8038
  692SOL     vw 2768   4.886   4.527   1.298 -0.6266 -0.4225  0.4284
  693SOL     ow 2769   5.679   1.592   5.846  0.4826  0.1802 -0.3989
  693SOL     hw 2770   5.622   1.669   5.840  0.1529  0.0821  1.0574
  693SOL     hw 2771   5.766   1.626   5.826  0.1843  0.7089 -0.8439
  693SOL     vw 2772   5.683   1.607   5.842  0.3996  0.2369 -0.2656
  694SOL     ow 2773   6.793   2.711   2.672  0.1576 -0.2100 -0.5738
  694SOL     hw 2774   6.732   2.767   2.722 -1.2039 -0.2085 -2.1438
  694SOL     hw 2775   6.800   2.631   2.724  0.9657  0.8214  0.9735
  694SOL     vw 2776   6.786   2.708   2.686  0.0846 -0.0737 -0.5767
  695SOL     ow 2777   2.698   7.190   3.368  0.4729 -0.2628  0.0495
  695SOL     hw 2778   2.771   7.251   3.376  0.3513 -0.2278  1.0371
  695SOL     hw 2779   2.623   7.237   3.404 -0.1621 -0.1110 -1.4193
  695SOL     vw 2780   2.698   7.204   3.374  0.3730 -0.2382 -0.0141
  696SOL     ow 2781   4.534   7.204   7.044  0.2099 -0.6742 -0.0334
  696SOL     hw 2782   4.594   7.236   7.112  0.0975 -1.0276  0.2358
  696SOL     hw 2783   4.459   7.170   7.092 -2.2623  3.6184 -0.4376
  696SOL     vw 2784   4.532   7.203   7.059 -0.1314 -0.1547 -0.0510
  697SOL     ow 2785   6.633   5.474   1.545 -0.8528  0.1608 -0.5283
  697SOL     hw 2786   6.715   5.520   1.562  0.0832 -1.2319 -1.1531
  697SOL     hw 2787   6.568   5.522   1.596  0.8391 -0.5174  2.5323
  697SOL     vw 2788   6.635   5.486   1.554 -0.5064 -0.1125 -0.2069
  698SOL     ow 2789   5.176   4.480   0.307 -0.0017  0.0932  0.2996
  698SOL     hw 2790   5.226   4.542   0.360  0.2207  0.4104 -0.2742
  698SOL     hw 2791   5.094   4.525   0.290 -0.1801 -0.1160  0.5875
  698SOL     vw 2792   5.172   4.494   0.312  0.0041  0.1078  0.2619
  699SOL     ow 2793   4.042   6.806   3.767 -0.4251  0.2890  0.2172
  699SOL     hw 2794   4.029   6.724   3.814  1.1144  0.8203  1.6388
  699SOL     hw 2795   4.029   6.782   3.675 -0.9021 -1.3399  0.6633
  699SOL     vw 2796   4.038   6.792   3.761 -0.2849  0.1442  0.4636
  700SOL     ow 2797   0.096   6.557   0.326 -0.0200  0.5198  0.1642
  700SOL     hw 2798   0.087   6.487   0.390 -0.4950  0.6982  0.2947
  700SOL     hw 2799   0.121   6.512   0.245  3.0505  0.4858  0.9790
  700SOL     vw 2800   0.098   6.542   0.324  0.3224  0.5391  0.2890
  701SOL     ow 2801   5.948   5.243   3.266  0.3419  0.5604 -0.2147
  701SOL     hw 2802   5.965   5.236   3.360 -1.0267  1.6567  0.1547
  701SOL     hw 2803   6.019   5.298   3.233 -0.0407  1.4931  0.4834
  701SOL     vw 2804   5.959   5.249   3.274  0.1111  0.8278 -0.0738
  702SOL     ow 2805   4.842   3.143   2.817 -0.9634  0.2810 -0.4037
  702SOL     hw 2806   4.778   3.098   2.872  1.0937  0.3192  2.2519
  702SOL     hw 2807   4.890   3.072   2.772 -1.2453  0.1262 -0.4595
  702SOL     vw 2808   4.840   3.128   2.818 -0.7291  0.2657 -0.0608
  703SOL     ow 2809   0.338   4.841   5.014  0.0600  0.4259 -0.5109
  703SOL     hw 2810   0.297   4.856   4.929 -0.4426  1.4547 -0.1066
  703SOL     hw 2811   0.266   4.808   5.069  0.8108 -2.2715 -0.9784
  703SOL     vw 2812   0.323   4.838   5.010  0.0928  0.2058 -0.5193
  704SOL     ow 2813   0.213   6.232   5.288 -0.1495  0.3990 -0.4774
  704SOL     hw 2814   0.137   6.284   5.315  0.5930  2.1990 -1.7057
  704SOL     hw 2815   0.289   6.285   5.311  0.5763  1.1212 -3.9398
  704SOL     vw 2816   0.213   6.246   5.294  0.0442  0.7319 -1.0960
  705SOL     ow 2817   2.572   3.944   6.193 -0.6226  0.0944 -0.7062
  705SOL     hw 2818   2.501   3.880   6.183 -2.1424  1.6411 -0.3319
  705SOL     hw 2819   2.645   3.906   6.144 -1.0756 -2.4261  0.3908
  705SOL     vw 2820   2.572   3.930   6.185 -0.8829 -0.0340 -0.5121
  706SOL     ow 2821   2.012   2.287   4.837 -0.0382  0.4676  0.2594
  706SOL     hw 2822   2.005   2.335   4.755  0.8570 -1.2790 -0.9142
  706SOL     hw 2823   1.922   2.272   4.864 -0.3534  0.8295 -0.5680
  706SOL     vw 2824   1.999   2.291   4.830  0.0383  0.2849 -0.0045
  707SOL     ow 2825   5.638   0.946   1.259 -0.0078 -0.0631  0.7341
  707SOL     hw 2826   5.638   0.863   1.308 -1.1664  0.3823  1.5359
  707SOL     hw 2827   5.682   1.008   1.317  0.0120  0.1010  0.5422
  707SOL     vw 2828   5.643   0.943   1.273 -0.1581  0.0173  0.8146
  708SOL     ow 2829   1.922   5.878   3.812  0.2346 -0.5487  0.7309
  708SOL     hw 2830   1.999   5.838   3.773  0.0250 -0.5802  0.3487
  708SOL     hw 2831   1.929   5.858   3.906  1.6614  1.0202  1.0149
  708SOL     vw 2832   1.933   5.870   3.819  0.3952 -0.3459  0.7179
  709SOL     ow 2833   0.817   3.616   6.048 -0.2425 -0.2718 -0.2209
  709SOL     hw 2834   0.813   3.704   6.011  0.8426  0.7753  1.9986
  709SOL     hw 2835   0.895   3.615   6.102  0.4158 -3.0076 -1.0277
  709SOL     vw 2836   0.827   3.627   6.050 -0.0125 -0.4946 -0.0346
  710SOL     ow 2837   2.384   0.619   6.967 -0.1607  0.5837 -0.5330
  710SOL     hw 2838   2.347   0.534   6.992 -1.3763  0.3187 -2.9103
  710SOL     hw 2839   2.316   0.682   6.988  0.6667  0.9846  1.0509
  710SOL     vw 2840   2.370   0.616   6.973 -0.2118  0.6017 -0.6375
  711SOL     ow 2841   6.851   2.931   7.460  0.1196  0.0359 -0.0764
  711SOL     hw 2842   6.779   2.967   7.511 -0.1203  0.5326 -0.7670
  711SOL     hw 2843   6.881   2.856   7.512 -1.7285 -0.9799 -0.4085
  711SOL     vw 2844   6.846   2.926   7.474 -0.1559 -0.0327 -0.2112
  712SOL     ow 2845   7.145   0.284   6.274  0.5190 -0.0438  0.2474
  712SOL     hw 2846   7.077   0.284   6.207  1.2023  1.7509 -0.5007
  712SOL     hw 2847   7.189   0.200   6.263 -0.0611 -0.2269 -0.8303
  712SOL     vw 2848   7.142   0.273   6.264  0.5326  0.1688  0.0064
  713SOL     ow 2849   2.171   5.185   6.132  0.5245  0.0686  0.6255
  713SOL     hw 2850   2.107   5.224   6.072  1.9019  1.3573 -0.0911
  713SOL     hw 2851   2.124   5.172   6.214 -1.3899 -1.6353 -0.6601
  713SOL     vw 2852   2.157   5.188   6.135  0.4535  0.0138  0.3614
  714SOL     ow 2853   6.565   5.928   5.786 -0.1165  0.2923 -0.1277
  714SOL     hw 2854   6.587   6.020   5.778  0.1499  0.2847  0.4593
  714SOL     hw 2855   6.474   5.927   5.813 -0.0101  0.3959  0.2413
  714SOL     vw 2856   6.556   5.940   5.789 -0.0672  0.3052 -0.0017
  715SOL     ow 2857   6.132   3.247   4.681 -0.2597 -0.5442  0.3071
  715SOL     hw 2858   6.072   3.314   4.650 -0.0991  0.0178  1.1737
  715SOL     hw 2859   6.093   3.164   4.654  0.2663 -0.0843 -2.0838
  715SOL     vw 2860   6.119   3.245   4.674 -0.1690 -0.4092  0.1061
  716SOL     ow 2861   5.114   1.788   4.933 -0.8226 -0.5049  0.3087
  716SOL     hw 2862   5.091   1.879   4.914 -1.0576 -0.4322  0.9229
  716SOL     hw 2863   5.040   1.737   4.899 -0.5989 -0.4832 -0.2146
  716SOL     vw 2864   5.101   1.793   4.926 -0.8240 -0.4925  0.3209
  717SOL     ow 2865   6.378   5.122   2.442 -0.5903  0.2279 -0.4372
  717SOL     hw 2866   6.388   5.078   2.357  2.3183 -0.3814  0.1129
  717SOL     hw 2867   6.435   5.198   2.437 -1.2167  0.7983  0.6222
  717SOL     vw 2868   6.386   5.126   2.430 -0.2894  0.2227 -0.2247
  718SOL     ow 2869   1.417   4.717   2.331 -0.0126 -0.6679  0.2933
  718SOL     hw 2870   1.428   4.809   2.358  0.9003 -1.1079  1.5468
  718SOL     hw 2871   1.328   4.695   2.357 -0.1609 -0.1995  0.1920
  718SOL     vw 2872   1.407   4.726   2.338  0.0883 -0.6640  0.4452
  719SOL     ow 2873   1.616   6.047   1.220 -0.4903  0.2832  0.0985
  719SOL     hw 2874   1.603   6.024   1.128 -0.0872  0.3222  0.0293
  719SOL     hw 2875   1.659   6.132   1.218  0.1545 -0.0311  0.3074
  719SOL     vw 2876   1.620   6.055   1.208 -0.3520  0.2470  0.1170
  720SOL     ow 2877   1.859   4.161   1.883  0.0565 -0.7509  0.6136
  720SOL     hw 2878   1.943   4.173   1.928 -0.5686 -3.1802  2.5924
  720SOL     hw 2879   1.793   4.184   1.949 -0.8577 -1.2027 -0.1246
  720SOL     vw 2880   1.861   4.166   1.898 -0.1466 -1.1308  0.7772
  721SOL     ow 2881   6.500   4.869   5.041  0.3807 -0.8070 -0.1743
  721SOL     hw 2882   6.406   4.868   5.053  0.3958 -1.3261 -0.0877
  721SOL     hw 2883   6.536   4.834   5.122  0.6432 -0.6462 -0.2201
  721SOL     vw 2884   6.493   4.864   5.053  0.4175 -0.8545 -0.1690
  722SOL     ow 2885   1.518   6.501   2.075 -0.1225  0.0578  0.4018
  722SOL     hw 2886   1.539   6.523   2.166 -0.5242  0.9173  0.2974
  722SOL     hw 2887   1.603   6.486   2.034 -0.0154 -2.4964  1.4109
  722SOL     vw 2888   1.532   6.502   2.081 -0.1614 -0.1659  0.5212
  723SOL     ow 2889   6.669   0.589   3.621 -0.0531 -0.0280  0.4483
  723SOL     hw 2890   6.715   0.616   3.701  0.2928  2.0746 -0.3872
  723SOL     hw 2891   6.618   0.513   3.647 -2.7520  2.5723  3.6787
  723SOL     vw 2892   6.668   0.582   3.635 -0.3633  0.5925  0.7644
  724SOL     ow 2893   2.247   1.970   0.224 -0.0935  0.7737  0.3578
  724SOL     hw 2894   2.285   2.056   0.206 -0.3860  1.1361  1.4308
  724SOL     hw 2895   2.173   1.963   0.164 -1.0368  1.9523  1.3236
  724SOL     vw 2896   2.243   1.980   0.214 -0.2565  0.9771  0.6268
  725SOL     ow 2897   5.348   6.097   0.488  0.1144  0.4968  0.0188
  725SOL     hw 2898   5.362   6.063   0.577  0.2094 -0.2237 -0.2680
  725SOL     hw 2899   5.262   6.066   0.464  0.0913  0.6891 -0.1481
  725SOL     vw 2900   5.339   6.089   0.497  0.1237  0.4272 -0.0411
  726SOL     ow 2901   3.933   4.104   5.115 -0.2281 -0.1055 -0.3270
  726SOL     hw 2902   3.854   4.052   5.123  0.7251 -1.3704  1.6939
  726SOL     hw 2903   4.003   4.041   5.099  0.6297  0.7689 -0.1891
  726SOL     vw 2904   3.932   4.089   5.114  0.0110 -0.1569 -0.0422
  727SOL     ow 2905   1.540   6.876   2.332 -0.1202 -0.1454  0.2239
  727SOL     hw 2906   1.512   6.806   2.391  2.6021 -0.3631  1.3936
  727SOL     hw 2907   1.606   6.835   2.276  0.1536  1.0411 -0.3553
  727SOL     vw 2908   1.545   6.861   2.332  0.2751 -0.0174  0.3017
  728SOL     ow 2909   6.151   5.504   0.353  0.3064 -0.1792  0.2302
  728SOL     hw 2910   6.119   5.579   0.302 -0.1170 -0.2256  0.4214
  728SOL     hw 2911   6.215   5.462   0.296  0.4368  0.2427  0.0620
  728SOL     vw 2912   6.155   5.508   0.339  0.2680 -0.1299  0.2332
  729SOL     ow 2913   4.340   1.143   1.839 -0.1882 -0.1946  0.5675
  729SOL     hw 2914   4.254   1.184   1.842  0.4664  1.2432  1.1494
  729SOL     hw 2915   4.400   1.216   1.823  0.7890 -1.3816 -1.6507
  729SOL     vw 2916   4.337   1.158   1.837  0.0269 -0.1615  0.3516
  730SOL     ow 2917   4.564   4.602   4.693  0.3254 -0.4833 -0.4182
  730SOL     hw 2918   4.529   4.533   4.637 -1.4115  0.9844 -1.2554
  730SOL     hw 2919   4.562   4.565   4.782  1.5882 -2.2640 -1.0910
  730SOL     vw 2920   4.559   4.588   4.698  0.2627 -0.5245 -0.6173
  731SOL     ow 2921   1.561   0.645   2.737 -0.3528 -0.1367 -0.1372
  731SOL     hw 2922   1.487   0.650   2.676 -0.4680  0.3036  0.0367
  731SOL     hw 2923   1.563   0.553   2.765 -0.0650 -0.4287 -1.0874
  731SOL     vw 2924   1.551   0.634   2.733 -0.3300 -0.1172 -0.2396
  732SOL     ow 2925   5.446   0.257   1.126  0.0411  0.5354 -0.0353
  732SOL     hw 2926   5.422   0.266   1.219 -1.1420  1.7545 -0.4252
  732SOL     hw 2927   5.507   0.329   1.110  1.1177 -0.3408  0.0464
  732SOL     vw 2928   5.451   0.268   1.136  0.0267  0.5807 -0.0760
  733SOL     ow 2929   6.955   5.014   5.717  0.2191  0.1308  0.2047
  733SOL     hw 2930   6.907   4.953   5.661  2.1801 -0.1714 -1.2154
  733SOL     hw 2931   6.917   5.001   5.805 -2.5879  0.2672 -0.8737
  733SOL     vw 2932   6.943   5.004   5.722  0.1075  0.1092 -0.1249
  734SOL     ow 2933   4.061   0.650   0.551 -0.3476  0.7511 -0.3570
  734SOL     hw 2934   4.103   0.564   0.543  0.0881  1.0275 -1.2633
  734SOL     hw 2935   3.984   0.635   0.605 -0.3246 -0.2229 -0.5838
  734SOL     vw 2936   4.057   0.637   0.557 -0.2868  0.6591 -0.5065
  735SOL     ow 2937   5.161   6.707   1.876 -0.0877  0.3022  0.2761
  735SOL     hw 2938   5.089   6.649   1.902 -0.7350  0.8315 -0.2940
  735SOL     hw 2939   5.162   6.775   1.944 -0.1238  0.2979  0.2811
  735SOL     vw 2940   5.152   6.708   1.889 -0.1779  0.3717  0.2016
  736SOL     ow 2941   0.006   3.714   4.936 -0.2627  0.1530 -0.0653
  736SOL     hw 2942   0.042   3.725   4.849 -0.7529  0.6140 -0.2116
  736SOL     hw 2943   0.082   3.693   4.991 -0.0364 -0.8097 -0.7127
  736SOL     vw 2944   0.021   3.712   4.932 -0.2975  0.0868 -0.1700
  737SOL     ow 2945   0.039   6.255   5.019 -0.0844 -0.0058  0.1590
  737SOL     hw 2946  -0.037   6.217   4.976 -0.9231 -0.4869  1.9694
  737SOL     hw 2947   0.028   6.349   5.008  1.3015 -0.0708 -3.1791
  737SOL     vw 2948   0.028   6.262   5.012 -0.0122 -0.0777 -0.0424
  738SOL     ow 2949   1.873   5.635   2.175  0.2482  0.1748 -0.5303
  738SOL     hw 2950   1.940   5.568   2.186 -0.0101  0.0420  0.3144
  738SOL     hw 2951   1.879   5.661   2.083  1.9279  0.6779 -0.2977
  738SOL     vw 2952   1.882   5.629   2.164  0.4358  0.2239 -0.3881
  739SOL     ow 2953   2.320   1.187   5.364 -0.0626 -0.4858  0.2968
  739SOL     hw 2954   2.335   1.098   5.395 -1.4921 -1.2902 -1.1719
  739SOL     hw 2955   2.227   1.202   5.378 -0.3877 -0.2293 -1.8410
  739SOL     vw 2956   2.310   1.177   5.370 -0.2941 -0.5581 -0.1793
  740SOL     ow 2957   0.126   0.228   4.366  0.6923 -0.2671 -0.6791
  740SOL     hw 2958   0.175   0.285   4.425 -1.5090  0.7447  0.3191
  740SOL     hw 2959   0.144   0.262   4.279 -2.0610  3.5142 -0.0505
  740SOL     vw 2960   0.135   0.240   4.363  0.0386  0.3653 -0.4647
  741SOL     ow 2961   2.026   4.726   7.499  0.1350  0.5543  0.0397
  741SOL     hw 2962   2.070   4.751   7.580  2.3097 -0.0712 -0.8563
  741SOL     hw 2963   2.051   4.795   7.436  0.8485 -0.4062 -0.7760
  741SOL     vw 2964   2.035   4.738   7.501  0.5162  0.3452 -0.1861
  742SOL     ow 2965   3.959   7.034   6.240 -0.0548 -0.0609  0.5765
  742SOL     hw 2966   3.991   7.051   6.151 -0.0329  1.1245  0.7954
  742SOL     hw 2967   3.864   7.044   6.233 -0.0869 -0.3376  0.6126
  742SOL     vw 2968   3.951   7.037   6.227 -0.0561  0.0589  0.6104
  743SOL     ow 2969   7.451   1.110   4.306  0.6502  0.0729 -0.6893
  743SOL     hw 2970   7.443   1.150   4.392  0.9479 -1.6023  0.1544
  743SOL     hw 2971   7.423   1.020   4.319  2.7098 -0.7965 -1.8582
  743SOL     vw 2972   7.446   1.104   4.319  0.9611 -0.2629 -0.7322
  744SOL     ow 2973   1.660   2.976   5.137  0.1384 -0.3322  0.1912
  744SOL     hw 2974   1.633   2.976   5.045 -2.1604 -0.0961  0.7926
  744SOL     hw 2975   1.686   3.067   5.154  0.9435 -0.4599 -0.2962
  744SOL     vw 2976   1.660   2.988   5.127 -0.0587 -0.3181  0.2062
  745SOL     ow 2977   0.408   0.218   1.371  0.0157  0.5703 -0.1545
  745SOL     hw 2978   0.460   0.280   1.422 -1.0533  1.4847 -0.1286
  745SOL     hw 2979   0.354   0.273   1.314  0.2032 -0.3930 -1.3108
  745SOL     vw 2980   0.407   0.234   1.370 -0.1006  0.5638 -0.3036
  746SOL     ow 2981   5.685   5.970   5.752  0.5536 -0.2885 -0.1627
  746SOL     hw 2982   5.675   5.942   5.661 -1.7235  0.3285 -0.1483
  746SOL     hw 2983   5.718   6.060   5.747  0.0900 -0.1300 -0.3958
  746SOL     vw 2984   5.688   5.978   5.740  0.1922 -0.1860 -0.1917
  747SOL     ow 2985   0.419   0.767   6.486 -0.0328  1.0035  0.5162
  747SOL     hw 2986   0.350   0.833   6.485 -0.6558  0.3931  1.3023
  747SOL     hw 2987   0.499   0.816   6.471 -0.5767  1.8108  0.1714
  747SOL     vw 2988   0.420   0.782   6.484 -0.1868  1.0295  0.5744
  748SOL     ow 2989   3.493   3.846   4.648 -0.5031 -0.3086  0.1587
  748SOL     hw 2990   3.490   3.937   4.679 -1.0362 -0.6064  1.0130
  748SOL     hw 2991   3.408   3.810   4.673 -0.2119 -1.1047  0.0050
  748SOL     vw 2992   3.482   3.854   4.655 -0.5351 -0.4531  0.2513
  749SOL     ow 2993   5.782   0.012   2.988  0.2469  0.1977 -0.0107
  749SOL     hw 2994   5.730   0.017   3.068 -1.3349 -1.8506 -0.8386
  749SOL     hw 2995   5.872   0.030   3.017 -0.0438 -1.8793  2.5221
  749SOL     vw 2996   5.787   0.015   3.002  0.0000 -0.3466  0.2142
  750SOL     ow 2997   5.938   3.762   2.068 -0.2694 -0.4251  0.4120
  750SOL     hw 2998   5.879   3.693   2.098 -1.2296  0.5269  0.7675
  750SOL     hw 2999   5.887   3.843   2.075 -0.5254 -0.0577 -3.6122
  750SOL     vw 3000   5.924   3.764   2.073 -0.4299 -0.2509 -0.0720
  751SOL     ow 3001   0.129   3.145   2.738 -0.2550 -0.3111 -0.0737
  751SOL     hw 3002   0.183   3.224   2.735 -0.8574  0.1305  0.4493
  751SOL     hw 3003   0.159   3.098   2.817 -1.0990  0.2907  0.6267
  751SOL     vw 3004   0.140   3.149   2.748 -0.4458 -0.1733  0.0879
  752SOL     ow 3005   3.545   0.600   1.390 -0.1424  0.1750  0.2899
  752SOL     hw 3006   3.556   0.505   1.385 -1.6081  0.0033 -0.1216
  752SOL     hw 3007   3.615   0.629   1.449  1.4302 -0.9237 -0.9499
  752SOL     vw 3008   3.556   0.591   1.397 -0.1284  0.0074  0.0719
  753SOL     ow 3009   3.576   3.339   7.155  0.3948  0.3292 -0.0801
  753SOL     hw 3010   3.646   3.367   7.214 -1.5987  1.1282  2.0587
  753SOL     hw 3011   3.578   3.244   7.157  1.5629  0.3444 -0.2634
  753SOL     vw 3012   3.585   3.330   7.163  0.2860  0.4367  0.1779
  754SOL     ow 3013   3.798   6.987   1.895 -0.1931  0.0934 -0.2412
  754SOL     hw 3014   3.859   6.944   1.835 -1.4412 -1.2589 -0.6138
  754SOL     hw 3015   3.785   7.074   1.856 -0.3450 -0.4654 -1.5177
  754SOL     vw 3016   3.804   6.993   1.882 -0.3778 -0.1585 -0.4588
  755SOL     ow 3017   1.646   5.789   2.246 -0.1997 -0.1826 -0.1424
  755SOL     hw 3018   1.607   5.713   2.203 -2.9443  0.9963  0.0920
  755SOL     hw 3019   1.578   5.856   2.244  1.3847  1.6060  1.4914
  755SOL     vw 3020   1.632   5.788   2.240 -0.3528  0.2086  0.1040
  756SOL     ow 3021   0.979   5.861   4.346 -0.3170 -0.1909 -0.2655
  756SOL     hw 3022   0.983   5.936   4.405  2.2008 -1.2986  1.1195
  756SOL     hw 3023   1.027   5.792   4.391  1.1000 -1.3573 -3.2643
  756SOL     vw 3024   0.986   5.862   4.360  0.2021 -0.4911 -0.4783
  757SOL     ow 3025   2.975   5.804   4.203 -0.1397 -0.3012  0.2585
  757SOL     hw 3026   2.988   5.745   4.276 -0.4655 -1.3604 -0.5181
  757SOL     hw 3027   3.064   5.827   4.175  0.0014  1.0117  1.6532
  757SOL     vw 3028   2.989   5.800   4.209 -0.1639 -0.2680  0.3400
  758SOL     ow 3029   0.188   5.351   6.030  0.2779  0.1785  0.0732
  758SOL     hw 3030   0.214   5.393   6.111 -0.7977  0.3501  0.3490
  758SOL     hw 3031   0.234   5.267   6.030  1.3978  0.7749  0.1577
  758SOL     vw 3032   0.197   5.345   6.041  0.2838  0.2799  0.1209
  759SOL     ow 3033   5.495   5.652   1.753  0.5552  0.2899  0.3815
  759SOL     hw 3034   5.515   5.741   1.784 -2.1726  1.4165 -0.7578
  759SOL     hw 3035   5.440   5.615   1.821 -0.4157  0.4782 -0.2794
  759SOL     vw 3036   5.490   5.659   1.766  0.0675  0.4635  0.1440
  760SOL     ow 3037   6.069   3.018   4.530 -0.2022 -1.0689 -0.1358
  760SOL     hw 3038   6.134   2.956   4.563 -0.3951 -1.0601  0.2719
  760SOL     hw 3039   6.113   3.065   4.460 -0.5810 -2.8912 -1.7035
  760SOL     vw 3040   6.083   3.016   4.525 -0.2778 -1.3083 -0.2887
  761SOL     ow 3041   2.085   6.698   3.412  0.0027  0.2381 -0.7770
  761SOL     hw 3042   2.121   6.621   3.455 -0.9235  0.5139  0.5627
  761SOL     hw 3043   1.990   6.684   3.413 -0.0987  0.6119 -2.0842
  761SOL     vw 3044   2.077   6.686   3.418 -0.1328  0.3240 -0.7727
  762SOL     ow 3045   6.008   5.457   0.746  0.5160  0.3318  0.0986
  762SOL     hw 3046   5.967   5.496   0.823  3.2097  0.7839  1.4366
  762SOL     hw 3047   6.102   5.466   0.762  1.2595  1.8274 -3.9565
  762SOL     vw 3048   6.015   5.463   0.758  0.9699  0.5889 -0.2598
  763SOL     ow 3049   2.845   6.397   3.045 -0.0242 -0.2919  0.7595
  763SOL     hw 3050   2.789   6.424   3.118 -1.5330  0.5536 -0.6446
  763SOL     hw 3051   2.878   6.311   3.071 -0.0282  0.2279  2.6795
  763SOL     vw 3052   2.842   6.389   3.058 -0.2238 -0.1118  0.8276
  764SOL     ow 3053   1.845   5.162   0.463 -0.2691 -0.3891  0.4706
  764SOL     hw 3054   1.886   5.207   0.389 -1.9656 -2.6770 -2.1162
  764SOL     hw 3055   1.899   5.084   0.476 -1.0468 -0.9685  0.3025
  764SOL     vw 3056   1.858   5.158   0.455 -0.5955 -0.7675  0.1071
  765SOL     ow 3057   4.280   3.109   1.794  0.3887  0.3405 -0.2222
  765SOL     hw 3058   4.286   3.064   1.710  0.5680  2.8349 -1.6594
  765SOL     hw 3059   4.191   3.143   1.798 -0.1620 -1.1413  1.4434
  765SOL     vw 3060   4.269   3.108   1.784  0.3397  0.4740 -0.1921
  766SOL     ow 3061   4.944   6.115   3.076 -0.3594  0.4434  0.5630
  766SOL     hw 3062   4.966   6.207   3.092 -0.1310  0.1246  2.3086
  766SOL     hw 3063   4.854   6.118   3.043 -0.5153  1.2719  1.0277
  766SOL     vw 3064   4.935   6.128   3.074 -0.3498  0.5105  0.8546
  767SOL     ow 3065   0.817   6.878   0.777  0.5283 -0.3895  0.0054
  767SOL     hw 3066   0.858   6.949   0.826  1.5513 -1.3594  0.6139
  767SOL     hw 3067   0.888   6.815   0.763 -0.0359 -0.7071 -1.6604
  767SOL     vw 3068   0.832   6.879   0.782  0.5888 -0.5593 -0.1341
  768SOL     ow 3069   4.378   0.500   3.668  0.1839  0.0120 -0.5078
  768SOL     hw 3070   4.315   0.551   3.718  0.9217  0.7685 -0.3274
  768SOL     hw 3071   4.363   0.524   3.577 -1.1489 -1.3531 -0.6857
  768SOL     vw 3072   4.368   0.510   3.662  0.1051 -0.0683 -0.5075
  769SOL     ow 3073   5.948   1.387   5.245  0.4611 -0.2837 -0.3898
  769SOL     hw 3074   5.977   1.298   5.225  2.6637  0.0441  1.0578
  769SOL     hw 3075   6.007   1.444   5.197 -0.2715  0.4224 -0.4760
  769SOL     vw 3076   5.959   1.383   5.236  0.6549 -0.1473 -0.2103
  770SOL     ow 3077   6.127   6.799   3.527  0.4435  0.2643 -0.2502
  770SOL     hw 3078   6.122   6.720   3.474 -0.5812  1.0113 -1.3302
  770SOL     hw 3079   6.044   6.801   3.576  0.6563  0.4453  0.1106
  770SOL     vw 3080   6.115   6.789   3.527  0.3364  0.3870 -0.3451
  771SOL     ow 3081   5.977   1.709   4.937  0.2627  0.4887 -0.0560
  771SOL     hw 3082   6.029   1.681   4.862 -2.7345 -0.0240 -2.0955
  771SOL     hw 3083   5.998   1.802   4.947 -0.9960  1.2725 -3.2373
  771SOL     vw 3084   5.987   1.718   4.928 -0.2990  0.5245 -0.7448
  772SOL     ow 3085   5.829   2.177   5.341  0.4948  0.8639 -0.3527
  772SOL     hw 3086   5.841   2.269   5.364 -0.7885  1.4138 -1.6950
  772SOL     hw 3087   5.826   2.132   5.425  0.9577  2.0608  0.3406
  772SOL     vw 3088   5.830   2.183   5.355  0.3867  1.0945 -0.4382
  773SOL     ow 3089   0.007   5.826   2.789 -0.4745 -0.5001  0.1623
  773SOL     hw 3090  -0.084   5.841   2.815 -0.9183 -1.0456 -0.9838
  773SOL     hw 3091   0.050   5.792   2.868 -1.5535 -1.3069  0.4291
  773SOL     vw 3092   0.001   5.823   2.803 -0.6754 -0.6783  0.0463
  774SOL     ow 3093   5.897   7.182   1.003 -0.6458  0.2351  0.1586
  774SOL     hw 3094   5.936   7.269   1.013 -0.2830  0.2303 -1.1333
  774SOL     hw 3095   5.815   7.187   1.053 -0.0859  0.9430  1.0369
  774SOL     vw 3096   5.891   7.194   1.011 -0.5240  0.3278  0.1040
  775SOL     ow 3097   1.600   1.168   1.344 -0.7159 -0.1178  0.8517
  775SOL     hw 3098   1.592   1.237   1.409 -1.5384  0.5488  0.0725
  775SOL     hw 3099   1.665   1.107   1.380 -0.8107  0.4810  2.0562
  775SOL     vw 3100   1.607   1.169   1.357 -0.8370  0.0492  0.9078
  776SOL     ow 3101   0.212   3.948   5.063  0.1524 -0.2131  0.4240
  776SOL     hw 3102   0.299   3.919   5.038  0.6092  0.7323  0.8684
  776SOL     hw 3103   0.156   3.872   5.046  1.3818 -1.5701  2.0959
  776SOL     vw 3104   0.216   3.934   5.057  0.3749 -0.2674  0.7031
  777SOL     ow 3105   5.239   1.527   2.193  0.0784  0.1244 -0.9730
  777SOL     hw 3106   5.178   1.544   2.264  1.5823  1.0464  0.1730
  777SOL     hw 3107   5.278   1.442   2.213  2.4948  1.5489  0.9364
  777SOL     vw 3108   5.236   1.518   2.205  0.5956  0.4340 -0.5697
  778SOL     ow 3109   4.036   4.254   5.334 -0.6163 -0.2043  0.1948
  778SOL     hw 3110   3.960   4.299   5.371  0.0011  3.0635 -2.0595
  778SOL     hw 3111   4.000   4.198   5.265 -1.1386 -0.7631  0.9035
  778SOL     vw 3112   4.021   4.253   5.330 -0.6039  0.1531 -0.0093
  779SOL     ow 3113   0.834   2.982   5.741 -0.7071 -0.3627 -0.3906
  779SOL     hw 3114   0.789   3.066   5.755 -0.5470 -0.5056  1.1623
  779SOL     hw 3115   0.905   2.982   5.805 -1.1028 -1.9606  0.0910
  779SOL     vw 3116   0.837   2.993   5.751 -0.7382 -0.5924 -0.1223
  780SOL     ow 3117   0.250   7.211   2.998 -0.6237 -0.3822 -0.2149
  780SOL     hw 3118   0.267   7.299   3.032 -3.0203  0.1917 -0.3345
  780SOL     hw 3119   0.324   7.159   3.028 -0.7427  0.9448  2.6654
  780SOL     vw 3120   0.262   7.215   3.006 -0.9556 -0.1311  0.1495
  781SOL     ow 3121   0.450   1.495   6.736  0.3032 -0.0197  0.0622
  781SOL     hw 3122   0.497   1.572   6.707  0.2604  0.4682  1.2240
  781SOL     hw 3123   0.401   1.466   6.659 -0.0219  1.3650 -0.2786
  781SOL     vw 3124   0.450   1.501   6.722  0.2547  0.2275  0.1707
  782SOL     ow 3125   6.366   0.324   6.400  0.1206  0.3097 -0.2686
  782SOL     hw 3126   6.431   0.254   6.397  0.1220  0.3471 -2.3475
  782SOL     hw 3127   6.290   0.288   6.353 -1.0738  0.5746  1.3813
  782SOL     vw 3128   6.364   0.310   6.393 -0.0367  0.3496 -0.3252
  783SOL     ow 3129   4.331   4.066   3.724  0.0452 -0.0787  0.4101
  783SOL     hw 3130   4.296   4.070   3.813 -0.4318 -0.7034  0.2584
  783SOL     hw 3131   4.275   4.124   3.673 -0.4241 -0.6276  0.2863
  783SOL     vw 3132   4.319   4.074   3.729 -0.0796 -0.2337  0.3738
  784SOL     ow 3133   5.174   5.034   0.543  0.4777 -0.0934 -0.0605
  784SOL     hw 3134   5.080   5.053   0.533  0.6326  0.8743  0.2728
  784SOL     hw 3135   5.214   5.071   0.464  1.0251  2.8042  1.4679
  784SOL     vw 3136   5.167   5.041   0.531  0.5703  0.4165  0.1851
  785SOL     ow 3137   1.430   0.234   5.891  0.0166 -0.0033 -0.3167
  785SOL     hw 3138   1.469   0.320   5.879 -0.7041  0.3343 -0.3292
  785SOL     hw 3139   1.388   0.238   5.977  0.6441 -0.6099  0.0253
  785SOL     vw 3140   1.429   0.245   5.901  0.0043 -0.0388 -0.2732
  786SOL     ow 3141   5.923   4.998   2.764  0.2979  0.2801  0.5348
  786SOL     hw 3142   5.953   4.987   2.673  0.0818 -1.3899  0.6394
  786SOL     hw 3143   5.869   4.921   2.781  1.1232  0.0563  2.4069
  786SOL     vw 3144   5.920   4.986   2.754  0.3781  0.0303  0.7956
  787SOL     ow 3145   4.874   5.614   2.735  0.3801  0.5153 -0.5378
  787SOL     hw 3146   4.941   5.681   2.719  0.9232 -0.2952 -1.8002
  787SOL     hw 3147   4.795   5.650   2.694  0.1875  1.1914  0.4035
  787SOL     vw 3148   4.872   5.628   2.727  0.4263  0.4978 -0.5802
  788SOL     ow 3149   1.707   5.574   1.470  0.3758 -0.2482  0.6384
  788SOL     hw 3150   1.708   5.500   1.531  0.0165  0.4612  1.5301
  788SOL     hw 3151   1.727   5.535   1.385  0.3778 -1.3410  1.1195
  788SOL     vw 3152   1.710   5.559   1.467  0.3287 -0.2990  0.8195
  789SOL     ow 3153   5.575   2.190   1.100 -0.2071 -0.1592  0.5626
  789SOL     hw 3154   5.489   2.155   1.076  0.1813  0.1387 -1.4643
  789SOL     hw 3155   5.571   2.282   1.074  0.9402 -0.3135 -0.2026
  789SOL     vw 3156   5.563   2.197   1.093 -0.0043 -0.1403  0.1943
  790SOL     ow 3157   6.802   2.457   6.935  0.2185  0.2336  0.1269
  790SOL     hw 3158   6.763   2.434   7.020  2.5186 -0.9243  0.9450
  790SOL     hw 3159   6.777   2.385   6.877  1.1034 -0.5170  0.6522
  790SOL     vw 3160   6.793   2.445   6.939  0.6387 -0.0181  0.3042
  791SOL     ow 3161   7.498   0.330   4.612  0.2131  0.6310  0.1606
  791SOL     hw 3162   7.577   0.379   4.590  0.7877 -1.0396 -1.8123
  791SOL     hw 3163   7.530   0.254   4.662  0.2877 -1.3325 -2.6332
  791SOL     vw 3164   7.512   0.326   4.616  0.2990  0.1515 -0.4685
  792SOL     ow 3165   5.421   7.057   2.732  0.0647 -0.3190 -0.8284
  792SOL     hw 3166   5.353   7.039   2.667 -0.4822  0.2901 -0.4381
  792SOL     hw 3167   5.476   6.979   2.731 -0.4160 -0.6616 -1.4255
  792SOL     vw 3168   5.419   7.045   2.723 -0.0710 -0.2837 -0.8556
  793SOL     ow 3169   6.714   0.975   6.924 -0.2966  0.0017  0.4266
  793SOL     hw 3170   6.794   1.027   6.929 -0.1702 -0.1822  0.3232
  793SOL     hw 3171   6.739   0.889   6.959 -0.3612 -0.1623  0.0692
  793SOL     vw 3172   6.728   0.971   6.930 -0.2882 -0.0441  0.3657
  794SOL     ow 3173   1.652   3.100   7.045  0.0503  0.8768  1.0634
  794SOL     hw 3174   1.703   3.026   7.013 -0.4669  0.9646  0.0148
  794SOL     hw 3175   1.717   3.168   7.063  0.3011  1.0541 -0.4372
  794SOL     vw 3176   1.667   3.099   7.043  0.0151  0.9117  0.7272
  795SOL     ow 3177   5.092   0.758   4.421  0.5661 -0.6260  0.0518
  795SOL     hw 3178   5.075   0.678   4.371 -1.0552  0.4401 -1.2065
  795SOL     hw 3179   5.007   0.782   4.458  0.9016  0.8201 -0.0543
  795SOL     vw 3180   5.078   0.750   4.420  0.3963 -0.2945 -0.1278
  796SOL     ow 3181   0.933   3.018   1.629  0.2569  0.4103  0.1187
  796SOL     hw 3182   0.919   2.948   1.693 -0.9877  2.6394  2.4895
  796SOL     hw 3183   1.026   3.039   1.636  0.5918 -0.7830 -0.4453
  796SOL     vw 3184   0.943   3.011   1.638  0.1369  0.5469  0.3570
  797SOL     ow 3185   2.405   6.925   3.320  0.5496 -0.3238  0.1249
  797SOL     hw 3186   2.446   6.991   3.264 -4.4357  2.0837 -1.2269
  797SOL     hw 3187   2.369   6.861   3.259 -2.0040  0.4753  0.6959
  797SOL     vw 3188   2.406   6.925   3.305 -0.4451  0.0989  0.0218
  798SOL     ow 3189   0.633   3.010   4.149 -0.1095 -0.0181  0.4915
  798SOL     hw 3190   0.686   3.025   4.071 -2.1111  0.7712 -0.7938
  798SOL     hw 3191   0.645   3.089   4.202  0.5439 -0.1558  0.5483
  798SOL     vw 3192   0.641   3.022   4.146 -0.2874  0.0678  0.3295
  799SOL     ow 3193   1.777   1.440   1.719 -0.0406 -0.0309  0.7638
  799SOL     hw 3194   1.689   1.445   1.681  0.0899  1.1904  0.5788
  799SOL     hw 3195   1.798   1.530   1.745  1.5286 -0.1117 -0.0643
  799SOL     vw 3196   1.768   1.453   1.717  0.1837  0.1197  0.6301
  800SOL     ow 3197   5.078   3.814   0.149  0.1800  0.4306  0.0514
  800SOL     hw 3198   5.013   3.750   0.122  1.0672 -0.0794 -0.9320
  800SOL     hw 3199   5.028   3.880   0.197 -0.8006 -0.8020  0.7829
  800SOL     vw 3200   5.063   3.814   0.152  0.1678  0.2007  0.0181
  801SOL     ow 3201   4.147   2.556   6.373 -0.1583 -0.1496  0.3591
  801SOL     hw 3202   4.240   2.547   6.392 -0.3901 -0.4662  1.3776
  801SOL     hw 3203   4.103   2.514   6.447 -1.1321  1.4761  0.7455
  801SOL     vw 3204   4.153   2.549   6.385 -0.3171  0.0231  0.5443
  802SOL     ow 3205   5.806   1.069   1.914  0.0006  0.1198  0.3570
  802SOL     hw 3206   5.736   1.006   1.935 -0.0589  0.3013  0.6996
  802SOL     hw 3207   5.850   1.030   1.838 -0.7392  0.2099 -0.1310
  802SOL     vw 3208   5.803   1.055   1.906 -0.1049  0.1556  0.3377
  803SOL     ow 3209   5.217   6.028   7.404 -0.1517 -0.4709  0.5089
  803SOL     hw 3210   5.163   6.069   7.471  1.5353  1.8567  0.5579
  803SOL     hw 3211   5.266   6.100   7.364  1.1079 -2.1552 -1.2028
  803SOL     vw 3212   5.216   6.043   7.407  0.2372 -0.3860  0.2897
  804SOL     ow 3213   1.843   2.401   2.255 -0.4803 -0.0435 -0.4336
  804SOL     hw 3214   1.824   2.310   2.275 -0.6363 -0.1636 -1.1246
  804SOL     hw 3215   1.757   2.443   2.249 -0.4714 -0.2003 -1.7503
  804SOL     vw 3216   1.829   2.395   2.257 -0.4997 -0.0800 -0.6986
  805SOL     ow 3217   4.390   0.712   7.325 -0.3536  0.1215  0.2396
  805SOL     hw 3218   4.332   0.724   7.249  1.9856 -1.1606 -1.8987
  805SOL     hw 3219   4.418   0.621   7.319  1.4257  0.5458  1.5068
  805SOL     vw 3220   4.386   0.702   7.314  0.1898  0.0083  0.1247
  806SOL     ow 3221   1.461   4.532   1.845 -0.3139 -0.1702 -0.1736
  806SOL     hw 3222   1.445   4.583   1.924  0.9401  1.2539 -0.7753
  806SOL     hw 3223   1.396   4.462   1.847 -0.3363 -0.1281  2.0573
  806SOL     vw 3224   1.450   4.530   1.855 -0.1514  0.0231  0.0413
  807SOL     ow 3225   0.860   5.690   3.473 -0.1097  0.3386  0.1876
  807SOL     hw 3226   0.896   5.742   3.545  0.0359 -1.9204  1.8571
  807SOL     hw 3227   0.776   5.658   3.506  0.4162 -1.5669 -0.1859
  807SOL     vw 3228   0.854   5.692   3.487 -0.0211 -0.2108  0.3586
  808SOL     ow 3229   6.774   4.209   2.803 -0.3586 -0.6664 -0.6944
  808SOL     hw 3230   6.840   4.271   2.772  0.9370 -2.1230 -0.9719
  808SOL     hw 3231   6.693   4.260   2.806  0.6534  1.0345 -0.8657
  808SOL     vw 3232   6.772   4.224   2.800 -0.0541 -0.6342 -0.7536
  809SOL     ow 3233   6.079   5.823   0.821 -0.7103 -0.4187  0.0506
  809SOL     hw 3234   6.076   5.884   0.748  0.0930  1.0532  1.1995
  809SOL     hw 3235   6.014   5.855   0.883  0.2552 -0.2345  1.0058
  809SOL     vw 3236   6.070   5.835   0.820 -0.4768 -0.2003  0.3282
  810SOL     ow 3237   1.055   0.906   6.119  0.1036  0.7113 -0.2857
  810SOL     hw 3238   1.000   0.832   6.143 -0.8462  1.6121  0.3610
  810SOL     hw 3239   0.995   0.980   6.112  0.9566  1.3344 -1.4136
  810SOL     vw 3240   1.040   0.906   6.121  0.0908  0.9124 -0.3493
  811SOL     ow 3241   3.015   1.869   3.550  0.3721 -0.4981 -0.3771
  811SOL     hw 3242   3.037   1.959   3.527 -0.9639  0.3524  1.4201
  811SOL     hw 3243   2.973   1.834   3.472  0.6800  0.5171 -1.0109
  811SOL     vw 3244   3.012   1.876   3.537  0.2364 -0.2519 -0.2236
  812SOL     ow 3245   5.287   5.759   0.011 -0.3069  0.4462  1.1191
  812SOL     hw 3246   5.230   5.778   0.086 -0.1631  0.8733  1.1202
  812SOL     hw 3247   5.339   5.684   0.040  0.0308  0.8571  1.6073
  812SOL     vw 3248   5.286   5.752   0.025 -0.2434  0.5565  1.1837
  813SOL     ow 3249   1.699   3.219   0.748 -0.1852 -0.1470  0.1929
  813SOL     hw 3250   1.768   3.248   0.808 -0.9315  1.2360  0.4235
  813SOL     hw 3251   1.622   3.270   0.773 -0.6233  0.2148 -1.7170
  813SOL     vw 3252   1.698   3.229   0.759 -0.3415  0.0832 -0.0286
  814SOL     ow 3253   1.701   1.363   0.934 -0.0633  0.4498 -0.1795
  814SOL     hw 3254   1.763   1.290   0.935  0.9524  1.2096  2.3570
  814SOL     hw 3255   1.626   1.331   0.986  0.0503  0.9236  0.2834
  814SOL     vw 3256   1.699   1.349   0.941  0.0857  0.6125  0.2162
  815SOL     ow 3257   2.458   4.244   6.650 -0.2204 -0.2556 -0.2265
  815SOL     hw 3258   2.470   4.158   6.610 -0.6961 -0.6113  0.3736
  815SOL     hw 3259   2.547   4.272   6.674 -0.1760 -1.1855  0.7806
  815SOL     vw 3260   2.472   4.236   6.648 -0.2774 -0.4251 -0.0145
  816SOL     ow 3261   1.068   5.494   3.485  0.4480 -0.1328 -0.6011
  816SOL     hw 3262   0.987   5.542   3.467  1.2741  1.5772  0.0750
  816SOL     hw 3263   1.059   5.464   3.576 -0.6045 -2.4827 -1.3807
  816SOL     vw 3264   1.056   5.496   3.494  0.4180 -0.2174 -0.6148
  817SOL     ow 3265   4.604   0.163   1.886 -0.3945  0.4060 -0.3245
  817SOL     hw 3266   4.584   0.233   1.824 -1.2912  0.7482  0.3369
  817SOL     hw 3267   4.619   0.207   1.969 -2.1459 -0.2465  0.3751
  817SOL     vw 3268   4.604   0.178   1.889 -0.7439  0.3650 -0.1449
  818SOL     ow 3269   2.511   5.236   2.506 -0.3676  0.1432  0.4107
  818SOL     hw 3270   2.522   5.264   2.597  1.1227 -3.4934  1.5498
  818SOL     hw 3271   2.417   5.217   2.498 -0.9504  2.7148  0.3419
  818SOL     vw 3272   2.500   5.237   2.517 -0.2480  0.0026  0.5519
  819SOL     ow 3273   6.413   2.293   1.243 -0.4482  0.3727 -0.4450
  819SOL     hw 3274   6.334   2.282   1.295  0.4699  2.3585  1.5528
  819SOL     hw 3275   6.441   2.383   1.261  1.0588  0.4637 -2.8275
  819SOL     vw 3276   6.406   2.303   1.252 -0.1283  0.6467 -0.4959
  820SOL     ow 3277   1.148   3.811   3.980  0.3906  0.6382  0.3015
  820SOL     hw 3278   1.090   3.886   3.980 -1.2126 -0.5062  1.7480
  820SOL     hw 3279   1.100   3.743   3.933  1.3888  0.2113 -0.1324
  820SOL     vw 3280   1.134   3.812   3.974  0.3108  0.4309  0.4351
  821SOL     ow 3281   3.202   0.738   0.259  0.1823 -0.3069 -0.1235
  821SOL     hw 3282   3.198   0.702   0.348 -1.7524  0.3194  0.0863
  821SOL     hw 3283   3.146   0.815   0.261  0.2492 -0.1643 -1.8467
  821SOL     vw 3284   3.194   0.743   0.271 -0.0643 -0.2055 -0.3232
  822SOL     ow 3285   0.903   4.495   6.094  0.1169 -0.0489  0.0148
  822SOL     hw 3286   0.980   4.531   6.138 -0.8674  0.6879  1.2024
  822SOL     hw 3287   0.829   4.527   6.146 -0.9562 -1.3243 -0.6735
  822SOL     vw 3288   0.903   4.504   6.107 -0.1546 -0.1199  0.0808
  823SOL     ow 3289   6.405   3.784   5.465 -0.0997  0.0440 -0.0543
  823SOL     hw 3290   6.500   3.790   5.455 -0.0021  0.8515  1.1433
  823SOL     hw 3291   6.375   3.875   5.468 -1.0488 -0.1828 -1.3509
  823SOL     vw 3292   6.413   3.797   5.464 -0.2122  0.1206 -0.0672
  824SOL     ow 3293   6.357   4.732   7.053 -0.0114 -0.1081 -0.1841
  824SOL     hw 3294   6.410   4.702   7.127  0.8169  2.5590  0.4148
  824SOL     hw 3295   6.393   4.686   6.977  2.0639  0.3628  0.4482
  824SOL     vw 3296   6.368   4.722   7.053  0.3717  0.3057 -0.0219
  825SOL     ow 3297   1.085   5.862   6.171 -0.0776 -0.4003 -0.2715
  825SOL     hw 3298   1.021   5.848   6.101  0.6895  1.3578 -1.3937
  825SOL     hw 3299   1.040   5.834   6.251 -2.9425  2.3058 -0.7509
  825SOL     vw 3300   1.071   5.856   6.172 -0.3544  0.1886 -0.4830
  826SOL     ow 3301   6.908   2.987   7.179  0.0526 -0.5316  0.1409
  826SOL     hw 3302   6.899   2.988   7.274 -6.0358 -2.6260  0.0166
  826SOL     hw 3303   6.913   2.895   7.156  0.5137 -0.1041 -1.6784
  826SOL     vw 3304   6.907   2.975   7.189 -0.6900 -0.7516 -0.1156
  827SOL     ow 3305   4.951   6.277   6.459 -0.3176 -0.3279  0.0531
  827SOL     hw 3306   5.024   6.239   6.410 -0.1561 -1.4669  1.1124
  827SOL     hw 3307   4.886   6.300   6.393  1.3245  1.5493 -1.0153
  827SOL     vw 3308   4.952   6.275   6.444 -0.0799 -0.2308  0.0520
  828SOL     ow 3309   7.088   5.832   7.227  0.1938 -0.1306  0.1400
  828SOL     hw 3310   7.062   5.909   7.175  0.8946  0.4564  0.6316
  828SOL     hw 3311   7.032   5.762   7.195 -0.0207  0.4342 -0.7777
  828SOL     vw 3312   7.077   5.833   7.216  0.2580  0.0210  0.0837
  829SOL     ow 3313   7.366   0.709   5.955 -0.0718 -0.1218 -0.0456
  829SOL     hw 3314   7.386   0.802   5.970 -1.2648  0.2354 -0.5842
  829SOL     hw 3315   7.360   0.701   5.860 -0.6031 -0.6168  0.0262
  829SOL     vw 3316   7.368   0.721   5.945 -0.2992 -0.1400 -0.1073
  830SOL     ow 3317   1.256   1.315   2.344  0.2905 -0.3378 -0.3494
  830SOL     hw 3318   1.184   1.345   2.289 -0.9052  0.4246  1.5711
  830SOL     hw 3319   1.237   1.349   2.431  3.9435  1.5592 -0.0855
  830SOL     vw 3320   1.244   1.323   2.348  0.6146  0.0131 -0.0613
  831SOL     ow 3321   0.727   0.851   1.250 -0.0896  0.1320 -0.4005
  831SOL     hw 3322   0.688   0.938   1.257 -0.4549 -0.1666  2.3731
  831SOL     hw 3323   0.818   0.867   1.225 -0.0105  1.3531  0.6118
  831SOL     vw 3324   0.734   0.865   1.247 -0.1274  0.2537  0.0989
  832SOL     ow 3325   5.359   0.679   4.576  0.6325  0.1311 -0.0535
  832SOL     hw 3326   5.407   0.714   4.651 -1.2446  2.3938  0.1957
  832SOL     hw 3327   5.306   0.609   4.612  1.0812 -0.0006  0.3581
  832SOL     vw 3328   5.359   0.674   4.591  0.4442  0.4123  0.0336
  833SOL     ow 3329   2.106   6.845   1.116 -0.6601 -0.2642 -0.4096
  833SOL     hw 3330   2.053   6.877   1.189  0.1730  2.8417 -1.0136
  833SOL     hw 3331   2.187   6.896   1.121 -1.0588  1.0903 -4.1306
  833SOL     vw 3332   2.110   6.856   1.126 -0.6027  0.3242 -0.9803
  834SOL     ow 3333   3.946   1.166   3.737  0.1704 -0.2088  0.2441
  834SOL     hw 3334   3.872   1.226   3.738  0.7110  0.4593  0.6310
  834SOL     hw 3335   3.998   1.191   3.814  0.8661 -0.5856 -0.0966
  834SOL     vw 3336   3.943   1.177   3.747  0.3335 -0.1704  0.2502
  835SOL     ow 3337   1.128   6.713   1.895  0.1676 -0.2113  0.0291
  835SOL     hw 3338   1.154   6.767   1.820 -0.4337 -2.2839 -1.7915
  835SOL     hw 3339   1.205   6.658   1.912  0.1836  0.0260  0.7426
  835SOL     vw 3340   1.142   6.713   1.887  0.0904 -0.4535 -0.1169
  836SOL     ow 3341   0.965   2.738   2.695 -0.5026 -0.6951  0.2219
  836SOL     hw 3342   0.956   2.706   2.785  1.8716  0.5719  0.9950
  836SOL     hw 3343   1.055   2.717   2.671  0.4160  3.0173 -0.1093
  836SOL     vw 3344   0.976   2.731   2.704 -0.0682 -0.0380  0.2801
  837SOL     ow 3345   5.808   1.513   1.353 -0.2095 -0.5843 -0.4955
  837SOL     hw 3346   5.739   1.462   1.311 -0.0413 -1.0565 -0.2129
  837SOL     hw 3347   5.848   1.563   1.282 -0.4464 -0.7741 -0.7631
  837SOL     vw 3348   5.804   1.513   1.338 -0.2186 -0.6716 -0.4935
  838SOL     ow 3349   5.455   3.027   3.013  0.3881 -0.1109 -0.1478
  838SOL     hw 3350   5.381   3.087   2.998  0.5756  0.1655  0.0216
  838SOL     hw 3351   5.463   2.978   2.931  0.8199  0.7389 -0.6202
  838SOL     vw 3352   5.446   3.028   3.000  0.4699  0.0377 -0.1879
  839SOL     ow 3353   0.071   3.148   3.749  0.4098 -0.1124 -0.0460
  839SOL     hw 3354   0.050   3.167   3.840  0.5588 -0.6446  0.1044
  839SOL     hw 3355   0.140   3.211   3.726 -1.7969  2.2161 -0.7947
  839SOL     vw 3356   0.078   3.159   3.758  0.1383  0.1246 -0.1251
  840SOL     ow 3357   3.433   3.960   2.108  0.0569 -0.3869 -0.2768
  840SOL     hw 3358   3.484   4.022   2.056  1.6809 -0.6900  0.8879
  840SOL     hw 3359   3.487   3.881   2.110  0.6064 -0.0535  2.6948
  840SOL     vw 3360   3.447   3.958   2.101  0.3437 -0.3829  0.2689
  841SOL     ow 3361   3.763   4.305   1.920  0.4864  0.2644 -0.2603
  841SOL     hw 3362   3.693   4.247   1.951  0.0009  0.9449 -0.0725
  841SOL     hw 3363   3.748   4.313   1.826  1.5475 -1.2368 -0.6104
  841SOL     vw 3364   3.752   4.298   1.912  0.5623  0.1559 -0.2818
  842SOL     ow 3365   6.802   4.560   4.676  0.4701 -0.2979 -0.1918
  842SOL     hw 3366   6.729   4.526   4.624 -0.0771  1.2625 -0.5283
  842SOL     hw 3367   6.879   4.549   4.620  1.2267 -4.9480  1.3874
  842SOL     vw 3368   6.802   4.554   4.662  0.4978 -0.7055 -0.0279
  843SOL     ow 3369   0.372   1.477   3.789  0.6614 -0.1862  0.4787
  843SOL     hw 3370   0.450   1.422   3.779  2.0046  1.2479  2.3486
  843SOL     hw 3371   0.372   1.533   3.712  0.3990 -1.4044 -0.4465
  843SOL     vw 3372   0.382   1.477   3.778  0.8040 -0.1577  0.6033
  844SOL     ow 3373   2.464   5.446   5.155 -0.7904  0.3178  0.0345
  844SOL     hw 3374   2.460   5.351   5.161 -1.5412  0.4381  3.5145
  844SOL     hw 3375   2.380   5.475   5.190  0.3840  2.2414  1.4667
  844SOL     vw 3376   2.452   5.437   5.160 -0.7344  0.5877  0.6826
  845SOL     ow 3377   6.250   5.018   0.165  0.3441 -0.4396 -0.1703
  845SOL     hw 3378   6.164   5.029   0.204  0.0964  0.9517 -1.0079
  845SOL     hw 3379   6.291   5.104   0.173  1.3368 -0.8686 -0.4899
  845SOL     vw 3380   6.244   5.031   0.171  0.4425 -0.3128 -0.3229
  846SOL     ow 3381   0.283   0.836   1.358  0.2691  0.2398 -0.3129
  846SOL     hw 3382   0.238   0.753   1.339  1.0264 -0.1794 -0.3177
  846SOL     hw 3383   0.337   0.816   1.434  0.2959  0.7928 -0.1874
  846SOL     vw 3384   0.284   0.822   1.365  0.3726  0.2574 -0.2970
  847SOL     ow 3385   6.607   4.690   4.878 -0.1007  0.3098  1.0120
  847SOL     hw 3386   6.570   4.765   4.924 -1.7131  0.5606 -0.6038
  847SOL     hw 3387   6.538   4.624   4.880 -0.1397  0.2415 -0.7876
  847SOL     vw 3388   6.593   4.691   4.884 -0.3188  0.3340  0.5612
  848SOL     ow 3389   0.280   7.141   6.556  0.0838 -0.0743 -0.0106
  848SOL     hw 3390   0.360   7.172   6.514 -0.0194  0.1421 -0.0461
  848SOL     hw 3391   0.213   7.205   6.531 -0.0982 -0.2506  0.0267
  848SOL     vw 3392   0.281   7.154   6.547  0.0461 -0.0689 -0.0103
  849SOL     ow 3393   4.698   7.268   7.273 -0.2665  0.3177  0.8713
  849SOL     hw 3394   4.758   7.324   7.223 -1.4375  0.8370 -0.0209
  849SOL     hw 3395   4.753   7.197   7.306  0.6065 -0.0085 -1.0951
  849SOL     vw 3396   4.713   7.266   7.270 -0.3061  0.3428  0.4940
  850SOL     ow 3397   2.551   4.436   7.241 -0.1551  0.0384  0.4239
  850SOL     hw 3398   2.552   4.428   7.145 -0.1937 -0.4640  0.4627
  850SOL     hw 3399   2.476   4.493   7.259  0.2367  0.6673  0.1255
  850SOL     vw 3400   2.541   4.443   7.231 -0.1085  0.0548  0.3896
  851SOL     ow 3401   0.959   5.557   6.146  0.1722  0.5480  0.3128
  851SOL     hw 3402   0.948   5.620   6.075 -0.2158  0.8297  0.6165
  851SOL     hw 3403   0.906   5.482   6.120 -1.5220  1.3845  1.1517
  851SOL     vw 3404   0.950   5.556   6.134 -0.1025  0.6955  0.4637
  852SOL     ow 3405   3.780   1.895   5.701  0.2541  0.1380  0.1769
  852SOL     hw 3406   3.715   1.964   5.688  0.0232 -0.1627 -0.2896
  852SOL     hw 3407   3.825   1.919   5.782  1.2720  1.7151 -0.7779
  852SOL     vw 3408   3.778   1.907   5.710  0.3580  0.3064 -0.0105
  853SOL     ow 3409   5.529   4.696   0.287  0.2154  0.0992 -0.1501
  853SOL     hw 3410   5.617   4.678   0.322 -0.5510 -0.4215  1.5963
  853SOL     hw 3411   5.510   4.621   0.230  0.3342 -0.5046  0.5966
  853SOL     vw 3412   5.538   4.684   0.284  0.1302 -0.0491  0.1789
  854SOL     ow 3413   2.273   6.636   4.697 -0.1777  0.7309 -0.4172
  854SOL     hw 3414   2.213   6.667   4.629 -1.0365  0.7731  0.3555
  854SOL     hw 3415   2.333   6.578   4.650 -1.4184 -0.0983 -1.0384
  854SOL     vw 3416   2.273   6.633   4.682 -0.4547  0.6268 -0.3972
  855SOL     ow 3417   2.785   3.376   4.546 -0.2605  0.4586 -0.0964
  855SOL     hw 3418   2.862   3.431   4.564 -0.7785  1.4074 -0.7254
  855SOL     hw 3419   2.714   3.438   4.529 -0.6402 -0.3797 -1.8213
  855SOL     vw 3420   2.786   3.391   4.546 -0.3791  0.4730 -0.4070
  856SOL     ow 3421   4.994   4.169   3.350 -0.2475 -1.0663  0.6149
  856SOL     hw 3422   4.946   4.244   3.315  1.6121 -0.4203 -0.7194
  856SOL     hw 3423   5.076   4.206   3.384  0.9541 -2.5006 -0.5409
  856SOL     vw 3424   4.999   4.184   3.350  0.1564 -1.1702  0.2863
  857SOL     ow 3425   2.049   4.772   4.128 -0.6559 -0.1915  0.2158
  857SOL     hw 3426   2.068   4.772   4.222 -1.4687 -1.1604  0.3991
  857SOL     hw 3427   2.132   4.747   4.087 -0.0502  1.0966  0.5981
  857SOL     vw 3428   2.063   4.769   4.135 -0.6831 -0.1493  0.2904
  858SOL     ow 3429   6.564   4.630   1.567 -0.0646  0.6344 -0.2563
  858SOL     hw 3430   6.530   4.667   1.485  0.9930  1.2666 -0.4263
  858SOL     hw 3431   6.652   4.601   1.545  0.1568  0.6279  0.6113
  858SOL     vw 3432   6.571   4.631   1.553  0.1044  0.7172 -0.1643
  859SOL     ow 3433   3.996   1.452   5.568 -0.4802 -0.2030 -0.0585
  859SOL     hw 3434   3.912   1.496   5.575 -0.7277 -0.1258 -2.5090
  859SOL     hw 3435   4.010   1.442   5.473  1.9300 -0.8451  0.2905
  859SOL     vw 3436   3.987   1.457   5.556 -0.1949 -0.2775 -0.3357
  860SOL     ow 3437   2.474   0.891   1.064  0.6687 -0.5793  0.3958
  860SOL     hw 3438   2.502   0.858   0.979 -0.1762 -1.0911  0.3083
  860SOL     hw 3439   2.443   0.980   1.046  1.1470 -0.4270  0.3001
  860SOL     vw 3440   2.474   0.899   1.051  0.6202 -0.6267  0.3716
  861SOL     ow 3441   3.067   5.768   1.896 -0.0830 -0.3911  0.3584
  861SOL     hw 3442   3.013   5.689   1.886  2.2207 -2.1506  0.7906
  861SOL     hw 3443   3.016   5.826   1.952 -1.8967 -1.5299 -0.0390
  861SOL     vw 3444   3.053   5.765   1.902 -0.0184 -0.7734  0.3629
  862SOL     ow 3445   6.333   4.828   0.980  0.0097  0.6855 -0.3717
  862SOL     hw 3446   6.400   4.865   1.038  1.2053 -0.3254 -1.0717
  862SOL     hw 3447   6.253   4.828   1.034  0.7195  1.2294  0.7302
  862SOL     vw 3448   6.331   4.833   0.995  0.2613  0.6239 -0.3187
  863SOL     ow 3449   7.464   3.140   1.848  0.3702 -0.0991  0.4500
  863SOL     hw 3450   7.379   3.119   1.886 -0.1183  0.1130 -0.4883
  863SOL     hw 3451   7.444   3.202   1.778  1.1899 -0.7746 -0.4104
  863SOL     vw 3452   7.450   3.146   1.843  0.4139 -0.1601  0.2127
  864SOL     ow 3453   4.382   5.900   0.042  0.3202  0.3840 -0.4027
  864SOL     hw 3454   4.372   5.829   0.105 -0.5677  2.7938  2.4368
  864SOL     hw 3455   4.295   5.940   0.037  0.7774  1.2531 -1.8941
  864SOL     vw 3456   4.369   5.896   0.050  0.2635  0.8166 -0.2248
  865SOL     ow 3457   3.102   0.539   0.089 -0.2538  0.3920 -0.1730
  865SOL     hw 3458   3.157   0.556   0.012  0.9375 -1.8323  0.0983
  865SOL     hw 3459   3.102   0.621   0.138  1.1389  1.0618 -1.2283
  865SOL     vw 3460   3.109   0.552   0.085  0.0871  0.1869 -0.2765
  866SOL     ow 3461   5.280   0.634   2.769 -0.4298  0.6650  0.0523
  866SOL     hw 3462   5.203   0.640   2.713 -0.3332 -2.4447 -0.6418
  866SOL     hw 3463   5.252   0.669   2.854 -3.1082 -1.5579  0.2150
  866SOL     vw 3464   5.267   0.639   2.773 -0.7701 -0.0386 -0.0178
  867SOL     ow 3465   6.822   2.567   1.033 -0.6039 -0.4210 -0.0755
  867SOL     hw 3466   6.816   2.551   0.939 -0.0238 -0.4932 -0.1049
  867SOL     hw 3467   6.781   2.652   1.047 -0.7617 -0.4482 -0.3836
  867SOL     vw 3468   6.816   2.576   1.023 -0.5484 -0.4340 -0.1200
  868SOL     ow 3469   0.365   6.852   1.654 -0.0603 -0.1010  0.4923
  868SOL     hw 3470   0.293   6.914   1.642 -1.0032 -0.7079  2.5125
  868SOL     hw 3471   0.364   6.798   1.575 -2.4205 -0.6329  0.8023
  868SOL     vw 3472   0.355   6.853   1.642 -0.4961 -0.2513  0.7998
  869SOL     ow 3473   0.234   0.877   7.193 -0.0545 -0.5561  0.6518
  869SOL     hw 3474   0.141   0.860   7.211  0.0972 -2.0200  0.1620
  869SOL     hw 3475   0.280   0.803   7.232  0.9076  0.1090  0.7988
  869SOL     vw 3476   0.228   0.865   7.200  0.0925 -0.6615  0.6065
  870SOL     ow 3477   0.760   5.096   4.670  0.4667 -0.2375  0.3316
  870SOL     hw 3478   0.806   5.180   4.664 -1.2021  0.6317 -2.5491
  870SOL     hw 3479   0.819   5.039   4.718  2.7048  1.9308  0.3534
  870SOL     vw 3480   0.774   5.100   4.675  0.5418  0.1633 -0.0455
  871SOL     ow 3481   7.002   4.585   2.523 -0.4716 -0.4147  0.1964
  871SOL     hw 3482   6.948   4.631   2.586  0.7128 -0.0526  0.9876
  871SOL     hw 3483   7.087   4.630   2.526 -0.4011 -0.3016 -1.7396
  871SOL     vw 3484   7.006   4.597   2.531 -0.3061 -0.3519  0.0455
  872SOL     ow 3485   5.560   6.436   2.714 -0.1210 -0.4685  0.0705
  872SOL     hw 3486   5.569   6.532   2.714  0.1195 -0.2997 -4.0177
  872SOL     hw 3487   5.584   6.410   2.802 -0.1142  3.2206  1.3554
  872SOL     vw 3488   5.565   6.445   2.726 -0.0885  0.0405 -0.2995
  873SOL     ow 3489   4.689   5.550   3.358 -0.0941  0.0316  0.3295
  873SOL     hw 3490   4.767   5.534   3.305 -0.6989 -1.2278 -0.2427
  873SOL     hw 3491   4.650   5.463   3.368 -1.8318  0.7219 -0.0566
  873SOL     vw 3492   4.694   5.536   3.352 -0.4032 -0.0434  0.2030
  874SOL     ow 3493   1.818   2.720   0.309 -0.1548 -1.0645  0.0677
  874SOL     hw 3494   1.829   2.727   0.214  0.6111 -1.0385  0.1527
  874SOL     hw 3495   1.769   2.639   0.322 -0.9420 -0.6756 -0.3880
  874SOL     vw 3496   1.813   2.710   0.298 -0.1576 -1.0098  0.0188
  875SOL     ow 3497   2.792   5.556   1.575 -0.5958 -0.0629  0.9011
  875SOL     hw 3498   2.707   5.574   1.534 -0.1141  0.3586  0.0591
  875SOL     hw 3499   2.843   5.635   1.560  0.0618 -0.4383  1.1101
  875SOL     vw 3500   2.787   5.569   1.567 -0.4455 -0.0570  0.8175
  876SOL     ow 3501   7.326   4.330   2.784 -0.4907 -0.2216  0.4153
  876SOL     hw 3502   7.370   4.281   2.853 -1.0068 -1.1824  0.0898
  876SOL     hw 3503   7.265   4.267   2.746  1.4953 -0.5272 -2.5793
  876SOL     vw 3504   7.323   4.315   2.788 -0.2968 -0.3889 -0.0228
  877SOL     ow 3505   4.011   6.593   7.021 -0.2831 -0.6739 -0.1491
  877SOL     hw 3506   4.088   6.549   6.985 -0.4001 -0.1206 -1.1092
  877SOL     hw 3507   4.016   6.577   7.116  1.1023 -0.5033 -0.1711
  877SOL     vw 3508   4.021   6.585   7.029 -0.1161 -0.5786 -0.2787
  878SOL     ow 3509   0.279   3.607   1.831 -0.3404 -1.0036  0.7914
  878SOL     hw 3510   0.217   3.670   1.794 -0.7359 -1.7301  0.1760
  878SOL     hw 3511   0.353   3.660   1.859  0.9232 -0.5222 -2.8892
  878SOL     vw 3512   0.280   3.622   1.829 -0.2259 -1.0359  0.2246
  879SOL     ow 3513   2.026   2.677   2.155 -0.2302  0.1857 -0.4312
  879SOL     hw 3514   1.944   2.723   2.139  0.0591  0.6901 -0.4986
  879SOL     hw 3515   2.091   2.726   2.105  0.3473  0.6245  0.6969
  879SOL     vw 3516   2.024   2.689   2.147 -0.1158  0.3101 -0.2912
  880SOL     ow 3517   7.164   0.411   6.541  0.3442 -0.3461  0.2465
  880SOL     hw 3518   7.219   0.337   6.516  0.0437 -0.5527  0.1808
  880SOL     hw 3519   7.075   0.383   6.518  0.0551 -0.5358  1.5675
  880SOL     vw 3520   7.159   0.398   6.534  0.2663 -0.3984  0.4122
  881SOL     ow 3521   1.392   1.384   4.095 -0.4433  0.1874  0.3479
  881SOL     hw 3522   1.449   1.310   4.114 -0.6215  0.1843  0.8923
  881SOL     hw 3523   1.360   1.412   4.181 -1.8479 -0.2800  0.0058
  881SOL     vw 3524   1.395   1.378   4.109 -0.6522  0.1254  0.3748
  882SOL     ow 3525   5.338   0.578   0.425 -1.0660  0.8578  0.1567
  882SOL     hw 3526   5.382   0.503   0.463 -0.2539  1.3614  0.2276
  882SOL     hw 3527   5.379   0.589   0.339 -0.6806  1.6357  0.4278
  882SOL     vw 3528   5.349   0.570   0.419 -0.9079  1.0269  0.2019
  883SOL     ow 3529   4.912   3.573   0.117  0.2650  0.2235  0.5346
  883SOL     hw 3530   4.847   3.613   0.058  1.4034  0.1635 -0.8174
  883SOL     hw 3531   4.904   3.479   0.100  0.7828  0.2247  0.2472
  883SOL     vw 3532   4.902   3.566   0.107  0.4838  0.2158  0.3183
  884SOL     ow 3533   5.780   4.230   5.396 -0.4007 -0.1450 -0.2069
  884SOL     hw 3534   5.794   4.316   5.356  0.6900 -0.2736 -0.1188
  884SOL     hw 3535   5.684   4.219   5.396 -0.5262  0.8527 -0.6565
  884SOL     vw 3536   5.769   4.240   5.391 -0.2735 -0.0305 -0.2546
  885SOL     ow 3537   1.069   5.387   0.438 -0.3152 -0.0252 -0.5491
  885SOL     hw 3538   1.096   5.479   0.430 -1.9333  0.5335  0.1340
  885SOL     hw 3539   1.055   5.374   0.532  2.2559 -1.7217 -0.2821
  885SOL     vw 3540   1.071   5.397   0.449 -0.1894 -0.1755 -0.4237
  886SOL     ow 3541   0.203   1.095   1.323  0.0440 -0.1985 -0.2004
  886SOL     hw 3542   0.134   1.116   1.386  0.8539  0.3069  0.5562
  886SOL     hw 3543   0.221   1.002   1.337  0.1567 -0.1111  0.2692
  886SOL     vw 3544   0.196   1.086   1.333  0.1657 -0.1203 -0.0386
  887SOL     ow 3545   5.492   5.584   2.630  0.0227 -0.1003 -0.5683
  887SOL     hw 3546   5.551   5.595   2.704  0.3070 -3.3011 -0.1985
  887SOL     hw 3547   5.549   5.560   2.557 -0.6415 -1.6237 -0.6157
  887SOL     vw 3548   5.507   5.582   2.630 -0.0274 -0.7234 -0.5256
  888SOL     ow 3549   3.146   2.992   0.661  0.0234 -0.2720  0.2007
  888SOL     hw 3550   3.172   2.993   0.569 -3.0227  0.2082 -0.7935
  888SOL     hw 3551   3.227   3.006   0.710  2.1259 -2.8335 -2.2455
  888SOL     vw 3552   3.160   2.994   0.656 -0.1011 -0.5465 -0.2532
  889SOL     ow 3553   2.307   3.442   4.512  0.3040  0.0930  0.1107
  889SOL     hw 3554   2.256   3.432   4.593  0.5488  0.4044  0.3056
  889SOL     hw 3555   2.253   3.497   4.456 -1.6220 -3.0965 -1.4512
  889SOL     vw 3556   2.293   3.448   4.515  0.0821 -0.2867 -0.0696
  890SOL     ow 3557   6.011   6.511   4.318 -0.3737  0.1441 -0.3276
  890SOL     hw 3558   6.106   6.500   4.322 -0.3082  0.7353 -0.1843
  890SOL     hw 3559   5.997   6.573   4.246 -0.7695 -1.2122 -1.4629
  890SOL     vw 3560   6.022   6.518   4.309 -0.4175  0.0429 -0.4585
  891SOL     ow 3561   2.790   0.413   7.456  0.7312 -0.1876 -0.3118
  891SOL     hw 3562   2.844   0.490   7.436 -0.2098  0.8478  0.9077
  891SOL     hw 3563   2.851   0.350   7.493  1.4877  0.0513 -1.1134
  891SOL     vw 3564   2.805   0.415   7.458  0.7068 -0.0194 -0.2565
  892SOL     ow 3565   6.048   4.332   2.295 -0.2966 -0.1926 -0.8706
  892SOL     hw 3566   5.965   4.314   2.339  0.5313 -3.0783 -0.3244
  892SOL     hw 3567   6.024   4.345   2.204 -1.4205 -0.0090 -0.5693
  892SOL     vw 3568   6.034   4.332   2.289 -0.3357 -0.5491 -0.7586
  893SOL     ow 3569   7.194   1.214   6.321  0.4618  0.0035  0.4468
  893SOL     hw 3570   7.255   1.176   6.384 -0.0441 -0.2721  0.7771
  893SOL     hw 3571   7.113   1.226   6.371  0.4743  1.0951  0.2334
  893SOL     vw 3572   7.191   1.211   6.336  0.3967  0.1112  0.4625
  894SOL     ow 3573   0.069   3.183   6.506  0.3173 -0.0524  0.3440
  894SOL     hw 3574   0.090   3.221   6.421  1.1199 -1.0369  0.0865
  894SOL     hw 3575   0.003   3.116   6.487  0.9678 -0.7207  0.3871
  894SOL     vw 3576   0.063   3.179   6.492  0.5090 -0.2705  0.3159
  895SOL     ow 3577   4.599   6.944   7.138  0.0149 -0.4313 -0.0748
  895SOL     hw 3578   4.614   7.031   7.101 -0.4187 -0.3301 -0.0127
  895SOL     hw 3579   4.680   6.896   7.119  0.4852  0.1595  0.4019
  895SOL     vw 3580   4.612   6.949   7.130  0.0198 -0.3400 -0.0036
  896SOL     ow 3581   2.635   3.509   5.944 -0.0464  0.1402 -0.4616
  896SOL     hw 3582   2.657   3.534   6.034 -2.0678 -0.0447  0.1415
  896SOL     hw 3583   2.715   3.525   5.894  1.1965  0.0256  1.4064
  896SOL     vw 3584   2.649   3.515   5.949 -0.1493  0.1006 -0.1357
  897SOL     ow 3585   1.133   7.370   2.378  0.2109 -0.3332  0.1019
  897SOL     hw 3586   1.057   7.346   2.325 -0.5555  0.9000  0.5960
  897SOL     hw 3587   1.207   7.367   2.318 -0.4164 -0.3586 -0.6788
  897SOL     vw 3588   1.133   7.366   2.363  0.0270 -0.1740  0.0643
  898SOL     ow 3589   2.799   6.960   2.218 -0.2753  0.7402 -0.2475
  898SOL     hw 3590   2.811   6.990   2.128 -1.8631  0.8949 -0.4376
  898SOL     hw 3591   2.827   6.869   2.217  0.1163  0.8589 -0.7830
  898SOL     vw 3592   2.804   6.952   2.206 -0.4330  0.7763 -0.3433
  899SOL     ow 3593   0.128   1.403   6.963 -1.1073  0.3095 -0.4558
  899SOL     hw 3594   0.085   1.436   6.885 -2.5793  0.8989  0.5726
  899SOL     hw 3595   0.163   1.480   7.007  0.9841 -0.1375 -1.1971
  899SOL     vw 3596   0.127   1.417   6.958 -1.0256  0.3282 -0.4182
  900SOL     ow 3597   4.921   0.786   1.899  0.5634 -0.3207 -0.3825
  900SOL     hw 3598   4.898   0.854   1.963  2.9047  0.5188 -0.3271
  900SOL     hw 3599   4.929   0.833   1.816 -0.0077 -0.9551 -0.8019
  900SOL     vw 3600   4.919   0.801   1.897  0.7968 -0.2936 -0.4305
  901SOL     ow 3601   2.025   4.760   6.511  0.7143  0.0987 -0.6633
  901SOL     hw 3602   2.069   4.765   6.426  1.5060  0.5530 -0.2343
  901SOL     hw 3603   2.082   4.808   6.571 -0.3906  0.7284 -0.0933
  901SOL     vw 3604   2.038   4.767   6.508  0.6729  0.2413 -0.5314
  902SOL     ow 3605   4.986   6.063   1.393 -0.1291 -0.3608 -0.2290
  902SOL     hw 3606   5.080   6.058   1.407 -0.2178  0.6164  0.7970
  902SOL     hw 3607   4.972   6.147   1.350 -0.6391  0.0445  0.6948
  902SOL     vw 3608   4.996   6.074   1.389 -0.2079 -0.1783  0.0283
  903SOL     ow 3609   1.725   6.676   3.899  0.1453 -0.6187  0.7920
  903SOL     hw 3610   1.644   6.705   3.858  1.1934  1.9488  0.3599
  903SOL     hw 3611   1.699   6.647   3.986 -1.3231 -0.6807  0.3591
  903SOL     vw 3612   1.711   6.676   3.905  0.0898 -0.2880  0.6779
  904SOL     ow 3613   5.386   3.377   2.480 -0.2396 -0.0203  0.1470
  904SOL     hw 3614   5.370   3.326   2.559  1.5592  1.0148  1.2430
  904SOL     hw 3615   5.299   3.395   2.445 -0.9881 -2.7512  0.3539
  904SOL     vw 3616   5.373   3.372   2.485 -0.1011 -0.2441  0.3188
  905SOL     ow 3617   2.188   1.289   5.788  0.3952  0.0212 -0.0904
  905SOL     hw 3618   2.146   1.375   5.798  0.2276 -0.1781  1.0048
  905SOL     hw 3619   2.117   1.230   5.763  0.4870  0.1618 -0.7119
  905SOL     vw 3620   2.173   1.293   5.786  0.3852  0.0135 -0.0281
  906SOL     ow 3621   4.425   2.894   2.499  0.2490  0.0425  0.4521
  906SOL     hw 3622   4.503   2.839   2.508  0.3143  0.3627  2.3680
  906SOL     hw 3623   4.460   2.982   2.487  0.1406 -0.1036 -1.2132
  906SOL     vw 3624   4.440   2.898   2.499  0.2434  0.0654  0.4851
  907SOL     ow 3625   1.767   2.833   2.165  0.6237  0.3228 -0.5227
  907SOL     hw 3626   1.744   2.880   2.085  0.4795 -1.4405 -1.5683
  907SOL     hw 3627   1.706   2.759   2.167  2.2330 -1.0358 -0.1232
  907SOL     vw 3628   1.756   2.830   2.155  0.8171 -0.0892 -0.6077
  908SOL     ow 3629   1.910   1.944   6.375 -0.0568 -0.4837  0.1157
  908SOL     hw 3630   1.874   1.915   6.292  0.5379 -1.4924  0.2062
  908SOL     hw 3631   1.902   1.869   6.433 -2.5418  0.8419  1.6740
  908SOL     vw 3632   1.904   1.930   6.372 -0.3062 -0.4419  0.3333
  909SOL     ow 3633   1.444   0.206   4.618  0.3799 -0.2300  0.0372
  909SOL     hw 3634   1.441   0.216   4.714  0.1744  2.1718 -0.1611
  909SOL     hw 3635   1.495   0.126   4.604  1.4165 -0.0007  2.1205
  909SOL     vw 3636   1.450   0.196   4.629  0.4895  0.1171  0.2859
  910SOL     ow 3637   3.210   3.074   4.270 -0.1996  0.0480  0.1251
  910SOL     hw 3638   3.247   3.012   4.208 -1.2152 -0.7916  0.3249
  910SOL     hw 3639   3.257   3.058   4.352 -0.1387 -0.1413  0.0531
  910SOL     vw 3640   3.221   3.064   4.273 -0.3256 -0.0876  0.1419
  911SOL     ow 3641   7.212   3.323   5.191  0.0148 -0.4440 -0.1179
  911SOL     hw 3642   7.198   3.378   5.114  0.6081 -1.9640 -1.3664
  911SOL     hw 3643   7.307   3.319   5.201 -0.0650  0.7919  1.5203
  911SOL     vw 3644   7.223   3.330   5.182  0.0827 -0.4814 -0.0665
  912SOL     ow 3645   7.446   0.784   1.117  0.5982  0.3952  0.7632
  912SOL     hw 3646   7.396   0.847   1.169  0.0199 -1.0757  2.0681
  912SOL     hw 3647   7.382   0.749   1.055  0.6733  0.3980  0.6841
  912SOL     vw 3648   7.431   0.788   1.116  0.5317  0.2015  0.9249
  913SOL     ow 3649   3.885   5.800   2.761 -0.3273 -0.1198  0.7526
  913SOL     hw 3650   3.937   5.881   2.757 -0.3480 -0.0892  1.0514
  913SOL     hw 3651   3.794   5.830   2.761 -0.3314 -0.0377  2.6211
  913SOL     vw 3652   3.880   5.815   2.761 -0.3306 -0.1047  1.0387
  914SOL     ow 3653   6.091   3.011   2.817  0.0164  1.0712 -0.4311
  914SOL     hw 3654   6.086   2.942   2.751 -3.6924  1.0652 -0.3553
  914SOL     hw 3655   6.171   3.059   2.796  2.5715 -2.8654 -0.7359
  914SOL     vw 3656   6.101   3.008   2.806 -0.1357  0.5511 -0.4612
  915SOL     ow 3657   4.752   6.125   2.277 -0.0870 -0.4667 -0.0826
  915SOL     hw 3658   4.812   6.199   2.267  0.3822 -0.7411  0.6155
  915SOL     hw 3659   4.754   6.081   2.192 -1.0156  0.7712 -0.7927
  915SOL     vw 3660   4.760   6.129   2.264 -0.1473 -0.3397 -0.0842
  916SOL     ow 3661   4.392   4.565   1.055 -0.2232  0.4902  0.1505
  916SOL     hw 3662   4.309   4.563   1.104  1.1642  0.0752  2.7002
  916SOL     hw 3663   4.425   4.475   1.062 -0.3404  0.1892 -2.3919
  916SOL     vw 3664   4.386   4.553   1.063 -0.0556  0.3960  0.1514
  917SOL     ow 3665   4.046   1.731   5.534 -0.3871 -0.4612 -0.1340
  917SOL     hw 3666   4.134   1.744   5.569 -1.0364  2.0702  0.8507
  917SOL     hw 3667   4.032   1.637   5.537  2.3331 -0.9518 -0.5144
  917SOL     vw 3668   4.056   1.720   5.539 -0.1135 -0.1920 -0.0539
  918SOL     ow 3669   7.278   1.115   6.672 -0.2218  0.2274 -0.2731
  918SOL     hw 3670   7.295   1.205   6.642  1.0974  0.1894  0.3086
  918SOL     hw 3671   7.183   1.113   6.688 -0.0178  2.1724  1.7577
  918SOL     vw 3672   7.268   1.127   6.670 -0.0207  0.4790  0.0718
  919SOL     ow 3673   7.089   4.045   5.001 -0.5655  0.6134  0.2527
  919SOL     hw 3674   7.115   4.133   5.030  0.5519  0.9883 -1.6678
  919SOL     hw 3675   7.031   4.061   4.926 -1.2472 -0.2978  0.5665
  919SOL     vw 3676   7.085   4.059   4.995 -0.5081  0.5426  0.0408
  920SOL     ow 3677   6.244   0.931   4.695  0.0630  1.1743  0.0162
  920SOL     hw 3678   6.327   0.968   4.666  1.8496 -3.3387 -1.3236
  920SOL     hw 3679   6.187   0.935   4.618 -0.0799  1.7966  0.1438
  920SOL     vw 3680   6.247   0.937   4.681  0.2799  0.6610 -0.1435
  921SOL     ow 3681   4.920   6.509   7.332 -0.0006 -0.1695 -0.4772
  921SOL     hw 3682   4.970   6.530   7.411 -1.3673  0.1782  0.3182
  921SOL     hw 3683   4.987   6.481   7.269  1.0975 -0.6532  0.8417
  921SOL     vw 3684   4.936   6.508   7.334 -0.0362 -0.1876 -0.1981
  922SOL     ow 3685   4.494   2.653   7.194  0.2899 -0.4575 -0.4422
  922SOL     hw 3686   4.522   2.669   7.104  0.2720  1.3352 -0.1566
  922SOL     hw 3687   4.575   2.636   7.242  0.2048 -2.7773 -1.0001
  922SOL     vw 3688   4.508   2.653   7.188  0.2766 -0.5271 -0.4783
  923SOL     ow 3689   3.072   1.472   2.280 -0.1115  0.7073  0.1432
  923SOL     hw 3690   2.980   1.476   2.253 -0.4405 -1.1361  0.8332
  923SOL     hw 3691   3.114   1.418   2.213  0.0818  0.1149  0.7296
  923SOL     vw 3692   3.065   1.465   2.268 -0.1295  0.3858  0.3115
  924SOL     ow 3693   0.533   5.362   5.922  0.3260 -0.2052  0.0992
  924SOL     hw 3694   0.590   5.332   5.852  0.1005 -2.3359  0.7559
  924SOL     hw 3695   0.478   5.286   5.942 -0.2917  0.6621  1.8991
  924SOL     vw 3696   0.533   5.348   5.916  0.2147 -0.3719  0.4232
  925SOL     ow 3697   1.422   5.868   1.385 -0.0742 -0.0670 -0.5580
  925SOL     hw 3698   1.418   5.940   1.447 -0.9299  0.3715 -1.0879
  925SOL     hw 3699   1.343   5.879   1.331  0.3842 -0.7172 -1.3932
  925SOL     vw 3700   1.411   5.879   1.386 -0.1267 -0.0949 -0.7381
  926SOL     ow 3701   4.440   1.644   2.753 -0.0350 -0.7370 -0.2220
  926SOL     hw 3702   4.480   1.730   2.745 -1.7792  0.0937 -0.5114
  926SOL     hw 3703   4.424   1.616   2.663  0.2722 -1.2557 -0.1228
  926SOL     vw 3704   4.443   1.652   2.740 -0.2246 -0.6958 -0.2471
  927SOL     ow 3705   4.713   5.680   5.570 -0.1446  0.2944 -0.1404
  927SOL     hw 3706   4.696   5.609   5.632 -0.3806  1.0596  0.6799
  927SOL     hw 3707   4.768   5.640   5.502  0.4246 -0.4554  0.7479
  927SOL     vw 3708   4.718   5.665   5.569 -0.1009  0.2966  0.0849
  928SOL     ow 3709   7.374   5.131   7.299 -0.2375  0.0890  0.3464
  928SOL     hw 3710   7.469   5.145   7.299 -0.0783 -0.9312  0.8171
  928SOL     hw 3711   7.361   5.049   7.347 -1.1889 -0.8669 -1.4318
  928SOL     vw 3712   7.385   5.122   7.305 -0.3419 -0.1717  0.1738
  929SOL     ow 3713   3.160   4.073   1.729  0.0486 -0.0769  1.1021
  929SOL     hw 3714   3.122   4.096   1.813 -1.3754  0.8452  0.2476
  929SOL     hw 3715   3.141   4.149   1.673  1.8254 -0.2315  0.1977
  929SOL     vw 3716   3.153   4.086   1.732  0.0951  0.0241  0.8701
  930SOL     ow 3717   2.710   7.179   4.059 -0.0372  0.2568  0.1126
  930SOL     hw 3718   2.747   7.254   4.106  3.2468 -1.4782  0.5941
  930SOL     hw 3719   2.728   7.197   3.967  0.4108  0.2384  0.1952
  930SOL     vw 3720   2.717   7.191   4.053  0.4553  0.0253  0.1872
  931SOL     ow 3721   0.011   0.919   0.797  0.3386  0.3198 -0.5777
  931SOL     hw 3722  -0.001   0.828   0.825 -2.2318  1.3351  2.2111
  931SOL     hw 3723   0.040   0.912   0.706  2.2197 -3.2538  0.1100
  931SOL     vw 3724   0.013   0.906   0.788  0.2477 -0.0177 -0.1190
  932SOL     ow 3725   2.727   3.024   3.043  0.4900  0.0294  0.6125
  932SOL     hw 3726   2.785   2.950   3.061 -0.7830 -1.0146  0.4856
  932SOL     hw 3727   2.750   3.051   2.954 -0.3385 -1.4572 -0.0862
  932SOL     vw 3728   2.738   3.018   3.034  0.2128 -0.3043  0.5035
  933SOL     ow 3729   1.172   5.499   1.356  0.1614  0.3758 -0.3752
  933SOL     hw 3730   1.154   5.573   1.299  1.1547  0.4903 -0.5710
  933SOL     hw 3731   1.151   5.530   1.444  2.0970  1.4970 -0.2374
  933SOL     vw 3732   1.167   5.513   1.361  0.5479  0.5388 -0.3829
  934SOL     ow 3733   5.438   2.949   3.257  0.0956  0.2934 -0.4802
  934SOL     hw 3734   5.439   2.956   3.162 -2.6504 -1.2314 -0.7477
  934SOL     hw 3735   5.493   2.873   3.276  1.0445  0.8971 -0.7942
  934SOL     vw 3736   5.445   2.940   3.247 -0.1414  0.1718 -0.5568
  935SOL     ow 3737   5.501   3.272   3.105 -0.1059 -0.7996 -0.9279
  935SOL     hw 3738   5.488   3.178   3.100  0.5323 -0.9177 -0.4985
  935SOL     hw 3739   5.590   3.286   3.072  0.9148 -0.6737  1.6602
  935SOL     vw 3740   5.511   3.262   3.100  0.1130 -0.7987 -0.5299
  936SOL     ow 3741   0.947   2.287   7.098 -0.0059  0.2053  0.3308
  936SOL     hw 3742   0.854   2.267   7.108  0.3966 -2.3401 -0.3445
  936SOL     hw 3743   0.983   2.277   7.187 -0.3691  1.3842  0.6300
  936SOL     vw 3744   0.939   2.283   7.111 -0.0007  0.0250  0.2811
  937SOL     ow 3745   6.332   1.511   0.791  0.4657 -0.0093  0.0394
  937SOL     hw 3746   6.425   1.535   0.799  0.4945 -0.4764  1.2275
  937SOL     hw 3747   6.292   1.542   0.872  0.1953 -2.4219  0.9065
  937SOL     vw 3748   6.339   1.518   0.802  0.4339 -0.3893  0.3106
  938SOL     ow 3749   1.413   7.482   6.044  0.2969  0.5288  0.3778
  938SOL     hw 3750   1.373   7.396   6.052  0.3779  0.4313 -0.1914
  938SOL     hw 3751   1.358   7.539   6.098  1.0355 -0.1246  1.8634
  938SOL     vw 3752   1.400   7.478   6.052  0.4051  0.4294  0.4988
  939SOL     ow 3753   4.113   1.816   2.587  0.8153 -0.2118 -0.1084
  939SOL     hw 3754   4.126   1.809   2.492  0.0412 -1.2434 -0.1588
  939SOL     hw 3755   4.021   1.793   2.599  0.5270  1.2900  0.7643
  939SOL     vw 3756   4.102   1.812   2.576  0.6752 -0.1498  0.0000
  940SOL     ow 3757   7.276   6.696   4.838  0.4155 -0.1708 -0.2161
  940SOL     hw 3758   7.228   6.676   4.758  1.5605 -1.2071 -0.6688
  940SOL     hw 3759   7.365   6.716   4.809  0.9425 -0.9135  0.8147
  940SOL     vw 3760   7.282   6.696   4.824  0.6359 -0.4055 -0.1395
  941SOL     ow 3761   5.725   6.781   3.381 -0.2154 -0.2676 -0.5012
  941SOL     hw 3762   5.781   6.823   3.446  0.0693 -2.6338  0.8908
  941SOL     hw 3763   5.659   6.735   3.432 -0.3054 -1.7843 -1.8923
  941SOL     vw 3764   5.724   6.780   3.396 -0.1900 -0.7799 -0.5012
  942SOL     ow 3765   4.990   0.249   3.104 -0.0975  0.1325  0.5403
  942SOL     hw 3766   4.895   0.244   3.115 -0.0199 -0.3766  1.0691
  942SOL     hw 3767   5.013   0.336   3.136 -0.5254  0.7446 -0.7785
  942SOL     vw 3768   4.981   0.259   3.110 -0.1435  0.1460  0.4361
  943SOL     ow 3769   4.545   0.652   6.171 -0.7554 -0.2362  0.3070
  943SOL     hw 3770   4.641   0.658   6.171 -0.6765 -1.2820 -0.1725
  943SOL     hw 3771   4.521   0.646   6.079 -1.0910 -2.1712  0.4721
  943SOL     vw 3772   4.555   0.652   6.159 -0.7894 -0.6295  0.2654
  944SOL     ow 3773   4.369   1.273   4.136 -0.1102 -0.0713  0.3457
  944SOL     hw 3774   4.457   1.239   4.154 -0.3418 -0.5345  0.6185
  944SOL     hw 3775   4.318   1.250   4.213 -0.4558  0.2673  0.2206
  944SOL     vw 3776   4.374   1.266   4.148 -0.1864 -0.0878  0.3653
  945SOL     ow 3777   6.596   0.621   2.317 -0.2734 -0.0263  0.4713
  945SOL     hw 3778   6.574   0.619   2.410 -1.5255  1.7973  0.2730
  945SOL     hw 3779   6.584   0.713   2.292  2.4741  0.0216 -0.9435
  945SOL     vw 3780   6.591   0.633   2.326 -0.0763  0.2206  0.2586
  946SOL     ow 3781   2.016   3.065   5.400 -0.5431  0.3265 -0.2556
  946SOL     hw 3782   2.094   3.008   5.401 -1.3509 -0.8129  0.1293
  946SOL     hw 3783   2.049   3.151   5.424  0.3286 -0.5249  1.7897
  946SOL     vw 3784   2.031   3.068   5.403 -0.5347  0.0639  0.0653
  947SOL     ow 3785   6.223   3.559   6.229 -0.0839 -0.9327  0.5250
  947SOL     hw 3786   6.193   3.495   6.294 -1.9306  1.5942  2.3742
  947SOL     hw 3787   6.153   3.624   6.226  0.4248 -0.3498 -3.3249
  947SOL     vw 3788   6.209   3.559   6.237 -0.2606 -0.5224  0.2611
  948SOL     ow 3789   4.067   2.759   2.403  0.4966 -0.3473  0.5143
  948SOL     hw 3790   4.144   2.778   2.349  0.0418  1.1535  0.3412
  948SOL     hw 3791   4.012   2.705   2.347  1.2794 -1.1786  0.5275
  948SOL     vw 3792   4.070   2.755   2.389  0.5395 -0.2589  0.4933
  949SOL     ow 3793   0.233   4.902   2.046 -0.1591 -1.0883  0.2315
  949SOL     hw 3794   0.171   4.832   2.068  0.1082 -1.5232 -0.3350
  949SOL     hw 3795   0.179   4.979   2.033 -0.4706 -1.2056  0.7974
  949SOL     vw 3796   0.218   4.903   2.047 -0.1649 -1.1613  0.2314
  950SOL     ow 3797   5.754   1.952   1.057  0.4139  0.1486 -0.3079
  950SOL     hw 3798   5.823   1.888   1.073  1.4575  1.0640 -1.0004
  950SOL     hw 3799   5.684   1.902   1.015  1.6514 -0.3601 -1.8503
  950SOL     vw 3800   5.754   1.937   1.054  0.7148  0.2022 -0.6027
  951SOL     ow 3801   7.497   5.339   3.684 -0.1326  0.3639  0.3303
  951SOL     hw 3802   7.524   5.362   3.595  0.2901 -1.0593  0.0628
  951SOL     hw 3803   7.416   5.388   3.698 -0.9876 -0.4721 -1.3925
  951SOL     vw 3804   7.490   5.348   3.674 -0.1896  0.0658  0.0677
  952SOL     ow 3805   1.900   4.226   0.231  0.2199  0.1998  0.6642
  952SOL     hw 3806   1.810   4.196   0.219 -0.7765  3.5442 -1.5756
  952SOL     hw 3807   1.951   4.146   0.242 -2.7362 -1.9279 -0.0045
  952SOL     vw 3808   1.895   4.212   0.231 -0.3017  0.3603  0.2805
  953SOL     ow 3809   6.015   3.966   4.233  0.0542  0.1536  0.7132
  953SOL     hw 3810   6.094   3.948   4.284 -0.8076  0.0197  2.0513
  953SOL     hw 3811   6.041   4.033   4.170  1.3089 -0.1331  0.9081
  953SOL     vw 3812   6.028   3.972   4.231  0.1061  0.0981  0.9153
  954SOL     ow 3813   1.269   4.602   4.695 -0.2249 -0.1023  0.4146
  954SOL     hw 3814   1.320   4.534   4.739 -0.8585 -0.8783 -0.0151
  954SOL     hw 3815   1.291   4.683   4.741  0.1579 -0.6828  1.2672
  954SOL     vw 3816   1.279   4.604   4.707 -0.2580 -0.2813  0.4704
  955SOL     ow 3817   3.857   6.498   0.253  0.2546  0.7758 -0.0521
  955SOL     hw 3818   3.916   6.507   0.328  0.4233 -1.4415  0.1501
  955SOL     hw 3819   3.899   6.547   0.183  1.4390  0.7113  0.5947
  955SOL     vw 3820   3.870   6.506   0.254  0.4331  0.4747  0.0599
  956SOL     ow 3821   3.382   5.936   1.506 -0.3282  0.2277  0.3511
  956SOL     hw 3822   3.338   6.009   1.463 -1.8942  0.1016  1.6350
  956SOL     hw 3823   3.315   5.896   1.561  0.7255 -1.6354  0.3966
  956SOL     vw 3824   3.368   5.940   1.508 -0.3959 -0.0350  0.5264
  957SOL     ow 3825   0.379   1.660   2.280 -0.0097 -0.4021 -0.3004
  957SOL     hw 3826   0.306   1.696   2.230 -0.1640  2.2156  1.6185
  957SOL     hw 3827   0.446   1.729   2.278  0.7335 -1.0112  1.4057
  957SOL     vw 3828   0.379   1.674   2.273  0.0680 -0.1371  0.1777
  958SOL     ow 3829   2.375   3.614   5.616 -0.8261  0.1624 -0.0327
  958SOL     hw 3830   2.458   3.630   5.571 -1.0529 -0.4813 -0.7004
  958SOL     hw 3831   2.359   3.520   5.605 -0.0093 -0.4476  2.9013
  958SOL     vw 3832   2.384   3.604   5.609 -0.7483 -0.0030  0.2661
  959SOL     ow 3833   1.321   1.059   2.340  0.0619 -0.4556  0.5957
  959SOL     hw 3834   1.286   1.143   2.368 -0.0831  0.0277 -0.9415
  959SOL     hw 3835   1.244   1.005   2.322  0.1097 -0.1644 -0.5475
  959SOL     vw 3836   1.307   1.063   2.341  0.0491 -0.3534  0.2421
  960SOL     ow 3837   5.583   7.065   6.787 -0.1088  0.1623  0.0082
  960SOL     hw 3838   5.514   7.070   6.721  0.2365  0.5652 -0.3301
  960SOL     hw 3839   5.580   6.975   6.818 -1.5157  0.4360  0.7960
  960SOL     vw 3840   5.573   7.054   6.782 -0.2491  0.2515  0.0675
  961SOL     ow 3841   2.642   2.136   5.796 -0.2907  0.0579  0.2944
  961SOL     hw 3842   2.646   2.180   5.881 -0.6176 -0.2455  0.4682
  961SOL     hw 3843   2.595   2.198   5.740  2.3061  1.4990 -0.4525
  961SOL     vw 3844   2.636   2.150   5.800  0.0087  0.2080  0.2189
  962SOL     ow 3845   2.144   2.511   0.692  0.1922  0.4163  0.3684
  962SOL     hw 3846   2.219   2.459   0.722  0.4904  2.1825  2.9575
  962SOL     hw 3847   2.069   2.451   0.699  0.7257 -0.0918  1.9907
  962SOL     vw 3848   2.144   2.496   0.697  0.3021  0.5823  0.9240
  963SOL     ow 3849   5.876   6.510   3.245  0.1721 -0.4095 -0.3465
  963SOL     hw 3850   5.811   6.500   3.314 -0.1923  1.9852 -0.2559
  963SOL     hw 3851   5.907   6.421   3.228 -2.3536 -1.5177  0.3209
  963SOL     vw 3852   5.871   6.497   3.252 -0.2093 -0.2396 -0.2464
  964SOL     ow 3853   4.442   0.975   5.536  0.2815  1.2718 -0.4966
  964SOL     hw 3854   4.431   1.058   5.583 -1.6881  0.1924  1.1409
  964SOL     hw 3855   4.367   0.971   5.477 -0.8401 -0.1941  0.9309
  964SOL     vw 3856   4.431   0.985   5.535 -0.1261  0.9360 -0.0923
  965SOL     ow 3857   3.131   4.092   5.659 -0.0317  0.0833 -0.0446
  965SOL     hw 3858   3.149   4.080   5.752  0.6050 -0.9911 -0.2785
  965SOL     hw 3859   3.044   4.055   5.646 -0.2443  0.5099  0.1789
  965SOL     vw 3860   3.122   4.085   5.669  0.0242 -0.0021 -0.0460
  966SOL     ow 3861   1.356   6.064   3.512 -0.1089 -0.4406  0.4606
  966SOL     hw 3862   1.325   6.072   3.602  0.6638 -0.3626  0.7318
  966SOL     hw 3863   1.381   6.154   3.488 -2.1508 -0.0877 -0.5391
  966SOL     vw 3864   1.355   6.077   3.521 -0.2764 -0.3841  0.3645
  967SOL     ow 3865   6.471   0.356   6.927  0.1177  0.1772  0.0953
  967SOL     hw 3866   6.493   0.263   6.920 -1.6947 -0.4247  1.5289
  967SOL     hw 3867   6.555   0.399   6.942  0.8781 -1.3849  0.5550
  967SOL     vw 3868   6.485   0.350   6.928 -0.0212 -0.1083  0.3450
  968SOL     ow 3869   4.358   4.330   7.341 -0.1531 -0.3126  0.2586
  968SOL     hw 3870   4.340   4.422   7.354  0.0169 -0.1669 -0.4941
  968SOL     hw 3871   4.426   4.328   7.273 -0.7488 -1.0150 -0.3338
  968SOL     vw 3872   4.365   4.342   7.334 -0.2096 -0.3862  0.0815
  969SOL     ow 3873   5.008   6.201   5.620 -0.5069  0.1405  0.5785
  969SOL     hw 3874   4.946   6.245   5.562 -0.5231 -1.4183 -0.6672
  969SOL     hw 3875   4.972   6.212   5.708 -1.8059  0.4497  0.0278
  969SOL     vw 3876   4.995   6.208   5.624 -0.6804 -0.0246  0.3414
  970SOL     ow 3877   4.628   1.529   3.947 -0.3495 -0.4008 -0.2693
  970SOL     hw 3878   4.651   1.485   3.865  1.8602  0.1447 -0.0019
  970SOL     hw 3879   4.539   1.560   3.933 -0.7014 -1.9112 -1.7575
  970SOL     vw 3880   4.619   1.527   3.934 -0.1044 -0.5281 -0.4303
  971SOL     ow 3881   0.029   6.243   3.769 -0.2115  0.1333  0.2647
  971SOL     hw 3882   0.020   6.190   3.690  2.6648 -0.7118  0.4076
  971SOL     hw 3883   0.032   6.333   3.737  0.0037 -0.1421 -0.5094
  971SOL     vw 3884   0.028   6.248   3.754  0.1964 -0.0145  0.1816
  972SOL     ow 3885   2.009   4.684   1.916 -0.1207  0.4743 -0.5640
  972SOL     hw 3886   1.988   4.710   1.827  1.3853  1.4494 -0.6703
  972SOL     hw 3887   1.985   4.759   1.970  0.6610  0.6054 -0.3869
  972SOL     vw 3888   2.003   4.697   1.911  0.1811  0.6204 -0.5546
  973SOL     ow 3889   5.299   3.531   0.094 -0.2155  0.1646  0.2797
  973SOL     hw 3890   5.336   3.562   0.011 -2.1379  0.8912 -0.3627
  973SOL     hw 3891   5.214   3.496   0.070  0.0882 -1.6456  1.6698
  973SOL     vw 3892   5.293   3.531   0.080 -0.4292  0.0217  0.3783
  974SOL     ow 3893   6.481   7.061   1.410 -0.4007  1.0446 -0.5848
  974SOL     hw 3894   6.455   7.153   1.415  0.8045  1.3493  0.6148
  974SOL     hw 3895   6.576   7.063   1.402 -0.2671 -0.1158  0.3976
  974SOL     vw 3896   6.490   7.073   1.409 -0.2241  0.9315 -0.2969
  975SOL     ow 3897   2.888   6.268   3.313 -0.0389 -0.4747  0.4102
  975SOL     hw 3898   2.863   6.184   3.352  0.5206 -0.6945  0.3032
  975SOL     hw 3899   2.877   6.331   3.384  2.0848 -1.0387  1.3492
  975SOL     vw 3900   2.884   6.265   3.328  0.3152 -0.5782  0.5200
  976SOL     ow 3901   4.666   4.411   1.376 -0.0602 -0.4838 -0.0306
  976SOL     hw 3902   4.657   4.465   1.454 -1.1678 -2.9979  1.7248
  976SOL     hw 3903   4.587   4.357   1.375 -0.1376 -0.5150 -3.0017
  976SOL     vw 3904   4.654   4.411   1.386 -0.2165 -0.8197 -0.1910
  977SOL     ow 3905   2.344   4.008   5.443 -0.1066 -0.2676  0.2548
  977SOL     hw 3906   2.374   4.097   5.425  0.3538 -0.1932  1.2889
  977SOL     hw 3907   2.416   3.952   5.415 -0.4119 -0.3302 -0.4323
  977SOL     vw 3908   2.357   4.013   5.437 -0.0861 -0.2661  0.3006
  978SOL     ow 3909   0.105   6.808   0.188  0.8245  0.2928  0.2981
  978SOL     hw 3910   0.095   6.728   0.240 -0.8713 -1.2599 -2.2130
  978SOL     hw 3911   0.133   6.777   0.102  1.4547  2.5573 -0.3752
  978SOL     vw 3912   0.107   6.793   0.184  0.6839  0.3870 -0.1221
  979SOL     ow 3913   5.355   3.488   4.464 -0.5785  0.2097  0.7929
  979SOL     hw 3914   5.337   3.401   4.428 -0.5301 -0.5300  2.4858
  979SOL     hw 3915   5.270   3.531   4.466 -0.5859  0.2714 -0.1636
  979SOL     vw 3916   5.342   3.482   4.459 -0.5734  0.1203  0.8903
  980SOL     ow 3917   4.789   1.787   3.169 -0.1975  0.2528 -0.0038
  980SOL     hw 3918   4.796   1.837   3.088  0.4908  0.7209  0.3313
  980SOL     hw 3919   4.865   1.814   3.221 -0.0610 -0.8040  0.3821
  980SOL     vw 3920   4.800   1.797   3.165 -0.0887  0.1752  0.0913
  981SOL     ow 3921   6.641   1.073   1.266 -0.5425  0.3547  0.5165
  981SOL     hw 3922   6.640   1.138   1.336 -0.0143  2.1713 -1.0909
  981SOL     hw 3923   6.724   1.088   1.220  0.8721 -3.1641  1.5791
  981SOL     vw 3924   6.652   1.083   1.269 -0.2863  0.1301  0.4446
  982SOL     ow 3925   2.027   4.956   5.994 -0.6815 -0.1094 -0.0340
  982SOL     hw 3926   2.073   5.027   6.038 -0.6018  0.2440 -0.6777
  982SOL     hw 3927   2.008   4.990   5.906 -0.7952 -0.8132 -0.2903
  982SOL     vw 3928   2.031   4.970   5.988 -0.6860 -0.1557 -0.1528
  983SOL     ow 3929   6.341   5.337   2.139  0.5470 -0.1008  0.4178
  983SOL     hw 3930   6.339   5.243   2.121 -0.6353  0.3795 -2.5979
  983SOL     hw 3931   6.252   5.358   2.169  0.5687  0.1835  0.2887
  983SOL     vw 3932   6.329   5.328   2.141  0.3941  0.0000  0.0029
  984SOL     ow 3933   1.761   7.473   5.951 -0.3679  0.7644  0.2935
  984SOL     hw 3934   1.841   7.493   5.901 -0.1456  3.1731  1.4669
  984SOL     hw 3935   1.690   7.485   5.889  0.1132 -1.1682 -0.7051
  984SOL     vw 3936   1.762   7.478   5.937 -0.2751  0.8273  0.3164
  985SOL     ow 3937   7.370   4.209   3.041 -0.0444 -0.0484 -0.1260
  985SOL     hw 3938   7.338   4.120   3.055  1.4398 -0.4357  1.1642
  985SOL     hw 3939   7.465   4.202   3.049  0.0710  1.7386  0.5840
  985SOL     vw 3940   7.378   4.197   3.044  0.1669  0.1366  0.1379
  986SOL     ow 3941   3.504   3.067   5.238 -0.2816  0.4157  0.4291
  986SOL     hw 3942   3.576   3.030   5.186  0.6556  0.3191  1.7380
  986SOL     hw 3943   3.426   3.050   5.186  0.7297  1.5353 -1.6104
  986SOL     vw 3944   3.503   3.060   5.224 -0.0244  0.5506  0.3324
  987SOL     ow 3945   0.152   2.585   4.985 -0.4568 -0.0507  0.9632
  987SOL     hw 3946   0.188   2.547   4.905 -1.4772  0.6885  0.1211
  987SOL     hw 3947   0.172   2.521   5.053 -3.0443 -2.7085 -0.5301
  987SOL     vw 3948   0.159   2.572   4.983 -0.9329 -0.3039  0.6552
  988SOL     ow 3949   3.042   3.345   4.702 -0.2091  0.0193  0.1003
  988SOL     hw 3950   3.065   3.435   4.725  0.2760  0.0858 -0.6041
  988SOL     hw 3951   3.125   3.298   4.706 -0.2106 -0.0986 -0.8483
  988SOL     vw 3952   3.056   3.351   4.705 -0.1453  0.0124 -0.1178
  989SOL     ow 3953   3.656   1.591   6.573  0.0909 -0.1174 -0.9486
  989SOL     hw 3954   3.603   1.613   6.650  1.0667 -0.5302 -0.1452
  989SOL     hw 3955   3.696   1.674   6.547 -0.0378 -0.0262 -0.8595
  989SOL     vw 3956   3.654   1.605   6.579  0.2027 -0.1599 -0.8307
  990SOL     ow 3957   4.156   6.422   6.844 -0.0703 -0.4203  0.2247
  990SOL     hw 3958   4.163   6.468   6.760  0.9468 -1.0967 -0.0665
  990SOL     hw 3959   4.075   6.372   6.836 -0.5628  0.3720  0.0833
  990SOL     vw 3960   4.146   6.422   6.832 -0.0007 -0.4053  0.1676
  991SOL     ow 3961   3.294   2.945   0.413  0.2620  0.3640 -0.1004
  991SOL     hw 3962   3.348   2.875   0.376  0.2208 -0.3052  1.0637
  991SOL     hw 3963   3.313   3.021   0.358  1.7311 -0.0843 -0.2624
  991SOL     vw 3964   3.304   2.946   0.401  0.4505  0.2165  0.0318
  992SOL     ow 3965   3.608   3.586   3.185  0.0610  0.1556 -0.1897
  992SOL     hw 3966   3.569   3.657   3.134  2.2682  1.1270 -0.6442
  992SOL     hw 3967   3.555   3.509   3.164 -0.4869  1.0125 -2.1680
  992SOL     vw 3968   3.596   3.585   3.175  0.2799  0.3968 -0.5108
  993SOL     ow 3969   0.826   2.103   3.550  0.0116 -0.3111  0.1302
  993SOL     hw 3970   0.864   2.175   3.601  1.1196  0.2684 -1.4481
  993SOL     hw 3971   0.778   2.147   3.480 -0.3735 -1.1053 -0.1165
  993SOL     vw 3972   0.824   2.118   3.547  0.1070 -0.3393 -0.1107
  994SOL     ow 3973   2.424   4.745   6.037 -0.1359  0.4256  0.2277
  994SOL     hw 3974   2.508   4.724   5.997 -0.3668  0.6993 -0.4236
  994SOL     hw 3975   2.438   4.733   6.131  0.5113  0.0787  0.0929
  994SOL     vw 3976   2.437   4.741   6.044 -0.0811  0.4160  0.1237
  995SOL     ow 3977   3.405   2.814   3.192 -0.1110  0.2634  0.2927
  995SOL     hw 3978   3.375   2.828   3.103  0.0476 -0.7712  0.0612
  995SOL     hw 3979   3.486   2.865   3.199  1.6392 -2.1129 -1.2083
  995SOL     vw 3980   3.412   2.823   3.182  0.1409 -0.1866  0.0641
  996SOL     ow 3981   6.588   1.934   0.194 -0.3584 -0.2883 -0.2790
  996SOL     hw 3982   6.620   1.895   0.112  1.0612  1.9451 -0.8800
  996SOL     hw 3983   6.667   1.966   0.238 -1.2445 -0.0694  1.2312
  996SOL     vw 3984   6.603   1.933   0.189 -0.2880  0.0353 -0.1591
  997SOL     ow 3985   5.307   1.089   0.860 -0.0738  0.2900  0.1845
  997SOL     hw 3986   5.232   1.059   0.911 -0.3608 -2.7196 -1.7423
  997SOL     hw 3987   5.269   1.117   0.776  0.6580  2.4293  0.4980
  997SOL     vw 3988   5.292   1.089   0.856 -0.0153  0.1752 -0.0283
  998SOL     ow 3989   2.919   0.150   5.895 -0.2369  0.0694 -0.3357
  998SOL     hw 3990   2.934   0.159   5.801  0.6852  0.5492 -0.1550
  998SOL     hw 3991   2.919   0.240   5.928 -1.9901 -0.0013 -0.0725
  998SOL     vw 3992   2.921   0.163   5.887 -0.3465  0.1234 -0.2773
  999SOL     ow 3993   6.883   7.016   1.570  0.3101 -0.4833  0.1242
  999SOL     hw 3994   6.942   7.087   1.544 -0.2156 -0.2295 -0.4030
  999SOL     hw 3995   6.882   7.019   1.665 -0.0681  0.5209  0.0999
  999SOL     vw 3996   6.891   7.025   1.579  0.1910 -0.3171  0.0514
 1000SOL     ow 3997   3.907   2.494   3.320 -0.1097 -0.5293  0.2666
 1000SOL     hw 3998   3.839   2.479   3.254 -0.7584  1.3770  0.4188
 1000SOL     hw 3999   3.863   2.477   3.404 -1.9680  4.6598  0.7301
 1000SOL     vw 4000   3.892   2.490   3.323 -0.4406  0.4067  0.3480
 1001SOL     ow 4001   1.451   5.550   1.355 -0.1812 -0.7707 -0.1444
 1001SOL     hw 4002   1.363   5.514   1.361  0.1166 -1.5030 -0.1323
 1001SOL     hw 4003   1.508   5.474   1.344  0.3262 -0.2205 -1.5368
 1001SOL     vw 4004   1.447   5.535   1.354 -0.0749 -0.7946 -0.3265
 1002SOL     ow 4005   6.292   6.646   1.105 -0.6284 -0.2430 -0.0111
 1002SOL     hw 4006   6.348   6.571   1.124 -0.1559 -0.7566 -2.9619
 1002SOL     hw 4007   6.276   6.686   1.190 -1.1116 -3.7761  1.7333
 1002SOL     vw 4008   6.298   6.642   1.119 -0.6299 -0.7768 -0.1703
 1003SOL     ow 4009   5.889   4.757   2.348  0.0635  0.4586 -0.4632
 1003SOL     hw 4010   5.933   4.676   2.376 -1.9433 -0.4943  0.0863
 1003SOL     hw 4011   5.796   4.741   2.364 -0.6394  1.9960 -2.5706
 1003SOL     vw 4012   5.883   4.744   2.354 -0.2942  0.5357 -0.6686
 1004SOL     ow 4013   4.512   0.807   0.399  0.0794 -0.1775  0.1423
 1004SOL     hw 4014   4.418   0.824   0.409  0.0571 -0.8325  1.2630
 1004SOL     hw 4015   4.539   0.771   0.484  0.9418 -1.7931 -0.7620
 1004SOL     vw 4016   4.503   0.804   0.411  0.1905 -0.4771  0.1708
 1005SOL     ow 4017   1.839   6.732   5.995  0.0150  0.4260 -0.1434
 1005SOL     hw 4018   1.793   6.665   6.046 -3.1136  1.8189 -0.9270
 1005SOL     hw 4019   1.865   6.687   5.914  5.8674 -2.0820  2.5211
 1005SOL     vw 4020   1.836   6.717   5.991  0.3744  0.2789  0.1047
 1006SOL     ow 4021   4.478   5.287   6.967 -0.1394 -0.1163 -0.1892
 1006SOL     hw 4022   4.503   5.379   6.975  1.7179 -0.6771  1.0987
 1006SOL     hw 4023   4.499   5.249   7.052 -1.2399 -1.6679 -0.5667
 1006SOL     vw 4024   4.484   5.295   6.979 -0.0396 -0.3953 -0.0689
 1007SOL     ow 4025   0.813   1.432   4.249 -0.1814  0.0280  0.5377
 1007SOL     hw 4026   0.860   1.434   4.332 -0.4134  0.4258  0.6608
 1007SOL     hw 4027   0.774   1.344   4.245  0.9346 -0.4747  0.2270
 1007SOL     vw 4028   0.814   1.420   4.259 -0.0648  0.0142  0.5128
 1008SOL     ow 4029   6.491   0.306   1.500  0.0876  0.6911  0.2014
 1008SOL     hw 4030   6.437   0.385   1.488  0.4028  0.7598 -0.9506
 1008SOL     hw 4031   6.442   0.237   1.454  0.8577  0.7112 -0.6755
 1008SOL     vw 4032   6.477   0.308   1.492  0.2308  0.7028 -0.0663
 1009SOL     ow 4033   3.085   2.131   3.483 -0.1651 -0.5644  0.1018
 1009SOL     hw 4034   3.053   2.178   3.560  1.1426 -0.7213  0.7591
 1009SOL     hw 4035   3.180   2.133   3.491  0.0299 -0.0829 -1.8250
 1009SOL     vw 4036   3.093   2.137   3.494  0.0331 -0.5217 -0.0657
 1010SOL     ow 4037   0.179   1.936   3.873  0.2175 -0.3635  1.2074
 1010SOL     hw 4038   0.235   1.872   3.917  0.8290 -0.6812  0.0144
 1010SOL     hw 4039   0.172   2.008   3.935  1.7561 -0.4329  1.5060
 1010SOL     vw 4040   0.186   1.937   3.887  0.5012 -0.4147  1.0895
 1011SOL     ow 4041   5.658   0.773   0.716 -0.2668 -0.1886  0.8397
 1011SOL     hw 4042   5.716   0.729   0.654 -1.8120  1.6501 -2.1576
 1011SOL     hw 4043   5.693   0.862   0.722 -1.6634  0.4158  0.4119
 1011SOL     vw 4044   5.670   0.779   0.708 -0.6547  0.1338  0.3878
 1012SOL     ow 4045   5.558   3.895   0.623  0.3287 -0.2650  0.2741
 1012SOL     hw 4046   5.575   3.987   0.643  0.1959 -0.5620  1.8374
 1012SOL     hw 4047   5.641   3.862   0.589 -0.0678  0.8148 -1.9635
 1012SOL     vw 4048   5.571   3.903   0.621  0.2592 -0.1616  0.1852
 1013SOL     ow 4049   0.555   4.637   3.271 -0.0466  1.0030  0.1435
 1013SOL     hw 4050   0.600   4.574   3.327 -1.4096 -0.3920 -0.2594
 1013SOL     hw 4051   0.481   4.668   3.324 -0.8347  0.3391 -0.5285
 1013SOL     vw 4052   0.551   4.633   3.285 -0.3304  0.7312  0.0017
 1014SOL     ow 4053   5.692   1.430   5.392 -0.1726 -0.3998 -0.0277
 1014SOL     hw 4054   5.644   1.350   5.413  1.7499 -1.2524  1.4919
 1014SOL     hw 4055   5.773   1.399   5.352 -0.1057  0.9119 -0.9752
 1014SOL     vw 4056   5.696   1.416   5.390  0.0899 -0.3393  0.0477
 1015SOL     ow 4057   6.251   5.139   1.197 -0.7234  0.1252  0.4934
 1015SOL     hw 4058   6.178   5.191   1.230  0.2839  1.3007  0.9481
 1015SOL     hw 4059   6.235   5.134   1.102 -3.7292 -3.4418  0.9850
 1015SOL     vw 4060   6.240   5.145   1.189 -0.9873 -0.1900  0.6182
 1016SOL     ow 4061   3.758   5.258   1.861  0.3905  0.0575  0.0413
 1016SOL     hw 4062   3.714   5.179   1.831 -1.8292  1.5426 -0.9766
 1016SOL     hw 4063   3.840   5.261   1.811 -0.9648 -0.0558 -2.3568
 1016SOL     vw 4064   3.763   5.248   1.850 -0.0811  0.2387 -0.4094
 1017SOL     ow 4065   1.270   5.592   5.990 -0.1533  0.2402  0.4891
 1017SOL     hw 4066   1.321   5.540   5.927 -0.8683  0.3396 -0.1819
 1017SOL     hw 4067   1.204   5.532   6.024  0.7346 -0.0517  1.7955
 1017SOL     vw 4068   1.268   5.577   5.986 -0.1305  0.2151  0.5729
 1018SOL     ow 4069   3.797   5.333   0.059 -0.2731 -0.1706  0.3958
 1018SOL     hw 4070   3.892   5.320   0.061 -0.3403 -0.7426  0.0820
 1018SOL     hw 4071   3.778   5.382   0.139  0.0541 -1.6916  1.4653
 1018SOL     vw 4072   3.807   5.338   0.070 -0.2388 -0.4468  0.4955
 1019SOL     ow 4073   3.018   2.830   4.070  0.1646  0.2485 -0.2272
 1019SOL     hw 4074   3.033   2.836   4.165  2.5121 -0.6176 -0.4802
 1019SOL     hw 4075   3.001   2.737   4.054 -0.1080  0.3724 -0.6866
 1019SOL     vw 4076   3.017   2.819   4.081  0.4383  0.1508 -0.3211
 1020SOL     ow 4077   4.448   6.024   3.307  0.6295 -0.0766 -0.1592
 1020SOL     hw 4078   4.513   6.094   3.309  0.3236  0.2408  2.4650
 1020SOL     hw 4079   4.366   6.066   3.332  0.2012 -1.1490  0.3128
 1020SOL     vw 4080   4.446   6.039   3.311  0.5326 -0.1762  0.2491
 1021SOL     ow 4081   1.048   5.740   0.914 -1.0956 -0.3404 -0.4512
 1021SOL     hw 4082   1.001   5.672   0.865 -2.4351  0.0797  0.1950
 1021SOL     hw 4083   1.013   5.822   0.881  1.6088  0.1837 -2.3361
 1021SOL     vw 4084   1.037   5.742   0.903 -0.9156 -0.2160 -0.6147
 1022SOL     ow 4085   3.194   6.023   4.371 -0.0322 -0.4658  0.3272
 1022SOL     hw 4086   3.107   6.062   4.374 -0.1495 -0.5534 -1.0170
 1022SOL     hw 4087   3.201   5.988   4.282  2.0429  1.1094 -0.2183
 1022SOL     vw 4088   3.183   6.024   4.360  0.2260 -0.2697  0.0777
 1023SOL     ow 4089   4.129   4.825   2.495 -0.0380  0.5973  0.3451
 1023SOL     hw 4090   4.171   4.895   2.545 -0.8427 -0.3631  2.4311
 1023SOL     hw 4091   4.195   4.757   2.487  0.3465  1.0586 -0.6459
 1023SOL     vw 4092   4.143   4.826   2.500 -0.0932  0.5312  0.4896
 1024SOL     ow 4093   1.750   7.002   4.489 -0.0517 -0.1770  0.0771
 1024SOL     hw 4094   1.678   6.952   4.451 -0.7564  0.5477  0.4327
 1024SOL     hw 4095   1.775   6.952   4.567 -0.3305 -0.3158  0.0808
 1024SOL     vw 4096   1.744   6.989   4.495 -0.1814 -0.0999  0.1247
 1025SOL     ow 4097   4.109   1.550   4.470 -0.1085 -0.0321 -0.0561
 1025SOL     hw 4098   4.115   1.456   4.489 -0.1556 -0.2924 -1.2334
 1025SOL     hw 4099   4.132   1.557   4.377  1.9613  1.3808  0.5063
 1025SOL     vw 4100   4.113   1.538   4.460  0.1585  0.1200 -0.1373
 1026SOL     ow 4101   1.217   4.802   1.151 -0.1832  0.0047  0.1154
 1026SOL     hw 4102   1.296   4.829   1.196  0.7474 -0.3939 -1.2165
 1026SOL     hw 4103   1.216   4.853   1.070  1.4566 -3.4122 -2.3410
 1026SOL     vw 4104   1.227   4.812   1.146  0.1560 -0.4988 -0.3844
 1027SOL     ow 4105   2.370   6.940   1.152  0.2266  0.3205 -0.2533
 1027SOL     hw 4106   2.376   6.965   1.060  0.6348 -2.8467 -1.1808
 1027SOL     hw 4107   2.457   6.960   1.188  0.4801  0.3592 -0.8733
 1027SOL     vw 4108   2.382   6.946   1.145  0.3139 -0.0923 -0.4575
 1028SOL     ow 4109   5.111   2.849   5.860  0.0205  0.5989  0.4639
 1028SOL     hw 4110   5.148   2.937   5.866  1.4974 -0.0009  0.6906
 1028SOL     hw 4111   5.017   2.860   5.878  0.0038  2.2370 -0.5150
 1028SOL     vw 4112   5.103   2.862   5.863  0.2129  0.7358  0.3648
 1029SOL     ow 4113   0.311   5.115   5.354  0.8448 -0.2445 -0.6966
 1029SOL     hw 4114   0.387   5.076   5.311  3.1846  2.4512  0.5807
 1029SOL     hw 4115   0.305   5.203   5.316  0.3909  0.7173  1.4686
 1029SOL     vw 4116   0.320   5.122   5.343  1.0936  0.2379 -0.2427
 1030SOL     ow 4117   4.369   4.805   1.759 -0.0988 -0.3205 -0.4595
 1030SOL     hw 4118   4.375   4.898   1.780 -1.2952 -0.6960  1.9398
 1030SOL     hw 4119   4.458   4.771   1.773 -0.2723 -0.0220  1.5961
 1030SOL     vw 4120   4.382   4.813   1.764 -0.2797 -0.3307  0.1283
 1031SOL     ow 4121   6.881   4.757   2.718  0.3836  0.6503  0.5381
 1031SOL     hw 4122   6.822   4.696   2.762 -0.5020 -0.0863 -1.5581
 1031SOL     hw 4123   6.967   4.737   2.754 -0.2775  0.1039  1.9084
 1031SOL     vw 4124   6.884   4.746   2.729  0.1795  0.4811  0.4423
 1032SOL     ow 4125   1.702   5.407   1.676 -0.0757 -0.1412  0.5883
 1032SOL     hw 4126   1.724   5.314   1.682 -1.4100 -0.3884  2.3154
 1032SOL     hw 4127   1.609   5.412   1.698  0.0205  1.6350  0.7955
 1032SOL     vw 4128   1.693   5.396   1.680 -0.2391  0.0603  0.8435
 1033SOL     ow 4129   5.730   7.245   3.103  0.4229 -0.5353 -0.0902
 1033SOL     hw 4130   5.794   7.241   3.032 -0.0084 -1.9004 -0.4265
 1033SOL     hw 4131   5.646   7.229   3.061 -0.3340  2.2850  0.1865
 1033SOL     vw 4132   5.727   7.242   3.088  0.2663 -0.3433 -0.0982
 1034SOL     ow 4133   6.489   7.468   2.031  0.1041 -0.6115  0.2159
 1034SOL     hw 4134   6.486   7.401   1.962 -1.0149  0.0775 -0.4424
 1034SOL     hw 4135   6.560   7.527   2.005  0.1581 -0.7533  0.0363
 1034SOL     vw 4136   6.498   7.467   2.018 -0.0365 -0.5393  0.1054
 1035SOL     ow 4137   4.505   1.692   3.202 -0.0313  0.7179 -0.5804
 1035SOL     hw 4138   4.475   1.773   3.244 -1.1080  0.0942 -0.1082
 1035SOL     hw 4139   4.470   1.622   3.256  2.3507 -0.1041  0.0103
 1035SOL     vw 4140   4.496   1.694   3.214  0.1409  0.5272 -0.4404
 1036SOL     ow 4141   4.559   3.133   2.459  0.3829 -0.4754 -0.5711
 1036SOL     hw 4142   4.631   3.091   2.412  0.8384  1.6273 -1.8973
 1036SOL     hw 4143   4.599   3.166   2.539  0.7349 -0.0101 -0.9299
 1036SOL     vw 4144   4.574   3.132   2.463  0.4892 -0.1366 -0.7936
 1037SOL     ow 4145   6.158   7.342   2.370  0.8770 -0.1747  0.4509
 1037SOL     hw 4146   6.222   7.272   2.383  2.0439  1.0637  1.7398
 1037SOL     hw 4147   6.192   7.391   2.294  2.0347  1.0298  1.6972
 1037SOL     vw 4148   6.171   7.339   2.361  1.1837  0.1473  0.7854
 1038SOL     ow 4149   6.710   4.857   2.148 -0.5918  0.8698 -0.0713
 1038SOL     hw 4150   6.646   4.794   2.117  0.6662 -1.1709  1.1919
 1038SOL     hw 4151   6.791   4.833   2.103  0.0260  1.2128  0.8204
 1038SOL     vw 4152   6.713   4.845   2.138 -0.3443  0.6459  0.2129
 1039SOL     ow 4153   2.125   7.432   6.694 -0.6579 -0.0395  0.0842
 1039SOL     hw 4154   2.210   7.467   6.668 -1.3608  0.3894 -1.7777
 1039SOL     hw 4155   2.095   7.492   6.763  0.9746 -0.8398  1.5767
 1039SOL     vw 4156   2.132   7.445   6.700 -0.5352 -0.0887  0.0350
 1040SOL     ow 4157   2.138   3.739   6.778  0.3211 -0.5946  0.2469
 1040SOL     hw 4158   2.049   3.706   6.782 -0.4644  1.3913  0.3613
 1040SOL     hw 4159   2.149   3.768   6.688 -0.8712  3.3184  1.1434
 1040SOL     vw 4160   2.128   3.738   6.767  0.0602  0.1837  0.3803
 1041SOL     ow 4161   1.851   6.412   3.147 -0.2302  0.4743 -0.3401
 1041SOL     hw 4162   1.835   6.507   3.151  0.7388  0.6063  0.9767
 1041SOL     hw 4163   1.787   6.380   3.084  0.5320  2.2547 -2.1629
 1041SOL     vw 4164   1.841   6.421   3.139 -0.0018  0.7265 -0.4069
 1042SOL     ow 4165   6.665   5.464   5.879 -0.1012 -0.6328 -0.0982
 1042SOL     hw 4166   6.687   5.539   5.824 -0.0529 -0.2291  0.4538
 1042SOL     hw 4167   6.706   5.390   5.836 -0.5446 -0.4207 -0.9076
 1042SOL     vw 4168   6.673   5.464   5.866 -0.1533 -0.5517 -0.1321
 1043SOL     ow 4169   5.907   1.299   2.002 -0.7146  0.3675  0.3111
 1043SOL     hw 4170   5.829   1.352   2.022 -1.3666 -0.1336 -0.8401
 1043SOL     hw 4171   5.873   1.222   1.957  0.5278  0.5249 -0.9418
 1043SOL     vw 4172   5.892   1.296   1.999 -0.6363  0.3221 -0.0060
 1044SOL     ow 4173   3.824   6.902   2.145  0.1019  0.4347 -0.1573
 1044SOL     hw 4174   3.815   6.946   2.060  0.3758 -2.1418 -1.6271
 1044SOL     hw 4175   3.752   6.937   2.198  0.1439  2.3713 -1.2869
 1044SOL     vw 4176   3.813   6.912   2.141  0.1435  0.3500 -0.5003
 1045SOL     ow 4177   5.134   0.864   5.567  0.3762 -0.2145 -0.2252
 1045SOL     hw 4178   5.213   0.907   5.532  0.8573 -1.8169 -1.2055
 1045SOL     hw 4179   5.157   0.841   5.657  0.0271  1.7043  0.4080
 1045SOL     vw 4180   5.148   0.867   5.574  0.3936 -0.1728 -0.2708
 1046SOL     ow 4181   3.544   5.185   3.237 -0.2137  0.0693 -0.2258
 1046SOL     hw 4182   3.559   5.274   3.270 -0.5264 -0.0032  0.1235
 1046SOL     hw 4183   3.449   5.174   3.240 -0.1214 -0.6109  0.6219
 1046SOL     vw 4184   3.533   5.195   3.242 -0.2428 -0.0300 -0.0679
 1047SOL     ow 4185   3.981   4.230   6.731  0.6408  0.3148 -0.3305
 1047SOL     hw 4186   4.071   4.262   6.730  0.6012  0.4257 -0.6428
 1047SOL     hw 4187   3.971   4.184   6.647  1.4314 -2.6285  1.0313
 1047SOL     vw 4188   3.992   4.228   6.719  0.7398 -0.0591 -0.1922
 1048SOL     ow 4189   5.727   4.780   7.488  0.3820  0.3993  0.3103
 1048SOL     hw 4190   5.756   4.745   7.403  0.2563 -1.0940  0.8548
 1048SOL     hw 4191   5.706   4.872   7.470 -1.5004 -0.3387 -1.7406
 1048SOL     vw 4192   5.728   4.787   7.474  0.1171  0.1051  0.1116
 1049SOL     ow 4193   6.567   2.515   5.822  0.0956 -0.5539  0.2037
 1049SOL     hw 4194   6.491   2.574   5.822  1.4205  1.4204 -3.6333
 1049SOL     hw 4195   6.528   2.427   5.816 -1.9924  0.3892 -1.9525
 1049SOL     vw 4196   6.552   2.511   5.822 -0.0052 -0.1690 -0.5870
 1050SOL     ow 4197   7.273   5.474   3.772  0.2033  0.8973  0.2059
 1050SOL     hw 4198   7.205   5.421   3.814  1.7104 -0.7038  0.7818
 1050SOL     hw 4199   7.238   5.563   3.771 -1.6967  0.2026  0.8518
 1050SOL     vw 4200   7.260   5.478   3.777  0.1514  0.5944  0.3672
 1051SOL     ow 4201   3.678   5.540   4.156  0.4066 -0.6200  0.7947
 1051SOL     hw 4202   3.658   5.447   4.157  1.6754 -0.9740 -1.0477
 1051SOL     hw 4203   3.649   5.570   4.069  1.7742  0.2355  0.5993
 1051SOL     vw 4204   3.671   5.532   4.144  0.7544 -0.5536  0.5255
 1052SOL     ow 4205   6.167   5.279   2.913 -0.1344 -0.3329  0.1183
 1052SOL     hw 4206   6.190   5.311   3.001 -0.0163 -0.6221  0.1950
 1052SOL     hw 4207   6.074   5.297   2.905  0.5829  3.7070 -1.3937
 1052SOL     vw 4208   6.158   5.285   2.924 -0.0241  0.1616 -0.0712
 1053SOL     ow 4209   6.012   5.740   0.220  0.1213  0.8652 -0.1696
 1053SOL     hw 4210   5.969   5.726   0.304  0.8477 -0.1607  0.0421
 1053SOL     hw 4211   5.941   5.737   0.156 -0.8644  4.2480  0.5527
 1053SOL     vw 4212   5.997   5.738   0.223  0.0873  1.1761 -0.0464
 1054SOL     ow 4213   3.499   1.030   7.180 -0.0482 -0.0269 -0.4716
 1054SOL     hw 4214   3.434   0.982   7.230  1.0406 -0.2572  0.7613
 1054SOL     hw 4215   3.479   1.009   7.088 -1.6017 -0.1864 -0.1141
 1054SOL     vw 4216   3.488   1.021   7.174 -0.1094 -0.0783 -0.2615
 1055SOL     ow 4217   5.732   7.152   1.713  0.3177  0.2423  0.3071
 1055SOL     hw 4218   5.677   7.209   1.659  0.1771 -0.1591  0.0295
 1055SOL     hw 4219   5.738   7.199   1.797  1.6988  1.5569 -0.4738
 1055SOL     vw 4220   5.725   7.166   1.717  0.4816  0.3629  0.1674
 1056SOL     ow 4221   2.370   6.420   3.301  0.0164 -0.4452  0.0418
 1056SOL     hw 4222   2.388   6.332   3.269  3.0975  0.0038  0.1905
 1056SOL     hw 4223   2.374   6.412   3.396  2.4153  0.1013  0.0581
 1056SOL     vw 4224   2.373   6.408   3.309  0.7395 -0.3140  0.0637
 1057SOL     ow 4225   5.742   3.171   3.386 -0.4649 -0.6978  0.3676
 1057SOL     hw 4226   5.700   3.257   3.381 -1.2636 -1.0953  0.0291
 1057SOL     hw 4227   5.833   3.187   3.360 -0.0993  0.3765  2.1549
 1057SOL     vw 4228   5.749   3.184   3.382 -0.5219 -0.6086  0.5589
 1058SOL     ow 4229   4.375   1.389   2.863  0.2414 -0.0422  0.0006
 1058SOL     hw 4230   4.341   1.317   2.917 -0.6890  0.9475  0.7791
 1058SOL     hw 4231   4.403   1.347   2.782  1.1233 -1.4917  1.0035
 1058SOL     vw 4232   4.374   1.374   2.859  0.2348 -0.1029  0.2356
 1059SOL     ow 4233   2.326   2.256   2.108 -0.1959  0.6011  0.5120
 1059SOL     hw 4234   2.382   2.180   2.126  1.5568  1.3790 -1.3144
 1059SOL     hw 4235   2.243   2.217   2.081  0.9078 -0.7728 -1.1675
 1059SOL     vw 4236   2.322   2.241   2.107  0.1810  0.5225  0.0496
 1060SOL     ow 4237   4.331   2.902   2.030  0.1566 -0.2377 -0.4479
 1060SOL     hw 4238   4.305   2.890   2.122 -0.1474 -0.5772 -0.5765
 1060SOL     hw 4239   4.364   2.817   2.003 -1.2573 -0.6013 -1.1215
 1060SOL     vw 4240   4.332   2.889   2.039 -0.0699 -0.3304 -0.5538
 1061SOL     ow 4241   1.248   6.990   3.749 -0.1729 -0.4222  0.3647
 1061SOL     hw 4242   1.205   6.913   3.714 -1.8038  0.2848  0.7390
 1061SOL     hw 4243   1.277   7.039   3.671 -1.7353  0.0082  0.0167
 1061SOL     vw 4244   1.246   6.986   3.734 -0.5942 -0.2720  0.3682
 1062SOL     ow 4245   7.144   1.365   0.982 -0.5566 -0.1048  0.2283
 1062SOL     hw 4246   7.164   1.331   0.894  1.6411  2.1578 -0.2805
 1062SOL     hw 4247   7.059   1.407   0.973 -1.3086 -1.6527 -0.2280
 1062SOL     vw 4248   7.136   1.366   0.969 -0.3660 -0.0106  0.1010
 1063SOL     ow 4249   5.258   5.119   0.273  0.1441  0.1044 -0.4260
 1063SOL     hw 4250   5.298   5.142   0.189  2.0849 -1.9119 -0.1408
 1063SOL     hw 4251   5.286   5.189   0.332  3.6315 -1.2975 -0.1942
 1063SOL     vw 4252   5.267   5.131   0.270  0.8605 -0.3469 -0.3578
 1064SOL     ow 4253   1.758   7.260   4.692  0.4640  0.3281 -0.5353
 1064SOL     hw 4254   1.777   7.207   4.615  0.0108 -0.0648 -0.3870
 1064SOL     hw 4255   1.676   7.223   4.726  0.7409  0.3912  0.2209
 1064SOL     vw 4256   1.750   7.248   4.686  0.4407  0.2844 -0.4160
 1065SOL     ow 4257   6.424   0.534   6.649 -0.2730 -0.3215  0.3838
 1065SOL     hw 4258   6.501   0.589   6.633  0.0606 -0.7295  0.5780
 1065SOL     hw 4259   6.366   0.552   6.575 -0.9090  1.5593  1.2641
 1065SOL     vw 4260   6.426   0.544   6.637 -0.3130 -0.1271  0.5255
 1066SOL     ow 4261   7.441   3.448   0.937 -0.5145  0.2197  0.0118
 1066SOL     hw 4262   7.469   3.357   0.934 -0.6236  0.1905 -0.1095
 1066SOL     hw 4263   7.382   3.452   1.012  1.4009  0.7277  1.5730
 1066SOL     vw 4264   7.437   3.436   0.947 -0.2761  0.2829  0.2018
 1067SOL     ow 4265   6.508   5.861   0.337 -0.5086  0.5103 -0.0729
 1067SOL     hw 4266   6.437   5.821   0.286 -0.6961 -1.0866  1.3323
 1067SOL     hw 4267   6.463   5.900   0.412 -0.0791  1.3002 -0.2247
 1067SOL     vw 4268   6.493   5.861   0.340 -0.4764  0.4039  0.0925
 1068SOL     ow 4269   2.052   2.349   1.028  0.0662  0.3498  0.0942
 1068SOL     hw 4270   2.065   2.442   1.046  0.7478  0.2241  0.2609
 1068SOL     hw 4271   2.135   2.319   0.992 -0.1378 -0.2051  0.0730
 1068SOL     vw 4272   2.064   2.357   1.026  0.1293  0.2601  0.1135
 1069SOL     ow 4273   2.168   1.378   1.299  0.3105 -0.2216 -0.7785
 1069SOL     hw 4274   2.089   1.427   1.322  0.3054  0.3890 -2.0025
 1069SOL     hw 4275   2.226   1.444   1.260  0.9810 -0.8757 -0.9075
 1069SOL     vw 4276   2.165   1.393   1.297  0.3983 -0.2274 -0.9569
 1070SOL     ow 4277   6.461   6.072   1.614  0.0790 -0.1694  0.7041
 1070SOL     hw 4278   6.374   6.072   1.654  0.3239 -3.1926  1.4886
 1070SOL     hw 4279   6.518   6.106   1.683 -0.1584 -0.6537  1.1510
 1070SOL     vw 4280   6.457   6.077   1.628  0.0801 -0.6320  0.8665
 1071SOL     ow 4281   1.085   3.642   6.158  0.4629  0.5791 -0.4719
 1071SOL     hw 4282   1.131   3.593   6.089 -0.0518  1.5345 -1.5204
 1071SOL     hw 4283   1.146   3.641   6.232  0.3501 -1.8961 -0.3242
 1071SOL     vw 4284   1.099   3.635   6.159  0.3802  0.3785 -0.5910
 1072SOL     ow 4285   3.810   5.083   4.325 -0.8442 -0.3471 -0.1655
 1072SOL     hw 4286   3.749   5.067   4.396 -1.1764  0.3447 -0.2814
 1072SOL     hw 4287   3.896   5.059   4.361 -1.1803 -1.4051 -0.0333
 1072SOL     vw 4288   3.813   5.078   4.339 -0.9323 -0.3955 -0.1636
 1073SOL     ow 4289   2.610   0.971   3.384  0.4728  0.5910 -0.0600
 1073SOL     hw 4290   2.526   0.931   3.405  0.7829  0.5181  1.0724
 1073SOL     hw 4291   2.611   0.973   3.288 -1.6287  2.3191 -0.1300
 1073SOL     vw 4292   2.599   0.966   3.374  0.2364  0.8094  0.0801
 1074SOL     ow 4293   1.328   1.637   1.431 -0.1412  0.2292 -0.5036
 1074SOL     hw 4294   1.268   1.569   1.461  1.5717 -0.3220  1.9336
 1074SOL     hw 4295   1.276   1.718   1.437 -1.1260 -0.4143 -0.0438
 1074SOL     vw 4296   1.313   1.639   1.436 -0.0451  0.0716 -0.1213
 1075SOL     ow 4297   0.778   4.539   1.706 -0.2547  0.5458  0.4830
 1075SOL     hw 4298   0.841   4.478   1.743  0.4536  1.2119  0.3988
 1075SOL     hw 4299   0.695   4.515   1.747 -0.0518 -0.6658  0.2059
 1075SOL     vw 4300   0.775   4.528   1.716 -0.1345  0.4740  0.4354
 1076SOL     ow 4301   7.439   4.554   0.518 -0.2748  0.0795 -0.3595
 1076SOL     hw 4302   7.494   4.511   0.453  1.1754  1.4648 -0.1362
 1076SOL     hw 4303   7.462   4.512   0.601 -1.0751 -0.7145 -0.5244
 1076SOL     vw 4304   7.449   4.543   0.521 -0.1891  0.1576 -0.3518
 1077SOL     ow 4305   5.474   3.108   1.688 -0.1999  0.4911  0.1403
 1077SOL     hw 4306   5.393   3.108   1.739  0.1358 -1.0942  0.7003
 1077SOL     hw 4307   5.542   3.083   1.750  0.6069  1.0247 -0.5147
 1077SOL     vw 4308   5.472   3.105   1.703 -0.0491  0.3524  0.1277
 1078SOL     ow 4309   4.450   5.874   6.734  0.1170 -0.0615 -0.2251
 1078SOL     hw 4310   4.511   5.916   6.675 -0.1947 -0.6762 -1.0056
 1078SOL     hw 4311   4.368   5.869   6.685 -0.0041 -1.0530  0.0513
 1078SOL     vw 4312   4.447   5.879   6.720  0.0596 -0.2735 -0.2916
 1079SOL     ow 4313   5.481   1.047   0.001 -0.0368  0.4553  0.0462
 1079SOL     hw 4314   5.569   1.008  -0.003 -0.1156  0.2733  0.0977
 1079SOL     hw 4315   5.476   1.101  -0.078 -0.3737 -0.5801 -0.6566
 1079SOL     vw 4316   5.492   1.049  -0.010 -0.0918  0.2947 -0.0398
 1080SOL     ow 4317   7.186   3.928   6.072  0.7706 -0.6998  0.9149
 1080SOL     hw 4318   7.211   3.901   6.160  1.2802 -1.9893  0.4001
 1080SOL     hw 4319   7.091   3.920   6.070  0.6195  0.6419  1.7426
 1080SOL     vw 4320   7.177   3.924   6.083  0.8180 -0.6928  0.9563
 1081SOL     ow 4321   1.086   1.868   3.664 -0.6309  0.0972  0.1542
 1081SOL     hw 4322   1.125   1.949   3.697 -1.4096  0.0137  1.3184
 1081SOL     hw 4323   1.052   1.891   3.577 -0.5260  0.9177  0.3236
 1081SOL     vw 4324   1.087   1.882   3.657 -0.7198  0.1944  0.3302
 1082SOL     ow 4325   4.662   3.331   4.767  0.0892  0.7720 -0.0579
 1082SOL     hw 4326   4.693   3.240   4.769 -0.2824  0.6520  0.6579
 1082SOL     hw 4327   4.742   3.383   4.769  0.2895  0.4580  0.2009
 1082SOL     vw 4328   4.677   3.326   4.768  0.0665  0.7147  0.0708
 1083SOL     ow 4329   7.049   2.428   0.017  0.2535 -0.3295 -0.1423
 1083SOL     hw 4330   6.995   2.463   0.088 -0.0194 -0.2969 -0.3636
 1083SOL     hw 4331   6.987   2.380  -0.038  0.6968 -1.5720  0.4119
 1083SOL     vw 4332   7.033   2.426   0.019  0.2763 -0.4892 -0.0983
 1084SOL     ow 4333   1.125   6.106   2.743  0.1166  0.3219  0.7459
 1084SOL     hw 4334   1.061   6.176   2.728  1.1172  1.2278  0.5537
 1084SOL     hw 4335   1.148   6.076   2.656  0.8719  0.8782  0.7398
 1084SOL     vw 4336   1.120   6.112   2.730  0.3483  0.5147  0.7197
 1085SOL     ow 4337   7.254   2.480   2.729  0.3229 -0.2199 -0.2959
 1085SOL     hw 4338   7.230   2.563   2.687  0.4349  0.3772  0.8061
 1085SOL     hw 4339   7.177   2.424   2.718 -0.9356  1.0650  1.6235
 1085SOL     vw 4340   7.241   2.483   2.722  0.1717  0.0284  0.1026
 1086SOL     ow 4341   4.982   1.003   6.973 -0.4185 -0.2604 -0.3301
 1086SOL     hw 4342   4.912   1.010   6.909  0.8352 -1.5545 -1.9196
 1086SOL     hw 4343   5.061   1.030   6.927  0.9158 -3.4158 -0.1620
 1086SOL     vw 4344   4.983   1.007   6.959 -0.0772 -0.8475 -0.5178
 1087SOL     ow 4345   2.671   5.644   2.173  0.0159 -0.6323 -0.1744
 1087SOL     hw 4346   2.612   5.715   2.197  1.2261  0.3349  0.0345
 1087SOL     hw 4347   2.755   5.668   2.212 -0.0152 -3.2423  1.7927
 1087SOL     vw 4348   2.675   5.656   2.181  0.1715 -0.8490  0.1128
 1088SOL     ow 4349   3.669   5.038   6.141  0.4336 -0.3843  0.0185
 1088SOL     hw 4350   3.669   5.078   6.055 -0.4556  0.9723  0.6197
 1088SOL     hw 4351   3.626   4.953   6.128  0.1600 -0.1209 -0.8361
 1088SOL     vw 4352   3.663   5.032   6.128  0.2801 -0.1707 -0.0148
 1089SOL     ow 4353   6.095   1.361   1.758 -0.1828 -0.1970 -0.1518
 1089SOL     hw 4354   6.169   1.321   1.713  0.2563 -0.2392  0.5922
 1089SOL     hw 4355   6.019   1.335   1.706  0.3788  0.3641 -1.2618
 1089SOL     vw 4356   6.094   1.352   1.745 -0.0508 -0.1285 -0.2000
 1090SOL     ow 4357   0.505   2.332   2.338  0.1017 -0.4140 -0.0223
 1090SOL     hw 4358   0.464   2.345   2.252  0.8814 -2.5876 -0.7934
 1090SOL     hw 4359   0.444   2.373   2.400  0.4874  3.0552 -1.6824
 1090SOL     vw 4360   0.491   2.339   2.335  0.2555 -0.2431 -0.3430
 1091SOL     ow 4361   4.597   0.365   2.102 -0.2725  0.2673  0.1138
 1091SOL     hw 4362   4.679   0.410   2.122 -0.0241  0.4306 -1.1839
 1091SOL     hw 4363   4.568   0.328   2.186  0.8397  0.6730  0.6881
 1091SOL     vw 4364   4.604   0.366   2.115 -0.0930  0.3424  0.0185
 1092SOL     ow 4365   0.205   2.749   5.539 -0.6213 -0.0031  0.0107
 1092SOL     hw 4366   0.225   2.670   5.489  0.2309  1.2902 -1.8007
 1092SOL     hw 4367   0.187   2.718   5.628  1.3678 -2.0749 -0.2288
 1092SOL     vw 4368   0.205   2.735   5.544 -0.2464 -0.1059 -0.2599
 1093SOL     ow 4369   6.608   5.215   1.688  0.3339  0.4175 -0.2676
 1093SOL     hw 4370   6.658   5.288   1.653  1.5585 -0.1068  0.3049
 1093SOL     hw 4371   6.632   5.140   1.633  0.5719  0.0555  0.3158
 1093SOL     vw 4372   6.618   5.215   1.676  0.5271  0.3006 -0.1150
 1094SOL     ow 4373   0.081   1.713   6.540 -0.0488  0.6240  0.0290
 1094SOL     hw 4374   0.048   1.693   6.452 -1.1428  0.3993  0.4801
 1094SOL     hw 4375   0.035   1.652   6.597 -1.7949  2.8646  1.1814
 1094SOL     vw 4376   0.071   1.702   6.536 -0.4235  0.8899  0.2406
 1095SOL     ow 4377   6.786   2.428   1.256  0.6641 -0.2317 -1.0514
 1095SOL     hw 4378   6.776   2.460   1.166 -0.0146 -1.2835 -1.3577
 1095SOL     hw 4379   6.715   2.470   1.305  2.2989  2.0727 -0.4749
 1095SOL     vw 4380   6.776   2.438   1.251  0.7904 -0.0664 -1.0158
 1096SOL     ow 4381   1.810   5.717   7.340  0.0204 -0.0225  0.4857
 1096SOL     hw 4382   1.756   5.641   7.320 -2.6153  1.9006 -0.2075
 1096SOL     hw 4383   1.841   5.749   7.255  0.8267 -0.1019  0.7401
 1096SOL     vw 4384   1.807   5.711   7.326 -0.2210  0.2208  0.4275
 1097SOL     ow 4385   4.283   1.151   4.369 -0.3027  0.6999  0.9543
 1097SOL     hw 4386   4.324   1.137   4.454  2.9052  1.8684 -0.2622
 1097SOL     hw 4387   4.259   1.063   4.340  2.7843 -0.3347  1.1832
 1097SOL     vw 4388   4.285   1.137   4.376  0.5281  0.7176  0.8242
 1098SOL     ow 4389   5.758   1.156   1.389  0.4766  0.7743 -0.1151
 1098SOL     hw 4390   5.798   1.180   1.472 -0.1817 -0.0106  0.4490
 1098SOL     hw 4391   5.701   1.230   1.367  2.1043  1.8647 -0.8835
 1098SOL     vw 4392   5.755   1.169   1.397  0.6046  0.8146 -0.1420
 1099SOL     ow 4393   1.736   6.097   3.814  0.0350  0.0494 -0.7516
 1099SOL     hw 4394   1.795   6.024   3.835 -2.1608 -1.7944 -0.5733
 1099SOL     hw 4395   1.706   6.079   3.725  0.8335  1.7812 -1.4101
 1099SOL     vw 4396   1.740   6.085   3.805 -0.1494  0.0343 -0.8149
 1100SOL     ow 4397   6.759   4.593   2.900  0.2024 -0.2900 -0.2849
 1100SOL     hw 4398   6.709   4.653   2.956 -2.6697 -2.5882 -0.1437
 1100SOL     hw 4399   6.803   4.535   2.962  1.6255  0.5813 -0.4414
 1100SOL     vw 4400   6.758   4.593   2.916  0.0112 -0.4783 -0.2868
 1101SOL     ow 4401   6.858   5.383   4.450 -0.4673  0.1827  0.4793
 1101SOL     hw 4402   6.830   5.349   4.365  0.7439  2.4998 -0.9632
 1101SOL     hw 4403   6.781   5.428   4.484 -0.8488 -0.4301  0.4506
 1101SOL     vw 4404   6.844   5.384   4.443 -0.3579  0.4075  0.2851
 1102SOL     ow 4405   5.650   6.369   2.943 -0.1399  0.1560 -0.2896
 1102SOL     hw 4406   5.714   6.439   2.960 -0.6385  1.0217 -1.8130
 1102SOL     hw 4407   5.572   6.398   2.990  0.5907 -1.0231  1.7788
 1102SOL     vw 4408   5.648   6.382   2.952 -0.1092  0.1149 -0.2177
 1103SOL     ow 4409   2.977   0.257   0.066  0.4779 -0.2650 -0.7019
 1103SOL     hw 4410   2.953   0.199   0.138 -1.3067  0.6505 -0.5227
 1103SOL     hw 4411   2.991   0.198  -0.008 -0.1801 -1.0144 -0.2476
 1103SOL     vw 4412   2.976   0.242   0.066  0.1557 -0.2431 -0.6183
 1104SOL     ow 4413   5.810   6.873   1.631 -0.9048  0.3389  0.1080
 1104SOL     hw 4414   5.878   6.835   1.575  0.6732  2.0580  0.7375
 1104SOL     hw 4415   5.816   6.823   1.713 -3.3749 -2.3338 -1.1763
 1104SOL     vw 4416   5.820   6.862   1.635 -1.0223  0.2131  0.0216
 1105SOL     ow 4417   2.106   3.531   0.765  0.0312  0.2962  0.1468
 1105SOL     hw 4418   2.057   3.598   0.813 -0.3174 -0.1753  0.4592
 1105SOL     hw 4419   2.163   3.580   0.707 -1.2944  0.8833 -0.7207
 1105SOL     vw 4420   2.107   3.546   0.764 -0.1897  0.3115  0.0736
 1106SOL     ow 4421   6.617   1.651   6.023 -0.0505  0.4590 -0.0887
 1106SOL     hw 4422   6.536   1.690   5.988 -1.7773 -1.3474  1.6195
 1106SOL     hw 4423   6.621   1.564   5.982 -0.0423 -0.1859  1.2227
 1106SOL     vw 4424   6.607   1.645   6.013 -0.2775  0.1356  0.3097
 1107SOL     ow 4425   1.366   0.331   6.325  0.2447  0.2595 -0.1966
 1107SOL     hw 4426   1.438   0.382   6.290  0.4426  0.1365  0.0307
 1107SOL     hw 4427   1.407   0.265   6.381 -0.0675  0.4936  0.3210
 1107SOL     vw 4428   1.381   0.329   6.328  0.2295  0.2742 -0.0982
 1108SOL     ow 4429   7.378   2.846   2.933 -0.2364  0.5725  0.2983
 1108SOL     hw 4430   7.441   2.820   2.866  0.0678 -1.9798  1.4637
 1108SOL     hw 4431   7.428   2.843   3.015 -1.4086  0.3758  1.0257
 1108SOL     vw 4432   7.393   2.842   2.935 -0.3510  0.2097  0.5480
 1109SOL     ow 4433   7.465   4.874   5.873  0.1003  0.4549 -0.1231
 1109SOL     hw 4434   7.434   4.850   5.786  1.2901 -1.2721 -0.1121
 1109SOL     hw 4435   7.488   4.791   5.915  2.3752  1.4317  0.7428
 1109SOL     vw 4436   7.464   4.860   5.867  0.5577  0.3560 -0.0074
 1110SOL     ow 4437   4.878   4.192   3.634 -0.2674  0.4541  0.1626
 1110SOL     hw 4438   4.861   4.129   3.564  0.2928 -0.0013  0.4231
 1110SOL     hw 4439   4.973   4.192   3.644 -0.2589  1.3935  0.1275
 1110SOL     vw 4440   4.888   4.184   3.626 -0.1924  0.5181  0.1923
 1111SOL     ow 4441   2.701   2.625   6.807 -0.2184  0.1620 -0.0123
 1111SOL     hw 4442   2.722   2.562   6.738 -2.6445 -0.2994 -0.4391
 1111SOL     hw 4443   2.641   2.578   6.865 -1.2195  1.7068  0.2664
 1111SOL     vw 4444   2.695   2.611   6.806 -0.6706  0.3049 -0.0317
 1112SOL     ow 4445   1.049   6.870   2.085  0.1735 -0.0661 -0.1824
 1112SOL     hw 4446   1.074   6.813   2.012  2.0963  0.3380  0.0972
 1112SOL     hw 4447   0.954   6.877   2.079  0.0630 -1.8449 -1.2964
 1112SOL     vw 4448   1.040   6.864   2.075  0.4126 -0.2477 -0.2924
 1113SOL     ow 4449   7.114   5.253   5.866 -0.2860 -0.3459 -0.0299
 1113SOL     hw 4450   7.099   5.282   5.776  2.1860  1.0147 -0.0827
 1113SOL     hw 4451   7.140   5.161   5.859 -0.4831 -0.3539 -0.6500
 1113SOL     vw 4452   7.115   5.245   5.853  0.0143 -0.1676 -0.1187
 1114SOL     ow 4453   2.632   0.573   6.078 -0.6022 -0.3304  0.5176
 1114SOL     hw 4454   2.695   0.540   6.014 -0.6197 -0.5077  0.5922
 1114SOL     hw 4455   2.682   0.634   6.132 -0.8536  0.7002 -0.3793
 1114SOL     vw 4456   2.647   0.577   6.077 -0.6377 -0.2178  0.4094
 1115SOL     ow 4457   5.300   5.348   5.057  0.8252  0.1847  0.2056
 1115SOL     hw 4458   5.263   5.386   4.978 -1.0905 -0.7366  0.6011
 1115SOL     hw 4459   5.388   5.385   5.063  0.1620  2.0833 -1.0576
 1115SOL     vw 4460   5.307   5.358   5.048  0.4847  0.3140  0.0908
 1116SOL     ow 4461   6.437   5.161   5.888  0.3408  0.0351  0.3507
 1116SOL     hw 4462   6.500   5.142   5.958  0.1999 -0.2706  0.3960
 1116SOL     hw 4463   6.358   5.113   5.913  0.9916 -1.9152 -1.1312
 1116SOL     vw 4464   6.435   5.152   5.900  0.4082 -0.2625  0.1609
 1117SOL     ow 4465   6.703   0.486   6.936 -0.2038  0.0925  0.4375
 1117SOL     hw 4466   6.699   0.570   6.983 -0.7366 -0.1819  0.9026
 1117SOL     hw 4467   6.796   0.467   6.930 -0.0995  0.4341  0.8621
 1117SOL     vw 4468   6.715   0.494   6.942 -0.2606  0.1014  0.5553
 1118SOL     ow 4469   2.459   3.953   1.390 -0.5144  0.5053  0.1527
 1118SOL     hw 4470   2.540   3.942   1.340  0.0064  0.7195  0.9366
 1118SOL     hw 4471   2.413   3.870   1.381 -2.0346  1.5186 -3.4219
 1118SOL     vw 4472   2.464   3.941   1.382 -0.6462  0.6671 -0.2155
 1119SOL     ow 4473   1.988   1.967   1.335 -1.3452 -0.1292 -0.5594
 1119SOL     hw 4474   1.921   1.900   1.352 -0.4720 -1.0165 -0.5212
 1119SOL     hw 4475   2.040   1.931   1.263  0.7800 -0.7622  1.1750
 1119SOL     vw 4476   1.986   1.953   1.327 -0.9496 -0.3299 -0.3256
 1120SOL     ow 4477   3.375   5.845   6.589  0.1829  0.3677 -0.7124
 1120SOL     hw 4478   3.454   5.862   6.641 -0.3205  0.1797  0.1412
 1120SOL     hw 4479   3.314   5.914   6.615 -1.0260 -1.2486  0.9816
 1120SOL     vw 4480   3.378   5.856   6.599 -0.0430  0.1295 -0.3765
 1121SOL     ow 4481   4.164   1.959   4.273 -0.7774 -0.5669 -0.1873
 1121SOL     hw 4482   4.103   1.907   4.221 -0.9408 -0.8939  0.3179
 1121SOL     hw 4483   4.124   2.045   4.280 -0.3570 -0.2646 -1.2972
 1121SOL     vw 4484   4.151   1.963   4.267 -0.7432 -0.5701 -0.2673
 1122SOL     ow 4485   7.212   6.936   3.976 -0.1726 -0.2812 -0.6067
 1122SOL     hw 4486   7.241   6.992   3.904 -0.1567 -1.4818 -1.5738
 1122SOL     hw 4487   7.182   6.856   3.933  1.3471 -1.6945  0.8198
 1122SOL     vw 4488   7.212   6.933   3.961  0.0300 -0.6261 -0.5462
 1123SOL     ow 4489   1.342   6.737   0.364  0.1565 -0.1346 -0.4471
 1123SOL     hw 4490   1.352   6.731   0.459  1.1672 -0.0027 -0.5278
 1123SOL     hw 4491   1.337   6.831   0.347  2.1711 -0.0130 -0.6806
 1123SOL     vw 4492   1.343   6.748   0.375  0.5557 -0.1011 -0.4886
 1124SOL     ow 4493   1.565   1.756   1.540  0.4246 -0.1324  0.0220
 1124SOL     hw 4494   1.644   1.720   1.580 -1.3025 -1.2083  2.7031
 1124SOL     hw 4495   1.512   1.679   1.518 -0.6236  0.6151 -0.1270
 1124SOL     vw 4496   1.568   1.741   1.542  0.0584 -0.1757  0.3561
 1125SOL     ow 4497   5.237   6.508   6.548  0.2056  0.0280 -0.1671
 1125SOL     hw 4498   5.306   6.526   6.612  1.1460  0.6761 -1.3400
 1125SOL     hw 4499   5.203   6.594   6.523  0.6279 -0.1318 -1.3627
 1125SOL     vw 4500   5.241   6.521   6.553  0.3858  0.0920 -0.4797
 1126SOL     ow 4501   2.808   4.010   5.392  0.2553 -0.6345  0.1781
 1126SOL     hw 4502   2.887   4.055   5.359 -1.8005  2.5276 -0.8978
 1126SOL     hw 4503   2.803   4.036   5.484 -0.4580  0.7750 -0.2247
 1126SOL     vw 4504   2.818   4.020   5.400 -0.1100 -0.0315 -0.0169
 1127SOL     ow 4505   0.389   3.456   1.644  0.3771 -0.1749 -0.1994
 1127SOL     hw 4506   0.330   3.496   1.708 -0.1136  0.1243 -0.8225
 1127SOL     hw 4507   0.476   3.461   1.684  0.1621  0.5393  0.1999
 1127SOL     vw 4508   0.393   3.462   1.657  0.2840 -0.0411 -0.2289
 1128SOL     ow 4509   7.139   4.369   2.429  0.1509  0.0347 -0.2155
 1128SOL     hw 4510   7.085   4.447   2.441 -1.9212 -1.1478 -1.3350
 1128SOL     hw 4511   7.227   4.403   2.415  0.2160  2.0002  3.5492
 1128SOL     vw 4512   7.143   4.384   2.429 -0.1140  0.1378  0.1336
 1129SOL     ow 4513   7.071   5.524   1.695 -0.3079  0.9465 -0.1258
 1129SOL     hw 4514   7.117   5.603   1.721  1.1500 -0.2580  1.1577
 1129SOL     hw 4515   7.140   5.464   1.667 -1.1318 -0.6111  1.0083
 1129SOL     vw 4516   7.086   5.526   1.694 -0.2246  0.5822  0.1932
 1130SOL     ow 4517   4.589   7.000   0.799 -0.3357 -0.3078 -0.1908
 1130SOL     hw 4518   4.618   6.914   0.768  0.2598 -0.0576 -0.3528
 1130SOL     hw 4519   4.584   7.053   0.719 -2.4516 -0.6673 -0.3333
 1130SOL     vw 4520   4.592   6.996   0.784 -0.5362 -0.3221 -0.2310
 1131SOL     ow 4521   3.126   4.923   5.440 -0.3443 -0.2741  0.2312
 1131SOL     hw 4522   3.199   4.864   5.424  1.0461  1.3139  0.5227
 1131SOL     hw 4523   3.048   4.867   5.429  0.8682 -1.9780 -0.1751
 1131SOL     vw 4524   3.125   4.908   5.437 -0.0010 -0.2894  0.2160
 1132SOL     ow 4525   2.406   4.176   7.254 -0.1962  0.1022  0.0071
 1132SOL     hw 4526   2.444   4.261   7.277  1.0604 -0.5052  0.3030
 1132SOL     hw 4527   2.333   4.166   7.314  0.6529  0.2761  1.1122
 1132SOL     vw 4528   2.402   4.186   7.265  0.0817  0.0448  0.1919
 1133SOL     ow 4529   3.643   5.767   4.581 -0.0128 -0.0191 -0.1557
 1133SOL     hw 4530   3.698   5.795   4.654 -0.1495  2.1981 -0.8209
 1133SOL     hw 4531   3.557   5.752   4.620  0.0195  0.7433  0.2307
 1133SOL     vw 4532   3.639   5.769   4.596 -0.0266  0.3741 -0.1924
 1134SOL     ow 4533   3.585   0.591   6.204  0.1458 -0.2508  0.6278
 1134SOL     hw 4534   3.628   0.534   6.141  0.8300  1.3876 -0.4639
 1134SOL     hw 4535   3.656   0.627   6.257 -0.1662  0.2715  0.7044
 1134SOL     vw 4536   3.600   0.588   6.203  0.1948  0.0343  0.4938
 1135SOL     ow 4537   0.154   7.396   0.926 -0.1013 -0.0158 -0.2471
 1135SOL     hw 4538   0.172   7.363   0.837  0.9294  0.3772 -0.1996
 1135SOL     hw 4539   0.238   7.392   0.970 -0.2307  1.4154  0.1816
 1135SOL     vw 4540   0.167   7.391   0.920  0.0176  0.2246 -0.1843
 1136SOL     ow 4541   0.208   3.848   5.903 -0.2008  0.0945 -0.5225
 1136SOL     hw 4542   0.144   3.778   5.885 -0.1874 -0.0034 -0.1989
 1136SOL     hw 4543   0.293   3.808   5.883 -0.1050 -0.3356  0.6743
 1136SOL     vw 4544   0.211   3.833   5.898 -0.1864  0.0248 -0.3219
 1137SOL     ow 4545   2.964   0.223   1.243  0.2102  0.6420  0.0158
 1137SOL     hw 4546   2.945   0.151   1.302  1.6772  1.7537  1.9618
 1137SOL     hw 4547   2.878   0.252   1.212 -0.4642 -1.1796  0.0404
 1137SOL     vw 4548   2.950   0.217   1.246  0.3148  0.5483  0.2758
 1138SOL     ow 4549   1.079   4.979   1.481 -0.1719 -0.0862 -0.0984
 1138SOL     hw 4550   1.131   5.056   1.458 -1.9816  1.5518  1.0008
 1138SOL     hw 4551   1.096   4.965   1.574  0.5587 -1.4125 -0.3998
 1138SOL     vw 4552   1.088   4.987   1.490 -0.3142 -0.0453  0.0069
 1139SOL     ow 4553   0.313   5.523   5.807  0.7395  0.2269  0.2905
 1139SOL     hw 4554   0.363   5.522   5.726  1.1763 -1.2315  0.5457
 1139SOL     hw 4555   0.379   5.535   5.876  0.6137 -0.4485  0.5430
 1139SOL     vw 4556   0.328   5.524   5.806  0.7805 -0.0546  0.3576
 1140SOL     ow 4557   2.188   0.679   0.331 -0.0876 -0.4396  0.1832
 1140SOL     hw 4558   2.216   0.592   0.303 -2.2150 -1.0187 -0.3246
 1140SOL     hw 4559   2.163   0.724   0.251  0.1377  0.3354  0.5340
 1140SOL     vw 4560   2.188   0.674   0.317 -0.3386 -0.4138  0.1625
 1141SOL     ow 4561   1.160   6.245   5.504 -0.2279 -0.2599 -0.5687
 1141SOL     hw 4562   1.075   6.272   5.469 -0.2233  1.9600  0.9988
 1141SOL     hw 4563   1.220   6.254   5.430 -0.6408  2.1274 -0.6752
 1141SOL     vw 4564   1.157   6.250   5.489 -0.2818  0.3479 -0.3762
 1142SOL     ow 4565   5.501   6.378   5.066  0.1437  0.1796  0.3986
 1142SOL     hw 4566   5.470   6.291   5.043  1.6510 -0.3351  0.2289
 1142SOL     hw 4567   5.429   6.436   5.041 -1.1812 -1.0556  1.1809
 1142SOL     vw 4568   5.488   6.374   5.060  0.1678 -0.0515  0.4795
 1143SOL     ow 4569   5.030   5.798   1.338  0.0025  0.1608 -0.5696
 1143SOL     hw 4570   5.059   5.826   1.424  0.3032 -0.7612 -0.3509
 1143SOL     hw 4571   5.027   5.702   1.344 -1.2720  0.1376 -1.1745
 1143SOL     vw 4572   5.033   5.789   1.350 -0.1261  0.0360 -0.6206
 1144SOL     ow 4573   6.913   6.283   1.428  0.1237  0.2035 -0.1955
 1144SOL     hw 4574   6.927   6.246   1.516  0.0712  0.4168 -0.0975
 1144SOL     hw 4575   6.983   6.247   1.375 -1.0854 -1.7124 -0.6062
 1144SOL     vw 4576   6.924   6.273   1.433 -0.0427 -0.0210 -0.2367
 1145SOL     ow 4577   2.842   5.526   4.142 -0.0877 -0.3152  0.1813
 1145SOL     hw 4578   2.901   5.454   4.121  0.1283 -0.2983  0.7152
 1145SOL     hw 4579   2.797   5.498   4.222  0.2966  0.3119  0.6235
 1145SOL     vw 4580   2.844   5.513   4.150 -0.0085 -0.2303  0.3104
 1146SOL     ow 4581   3.437   2.552   0.690  0.9204 -0.1320 -0.2517
 1146SOL     hw 4582   3.413   2.547   0.597  1.0972  0.3594 -0.3287
 1146SOL     hw 4583   3.464   2.464   0.712  3.0840  0.1956 -1.2850
 1146SOL     vw 4584   3.437   2.540   0.680  1.2293 -0.0240 -0.3982
 1147SOL     ow 4585   7.374   0.412   1.439 -0.0927  0.5199  0.2600
 1147SOL     hw 4586   7.375   0.371   1.352  0.7355  1.2089 -0.0606
 1147SOL     hw 4587   7.437   0.360   1.490 -1.0783 -0.3166  0.6722
 1147SOL     vw 4588   7.382   0.399   1.435 -0.1132  0.5004  0.2722
 1148SOL     ow 4589   3.797   1.897   5.402  0.2073  0.4274  0.4406
 1148SOL     hw 4590   3.707   1.864   5.394  0.1232  0.0563  2.3746
 1148SOL     hw 4591   3.800   1.972   5.343 -0.6065 -1.0008 -1.5294
 1148SOL     vw 4592   3.785   1.903   5.393  0.0887  0.1900  0.4358
 1149SOL     ow 4593   1.731   4.594   2.066 -0.1430 -0.1364  0.0170
 1149SOL     hw 4594   1.721   4.500   2.081 -0.6308  0.1355  1.6385
 1149SOL     hw 4595   1.641   4.627   2.067 -0.0563  0.2263 -1.6388
 1149SOL     vw 4596   1.718   4.586   2.068 -0.1959 -0.0529  0.0125
 1150SOL     ow 4597   2.198   4.175   7.422  0.1015 -0.2256 -0.3336
 1150SOL     hw 4598   2.142   4.096   7.423  1.9668 -1.6145  0.8397
 1150SOL     hw 4599   2.230   4.183   7.511  1.4171  0.7939 -0.8621
 1150SOL     vw 4600   2.195   4.165   7.434  0.5212 -0.2744 -0.2482
 1151SOL     ow 4601   2.481   1.993   6.283 -0.2264  0.4963  0.2481
 1151SOL     hw 4602   2.452   2.034   6.201  2.2540  0.8734 -0.5171
 1151SOL     hw 4603   2.531   2.062   6.328  0.0178 -0.2742  1.1877
 1151SOL     vw 4604   2.484   2.008   6.278  0.1330  0.4444  0.2708
 1152SOL     ow 4605   0.737   0.120   2.011  0.5054 -0.2511 -0.8486
 1152SOL     hw 4606   0.725   0.068   1.931  1.2339  0.1358 -1.2296
 1152SOL     hw 4607   0.712   0.209   1.986 -0.4568 -0.3579 -0.2837
 1152SOL     vw 4608   0.732   0.125   1.997  0.4745 -0.2142 -0.8245
 1153SOL     ow 4609   1.347   5.651   3.542 -0.7371  0.0071  0.3198
 1153SOL     hw 4610   1.426   5.637   3.596 -1.3493 -0.7335  1.0555
 1153SOL     hw 4611   1.291   5.705   3.597  0.3041  2.8940 -1.2539
 1153SOL     vw 4612   1.350   5.656   3.557 -0.6804  0.2904  0.2093
 1154SOL     ow 4613   6.280   3.177   2.769 -0.1361  0.3974 -0.0900
 1154SOL     hw 4614   6.332   3.245   2.812  1.2488  0.5450 -1.8481
 1154SOL     hw 4615   6.316   3.174   2.680 -4.7742  2.3210 -2.3602
 1154SOL     vw 4616   6.292   3.186   2.763 -0.5653  0.6708 -0.6214
 1155SOL     ow 4617   2.619   4.319   0.129  0.5207  0.1427  0.1060
 1155SOL     hw 4618   2.649   4.396   0.082 -0.1860 -0.8378 -2.1046
 1155SOL     hw 4619   2.685   4.305   0.198  0.9460  2.3358  0.2150
 1155SOL     vw 4620   2.632   4.327   0.132  0.4836  0.3026 -0.1713
 1156SOL     ow 4621   1.979   6.158   4.470 -0.3238 -0.0119 -0.1867
 1156SOL     hw 4622   1.888   6.181   4.489 -0.4800 -0.2397 -0.6506
 1156SOL     hw 4623   2.012   6.122   4.553 -0.1628  1.5634  0.4629
 1156SOL     vw 4624   1.971   6.156   4.484 -0.3231  0.1659 -0.1624
 1157SOL     ow 4625   6.223   4.669   3.832 -0.4381  0.0816  0.8156
 1157SOL     hw 4626   6.171   4.593   3.807  0.9844 -0.8992  0.6866
 1157SOL     hw 4627   6.167   4.718   3.892 -2.1576  0.0439 -0.6641
 1157SOL     vw 4628   6.209   4.666   3.837 -0.4773 -0.0529  0.6034
 1158SOL     ow 4629   2.317   3.816   6.106 -0.5492  0.4208  0.3899
 1158SOL     hw 4630   2.257   3.782   6.174 -0.5987 -1.8876 -0.6997
 1158SOL     hw 4631   2.323   3.745   6.042  0.8779  1.8482 -1.1589
 1158SOL     vw 4632   2.310   3.802   6.107 -0.3673  0.3046  0.0417
 1159SOL     ow 4633   6.255   1.171   4.197 -0.1607 -0.2124  0.2090
 1159SOL     hw 4634   6.175   1.137   4.238  0.4330 -1.5237  0.3518
 1159SOL     hw 4635   6.326   1.139   4.253  0.5773 -0.8078 -1.0225
 1159SOL     vw 4636   6.254   1.162   4.210  0.0153 -0.4640  0.0651
 1160SOL     ow 4637   0.915   7.251   2.240 -0.4493 -0.1819 -0.2452
 1160SOL     hw 4638   0.833   7.212   2.270 -1.4876  1.7093 -0.4855
 1160SOL     hw 4639   0.977   7.178   2.238 -2.9118 -2.4551 -3.2031
 1160SOL     vw 4640   0.912   7.236   2.244 -0.9112 -0.2325 -0.6671
 1161SOL     ow 4641   5.832   0.506   3.496 -0.5695  0.0789 -0.7992
 1161SOL     hw 4642   5.761   0.484   3.435 -0.2943 -0.2774 -0.9970
 1161SOL     hw 4643   5.890   0.429   3.493 -0.0783  0.4474 -0.7853
 1161SOL     vw 4644   5.830   0.493   3.487 -0.4685  0.0805 -0.8234
 1162SOL     ow 4645   0.845   2.489   4.840  0.1568  0.1322  0.1250
 1162SOL     hw 4646   0.929   2.528   4.816  1.0863 -2.5407 -1.4576
 1162SOL     hw 4647   0.781   2.531   4.782  0.7453  0.7865 -0.0556
 1162SOL     vw 4648   0.847   2.499   4.829  0.3571 -0.1341 -0.1075
 1163SOL     ow 4649   4.639   6.239   7.231  0.3600 -0.3371  0.1162
 1163SOL     hw 4650   4.627   6.332   7.250  1.1255 -0.2571  0.2414
 1163SOL     hw 4651   4.586   6.194   7.297  2.6765 -0.0563  2.3241
 1163SOL     vw 4652   4.631   6.245   7.242  0.7665 -0.2894  0.4241
 1164SOL     ow 4653   2.445   1.054   7.065  0.0058 -0.5666 -0.7400
 1164SOL     hw 4654   2.382   0.994   7.026 -1.3788 -0.3906  1.1286
 1164SOL     hw 4655   2.407   1.141   7.053  1.2245 -0.1453 -1.9652
 1164SOL     vw 4656   2.432   1.058   7.058 -0.0161 -0.4878 -0.6552
 1165SOL     ow 4657   4.167   5.312   4.493  0.2713  0.0072  0.6066
 1165SOL     hw 4658   4.131   5.386   4.443  1.5749  0.8699  0.8941
 1165SOL     hw 4659   4.172   5.345   4.583  0.3188 -0.6394  0.8416
 1165SOL     vw 4660   4.163   5.326   4.498  0.4497  0.0358  0.6757
 1166SOL     ow 4661   7.108   6.462   4.425 -0.0799  0.0057 -0.4455
 1166SOL     hw 4662   7.134   6.530   4.488  2.3402  0.5867 -1.9433
 1166SOL     hw 4663   7.106   6.506   4.341  1.4286 -1.6739 -1.4516
 1166SOL     vw 4664   7.112   6.477   4.422  0.4382 -0.1392 -0.7758
 1167SOL     ow 4665   2.048   3.091   1.255  0.4385 -0.2157 -0.0324
 1167SOL     hw 4666   2.040   2.999   1.230  0.8510 -0.0758 -0.7049
 1167SOL     hw 4667   1.958   3.122   1.261  0.0497 -1.5399  3.7083
 1167SOL     vw 4668   2.035   3.083   1.252  0.4417 -0.3721  0.3724
 1168SOL     ow 4669   7.100   6.825   1.918 -0.0027  0.3258  0.2677
 1168SOL     hw 4670   7.163   6.866   1.977  0.4382  0.2989 -0.1780
 1168SOL     hw 4671   7.153   6.788   1.847 -0.3873 -0.9982  0.6425
 1168SOL     vw 4672   7.115   6.826   1.916  0.0048  0.1476  0.2584
 1169SOL     ow 4673   4.042   1.574   4.202  0.2486  0.1517 -0.6730
 1169SOL     hw 4674   4.018   1.525   4.123 -0.2633 -0.2299 -0.2880
 1169SOL     hw 4675   3.998   1.658   4.192 -1.6383 -0.6756  0.2040
 1169SOL     vw 4676   4.033   1.578   4.190 -0.0679 -0.0078 -0.5062
 1170SOL     ow 4677   0.123   2.428   7.488  0.1996 -0.1168 -0.4598
 1170SOL     hw 4678   0.200   2.484   7.488  1.0134 -1.1898 -0.0213
 1170SOL     hw 4679   0.102   2.416   7.396 -1.0131  2.2098 -0.5599
 1170SOL     vw 4680   0.130   2.434   7.476  0.1469  0.0486 -0.4151
 1171SOL     ow 4681   7.107   3.034   2.738 -0.1314  0.2635  0.1973
 1171SOL     hw 4682   7.040   3.091   2.775 -0.6610  0.2369 -0.6941
 1171SOL     hw 4683   7.080   3.020   2.647  0.1225 -1.1960  0.3177
 1171SOL     vw 4684   7.095   3.039   2.730 -0.1678  0.0675  0.0955
 1172SOL     ow 4685   6.376   4.200   5.358 -0.4572 -0.0240 -0.0557
 1172SOL     hw 4686   6.453   4.258   5.361 -1.0292  0.7580 -0.1597
 1172SOL     hw 4687   6.370   4.174   5.266 -1.6356  1.7773 -0.5489
 1172SOL     vw 4688   6.386   4.204   5.346 -0.6883  0.3166 -0.1345
 1173SOL     ow 4689   0.449   5.754   6.192  0.4077  0.2178 -0.3026
 1173SOL     hw 4690   0.527   5.729   6.143  0.0238  0.6139 -1.1457
 1173SOL     hw 4691   0.472   5.838   6.232  2.0618 -1.7688  3.3710
 1173SOL     vw 4692   0.462   5.762   6.191  0.5753  0.0081  0.0706
 1174SOL     ow 4693   6.791   3.762   0.088  0.5088 -0.2047 -0.7062
 1174SOL     hw 4694   6.811   3.669   0.091  1.5180  0.0035  1.0705
 1174SOL     hw 4695   6.696   3.767   0.097  0.5287 -1.0619  0.1767
 1174SOL     vw 4696   6.781   3.751   0.090  0.6444 -0.2904 -0.3553
 1175SOL     ow 4697   6.415   1.563   1.785  0.3601 -0.0956  0.6221
 1175SOL     hw 4698   6.338   1.619   1.798 -0.6179 -1.7368  2.2006
 1175SOL     hw 4699   6.471   1.614   1.727 -2.2168  0.8628 -1.2037
 1175SOL     vw 4700   6.412   1.577   1.779 -0.1090 -0.1857  0.5895
 1176SOL     ow 4701   0.873   5.356   4.764 -0.0787  0.2798  0.1728
 1176SOL     hw 4702   0.911   5.316   4.842  0.0385 -1.5373 -0.7685
 1176SOL     hw 4703   0.948   5.374   4.708 -0.4134 -2.4293 -1.2866
 1176SOL     vw 4704   0.888   5.353   4.767 -0.1074 -0.3173 -0.1435
 1177SOL     ow 4705   5.629   3.338   2.842 -0.2463 -0.0458 -0.3745
 1177SOL     hw 4706   5.676   3.337   2.759 -0.4134  1.8638 -0.5431
 1177SOL     hw 4707   5.546   3.294   2.825  0.2004 -0.7069 -0.8859
 1177SOL     vw 4708   5.625   3.332   2.829 -0.2096  0.1191 -0.4641
 1178SOL     ow 4709   1.114   2.263   6.814 -0.2712  0.2576 -0.4696
 1178SOL     hw 4710   1.106   2.174   6.780  0.6073  0.3090 -0.8266
 1178SOL     hw 4711   1.198   2.294   6.780 -1.1645  1.6925 -1.4385
 1178SOL     vw 4712   1.124   2.255   6.805 -0.2732  0.4537 -0.6444
 1179SOL     ow 4713   3.520   5.980   2.019 -1.0637 -0.0799 -0.1843
 1179SOL     hw 4714   3.457   6.005   1.952  0.3557  0.6654 -1.3084
 1179SOL     hw 4715   3.515   6.050   2.084  0.2871  1.3517 -1.5083
 1179SOL     vw 4716   3.511   5.993   2.019 -0.6982  0.2072 -0.5074
 1180SOL     ow 4717   4.062   4.792   0.571  0.0385  0.4020 -0.2924
 1180SOL     hw 4718   4.149   4.756   0.591  0.8181  1.8316 -0.9459
 1180SOL     hw 4719   4.066   4.812   0.478 -0.4796  1.8044 -0.0341
 1180SOL     vw 4720   4.074   4.790   0.561  0.0732  0.7756 -0.3445
 1181SOL     ow 4721   2.223   0.399   7.067  0.6736  0.5463  0.1947
 1181SOL     hw 4722   2.166   0.468   7.102  0.3879  1.1022 -1.2646
 1181SOL     hw 4723   2.195   0.390   6.976  0.5958 -1.6464  0.3923
 1181SOL     vw 4724   2.212   0.407   7.060  0.6256  0.3304  0.0284
 1182SOL     ow 4725   0.254   1.952   3.514  0.4681  0.1801  0.4999
 1182SOL     hw 4726   0.271   2.032   3.464  3.8912 -0.7896 -0.1802
 1182SOL     hw 4727   0.307   1.962   3.593 -0.2047 -0.8013  1.0960
 1182SOL     vw 4728   0.263   1.964   3.518  0.8310 -0.0774  0.4889
 1183SOL     ow 4729   3.512   7.263   4.878  0.3830 -0.4197 -0.0360
 1183SOL     hw 4730   3.460   7.246   4.799 -0.7498 -1.0563  0.8256
 1183SOL     hw 4731   3.600   7.233   4.854 -0.2335 -1.8845 -0.6353
 1183SOL     vw 4732   3.517   7.256   4.864  0.1522 -0.6971 -0.0012
 1184SOL     ow 4733   6.233   4.852   2.182  0.4350 -0.5296  0.0303
 1184SOL     hw 4734   6.140   4.853   2.161  0.5602  0.9867 -0.5790
 1184SOL     hw 4735   6.274   4.805   2.109  0.3369  0.4470 -0.6689
 1184SOL     vw 4736   6.226   4.846   2.170  0.4385 -0.2007 -0.1423
 1185SOL     ow 4737   6.623   3.114   7.254 -0.5413 -0.5526  0.4210
 1185SOL     hw 4738   6.703   3.062   7.251  0.8695  1.5039 -0.1105
 1185SOL     hw 4739   6.572   3.076   7.324  2.2527 -0.1290  2.8809
 1185SOL     vw 4740   6.627   3.102   7.263  0.0136 -0.2255  0.6754
 1186SOL     ow 4741   6.265   1.191   5.517  0.2412  0.4097  0.0142
 1186SOL     hw 4742   6.225   1.178   5.603 -4.1826 -1.9472 -2.0249
 1186SOL     hw 4743   6.252   1.283   5.497  1.6216  1.0604  1.8915
 1186SOL     vw 4744   6.258   1.201   5.526 -0.1605  0.1845 -0.0069
 1187SOL     ow 4745   6.487   3.235   2.548 -1.0036 -0.7688  0.6671
 1187SOL     hw 4746   6.543   3.264   2.620 -1.6495  0.9531  0.5115
 1187SOL     hw 4747   6.511   3.143   2.535  0.0146 -0.7640  2.2341
 1187SOL     vw 4748   6.497   3.227   2.556 -0.9544 -0.5411  0.8533
 1188SOL     ow 4749   2.143   3.959   5.914  0.1831 -0.1158  0.2493
 1188SOL     hw 4750   2.188   3.924   5.992  0.4216 -0.5208 -0.0671
 1188SOL     hw 4751   2.053   3.975   5.944 -0.2601 -2.0947  0.1217
 1188SOL     vw 4752   2.137   3.956   5.929  0.1560 -0.4302  0.1905
 1189SOL     ow 4753   1.301   0.748   5.754  0.0126  0.1936 -0.1860
 1189SOL     hw 4754   1.359   0.773   5.682  0.2879 -1.8673 -0.7433
 1189SOL     hw 4755   1.296   0.826   5.809  0.1339  1.6809 -2.1903
 1189SOL     vw 4756   1.308   0.762   5.752  0.0648  0.1179 -0.5240
 1190SOL     ow 4757   1.993   7.248   3.810  0.0910 -0.2321 -0.8061
 1190SOL     hw 4758   2.055   7.198   3.862 -2.2435 -0.5440  1.9337
 1190SOL     hw 4759   1.999   7.211   3.722  2.1045 -1.7404 -0.0977
 1190SOL     vw 4760   2.002   7.237   3.805  0.0486 -0.4721 -0.3510
 1191SOL     ow 4761   7.418   1.903   6.424 -0.4299  0.3199 -0.8784
 1191SOL     hw 4762   7.466   1.845   6.483 -0.5414  0.8335 -0.2656
 1191SOL     hw 4763   7.406   1.984   6.475 -0.5993  0.7439 -1.5780
 1191SOL     vw 4764   7.423   1.906   6.439 -0.4668  0.4436 -0.8898
 1192SOL     ow 4765   1.735   4.218   6.369  0.0921 -1.0448  0.3534
 1192SOL     hw 4766   1.774   4.305   6.361 -0.3476 -0.9537 -1.0878
 1192SOL     hw 4767   1.690   4.204   6.286 -0.1896 -2.4913  0.7183
 1192SOL     vw 4768   1.734   4.227   6.357 -0.0032 -1.2236  0.2112
 1193SOL     ow 4769   5.851   4.089   2.080  0.6969  0.0007 -0.0450
 1193SOL     hw 4770   5.786   4.155   2.104  0.0390 -0.4550 -0.5579
 1193SOL     hw 4771   5.910   4.086   2.156  0.1495  0.4431  0.4120
 1193SOL     vw 4772   5.851   4.097   2.093  0.5381 -0.0012 -0.0525
 1194SOL     ow 4773   4.043   4.135   7.032  0.2037  1.0821  0.0876
 1194SOL     hw 4774   3.986   4.068   7.070  0.2928  1.5618  1.0930
 1194SOL     hw 4775   4.008   4.150   6.944 -1.5342  1.7290  0.8511
 1194SOL     vw 4776   4.031   4.128   7.025 -0.0138  1.2310  0.3211
 1195SOL     ow 4777   6.056   0.662   5.221 -0.0442 -0.2153 -0.4259
 1195SOL     hw 4778   6.043   0.650   5.127  0.2708  0.0594 -0.5093
 1195SOL     hw 4779   6.034   0.577   5.259  0.2791 -0.4704 -0.7966
 1195SOL     vw 4780   6.052   0.649   5.213  0.0401 -0.2127 -0.4857
 1196SOL     ow 4781   6.630   0.420   0.458 -0.3496  0.1213 -0.2893
 1196SOL     hw 4782   6.682   0.499   0.439  0.1581  0.2076  1.2688
 1196SOL     hw 4783   6.653   0.399   0.548 -0.1745 -2.0747 -0.8067
 1196SOL     vw 4784   6.640   0.428   0.467 -0.2596 -0.1571 -0.1520
 1197SOL     ow 4785   1.785   2.203   1.164 -0.6245  0.4602 -0.2290
 1197SOL     hw 4786   1.719   2.257   1.120 -1.3635 -1.5555 -1.7590
 1197SOL     hw 4787   1.844   2.266   1.205 -2.9430  2.3546  0.3860
 1197SOL     vw 4788   1.784   2.218   1.163 -1.0279  0.4443 -0.3497
 1198SOL     ow 4789   1.246   6.971   6.851  0.5877 -0.3380  0.2923
 1198SOL     hw 4790   1.334   7.000   6.828  1.3969 -2.6504  0.1829
 1198SOL     hw 4791   1.255   6.936   6.940  0.0356 -1.4295 -0.0615
 1198SOL     vw 4792   1.259   6.970   6.860  0.6216 -0.7873  0.2313
 1199SOL     ow 4793   1.971   5.117   5.733 -0.0039  0.6959 -0.5364
 1199SOL     hw 4794   1.957   5.028   5.700 -0.9550  0.9463 -0.8229
 1199SOL     hw 4795   1.979   5.170   5.654 -0.7935  1.0668 -0.3757
 1199SOL     vw 4796   1.970   5.112   5.719 -0.2335  0.7777 -0.5531
 1200SOL     ow 4797   2.885   5.901   2.073 -0.0187  0.5335 -0.7151
 1200SOL     hw 4798   2.884   5.818   2.121 -1.2933  1.4641  0.9584
 1200SOL     hw 4799   2.815   5.893   2.009 -0.5937  0.5538 -0.0983
 1200SOL     vw 4800   2.876   5.889   2.071 -0.2626  0.6590 -0.4129
 1201SOL     ow 4801   2.459   6.538   3.902 -0.0785  0.0389 -0.4494
 1201SOL     hw 4802   2.495   6.451   3.884 -1.4778  0.0213 -4.2398
 1201SOL     hw 4803   2.373   6.521   3.941 -0.6059 -0.4153 -1.7229
 1201SOL     vw 4804   2.452   6.524   3.905 -0.3327 -0.0236 -1.1175
 1202SOL     ow 4805   4.597   6.417   0.752  0.3104 -0.0144 -0.1852
 1202SOL     hw 4806   4.505   6.389   0.753  0.2036  0.1945 -1.8915
 1202SOL     hw 4807   4.647   6.337   0.768 -0.1438 -0.2240  0.2145
 1202SOL     vw 4808   4.591   6.403   0.754  0.2365 -0.0145 -0.3576
 1203SOL     ow 4809   0.461   5.147   5.585  0.0086 -0.0042 -0.3542
 1203SOL     hw 4810   0.466   5.064   5.632  0.1568  0.3343  0.2500
 1203SOL     hw 4811   0.390   5.135   5.522  0.2381 -0.6909 -0.4881
 1203SOL     vw 4812   0.452   5.135   5.583  0.0584 -0.0501 -0.2921
 1204SOL     ow 4813   4.919   0.753   5.830 -0.4020 -0.2742 -0.3647
 1204SOL     hw 4814   4.870   0.676   5.858 -1.6909  0.5955 -0.1555
 1204SOL     hw 4815   4.893   0.767   5.738 -0.9666  0.4855 -0.1029
 1204SOL     vw 4816   4.909   0.745   5.821 -0.6464 -0.0592 -0.3026
 1205SOL     ow 4817   3.504   6.728   1.447 -0.4434 -0.0287 -0.2141
 1205SOL     hw 4818   3.555   6.809   1.431 -1.0048  0.3367 -0.1696
 1205SOL     hw 4819   3.416   6.759   1.466 -1.4406 -0.7363 -3.1472
 1205SOL     vw 4820   3.499   6.743   1.447 -0.6491 -0.0737 -0.5953
 1206SOL     ow 4821   4.111   4.802   7.283  0.0729 -0.3046 -0.6308
 1206SOL     hw 4822   4.046   4.789   7.353  0.0013 -0.1836 -0.6741
 1206SOL     hw 4823   4.188   4.755   7.313  1.5253  3.1079  1.5206
 1206SOL     vw 4824   4.112   4.794   7.296  0.2551  0.1616 -0.3526
 1207SOL     ow 4825   0.226   1.624   6.313  0.2404 -0.0519  0.1730
 1207SOL     hw 4826   0.314   1.643   6.345 -0.1603  1.0542  0.6898
 1207SOL     hw 4827   0.209   1.692   6.249  0.3835 -1.2621 -1.1964
 1207SOL     vw 4828   0.235   1.635   6.309  0.2064 -0.0656  0.0606
 1208SOL     ow 4829   6.431   3.391   1.823 -0.5993  0.1191  0.3857
 1208SOL     hw 4830   6.511   3.386   1.770  0.0008 -2.5414  1.4013
 1208SOL     hw 4831   6.439   3.475   1.870  2.2435 -0.5582  1.3167
 1208SOL     vw 4832   6.443   3.402   1.822 -0.1450 -0.3214  0.6426
 1209SOL     ow 4833   2.011   4.468   0.165  0.5494  0.2044 -0.0660
 1209SOL     hw 4834   2.102   4.467   0.194  0.1318  0.0939  1.2918
 1209SOL     hw 4835   1.973   4.388   0.201 -0.2098  0.4903 -0.2031
 1209SOL     vw 4836   2.018   4.458   0.173  0.3941  0.2275  0.0951
 1210SOL     ow 4837   6.890   2.546   0.255 -0.0234 -0.0805 -0.1050
 1210SOL     hw 4838   6.802   2.561   0.223 -1.3440 -2.8277  1.8190
 1210SOL     hw 4839   6.878   2.516   0.345  2.9560  0.3826  0.5529
 1210SOL     vw 4840   6.877   2.544   0.263  0.1955 -0.3817  0.2357
 1211SOL     ow 4841   4.043   4.356   1.886 -0.5318  0.0423 -0.2258
 1211SOL     hw 4842   3.948   4.365   1.893 -0.5580 -1.1561  2.2190
 1211SOL     hw 4843   4.068   4.302   1.961  2.1058  0.3839 -0.7291
 1211SOL     vw 4844   4.034   4.350   1.897 -0.1874 -0.0708  0.0303
 1212SOL     ow 4845   3.553   2.365   6.804 -0.5365 -0.2022  0.3853
 1212SOL     hw 4846   3.475   2.337   6.852 -0.6210 -1.6313 -0.5231
 1212SOL     hw 4847   3.587   2.285   6.764 -1.1371  1.0263 -2.9111
 1212SOL     vw 4848   3.548   2.351   6.805 -0.6268 -0.2285 -0.1695
 1213SOL     ow 4849   1.279   1.253   6.097 -0.6548  0.0501 -0.0390
 1213SOL     hw 4850   1.284   1.265   6.192 -1.0459  0.3584 -0.0550
 1213SOL     hw 4851   1.334   1.324   6.062 -1.0786  0.3727 -0.0608
 1213SOL     vw 4852   1.287   1.264   6.105 -0.7623  0.1334 -0.0439
 1214SOL     ow 4853   1.635   4.638   6.755  0.1140  0.3268  0.2356
 1214SOL     hw 4854   1.719   4.603   6.726 -0.1747 -1.9304  1.8159
 1214SOL     hw 4855   1.580   4.637   6.676  0.5638 -1.6060 -0.1131
 1214SOL     vw 4856   1.639   4.633   6.740  0.1352 -0.2263  0.3982
 1215SOL     ow 4857   6.224   7.376   4.726 -0.0194  0.3283 -0.1811
 1215SOL     hw 4858   6.256   7.407   4.810  1.7989 -1.3440 -0.1781
 1215SOL     hw 4859   6.256   7.286   4.720 -0.3241  0.3087 -2.5397
 1215SOL     vw 4860   6.233   7.368   4.736  0.1805  0.1049 -0.4916
 1216SOL     ow 4861   2.742   0.801   0.967 -0.1167 -0.4454  0.3529
 1216SOL     hw 4862   2.709   0.765   0.885 -2.2393  1.7672  0.1054
 1216SOL     hw 4863   2.794   0.877   0.940 -1.7957  1.0023  1.0013
 1216SOL     vw 4864   2.744   0.807   0.952 -0.6183  0.0376  0.4058
 1217SOL     ow 4865   6.454   4.856   0.668  0.4176 -0.6518 -0.0399
 1217SOL     hw 4866   6.475   4.785   0.607  0.8136  0.4849 -1.2666
 1217SOL     hw 4867   6.421   4.926   0.613 -2.0483 -0.5947  1.3455
 1217SOL     vw 4868   6.453   4.856   0.653  0.1447 -0.4945 -0.0190
 1218SOL     ow 4869   3.986   3.993   1.502 -0.1676  0.1773 -0.7847
 1218SOL     hw 4870   4.037   4.036   1.570  0.8486 -0.3921 -1.1737
 1218SOL     hw 4871   4.044   3.990   1.426 -1.2089  0.6134 -1.6242
 1218SOL     vw 4872   4.000   3.998   1.501 -0.1707  0.1597 -0.9468
 1219SOL     ow 4873   5.781   3.488   3.404  1.1414  0.2413 -0.6788
 1219SOL     hw 4874   5.693   3.526   3.394  0.6651 -1.1228 -2.2242
 1219SOL     hw 4875   5.840   3.558   3.378  0.3367  0.3475 -2.4013
 1219SOL     vw 4876   5.777   3.502   3.399  0.9720  0.0753 -1.1098
 1220SOL     ow 4877   5.223   5.572   2.812 -0.4688  0.1210  0.0340
 1220SOL     hw 4878   5.210   5.536   2.900 -0.0370  0.6801  0.3336
 1220SOL     hw 4879   5.156   5.640   2.804  1.0052  1.7481  0.8808
 1220SOL     vw 4880   5.212   5.576   2.822 -0.2172  0.4094  0.1853
 1221SOL     ow 4881   4.275   3.919   1.729  0.1273 -0.0010  0.1151
 1221SOL     hw 4882   4.314   4.006   1.736 -0.7417  0.6593 -2.1373
 1221SOL     hw 4883   4.260   3.907   1.635 -1.3234 -1.8946  0.5153
 1221SOL     vw 4884   4.278   3.929   1.717 -0.1788 -0.1637 -0.1292
 1222SOL     ow 4885   0.836   0.117   3.289  0.3757  0.1494  0.0132
 1222SOL     hw 4886   0.825   0.027   3.260  0.1636 -0.4170  1.7189
 1222SOL     hw 4887   0.910   0.150   3.238 -1.9120  0.3213 -3.4421
 1222SOL     vw 4888   0.844   0.110   3.279  0.0459  0.0973 -0.2177
 1223SOL     ow 4889   0.260   3.966   4.278  0.4512  0.3731  0.0814
 1223SOL     hw 4890   0.234   3.933   4.364 -1.7421  0.0154 -0.6602
 1223SOL     hw 4891   0.293   3.888   4.232  0.3361  0.2832  0.1496
 1223SOL     vw 4892   0.261   3.951   4.283  0.1466  0.3140 -0.0074
 1224SOL     ow 4893   0.547   2.019   7.316 -0.1100  0.0332 -0.6146
 1224SOL     hw 4894   0.637   1.989   7.328 -0.9939 -3.1149 -1.0662
 1224SOL     hw 4895   0.502   1.993   7.397 -0.7945  1.0022 -0.6609
 1224SOL     vw 4896   0.553   2.012   7.328 -0.3169 -0.2545 -0.6802
 1225SOL     ow 4897   5.726   2.138   0.216 -0.4572 -0.5231  0.3203
 1225SOL     hw 4898   5.697   2.150   0.307 -2.0585 -1.4714 -0.0240
 1225SOL     hw 4899   5.659   2.082   0.177  0.1088  0.0019 -1.4994
 1225SOL     vw 4900   5.713   2.132   0.223 -0.5937 -0.5790  0.0348
 1226SOL     ow 4901   2.848   4.042   5.644  0.0931  0.4074 -0.3826
 1226SOL     hw 4902   2.793   3.966   5.660 -0.5435  0.8973 -0.1988
 1226SOL     hw 4903   2.836   4.097   5.721 -0.3322  1.2161 -1.0157
 1226SOL     vw 4904   2.839   4.039   5.656 -0.0468  0.5786 -0.4418
 1227SOL     ow 4905   3.701   6.081   1.825  0.2096  0.4202  0.1552
 1227SOL     hw 4906   3.651   6.069   1.906 -1.0134 -0.2388 -0.6565
 1227SOL     hw 4907   3.661   6.157   1.783  0.4382  0.4015 -0.1018
 1227SOL     vw 4908   3.689   6.089   1.830  0.0784  0.3309  0.0142
 1228SOL     ow 4909   2.116   6.785   2.857  0.9524  0.1086 -0.2559
 1228SOL     hw 4910   2.035   6.734   2.854  0.8818  0.2159 -0.1581
 1228SOL     hw 4911   2.089   6.874   2.837  1.0050  0.1961  0.0653
 1228SOL     vw 4912   2.102   6.790   2.854  0.9500  0.1342 -0.2005
 1229SOL     ow 4913   3.674   5.796   2.105  0.0564 -0.6374  0.4603
 1229SOL     hw 4914   3.599   5.842   2.067 -0.6543 -0.7584  1.6389
 1229SOL     hw 4915   3.647   5.779   2.196  2.0604  0.5032  1.3263
 1229SOL     vw 4916   3.660   5.800   2.112  0.2271 -0.5026  0.7300
 1230SOL     ow 4917   1.540   7.106   2.478 -0.1634  0.3784  0.5525
 1230SOL     hw 4918   1.616   7.081   2.530 -1.1567 -0.9999  1.4118
 1230SOL     hw 4919   1.525   7.030   2.421 -2.4946 -0.6207  2.3285
 1230SOL     vw 4920   1.548   7.092   2.477 -0.6021  0.0646  0.9003
 1231SOL     ow 4921   4.089   3.465   2.140 -0.6167  0.7726  0.1050
 1231SOL     hw 4922   4.137   3.492   2.061 -0.2033  0.7532  0.3451
 1231SOL     hw 4923   3.998   3.456   2.111 -0.4414  0.6047 -0.4102
 1231SOL     vw 4924   4.083   3.467   2.126 -0.5391  0.7479  0.0688
 1232SOL     ow 4925   5.845   3.705   4.107  0.4909  0.2057  0.6559
 1232SOL     hw 4926   5.750   3.718   4.100  0.1627 -1.1633  1.9107
 1232SOL     hw 4927   5.862   3.627   4.053  1.0447  0.8964 -0.1891
 1232SOL     vw 4928   5.835   3.696   4.099  0.5209  0.1163  0.7100
 1233SOL     ow 4929   7.410   1.174   7.475 -0.1349  0.3066 -0.1291
 1233SOL     hw 4930   7.335   1.230   7.456 -1.1584  0.0718  2.7070
 1233SOL     hw 4931   7.374   1.085   7.477  0.9681 -0.2304 -2.1301
 1233SOL     vw 4932   7.395   1.170   7.473 -0.1245  0.2048 -0.0186
 1234SOL     ow 4933   1.980   1.263   2.581  0.2456  0.0583 -0.2687
 1234SOL     hw 4934   2.029   1.334   2.623  0.5097  0.0267 -0.5231
 1234SOL     hw 4935   1.889   1.290   2.586 -0.1088 -1.1575  2.8435
 1234SOL     vw 4936   1.975   1.276   2.587  0.2337 -0.1062  0.1085
 1235SOL     ow 4937   5.842   1.604   2.966 -0.3313  0.1536  0.1117
 1235SOL     hw 4938   5.888   1.554   3.033 -0.9067  1.2553  1.3675
 1235SOL     hw 4939   5.787   1.666   3.014 -0.8909  0.8784 -1.3687
 1235SOL     vw 4940   5.841   1.606   2.981 -0.4814  0.3946  0.0819
 1236SOL     ow 4941   1.437   5.207   1.642 -0.9020 -0.1319 -0.4550
 1236SOL     hw 4942   1.392   5.163   1.714 -1.2389  1.6978  0.5135
 1236SOL     hw 4943   1.416   5.300   1.653  2.1480  0.6990 -0.6617
 1236SOL     vw 4944   1.428   5.213   1.653 -0.5440  0.2191 -0.3544
 1237SOL     ow 4945   7.299   3.182   2.260 -0.0328 -0.4600  0.2183
 1237SOL     hw 4946   7.208   3.185   2.286  0.0735  0.8050  0.5043
 1237SOL     hw 4947   7.300   3.130   2.180 -1.0685 -0.1189 -0.0236
 1237SOL     vw 4948   7.287   3.176   2.253 -0.1557 -0.2480  0.2241
 1238SOL     ow 4949   4.711   0.831   3.903  0.2816  0.0391 -0.3126
 1238SOL     hw 4950   4.679   0.755   3.854 -0.1338 -0.0584  0.0979
 1238SOL     hw 4951   4.767   0.795   3.971  0.5246  0.1437 -0.4548
 1238SOL     vw 4952   4.714   0.817   3.906  0.2589  0.0400 -0.2772
 1239SOL     ow 4953   1.075   1.897   2.437  0.4321  0.1527 -0.0438
 1239SOL     hw 4954   1.056   1.814   2.393  0.1991  0.0177  0.3045
 1239SOL     hw 4955   1.134   1.874   2.509  1.0680  0.4176 -0.4687
 1239SOL     vw 4956   1.080   1.883   2.441  0.4852  0.1698 -0.0539
 1240SOL     ow 4957   2.734   7.262   1.830 -0.3432  0.5263 -0.0539
 1240SOL     hw 4958   2.796   7.309   1.776  0.5841  0.5378  0.9815
 1240SOL     hw 4959   2.701   7.191   1.775 -0.7755  1.5959 -1.1973
 1240SOL     vw 4960   2.738   7.258   1.816 -0.2778  0.6688 -0.0681
 1241SOL     ow 4961   0.538   1.273   7.389  0.2910 -0.3481  0.6415
 1241SOL     hw 4962   0.585   1.194   7.363  0.3804 -0.0162 -0.2174
 1241SOL     hw 4963   0.565   1.287   7.480  0.5222 -1.1182  0.7046
 1241SOL     vw 4964   0.547   1.264   7.398  0.3333 -0.4060  0.5364
 1242SOL     ow 4965   3.189   3.261   0.599  0.2068  0.0829 -0.6360
 1242SOL     hw 4966   3.137   3.282   0.521  0.1255 -3.3610 -1.6570
 1242SOL     hw 4967   3.146   3.184   0.636  1.6113  0.2649  1.5273
 1242SOL     vw 4968   3.176   3.254   0.594  0.3814 -0.3476 -0.4853
 1243SOL     ow 4969   1.398   4.210   1.377  0.0253 -0.0206  0.2354
 1243SOL     hw 4970   1.322   4.174   1.422 -0.2246 -1.2412 -1.0674
 1243SOL     hw 4971   1.414   4.148   1.305  2.0395  0.3980  0.2788
 1243SOL     vw 4972   1.390   4.197   1.373  0.2581 -0.1266  0.0692
 1244SOL     ow 4973   4.270   4.676   4.372  0.7247 -0.0393 -0.0269
 1244SOL     hw 4974   4.296   4.620   4.299 -0.7509  0.3651 -0.9098
 1244SOL     hw 4975   4.175   4.685   4.362  0.3798 -0.5182  2.3568
 1244SOL     vw 4976   4.261   4.670   4.361  0.4845 -0.0489  0.1714
 1245SOL     ow 4977   1.815   6.468   5.037  0.0350  0.3887 -0.4454
 1245SOL     hw 4978   1.873   6.527   4.989  0.5639  0.2531  0.0069
 1245SOL     hw 4979   1.867   6.441   5.114  0.3528 -1.7313 -1.3354
 1245SOL     vw 4980   1.830   6.472   5.041  0.1467  0.0911 -0.5031
 1246SOL     ow 4981   5.083   6.133   6.032 -0.2640  0.0103 -0.2431
 1246SOL     hw 4982   5.016   6.071   6.003 -0.2249  0.5927 -1.6516
 1246SOL     hw 4983   5.054   6.217   5.996  0.4959  0.5302  0.3309
 1246SOL     vw 4984   5.070   6.136   6.023 -0.1588  0.1557 -0.3531
 1247SOL     ow 4985   0.393   5.976   3.610 -0.2196  0.6851  0.4423
 1247SOL     hw 4986   0.342   6.025   3.545 -1.3129  1.3116  1.7216
 1247SOL     hw 4987   0.430   6.043   3.667  2.5706  0.2867 -0.7304
 1247SOL     vw 4988   0.391   5.991   3.609  0.0043  0.7155  0.4565
 1248SOL     ow 4989   6.016   0.706   3.424 -0.2451 -0.1568  0.0077
 1248SOL     hw 4990   5.943   0.650   3.447 -0.9192  2.1192  4.6018
 1248SOL     hw 4991   5.976   0.784   3.386  0.1288 -0.1140 -0.3149
 1248SOL     vw 4992   6.001   0.709   3.422 -0.2847  0.1492  0.5713
 1249SOL     ow 4993   2.669   1.690   5.226 -0.1538 -0.2751  0.4010
 1249SOL     hw 4994   2.721   1.724   5.299  0.1112  2.7291 -1.0743
 1249SOL     hw 4995   2.590   1.744   5.225 -0.0377 -0.0780 -1.6571
 1249SOL     vw 4996   2.666   1.701   5.236 -0.1035  0.1473 -0.0651
 1250SOL     ow 4997   6.937   5.281   1.286 -0.2121 -0.1711 -0.1532
 1250SOL     hw 4998   6.982   5.196   1.279 -2.6531 -1.5279 -0.5570
 1250SOL     hw 4999   6.903   5.282   1.376 -0.5806  0.1640 -0.2942
 1250SOL     vw 5000   6.938   5.270   1.297 -0.5827 -0.3059 -0.2251
 1251SOL     ow 5001   1.456   4.684   2.049 -0.1374  0.0438 -0.2151
 1251SOL     hw 5002   1.453   4.779   2.035 -0.2023  0.0791  0.0286
 1251SOL     hw 5003   1.444   4.673   2.143  0.4710 -0.1773 -0.1575
 1251SOL     vw 5004   1.454   4.695   2.060 -0.0657  0.0196 -0.1752
 1252SOL     ow 5005   6.793   3.790   4.786  0.6099 -0.1716 -0.5122
 1252SOL     hw 5006   6.838   3.792   4.702  2.5349  0.3934  0.4576
 1252SOL     hw 5007   6.816   3.873   4.827  0.9468 -1.0457  1.1589
 1252SOL     vw 5008   6.802   3.801   4.781  0.9081 -0.2123 -0.1638
 1253SOL     ow 5009   4.025   0.083   5.937  0.0103  0.6101 -0.2213
 1253SOL     hw 5010   3.964   0.155   5.922  0.1801  1.1785  1.6535
 1253SOL     hw 5011   3.973   0.016   5.982  0.2301  0.1788 -0.6009
 1253SOL     vw 5012   4.010   0.084   5.941  0.0618  0.6282 -0.0243
 1254SOL     ow 5013   1.952   4.723   1.645 -0.1665 -0.2911  0.1044
 1254SOL     hw 5014   2.029   4.774   1.619 -0.6633  1.7727  2.2965
 1254SOL     hw 5015   1.974   4.633   1.623  1.7497  0.5552 -1.7925
 1254SOL     vw 5016   1.965   4.718   1.639  0.0208  0.0927  0.1433
 1255SOL     ow 5017   0.707   5.408   6.139 -0.2049 -0.4889  0.1982
 1255SOL     hw 5018   0.657   5.368   6.067 -0.3508 -0.6853  0.4100
 1255SOL     hw 5019   0.678   5.362   6.217  2.6910 -3.0053  0.0028
 1255SOL     vw 5020   0.696   5.397   6.140  0.1579 -0.8469  0.2003
 1256SOL     ow 5021   2.389   3.553   6.599  0.0166  0.1731 -0.1411
 1256SOL     hw 5022   2.324   3.485   6.616  0.8130  0.0173  3.0060
 1256SOL     hw 5023   2.339   3.627   6.565 -1.4676 -0.6925  0.0800
 1256SOL     vw 5024   2.374   3.554   6.597 -0.0740  0.0385  0.3030
 1257SOL     ow 5025   1.839   1.806   1.034 -0.3338  0.6380  0.3904
 1257SOL     hw 5026   1.811   1.808   1.125 -1.8291  1.5548 -0.0396
 1257SOL     hw 5027   1.869   1.895   1.016 -0.2168  0.5122 -0.0517
 1257SOL     vw 5028   1.839   1.818   1.043 -0.5157  0.7424  0.2753
 1258SOL     ow 5029   1.714   6.394   4.096 -0.4786  0.4260  0.2500
 1258SOL     hw 5030   1.723   6.378   4.002 -0.4413 -1.7760  0.5803
 1258SOL     hw 5031   1.720   6.308   4.136  0.1988  1.3684  2.3543
 1258SOL     vw 5032   1.716   6.381   4.089 -0.3843  0.2599  0.5710
 1259SOL     ow 5033   2.739   3.604   6.198 -0.3057  0.0476  0.3086
 1259SOL     hw 5034   2.784   3.559   6.269  1.1348 -0.3567 -0.8198
 1259SOL     hw 5035   2.777   3.692   6.198  0.0287 -0.0955 -0.2426
 1259SOL     vw 5036   2.750   3.610   6.208 -0.0714 -0.0246  0.0873
 1260SOL     ow 5037   4.766   7.297   6.836 -0.0040  0.1206 -0.5320
 1260SOL     hw 5038   4.858   7.281   6.860  0.7423  0.2117 -3.0889
 1260SOL     hw 5039   4.731   7.348   6.910  1.3982 -1.5686  1.4158
 1260SOL     vw 5040   4.774   7.302   6.849  0.2794 -0.0901 -0.6123
 1261SOL     ow 5041   2.358   3.470   1.256 -0.2500  0.0835 -0.4769
 1261SOL     hw 5042   2.335   3.555   1.294  1.0317  0.9509 -1.5133
 1261SOL     hw 5043   2.440   3.446   1.300  1.1129  0.9782 -2.3534
 1261SOL     vw 5044   2.366   3.478   1.267  0.0988  0.3160 -0.8612
 1262SOL     ow 5045   2.431   6.786   2.811  0.0615  0.3325 -0.6659
 1262SOL     hw 5046   2.456   6.847   2.742  1.8384  0.9721  0.4652
 1262SOL     hw 5047   2.477   6.818   2.889 -0.3546 -1.4441  0.3714
 1262SOL     vw 5048   2.441   6.798   2.812  0.2410  0.1826 -0.3798
 1263SOL     ow 5049   0.091   5.106   4.439 -0.0009  0.5525  0.4436
 1263SOL     hw 5050   0.080   5.011   4.442  1.4778  0.3757  2.2817
 1263SOL     hw 5051   0.003   5.140   4.424 -0.6352 -1.0974  0.2411
 1263SOL     vw 5052   0.078   5.098   4.438  0.1105  0.3114  0.6595
 1264SOL     ow 5053   3.982   0.923   3.327 -0.4267  0.0173 -0.0319
 1264SOL     hw 5054   3.958   0.979   3.253 -3.9912 -1.6040 -0.3470
 1264SOL     hw 5055   4.041   0.857   3.290  1.3281  1.6880 -0.3429
 1264SOL     vw 5056   3.986   0.922   3.312 -0.6655  0.0238 -0.1144
 1265SOL     ow 5057   6.630   3.544   7.178  0.5405 -0.1731 -0.0862
 1265SOL     hw 5058   6.697   3.554   7.110 -1.1013  0.2360 -1.7408
 1265SOL     hw 5059   6.594   3.456   7.164 -0.5945  0.3371 -0.5648
 1265SOL     vw 5060   6.634   3.534   7.167  0.1743 -0.0517 -0.3679
 1266SOL     ow 5061   1.828   6.840   5.695 -0.1626 -0.1668  0.2431
 1266SOL     hw 5062   1.838   6.754   5.654  0.8889 -0.3629  0.8690
 1266SOL     hw 5063   1.741   6.870   5.669  0.5866 -0.0951 -2.5031
 1266SOL     vw 5064   1.818   6.833   5.686  0.0750 -0.1833 -0.0370
 1267SOL     ow 5065   4.210   4.170   1.253  0.2025 -0.0133 -0.4556
 1267SOL     hw 5066   4.170   4.191   1.337 -0.6237 -0.1853 -0.7976
 1267SOL     hw 5067   4.173   4.085   1.229  0.8613 -0.2277 -0.7245
 1267SOL     vw 5068   4.200   4.162   1.261  0.1802 -0.0641 -0.5362
 1268SOL     ow 5069   6.197   1.766   1.865 -0.2681  0.4300  0.2208
 1268SOL     hw 5070   6.286   1.798   1.879 -0.5611  1.3537  0.0371
 1268SOL     hw 5071   6.165   1.815   1.789 -0.7995 -0.1762  0.0417
 1268SOL     vw 5072   6.205   1.776   1.857 -0.3767  0.4719  0.1730
 1269SOL     ow 5073   6.372   0.924   1.291  0.2390 -0.1277 -1.0584
 1269SOL     hw 5074   6.439   0.992   1.305  0.8151 -0.7780 -0.5903
 1269SOL     hw 5075   6.312   0.934   1.365 -0.0592  0.2987 -1.3498
 1269SOL     vw 5076   6.373   0.934   1.303  0.2756 -0.1572 -1.0351
 1270SOL     ow 5077   2.321   2.409   1.040  0.5557 -0.2548  0.1225
 1270SOL     hw 5078   2.372   2.478   1.081 -0.7575  1.2383 -0.6495
 1270SOL     hw 5079   2.307   2.345   1.110 -0.1252  1.3570  1.5450
 1270SOL     vw 5080   2.326   2.410   1.055  0.2927  0.1549  0.2084
 1271SOL     ow 5081   0.047   1.174   0.244  0.4369 -0.1207 -0.2503
 1271SOL     hw 5082  -0.023   1.146   0.303  1.2640  4.7405  3.7368
 1271SOL     hw 5083   0.109   1.101   0.245 -1.4546 -1.8603  1.6762
 1271SOL     vw 5084   0.046   1.160   0.252  0.2965  0.2912  0.5299
 1272SOL     ow 5085   5.335   4.799   0.693 -0.0280 -0.0061  0.2385
 1272SOL     hw 5086   5.305   4.745   0.620  0.8317  0.6303 -0.6073
 1272SOL     hw 5087   5.401   4.746   0.737 -1.1856 -0.7561  1.1251
 1272SOL     vw 5088   5.339   4.785   0.689 -0.0675 -0.0212  0.2439
 1273SOL     ow 5089   6.657   0.822   1.875  0.4046 -0.4542  0.2223
 1273SOL     hw 5090   6.653   0.843   1.968 -1.4060 -0.3271  0.1385
 1273SOL     hw 5091   6.647   0.906   1.830 -0.7455 -0.7399 -0.0812
 1273SOL     vw 5092   6.655   0.836   1.881  0.0141 -0.4751  0.1712
 1274SOL     ow 5093   1.351   2.187   1.235  0.7171  0.3041  0.2357
 1274SOL     hw 5094   1.412   2.250   1.274  0.5062  0.5702  0.1434
 1274SOL     hw 5095   1.406   2.115   1.206  0.9478  0.3858  0.4663
 1274SOL     vw 5096   1.366   2.186   1.236  0.7197  0.3498  0.2540
 1275SOL     ow 5097   5.448   2.156   4.002  0.6764 -0.5171  0.0541
 1275SOL     hw 5098   5.465   2.238   3.956  1.2612  0.0887  1.2827
 1275SOL     hw 5099   5.352   2.147   4.001  0.6976 -1.0179 -2.0278
 1275SOL     vw 5100   5.437   2.166   3.996  0.7563 -0.5033 -0.0584
 1276SOL     ow 5101   3.073   4.862   7.503  0.1233 -0.0667 -0.0442
 1276SOL     hw 5102   3.156   4.877   7.459  0.6477  1.8261  1.4316
 1276SOL     hw 5103   3.078   4.916   7.583 -2.1508 -0.6005  0.5409
 1276SOL     vw 5104   3.085   4.871   7.508 -0.1075  0.1125  0.2277
 1277SOL     ow 5105   5.014   4.043   3.971  0.4475 -0.1723  0.4174
 1277SOL     hw 5106   5.102   4.018   3.999  0.6236  1.3134  1.2853
 1277SOL     hw 5107   5.013   4.138   3.976 -0.6916 -0.0461 -1.2037
 1277SOL     vw 5108   5.025   4.052   3.975  0.3204  0.0403  0.3181
 1278SOL     ow 5109   7.037   1.976   6.188  0.1952  0.6530  0.3944
 1278SOL     hw 5110   7.088   1.939   6.116 -1.4730  0.4325 -0.7455
 1278SOL     hw 5111   6.950   1.937   6.178  0.2730 -0.5689  3.4627
 1278SOL     vw 5112   7.032   1.966   6.177 -0.0148  0.4627  0.6487
 1279SOL     ow 5113   7.095   7.086   5.835  0.0024 -0.0757  0.1273
 1279SOL     hw 5114   7.085   7.072   5.740 -0.6167 -1.0427  0.3252
 1279SOL     hw 5115   7.105   6.998   5.871 -0.0925  0.2681  0.9998
 1279SOL     vw 5116   7.095   7.073   5.827 -0.0918 -0.1581  0.2685
 1280SOL     ow 5117   7.055   0.367   3.593  0.2522  0.3120 -0.5949
 1280SOL     hw 5118   7.143   0.341   3.563 -0.1373 -0.9640 -0.7155
 1280SOL     hw 5119   7.039   0.451   3.550  0.7245 -0.2631 -1.9605
 1280SOL     vw 5120   7.065   0.374   3.583  0.2630  0.0678 -0.7911
 1281SOL     ow 5121   7.274   1.395   2.343 -0.1753 -0.4332 -0.2163
 1281SOL     hw 5122   7.181   1.391   2.318 -0.0166 -2.4182 -0.7211
 1281SOL     hw 5123   7.275   1.370   2.435 -0.2061  0.4476  0.0271
 1281SOL     vw 5124   7.262   1.391   2.352 -0.1583 -0.5789 -0.2508
 1282SOL     ow 5125   6.446   1.102   6.870 -0.2314 -0.2630 -0.0705
 1282SOL     hw 5126   6.486   1.182   6.837  0.3451 -0.1167  0.9363
 1282SOL     hw 5127   6.439   1.045   6.794  2.3933 -0.4976 -0.2367
 1282SOL     vw 5128   6.450   1.105   6.856  0.1910 -0.2746  0.0403
 1283SOL     ow 5129   0.734   4.858   5.529  0.2614 -0.5652  0.1401
 1283SOL     hw 5130   0.819   4.878   5.568  0.6358  0.4745 -1.1251
 1283SOL     hw 5131   0.718   4.931   5.468 -1.5355 -0.7334  0.3523
 1283SOL     vw 5132   0.743   4.870   5.526  0.0738 -0.4504  0.0012
 1284SOL     ow 5133   5.125   3.469   2.459 -0.2332 -0.1963  0.2601
 1284SOL     hw 5134   5.062   3.407   2.423 -0.7699  0.2062  0.4970
 1284SOL     hw 5135   5.142   3.529   2.387  0.3794 -0.6771 -0.0083
 1284SOL     vw 5136   5.119   3.469   2.445 -0.2232 -0.2066  0.2558
 1285SOL     ow 5137   7.008   5.061   3.073 -0.0047  0.3407  0.2043
 1285SOL     hw 5138   6.966   4.975   3.075  0.7786 -0.0480  0.1422
 1285SOL     hw 5139   7.089   5.050   3.123  0.5916  0.7758 -0.6430
 1285SOL     vw 5140   7.013   5.048   3.080  0.1774  0.3469  0.0843
 1286SOL     ow 5141   6.963   0.353   6.073  0.3797  0.0831 -0.1865
 1286SOL     hw 5142   6.966   0.268   6.028  0.1780 -0.3014  0.4950
 1286SOL     hw 5143   6.877   0.353   6.116  0.0128  1.0225 -0.9058
 1286SOL     vw 5144   6.952   0.342   6.073  0.3049  0.1563 -0.1912
 1287SOL     ow 5145   2.696   4.310   1.852 -0.8366 -0.4582  0.4846
 1287SOL     hw 5146   2.791   4.297   1.847 -0.9564 -0.8472 -2.8778
 1287SOL     hw 5147   2.660   4.222   1.856 -1.1067 -0.2953  3.3317
 1287SOL     vw 5148   2.704   4.297   1.852 -0.8880 -0.4878  0.4167
 1288SOL     ow 5149   6.304   4.012   5.552 -0.0056 -0.1326 -0.5292
 1288SOL     hw 5150   6.224   4.057   5.582 -0.9141 -1.8706 -0.2029
 1288SOL     hw 5151   6.335   4.066   5.479 -2.4225 -0.2489 -1.7702
 1288SOL     vw 5152   6.297   4.025   5.546 -0.4444 -0.3772 -0.6497
 1289SOL     ow 5153   7.481   6.619   3.915 -0.0698 -0.2586  0.1982
 1289SOL     hw 5154   7.411   6.672   3.876 -0.2764  1.7080  2.9407
 1289SOL     hw 5155   7.453   6.606   4.005  2.4915 -0.5534  1.0213
 1289SOL     vw 5156   7.468   6.625   3.921  0.2410 -0.0384  0.6685
 1290SOL     ow 5157   3.017   7.484   4.079 -0.0361  0.0023  0.1591
 1290SOL     hw 5158   3.004   7.579   4.071 -0.3368 -0.0017  0.5682
 1290SOL     hw 5159   2.934   7.451   4.113 -0.6167 -0.6690 -1.8040
 1290SOL     vw 5160   3.004   7.492   4.083 -0.1523 -0.0868 -0.0455
 1291SOL     ow 5161   5.127   6.193   6.280 -0.1323 -0.5777 -0.4114
 1291SOL     hw 5162   5.116   6.167   6.189  0.6983 -0.7260 -0.4699
 1291SOL     hw 5163   5.220   6.214   6.289  0.1199 -2.0141  0.7763
 1291SOL     vw 5164   5.137   6.192   6.269  0.0107 -0.7865 -0.2623
 1292SOL     ow 5165   2.592   0.974   1.328 -0.1539  0.5004 -0.7363
 1292SOL     hw 5166   2.556   1.011   1.408 -0.8877  0.8533 -1.2122
 1292SOL     hw 5167   2.684   0.958   1.347 -0.3725  0.3751  0.2414
 1292SOL     vw 5168   2.600   0.977   1.341 -0.2795  0.5305 -0.6701
 1293SOL     ow 5169   0.921   0.065   0.530  0.1237 -0.2615  0.2684
 1293SOL     hw 5170   0.877  -0.005   0.482 -0.4019 -1.7732  2.7260
 1293SOL     hw 5171   0.883   0.146   0.497 -0.1883 -1.1829 -1.7680
 1293SOL     vw 5172   0.910   0.066   0.520  0.0132 -0.5825  0.3239
 1294SOL     ow 5173   6.403   5.432   2.761 -0.0153  0.2962  0.2581
 1294SOL     hw 5174   6.384   5.498   2.828  1.3308  0.1694  0.8057
 1294SOL     hw 5175   6.396   5.479   2.678  2.3029  1.5913  0.6794
 1294SOL     vw 5176   6.400   5.447   2.759  0.4683  0.4504  0.3858
 1295SOL     ow 5177   4.653   5.817   3.299  0.2367 -0.5854 -0.1647
 1295SOL     hw 5178   4.657   5.731   3.342  2.0944 -0.0558  0.8198
 1295SOL     hw 5179   4.623   5.797   3.210 -0.8285 -2.0575  0.4816
 1295SOL     vw 5180   4.649   5.803   3.293  0.3409 -0.7095  0.0505
 1296SOL     ow 5181   0.009   6.487   4.194  0.5292 -0.4991  0.4157
 1296SOL     hw 5182   0.034   6.398   4.172  1.9939  0.0331 -0.1902
 1296SOL     hw 5183  -0.012   6.484   4.288  0.4726 -1.4865  0.3754
 1296SOL     vw 5184   0.009   6.475   4.204  0.7150 -0.5591  0.3304
 1297SOL     ow 5185   1.608   6.254   0.116  0.2411 -0.6539 -0.3310
 1297SOL     hw 5186   1.528   6.215   0.079  0.2127 -0.3570 -0.5843
 1297SOL     hw 5187   1.577   6.331   0.164  0.3773 -0.5182 -0.4594
 1297SOL     vw 5188   1.593   6.259   0.118  0.2554 -0.5968 -0.3814
 1298SOL     ow 5189   4.164   0.911   3.647  0.0404  0.3750  0.7083
 1298SOL     hw 5190   4.110   0.989   3.660 -0.0505  0.5044 -0.3424
 1298SOL     hw 5191   4.225   0.935   3.577  1.4986  0.2400  1.8933
 1298SOL     vw 5192   4.165   0.924   3.640  0.2205  0.3743  0.7260
 1299SOL     ow 5193   7.130   4.951   1.459  0.0753 -0.5989 -0.1804
 1299SOL     hw 5194   7.048   4.932   1.504 -0.9384  0.2658 -1.6060
 1299SOL     hw 5195   7.192   4.888   1.496 -1.2583 -1.3988  0.7842
 1299SOL     vw 5196   7.127   4.940   1.470 -0.2344 -0.5901 -0.2413
 1300SOL     ow 5197   1.936   6.378   3.631 -0.3401 -0.4204  0.2784
 1300SOL     hw 5198   1.994   6.307   3.659 -0.4037 -1.3731 -1.7946
 1300SOL     hw 5199   1.901   6.348   3.547  0.8390  2.7246 -1.5053
 1300SOL     vw 5200   1.939   6.364   3.624 -0.1929 -0.1314 -0.2307
 1301SOL     ow 5201   1.324   7.019   1.836  0.0002 -0.2341 -0.0614
 1301SOL     hw 5202   1.320   7.018   1.740 -1.3425  0.6482 -0.0466
 1301SOL     hw 5203   1.236   7.047   1.863  0.8899  1.3503  1.3619
 1301SOL     vw 5204   1.312   7.023   1.827 -0.0596  0.0913  0.1284
 1302SOL     ow 5205   2.108   0.404   5.057  0.6291  0.4385  0.9000
 1302SOL     hw 5206   2.138   0.351   5.132  2.1251 -0.5417 -0.3157
 1302SOL     hw 5207   2.119   0.495   5.086 -0.3989  0.1164  2.4354
 1302SOL     vw 5208   2.114   0.409   5.071  0.6907  0.2667  0.9420
 1303SOL     ow 5209   7.391   4.771   5.032  0.4475 -0.2047  0.9742
 1303SOL     hw 5210   7.367   4.692   5.081  0.8080 -1.0156 -0.1224
 1303SOL     hw 5211   7.472   4.801   5.074  0.7366 -0.8683  0.9119
 1303SOL     vw 5212   7.398   4.764   5.044  0.5331 -0.3991  0.8211
 1304SOL     ow 5213   4.231   0.225   5.765  0.4282 -0.3603 -0.4101
 1304SOL     hw 5214   4.180   0.288   5.817 -0.9511 -1.6372 -0.1723
 1304SOL     hw 5215   4.210   0.246   5.674  0.8884  0.2574 -0.3823
 1304SOL     vw 5216   4.222   0.236   5.760  0.3066 -0.4473 -0.3750
 1305SOL     ow 5217   0.288   1.451   4.834 -0.1205  0.0324 -0.0974
 1305SOL     hw 5218   0.302   1.370   4.785  2.4293 -1.2606  2.4389
 1305SOL     hw 5219   0.229   1.426   4.905 -0.0942  0.6454  0.1459
 1305SOL     vw 5220   0.282   1.437   4.837  0.2194 -0.0573  0.2694
 1306SOL     ow 5221   4.663   4.243   5.849 -0.4173  0.3100  0.0046
 1306SOL     hw 5222   4.603   4.316   5.839 -0.6209  0.2173  0.5149
 1306SOL     hw 5223   4.661   4.222   5.942  0.0367 -0.0080 -0.0506
 1306SOL     vw 5224   4.655   4.250   5.860 -0.3843  0.2561  0.0648
 1307SOL     ow 5225   5.927   3.043   6.974  0.6827  0.3068  0.1637
 1307SOL     hw 5226   5.851   3.099   6.959 -0.6137 -1.7000 -1.1789
 1307SOL     hw 5227   5.900   2.956   6.945  3.3322 -0.6072  0.1304
 1307SOL     vw 5228   5.914   3.039   6.968  0.8612 -0.0784 -0.0179
 1308SOL     ow 5229   6.285   7.073   3.608  0.4156 -0.2998 -0.0132
 1308SOL     hw 5230   6.243   7.058   3.693  1.5903 -1.1786  0.4423
 1308SOL     hw 5231   6.349   7.143   3.625 -0.2446  0.4387 -0.4992
 1308SOL     vw 5232   6.288   7.080   3.622  0.4835 -0.3185 -0.0173
 1309SOL     ow 5233   4.667   4.980   0.917  0.7312 -0.2992  0.8138
 1309SOL     hw 5234   4.752   5.024   0.911 -0.1060  1.2235 -2.1986
 1309SOL     hw 5235   4.612   5.042   0.965  0.5069  0.3492 -0.2308
 1309SOL     vw 5236   4.671   4.994   0.923  0.5910 -0.0126  0.2785
 1310SOL     ow 5237   7.032   5.231   2.639 -0.4521  0.1472  0.1096
 1310SOL     hw 5238   7.126   5.217   2.652 -0.2634  0.4683 -0.8556
 1310SOL     hw 5239   7.020   5.326   2.645 -0.2877  0.3708 -2.2886
 1310SOL     vw 5240   7.043   5.241   2.642 -0.4055  0.2193 -0.3340
 1311SOL     ow 5241   5.742   2.875   1.441  0.4904  0.2161  0.2108
 1311SOL     hw 5242   5.683   2.866   1.366  0.5727  2.3704 -0.1794
 1311SOL     hw 5243   5.710   2.812   1.505 -0.2209 -0.9466 -1.2304
 1311SOL     vw 5244   5.730   2.866   1.439  0.4077  0.3471 -0.0308
 1312SOL     ow 5245   4.191   2.682   7.256 -0.0937  0.4982 -0.1310
 1312SOL     hw 5246   4.097   2.693   7.246 -0.2612  1.7931  2.2232
 1312SOL     hw 5247   4.220   2.758   7.307  1.7057 -1.3044  1.7571
 1312SOL     vw 5248   4.183   2.693   7.262  0.1216  0.4313  0.4287
 1313SOL     ow 5249   6.952   2.112   6.588 -0.3888 -0.0644  0.4717
 1313SOL     hw 5250   6.950   2.086   6.680 -1.2670  0.5205  0.6238
 1313SOL     hw 5251   6.928   2.032   6.540  0.2068 -0.4076  0.7274
 1313SOL     vw 5252   6.949   2.098   6.594 -0.4261 -0.0324  0.5252
 1314SOL     ow 5253   6.201   6.181   0.939 -0.0680  0.1020 -0.3970
 1314SOL     hw 5254   6.207   6.215   1.029  0.1725  0.7504 -0.6506
 1314SOL     hw 5255   6.232   6.090   0.946  1.3621  0.5770 -0.0563
 1314SOL     vw 5256   6.206   6.174   0.952  0.1523  0.2503 -0.3855
 1315SOL     ow 5257   0.563   1.046   4.563  0.1317  0.7323 -1.0414
 1315SOL     hw 5258   0.526   1.064   4.476 -2.9788  1.3126  0.2599
 1315SOL     hw 5259   0.498   1.081   4.624  2.2203  0.3764  1.5624
 1315SOL     vw 5260   0.550   1.053   4.559 -0.0031  0.7619 -0.5262
 1316SOL     ow 5261   1.726   5.848   2.537 -0.1516 -0.1184  0.1793
 1316SOL     hw 5262   1.741   5.942   2.546 -0.9064 -0.0237  0.5282
 1316SOL     hw 5263   1.776   5.809   2.609 -0.5369  0.0860  0.5595
 1316SOL     vw 5264   1.735   5.855   2.548 -0.3021 -0.0789  0.2754
 1317SOL     ow 5265   1.694   4.600   0.149  0.7543 -0.3629  0.0280
 1317SOL     hw 5266   1.772   4.650   0.173 -0.2509  1.1857  0.2574
 1317SOL     hw 5267   1.632   4.667   0.120 -0.1170 -1.6649 -1.1802
 1317SOL     vw 5268   1.696   4.616   0.148  0.5066 -0.3304 -0.1011
 1318SOL     ow 5269   4.075   3.764   2.606 -0.4990 -0.5149 -0.1133
 1318SOL     hw 5270   4.115   3.845   2.574 -1.2300 -0.4855 -1.0036
 1318SOL     hw 5271   4.124   3.742   2.685 -0.6587  1.1185  0.4746
 1318SOL     vw 5272   4.087   3.772   2.612 -0.6168 -0.2955 -0.1533
 1319SOL     ow 5273   6.781   3.036   3.957  0.1573  0.3187  0.6340
 1319SOL     hw 5274   6.814   3.006   4.041 -0.3623 -1.6268  0.1935
 1319SOL     hw 5275   6.802   3.130   3.954  0.2982  0.3883  2.8400
 1319SOL     vw 5276   6.788   3.045   3.967  0.1075  0.0712  0.8670
 1320SOL     ow 5277   0.521   5.356   3.611 -0.6226  0.2210 -0.0563
 1320SOL     hw 5278   0.501   5.282   3.553 -0.0672 -0.2052  0.2923
 1320SOL     hw 5279   0.606   5.335   3.648 -0.3306  1.1822 -0.1703
 1320SOL     vw 5280   0.529   5.343   3.608 -0.5108  0.2913 -0.0253
 1321SOL     ow 5281   5.036   4.790   3.963  0.5644 -0.0590 -0.9132
 1321SOL     hw 5282   5.037   4.816   3.871 -0.5910 -0.5368 -1.0753
 1321SOL     hw 5283   5.118   4.743   3.976  0.9642  0.4485 -1.5616
 1321SOL     vw 5284   5.047   4.787   3.953  0.4642 -0.0548 -1.0200
 1322SOL     ow 5285   0.998   6.068   3.242  0.6190  0.4000  0.0605
 1322SOL     hw 5286   0.946   5.988   3.237  0.8775  0.2636 -0.5266
 1322SOL     hw 5287   1.044   6.061   3.326 -0.0998  0.3986  0.4643
 1322SOL     vw 5288   0.997   6.056   3.252  0.5582  0.3819  0.0362
 1323SOL     ow 5289   6.243   6.220   1.232  0.0869  0.1928  0.3831
 1323SOL     hw 5290   6.319   6.276   1.248 -0.1803  0.5669  0.3566
 1323SOL     hw 5291   6.168   6.275   1.254 -0.2098  0.0738 -0.3092
 1323SOL     vw 5292   6.243   6.235   1.237  0.0122  0.2265  0.2884
 1324SOL     ow 5293   0.754   0.096   3.617  0.3104  0.2526 -0.4159
 1324SOL     hw 5294   0.698   0.020   3.629  0.5734 -0.0174 -0.8766
 1324SOL     hw 5295   0.843   0.063   3.631  0.5588  0.1227 -2.0988
 1324SOL     vw 5296   0.759   0.082   3.620  0.3779  0.1998 -0.6987
 1325SOL     ow 5297   3.103   0.252   1.018 -0.5730  0.2041 -0.2063
 1325SOL     hw 5298   3.070   0.253   1.108  0.7337  2.9195  0.3543
 1325SOL     hw 5299   3.050   0.316   0.972 -1.2566 -1.1951 -1.4352
 1325SOL     vw 5300   3.092   0.260   1.024 -0.4909  0.3777 -0.2944
 1326SOL     ow 5301   3.556   7.122   0.625  0.1560 -0.0530  0.1641
 1326SOL     hw 5302   3.471   7.156   0.597  0.3402  1.3470  1.2179
 1326SOL     hw 5303   3.536   7.035   0.661 -0.6495 -0.1882 -0.5522
 1326SOL     vw 5304   3.542   7.115   0.626  0.0741  0.1142  0.2086
 1327SOL     ow 5305   3.748   4.032   2.186 -0.1112 -0.1827 -0.9473
 1327SOL     hw 5306   3.691   4.022   2.262 -0.7248 -0.7073 -1.4672
 1327SOL     hw 5307   3.806   4.105   2.209  0.7331 -1.2723  0.6534
 1327SOL     vw 5308   3.748   4.040   2.199 -0.0808 -0.3955 -0.8048
 1328SOL     ow 5309   5.983   6.391   2.885  0.2879  0.1593 -0.0500
 1328SOL     hw 5310   6.036   6.340   2.824 -1.7207 -0.7900 -1.0695
 1328SOL     hw 5311   5.963   6.330   2.956 -0.9734 -0.0803 -0.5953
 1328SOL     vw 5312   5.987   6.376   2.886 -0.1435  0.0021 -0.2564
 1329SOL     ow 5313   4.388   6.666   7.394 -0.1821  0.1699 -0.1504
 1329SOL     hw 5314   4.476   6.638   7.371 -0.0874  1.5715 -1.6781
 1329SOL     hw 5315   4.399   6.720   7.473 -0.0529 -1.7386  1.2111
 1329SOL     vw 5316   4.401   6.669   7.402 -0.1523  0.1030 -0.1724
 1330SOL     ow 5317   1.377   0.658   2.531  0.5490  0.1774 -0.7848
 1330SOL     hw 5318   1.282   0.667   2.527  0.5494  1.3254  0.8379
 1330SOL     hw 5319   1.393   0.565   2.514 -0.8528 -0.0229 -1.1065
 1330SOL     vw 5320   1.366   0.647   2.528  0.3641  0.3025 -0.6131
 1331SOL     ow 5321   3.332   0.922   3.765  0.5492  0.5504  0.0020
 1331SOL     hw 5322   3.348   0.913   3.859 -1.0577  0.1936  0.2723
 1331SOL     hw 5323   3.396   0.987   3.735 -0.1059  2.0404  1.6917
 1331SOL     vw 5324   3.342   0.929   3.773  0.2506  0.6999  0.2607
 1332SOL     ow 5325   0.492   4.901   5.665 -0.3858  0.3465 -0.1006
 1332SOL     hw 5326   0.582   4.876   5.644 -0.9873 -1.4334 -0.7361
 1332SOL     hw 5327   0.473   4.856   5.747 -0.7578  0.5775 -0.0587
 1332SOL     vw 5328   0.501   4.892   5.673 -0.5143  0.1421 -0.1788
 1333SOL     ow 5329   5.836   4.166   0.440  0.3844  0.5824 -0.0156
 1333SOL     hw 5330   5.746   4.197   0.428  0.5170  0.6725 -0.8449
 1333SOL     hw 5331   5.827   4.070   0.445  0.3067  0.5351 -0.8689
 1333SOL     vw 5332   5.823   4.157   0.439  0.3917  0.5882 -0.2376
 1334SOL     ow 5333   5.713   1.691   5.520 -1.3095  0.7765 -0.1112
 1334SOL     hw 5334   5.795   1.644   5.502 -2.7487 -1.0043 -2.6484
 1334SOL     hw 5335   5.740   1.765   5.574  1.8120 -0.2666 -0.0001
 1334SOL     vw 5336   5.727   1.694   5.525 -1.0877  0.4040 -0.4311
 1335SOL     ow 5337   5.487   6.622   4.173 -0.3590 -0.1994  0.7132
 1335SOL     hw 5338   5.412   6.574   4.136 -0.8647  2.4506 -2.1393
 1335SOL     hw 5339   5.452   6.661   4.254 -1.1854 -1.1988  0.8658
 1335SOL     vw 5340   5.472   6.621   4.179 -0.5345  0.0184  0.3574
 1336SOL     ow 5341   6.946   1.201   6.433 -0.2423 -0.1536 -0.2421
 1336SOL     hw 5342   6.949   1.159   6.519 -0.7964 -1.5679 -0.8937
 1336SOL     hw 5343   6.856   1.192   6.404 -0.1659  0.7143 -0.7973
 1336SOL     vw 5344   6.935   1.194   6.441 -0.3052 -0.2257 -0.4013
 1337SOL     ow 5345   3.526   3.080   0.061  0.0969 -0.9544 -0.2889
 1337SOL     hw 5346   3.508   3.125  -0.022 -0.6293  1.0646  0.8719
 1337SOL     hw 5347   3.488   2.993   0.050 -0.8863 -0.3880 -1.7304
 1337SOL     vw 5348   3.518   3.075   0.048 -0.1286 -0.6131 -0.3259
 1338SOL     ow 5349   2.735   0.195   7.112  0.0345 -0.0627  0.3589
 1338SOL     hw 5350   2.763   0.282   7.084  1.2338 -0.2256  1.0128
 1338SOL     hw 5351   2.816   0.146   7.124 -0.6142 -2.1510 -2.6042
 1338SOL     vw 5352   2.749   0.200   7.110  0.1072 -0.3597  0.0544
 1339SOL     ow 5353   1.685   5.820   1.331 -0.8113 -0.2172 -0.3680
 1339SOL     hw 5354   1.780   5.824   1.335 -0.7560 -0.4290 -1.2821
 1339SOL     hw 5355   1.660   5.898   1.281 -1.1804  0.2750  0.5610
 1339SOL     vw 5356   1.694   5.831   1.325 -0.8527 -0.1800 -0.3660
 1340SOL     ow 5357   3.488   3.329   0.521 -0.1762  0.6635 -0.3301
 1340SOL     hw 5358   3.562   3.384   0.497  0.9212  0.0313  1.4631
 1340SOL     hw 5359   3.469   3.279   0.442  1.3998  0.7430 -0.7849
 1340SOL     vw 5360   3.495   3.330   0.507  0.1764  0.5906 -0.1535
 1341SOL     ow 5361   5.391   0.444   1.414 -0.6438  0.3644 -0.2972
 1341SOL     hw 5362   5.475   0.403   1.432 -1.5171 -1.8609 -0.9100
 1341SOL     hw 5363   5.347   0.448   1.499  0.2043  1.9663  0.1059
 1341SOL     vw 5364   5.396   0.439   1.427 -0.6471  0.2822 -0.3248
 1342SOL     ow 5365   2.843   4.074   7.288  0.2961  0.2168 -0.3118
 1342SOL     hw 5366   2.861   4.101   7.198  0.8058  2.3173  0.3616
 1342SOL     hw 5367   2.769   4.014   7.281  1.2402 -0.8053 -2.2374
 1342SOL     vw 5368   2.836   4.070   7.275  0.4878  0.3588 -0.4773
 1343SOL     ow 5369   5.325   3.157   5.041  0.0476  0.5631  0.4364
 1343SOL     hw 5370   5.246   3.192   4.999  0.9214  1.3935 -0.5662
 1343SOL     hw 5371   5.397   3.202   4.998  1.1286 -0.8800  0.6647
 1343SOL     vw 5372   5.324   3.167   5.030  0.3057  0.4823  0.3343
 1344SOL     ow 5373   7.329   6.622   2.097 -0.0219 -0.1738  0.1155
 1344SOL     hw 5374   7.424   6.615   2.111 -0.0740  0.5005  0.8806
 1344SOL     hw 5375   7.291   6.606   2.184 -0.7244 -2.3446 -0.5274
 1344SOL     vw 5376   7.337   6.619   2.110 -0.1211 -0.3710  0.1316
 1345SOL     ow 5377   4.488   5.034   4.680  0.0313  0.1064 -0.2879
 1345SOL     hw 5378   4.473   5.099   4.612 -1.9734 -0.0217 -0.0157
 1345SOL     hw 5379   4.435   4.959   4.655 -0.2844 -0.1719  1.0925
 1345SOL     vw 5380   4.479   5.033   4.668 -0.2749  0.0529 -0.0696
 1346SOL     ow 5381   2.967   5.266   4.374 -0.4098 -0.1771  0.1806
 1346SOL     hw 5382   2.927   5.267   4.461 -1.0639  0.1474 -0.1179
 1346SOL     hw 5383   2.898   5.238   4.315  0.0487 -0.4582 -0.2341
 1346SOL     vw 5384   2.953   5.263   4.378 -0.4355 -0.1712  0.0865
 1347SOL     ow 5385   2.182   6.487   6.554 -0.0620 -0.2059 -0.2181
 1347SOL     hw 5386   2.160   6.421   6.488 -0.2782 -0.2003 -0.1558
 1347SOL     hw 5387   2.275   6.505   6.541  0.3367 -1.4922  0.6244
 1347SOL     vw 5388   2.191   6.480   6.543 -0.0379 -0.3748 -0.0987
 1348SOL     ow 5389   5.655   3.621   2.310 -0.2922 -0.8007 -0.2254
 1348SOL     hw 5390   5.636   3.618   2.216  2.7177  1.4729 -1.0872
 1348SOL     hw 5391   5.594   3.686   2.345 -1.2066 -1.4114 -0.6450
 1348SOL     vw 5392   5.645   3.629   2.302 -0.0157 -0.5813 -0.3945
 1349SOL     ow 5393   0.062   4.837   4.516 -0.3396  0.0565  0.1365
 1349SOL     hw 5394   0.126   4.777   4.477 -0.4302 -0.1255  0.2628
 1349SOL     hw 5395   0.043   4.799   4.602 -0.5175  0.1810  0.1537
 1349SOL     vw 5396   0.068   4.824   4.523 -0.3750  0.0486  0.1557
 1350SOL     ow 5397   0.190   3.426   1.123  0.0905  0.5961  0.5649
 1350SOL     hw 5398   0.230   3.340   1.121  2.9417  1.7789  1.6274
 1350SOL     hw 5399   0.099   3.411   1.095  1.2874 -2.2096 -2.5144
 1350SOL     vw 5400   0.183   3.413   1.119  0.6246  0.3819  0.2989
 1351SOL     ow 5401   2.932   4.801   6.996  0.0460  0.4959 -0.2531
 1351SOL     hw 5402   2.947   4.733   6.930 -0.4884  0.3180 -0.1971
 1351SOL     hw 5403   3.017   4.812   7.040  0.1183 -0.1803 -0.2194
 1351SOL     vw 5404   2.945   4.794   6.993 -0.0150  0.3834 -0.2413
 1352SOL     ow 5405   3.757   1.585   5.564 -0.0045  0.5257  0.3196
 1352SOL     hw 5406   3.688   1.617   5.623 -1.1355 -2.0255  0.5435
 1352SOL     hw 5407   3.718   1.590   5.477  0.3465  1.0521  0.1916
 1352SOL     vw 5408   3.743   1.590   5.560 -0.1073  0.2585  0.3324
 1353SOL     ow 5409   3.061   0.404   0.371  0.4873 -0.1610  0.0590
 1353SOL     hw 5410   3.091   0.323   0.412  2.6994 -0.2623 -1.5899
 1353SOL     hw 5411   3.092   0.473   0.430  0.1455 -0.4370  0.5707
 1353SOL     vw 5412   3.069   0.403   0.384  0.7341 -0.2108 -0.0910
 1354SOL     ow 5413   1.996   2.298   1.315 -0.1207 -0.5244  0.0614
 1354SOL     hw 5414   1.982   2.387   1.346  0.0133  0.4743 -2.5401
 1354SOL     hw 5415   2.024   2.307   1.224  2.2517 -3.1437  0.3816
 1354SOL     vw 5416   1.998   2.311   1.307  0.2099 -0.7383 -0.2395
 1355SOL     ow 5417   1.279   3.672   4.216  0.3968  0.2734  0.2730
 1355SOL     hw 5418   1.186   3.672   4.238  0.6489 -1.2193  1.5575
 1355SOL     hw 5419   1.324   3.676   4.301  1.5784  3.2616 -0.3851
 1355SOL     vw 5420   1.273   3.672   4.230  0.5860  0.4706  0.3557
 1356SOL     ow 5421   1.355   5.155   2.429 -0.1143  0.0877 -0.7087
 1356SOL     hw 5422   1.403   5.190   2.504 -0.3720 -1.4263  0.2220
 1356SOL     hw 5423   1.288   5.220   2.411  0.2672  0.7102  0.0592
 1356SOL     vw 5424   1.353   5.168   2.437 -0.0981 -0.0300 -0.4846
 1357SOL     ow 5425   2.922   0.371   6.027  0.5234  0.2671 -0.1818
 1357SOL     hw 5426   2.999   0.428   6.031  0.0678  0.8375  2.7533
 1357SOL     hw 5427   2.902   0.352   6.118 -3.2813  0.7586 -0.7550
 1357SOL     vw 5428   2.930   0.376   6.039 -0.0386  0.4072  0.1299
 1358SOL     ow 5429   7.294   1.661   3.586  0.3896  0.4013 -0.1848
 1358SOL     hw 5430   7.336   1.596   3.529 -1.2306 -2.0301  1.1742
 1358SOL     hw 5431   7.237   1.711   3.528  0.2434 -0.7010 -1.0301
 1358SOL     vw 5432   7.292   1.659   3.571  0.1564 -0.0650 -0.1172
 1359SOL     ow 5433   2.770   7.260   4.441 -0.0210 -0.2592 -0.2698
 1359SOL     hw 5434   2.855   7.240   4.481 -0.1014 -1.7064 -0.7596
 1359SOL     hw 5435   2.733   7.328   4.498  1.3077  0.1683  0.1412
 1359SOL     vw 5436   2.776   7.266   4.454  0.1436 -0.3936 -0.2801
 1360SOL     ow 5437   1.432   3.691   3.933  0.6424  0.3080 -0.1522
 1360SOL     hw 5438   1.444   3.715   3.841  0.5198  2.3176  0.3039
 1360SOL     hw 5439   1.519   3.669   3.964  0.4345 -2.4549 -1.2007
 1360SOL     vw 5440   1.445   3.691   3.925  0.5988  0.2086 -0.2303
 1361SOL     ow 5441   5.318   3.319   3.354  0.2198 -0.6137 -0.3956
 1361SOL     hw 5442   5.269   3.244   3.386 -1.2872 -0.1477 -1.4972
 1361SOL     hw 5443   5.355   3.290   3.271  0.8334 -0.5709 -0.1465
 1361SOL     vw 5444   5.317   3.305   3.347  0.1018 -0.5463 -0.5083
 1362SOL     ow 5445   3.007   0.677   2.523 -0.6162  0.3543  0.3889
 1362SOL     hw 5446   3.054   0.702   2.444  0.4524 -0.8280  0.6147
 1362SOL     hw 5447   2.916   0.702   2.507 -0.3455  0.4712 -1.0527
 1362SOL     vw 5448   3.001   0.684   2.511 -0.4395  0.2137  0.2284
 1363SOL     ow 5449   3.343   3.174   0.269  0.4170  0.2796 -0.4261
 1363SOL     hw 5450   3.304   3.246   0.219  0.2663  0.9207  0.5813
 1363SOL     hw 5451   3.420   3.148   0.218  0.4319  1.1156 -0.8437
 1363SOL     vw 5452   3.348   3.180   0.256  0.3990  0.4746 -0.3483
 1364SOL     ow 5453   1.118   2.337   4.802  0.4966 -0.3334 -0.1202
 1364SOL     hw 5454   1.138   2.396   4.729 -2.0465 -0.7068 -1.2210
 1364SOL     hw 5455   1.189   2.351   4.864  1.5320  1.7049 -1.6426
 1364SOL     vw 5456   1.130   2.347   4.800  0.2978 -0.1137 -0.4663
 1365SOL     ow 5457   0.788   4.241   0.736 -0.2185  0.1598  0.3609
 1365SOL     hw 5458   0.838   4.309   0.691 -0.4572  0.6446  0.8252
 1365SOL     hw 5459   0.852   4.172   0.754  0.1318  0.4733  0.3261
 1365SOL     vw 5460   0.803   4.241   0.733 -0.2038  0.2651  0.4176
 1366SOL     ow 5461   2.607   6.619   3.458 -0.3154 -0.0163 -0.2220
 1366SOL     hw 5462   2.581   6.550   3.398  1.1713 -1.4098  0.6635
 1366SOL     hw 5463   2.539   6.618   3.526  0.4576 -1.6665  0.5735
 1366SOL     vw 5464   2.594   6.610   3.459 -0.0172 -0.4177 -0.0001
 1367SOL     ow 5465   4.214   4.601   1.269 -0.0454  0.1856  0.3413
 1367SOL     hw 5466   4.132   4.551   1.274 -1.1481  1.9446  0.4736
 1367SOL     hw 5467   4.187   4.691   1.252  1.8792  0.8058  0.3011
 1367SOL     vw 5468   4.199   4.606   1.267  0.0627  0.4997  0.3535
 1368SOL     ow 5469   3.829   5.368   5.641 -0.1376  0.1341  0.1332
 1368SOL     hw 5470   3.805   5.351   5.550  1.5125  1.0299 -0.5156
 1368SOL     hw 5471   3.778   5.445   5.665 -0.9281 -0.3788  0.1383
 1368SOL     vw 5472   3.820   5.376   5.632 -0.0242  0.1845  0.0484
 1369SOL     ow 5473   2.556   3.852   5.300  0.0919 -0.2970 -0.2632
 1369SOL     hw 5474   2.573   3.778   5.359  1.0785 -0.5072 -0.7888
 1369SOL     hw 5475   2.502   3.815   5.230 -0.7711 -0.1334  0.3101
 1369SOL     vw 5476   2.551   3.837   5.299  0.1082 -0.3031 -0.2568
 1370SOL     ow 5477   1.343   6.177   5.705 -0.7254  0.1022 -0.4219
 1370SOL     hw 5478   1.323   6.241   5.638 -0.5408  0.9959  0.3564
 1370SOL     hw 5479   1.280   6.195   5.775  0.8841  1.0664  0.8406
 1370SOL     vw 5480   1.332   6.187   5.706 -0.4886  0.3469 -0.1526
 1371SOL     ow 5481   0.753   2.882   5.458  0.2136  0.5673 -0.0314
 1371SOL     hw 5482   0.692   2.810   5.473  0.6868  0.5537  2.0741
 1371SOL     hw 5483   0.742   2.903   5.365 -2.2096 -0.1169  0.0304
 1371SOL     vw 5484   0.744   2.875   5.447 -0.0437  0.4753  0.2544
 1372SOL     ow 5485   2.806   4.059   3.235  0.2565 -0.4586 -0.4356
 1372SOL     hw 5486   2.813   4.138   3.289 -1.5466 -1.0960  0.8402
 1372SOL     hw 5487   2.891   4.015   3.246  0.3085 -0.0492  1.0780
 1372SOL     vw 5488   2.818   4.064   3.244  0.0256 -0.4890 -0.0675
 1373SOL     ow 5489   3.363   2.953   3.562  0.0826 -0.3187  0.3207
 1373SOL     hw 5490   3.398   2.865   3.571  0.4182 -0.2894 -0.5740
 1373SOL     hw 5491   3.316   2.951   3.478 -0.3389  0.2070  0.5398
 1373SOL     vw 5492   3.361   2.941   3.552  0.0712 -0.2456  0.2315
 1374SOL     ow 5493   3.648   3.054   4.449  0.1893 -0.3939  0.2833
 1374SOL     hw 5494   3.736   3.031   4.481  0.7256 -2.9738 -2.5516
 1374SOL     hw 5495   3.664   3.105   4.370 -0.3588 -4.8920 -3.1867
 1374SOL     vw 5496   3.662   3.057   4.443  0.1879 -1.3276 -0.5484
 1375SOL     ow 5497   4.068   7.269   6.376  0.1948 -0.1468  0.3267
 1375SOL     hw 5498   4.131   7.324   6.329  0.4217 -1.2176 -0.6722
 1375SOL     hw 5499   4.000   7.329   6.405  0.4956  0.6725 -0.6273
 1375SOL     vw 5500   4.068   7.284   6.374  0.2644 -0.1800  0.0694
 1376SOL     ow 5501   3.244   3.425   2.283  0.0728  0.3422  0.1131
 1376SOL     hw 5502   3.295   3.371   2.221  0.1273  0.4843  0.0321
 1376SOL     hw 5503   3.308   3.451   2.349 -0.3429 -1.1960  1.1633
 1376SOL     vw 5504   3.259   3.421   2.283  0.0252  0.1578  0.2409
 1377SOL     ow 5505   1.002   5.097   0.491  0.1961 -0.2804  0.1583
 1377SOL     hw 5506   1.023   5.045   0.568 -1.4070 -0.5875  0.4269
 1377SOL     hw 5507   0.907   5.106   0.493  0.2255  0.7036 -1.1520
 1377SOL     vw 5508   0.992   5.091   0.501 -0.0115 -0.1912  0.0209
 1378SOL     ow 5509   3.472   5.758   1.259  0.0447  0.4786  0.5126
 1378SOL     hw 5510   3.417   5.682   1.243 -2.1783  2.3355 -1.5268
 1378SOL     hw 5511   3.505   5.783   1.172 -0.1543  2.3992  0.9347
 1378SOL     vw 5512   3.469   5.752   1.245 -0.2748  0.9773  0.2992
 1379SOL     ow 5513   2.031   1.753   4.474  0.3821 -0.4506  0.1930
 1379SOL     hw 5514   2.119   1.717   4.479  0.8839  0.3420 -1.8042
 1379SOL     hw 5515   1.978   1.684   4.433  0.4733 -0.2989 -0.1812
 1379SOL     vw 5516   2.035   1.739   4.470  0.4605 -0.3260 -0.1199
 1380SOL     ow 5517   6.101   5.267   0.025  0.3864 -0.2873  0.1334
 1380SOL     hw 5518   6.025   5.318  -0.004  1.1563  1.9086  1.6651
 1380SOL     hw 5519   6.073   5.230   0.109  0.4110 -1.0221 -0.1772
 1380SOL     vw 5520   6.087   5.269   0.032  0.4914 -0.0947  0.2945
 1381SOL     ow 5521   2.404   3.009   7.001  0.3500 -0.5784 -0.0775
 1381SOL     hw 5522   2.331   3.064   7.029 -0.5971 -1.9412  0.2674
 1381SOL     hw 5523   2.442   2.976   7.083  2.1166  0.9983 -0.1965
 1381SOL     vw 5524   2.400   3.012   7.016  0.4582 -0.5503 -0.0477
 1382SOL     ow 5525   5.677   1.444   2.054 -0.0014  0.3458  0.5196
 1382SOL     hw 5526   5.688   1.482   1.966  1.6337 -2.1665 -0.4717
 1382SOL     hw 5527   5.608   1.379   2.043  0.6474 -0.4206  0.9196
 1382SOL     vw 5528   5.670   1.441   2.041  0.2997 -0.0868  0.4414
 1383SOL     ow 5529   1.538   6.780   6.327  0.0665 -0.0489  0.2613
 1383SOL     hw 5530   1.557   6.778   6.421 -0.8463  0.5212  0.4739
 1383SOL     hw 5531   1.455   6.827   6.321  0.6778  0.9371 -0.9280
 1383SOL     vw 5532   1.530   6.786   6.338  0.0267  0.1564  0.1326
 1384SOL     ow 5533   0.092   4.353   2.754 -0.3975  0.4058 -0.1895
 1384SOL     hw 5534   0.125   4.374   2.667  0.7242 -0.0562  0.1022
 1384SOL     hw 5535  -0.003   4.343   2.742 -0.2227  0.0182 -1.4227
 1384SOL     vw 5536   0.084   4.354   2.741 -0.2264  0.2937 -0.3138
 1385SOL     ow 5537   3.746   3.468   3.746  0.2425 -0.1877  0.3765
 1385SOL     hw 5538   3.801   3.514   3.809 -0.4965 -0.4947  1.2578
 1385SOL     hw 5539   3.702   3.400   3.797 -2.6181  1.3721  0.2005
 1385SOL     vw 5540   3.748   3.465   3.761 -0.2325 -0.0225  0.4696
 1386SOL     ow 5541   0.842   0.127   6.035  0.1983  0.3198  0.1237
 1386SOL     hw 5542   0.797   0.188   5.975 -0.0776  2.3796  2.2868
 1386SOL     hw 5543   0.773   0.097   6.093  0.7272 -0.4794  0.3403
 1386SOL     vw 5544   0.827   0.131   6.035  0.2317  0.4861  0.4377
 1387SOL     ow 5545   4.714   1.899   4.442  0.2621 -0.2421 -0.1531
 1387SOL     hw 5546   4.632   1.861   4.473  0.8872 -0.9479  0.7001
 1387SOL     hw 5547   4.692   1.989   4.419 -0.7972 -0.4967 -0.1620
 1387SOL     vw 5548   4.701   1.906   4.443  0.2048 -0.3688 -0.0417
 1388SOL     ow 5549   6.407   5.443   5.911  0.3548  0.5787  0.2771
 1388SOL     hw 5550   6.399   5.347   5.915  3.3167  0.2205  0.3502
 1388SOL     hw 5551   6.502   5.458   5.906 -0.0924  3.4785 -1.3606
 1388SOL     vw 5552   6.419   5.432   5.911  0.6866  0.9143  0.0706
 1389SOL     ow 5553   6.970   0.125   5.971 -0.0050 -0.3748  0.3082
 1389SOL     hw 5554   6.983   0.090   5.883  1.2930  0.6769  0.0504
 1389SOL     hw 5555   6.972   0.048   6.028  0.9841 -0.9047 -0.4053
 1389SOL     vw 5556   6.972   0.110   5.967  0.2971 -0.3059  0.1798
 1390SOL     ow 5557   4.418   1.025   1.589 -0.1856 -0.3909  0.0874
 1390SOL     hw 5558   4.356   1.041   1.660 -0.8026  0.7029 -0.6595
 1390SOL     hw 5559   4.496   0.990   1.632 -0.4564  0.4791  1.3281
 1390SOL     vw 5560   4.420   1.023   1.604 -0.3028 -0.1318  0.1525
 1391SOL     ow 5561   0.286   3.992   0.438  0.0475  0.4578 -0.2914
 1391SOL     hw 5562   0.195   3.994   0.409 -0.6111  0.8273  1.7023
 1391SOL     hw 5563   0.294   3.910   0.488  0.5249  0.9075  0.3835
 1391SOL     vw 5564   0.275   3.981   0.441  0.0236  0.5659  0.0607
 1392SOL     ow 5565   0.896   1.869   3.869  0.0366  0.5343  0.1779
 1392SOL     hw 5566   0.914   1.947   3.922  1.8567  0.1982  0.1239
 1392SOL     hw 5567   0.966   1.868   3.804 -0.3714 -0.7635 -0.2685
 1392SOL     vw 5568   0.907   1.879   3.867  0.2229  0.3186  0.1118
 1393SOL     ow 5569   4.340   1.777   1.463 -0.3880 -0.3665 -0.3741
 1393SOL     hw 5570   4.284   1.806   1.392 -0.1395  0.5125 -0.2285
 1393SOL     hw 5571   4.402   1.849   1.476  0.5926 -1.1874 -0.3352
 1393SOL     vw 5572   4.341   1.790   1.456 -0.2255 -0.3588 -0.3498
 1394SOL     ow 5573   4.418   5.041   2.475 -0.0697  0.1816  0.2345
 1394SOL     hw 5574   4.375   5.000   2.401  0.1761  1.1064 -0.4415
 1394SOL     hw 5575   4.418   4.974   2.544 -2.9854  0.2511  0.4426
 1394SOL     vw 5576   4.412   5.027   2.475 -0.4220  0.3128  0.1727
 1395SOL     ow 5577   1.890   7.020   3.082  0.0519 -0.0989  0.6335
 1395SOL     hw 5578   1.918   7.048   3.169  0.9927  0.9252  0.0262
 1395SOL     hw 5579   1.811   6.967   3.098  0.5005 -0.3625  2.1350
 1395SOL     vw 5580   1.883   7.017   3.096  0.2352  0.0014  0.7514
 1396SOL     ow 5581   3.758   4.545   3.895 -0.6559 -0.2362 -0.0104
 1396SOL     hw 5582   3.830   4.518   3.838 -0.6243  2.4846 -1.4268
 1396SOL     hw 5583   3.679   4.525   3.844 -0.6332  1.9958 -1.0464
 1396SOL     vw 5584   3.757   4.539   3.880 -0.6487  0.4172 -0.3337
 1397SOL     ow 5585   0.050   4.597   5.360  0.4862  0.0014 -0.0104
 1397SOL     hw 5586   0.004   4.516   5.339  1.2649 -0.0162 -1.8516
 1397SOL     hw 5587   0.141   4.570   5.374  0.3821  0.3151  1.4559
 1397SOL     vw 5588   0.056   4.582   5.359  0.5752  0.0405 -0.0601
 1398SOL     ow 5589   0.168   2.579   3.827 -0.3397 -0.4096 -0.1969
 1398SOL     hw 5590   0.167   2.524   3.905 -0.3442 -0.7570 -0.4407
 1398SOL     hw 5591   0.207   2.524   3.759  2.6142  0.8758  0.2797
 1398SOL     vw 5592   0.173   2.564   3.828  0.0495 -0.2859 -0.1662
 1399SOL     ow 5593   4.629   1.958   3.838  0.5108  0.4198 -0.1343
 1399SOL     hw 5594   4.566   2.025   3.811 -1.5866 -1.5001 -0.3063
 1399SOL     hw 5595   4.575   1.884   3.865  2.7031 -1.6524 -1.0462
 1399SOL     vw 5596   4.613   1.957   3.838  0.5236 -0.1070 -0.2773
 1400SOL     ow 5597   0.692   4.733   4.622 -0.5601 -0.5234  0.6745
 1400SOL     hw 5598   0.725   4.803   4.567 -3.2175  1.2056  1.1097
 1400SOL     hw 5599   0.714   4.653   4.574 -2.9445  0.8509 -3.1728
 1400SOL     vw 5600   0.699   4.731   4.609 -1.2253 -0.1137  0.2241
 1401SOL     ow 5601   6.752   5.841   1.625  0.0232 -0.0872 -0.3793
 1401SOL     hw 5602   6.814   5.898   1.670  0.9555 -0.0831 -1.6249
 1401SOL     hw 5603   6.800   5.761   1.608 -1.8746 -2.2869  3.2730
 1401SOL     vw 5604   6.766   5.838   1.628 -0.1040 -0.3772 -0.0618
 1402SOL     ow 5605   7.361   1.277   2.584  0.2644 -0.2475  0.4396
 1402SOL     hw 5606   7.310   1.231   2.650 -0.0991 -2.3361 -1.2058
 1402SOL     hw 5607   7.383   1.210   2.519 -0.1102  1.8207 -1.9957
 1402SOL     vw 5608   7.357   1.262   2.584  0.1669 -0.2502 -0.0988
 1403SOL     ow 5609   5.908   4.431   0.284 -0.0119 -0.0334  0.0078
 1403SOL     hw 5610   5.851   4.443   0.207 -0.8639  2.8690  0.9356
 1403SOL     hw 5611   5.987   4.480   0.262  0.1966 -0.1213  0.5528
 1403SOL     vw 5612   5.911   4.439   0.271 -0.0970  0.3381  0.2021
 1404SOL     ow 5613   7.416   7.425   4.851  0.4050  0.2705 -0.7407
 1404SOL     hw 5614   7.472   7.498   4.828 -0.0700  0.2652 -2.0261
 1404SOL     hw 5615   7.443   7.399   4.939 -0.1286  2.6591  0.1887
 1404SOL     vw 5616   7.427   7.431   4.859  0.2720  0.5851 -0.7875
 1405SOL     ow 5617   5.340   0.690   1.333 -0.2536  0.0007  0.7014
 1405SOL     hw 5618   5.297   0.722   1.412  0.2057 -0.7128  1.2524
 1405SOL     hw 5619   5.356   0.597   1.351  0.1882 -0.0781 -0.0815
 1405SOL     vw 5620   5.336   0.682   1.346 -0.1347 -0.1038  0.6709
 1406SOL     ow 5621   0.455   1.743   2.553  0.5503  0.5628 -0.0202
 1406SOL     hw 5622   0.450   1.813   2.489 -4.2664 -0.2604 -0.8753
 1406SOL     hw 5623   0.380   1.756   2.610  1.2995 -2.1262  1.8035
 1406SOL     vw 5624   0.445   1.754   2.552  0.0136  0.0994  0.1079
 1407SOL     ow 5625   6.695   0.153   1.989  0.0085  0.5201 -0.6335
 1407SOL     hw 5626   6.732   0.174   1.903 -0.5827  0.6581 -0.8611
 1407SOL     hw 5627   6.618   0.209   1.996  1.4170  2.3605  1.0672
 1407SOL     vw 5628   6.689   0.163   1.978  0.1163  0.7811 -0.4392
 1408SOL     ow 5629   3.879   1.635   2.467 -0.8051 -0.0733  0.1348
 1408SOL     hw 5630   3.950   1.590   2.422  0.1938  0.9526  0.6419
 1408SOL     hw 5631   3.850   1.573   2.535  0.6063  0.0457  0.8844
 1408SOL     vw 5632   3.884   1.621   2.470 -0.4871  0.0778  0.3006
 1409SOL     ow 5633   0.751   5.384   1.458  0.1849 -0.1356 -0.4091
 1409SOL     hw 5634   0.800   5.451   1.506 -1.3170 -0.3670  1.5897
 1409SOL     hw 5635   0.793   5.301   1.482 -1.1592 -0.3502  1.4374
 1409SOL     vw 5636   0.763   5.382   1.467 -0.1906 -0.1945  0.0982
 1410SOL     ow 5637   0.797   2.706   6.440  0.1894 -0.2814  0.0787
 1410SOL     hw 5638   0.806   2.797   6.411  0.9659 -0.4297 -0.1714
 1410SOL     hw 5639   0.726   2.670   6.387  0.1115  0.0846 -0.0644
 1410SOL     vw 5640   0.789   2.713   6.429  0.2815 -0.2527  0.0269
 1411SOL     ow 5641   3.399   0.393   1.020 -0.5256  0.1116  0.4470
 1411SOL     hw 5642   3.352   0.476   1.007 -1.1512  0.3377  3.3961
 1411SOL     hw 5643   3.489   0.412   0.995 -0.0003  2.6769  3.5898
 1411SOL     vw 5644   3.405   0.407   1.015 -0.5387  0.4799  1.2507
 1412SOL     ow 5645   5.200   4.236   5.771 -0.8225  0.4374 -0.1847
 1412SOL     hw 5646   5.236   4.207   5.687 -2.4122  0.9873 -1.0960
 1412SOL     hw 5647   5.258   4.307   5.798 -0.7039  0.7355 -1.1803
 1412SOL     vw 5648   5.212   4.242   5.764 -1.0166  0.5493 -0.4365
 1413SOL     ow 5649   0.085   2.943   4.910  0.0385  0.3337  0.1868
 1413SOL     hw 5650   0.035   2.863   4.925 -0.8585  1.0329  1.0928
 1413SOL     hw 5651   0.138   2.925   4.832 -0.8179 -0.8192 -0.1496
 1413SOL     vw 5652   0.086   2.930   4.902 -0.1929  0.2738  0.2620
 1414SOL     ow 5653   6.173   4.876   1.210  0.4550 -0.3779  0.4188
 1414SOL     hw 5654   6.092   4.891   1.258 -0.6516 -0.9982 -1.1702
 1414SOL     hw 5655   6.224   4.956   1.223 -0.0353 -0.3030  2.1048
 1414SOL     vw 5656   6.169   4.889   1.218  0.2444 -0.4501  0.4315
 1415SOL     ow 5657   4.188   4.283   3.626 -0.8289 -0.5895  0.7289
 1415SOL     hw 5658   4.167   4.285   3.532 -1.5031  3.7516  0.7481
 1415SOL     hw 5659   4.104   4.295   3.670 -0.5304 -2.6268  1.9919
 1415SOL     vw 5660   4.174   4.285   3.619 -0.8786 -0.2854  0.8980
 1416SOL     ow 5661   4.937   4.157   3.060  0.1627 -0.6650  0.2991
 1416SOL     hw 5662   4.984   4.159   3.144  0.7234  0.4347 -0.0261
 1416SOL     hw 5663   4.846   4.175   3.083  0.1180 -1.4358  0.7800
 1416SOL     vw 5664   4.931   4.160   3.074  0.2306 -0.6218  0.3197
 1417SOL     ow 5665   4.304   4.609   4.113  0.3380 -0.1123 -0.2191
 1417SOL     hw 5666   4.280   4.552   4.040  0.1008  1.0213 -1.0631
 1417SOL     hw 5667   4.260   4.692   4.093  0.5368  0.3139  1.0576
 1417SOL     vw 5668   4.295   4.613   4.100  0.3331  0.0935 -0.1619
 1418SOL     ow 5669   0.409   2.928   3.909  0.2174  0.3012 -0.6896
 1418SOL     hw 5670   0.400   3.023   3.904 -1.1721  0.1919 -0.7655
 1418SOL     hw 5671   0.477   2.907   3.845  1.6242  1.3620  0.4060
 1418SOL     vw 5672   0.417   2.938   3.900  0.2197  0.4268 -0.5552
 1419SOL     ow 5673   6.046   0.111   2.814  0.5560 -0.8137 -0.4836
 1419SOL     hw 5674   6.088   0.066   2.887  0.3455 -0.8533 -0.3867
 1419SOL     hw 5675   6.074   0.062   2.737 -0.1920 -1.5172 -0.3214
 1419SOL     vw 5676   6.055   0.099   2.813  0.4296 -0.9117 -0.4495
 1420SOL     ow 5677   4.175   7.186   3.061 -0.2155  0.6559  0.4718
 1420SOL     hw 5678   4.162   7.280   3.049 -0.2937  0.3883 -2.0045
 1420SOL     hw 5679   4.270   7.175   3.067 -0.0420  0.7152 -1.5640
 1420SOL     vw 5680   4.186   7.197   3.060 -0.2027  0.6282 -0.1236
 1421SOL     ow 5681   4.303   2.824   2.283 -0.1023 -0.0289 -0.0612
 1421SOL     hw 5682   4.348   2.858   2.360 -0.8508  1.1080 -0.0967
 1421SOL     hw 5683   4.348   2.742   2.262  0.2533 -0.2387  1.4446
 1421SOL     vw 5684   4.315   2.818   2.290 -0.1540  0.0935  0.1327
 1422SOL     ow 5685   3.248   2.079   4.784  0.5938  0.2005  0.3101
 1422SOL     hw 5686   3.279   2.051   4.870  1.0682  0.2208  0.1453
 1422SOL     hw 5687   3.285   2.167   4.772  0.2223  0.3524  0.2417
 1422SOL     vw 5688   3.257   2.087   4.794  0.6074  0.2232  0.2792
 1423SOL     ow 5689   0.875   2.066   2.565 -0.3950  0.0450  0.6007
 1423SOL     hw 5690   0.902   2.055   2.656 -1.5389  1.0487  1.0911
 1423SOL     hw 5691   0.948   2.030   2.514  1.4251  1.7663  1.8430
 1423SOL     vw 5692   0.888   2.059   2.570 -0.3058  0.4046  0.8293
 1424SOL     ow 5693   3.872   5.981   2.128  0.3933 -0.1423 -0.3361
 1424SOL     hw 5694   3.831   6.062   2.157  2.0019  0.6782 -0.2032
 1424SOL     hw 5695   3.800   5.918   2.121 -0.6488  0.8023  1.2486
 1424SOL     vw 5696   3.857   5.983   2.131  0.4681  0.0908 -0.1096
 1425SOL     ow 5697   1.084   5.557   2.321  0.5761  0.3705 -0.0787
 1425SOL     hw 5698   0.991   5.556   2.343  0.6388 -1.7867  0.3466
 1425SOL     hw 5699   1.087   5.591   2.232 -0.5902  0.7855  0.0272
 1425SOL     vw 5700   1.072   5.561   2.312  0.4306  0.1407 -0.0086
 1426SOL     ow 5701   4.149   6.532   6.572  0.1215 -0.4268  0.2589
 1426SOL     hw 5702   4.218   6.470   6.549 -0.4345 -0.8854 -0.1797
 1426SOL     hw 5703   4.068   6.487   6.553 -0.3096  0.1863  0.5856
 1426SOL     vw 5704   4.148   6.518   6.567 -0.0086 -0.4063  0.2441
 1427SOL     ow 5705   0.518   5.124   3.231 -0.4414 -0.0242  0.0667
 1427SOL     hw 5706   0.587   5.191   3.228 -1.3643  0.9081 -1.0570
 1427SOL     hw 5707   0.450   5.156   3.172 -2.6535 -0.0278  2.4539
 1427SOL     vw 5708   0.518   5.137   3.223 -0.8550  0.0982  0.2334
 1428SOL     ow 5709   6.379   4.277   1.042  0.6389 -0.3528 -0.7359
 1428SOL     hw 5710   6.300   4.241   1.002  0.1191  0.0312 -0.0782
 1428SOL     hw 5711   6.380   4.368   1.013 -0.4556  0.2990  1.1253
 1428SOL     vw 5712   6.368   4.284   1.033  0.4256 -0.2165 -0.4036
 1429SOL     ow 5713   1.986   2.444   1.996 -0.1309 -0.0520  0.6603
 1429SOL     hw 5714   2.005   2.355   1.968 -1.0805 -1.2157  3.3558
 1429SOL     hw 5715   1.936   2.482   1.923  2.0130 -0.9223 -1.4114
 1429SOL     vw 5716   1.982   2.437   1.982  0.0267 -0.3204  0.7427
 1430SOL     ow 5717   1.888   2.171   1.589 -0.3408  0.3649 -0.0459
 1430SOL     hw 5718   1.867   2.108   1.658  0.1820 -1.9887 -1.8982
 1430SOL     hw 5719   1.803   2.197   1.554 -0.5315 -0.2668 -0.0647
 1430SOL     vw 5720   1.874   2.166   1.594 -0.2970 -0.0287 -0.2927
 1431SOL     ow 5721   1.964   3.468   1.958 -0.1204  0.3703  0.0873
 1431SOL     hw 5722   1.990   3.508   2.041  1.7572  0.1377 -0.3375
 1431SOL     hw 5723   2.028   3.398   1.945 -0.9699 -0.2197 -1.1060
 1431SOL     vw 5724   1.976   3.464   1.967  0.0153  0.2619 -0.1262
 1432SOL     ow 5725   5.356   3.619   7.330  0.4088  0.1070 -0.0055
 1432SOL     hw 5726   5.303   3.603   7.251 -0.8912 -0.2453  0.8962
 1432SOL     hw 5727   5.384   3.711   7.321  1.3909 -0.2919 -1.4809
 1432SOL     vw 5728   5.352   3.629   7.318  0.3669  0.0080 -0.0811
 1433SOL     ow 5729   3.395   0.040   4.994 -0.4910  0.3412 -0.4217
 1433SOL     hw 5730   3.370   0.099   4.923 -0.3141  1.6351  0.5524
 1433SOL     hw 5731   3.385   0.092   5.073 -3.0059 -1.7979  0.7922
 1433SOL     vw 5732   3.391   0.054   4.995 -0.7993  0.2297 -0.1328
 1434SOL     ow 5733   0.264   4.913   4.775 -0.1149 -0.0071  0.8025
 1434SOL     hw 5734   0.321   4.857   4.721 -1.0287  0.3948 -0.6425
 1434SOL     hw 5735   0.229   4.977   4.713 -0.7676  0.8258  2.0126
 1434SOL     vw 5736   0.267   4.914   4.759 -0.3216  0.1557  0.7715
 1435SOL     ow 5737   5.987   5.017   6.801  0.2783 -0.0475 -0.7851
 1435SOL     hw 5738   5.916   4.953   6.810  0.7113 -0.5079 -0.5763
 1435SOL     hw 5739   5.944   5.097   6.772 -0.3265 -0.3182 -0.6432
 1435SOL     vw 5740   5.972   5.019   6.798  0.2558 -0.1442 -0.7389
 1436SOL     ow 5741   5.215   4.666   4.552  0.0033 -0.4846 -0.0653
 1436SOL     hw 5742   5.166   4.701   4.627 -0.5649 -2.1435  0.3749
 1436SOL     hw 5743   5.306   4.690   4.570 -0.3227  0.5023  0.3434
 1436SOL     vw 5744   5.221   4.674   4.564 -0.1147 -0.5732  0.0467
 1437SOL     ow 5745   0.847   3.107   3.684  0.3630 -0.4624 -0.4804
 1437SOL     hw 5746   0.843   3.114   3.780 -0.6208 -4.7899  0.0272
 1437SOL     hw 5747   0.758   3.082   3.659  0.8568 -0.4299 -2.4125
 1437SOL     vw 5748   0.835   3.105   3.693  0.2983 -1.0290 -0.6684
 1438SOL     ow 5749   6.136   6.020   0.615 -0.1510 -0.7227  0.3142
 1438SOL     hw 5750   6.089   5.976   0.545 -0.6415  0.0163  0.1608
 1438SOL     hw 5751   6.227   5.995   0.603 -0.2733 -0.8374 -0.4135
 1438SOL     vw 5752   6.142   6.011   0.604 -0.2317 -0.6404  0.1979
 1439SOL     ow 5753   5.086   6.176   2.532 -0.2334 -0.2019 -0.3538
 1439SOL     hw 5754   5.013   6.120   2.506 -0.3663 -0.4613  0.5375
 1439SOL     hw 5755   5.076   6.186   2.626  1.3859 -0.9920 -0.0569
 1439SOL     vw 5756   5.075   6.170   2.541 -0.0374 -0.3405 -0.1971
 1440SOL     ow 5757   4.901   0.126   3.467  0.1740  0.2573 -0.6630
 1440SOL     hw 5758   4.875   0.218   3.463  1.6119  0.8341  1.1196
 1440SOL     hw 5759   4.949   0.111   3.386  1.3758  1.6319 -0.2623
 1440SOL     vw 5760   4.904   0.136   3.456  0.5224  0.5148 -0.3749
 1441SOL     ow 5761   0.670   0.235   7.265  0.1239 -0.4297 -0.2234
 1441SOL     hw 5762   0.597   0.232   7.327  0.5138  1.1274  0.3605
 1441SOL     hw 5763   0.741   0.190   7.309 -0.6148 -2.5279 -1.0545
 1441SOL     vw 5764   0.670   0.229   7.279  0.0778 -0.5011 -0.2561
 1442SOL     ow 5765   3.881   1.107   3.091  0.9663 -0.7003 -0.7909
 1442SOL     hw 5766   3.834   1.176   3.137  2.5187 -0.2803  0.2522
 1442SOL     hw 5767   3.849   1.112   3.001  1.7440  2.0672 -0.9955
 1442SOL     vw 5768   3.871   1.116   3.085  1.2738 -0.2798 -0.6802
 1443SOL     ow 5769   1.891   3.455   2.754  0.1554 -0.0397  0.2861
 1443SOL     hw 5770   1.916   3.393   2.685 -0.5841 -0.3073  0.2503
 1443SOL     hw 5771   1.923   3.415   2.835  1.9038  0.7393  0.0316
 1443SOL     vw 5772   1.898   3.442   2.756  0.2885  0.0277  0.2478
 1444SOL     ow 5773   3.665   5.257   4.133  0.0762  0.2646  0.3869
 1444SOL     hw 5774   3.693   5.226   4.219  0.2482  1.4761  0.7774
 1444SOL     hw 5775   3.747   5.264   4.083  0.0809  0.4764  0.4256
 1444SOL     vw 5776   3.680   5.254   4.137  0.0995  0.4523  0.4435
 1445SOL     ow 5777   1.638   6.681   4.197 -0.1205 -0.1591 -0.1409
 1445SOL     hw 5778   1.592   6.743   4.253 -0.2571  0.6915 -1.1431
 1445SOL     hw 5779   1.721   6.664   4.242  0.6514  2.0538 -0.5836
 1445SOL     vw 5780   1.643   6.687   4.210 -0.0367  0.2449 -0.3314
 1446SOL     ow 5781   2.925   4.500   2.165  0.5300  0.1741  0.6581
 1446SOL     hw 5782   2.956   4.573   2.218 -0.5080  0.6090  0.6986
 1446SOL     hw 5783   2.872   4.448   2.226  1.9556 -1.1054  0.8538
 1446SOL     vw 5784   2.922   4.503   2.180  0.5811  0.0629  0.6891
 1447SOL     ow 5785   1.522   6.032   5.538 -0.3203  0.0707 -0.3372
 1447SOL     hw 5786   1.505   5.938   5.526 -4.8631  0.2033  2.5910
 1447SOL     hw 5787   1.485   6.073   5.459 -1.0982 -0.5092 -0.2959
 1447SOL     vw 5788   1.515   6.025   5.526 -1.0223  0.0117  0.0548
 1448SOL     ow 5789   6.179   4.918   7.005  0.8247 -0.2459 -0.4749
 1448SOL     hw 5790   6.117   4.931   7.077  1.6252  2.6041 -0.1677
 1448SOL     hw 5791   6.231   4.842   7.032 -0.2603 -0.5389  0.9122
 1448SOL     vw 5792   6.178   4.910   7.018  0.7870  0.0911 -0.2515
 1449SOL     ow 5793   3.689   2.474   3.146 -0.2007 -0.5956  0.4992
 1449SOL     hw 5794   3.640   2.527   3.208 -0.0250 -1.6156  1.5604
 1449SOL     hw 5795   3.640   2.391   3.142 -0.2751 -0.5011 -0.8260
 1449SOL     vw 5796   3.676   2.470   3.154 -0.1872 -0.7176  0.4644
 1450SOL     ow 5797   4.147   1.485   0.335 -0.2383  0.3212 -0.5751
 1450SOL     hw 5798   4.163   1.578   0.321 -1.2607  1.0644  2.4480
 1450SOL     hw 5799   4.234   1.446   0.344  0.1948  0.9359 -1.9298
 1450SOL     vw 5800   4.161   1.492   0.334 -0.3159  0.5004 -0.3550
 1451SOL     ow 5801   1.882   1.574   0.935  0.3734 -0.5312  0.2101
 1451SOL     hw 5802   1.797   1.535   0.912  0.6667 -1.0638  0.0110
 1451SOL     hw 5803   1.861   1.664   0.960 -0.2965 -0.7524  0.4810
 1451SOL     vw 5804   1.868   1.580   0.935  0.3237 -0.6306  0.2196
 1452SOL     ow 5805   5.531   3.771   4.753  0.1948  0.6523 -0.0441
 1452SOL     hw 5806   5.552   3.850   4.703  0.5630  1.7737  1.7923
 1452SOL     hw 5807   5.437   3.759   4.740  0.5559 -0.0861 -2.3262
 1452SOL     vw 5808   5.521   3.779   4.745  0.2909  0.7030 -0.1028
 1453SOL     ow 5809   4.669   6.363   1.983  0.6335  0.1141  0.1394
 1453SOL     hw 5810   4.606   6.346   2.054 -0.0057  0.4624 -0.3324
 1453SOL     hw 5811   4.669   6.283   1.932 -0.7913  0.7032 -0.8742
 1453SOL     vw 5812   4.661   6.350   1.986  0.3607  0.2379 -0.0564
 1454SOL     ow 5813   6.695   0.468   1.864  0.0624  0.5061  0.2663
 1454SOL     hw 5814   6.755   0.509   1.927 -0.3418  0.3968  0.7257
 1454SOL     hw 5815   6.632   0.421   1.918 -1.5836  2.1482 -0.1116
 1454SOL     vw 5816   6.695   0.467   1.879 -0.2081  0.7084  0.2770
 1455SOL     ow 5817   5.243   7.366   6.669 -0.0817  0.1226  0.3095
 1455SOL     hw 5818   5.301   7.290   6.668 -0.1977  0.0054  1.5831
 1455SOL     hw 5819   5.166   7.338   6.718  0.2909  1.3311  1.6565
 1455SOL     vw 5820   5.241   7.352   6.675 -0.0477  0.2666  0.6554
 1456SOL     ow 5821   4.046   2.677   6.113  0.0484  0.2692  0.6053
 1456SOL     hw 5822   4.112   2.675   6.044 -0.6821  0.9579 -0.1428
 1456SOL     hw 5823   3.963   2.664   6.067 -0.3352 -0.7559  1.5400
 1456SOL     vw 5824   4.044   2.675   6.098 -0.0982  0.2249  0.6299
 1457SOL     ow 5825   5.058   1.282   6.961 -0.8444  0.2055 -0.1568
 1457SOL     hw 5826   5.084   1.373   6.975  2.0881 -0.4492 -0.6385
 1457SOL     hw 5827   5.024   1.281   6.871  0.2506  0.6621 -0.6028
 1457SOL     vw 5828   5.057   1.294   6.951 -0.3130  0.1794 -0.2789
 1458SOL     ow 5829   7.462   0.373   4.985  0.3685  0.0600 -0.5186
 1458SOL     hw 5830   7.441   0.466   4.975 -0.0189 -0.0024 -0.2806
 1458SOL     hw 5831   7.521   0.370   5.060  0.0069  0.0641 -0.2291
 1458SOL     vw 5832   7.467   0.385   4.993  0.2697  0.0523 -0.4492
 1459SOL     ow 5833   0.546   6.713   0.690 -0.5266 -0.1215  0.2075
 1459SOL     hw 5834   0.514   6.624   0.706  1.2899 -1.0108 -0.7947
 1459SOL     hw 5835   0.546   6.721   0.594  1.2298  0.1790  0.1981
 1459SOL     vw 5836   0.542   6.702   0.679 -0.0552 -0.1993  0.0740
 1460SOL     ow 5837   3.590   2.678   3.362  0.1732 -0.5084 -0.2171
 1460SOL     hw 5838   3.663   2.724   3.322 -1.3472 -0.0373 -2.6956
 1460SOL     hw 5839   3.513   2.729   3.337 -1.1404 -1.6787  1.2081
 1460SOL     vw 5840   3.589   2.691   3.354 -0.2007 -0.6007 -0.3562
 1461SOL     ow 5841   1.005   5.078   0.812  1.1083 -0.2034  0.1439
 1461SOL     hw 5842   1.063   5.127   0.870  0.7023 -0.9428  1.2087
 1461SOL     hw 5843   0.921   5.075   0.859  0.7105 -0.6342 -0.5799
 1461SOL     vw 5844   1.001   5.084   0.826  1.0023 -0.3576  0.1889
 1462SOL     ow 5845   4.497   4.588   7.149  0.6130 -0.4465 -0.8264
 1462SOL     hw 5846   4.455   4.566   7.066 -0.1972 -3.1043  0.1716
 1462SOL     hw 5847   4.537   4.506   7.178 -1.3369 -0.4022  2.6135
 1462SOL     vw 5848   4.497   4.574   7.142  0.2489 -0.7913 -0.2408
 1463SOL     ow 5849   2.931   1.490   1.515 -0.5059 -0.7459  0.1304
 1463SOL     hw 5850   2.938   1.430   1.590 -1.1483 -0.3235  0.5394
 1463SOL     hw 5851   2.965   1.440   1.441 -1.8568 -1.9610  0.2867
 1463SOL     vw 5852   2.937   1.475   1.516 -0.7689 -0.8505  0.2050
 1464SOL     ow 5853   1.635   1.119   2.293  0.4079  0.2197 -0.3632
 1464SOL     hw 5854   1.726   1.104   2.317  1.0099  0.0396 -2.4847
 1464SOL     hw 5855   1.617   1.209   2.320  1.3627  0.3961 -0.2902
 1464SOL     vw 5856   1.645   1.129   2.299  0.6133  0.2192 -0.6336
 1465SOL     ow 5857   1.752   5.278   4.677  0.2515 -0.0286  0.4996
 1465SOL     hw 5858   1.811   5.344   4.714 -1.4368  0.9614  1.5613
 1465SOL     hw 5859   1.675   5.280   4.734 -0.2328 -2.3108  0.0291
 1465SOL     vw 5860   1.750   5.287   4.690 -0.0352 -0.1991  0.5777
 1466SOL     ow 5861   2.003   2.322   2.681 -0.3441  0.0242 -1.0178
 1466SOL     hw 5862   1.972   2.384   2.615  0.0941 -0.5780 -1.8182
 1466SOL     hw 5863   2.099   2.324   2.673 -0.2874 -0.0780 -0.4132
 1466SOL     vw 5864   2.012   2.330   2.671 -0.2788 -0.0689 -1.0436
 1467SOL     ow 5865   5.435   6.694   2.659  0.5006  0.1397  0.3430
 1467SOL     hw 5866   5.501   6.720   2.724 -0.4664  2.4126  0.5045
 1467SOL     hw 5867   5.470   6.726   2.576  0.6433 -0.6696  0.0905
 1467SOL     vw 5868   5.448   6.702   2.657  0.3917  0.3328  0.3310
 1468SOL     ow 5869   6.172   2.911   7.142  0.4156  0.4020  0.4932
 1468SOL     hw 5870   6.258   2.897   7.181  0.5960 -0.5292 -0.1899
 1468SOL     hw 5871   6.127   2.826   7.153  0.4871  0.0998 -1.3158
 1468SOL     vw 5872   6.177   2.898   7.149  0.4489  0.2393  0.1645
 1469SOL     ow 5873   1.032   0.719   5.606 -0.4021  0.7249 -0.1291
 1469SOL     hw 5874   0.998   0.690   5.522  0.5685 -0.2731 -0.2072
 1469SOL     hw 5875   0.994   0.806   5.620  1.0926  1.8840 -2.6248
 1469SOL     vw 5876   1.022   0.727   5.597 -0.0769  0.7461 -0.4687
 1470SOL     ow 5877   4.460   5.716   1.922 -0.6188 -1.1679 -0.3032
 1470SOL     hw 5878   4.413   5.788   1.880  1.4470 -0.5388 -1.6499
 1470SOL     hw 5879   4.512   5.677   1.852  0.8241 -1.8480  1.0903
 1470SOL     vw 5880   4.460   5.721   1.907 -0.1557 -1.1747 -0.2971
 1471SOL     ow 5881   4.159   6.655   5.698  0.3156 -0.0444 -0.2555
 1471SOL     hw 5882   4.076   6.661   5.744  0.9679 -2.1278  1.3552
 1471SOL     hw 5883   4.135   6.644   5.606 -1.0995  1.0019 -0.0490
 1471SOL     vw 5884   4.145   6.654   5.692  0.2151 -0.1810 -0.0160
 1472SOL     ow 5885   5.336   2.334   3.717 -0.5899 -0.3322 -0.0533
 1472SOL     hw 5886   5.338   2.263   3.652 -0.1664  0.5004 -0.9724
 1472SOL     hw 5887   5.423   2.333   3.756  0.6782  1.8946 -2.5644
 1472SOL     vw 5888   5.347   2.324   3.713 -0.3667  0.0714 -0.5059
 1473SOL     ow 5889   4.637   5.484   2.432  0.1064  0.1853  0.3528
 1473SOL     hw 5890   4.575   5.413   2.417  0.4224  0.3081 -1.9573
 1473SOL     hw 5891   4.723   5.441   2.434  0.3201  0.4695 -1.2971
 1473SOL     vw 5892   4.640   5.469   2.430  0.1762  0.2389 -0.1698
 1474SOL     ow 5893   6.867   6.419   6.234 -0.1208 -0.0362 -0.0247
 1474SOL     hw 5894   6.940   6.476   6.257  0.5394 -0.2856 -1.3816
 1474SOL     hw 5895   6.877   6.343   6.290  0.8358 -0.1869 -0.3871
 1474SOL     vw 5896   6.878   6.417   6.244  0.0925 -0.0889 -0.2518
 1475SOL     ow 5897   2.175   0.641   5.132 -0.1194 -0.1100 -0.3315
 1475SOL     hw 5898   2.211   0.636   5.221  0.4671 -0.5830 -0.5890
 1475SOL     hw 5899   2.152   0.733   5.121 -0.8465 -0.1729  0.5561
 1475SOL     vw 5900   2.177   0.653   5.142 -0.1379 -0.1807 -0.2482
 1476SOL     ow 5901   5.210   5.095   0.803  0.3197 -0.0784  0.2554
 1476SOL     hw 5902   5.157   5.165   0.763  0.1311 -1.1069 -1.3912
 1476SOL     hw 5903   5.180   5.091   0.894 -1.4271  0.3274 -0.2675
 1476SOL     vw 5904   5.199   5.104   0.810  0.0644 -0.1607 -0.0308
 1477SOL     ow 5905   3.787   3.129   3.474  0.0241 -0.1579 -0.4849
 1477SOL     hw 5906   3.700   3.110   3.441 -0.2243 -0.4328  0.2955
 1477SOL     hw 5907   3.836   3.048   3.463 -0.6194 -0.8814  1.5317
 1477SOL     vw 5908   3.782   3.116   3.468 -0.0936 -0.2897 -0.1159
 1478SOL     ow 5909   2.379   1.127   5.091 -0.1443  0.0388  0.0885
 1478SOL     hw 5910   2.359   1.158   5.179  0.6324  0.1018  0.2425
 1478SOL     hw 5911   2.316   1.173   5.035  1.7609  2.9560  0.1455
 1478SOL     vw 5912   2.368   1.137   5.095  0.2093  0.4320  0.1161
 1479SOL     ow 5913   4.415   2.623   2.145  0.2455 -0.4093  0.2190
 1479SOL     hw 5914   4.500   2.661   2.165  1.3129 -1.7788 -1.4648
 1479SOL     hw 5915   4.431   2.566   2.070 -2.8272  1.9007 -2.4299
 1479SOL     vw 5916   4.428   2.621   2.138 -0.0188 -0.2853 -0.3527
 1480SOL     ow 5917   5.145   1.148   7.211 -0.2540 -0.5955  0.3705
 1480SOL     hw 5918   5.157   1.220   7.273 -1.4196  0.1247 -0.2077
 1480SOL     hw 5919   5.232   1.130   7.177  0.0137  0.7892  0.2698
 1480SOL     vw 5920   5.158   1.155   7.215 -0.3726 -0.3177  0.2809
 1481SOL     ow 5921   4.400   6.871   0.064  0.0879 -0.3281  0.3654
 1481SOL     hw 5922   4.383   6.912  -0.021 -0.3034 -1.7404 -0.2564
 1481SOL     hw 5923   4.483   6.911   0.093  0.0479  0.4264 -0.5017
 1481SOL     vw 5924   4.409   6.882   0.057  0.0310 -0.4148  0.1689
 1482SOL     ow 5925   1.713   5.292   5.967 -0.1850  0.1578  0.2551
 1482SOL     hw 5926   1.644   5.259   5.911  1.3487  1.1874 -2.4307
 1482SOL     hw 5927   1.699   5.387   5.969  0.3733  0.2375  0.7919
 1482SOL     vw 5928   1.702   5.301   5.960  0.0910  0.3045 -0.0284
 1483SOL     ow 5929   7.102   5.094   5.069  0.4942  0.0793  0.0724
 1483SOL     hw 5930   7.148   5.030   5.124  0.7780 -0.7613 -1.1049
 1483SOL     hw 5931   7.164   5.115   4.999  0.1677  1.1897  0.0887
 1483SOL     vw 5932   7.116   5.089   5.067  0.4883  0.1152 -0.0808
 1484SOL     ow 5933   6.387   5.101   2.853  0.4409 -0.1097 -0.4914
 1484SOL     hw 5934   6.325   5.036   2.885  1.5204 -0.2217  1.4844
 1484SOL     hw 5935   6.471   5.055   2.848  1.2234  1.0885  0.9287
 1484SOL     vw 5936   6.390   5.087   2.856  0.6866  0.0334 -0.0434
 1485SOL     ow 5937   3.140   1.666   1.585  0.1971  0.1180 -0.4857
 1485SOL     hw 5938   3.188   1.739   1.624  0.2080 -0.4668  0.6028
 1485SOL     hw 5939   3.208   1.607   1.553  0.1899 -0.0482 -0.1895
 1485SOL     vw 5940   3.155   1.668   1.586  0.1975  0.0189 -0.3030
 1486SOL     ow 5941   7.367   3.360   2.669 -0.2034  0.2389 -0.3587
 1486SOL     hw 5942   7.416   3.432   2.708  0.0106 -0.0735 -0.0392
 1486SOL     hw 5943   7.277   3.391   2.666 -0.0804  0.5998 -0.4281
 1486SOL     vw 5944   7.362   3.374   2.674 -0.1588  0.2452 -0.3257
 1487SOL     ow 5945   0.205   0.054   6.833 -0.0865 -0.3013 -0.5184
 1487SOL     hw 5946   0.151  -0.024   6.836 -0.5077 -0.0297 -0.9287
 1487SOL     hw 5947   0.221   0.069   6.739 -0.6650  0.5475 -0.4870
 1487SOL     vw 5948   0.200   0.046   6.821 -0.2184 -0.1535 -0.5684
 1488SOL     ow 5949   5.693   4.977   3.926  0.3007 -0.0816  0.5257
 1488SOL     hw 5950   5.758   5.007   3.863  1.8338 -2.2912  0.9156
 1488SOL     hw 5951   5.699   5.039   3.999  0.5604  0.8380 -0.2572
 1488SOL     vw 5952   5.702   4.989   3.927  0.5374 -0.2515  0.4736
 1489SOL     ow 5953   5.987   0.026   6.211 -0.3375 -0.1905  0.0440
 1489SOL     hw 5954   6.015  -0.025   6.135  1.3158  0.2050  0.3510
 1489SOL     hw 5955   6.003  -0.032   6.286 -0.3843  0.0313  0.2268
 1489SOL     vw 5956   5.992   0.011   6.211 -0.1256 -0.1091  0.1087
 1490SOL     ow 5957   6.625   3.743   5.026 -0.0226 -0.0381  0.2010
 1490SOL     hw 5958   6.644   3.837   5.023 -0.6348  0.0819 -0.2040
 1490SOL     hw 5959   6.555   3.735   5.091 -0.1123 -0.1859  0.0877
 1490SOL     vw 5960   6.618   3.754   5.034 -0.1152 -0.0416  0.1328
 1491SOL     ow 5961   1.392   5.153   4.418  0.0973  0.3517  0.5180
 1491SOL     hw 5962   1.402   5.115   4.505  0.0327  0.7132  0.6826
 1491SOL     hw 5963   1.341   5.233   4.432  1.2457  1.1302  0.3282
 1491SOL     vw 5964   1.386   5.158   4.431  0.2402  0.5021  0.5145
 1492SOL     ow 5965   1.889   3.697   1.720  0.0546  0.5831 -0.1926
 1492SOL     hw 5966   1.954   3.740   1.665  0.3447 -1.3708 -1.4877
 1492SOL     hw 5967   1.817   3.760   1.727  1.4596  2.2314  0.1002
 1492SOL     vw 5968   1.888   3.711   1.714  0.2782  0.5428 -0.3248
 1493SOL     ow 5969   0.562   1.295   6.858  0.0669  0.2667  0.2637
 1493SOL     hw 5970   0.529   1.374   6.815  0.8024 -0.7767 -2.4299
 1493SOL     hw 5971   0.652   1.287   6.826  1.2819  0.2924  3.4081
 1493SOL     vw 5972   0.570   1.305   6.848  0.3243  0.1324  0.3231
 1494SOL     ow 5973   6.164   0.996   5.246  0.0880 -0.6460  0.3118
 1494SOL     hw 5974   6.249   1.009   5.288  1.6827 -2.4922 -2.0670
 1494SOL     hw 5975   6.162   1.061   5.175 -0.3041 -0.8618  0.1208
 1494SOL     vw 5976   6.175   1.007   5.242  0.2465 -0.9181 -0.0274
 1495SOL     ow 5977   4.448   3.543   6.735  0.3069 -0.4470  0.8643
 1495SOL     hw 5978   4.409   3.457   6.722  1.6183 -0.8875 -0.5494
 1495SOL     hw 5979   4.513   3.550   6.665  0.1420  1.7552  0.8665
 1495SOL     vw 5980   4.452   3.533   6.724  0.4582 -0.2146  0.6781
 1496SOL     ow 5981   6.615   6.394   6.978  0.7604 -0.2319 -0.0735
 1496SOL     hw 5982   6.561   6.462   6.939 -1.1119 -1.7939 -0.3622
 1496SOL     hw 5983   6.621   6.418   7.071 -0.0288  0.2214 -0.1343
 1496SOL     vw 5984   6.609   6.406   6.986  0.4094 -0.3781 -0.1197
 1497SOL     ow 5985   2.859   6.778   5.516 -0.3544 -0.6076 -0.7858
 1497SOL     hw 5986   2.944   6.816   5.494  1.0277 -1.7019  2.0983
 1497SOL     hw 5987   2.812   6.848   5.561  0.0254 -0.6735 -0.2691
 1497SOL     vw 5988   2.864   6.792   5.519 -0.1221 -0.7606 -0.3371
 1498SOL     ow 5989   4.825   0.847   0.981 -0.1930 -0.1259  0.0577
 1498SOL     hw 5990   4.759   0.906   1.016 -1.1098  0.0067 -1.7980
 1498SOL     hw 5991   4.823   0.771   1.039 -0.2564  0.8782  1.4171
 1498SOL     vw 5992   4.816   0.845   0.994 -0.3223  0.0241 -0.0077
 1499SOL     ow 5993   7.244   4.198   4.120 -0.1962  0.9822 -0.0595
 1499SOL     hw 5994   7.255   4.104   4.132  0.8845  1.3077  2.1318
 1499SOL     hw 5995   7.150   4.211   4.109 -0.6169 -0.2110  1.7038
 1499SOL     vw 5996   7.233   4.187   4.120 -0.1092  0.8678  0.4625
 1500SOL     ow 5997   6.348   6.942   0.112 -0.4298  0.3523 -0.6231
 1500SOL     hw 5998   6.348   6.895   0.195  2.2344 -0.1675 -0.8210
 1500SOL     hw 5999   6.333   6.874   0.046  0.2790  0.2595 -0.7044
 1500SOL     vw 6000   6.346   6.927   0.114  0.0153  0.2713 -0.6599
 1501SOL     ow 6001   1.499   7.100   6.149  0.5898 -0.2487  0.5067
 1501SOL     hw 6002   1.429   7.155   6.114 -1.3590 -1.1543  2.6865
 1501SOL     hw 6003   1.453   7.036   6.205  3.1039 -1.4058  1.3747
 1501SOL     vw 6004   1.483   7.099   6.152  0.6644 -0.5207  0.9086
 1502SOL     ow 6005   1.251   6.632   2.265 -0.3514  0.0659  0.3527
 1502SOL     hw 6006   1.244   6.540   2.294  1.7062 -0.1177  0.4438
 1502SOL     hw 6007   1.309   6.629   2.189 -1.1616  1.1910 -0.3352
 1502SOL     vw 6008   1.258   6.619   2.259 -0.1867  0.1900  0.2738
 1503SOL     ow 6009   4.662   1.082   4.086 -0.3395  0.0968 -0.3838
 1503SOL     hw 6010   4.724   1.155   4.093 -0.8019  0.3050  2.6714
 1503SOL     hw 6011   4.648   1.054   4.176 -1.5654 -2.6341 -1.3387
 1503SOL     vw 6012   4.669   1.088   4.099 -0.5624 -0.2361 -0.1068
 1504SOL     ow 6013   6.367   2.705   5.818  0.1322 -0.9847 -0.8314
 1504SOL     hw 6014   6.394   2.731   5.730 -0.8051  0.3299 -0.7616
 1504SOL     hw 6015   6.273   2.686   5.810 -0.1780  0.0364  0.0276
 1504SOL     vw 6016   6.358   2.706   5.806 -0.0322 -0.6766 -0.7088
 1505SOL     ow 6017   1.589   7.487   4.529  0.2161  0.3789 -0.2221
 1505SOL     hw 6018   1.606   7.410   4.583  2.4702  0.5680 -0.5884
 1505SOL     hw 6019   1.522   7.457   4.467 -0.7949 -0.4848  1.2128
 1505SOL     vw 6020   1.582   7.473   4.528  0.3800  0.2897 -0.0811
 1506SOL     ow 6021   2.952   5.770   1.524 -0.1831 -0.3068  0.4063
 1506SOL     hw 6022   2.876   5.814   1.484 -0.2197 -0.5613  0.1962
 1506SOL     hw 6023   3.006   5.842   1.557 -1.4490 -0.1570  2.3073
 1506SOL     vw 6024   2.949   5.785   1.523 -0.3549 -0.3207  0.6293
 1507SOL     ow 6025   4.515   5.164   6.738  0.0558  0.0842 -0.2057
 1507SOL     hw 6026   4.424   5.138   6.753 -0.0693  0.5961 -0.0503
 1507SOL     hw 6027   4.544   5.198   6.823  0.9231 -1.5987  0.2209
 1507SOL     vw 6028   4.507   5.165   6.751  0.1538 -0.0703 -0.1287
 1508SOL     ow 6029   2.653   5.512   4.395  0.1086  0.1802  0.0682
 1508SOL     hw 6030   2.578   5.536   4.341 -1.1604 -0.0402  1.6559
 1508SOL     hw 6031   2.689   5.595   4.426 -0.0297  0.2581  0.0184
 1508SOL     vw 6032   2.648   5.526   4.392 -0.0772  0.1614  0.2711
 1509SOL     ow 6033   2.852   4.151   2.573  0.0558 -0.0352 -0.3219
 1509SOL     hw 6034   2.940   4.145   2.535 -0.0810 -0.1274 -0.6239
 1509SOL     hw 6035   2.863   4.123   2.664  0.6539  1.5496  0.1208
 1509SOL     vw 6036   2.865   4.147   2.580  0.1167  0.1619 -0.3033
 1510SOL     ow 6037   2.806   5.357   1.169  0.3552 -0.1008 -0.5440
 1510SOL     hw 6038   2.850   5.413   1.105  1.9644 -0.3168  0.3193
 1510SOL     hw 6039   2.804   5.271   1.128  2.7584 -0.5940  0.2283
 1510SOL     vw 6040   2.812   5.353   1.155  0.8847 -0.1943 -0.3282
 1511SOL     ow 6041   0.406   6.699   1.863  0.1451  0.2049 -0.0680
 1511SOL     hw 6042   0.376   6.735   1.946  2.2458  2.4514 -0.1842
 1511SOL     hw 6043   0.369   6.757   1.797 -2.2588 -2.0752 -0.9268
 1511SOL     vw 6044   0.397   6.711   1.865  0.1051  0.2005 -0.1966
 1512SOL     ow 6045   0.952   0.982   5.725 -0.4135 -1.1347 -0.6847
 1512SOL     hw 6046   0.962   0.909   5.786 -0.1726  1.1307  2.2360
 1512SOL     hw 6047   0.867   1.020   5.748  0.1935  0.4630 -0.9304
 1512SOL     vw 6048   0.942   0.977   5.736 -0.3016 -0.6250 -0.3321
 1513SOL     ow 6049   5.578   3.653   4.497  0.6535 -0.4756  0.0133
 1513SOL     hw 6050   5.555   3.675   4.588  0.0280  0.2703 -0.3167
 1513SOL     hw 6051   5.510   3.591   4.470  0.5020 -0.2479 -0.1309
 1513SOL     vw 6052   5.566   3.648   4.506  0.5510 -0.3471 -0.0494
 1514SOL     ow 6053   5.624   6.427   2.293  0.1712  0.1657 -0.8161
 1514SOL     hw 6054   5.695   6.489   2.310  0.9406 -1.0096  0.3833
 1514SOL     hw 6055   5.663   6.360   2.237  0.3450 -1.0402  0.6965
 1514SOL     vw 6056   5.639   6.427   2.288  0.2952 -0.1483 -0.4584
 1515SOL     ow 6057   2.460   3.673   1.569 -0.3137 -0.5553  0.5367
 1515SOL     hw 6058   2.413   3.601   1.612 -0.3922 -1.2954 -0.7296
 1515SOL     hw 6059   2.518   3.629   1.507 -0.9774  0.4979 -0.8681
 1515SOL     vw 6060   2.462   3.658   1.567 -0.4115 -0.5140  0.1844
 1516SOL     ow 6061   4.772   2.918   7.292  0.7548  0.1432  0.4899
 1516SOL     hw 6062   4.768   2.823   7.278 -0.0458  0.2065  0.2464
 1516SOL     hw 6063   4.830   2.928   7.368  0.7824 -0.5429  0.5717
 1516SOL     vw 6064   4.779   2.907   7.300  0.6526  0.0610  0.4690
 1517SOL     ow 6065   7.163   5.487   1.320 -0.9112  0.0550  0.0709
 1517SOL     hw 6066   7.241   5.462   1.272 -1.8389  0.6058 -1.8291
 1517SOL     hw 6067   7.150   5.417   1.384  0.4577 -0.6266 -0.3698
 1517SOL     vw 6068   7.171   5.474   1.322 -0.8531  0.0377 -0.2379
 1518SOL     ow 6069   2.332   7.495   4.454  0.3908 -0.6193 -0.0279
 1518SOL     hw 6070   2.252   7.541   4.482 -0.2484 -2.0650  0.6194
 1518SOL     hw 6071   2.399   7.563   4.452 -0.8896  0.6901 -0.8160
 1518SOL     vw 6072   2.330   7.510   4.457  0.1376 -0.6373 -0.0465
 1519SOL     ow 6073   5.626   1.973   4.508 -0.2226  0.0355  0.4186
 1519SOL     hw 6074   5.719   1.993   4.520 -0.0599 -0.0856 -0.5442
 1519SOL     hw 6075   5.620   1.879   4.518 -0.7933  0.3193  3.7233
 1519SOL     vw 6076   5.638   1.964   4.511 -0.2766  0.0569  0.7279
 1520SOL     ow 6077   1.729   2.534   0.946  0.1527 -0.4514  0.4407
 1520SOL     hw 6078   1.658   2.489   0.993 -0.5387  1.7541  1.6899
 1520SOL     hw 6079   1.769   2.467   0.891 -2.4425 -1.9467  0.2403
 1520SOL     vw 6080   1.725   2.519   0.945 -0.2809 -0.3577  0.5791
 1521SOL     ow 6081   5.948   4.806   0.103 -0.6907 -0.1320  0.3505
 1521SOL     hw 6082   5.929   4.846   0.188  0.5044  0.7854  0.2033
 1521SOL     hw 6083   5.862   4.792   0.064 -1.1893  1.3075  0.8702
 1521SOL     vw 6084   5.934   4.809   0.109 -0.5989  0.1791  0.3996
 1522SOL     ow 6085   6.934   6.245   4.342 -0.3248  0.2204  0.5069
 1522SOL     hw 6086   6.987   6.311   4.387 -0.8175 -0.3306  1.9716
 1522SOL     hw 6087   6.856   6.292   4.312  0.7570  0.9445 -1.2922
 1522SOL     vw 6088   6.931   6.260   4.344 -0.2475  0.2432  0.4630
 1523SOL     ow 6089   4.918   4.662   2.112 -0.7583 -0.3828  0.1178
 1523SOL     hw 6090   4.956   4.749   2.100  0.6810 -0.8739  0.9623
 1523SOL     hw 6091   4.924   4.621   2.025 -1.1062  0.2082 -0.1926
 1523SOL     vw 6092   4.924   4.668   2.099 -0.6142 -0.3695  0.1882
 1524SOL     ow 6093   7.108   5.077   0.760 -0.2204 -0.1042  0.2085
 1524SOL     hw 6094   7.133   5.111   0.846 -1.5310  0.2747  0.4621
 1524SOL     hw 6095   7.020   5.041   0.773 -0.0259 -0.9678 -0.7436
 1524SOL     vw 6096   7.099   5.077   0.773 -0.3679 -0.1681  0.1164
 1525SOL     ow 6097   3.062   7.229   4.947  0.0268  0.5215 -0.0049
 1525SOL     hw 6098   3.049   7.320   4.918  2.1074  0.8143 -0.1543
 1525SOL     hw 6099   2.975   7.201   4.976 -1.4613  1.3351 -3.2566
 1525SOL     vw 6100   3.049   7.238   4.947  0.1049  0.6673 -0.4539
 1526SOL     ow 6101   4.101   5.170   1.985  0.0804  0.3693 -0.3077
 1526SOL     hw 6102   4.157   5.164   2.062 -1.0972 -0.5985  0.5152
 1526SOL     hw 6103   4.060   5.083   1.979 -0.5956  0.7508 -1.4364
 1526SOL     vw 6104   4.103   5.157   1.994 -0.1643  0.2921 -0.3481
 1527SOL     ow 6105   4.453   0.563   0.877  0.3655  0.4158  0.1023
 1527SOL     hw 6106   4.404   0.498   0.926 -0.4842 -1.4332 -2.9510
 1527SOL     hw 6107   4.387   0.623   0.844  0.3132 -0.7937 -2.1615
 1527SOL     vw 6108   4.438   0.563   0.879  0.2465  0.0123 -0.5992
 1528SOL     ow 6109   1.884   4.539   6.608  0.4688  1.0200 -0.1355
 1528SOL     hw 6110   1.906   4.485   6.683  0.4426 -0.2683 -1.0264
 1528SOL     hw 6111   1.955   4.603   6.602  1.2387  0.2085  0.1244
 1528SOL     vw 6112   1.896   4.541   6.617  0.5670  0.7429 -0.2189
 1529SOL     ow 6113   0.550   3.870   5.918  0.1188 -0.5398  0.0276
 1529SOL     hw 6114   0.567   3.896   5.827  0.6639 -0.6033  0.1071
 1529SOL     hw 6115   0.517   3.950   5.960 -0.3626 -0.5715 -0.2812
 1529SOL     vw 6116   0.548   3.884   5.911  0.1272 -0.5525 -0.0029
 1530SOL     ow 6117   0.295   7.395   0.326  0.4988 -0.0969  0.1575
 1530SOL     hw 6118   0.369   7.419   0.382  1.4251  1.6383 -1.7271
 1530SOL     hw 6119   0.327   7.406   0.237 -2.6148  2.8416 -0.7750
 1530SOL     vw 6120   0.309   7.399   0.322  0.2102  0.5198 -0.2141
 1531SOL     ow 6121   0.223   0.409   4.515  0.7223 -0.5259  0.0665
 1531SOL     hw 6122   0.284   0.389   4.586  0.2638  0.2185  0.6811
 1531SOL     hw 6123   0.275   0.459   4.452  0.6721  0.3671  0.7318
 1531SOL     vw 6124   0.238   0.413   4.516  0.6552 -0.3099  0.2353
 1532SOL     ow 6125   6.987   0.552   1.226 -0.1578  0.6146  0.1283
 1532SOL     hw 6126   6.894   0.546   1.249  0.0578 -2.3787  0.5362
 1532SOL     hw 6127   6.999   0.489   1.156  1.4415  1.6003 -0.5470
 1532SOL     vw 6128   6.976   0.543   1.220  0.0815  0.3497  0.0930
 1533SOL     ow 6129   5.315   4.007   0.064 -0.0183  0.3575 -0.4323
 1533SOL     hw 6130   5.286   3.932   0.117 -2.6888 -0.0095 -2.1606
 1533SOL     hw 6131   5.354   3.967  -0.014 -2.1837  0.6016 -1.7442
 1533SOL     vw 6132   5.316   3.992   0.061 -0.6564  0.3412 -0.8335
 1534SOL     ow 6133   5.214   3.073   3.400 -0.3332  0.1768 -0.4045
 1534SOL     hw 6134   5.137   3.060   3.344 -1.8476  0.9826  1.3684
 1534SOL     hw 6135   5.288   3.042   3.348 -1.6946  0.5773 -2.6739
 1534SOL     vw 6136   5.214   3.067   3.386 -0.7129  0.3361 -0.4700
 1535SOL     ow 6137   6.807   4.400   6.401 -0.5276  0.1964 -0.4926
 1535SOL     hw 6138   6.817   4.485   6.359 -0.1752  0.2806 -0.2372
 1535SOL     hw 6139   6.794   4.339   6.328 -1.5212  0.5667 -0.6356
 1535SOL     vw 6140   6.806   4.403   6.386 -0.6123  0.2561 -0.4778
 1536SOL     ow 6141   3.083   6.264   0.046 -0.2497  0.0043 -0.1177
 1536SOL     hw 6142   3.118   6.308  -0.031 -0.6303 -1.2338 -1.0309
 1536SOL     hw 6143   3.132   6.182   0.051 -0.7985 -0.2995  0.4792
 1536SOL     vw 6144   3.094   6.259   0.037 -0.3723 -0.1991 -0.1594
 1537SOL     ow 6145   0.145   4.275   2.997  0.5914  0.6244 -0.2328
 1537SOL     hw 6146   0.167   4.349   3.054 -0.3701 -0.2008  1.2795
 1537SOL     hw 6147   0.143   4.313   2.909  2.3175  1.8998  0.2149
 1537SOL     vw 6148   0.147   4.290   2.993  0.6923  0.6838  0.0257
 1538SOL     ow 6149   7.457   6.950   5.787  0.1304  0.1551 -0.2270
 1538SOL     hw 6150   7.532   6.995   5.748  0.9080  0.3021  1.3496
 1538SOL     hw 6151   7.487   6.860   5.799  0.9363  0.6905  2.4195
 1538SOL     vw 6152   7.471   6.944   5.783  0.3393  0.2449  0.3300
 1539SOL     ow 6153   5.128   3.619   2.695  0.7734 -0.5993 -1.1215
 1539SOL     hw 6154   5.102   3.702   2.655  0.4468  0.2055  0.6251
 1539SOL     hw 6155   5.106   3.552   2.630 -1.1518  0.4730 -1.6628
 1539SOL     vw 6156   5.122   3.621   2.681  0.4764 -0.3515 -0.9625
 1540SOL     ow 6157   1.764   2.102   0.766  0.0341 -0.4217 -0.0684
 1540SOL     hw 6158   1.807   2.054   0.837 -0.5775 -1.2793 -0.2641
 1540SOL     hw 6159   1.740   2.035   0.703 -2.1559 -0.0767  0.3028
 1540SOL     vw 6160   1.767   2.087   0.767 -0.3355 -0.4892 -0.0453
 1541SOL     ow 6161   4.655   6.594   4.155 -0.5558  0.2287  0.6441
 1541SOL     hw 6162   4.735   6.548   4.182 -0.6989 -0.8582 -0.6679
 1541SOL     hw 6163   4.679   6.637   4.072 -1.0144  0.8570  0.8255
 1541SOL     vw 6164   4.669   6.594   4.148 -0.6351  0.1686  0.4950
 1542SOL     ow 6165   6.949   5.629   1.060  0.8114  0.4137  0.0752
 1542SOL     hw 6166   6.881   5.661   1.001  0.2026  2.2778  1.6755
 1542SOL     hw 6167   7.022   5.690   1.047  0.9383  0.3990  0.6762
 1542SOL     vw 6168   6.950   5.642   1.051  0.7477  0.6576  0.3656
 1543SOL     ow 6169   1.764   5.361   0.680 -0.0618  0.1097  0.2165
 1543SOL     hw 6170   1.740   5.449   0.649  0.4509 -0.1046 -0.8348
 1543SOL     hw 6171   1.859   5.362   0.686  0.0055 -0.5926 -0.5215
 1543SOL     vw 6172   1.773   5.373   0.676  0.0147 -0.0112 -0.0196
 1544SOL     ow 6173   6.074   0.429   6.497 -0.4604 -0.5932  0.6636
 1544SOL     hw 6174   6.025   0.498   6.452 -3.1414 -1.5236  1.9773
 1544SOL     hw 6175   6.109   0.375   6.427 -0.1335  0.8537 -0.3436
 1544SOL     vw 6176   6.072   0.431   6.482 -0.7710 -0.5250  0.7041
 1545SOL     ow 6177   4.147   5.258   7.302 -0.2120  0.1498 -0.0911
 1545SOL     hw 6178   4.091   5.248   7.380  0.5038  0.4405  0.4728
 1545SOL     hw 6179   4.234   5.276   7.338  1.5253 -5.3343 -0.6508
 1545SOL     vw 6180   4.151   5.259   7.317  0.1116 -0.5352 -0.0904
 1546SOL     ow 6181   3.595   5.349   6.499 -0.3088  0.2183 -0.1187
 1546SOL     hw 6182   3.629   5.434   6.471 -0.0894  0.2984  0.3938
 1546SOL     hw 6183   3.542   5.319   6.424  1.1495 -0.0668 -1.0713
 1546SOL     vw 6184   3.592   5.356   6.485 -0.0875  0.1912 -0.1769
 1547SOL     ow 6185   6.486   5.292   6.738  0.9458 -0.2748  0.3827
 1547SOL     hw 6186   6.553   5.230   6.711  0.9105  0.0473 -0.4520
 1547SOL     hw 6187   6.529   5.348   6.803  1.0777 -0.9455  0.8836
 1547SOL     vw 6188   6.500   5.291   6.743  0.9584 -0.3209  0.3388
 1548SOL     ow 6189   0.871   3.987   2.687  0.2868  0.1431  0.4269
 1548SOL     hw 6190   0.862   4.066   2.634 -0.4091 -0.3635 -0.2368
 1548SOL     hw 6191   0.957   3.953   2.666 -0.5922 -0.9524 -1.7059
 1548SOL     vw 6192   0.881   3.993   2.678  0.0789 -0.0683  0.0579
 1549SOL     ow 6193   0.047   4.134   4.380  0.3514  0.2577 -0.3823
 1549SOL     hw 6194   0.078   4.145   4.470 -0.2600  0.1166 -0.1526
 1549SOL     hw 6195  -0.019   4.064   4.386  3.2624 -2.8874 -1.5815
 1549SOL     vw 6196   0.042   4.126   4.393  0.6548 -0.1760 -0.5102
 1550SOL     ow 6197   4.433   1.202   5.715  0.3329  0.1310 -0.0520
 1550SOL     hw 6198   4.495   1.234   5.780 -1.1328  1.7728  0.6142
 1550SOL     hw 6199   4.436   1.268   5.645 -2.2159  1.5375  1.0209
 1550SOL     vw 6200   4.442   1.215   5.714 -0.1969  0.5333  0.1776
 1551SOL     ow 6201   4.790   4.941   1.881  0.5607  0.4450 -0.3909
 1551SOL     hw 6202   4.738   5.000   1.936  1.2651  0.9013 -0.2101
 1551SOL     hw 6203   4.878   4.946   1.916  0.6523 -0.6733 -0.4155
 1551SOL     vw 6204   4.795   4.949   1.893  0.6659  0.3579 -0.3704
 1552SOL     ow 6205   0.631   5.576   0.674  0.1312 -0.4973  0.7303
 1552SOL     hw 6206   0.654   5.518   0.601  0.6960 -0.1840  0.6579
 1552SOL     hw 6207   0.544   5.546   0.701  0.8218 -2.0366  1.3522
 1552SOL     vw 6208   0.623   5.564   0.668  0.2968 -0.6590  0.8028
 1553SOL     ow 6209   2.421   4.138   0.119 -0.3986 -0.7502 -0.0824
 1553SOL     hw 6210   2.376   4.146   0.203 -1.9135 -0.5551 -0.8825
 1553SOL     hw 6211   2.488   4.207   0.121  0.0946 -1.2324  1.2408
 1553SOL     vw 6212   2.424   4.148   0.131 -0.5333 -0.7882 -0.0134
 1554SOL     ow 6213   5.732   0.578   2.726 -0.1385 -0.4884 -0.2015
 1554SOL     hw 6214   5.750   0.561   2.633  0.4431  0.4204 -0.2634
 1554SOL     hw 6215   5.654   0.526   2.745  0.9847 -2.4653 -0.6201
 1554SOL     vw 6216   5.724   0.569   2.716  0.0865 -0.6293 -0.2649
 1555SOL     ow 6217   1.887   3.479   5.845  0.1639 -0.2358 -0.6682
 1555SOL     hw 6218   1.927   3.557   5.807  0.4266  0.3798  0.7933
 1555SOL     hw 6219   1.857   3.508   5.932  0.6705 -1.8657  0.0801
 1555SOL     vw 6220   1.888   3.493   5.852  0.2654 -0.3697 -0.3767
 1556SOL     ow 6221   7.011   7.223   2.247 -0.0747 -0.2050  0.1258
 1556SOL     hw 6222   7.035   7.308   2.284  0.9550 -0.8764  1.0992
 1556SOL     hw 6223   7.068   7.213   2.171 -0.0109 -0.1416  0.1653
 1556SOL     vw 6224   7.022   7.233   2.242  0.0696 -0.2854  0.2595
 1557SOL     ow 6225   2.947   2.862   3.098  0.6113 -0.0514 -0.2297
 1557SOL     hw 6226   2.953   2.820   3.184 -0.2977  0.2015 -0.0417
 1557SOL     hw 6227   2.995   2.944   3.108  1.0629 -0.3166 -0.1576
 1557SOL     vw 6228   2.954   2.867   3.110  0.5510 -0.0529 -0.1954
 1558SOL     ow 6229   3.640   3.427   5.774 -0.6536  0.1847  0.3551
 1558SOL     hw 6230   3.556   3.472   5.785  0.1092  1.7206  0.0014
 1558SOL     hw 6231   3.617   3.334   5.776 -2.3043  0.5748  0.7350
 1558SOL     vw 6232   3.626   3.420   5.775 -0.7707  0.4387  0.3586
 1559SOL     ow 6233   6.088   6.556   7.475  0.1737  0.6436 -0.3872
 1559SOL     hw 6234   6.180   6.559   7.449 -0.1112 -0.1782 -1.5482
 1559SOL     hw 6235   6.040   6.579   7.395 -0.6561  0.5271  0.0684
 1559SOL     vw 6236   6.094   6.560   7.461  0.0267  0.5198 -0.4803
 1560SOL     ow 6237   4.566   4.224   3.637  0.4659  0.3775  0.5885
 1560SOL     hw 6238   4.479   4.196   3.663  0.6263  1.2816  2.2207
 1560SOL     hw 6239   4.589   4.166   3.563 -1.3664 -0.0538  0.3156
 1560SOL     vw 6240   4.558   4.212   3.630  0.2453  0.4399  0.7679
 1561SOL     ow 6241   3.234   6.032   6.708  0.6345 -0.0570  0.4382
 1561SOL     hw 6242   3.247   6.114   6.756  0.2580  1.3711 -1.7906
 1561SOL     hw 6243   3.140   6.029   6.691  0.9680  0.4866 -1.8153
 1561SOL     vw 6244   3.224   6.042   6.712  0.6288  0.2031 -0.1531
 1562SOL     ow 6245   3.851   6.496   6.583  0.7199  0.4140  0.6211
 1562SOL     hw 6246   3.804   6.419   6.553  0.8545  1.0093 -1.2023
 1562SOL     hw 6247   3.843   6.494   6.679  3.0104 -3.3383  0.9159
 1562SOL     vw 6248   3.844   6.486   6.592  1.0397 -0.0026  0.4194
 1563SOL     ow 6249   6.569   5.226   0.924 -0.2801  0.3166 -0.1316
 1563SOL     hw 6250   6.546   5.319   0.922  0.9857  0.6487 -2.1591
 1563SOL     hw 6251   6.639   5.220   0.990 -1.3952  0.4842  1.1120
 1563SOL     vw 6252   6.575   5.238   0.933 -0.2601  0.3822 -0.2351
 1564SOL     ow 6253   0.248   4.233   4.109  0.0523  0.7816  0.3627
 1564SOL     hw 6254   0.212   4.320   4.090 -1.3378 -0.0634 -1.0617
 1564SOL     hw 6255   0.299   4.210   4.032 -0.2796 -0.0121  0.3691
 1564SOL     vw 6256   0.250   4.242   4.096 -0.1749  0.5653  0.1755
 1565SOL     ow 6257   2.762   7.047   0.413  0.1630  0.6661 -0.2069
 1565SOL     hw 6258   2.769   7.136   0.379  2.0696  0.0902 -1.4526
 1565SOL     hw 6259   2.784   7.055   0.505 -2.3127  1.8237  0.3884
 1565SOL     vw 6260   2.766   7.060   0.420  0.0880  0.7427 -0.2927
 1566SOL     ow 6261   3.707   2.746   2.949  0.2428 -0.0969  0.2658
 1566SOL     hw 6262   3.653   2.691   2.893 -0.9095  0.2927  0.9609
 1566SOL     hw 6263   3.762   2.685   2.998  0.6258 -0.4815 -0.6134
 1566SOL     vw 6264   3.707   2.731   2.948  0.1413 -0.0963  0.2414
 1567SOL     ow 6265   2.169   0.255   5.263 -0.3889 -0.5892 -0.0184
 1567SOL     hw 6266   2.181   0.275   5.356 -1.2905  0.5473 -0.1180
 1567SOL     hw 6267   2.091   0.201   5.261  0.4062 -1.7680 -0.0133
 1567SOL     vw 6268   2.160   0.251   5.275 -0.4030 -0.5948 -0.0308
 1568SOL     ow 6269   4.027   1.863   4.501 -0.4597  0.3683  0.3305
 1568SOL     hw 6270   4.086   1.899   4.435 -0.7938 -0.9396 -0.7262
 1568SOL     hw 6271   3.966   1.934   4.520  0.2201  1.0712 -0.0647
 1568SOL     vw 6272   4.027   1.877   4.495 -0.4141  0.2885  0.1390
 1569SOL     ow 6273   4.111   1.548   5.971 -0.8037 -0.7063 -0.0720
 1569SOL     hw 6274   4.129   1.637   6.003 -0.0901 -0.7785 -0.2543
 1569SOL     hw 6275   4.017   1.547   5.956 -0.4905  0.8954 -2.6303
 1569SOL     vw 6276   4.101   1.560   5.974 -0.6680 -0.5046 -0.4332
 1570SOL     ow 6277   3.557   1.220   5.889  0.0469 -0.5015  0.5282
 1570SOL     hw 6278   3.570   1.126   5.902  1.3431 -0.5180 -0.6608
 1570SOL     hw 6279   3.633   1.261   5.930  0.4844 -0.1240 -0.6051
 1570SOL     vw 6280   3.569   1.213   5.896  0.2755 -0.4538  0.2217
 1571SOL     ow 6281   3.372   0.789   1.447  0.2007 -0.6678 -0.2028
 1571SOL     hw 6282   3.326   0.730   1.507 -1.0201 -1.6099 -1.9730
 1571SOL     hw 6283   3.441   0.735   1.409  1.2952  0.0692  0.6879
 1571SOL     vw 6284   3.375   0.774   1.450  0.1842 -0.6948 -0.3189
 1572SOL     ow 6285   0.293   3.768   0.587  0.1540  0.0993  0.1127
 1572SOL     hw 6286   0.275   3.674   0.598 -0.1841  0.2291  0.7368
 1572SOL     hw 6287   0.250   3.809   0.662  1.5111  0.6186  0.6251
 1572SOL     vw 6288   0.285   3.761   0.598  0.2884  0.1850  0.2626
 1573SOL     ow 6289   0.213   0.240   7.312  0.5381 -0.1528 -0.2901
 1573SOL     hw 6290   0.139   0.228   7.371  0.7461 -1.8710 -0.3310
 1573SOL     hw 6291   0.290   0.216   7.365  0.8167 -0.7321 -0.9411
 1573SOL     vw 6292   0.213   0.235   7.327  0.6023 -0.4560 -0.3812
 1574SOL     ow 6293   5.555   0.401   2.865  0.5418 -0.1058  0.0580
 1574SOL     hw 6294   5.556   0.395   2.961  0.0327 -1.6336 -0.0064
 1574SOL     hw 6295   5.463   0.418   2.843  0.7281  0.6724 -0.1584
 1574SOL     vw 6296   5.543   0.403   2.875  0.4990 -0.2047  0.0210
 1575SOL     ow 6297   1.967   4.178   6.573  0.0863 -0.0960  0.4202
 1575SOL     hw 6298   2.034   4.188   6.505  0.2096 -1.0404  0.3879
 1575SOL     hw 6299   1.996   4.235   6.644  0.1395  0.6326 -0.1751
 1575SOL     vw 6300   1.980   4.187   6.573  0.1096 -0.1242  0.3371
 1576SOL     ow 6301   1.113   3.877   5.165  0.2113 -0.2705 -0.6439
 1576SOL     hw 6302   1.155   3.858   5.082 -0.2376 -1.6983 -0.5732
 1576SOL     hw 6303   1.054   3.803   5.180 -0.2531  0.3134  0.5912
 1576SOL     vw 6304   1.111   3.865   5.156  0.0908 -0.3818 -0.4716
 1577SOL     ow 6305   7.038   5.262   4.645  0.1504  0.3099 -0.1602
 1577SOL     hw 6306   7.036   5.308   4.729 -1.5454 -0.0180  0.0242
 1577SOL     hw 6307   6.982   5.315   4.588 -0.4473 -0.5973 -0.4407
 1577SOL     vw 6308   7.030   5.275   4.648 -0.1519  0.1471 -0.1726
 1578SOL     ow 6309   3.446   4.261   6.959 -0.5703 -0.7946 -0.7337
 1578SOL     hw 6310   3.404   4.184   6.921 -0.5910 -0.0069 -2.4132
 1578SOL     hw 6311   3.378   4.300   7.014 -1.7320 -0.1618 -2.5164
 1578SOL     vw 6312   3.431   4.256   6.961 -0.7263 -0.6073 -1.1904
 1579SOL     ow 6313   1.849   2.750   0.046  0.4896 -0.2234 -1.0529
 1579SOL     hw 6314   1.939   2.736   0.018 -0.5653 -3.5326 -3.3549
 1579SOL     hw 6315   1.816   2.818  -0.013  0.4233 -1.8765 -3.0204
 1579SOL     vw 6316   1.857   2.758   0.034  0.3416 -0.8780 -1.6162
 1580SOL     ow 6317   6.566   0.178   0.277  0.1472 -0.0910  0.4487
 1580SOL     hw 6318   6.620   0.154   0.202 -2.2965 -0.1982 -1.3904
 1580SOL     hw 6319   6.605   0.131   0.351  1.0437 -2.1646 -1.2601
 1580SOL     vw 6320   6.578   0.169   0.277 -0.0570 -0.3787 -0.0194
 1581SOL     ow 6321   5.369   0.060   6.750  0.4966  0.0429  0.1393
 1581SOL     hw 6322   5.310  -0.002   6.707  0.8402  0.1862 -0.5487
 1581SOL     hw 6323   5.342   0.058   6.842  0.1601 -0.7339  0.0350
 1581SOL     vw 6324   5.357   0.051   6.757  0.4976 -0.0408  0.0350
 1582SOL     ow 6325   5.989   4.119   1.633  0.6185 -0.2946 -0.4704
 1582SOL     hw 6326   5.934   4.177   1.580  1.4141  0.8310 -0.1082
 1582SOL     hw 6327   6.020   4.052   1.572 -0.6465 -0.5936 -0.8093
 1582SOL     vw 6328   5.986   4.118   1.618  0.5565 -0.1855 -0.4674
 1583SOL     ow 6329   4.162   0.407   3.971 -0.6927  0.0618 -0.4035
 1583SOL     hw 6330   4.094   0.393   3.905 -0.8044  1.4068 -0.6104
 1583SOL     hw 6331   4.118   0.460   4.038  0.0389  0.6490 -0.3743
 1583SOL     vw 6332   4.147   0.412   3.971 -0.6108  0.3167 -0.4270
 1584SOL     ow 6333   5.035   0.568   1.979  0.2653  0.5076 -0.8248
 1584SOL     hw 6334   5.003   0.656   1.958 -0.3648  0.2510 -0.9431
 1584SOL     hw 6335   4.970   0.533   2.040 -0.8663 -0.8498 -2.7513
 1584SOL     vw 6336   5.023   0.575   1.985  0.0327  0.2947 -1.0946
 1585SOL     ow 6337   1.318   2.072   0.744 -0.1580 -0.5652 -0.1266
 1585SOL     hw 6338   1.292   1.998   0.799  0.1441  0.2011  1.1059
 1585SOL     hw 6339   1.408   2.091   0.771 -0.7204  1.1742  0.6760
 1585SOL     vw 6340   1.326   2.065   0.755 -0.1923 -0.2346  0.1419
 1586SOL     ow 6341   5.850   0.455   0.936  0.6159 -0.1728  0.2381
 1586SOL     hw 6342   5.883   0.545   0.934 -0.9091  0.4205  0.4215
 1586SOL     hw 6343   5.874   0.419   0.850 -1.1160  1.3335 -0.9652
 1586SOL     vw 6344   5.857   0.462   0.924  0.1864  0.1042  0.1035
 1587SOL     ow 6345   1.457   2.382   1.394 -0.2398  0.3233 -0.3695
 1587SOL     hw 6346   1.502   2.329   1.461 -1.8942  0.7822  1.1921
 1587SOL     hw 6347   1.458   2.471   1.429 -0.8876  0.6320 -1.0980
 1587SOL     vw 6348   1.463   2.386   1.408 -0.5436  0.4246 -0.2596
 1588SOL     ow 6349   1.508   5.786   3.894  0.6284 -0.5307  0.6709
 1588SOL     hw 6350   1.571   5.816   3.827  0.3018  0.8082  0.9258
 1588SOL     hw 6351   1.501   5.860   3.954 -1.8843 -0.2499  0.1528
 1588SOL     vw 6352   1.515   5.800   3.893  0.2538 -0.3169  0.6361
 1589SOL     ow 6353   7.478   3.564   0.676  0.0997 -0.0037  0.1181
 1589SOL     hw 6354   7.483   3.554   0.771 -1.3298 -0.1605  0.2001
 1589SOL     hw 6355   7.494   3.475   0.641  0.4841  0.0275  0.2103
 1589SOL     vw 6356   7.481   3.551   0.684 -0.0381 -0.0203  0.1411
 1590SOL     ow 6357   4.758   1.726   4.121 -0.0637 -0.2703  0.7568
 1590SOL     hw 6358   4.668   1.744   4.147 -0.1550  0.3664  0.0366
 1590SOL     hw 6359   4.757   1.634   4.095 -0.5445 -0.2250  0.5993
 1590SOL     vw 6360   4.746   1.716   4.121 -0.1390 -0.1803  0.6409
 1591SOL     ow 6361   6.665   3.761   7.345  0.0303  0.4028 -0.0072
 1591SOL     hw 6362   6.650   3.677   7.301  1.4356 -0.0499  0.3352
 1591SOL     hw 6363   6.601   3.762   7.417 -0.7793  0.1593 -0.7041
 1591SOL     vw 6364   6.654   3.750   7.349  0.1090  0.3109 -0.0541
 1592SOL     ow 6365   2.536   5.169   1.171  0.5822 -0.3339  0.1877
 1592SOL     hw 6366   2.561   5.165   1.264 -2.4014 -2.0442  1.0664
 1592SOL     hw 6367   2.618   5.163   1.123  2.0553 -3.2949  2.7249
 1592SOL     vw 6368   2.550   5.168   1.177  0.3829 -0.9503  0.6384
 1593SOL     ow 6369   4.500   4.430   5.487  0.5354 -0.4876 -0.0930
 1593SOL     hw 6370   4.565   4.499   5.501  2.2272 -1.9523 -0.4531
 1593SOL     hw 6371   4.471   4.443   5.397 -0.1080  0.4995  0.2404
 1593SOL     vw 6372   4.505   4.441   5.477  0.6738 -0.5507 -0.0966
 1594SOL     ow 6373   3.096   2.494   6.938  0.5654  0.1981  0.1221
 1594SOL     hw 6374   3.095   2.479   7.033  1.5765  1.2680  0.3145
 1594SOL     hw 6375   3.182   2.463   6.910  0.4601  0.3556 -0.3742
 1594SOL     vw 6376   3.107   2.488   6.947  0.6850  0.3601  0.0820
 1595SOL     ow 6377   1.764   5.064   5.348  0.2232 -0.5846  0.1082
 1595SOL     hw 6378   1.716   4.994   5.392 -0.2685  0.9923  2.3200
 1595SOL     hw 6379   1.703   5.099   5.283  0.0510 -1.4469 -0.1939
 1595SOL     vw 6380   1.749   5.060   5.345  0.1355 -0.4904  0.3603
 1596SOL     ow 6381   5.039   7.258   6.831 -0.2986  0.5518 -0.1910
 1596SOL     hw 6382   5.054   7.167   6.804 -1.4291  0.4521 -0.5103
 1596SOL     hw 6383   5.079   7.263   6.918  0.9540  0.1314 -0.7094
 1596SOL     vw 6384   5.047   7.246   6.839 -0.2825  0.4830 -0.3016
 1597SOL     ow 6385   4.126   2.371   3.437  0.4517 -0.2409  0.1797
 1597SOL     hw 6386   4.196   2.354   3.375 -0.2959 -0.6482 -0.5641
 1597SOL     hw 6387   4.059   2.418   3.387 -0.3043 -0.8604  0.5849
 1597SOL     vw 6388   4.126   2.375   3.422  0.2537 -0.3763  0.1349
 1598SOL     ow 6389   7.306   0.940   7.501 -0.0175 -0.2100  0.5048
 1598SOL     hw 6390   7.211   0.940   7.512 -0.1228  1.1402 -0.1610
 1598SOL     hw 6391   7.340   0.901   7.582 -1.1407 -0.9613  0.6244
 1598SOL     vw 6392   7.298   0.935   7.513 -0.1798 -0.1310  0.4332
 1599SOL     ow 6393   0.756   0.550   6.478 -0.4725 -0.3508  0.1346
 1599SOL     hw 6394   0.793   0.629   6.440 -3.7058  0.7180 -1.0584
 1599SOL     hw 6395   0.781   0.554   6.570  2.6558 -0.0191 -0.6175
 1599SOL     vw 6396   0.764   0.561   6.485 -0.4864 -0.1660 -0.1221
 1600SOL     ow 6397   0.363   5.108   3.977 -0.2991  0.2472  0.1737
 1600SOL     hw 6398   0.403   5.044   4.036 -2.1211 -1.1902 -0.0434
 1600SOL     hw 6399   0.342   5.182   4.034  3.0222  1.3446  0.1864
 1600SOL     vw 6400   0.365   5.109   3.993 -0.1013  0.2022  0.1465
 1601SOL     ow 6401   6.953   7.361   1.355 -0.2986 -0.0481  0.0657
 1601SOL     hw 6402   7.025   7.311   1.392  0.5683 -0.1414 -1.6229
 1601SOL     hw 6403   6.938   7.320   1.270 -2.2696  0.0617  0.3241
 1601SOL     vw 6404   6.960   7.349   1.348 -0.4447 -0.0458 -0.1230
 1602SOL     ow 6405   5.238   1.859   4.659 -0.7204 -0.3231  0.3574
 1602SOL     hw 6406   5.165   1.817   4.614 -0.9860  1.0392 -0.5553
 1602SOL     hw 6407   5.197   1.909   4.730 -0.4337 -1.3165  1.2543
 1602SOL     vw 6408   5.223   1.860   4.662 -0.7174 -0.2745  0.3552
 1603SOL     ow 6409   5.633   2.761   0.745  0.9067  0.1514  0.8872
 1603SOL     hw 6410   5.543   2.733   0.733  1.2841 -0.3222 -1.3836
 1603SOL     hw 6411   5.669   2.700   0.809  0.4024 -1.6202 -0.4393
 1603SOL     vw 6412   5.626   2.750   0.752  0.8900 -0.1450  0.4126
 1604SOL     ow 6413   2.151   5.134   2.043 -0.2627 -0.6603  0.4434
 1604SOL     hw 6414   2.125   5.197   1.976  1.8211  0.7042  0.8494
 1604SOL     hw 6415   2.205   5.070   1.997  0.2158 -0.3750  0.6076
 1604SOL     vw 6416   2.154   5.134   2.028  0.0755 -0.4423  0.5189
 1605SOL     ow 6417   6.179   2.009   1.400 -0.8057 -0.1437  0.7530
 1605SOL     hw 6418   6.187   2.099   1.432 -1.0339  0.2287 -0.1845
 1605SOL     hw 6419   6.151   1.958   1.476 -3.0009  0.9965  0.7780
 1605SOL     vw 6420   6.177   2.014   1.414 -1.1253  0.0558  0.6326
 1606SOL     ow 6421   6.514   6.873   3.610 -0.0585  0.0763  0.1685
 1606SOL     hw 6422   6.589   6.873   3.670  0.9719 -0.5766 -1.0770
 1606SOL     hw 6423   6.450   6.931   3.653  0.5248 -0.5478  1.9975
 1606SOL     vw 6424   6.516   6.881   3.624  0.1545 -0.0923  0.2455
 1607SOL     ow 6425   1.900   4.527   4.047  0.0504  0.1729 -0.4436
 1607SOL     hw 6426   1.820   4.480   4.068  0.3821  0.5647  2.0212
 1607SOL     hw 6427   1.947   4.469   3.988 -0.5798 -1.5811  0.7038
 1607SOL     vw 6428   1.896   4.514   4.042  0.0110 -0.0069  0.0329
 1608SOL     ow 6429   7.120   3.960   2.836 -0.7963  0.8854 -0.4504
 1608SOL     hw 6430   7.175   3.922   2.768  0.3476  2.7344 -0.6150
 1608SOL     hw 6431   7.030   3.942   2.807 -0.3337  1.4191 -2.3368
 1608SOL     vw 6432   7.115   3.953   2.823 -0.5844  1.1998 -0.7210
 1609SOL     ow 6433   3.041   5.162   5.289  0.4201 -0.2111  0.4830
 1609SOL     hw 6434   3.062   5.088   5.232  0.6384 -0.0532  0.3578
 1609SOL     hw 6435   3.069   5.239   5.240  0.1080 -0.0365  0.5742
 1609SOL     vw 6436   3.048   5.162   5.275  0.4078 -0.1671  0.4787
 1610SOL     ow 6437   3.300   3.852   4.128 -0.0058  0.0180  0.4017
 1610SOL     hw 6438   3.238   3.823   4.194 -2.3625  1.0992 -1.1604
 1610SOL     hw 6439   3.299   3.784   4.061  0.5238  0.0317  0.3726
 1610SOL     vw 6440   3.292   3.839   4.128 -0.2469  0.1625  0.1917
 1611SOL     ow 6441   4.602   4.869   5.628 -0.2769 -0.2442 -0.0883
 1611SOL     hw 6442   4.671   4.803   5.625  0.4827  0.5670 -1.6753
 1611SOL     hw 6443   4.630   4.929   5.697  0.9360  0.4011 -1.1123
 1611SOL     vw 6444   4.614   4.868   5.637 -0.0167 -0.0520 -0.4330
 1612SOL     ow 6445   0.357   3.714   1.323 -0.1798 -0.7029  0.2022
 1612SOL     hw 6446   0.324   3.800   1.350 -0.7494 -0.4618 -1.2013
 1612SOL     hw 6447   0.280   3.658   1.321  0.2345 -1.3507  1.4055
 1612SOL     vw 6448   0.342   3.718   1.326 -0.2003 -0.7565  0.1758
 1613SOL     ow 6449   5.974   0.628   2.033 -0.0622 -0.4676  0.7844
 1613SOL     hw 6450   5.887   0.589   2.030 -0.5668  0.6006  0.9059
 1613SOL     hw 6451   5.961   0.717   1.999  0.2510  1.0292  4.2160
 1613SOL     vw 6452   5.960   0.635   2.028 -0.0875 -0.1291  1.2531
 1614SOL     ow 6453   2.260   7.002   4.496 -0.1692  1.1668 -0.3468
 1614SOL     hw 6454   2.312   7.020   4.575 -0.1434  2.0381 -0.5529
 1614SOL     hw 6455   2.285   7.071   4.435 -0.4572  0.7054 -0.9920
 1614SOL     vw 6456   2.270   7.014   4.498 -0.2037  1.2212 -0.4592
 1615SOL     ow 6457   1.905   5.770   1.919 -0.1510  0.2933  0.8373
 1615SOL     hw 6458   1.838   5.786   1.852  1.4954  1.9850 -0.5416
 1615SOL     hw 6459   1.909   5.852   1.969  1.2414  0.4664  0.5003
 1615SOL     vw 6460   1.897   5.783   1.916  0.2500  0.5393  0.6109
 1616SOL     ow 6461   2.716   0.205   3.830 -0.2601 -0.1093 -0.2973
 1616SOL     hw 6462   2.799   0.254   3.827  0.6106 -1.5768 -1.8823
 1616SOL     hw 6463   2.674   0.234   3.911  0.9954  1.9512 -0.3057
 1616SOL     vw 6464   2.721   0.216   3.840  0.0205 -0.0311 -0.5076
 1617SOL     ow 6465   2.759   3.155   3.281 -0.1804  0.1388  0.3384
 1617SOL     hw 6466   2.815   3.232   3.271  2.2102 -1.4896  0.3775
 1617SOL     hw 6467   2.760   3.113   3.195 -0.6424 -0.3532  0.5653
 1617SOL     vw 6468   2.766   3.160   3.269  0.0741 -0.1408  0.3734
 1618SOL     ow 6469   2.963   2.987   1.836  0.4671  0.0669  0.0960
 1618SOL     hw 6470   3.033   2.957   1.779  0.8348  0.6042  0.2605
 1618SOL     hw 6471   3.006   3.042   1.901 -0.2198  1.2553 -0.4115
 1618SOL     vw 6472   2.978   2.990   1.837  0.4249  0.2946  0.0507
 1619SOL     ow 6473   2.267   3.074   0.697  0.6852  0.4332  0.3979
 1619SOL     hw 6474   2.342   3.059   0.754  1.0635  0.4261 -0.0926
 1619SOL     hw 6475   2.305   3.097   0.612  0.1406  1.7216  0.4663
 1619SOL     vw 6476   2.282   3.075   0.693  0.6632  0.6022  0.3422
 1620SOL     ow 6477   5.062   1.286   0.428 -0.3107 -0.3793  0.0543
 1620SOL     hw 6478   5.123   1.352   0.396 -2.1059  1.2875 -0.0482
 1620SOL     hw 6479   4.977   1.330   0.431 -1.1971 -2.0442  2.0092
 1620SOL     vw 6480   5.059   1.300   0.424 -0.6645 -0.3791  0.2987
 1621SOL     ow 6481   3.068   2.320   0.144  0.7021  0.1208 -0.5374
 1621SOL     hw 6482   3.126   2.262   0.096  1.0787 -1.7498  1.9451
 1621SOL     hw 6483   2.998   2.342   0.083  0.1447 -3.5983 -1.4363
 1621SOL     vw 6484   3.067   2.315   0.130  0.6783 -0.6166 -0.3285
 1622SOL     ow 6485   0.139   0.972   1.041 -0.6156  0.5022  0.0258
 1622SOL     hw 6486   0.083   0.915   1.094  0.8240 -1.5612 -0.5616
 1622SOL     hw 6487   0.111   0.957   0.951  0.0309  0.4231 -0.1672
 1622SOL     vw 6488   0.128   0.962   1.036 -0.3404  0.2195 -0.0771
 1623SOL     ow 6489   3.371   2.838   0.838  0.0504  0.3642 -0.0689
 1623SOL     hw 6490   3.448   2.882   0.802  0.7605 -1.2334 -0.5769
 1623SOL     hw 6491   3.357   2.880   0.923  0.6933  1.5315 -0.5108
 1623SOL     vw 6492   3.379   2.850   0.844  0.2290  0.3074 -0.1942
 1624SOL     ow 6493   5.195   6.621   2.503 -0.3314  0.2497  0.0914
 1624SOL     hw 6494   5.269   6.602   2.444  0.5448  0.2872  1.1492
 1624SOL     hw 6495   5.163   6.706   2.473  2.0009  1.7301  1.4292
 1624SOL     vw 6496   5.201   6.630   2.491  0.0920  0.4501  0.4073
 1625SOL     ow 6497   0.737   4.669   7.207 -0.2445 -0.4773 -0.0201
 1625SOL     hw 6498   0.693   4.653   7.124  0.8142 -0.7481 -0.5412
 1625SOL     hw 6499   0.797   4.742   7.189  0.1381 -0.6678  0.4531
 1625SOL     vw 6500   0.739   4.677   7.194 -0.0543 -0.5381 -0.0265
 1626SOL     ow 6501   7.304   6.664   7.313 -0.0841  0.3472  0.6308
 1626SOL     hw 6502   7.261   6.615   7.243  1.0805  1.3278 -0.8323
 1626SOL     hw 6503   7.372   6.606   7.345 -1.0824 -0.3842  1.4849
 1626SOL     vw 6504   7.307   6.650   7.308 -0.0622  0.3800  0.5505
 1627SOL     ow 6505   6.280   4.075   3.048 -0.0172  0.6759  0.9539
 1627SOL     hw 6506   6.371   4.046   3.041 -0.7073 -1.5871  0.4884
 1627SOL     hw 6507   6.282   4.169   3.028  1.9311  0.2456 -1.1522
 1627SOL     vw 6508   6.292   4.084   3.045  0.1490  0.3207  0.6145
 1628SOL     ow 6509   6.474   4.829   1.785 -0.0090  0.1859  0.1713
 1628SOL     hw 6510   6.549   4.779   1.754 -0.9993 -1.5890  0.5369
 1628SOL     hw 6511   6.408   4.818   1.717 -1.9632 -3.1941  2.3851
 1628SOL     vw 6512   6.476   4.821   1.772 -0.3972 -0.4940  0.5116
 1629SOL     ow 6513   1.702   2.950   0.344 -0.4026  0.3348 -0.1620
 1629SOL     hw 6514   1.651   2.956   0.263  0.3131 -1.3797 -0.7774
 1629SOL     hw 6515   1.739   2.862   0.343  0.4342  0.6237  1.5621
 1629SOL     vw 6516   1.700   2.939   0.333 -0.1978  0.1467 -0.0157
 1630SOL     ow 6517   3.553   2.911   7.282  0.7334  0.4036 -0.4677
 1630SOL     hw 6518   3.578   2.829   7.239  0.4827 -0.7059  1.4021
 1630SOL     hw 6519   3.586   2.903   7.371  0.1603  2.0831 -0.0599
 1630SOL     vw 6520   3.560   2.900   7.288  0.6249  0.4787 -0.1669
 1631SOL     ow 6521   3.652   2.700   7.171  0.1285  0.4346 -0.3275
 1631SOL     hw 6522   3.660   2.679   7.078  1.8074 -1.3052  0.1401
 1631SOL     hw 6523   3.587   2.639   7.205 -0.5563  1.1338 -0.3554
 1631SOL     vw 6524   3.645   2.690   7.163  0.2596  0.2972 -0.2699
 1632SOL     ow 6525   4.949   3.693   3.964  0.1637  0.2967  0.2170
 1632SOL     hw 6526   4.883   3.755   3.932  0.5374  0.6236  0.0638
 1632SOL     hw 6527   5.024   3.706   3.906  0.2066 -0.3854  0.1132
 1632SOL     vw 6528   4.950   3.703   3.952  0.2189  0.2497  0.1832
 1633SOL     ow 6529   5.057   4.750   4.739  0.0300  0.7396  0.2062
 1633SOL     hw 6530   4.993   4.811   4.703 -0.0857  2.1093  2.5811
 1633SOL     hw 6531   5.019   4.719   4.821 -0.5549 -3.7175 -1.4687
 1633SOL     vw 6532   5.044   4.754   4.745 -0.0625  0.3324  0.2985
 1634SOL     ow 6533   5.164   5.323   5.327 -0.4341 -0.0684  0.1962
 1634SOL     hw 6534   5.163   5.275   5.410 -2.9920 -0.9004 -0.2193
 1634SOL     hw 6535   5.124   5.408   5.348  0.8952  0.5815  0.2107
 1634SOL     vw 6536   5.159   5.328   5.340 -0.5963 -0.0925  0.1433
 1635SOL     ow 6537   6.755   0.893   5.867 -0.3215  0.3394 -0.1680
 1635SOL     hw 6538   6.778   0.902   5.959  0.2165 -0.6465 -0.1783
 1635SOL     hw 6539   6.731   0.981   5.838 -0.4621  0.6589  0.8983
 1635SOL     vw 6540   6.755   0.905   5.875 -0.2689  0.2514 -0.0288
 1636SOL     ow 6541   4.256   0.832   0.449  0.5837  0.1959  0.3490
 1636SOL     hw 6542   4.269   0.919   0.486  2.8718 -0.6818  1.8595
 1636SOL     hw 6543   4.196   0.789   0.511 -0.6861  0.7031 -0.4906
 1636SOL     vw 6544   4.250   0.838   0.462  0.7181  0.1470  0.4375
 1637SOL     ow 6545   5.381   5.860   7.239 -0.3763  0.2302  0.1415
 1637SOL     hw 6546   5.390   5.799   7.166  0.2883 -2.9808  2.6622
 1637SOL     hw 6547   5.445   5.929   7.220 -1.1396  0.2826 -2.8356
 1637SOL     vw 6548   5.391   5.861   7.227 -0.3893 -0.1867  0.0815
 1638SOL     ow 6549   2.198   2.024   4.440 -0.0185 -0.0926 -0.2034
 1638SOL     hw 6550   2.280   1.975   4.434 -0.0894 -0.0142 -3.5207
 1638SOL     hw 6551   2.222   2.106   4.484  1.4237 -0.5183 -0.1455
 1638SOL     vw 6552   2.212   2.029   4.445  0.1626 -0.1383 -0.6335
 1639SOL     ow 6553   2.684   2.384   6.602  0.3762 -0.3862  0.1103
 1639SOL     hw 6554   2.709   2.293   6.586  0.4936 -0.4758  0.7852
 1639SOL     hw 6555   2.616   2.401   6.536 -0.7480 -1.4445  0.9426
 1639SOL     vw 6556   2.678   2.374   6.591  0.2433 -0.5375  0.3092
 1640SOL     ow 6557   5.056   0.023   3.260 -0.3787 -0.3685  0.0037
 1640SOL     hw 6558   5.126   0.043   3.322  0.1910 -0.5296 -0.5811
 1640SOL     hw 6559   5.043   0.105   3.211 -3.4814  1.0854  2.8126
 1640SOL     vw 6560   5.063   0.037   3.262 -0.7131 -0.1979  0.2971
 1641SOL     ow 6561   6.608   3.012   6.215  0.1218  0.5862  0.0584
 1641SOL     hw 6562   6.589   2.938   6.274 -4.0274  0.6384 -0.9463
 1641SOL     hw 6563   6.578   2.982   6.129 -0.1716  2.8722 -0.6877
 1641SOL     vw 6564   6.602   2.998   6.212 -0.4647  0.8948 -0.1726
 1642SOL     ow 6565   1.252   0.951   5.920  0.2086  0.0206  0.0187
 1642SOL     hw 6566   1.234   1.038   5.885 -0.4970 -0.1506 -0.0706
 1642SOL     hw 6567   1.250   0.963   6.015 -2.4937 -0.3445  0.0837
 1642SOL     vw 6568   1.249   0.964   5.928 -0.2410 -0.0502  0.0157
 1643SOL     ow 6569   5.412   7.373   3.320 -0.3555  0.2811 -0.1433
 1643SOL     hw 6570   5.502   7.401   3.300 -0.8943  1.4262 -1.0818
 1643SOL     hw 6571   5.366   7.377   3.236 -1.6744  1.2892  0.5816
 1643SOL     vw 6572   5.418   7.377   3.307 -0.6003  0.5653 -0.1715
 1644SOL     ow 6573   3.049   7.207   4.430 -0.1863 -0.5846  0.0586
 1644SOL     hw 6574   3.100   7.241   4.504 -0.0026  0.8483 -0.6995
 1644SOL     hw 6575   3.094   7.126   4.406  1.8756  0.6980 -0.6755
 1644SOL     vw 6576   3.061   7.201   4.437  0.1099 -0.2265 -0.1380
 1645SOL     ow 6577   3.990   6.723   6.240  0.0388  0.4766 -0.1631
 1645SOL     hw 6578   4.003   6.818   6.246 -1.0152  0.5925  4.6177
 1645SOL     hw 6579   4.077   6.686   6.256  0.2418  0.6353 -0.8721
 1645SOL     vw 6580   4.003   6.731   6.243 -0.0734  0.5128  0.3741
 1646SOL     ow 6581   1.628   0.239   2.595 -0.1584 -0.0342 -0.1881
 1646SOL     hw 6582   1.565   0.274   2.532 -0.4817 -1.4863 -0.7074
 1646SOL     hw 6583   1.701   0.208   2.541  1.2431  1.9657  0.4264
 1646SOL     vw 6584   1.630   0.240   2.580 -0.0161  0.0381 -0.1756
 1647SOL     ow 6585   4.152   6.033   4.582 -0.0922  0.7859  0.0053
 1647SOL     hw 6586   4.180   6.050   4.493  0.5139 -0.7117 -0.1152
 1647SOL     hw 6587   4.226   5.987   4.622 -1.8142 -2.0796  0.0777
 1647SOL     vw 6588   4.166   6.030   4.576 -0.2394  0.2103 -0.0012
 1648SOL     ow 6589   3.915   3.058   6.877 -0.1618  0.2660 -0.5687
 1648SOL     hw 6590   3.856   3.009   6.819  1.4578 -0.1116 -2.0060
 1648SOL     hw 6591   3.985   3.088   6.819  0.9341  0.9015  1.0208
 1648SOL     vw 6592   3.917   3.055   6.862  0.1966  0.3000 -0.5488
 1649SOL     ow 6593   5.399   1.681   4.804  0.6632 -0.2316  0.3503
 1649SOL     hw 6594   5.494   1.681   4.797  0.8884  1.3580  2.4755
 1649SOL     hw 6595   5.368   1.722   4.723  1.5532 -2.8299 -1.4591
 1649SOL     vw 6596   5.407   1.686   4.792  0.8106 -0.3647  0.3920
 1650SOL     ow 6597   3.887   5.839   7.110  0.6804 -0.5749 -0.6282
 1650SOL     hw 6598   3.840   5.887   7.042 -0.3555  0.6559  0.8780
 1650SOL     hw 6599   3.869   5.888   7.190  2.1279 -1.7843  0.4879
 1650SOL     vw 6600   3.878   5.852   7.111  0.7347 -0.5720 -0.2823
 1651SOL     ow 6601   4.140   1.286   4.544  0.7069 -0.0738 -0.0071
 1651SOL     hw 6602   4.232   1.283   4.570  1.2146 -0.9849 -1.7326
 1651SOL     hw 6603   4.133   1.224   4.472 -1.4482 -0.5995  0.5736
 1651SOL     vw 6604   4.151   1.278   4.538  0.4895 -0.2633 -0.1581
 1652SOL     ow 6605   0.344   3.519   0.730 -0.1044  0.8291  0.0291
 1652SOL     hw 6606   0.324   3.561   0.813 -0.4477 -2.3630  1.7143
 1652SOL     hw 6607   0.435   3.491   0.739  0.2036  1.3742 -1.1625
 1652SOL     vw 6608   0.353   3.521   0.742 -0.1090  0.4798  0.0942
 1653SOL     ow 6609   0.030   1.518   6.712 -0.3776  0.4072  0.3328
 1653SOL     hw 6610  -0.028   1.449   6.681 -0.7853  1.4242 -1.2547
 1653SOL     hw 6611   0.115   1.497   6.672 -0.6835  1.2121 -0.7790
 1653SOL     vw 6612   0.034   1.506   6.702 -0.4718  0.6475 -0.0234
 1654SOL     ow 6613   3.999   6.961   2.956 -0.0092 -0.1488 -0.3389
 1654SOL     hw 6614   3.903   6.962   2.951 -0.1206 -0.3394  1.1691
 1654SOL     hw 6615   4.028   6.951   2.866 -1.3672  2.3644 -1.1641
 1654SOL     vw 6616   3.990   6.960   2.943 -0.2030  0.1576 -0.2489
 1655SOL     ow 6617   1.565   6.812   1.892  0.5377 -0.8082  0.2024
 1655SOL     hw 6618   1.514   6.731   1.883 -0.2546 -0.2582 -0.4801
 1655SOL     hw 6619   1.623   6.811   1.816 -2.2610  1.1387 -2.1816
 1655SOL     vw 6620   1.566   6.801   1.881  0.0640 -0.4787 -0.2022
 1656SOL     ow 6621   6.368   0.677   4.698  0.3556 -0.0504 -0.1313
 1656SOL     hw 6622   6.305   0.749   4.693 -0.3062 -0.6090 -0.0438
 1656SOL     hw 6623   6.360   0.646   4.789  0.1273 -0.6708 -0.3571
 1656SOL     vw 6624   6.358   0.682   4.710  0.2379 -0.2060 -0.1495
 1657SOL     ow 6625   3.985   2.086   3.282 -0.4559 -0.1627 -0.4928
 1657SOL     hw 6626   3.968   2.099   3.376 -1.6089  0.3358 -0.7591
 1657SOL     hw 6627   3.899   2.086   3.242  0.1245  2.0420 -1.8778
 1657SOL     vw 6628   3.972   2.087   3.289 -0.5316  0.1941 -0.7107
 1658SOL     ow 6629   4.517   4.297   2.385  0.6977  0.0835  0.1489
 1658SOL     hw 6630   4.468   4.217   2.368  0.8789  0.3455 -1.8570
 1658SOL     hw 6631   4.512   4.308   2.479 -0.2868 -1.6751  0.3532
 1658SOL     vw 6632   4.510   4.288   2.395  0.5915 -0.1140 -0.0888
 1659SOL     ow 6633   0.492   4.093   1.671  0.0016  0.1119 -0.2303
 1659SOL     hw 6634   0.415   4.037   1.679  1.1157 -1.1840  2.7197
 1659SOL     hw 6635   0.559   4.037   1.631  0.0360  0.5577 -0.8080
 1659SOL     vw 6636   0.491   4.079   1.667  0.1531 -0.0002  0.0827
 1660SOL     ow 6637   6.335   4.231   0.514  0.1247 -0.6379 -0.1242
 1660SOL     hw 6638   6.401   4.291   0.480 -1.5452  0.0191 -2.4995
 1660SOL     hw 6639   6.379   4.146   0.516  2.8166  0.5410  4.1225
 1660SOL     vw 6640   6.350   4.228   0.510  0.2596 -0.3953  0.1227
 1661SOL     ow 6641   2.808   6.323   6.297 -0.3994 -0.0831  0.6826
 1661SOL     hw 6642   2.730   6.375   6.314 -0.4180  1.0156 -2.2912
 1661SOL     hw 6643   2.881   6.378   6.326 -0.5265  0.9548 -0.8377
 1661SOL     vw 6644   2.807   6.337   6.303 -0.4185  0.1988  0.0896
 1662SOL     ow 6645   3.959   2.995   7.118 -0.3140  1.0418  0.4544
 1662SOL     hw 6646   3.940   3.078   7.162 -3.1068  1.1500 -0.7180
 1662SOL     hw 6647   3.975   3.020   7.027 -0.7944  0.3413  0.1712
 1662SOL     vw 6648   3.959   3.009   7.111 -0.7459  0.9638  0.2623
 1663SOL     ow 6649   0.625   1.358   3.759  0.0209 -0.0749 -0.3465
 1663SOL     hw 6650   0.677   1.307   3.820  1.0566  1.7379  0.3708
 1663SOL     hw 6651   0.632   1.311   3.676  1.8780 -0.5036  0.0134
 1663SOL     vw 6652   0.633   1.345   3.756  0.4025  0.1078 -0.2043
 1664SOL     ow 6653   3.127   6.328   0.330 -0.2697  0.2106 -0.4767
 1664SOL     hw 6654   3.064   6.309   0.260 -0.4038  1.8262 -0.8308
 1664SOL     hw 6655   3.116   6.421   0.347  1.1677  0.2537  0.3153
 1664SOL     vw 6656   3.117   6.337   0.323 -0.0979  0.4296 -0.4189
 1665SOL     ow 6657   4.865   5.330   2.440  0.2324 -0.1211  0.0961
 1665SOL     hw 6658   4.880   5.374   2.356 -2.7939 -1.1405 -1.1040
 1665SOL     hw 6659   4.879   5.237   2.421  1.1810 -0.2342  1.2106
 1665SOL     vw 6660   4.869   5.323   2.426 -0.0417 -0.2706  0.0848
 1666SOL     ow 6661   5.141   4.054   2.945  0.5286  0.1294 -0.7423
 1666SOL     hw 6662   5.049   4.072   2.965  0.3571  1.4467 -2.4443
 1666SOL     hw 6663   5.177   4.019   3.026 -1.1697  0.7901  0.3558
 1666SOL     vw 6664   5.133   4.052   2.958  0.2818  0.3905 -0.8219
 1667SOL     ow 6665   1.733   4.316   2.133  0.0601  0.1022 -0.3133
 1667SOL     hw 6666   1.826   4.310   2.153  0.0129  0.2622 -0.0401
 1667SOL     hw 6667   1.692   4.250   2.188  0.0283 -0.0955 -0.5683
 1667SOL     vw 6668   1.740   4.307   2.143  0.0497  0.0973 -0.3109
 1668SOL     ow 6669   4.515   1.752   4.162  0.1064  0.2079  0.3772
 1668SOL     hw 6670   4.489   1.835   4.200 -0.8257 -0.5736  1.5365
 1668SOL     hw 6671   4.432   1.709   4.139  0.6154  0.4703 -2.2364
 1668SOL     vw 6672   4.500   1.757   4.164  0.0505  0.1395  0.1853
 1669SOL     ow 6673   3.998   1.660   2.971 -0.9520 -0.1222 -0.2269
 1669SOL     hw 6674   3.939   1.610   3.027 -1.2565  1.6690  1.1477
 1669SOL     hw 6675   3.990   1.750   3.003  0.8679  0.5246 -1.4620
 1669SOL     vw 6676   3.989   1.665   2.983 -0.7521  0.1994 -0.2085
 1670SOL     ow 6677   6.426   6.468   3.670  0.5228  0.6086  0.4117
 1670SOL     hw 6678   6.500   6.468   3.730 -0.9074  0.8293  2.2771
 1670SOL     hw 6679   6.375   6.546   3.694  0.2950  1.1568 -1.6519
 1670SOL     vw 6680   6.429   6.479   3.681  0.3042  0.7100  0.3855
 1671SOL     ow 6681   6.962   5.865   4.346 -0.3076 -0.5053  0.4406
 1671SOL     hw 6682   6.966   5.803   4.418  1.4184 -0.5643  0.3420
 1671SOL     hw 6683   7.026   5.833   4.283 -1.3109 -0.0895 -0.8437
 1671SOL     vw 6684   6.971   5.853   4.347 -0.2124 -0.4582  0.2582
 1672SOL     ow 6685   1.548   2.713   5.321 -0.1694 -0.1252  0.0262
 1672SOL     hw 6686   1.494   2.654   5.268  1.5651 -1.4865 -0.3356
 1672SOL     hw 6687   1.545   2.674   5.408 -0.5875  0.4009  0.2539
 1672SOL     vw 6688   1.540   2.700   5.325  0.0043 -0.2353  0.0086
 1673SOL     ow 6689   2.506   3.899   7.084 -0.2699 -0.2242  0.5130
 1673SOL     hw 6690   2.540   3.901   7.173  0.6128  1.3184  0.1908
 1673SOL     hw 6691   2.457   3.980   7.075 -0.0691 -0.1945 -0.4947
 1673SOL     vw 6692   2.504   3.910   7.094 -0.1270 -0.0168  0.3378
 1674SOL     ow 6693   3.582   3.106   5.763  0.1717  0.3785  0.0844
 1674SOL     hw 6694   3.500   3.119   5.811 -0.3677 -0.3405 -0.5950
 1674SOL     hw 6695   3.625   3.034   5.808 -0.5351 -0.5808 -0.7186
 1674SOL     vw 6696   3.577   3.098   5.775  0.0073  0.1571 -0.1111
 1675SOL     ow 6697   5.817   5.567   5.017 -0.5797  0.3812  0.1005
 1675SOL     hw 6698   5.899   5.528   5.048  0.0720  0.5729 -1.3284
 1675SOL     hw 6699   5.797   5.634   5.082 -0.6789 -0.9738  1.5458
 1675SOL     vw 6700   5.825   5.570   5.030 -0.5069  0.2279  0.1023
 1676SOL     ow 6701   0.152   6.500   1.863 -0.3399 -0.1849  0.4904
 1676SOL     hw 6702   0.228   6.550   1.835 -1.1809 -0.5043 -2.8330
 1676SOL     hw 6703   0.180   6.408   1.859 -0.9350 -0.3374 -1.2524
 1676SOL     vw 6704   0.166   6.494   1.858 -0.5293 -0.2470 -0.1780
 1677SOL     ow 6705   1.715   6.154   4.239  0.5851 -0.0881  0.0590
 1677SOL     hw 6706   1.640   6.097   4.256 -0.9842  1.6671 -0.6098
 1677SOL     hw 6707   1.745   6.180   4.327  0.7302 -1.1694  0.3410
 1677SOL     vw 6708   1.709   6.150   4.253  0.3972  0.0007  0.0081
 1678SOL     ow 6709   6.375   5.889   0.595 -0.4485  0.1570  1.2199
 1678SOL     hw 6710   6.339   5.801   0.590 -2.8997  1.1225 -0.1894
 1678SOL     hw 6711   6.444   5.883   0.660  2.1067 -3.6057 -1.4028
 1678SOL     vw 6712   6.379   5.877   0.603 -0.4349 -0.2120  0.6879
 1679SOL     ow 6713   7.166   5.828   1.359  0.7208 -0.3190  0.4039
 1679SOL     hw 6714   7.108   5.753   1.344  0.4787 -0.0710  0.0904
 1679SOL     hw 6715   7.118   5.884   1.420  0.9618 -0.4827  0.7490
 1679SOL     vw 6716   7.152   5.825   1.366  0.7205 -0.3078  0.4081
 1680SOL     ow 6717   1.533   5.320   0.499 -0.5581  0.0099 -0.8134
 1680SOL     hw 6718   1.448   5.277   0.495 -0.1549 -0.7142 -2.7342
 1680SOL     hw 6719   1.514   5.413   0.483 -0.8969 -0.3441 -2.6917
 1680SOL     vw 6720   1.519   5.327   0.496 -0.5496 -0.1326 -1.3147
 1681SOL     ow 6721   7.184   3.196   5.845  0.2880  0.1508 -0.6811
 1681SOL     hw 6722   7.194   3.100   5.847 -1.3057 -0.0813 -1.6527
 1681SOL     hw 6723   7.274   3.229   5.848  0.9261 -1.4053 -1.1389
 1681SOL     vw 6724   7.197   3.187   5.846  0.1619 -0.0851 -0.8695
 1682SOL     ow 6725   4.554   5.678   6.858 -0.2834 -0.1123  0.2856
 1682SOL     hw 6726   4.508   5.757   6.829  0.1562  0.2239  0.4926
 1682SOL     hw 6727   4.642   5.709   6.881 -0.9028 -0.1432  3.0553
 1682SOL     vw 6728   4.560   5.693   6.857 -0.3071 -0.0722  0.6783
 1683SOL     ow 6729   4.400   3.368   0.531  0.0747 -0.4858  0.3787
 1683SOL     hw 6730   4.412   3.448   0.481 -2.6003 -1.2128 -1.6508
 1683SOL     hw 6731   4.338   3.391   0.600  2.3018  0.0351  2.3559
 1683SOL     vw 6732   4.394   3.381   0.533  0.0155 -0.5131  0.3718
 1684SOL     ow 6733   3.339   3.495   7.251  0.1775  0.2456  0.3786
 1684SOL     hw 6734   3.310   3.500   7.342  0.7322 -0.9832  0.6318
 1684SOL     hw 6735   3.258   3.492   7.200 -0.1403  1.3786  0.7835
 1684SOL     vw 6736   3.324   3.496   7.256  0.2086  0.2331  0.4654
 1685SOL     ow 6737   2.029   7.133   4.537  0.4076 -0.4253 -0.0613
 1685SOL     hw 6738   1.957   7.071   4.542  1.3447 -1.4912  0.6294
 1685SOL     hw 6739   2.108   7.080   4.544  1.2685  0.7489 -0.4080
 1685SOL     vw 6740   2.030   7.118   4.539  0.6448 -0.4113 -0.0160
 1686SOL     ow 6741   0.788   1.223   0.494 -0.0693 -0.0139 -0.0012
 1686SOL     hw 6742   0.760   1.251   0.581  0.1223  1.3408 -0.3481
 1686SOL     hw 6743   0.757   1.293   0.436  1.0050 -0.2116 -0.8433
 1686SOL     vw 6744   0.780   1.236   0.498  0.0978  0.1388 -0.1580
 1687SOL     ow 6745   5.322   5.936   5.624  0.2594 -0.3533 -0.4362
 1687SOL     hw 6746   5.367   5.852   5.620 -1.0633 -1.0546 -2.4877
 1687SOL     hw 6747   5.312   5.953   5.717  2.1362 -1.5646  0.0531
 1687SOL     vw 6748   5.326   5.927   5.636  0.3326 -0.6053 -0.6423
 1688SOL     ow 6749   6.845   5.027   0.705 -0.7063 -0.0327 -0.8155
 1688SOL     hw 6750   6.841   5.121   0.719 -1.0432  0.1399 -1.9901
 1688SOL     hw 6751   6.787   4.990   0.771  0.9281  0.4136  0.9660
 1688SOL     vw 6752   6.837   5.034   0.715 -0.5352  0.0489 -0.7354
 1689SOL     ow 6753   0.525   7.140   5.375  0.6454  0.2448  0.7122
 1689SOL     hw 6754   0.617   7.116   5.383  0.7477  0.5982  0.6131
 1689SOL     hw 6755   0.488   7.120   5.461  0.5316 -1.0723  0.3730
 1689SOL     vw 6756   0.532   7.135   5.388  0.6438  0.1175  0.6542
 1690SOL     ow 6757   4.578   5.536   7.082  0.3164  0.6823  0.5973
 1690SOL     hw 6758   4.565   5.580   6.998 -1.4413 -1.4080 -0.3211
 1690SOL     hw 6759   4.647   5.473   7.065 -1.6049 -1.3688 -0.0570
 1690SOL     vw 6760   4.585   5.534   7.069 -0.1693  0.1361  0.3898
 1691SOL     ow 6761   6.546   5.840   1.455 -0.0214 -0.5419  0.5086
 1691SOL     hw 6762   6.633   5.836   1.495  1.1104  0.9020 -1.5778
 1691SOL     hw 6763   6.557   5.797   1.370 -0.9043  0.9902 -0.4368
 1691SOL     vw 6764   6.559   5.834   1.449  0.0114 -0.1493  0.1087
 1692SOL     ow 6765   0.449   0.767   1.158 -0.0998 -0.6118  0.0458
 1692SOL     hw 6766   0.416   0.706   1.092  0.3729 -1.4997  0.6070
 1692SOL     hw 6767   0.374   0.783   1.215 -0.6113  0.4393 -0.8808
 1692SOL     vw 6768   0.435   0.761   1.157 -0.1049 -0.5903 -0.0024
 1693SOL     ow 6769   6.632   2.504   5.482 -0.0288  0.1518 -0.4604
 1693SOL     hw 6770   6.653   2.593   5.455  2.7225 -0.3187 -0.1768
 1693SOL     hw 6771   6.564   2.476   5.420  0.2428  1.8662 -1.6242
 1693SOL     vw 6772   6.626   2.512   5.470  0.3700  0.3158 -0.5765
 1694SOL     ow 6773   1.744   1.385   2.531  0.3323  0.0048  0.1428
 1694SOL     hw 6774   1.817   1.425   2.483 -0.5431  1.4638 -0.0235
 1694SOL     hw 6775   1.671   1.385   2.469 -0.7709  1.7673  1.3493
 1694SOL     vw 6776   1.744   1.390   2.517  0.0712  0.4298  0.2801
 1695SOL     ow 6777   6.466   6.680   3.876  0.3530 -0.3834  0.5944
 1695SOL     hw 6778   6.422   6.696   3.959 -0.6106 -1.9832  0.4307
 1695SOL     hw 6779   6.543   6.738   3.878 -0.2597  0.4309  2.0812
 1695SOL     vw 6780   6.471   6.690   3.887  0.1452 -0.4873  0.7690
 1696SOL     ow 6781   0.495   6.741   1.441  0.4254 -0.2525 -0.1397
 1696SOL     hw 6782   0.507   6.649   1.415  0.3418 -0.5816  0.9111
 1696SOL     hw 6783   0.448   6.781   1.368  1.2662 -0.8156 -1.0144
 1696SOL     vw 6784   0.490   6.734   1.428  0.5253 -0.3700 -0.1165
 1697SOL     ow 6785   4.411   3.817   6.002 -0.1651  0.0032 -0.1775
 1697SOL     hw 6786   4.501   3.827   6.031 -0.0615  0.0538 -0.5041
 1697SOL     hw 6787   4.368   3.765   6.070 -0.6962  2.5092  1.5222
 1697SOL     vw 6788   4.417   3.812   6.015 -0.2213  0.3406  0.0036
 1698SOL     ow 6789   5.741   3.913   6.784 -0.5478 -0.1190  0.1966
 1698SOL     hw 6790   5.700   3.999   6.771  0.1556  0.3770  1.1404
 1698SOL     hw 6791   5.668   3.854   6.802 -1.0714  0.1995 -0.8016
 1698SOL     vw 6792   5.726   3.917   6.785 -0.5238 -0.0117  0.1895
 1699SOL     ow 6793   2.357   1.010   7.466  0.0657 -0.0520  0.0927
 1699SOL     hw 6794   2.294   0.952   7.510  0.4135 -0.0259  0.6333
 1699SOL     hw 6795   2.304   1.083   7.434 -0.2623 -0.2996  0.0607
 1699SOL     vw 6796   2.342   1.012   7.467  0.0683 -0.0812  0.1598
 1700SOL     ow 6797   4.269   0.745   0.797  0.6092 -0.7596 -0.1542
 1700SOL     hw 6798   4.177   0.764   0.779  0.7658 -0.1460 -0.3420
 1700SOL     hw 6799   4.300   0.823   0.844  0.4036 -1.9794  2.1679
 1700SOL     vw 6800   4.261   0.758   0.801  0.6027 -0.8396  0.1274
 1701SOL     ow 6801   4.841   6.449   5.794 -0.1058 -0.9951  0.0990
 1701SOL     hw 6802   4.806   6.538   5.783 -0.2115 -1.2580 -2.0012
 1701SOL     hw 6803   4.791   6.413   5.867 -1.9672 -0.2433 -0.7442
 1701SOL     vw 6804   4.830   6.456   5.802 -0.3653 -0.9305 -0.2894
 1702SOL     ow 6805   4.164   5.009   7.114  0.2580  0.3128  0.1419
 1702SOL     hw 6806   4.140   4.934   7.168  0.3285  0.2371  0.0688
 1702SOL     hw 6807   4.259   5.004   7.106  0.2950  0.5814  0.3856
 1702SOL     vw 6808   4.173   4.999   7.120  0.2723  0.3381  0.1640
 1703SOL     ow 6809   6.580   6.208   5.800  0.0719  0.3338 -0.4432
 1703SOL     hw 6810   6.546   6.235   5.715  0.1776  0.2007 -0.5278
 1703SOL     hw 6811   6.655   6.264   5.816  0.8434 -0.5027 -1.0311
 1703SOL     vw 6812   6.585   6.219   5.791  0.1874  0.2060 -0.5319
 1704SOL     ow 6813   5.642   3.462   2.534  0.4159 -0.3870  0.0189
 1704SOL     hw 6814   5.673   3.503   2.453 -0.1111  0.0662  0.0336
 1704SOL     hw 6815   5.550   3.443   2.517  0.1667  0.1691  0.6775
 1704SOL     vw 6816   5.634   3.465   2.521  0.3135 -0.2537  0.1078
 1705SOL     ow 6817   3.321   0.205   4.712  0.2645  0.1353 -0.0829
 1705SOL     hw 6818   3.249   0.261   4.741  2.1494  1.5270  2.3102
 1705SOL     hw 6819   3.364   0.256   4.643  0.9250  0.8899  0.8592
 1705SOL     vw 6820   3.317   0.219   4.706  0.6002  0.4185  0.3569
 1706SOL     ow 6821   3.672   0.330   1.347  0.3636 -0.3325  0.1240
 1706SOL     hw 6822   3.694   0.315   1.439 -0.4792 -0.7029  0.2692
 1706SOL     hw 6823   3.755   0.360   1.308  1.0101 -1.2324  0.7563
 1706SOL     vw 6824   3.686   0.332   1.354  0.3376 -0.5001  0.2267
 1707SOL     ow 6825   1.169   5.305   2.316  0.2274 -0.0886 -0.3115
 1707SOL     hw 6826   1.136   5.395   2.308  0.0985  0.0544  1.3118
 1707SOL     hw 6827   1.091   5.253   2.335  0.4278 -0.3902 -0.3168
 1707SOL     vw 6828   1.155   5.310   2.318  0.2369 -0.1097 -0.0980
 1708SOL     ow 6829   6.998   1.043   6.694  0.1921 -0.2289  0.0999
 1708SOL     hw 6830   6.968   0.960   6.657  0.4661  0.4077 -1.6359
 1708SOL     hw 6831   6.957   1.047   6.780  0.2218 -2.1838  0.2386
 1708SOL     vw 6832   6.988   1.033   6.700  0.2320 -0.4029 -0.1106
 1709SOL     ow 6833   6.030   5.132   0.271 -0.1825 -0.6192 -0.5961
 1709SOL     hw 6834   6.038   5.203   0.335  1.6057 -0.6633 -0.7295
 1709SOL     hw 6835   5.955   5.081   0.300 -0.6075  0.4934  0.3267
 1709SOL     vw 6836   6.021   5.135   0.283 -0.0024 -0.4780 -0.4920
 1710SOL     ow 6837   4.044   1.918   3.079  0.2928  0.6612  0.2299
 1710SOL     hw 6838   4.015   1.993   3.026  0.6635  1.6454  1.3709
 1710SOL     hw 6839   4.027   1.945   3.169 -3.1146 -2.1168  0.6220
 1710SOL     vw 6840   4.038   1.931   3.084 -0.1078  0.4246  0.4323
 1711SOL     ow 6841   7.154   5.069   4.432 -0.8638 -0.4220  0.4672
 1711SOL     hw 6842   7.098   5.124   4.486  0.4742  0.2205  1.2569
 1711SOL     hw 6843   7.098   5.042   4.359 -2.0787  0.4775  1.0311
 1711SOL     vw 6844   7.139   5.073   4.429 -0.8473 -0.2186  0.6459
 1712SOL     ow 6845   0.228   5.727   3.507 -0.0360 -0.2926 -0.6520
 1712SOL     hw 6846   0.138   5.717   3.477 -0.2044  0.7687 -0.5137
 1712SOL     hw 6847   0.280   5.681   3.441 -0.6774 -0.9657 -0.6968
 1712SOL     vw 6848   0.223   5.719   3.494 -0.1428 -0.2413 -0.6397
 1713SOL     ow 6849   5.226   0.172   2.378  0.8810  0.7768 -0.5340
 1713SOL     hw 6850   5.172   0.131   2.310  0.0211  2.8284 -1.1832
 1713SOL     hw 6851   5.164   0.203   2.443  1.7728 -2.6430  2.2488
 1713SOL     vw 6852   5.211   0.171   2.377  0.8852  0.5963 -0.2525
 1714SOL     ow 6853   2.873   4.847   2.544  0.1923 -0.0500 -0.6129
 1714SOL     hw 6854   2.940   4.826   2.609 -0.6839  1.0667  0.7022
 1714SOL     hw 6855   2.807   4.778   2.554 -0.5708  0.8092  0.6560
 1714SOL     vw 6856   2.873   4.835   2.554 -0.0238  0.2105 -0.2720
 1715SOL     ow 6857   2.716   6.840   3.356  0.0323 -0.6896  0.3718
 1715SOL     hw 6858   2.654   6.893   3.306  1.2417 -0.4382 -0.9234
 1715SOL     hw 6859   2.671   6.757   3.370 -1.2557  0.0725  1.0134
 1715SOL     vw 6860   2.702   6.836   3.352  0.0221 -0.5558  0.2855
 1716SOL     ow 6861   4.588   5.655   2.206 -0.1959 -0.4638  0.2024
 1716SOL     hw 6862   4.650   5.728   2.194 -1.0201  0.3915  1.0142
 1716SOL     hw 6863   4.631   5.599   2.270  0.5281 -0.8173 -0.5600
 1716SOL     vw 6864   4.602   5.658   2.213 -0.2091 -0.3974  0.2090
 1717SOL     ow 6865   3.882   0.424   3.874  0.4260 -0.3332 -0.5725
 1717SOL     hw 6866   3.803   0.453   3.920 -0.1067 -0.2748 -1.4988
 1717SOL     hw 6867   3.874   0.329   3.869  0.3065 -0.3108 -0.8432
 1717SOL     vw 6868   3.871   0.415   3.880  0.3399 -0.3225 -0.7306
 1718SOL     ow 6869   1.185   1.286   5.453 -0.3103  0.2820  0.0386
 1718SOL     hw 6870   1.232   1.252   5.378 -0.2975 -1.6835  0.8880
 1718SOL     hw 6871   1.175   1.380   5.434  3.8470  0.8855 -0.2723
 1718SOL     vw 6872   1.190   1.294   5.441  0.2400  0.1023  0.1097
 1719SOL     ow 6873   2.630   0.676   3.563 -0.5529  0.6777 -0.5839
 1719SOL     hw 6874   2.600   0.734   3.633 -2.1403 -0.4798 -0.2488
 1719SOL     hw 6875   2.581   0.705   3.486 -0.4703  0.5300 -0.6925
 1719SOL     vw 6876   2.619   0.688   3.562 -0.7515  0.5054 -0.5541
 1720SOL     ow 6877   2.771   4.559   3.287  0.5093  0.3946  0.8349
 1720SOL     hw 6878   2.750   4.554   3.194  1.2905 -2.4854  0.7006
 1720SOL     hw 6879   2.685   4.562   3.330  0.0376 -0.8199  0.0423
 1720SOL     vw 6880   2.757   4.558   3.281  0.5500 -0.1457  0.7126
 1721SOL     ow 6881   6.230   4.740   2.557 -0.0850  0.3670  0.1752
 1721SOL     hw 6882   6.186   4.661   2.526 -0.9255  0.4235  1.1808
 1721SOL     hw 6883   6.284   4.767   2.483 -3.8580  1.9227 -2.3201
 1721SOL     vw 6884   6.231   4.733   2.543 -0.6936  0.5796 -0.0213
 1722SOL     ow 6885   1.480   5.864   5.781  0.2043 -0.1150  0.5820
 1722SOL     hw 6886   1.531   5.850   5.861  2.6168  0.5757 -0.7440
 1722SOL     hw 6887   1.492   5.785   5.730 -0.3281 -0.0746  0.3909
 1722SOL     vw 6888   1.488   5.852   5.785  0.4523 -0.0186  0.3817
 1723SOL     ow 6889   6.291   5.557   0.788 -0.2752  0.2644  0.3553
 1723SOL     hw 6890   6.231   5.627   0.813 -2.0777 -1.0803 -0.0790
 1723SOL     hw 6891   6.301   5.566   0.693  0.4756  0.6632  0.4629
 1723SOL     vw 6892   6.285   5.568   0.779 -0.4137  0.1397  0.3122
 1724SOL     ow 6893   0.165   0.639   1.682 -0.3278 -0.2647  0.3113
 1724SOL     hw 6894   0.200   0.599   1.763  0.8507  0.1820  0.0484
 1724SOL     hw 6895   0.190   0.578   1.613  0.7424  0.4873  0.0099
 1724SOL     vw 6896   0.173   0.626   1.684 -0.0311 -0.1065  0.2369
 1725SOL     ow 6897   5.454   1.436   2.694  0.4950  0.4911 -0.1150
 1725SOL     hw 6898   5.404   1.356   2.710  1.7434  0.3187  3.8014
 1725SOL     hw 6899   5.393   1.492   2.645 -1.2645 -1.9037 -0.8598
 1725SOL     vw 6900   5.439   1.433   2.689  0.4275  0.1523  0.3034
 1726SOL     ow 6901   3.084   5.204   5.599  0.2138  0.2020  0.2426
 1726SOL     hw 6902   3.125   5.289   5.610 -0.8606  0.9478 -1.1888
 1726SOL     hw 6903   3.042   5.187   5.683 -0.3353  1.5439  0.2701
 1726SOL     vw 6904   3.084   5.213   5.612 -0.0004  0.4773  0.0572
 1727SOL     ow 6905   6.103   4.581   0.205  0.5501  0.4478 -0.0683
 1727SOL     hw 6906   6.042   4.646   0.169 -1.9394 -2.0324 -0.6179
 1727SOL     hw 6907   6.153   4.550   0.129 -1.2054 -1.1936 -0.6204
 1727SOL     vw 6908   6.101   4.586   0.190 -0.0100 -0.0958 -0.2136
 1728SOL     ow 6909   6.520   1.859   6.314  0.1467  0.0745  0.1038
 1728SOL     hw 6910   6.572   1.792   6.357  0.2569  1.1358  1.7457
 1728SOL     hw 6911   6.431   1.824   6.314  0.4373 -0.6709 -0.3796
 1728SOL     vw 6912   6.515   1.846   6.320  0.1998  0.1162  0.2565
 1729SOL     ow 6913   5.751   6.985   3.176  0.8037 -0.3871  0.2241
 1729SOL     hw 6914   5.744   7.080   3.167  0.1716 -0.1202  2.7091
 1729SOL     hw 6915   5.845   6.966   3.170  0.9964  0.4858  0.4154
 1729SOL     vw 6916   5.762   6.995   3.174  0.7460 -0.2367  0.5772
 1730SOL     ow 6917   7.256   4.609   4.081 -0.2929 -0.8166  0.5628
 1730SOL     hw 6918   7.211   4.620   3.997  2.3705  0.1523 -0.8232
 1730SOL     hw 6919   7.311   4.531   4.069 -0.7228 -1.3497  1.8423
 1730SOL     vw 6920   7.257   4.600   4.068  0.0019 -0.7589  0.5486
 1731SOL     ow 6921   0.079   6.253   4.081 -0.2261  0.0333  0.5841
 1731SOL     hw 6922   0.075   6.277   3.988 -0.5911  2.2610  1.1096
 1731SOL     hw 6923   0.172   6.256   4.102 -0.0698 -1.2411  0.1314
 1731SOL     vw 6924   0.091   6.257   4.071 -0.2536  0.1588  0.5934
 1732SOL     ow 6925   0.604   2.649   6.295  0.7332 -0.1566  0.4919
 1732SOL     hw 6926   0.610   2.637   6.200 -0.5155 -1.1758  0.5133
 1732SOL     hw 6927   0.524   2.699   6.308  0.9714  0.0986  1.0020
 1732SOL     vw 6928   0.594   2.654   6.284  0.5999 -0.2575  0.5620
 1733SOL     ow 6929   4.266   2.475   6.126 -0.0274 -0.2758 -0.5195
 1733SOL     hw 6930   4.345   2.526   6.107 -0.9044  1.8496  1.1420
 1733SOL     hw 6931   4.298   2.401   6.178  0.8142  1.2116  1.2158
 1733SOL     vw 6932   4.281   2.472   6.130 -0.0319  0.2010 -0.0715
 1734SOL     ow 6933   2.403   0.561   7.311  0.2502 -0.2889 -0.0509
 1734SOL     hw 6934   2.453   0.632   7.271  2.0812 -2.0934 -1.1264
 1734SOL     hw 6935   2.325   0.552   7.255 -0.4777  1.3992  0.6220
 1734SOL     vw 6936   2.399   0.569   7.298  0.3957 -0.3043 -0.1040
 1735SOL     ow 6937   7.350   2.699   1.443  0.3202 -0.1325 -0.5019
 1735SOL     hw 6938   7.351   2.793   1.460 -2.1322 -0.0542 -0.3837
 1735SOL     hw 6939   7.348   2.693   1.347 -1.6094  0.0797 -0.5201
 1735SOL     vw 6940   7.350   2.711   1.432 -0.2580 -0.0942 -0.4887
 1736SOL     ow 6941   0.962   7.365   6.268 -0.3505 -0.5898 -0.7917
 1736SOL     hw 6942   0.983   7.281   6.229 -1.6702 -0.3729 -2.0475
 1736SOL     hw 6943   0.867   7.364   6.277 -0.1687 -0.5600  2.3487
 1736SOL     vw 6944   0.952   7.354   6.264 -0.5006 -0.5572 -0.5431
 1737SOL     ow 6945   2.507   0.899   0.765  0.0265 -0.2170 -0.7233
 1737SOL     hw 6946   2.557   0.980   0.754 -1.1898  0.4833 -1.2401
 1737SOL     hw 6947   2.569   0.830   0.741  1.7959  0.3415  1.8113
 1737SOL     vw 6948   2.522   0.901   0.761  0.0997 -0.0509 -0.4571
 1738SOL     ow 6949   2.324   1.038   0.238  1.0332 -0.6396 -0.1421
 1738SOL     hw 6950   2.247   0.992   0.206  0.5486  0.6521 -0.8976
 1738SOL     hw 6951   2.379   1.051   0.161 -0.0997  2.4117 -0.5741
 1738SOL     vw 6952   2.321   1.034   0.224  0.8197 -0.0665 -0.2988
 1739SOL     ow 6953   6.873   3.235   7.015  0.7784 -0.2452  0.0125
 1739SOL     hw 6954   6.961   3.273   7.022  1.0357 -0.6868 -0.7336
 1739SOL     hw 6955   6.874   3.162   7.076  1.1783 -0.6935 -0.5198
 1739SOL     vw 6956   6.885   3.231   7.024  0.8652 -0.3628 -0.1562
 1740SOL     ow 6957   3.182   7.466   4.696 -0.2801  0.1140 -0.1803
 1740SOL     hw 6958   3.110   7.478   4.757 -1.5000  1.8360 -1.8423
 1740SOL     hw 6959   3.233   7.546   4.703  0.5727 -0.4212 -0.1697
 1740SOL     vw 6960   3.179   7.478   4.705 -0.3287  0.2706 -0.3979
 1741SOL     ow 6961   3.267   7.287   5.102 -0.0810  0.5287  0.3186
 1741SOL     hw 6962   3.235   7.363   5.152  0.7308 -0.5770  2.6888
 1741SOL     hw 6963   3.193   7.262   5.047 -0.5929  2.5994 -0.0111
 1741SOL     vw 6964   3.253   7.294   5.102 -0.0414  0.6559  0.5877
 1742SOL     ow 6965   2.778   7.411   4.178 -0.4205  0.3852 -0.4929
 1742SOL     hw 6966   2.696   7.459   4.162  0.2871  1.5570 -0.7549
 1742SOL     hw 6967   2.765   7.368   4.262 -0.4286  2.5775  0.7027
 1742SOL     vw 6968   2.765   7.412   4.187 -0.3283  0.8292 -0.3698
 1743SOL     ow 6969   0.446   1.492   4.580  0.5801  0.5457 -0.5759
 1743SOL     hw 6970   0.421   1.513   4.490 -0.5381  0.1168 -0.3859
 1743SOL     hw 6971   0.495   1.410   4.573 -0.4203 -0.0694 -0.7174
 1743SOL     vw 6972   0.449   1.484   4.567  0.3006  0.4079 -0.5696
 1744SOL     ow 6973   3.441   1.315   1.328 -0.1602 -0.2160  0.0529
 1744SOL     hw 6974   3.418   1.373   1.400  2.7181  1.7778 -0.4612
 1744SOL     hw 6975   3.407   1.357   1.249 -1.1215 -1.0936 -0.0194
 1744SOL     vw 6976   3.434   1.328   1.327  0.0927 -0.0688 -0.0246
 1745SOL     ow 6977   4.005   1.962   0.278 -0.6179 -0.5520 -0.1318
 1745SOL     hw 6978   3.934   1.968   0.214 -0.1389 -3.3996 -1.0930
 1745SOL     hw 6979   4.071   2.024   0.247 -0.5400 -1.6338 -2.2704
 1745SOL     vw 6980   4.004   1.971   0.265 -0.5445 -1.0704 -0.5408
 1746SOL     ow 6981   5.581   0.010   1.094  0.7146  0.5928  0.0902
 1746SOL     hw 6982   5.531  -0.017   1.171 -0.4143 -1.4465 -1.2615
 1746SOL     hw 6983   5.540   0.092   1.067  0.0834  0.5100  0.7407
 1746SOL     vw 6984   5.569   0.017   1.101  0.4821  0.3129 -0.0023
 1747SOL     ow 6985   6.793   6.503   6.557 -0.1576 -0.4217  0.0502
 1747SOL     hw 6986   6.863   6.558   6.522 -0.9494 -0.5905 -2.0107
 1747SOL     hw 6987   6.715   6.558   6.551 -0.7518 -1.3128 -0.9002
 1747SOL     vw 6988   6.792   6.518   6.551 -0.3405 -0.5615 -0.3469
 1748SOL     ow 6989   2.185   6.885   1.509  0.6927  0.1563  0.2564
 1748SOL     hw 6990   2.190   6.915   1.599  1.4177  0.0849  0.2530
 1748SOL     hw 6991   2.268   6.913   1.470 -0.5141  2.1663 -1.0346
 1748SOL     vw 6992   2.197   6.892   1.516  0.6292  0.4122  0.0857
 1749SOL     ow 6993   2.017   5.128   6.326  0.2081 -0.7874 -0.0563
 1749SOL     hw 6994   2.005   5.158   6.417  0.0894  1.8707 -0.8436
 1749SOL     hw 6995   1.936   5.155   6.282  1.2999  0.3727 -1.4617
 1749SOL     vw 6996   2.005   5.136   6.333  0.3365 -0.2835 -0.3455
 1750SOL     ow 6997   4.668   4.261   5.562  0.2702  0.1351 -0.0889
 1750SOL     hw 6998   4.607   4.320   5.519  1.2671  1.4790  0.2918
 1750SOL     hw 6999   4.694   4.199   5.494  1.4561  1.9366 -1.3515
 1750SOL     vw 7000   4.663   4.260   5.548  0.5581  0.5500 -0.2055
 1751SOL     ow 7001   4.265   0.719   3.789 -0.0664 -0.2399  0.2162
 1751SOL     hw 7002   4.207   0.709   3.864 -0.8867  0.3208 -0.3306
 1751SOL     hw 7003   4.215   0.770   3.726  0.7667 -0.3393 -0.5523
 1751SOL     vw 7004   4.251   0.725   3.790 -0.0646 -0.1791  0.0426
 1752SOL     ow 7005   2.158   2.437   2.288  0.3563  0.4292  0.4716
 1752SOL     hw 7006   2.220   2.373   2.254  0.3431 -0.3322  1.8278
 1752SOL     hw 7007   2.213   2.510   2.316  0.6303 -0.1267  1.4133
 1752SOL     vw 7008   2.173   2.438   2.287  0.3906  0.2555  0.7747
 1753SOL     ow 7009   5.676   3.136   1.465 -0.3952  0.6387  0.7706
 1753SOL     hw 7010   5.644   3.046   1.455 -2.7550  1.5987 -1.8803
 1753SOL     hw 7011   5.725   3.153   1.385  0.3288  1.6156  1.4009
 1753SOL     vw 7012   5.678   3.127   1.453 -0.6113  0.8943  0.5040
 1754SOL     ow 7013   2.050   3.275   0.687  0.3098 -0.2166  0.4757
 1754SOL     hw 7014   2.068   3.367   0.708 -0.0131 -0.5000  2.0775
 1754SOL     hw 7015   2.133   3.230   0.704 -0.6484 -0.8798  3.9622
 1754SOL     vw 7016   2.063   3.281   0.692  0.1410 -0.3415  1.1470
 1755SOL     ow 7017   7.004   4.608   4.511  0.2591 -0.1385  0.0484
 1755SOL     hw 7018   6.952   4.686   4.491 -0.8448 -0.6287  0.9488
 1755SOL     hw 7019   6.993   4.552   4.434 -1.7271 -0.8404  0.7884
 1755SOL     vw 7020   6.996   4.611   4.498 -0.1485 -0.2956  0.2651
 1756SOL     ow 7021   4.428   5.883   6.008  0.8850 -0.1037 -0.4306
 1756SOL     hw 7022   4.347   5.861   6.054  2.0833  0.1159  1.9098
 1756SOL     hw 7023   4.407   5.869   5.915 -1.4698 -1.1168  0.1754
 1756SOL     vw 7024   4.415   5.879   6.002  0.7324 -0.2086 -0.0420
 1757SOL     ow 7025   6.210   2.403   2.472  0.3234  0.3284 -0.2068
 1757SOL     hw 7026   6.211   2.449   2.556  0.9238 -2.4142  1.3917
 1757SOL     hw 7027   6.300   2.373   2.460 -0.0247 -0.3672 -1.2226
 1757SOL     vw 7028   6.222   2.405   2.481  0.3564 -0.1253 -0.1299
 1758SOL     ow 7029   6.783   4.514   1.485  0.5738  0.0695  0.3543
 1758SOL     hw 7030   6.810   4.500   1.576 -0.6588 -0.8503  0.5978
 1758SOL     hw 7031   6.812   4.435   1.439 -0.0440 -0.0973  0.2448
 1758SOL     vw 7032   6.790   4.502   1.491  0.3297 -0.0741  0.3719
 1759SOL     ow 7033   3.125   4.105   2.496  0.4414 -0.4120  1.0398
 1759SOL     hw 7034   3.140   4.187   2.450  1.5802 -0.7014  0.8615
 1759SOL     hw 7035   3.154   4.121   2.585  0.5243 -0.5688  1.0422
 1759SOL     vw 7036   3.131   4.118   2.501  0.6024 -0.4706  1.0164
 1760SOL     ow 7037   6.325   1.519   2.183  0.3298 -0.1458  0.3192
 1760SOL     hw 7038   6.405   1.509   2.133  1.1380  0.4186  1.4433
 1760SOL     hw 7039   6.355   1.533   2.273 -1.0066  0.7212  0.6595
 1760SOL     vw 7040   6.339   1.520   2.189  0.2599  0.0430  0.5124
 1761SOL     ow 7041   1.532   4.969   1.977  0.2246  1.0006  0.6714
 1761SOL     hw 7042   1.473   5.020   1.921  1.4338  2.0821  0.3285
 1761SOL     hw 7043   1.595   5.033   2.010  2.8992 -0.4336 -1.1735
 1761SOL     vw 7044   1.533   4.984   1.974  0.7371  0.9539  0.3828
 1762SOL     ow 7045   6.708   4.843   2.413 -0.7775 -0.0579  0.7383
 1762SOL     hw 7046   6.717   4.749   2.430 -1.3785 -0.0632  1.0284
 1762SOL     hw 7047   6.706   4.850   2.317 -3.0314 -0.5818  0.6942
 1762SOL     vw 7048   6.709   4.831   2.403 -1.1544 -0.1276  0.7708
 1763SOL     ow 7049   4.488   2.651   0.482 -0.3847 -0.2855  0.4537
 1763SOL     hw 7050   4.526   2.711   0.546  0.3367  2.0629 -2.0052
 1763SOL     hw 7051   4.394   2.673   0.481 -1.0616 -2.6102  2.9216
 1763SOL     vw 7052   4.480   2.662   0.490 -0.3791 -0.2823  0.4549
 1764SOL     ow 7053   3.944   2.716   7.180  0.3647  0.1053  0.2299
 1764SOL     hw 7054   3.850   2.716   7.197  0.6454 -1.8205  2.0813
 1764SOL     hw 7055   3.967   2.809   7.176 -1.2358  0.6385  2.0111
 1764SOL     vw 7056   3.934   2.729   7.181  0.1905 -0.0784  0.7093
 1765SOL     ow 7057   6.349   0.566   2.216 -0.1037 -0.1378 -0.3001
 1765SOL     hw 7058   6.440   0.578   2.241  0.2169 -0.4974 -1.2278
 1765SOL     hw 7059   6.317   0.654   2.198 -0.6366  0.2423  2.2186
 1765SOL     vw 7060   6.357   0.579   2.217 -0.1316 -0.1351 -0.0902
 1766SOL     ow 7061   5.035   2.137   2.867 -0.5629 -0.1504 -0.0632
 1766SOL     hw 7062   4.970   2.071   2.894  0.7776 -1.2268  0.7036
 1766SOL     hw 7063   5.118   2.089   2.865  0.0949  0.9623 -1.9441
 1766SOL     vw 7064   5.037   2.122   2.871 -0.2995 -0.1458 -0.2102
 1767SOL     ow 7065   1.780   5.355   4.415 -0.2712  0.2974 -0.4282
 1767SOL     hw 7066   1.781   5.320   4.505 -2.4996  0.6709 -0.1922
 1767SOL     hw 7067   1.863   5.327   4.378  0.0873 -1.1382  1.2871
 1767SOL     vw 7068   1.791   5.347   4.422 -0.5179  0.1574 -0.1707
 1768SOL     ow 7069   6.020   4.636   6.849  0.2960  0.0669  1.4286
 1768SOL     hw 7070   6.058   4.684   6.922  0.8652 -0.8396  1.7422
 1768SOL     hw 7071   5.981   4.558   6.889  0.1677 -0.1887  0.8243
 1768SOL     vw 7072   6.020   4.632   6.864  0.3543 -0.0863  1.3902
 1769SOL     ow 7073   0.315   4.066   3.100  0.9484 -0.0025 -0.0980
 1769SOL     hw 7074   0.284   4.135   3.042 -0.8268  1.1886  2.1482
 1769SOL     hw 7075   0.365   4.112   3.168 -1.2872 -0.6761  2.1285
 1769SOL     vw 7076   0.318   4.081   3.101  0.4192  0.0656  0.4921
 1770SOL     ow 7077   5.449   4.740   7.293 -0.1466 -0.2899 -0.8093
 1770SOL     hw 7078   5.517   4.792   7.251 -0.7916  0.4094 -1.0157
 1770SOL     hw 7079   5.423   4.676   7.227  0.8561 -1.1007 -0.4538
 1770SOL     vw 7080   5.455   4.739   7.279 -0.0994 -0.3047 -0.7896
 1771SOL     ow 7081   1.651   4.623   3.679 -0.0850 -0.6383 -0.2265
 1771SOL     hw 7082   1.566   4.653   3.713 -0.1836 -0.6878 -0.4312
 1771SOL     hw 7083   1.634   4.602   3.587  0.3437  0.1298 -0.4859
 1771SOL     vw 7084   1.637   4.624   3.672 -0.0415 -0.5436 -0.2878
 1772SOL     ow 7085   5.807   4.817   6.820  0.2618  0.4340  0.0785
 1772SOL     hw 7086   5.754   4.805   6.741  0.8307  1.5661 -0.4967
 1772SOL     hw 7087   5.881   4.757   6.809  0.4893  0.7979 -0.3877
 1772SOL     vw 7088   5.810   4.807   6.808  0.3672  0.6313 -0.0591
 1773SOL     ow 7089   6.970   5.654   1.312 -0.0617 -0.2371  0.1094
 1773SOL     hw 7090   7.038   5.587   1.327 -1.4265 -2.0550 -1.3017
 1773SOL     hw 7091   6.959   5.655   1.217 -2.0492 -0.0776  0.3095
 1773SOL     vw 7092   6.978   5.645   1.302 -0.5038 -0.4559 -0.0504
 1774SOL     ow 7093   6.200   3.203   7.111  0.1700  0.0518 -0.3733
 1774SOL     hw 7094   6.171   3.270   7.174 -2.5758  0.0211 -1.4972
 1774SOL     hw 7095   6.221   3.252   7.032 -1.9539 -0.3314 -1.2363
 1774SOL     vw 7096   6.199   3.218   7.109 -0.4728 -0.0030 -0.6354
 1775SOL     ow 7097   2.695   6.662   4.802  0.2359 -0.5879 -0.3792
 1775SOL     hw 7098   2.684   6.568   4.788 -0.8096 -0.8805  2.0216
 1775SOL     hw 7099   2.613   6.691   4.842  1.4441  0.8390  1.2170
 1775SOL     vw 7100   2.683   6.654   4.806  0.2573 -0.4380  0.1483
 1776SOL     ow 7101   4.802   3.889   3.852 -0.0150 -0.0921 -0.1991
 1776SOL     hw 7102   4.878   3.947   3.858 -0.9683  1.0530  2.3927
 1776SOL     hw 7103   4.730   3.941   3.887 -0.9141 -2.8121  2.3378
 1776SOL     vw 7104   4.802   3.904   3.857 -0.2596 -0.2999  0.4777
 1777SOL     ow 7105   0.347   6.002   7.347  0.0529 -0.1658  0.7857
 1777SOL     hw 7106   0.355   6.097   7.359 -0.3344 -0.0735  0.3045
 1777SOL     hw 7107   0.270   5.990   7.292  0.4725 -0.7282  0.3028
 1777SOL     vw 7108   0.338   6.013   7.342  0.0572 -0.2277  0.6588
 1778SOL     ow 7109   3.474   2.605   0.981 -0.3892 -0.1454  0.0176
 1778SOL     hw 7110   3.551   2.554   0.955 -1.5441 -1.9169 -0.1346
 1778SOL     hw 7111   3.509   2.676   1.034  1.3503 -0.9671  0.0432
 1778SOL     vw 7112   3.489   2.608   0.985 -0.3122 -0.4876  0.0009
 1779SOL     ow 7113   5.748   6.950   0.117  0.0466 -0.3795  0.5332
 1779SOL     hw 7114   5.660   6.911   0.113  0.3466 -1.0450  0.2009
 1779SOL     hw 7115   5.735   7.032   0.164 -0.8985 -0.0685 -0.2232
 1779SOL     vw 7116   5.734   6.955   0.122 -0.0386 -0.4265  0.3895
 1780SOL     ow 7117   1.530   6.938   2.818 -0.2357 -0.5398  0.4186
 1780SOL     hw 7118   1.467   6.866   2.826  0.4983 -1.4858 -1.4580
 1780SOL     hw 7119   1.483   7.006   2.772  0.3070 -1.6754 -2.0018
 1780SOL     vw 7120   1.516   6.937   2.813 -0.0672 -0.8144 -0.1483
 1781SOL     ow 7121   7.253   6.668   6.926  0.0964 -0.0357 -0.1284
 1781SOL     hw 7122   7.252   6.605   6.854 -0.2353 -0.1308 -0.0404
 1781SOL     hw 7123   7.169   6.713   6.919 -0.2826 -0.6051  0.6981
 1781SOL     vw 7124   7.242   6.666   6.915  0.0029 -0.1233 -0.0076
 1782SOL     ow 7125   3.657   1.818   1.651  0.2256 -0.1607  0.3756
 1782SOL     hw 7126   3.570   1.833   1.614  0.6392 -1.4836 -1.2511
 1782SOL     hw 7127   3.652   1.729   1.688  0.5370  0.2293  1.4004
 1782SOL     vw 7128   3.645   1.808   1.651  0.3213 -0.2838  0.2962
 1783SOL     ow 7129   2.848   3.563   5.767  1.1946  0.4039 -0.1181
 1783SOL     hw 7130   2.931   3.545   5.811  0.7353 -1.2742  0.1305
 1783SOL     hw 7131   2.848   3.503   5.692  0.2418  0.4146 -0.1352
 1783SOL     vw 7132   2.859   3.552   5.763  1.0083  0.1838 -0.0877
 1784SOL     ow 7133   5.835   3.405   3.124 -0.7051  0.0970  0.1971
 1784SOL     hw 7134   5.861   3.484   3.078  0.0039 -0.5621 -0.5724
 1784SOL     hw 7135   5.784   3.436   3.198 -0.1793  1.2826  0.0832
 1784SOL     vw 7136   5.832   3.419   3.127 -0.5419  0.1665  0.0806
 1785SOL     ow 7137   7.341   1.199   1.051  0.2270 -0.0316 -0.1212
 1785SOL     hw 7138   7.331   1.194   1.146 -1.5491 -4.1862 -0.2893
 1785SOL     hw 7139   7.280   1.267   1.024 -0.0956  0.4379  1.6392
 1785SOL     vw 7140   7.332   1.207   1.060 -0.0501 -0.5178  0.0889
 1786SOL     ow 7141   1.189   7.423   6.921  0.3313  0.1094 -0.2337
 1786SOL     hw 7142   1.107   7.377   6.901 -0.5366  1.2356  0.6091
 1786SOL     hw 7143   1.252   7.353   6.938 -0.6524 -0.7747 -0.1480
 1786SOL     vw 7144   1.187   7.407   6.920  0.0870  0.1414 -0.1116
 1787SOL     ow 7145   0.975   0.448   2.634 -0.2095  0.6831 -0.1057
 1787SOL     hw 7146   0.985   0.464   2.728  4.1431 -2.7771  0.3943
 1787SOL     hw 7147   1.010   0.526   2.592  1.5824  0.7455  1.3763
 1787SOL     vw 7148   0.981   0.460   2.641  0.6012  0.2348  0.1558
 1788SOL     ow 7149   3.957   1.064   6.210  0.0247 -0.6279 -0.6621
 1788SOL     hw 7150   3.986   1.151   6.183 -0.3201 -0.8255 -1.7188
 1788SOL     hw 7151   3.862   1.072   6.221 -0.0483 -0.9287 -1.0341
 1788SOL     vw 7152   3.948   1.076   6.208 -0.0303 -0.6936 -0.8509
 1789SOL     ow 7153   6.610   5.913   2.065  0.3054 -0.1926 -0.0272
 1789SOL     hw 7154   6.584   5.977   1.998 -0.5102 -2.2001 -1.7114
 1789SOL     hw 7155   6.695   5.944   2.095 -0.6197  2.3929  0.1883
 1789SOL     vw 7156   6.618   5.926   2.060  0.0758 -0.1163 -0.2210
 1790SOL     ow 7157   1.147   1.476   3.248  0.4312 -0.8982 -0.3496
 1790SOL     hw 7158   1.159   1.386   3.218  0.3353 -1.3054  0.7750
 1790SOL     hw 7159   1.055   1.480   3.274 -0.1360  0.1349 -2.2641
 1790SOL     vw 7160   1.136   1.465   3.247  0.3437 -0.8157 -0.4537
 1791SOL     ow 7161   4.001   6.751   2.287  0.3442 -0.7061  0.1378
 1791SOL     hw 7162   4.046   6.679   2.245  1.7230 -0.3470  0.9406
 1791SOL     hw 7163   3.976   6.809   2.215  0.8389 -1.0908 -0.3502
 1791SOL     vw 7164   4.003   6.749   2.272  0.5913 -0.7095  0.1794
 1792SOL     ow 7165   0.632   0.553   6.931  0.5276  0.0296  0.1639
 1792SOL     hw 7166   0.662   0.483   6.989 -1.7437 -3.1376 -2.1471
 1792SOL     hw 7167   0.706   0.567   6.871  0.8782 -0.6856  0.4140
 1792SOL     vw 7168   0.646   0.546   6.931  0.2742 -0.4826 -0.1082
 1793SOL     ow 7169   0.513   4.416   1.726 -0.9915  0.3971  0.1032
 1793SOL     hw 7170   0.473   4.503   1.718 -2.1586 -0.1189  0.1143
 1793SOL     hw 7171   0.493   4.388   1.815 -0.5243  0.1544  0.1355
 1793SOL     vw 7172   0.505   4.424   1.737 -1.0838  0.2968  0.1089
 1794SOL     ow 7173   0.135   4.395   0.395 -0.3337 -0.6611  0.0474
 1794SOL     hw 7174   0.095   4.332   0.335  0.6145 -0.0412 -1.2834
 1794SOL     hw 7175   0.134   4.478   0.348  1.1002 -0.3024  0.5698
 1794SOL     vw 7176   0.130   4.398   0.381 -0.0194 -0.5319 -0.0593
 1795SOL     ow 7177   5.850   1.468   6.077 -0.4567 -0.8360  0.9369
 1795SOL     hw 7178   5.876   1.400   6.140  0.1280 -1.0361  0.4781
 1795SOL     hw 7179   5.892   1.548   6.109  1.8235 -1.3887 -0.4847
 1795SOL     vw 7180   5.859   1.469   6.090 -0.0789 -0.9353  0.6888
 1796SOL     ow 7181   2.288   4.589   1.733 -0.4233  0.9711  0.0882
 1796SOL     hw 7182   2.203   4.553   1.708  0.9628 -0.8905 -2.3472
 1796SOL     hw 7183   2.312   4.541   1.812 -1.4265  1.2490  0.5822
 1796SOL     vw 7184   2.280   4.578   1.740 -0.3726  0.7625 -0.1680
 1797SOL     ow 7185   5.061   6.387   5.917 -0.2800  0.8164  0.6242
 1797SOL     hw 7186   4.985   6.421   5.870 -0.1551  1.9434  1.2059
 1797SOL     hw 7187   5.129   6.378   5.850 -1.2434 -1.4190 -0.1636
 1797SOL     vw 7188   5.060   6.390   5.902 -0.3905  0.6702  0.5970
 1798SOL     ow 7189   3.397   6.753   2.241  0.1882  0.0917 -0.1584
 1798SOL     hw 7190   3.350   6.692   2.297  0.0118  1.0004  0.7241
 1798SOL     hw 7191   3.329   6.805   2.198  0.2940 -1.1397 -1.8946
 1798SOL     vw 7192   3.382   6.752   2.243  0.1788  0.0491 -0.2712
 1799SOL     ow 7193   4.510   4.692   1.291  0.4265 -0.6235  0.0586
 1799SOL     hw 7194   4.471   4.666   1.208 -1.2812 -0.0892  0.6561
 1799SOL     hw 7195   4.577   4.756   1.267  1.6364 -2.2128 -1.0564
 1799SOL     vw 7196   4.514   4.697   1.277  0.3607 -0.7627 -0.0097
 1800SOL     ow 7197   6.365   1.640   4.908  0.1942 -0.3026  0.1481
 1800SOL     hw 7198   6.408   1.562   4.873 -1.5560 -2.2456  2.0253
 1800SOL     hw 7199   6.286   1.651   4.855 -1.6886 -2.3710  2.3105
 1800SOL     vw 7200   6.360   1.631   4.897 -0.2849 -0.8319  0.6809
 1801SOL     ow 7201   2.573   5.346   4.632  0.2667  0.1120  0.4998
 1801SOL     hw 7202   2.654   5.295   4.643  1.5388  1.8932 -0.1178
 1801SOL     hw 7203   2.568   5.363   4.538 -0.7704  0.1237  0.5539
 1801SOL     vw 7204   2.583   5.342   4.621  0.2975  0.3486  0.4256
 1802SOL     ow 7205   3.683   4.138   7.107 -0.3112 -0.1427 -0.0588
 1802SOL     hw 7206   3.718   4.146   7.196  2.7573 -1.8528 -0.9763
 1802SOL     hw 7207   3.657   4.046   7.099 -0.5403 -0.0133 -0.9625
 1802SOL     vw 7208   3.684   4.127   7.118  0.0635 -0.3514 -0.2990
 1803SOL     ow 7209   4.902   0.746   5.566  0.0997  0.3633  0.9067
 1803SOL     hw 7210   4.984   0.796   5.565 -0.2221  1.1602 -3.2351
 1803SOL     hw 7211   4.930   0.655   5.562  0.9312  0.6438 -1.2055
 1803SOL     vw 7212   4.917   0.741   5.565  0.1669  0.5054  0.0815
 1804SOL     ow 7213   0.677   5.500   6.586  0.4584  0.4482 -0.0327
 1804SOL     hw 7214   0.717   5.573   6.634  0.8060 -0.5175  1.2214
 1804SOL     hw 7215   0.629   5.541   6.514  1.0193  1.8693  0.3759
 1804SOL     vw 7216   0.676   5.515   6.583  0.5783  0.5083  0.1869
 1805SOL     ow 7217   6.497   2.504   4.347 -0.4821 -0.1906 -0.3673
 1805SOL     hw 7218   6.414   2.505   4.300  0.0961  1.8961 -1.4654
 1805SOL     hw 7219   6.513   2.411   4.366 -2.0067 -0.8381 -1.9931
 1805SOL     vw 7220   6.488   2.492   4.343 -0.6068 -0.0007 -0.7269
 1806SOL     ow 7221   4.618   5.661   2.639 -0.9460 -0.5828 -0.0086
 1806SOL     hw 7222   4.619   5.591   2.573  1.8500  0.9368 -1.8175
 1806SOL     hw 7223   4.543   5.715   2.615 -0.0352 -0.1023 -2.0575
 1806SOL     vw 7224   4.608   5.659   2.627 -0.4568 -0.3190 -0.5176
 1807SOL     ow 7225   1.935   5.904   4.344 -0.0421  0.3825  0.3322
 1807SOL     hw 7226   1.951   5.997   4.360  1.4370  0.2673 -0.2642
 1807SOL     hw 7227   2.016   5.860   4.372  1.2594 -0.1876 -3.6700
 1807SOL     vw 7228   1.948   5.910   4.350  0.3247  0.2921 -0.2749
 1808SOL     ow 7229   2.766   3.020   4.074 -0.2672 -0.4974  0.0658
 1808SOL     hw 7230   2.717   2.943   4.043  1.3130 -0.7661 -2.0046
 1808SOL     hw 7231   2.855   2.987   4.090  0.1227  0.6542  0.3815
 1808SOL     vw 7232   2.772   3.005   4.072 -0.0073 -0.3809 -0.1657
 1809SOL     ow 7233   7.465   2.716   3.641 -0.1863 -0.4150  0.2597
 1809SOL     hw 7234   7.503   2.782   3.582 -1.6466  1.2073  1.0461
 1809SOL     hw 7235   7.382   2.693   3.600 -0.6428 -0.1896  1.0347
 1809SOL     vw 7236   7.459   2.722   3.628 -0.4392 -0.1712  0.4656
 1810SOL     ow 7237   7.454   3.816   4.257 -0.2154  0.0712 -0.3430
 1810SOL     hw 7238   7.461   3.721   4.263 -0.1212  0.1317  0.8947
 1810SOL     hw 7239   7.422   3.843   4.343 -1.2090  1.0829 -1.0060
 1810SOL     vw 7240   7.451   3.807   4.270 -0.3343  0.2126 -0.2670
 1811SOL     ow 7241   5.954   3.233   2.993 -0.7213 -0.3839  0.7163
 1811SOL     hw 7242   5.887   3.288   3.032  0.0556  1.1700 -0.0541
 1811SOL     hw 7243   6.037   3.274   3.017 -0.0914 -1.4332  0.4324
 1811SOL     vw 7244   5.956   3.245   3.001 -0.5355 -0.3173  0.5772
 1812SOL     ow 7245   1.687   1.143   2.993  0.1889  0.7278  0.6811
 1812SOL     hw 7246   1.648   1.201   2.927  0.8454 -1.6337 -2.0036
 1812SOL     hw 7247   1.624   1.142   3.064 -2.5154  0.5368 -1.5426
 1812SOL     vw 7248   1.674   1.151   2.993 -0.0813  0.3911  0.0336
 1813SOL     ow 7249   5.643   7.480   4.945  0.4567 -0.2313  0.1508
 1813SOL     hw 7250   5.650   7.385   4.932 -0.7326 -0.1245 -1.6414
 1813SOL     hw 7251   5.734   7.509   4.957  1.1343 -1.2926 -1.9100
 1813SOL     vw 7252   5.656   7.471   4.945  0.3891 -0.3572 -0.3574
 1814SOL     ow 7253   7.118   6.148   1.298  0.1099 -0.3591 -0.1130
 1814SOL     hw 7254   7.117   6.067   1.349 -2.2970 -1.1353 -1.2706
 1814SOL     hw 7255   7.186   6.133   1.232  1.5852 -0.2803  1.2920
 1814SOL     vw 7256   7.127   6.135   1.296 -0.0129 -0.4511 -0.0803
 1815SOL     ow 7257   7.148   5.976   4.949 -0.2860  0.4705  0.3871
 1815SOL     hw 7258   7.147   5.920   5.027 -2.4578  2.4189  1.8738
 1815SOL     hw 7259   7.075   5.944   4.897 -1.2922  1.6148  1.0592
 1815SOL     vw 7260   7.139   5.964   4.953 -0.7052  0.8786  0.6721
 1816SOL     ow 7261   5.063   4.153   0.061 -0.0545  0.2694  0.2012
 1816SOL     hw 7262   4.986   4.170   0.007 -1.3367  1.4630  2.2638
 1816SOL     hw 7263   5.030   4.102   0.135  1.0348  1.1995  1.3734
 1816SOL     vw 7264   5.049   4.148   0.063 -0.0801  0.5496  0.6280
 1817SOL     ow 7265   3.645   5.770   1.820  1.0778  0.6461  0.3462
 1817SOL     hw 7266   3.604   5.845   1.862 -1.5815 -0.4746 -0.0644
 1817SOL     hw 7267   3.690   5.806   1.744 -0.2746  1.8300  0.0648
 1817SOL     vw 7268   3.646   5.784   1.816  0.5486  0.6545  0.2549
 1818SOL     ow 7269   6.540   7.230   6.055 -0.5715  0.8482  0.7542
 1818SOL     hw 7270   6.630   7.259   6.040  0.0388 -0.2350  2.1124
 1818SOL     hw 7271   6.499   7.234   5.968  1.2817 -0.2699 -0.2506
 1818SOL     vw 7272   6.546   7.234   6.041 -0.2468  0.5577  0.8008
 1819SOL     ow 7273   1.467   3.244   6.843 -0.6576  0.0327 -0.5035
 1819SOL     hw 7274   1.491   3.333   6.818  0.1921 -0.0742 -0.0813
 1819SOL     hw 7275   1.443   3.201   6.760  0.3106  0.2380 -0.9061
 1819SOL     vw 7276   1.467   3.250   6.829 -0.4177  0.0457 -0.5012
 1820SOL     ow 7277   6.892   6.660   4.060 -0.6791  0.5389 -0.3006
 1820SOL     hw 7278   6.850   6.727   4.113  1.4936  2.4141 -0.7786
 1820SOL     hw 7279   6.820   6.612   4.020 -2.3569  2.6797 -0.0330
 1820SOL     vw 7280   6.877   6.663   4.062 -0.6135  1.0688 -0.3283
 1821SOL     ow 7281   3.322   5.206   5.450  0.0504  0.5043 -0.0924
 1821SOL     hw 7282   3.354   5.275   5.507 -0.1890  0.2297  0.3792
 1821SOL     hw 7283   3.393   5.193   5.386 -0.0861  1.4730 -0.4547
 1821SOL     vw 7284   3.336   5.213   5.449  0.0008  0.5958 -0.0780
 1822SOL     ow 7285   3.903   0.627   7.268 -0.2826  0.3826 -0.3544
 1822SOL     hw 7286   3.972   0.610   7.204  0.3257 -0.4008  0.4911
 1822SOL     hw 7287   3.821   0.618   7.218  0.1864  0.2249 -1.1111
 1822SOL     vw 7288   3.901   0.624   7.253 -0.1404  0.2585 -0.3426
 1823SOL     ow 7289   2.601   3.659   5.481 -0.7829 -0.4270 -0.4791
 1823SOL     hw 7290   2.654   3.588   5.445  0.6212  0.0329  0.5585
 1823SOL     hw 7291   2.662   3.709   5.535 -2.0541  0.7735 -0.0869
 1823SOL     vw 7292   2.616   3.656   5.484 -0.7653 -0.2080 -0.2906
 1824SOL     ow 7293   2.138   1.447   3.246 -0.6099 -0.0934 -0.2313
 1824SOL     hw 7294   2.190   1.372   3.276 -1.8329 -1.5773 -1.5688
 1824SOL     hw 7295   2.202   1.511   3.217  0.4948 -0.3030  1.5716
 1824SOL     vw 7296   2.153   1.445   3.246 -0.6255 -0.3169 -0.1698
 1825SOL     ow 7297   1.083   7.103   6.209  0.3765 -0.2217  0.3446
 1825SOL     hw 7298   1.113   7.106   6.300  2.7105 -2.0391 -0.2689
 1825SOL     hw 7299   1.066   7.011   6.192  0.8810 -0.0400 -1.3181
 1825SOL     vw 7300   1.085   7.092   6.219  0.7511 -0.4373  0.0443
 1826SOL     ow 7301   4.519   5.904   3.568 -0.8149 -0.6421  0.4651
 1826SOL     hw 7302   4.579   5.859   3.627  1.3668  3.1363  1.4693
 1826SOL     hw 7303   4.471   5.965   3.624 -0.1814  1.6020 -1.3069
 1826SOL     vw 7304   4.520   5.906   3.583 -0.4432  0.1526  0.3639
 1827SOL     ow 7305   6.254   1.368   4.946  0.2473  0.3252 -0.0525
 1827SOL     hw 7306   6.208   1.371   4.862  1.3809 -0.0831 -0.7114
 1827SOL     hw 7307   6.208   1.432   5.001 -0.1776  0.9938 -1.1556
 1827SOL     vw 7308   6.242   1.377   4.942  0.3409  0.3595 -0.2849
 1828SOL     ow 7309   6.361   4.522   0.966 -0.1869 -1.0120  0.0673
 1828SOL     hw 7310   6.327   4.511   0.878 -0.6471  0.1658  0.0818
 1828SOL     hw 7311   6.371   4.616   0.977  0.3477 -1.1669  1.0942
 1828SOL     vw 7312   6.358   4.533   0.956 -0.1769 -0.8769  0.2047
 1829SOL     ow 7313   1.076   6.784   3.648  0.6926  0.0721 -0.2451
 1829SOL     hw 7314   1.007   6.819   3.591  1.2348  0.9946 -0.3528
 1829SOL     hw 7315   1.138   6.743   3.588  0.3550 -0.5835 -0.1620
 1829SOL     vw 7316   1.075   6.783   3.633  0.7196  0.1073 -0.2484
 1830SOL     ow 7317   5.161   6.889   3.493  0.2551 -0.5177 -0.1648
 1830SOL     hw 7318   5.148   6.892   3.588 -0.2653  1.3761 -0.2633
 1830SOL     hw 7319   5.138   6.799   3.469 -1.4614 -0.5203  1.2641
 1830SOL     vw 7320   5.156   6.877   3.502 -0.0401 -0.2680  0.0107
 1831SOL     ow 7321   5.074   6.723   6.177 -0.2442  0.5813  0.4611
 1831SOL     hw 7322   5.101   6.633   6.191 -1.1239  0.0169 -1.2977
 1831SOL     hw 7323   5.146   6.764   6.130 -0.4894  0.3741 -0.0929
 1831SOL     vw 7324   5.087   6.717   6.173 -0.3924  0.4792  0.1557
 1832SOL     ow 7325   0.088   2.650   0.432 -0.1779  0.1594  0.4351
 1832SOL     hw 7326   0.166   2.699   0.459 -0.2298  1.6193 -1.8780
 1832SOL     hw 7327   0.035   2.712   0.383 -0.8622 -1.8512 -1.5517
 1832SOL     vw 7328   0.091   2.665   0.429 -0.2750  0.0867 -0.1322
 1833SOL     ow 7329   7.298   2.497   3.018 -0.0369  0.8015  0.7302
 1833SOL     hw 7330   7.275   2.479   2.927 -0.9816 -1.7515  1.4071
 1833SOL     hw 7331   7.216   2.525   3.058 -0.2452 -0.7125  1.3890
 1833SOL     vw 7332   7.284   2.498   3.011 -0.1891  0.2650  0.9065
 1834SOL     ow 7333   2.391   3.969   6.538  0.1452 -0.4091 -0.2991
 1834SOL     hw 7334   2.472   3.996   6.495 -0.9732 -0.8467 -2.8702
 1834SOL     hw 7335   2.329   4.039   6.517 -0.5770 -0.8872  0.2014
 1834SOL     vw 7336   2.393   3.982   6.530 -0.0976 -0.5300 -0.5722
 1835SOL     ow 7337   5.763   6.324   4.892  0.3702 -0.5446 -0.2992
 1835SOL     hw 7338   5.785   6.233   4.913  0.8965  0.3013  3.6366
 1835SOL     hw 7339   5.846   6.363   4.865  0.6104 -0.7391  0.1452
 1835SOL     vw 7340   5.777   6.317   4.891  0.4711 -0.4590  0.2787
 1836SOL     ow 7341   7.050   2.481   1.223 -0.1093 -1.1795  0.0978
 1836SOL     hw 7342   7.133   2.525   1.205 -0.3029 -0.5063  0.7616
 1836SOL     hw 7343   6.984   2.536   1.181 -0.1082 -2.7010 -2.0393
 1836SOL     vw 7344   7.052   2.494   1.215 -0.1349 -1.2915 -0.0967
 1837SOL     ow 7345   5.083   0.040   2.746 -0.6043 -0.4933 -0.5003
 1837SOL     hw 7346   5.105   0.004   2.660  1.1862  0.2220 -0.3812
 1837SOL     hw 7347   4.992   0.014   2.760  0.0303 -3.4077 -1.1805
 1837SOL     vw 7348   5.074   0.032   2.736 -0.2840 -0.7834 -0.5742
 1838SOL     ow 7349   5.250   1.565   4.353 -0.0089  0.0165  0.6751
 1838SOL     hw 7350   5.340   1.552   4.384  0.7893  3.7273  0.3658
 1838SOL     hw 7351   5.257   1.561   4.258 -0.0390  0.8676  0.6320
 1838SOL     vw 7352   5.263   1.563   4.345  0.0920  0.6183  0.6287
 1839SOL     ow 7353   6.866   1.866   4.784 -0.3558 -0.4360 -0.0320
 1839SOL     hw 7354   6.887   1.953   4.752  2.7435 -0.7622  0.8481
 1839SOL     hw 7355   6.817   1.825   4.712  1.4662  0.7259 -2.0419
 1839SOL     vw 7356   6.862   1.872   4.771  0.2935 -0.3257 -0.1812
 1840SOL     ow 7357   6.536   3.605   1.962  0.0708  0.2749 -0.4443
 1840SOL     hw 7358   6.520   3.672   1.896  3.2014  1.8960  0.2532
 1840SOL     hw 7359   6.628   3.581   1.950  0.2472 -0.6807  2.1822
 1840SOL     vw 7360   6.546   3.610   1.952  0.5074  0.3628 -0.0057
 1841SOL     ow 7361   1.767   4.783   6.453 -0.7157  0.2183  0.0339
 1841SOL     hw 7362   1.716   4.860   6.479  0.8151  1.3080 -0.0215
 1841SOL     hw 7363   1.841   4.782   6.513 -0.9693 -1.5539  0.3705
 1841SOL     vw 7364   1.770   4.793   6.464 -0.5472  0.1283  0.0713
 1842SOL     ow 7365   4.087   6.051   4.865 -0.0084 -0.3717  0.1193
 1842SOL     hw 7366   4.060   6.056   4.957 -1.3162  0.5395 -0.2871
 1842SOL     hw 7367   4.179   6.079   4.865  0.0134 -0.4146  1.1443
 1842SOL     vw 7368   4.096   6.055   4.877 -0.1781 -0.2570  0.2007
 1843SOL     ow 7369   4.355   1.221   3.704  0.0325 -0.3096 -0.0469
 1843SOL     hw 7370   4.445   1.253   3.705  0.1564 -0.3196 -2.7964
 1843SOL     hw 7371   4.319   1.254   3.622 -2.8750  0.6219  1.4657
 1843SOL     vw 7372   4.362   1.229   3.693 -0.3347 -0.1880 -0.2100
 1844SOL     ow 7373   6.584   2.131   6.383  0.1881 -0.5571  0.0783
 1844SOL     hw 7374   6.500   2.168   6.356 -0.7013 -1.1686  1.8530
 1844SOL     hw 7375   6.579   2.039   6.357  0.6958 -0.3936 -0.6231
 1844SOL     vw 7376   6.572   2.124   6.376  0.1380 -0.6162  0.2198
 1845SOL     ow 7377   6.811   0.568   2.157 -0.1859  0.2411 -0.1182
 1845SOL     hw 7378   6.744   0.593   2.221  0.1248  0.8284 -0.0178
 1845SOL     hw 7379   6.882   0.532   2.211  0.4043  1.4527 -0.0495
 1845SOL     vw 7380   6.812   0.566   2.173 -0.0672  0.4784 -0.0958
 1846SOL     ow 7381   7.280   1.007   0.879  0.1024  0.6547  0.2861
 1846SOL     hw 7382   7.321   1.065   0.945  0.1918 -2.7182  3.5246
 1846SOL     hw 7383   7.354   0.967   0.834  0.0663  1.6675 -0.7175
 1846SOL     vw 7384   7.296   1.009   0.882  0.1094  0.3434  0.5810
 1847SOL     ow 7385   6.239   6.238   2.856  0.4590  0.1389 -0.5437
 1847SOL     hw 7386   6.196   6.160   2.821 -0.2102  0.3826 -0.2967
 1847SOL     hw 7387   6.313   6.254   2.798  1.9921 -1.9882  0.6819
 1847SOL     vw 7388   6.243   6.230   2.844  0.5729 -0.1097 -0.3494
 1848SOL     ow 7389   4.702   5.321   6.594 -0.1332 -0.6823 -0.2481
 1848SOL     hw 7390   4.645   5.397   6.607 -0.2940 -1.0807  1.5662
 1848SOL     hw 7391   4.738   5.334   6.506 -1.7949  0.3848 -0.8322
 1848SOL     vw 7392   4.699   5.333   6.584 -0.3741 -0.5939 -0.0858
 1849SOL     ow 7393   2.117   2.163   6.395  0.6877 -0.8165 -0.1129
 1849SOL     hw 7394   2.182   2.184   6.463  0.3492  1.2973 -0.3620
 1849SOL     hw 7395   2.142   2.218   6.321  1.3532 -3.4354 -1.9738
 1849SOL     vw 7396   2.129   2.173   6.394  0.7310 -0.8833 -0.3912
 1850SOL     ow 7397   0.008   3.060   1.340  0.2666 -0.4324  0.2116
 1850SOL     hw 7398   0.084   3.021   1.385 -0.2767  0.5852  2.1250
 1850SOL     hw 7399  -0.067   3.015   1.378 -0.2893  1.4465  1.4355
 1850SOL     vw 7400   0.008   3.049   1.351  0.1216 -0.0502  0.6256
 1851SOL     ow 7401   3.213   3.620   1.007  0.9138 -0.7960 -0.8563
 1851SOL     hw 7402   3.286   3.682   1.009 -0.0383  0.4229  1.6366
 1851SOL     hw 7403   3.139   3.671   1.042 -0.9563 -2.1938 -2.5830
 1851SOL     vw 7404   3.213   3.635   1.012  0.5413 -0.8196 -0.7552
 1852SOL     ow 7405   4.711   0.622   1.829  0.0365 -0.4129  0.4214
 1852SOL     hw 7406   4.781   0.666   1.877 -0.3428  0.6098  0.0726
 1852SOL     hw 7407   4.753   0.586   1.751  0.2993 -0.4055  0.5589
 1852SOL     vw 7408   4.726   0.623   1.825  0.0215 -0.2770  0.3935
 1853SOL     ow 7409   6.385   0.690   3.647 -0.2680 -0.0604 -0.6845
 1853SOL     hw 7410   6.470   0.731   3.634  0.1274 -0.5694  0.1390
 1853SOL     hw 7411   6.356   0.665   3.560 -0.3933  1.6665 -1.1737
 1853SOL     vw 7412   6.392   0.692   3.634 -0.2322  0.1002 -0.6403
 1854SOL     ow 7413   4.410   5.296   1.942  0.5413 -0.1810  0.1564
 1854SOL     hw 7414   4.503   5.315   1.931  0.9778 -1.4390  1.3922
 1854SOL     hw 7415   4.399   5.208   1.907  0.2083 -0.7606  1.6295
 1854SOL     vw 7416   4.421   5.287   1.936  0.5553 -0.4234  0.5138
 1855SOL     ow 7417   4.368   6.942   7.309  0.6806  0.4575  0.1821
 1855SOL     hw 7418   4.449   6.953   7.259 -0.2612  0.7117 -1.3680
 1855SOL     hw 7419   4.344   6.850   7.296  0.0554  0.7002 -0.4784
 1855SOL     vw 7420   4.376   6.931   7.300  0.4740  0.5229 -0.1094
 1856SOL     ow 7421   6.462   0.275   1.989  0.4372 -0.3474  0.1010
 1856SOL     hw 7422   6.419   0.359   1.971  0.1614 -0.5133 -0.0029
 1856SOL     hw 7423   6.413   0.211   1.938  2.0388 -0.2528 -1.6658
 1856SOL     vw 7424   6.450   0.278   1.980  0.6123 -0.3568 -0.1458
 1857SOL     ow 7425   4.543   6.040   1.390  0.1133 -0.4931  0.1107
 1857SOL     hw 7426   4.459   6.012   1.425 -1.7033  2.3965 -1.4681
 1857SOL     hw 7427   4.560   6.124   1.432  2.3210 -1.0540  0.4726
 1857SOL     vw 7428   4.534   6.048   1.400  0.1647 -0.1857 -0.0498
 1858SOL     ow 7429   2.669   2.015   7.491  0.0115 -0.1262  0.2692
 1858SOL     hw 7430   2.615   1.954   7.542  0.6894 -0.7284  0.2846
 1858SOL     hw 7431   2.728   1.958   7.441  0.0660  0.4921 -0.3858
 1858SOL     vw 7432   2.670   1.999   7.491  0.1082 -0.1239  0.1848
 1859SOL     ow 7433   2.195   6.784   3.168  0.0205 -0.5524  0.0973
 1859SOL     hw 7434   2.127   6.811   3.106  0.7071 -2.7551 -1.7881
 1859SOL     hw 7435   2.149   6.726   3.229 -0.8554  2.3520  2.3813
 1859SOL     vw 7436   2.180   6.780   3.168 -0.0044 -0.4599  0.1500
 1860SOL     ow 7437   5.959   3.462   1.457 -0.2263  0.3552  0.0347
 1860SOL     hw 7438   6.034   3.521   1.471  1.1802 -1.1779 -0.6787
 1860SOL     hw 7439   5.985   3.381   1.501 -1.6818 -0.0793  0.1239
 1860SOL     vw 7440   5.973   3.459   1.465 -0.2329  0.0955 -0.0476
 1861SOL     ow 7441   7.347   3.093   2.812 -0.7874 -0.5215 -0.1132
 1861SOL     hw 7442   7.253   3.090   2.793 -0.5365 -0.1141 -1.5246
 1861SOL     hw 7443   7.363   3.014   2.864 -1.9910 -0.3218  0.6215
 1861SOL     vw 7444   7.337   3.082   2.816 -0.9131 -0.4414 -0.2024
 1862SOL     ow 7445   2.340   5.522   7.382 -0.4327  0.0738  0.2229
 1862SOL     hw 7446   2.341   5.581   7.307  0.4727  0.5427  0.5817
 1862SOL     hw 7447   2.432   5.507   7.402 -0.5827 -2.4950 -0.6251
 1862SOL     vw 7448   2.352   5.528   7.375 -0.3331 -0.2031  0.1583
 1863SOL     ow 7449   7.192   7.259   4.934  0.0418  0.1515  0.0054
 1863SOL     hw 7450   7.229   7.179   4.972 -0.7529 -0.0583  0.3547
 1863SOL     hw 7451   7.100   7.258   4.960 -0.0966  0.9265 -0.4163
 1863SOL     vw 7452   7.185   7.248   4.942 -0.0815  0.2260 -0.0045
 1864SOL     ow 7453   5.164   3.864   1.849  0.3805 -0.8174  0.1004
 1864SOL     hw 7454   5.087   3.819   1.813 -1.7240  1.2928  1.6850
 1864SOL     hw 7455   5.194   3.807   1.920  0.7125 -1.9636 -0.9289
 1864SOL     vw 7456   5.158   3.851   1.853  0.1469 -0.6902  0.1737
 1865SOL     ow 7457   3.088   5.647   6.264 -0.3433 -0.2178  0.6990
 1865SOL     hw 7458   3.067   5.658   6.171 -3.0843 -1.2699  1.1115
 1865SOL     hw 7459   3.051   5.726   6.305  1.0034  0.3218  0.9201
 1865SOL     vw 7460   3.080   5.659   6.257 -0.5273 -0.2854  0.7823
 1866SOL     ow 7461   1.822   7.503   4.031  0.3141  0.2746 -0.1101
 1866SOL     hw 7462   1.868   7.459   4.104 -0.1701 -2.0278 -1.1128
 1866SOL     hw 7463   1.892   7.525   3.970  0.4789  0.0984  0.0105
 1866SOL     vw 7464   1.838   7.500   4.033  0.2719 -0.0524 -0.2265
 1867SOL     ow 7465   6.444   4.739   6.427  0.3351  0.0139 -0.0668
 1867SOL     hw 7466   6.432   4.769   6.337 -2.4174  0.1149  0.2301
 1867SOL     hw 7467   6.375   4.784   6.476  0.7815 -1.2239  1.7904
 1867SOL     vw 7468   6.433   4.749   6.421  0.0310 -0.1364  0.2177
 1868SOL     ow 7469   6.616   1.184   5.208 -0.1419 -0.1660 -0.4513
 1868SOL     hw 7470   6.683   1.240   5.249 -0.8858 -0.8545  1.8733
 1868SOL     hw 7471   6.611   1.215   5.118  2.1384  0.9907 -0.2656
 1868SOL     vw 7472   6.624   1.195   5.202  0.0606 -0.1042 -0.1197
 1869SOL     ow 7473   5.928   6.885   7.343  0.3504 -0.1568  0.1765
 1869SOL     hw 7474   5.954   6.822   7.276  0.1793 -0.4711  0.4030
 1869SOL     hw 7475   5.943   6.971   7.303  0.0692 -0.3430 -0.3323
 1869SOL     vw 7476   5.933   6.888   7.329  0.2906 -0.2227  0.1392
 1870SOL     ow 7477   0.269   3.265   0.670 -0.4376 -0.2499  0.0370
 1870SOL     hw 7478   0.181   3.276   0.633  0.0483  0.3169 -1.0005
 1870SOL     hw 7479   0.300   3.354   0.684  0.0990 -0.4440  0.1005
 1870SOL     vw 7480   0.261   3.278   0.667 -0.3027 -0.2009 -0.0915
 1871SOL     ow 7481   4.398   1.368   0.331 -0.7019 -0.0811 -0.2405
 1871SOL     hw 7482   4.367   1.336   0.246 -1.0033 -1.3893  0.3366
 1871SOL     hw 7483   4.446   1.449   0.311 -1.8630  0.3264 -1.5006
 1871SOL     vw 7484   4.400   1.375   0.317 -0.8950 -0.1999 -0.3306
 1872SOL     ow 7485   6.239   4.090   2.596 -1.1707  0.4630  0.3977
 1872SOL     hw 7486   6.334   4.081   2.585 -1.2932 -0.6951  0.0719
 1872SOL     hw 7487   6.222   4.056   2.684 -1.2099  1.3248  0.7281
 1872SOL     vw 7488   6.249   4.084   2.606 -1.1919  0.4239  0.3983
 1873SOL     ow 7489   5.992   7.011   6.897 -0.1497 -0.0255  0.2000
 1873SOL     hw 7490   6.056   7.022   6.968  1.3403  1.1316 -1.2326
 1873SOL     hw 7491   6.028   6.941   6.843  0.1947  0.9176 -0.8482
 1873SOL     vw 7492   6.006   7.003   6.899  0.0923  0.2515 -0.1273
 1874SOL     ow 7493   1.117   5.792   6.651 -0.4758 -0.6698 -0.4521
 1874SOL     hw 7494   1.082   5.706   6.678 -1.5750  0.0143  0.3885
 1874SOL     hw 7495   1.083   5.805   6.563  0.4801 -1.4995 -0.9681
 1874SOL     vw 7496   1.108   5.782   6.643 -0.4947 -0.6890 -0.4091
 1875SOL     ow 7497   4.579   0.763   0.639 -0.4777 -0.4031 -0.5478
 1875SOL     hw 7498   4.511   0.723   0.692 -0.5787 -0.8882 -1.0352
 1875SOL     hw 7499   4.567   0.858   0.650 -0.5987 -0.5019  0.1518
 1875SOL     vw 7500   4.568   0.770   0.647 -0.5069 -0.4801 -0.5198
 1876SOL     ow 7501   7.191   7.304   4.638  0.5358 -0.4123 -0.0789
 1876SOL     hw 7502   7.243   7.230   4.607  0.2552 -0.5985 -0.1115
 1876SOL     hw 7503   7.147   7.338   4.560 -1.4726 -1.9051  0.3129
 1876SOL     vw 7504   7.192   7.299   4.624  0.2339 -0.6340 -0.0315
 1877SOL     ow 7505   1.995   5.583   0.196 -0.4365  0.0438  0.2061
 1877SOL     hw 7506   2.023   5.622   0.113 -0.2302  0.4537  0.4647
 1877SOL     hw 7507   1.902   5.602   0.201 -0.8640 -1.5471 -0.7805
 1877SOL     vw 7508   1.987   5.590   0.185 -0.4658 -0.1118  0.1101
 1878SOL     ow 7509   6.989   0.655   1.673 -0.0754  0.3409 -0.1923
 1878SOL     hw 7510   6.941   0.657   1.756 -0.9523 -0.1545 -0.6708
 1878SOL     hw 7511   6.921   0.639   1.607  0.6711  0.2673 -0.9514
 1878SOL     vw 7512   6.973   0.653   1.675 -0.0925  0.2658 -0.3556
 1879SOL     ow 7513   0.517   0.432   1.532  0.4326  0.7452  0.2643
 1879SOL     hw 7514   0.541   0.407   1.622 -0.3070 -1.1733 -0.0230
 1879SOL     hw 7515   0.421   0.432   1.532  0.3741 -1.4189 -1.0211
 1879SOL     vw 7516   0.507   0.429   1.544  0.3273  0.2066  0.0568
 1880SOL     ow 7517   3.606   6.924   6.398  0.2504 -0.0903  0.0341
 1880SOL     hw 7518   3.645   7.009   6.380 -0.6385  0.2704 -0.2418
 1880SOL     hw 7519   3.518   6.930   6.362 -0.2559 -0.6892  1.1262
 1880SOL     vw 7520   3.600   6.936   6.391  0.0660 -0.1216  0.1419
 1881SOL     ow 7521   0.512   3.510   1.366  0.5133 -0.3888 -0.0699
 1881SOL     hw 7522   0.472   3.597   1.376 -2.4726 -1.5134 -1.0004
 1881SOL     hw 7523   0.558   3.514   1.283  0.5018  0.3485 -0.0462
 1881SOL     vw 7524   0.513   3.522   1.356  0.1178 -0.4399 -0.1895
 1882SOL     ow 7525   3.987   1.452   3.955 -0.1895 -0.7441  0.1341
 1882SOL     hw 7526   3.948   1.432   3.870 -1.8017 -2.6899  1.2398
 1882SOL     hw 7527   4.062   1.393   3.962  1.2286  0.8711 -0.7306
 1882SOL     vw 7528   3.992   1.441   3.945 -0.2152 -0.7877  0.1659
 1883SOL     ow 7529   6.286   3.101   1.191  0.2104 -0.3223 -0.7200
 1883SOL     hw 7530   6.248   3.013   1.183  3.2914 -1.9528  0.6424
 1883SOL     hw 7531   6.369   3.095   1.145 -0.0099  2.3154 -1.5950
 1883SOL     vw 7532   6.292   3.089   1.184  0.5877 -0.1895 -0.6557
 1884SOL     ow 7533   6.016   4.999   3.133 -0.1592  0.2364  0.1883
 1884SOL     hw 7534   6.056   4.955   3.208 -2.1820  1.5603  2.1613
 1884SOL     hw 7535   6.073   4.976   3.060  0.1623 -3.7782  1.4284
 1884SOL     vw 7536   6.029   4.990   3.134 -0.3839 -0.1185  0.6123
 1885SOL     ow 7537   5.274   5.818   5.354 -0.1853  0.0546 -0.3493
 1885SOL     hw 7538   5.357   5.785   5.318  0.1997  0.6041  0.0220
 1885SOL     hw 7539   5.213   5.745   5.344  0.6050 -0.7168  0.2720
 1885SOL     vw 7540   5.277   5.804   5.348 -0.0300  0.0253 -0.2184
 1886SOL     ow 7541   3.488   7.001   4.540  0.7631 -0.0041 -0.4734
 1886SOL     hw 7542   3.496   7.009   4.635  0.7416 -0.2546 -0.4512
 1886SOL     hw 7543   3.570   6.962   4.512  1.0436  0.6839 -0.6338
 1886SOL     vw 7544   3.500   6.997   4.549  0.7973  0.0536 -0.4914
 1887SOL     ow 7545   6.984   2.336   2.637  0.4565 -0.2329 -0.1940
 1887SOL     hw 7546   6.987   2.244   2.666  0.2742 -0.6062 -1.3215
 1887SOL     hw 7547   6.967   2.385   2.717  1.1295 -1.1301  0.5289
 1887SOL     vw 7548   6.982   2.330   2.652  0.5212 -0.4005 -0.2474
 1888SOL     ow 7549   6.147   2.870   1.152  0.8186  0.1059 -0.4288
 1888SOL     hw 7550   6.219   2.827   1.197  1.1427  1.1649  0.1050
 1888SOL     hw 7551   6.076   2.872   1.216  1.0413  0.9769 -0.1993
 1888SOL     vw 7552   6.147   2.865   1.167  0.8907  0.3605 -0.3281
 1889SOL     ow 7553   1.366   6.156   0.071 -0.0777 -0.5318 -0.0236
 1889SOL     hw 7554   1.375   6.159  -0.024 -1.4145 -1.3003 -0.1922
 1889SOL     hw 7555   1.373   6.063   0.093  1.2497 -0.2775  0.7619
 1889SOL     vw 7556   1.368   6.144   0.062 -0.0789 -0.5999  0.0578
 1890SOL     ow 7557   4.918   4.089   1.804 -0.4718 -0.0351 -0.5174
 1890SOL     hw 7558   4.893   4.096   1.712  2.2381 -1.5517 -1.4830
 1890SOL     hw 7559   4.905   3.997   1.826 -0.8049  0.2514  0.5536
 1890SOL     vw 7560   4.913   4.078   1.795 -0.1581 -0.1972 -0.5034
 1891SOL     ow 7561   5.807   3.274   4.045  0.1248  0.4553 -0.3071
 1891SOL     hw 7562   5.865   3.209   4.084  0.1782  1.4941  1.4580
 1891SOL     hw 7563   5.719   3.240   4.061  0.1706  0.3743 -0.2265
 1891SOL     vw 7564   5.803   3.261   4.052  0.1380  0.5816 -0.0634
 1892SOL     ow 7565   5.686   5.589   6.214  0.1248  0.3261 -0.0484
 1892SOL     hw 7566   5.600   5.549   6.214 -0.2443  1.0119  1.8092
 1892SOL     hw 7567   5.711   5.593   6.307  2.3437 -0.2402 -0.5483
 1892SOL     vw 7568   5.678   5.584   6.227  0.3691  0.3419  0.1307
 1893SOL     ow 7569   1.236   1.919   6.123 -0.9726  0.6333  0.0185
 1893SOL     hw 7570   1.271   1.960   6.202  1.6554  1.0384 -1.2633
 1893SOL     hw 7571   1.225   1.992   6.061  0.6779 -0.0967 -1.2120
 1893SOL     vw 7572   1.239   1.934   6.125 -0.4081  0.5904 -0.3130
 1894SOL     ow 7573   4.833   0.741   0.723 -0.2253  0.3156 -0.2531
 1894SOL     hw 7574   4.836   0.792   0.804 -0.0834  2.1005 -1.3245
 1894SOL     hw 7575   4.742   0.747   0.695 -0.2033 -0.0207 -0.4005
 1894SOL     vw 7576   4.821   0.748   0.730 -0.2038  0.5068 -0.4139
 1895SOL     ow 7577   7.299   7.207   3.437  0.2856  0.3438 -0.1849
 1895SOL     hw 7578   7.337   7.295   3.433 -0.8931  1.0533  2.2238
 1895SOL     hw 7579   7.211   7.217   3.401 -0.6459  0.7220  2.0437
 1895SOL     vw 7580   7.293   7.220   3.432  0.0076  0.4873  0.4270
 1896SOL     ow 7581   5.057   4.438   2.170 -0.5899 -0.0403  0.3455
 1896SOL     hw 7582   5.021   4.526   2.153 -0.0901  0.4168  1.5924
 1896SOL     hw 7583   5.150   4.453   2.186 -0.8819 -0.5163  2.7238
 1896SOL     vw 7584   5.064   4.452   2.170 -0.5627 -0.0427  0.8237
 1897SOL     ow 7585   4.432   4.355   4.304 -0.1705 -0.4490  0.0729
 1897SOL     hw 7586   4.427   4.441   4.263 -1.4802 -0.2778  0.5453
 1897SOL     hw 7587   4.458   4.296   4.233  1.3634  0.4127 -0.1069
 1897SOL     vw 7588   4.435   4.358   4.289 -0.1409 -0.3126  0.1111
 1898SOL     ow 7589   2.613   4.301   5.672  0.5598  0.4850 -0.6770
 1898SOL     hw 7590   2.684   4.256   5.718 -0.1201  1.1457  1.1285
 1898SOL     hw 7591   2.623   4.393   5.697 -1.5960  0.4381  0.6628
 1898SOL     vw 7592   2.624   4.308   5.682  0.1856  0.5660 -0.2623
 1899SOL     ow 7593   2.596   7.081   2.768  0.5049 -0.0344  0.1498
 1899SOL     hw 7594   2.555   7.043   2.691  1.3908  2.3372 -1.6104
 1899SOL     hw 7595   2.525   7.128   2.812  0.1574 -0.7780  0.4033
 1899SOL     vw 7596   2.581   7.082   2.764  0.5760  0.1807 -0.0489
 1900SOL     ow 7597   1.835   5.152   1.905 -0.3444 -0.6968  0.2041
 1900SOL     hw 7598   1.849   5.058   1.920  1.8907 -0.1068  2.3775
 1900SOL     hw 7599   1.783   5.155   1.824 -1.0057 -3.7918  0.3667
 1900SOL     vw 7600   1.830   5.140   1.896 -0.1367 -1.0273  0.5122
 1901SOL     ow 7601   5.307   0.254   6.577 -0.2058 -0.2853  0.0272
 1901SOL     hw 7602   5.302   0.187   6.644 -2.0961  0.3822  0.6168
 1901SOL     hw 7603   5.222   0.297   6.579  0.2615  0.8447 -1.6775
 1901SOL     vw 7604   5.295   0.251   6.586 -0.3939 -0.0481 -0.1199
 1902SOL     ow 7605   0.285   6.710   3.013  0.4033  0.6944 -0.5973
 1902SOL     hw 7606   0.361   6.693   2.956  0.6181  0.0802 -0.1375
 1902SOL     hw 7607   0.215   6.656   2.976  0.5730  0.2120 -0.2186
 1902SOL     vw 7608   0.286   6.700   3.000  0.4540  0.5496 -0.4867
 1903SOL     ow 7609   0.245   2.203   0.072  1.1624 -0.3338 -0.2491
 1903SOL     hw 7610   0.192   2.281   0.057 -0.0492 -1.0915 -0.1184
 1903SOL     hw 7611   0.329   2.236   0.104  1.5289  1.0137 -2.3882
 1903SOL     vw 7612   0.249   2.217   0.075  1.0509 -0.2559 -0.5141
 1904SOL     ow 7613   7.377   1.209   1.686 -0.2027  0.3142 -0.2298
 1904SOL     hw 7614   7.296   1.213   1.736  0.0816  0.9385  0.2004
 1904SOL     hw 7615   7.446   1.214   1.753  0.2377 -2.5230 -0.3763
 1904SOL     vw 7616   7.376   1.210   1.702 -0.1068  0.0222 -0.1923
 1905SOL     ow 7617   3.552   6.546   6.104 -0.0043 -0.1317  0.1236
 1905SOL     hw 7618   3.510   6.631   6.092  1.2138  0.6159  0.9659
 1905SOL     hw 7619   3.491   6.484   6.065 -0.6240  1.1865 -1.0929
 1905SOL     vw 7620   3.538   6.549   6.097  0.0746  0.1409  0.0741
 1906SOL     ow 7621   6.109   1.293   0.731 -0.3004  0.3759 -0.1348
 1906SOL     hw 7622   6.069   1.222   0.680 -0.3432 -0.5777  1.1901
 1906SOL     hw 7623   6.036   1.332   0.778  0.0761 -0.3827  1.1170
 1906SOL     vw 7624   6.094   1.289   0.730 -0.2565  0.1500  0.2052
 1907SOL     ow 7625   2.082   0.626   7.194  0.2935 -0.3394  0.1219
 1907SOL     hw 7626   2.141   0.694   7.163  2.0541 -2.0910 -0.6099
 1907SOL     hw 7627   1.996   0.652   7.162  0.9410  1.4245 -0.2842
 1907SOL     vw 7628   2.078   0.638   7.186  0.6111 -0.3377 -0.0284
 1908SOL     ow 7629   5.376   3.267   2.750  0.0583 -0.2967 -0.7982
 1908SOL     hw 7630   5.391   3.173   2.738 -1.0758 -0.7139  0.8001
 1908SOL     hw 7631   5.292   3.272   2.795  0.3716  1.4670 -0.3492
 1908SOL     vw 7632   5.367   3.255   2.754 -0.0501 -0.1191 -0.5280
 1909SOL     ow 7633   4.403   1.763   6.138 -0.2228  0.0800  0.3845
 1909SOL     hw 7634   4.345   1.790   6.210 -0.2636  0.0447  0.3644
 1909SOL     hw 7635   4.488   1.801   6.161 -0.2944  0.2724  0.3276
 1909SOL     vw 7636   4.407   1.771   6.151 -0.2375  0.1008  0.3741
 1910SOL     ow 7637   6.369   1.646   6.226 -0.1558 -0.6015 -0.4824
 1910SOL     hw 7638   6.447   1.646   6.171 -0.2908 -0.8343 -0.6787
 1910SOL     hw 7639   6.296   1.639   6.164 -0.5167  2.4629 -0.5251
 1910SOL     vw 7640   6.369   1.645   6.210 -0.2210 -0.2279 -0.5140
 1911SOL     ow 7641   0.090   6.523   2.119 -0.0978  0.2428 -0.0028
 1911SOL     hw 7642   0.158   6.551   2.179  0.8077 -1.2806 -0.2448
 1911SOL     hw 7643   0.132   6.524   2.033 -0.6144  0.0162 -0.2637
 1911SOL     vw 7644   0.104   6.527   2.116 -0.0465  0.0119 -0.0693
 1912SOL     ow 7645   3.019   0.398   2.112  0.5272  0.1467 -0.3084
 1912SOL     hw 7646   3.054   0.476   2.070 -2.6247  0.8096 -2.0792
 1912SOL     hw 7647   3.040   0.327   2.051  0.6380  0.1881 -0.3174
 1912SOL     vw 7648   3.026   0.399   2.098  0.1260  0.2396 -0.5432
 1913SOL     ow 7649   1.392   4.638   1.570 -0.4686  1.0066 -0.4598
 1913SOL     hw 7650   1.304   4.641   1.606 -0.0567 -0.6942  0.8079
 1913SOL     hw 7651   1.383   4.588   1.489 -0.3600 -1.4250  0.9246
 1913SOL     vw 7652   1.379   4.632   1.564 -0.4000  0.4613 -0.1100
 1914SOL     ow 7653   1.090   5.540   6.746 -0.3666  0.1157 -0.1905
 1914SOL     hw 7654   1.018   5.559   6.806 -0.3768 -2.4376  0.7738
 1914SOL     hw 7655   1.165   5.526   6.803 -0.3503 -2.2845 -0.6688
 1914SOL     vw 7656   1.090   5.540   6.762 -0.3657 -0.5379 -0.1264
 1915SOL     ow 7657   0.866   2.235   0.401  0.2443  0.1175  0.1331
 1915SOL     hw 7658   0.938   2.268   0.454 -0.1352 -1.1426  1.4989
 1915SOL     hw 7659   0.878   2.276   0.316  3.3286 -1.0257 -0.0846
 1915SOL     vw 7660   0.877   2.245   0.397  0.6012 -0.1997  0.2846
 1916SOL     ow 7661   6.234   3.674   5.681 -0.6159  0.3851 -0.0590
 1916SOL     hw 7662   6.281   3.595   5.707 -1.9413 -0.4522 -0.0873
 1916SOL     hw 7663   6.296   3.722   5.626 -0.0596 -1.0535 -0.7509
 1916SOL     vw 7664   6.248   3.670   5.677 -0.7174  0.0849 -0.1540
 1917SOL     ow 7665   4.782   6.771   7.233  0.1594  0.7788 -0.9176
 1917SOL     hw 7666   4.853   6.711   7.256 -1.7800 -1.0535  0.6824
 1917SOL     hw 7667   4.762   6.817   7.315 -1.4902  0.1226 -0.9086
 1917SOL     vw 7668   4.789   6.769   7.247 -0.3140  0.4504 -0.7052
 1918SOL     ow 7669   4.428   5.839   5.299  0.5115 -0.5738  0.2209
 1918SOL     hw 7670   4.366   5.806   5.234  0.7967 -1.1961  0.2548
 1918SOL     hw 7671   4.513   5.811   5.267  0.7741  0.2420  0.1998
 1918SOL     vw 7672   4.431   5.831   5.286  0.5839 -0.5484  0.2227
 1919SOL     ow 7673   6.626   1.761   3.934  0.2396 -0.8543  0.1237
 1919SOL     hw 7674   6.706   1.781   3.983 -0.2037  0.2662  0.4003
 1919SOL     hw 7675   6.657   1.736   3.847  0.9737 -1.9659  0.6723
 1919SOL     vw 7676   6.641   1.760   3.929  0.2778 -0.8532  0.2325
 1920SOL     ow 7677   6.256   5.176   6.817  0.0298  0.6290  0.1460
 1920SOL     hw 7678   6.351   5.185   6.810  0.0850  1.4969  1.6731
 1920SOL     hw 7679   6.222   5.210   6.734  1.0235  0.7028 -0.2381
 1920SOL     vw 7680   6.264   5.182   6.805  0.1681  0.7534  0.2968
 1921SOL     ow 7681   4.650   1.266   1.069 -0.0311 -0.1330  0.1901
 1921SOL     hw 7682   4.623   1.354   1.096 -0.6670 -0.3811  0.3606
 1921SOL     hw 7683   4.733   1.281   1.023 -1.2845  0.8619 -1.8998
 1921SOL     vw 7684   4.658   1.280   1.066 -0.2799 -0.0345 -0.0632
 1922SOL     ow 7685   6.740   4.579   2.420 -0.2060  0.4873 -0.3676
 1922SOL     hw 7686   6.699   4.595   2.334  0.1928  1.4510 -0.3865
 1922SOL     hw 7687   6.833   4.596   2.406  0.1357 -1.0299 -0.1512
 1922SOL     vw 7688   6.747   4.583   2.406 -0.1085  0.4141 -0.3414
 1923SOL     ow 7689   1.660   3.000   0.966 -0.2060  0.8984 -0.4708
 1923SOL     hw 7690   1.675   3.051   1.046  1.1488  2.0514 -1.4203
 1923SOL     hw 7691   1.645   3.066   0.898  1.2733  0.0351 -1.6795
 1923SOL     vw 7692   1.660   3.015   0.968  0.1680  0.9367 -0.7555
 1924SOL     ow 7693   2.511   2.775   0.500  1.1400  0.2866 -0.4485
 1924SOL     hw 7694   2.504   2.782   0.595  0.0149 -1.4484 -0.3522
 1924SOL     hw 7695   2.598   2.738   0.485  0.8067 -0.7437  0.0330
 1924SOL     vw 7696   2.521   2.771   0.511  0.9476 -0.0782 -0.3723
 1925SOL     ow 7697   7.207   4.890   5.215 -0.3739 -0.3185 -0.2318
 1925SOL     hw 7698   7.262   4.851   5.147  1.2977  0.1587  0.8022
 1925SOL     hw 7699   7.262   4.957   5.256 -1.5798 -0.1082  1.1410
 1925SOL     vw 7700   7.221   4.894   5.211 -0.3126 -0.2277  0.0861
 1926SOL     ow 7701   4.856   6.717   5.994 -0.1457  0.1366  0.0569
 1926SOL     hw 7702   4.916   6.718   6.069 -0.2958  0.1469  0.1787
 1926SOL     hw 7703   4.894   6.778   5.932  0.2466 -0.2503 -0.0868
 1926SOL     vw 7704   4.869   6.725   5.996 -0.1137  0.0870  0.0536
 1927SOL     ow 7705   2.460   2.202   7.419 -0.7801 -0.0584 -0.9094
 1927SOL     hw 7706   2.541   2.154   7.433  0.1368  1.8947  1.2797
 1927SOL     hw 7707   2.487   2.284   7.377 -1.8280 -0.0364 -1.5789
 1927SOL     vw 7708   2.474   2.207   7.415 -0.7974  0.2022 -0.7093
 1928SOL     ow 7709   3.755   5.121   6.402  0.0918  0.3139 -0.2544
 1928SOL     hw 7710   3.710   5.099   6.320  0.3676 -0.1895 -0.2784
 1928SOL     hw 7711   3.716   5.203   6.430 -0.5918  0.0709 -0.4672
 1928SOL     vw 7712   3.744   5.129   6.395  0.0380  0.2153 -0.2856
 1929SOL     ow 7713   5.624   5.371   1.680  0.1743 -0.7794  0.2843
 1929SOL     hw 7714   5.609   5.283   1.712  0.1364 -0.4936  1.0695
 1929SOL     hw 7715   5.563   5.380   1.606 -0.3920 -1.1317  0.7029
 1929SOL     vw 7716   5.614   5.361   1.674  0.0947 -0.7882  0.4431
 1930SOL     ow 7717   3.752   2.869   6.300 -0.4303  0.2946  0.1184
 1930SOL     hw 7718   3.793   2.839   6.381  0.2184 -3.2353 -1.3292
 1930SOL     hw 7719   3.704   2.792   6.268 -1.1893  1.7551 -2.5196
 1930SOL     vw 7720   3.751   2.855   6.306 -0.4449  0.0216 -0.4206
 1931SOL     ow 7721   3.834   4.312   4.972  0.4583 -0.5408  0.8068
 1931SOL     hw 7722   3.869   4.228   5.004  0.7707 -0.3215  1.0513
 1931SOL     hw 7723   3.746   4.291   4.941  0.6394 -1.0186  0.5999
 1931SOL     vw 7724   3.827   4.298   4.972  0.5234 -0.5751  0.8118
 1932SOL     ow 7725   1.868   4.813   3.870  0.1476  0.5892  0.5355
 1932SOL     hw 7726   1.880   4.908   3.867  1.1282  0.4367 -1.4907
 1932SOL     hw 7727   1.780   4.799   3.833 -0.6688  0.7590  2.2918
 1932SOL     vw 7728   1.858   4.824   3.865  0.1693  0.5915  0.5000
 1933SOL     ow 7729   1.008   0.447   6.258 -0.1047  0.8491 -0.7913
 1933SOL     hw 7730   1.028   0.360   6.224 -2.1781  0.1952 -0.4680
 1933SOL     hw 7731   1.063   0.456   6.335 -2.2268 -1.6613  1.2297
 1933SOL     vw 7732   1.018   0.437   6.263 -0.6583  0.4316 -0.4821
 1934SOL     ow 7733   3.518   4.098   0.035  0.4462  0.1316 -0.1889
 1934SOL     hw 7734   3.540   4.127   0.124  1.4255  0.0530 -0.3999
 1934SOL     hw 7735   3.485   4.009   0.047  0.7580  0.0506  0.0759
 1934SOL     vw 7736   3.516   4.090   0.049  0.6164  0.1101 -0.1818
 1935SOL     ow 7737   4.901   1.022   6.321  0.2701 -0.2562 -0.2453
 1935SOL     hw 7738   4.986   1.037   6.362 -1.0786  0.5062  2.5211
 1935SOL     hw 7739   4.837   1.054   6.386 -2.1269 -0.7244 -2.2311
 1935SOL     vw 7740   4.904   1.028   6.335 -0.2241 -0.2174 -0.1421
 1936SOL     ow 7741   3.784   0.955   7.233  0.3899 -0.0921 -0.3023
 1936SOL     hw 7742   3.852   1.014   7.200 -0.5474  0.3739 -1.5009
 1936SOL     hw 7743   3.706   0.978   7.181 -0.4989 -1.0624  0.5699
 1936SOL     vw 7744   3.782   0.966   7.222  0.1490 -0.1586 -0.3452
 1937SOL     ow 7745   0.438   4.826   4.605 -0.3242 -0.8114 -0.7841
 1937SOL     hw 7746   0.455   4.884   4.531  0.0861  0.6906  0.4299
 1937SOL     hw 7747   0.522   4.783   4.621  0.1508  0.3701  0.0270
 1937SOL     vw 7748   0.451   4.828   4.597 -0.2074 -0.4573 -0.5169
 1938SOL     ow 7749   7.470   5.781   0.182  0.2738 -0.5547  0.0798
 1938SOL     hw 7750   7.556   5.810   0.151  1.1764 -2.3031  0.7878
 1938SOL     hw 7751   7.464   5.689   0.154 -1.0037 -0.7172  0.7910
 1938SOL     vw 7752   7.480   5.772   0.174  0.2244 -0.8070  0.2671
 1939SOL     ow 7753   6.892   1.468   6.332 -0.0275 -0.2622 -0.1685
 1939SOL     hw 7754   6.823   1.522   6.370 -0.2459 -0.1151 -0.7520
 1939SOL     hw 7755   6.921   1.411   6.403 -0.2748  0.1497  0.2658
 1939SOL     vw 7756   6.887   1.468   6.346 -0.0892 -0.1885 -0.1884
 1940SOL     ow 7757   4.661   4.402   2.156 -0.4914  0.0802  0.6788
 1940SOL     hw 7758   4.730   4.347   2.118 -0.3953  1.3402 -1.1297
 1940SOL     hw 7759   4.601   4.340   2.197  0.0212 -1.3217 -0.5670
 1940SOL     vw 7760   4.662   4.387   2.156 -0.4113  0.0613  0.2760
 1941SOL     ow 7761   6.912   6.159   3.172 -0.1976  0.0945  0.4662
 1941SOL     hw 7762   6.831   6.109   3.183  0.3917 -1.1035 -0.4201
 1941SOL     hw 7763   6.966   6.105   3.114  0.0070  2.3010 -1.5515
 1941SOL     vw 7764   6.908   6.146   3.166 -0.0927  0.2275  0.0830
 1942SOL     ow 7765   2.556   3.558   3.465  0.4395 -0.6542 -0.5655
 1942SOL     hw 7766   2.580   3.645   3.498 -0.4394  0.1844 -1.9986
 1942SOL     hw 7767   2.578   3.562   3.371  0.8136 -2.1546 -0.5639
 1942SOL     vw 7768   2.562   3.570   3.457  0.3729 -0.7415 -0.7542
 1943SOL     ow 7769   0.824   2.036   0.092 -0.0827  0.5363 -0.1415
 1943SOL     hw 7770   0.860   2.000   0.010 -2.2291 -0.8402 -0.5678
 1943SOL     hw 7771   0.776   2.114   0.064 -2.7892 -1.1762 -0.7172
 1943SOL     vw 7772   0.822   2.042   0.077 -0.7229  0.1286 -0.2737
 1944SOL     ow 7773   2.113   2.156   1.995 -0.5687 -0.0371 -0.2622
 1944SOL     hw 7774   2.175   2.086   1.977 -0.7460  0.1783 -1.8562
 1944SOL     hw 7775   2.034   2.112   2.023 -0.3181 -0.4187 -0.1502
 1944SOL     vw 7776   2.111   2.141   1.996 -0.5591 -0.0590 -0.4578
 1945SOL     ow 7777   6.850   3.228   6.300 -0.4177 -0.7186 -0.2761
 1945SOL     hw 7778   6.903   3.182   6.365 -0.4705 -2.1843 -1.2149
 1945SOL     hw 7779   6.767   3.181   6.299 -0.6861 -0.2479 -0.8689
 1945SOL     vw 7780   6.846   3.216   6.308 -0.4601 -0.8498 -0.4783
 1946SOL     ow 7781   2.506   4.831   3.055 -0.2666  0.5719 -0.2516
 1946SOL     hw 7782   2.474   4.858   2.968 -4.4306  0.7722  1.1247
 1946SOL     hw 7783   2.488   4.737   3.059  0.7223  0.3865  0.1292
 1946SOL     vw 7784   2.499   4.822   3.044 -0.6857  0.5739 -0.0198
 1947SOL     ow 7785   1.961   5.292   0.239  0.4073  0.2817 -0.2242
 1947SOL     hw 7786   1.892   5.289   0.173 -2.2742  0.4913  2.3563
 1947SOL     hw 7787   2.018   5.218   0.217 -1.2599 -0.6155 -1.8657
 1947SOL     vw 7788   1.959   5.282   0.227 -0.1664  0.1910 -0.1003
 1948SOL     ow 7789   2.364   3.126   1.357  0.5204 -0.0036 -0.2574
 1948SOL     hw 7790   2.374   3.031   1.364  0.3601  0.0397  0.6544
 1948SOL     hw 7791   2.363   3.143   1.263 -2.1288 -1.2041 -0.5393
 1948SOL     vw 7792   2.365   3.116   1.346  0.1497 -0.1562 -0.1743
 1949SOL     ow 7793   4.007   5.783   2.485  0.3438  0.1494  0.6481
 1949SOL     hw 7794   4.000   5.780   2.390  0.1620  2.5293  0.5178
 1949SOL     hw 7795   4.076   5.847   2.502  0.3953 -0.2486  2.1259
 1949SOL     vw 7796   4.015   5.791   2.475  0.3269  0.4110  0.8259
 1950SOL     ow 7797   5.256   3.864   2.793  0.4619 -0.0130  0.5506
 1950SOL     hw 7798   5.342   3.884   2.830  0.3133 -1.7927  2.0253
 1950SOL     hw 7799   5.196   3.923   2.839  0.5769 -0.6476  1.5467
 1950SOL     vw 7800   5.260   3.875   2.804  0.4573 -0.3315  0.8764
 1951SOL     ow 7801   4.287   4.482   2.332 -0.1467  0.2675  0.4704
 1951SOL     hw 7802   4.371   4.436   2.324  0.6860  1.9560 -2.4339
 1951SOL     hw 7803   4.294   4.531   2.414  0.6823 -1.4195  1.4612
 1951SOL     vw 7804   4.299   4.483   2.342  0.0725  0.2677  0.2179
 1952SOL     ow 7805   2.599   0.110   5.897 -0.0317 -0.3992 -0.6522
 1952SOL     hw 7806   2.539   0.141   5.829 -0.2289  0.5175 -0.0833
 1952SOL     hw 7807   2.544   0.102   5.976  0.6582  0.9018 -0.0077
 1952SOL     vw 7808   2.584   0.113   5.899  0.0333 -0.1066 -0.4921
 1953SOL     ow 7809   5.943   3.793   5.844 -0.4960  0.3543  0.3834
 1953SOL     hw 7810   6.024   3.837   5.872 -0.7945  0.8858  0.4301
 1953SOL     hw 7811   5.877   3.863   5.844 -0.2171  0.8204 -3.1411
 1953SOL     vw 7812   5.945   3.808   5.847 -0.4988  0.4860 -0.0753
 1954SOL     ow 7813   0.694   1.374   2.590 -0.2377 -0.4467 -0.0717
 1954SOL     hw 7814   0.771   1.425   2.565 -0.9547 -1.1921 -4.6726
 1954SOL     hw 7815   0.729   1.287   2.609  0.2726 -0.0668  0.8041
 1954SOL     vw 7816   0.709   1.369   2.589 -0.2650 -0.4950 -0.5633
 1955SOL     ow 7817   5.580   3.610   5.014  0.3398  0.6493 -0.6257
 1955SOL     hw 7818   5.582   3.519   4.985  1.5230  0.3297  0.3619
 1955SOL     hw 7819   5.564   3.661   4.934  2.0535 -0.2791 -1.6174
 1955SOL     vw 7820   5.578   3.605   5.000  0.7219  0.4846 -0.6263
 1956SOL     ow 7821   3.016   6.218   2.825  0.3297  0.4076 -0.1850
 1956SOL     hw 7822   3.100   6.240   2.785  0.3146 -0.2474 -0.6011
 1956SOL     hw 7823   3.000   6.128   2.797  0.8213 -0.4616  2.1111
 1956SOL     vw 7824   3.025   6.209   2.816  0.3926  0.2065  0.0628
 1957SOL     ow 7825   7.231   4.302   3.264 -0.0815 -0.2854 -0.4217
 1957SOL     hw 7826   7.278   4.271   3.187 -1.2040 -0.4549 -1.0562
 1957SOL     hw 7827   7.210   4.394   3.245 -1.0301 -0.5449 -0.6578
 1957SOL     vw 7828   7.235   4.310   3.252 -0.3548 -0.3424 -0.5366
 1958SOL     ow 7829   0.681   5.675   6.079 -0.3747 -0.0397  0.1151
 1958SOL     hw 7830   0.668   5.671   5.984 -0.4331 -0.0187  0.1224
 1958SOL     hw 7831   0.691   5.583   6.105  2.3808  0.0694 -0.2816
 1958SOL     vw 7832   0.681   5.662   6.070 -0.0189 -0.0226  0.0639
 1959SOL     ow 7833   4.298   1.655   3.024 -0.4760  0.2734  0.0203
 1959SOL     hw 7834   4.218   1.678   3.071 -1.0225  0.4585 -0.9948
 1959SOL     hw 7835   4.368   1.684   3.083 -1.0052 -2.9202  2.5276
 1959SOL     vw 7836   4.297   1.662   3.038 -0.6180 -0.1235  0.2172
 1960SOL     ow 7837   1.172   0.402   1.492 -0.2509  0.2296  0.2937
 1960SOL     hw 7838   1.154   0.453   1.571  0.5468  2.1062 -0.6908
 1960SOL     hw 7839   1.256   0.360   1.510 -0.0304  0.7157  0.4139
 1960SOL     vw 7840   1.181   0.403   1.505 -0.1166  0.5413  0.1797
 1961SOL     ow 7841   0.131   0.374   4.131 -0.6885 -0.0698 -0.3119
 1961SOL     hw 7842   0.068   0.430   4.086 -1.3158 -1.8950 -1.8191
 1961SOL     hw 7843   0.195   0.350   4.064  0.6267  0.2926  0.7560
 1961SOL     vw 7844   0.131   0.378   4.116 -0.5977 -0.2628 -0.3698
 1962SOL     ow 7845   2.929   1.984   5.898 -0.1455  0.3382  0.2066
 1962SOL     hw 7846   3.008   1.978   5.843 -0.0979 -2.8647  0.4439
 1962SOL     hw 7847   2.961   1.968   5.987 -1.2026 -3.2360  0.0681
 1962SOL     vw 7848   2.944   1.981   5.902 -0.2787 -0.5559  0.2198
 1963SOL     ow 7849   6.813   0.070   3.707  0.0122 -0.1438 -0.3856
 1963SOL     hw 7850   6.789   0.156   3.742 -1.5107 -0.6326 -0.1350
 1963SOL     hw 7851   6.737   0.015   3.726  1.4025 -1.8633  0.4989
 1963SOL     vw 7852   6.799   0.074   3.714 -0.0052 -0.4351 -0.2359
 1964SOL     ow 7853   7.323   1.641   3.936 -0.1566  0.6943 -0.5234
 1964SOL     hw 7854   7.310   1.561   3.986  0.8286  1.2687  0.6907
 1964SOL     hw 7855   7.249   1.697   3.961 -1.3999 -0.1377 -2.1101
 1964SOL     vw 7856   7.311   1.638   3.946 -0.1907  0.6604 -0.5724
 1965SOL     ow 7857   0.265   6.283   3.861  0.3328  0.2259 -0.0832
 1965SOL     hw 7858   0.192   6.252   3.807  0.8794 -0.7605 -0.2851
 1965SOL     hw 7859   0.341   6.276   3.803  0.8274 -0.2447  0.6127
 1965SOL     vw 7860   0.265   6.278   3.846  0.4701  0.0334 -0.0180
 1966SOL     ow 7861   7.347   6.155   4.883 -0.1887  0.0295  0.3673
 1966SOL     hw 7862   7.310   6.194   4.803 -2.0653 -1.5362  0.4151
 1966SOL     hw 7863   7.287   6.084   4.906  0.3419  0.3634  3.1489
 1966SOL     vw 7864   7.334   6.151   4.875 -0.3664 -0.1330  0.7405
 1967SOL     ow 7865   7.266   0.133   5.940  0.3092 -0.2414  0.9048
 1967SOL     hw 7866   7.181   0.172   5.959  0.6607 -0.0616  2.1800
 1967SOL     hw 7867   7.283   0.075   6.014  1.0589 -0.6820  0.4008
 1967SOL     vw 7868   7.257   0.131   5.952  0.4544 -0.2758  1.0066
 1968SOL     ow 7869   1.358   6.494   3.960 -0.0326  0.1424  0.4460
 1968SOL     hw 7870   1.325   6.413   3.999 -3.6813  1.4328  0.3939
 1968SOL     hw 7871   1.396   6.467   3.877 -1.0439 -1.5360  0.4911
 1968SOL     vw 7872   1.359   6.480   3.954 -0.6474  0.0911  0.4450
 1969SOL     ow 7873   2.255   0.431   0.242  0.3619 -0.2148  0.2171
 1969SOL     hw 7874   2.328   0.373   0.263 -0.8677 -1.8971 -0.0185
 1969SOL     hw 7875   2.177   0.377   0.252 -0.9558  1.7914  1.3589
 1969SOL     vw 7876   2.254   0.416   0.246  0.0259 -0.1720  0.3367
 1970SOL     ow 7877   3.214   6.956   4.185  0.0102  0.0093 -0.8030
 1970SOL     hw 7878   3.297   7.003   4.192  0.0338 -0.2245  1.1304
 1970SOL     hw 7879   3.147   7.024   4.190  0.0605  0.1382 -1.7102
 1970SOL     vw 7880   3.216   6.971   4.187  0.0200 -0.0043 -0.6676
 1971SOL     ow 7881   1.392   0.387   2.499 -1.0308 -0.2064 -0.1116
 1971SOL     hw 7882   1.370   0.367   2.408  0.6110 -0.7564 -0.4160
 1971SOL     hw 7883   1.314   0.360   2.548 -1.6435 -0.6289 -1.2642
 1971SOL     vw 7884   1.379   0.381   2.493 -0.8951 -0.3347 -0.3039
 1972SOL     ow 7885   4.599   2.865   0.623  0.3350  0.0869 -0.1726
 1972SOL     hw 7886   4.560   2.939   0.670 -0.7225 -1.0274  0.7812
 1972SOL     hw 7887   4.693   2.885   0.620  0.3230  0.6086  1.6961
 1972SOL     vw 7888   4.606   2.877   0.629  0.1941  0.0086  0.1998
 1973SOL     ow 7889   5.196   0.787   5.965 -0.1206  0.1703  0.2532
 1973SOL     hw 7890   5.262   0.752   5.905 -1.3717  0.7348 -1.5351
 1973SOL     hw 7891   5.222   0.754   6.051  1.6562 -0.8008 -0.5943
 1973SOL     vw 7892   5.208   0.778   5.968 -0.0513  0.1167 -0.0949
 1974SOL     ow 7893   3.856   3.996   1.919  0.1354  0.4873 -0.0906
 1974SOL     hw 7894   3.813   3.954   1.993 -0.2196  0.5728 -0.2430
 1974SOL     hw 7895   3.902   4.071   1.956  0.1238  0.4119  0.0733
 1974SOL     vw 7896   3.856   4.000   1.933  0.0870  0.4885 -0.0890
 1975SOL     ow 7897   2.420   7.398   6.399  0.0681  0.4187  0.1014
 1975SOL     hw 7898   2.496   7.341   6.387  1.8275  2.8860 -1.3179
 1975SOL     hw 7899   2.383   7.408   6.312 -1.0752  0.3601  0.5631
 1975SOL     vw 7900   2.425   7.391   6.386  0.1495  0.7367 -0.0248
 1976SOL     ow 7901   2.553   6.184   0.019 -0.3486  0.2225  0.0804
 1976SOL     hw 7902   2.466   6.179   0.058  0.2561 -0.6773  1.3614
 1976SOL     hw 7903   2.590   6.265   0.052  0.4503 -0.8953  2.0977
 1976SOL     vw 7904   2.546   6.194   0.028 -0.1634 -0.0434  0.5155
 1977SOL     ow 7905   5.311   1.100   0.196  0.1597 -0.4157 -0.0582
 1977SOL     hw 7906   5.373   1.072   0.130  0.2815 -1.0056  0.2991
 1977SOL     hw 7907   5.361   1.156   0.255  0.3260 -0.7840  0.1545
 1977SOL     vw 7908   5.326   1.104   0.195  0.1974 -0.5422  0.0170
 1978SOL     ow 7909   3.055   4.963   4.334  0.1169 -0.1628 -0.4756
 1978SOL     hw 7910   2.967   4.943   4.363 -1.4745  3.0533 -2.4687
 1978SOL     hw 7911   3.062   4.922   4.248  1.3754 -2.0116  0.4460
 1978SOL     vw 7912   3.044   4.955   4.326  0.0730  0.0176 -0.6170
 1979SOL     ow 7913   0.470   1.862   6.029  0.3134 -0.0555  0.0750
 1979SOL     hw 7914   0.502   1.952   6.039  1.8812 -0.3780 -1.4418
 1979SOL     hw 7915   0.379   1.865   6.058  0.1586  2.1579 -0.4640
 1979SOL     vw 7916   0.462   1.874   6.034  0.4998  0.1940 -0.1962
 1980SOL     ow 7917   6.832   0.810   1.465 -0.4503  0.5446 -0.0812
 1980SOL     hw 7918   6.773   0.816   1.390  0.7991  1.4581 -1.0284
 1980SOL     hw 7919   6.916   0.841   1.432  0.6758 -1.0703  1.1301
 1980SOL     vw 7920   6.835   0.815   1.451 -0.1371  0.4520 -0.0464
 1981SOL     ow 7921   6.245   4.720   2.827 -0.3677  0.0363 -0.4120
 1981SOL     hw 7922   6.227   4.737   2.734  0.8290 -1.6948 -1.0352
 1981SOL     hw 7923   6.170   4.669   2.857 -0.7487  0.5803 -0.4319
 1981SOL     vw 7924   6.233   4.715   2.819 -0.2599 -0.1204 -0.4970
 1982SOL     ow 7925   3.258   2.285   0.382  0.4520  0.2846  0.3768
 1982SOL     hw 7926   3.324   2.351   0.403  1.1215  0.0767 -0.9716
 1982SOL     hw 7927   3.300   2.201   0.402  0.1024  0.2004  0.7760
 1982SOL     vw 7928   3.272   2.283   0.388  0.4942  0.2460  0.2515
 1983SOL     ow 7929   2.945   2.748   6.985  0.5246  0.0853  0.2211
 1983SOL     hw 7930   2.928   2.829   7.032  0.9241  0.4091 -0.1793
 1983SOL     hw 7931   2.859   2.720   6.953  0.2142 -0.2615  1.3109
 1983SOL     vw 7932   2.931   2.755   6.987  0.5362  0.0823  0.3119
 1984SOL     ow 7933   3.551   3.151   3.792  0.0109  0.0587  0.3712
 1984SOL     hw 7934   3.613   3.183   3.856  0.8434 -1.1885  0.2290
 1984SOL     hw 7935   3.594   3.165   3.707 -1.7154  3.1491 -0.1452
 1984SOL     vw 7936   3.565   3.157   3.789 -0.1070  0.3020  0.2843
 1985SOL     ow 7937   4.925   6.192   0.972 -0.3204 -0.1749  0.1583
 1985SOL     hw 7938   4.895   6.274   1.011  1.2048  0.6438 -0.3062
 1985SOL     hw 7939   4.894   6.196   0.882 -1.5565 -0.8450  0.5267
 1985SOL     vw 7940   4.917   6.203   0.965 -0.2823 -0.1552  0.1456
 1986SOL     ow 7941   2.612   3.917   7.330  0.2038 -0.2202  0.2170
 1986SOL     hw 7942   2.555   3.946   7.401 -0.0035  0.1872 -0.1133
 1986SOL     hw 7943   2.636   3.827   7.353 -1.9348 -1.0263 -0.4734
 1986SOL     vw 7944   2.608   3.909   7.342 -0.1056 -0.2728  0.0825
 1987SOL     ow 7945   3.889   5.699   4.010  0.5307 -0.2946 -0.7153
 1987SOL     hw 7946   3.926   5.625   4.059  0.0086  0.0893  0.2808
 1987SOL     hw 7947   3.795   5.685   4.012  0.4154  0.4846 -0.3763
 1987SOL     vw 7948   3.882   5.687   4.017  0.4466 -0.1411 -0.5391
 1988SOL     ow 7949   0.934   0.649   6.076 -0.3313  0.3818  0.3503
 1988SOL     hw 7950   0.984   0.590   6.133  0.4951  1.3545  0.6741
 1988SOL     hw 7951   0.842   0.629   6.095 -0.0649 -0.1348  1.1557
 1988SOL     vw 7952   0.929   0.638   6.086 -0.1871  0.4420  0.4992
 1989SOL     ow 7953   6.371   5.546   2.512  0.5215  0.6023  0.7100
 1989SOL     hw 7954   6.423   5.623   2.490  1.8939 -0.8904 -1.6926
 1989SOL     hw 7955   6.281   5.573   2.499  1.0145  1.6608 -0.7910
 1989SOL     vw 7956   6.366   5.559   2.507  0.7675  0.5450  0.1949
 1990SOL     ow 7957   3.938   5.004   6.115  0.4205  0.1726  0.3385
 1990SOL     hw 7958   3.842   5.002   6.123  0.4814  0.2471  1.1577
 1990SOL     hw 7959   3.953   5.012   6.021 -0.3273 -2.1718 -0.0331
 1990SOL     vw 7960   3.927   5.005   6.104  0.3300 -0.1268  0.3972
 1991SOL     ow 7961   7.216   3.630   5.662 -0.1532 -0.5046  0.2804
 1991SOL     hw 7962   7.136   3.667   5.701  0.0867 -0.2738  0.5676
 1991SOL     hw 7963   7.241   3.560   5.722 -2.0356 -2.9447 -1.5910
 1991SOL     vw 7964   7.208   3.626   5.675 -0.3700 -0.7960  0.0713
 1992SOL     ow 7965   2.845   3.920   2.414  0.2990  0.5578  0.2248
 1992SOL     hw 7966   2.830   4.000   2.466 -1.0704 -0.7662  1.9836
 1992SOL     hw 7967   2.770   3.865   2.432  0.8792 -0.8936 -1.5004
 1992SOL     vw 7968   2.833   3.924   2.423  0.1949  0.1917  0.2291
 1993SOL     ow 7969   5.859   4.412   7.248  0.7090  0.1437  0.1116
 1993SOL     hw 7970   5.847   4.322   7.279  0.6422  0.4218  0.9351
 1993SOL     hw 7971   5.934   4.407   7.189  1.3383 -0.2970  0.9177
 1993SOL     vw 7972   5.867   4.400   7.244  0.7832  0.1221  0.3266
 1994SOL     ow 7973   2.670   2.965   4.815  0.2520  0.1999  0.1203
 1994SOL     hw 7974   2.708   3.052   4.820 -1.1071  0.8315 -0.0646
 1994SOL     hw 7975   2.745   2.906   4.806  1.1707  1.3660 -0.0432
 1994SOL     vw 7976   2.685   2.968   4.814  0.1941  0.4371  0.0741
 1995SOL     ow 7977   7.464   0.580   7.215  0.3350  0.0294 -0.2083
 1995SOL     hw 7978   7.419   0.496   7.211 -0.3819  0.4459 -1.4578
 1995SOL     hw 7979   7.500   0.584   7.303 -0.9911 -0.8823  0.4014
 1995SOL     vw 7980   7.463   0.570   7.226  0.0653 -0.0359 -0.2925
 1996SOL     ow 7981   6.948   4.382   2.721 -0.1324  0.5873  0.6126
 1996SOL     hw 7982   6.972   4.447   2.655  0.2385  0.0317  0.1898
 1996SOL     hw 7983   6.996   4.409   2.799  1.4143 -0.1510 -0.0477
 1996SOL     vw 7984   6.958   4.394   2.722  0.1206  0.4168  0.4696
 1997SOL     ow 7985   0.679   6.763   1.636  0.4298 -0.2075  0.3592
 1997SOL     hw 7986   0.663   6.831   1.701  1.1347  0.0431  0.2817
 1997SOL     hw 7987   0.610   6.775   1.571  0.7086  0.6293  0.1961
 1997SOL     vw 7988   0.668   6.774   1.636  0.5596 -0.0641  0.3274
 1998SOL     ow 7989   6.009   0.535   1.626 -0.1379  0.2342 -0.0373
 1998SOL     hw 7990   5.933   0.484   1.597  0.8355  0.0296 -2.5414
 1998SOL     hw 7991   6.034   0.496   1.709 -0.9414 -1.7426 -0.6573
 1998SOL     vw 7992   6.002   0.523   1.633 -0.1156 -0.0536 -0.4495
 1999SOL     ow 7993   6.013   4.552   2.449 -0.1781 -0.1498 -0.4214
 1999SOL     hw 7994   6.043   4.487   2.386  0.5083  0.5505 -0.8397
 1999SOL     hw 7995   5.973   4.501   2.519  1.2085 -1.0893 -0.2615
 1999SOL     vw 7996   6.012   4.537   2.450  0.0958 -0.1814 -0.4556
 2000SOL     ow 7997   0.115   3.743   4.706 -0.0943 -0.3244 -0.3850
 2000SOL     hw 7998   0.104   3.679   4.636 -0.6076 -1.5872  0.8049
 2000SOL     hw 7999   0.064   3.818   4.678 -0.5132 -0.9080 -1.2377
 2000SOL     vw 8000   0.107   3.744   4.693 -0.2173 -0.5682 -0.3402
 2001SOL     ow 8001   4.879   1.285   4.086  0.1534 -0.5991  0.0535
 2001SOL     hw 8002   4.870   1.293   3.991 -1.2646  1.2998  0.2757
 2001SOL     hw 8003   4.968   1.314   4.104  0.0033  0.3290 -0.6091
 2001SOL     vw 8004   4.890   1.290   4.076 -0.0532 -0.2260 -0.0048
 2002SOL     ow 8005   2.105   3.261   3.215 -0.3834  0.1371 -0.4681
 2002SOL     hw 8006   2.188   3.306   3.225 -0.3271  0.3423 -1.7162
 2002SOL     hw 8007   2.102   3.199   3.289  0.4252  0.7890  0.1285
 2002SOL     vw 8008   2.115   3.259   3.226 -0.2693  0.2502 -0.5540
 2003SOL     ow 8009   7.143   1.229   0.752  0.1421  0.0559 -0.4533
 2003SOL     hw 8010   7.101   1.215   0.667  1.2526  0.2495 -1.0434
 2003SOL     hw 8011   7.174   1.143   0.778 -1.4079 -0.2812  0.4466
 2003SOL     vw 8012   7.141   1.216   0.744  0.0839  0.0370 -0.4124
 2004SOL     ow 8013   5.700   6.201   0.653 -0.1361  0.2774 -0.6347
 2004SOL     hw 8014   5.631   6.144   0.687 -0.2535 -0.2088 -1.6638
 2004SOL     hw 8015   5.707   6.178   0.561  0.4259  1.3231 -0.8661
 2004SOL     vw 8016   5.692   6.190   0.645 -0.0775  0.3514 -0.8010
 2005SOL     ow 8017   3.582   7.365   5.156 -0.2339  0.6533 -0.0591
 2005SOL     hw 8018   3.606   7.305   5.226 -1.4593 -1.4734 -1.3570
 2005SOL     hw 8019   3.665   7.392   5.118  0.4187  1.3134  1.7269
 2005SOL     vw 8020   3.596   7.361   5.160 -0.3095  0.4599  0.0052
 2006SOL     ow 8021   0.611   3.085   1.633 -0.3106 -0.7382  0.2425
 2006SOL     hw 8022   0.560   3.123   1.705 -1.1847 -1.2619 -0.0800
 2006SOL     hw 8023   0.608   2.991   1.649  2.2240 -0.7252  1.2893
 2006SOL     vw 8024   0.604   3.078   1.645 -0.0915 -0.8056  0.3380
 2007SOL     ow 8025   0.857   3.883   3.787 -0.0762 -0.6552 -0.1255
 2007SOL     hw 8026   0.910   3.805   3.804  1.4865  0.0565 -1.4542
 2007SOL     hw 8027   0.911   3.936   3.727 -1.7216  0.7570 -0.4260
 2007SOL     vw 8028   0.871   3.880   3.781 -0.0871 -0.3750 -0.3405
 2008SOL     ow 8029   6.086   3.760   2.742  0.0791 -0.2421  0.6022
 2008SOL     hw 8030   6.138   3.705   2.684  0.8591  0.1832  0.8798
 2008SOL     hw 8031   6.045   3.699   2.803 -1.0400 -0.7286 -0.5960
 2008SOL     vw 8032   6.087   3.745   2.743  0.0343 -0.2503  0.4808
 2009SOL     ow 8033   7.098   4.118   2.278  0.4357  0.0420  0.1671
 2009SOL     hw 8034   7.084   4.123   2.184  3.9793  0.7113 -0.4610
 2009SOL     hw 8035   7.136   4.203   2.302  1.9072 -0.9719  1.6815
 2009SOL     vw 8036   7.101   4.130   2.269  1.0977 -0.0036  0.2841
 2010SOL     ow 8037   2.341   3.159   0.453  0.1426 -0.2383  1.0459
 2010SOL     hw 8038   2.262   3.157   0.398 -0.6958  0.9068  2.1507
 2010SOL     hw 8039   2.411   3.185   0.393 -0.3216 -1.1981  0.0587
 2010SOL     vw 8040   2.340   3.162   0.438 -0.0292 -0.2139  1.0614
 2011SOL     ow 8041   3.501   2.790   6.816 -0.7671 -0.4085 -0.3952
 2011SOL     hw 8042   3.522   2.762   6.727  0.9691  0.4085 -0.2787
 2011SOL     hw 8043   3.544   2.725   6.872 -0.4423 -0.0042 -0.1642
 2011SOL     vw 8044   3.510   2.778   6.812 -0.4953 -0.2474 -0.3495
 2012SOL     ow 8045   4.887   2.354   2.684 -0.3106 -0.1313 -0.1249
 2012SOL     hw 8046   4.858   2.287   2.622  0.4550 -0.8878  0.3075
 2012SOL     hw 8047   4.850   2.435   2.650 -1.3086 -0.7711 -0.6319
 2012SOL     vw 8048   4.878   2.356   2.671 -0.3412 -0.3155 -0.1348
 2013SOL     ow 8049   6.892   6.943   1.814 -0.0865  0.0210  0.1677
 2013SOL     hw 8050   6.809   6.928   1.859 -0.3519  0.4035 -0.1935
 2013SOL     hw 8051   6.955   6.889   1.862 -0.4883 -0.0599  0.6100
 2013SOL     vw 8052   6.889   6.934   1.827 -0.1743  0.0608  0.1785
 2014SOL     ow 8053   6.950   5.365   1.023  0.3063  0.5524  0.2308
 2014SOL     hw 8054   6.923   5.455   1.039 -1.3181  0.2225 -0.4151
 2014SOL     hw 8055   6.951   5.324   1.110 -1.2654  0.6217  0.3092
 2014SOL     vw 8056   6.946   5.371   1.036 -0.1152  0.5178  0.1560
 2015SOL     ow 8057   1.577   6.369   1.680 -0.7446  0.2245  0.0267
 2015SOL     hw 8058   1.484   6.379   1.660 -0.7997 -0.9149 -0.3264
 2015SOL     hw 8059   1.614   6.329   1.602  0.3086  1.8435 -0.3605
 2015SOL     vw 8060   1.570   6.365   1.667 -0.6129  0.2878 -0.0710
 2016SOL     ow 8061   3.064   5.213   1.559  0.2370  0.0326  0.0013
 2016SOL     hw 8062   3.023   5.277   1.501 -0.8522  1.1653  1.8919
 2016SOL     hw 8063   3.148   5.252   1.583  0.5160 -0.2540 -0.5073
 2016SOL     vw 8064   3.069   5.227   1.555  0.1301  0.1442  0.1836
 2017SOL     ow 8065   0.477   2.252   0.229  0.0437 -0.3702  0.1119
 2017SOL     hw 8066   0.512   2.249   0.318  0.3113  2.9064  0.2443
 2017SOL     hw 8067   0.533   2.313   0.182 -1.5486 -0.1166 -1.6112
 2017SOL     vw 8068   0.489   2.260   0.234 -0.1311  0.0955 -0.0980
 2018SOL     ow 8069   4.599   3.092   3.827  0.2566  0.0267 -0.0935
 2018SOL     hw 8070   4.606   3.123   3.737  0.7147  0.0877 -0.0435
 2018SOL     hw 8071   4.641   3.006   3.826  0.7879  0.2743  0.1734
 2018SOL     vw 8072   4.606   3.084   3.815  0.3870  0.0674 -0.0516
 2019SOL     ow 8073   2.054   6.218   0.551  0.4914 -0.0553 -0.0174
 2019SOL     hw 8074   2.063   6.123   0.543  0.2815 -0.2951  2.1306
 2019SOL     hw 8075   2.139   6.248   0.584 -0.4732  0.0163  2.6058
 2019SOL     vw 8076   2.067   6.210   0.554  0.3365 -0.0780  0.6121
 2020SOL     ow 8077   5.295   2.666   5.686  0.1313 -0.7216  0.4561
 2020SOL     hw 8078   5.319   2.638   5.598 -0.7349  1.7295 -0.6588
 2020SOL     hw 8079   5.315   2.591   5.742 -0.4080 -2.7827 -1.9701
 2020SOL     vw 8080   5.301   2.652   5.682 -0.0546 -0.6701 -0.0112
 2021SOL     ow 8081   3.476   6.540   0.110  0.2601 -0.2275  0.2693
 2021SOL     hw 8082   3.534   6.567   0.181  0.7433 -0.6062  0.0214
 2021SOL     hw 8083   3.523   6.565   0.031  0.4610 -1.2662  0.0484
 2021SOL     vw 8084   3.490   6.547   0.109  0.3504 -0.4144  0.2075
 2022SOL     ow 8085   7.340   3.520   5.015  0.4559  0.1144 -0.4630
 2022SOL     hw 8086   7.388   3.592   4.973 -0.1413  0.0470 -1.2857
 2022SOL     hw 8087   7.253   3.523   4.975 -0.0862 -0.0658  0.6666
 2022SOL     vw 8088   7.335   3.530   5.004  0.3057  0.0818 -0.4225
 2023SOL     ow 8089   6.125   0.292   6.268  0.1587  0.0398 -0.2166
 2023SOL     hw 8090   6.064   0.218   6.272  0.8831 -0.6025 -0.6379
 2023SOL     hw 8091   6.086   0.352   6.204  0.4657 -0.8588 -1.2874
 2023SOL     vw 8092   6.112   0.290   6.260  0.2944 -0.1635 -0.4134
 2024SOL     ow 8093   7.144   3.612   7.119  0.5007 -0.2447 -0.2545
 2024SOL     hw 8094   7.235   3.583   7.129  0.9152  0.2626 -2.2368
 2024SOL     hw 8095   7.098   3.535   7.086  0.7042  0.1053 -1.3951
 2024SOL     vw 8096   7.150   3.598   7.116  0.5820 -0.1316 -0.6666
 2025SOL     ow 8097   1.981   1.924   4.255 -0.2082  0.0648  0.3112
 2025SOL     hw 8098   1.895   1.936   4.215 -0.0208 -0.2499 -0.1943
 2025SOL     hw 8099   2.033   1.879   4.188 -0.1564 -1.2912  1.2136
 2025SOL     vw 8100   1.976   1.919   4.241 -0.1767 -0.1556  0.3638
 2026SOL     ow 8101   5.535   0.157   2.251 -0.7941 -0.0111  0.5938
 2026SOL     hw 8102   5.441   0.162   2.234 -0.6156  0.8309 -0.1782
 2026SOL     hw 8103   5.575   0.213   2.185  0.3440 -1.2255  0.2152
 2026SOL     vw 8104   5.528   0.165   2.240 -0.6204 -0.0602  0.4420
 2027SOL     ow 8105   5.200   2.321   5.313  0.2264 -0.6029  0.3086
 2027SOL     hw 8106   5.241   2.354   5.233 -1.4378  2.2598  0.5224
 2027SOL     hw 8107   5.106   2.333   5.299 -0.3213 -2.9711  1.5198
 2027SOL     vw 8108   5.193   2.327   5.301 -0.0656 -0.5378  0.4964
 2028SOL     ow 8109   0.061   6.059   7.283 -0.1585 -0.1394  0.4468
 2028SOL     hw 8110   0.020   5.974   7.296  0.5671 -0.5567  0.1242
 2028SOL     hw 8111   0.056   6.102   7.368  1.4458 -1.4122  1.2491
 2028SOL     vw 8112   0.055   6.053   7.296  0.1489 -0.3622  0.5102
 2029SOL     ow 8113   3.540   3.707   4.171  0.4150 -0.5100 -0.1428
 2029SOL     hw 8114   3.494   3.791   4.171  2.1057  0.4510  0.0208
 2029SOL     hw 8115   3.576   3.699   4.083  0.0729 -1.1839 -0.2264
 2029SOL     vw 8116   3.539   3.717   4.160  0.5929 -0.4721 -0.1326
 2030SOL     ow 8117   5.524   0.042   2.851 -0.5834 -0.6328 -0.2129
 2030SOL     hw 8118   5.477   0.062   2.932  0.2989 -0.7661  0.3531
 2030SOL     hw 8119   5.461   0.060   2.781 -0.9792  0.6211  0.4370
 2030SOL     vw 8120   5.509   0.047   2.852 -0.5193 -0.4849 -0.0523
 2031SOL     ow 8121   3.935   6.336   1.934 -0.6147 -0.2175  0.7090
 2031SOL     hw 8122   3.971   6.249   1.945 -0.2577 -0.1341  0.2308
 2031SOL     hw 8123   4.006   6.387   1.896 -0.7717  0.3208  1.1144
 2031SOL     vw 8124   3.949   6.332   1.931 -0.5884 -0.1357  0.6995
 2032SOL     ow 8125   2.781   3.815   2.981  0.7964  0.2687 -0.2246
 2032SOL     hw 8126   2.851   3.881   2.981  1.6918 -0.6278 -1.8007
 2032SOL     hw 8127   2.810   3.749   2.918 -1.4388 -0.1986 -0.8557
 2032SOL     vw 8128   2.794   3.815   2.973  0.6196  0.0888 -0.5157
 2033SOL     ow 8129   0.114   4.788   5.178 -0.3227  0.6047  0.0231
 2033SOL     hw 8130   0.089   4.708   5.223 -1.7904  0.3262 -1.2035
 2033SOL     hw 8131   0.110   4.856   5.245  1.8925 -0.4255  1.3192
 2033SOL     vw 8132   0.110   4.787   5.193 -0.2241  0.4320  0.0324
 2034SOL     ow 8133   1.882   1.169   0.952 -0.6821 -0.0010  0.2973
 2034SOL     hw 8134   1.976   1.156   0.961 -0.7296  0.5369  1.8365
 2034SOL     hw 8135   1.860   1.127   0.869  0.9269 -0.0232 -0.1512
 2034SOL     vw 8136   1.891   1.162   0.942 -0.4761  0.0669  0.4413
 2035SOL     ow 8137   2.738   0.307   2.148 -0.3017  0.0028  0.4044
 2035SOL     hw 8138   2.644   0.314   2.131 -0.1108  1.8178 -0.2172
 2035SOL     hw 8139   2.772   0.255   2.075 -0.5577  1.1687 -0.5803
 2035SOL     vw 8140   2.730   0.301   2.136 -0.3103  0.3961  0.1925
 2036SOL     ow 8141   6.801   0.549   5.558  0.4150 -0.5429 -0.6154
 2036SOL     hw 8142   6.760   0.514   5.479 -1.8652  0.1752  0.1568
 2036SOL     hw 8143   6.776   0.487   5.627  1.2067 -0.4345 -0.2192
 2036SOL     vw 8144   6.792   0.536   5.557  0.2186 -0.4338 -0.4611
 2037SOL     ow 8145   3.572   4.127   1.973 -0.2740  0.6370 -0.8605
 2037SOL     hw 8146   3.649   4.070   1.981 -1.3968 -0.7784  0.1451
 2037SOL     hw 8147   3.561   4.138   1.878  0.8692  0.4753 -1.0354
 2037SOL     vw 8148   3.581   4.121   1.961 -0.2713  0.4289 -0.7508
 2038SOL     ow 8149   5.537   7.409   2.555  0.3075  0.3766 -0.1718
 2038SOL     hw 8150   5.501   7.497   2.566 -0.1563  0.3699 -1.4376
 2038SOL     hw 8151   5.496   7.376   2.475  1.4269 -0.5142 -0.4113
 2038SOL     vw 8152   5.527   7.416   2.546  0.3943  0.2580 -0.3704
 2039SOL     ow 8153   6.667   3.613   0.828  0.5430  0.4628 -0.1827
 2039SOL     hw 8154   6.713   3.659   0.898  0.2570 -0.2909  0.5013
 2039SOL     hw 8155   6.592   3.572   0.870  0.2027  0.2395 -0.9795
 2039SOL     vw 8156   6.663   3.614   0.843  0.4601  0.3339 -0.1976
 2040SOL     ow 8157   6.089   1.952   5.001 -0.2177  0.1923  0.2934
 2040SOL     hw 8158   6.109   1.982   5.089 -0.4259  0.5809  0.2082
 2040SOL     hw 8159   6.064   2.031   4.953 -0.6468 -0.0921  0.0374
 2040SOL     vw 8160   6.088   1.966   5.006 -0.3018  0.2061  0.2482
 2041SOL     ow 8161   0.891   1.562   3.354 -0.1341 -0.1251 -0.0149
 2041SOL     hw 8162   0.911   1.650   3.386  0.1519 -0.2665  0.2054
 2041SOL     hw 8163   0.884   1.509   3.434  0.2932 -0.4227 -0.1762
 2041SOL     vw 8164   0.893   1.566   3.369 -0.0400 -0.1830 -0.0070
 2042SOL     ow 8165   6.498   6.604   1.373  0.0203  0.6310  0.6280
 2042SOL     hw 8166   6.547   6.601   1.455 -0.7533 -0.8203  1.0656
 2042SOL     hw 8167   6.438   6.679   1.384 -0.5324  0.0596  1.6781
 2042SOL     vw 8168   6.496   6.614   1.385 -0.1545  0.3641  0.8243
 2043SOL     ow 8169   2.873   1.463   7.128  0.3847 -0.0567  0.1768
 2043SOL     hw 8170   2.881   1.506   7.213  2.8808  0.0768 -0.0516
 2043SOL     hw 8171   2.842   1.375   7.148 -0.9511  0.5667  1.0025
 2043SOL     vw 8172   2.870   1.457   7.142  0.5378  0.0432  0.2556
 2044SOL     ow 8173   0.049   3.926   3.064 -0.0379  0.4365  0.2056
 2044SOL     hw 8174   0.059   3.835   3.036 -1.5744  0.3621 -0.2015
 2044SOL     hw 8175   0.138   3.956   3.081  0.7186 -0.4439 -1.8441
 2044SOL     vw 8176   0.062   3.918   3.062 -0.1408  0.3104 -0.1185
 2045SOL     ow 8177   4.924   5.024   0.482  0.0354 -0.3394  0.4341
 2045SOL     hw 8178   4.885   5.048   0.398  2.3179  2.7901  0.0884
 2045SOL     hw 8179   4.871   5.072   0.546 -0.4580 -1.1013  0.6072
 2045SOL     vw 8180   4.912   5.033   0.480  0.2716 -0.0269  0.4113
 2046SOL     ow 8181   3.193   0.782   2.748  0.1585 -0.0410 -0.0538
 2046SOL     hw 8182   3.279   0.784   2.791  1.5523 -1.9967 -2.4803
 2046SOL     hw 8183   3.198   0.850   2.682  0.8381 -1.6475 -1.7496
 2046SOL     vw 8184   3.205   0.791   2.745  0.4320 -0.5109 -0.5977
 2047SOL     ow 8185   1.552   5.538   3.688  0.3070 -0.2802 -0.1910
 2047SOL     hw 8186   1.623   5.602   3.686  0.8664 -0.4909  4.3013
 2047SOL     hw 8187   1.589   5.461   3.643  1.0721  1.1024 -2.0878
 2047SOL     vw 8188   1.566   5.536   3.681  0.4817 -0.1254  0.1513
 2048SOL     ow 8189   1.939   1.554   5.204  0.3299  0.2458  0.5004
 2048SOL     hw 8190   1.969   1.546   5.113  0.7252 -0.6129  0.7024
 2048SOL     hw 8191   1.910   1.466   5.228 -0.6802  0.6734  0.9040
 2048SOL     vw 8192   1.939   1.542   5.195  0.2488  0.1889  0.5801
 2049SOL     ow 8193   0.374   5.431   1.695 -0.4269 -0.0024 -0.1560
 2049SOL     hw 8194   0.434   5.497   1.660  0.1800 -0.3987  0.1177
 2049SOL     hw 8195   0.430   5.355   1.713 -1.1492 -0.6848 -0.7050
 2049SOL     vw 8196   0.390   5.430   1.693 -0.4421 -0.1450 -0.1923
 2050SOL     ow 8197   6.735   7.093   5.778  0.6857  0.7584  0.2494
 2050SOL     hw 8198   6.800   7.125   5.715 -0.6701  1.2302 -0.9528
 2050SOL     hw 8199   6.651   7.125   5.745 -0.0584  1.1839  2.4270
 2050SOL     vw 8200   6.733   7.101   5.765  0.4089  0.8767  0.3781
 2051SOL     ow 8201   5.663   3.810   3.060  0.0327 -0.2336  1.0365
 2051SOL     hw 8202   5.723   3.831   2.988 -0.0422 -1.5588  0.5497
 2051SOL     hw 8203   5.701   3.851   3.137  1.1745 -0.4375  0.5925
 2051SOL     vw 8204   5.676   3.818   3.060  0.1738 -0.4354  0.9137
 2052SOL     ow 8205   5.596   7.021   4.288  0.2100 -0.1423 -0.7540
 2052SOL     hw 8206   5.615   6.988   4.200 -1.3250 -0.3943 -1.0325
 2052SOL     hw 8207   5.500   7.027   4.290  0.1903 -0.6644  1.1031
 2052SOL     vw 8208   5.586   7.018   4.277  0.0048 -0.2446 -0.5457
 2053SOL     ow 8209   1.653   3.554   1.845 -0.2356 -0.1998  0.4673
 2053SOL     hw 8210   1.564   3.530   1.818 -0.0294 -0.2544 -0.1774
 2053SOL     hw 8211   1.644   3.642   1.880 -0.2574  0.5084 -1.2420
 2053SOL     vw 8212   1.640   3.562   1.846 -0.2113 -0.1135  0.1567
 2054SOL     ow 8213   0.502   5.896   3.987 -0.6693 -0.1961  0.3218
 2054SOL     hw 8214   0.418   5.856   4.009 -1.6886  1.6078 -0.0855
 2054SOL     hw 8215   0.529   5.851   3.906 -1.2299 -0.8109  0.4696
 2054SOL     vw 8216   0.494   5.885   3.979 -0.8778 -0.0393  0.2875
 2055SOL     ow 8217   0.082   0.222   1.490  0.0090  0.5358  0.2227
 2055SOL     hw 8218   0.016   0.169   1.535  0.3430 -0.4366 -0.4147
 2055SOL     hw 8219   0.145   0.159   1.456  0.8084  1.3956  0.0663
 2055SOL     vw 8220   0.081   0.207   1.491  0.1585  0.5209  0.1180
 2056SOL     ow 8221   6.829   0.915   6.120 -0.5975 -0.6100  0.0264
 2056SOL     hw 8222   6.907   0.971   6.124  0.1450 -1.5488 -0.7781
 2056SOL     hw 8223   6.762   0.963   6.169 -0.2806  1.4414 -1.4149
 2056SOL     vw 8224   6.830   0.929   6.127 -0.4575 -0.4632 -0.2699
 2057SOL     ow 8225   6.044   0.232   2.471 -0.1222 -0.3086 -0.0748
 2057SOL     hw 8226   6.120   0.283   2.442 -0.0477 -1.3548 -1.9019
 2057SOL     hw 8227   6.015   0.275   2.551  0.6072  1.9202 -0.9317
 2057SOL     vw 8228   6.050   0.244   2.478 -0.0162 -0.1526 -0.4290
 2058SOL     ow 8229   0.253   5.835   0.112 -0.1017  0.1149 -0.7903
 2058SOL     hw 8230   0.281   5.924   0.089  0.9517  0.2478  0.8217
 2058SOL     hw 8231   0.326   5.779   0.088 -0.2732 -0.1527 -0.6967
 2058SOL     vw 8232   0.266   5.839   0.106  0.0146  0.0970 -0.5653
 2059SOL     ow 8233   3.251   7.322   1.855  0.0141 -0.1873 -0.3795
 2059SOL     hw 8234   3.346   7.327   1.846  0.0418  1.5004  0.4204
 2059SOL     hw 8235   3.217   7.350   1.770  0.2146 -0.7646 -0.6562
 2059SOL     vw 8236   3.259   7.327   1.843  0.0441 -0.0408 -0.3104
 2060SOL     ow 8237   3.019   5.976   5.817  0.1245  0.6876 -0.4910
 2060SOL     hw 8238   3.045   5.894   5.860 -1.3208  0.2081 -0.4930
 2060SOL     hw 8239   3.002   5.951   5.727 -0.8744  0.8664 -0.3584
 2060SOL     vw 8240   3.020   5.962   5.811 -0.1979  0.6478 -0.4740
 2061SOL     ow 8241   1.808   0.103   0.738  0.2054  0.3067 -0.3986
 2061SOL     hw 8242   1.825   0.162   0.665  1.9510  0.5828  0.1949
 2061SOL     hw 8243   1.713   0.104   0.747  0.1092  2.0750 -1.1784
 2061SOL     vw 8244   1.798   0.111   0.729  0.4231  0.5764 -0.4232
 2062SOL     ow 8245   5.933   3.207   0.638  0.4765 -0.5002 -0.1239
 2062SOL     hw 8246   6.005   3.146   0.658 -0.0039 -0.6137  1.4084
 2062SOL     hw 8247   5.961   3.290   0.678 -0.8542 -0.9242  1.8118
 2062SOL     vw 8248   5.946   3.210   0.646  0.2375 -0.5711  0.3337
 2063SOL     ow 8249   1.153   3.385   0.305 -0.0101  0.7465  0.2300
 2063SOL     hw 8250   1.201   3.458   0.343  1.7651  0.0794 -0.6463
 2063SOL     hw 8251   1.186   3.308   0.351  1.2580  0.0620 -1.6944
 2063SOL     vw 8252   1.163   3.385   0.316  0.3914  0.5680 -0.1395
 2064SOL     ow 8253   3.141   2.417   7.251  0.1308  0.6396  0.2155
 2064SOL     hw 8254   3.139   2.501   7.296 -2.2294  0.2258  0.9910
 2064SOL     hw 8255   3.069   2.367   7.288  1.1417 -1.5703 -0.5900
 2064SOL     vw 8256   3.131   2.421   7.262 -0.0474  0.2935  0.2117
 2065SOL     ow 8257   6.697   5.684   5.726 -0.8156 -0.4202  0.1812
 2065SOL     hw 8258   6.665   5.774   5.735  0.3560 -0.0358  0.7834
 2065SOL     hw 8259   6.763   5.689   5.657 -1.7228 -1.1044 -0.7480
 2065SOL     vw 8260   6.701   5.697   5.718 -0.7808 -0.4599  0.1378
 2066SOL     ow 8261   4.006   3.762   3.578  0.1824  0.0844 -0.1313
 2066SOL     hw 8262   4.065   3.830   3.610 -0.2763 -0.4053  1.9185
 2066SOL     hw 8263   3.930   3.810   3.544  0.3970  0.6210  0.1349
 2066SOL     vw 8264   4.004   3.777   3.578  0.1502  0.0906  0.1743
 2067SOL     ow 8265   4.090   1.616   6.558 -0.1470 -0.4580 -0.1026
 2067SOL     hw 8266   4.062   1.700   6.521  0.4671 -0.5442 -0.7915
 2067SOL     hw 8267   4.152   1.581   6.494 -0.1335 -1.2790  0.3442
 2067SOL     vw 8268   4.095   1.623   6.545 -0.0641 -0.5776 -0.1345
 2068SOL     ow 8269   7.350   7.100   5.968 -0.1255  0.4316  0.0646
 2068SOL     hw 8270   7.429   7.120   6.018 -0.2562 -1.5345  1.1222
 2068SOL     hw 8271   7.381   7.052   5.892 -0.0957  1.9786 -0.9542
 2068SOL     vw 8272   7.364   7.096   5.965 -0.1390  0.3765  0.0699
 2069SOL     ow 8273   5.035   5.250   5.078 -0.2965 -0.3942  0.3997
 2069SOL     hw 8274   4.981   5.217   5.150 -0.7712 -0.6095 -0.0551
 2069SOL     hw 8275   4.984   5.321   5.040 -1.1363 -1.7830 -1.2069
 2069SOL     vw 8276   5.022   5.255   5.083 -0.4699 -0.6058  0.1276
 2070SOL     ow 8277   6.921   1.320   6.032 -0.1779 -0.1536 -0.0637
 2070SOL     hw 8278   6.965   1.235   6.030 -1.0321 -0.6118 -0.9083
 2070SOL     hw 8279   6.838   1.304   5.986 -0.5251  1.0456  0.1132
 2070SOL     vw 8280   6.916   1.306   6.025 -0.3364 -0.0559 -0.1516
 2071SOL     ow 8281   0.299   2.798   0.492 -0.3622 -0.0366  0.0929
 2071SOL     hw 8282   0.327   2.886   0.467 -1.7276  0.4893  0.3773
 2071SOL     hw 8283   0.381   2.750   0.504  0.4900  1.6978  1.7959
 2071SOL     vw 8284   0.314   2.803   0.490 -0.4299  0.2617  0.3551
 2072SOL     ow 8285   2.614   4.001   6.446 -0.6950  0.3069  0.1560
 2072SOL     hw 8286   2.669   4.079   6.442 -2.5471  1.8452  2.1643
 2072SOL     hw 8287   2.610   3.969   6.356  0.8617  1.9605 -0.5542
 2072SOL     vw 8288   2.621   4.007   6.434 -0.7339  0.7279  0.3271
 2073SOL     ow 8289   5.749   0.250   2.788  0.2690  0.0847 -0.2944
 2073SOL     hw 8290   5.681   0.315   2.802 -0.0490 -0.0937 -0.9811
 2073SOL     hw 8291   5.830   0.301   2.780  0.1482  0.3285  0.0374
 2073SOL     vw 8292   5.751   0.265   2.789  0.2110  0.0933 -0.3412
 2074SOL     ow 8293   5.112   6.109   4.204  0.6006  0.3611  0.5625
 2074SOL     hw 8294   5.202   6.090   4.230  0.4278 -0.5231  0.5287
 2074SOL     hw 8295   5.058   6.071   4.273  0.2569  1.5300  0.9730
 2074SOL     vw 8296   5.117   6.102   4.216  0.5326  0.3984  0.6120
 2075SOL     ow 8297   6.788   6.184   7.061  0.5882  0.2777 -0.2013
 2075SOL     hw 8298   6.764   6.182   7.154  2.1749 -0.9460  0.2297
 2075SOL     hw 8299   6.863   6.125   7.054  0.5800  0.4244 -2.2586
 2075SOL     vw 8300   6.795   6.176   7.072  0.7966  0.1354 -0.4160
 2076SOL     ow 8301   3.113   0.445   2.659 -0.0961  0.1981  0.2860
 2076SOL     hw 8302   3.063   0.384   2.604 -1.3694 -0.2126  1.8031
 2076SOL     hw 8303   3.186   0.393   2.693  0.0975  0.1591 -0.1881
 2076SOL     vw 8304   3.116   0.430   2.656 -0.2387  0.1388  0.4236
 2077SOL     ow 8305   2.639   6.596   2.937 -0.0703  0.2413  0.0247
 2077SOL     hw 8306   2.577   6.639   2.995  2.0108  1.2740  1.6124
 2077SOL     hw 8307   2.621   6.634   2.851 -0.5537  1.7797  0.7597
 2077SOL     vw 8308   2.629   6.607   2.933  0.1405  0.5805  0.3313
 2078SOL     ow 8309   1.029   0.429   6.928 -0.2848 -0.2157 -0.0379
 2078SOL     hw 8310   1.095   0.401   6.864  0.4667  1.1453  0.1010
 2078SOL     hw 8311   1.075   0.490   6.984 -1.4928  0.1965  0.5322
 2078SOL     vw 8312   1.044   0.433   6.927 -0.3451  0.0183  0.0556
 2079SOL     ow 8313   6.460   4.155   1.284 -0.0281 -0.2708 -0.0507
 2079SOL     hw 8314   6.409   4.077   1.303  1.2391 -1.1498 -0.1002
 2079SOL     hw 8315   6.539   4.122   1.241  0.2856  1.0902 -0.5778
 2079SOL     vw 8316   6.464   4.140   1.281  0.1802 -0.2072 -0.1268
 2080SOL     ow 8317   7.182   6.647   4.590  1.1442 -0.2374  0.0316
 2080SOL     hw 8318   7.263   6.666   4.543  0.1487  0.8722 -1.3466
 2080SOL     hw 8319   7.126   6.722   4.570 -1.1185 -2.1111 -1.1885
 2080SOL     vw 8320   7.185   6.660   4.581  0.7145 -0.3383 -0.3111
 2081SOL     ow 8321   4.203   1.812   6.343 -0.0674  0.2786 -0.5648
 2081SOL     hw 8322   4.264   1.766   6.401 -0.0658 -0.1877 -0.9297
 2081SOL     hw 8323   4.146   1.861   6.403 -0.3417 -0.5303 -0.1336
 2081SOL     vw 8324   4.203   1.812   6.359 -0.1032  0.1103 -0.5562
 2082SOL     ow 8325   5.758   0.150   6.167 -0.0228 -0.0700 -1.0290
 2082SOL     hw 8326   5.786   0.234   6.129  2.5710 -0.0797  0.5826
 2082SOL     hw 8327   5.839   0.099   6.172 -0.7994 -1.1944  1.5405
 2082SOL     vw 8328   5.773   0.155   6.162  0.2170 -0.2197 -0.4773
 2083SOL     ow 8329   1.127   1.318   5.894  0.1785 -0.5388  0.2581
 2083SOL     hw 8330   1.128   1.254   5.823  1.2282 -0.1891 -0.0596
 2083SOL     hw 8331   1.161   1.271   5.970  0.3106 -0.5423  0.1966
 2083SOL     vw 8332   1.132   1.304   5.895  0.3345 -0.4931  0.2081
 2084SOL     ow 8333   0.831   4.985   6.682  0.1817  0.2414  0.1507
 2084SOL     hw 8334   0.792   4.932   6.612  2.5015  0.1075 -1.1316
 2084SOL     hw 8335   0.898   4.928   6.720  0.4948  1.1399  0.9741
 2084SOL     vw 8336   0.835   4.970   6.678  0.5291  0.3421  0.0901
 2085SOL     ow 8337   5.247   4.631   3.979  0.1138  0.2985  0.2256
 2085SOL     hw 8338   5.328   4.638   3.929  0.1407 -0.8306  0.0752
 2085SOL     hw 8339   5.274   4.600   4.066  0.0312  1.9006  0.8616
 2085SOL     vw 8340   5.261   4.627   3.984  0.1066  0.3610  0.2896
 2086SOL     ow 8341   0.642   1.916   3.661 -0.1783  0.0268  0.2095
 2086SOL     hw 8342   0.700   1.975   3.612  1.1034 -1.9038 -0.7824
 2086SOL     hw 8343   0.565   1.968   3.680  0.7107  1.8902 -0.9408
 2086SOL     vw 8344   0.640   1.931   3.657  0.1081  0.0179 -0.0731
 2087SOL     ow 8345   2.814   4.861   1.739 -0.6092  0.2466  0.3310
 2087SOL     hw 8346   2.903   4.897   1.734 -0.6923  0.5233  0.7668
 2087SOL     hw 8347   2.800   4.820   1.654  0.4082 -0.9046  0.6726
 2087SOL     vw 8348   2.824   4.860   1.727 -0.4860  0.1311  0.4336
 2088SOL     ow 8349   7.177   1.108   1.479 -0.1543 -0.5198  0.3777
 2088SOL     hw 8350   7.159   1.121   1.572 -1.2717  2.3693 -0.1333
 2088SOL     hw 8351   7.263   1.065   1.477  0.3153  0.1624  2.7277
 2088SOL     vw 8352   7.186   1.104   1.491 -0.2396 -0.0487  0.6204
 2089SOL     ow 8353   4.329   1.997   3.037  0.3841  0.7714  0.2025
 2089SOL     hw 8354   4.234   1.990   3.027  0.6277 -2.4467 -1.4397
 2089SOL     hw 8355   4.364   1.958   2.957  3.0890  1.2920  1.0272
 2089SOL     vw 8356   4.321   1.991   3.025  0.7732  0.4154  0.0948
 2090SOL     ow 8357   4.540   1.119   1.345  0.7922  0.0144  0.1752
 2090SOL     hw 8358   4.629   1.126   1.379  0.6030 -0.8096  0.8466
 2090SOL     hw 8359   4.486   1.099   1.421  0.0437  0.3775 -0.2490
 2090SOL     vw 8360   4.545   1.118   1.359  0.6683 -0.0463  0.2079
 2091SOL     ow 8361   6.468   0.922   1.592  0.6635 -0.1072  0.0465
 2091SOL     hw 8362   6.522   0.844   1.582  1.4081  0.4304 -0.2875
 2091SOL     hw 8363   6.517   0.977   1.653  0.8085  0.6466 -0.7284
 2091SOL     vw 8364   6.481   0.919   1.599  0.7808  0.0632 -0.0999
 2092SOL     ow 8365   6.683   4.336   6.661  0.5654 -0.2815 -0.3176
 2092SOL     hw 8366   6.723   4.252   6.642 -0.8193 -0.9273 -0.5119
 2092SOL     hw 8367   6.596   4.315   6.695 -0.0014  1.0595 -0.8202
 2092SOL     vw 8368   6.677   4.322   6.663  0.3083 -0.1895 -0.4096
 2093SOL     ow 8369   3.891   1.899   1.554 -0.0884 -0.0152  0.1958
 2093SOL     hw 8370   3.875   1.936   1.467  0.2881 -2.4723 -1.0277
 2093SOL     hw 8371   3.804   1.877   1.588 -0.2261  0.8136  0.3967
 2093SOL     vw 8372   3.878   1.901   1.547 -0.0567 -0.2301  0.0610
 2094SOL     ow 8373   2.253   2.581   0.413  0.2707 -0.1139  0.3883
 2094SOL     hw 8374   2.183   2.645   0.402 -1.0950 -1.4252  0.9868
 2094SOL     hw 8375   2.230   2.534   0.494  2.0333 -0.3695  0.7759
 2094SOL     vw 8376   2.240   2.583   0.422  0.3231 -0.3206  0.5184
 2095SOL     ow 8377   6.043   4.847   0.554 -0.0522  0.2460 -0.2260
 2095SOL     hw 8378   6.063   4.940   0.563 -1.3453  0.5984 -0.7413
 2095SOL     hw 8379   5.983   4.829   0.627 -1.8555  0.4759 -1.5730
 2095SOL     vw 8380   6.038   4.857   0.565 -0.4609  0.3226 -0.4717
 2096SOL     ow 8381   5.350   3.853   2.473 -0.1702  0.2160  0.3452
 2096SOL     hw 8382   5.349   3.806   2.556 -1.9476  1.8595  1.3238
 2096SOL     hw 8383   5.299   3.798   2.413 -1.3717  0.3805  1.1893
 2096SOL     vw 8384   5.343   3.840   2.476 -0.5634  0.4545  0.5857
 2097SOL     ow 8385   3.976   4.990   6.404 -0.8100  0.2362 -0.3217
 2097SOL     hw 8386   3.948   4.908   6.444  0.6332 -1.3214 -2.2982
 2097SOL     hw 8387   3.896   5.043   6.400 -1.3778 -0.1818  2.8045
 2097SOL     vw 8388   3.961   4.986   6.409 -0.6944 -0.0243 -0.1700
 2098SOL     ow 8389   5.677   5.288   4.701  0.3099  0.2802 -0.6763
 2098SOL     hw 8390   5.617   5.363   4.698  0.1016  0.1932  0.7069
 2098SOL     hw 8391   5.632   5.225   4.757 -0.0800 -1.3983 -2.7769
 2098SOL     vw 8392   5.663   5.290   4.708  0.2310  0.0472 -0.7710
 2099SOL     ow 8393   7.095   3.383   7.004 -0.4538 -0.0123 -0.2836
 2099SOL     hw 8394   7.096   3.421   6.917  1.0524  2.8450  0.8461
 2099SOL     hw 8395   7.176   3.334   7.010 -0.3054  0.2236 -0.3364
 2099SOL     vw 8396   7.106   3.382   6.994 -0.2356  0.3957 -0.1414
 2100SOL     ow 8397   3.420   2.536   3.785  0.3325 -0.3749  0.2409
 2100SOL     hw 8398   3.376   2.538   3.699  0.8445  3.3958 -0.0776
 2100SOL     hw 8399   3.352   2.505   3.845 -0.8698 -0.5255 -1.1199
 2100SOL     vw 8400   3.405   2.532   3.781  0.2414  0.1028  0.0193
 2101SOL     ow 8401   1.515   6.845   4.363 -0.2887  0.2427  0.1816
 2101SOL     hw 8402   1.494   6.770   4.419 -0.5654  2.3831  3.2059
 2101SOL     hw 8403   1.430   6.872   4.328 -0.6308  0.7199  1.3162
 2101SOL     vw 8404   1.501   6.839   4.366 -0.3703  0.5879  0.7303
 2102SOL     ow 8405   7.485   5.577   3.968 -0.0753  0.2679 -0.2455
 2102SOL     hw 8406   7.442   5.519   3.904 -0.7135 -0.3274  0.6874
 2102SOL     hw 8407   7.492   5.523   4.047  0.7850  0.9596  0.1573
 2102SOL     vw 8408   7.480   5.562   3.970 -0.0460  0.2804 -0.0695
 2103SOL     ow 8409   7.039   0.037   5.721 -0.1680 -0.0904  0.2984
 2103SOL     hw 8410   7.127   0.016   5.690 -0.1592  0.1893  0.1257
 2103SOL     hw 8411   6.981  -0.014   5.664 -0.2138  1.4777 -1.1328
 2103SOL     vw 8412   7.043   0.027   5.709 -0.1729  0.1533  0.0870
 2104SOL     ow 8413   3.840   1.401   4.318 -0.4518 -0.0766 -0.0235
 2104SOL     hw 8414   3.758   1.438   4.285  0.0316 -0.2540 -1.5040
 2104SOL     hw 8415   3.908   1.461   4.287 -0.1084  1.4488  3.2213
 2104SOL     vw 8416   3.839   1.414   4.310 -0.3427  0.1012  0.2091
 2105SOL     ow 8417   5.703   1.475   2.727  0.3550 -0.3218 -0.1925
 2105SOL     hw 8418   5.746   1.390   2.727 -0.1704 -0.5993  0.7219
 2105SOL     hw 8419   5.610   1.455   2.716  0.1121  0.0536  1.0653
 2105SOL     vw 8420   5.697   1.461   2.725  0.2534 -0.3089  0.0942
 2106SOL     ow 8421   5.178   3.686   2.286 -0.6492 -0.0437  0.1000
 2106SOL     hw 8422   5.102   3.739   2.261 -1.2514 -1.7112 -1.9237
 2106SOL     hw 8423   5.242   3.703   2.216 -0.1632 -0.6125  0.4006
 2106SOL     vw 8424   5.176   3.696   2.273 -0.6645 -0.3389 -0.1272
 2107SOL     ow 8425   3.407   6.001   4.566  0.5498 -0.0322  0.0173
 2107SOL     hw 8426   3.404   5.914   4.607 -1.2703  0.2406  0.5579
 2107SOL     hw 8427   3.356   6.057   4.625  0.2684  1.0152 -1.1761
 2107SOL     vw 8428   3.400   5.997   4.580  0.2728  0.1416 -0.0687
 2108SOL     ow 8429   0.379   4.637   1.723 -0.1773  0.3697  0.2394
 2108SOL     hw 8430   0.399   4.709   1.784  2.2746  0.5546 -0.6575
 2108SOL     hw 8431   0.383   4.678   1.636 -1.7122 -0.2902 -0.1799
 2108SOL     vw 8432   0.382   4.652   1.720 -0.0563  0.3068  0.0658
 2109SOL     ow 8433   2.185   0.029   4.053  0.1475 -0.1691  0.0730
 2109SOL     hw 8434   2.195   0.121   4.079 -2.8895 -0.1980  1.8088
 2109SOL     hw 8435   2.238  -0.019   4.117  0.6722  0.2814 -0.0119
 2109SOL     vw 8436   2.193   0.035   4.065 -0.1839 -0.1134  0.2906
 2110SOL     ow 8437   5.403   7.429   7.223 -0.1354 -0.1634  0.2544
 2110SOL     hw 8438   5.376   7.390   7.306 -0.1143 -0.4830  0.1116
 2110SOL     hw 8439   5.424   7.520   7.246  0.8999 -0.5215  0.8125
 2110SOL     vw 8440   5.402   7.436   7.237  0.0041 -0.2525  0.3092
 2111SOL     ow 8441   3.699   3.641   3.501  0.3055 -0.3384 -0.4018
 2111SOL     hw 8442   3.712   3.603   3.589 -2.2259 -2.3408 -0.7715
 2111SOL     hw 8443   3.719   3.734   3.512  0.5046 -0.6053  2.2023
 2111SOL     vw 8444   3.704   3.648   3.514 -0.0021 -0.6378 -0.1068
 2112SOL     ow 8445   6.543   2.063   3.875 -0.5249  0.4806 -0.3576
 2112SOL     hw 8446   6.636   2.069   3.856 -0.5660 -0.7086 -0.9952
 2112SOL     hw 8447   6.519   2.151   3.903  1.1171  0.4161  1.4165
 2112SOL     vw 8448   6.552   2.076   3.876 -0.3133  0.3152 -0.2077
 2113SOL     ow 8449   6.999   3.069   6.476 -0.0917  0.6213  0.3588
 2113SOL     hw 8450   7.086   3.091   6.440 -0.6317  2.2671 -0.0574
 2113SOL     hw 8451   6.996   3.116   6.559 -0.3655  0.0776  0.6554
 2113SOL     vw 8452   7.010   3.078   6.482 -0.1991  0.7668  0.3431
 2114SOL     ow 8453   4.544   1.027   0.687 -0.8156  0.6351  0.0433
 2114SOL     hw 8454   4.484   1.051   0.616 -2.0530 -2.6427 -0.2037
 2114SOL     hw 8455   4.595   1.106   0.704 -3.3024  2.7616 -1.6578
 2114SOL     vw 8456   4.542   1.041   0.680 -1.3068  0.4832 -0.2137
 2115SOL     ow 8457   1.258   4.152   6.693  0.6693  0.8473  0.1083
 2115SOL     hw 8458   1.209   4.173   6.614 -0.1250 -0.2597  0.2965
 2115SOL     hw 8459   1.258   4.057   6.698 -1.8406  0.8397  2.9480
 2115SOL     vw 8460   1.252   4.142   6.683  0.2333  0.7000  0.5078
 2116SOL     ow 8461   1.750   5.700   4.440  0.0078  0.4300  0.2449
 2116SOL     hw 8462   1.806   5.771   4.407 -0.8279  0.8002 -0.4347
 2116SOL     hw 8463   1.742   5.716   4.534  1.3429  0.1427  0.4243
 2116SOL     vw 8464   1.756   5.711   4.448  0.0737  0.4411  0.1788
 2117SOL     ow 8465   4.964   4.562   1.871 -0.3713 -0.2297  0.0560
 2117SOL     hw 8466   5.005   4.637   1.828  1.2499 -0.6813  0.7675
 2117SOL     hw 8467   5.031   4.495   1.873 -1.0001 -0.8605  1.6354
 2117SOL     vw 8468   4.978   4.563   1.865 -0.2403 -0.3724  0.3582
 2118SOL     ow 8469   4.159   4.604   1.848 -0.5274 -0.0416 -0.0352
 2118SOL     hw 8470   4.114   4.525   1.816 -1.2923  0.3850 -0.0313
 2118SOL     hw 8471   4.218   4.571   1.916  0.0297 -0.7636 -0.8364
 2118SOL     vw 8472   4.161   4.589   1.853 -0.5550 -0.0806 -0.1404
 2119SOL     ow 8473   3.753   1.143   0.261  0.5176 -0.1046  0.1117
 2119SOL     hw 8474   3.698   1.221   0.269  0.9319  0.2880 -0.6924
 2119SOL     hw 8475   3.716   1.081   0.323  0.3433  0.8260  0.9626
 2119SOL     vw 8476   3.741   1.145   0.270  0.5493  0.0701  0.1179
 2120SOL     ow 8477   2.163   4.058   2.358 -0.6135 -0.5192  0.0282
 2120SOL     hw 8478   2.126   3.975   2.327 -0.1740  0.0005 -2.0699
 2120SOL     hw 8479   2.193   4.040   2.446 -1.2444 -2.3684 -0.0908
 2120SOL     vw 8480   2.162   4.045   2.365 -0.6387 -0.6948 -0.2643
 2121SOL     ow 8481   4.741   7.233   6.562  0.5385  0.2072 -0.9254
 2121SOL     hw 8482   4.745   7.259   6.470  0.6512  0.1181 -0.9459
 2121SOL     hw 8483   4.759   7.139   6.561 -1.4767 -0.2146 -1.0159
 2121SOL     vw 8484   4.744   7.224   6.549  0.2875  0.1395 -0.9401
 2122SOL     ow 8485   0.649   4.435   7.418  0.1619  0.6191 -1.0088
 2122SOL     hw 8486   0.735   4.420   7.458 -0.4232 -0.0971  0.0519
 2122SOL     hw 8487   0.607   4.349   7.420 -0.1678  0.7123 -2.5811
 2122SOL     vw 8488   0.655   4.422   7.424  0.0412  0.5369 -1.0762
 2123SOL     ow 8489   5.655   0.674   1.351 -0.6887 -0.3126 -0.1441
 2123SOL     hw 8490   5.679   0.626   1.430 -0.3009  0.6438  0.3401
 2123SOL     hw 8491   5.567   0.644   1.330 -1.3334  0.3823  1.4337
 2123SOL     vw 8492   5.647   0.664   1.358 -0.7226 -0.0948  0.1279
 2124SOL     ow 8493   7.115   6.811   5.246 -0.0742  0.1189  0.0853
 2124SOL     hw 8494   7.094   6.812   5.339 -0.6928 -0.6973 -0.0253
 2124SOL     hw 8495   7.166   6.730   5.234 -1.9342 -1.0181 -0.6340
 2124SOL     vw 8496   7.119   6.800   5.257 -0.4010 -0.1390 -0.0241
 2125SOL     ow 8497   6.007   4.178   5.179  0.1955  0.3730 -0.5942
 2125SOL     hw 8498   5.951   4.124   5.124 -0.2857  0.6873 -0.4243
 2125SOL     hw 8499   6.062   4.226   5.118 -0.3323  0.7163 -0.8085
 2125SOL     vw 8500   6.007   4.177   5.164  0.0622  0.4597 -0.6001
 2126SOL     ow 8501   0.488   6.629   6.128  0.5194 -0.3779 -0.4010
 2126SOL     hw 8502   0.417   6.630   6.064  1.4778 -2.4529 -1.5792
 2126SOL     hw 8503   0.547   6.699   6.098 -1.2854  1.9335  1.0561
 2126SOL     vw 8504   0.487   6.639   6.116  0.4077 -0.3464 -0.3643
 2127SOL     ow 8505   3.018   0.007   6.813 -0.8190  0.7410 -0.0639
 2127SOL     hw 8506   2.985  -0.083   6.813 -2.8410  1.4451  0.0825
 2127SOL     hw 8507   3.020   0.032   6.905 -1.6904  1.3244 -0.1934
 2127SOL     vw 8508   3.014  -0.002   6.825 -1.2008  0.9108 -0.0615
 2128SOL     ow 8509   6.632   4.915   2.769 -0.6832  0.2087 -0.1081
 2128SOL     hw 8510   6.571   4.913   2.695  0.9629 -0.7416 -1.5247
 2128SOL     hw 8511   6.590   4.860   2.835 -0.9194 -1.3359 -1.4682
 2128SOL     vw 8512   6.618   4.907   2.768 -0.4973 -0.1204 -0.4745
 2129SOL     ow 8513   4.350   1.110   0.551  0.2163 -0.0825  0.3951
 2129SOL     hw 8514   4.358   1.195   0.509  0.5434  0.1233  0.8673
 2129SOL     hw 8515   4.326   1.130   0.642 -2.3352 -0.5547 -0.0953
 2129SOL     vw 8516   4.348   1.124   0.558 -0.0772 -0.1176  0.3927
 2130SOL     ow 8517   4.951   4.695   0.257  0.7516  0.4994  0.4352
 2130SOL     hw 8518   4.862   4.695   0.223  1.4381 -0.4603 -1.5159
 2130SOL     hw 8519   5.004   4.735   0.188  1.7935  1.5526  1.7705
 2130SOL     vw 8520   4.946   4.700   0.244  0.9797  0.5119  0.3539
 2131SOL     ow 8521   0.946   1.230   2.369  0.4351 -0.0585  0.4080
 2131SOL     hw 8522   0.947   1.307   2.312 -1.3275 -0.1059  0.2593
 2131SOL     hw 8523   0.907   1.161   2.315  1.2412 -0.8479  0.8121
 2131SOL     vw 8524   0.941   1.231   2.354  0.3089 -0.1689  0.4419
 2132SOL     ow 8525   4.463   3.773   6.947  0.3821 -0.5597  0.6813
 2132SOL     hw 8526   4.447   3.824   7.027  1.5974 -0.0108  0.5949
 2132SOL     hw 8527   4.526   3.825   6.898  0.1944 -1.2458 -0.3147
 2132SOL     vw 8528   4.469   3.787   6.951  0.5174 -0.5779  0.5383
 2133SOL     ow 8529   4.426   5.990   6.954 -0.0332  0.3009  0.0277
 2133SOL     hw 8530   4.345   6.040   6.944  0.8781  1.7336 -0.5994
 2133SOL     hw 8531   4.439   5.948   6.869 -0.1844 -0.0142  0.1628
 2133SOL     vw 8532   4.417   5.991   6.942  0.0672  0.4482 -0.0372
 2134SOL     ow 8533   7.032   1.341   6.937 -0.3854 -0.1719 -0.8232
 2134SOL     hw 8534   7.014   1.373   6.849  0.9875  0.9390 -0.7420
 2134SOL     hw 8535   6.973   1.391   6.993 -0.8297 -0.4379 -1.0517
 2134SOL     vw 8536   7.022   1.352   6.933 -0.2627 -0.0605 -0.8423
 2135SOL     ow 8537   7.372   3.390   3.643 -0.6706  0.3152  0.2421
 2135SOL     hw 8538   7.408   3.478   3.630 -0.1245  0.0498 -0.0639
 2135SOL     hw 8539   7.289   3.392   3.595 -0.4054  0.5017 -0.2233
 2135SOL     vw 8540   7.366   3.402   3.635 -0.5636  0.3049  0.1403
 2136SOL     ow 8541   6.949   4.472   6.637  0.6167 -0.0642 -0.1229
 2136SOL     hw 8542   7.000   4.408   6.587 -0.0033 -0.8092  0.1767
 2136SOL     hw 8543   7.010   4.544   6.653  1.2484 -0.4581 -0.7056
 2136SOL     vw 8544   6.964   4.473   6.633  0.6182 -0.2143 -0.1607
 2137SOL     ow 8545   1.119   6.294   0.541 -0.1350  0.2445  0.1648
 2137SOL     hw 8546   1.050   6.243   0.584  0.5776 -0.7323  0.1905
 2137SOL     hw 8547   1.200   6.252   0.569  0.4006  0.3545 -1.1404
 2137SOL     vw 8548   1.120   6.282   0.550  0.0297  0.1302 -0.0040
 2138SOL     ow 8549   4.771   4.570   0.631 -0.3133  0.3699 -0.5861
 2138SOL     hw 8550   4.825   4.639   0.592  0.8192  0.3619  0.8652
 2138SOL     hw 8551   4.728   4.528   0.556  1.7132  0.3731 -1.8374
 2138SOL     vw 8552   4.773   4.573   0.616  0.1032  0.3693 -0.5597
 2139SOL     ow 8553   6.249   6.990   1.590 -0.1792 -0.3451  0.6315
 2139SOL     hw 8554   6.319   7.026   1.536 -1.5495  0.0290 -0.9887
 2139SOL     hw 8555   6.294   6.932   1.652  1.4458 -1.2254 -1.2561
 2139SOL     vw 8556   6.264   6.987   1.591 -0.1454 -0.4120  0.1687
 2140SOL     ow 8557   0.155   1.035   4.078 -0.1032  0.0048  0.5898
 2140SOL     hw 8558   0.214   1.061   4.007  0.4365  0.5387  1.2151
 2140SOL     hw 8559   0.157   0.940   4.078  1.0362  0.0107  0.8070
 2140SOL     vw 8560   0.163   1.026   4.069  0.1184  0.0761  0.7007
 2141SOL     ow 8561   2.495   1.119   1.539  0.1491  0.4284 -0.2200
 2141SOL     hw 8562   2.493   1.215   1.537  0.1774  0.4253 -0.4835
 2141SOL     hw 8563   2.498   1.097   1.632 -0.7218  0.6626 -0.1312
 2141SOL     vw 8564   2.495   1.129   1.551  0.0378  0.4590 -0.2431
 2142SOL     ow 8565   7.062   6.253   7.321  0.0426  0.4821  0.7488
 2142SOL     hw 8566   7.129   6.199   7.362 -1.2950  0.1082  2.5982
 2142SOL     hw 8567   6.980   6.226   7.364 -1.1200  1.7271 -0.5777
 2142SOL     vw 8568   7.060   6.242   7.332 -0.2875  0.5970  0.8178
 2143SOL     ow 8569   5.523   2.357   5.569  0.3143  0.2723  0.0135
 2143SOL     hw 8570   5.564   2.271   5.573 -2.1200 -1.0187 -0.7938
 2143SOL     hw 8571   5.555   2.403   5.647  2.1701 -1.1075  0.1111
 2143SOL     vw 8572   5.532   2.352   5.580  0.2382 -0.0802 -0.0799
 2144SOL     ow 8573   4.614   3.604   6.485  0.5709 -0.0755 -0.4237
 2144SOL     hw 8574   4.706   3.596   6.459  0.6241  1.5756 -0.8622
 2144SOL     hw 8575   4.569   3.628   6.404 -0.6767 -3.0634 -0.7567
 2144SOL     vw 8576   4.621   3.606   6.471  0.4129 -0.2519 -0.5255
 2145SOL     ow 8577   1.731   2.907   3.420 -1.0664 -0.6484  0.3980
 2145SOL     hw 8578   1.763   2.913   3.330 -0.7073 -1.4614  0.4595
 2145SOL     hw 8579   1.796   2.853   3.465  0.6514  2.4818  2.0315
 2145SOL     vw 8580   1.744   2.901   3.414 -0.7924 -0.3425  0.6216
 2146SOL     ow 8581   6.960   5.279   2.323  0.1902  0.0373 -0.2900
 2146SOL     hw 8582   7.034   5.297   2.265  0.3993 -0.4527 -0.1761
 2146SOL     hw 8583   6.998   5.274   2.411  0.2600 -1.6384 -0.3855
 2146SOL     vw 8584   6.975   5.281   2.327  0.2270 -0.2482 -0.2875
 2147SOL     ow 8585   5.305   5.076   5.234 -0.2335 -0.2438 -0.6082
 2147SOL     hw 8586   5.327   5.008   5.171 -0.9479 -0.3014 -0.8074
 2147SOL     hw 8587   5.332   5.041   5.318  1.6918  0.2594 -0.9725
 2147SOL     vw 8588   5.311   5.063   5.237 -0.0737 -0.1850 -0.6828
 2148SOL     ow 8589   4.366   0.217   3.918 -0.4968 -0.3101 -0.1410
 2148SOL     hw 8590   4.321   0.273   3.981  0.8023  0.8952 -0.2263
 2148SOL     hw 8591   4.347   0.255   3.833  1.4558  0.8752 -0.1128
 2148SOL     vw 8592   4.358   0.229   3.915 -0.0679  0.0053 -0.1485
 2149SOL     ow 8593   1.326   6.928   6.301 -0.6655  0.3829 -0.2838
 2149SOL     hw 8594   1.322   6.993   6.371 -0.3796  0.7227 -0.5810
 2149SOL     hw 8595   1.238   6.890   6.300 -1.0184  1.1728 -0.4946
 2149SOL     vw 8596   1.313   6.932   6.310 -0.6744  0.5319 -0.3510
 2150SOL     ow 8597   0.686   1.965   6.470 -0.0893  0.4453 -0.2004
 2150SOL     hw 8598   0.705   1.890   6.527  1.9538  1.5526  0.7040
 2150SOL     hw 8599   0.639   2.026   6.527 -1.1294  0.1784 -0.7400
 2150SOL     vw 8600   0.682   1.963   6.485  0.0430  0.5562 -0.1521
 2151SOL     ow 8601   1.023   4.726   4.817  0.0228 -0.2051  0.4374
 2151SOL     hw 8602   1.064   4.698   4.899  1.2871 -1.1472 -0.4834
 2151SOL     hw 8603   0.947   4.777   4.845 -1.1043 -2.6494  2.2105
 2151SOL     vw 8604   1.018   4.729   4.832  0.0408 -0.6521  0.5498
 2152SOL     ow 8605   2.060   4.507   2.259  0.1359 -0.6445 -0.2252
 2152SOL     hw 8606   1.995   4.575   2.273  0.1554 -0.6762  0.0383
 2152SOL     hw 8607   2.121   4.518   2.332  1.3464  0.4401 -1.3475
 2152SOL     vw 8608   2.060   4.518   2.271  0.2984 -0.5054 -0.3386
 2153SOL     ow 8609   0.915   4.923   5.709  0.0872  0.0165 -0.4141
 2153SOL     hw 8610   0.934   5.016   5.701 -0.1340  0.1118  0.1295
 2153SOL     hw 8611   0.990   4.880   5.669  0.2602  0.4256 -0.5347
 2153SOL     vw 8612   0.927   4.930   5.703  0.0808  0.0830 -0.3581
 2154SOL     ow 8613   1.123   1.629   5.795  0.5195  0.3254  0.4335
 2154SOL     hw 8614   1.085   1.681   5.723  0.9594 -0.3494 -0.3036
 2154SOL     hw 8615   1.048   1.587   5.837  0.4084 -1.0063 -1.0162
 2154SOL     vw 8616   1.108   1.631   5.791  0.5629  0.0606  0.1450
 2155SOL     ow 8617   1.451   3.214   2.287  0.3797  0.2443  0.0353
 2155SOL     hw 8618   1.459   3.285   2.224  0.5516 -1.8466 -2.4377
 2155SOL     hw 8619   1.537   3.172   2.289  0.4026  0.2778  1.7484
 2155SOL     vw 8620   1.464   3.218   2.279  0.4054 -0.0272 -0.0648
 2156SOL     ow 8621   5.117   5.196   3.074  0.1254  0.0586 -0.4228
 2156SOL     hw 8622   5.055   5.165   3.141  0.7780  1.6217  0.9708
 2156SOL     hw 8623   5.201   5.201   3.120  0.3342  2.4231 -0.9497
 2156SOL     vw 8624   5.120   5.193   3.089  0.2389  0.5770 -0.3083
 2157SOL     ow 8625   5.527   3.018   3.510  0.0086 -0.4173 -0.0926
 2157SOL     hw 8626   5.463   3.074   3.556  1.3109  0.9929  0.0963
 2157SOL     hw 8627   5.483   2.994   3.428 -0.1760  2.0002 -0.7972
 2157SOL     vw 8628   5.513   3.022   3.505  0.1559  0.0877 -0.1606
 2158SOL     ow 8629   1.737   4.284   1.203 -0.2724  0.2513  0.2134
 2158SOL     hw 8630   1.667   4.237   1.158 -1.2979  0.5711  1.4210
 2158SOL     hw 8631   1.790   4.322   1.133  0.6737 -2.6998 -0.8457
 2158SOL     vw 8632   1.735   4.282   1.188 -0.2829 -0.0958  0.2331
 2159SOL     ow 8633   2.433   6.890   3.626 -0.2761 -0.8534 -0.7827
 2159SOL     hw 8634   2.345   6.893   3.589 -0.3229 -0.5853 -0.6519
 2159SOL     hw 8635   2.421   6.910   3.719  0.1500  1.2559 -1.1412
 2159SOL     vw 8636   2.420   6.893   3.633 -0.2261 -0.5398 -0.8128
 2160SOL     ow 8637   3.705   3.922   1.655  0.2870  0.2652 -0.6253
 2160SOL     hw 8638   3.647   3.998   1.657  0.3805  0.3483 -1.1204
 2160SOL     hw 8639   3.760   3.931   1.733 -1.1043 -0.3922  0.4953
 2160SOL     vw 8640   3.704   3.933   1.666  0.1159  0.1893 -0.5428
 2161SOL     ow 8641   0.679   3.633   3.736 -0.0457 -0.0383 -0.3063
 2161SOL     hw 8642   0.595   3.626   3.691 -0.0885  1.7328 -0.5653
 2161SOL     hw 8643   0.703   3.542   3.757 -1.3702 -0.6714 -1.4020
 2161SOL     vw 8644   0.671   3.620   3.733 -0.2261  0.1118 -0.4851
 2162SOL     ow 8645   1.146   7.054   2.230 -0.1513  0.0960  0.8300
 2162SOL     hw 8646   1.184   7.116   2.169  2.1061 -1.5669  0.4249
 2162SOL     hw 8647   1.109   6.985   2.175 -2.6963  1.0112  1.2657
 2162SOL     vw 8648   1.146   7.053   2.215 -0.1892 -0.0026  0.8340
 2163SOL     ow 8649   2.628   1.992   0.360 -0.0225 -0.2350  0.5133
 2163SOL     hw 8650   2.593   1.928   0.298 -1.1480  1.3995 -0.6058
 2163SOL     hw 8651   2.648   1.941   0.438 -0.2422 -2.0577 -0.5666
 2163SOL     vw 8652   2.626   1.977   0.362 -0.2000 -0.2598  0.2232
 2164SOL     ow 8653   3.257   3.881   2.279  0.0907  0.1958 -0.0722
 2164SOL     hw 8654   3.331   3.905   2.222  1.1246 -2.2731  0.1126
 2164SOL     hw 8655   3.219   3.804   2.238 -1.8936  0.9046  0.3298
 2164SOL     vw 8656   3.262   3.874   2.266 -0.0347 -0.0365  0.0051
 2165SOL     ow 8657   5.280   4.034   1.671 -0.7379 -0.0851 -0.1887
 2165SOL     hw 8658   5.236   4.118   1.656 -0.9890 -0.0640  0.5923
 2165SOL     hw 8659   5.229   3.993   1.741  0.4444 -0.0984  0.6937
 2165SOL     vw 8660   5.267   4.040   1.678 -0.6146 -0.0839  0.0308
 2166SOL     ow 8661   5.861   7.392   2.451 -0.1359 -0.0996  0.7685
 2166SOL     hw 8662   5.818   7.428   2.373  0.0408  0.7263  1.0419
 2166SOL     hw 8663   5.817   7.436   2.524  0.7612  0.2949  1.0728
 2166SOL     vw 8664   5.849   7.403   2.451  0.0057  0.0613  0.8446
 2167SOL     ow 8665   2.758   4.157   5.897 -0.2944 -0.5542 -0.2005
 2167SOL     hw 8666   2.685   4.172   5.956  0.3988 -0.1234  0.5638
 2167SOL     hw 8667   2.832   4.134   5.955  0.1384 -1.1357 -0.9600
 2167SOL     vw 8668   2.758   4.156   5.912 -0.1457 -0.5741 -0.1998
 2168SOL     ow 8669   3.015   5.148   3.309  0.4564 -0.0129  0.0406
 2168SOL     hw 8670   2.964   5.156   3.228 -0.5204 -1.1049  0.5289
 2168SOL     hw 8671   2.963   5.194   3.375  0.0266 -1.2096  0.5619
 2168SOL     vw 8672   3.002   5.155   3.307  0.2707 -0.3150  0.1738
 2169SOL     ow 8673   6.668   5.739   0.556  0.0946  0.0530  0.1346
 2169SOL     hw 8674   6.626   5.746   0.469  2.1246  0.1974 -0.8848
 2169SOL     hw 8675   6.699   5.649   0.560 -0.8182 -0.2387  1.1553
 2169SOL     vw 8676   6.666   5.728   0.545  0.2418  0.0334  0.1348
 2170SOL     ow 8677   3.396   6.116   0.339 -0.0607 -0.6317 -0.3797
 2170SOL     hw 8678   3.392   6.118   0.435  2.8899  2.6075 -0.1255
 2170SOL     hw 8679   3.413   6.025   0.318  0.9477 -1.1893  2.3590
 2170SOL     vw 8680   3.398   6.104   0.349  0.4616 -0.2780  0.0152
 2171SOL     ow 8681   2.729   0.223   4.632  0.2481  0.3725  0.0880
 2171SOL     hw 8682   2.761   0.282   4.564 -0.2440  1.1232  0.4904
 2171SOL     hw 8683   2.672   0.278   4.686 -1.8454 -0.9168 -0.6940
 2171SOL     vw 8684   2.725   0.238   4.630 -0.0931  0.3015  0.0379
 2172SOL     ow 8685   4.972   7.260   3.196 -0.1803  0.1184 -0.3283
 2172SOL     hw 8686   4.909   7.263   3.125  0.0612 -2.6962 -0.7977
 2172SOL     hw 8687   4.976   7.350   3.230 -2.5442  0.8834 -1.8666
 2172SOL     vw 8688   4.964   7.272   3.191 -0.4606 -0.1521 -0.5932
 2173SOL     ow 8689   7.008   0.379   3.862  0.9746 -0.1493  0.1385
 2173SOL     hw 8690   7.081   0.349   3.916  0.2020 -0.7796  0.8611
 2173SOL     hw 8691   7.035   0.359   3.772  0.8071 -2.4396  0.5322
 2173SOL     vw 8692   7.021   0.372   3.857  0.8504 -0.5347  0.2859
 2174SOL     ow 8693   5.914   2.283   7.071  0.1331 -0.4508 -0.8618
 2174SOL     hw 8694   6.005   2.303   7.051  0.1353  0.7665  0.2836
 2174SOL     hw 8695   5.867   2.366   7.058 -0.3944 -0.4294  0.8817
 2174SOL     vw 8696   5.920   2.297   7.067  0.0637 -0.2874 -0.4807
 2175SOL     ow 8697   3.853   4.627   3.637 -0.4206  0.2063  0.8064
 2175SOL     hw 8698   3.877   4.580   3.557 -0.4163 -0.2060  1.0435
 2175SOL     hw 8699   3.757   4.623   3.640 -0.5025  1.3329  0.1684
 2175SOL     vw 8700   3.844   4.620   3.627 -0.4307  0.3006  0.7536
 2176SOL     ow 8701   7.066   4.284   6.475 -0.3001 -0.1399 -0.4262
 2176SOL     hw 8702   7.121   4.309   6.401  0.6242 -1.3315 -0.1927
 2176SOL     hw 8703   6.976   4.295   6.444  0.0729  0.4564 -1.3264
 2176SOL     vw 8704   7.061   4.288   6.461 -0.1290 -0.2182 -0.5140
 2177SOL     ow 8705   0.381   4.973   4.386 -0.5860  0.5662 -0.2990
 2177SOL     hw 8706   0.286   4.979   4.371 -0.4024  1.6317 -1.0719
 2177SOL     hw 8707   0.411   5.063   4.388  0.4931  0.2247 -0.5361
 2177SOL     vw 8708   0.372   4.985   4.384 -0.4194  0.6618 -0.4323
 2178SOL     ow 8709   7.067   0.870   5.202  0.3199 -0.5531  0.0128
 2178SOL     hw 8710   7.083   0.901   5.113 -0.7335  1.7389  0.5508
 2178SOL     hw 8711   6.974   0.887   5.217  0.8167  0.7145  2.0968
 2178SOL     vw 8712   7.057   0.876   5.192  0.2463 -0.0834  0.3583
 2179SOL     ow 8713   0.382   4.601   5.204  0.3934 -0.2826  0.0411
 2179SOL     hw 8714   0.373   4.604   5.109  1.2769  0.1035 -0.0397
 2179SOL     hw 8715   0.412   4.512   5.223  0.6334 -0.2297 -0.0848
 2179SOL     vw 8716   0.385   4.590   5.194  0.5417 -0.2246  0.0138
 2180SOL     ow 8717   1.615   2.013   1.217 -0.3020 -0.4387 -0.2995
 2180SOL     hw 8718   1.682   2.081   1.216 -0.7318  0.0954  1.6827
 2180SOL     hw 8719   1.624   1.968   1.133  2.7605 -0.6280  0.0241
 2180SOL     vw 8720   1.625   2.016   1.206  0.0454 -0.3933  0.0047
 2181SOL     ow 8721   6.116   0.541   1.143  0.0444 -0.3066  0.2188
 2181SOL     hw 8722   6.070   0.613   1.100 -1.0426 -0.9122  0.3549
 2181SOL     hw 8723   6.180   0.585   1.200 -0.7166  0.5469  0.4347
 2181SOL     vw 8724   6.119   0.557   1.145 -0.1996 -0.2739  0.2652
 2182SOL     ow 8725   5.291   2.868   4.872 -0.1311  0.4472 -0.1934
 2182SOL     hw 8726   5.349   2.906   4.806  2.6877 -3.2586 -0.2147
 2182SOL     hw 8727   5.296   2.773   4.856 -3.8599 -0.2953  1.8604
 2182SOL     vw 8728   5.299   2.860   4.861 -0.2511 -0.1398  0.0749
 2183SOL     ow 8729   4.756   5.905   1.286 -0.4758 -0.0431 -0.0181
 2183SOL     hw 8730   4.729   5.814   1.277 -2.5203  0.5228 -0.0749
 2183SOL     hw 8731   4.687   5.946   1.338  0.7597  1.3396  0.6193
 2183SOL     vw 8732   4.744   5.898   1.292 -0.5829  0.2141  0.0585
 2184SOL     ow 8733   3.794   2.877   2.520  0.3983 -0.5611  0.7366
 2184SOL     hw 8734   3.762   2.903   2.606  0.6012  0.8831  0.4054
 2184SOL     hw 8735   3.736   2.806   2.492 -0.8551  0.2253  1.2641
 2184SOL     vw 8736   3.782   2.871   2.527  0.2596 -0.2667  0.7626
 2185SOL     ow 8737   0.491   6.193   3.747 -0.2944  0.4048  0.1093
 2185SOL     hw 8738   0.553   6.157   3.810 -0.8575  2.5778  2.0018
 2185SOL     hw 8739   0.545   6.219   3.672  0.3913 -2.1006 -0.3666
 2185SOL     vw 8740   0.506   6.191   3.745 -0.2782  0.3607  0.2962
 2186SOL     ow 8741   2.790   1.532   4.570 -0.0875  0.0457 -0.4887
 2186SOL     hw 8742   2.833   1.506   4.488 -0.1642  0.7580 -0.7559
 2186SOL     hw 8743   2.783   1.627   4.565  1.7124  0.3489  1.2279
 2186SOL     vw 8744   2.795   1.541   4.559  0.1398  0.1797 -0.2973
 2187SOL     ow 8745   0.482   6.034   4.237  0.0959  0.8320  0.2252
 2187SOL     hw 8746   0.418   5.976   4.279 -0.4616  0.6429 -0.8596
 2187SOL     hw 8747   0.431   6.108   4.205  0.1230 -0.0529 -2.0341
 2187SOL     vw 8748   0.467   6.036   4.239  0.0259  0.6905 -0.2160
 2188SOL     ow 8749   0.082   4.630   2.556 -0.0386 -0.2720 -0.0964
 2188SOL     hw 8750   0.146   4.701   2.558  0.7867 -0.9593 -1.2910
 2188SOL     hw 8751   0.122   4.562   2.503 -0.7335 -1.7387  1.1626
 2188SOL     vw 8752   0.095   4.631   2.550 -0.0215 -0.5565 -0.0880
 2189SOL     ow 8753   5.291   3.920   7.183  0.6172  0.2187 -0.1096
 2189SOL     hw 8754   5.336   3.888   7.104 -1.2970 -1.1456 -0.7398
 2189SOL     hw 8755   5.199   3.927   7.156  0.1192  0.9343  1.6627
 2189SOL     vw 8756   5.285   3.916   7.169  0.2990  0.1330  0.0410
 2190SOL     ow 8757   1.605   7.273   5.639 -0.5478  0.7297  0.1658
 2190SOL     hw 8758   1.587   7.277   5.545 -0.0937 -0.2404  0.0277
 2190SOL     hw 8759   1.699   7.255   5.645 -0.4288  1.5132  0.8213
 2190SOL     vw 8760   1.615   7.271   5.628 -0.4722  0.7052  0.2344
 2191SOL     ow 8761   3.697   2.662   3.898 -0.5587  0.6859  0.0234
 2191SOL     hw 8762   3.744   2.591   3.941  0.6719  0.9598 -0.8063
 2191SOL     hw 8763   3.688   2.730   3.965 -0.4465  0.3222  0.4095
 2191SOL     vw 8764   3.702   2.661   3.912 -0.3815  0.6739 -0.0352
 2192SOL     ow 8765   1.977   4.317   2.771 -0.1922 -0.1239  0.0256
 2192SOL     hw 8766   1.996   4.278   2.686 -0.3334 -1.6227  0.6586
 2192SOL     hw 8767   1.980   4.244   2.833 -2.5402  0.4670  0.9667
 2192SOL     vw 8768   1.980   4.302   2.768 -0.5206 -0.2439  0.2332
 2193SOL     ow 8769   1.835   5.597   2.456  0.3451 -0.1565 -0.1520
 2193SOL     hw 8770   1.803   5.525   2.401 -0.7140  0.1273  0.0737
 2193SOL     hw 8771   1.774   5.601   2.529  1.2057  0.0747  0.5750
 2193SOL     vw 8772   1.823   5.588   2.458  0.3189 -0.0887 -0.0263
 2194SOL     ow 8773   3.415   2.505   7.178  0.6833  0.2033 -0.5837
 2194SOL     hw 8774   3.364   2.442   7.229  1.0757  0.5085  0.2035
 2194SOL     hw 8775   3.369   2.588   7.190 -0.3586 -0.0711 -2.3648
 2194SOL     vw 8776   3.402   2.508   7.187  0.5976  0.2074 -0.7148
 2195SOL     ow 8777   4.563   2.659   5.582  0.0505  0.0892 -0.3648
 2195SOL     hw 8778   4.554   2.697   5.670 -4.0360  0.0644 -0.6019
 2195SOL     hw 8779   4.583   2.566   5.598 -1.2003 -0.0394  0.5882
 2195SOL     vw 8780   4.565   2.652   5.596 -0.6535  0.0689 -0.2701
 2196SOL     ow 8781   4.666   4.935   1.364  0.4105 -0.0750  0.0721
 2196SOL     hw 8782   4.743   4.913   1.311  1.0337  0.1118  0.8717
 2196SOL     hw 8783   4.633   5.016   1.325  0.2479 -0.4918 -0.6611
 2196SOL     vw 8784   4.672   4.943   1.352  0.4714 -0.1054  0.0808
 2197SOL     ow 8785   7.167   4.178   6.704  0.2598 -0.3889  0.1207
 2197SOL     hw 8786   7.131   4.214   6.623  2.1003 -1.5464 -1.3028
 2197SOL     hw 8787   7.110   4.104   6.725 -0.0498 -0.2677 -0.2810
 2197SOL     vw 8788   7.155   4.173   6.696  0.4618 -0.5260 -0.1199
 2198SOL     ow 8789   3.815   2.954   3.780  0.5098  0.2381  0.4260
 2198SOL     hw 8790   3.880   2.911   3.836  0.5143  0.1107  0.3217
 2198SOL     hw 8791   3.782   3.026   3.834  1.4581  0.9278  0.1253
 2198SOL     vw 8792   3.820   2.958   3.795  0.6355  0.3122  0.3725
 2199SOL     ow 8793   1.286   5.208   2.118 -0.5481 -0.2109  0.2713
 2199SOL     hw 8794   1.241   5.248   2.192 -1.0043 -0.5009  0.1572
 2199SOL     hw 8795   1.379   5.219   2.137 -0.6322 -1.4479  1.5478
 2199SOL     vw 8796   1.292   5.214   2.130 -0.6194 -0.4125  0.4246
 2200SOL     ow 8797   3.284   4.344   5.480  0.2924 -0.1495 -0.0063
 2200SOL     hw 8798   3.202   4.384   5.450  0.2514 -0.7043 -0.6588
 2200SOL     hw 8799   3.351   4.411   5.463  0.0456  0.1204  0.0820
 2200SOL     vw 8800   3.282   4.358   5.473  0.2544 -0.1872 -0.0806
 2201SOL     ow 8801   2.765   3.133   2.795  0.1838  0.5528 -0.5446
 2201SOL     hw 8802   2.689   3.136   2.737  0.0620 -1.0187 -0.5187
 2201SOL     hw 8803   2.822   3.067   2.757  0.9808  0.8563  0.0972
 2201SOL     vw 8804   2.762   3.125   2.783  0.2729  0.3854 -0.4565
 2202SOL     ow 8805   2.772   3.855   6.030 -0.2553 -0.0105  0.2112
 2202SOL     hw 8806   2.709   3.863   5.958 -0.5210  0.7797  0.5209
 2202SOL     hw 8807   2.835   3.789   6.000 -2.6089 -2.7865  0.9016
 2202SOL     vw 8808   2.772   3.847   6.016 -0.6009 -0.2725  0.3433
 2203SOL     ow 8809   1.421   7.362   7.115  0.1630  0.0346  0.1180
 2203SOL     hw 8810   1.462   7.355   7.202  2.1260  0.5027 -0.7078
 2203SOL     hw 8811   1.464   7.437   7.074 -1.7040  0.6715 -0.7949
 2203SOL     vw 8812   1.432   7.371   7.121  0.1757  0.1807 -0.1113
 2204SOL     ow 8813   1.870   6.630   4.366 -0.3136 -0.3466 -0.1311
 2204SOL     hw 8814   1.911   6.545   4.350 -0.4357 -0.3503 -0.4310
 2204SOL     hw 8815   1.914   6.689   4.304  0.5469  0.0470  0.8162
 2204SOL     vw 8816   1.881   6.626   4.356 -0.2162 -0.2952 -0.0458
 2205SOL     ow 8817   2.039   3.171   1.716  0.1467 -0.1602 -0.0928
 2205SOL     hw 8818   2.067   3.081   1.730  1.2540  0.2207  0.3105
 2205SOL     hw 8819   2.099   3.204   1.648  0.0868  0.4190  0.1294
 2205SOL     vw 8820   2.051   3.164   1.709  0.2849 -0.0336 -0.0103
 2206SOL     ow 8821   1.506   7.212   4.844  0.1100  0.5158 -0.3567
 2206SOL     hw 8822   1.495   7.145   4.912 -0.2921  0.1660 -0.7611
 2206SOL     hw 8823   1.459   7.288   4.879  1.5665  1.0017  0.6407
 2206SOL     vw 8824   1.498   7.213   4.858  0.2491  0.5338 -0.2785
 2207SOL     ow 8825   2.648   7.456   4.559  0.6164  0.2583 -0.3790
 2207SOL     hw 8826   2.562   7.481   4.525  0.2681 -0.2296  0.1355
 2207SOL     hw 8827   2.680   7.535   4.604 -0.1959  0.0161  0.6692
 2207SOL     vw 8828   2.641   7.470   4.561  0.4632  0.1619 -0.1726
 2208SOL     ow 8829   0.711   7.383   5.353 -0.9869  0.5948  0.3284
 2208SOL     hw 8830   0.756   7.332   5.420 -0.1774 -1.6886 -1.8264
 2208SOL     hw 8831   0.775   7.450   5.327 -0.6162  0.3338  0.5577
 2208SOL     vw 8832   0.725   7.385   5.359 -0.8312  0.2592  0.0744
 2209SOL     ow 8833   4.594   7.112   1.716  0.2674  0.2528  0.3871
 2209SOL     hw 8834   4.688   7.129   1.708  0.0345  0.9851 -1.3653
 2209SOL     hw 8835   4.578   7.037   1.660 -0.3795  0.9276 -0.3498
 2209SOL     vw 8836   4.605   7.105   1.708  0.1512  0.4382  0.0586
 2210SOL     ow 8837   3.574   7.035   6.902  0.3278 -0.0009 -0.7708
 2210SOL     hw 8838   3.532   7.054   6.986 -0.4622  1.8212 -1.5297
 2210SOL     hw 8839   3.665   7.060   6.914  0.1129  0.7058 -0.5953
 2210SOL     vw 8840   3.580   7.040   6.914  0.1951  0.3328 -0.8476
 2211SOL     ow 8841   1.814   4.483   6.337 -0.1552  0.2448 -0.3850
 2211SOL     hw 8842   1.761   4.544   6.286  1.3666  1.4044 -0.6614
 2211SOL     hw 8843   1.833   4.530   6.418 -0.2911 -0.5007  0.0874
 2211SOL     vw 8844   1.810   4.497   6.341  0.0277  0.2995 -0.3591
 2212SOL     ow 8845   7.104   6.423   1.743  0.2896  0.6420  0.0113
 2212SOL     hw 8846   7.180   6.468   1.707  0.9978 -1.3027 -1.0573
 2212SOL     hw 8847   7.065   6.486   1.803  1.3238  2.5883 -1.2482
 2212SOL     vw 8848   7.109   6.437   1.746  0.5195  0.6421 -0.2958
 2213SOL     ow 8849   1.171   3.124   3.668 -0.4121 -0.0309 -0.0811
 2213SOL     hw 8850   1.201   3.203   3.711  1.4572 -0.4354 -0.5488
 2213SOL     hw 8851   1.251   3.079   3.642 -1.4416 -0.8391 -2.0707
 2213SOL     vw 8852   1.185   3.128   3.670 -0.3014 -0.1910 -0.4052
 2214SOL     ow 8853   3.051   2.537   3.445  0.0939 -0.0265  0.7158
 2214SOL     hw 8854   3.022   2.549   3.535 -0.3109 -0.9201  0.7135
 2214SOL     hw 8855   3.026   2.618   3.400  0.5823  0.5541  1.4664
 2214SOL     vw 8856   3.044   2.549   3.451  0.1050 -0.0678  0.8144
 2215SOL     ow 8857   5.094   3.878   1.541 -0.3438  0.1431 -0.1371
 2215SOL     hw 8858   5.138   3.822   1.476 -1.1650 -1.0859  0.3283
 2215SOL     hw 8859   5.166   3.927   1.581  0.0446  2.6453 -3.3986
 2215SOL     vw 8860   5.110   3.877   1.537 -0.4008  0.3111 -0.5061
 2216SOL     ow 8861   3.053   3.937   3.250  0.2936 -0.1393 -0.1715
 2216SOL     hw 8862   3.098   3.995   3.311  0.3778  0.4775 -0.8158
 2216SOL     hw 8863   3.121   3.878   3.218  0.4594  0.1896 -0.4326
 2216SOL     vw 8864   3.068   3.937   3.254  0.3265 -0.0145 -0.2910
 2217SOL     ow 8865   3.649   3.055   7.098  0.1406 -0.3559 -0.4938
 2217SOL     hw 8866   3.734   3.013   7.083  0.3499  0.3163 -1.3205
 2217SOL     hw 8867   3.604   2.997   7.159  0.2609 -1.9706 -1.8587
 2217SOL     vw 8868   3.655   3.042   7.104  0.1839 -0.4803 -0.7830
 2218SOL     ow 8869   2.771   6.071   6.112  0.0688 -0.6357 -0.4135
 2218SOL     hw 8870   2.773   6.030   6.198 -0.9633 -1.2873 -0.6840
 2218SOL     hw 8871   2.784   5.999   6.051 -2.7173 -0.8065 -0.9395
 2218SOL     vw 8872   2.773   6.057   6.115 -0.4349 -0.7443 -0.5183
 2219SOL     ow 8873   4.283   7.094   7.110  0.7303 -0.4167 -0.0966
 2219SOL     hw 8874   4.289   7.040   7.189 -0.2603  1.1770  1.1307
 2219SOL     hw 8875   4.197   7.074   7.073  1.0752 -0.9459 -0.6322
 2219SOL     vw 8876   4.273   7.084   7.115  0.6452 -0.2763 -0.0050
 2220SOL     ow 8877   5.074   4.078   5.953  0.5633  0.2066  0.2499
 2220SOL     hw 8878   4.991   4.079   5.905  0.0531  0.5560  1.1040
 2220SOL     hw 8879   5.130   4.138   5.905  0.3419 -0.0803 -0.3757
 2220SOL     vw 8880   5.070   4.086   5.940  0.4668  0.2146  0.2799
 2221SOL     ow 8881   6.695   0.808   1.238  0.1842 -0.2754  0.4624
 2221SOL     hw 8882   6.636   0.884   1.237  0.5996  0.0512  0.4283
 2221SOL     hw 8883   6.760   0.828   1.172  0.2039 -0.7426  0.3382
 2221SOL     vw 8884   6.695   0.821   1.229  0.2418 -0.2940  0.4415
 2222SOL     ow 8885   1.891   4.224   1.590  1.3632  0.1645  0.1250
 2222SOL     hw 8886   1.806   4.248   1.553  0.9605 -0.9772  0.2699
 2222SOL     hw 8887   1.872   4.198   1.680  1.5920 -1.5854 -0.2936
 2222SOL     vw 8888   1.877   4.223   1.597  1.3403 -0.2170  0.0889
 2223SOL     ow 8889   5.190   0.931   0.390 -0.1725 -0.0482 -0.4508
 2223SOL     hw 8890   5.215   0.988   0.317 -0.2239  0.6976  0.0937
 2223SOL     hw 8891   5.259   0.864   0.393  0.0068  0.1104 -0.9747
 2223SOL     vw 8892   5.203   0.930   0.381 -0.1557  0.0711 -0.4481
 2224SOL     ow 8893   3.796   6.935   2.477  0.0215 -0.0871 -0.3641
 2224SOL     hw 8894   3.793   6.995   2.552 -1.6120 -2.0765  1.2848
 2224SOL     hw 8895   3.739   6.975   2.412  0.4201  1.0299 -0.0586
 2224SOL     vw 8896   3.788   6.948   2.479 -0.1413 -0.2022 -0.1063
 2225SOL     ow 8897   6.041   0.004   6.537 -0.0759 -0.7393  0.1186
 2225SOL     hw 8898   6.101  -0.058   6.497 -1.2885 -2.8921  1.3814
 2225SOL     hw 8899   6.093   0.051   6.602  0.5200 -1.7382  0.3813
 2225SOL     vw 8900   6.056   0.002   6.540 -0.1574 -1.1551  0.3200
 2226SOL     ow 8901   3.107   0.750   2.277  0.5132 -0.3157  0.4159
 2226SOL     hw 8902   3.119   0.745   2.182 -0.6860  3.7530 -0.1235
 2226SOL     hw 8903   3.181   0.801   2.308 -0.2319  0.2572  1.3178
 2226SOL     vw 8904   3.118   0.756   2.268  0.2568  0.2967  0.4638
 2227SOL     ow 8905   4.295   5.205   2.186  0.0081 -0.2870  0.2240
 2227SOL     hw 8906   4.330   5.116   2.183  1.2981  0.2292 -0.7083
 2227SOL     hw 8907   4.353   5.256   2.129 -0.7094  1.1558  0.7401
 2227SOL     vw 8908   4.307   5.200   2.178  0.0834 -0.0281  0.1692
 2228SOL     ow 8909   1.651   6.919   0.502 -0.0497  0.6107 -0.0986
 2228SOL     hw 8910   1.560   6.920   0.530 -0.6459 -1.7882 -1.6897
 2228SOL     hw 8911   1.655   6.851   0.434  2.7778  1.1293 -0.5777
 2228SOL     vw 8912   1.640   6.910   0.497  0.2447  0.3624 -0.3717
 2229SOL     ow 8913   3.283   7.353   2.547 -0.0137 -0.0808 -0.3061
 2229SOL     hw 8914   3.300   7.401   2.466  0.8890  0.9354  0.4511
 2229SOL     hw 8915   3.260   7.265   2.518  0.3902  0.2300 -1.6629
 2229SOL     vw 8916   3.282   7.348   2.532  0.1587  0.0942 -0.3850
 2230SOL     ow 8917   7.260   3.462   5.455  0.0098 -0.0229 -0.0297
 2230SOL     hw 8918   7.245   3.525   5.525 -1.1328 -1.6570  1.2849
 2230SOL     hw 8919   7.352   3.439   5.461 -0.2194 -0.6356  1.4083
 2230SOL     vw 8920   7.270   3.467   5.465 -0.1709 -0.3194  0.3333
 2231SOL     ow 8921   7.389   3.962   4.976 -0.3225 -0.6237  1.0586
 2231SOL     hw 8922   7.436   3.883   5.004  1.5981  0.3032  0.6143
 2231SOL     hw 8923   7.396   3.962   4.881 -0.6381 -0.1063  1.0330
 2231SOL     vw 8924   7.396   3.951   4.967 -0.1109 -0.4332  0.9964
 2232SOL     ow 8925   0.628   6.029   7.176  0.3690 -0.2124 -0.2489
 2232SOL     hw 8926   0.614   6.049   7.084  1.3748  0.8842 -0.1883
 2232SOL     hw 8927   0.722   6.036   7.188  0.2068  0.0906  0.9636
 2232SOL     vw 8928   0.638   6.032   7.165  0.4803 -0.0277 -0.0811
 2233SOL     ow 8929   4.279   5.583   5.905  0.4064  0.2314 -0.0259
 2233SOL     hw 8930   4.324   5.510   5.946 -1.0810 -1.1286 -0.7330
 2233SOL     hw 8931   4.254   5.640   5.978  2.8603  0.8609  0.4166
 2233SOL     vw 8932   4.282   5.581   5.920  0.5338  0.1349 -0.0606
 2234SOL     ow 8933   1.136   2.668   2.403  0.3386 -0.2226 -0.1102
 2234SOL     hw 8934   1.191   2.638   2.475 -0.5527  1.7005  1.4707
 2234SOL     hw 8935   1.194   2.670   2.327  2.9927  3.0203  1.7262
 2234SOL     vw 8936   1.151   2.664   2.402  0.5711  0.4590  0.3406
 2235SOL     ow 8937   3.319   6.296   4.380 -0.0397  0.1754 -0.0438
 2235SOL     hw 8938   3.250   6.348   4.339 -0.8901 -0.0061  1.0872
 2235SOL     hw 8939   3.379   6.361   4.417  1.6785  0.3836 -2.9075
 2235SOL     vw 8940   3.318   6.311   4.380  0.0749  0.1791 -0.2725
 2236SOL     ow 8941   1.522   4.626   7.115  0.3200 -0.3224 -0.5475
 2236SOL     hw 8942   1.451   4.681   7.149  1.5033  0.2949  1.0182
 2236SOL     hw 8943   1.491   4.537   7.129  0.1617 -0.0692  0.8659
 2236SOL     vw 8944   1.508   4.622   7.121  0.4551 -0.2077 -0.1545
 2237SOL     ow 8945   6.459   6.714   3.274  0.2807  0.2118  0.0180
 2237SOL     hw 8946   6.492   6.670   3.352 -0.9678  1.0852  1.0953
 2237SOL     hw 8947   6.516   6.790   3.263 -1.6048  2.1448  2.3164
 2237SOL     vw 8948   6.471   6.718   3.283 -0.1326  0.5822  0.4632
 2238SOL     ow 8949   7.357   0.399   4.362 -0.7358  0.3609 -0.0496
 2238SOL     hw 8950   7.366   0.494   4.374  0.1765  0.3105 -0.2979
 2238SOL     hw 8951   7.262   0.386   4.352 -0.9993  1.0981  1.1609
 2238SOL     vw 8952   7.345   0.410   4.362 -0.6499  0.4515  0.0775
 2239SOL     ow 8953   4.315   4.602   7.351 -0.4790 -0.2304  0.0893
 2239SOL     hw 8954   4.384   4.614   7.285 -0.3565  0.0978  0.2787
 2239SOL     hw 8955   4.358   4.619   7.434 -1.1128  1.2960  0.1222
 2239SOL     vw 8956   4.330   4.606   7.353 -0.5467  0.0138  0.1187
 2240SOL     ow 8957   1.993   4.215   3.539 -0.0905 -0.2007  0.3784
 2240SOL     hw 8958   1.967   4.142   3.482  0.4425  0.6351 -0.9896
 2240SOL     hw 8959   2.015   4.173   3.622 -1.6560 -1.3860  0.2589
 2240SOL     vw 8960   1.992   4.200   3.542 -0.2267 -0.2468  0.1822
 2241SOL     ow 8961   4.128   4.798   1.590  0.0891 -0.0128 -0.3104
 2241SOL     hw 8962   4.169   4.832   1.510 -1.4010  0.9537 -0.7184
 2241SOL     hw 8963   4.052   4.855   1.603 -1.2118 -1.8318  0.3104
 2241SOL     vw 8964   4.124   4.810   1.581 -0.2792 -0.1252 -0.2823
 2242SOL     ow 8965   0.381   1.266   0.227 -0.3238 -0.1727  0.2134
 2242SOL     hw 8966   0.457   1.309   0.187 -0.0150  1.0447  1.9481
 2242SOL     hw 8967   0.418   1.188   0.270  0.1541  0.8081  1.6864
 2242SOL     vw 8968   0.396   1.262   0.228 -0.2200  0.1172  0.6367
 2243SOL     ow 8969   1.007   3.059   5.469 -0.7865 -0.0250 -0.4887
 2243SOL     hw 8970   1.073   3.053   5.400 -1.5585 -0.4980 -1.1961
 2243SOL     hw 8971   1.045   3.120   5.533  1.3027 -1.9162  0.2058
 2243SOL     vw 8972   1.021   3.066   5.469 -0.6127 -0.3368 -0.4907
 2244SOL     ow 8973   3.403   5.206   4.032 -0.0201 -0.3783 -0.1146
 2244SOL     hw 8974   3.483   5.219   4.082 -0.0149 -0.4985 -0.0909
 2244SOL     hw 8975   3.418   5.126   3.982 -0.6563 -1.2056  0.9630
 2244SOL     vw 8976   3.415   5.197   4.032 -0.1034 -0.5033  0.0308
 2245SOL     ow 8977   3.072   4.528   3.282 -0.5419  0.0211 -0.1659
 2245SOL     hw 8978   3.075   4.596   3.215 -0.6697  0.8196  0.6133
 2245SOL     hw 8979   3.136   4.463   3.254  1.2074  1.5179  0.1618
 2245SOL     vw 8980   3.081   4.529   3.270 -0.3279  0.3240 -0.0199
 2246SOL     ow 8981   2.149   3.731   1.109 -0.1492 -0.0808  0.1097
 2246SOL     hw 8982   2.088   3.677   1.060 -0.2734  1.1523 -1.1548
 2246SOL     hw 8983   2.207   3.770   1.043  0.3917  0.7543  1.0334
 2246SOL     vw 8984   2.149   3.729   1.094 -0.0942  0.1920  0.0647
 2247SOL     ow 8985   0.314   2.425   0.398 -0.7734  0.0334 -0.6236
 2247SOL     hw 8986   0.362   2.412   0.481 -0.0038  0.2938 -1.0140
 2247SOL     hw 8987   0.362   2.373   0.334  0.0274  1.6167 -1.3777
 2247SOL     vw 8988   0.327   2.417   0.401 -0.5662  0.2767 -0.7746
 2248SOL     ow 8989   6.328   4.724   0.260  0.3233 -0.1443 -0.0692
 2248SOL     hw 8990   6.248   4.671   0.258  0.5797 -0.5193 -0.6367
 2248SOL     hw 8991   6.380   4.687   0.331  0.3577 -0.4465 -0.2517
 2248SOL     vw 8992   6.325   4.712   0.269  0.3617 -0.2337 -0.1681
 2249SOL     ow 8993   3.558   3.253   4.577 -0.0339 -0.5615 -0.0708
 2249SOL     hw 8994   3.600   3.170   4.552 -0.1240 -0.5434 -0.2828
 2249SOL     hw 8995   3.627   3.303   4.620 -0.0763 -0.8979  0.3884
 2249SOL     vw 8996   3.573   3.248   4.579 -0.0514 -0.6036 -0.0381
 2250SOL     ow 8997   3.932   1.821   4.186  0.3034  0.0730  0.1297
 2250SOL     hw 8998   3.882   1.814   4.105 -0.2129  0.2907  0.4217
 2250SOL     hw 8999   3.867   1.844   4.253  0.9225  1.1943  0.3761
 2250SOL     vw 9000   3.917   1.823   4.184  0.3170  0.2496  0.2005
 2251SOL     ow 9001   4.680   6.064   5.736 -0.4713 -0.2933  0.2493
 2251SOL     hw 9002   4.635   6.012   5.670 -0.8964 -0.4637  0.6664
 2251SOL     hw 9003   4.629   6.145   5.741  0.5460  0.4515 -0.8463
 2251SOL     vw 9004   4.667   6.068   5.728 -0.3934 -0.2177  0.1600
 2252SOL     ow 9005   1.295   0.537   7.025 -0.1827 -0.0398  0.4042
 2252SOL     hw 9006   1.331   0.579   7.103 -1.0796 -1.6653  1.7524
 2252SOL     hw 9007   1.372   0.513   6.973  0.4023  1.5945  0.4679
 2252SOL     vw 9008   1.310   0.539   7.029 -0.2239 -0.0387  0.5906
 2253SOL     ow 9009   0.127   5.282   1.707  0.0875  0.0395  0.6043
 2253SOL     hw 9010   0.135   5.307   1.800 -1.8298 -0.8656  1.0676
 2253SOL     hw 9011   0.035   5.297   1.687  0.7853  1.7175 -1.6537
 2253SOL     vw 9012   0.116   5.287   1.717 -0.0734  0.1414  0.3676
 2254SOL     ow 9013   4.159   6.102   4.312 -0.2168  0.6321 -0.5041
 2254SOL     hw 9014   4.230   6.162   4.291  0.6696 -0.0089  0.5626
 2254SOL     hw 9015   4.079   6.153   4.297  0.3834  0.9407 -3.0100
 2254SOL     vw 9016   4.158   6.117   4.307 -0.0207  0.5884 -0.6940
 2255SOL     ow 9017   2.361   1.136   1.126 -0.1048 -0.1811  0.3055
 2255SOL     hw 9018   2.350   1.128   1.220 -0.6366 -0.4518  0.2256
 2255SOL     hw 9019   2.432   1.199   1.115  0.2368 -0.4581  0.8880
 2255SOL     vw 9020   2.369   1.143   1.137 -0.1299 -0.2534  0.3718
 2256SOL     ow 9021   2.280   4.950   1.865 -0.2099 -0.0433  0.7693
 2256SOL     hw 9022   2.340   4.995   1.806 -0.0081 -0.7876  0.4009
 2256SOL     hw 9023   2.222   4.900   1.807  1.6079 -2.8661  1.2113
 2256SOL     vw 9024   2.280   4.950   1.850  0.0567 -0.5140  0.7790
 2257SOL     ow 9025   2.953   2.430   0.414 -0.5148 -0.2149  0.3066
 2257SOL     hw 9026   2.947   2.434   0.510  0.6821 -0.7964  0.4175
 2257SOL     hw 9027   2.909   2.510   0.385 -1.9798 -0.6105  1.2713
 2257SOL     vw 9028   2.946   2.441   0.423 -0.5500 -0.3438  0.4485
 2258SOL     ow 9029   5.695   3.453   1.494  0.1334  0.0612 -0.1451
 2258SOL     hw 9030   5.788   3.467   1.478  0.1150  1.1069  0.5689
 2258SOL     hw 9031   5.652   3.484   1.414  0.3781 -0.0690 -0.3261
 2258SOL     vw 9032   5.702   3.459   1.481  0.1633  0.1820 -0.0748
 2259SOL     ow 9033   5.339   6.272   2.527 -0.0137 -0.0408  0.2454
 2259SOL     hw 9034   5.258   6.224   2.510  0.1269 -0.5320  0.9312
 2259SOL     hw 9035   5.344   6.336   2.455 -2.5305  2.0760  1.7692
 2259SOL     vw 9036   5.329   6.274   2.515 -0.3276  0.1738  0.5368
 2260SOL     ow 9037   6.871   5.592   1.550  0.3288  0.1631  0.1986
 2260SOL     hw 9038   6.953   5.573   1.595  0.4504 -0.2538 -0.2012
 2260SOL     hw 9039   6.897   5.633   1.468  0.2191 -1.6630 -0.7829
 2260SOL     vw 9040   6.885   5.595   1.545  0.3304 -0.1328  0.0164
 2261SOL     ow 9041   4.831   1.458   7.151  0.1972  0.1317  0.2405
 2261SOL     hw 9042   4.810   1.487   7.240  0.9740 -0.5003  0.6384
 2261SOL     hw 9043   4.745   1.451   7.108 -0.1530  0.8921  0.7863
 2261SOL     vw 9044   4.817   1.461   7.157  0.2537  0.1487  0.3650
 2262SOL     ow 9045   6.232   0.454   4.642  0.3045  0.2875 -0.2999
 2262SOL     hw 9046   6.144   0.467   4.609 -0.4754 -1.8315  0.7603
 2262SOL     hw 9047   6.270   0.542   4.646 -0.6112  0.9839 -3.6677
 2262SOL     vw 9048   6.226   0.467   4.638  0.0808  0.0998 -0.6044
 2263SOL     ow 9049   3.743   0.800   3.456 -0.6764  0.1801 -0.2940
 2263SOL     hw 9050   3.809   0.852   3.409 -0.0773 -0.8665 -0.6389
 2263SOL     hw 9051   3.685   0.768   3.388 -1.1156  0.4916 -0.0688
 2263SOL     vw 9052   3.744   0.803   3.441 -0.6553  0.0832 -0.3097
 2264SOL     ow 9053   3.412   5.444   6.664 -0.1506 -0.1053  0.1260
 2264SOL     hw 9054   3.464   5.484   6.733 -2.3828  1.6786  0.8860
 2264SOL     hw 9055   3.473   5.386   6.618  2.5186  1.9765  0.8229
 2264SOL     vw 9056   3.427   5.441   6.667 -0.0927  0.4048  0.3183
 2265SOL     ow 9057   1.101   0.880   2.343  0.4061 -0.0551  0.0855
 2265SOL     hw 9058   1.069   0.830   2.267  0.0106 -2.4383  1.6961
 2265SOL     hw 9059   1.022   0.909   2.388  0.5789 -0.5198  0.7051
 2265SOL     vw 9060   1.087   0.877   2.339  0.3767 -0.4309  0.3797
 2266SOL     ow 9061   2.434   6.640   3.161  0.0369  0.0002 -0.7102
 2266SOL     hw 9062   2.345   6.670   3.144  0.0358  0.9085  0.6716
 2266SOL     hw 9063   2.423   6.558   3.209 -0.1601  1.0224  1.1088
 2266SOL     vw 9064   2.421   6.633   3.165  0.0108  0.2549 -0.2878
 2267SOL     ow 9065   4.439   4.061   2.213 -0.6079 -0.4257 -0.0978
 2267SOL     hw 9066   4.476   4.118   2.145  2.1241 -0.6228  1.0804
 2267SOL     hw 9067   4.478   3.975   2.195 -0.6910 -0.7204  1.0512
 2267SOL     vw 9068   4.449   4.057   2.201 -0.2587 -0.4911  0.2091
 2268SOL     ow 9069   5.559   4.186   1.342 -0.9782 -0.2474 -0.1846
 2268SOL     hw 9070   5.620   4.133   1.292 -1.4070  0.5932 -1.6759
 2268SOL     hw 9071   5.603   4.203   1.425  0.6963  0.1064 -1.1092
 2268SOL     vw 9072   5.573   4.181   1.346 -0.8140 -0.0904 -0.5033
 2269SOL     ow 9073   3.701   1.611   0.487  0.3879 -0.0849 -0.0191
 2269SOL     hw 9074   3.627   1.671   0.481 -1.1136 -1.8998 -0.6246
 2269SOL     hw 9075   3.669   1.537   0.537  1.6894 -1.0690 -0.5602
 2269SOL     vw 9076   3.687   1.609   0.493  0.3614 -0.4541 -0.1704
 2270SOL     ow 9077   2.619   4.185   4.963  0.3886  0.0821 -0.1594
 2270SOL     hw 9078   2.612   4.279   4.945 -1.7315  0.0056  0.0595
 2270SOL     hw 9079   2.536   4.149   4.933  0.3603 -1.4258  1.5956
 2270SOL     vw 9080   2.607   4.193   4.956  0.1053 -0.1268  0.1011
 2271SOL     ow 9081   1.144   6.991   2.515 -0.0180 -0.1858  0.2514
 2271SOL     hw 9082   1.205   6.918   2.509  0.4444  0.2791 -1.2465
 2271SOL     hw 9083   1.139   7.026   2.426 -0.2908  1.5567  0.8990
 2271SOL     vw 9084   1.151   6.986   2.502  0.0070  0.1056  0.1392
 2272SOL     ow 9085   0.200   5.124   3.454 -0.6350 -0.0378 -0.1541
 2272SOL     hw 9086   0.186   5.029   3.457 -0.8655  0.0002  0.0100
 2272SOL     hw 9087   0.294   5.135   3.470 -0.5286 -0.2629 -0.6155
 2272SOL     vw 9088   0.211   5.113   3.457 -0.6514 -0.0625 -0.1932
 2273SOL     ow 9089   7.248   3.159   6.415 -0.6374 -0.0505 -0.0909
 2273SOL     hw 9090   7.293   3.077   6.398  0.7651  0.5308  0.6392
 2273SOL     hw 9091   7.291   3.222   6.356  0.1141  0.6809  1.1778
 2273SOL     vw 9092   7.260   3.157   6.405 -0.3531  0.1227  0.1731
 2274SOL     ow 9093   6.583   7.499   2.449 -0.3646  0.2369 -0.2324
 2274SOL     hw 9094   6.520   7.489   2.521  0.5427 -1.1446  0.4123
 2274SOL     hw 9095   6.577   7.417   2.400  1.7336 -0.4615  0.5519
 2274SOL     vw 9096   6.574   7.487   2.452  0.0319 -0.0377 -0.0437
 2275SOL     ow 9097   3.386   6.366   5.987  0.1435 -0.0442  0.1130
 2275SOL     hw 9098   3.390   6.271   5.989 -0.2320 -0.1049 -1.1293
 2275SOL     hw 9099   3.296   6.388   6.012  0.2513 -0.0088  0.4739
 2275SOL     vw 9100   3.375   6.357   5.990  0.1082 -0.0477 -0.0033
 2276SOL     ow 9101   1.592   5.791   6.017 -0.2531 -0.1762  0.4300
 2276SOL     hw 9102   1.619   5.699   6.008  0.2773 -0.0258  0.4236
 2276SOL     hw 9103   1.664   5.832   6.064  0.3789  0.6329 -1.1648
 2276SOL     vw 9104   1.605   5.784   6.022 -0.0997 -0.0494  0.2189
 2277SOL     ow 9105   3.407   6.832   6.799  0.4032 -0.5978 -0.0176
 2277SOL     hw 9106   3.330   6.861   6.751  0.5027  0.9143  0.6714
 2277SOL     hw 9107   3.393   6.739   6.815 -0.8296 -0.5422 -0.7066
 2277SOL     vw 9108   3.395   6.824   6.795  0.2536 -0.3910 -0.0174
 2278SOL     ow 9109   5.481   6.051   2.716 -0.4480 -1.6288  0.7917
 2278SOL     hw 9110   5.573   6.024   2.727  0.6186  1.6949  1.0364
 2278SOL     hw 9111   5.449   6.062   2.805 -1.0297 -2.4402  0.6984
 2278SOL     vw 9112   5.489   6.049   2.729 -0.3841 -1.2975  0.8118
 2279SOL     ow 9113   5.997   4.921   7.203 -0.1919 -0.3437  0.1153
 2279SOL     hw 9114   6.042   4.929   7.287 -0.9147 -0.9388  0.5762
 2279SOL     hw 9115   5.960   4.832   7.203  0.6790 -0.7478 -1.2926
 2279SOL     vw 9116   5.998   4.910   7.214 -0.1721 -0.4754 -0.0098
 2280SOL     ow 9117   1.469   7.197   4.003  0.2809  0.0410  0.2038
 2280SOL     hw 9118   1.491   7.289   4.020  1.6727 -0.2942  0.2995
 2280SOL     hw 9119   1.391   7.181   4.057 -1.6095  1.8438 -1.7723
 2280SOL     vw 9120   1.461   7.207   4.012  0.2152  0.2346 -0.0443
 2281SOL     ow 9121   5.353   3.762   2.099  0.1757 -0.3197 -0.3530
 2281SOL     hw 9122   5.384   3.846   2.133 -0.6539  0.3983 -1.3324
 2281SOL     hw 9123   5.432   3.720   2.065  0.8076 -0.4951  1.2367
 2281SOL     vw 9124   5.367   3.767   2.099  0.1497 -0.2480 -0.2725
 2282SOL     ow 9125   1.635   6.928   3.069  0.0277 -0.1417  0.2312
 2282SOL     hw 9126   1.597   6.926   2.981  0.1379 -2.0183  0.1800
 2282SOL     hw 9127   1.592   7.002   3.112 -1.8774 -0.7075 -0.5971
 2282SOL     vw 9128   1.625   6.938   3.063 -0.2092 -0.4642  0.1153
 2283SOL     ow 9129   2.504   2.938   2.754 -0.3790  0.4404 -0.0113
 2283SOL     hw 9130   2.590   2.913   2.786  1.8005  3.3936 -2.9150
 2283SOL     hw 9131   2.467   2.856   2.720  0.7110 -1.0966  2.2585
 2283SOL     vw 9132   2.510   2.924   2.754  0.0525  0.6272 -0.0950
 2284SOL     ow 9133   2.795   4.926   1.367  0.1691 -0.6744 -0.0732
 2284SOL     hw 9134   2.773   4.913   1.275 -0.3384 -0.4890  0.0171
 2284SOL     hw 9135   2.891   4.927   1.369  0.2559 -2.7825 -0.3056
 2284SOL     vw 9136   2.805   4.924   1.355  0.1136 -0.9282 -0.0919
 2285SOL     ow 9137   3.656   5.816   1.476 -0.1271  0.1423  0.5351
 2285SOL     hw 9138   3.698   5.852   1.398  0.6511 -2.1746 -0.1786
 2285SOL     hw 9139   3.726   5.773   1.524 -1.1121 -1.0374  0.9723
 2285SOL     vw 9140   3.671   5.815   1.472 -0.1545 -0.3190  0.4985
 2286SOL     ow 9141   7.076   2.556   1.499  0.2108  0.0993 -0.4687
 2286SOL     hw 9142   7.035   2.581   1.416 -3.2628 -3.5784 -0.1490
 2286SOL     hw 9143   7.010   2.576   1.565  0.8599 -1.6102  0.7608
 2286SOL     vw 9144   7.062   2.562   1.497 -0.1621 -0.6115 -0.2643
 2287SOL     ow 9145   3.773   0.516   3.635 -0.2366  0.2277  0.3201
 2287SOL     hw 9146   3.678   0.503   3.634 -0.5023  1.7372  2.0649
 2287SOL     hw 9147   3.801   0.483   3.720  0.8833 -0.5174 -0.3092
 2287SOL     vw 9148   3.764   0.510   3.646 -0.1239  0.3285  0.4673
 2288SOL     ow 9149   2.445   4.481   1.963 -0.2678 -0.2005  0.2583
 2288SOL     hw 9150   2.395   4.536   2.024 -1.3170 -1.4201  0.5368
 2288SOL     hw 9151   2.407   4.394   1.973  1.0483 -0.8899 -0.5183
 2288SOL     vw 9152   2.433   4.477   1.972 -0.2326 -0.4523  0.1925
 2289SOL     ow 9153   1.099   1.753   3.184  0.0116  0.0959 -0.1001
 2289SOL     hw 9154   1.084   1.806   3.106 -1.1778 -2.1537 -1.5144
 2289SOL     hw 9155   1.054   1.801   3.254 -3.7474 -0.4048 -1.8969
 2289SOL     vw 9156   1.091   1.766   3.183 -0.6413 -0.2670 -0.5238
 2290SOL     ow 9157   3.325   3.145   1.231 -0.0967  0.0635  0.3887
 2290SOL     hw 9158   3.411   3.185   1.245 -0.7029  1.3405  0.6060
 2290SOL     hw 9159   3.341   3.078   1.165  0.7516  1.5402 -0.9795
 2290SOL     vw 9160   3.339   3.141   1.224 -0.0648  0.4268  0.2369
 2291SOL     ow 9161   0.990   6.451   2.155  0.8187 -0.7334 -0.4086
 2291SOL     hw 9162   1.054   6.503   2.204  0.1742  1.0176 -1.3076
 2291SOL     hw 9163   1.028   6.363   2.151  1.9095 -0.3985  1.3000
 2291SOL     vw 9164   1.003   6.447   2.161  0.8776 -0.4582 -0.3017
 2292SOL     ow 9165   2.210   1.013   2.300 -0.0505 -0.6411  0.0211
 2292SOL     hw 9166   2.298   1.029   2.335  0.4606 -0.3749 -1.3134
 2292SOL     hw 9167   2.166   0.963   2.369  1.0716 -0.5953  0.8109
 2292SOL     vw 9168   2.216   1.008   2.314  0.1651 -0.5999 -0.0508
 2293SOL     ow 9169   0.658   5.089   5.386 -0.8367 -0.0167  0.4756
 2293SOL     hw 9170   0.737   5.135   5.415 -0.9120  0.1234  0.4570
 2293SOL     hw 9171   0.589   5.118   5.445 -0.7719 -0.5202  0.8101
 2293SOL     vw 9172   0.659   5.099   5.398 -0.8381 -0.0644  0.5176
 2294SOL     ow 9173   6.501   3.443   2.348  0.2691  0.9518  0.2579
 2294SOL     hw 9174   6.429   3.445   2.284  1.1635  1.2955 -0.7700
 2294SOL     hw 9175   6.495   3.357   2.388  0.3041  0.3345 -1.0243
 2294SOL     vw 9176   6.490   3.432   2.345  0.3917  0.9155 -0.0470
 2295SOL     ow 9177   4.523   7.179   1.058 -0.3302 -0.0486 -0.0322
 2295SOL     hw 9178   4.430   7.165   1.074 -0.4838  0.8210 -0.1613
 2295SOL     hw 9179   4.544   7.258   1.107 -0.6582  2.3693 -3.4583
 2295SOL     vw 9180   4.514   7.188   1.067 -0.3936  0.3850 -0.5013
 2296SOL     ow 9181   0.241   4.483   7.421  0.2000  0.5874  0.0316
 2296SOL     hw 9182   0.158   4.529   7.407 -0.4307 -0.8690 -1.3040
 2296SOL     hw 9183   0.221   4.391   7.404  1.9742  0.1223  0.2337
 2296SOL     vw 9184   0.227   4.477   7.417  0.3509  0.3338 -0.1178
 2297SOL     ow 9185   2.159   0.840   0.122 -0.2140  0.1872 -0.1854
 2297SOL     hw 9186   2.066   0.840   0.100 -0.1996 -0.3342 -0.2648
 2297SOL     hw 9187   2.195   0.767   0.071  0.1930  0.2418  0.0252
 2297SOL     vw 9188   2.151   0.830   0.112 -0.1584  0.1256 -0.1681
 2298SOL     ow 9189   3.326   0.130   1.180 -0.2654 -0.0338 -0.0977
 2298SOL     hw 9190   3.422   0.137   1.185 -0.1580 -1.1578 -0.2837
 2298SOL     hw 9191   3.298   0.121   1.272  0.0105 -1.7081 -0.1400
 2298SOL     vw 9192   3.335   0.130   1.193 -0.2148 -0.4030 -0.1279
 2299SOL     ow 9193   1.984   3.265   2.389 -0.3887 -0.2036  0.4464
 2299SOL     hw 9194   2.013   3.271   2.480  0.5753 -1.0886  0.2172
 2299SOL     hw 9195   2.029   3.337   2.345  0.1313 -0.5323  0.4315
 2299SOL     vw 9196   1.994   3.275   2.395 -0.1930 -0.3638  0.4143
 2300SOL     ow 9197   0.889   2.033   3.056 -0.1378 -0.1616 -0.0354
 2300SOL     hw 9198   0.960   2.057   3.116 -0.3475  0.0135  0.1413
 2300SOL     hw 9199   0.827   2.106   3.061  0.4988  0.5330 -1.5045
 2300SOL     vw 9200   0.891   2.046   3.064 -0.0815 -0.0470 -0.2060
 2301SOL     ow 9201   2.433   5.030   6.051  0.3316 -0.2208  0.9223
 2301SOL     hw 9202   2.413   4.937   6.060  0.5577 -0.3708  0.0201
 2301SOL     hw 9203   2.475   5.037   5.965  0.7411  0.6450  1.1839
 2301SOL     vw 9204   2.436   5.019   6.041  0.4153 -0.1264  0.8378
 2302SOL     ow 9205   6.599   0.700   1.585  0.1846  0.3414  0.9349
 2302SOL     hw 9206   6.619   0.664   1.671  1.1988 -1.6734 -0.0467
 2302SOL     hw 9207   6.684   0.700   1.539 -0.3737  1.0960 -0.1475
 2302SOL     vw 9208   6.613   0.695   1.590  0.2446  0.1751  0.6626
 2303SOL     ow 9209   6.011   1.261   2.583 -0.4924  0.6137 -0.1053
 2303SOL     hw 9210   5.923   1.286   2.553 -0.5226  0.3122 -0.2735
 2303SOL     hw 9211   6.048   1.211   2.510 -0.4054  0.2307  0.1951
 2303SOL     vw 9212   6.004   1.257   2.570 -0.4847  0.5234 -0.0879
 2304SOL     ow 9213   5.501   4.509   0.006  0.0010  0.1865  0.6380
 2304SOL     hw 9214   5.484   4.571  -0.065 -0.2942 -0.8457 -0.2279
 2304SOL     hw 9215   5.592   4.482  -0.007 -0.1768 -0.3170  0.3726
 2304SOL     vw 9216   5.511   4.513  -0.005 -0.0613 -0.0160  0.4887
 2305SOL     ow 9217   5.586   5.828   2.495 -0.5955 -0.3988  0.1691
 2305SOL     hw 9218   5.541   5.746   2.514  1.6023 -1.7190  0.0749
 2305SOL     hw 9219   5.648   5.839   2.567  0.4467  0.1597 -0.7685
 2305SOL     vw 9220   5.589   5.819   2.507 -0.1683 -0.4992  0.0329
 2306SOL     ow 9221   3.319   4.226   7.417  0.3532 -0.3126 -0.5919
 2306SOL     hw 9222   3.261   4.279   7.471  0.2138 -0.6037 -0.4515
 2306SOL     hw 9223   3.395   4.208   7.473 -0.0173 -1.0356 -0.3098
 2306SOL     vw 9224   3.321   4.231   7.431  0.2860 -0.4468 -0.5362
 2307SOL     ow 9225   1.621   4.272   0.613  0.3058  0.2105  0.2206
 2307SOL     hw 9226   1.668   4.212   0.670  0.4680 -0.4770 -0.6217
 2307SOL     hw 9227   1.598   4.220   0.536  1.5197  1.5223 -1.0933
 2307SOL     vw 9228   1.624   4.258   0.610  0.4874  0.2930 -0.0639
 2308SOL     ow 9229   5.972   1.235   4.574  0.1021 -0.0665 -0.6739
 2308SOL     hw 9230   6.012   1.208   4.491  1.1611  2.8394 -1.2528
 2308SOL     hw 9231   5.879   1.247   4.552  0.4298  1.0299 -1.6228
 2308SOL     vw 9232   5.965   1.233   4.560  0.2849  0.4615 -0.8752
 2309SOL     ow 9233   3.058   5.006   1.375 -0.1245  0.3468  0.0770
 2309SOL     hw 9234   3.074   5.079   1.435 -2.8412  1.8343 -0.8032
 2309SOL     hw 9235   3.039   5.048   1.291 -0.4133 -1.4689 -0.8140
 2309SOL     vw 9236   3.058   5.022   1.372 -0.5211  0.3033 -0.1568
 2310SOL     ow 9237   6.074   5.572   5.369  0.4598  0.7276  0.3474
 2310SOL     hw 9238   6.019   5.626   5.427  0.2310  1.0465 -0.1635
 2310SOL     hw 9239   6.012   5.530   5.310  0.4728 -1.3175  1.6851
 2310SOL     vw 9240   6.058   5.574   5.369  0.4311  0.4995  0.4566
 2311SOL     ow 9241   0.122   4.179   4.897 -0.4247 -0.1951 -0.0179
 2311SOL     hw 9242   0.027   4.170   4.889 -0.6782  2.7723 -1.9225
 2311SOL     hw 9243   0.153   4.191   4.807  2.0710 -2.7591  0.3593
 2311SOL     vw 9244   0.113   4.179   4.884 -0.1289 -0.1421 -0.2196
 2312SOL     ow 9245   4.282   4.935   4.334  0.2394  0.4643 -0.2473
 2312SOL     hw 9246   4.374   4.960   4.344  0.3063  0.0073  0.3276
 2312SOL     hw 9247   4.280   4.842   4.353 -0.2699  0.3658 -0.7515
 2312SOL     vw 9248   4.294   4.926   4.338  0.1810  0.3912 -0.2379
 2313SOL     ow 9249   0.490   1.125   4.329 -0.0138  0.1203  0.0916
 2313SOL     hw 9250   0.581   1.137   4.302 -0.1097  0.0661 -0.2618
 2313SOL     hw 9251   0.463   1.044   4.287  0.4474 -1.0669  1.9872
 2313SOL     vw 9252   0.499   1.116   4.320  0.0344 -0.0436  0.2952
 2314SOL     ow 9253   5.705   5.810   6.041 -0.0870  0.0836  0.1055
 2314SOL     hw 9254   5.665   5.747   6.102 -0.4117 -1.2911 -1.4578
 2314SOL     hw 9255   5.799   5.801   6.057 -0.1035 -1.0652 -0.2903
 2314SOL     vw 9256   5.712   5.800   6.051 -0.1318 -0.2489 -0.1528
 2315SOL     ow 9257   1.566   2.386   1.104 -0.0450 -0.0984  0.0260
 2315SOL     hw 9258   1.482   2.429   1.121  0.7042  1.1925  0.5340
 2315SOL     hw 9259   1.544   2.317   1.040 -0.9174  2.6077 -2.8470
 2315SOL     vw 9260   1.552   2.383   1.097 -0.0613  0.4288 -0.2860
 2316SOL     ow 9261   2.913   2.446   3.098 -0.0003  0.4039 -0.0485
 2316SOL     hw 9262   2.948   2.410   3.180  0.7793  1.5239  0.1273
 2316SOL     hw 9263   2.985   2.496   3.061 -0.2536 -0.2862 -1.5703
 2316SOL     vw 9264   2.927   2.448   3.104  0.0690  0.4606 -0.2260
 2317SOL     ow 9265   6.353   3.774   6.043  0.3219  0.1218 -0.2496
 2317SOL     hw 9266   6.289   3.804   5.979 -2.8769 -0.5229  2.3398
 2317SOL     hw 9267   6.383   3.855   6.086  0.1370  0.3430 -0.5331
 2317SOL     vw 9268   6.349   3.789   6.041 -0.1247  0.0659  0.0546
 2318SOL     ow 9269   6.181   3.376   1.958  0.5585  0.4500  0.2860
 2318SOL     hw 9270   6.145   3.296   1.997  1.0834  0.6813  1.2998
 2318SOL     hw 9271   6.224   3.420   2.031  0.4470  1.5667 -0.3028
 2318SOL     vw 9272   6.182   3.371   1.973  0.6130  0.6278  0.3421
 2319SOL     ow 9273   6.047   7.057   3.433 -0.1726  0.3980  0.0324
 2319SOL     hw 9274   6.059   7.152   3.436  0.7231  0.2926 -0.0213
 2319SOL     hw 9275   6.012   7.040   3.345  2.3281  0.4223 -1.0600
 2319SOL     vw 9276   6.044   7.067   3.422  0.2756  0.3872 -0.1187
 2320SOL     ow 9277   3.112   0.680   3.417 -0.3736  0.3900  0.5499
 2320SOL     hw 9278   3.158   0.745   3.365 -1.8469  0.3487 -0.9008
 2320SOL     hw 9279   3.132   0.702   3.508  2.3553  0.4153  0.0180
 2320SOL     vw 9280   3.120   0.692   3.422 -0.2078  0.3879  0.2881
 2321SOL     ow 9281   4.859   3.252   6.306 -0.1916 -0.7078  0.6444
 2321SOL     hw 9282   4.921   3.192   6.347  0.8870 -1.7816 -2.2399
 2321SOL     hw 9283   4.817   3.199   6.238  1.6152  1.8960 -2.8162
 2321SOL     vw 9284   4.862   3.237   6.302  0.1891 -0.5060 -0.1929
 2322SOL     ow 9285   7.283   4.765   0.552 -0.3566 -0.0716  0.1535
 2322SOL     hw 9286   7.346   4.692   0.557 -1.3571 -0.9307  0.5792
 2322SOL     hw 9287   7.334   4.842   0.579  0.6578 -0.6475 -0.0531
 2322SOL     vw 9288   7.298   4.765   0.556 -0.3548 -0.2613  0.1824
 2323SOL     ow 9289   1.906   3.224   5.652 -0.5731 -0.2065  1.2003
 2323SOL     hw 9290   1.904   3.128   5.649 -0.0847 -0.2223  1.3118
 2323SOL     hw 9291   1.985   3.248   5.604 -1.5163  0.2168 -0.1741
 2323SOL     vw 9292   1.916   3.215   5.645 -0.6332 -0.1528  1.0340
 2324SOL     ow 9293   4.323   5.924   1.832 -0.1260  0.2539 -0.6450
 2324SOL     hw 9294   4.253   5.860   1.842  0.8077 -1.1826 -2.5648
 2324SOL     hw 9295   4.322   5.945   1.738  0.6555  1.8257 -0.3311
 2324SOL     vw 9296   4.314   5.919   1.821  0.1004  0.2718 -0.8569
 2325SOL     ow 9297   5.247   4.569   4.259  0.4578  0.4302  0.5608
 2325SOL     hw 9298   5.237   4.479   4.290  1.3730  0.0419 -0.2298
 2325SOL     hw 9299   5.339   4.590   4.276  0.6921  0.6062 -0.8142
 2325SOL     vw 9300   5.258   4.560   4.265  0.6092  0.4022  0.2749
 2326SOL     ow 9301   5.270   0.030   3.469  0.3967 -0.2478 -0.4778
 2326SOL     hw 9302   5.209  -0.023   3.521 -0.9562  1.7150  0.0473
 2326SOL     hw 9303   5.331  -0.034   3.431  0.6296 -1.9229  2.3862
 2326SOL     vw 9304   5.270   0.014   3.471  0.2489 -0.2099 -0.0308
 2327SOL     ow 9305   5.955   2.897   0.916  0.1028 -0.0313  0.2942
 2327SOL     hw 9306   6.035   2.921   0.964  0.7351  2.3277 -1.7466
 2327SOL     hw 9307   5.987   2.840   0.846 -0.2377 -0.3243  0.3785
 2327SOL     vw 9308   5.970   2.893   0.913  0.1414  0.2414  0.0361
 2328SOL     ow 9309   1.686   0.833   4.685 -0.1131  0.3530  0.6220
 2328SOL     hw 9310   1.700   0.754   4.631  1.4456  0.9592  0.0689
 2328SOL     hw 9311   1.597   0.823   4.719 -0.6781 -0.7073 -1.0047
 2328SOL     vw 9312   1.676   0.821   4.682  0.0179  0.2931  0.3343
 2329SOL     ow 9313   6.821   2.650   5.650 -0.0886  0.3567  0.1314
 2329SOL     hw 9314   6.844   2.740   5.630 -1.4710  0.6286 -0.3091
 2329SOL     hw 9315   6.905   2.604   5.653  0.5291  1.3082 -1.3334
 2329SOL     vw 9316   6.835   2.656   5.648 -0.1893  0.5180 -0.1199
 2330SOL     ow 9317   6.415   0.555   1.487 -0.0657  0.6189 -0.0168
 2330SOL     hw 9318   6.412   0.586   1.396 -1.4108  4.1309  1.0740
 2330SOL     hw 9319   6.497   0.589   1.521  1.9517 -3.1932 -0.5175
 2330SOL     vw 9320   6.426   0.564   1.479  0.0231  0.5793  0.0610
 2331SOL     ow 9321   0.338   5.346   4.160 -0.1065 -0.7856  0.3025
 2331SOL     hw 9322   0.373   5.401   4.090  2.3375  0.3344  2.2793
 2331SOL     hw 9323   0.255   5.388   4.184  0.6736  0.7939  0.3165
 2331SOL     vw 9324   0.332   5.358   4.154  0.3189 -0.4296  0.5648
 2332SOL     ow 9325   0.095   4.743   4.217 -0.5313  0.3104  0.2932
 2332SOL     hw 9326   0.029   4.688   4.260 -1.0820  0.3200 -0.5112
 2332SOL     hw 9327   0.177   4.695   4.227 -0.4230  0.8408  2.3251
 2332SOL     vw 9328   0.097   4.730   4.224 -0.5897  0.3817  0.4549
 2333SOL     ow 9329   0.033   2.419   0.237  0.3234  0.1046 -0.4266
 2333SOL     hw 9330  -0.058   2.389   0.233 -0.8942  3.4200 -0.5363
 2333SOL     hw 9331   0.058   2.428   0.145 -0.6651  2.7866 -0.5194
 2333SOL     vw 9332   0.024   2.416   0.224  0.0324  0.8959 -0.4533
 2334SOL     ow 9333   6.519   4.362   2.853 -0.0677  0.0475 -0.3684
 2334SOL     hw 9334   6.538   4.456   2.849  0.0430  0.1814  1.9300
 2334SOL     hw 9335   6.463   4.346   2.778 -0.0920  1.9613 -0.8134
 2334SOL     vw 9336   6.514   4.372   2.843 -0.0560  0.3176 -0.1239
 2335SOL     ow 9337   0.631   1.641   2.865 -0.1865 -0.1097 -0.4263
 2335SOL     hw 9338   0.558   1.641   2.803 -0.8859 -0.0144  0.3816
 2335SOL     hw 9339   0.707   1.665   2.812 -0.7883  0.0698 -1.2270
 2335SOL     vw 9340   0.632   1.644   2.850 -0.3582 -0.0735 -0.4255
 2336SOL     ow 9341   4.074   4.895   1.864  0.3076 -0.1988  0.1590
 2336SOL     hw 9342   4.051   4.808   1.897 -1.3398  0.0603 -0.1980
 2336SOL     hw 9343   4.076   4.885   1.769 -1.1370  0.3862  0.0365
 2336SOL     vw 9344   4.071   4.882   1.856 -0.1004 -0.0873  0.0957
 2337SOL     ow 9345   3.647   1.696   5.838  0.6775 -0.6477 -0.4955
 2337SOL     hw 9346   3.686   1.779   5.810  1.0876 -0.9000 -0.6882
 2337SOL     hw 9347   3.601   1.717   5.919  1.9393 -0.5095  0.2011
 2337SOL     vw 9348   3.646   1.709   5.845  0.8981 -0.6627 -0.4292
 2338SOL     ow 9349   2.193   1.319   6.596  0.2266 -0.7160 -0.2002
 2338SOL     hw 9350   2.133   1.310   6.670 -0.3496  0.4464 -0.4920
 2338SOL     hw 9351   2.272   1.358   6.633 -0.4026  0.7357 -0.3158
 2338SOL     vw 9352   2.195   1.323   6.611  0.0676 -0.3712 -0.2537
 2339SOL     ow 9353   6.290   6.578   4.322  0.0828  0.4006 -0.3069
 2339SOL     hw 9354   6.335   6.494   4.308  1.2365  0.9230  0.1009
 2339SOL     hw 9355   6.290   6.589   4.417  0.4696  1.1283 -0.3850
 2339SOL     vw 9356   6.296   6.568   4.332  0.2861  0.5655 -0.2632
 2340SOL     ow 9357   7.136   3.774   4.932  0.2125  0.2608 -0.0061
 2340SOL     hw 9358   7.103   3.810   4.850  0.3228  0.5365  0.0680
 2340SOL     hw 9359   7.106   3.683   4.932 -0.4053  0.4583 -0.0151
 2340SOL     vw 9360   7.128   3.767   4.921  0.1454  0.3232  0.0026
 2341SOL     ow 9361   2.327   0.119   4.768  0.4864  0.3806 -0.1624
 2341SOL     hw 9362   2.331   0.098   4.861  0.2138 -0.6058 -0.3634
 2341SOL     hw 9363   2.399   0.181   4.754  1.7131 -0.8875  0.3401
 2341SOL     vw 9364   2.337   0.125   4.778  0.6124  0.0832 -0.1228
 2342SOL     ow 9365   5.627   0.586   1.659 -0.2708 -0.1014  0.8053
 2342SOL     hw 9366   5.557   0.631   1.707 -0.8084 -1.4445  1.3160
 2342SOL     hw 9367   5.615   0.493   1.680 -0.5685 -0.7698 -1.9626
 2342SOL     vw 9368   5.616   0.580   1.668 -0.3810 -0.3668  0.5075
 2343SOL     ow 9369   1.656   4.494   0.427 -0.2179 -0.0404 -0.1170
 2343SOL     hw 9370   1.658   4.500   0.331 -0.1895  2.1213 -0.0333
 2343SOL     hw 9371   1.569   4.526   0.451  0.5174  1.4891  0.6420
 2343SOL     vw 9372   1.645   4.499   0.417 -0.1171  0.4463 -0.0058
 2344SOL     ow 9373   6.907   2.737   7.114 -0.7893 -0.1045 -0.3929
 2344SOL     hw 9374   6.878   2.723   7.023  0.2387  0.0494 -0.7564
 2344SOL     hw 9375   6.844   2.687   7.166 -2.3204  1.0396 -1.0601
 2344SOL     vw 9376   6.894   2.728   7.109 -0.8557  0.0668 -0.5291
 2345SOL     ow 9377   2.925   1.594   6.803 -0.1965  0.7846  0.0993
 2345SOL     hw 9378   2.891   1.515   6.761  0.0114  0.2522  0.9164
 2345SOL     hw 9379   2.983   1.632   6.737 -1.1393  0.8589 -0.7096
 2345SOL     vw 9380   2.928   1.589   6.789 -0.2934  0.7241  0.1004
 2346SOL     ow 9381   0.062   1.628   1.968  0.3285  0.1696  0.2882
 2346SOL     hw 9382   0.100   1.689   2.032  0.6037 -0.0623  0.3509
 2346SOL     hw 9383   0.021   1.684   1.903 -1.6278  0.4047  1.6382
 2346SOL     vw 9384   0.062   1.643   1.968  0.1067  0.1700  0.4746
 2347SOL     ow 9385   1.774   7.210   6.041 -0.3904 -0.0537 -0.1560
 2347SOL     hw 9386   1.768   7.299   6.005 -2.3799 -0.1700 -0.2069
 2347SOL     hw 9387   1.831   7.219   6.117  1.6768  0.7138 -1.6946
 2347SOL     vw 9388   1.781   7.223   6.046 -0.3802  0.0324 -0.3655
 2348SOL     ow 9389   1.958   3.315   2.991  0.0466  0.1165  0.5374
 2348SOL     hw 9390   1.981   3.315   3.084  0.1418  0.1238  0.5142
 2348SOL     hw 9391   1.880   3.261   2.986  0.0205  0.1456  0.6271
 2348SOL     vw 9392   1.951   3.308   3.003  0.0557  0.1214  0.5463
 2349SOL     ow 9393   1.495   6.410   5.315  0.2469  0.5150 -0.3619
 2349SOL     hw 9394   1.584   6.416   5.350  0.4847 -0.8544 -0.6373
 2349SOL     hw 9395   1.446   6.478   5.360  0.9435 -0.0485  1.3511
 2349SOL     vw 9396   1.501   6.420   5.325  0.3702  0.2599 -0.1719
 2350SOL     ow 9397   5.867   1.711   1.611  0.5147 -0.4278  0.0998
 2350SOL     hw 9398   5.787   1.738   1.566 -0.1734 -1.6715  0.5083
 2350SOL     hw 9399   5.900   1.638   1.560  1.7318  0.4399 -0.3859
 2350SOL     vw 9400   5.860   1.705   1.599  0.5844 -0.4775  0.0896
 2351SOL     ow 9401   6.509   4.006   2.352  0.9312 -0.2686  0.0621
 2351SOL     hw 9402   6.502   4.031   2.444  1.6801 -0.2251  0.1091
 2351SOL     hw 9403   6.430   3.953   2.336  0.8890 -0.4354  0.7718
 2351SOL     vw 9404   6.497   4.002   2.362  1.0242 -0.2849  0.1620
 2352SOL     ow 9405   3.911   0.442   2.049 -0.5578  0.5854 -0.2738
 2352SOL     hw 9406   3.912   0.492   1.967 -0.2570  0.3167 -0.4323
 2352SOL     hw 9407   3.883   0.354   2.023  1.8735 -0.1973 -0.4896
 2352SOL     vw 9408   3.907   0.437   2.035 -0.1973  0.4467 -0.3233
 2353SOL     ow 9409   2.242   2.138   4.854 -0.2564 -0.1391  0.2104
 2353SOL     hw 9410   2.225   2.053   4.813  1.2506  0.5099 -1.9588
 2353SOL     hw 9411   2.155   2.171   4.877 -0.8771 -2.1656  0.9472
 2353SOL     vw 9412   2.228   2.131   4.851 -0.1395 -0.3208  0.0217
 2354SOL     ow 9413   5.870   4.168   2.717 -0.0602 -0.3097  0.1505
 2354SOL     hw 9414   5.862   4.106   2.644 -1.3131  0.3348 -0.2923
 2354SOL     hw 9415   5.846   4.252   2.679  0.7312  0.3025  0.9684
 2354SOL     vw 9416   5.866   4.171   2.702 -0.1211 -0.1438  0.1999
 2355SOL     ow 9417   4.359   1.916   3.290  0.6935  0.0914  0.2492
 2355SOL     hw 9418   4.359   1.978   3.218 -0.6453  1.8399  1.6705
 2355SOL     hw 9419   4.413   1.958   3.357  1.1905 -1.0951  0.6241
 2355SOL     vw 9420   4.366   1.930   3.290  0.5825  0.1656  0.4863
 2356SOL     ow 9421   4.190   0.641   0.001 -0.0809  0.2563  0.1555
 2356SOL     hw 9422   4.189   0.719   0.055 -0.0383  0.3194  0.0652
 2356SOL     hw 9423   4.256   0.659  -0.066 -1.5852  1.0411 -1.1830
 2356SOL     vw 9424   4.199   0.654  -0.001 -0.2739  0.3682 -0.0331
 2357SOL     ow 9425   3.986   2.343   3.717 -0.4760 -0.0818 -0.3526
 2357SOL     hw 9426   4.045   2.379   3.651  2.6494 -1.0612  1.6960
 2357SOL     hw 9427   3.985   2.410   3.786 -0.3453 -0.7999  0.3655
 2357SOL     vw 9428   3.994   2.357   3.718 -0.0464 -0.3058  0.0125
 2358SOL     ow 9429   2.324   4.570   7.249 -0.2259 -0.0642 -0.3324
 2358SOL     hw 9430   2.344   4.650   7.298  2.2386 -0.4538 -0.5966
 2358SOL     hw 9431   2.316   4.598   7.158 -1.1729  0.1115 -0.2102
 2358SOL     vw 9432   2.325   4.584   7.244 -0.0256 -0.0920 -0.3514
 2359SOL     ow 9433   4.755   6.366   6.319 -0.1959 -0.3009  0.4795
 2359SOL     hw 9434   4.758   6.335   6.229  0.6963 -1.4806  0.8835
 2359SOL     hw 9435   4.775   6.459   6.314 -0.8656 -0.2068 -0.5939
 2359SOL     vw 9436   4.758   6.374   6.307 -0.1662 -0.4442  0.3910
 2360SOL     ow 9437   7.230   1.918   7.394  0.1097  0.0456 -0.1219
 2360SOL     hw 9438   7.261   1.970   7.468  2.9440 -0.2415 -0.9966
 2360SOL     hw 9439   7.265   1.961   7.317 -1.5404 -0.4997 -1.2306
 2360SOL     vw 9440   7.239   1.930   7.394  0.2661 -0.0643 -0.3834
 2361SOL     ow 9441   0.544   5.517   1.309  0.3520  0.0172 -0.4916
 2361SOL     hw 9442   0.497   5.470   1.240  0.5279 -1.4035  0.3323
 2361SOL     hw 9443   0.614   5.458   1.337  0.5733  0.7475  0.5930
 2361SOL     vw 9444   0.547   5.503   1.304  0.4044 -0.0741 -0.2399
 2362SOL     ow 9445   6.365   3.238   5.952 -0.4388 -0.5556 -0.2193
 2362SOL     hw 9446   6.283   3.194   5.974 -0.4543 -1.1093 -1.3156
 2362SOL     hw 9447   6.413   3.240   6.034 -1.6525  0.0259  0.5101
 2362SOL     vw 9448   6.360   3.232   5.965 -0.6011 -0.5521 -0.2680
 2363SOL     ow 9449   3.777   3.898   3.501 -0.9056  0.0269  0.2118
 2363SOL     hw 9450   3.784   3.949   3.582 -2.7055  0.3191  0.2145
 2363SOL     hw 9451   3.761   3.963   3.433  0.4059 -0.2395 -0.3812
 2363SOL     vw 9452   3.776   3.913   3.503 -0.9700  0.0304  0.1340
 2364SOL     ow 9453   1.573   7.118   1.957  0.7369 -0.6412 -0.2068
 2364SOL     hw 9454   1.610   7.154   2.038  1.4064 -0.0067 -0.7723
 2364SOL     hw 9455   1.622   7.162   1.887 -0.2387 -0.7371 -0.9694
 2364SOL     vw 9456   1.585   7.129   1.958  0.6965 -0.5703 -0.3821
 2365SOL     ow 9457   1.226   6.544   4.652 -0.3382  0.4378  0.1722
 2365SOL     hw 9458   1.238   6.575   4.741 -0.7674  1.0925  0.0176
 2365SOL     hw 9459   1.185   6.459   4.661 -0.6433  0.6260  0.6005
 2365SOL     vw 9460   1.222   6.537   4.665 -0.4351  0.5491  0.2086
 2366SOL     ow 9461   0.836   2.251   4.721 -0.5708  0.3876 -0.0950
 2366SOL     hw 9462   0.831   2.290   4.634  0.7401  1.4820  0.2985
 2366SOL     hw 9463   0.829   2.325   4.781 -0.6591 -0.2704  0.7185
 2366SOL     vw 9464   0.834   2.266   4.718 -0.4095  0.4450  0.0644
 2367SOL     ow 9465   5.892   4.892   0.354  0.1399 -0.4365  0.2347
 2367SOL     hw 9466   5.941   4.877   0.435  0.2374  0.8694  0.4374
 2367SOL     hw 9467   5.817   4.833   0.359  0.4077 -0.7177  1.0449
 2367SOL     vw 9468   5.889   4.882   0.365  0.1881 -0.3011  0.3684
 2368SOL     ow 9469   2.687   5.240   1.933  0.4183  0.1062 -0.2812
 2368SOL     hw 9470   2.658   5.331   1.920  2.0107  0.5867 -0.7616
 2368SOL     hw 9471   2.679   5.201   1.846  0.0204 -0.1284 -0.1395
 2368SOL     vw 9472   2.682   5.247   1.919  0.5757  0.1388 -0.3259
 2369SOL     ow 9473   0.844   0.253   6.630 -0.3900  0.2020 -0.4065
 2369SOL     hw 9474   0.936   0.246   6.652 -0.2230  1.2212 -0.7379
 2369SOL     hw 9475   0.840   0.227   6.538 -0.1098  2.0267 -0.9759
 2369SOL     vw 9476   0.855   0.248   6.621 -0.3310  0.5772 -0.5250
 2370SOL     ow 9477   2.205   1.260   0.370 -0.1909  0.6694 -0.7789
 2370SOL     hw 9478   2.255   1.201   0.313  1.1442  1.7060 -0.7483
 2370SOL     hw 9479   2.121   1.216   0.384  0.0912 -0.3718 -2.1932
 2370SOL     vw 9480   2.201   1.246   0.364  0.0225  0.6687 -0.9615
 2371SOL     ow 9481   3.737   6.379   2.091  0.4515  0.3681 -0.0208
 2371SOL     hw 9482   3.807   6.364   2.028 -0.3841  0.5542 -1.0157
 2371SOL     hw 9483   3.718   6.472   2.083  0.2510  0.3677  0.4275
 2371SOL     vw 9484   3.744   6.389   2.082  0.3147  0.3924 -0.0930
 2372SOL     ow 9485   4.935   0.792   0.227  0.2635 -0.8406 -0.3324
 2372SOL     hw 9486   4.844   0.823   0.224 -0.0433 -1.7167 -0.3763
 2372SOL     hw 9487   4.951   0.756   0.140  0.7580 -0.4227 -0.4200
 2372SOL     vw 9488   4.925   0.791   0.215  0.2882 -0.9010 -0.3497
 2373SOL     ow 9489   4.096   1.409   5.298 -0.0023  0.0356  0.3084
 2373SOL     hw 9490   4.134   1.463   5.228  0.7714 -1.8013 -0.7658
 2373SOL     hw 9491   4.025   1.361   5.255  1.1552 -1.9110  0.4287
 2373SOL     vw 9492   4.092   1.410   5.283  0.2525 -0.4635  0.1824
 2374SOL     ow 9493   0.210   0.484   7.135 -0.1250 -0.9016 -0.1310
 2374SOL     hw 9494   0.221   0.422   7.207 -0.8612  0.2877  1.0231
 2374SOL     hw 9495   0.138   0.541   7.162  1.3518  1.2888 -0.5539
 2374SOL     vw 9496   0.202   0.483   7.148 -0.0273 -0.4557 -0.0348
 2375SOL     ow 9497   0.879   3.978   0.397  0.1328 -0.2868  0.1357
 2375SOL     hw 9498   0.947   3.939   0.453 -0.9445 -1.1369  0.8860
 2375SOL     hw 9499   0.901   3.948   0.309  0.8670 -0.3506  0.3275
 2375SOL     vw 9500   0.891   3.969   0.393  0.0875 -0.4075  0.2600
 2376SOL     ow 9501   5.493   3.355   4.940 -0.1880  0.0075  0.2851
 2376SOL     hw 9502   5.554   3.301   4.891 -0.9141 -1.0769  0.5361
 2376SOL     hw 9503   5.426   3.381   4.876 -0.0861  0.2370  0.2689
 2376SOL     vw 9504   5.492   3.351   4.925 -0.2704 -0.1053  0.3159
 2377SOL     ow 9505   5.691   5.999   6.478  1.0590  0.4696  0.2987
 2377SOL     hw 9506   5.676   5.945   6.556  0.4010  0.4306  0.1531
 2377SOL     hw 9507   5.757   5.950   6.428 -0.4270 -0.8707 -0.4393
 2377SOL     vw 9508   5.698   5.985   6.482  0.7763  0.2878  0.1819
 2378SOL     ow 9509   6.740   7.085   1.361  0.2735  0.5575 -0.4695
 2378SOL     hw 9510   6.796   7.075   1.285  0.8510  2.3841 -0.3474
 2378SOL     hw 9511   6.791   7.050   1.434  0.5944  0.7429 -0.6047
 2378SOL     vw 9512   6.754   7.079   1.361  0.3922  0.8228 -0.4713
 2379SOL     ow 9513   0.555   0.657   1.409 -0.1683 -0.1961 -0.1437
 2379SOL     hw 9514   0.578   0.729   1.469 -0.2741  0.8692 -1.3354
 2379SOL     hw 9515   0.529   0.585   1.466  1.8482  0.0324  1.1629
 2379SOL     vw 9516   0.555   0.657   1.424  0.0837 -0.0254 -0.1286
 2380SOL     ow 9517   5.542   0.657   7.380 -0.2429  0.2230 -0.4560
 2380SOL     hw 9518   5.577   0.599   7.313 -0.9680  1.5283 -2.0138
 2380SOL     hw 9519   5.581   0.743   7.362  0.3698  0.4021  1.4572
 2380SOL     vw 9520   5.552   0.661   7.369 -0.2575  0.4189 -0.4091
 2381SOL     ow 9521   1.483   6.097   3.904 -0.3770 -0.8443 -0.5264
 2381SOL     hw 9522   1.574   6.113   3.878  0.0628 -0.6852  1.0540
 2381SOL     hw 9523   1.456   6.178   3.946 -0.5507 -1.5990  0.8774
 2381SOL     vw 9524   1.492   6.110   3.906 -0.3418 -0.9232 -0.1327
 2382SOL     ow 9525   5.201   2.402   3.983  0.6618  0.7362 -0.0881
 2382SOL     hw 9526   5.275   2.422   4.040  1.4117 -0.6089 -0.5468
 2382SOL     hw 9527   5.177   2.311   4.005 -0.6567  1.0393 -0.1738
 2382SOL     vw 9528   5.208   2.392   3.993  0.5870  0.5989 -0.1600
 2383SOL     ow 9529   6.676   1.245   1.930  0.3425  0.6144  0.1644
 2383SOL     hw 9530   6.636   1.332   1.933 -0.6121  0.1838  0.2900
 2383SOL     hw 9531   6.637   1.199   2.004  0.3352 -0.1243 -0.2953
 2383SOL     vw 9532   6.665   1.251   1.940  0.2155  0.4601  0.1203
 2384SOL     ow 9533   5.951   3.088   4.172  0.5023  0.6715 -0.0840
 2384SOL     hw 9534   6.045   3.074   4.188  0.5076  0.1319 -0.5350
 2384SOL     hw 9535   5.914   2.999   4.172  0.1004  0.8362 -0.5676
 2384SOL     vw 9536   5.959   3.074   4.174  0.4501  0.6220 -0.2074
 2385SOL     ow 9537   5.302   6.091   5.859 -0.0284 -0.0199  0.2403
 2385SOL     hw 9538   5.280   6.170   5.810  0.5390  0.6703  1.0664
 2385SOL     hw 9539   5.222   6.070   5.907 -0.1583  0.1014  0.0793
 2385SOL     vw 9540   5.288   6.099   5.859  0.0296  0.0870  0.3281
 2386SOL     ow 9541   5.788   3.624   2.681  0.7806 -0.2283 -0.6129
 2386SOL     hw 9542   5.721   3.564   2.648  0.4994 -0.4404  0.3093
 2386SOL     hw 9543   5.825   3.664   2.603 -0.2453 -0.3030 -1.1546
 2386SOL     vw 9544   5.784   3.621   2.666  0.6080 -0.2662 -0.5627
 2387SOL     ow 9545   3.248   6.181   4.720  0.7210 -0.7002 -0.1208
 2387SOL     hw 9546   3.174   6.240   4.706  1.5593  0.9814  1.8894
 2387SOL     hw 9547   3.222   6.125   4.793  0.9186 -1.0321 -0.3016
 2387SOL     vw 9548   3.235   6.182   4.728  0.8577 -0.5221  0.1204
 2388SOL     ow 9549   5.111   2.988   5.143 -0.3060 -0.3106  0.4941
 2388SOL     hw 9550   5.047   2.929   5.102 -1.0654  2.0586 -1.9932
 2388SOL     hw 9551   5.065   3.072   5.150  2.0755  1.1422 -0.1800
 2388SOL     vw 9552   5.097   2.991   5.138 -0.0920  0.1937  0.0772
 2389SOL     ow 9553   1.928   5.914   2.330  0.0139 -0.4211  0.4746
 2389SOL     hw 9554   1.922   5.965   2.249 -1.0325  1.6247  1.7629
 2389SOL     hw 9555   2.022   5.912   2.350  0.1147  0.8103  0.2313
 2389SOL     vw 9556   1.940   5.921   2.322 -0.1109  0.0112  0.6125
 2390SOL     ow 9557   0.093   4.970   5.374  0.0013 -0.3974 -0.3894
 2390SOL     hw 9558   0.168   5.028   5.364 -0.2951  0.0810  0.0478
 2390SOL     hw 9559   0.018   5.025   5.351 -0.1639 -1.0882 -1.5685
 2390SOL     vw 9560   0.093   4.985   5.370 -0.0596 -0.4256 -0.4871
 2391SOL     ow 9561   5.392   4.963   4.157 -0.4192 -0.0844  0.3103
 2391SOL     hw 9562   5.395   5.057   4.177  0.4342  0.1338 -0.7638
 2391SOL     hw 9563   5.378   4.959   4.062  0.0603 -1.0377  0.2707
 2391SOL     vw 9564   5.391   4.975   4.147 -0.2437 -0.1812  0.1633
 2392SOL     ow 9565   6.568   5.852   0.768  0.4344 -0.2807 -0.2087
 2392SOL     hw 9566   6.617   5.927   0.802 -1.1842 -0.2015  2.1694
 2392SOL     hw 9567   6.620   5.820   0.694  1.8474  2.3387 -0.4363
 2392SOL     vw 9568   6.581   5.857   0.763  0.4075  0.0753  0.0750
 2393SOL     ow 9569   7.273   4.677   2.558  0.5072 -0.1542 -0.3691
 2393SOL     hw 9570   7.263   4.764   2.520  0.2786 -0.6019 -1.3635
 2393SOL     hw 9571   7.367   4.665   2.567  0.5447  0.1277 -0.3875
 2393SOL     vw 9572   7.284   4.687   2.554  0.4816 -0.1760 -0.5027
 2394SOL     ow 9573   4.773   1.855   3.637  0.3019 -0.4497  0.2434
 2394SOL     hw 9574   4.721   1.906   3.699  0.0808 -0.6960  0.2654
 2394SOL     hw 9575   4.862   1.888   3.647 -0.0134  0.6787 -0.5236
 2394SOL     vw 9576   4.778   1.866   3.646  0.2313 -0.3334  0.1451
 2395SOL     ow 9577   5.200   2.341   2.706  0.7592 -0.7432 -0.4062
 2395SOL     hw 9578   5.208   2.306   2.617  2.7533  0.1921 -0.6430
 2395SOL     hw 9579   5.270   2.405   2.713 -0.9983  1.1344  0.9968
 2395SOL     vw 9580   5.210   2.345   2.695  0.7904 -0.3722 -0.2524
 2396SOL     ow 9581   3.570   7.432   0.151 -0.1165  0.1062 -0.2845
 2396SOL     hw 9582   3.616   7.514   0.167 -0.5609  0.2507  0.3026
 2396SOL     hw 9583   3.480   7.458   0.129 -0.4380 -0.2267  0.5513
 2396SOL     vw 9584   3.564   7.446   0.150 -0.2174  0.0815 -0.0968
 2397SOL     ow 9585   0.915   1.697   0.319  0.6075  0.4116  0.5814
 2397SOL     hw 9586   0.995   1.744   0.344  1.3958 -1.4712  1.7938
 2397SOL     hw 9587   0.942   1.641   0.246  0.6251 -0.7356  1.4325
 2397SOL     vw 9588   0.929   1.696   0.313  0.7139  0.0119  0.8536
 2398SOL     ow 9589   1.669   2.428   1.781  0.2571  0.0133  0.7209
 2398SOL     hw 9590   1.625   2.429   1.865  1.2053  0.6513  1.2231
 2398SOL     hw 9591   1.717   2.511   1.777 -0.1651  0.2255 -0.6620
 2398SOL     vw 9592   1.669   2.439   1.791  0.3265  0.1255  0.6047
 2399SOL     ow 9593   5.554   1.346   5.993  0.0911 -0.1647 -0.2475
 2399SOL     hw 9594   5.462   1.339   5.966  0.2440  0.7416 -1.0412
 2399SOL     hw 9595   5.587   1.256   5.988 -1.1090 -0.7694  1.4574
 2399SOL     vw 9596   5.546   1.333   5.989 -0.0467 -0.1248 -0.1271
 2400SOL     ow 9597   1.854   2.820   2.893 -0.0321  0.4601 -0.0130
 2400SOL     hw 9598   1.801   2.741   2.883 -1.7073  1.4665  0.5613
 2400SOL     hw 9599   1.885   2.839   2.804  0.0241 -0.5840 -0.2309
 2400SOL     vw 9600   1.851   2.812   2.880 -0.2457  0.4550  0.0341
 2401SOL     ow 9601   4.394   2.447   7.384 -0.1575  0.5729  0.4988
 2401SOL     hw 9602   4.333   2.440   7.457  1.0466 -1.7450  1.3910
 2401SOL     hw 9603   4.450   2.370   7.392  2.2545  2.0616 -0.8550
 2401SOL     vw 9604   4.393   2.436   7.395  0.3197  0.4635  0.4380
 2402SOL     ow 9605   3.088   4.743   2.683  0.0072  0.3125  0.2151
 2402SOL     hw 9606   3.114   4.692   2.760 -0.8583  0.6594  0.7391
 2402SOL     hw 9607   3.171   4.759   2.637  0.3826 -1.0037  0.3754
 2402SOL     vw 9608   3.103   4.738   2.687 -0.0573  0.1848  0.3053
 2403SOL     ow 9609   5.993   6.229   3.104  0.0268  0.1659  0.2107
 2403SOL     hw 9610   6.080   6.270   3.101 -0.4122  1.3198  2.0189
 2403SOL     hw 9611   6.002   6.159   3.169 -0.1191 -0.4615 -0.4304
 2403SOL     vw 9612   6.006   6.225   3.112 -0.0501  0.2356  0.3647
 2404SOL     ow 9613   3.673   3.040   5.516 -0.2522 -0.7908  0.4452
 2404SOL     hw 9614   3.664   3.067   5.608  1.5645  1.5940  0.0219
 2404SOL     hw 9615   3.767   3.042   5.499 -0.6039  0.0647 -1.7589
 2404SOL     vw 9616   3.684   3.044   5.526 -0.0589 -0.3633  0.0985
 2405SOL     ow 9617   2.106   4.426   7.366 -0.0329 -0.0932  0.2383
 2405SOL     hw 9618   2.180   4.476   7.331 -0.0112 -0.4895 -0.3018
 2405SOL     hw 9619   2.141   4.337   7.376 -0.3762 -0.2324  0.1965
 2405SOL     vw 9620   2.121   4.420   7.363 -0.0752 -0.1640  0.1614
 2406SOL     ow 9621   4.075   5.768   1.857 -1.0815  0.2492 -0.5171
 2406SOL     hw 9622   4.009   5.814   1.806 -2.3073 -1.5824 -0.6696
 2406SOL     hw 9623   4.078   5.680   1.820 -0.2937 -0.4309  1.0351
 2406SOL     vw 9624   4.067   5.762   1.846 -1.1394 -0.0823 -0.3324
 2407SOL     ow 9625   5.871   6.781   4.441  0.1244  0.3385 -0.3170
 2407SOL     hw 9626   5.859   6.839   4.366  0.0565  0.9641  0.1723
 2407SOL     hw 9627   5.934   6.827   4.497  2.3726 -1.3721 -1.2684
 2407SOL     vw 9628   5.878   6.795   4.438  0.4120  0.1955 -0.3779
 2408SOL     ow 9629   5.968   3.569   5.605 -0.4235 -0.0532 -0.0329
 2408SOL     hw 9630   5.928   3.535   5.525  0.3063 -2.0890  0.3968
 2408SOL     hw 9631   6.052   3.605   5.576 -1.0453  1.1296 -0.4419
 2408SOL     vw 9632   5.974   3.569   5.591 -0.4091 -0.1657 -0.0303
 2409SOL     ow 9633   2.826   4.237   0.300  0.0014  0.1405 -0.2201
 2409SOL     hw 9634   2.897   4.293   0.330 -0.7024  0.8058  0.2375
 2409SOL     hw 9635   2.809   4.178   0.374  0.9669 -0.9355 -0.8201
 2409SOL     vw 9636   2.833   4.236   0.314  0.0359  0.0865 -0.2389
 2410SOL     ow 9637   4.988   3.836   4.194 -0.0355  0.4394  0.1763
 2410SOL     hw 9638   4.947   3.911   4.150  1.5521  1.8436  0.9797
 2410SOL     hw 9639   5.058   3.875   4.246 -0.5843 -1.3713  2.3969
 2410SOL     vw 9640   4.992   3.851   4.195  0.1018  0.3858  0.5751
 2411SOL     ow 9641   5.740   7.496   2.217  0.4854  0.0924 -0.0038
 2411SOL     hw 9642   5.732   7.493   2.122 -1.2683  0.4556  0.1116
 2411SOL     hw 9643   5.660   7.539   2.247  0.4288 -1.1441  1.7317
 2411SOL     vw 9644   5.729   7.502   2.209  0.2468 -0.0226  0.2403
 2412SOL     ow 9645   7.497   6.503   4.465  0.2967  0.5754 -0.3781
 2412SOL     hw 9646   7.463   6.455   4.540  0.3194  1.1845  0.0338
 2412SOL     hw 9647   7.587   6.474   4.456  0.0608 -0.0819 -0.6649
 2412SOL     vw 9648   7.504   6.493   4.473  0.2686  0.5689 -0.3617
 2413SOL     ow 9649   2.444   4.245   4.446 -0.1121 -0.1194 -0.1550
 2413SOL     hw 9650   2.471   4.287   4.528  0.8656  0.5305 -0.7837
 2413SOL     hw 9651   2.362   4.200   4.468  0.3979 -0.4096  1.3092
 2413SOL     vw 9652   2.437   4.245   4.460  0.0842 -0.0718 -0.0448
 2414SOL     ow 9653   2.965   0.936   3.799  0.1408  0.2929 -0.2834
 2414SOL     hw 9654   2.990   0.909   3.888 -1.8757 -1.0005 -0.0421
 2414SOL     hw 9655   3.041   0.984   3.766  2.2703 -2.0641  0.8996
 2414SOL     vw 9656   2.979   0.939   3.807  0.1558 -0.1887 -0.0955
 2415SOL     ow 9657   7.182   5.793   1.725 -0.1313 -0.2230  0.3672
 2415SOL     hw 9658   7.256   5.755   1.676  0.9911  2.1136  0.1127
 2415SOL     hw 9659   7.220   5.816   1.810 -1.2474 -1.2712  1.1720
 2415SOL     vw 9660   7.197   5.791   1.729 -0.1304 -0.0527  0.4398
 2416SOL     ow 9661   1.312   1.671   3.405 -0.4942 -0.2658  0.1430
 2416SOL     hw 9662   1.390   1.703   3.450  0.3352  0.0042 -1.4267
 2416SOL     hw 9663   1.272   1.610   3.468  0.5750  0.1243  1.2542
 2416SOL     vw 9664   1.317   1.667   3.420 -0.2437 -0.1788  0.0825
 2417SOL     ow 9665   5.067   1.678   4.562 -0.2322 -0.2837 -0.1089
 2417SOL     hw 9666   5.135   1.634   4.511  2.0676  2.0466  0.6802
 2417SOL     hw 9667   5.066   1.631   4.645  0.7502 -0.0910  0.0240
 2417SOL     vw 9668   5.076   1.666   4.566  0.2010  0.0492  0.0126
 2418SOL     ow 9669   0.834   0.492   6.754  0.0122  0.5603 -0.5020
 2418SOL     hw 9670   0.901   0.478   6.821  0.1682  0.9784 -0.5696
 2418SOL     hw 9671   0.832   0.410   6.705  0.5368  0.5749 -0.5517
 2418SOL     vw 9672   0.843   0.479   6.756  0.1020  0.6174 -0.5174
 2419SOL     ow 9673   5.289   4.945   6.269 -0.5687  0.1562  0.0478
 2419SOL     hw 9674   5.300   5.023   6.323 -1.3161  2.2793 -2.6424
 2419SOL     hw 9675   5.254   4.879   6.329  0.5636  1.6888  2.5457
 2419SOL     vw 9676   5.286   4.946   6.284 -0.5178  0.6382  0.0224
 2420SOL     ow 9677   7.091   4.435   3.549 -0.2772 -0.3526 -0.0185
 2420SOL     hw 9678   7.143   4.493   3.605 -3.0626  0.5016  1.8922
 2420SOL     hw 9679   7.013   4.414   3.601 -0.1201 -4.7654 -1.1656
 2420SOL     vw 9680   7.087   4.440   3.564 -0.6239 -0.8221  0.0824
 2421SOL     ow 9681   1.184   7.498   0.390  0.0698 -0.3630 -0.7505
 2421SOL     hw 9682   1.166   7.563   0.322 -1.2822 -1.6529 -1.7004
 2421SOL     hw 9683   1.162   7.414   0.349  0.7701 -1.3310  0.7708
 2421SOL     vw 9684   1.179   7.495   0.376 -0.0162 -0.6609 -0.6751
 2422SOL     ow 9685   7.426   5.830   7.229 -0.4797  0.1911  0.0499
 2422SOL     hw 9686   7.381   5.764   7.175 -0.3724  0.2537 -0.1171
 2422SOL     hw 9687   7.489   5.779   7.280 -1.4505 -0.0299  1.0521
 2422SOL     vw 9688   7.428   5.814   7.229 -0.5936  0.1702  0.1602
 2423SOL     ow 9689   6.814   2.350   5.696 -0.2021 -0.1047  0.1388
 2423SOL     hw 9690   6.810   2.262   5.658 -0.0390 -0.5401  1.0983
 2423SOL     hw 9691   6.905   2.358   5.726  0.1141  0.8675 -1.0380
 2423SOL     vw 9692   6.826   2.339   5.695 -0.1390 -0.0339  0.1101
 2424SOL     ow 9693   2.347   1.321   0.622  0.3299  0.2175  0.5159
 2424SOL     hw 9694   2.334   1.355   0.710 -0.5888  2.8974 -0.5234
 2424SOL     hw 9695   2.442   1.318   0.610  0.4532  0.2550  1.4303
 2424SOL     vw 9696   2.358   1.325   0.632  0.2249  0.5760  0.4994
 2425SOL     ow 9697   0.707   5.680   5.802  0.6670  0.4237  0.5938
 2425SOL     hw 9698   0.798   5.667   5.775  0.5651 -1.6352  1.0906
 2425SOL     hw 9699   0.657   5.621   5.746  0.0806 -1.3700  2.8783
 2425SOL     vw 9700   0.713   5.671   5.791  0.5762 -0.0846  0.9606
 2426SOL     ow 9701   1.735   6.241   4.500  0.1113 -0.0875  0.0763
 2426SOL     hw 9702   1.687   6.202   4.573  2.0760 -0.0005  1.5350
 2426SOL     hw 9703   1.681   6.315   4.471 -0.1328  0.7295  2.3980
 2426SOL     vw 9704   1.722   6.246   4.506  0.3384  0.0319  0.5748
 2427SOL     ow 9705   3.498   6.312   2.003  0.1634 -0.0933  0.4316
 2427SOL     hw 9706   3.467   6.262   2.079 -0.0749 -1.1930 -0.3686
 2427SOL     hw 9707   3.589   6.333   2.025  0.2395 -0.7889  0.8407
 2427SOL     vw 9708   3.506   6.308   2.016  0.1420 -0.3300  0.3800
 2428SOL     ow 9709   5.327   2.283   0.466  0.2422 -0.6006 -0.1113
 2428SOL     hw 9710   5.386   2.359   0.469 -0.5366  0.0281 -0.4036
 2428SOL     hw 9711   5.295   2.281   0.376 -0.4335 -0.7452  0.1246
 2428SOL     vw 9712   5.331   2.293   0.454  0.0503 -0.5369 -0.1188
 2429SOL     ow 9713   4.884   5.484   5.446 -0.4965  0.0352  0.0915
 2429SOL     hw 9714   4.860   5.407   5.395  0.8128 -0.2365 -0.1571
 2429SOL     hw 9715   4.858   5.463   5.536 -1.6549 -0.0015 -0.2368
 2429SOL     vw 9716   4.878   5.471   5.451 -0.4766 -0.0052  0.0150
 2430SOL     ow 9717   6.694   2.700   4.468  0.1443 -0.8103 -0.1928
 2430SOL     hw 9718   6.695   2.628   4.531  0.5175 -0.3395  0.3579
 2430SOL     hw 9719   6.784   2.732   4.467  0.1913 -0.9506 -1.1443
 2430SOL     vw 9720   6.706   2.695   4.476  0.1998 -0.7665 -0.2458
 2431SOL     ow 9721   0.130   5.167   3.834  0.7679 -0.1960 -0.5425
 2431SOL     hw 9722   0.129   5.233   3.765  1.1712 -0.9589 -1.2855
 2431SOL     hw 9723   0.221   5.164   3.864  0.6643 -0.1129 -0.2154
 2431SOL     vw 9724   0.142   5.175   3.829  0.8075 -0.2856 -0.5974
 2432SOL     ow 9725   1.501   5.706   1.635  0.1105 -0.1422 -0.3945
 2432SOL     hw 9726   1.464   5.768   1.697  1.2648 -0.7675  0.9669
 2432SOL     hw 9727   1.590   5.690   1.666  1.1751  0.4135 -2.8924
 2432SOL     vw 9728   1.508   5.712   1.647  0.4033 -0.1516 -0.5444
 2433SOL     ow 9729   0.025   5.589   5.918  0.4094 -0.2707  0.1649
 2433SOL     hw 9730   0.031   5.644   5.840  0.2582  0.9544  0.9926
 2433SOL     hw 9731   0.056   5.645   5.989 -0.4087 -1.0286  1.1451
 2433SOL     vw 9732   0.030   5.603   5.917  0.2813 -0.2091  0.4034
 2434SOL     ow 9733   1.198   2.463   7.028  0.1018  0.4274  0.3095
 2434SOL     hw 9734   1.275   2.474   6.973  1.9433  2.4497  3.0053
 2434SOL     hw 9735   1.205   2.532   7.094 -2.7529 -0.8291  2.1639
 2434SOL     vw 9736   1.209   2.473   7.030 -0.0319  0.5285  0.9098
 2435SOL     ow 9737   6.839   1.239   3.061 -0.1193 -0.0412 -0.4985
 2435SOL     hw 9738   6.924   1.244   3.017 -0.7214  2.7870 -1.5699
 2435SOL     hw 9739   6.779   1.287   3.003 -2.1178 -0.5767  0.9886
 2435SOL     vw 9740   6.842   1.246   3.047 -0.4623  0.2612 -0.4436
 2436SOL     ow 9741   0.743   5.178   6.912 -0.7057  0.0161  0.1695
 2436SOL     hw 9742   0.799   5.137   6.979  0.2947  2.1066  0.6842
 2436SOL     hw 9743   0.684   5.235   6.961 -0.8094  0.6239 -0.6477
 2436SOL     vw 9744   0.743   5.180   6.927 -0.5874  0.3722  0.1295
 2437SOL     ow 9745   0.963   4.996   2.560  0.1114 -0.1468 -0.3097
 2437SOL     hw 9746   1.058   4.997   2.551  0.0972  1.0201 -0.4813
 2437SOL     hw 9747   0.949   4.982   2.654  0.5174  1.8560  0.0944
 2437SOL     vw 9748   0.974   4.994   2.571  0.1631  0.2716 -0.2789
 2438SOL     ow 9749   1.454   1.001   6.796 -0.2863  0.6413 -0.1448
 2438SOL     hw 9750   1.492   0.915   6.812 -1.6430  0.1267  0.3705
 2438SOL     hw 9751   1.522   1.062   6.827  0.5960 -0.2245 -0.3096
 2438SOL     vw 9752   1.468   0.998   6.803 -0.3489  0.4591 -0.0985
 2439SOL     ow 9753   1.548   7.456   4.057 -0.5162  0.0933 -0.2469
 2439SOL     hw 9754   1.630   7.504   4.063 -0.3996 -0.2598  1.9470
 2439SOL     hw 9755   1.496   7.505   3.994  0.7005  1.3798 -0.3058
 2439SOL     vw 9756   1.552   7.469   4.050 -0.3402  0.2165  0.0346
 2440SOL     ow 9757   5.706   5.901   2.742 -0.2535  0.3246  0.1465
 2440SOL     hw 9758   5.690   5.823   2.795 -0.9726  0.6932  0.4872
 2440SOL     hw 9759   5.749   5.962   2.802  1.4815 -0.2583 -0.4656
 2440SOL     vw 9760   5.709   5.899   2.757 -0.1194  0.2961  0.1107
 2441SOL     ow 9761   1.741   0.804   2.574  0.1830 -0.2823 -0.6092
 2441SOL     hw 9762   1.808   0.855   2.529  0.7944 -1.5095 -1.1302
 2441SOL     hw 9763   1.727   0.728   2.518 -0.9708 -0.5134 -0.0309
 2441SOL     vw 9764   1.748   0.801   2.561  0.1115 -0.4747 -0.6018
 2442SOL     ow 9765   4.578   4.600   4.067 -0.2275 -0.0616 -0.5056
 2442SOL     hw 9766   4.483   4.602   4.062 -0.2364 -0.2457 -0.3923
 2442SOL     hw 9767   4.601   4.667   4.131 -0.3006 -0.3041 -0.2265
 2442SOL     vw 9768   4.569   4.609   4.075 -0.2382 -0.1180 -0.4542
 2443SOL     ow 9769   5.049   6.481   6.933  0.3815  0.0337  0.3419
 2443SOL     hw 9770   4.969   6.445   6.971 -0.4215  1.3357 -0.0419
 2443SOL     hw 9771   5.035   6.575   6.933  0.7896  0.1674 -2.1344
 2443SOL     vw 9772   5.036   6.488   6.938  0.3293  0.2229 -0.0355
 2444SOL     ow 9773   5.159   3.490   3.207  0.0209 -0.5034 -1.0401
 2444SOL     hw 9774   5.190   3.444   3.285 -3.3018  1.0296  1.3839
 2444SOL     hw 9775   5.181   3.582   3.223 -3.8439  0.3979  0.0212
 2444SOL     vw 9776   5.166   3.496   3.219 -0.9274 -0.1822 -0.5803
 2445SOL     ow 9777   1.165   1.155   5.695  0.7460 -0.2292 -0.4340
 2445SOL     hw 9778   1.096   1.089   5.684  0.4308  0.1768 -0.9378
 2445SOL     hw 9779   1.177   1.192   5.608  1.1275  0.1749 -0.2129
 2445SOL     vw 9780   1.157   1.151   5.682  0.7547 -0.1223 -0.4714
 2446SOL     ow 9781   6.644   0.748   5.629  0.2026 -0.1561 -0.1339
 2446SOL     hw 9782   6.639   0.819   5.566  0.7387  0.0172  0.0090
 2446SOL     hw 9783   6.694   0.679   5.585  2.0686  0.6139  0.6630
 2446SOL     vw 9784   6.650   0.748   5.615  0.5193 -0.0317 -0.0098
 2447SOL     ow 9785   7.380   4.811   5.637  0.4569  0.0163 -0.0498
 2447SOL     hw 9786   7.313   4.787   5.573 -0.5914  2.2108  0.1317
 2447SOL     hw 9787   7.460   4.772   5.604 -0.3125 -0.0026 -1.9915
 2447SOL     vw 9788   7.382   4.803   5.625  0.2170  0.3033 -0.2818
 2448SOL     ow 9789   5.240   6.939   2.536  0.2002  0.3429 -0.8953
 2448SOL     hw 9790   5.326   6.924   2.497 -0.1003 -0.1777 -1.3654
 2448SOL     hw 9791   5.179   6.937   2.462 -0.0643  2.2638 -0.7895
 2448SOL     vw 9792   5.243   6.937   2.521  0.1256  0.5276 -0.9434
 2449SOL     ow 9793   3.043   4.107   3.479  0.4552  0.2667 -0.1143
 2449SOL     hw 9794   2.987   4.030   3.492 -1.3479  1.5394 -0.0069
 2449SOL     hw 9795   3.068   4.134   3.568  1.1546 -0.2217 -0.1559
 2449SOL     vw 9796   3.039   4.100   3.493  0.3095  0.3700 -0.1056
 2450SOL     ow 9797   6.029   1.044   0.624 -0.7067 -0.0192  0.2368
 2450SOL     hw 9798   6.103   0.991   0.655  0.6210  1.7616  0.2759
 2450SOL     hw 9799   5.998   0.999   0.546  1.5968  0.1091 -0.8210
 2450SOL     vw 9800   6.034   1.031   0.618 -0.2277  0.2327  0.1024
 2451SOL     ow 9801   5.648   2.015   1.341 -0.3128  0.5955  0.3308
 2451SOL     hw 9802   5.592   2.061   1.403  0.2919 -0.7940  2.0009
 2451SOL     hw 9803   5.652   1.925   1.374 -0.4413 -0.3757 -2.0987
 2451SOL     vw 9804   5.641   2.009   1.353 -0.2501  0.2841  0.2307
 2452SOL     ow 9805   1.320   5.467   3.300 -0.1195 -0.1384 -0.5804
 2452SOL     hw 9806   1.316   5.398   3.234  0.1558 -2.2015  1.4313
 2452SOL     hw 9807   1.413   5.485   3.311  0.0116 -1.5102  0.8482
 2452SOL     vw 9808   1.332   5.460   3.293 -0.0659 -0.5918 -0.1265
 2453SOL     ow 9809   3.494   5.427   3.874 -0.4897 -0.5820  0.1612
 2453SOL     hw 9810   3.436   5.451   3.802  0.8939 -1.0518 -1.1699
 2453SOL     hw 9811   3.461   5.343   3.905 -1.2841 -0.2261  0.3028
 2453SOL     vw 9812   3.482   5.419   3.869 -0.4119 -0.5972  0.0043
 2454SOL     ow 9813   5.814   1.486   6.536  0.2067  0.1535  0.5256
 2454SOL     hw 9814   5.786   1.421   6.472  1.6211  1.9886 -2.1332
 2454SOL     hw 9815   5.747   1.554   6.532 -0.6596 -0.5166  2.4392
 2454SOL     vw 9816   5.801   1.487   6.527  0.2787  0.3071  0.4272
 2455SOL     ow 9817   1.458   4.612   6.564 -0.4498 -0.5410  0.8473
 2455SOL     hw 9818   1.513   4.591   6.488 -0.2879 -0.0582  0.8320
 2455SOL     hw 9819   1.387   4.665   6.529  0.8914  1.7320  1.3720
 2455SOL     vw 9820   1.456   4.616   6.549 -0.2515 -0.1776  0.9146
 2456SOL     ow 9821   7.502   1.302   4.086  0.0926 -0.4590 -0.0776
 2456SOL     hw 9822   7.430   1.258   4.041 -1.5121  1.3117  0.6286
 2456SOL     hw 9823   7.538   1.361   4.021  2.3448 -2.7328 -1.0716
 2456SOL     vw 9824   7.497   1.304   4.072  0.1781 -0.5253 -0.1154
 2457SOL     ow 9825   6.205   5.359   3.161  0.1237  0.3126  0.3929
 2457SOL     hw 9826   6.239   5.323   3.242  1.9497  0.3818 -0.3069
 2457SOL     hw 9827   6.236   5.450   3.159  0.7323  0.1013 -0.7012
 2457SOL     vw 9828   6.213   5.366   3.171  0.4451  0.2940  0.1564
 2458SOL     ow 9829   2.920   2.760   3.353 -0.1006  0.2594 -0.0601
 2458SOL     hw 9830   2.834   2.741   3.391 -1.2780 -0.5490 -2.8740
 2458SOL     hw 9831   2.952   2.836   3.403 -1.9408 -0.0616  1.7412
 2458SOL     vw 9832   2.913   2.767   3.365 -0.4988  0.1104 -0.1937
 2459SOL     ow 9833   1.471   0.178   2.973 -0.2943  0.1247  0.3575
 2459SOL     hw 9834   1.470   0.098   3.025  1.1122  1.2282  2.2170
 2459SOL     hw 9835   1.443   0.151   2.885 -1.3179 -2.0842  1.3037
 2459SOL     vw 9836   1.467   0.164   2.968 -0.2437 -0.0212  0.7279
 2460SOL     ow 9837   5.131   6.451   6.190  0.2366 -0.5273  1.0271
 2460SOL     hw 9838   5.108   6.375   6.244 -0.0326 -1.2786 -0.1025
 2460SOL     hw 9839   5.091   6.433   6.105  1.8122 -0.0411  0.1492
 2460SOL     vw 9840   5.123   6.439   6.186  0.4089 -0.5624  0.7622
 2461SOL     ow 9841   7.017   6.159   1.697 -0.6811  1.1783 -0.1589
 2461SOL     hw 9842   7.054   6.246   1.706  1.3707  0.1493  2.2887
 2461SOL     hw 9843   7.010   6.125   1.786 -1.2244 -1.2461 -1.0257
 2461SOL     vw 9844   7.021   6.166   1.710 -0.4823  0.7231  0.0496
 2462SOL     ow 9845   4.557   0.364   1.727 -0.0893 -0.1217 -0.5620
 2462SOL     hw 9846   4.481   0.330   1.681 -0.3532  0.4238 -0.5362
 2462SOL     hw 9847   4.521   0.421   1.794  0.3143 -0.4693 -0.0366
 2462SOL     vw 9848   4.543   0.367   1.730 -0.0708 -0.0955 -0.4892
 2463SOL     ow 9849   0.061   1.235   1.839  0.0535 -0.3560  0.2260
 2463SOL     hw 9850   0.111   1.316   1.851 -2.2782  1.1418  0.4321
 2463SOL     hw 9851   0.127   1.166   1.843  2.3858  1.5802 -1.6318
 2463SOL     vw 9852   0.077   1.237   1.841  0.0535  0.0971  0.0080
 2464SOL     ow 9853   7.176   4.244   6.015 -0.0432  0.4558  0.1418
 2464SOL     hw 9854   7.154   4.266   6.106  0.7271  2.3631 -0.0956
 2464SOL     hw 9855   7.174   4.328   5.969 -0.6481 -0.5195 -1.6748
 2464SOL     vw 9856   7.173   4.258   6.021 -0.0215  0.5786 -0.1290
 2465SOL     ow 9857   6.186   0.981   1.490 -0.6054 -0.8413  0.8961
 2465SOL     hw 9858   6.157   0.996   1.580 -3.5782 -1.9814  0.2609
 2465SOL     hw 9859   6.119   0.923   1.453  1.7377 -2.3105 -1.3900
 2465SOL     vw 9860   6.173   0.975   1.497 -0.6886 -1.1856  0.5107
 2466SOL     ow 9861   6.839   6.024   4.185  0.4435 -0.8233  0.1452
 2466SOL     hw 9862   6.758   6.064   4.217  0.3946 -0.8982  0.1160
 2466SOL     hw 9863   6.858   5.955   4.248  1.3121  0.1755  1.0181
 2466SOL     vw 9864   6.830   6.020   4.198  0.5515 -0.7012  0.2563
 2467SOL     ow 9865   2.335   0.785   1.345 -0.0834  0.5350 -0.4543
 2467SOL     hw 9866   2.322   0.775   1.439  0.8536 -1.1643 -0.4618
 2467SOL     hw 9867   2.247   0.786   1.308 -0.4730  1.6366  0.4507
 2467SOL     vw 9868   2.322   0.784   1.353 -0.0112  0.4561 -0.3359
 2468SOL     ow 9869   3.137   5.038   0.276  0.0279 -0.0682  0.4025
 2468SOL     hw 9870   3.043   5.022   0.279 -0.2728  1.4471 -0.0217
 2468SOL     hw 9871   3.176   4.953   0.295 -1.4130 -1.1092 -1.0103
 2468SOL     vw 9872   3.130   5.024   0.279 -0.2018 -0.0057  0.1601
 2469SOL     ow 9873   4.891   2.519   2.247 -0.1769  0.0168  0.1338
 2469SOL     hw 9874   4.858   2.586   2.306 -0.1434 -0.4794  0.7319
 2469SOL     hw 9875   4.814   2.467   2.223 -0.1126 -0.0849  0.1429
 2469SOL     vw 9876   4.877   2.521   2.251 -0.1638 -0.0621  0.2140
 2470SOL     ow 9877   2.067   3.033   3.029 -0.1069 -0.0664 -0.4343
 2470SOL     hw 9878   2.067   3.111   3.085  0.1704  0.8847 -1.7114
 2470SOL     hw 9879   2.143   3.045   2.972 -1.2415 -0.2372 -2.0440
 2470SOL     vw 9880   2.077   3.045   3.029 -0.2201  0.0365 -0.8153
 2471SOL     ow 9881   6.570   2.979   2.458 -0.2155  0.1494  0.1572
 2471SOL     hw 9882   6.515   2.935   2.522 -0.4619  1.0722  0.5924
 2471SOL     hw 9883   6.566   2.923   2.381 -0.2916 -0.7317  0.7881
 2471SOL     vw 9884   6.562   2.966   2.456 -0.2580  0.1549  0.2979
 2472SOL     ow 9885   6.867   3.732   1.011  0.5013  0.2818  0.3059
 2472SOL     hw 9886   6.929   3.682   1.064 -0.6782 -1.0011  0.5194
 2472SOL     hw 9887   6.892   3.823   1.024  3.2474 -0.2152 -0.7273
 2472SOL     vw 9888   6.879   3.737   1.020  0.7081  0.0470  0.1977
 2473SOL     ow 9889   6.228   6.369   3.115  0.3468 -0.5949  0.2571
 2473SOL     hw 9890   6.232   6.345   3.022  0.8230 -0.3171  0.2066
 2473SOL     hw 9891   6.234   6.464   3.116 -1.7096 -0.4155  0.4465
 2473SOL     vw 9892   6.229   6.378   3.103  0.1383 -0.5343  0.2754
 2474SOL     ow 9893   4.223   0.020   7.463 -0.1283 -0.7537 -0.4655
 2474SOL     hw 9894   4.129   0.015   7.447 -0.1503 -1.5342 -0.1137
 2474SOL     hw 9895   4.231   0.029   7.558  0.1669 -1.1776 -0.4468
 2474SOL     vw 9896   4.212   0.021   7.473 -0.0923 -0.9126 -0.4165
 2475SOL     ow 9897   6.798   4.194   5.257  0.2021 -0.3532  0.1108
 2475SOL     hw 9898   6.832   4.123   5.311 -0.3177 -0.6580  0.0455
 2475SOL     hw 9899   6.747   4.248   5.317 -0.8659 -1.0147 -0.1670
 2475SOL     vw 9900   6.796   4.192   5.272 -0.0076 -0.4809  0.0653
 2476SOL     ow 9901   1.901   7.097   0.573  0.3564  0.1038 -0.4851
 2476SOL     hw 9902   1.897   7.180   0.619  1.2740 -0.7395  1.2287
 2476SOL     hw 9903   1.948   7.116   0.492  0.1179  1.3317 -0.3455
 2476SOL     vw 9904   1.907   7.110   0.569  0.4459  0.1545 -0.2405
 2477SOL     ow 9905   0.823   5.285   6.624 -0.1730 -0.3487  0.0367
 2477SOL     hw 9906   0.903   5.301   6.575 -0.8432 -1.0928 -1.3755
 2477SOL     hw 9907   0.771   5.365   6.614 -0.4753 -0.6407 -0.8577
 2477SOL     vw 9908   0.826   5.298   6.616 -0.3014 -0.4854 -0.2677
 2478SOL     ow 9909   5.651   6.136   0.401  0.3658 -0.2529 -0.0659
 2478SOL     hw 9910   5.720   6.170   0.344  0.3426  1.0888  0.6523
 2478SOL     hw 9911   5.645   6.043   0.380  1.2831 -0.0576 -1.2713
 2478SOL     vw 9912   5.659   6.128   0.391  0.4840 -0.0503 -0.1301
 2479SOL     ow 9913   4.279   7.244   1.340 -0.3111  0.3356  0.1574
 2479SOL     hw 9914   4.240   7.180   1.281  1.8521  0.8401 -1.9768
 2479SOL     hw 9915   4.227   7.323   1.327  0.6038  0.6804 -1.8167
 2479SOL     vw 9916   4.267   7.246   1.330  0.0949  0.4475 -0.3846
 2480SOL     ow 9917   2.846   3.952   0.097  0.2259 -0.4699 -0.7728
 2480SOL     hw 9918   2.751   3.951   0.092  0.1669  0.5887 -0.1689
 2480SOL     hw 9919   2.868   3.879   0.155 -0.3150  0.1577  0.2459
 2480SOL     vw 9920   2.837   3.942   0.104  0.1469 -0.2476 -0.5587
 2481SOL     ow 9921   4.983   7.136   2.591 -0.7235  0.1969 -0.0061
 2481SOL     hw 9922   4.925   7.163   2.662 -1.6841 -2.0365  0.1097
 2481SOL     hw 9923   5.051   7.084   2.634 -0.8948 -0.5442 -0.6289
 2481SOL     vw 9924   4.985   7.133   2.606 -0.8729 -0.1955 -0.0728
 2482SOL     ow 9925   3.849   2.797   3.319 -0.5401 -0.0246  0.7474
 2482SOL     hw 9926   3.874   2.704   3.313  2.3386  0.6054  1.3900
 2482SOL     hw 9927   3.877   2.823   3.407  2.3911  2.3041 -0.6883
 2482SOL     vw 9928   3.856   2.788   3.330  0.2265  0.3657  0.6428
 2483SOL     ow 9929   4.569   4.078   1.083 -0.0208 -0.1183  0.1358
 2483SOL     hw 9930   4.536   3.999   1.126 -0.7859  0.1357  0.0206
 2483SOL     hw 9931   4.638   4.046   1.025 -1.3013 -0.8875 -1.0018
 2483SOL     vw 9932   4.574   4.063   1.081 -0.2906 -0.1862 -0.0295
 2484SOL     ow 9933   4.955   3.780   2.529 -0.0821 -0.1803 -0.0348
 2484SOL     hw 9934   4.898   3.703   2.536 -1.5373  0.5404 -2.6620
 2484SOL     hw 9935   4.895   3.854   2.520  1.2655  0.9066 -0.4212
 2484SOL     vw 9936   4.940   3.779   2.528 -0.0963  0.0582 -0.4324
 2485SOL     ow 9937   0.464   0.202   7.470 -0.0742  0.3981  0.8531
 2485SOL     hw 9938   0.445   0.115   7.503 -0.4561 -0.3764 -1.2478
 2485SOL     hw 9939   0.460   0.259   7.547  0.1462 -1.4082  2.2564
 2485SOL     vw 9940   0.461   0.198   7.484 -0.0955  0.0576  0.7613
 2486SOL     ow 9941   6.098   3.985   3.264 -0.0908  0.2211  0.1480
 2486SOL     hw 9942   6.142   3.939   3.335  0.5808  2.5883  1.3758
 2486SOL     hw 9943   6.167   4.002   3.200  0.5208  2.4216  1.2867
 2486SOL     vw 9944   6.113   3.981   3.265  0.0784  0.8239  0.4601
 2487SOL     ow 9945   5.209   0.285   3.573  0.2643 -0.7046 -0.5455
 2487SOL     hw 9946   5.254   0.204   3.549  1.6766  0.0308 -0.4984
 2487SOL     hw 9947   5.231   0.347   3.504  0.4795  0.0779  0.1999
 2487SOL     vw 9948   5.218   0.283   3.561  0.4787 -0.5043 -0.4408
 2488SOL     ow 9949   3.630   5.766   4.300  0.0330 -0.2715  0.0166
 2488SOL     hw 9950   3.636   5.761   4.395  4.1517  0.0856 -0.0419
 2488SOL     hw 9951   3.657   5.679   4.270  0.7026  0.1927 -0.7757
 2488SOL     vw 9952   3.634   5.754   4.309  0.6647 -0.1631 -0.0956
 2489SOL     ow 9953   0.902   7.317   3.899  0.0701 -0.2250  0.7350
 2489SOL     hw 9954   0.966   7.246   3.888  0.1916  0.1457 -1.4706
 2489SOL     hw 9955   0.821   7.281   3.863  0.1130  0.6905 -0.3309
 2489SOL     vw 9956   0.900   7.303   3.893  0.0918 -0.0551  0.3034
 2490SOL     ow 9957   4.500   6.722   4.328  0.3252  0.3261  0.6581
 2490SOL     hw 9958   4.506   6.669   4.408 -2.1149 -0.7876  0.2099
 2490SOL     hw 9959   4.543   6.668   4.261 -2.0209 -1.1839  0.2341
 2490SOL     vw 9960   4.506   6.708   4.330 -0.3059 -0.0203  0.5431
 2491SOL     ow 9961   0.782   6.012   4.184  1.0491 -0.7729  0.3684
 2491SOL     hw 9962   0.801   6.104   4.199  0.3740 -0.6119  0.2836
 2491SOL     hw 9963   0.852   5.965   4.230  0.8089 -0.2392  1.3146
 2491SOL     vw 9964   0.793   6.018   4.192  0.9283 -0.6814  0.4821
 2492SOL     ow 9965   5.839   0.506   1.240  0.3585  0.1592  0.0618
 2492SOL     hw 9966   5.759   0.461   1.210  0.2572 -0.1101  0.7253
 2492SOL     hw 9967   5.812   0.597   1.253 -0.2599 -0.2453  1.8177
 2492SOL     vw 9968   5.825   0.512   1.237  0.2635  0.0703  0.3811
 2493SOL     ow 9969   1.077   2.161   0.875 -0.0105  0.3516  0.2075
 2493SOL     hw 9970   1.009   2.216   0.835 -0.9879 -0.8104  0.2146
 2493SOL     hw 9971   1.141   2.147   0.804 -0.3384  0.5589 -0.1327
 2493SOL     vw 9972   1.076   2.166   0.860 -0.1827  0.2255  0.1635
 2494SOL     ow 9973   5.313   4.962   3.896 -0.3921  0.3284  0.4440
 2494SOL     hw 9974   5.259   4.954   3.818  0.9992 -0.5920 -0.4822
 2494SOL     hw 9975   5.355   5.047   3.888 -0.5380  0.3943  0.3859
 2494SOL     vw 9976   5.312   4.972   3.885 -0.2279  0.2153  0.3141
 2495SOL     ow 9977   3.734   1.535   2.225 -0.3096 -0.0060  0.4103
 2495SOL     hw 9978   3.809   1.513   2.170  0.1830 -0.2200  1.1544
 2495SOL     hw 9979   3.662   1.484   2.188 -0.2896  0.8088 -0.7985
 2495SOL     vw 9980   3.734   1.525   2.213 -0.2420  0.0734  0.3490
 2496SOL     ow 9981   0.682   6.831   5.062  0.6435  0.1951 -0.5938
 2496SOL     hw 9982   0.649   6.907   5.013  0.0071  0.2000 -0.1670
 2496SOL     hw 9983   0.620   6.821   5.134  0.9102 -0.5379 -0.4669
 2496SOL     vw 9984   0.669   6.840   5.065  0.5948  0.0989 -0.5209
 2497SOL     ow 9985   5.285   1.586   5.079 -0.5218 -0.2415 -0.2030
 2497SOL     hw 9986   5.322   1.498   5.087  1.1365  0.5170  1.0386
 2497SOL     hw 9987   5.206   1.584   5.132  0.0313 -0.7097  0.6221
 2497SOL     vw 9988   5.280   1.574   5.087 -0.2301 -0.2032  0.0699
 2498SOL     ow 9989   4.683   0.134   2.535 -0.0150 -0.2138 -0.3918
 2498SOL     hw 9990   4.764   0.146   2.485  0.6681 -0.4753  0.6309
 2498SOL     hw 9991   4.671   0.039   2.539 -0.7070 -0.1584 -1.0588
 2498SOL     vw 9992   4.692   0.123   2.529 -0.0162 -0.2410 -0.3449
 2499SOL     ow 9993   0.106   1.576   1.641 -0.4569  0.0713 -0.5695
 2499SOL     hw 9994   0.140   1.577   1.551  0.3800 -0.5601 -0.2796
 2499SOL     hw 9995   0.023   1.528   1.635 -0.3193 -0.1216 -0.9867
 2499SOL     vw 9996   0.100   1.570   1.628 -0.3283 -0.0374 -0.5863
 2500SOL     ow 9997   0.052   1.101   6.982  0.1312 -0.1882  1.1692
 2500SOL     hw 9998   0.058   1.012   6.947 -0.9517  0.4200 -0.6858
 2500SOL     hw 9999   0.049   1.089   7.077 -1.2076 -2.2076  0.9405
 2500SOL     vw10000   0.053   1.088   6.990 -0.1883 -0.3744  0.8943
 2501SOL     ow10001   1.432   6.311   3.481  0.0880  0.3595  0.1523
 2501SOL     hw10002   1.398   6.381   3.424 -4.5993 -1.3746  0.3790
 2501SOL     hw10003   1.460   6.357   3.560 -2.3308  2.1303  0.1003
 2501SOL     vw10004   1.431   6.326   3.484 -0.8495  0.3643  0.1752
 2502SOL     ow10005   3.263   0.299   0.164 -0.1867  0.4959 -0.1657
 2502SOL     hw10006   3.324   0.308   0.237 -0.5607  2.6280 -0.0382
 2502SOL     hw10007   3.309   0.244   0.101  0.4723 -0.7097  1.3237
 2502SOL     vw10008   3.277   0.293   0.165 -0.1489  0.6181  0.0476
 2503SOL     ow10009   2.080   6.957   5.584  0.2127  0.5832 -0.0138
 2503SOL     hw10010   2.054   6.903   5.509  0.7002 -1.0504  0.9459
 2503SOL     hw10011   2.168   6.988   5.562  0.0564  0.7424 -0.4321
 2503SOL     vw10012   2.088   6.954   5.571  0.2564  0.3886  0.0577
 2504SOL     ow10013   7.447   0.766   1.664 -0.4687 -0.4393 -0.0879
 2504SOL     hw10014   7.430   0.811   1.747 -0.1638  2.5087 -1.5168
 2504SOL     hw10015   7.536   0.733   1.673 -0.1570  0.5093  0.4928
 2504SOL     vw10016   7.456   0.767   1.676 -0.3874  0.0748 -0.1999
 2505SOL     ow10017   5.940   3.699   3.309  0.0827 -0.7811  0.0119
 2505SOL     hw10018   5.886   3.775   3.286  2.0061  1.9840  3.6075
 2505SOL     hw10019   6.010   3.698   3.243  0.3495  0.9806  0.2321
 2505SOL     vw10020   5.942   3.709   3.297  0.3715 -0.1838  0.5155
 2506SOL     ow10021   3.469   6.057   4.278  0.2855  0.7546 -0.5525
 2506SOL     hw10022   3.519   6.092   4.204 -0.0507 -0.1957 -1.2527
 2506SOL     hw10023   3.512   5.973   4.298 -0.4332  0.3879 -0.5268
 2506SOL     vw10024   3.481   6.050   4.271  0.1464  0.5808 -0.6416
 2507SOL     ow10025   6.848   3.035   3.664 -0.1648  0.0615 -0.6975
 2507SOL     hw10026   6.864   2.988   3.582  0.3616  0.9967 -1.1534
 2507SOL     hw10027   6.774   3.092   3.643  0.9962  1.5090 -1.0740
 2507SOL     vw10028   6.840   3.037   3.650  0.0577  0.3759 -0.8073
 2508SOL     ow10029   5.566   6.761   3.081  0.3522 -0.1024 -0.2425
 2508SOL     hw10030   5.509   6.696   3.041 -1.3419  0.4479  1.1670
 2508SOL     hw10031   5.632   6.779   3.014  0.1399 -2.2995 -1.1425
 2508SOL     vw10032   5.567   6.754   3.067  0.1004 -0.3195 -0.1752
 2509SOL     ow10033   3.929   3.330   3.546 -0.5025  0.0037  0.3240
 2509SOL     hw10034   3.869   3.256   3.532  1.3446 -1.5039  0.0384
 2509SOL     hw10035   3.898   3.370   3.627 -2.0970 -0.4998  0.0071
 2509SOL     vw10036   3.917   3.325   3.555 -0.4693 -0.2617  0.2446
 2510SOL     ow10037   6.961   3.364   5.437 -0.6372  0.0101  0.0483
 2510SOL     hw10038   6.874   3.401   5.425 -2.2628 -3.1022  1.0330
 2510SOL     hw10039   6.959   3.325   5.525  1.6489 -0.4314 -0.0086
 2510SOL     vw10040   6.950   3.364   5.447 -0.5503 -0.4588  0.1707
 2511SOL     ow10041   6.405   4.686   4.052  0.3454  0.1459  0.0988
 2511SOL     hw10042   6.330   4.630   4.075 -0.5822  0.9627 -0.8602
 2511SOL     hw10043   6.396   4.762   4.109  0.0087  0.5810 -0.5200
 2511SOL     vw10044   6.394   4.688   4.063  0.1786  0.3111 -0.1092
 2512SOL     ow10045   7.096   4.367   2.943  0.5093 -0.3456  0.3895
 2512SOL     hw10046   7.186   4.376   2.910  0.4943  0.2049  0.4865
 2512SOL     hw10047   7.091   4.430   3.015 -0.3888  0.6714 -0.5296
 2512SOL     vw10048   7.107   4.377   2.948  0.3889 -0.1390  0.2811
 2513SOL     ow10049   6.425   0.955   7.135 -0.1928 -1.0041 -0.0060
 2513SOL     hw10050   6.444   0.869   7.173  1.2564 -2.4085 -3.5433
 2513SOL     hw10051   6.330   0.963   7.143 -0.0987 -1.5231  2.9636
 2513SOL     vw10052   6.415   0.944   7.141  0.0110 -1.2578 -0.0808
 2514SOL     ow10053   5.030   5.968   5.516  0.5722  0.0720  0.3672
 2514SOL     hw10054   5.019   6.052   5.561  0.2829 -0.7133  1.8503
 2514SOL     hw10055   5.002   5.903   5.581 -0.1759 -1.1218 -1.1045
 2514SOL     vw10056   5.025   5.971   5.531  0.4356 -0.1888  0.3686
 2515SOL     ow10057   6.456   0.212   2.276  0.0463  0.0833  0.0461
 2515SOL     hw10058   6.457   0.247   2.187 -0.8266  0.3994  0.1521
 2515SOL     hw10059   6.407   0.277   2.327 -0.6789 -0.7604  0.4610
 2515SOL     vw10060   6.449   0.225   2.271 -0.1647  0.0137  0.1148
 2516SOL     ow10061   2.713   7.199   3.780 -0.0436  0.0991  0.6909
 2516SOL     hw10062   2.677   7.270   3.727 -1.6845 -1.4086 -0.3305
 2516SOL     hw10063   2.640   7.138   3.792  0.8879 -0.7000  2.8442
 2516SOL     vw10064   2.699   7.200   3.774 -0.1371 -0.2055  0.8403
 2517SOL     ow10065   1.898   5.543   4.222  0.1986  0.1652  0.1055
 2517SOL     hw10066   1.958   5.489   4.170 -0.8452 -1.1995  0.2558
 2517SOL     hw10067   1.886   5.622   4.169  2.3947  0.6737  0.2568
 2517SOL     vw10068   1.904   5.546   4.208  0.3506  0.0525  0.1452
 2518SOL     ow10069   6.947   6.277   4.049 -0.4506  0.1707 -0.1668
 2518SOL     hw10070   6.928   6.226   3.971 -1.8486  1.2941 -0.6225
 2518SOL     hw10071   6.993   6.355   4.017  0.8581 -0.3457  0.4015
 2518SOL     vw10072   6.951   6.281   4.035 -0.4623  0.2506 -0.1521
 2519SOL     ow10073   3.608   6.973   2.288  0.1492  0.3817 -0.9127
 2519SOL     hw10074   3.556   6.893   2.276  0.1345 -0.8878  4.8854
 2519SOL     hw10075   3.546   7.044   2.271 -1.4192 -0.9454 -0.9890
 2519SOL     vw10076   3.593   6.972   2.284 -0.0596  0.0393 -0.1577
 2520SOL     ow10077   5.971   4.161   3.026 -0.3119  0.2738 -0.2413
 2520SOL     hw10078   6.038   4.158   3.094 -0.8070 -0.2160  0.2377
 2520SOL     hw10079   5.905   4.221   3.059  0.5062  1.8154 -1.3123
 2520SOL     vw10080   5.971   4.168   3.039 -0.2694  0.4125 -0.3194
 2521SOL     ow10081   4.764   6.287   6.007 -0.3217  0.2882  0.4185
 2521SOL     hw10082   4.711   6.365   6.027 -1.2716  0.0485 -1.0618
 2521SOL     hw10083   4.703   6.214   6.019 -0.2676 -0.0117 -0.9954
 2521SOL     vw10084   4.749   6.288   6.012 -0.4399  0.2170  0.0367
 2522SOL     ow10085   1.954   6.316   1.615  0.0282 -0.0201 -0.1682
 2522SOL     hw10086   2.016   6.260   1.661  1.9119 -0.3078 -2.8288
 2522SOL     hw10087   1.948   6.395   1.670  0.2894 -1.2299  1.6886
 2522SOL     vw10088   1.961   6.319   1.629  0.3111 -0.2179 -0.2742
 2523SOL     ow10089   1.058   6.021   5.655  0.2041 -0.2235 -0.3026
 2523SOL     hw10090   1.035   5.958   5.587 -0.5791  0.5743 -0.8055
 2523SOL     hw10091   1.102   6.091   5.608 -0.9145  0.6423 -0.1213
 2523SOL     vw10092   1.060   6.022   5.640 -0.0468 -0.0038 -0.3450
 2524SOL     ow10093   6.996   3.181   5.641 -0.1098  0.2812  0.0250
 2524SOL     hw10094   6.944   3.102   5.652  1.1804 -0.4304  1.1805
 2524SOL     hw10095   7.049   3.187   5.720  0.5452  1.7608 -0.4850
 2524SOL     vw10096   6.996   3.172   5.653  0.1469  0.3827  0.1104
 2525SOL     ow10097   5.058   2.451   3.703 -0.1538  0.2475  0.4160
 2525SOL     hw10098   5.070   2.507   3.626 -2.4126 -0.1196 -0.2737
 2525SOL     hw10099   4.968   2.467   3.730 -0.5729 -2.3148  0.7748
 2525SOL     vw10100   5.048   2.460   3.696 -0.5071 -0.1390  0.3724
 2526SOL     ow10101   3.899   5.930   1.727 -0.1393  0.2926 -0.1990
 2526SOL     hw10102   3.943   5.969   1.651  0.5430 -1.0688 -0.5380
 2526SOL     hw10103   3.824   5.986   1.742  0.5995  1.5196 -0.8801
 2526SOL     vw10104   3.895   5.943   1.719  0.0483  0.2749 -0.3337
 2527SOL     ow10105   5.992   6.445   3.609  0.5594 -0.3030  0.0447
 2527SOL     hw10106   5.990   6.352   3.588  0.1959 -0.2341 -0.2227
 2527SOL     hw10107   5.926   6.485   3.553  0.7409  0.1251  0.1235
 2527SOL     vw10108   5.983   6.438   3.599  0.5352 -0.2372  0.0198
 2528SOL     ow10109   6.442   0.630   3.257 -0.5408  0.1002 -0.1780
 2528SOL     hw10110   6.371   0.619   3.320 -0.8243  0.0230 -0.5059
 2528SOL     hw10111   6.478   0.542   3.245  0.1197  0.2571  0.5667
 2528SOL     vw10112   6.437   0.617   3.264 -0.4909  0.1107 -0.1229
 2529SOL     ow10113   2.704   5.406   2.313 -0.8290 -0.2850 -0.7800
 2529SOL     hw10114   2.645   5.458   2.259 -1.5830 -2.0749 -1.7559
 2529SOL     hw10115   2.752   5.471   2.365 -2.2871  1.3147 -1.3336
 2529SOL     vw10116   2.703   5.422   2.313 -1.1208 -0.3099 -0.9818
 2530SOL     ow10117   3.106   0.637   2.022 -0.5228  0.2003  0.3712
 2530SOL     hw10118   3.054   0.663   1.946  0.5434  0.6880 -0.2211
 2530SOL     hw10119   3.195   0.667   2.001  0.0394 -0.7745  1.2566
 2530SOL     vw10120   3.111   0.644   2.009 -0.3079  0.1360  0.4098
 2531SOL     ow10121   3.908   4.244   2.236 -0.1714 -0.4589 -0.0409
 2531SOL     hw10122   3.919   4.330   2.195 -2.7647 -0.4158 -0.8312
 2531SOL     hw10123   3.899   4.264   2.330  1.8504 -0.1892  0.1503
 2531SOL     vw10124   3.908   4.258   2.243 -0.2469 -0.4175 -0.1199
 2532SOL     ow10125   2.420   2.202   5.102  0.3683 -0.3765  0.0203
 2532SOL     hw10126   2.369   2.267   5.150 -0.9785 -1.3008 -0.0963
 2532SOL     hw10127   2.458   2.146   5.169  2.5877  1.2111  0.1903
 2532SOL     vw10128   2.418   2.203   5.117  0.4833 -0.2890  0.0274
 2533SOL     ow10129   3.006   3.734   5.983 -0.1897  0.0106  0.4879
 2533SOL     hw10130   3.087   3.687   5.961 -0.8505 -0.6177 -0.7019
 2533SOL     hw10131   3.027   3.826   5.965  0.5526 -0.0304  1.1007
 2533SOL     vw10132   3.020   3.740   5.977 -0.1789 -0.0776  0.4120
 2534SOL     ow10133   1.275   6.265   4.342 -0.4687  0.0224  0.0115
 2534SOL     hw10134   1.207   6.281   4.407  0.9889 -0.3774  1.6943
 2534SOL     hw10135   1.312   6.180   4.366  0.7385  0.3113 -0.7542
 2534SOL     vw10136   1.271   6.256   4.354 -0.1172  0.0079  0.1326
 2535SOL     ow10137   2.463   2.943   3.077  0.1768 -0.3918  0.4081
 2535SOL     hw10138   2.412   2.966   3.000  0.8069 -1.1973 -0.2682
 2535SOL     hw10139   2.551   2.974   3.057  0.2106 -0.0665  1.0598
 2535SOL     vw10140   2.468   2.950   3.064  0.2643 -0.4551  0.4047
 2536SOL     ow10141   3.548   5.112   1.560 -0.3693  0.3025 -0.0107
 2536SOL     hw10142   3.574   5.050   1.628 -0.4922  1.9482  1.6045
 2536SOL     hw10143   3.629   5.155   1.534 -0.4570  0.3598 -0.1897
 2536SOL     vw10144   3.562   5.110   1.566 -0.3971  0.5271  0.1788
 2537SOL     ow10145   2.082   5.474   5.887 -0.3205  0.3743 -0.0768
 2537SOL     hw10146   2.016   5.543   5.884 -0.6565  0.1024  0.7780
 2537SOL     hw10147   2.035   5.397   5.920  0.0424 -0.2788 -1.0390
 2537SOL     vw10148   2.067   5.473   5.891 -0.3170  0.2520 -0.0908
 2538SOL     ow10149   2.747   2.172   0.209 -0.2612  0.0544  0.2962
 2538SOL     hw10150   2.749   2.143   0.118 -0.1874  2.6858 -0.6264
 2538SOL     hw10151   2.686   2.111   0.252  1.3033 -2.5665 -0.9257
 2538SOL     vw10152   2.739   2.160   0.203 -0.0451  0.0557  0.0133
 2539SOL     ow10153   1.493   6.817   6.002  1.0019  0.1013  0.2544
 2539SOL     hw10154   1.542   6.740   6.031  0.5111 -0.3131  0.0008
 2539SOL     hw10155   1.414   6.781   5.960  0.6378  0.7448  0.3692
 2539SOL     vw10156   1.489   6.802   6.000  0.8891  0.1316  0.2363
 2540SOL     ow10157   7.343   6.960   3.537  0.1354  0.0740 -0.2662
 2540SOL     hw10158   7.338   6.983   3.629  0.2788 -0.8064 -0.0250
 2540SOL     hw10159   7.306   7.035   3.491 -1.5362 -0.1531  0.6093
 2540SOL     vw10160   7.337   6.973   3.543 -0.0660 -0.0720 -0.1189
 2541SOL     ow10161   4.351   0.643   0.255  0.1098  0.4716 -0.1341
 2541SOL     hw10162   4.412   0.615   0.187 -0.5037  1.8519 -1.3111
 2541SOL     hw10163   4.405   0.659   0.332  1.1172  0.8685 -0.9102
 2541SOL     vw10164   4.366   0.641   0.256  0.1614  0.7060 -0.3918
 2542SOL     ow10165   2.268   2.719   0.900 -0.6393 -0.4820 -0.1951
 2542SOL     hw10166   2.347   2.767   0.875 -0.3675 -0.2463  1.0700
 2542SOL     hw10167   2.280   2.698   0.993 -1.8541 -0.8506 -0.0981
 2542SOL     vw10168   2.280   2.723   0.909 -0.7637 -0.4996 -0.0154
 2543SOL     ow10169   1.837   7.003   4.227 -0.0789 -0.2007 -0.0170
 2543SOL     hw10170   1.884   6.920   4.228 -1.5476 -1.0653  0.1736
 2543SOL     hw10171   1.809   7.015   4.318  0.7932  0.9208  0.1250
 2543SOL     vw10172   1.840   6.994   4.239 -0.1576 -0.1671  0.0267
 2544SOL     ow10173   7.268   4.157   3.541 -0.0066  0.2746 -0.4233
 2544SOL     hw10174   7.335   4.112   3.489  0.2054  1.4983 -1.2665
 2544SOL     hw10175   7.231   4.089   3.597  0.4587 -0.8824 -1.4664
 2544SOL     vw10176   7.272   4.142   3.541  0.0830  0.2832 -0.6722
 2545SOL     ow10177   6.159   4.955   2.912 -0.5146 -0.3200 -0.3356
 2545SOL     hw10178   6.084   4.975   2.857 -0.7060  0.5844  0.2287
 2545SOL     hw10179   6.194   4.873   2.877  0.1832  0.8773 -2.6364
 2545SOL     vw10180   6.154   4.947   2.900 -0.4480 -0.0429 -0.5648
 2546SOL     ow10181   0.320   1.715   3.925  0.1600  0.2833  0.3388
 2546SOL     hw10182   0.335   1.628   3.888  0.4672  0.9303 -1.1471
 2546SOL     hw10183   0.408   1.752   3.935 -0.0303  1.2192 -1.1335
 2546SOL     vw10184   0.334   1.709   3.922  0.1754  0.4921 -0.0516
 2547SOL     ow10185   4.524   6.597   1.952  0.3368 -0.1601 -0.0437
 2547SOL     hw10186   4.553   6.648   2.028 -0.0153  0.3969 -0.2780
 2547SOL     hw10187   4.581   6.520   1.952  1.3376  0.5596 -0.0813
 2547SOL     vw10188   4.536   6.594   1.962  0.4222  0.0086 -0.0795
 2548SOL     ow10189   0.663   6.133   3.951 -0.7023  0.2139  0.3985
 2548SOL     hw10190   0.732   6.087   3.903 -2.5456 -0.9974 -1.3018
 2548SOL     hw10191   0.700   6.218   3.973  1.2733 -0.3649 -0.5023
 2548SOL     vw10192   0.677   6.138   3.947 -0.6848 -0.0222  0.0553
 2549SOL     ow10193   1.551   5.956   4.134 -0.1867  0.1775 -0.5523
 2549SOL     hw10194   1.483   5.972   4.200 -0.2719 -0.8888 -0.3515
 2549SOL     hw10195   1.534   6.020   4.065  0.2783  1.7457  0.7185
 2549SOL     vw10196   1.540   5.966   4.134 -0.1366  0.2437 -0.3581
 2550SOL     ow10197   1.987   3.700   5.721  0.7904 -0.0169 -0.6730
 2550SOL     hw10198   1.914   3.761   5.708  1.7478  1.3085 -0.0694
 2550SOL     hw10199   2.031   3.732   5.800  0.0886 -2.7827  0.9732
 2550SOL     vw10200   1.983   3.712   5.729  0.8242 -0.2068 -0.3760
 2551SOL     ow10201   2.565   0.397   3.677  0.4164  0.1956  0.0345
 2551SOL     hw10202   2.485   0.440   3.707 -0.7925 -0.4932 -1.9944
 2551SOL     hw10203   2.559   0.308   3.711  2.6018  1.2185  3.6726
 2551SOL     vw10204   2.553   0.391   3.685  0.5454  0.2396  0.2468
 2552SOL     ow10205   6.057   4.566   2.993 -0.0471  0.7050  0.0885
 2552SOL     hw10206   6.104   4.532   3.069 -0.8894  2.3237  1.3921
 2552SOL     hw10207   5.977   4.605   3.029 -0.2087  1.9961 -1.5497
 2552SOL     vw10208   6.053   4.567   3.007 -0.1793  1.0891  0.0443
 2553SOL     ow10209   3.127   5.582   1.019  0.7034  0.2581  0.2950
 2553SOL     hw10210   3.150   5.595   0.927  1.0659  0.0792  0.3615
 2553SOL     hw10211   3.034   5.605   1.023  0.9598  1.3983  0.1167
 2553SOL     vw10212   3.118   5.587   1.007  0.7850  0.3848  0.2803
 2554SOL     ow10213   5.551   5.143   4.890  0.0920  0.1012  0.3358
 2554SOL     hw10214   5.506   5.068   4.929 -1.2305  1.1070  0.8168
 2554SOL     hw10215   5.506   5.220   4.926  1.9929  1.1785  0.5824
 2554SOL     vw10216   5.539   5.143   4.900  0.1681  0.3762  0.4320
 2555SOL     ow10217   2.671   7.011   3.584 -0.5511  0.1268  0.8132
 2555SOL     hw10218   2.585   6.974   3.602 -0.3990 -0.4538  0.3503
 2555SOL     hw10219   2.656   7.073   3.513 -0.1933 -1.7474 -0.9500
 2555SOL     vw10220   2.658   7.014   3.577 -0.4840 -0.1969  0.5196
 2556SOL     ow10221   2.955   5.412   1.420  0.2155 -0.2448  0.2552
 2556SOL     hw10222   2.896   5.399   1.346  1.2017  0.4557 -0.6838
 2556SOL     hw10223   2.902   5.456   1.486 -0.0069  1.6479 -1.0917
 2556SOL     vw10224   2.940   5.416   1.419  0.3163  0.0970 -0.0464
 2557SOL     ow10225   5.907   7.110   1.451  0.0757  0.4978  0.2110
 2557SOL     hw10226   5.979   7.157   1.408  0.6891 -1.0067 -0.4995
 2557SOL     hw10227   5.867   7.058   1.381 -0.4304 -0.1970  0.9950
 2557SOL     vw10228   5.911   7.109   1.436  0.0899  0.2074  0.2207
 2558SOL     ow10229   2.831   0.023   6.123  0.1006  0.4289  0.5866
 2558SOL     hw10230   2.901  -0.007   6.181  2.0445  2.2611 -0.6504
 2558SOL     hw10231   2.773   0.074   6.179  1.6837  1.7765  1.0969
 2558SOL     vw10232   2.833   0.026   6.138  0.5659  0.8483  0.4907
 2559SOL     ow10233   0.217   1.437   1.859 -0.3830 -0.1110  0.4948
 2559SOL     hw10234   0.174   1.507   1.908 -0.1911  0.4548 -0.1376
 2559SOL     hw10235   0.212   1.465   1.768 -0.5196 -1.0402  0.2081
 2559SOL     vw10236   0.210   1.450   1.854 -0.3757 -0.1590  0.3736
 2560SOL     ow10237   4.589   6.564   7.022  0.7366  0.1294 -0.4821
 2560SOL     hw10238   4.534   6.626   6.975  0.0708  0.9702  1.2974
 2560SOL     hw10239   4.529   6.494   7.049  0.8949  0.1623 -0.0411
 2560SOL     vw10240   4.574   6.563   7.020  0.6700  0.2449 -0.1891
 2561SOL     ow10241   2.534   0.045   7.289 -0.4818  0.3661 -0.4795
 2561SOL     hw10242   2.562  -0.008   7.363 -0.5948 -2.3937 -2.2470
 2561SOL     hw10243   2.439   0.055   7.300 -0.3190  1.0895  0.3619
 2561SOL     vw10244   2.525   0.040   7.300 -0.4754  0.0974 -0.6018
 2562SOL     ow10245   4.977   4.071   0.534  0.3710 -0.1340 -0.4012
 2562SOL     hw10246   5.063   4.035   0.556  1.2547  1.4477 -1.1351
 2562SOL     hw10247   4.994   4.162   0.509 -1.3881 -0.0784 -1.5673
 2562SOL     vw10248   4.991   4.078   0.534  0.2556  0.0820 -0.6519
 2563SOL     ow10249   5.220   3.125   2.948  0.2834  0.6992  0.1756
 2563SOL     hw10250   5.142   3.172   2.977 -0.5763 -0.2832 -0.4507
 2563SOL     hw10251   5.194   3.033   2.952  1.6332  0.3165  0.5595
 2563SOL     vw10252   5.206   3.119   2.952  0.3481  0.5192  0.1436
 2564SOL     ow10253   4.512   6.637   0.936 -0.4360 -0.2476  0.1995
 2564SOL     hw10254   4.588   6.627   0.993  0.4434 -0.9542 -1.0382
 2564SOL     hw10255   4.460   6.706   0.977  0.4233 -0.3684  1.5502
 2564SOL     vw10256   4.515   6.645   0.949 -0.2065 -0.3572  0.2144
 2565SOL     ow10257   3.557   1.090   6.701  0.2860 -0.1024 -0.7454
 2565SOL     hw10258   3.480   1.093   6.645 -0.3334  1.6660  0.1322
 2565SOL     hw10259   3.527   1.047   6.781  0.1807  0.5995 -0.3976
 2565SOL     vw10260   3.543   1.084   6.704  0.1903  0.2235 -0.5841
 2566SOL     ow10261   3.621   3.589   4.722 -0.3462  1.5448  0.1243
 2566SOL     hw10262   3.700   3.550   4.759  0.0766 -0.6131 -2.7169
 2566SOL     hw10263   3.551   3.561   4.781  0.2912 -1.7072 -0.4951
 2566SOL     vw10264   3.622   3.580   4.735 -0.2062  0.8309 -0.3321
 2567SOL     ow10265   6.750   4.862   0.278  0.3844 -0.2859 -0.3007
 2567SOL     hw10266   6.727   4.770   0.285  0.6719 -0.3058  0.4081
 2567SOL     hw10267   6.714   4.903   0.356 -0.9847  0.4847 -1.2832
 2567SOL     vw10268   6.743   4.855   0.289  0.2415 -0.1869 -0.3368
 2568SOL     ow10269   2.180   1.267   2.091 -0.3223 -0.2402 -0.5098
 2568SOL     hw10270   2.247   1.335   2.101 -1.9423  1.4635 -0.7597
 2568SOL     hw10271   2.154   1.273   1.999 -1.8697  0.1792 -0.0684
 2568SOL     vw10272   2.186   1.277   2.080 -0.7402  0.0399 -0.4845
 2569SOL     ow10273   5.120   4.346   3.011  0.0881  0.6297 -0.4110
 2569SOL     hw10274   5.119   4.441   3.016 -1.3238  0.6173  0.2214
 2569SOL     hw10275   5.028   4.321   3.023  0.4169 -0.8054 -0.6879
 2569SOL     vw10276   5.108   4.355   3.013 -0.0548  0.4385 -0.3642
 2570SOL     ow10277   2.996   5.707   6.030  0.3965  0.3117  0.1466
 2570SOL     hw10278   3.015   5.665   5.946  1.2734 -0.6202  0.8000
 2570SOL     hw10279   2.919   5.761   6.012  0.5782  0.1454 -1.2622
 2570SOL     vw10280   2.988   5.709   6.016  0.5363  0.1669  0.0467
 2571SOL     ow10281   6.013   6.593   4.610 -0.0250 -0.3647 -0.0802
 2571SOL     hw10282   6.103   6.625   4.609  0.7609 -2.4005 -0.6097
 2571SOL     hw10283   6.014   6.519   4.671 -0.9749 -1.2772 -1.1072
 2571SOL     vw10284   6.025   6.587   4.618 -0.0467 -0.7539 -0.2856
 2572SOL     ow10285   2.044   4.999   5.426 -0.9558  0.1932  0.1606
 2572SOL     hw10286   1.956   5.028   5.404 -0.8574 -0.1646 -0.7361
 2572SOL     hw10287   2.033   4.908   5.456 -0.9286  0.2525  0.3536
 2572SOL     vw10288   2.031   4.991   5.427 -0.9392  0.1538  0.0679
 2573SOL     ow10289   1.126   5.543   6.353 -0.4208 -0.4604 -0.3136
 2573SOL     hw10290   1.066   5.533   6.279  1.0369  0.6847 -1.7227
 2573SOL     hw10291   1.090   5.485   6.421 -1.7075 -1.6963 -1.9670
 2573SOL     vw10292   1.113   5.534   6.352 -0.3983 -0.4723 -0.7176
 2574SOL     ow10293   3.336   5.267   1.618 -0.0378 -0.4402 -0.4397
 2574SOL     hw10294   3.296   5.254   1.704  1.3402 -0.4177  0.2226
 2574SOL     hw10295   3.402   5.198   1.612 -1.8578 -2.1888 -2.6238
 2574SOL     vw10296   3.339   5.256   1.628 -0.0958 -0.6680 -0.6405
 2575SOL     ow10297   5.754   7.192   4.452 -0.1087  0.0287 -0.0042
 2575SOL     hw10298   5.692   7.265   4.450 -0.4029 -0.2238 -0.4770
 2575SOL     hw10299   5.705   7.118   4.415  0.7548  0.0572 -1.2770
 2575SOL     vw10300   5.739   7.192   4.446 -0.0336 -0.0010 -0.2346
 2576SOL     ow10301   2.540   4.979   3.350  0.7057 -0.3055 -0.4516
 2576SOL     hw10302   2.617   4.929   3.377  0.2939 -0.8416 -0.2601
 2576SOL     hw10303   2.557   5.068   3.380  1.3868 -0.3534 -0.6769
 2576SOL     vw10304   2.552   4.984   3.357  0.7411 -0.3827 -0.4561
 2577SOL     ow10305   2.950   6.520   0.558 -0.2511 -0.0270 -0.0835
 2577SOL     hw10306   3.025   6.528   0.617 -1.6804  0.1342  1.8145
 2577SOL     hw10307   2.877   6.495   0.615 -2.2015  2.2271 -1.3949
 2577SOL     vw10308   2.950   6.518   0.574 -0.6969  0.2918 -0.0061
 2578SOL     ow10309   3.675   6.745   6.916  0.1674  0.0851  0.4144
 2578SOL     hw10310   3.734   6.791   6.975 -0.0244 -1.8871  2.2794
 2578SOL     hw10311   3.716   6.660   6.902 -1.1800 -0.5177 -0.0416
 2578SOL     vw10312   3.688   6.740   6.922 -0.0355 -0.2549  0.6003
 2579SOL     ow10313   0.785   4.837   4.848  0.0598 -0.0341  0.0267
 2579SOL     hw10314   0.750   4.794   4.769 -1.5387  0.1137  0.6274
 2579SOL     hw10315   0.717   4.898   4.875  1.3171  1.2039  0.5530
 2579SOL     vw10316   0.771   4.839   4.841  0.0148  0.1485  0.1752
 2580SOL     ow10317   1.979   5.257   5.966 -0.5249 -0.2909  0.2679
 2580SOL     hw10318   1.885   5.273   5.969 -0.4147  0.2468  1.1052
 2580SOL     hw10319   1.992   5.206   5.886 -1.6525 -1.3100  0.7090
 2580SOL     vw10320   1.968   5.252   5.956 -0.6592 -0.3548  0.4365
 2581SOL     ow10321   1.254   6.259   6.131 -0.3482 -0.0558 -0.4102
 2581SOL     hw10322   1.211   6.254   6.046  1.3073  2.0309 -1.4515
 2581SOL     hw10323   1.221   6.340   6.170  0.4317  0.0597  0.0274
 2581SOL     vw10324   1.244   6.269   6.125 -0.0269  0.2346 -0.4897
 2582SOL     ow10325   1.830   2.671   5.485  0.0697  0.7293  0.5713
 2582SOL     hw10326   1.925   2.677   5.495 -0.1725  3.1660  1.9697
 2582SOL     hw10327   1.812   2.577   5.483  2.4652  0.2184  0.4545
 2582SOL     vw10328   1.840   2.659   5.486  0.3537  0.9835  0.7403
 2583SOL     ow10329   4.463   7.431   4.470 -0.2805  0.1893 -0.4535
 2583SOL     hw10330   4.464   7.519   4.507 -1.1878 -0.2024  0.5576
 2583SOL     hw10331   4.430   7.376   4.541 -0.1370 -0.8985 -1.2105
 2583SOL     vw10332   4.459   7.435   4.484 -0.3815 -0.0057 -0.4201
 2584SOL     ow10333   2.838   3.662   2.173 -0.2865  0.1196 -0.2907
 2584SOL     hw10334   2.747   3.640   2.192  0.3119 -0.4839  2.2415
 2584SOL     hw10335   2.837   3.757   2.161 -1.3152  0.0564 -0.7940
 2584SOL     vw10336   2.826   3.672   2.174 -0.3433  0.0316 -0.0231
 2585SOL     ow10337   2.299   7.217   2.551  0.1538 -0.0277 -0.2752
 2585SOL     hw10338   2.365   7.276   2.514 -0.1156  0.0269 -0.6787
 2585SOL     hw10339   2.230   7.275   2.584  0.2359 -0.0900  0.0113
 2585SOL     vw10340   2.298   7.232   2.551  0.1291 -0.0286 -0.2905
 2586SOL     ow10341   2.461   6.907   1.917 -0.1105  0.4246  0.5536
 2586SOL     hw10342   2.550   6.886   1.889  1.5027  2.8595  3.3380
 2586SOL     hw10343   2.434   6.832   1.971 -0.1603 -0.6583 -0.8875
 2586SOL     vw10344   2.469   6.894   1.920  0.0957  0.6030  0.7309
 2587SOL     ow10345   2.057   4.447   1.655 -0.1507 -0.1199  0.2291
 2587SOL     hw10346   1.988   4.468   1.718 -0.5932  0.8241 -0.5339
 2587SOL     hw10347   2.018   4.381   1.598 -0.1153 -0.2241  0.3256
 2587SOL     vw10348   2.043   4.441   1.656 -0.2043 -0.0091  0.1412
 2588SOL     ow10349   2.631   7.410   2.511  0.6948 -0.0062 -0.5570
 2588SOL     hw10350   2.700   7.378   2.569 -0.7599 -0.6854  0.8379
 2588SOL     hw10351   2.582   7.472   2.564 -1.0708 -1.1357 -0.8039
 2588SOL     vw10352   2.634   7.414   2.525  0.2699 -0.2449 -0.4055
 2589SOL     ow10353   0.985   0.781   2.124 -0.1795  0.0690  0.2459
 2589SOL     hw10354   0.910   0.733   2.160  0.0522  0.0716  0.7346
 2589SOL     hw10355   1.031   0.717   2.070 -0.4913  0.0476  0.0033
 2589SOL     vw10356   0.981   0.766   2.121 -0.1900  0.0665  0.2781
 2590SOL     ow10357   2.240   6.355   6.793 -0.0762  0.6782 -0.0768
 2590SOL     hw10358   2.170   6.337   6.855  0.1141 -1.0150 -0.3132
 2590SOL     hw10359   2.196   6.393   6.717 -0.5802  0.7200  0.2325
 2590SOL     vw10360   2.225   6.358   6.791 -0.1175  0.4601 -0.0672
 2591SOL     ow10361   1.771   3.158   4.765  0.2964 -0.5233  0.4345
 2591SOL     hw10362   1.803   3.154   4.855 -2.1351 -1.2908  1.3487
 2591SOL     hw10363   1.719   3.078   4.755  1.2271 -0.9039 -1.9834
 2591SOL     vw10364   1.769   3.147   4.776  0.0983 -0.6748  0.2363
 2592SOL     ow10365   5.487   6.349   0.568  0.4850  0.1849 -0.3233
 2592SOL     hw10366   5.575   6.319   0.591  0.5013  0.0277 -0.5757
 2592SOL     hw10367   5.483   6.439   0.599  0.3006 -0.1990  0.7978
 2592SOL     vw10368   5.498   6.357   0.575  0.4628  0.1137 -0.2087
 2593SOL     ow10369   6.591   2.594   2.473 -0.2760  0.0666 -0.1360
 2593SOL     hw10370   6.579   2.531   2.402 -0.5364 -1.2518  1.0384
 2593SOL     hw10371   6.509   2.643   2.477 -0.2448  0.1738 -0.7574
 2593SOL     vw10372   6.579   2.593   2.464 -0.3064 -0.0930 -0.0629
 2594SOL     ow10373   2.561   5.845   1.251 -0.3349  0.2144  0.1298
 2594SOL     hw10374   2.466   5.832   1.257 -0.4673  0.8906 -0.4326
 2594SOL     hw10375   2.585   5.807   1.166 -0.3523  1.4478 -0.4367
 2594SOL     vw10376   2.551   5.838   1.241 -0.3545  0.4663 -0.0192
 2595SOL     ow10377   0.726   4.093   6.650 -0.6050  0.2371  0.7147
 2595SOL     hw10378   0.695   4.175   6.613 -2.0759 -0.8016 -0.4703
 2595SOL     hw10379   0.668   4.077   6.725  0.7593  1.0732  2.0086
 2595SOL     vw10380   0.715   4.102   6.655 -0.6191  0.2105  0.7291
 2596SOL     ow10381   4.673   2.315   4.918 -0.1451 -0.3346  0.1670
 2596SOL     hw10382   4.697   2.269   4.998 -0.6501 -1.8319 -0.5085
 2596SOL     hw10383   4.754   2.355   4.888  0.7113 -2.1687 -0.0852
 2596SOL     vw10384   4.687   2.315   4.925 -0.0987 -0.7740  0.0451
 2597SOL     ow10385   3.853   1.594   5.961  0.1614  0.3956 -0.3390
 2597SOL     hw10386   3.813   1.509   5.977 -3.2692  1.7289 -0.8766
 2597SOL     hw10387   3.784   1.645   5.919  2.1286  3.4010 -0.2429
 2597SOL     vw10388   3.839   1.590   5.957 -0.0318  0.9680 -0.3972
 2598SOL     ow10389   0.096   6.064   2.519 -0.0033 -0.6154 -0.5341
 2598SOL     hw10390   0.111   6.159   2.513 -0.7333 -0.1405  3.2373
 2598SOL     hw10391   0.006   6.053   2.488 -0.0684 -0.0214 -0.5812
 2598SOL     vw10392   0.086   6.075   2.514 -0.1082 -0.4745 -0.0428
 2599SOL     ow10393   4.029   2.813   3.881 -0.1313  0.0724  0.4515
 2599SOL     hw10394   4.114   2.785   3.847  0.9624  2.9668  0.5124
 2599SOL     hw10395   4.045   2.828   3.974 -0.6645  0.7707  0.4302
 2599SOL     vw10396   4.043   2.811   3.889 -0.0575  0.5463  0.4567
 2600SOL     ow10397   0.990   0.910   1.395 -0.0259  0.4121 -0.0896
 2600SOL     hw10398   0.929   0.979   1.422 -0.1414  0.6331 -0.8644
 2600SOL     hw10399   1.071   0.929   1.442 -0.4277  0.3687  0.6227
 2600SOL     vw10400   0.993   0.922   1.405 -0.0941  0.4355 -0.0978
 2601SOL     ow10401   3.386   4.109   4.059 -0.3439  0.1489 -0.5364
 2601SOL     hw10402   3.359   4.018   4.068 -0.2714  0.2107  0.4107
 2601SOL     hw10403   3.358   4.134   3.970 -1.1456 -0.5271 -0.4850
 2601SOL     vw10404   3.379   4.101   4.048 -0.4401  0.0679 -0.4046
 2602SOL     ow10405   6.341   6.019   1.342 -0.5915 -0.2304 -0.0987
 2602SOL     hw10406   6.291   5.945   1.307 -1.7990  0.3888  0.2407
 2602SOL     hw10407   6.305   6.096   1.296  0.3406  0.1976 -0.1341
 2602SOL     vw10408   6.329   6.020   1.331 -0.6280 -0.0923 -0.0587
 2603SOL     ow10409   4.879   1.650   3.847 -0.1037 -0.1599 -0.3161
 2603SOL     hw10410   4.800   1.629   3.897  0.6975 -1.1636  0.5669
 2603SOL     hw10411   4.848   1.708   3.777 -2.0587 -2.4767 -1.5265
 2603SOL     vw10412   4.865   1.655   3.844 -0.2558 -0.5980 -0.3594
 2604SOL     ow10413   3.107   6.183   3.452 -0.4238  0.2388  0.5801
 2604SOL     hw10414   3.045   6.238   3.500  1.4382  0.5809  2.7174
 2604SOL     hw10415   3.168   6.152   3.518  0.6544 -1.5686 -1.1668
 2604SOL     vw10416   3.107   6.186   3.467 -0.0359  0.0455  0.6317
 2605SOL     ow10417   6.666   3.484   4.858  0.1510  0.7423 -0.9155
 2605SOL     hw10418   6.723   3.472   4.934 -2.3252 -1.9580  0.7453
 2605SOL     hw10419   6.708   3.433   4.789  0.1321 -0.7021  0.0875
 2605SOL     vw10420   6.679   3.475   4.859 -0.1781  0.1954 -0.5641
 2606SOL     ow10421   3.855   5.366   3.910  0.2873  0.3453 -0.5588
 2606SOL     hw10422   3.803   5.445   3.916 -0.1181 -0.0434  1.6331
 2606SOL     hw10423   3.940   5.390   3.946  0.5524  0.0929 -1.0074
 2606SOL     vw10424   3.859   5.379   3.915  0.2689  0.2606 -0.3288
 2607SOL     ow10425   0.036   1.407   6.222 -0.1072 -0.2369 -0.1233
 2607SOL     hw10426   0.045   1.434   6.131  0.4383  0.7749  0.2204
 2607SOL     hw10427   0.109   1.448   6.267  0.6585 -2.1336  0.4791
 2607SOL     vw10428   0.047   1.416   6.216  0.0658 -0.3536  0.0017
 2608SOL     ow10429   1.027   5.342   0.704 -0.4705  0.3499  0.3139
 2608SOL     hw10430   1.007   5.249   0.714 -2.3309  0.6599 -0.1106
 2608SOL     hw10431   1.101   5.357   0.762  0.3476 -1.5381 -0.1531
 2608SOL     vw10432   1.034   5.332   0.713 -0.6080  0.1416  0.1963
 2609SOL     ow10433   6.902   4.028   2.431 -0.0778  0.4685  0.1761
 2609SOL     hw10434   6.907   3.937   2.402  0.5578 -0.1000  1.9147
 2609SOL     hw10435   6.977   4.070   2.389 -0.3386  0.1747 -0.5927
 2609SOL     vw10436   6.913   4.021   2.422 -0.0284  0.3548  0.3041
 2610SOL     ow10437   1.751   4.767   4.136 -0.7413 -0.4666  0.1614
 2610SOL     hw10438   1.736   4.859   4.160 -0.7065 -0.8882  1.9489
 2610SOL     hw10439   1.683   4.719   4.183  1.2626 -1.6485  2.0036
 2610SOL     vw10440   1.740   4.773   4.145 -0.4724 -0.6783  0.6402
 2611SOL     ow10441   1.924   7.205   6.257 -0.5949 -0.9106 -0.0339
 2611SOL     hw10442   1.981   7.246   6.192 -1.7231  1.1082  0.1662
 2611SOL     hw10443   1.972   7.127   6.286  1.7821  0.3566 -0.3158
 2611SOL     vw10444   1.937   7.200   6.253 -0.4302 -0.4773 -0.0448
 2612SOL     ow10445   0.636   2.785   3.976 -0.3123 -0.4885 -0.0395
 2612SOL     hw10446   0.657   2.797   3.883 -0.3567 -1.1121 -0.1292
 2612SOL     hw10447   0.722   2.772   4.017 -0.0161  2.1066  0.3886
 2612SOL     vw10448   0.650   2.785   3.969 -0.2791 -0.2284  0.0052
 2613SOL     ow10449   6.115   0.346   1.397  0.3475  0.1502  0.3737
 2613SOL     hw10450   6.151   0.401   1.466  0.6690 -1.4199  1.5025
 2613SOL     hw10451   6.086   0.267   1.442 -4.2376  1.0579 -0.4387
 2613SOL     vw10452   6.116   0.343   1.412 -0.2151  0.0628  0.4154
 2614SOL     ow10453   5.565   0.293   6.692  0.2366  0.5671 -0.1112
 2614SOL     hw10454   5.597   0.259   6.776 -0.1985 -0.4135 -0.3211
 2614SOL     hw10455   5.645   0.320   6.646  0.6497 -0.4081 -0.0115
 2614SOL     vw10456   5.580   0.292   6.697  0.2339  0.3090 -0.1256
 2615SOL     ow10457   0.535   1.442   2.382  0.0467  0.8266  0.1696
 2615SOL     hw10458   0.601   1.423   2.449 -1.0972 -1.1301  0.8154
 2615SOL     hw10459   0.584   1.440   2.300  0.7275 -1.4192  0.5557
 2615SOL     vw10460   0.550   1.439   2.380 -0.0144  0.2721  0.3058
 2616SOL     ow10461   5.404   3.640   2.652 -0.7477 -0.5052  0.2147
 2616SOL     hw10462   5.474   3.624   2.716  1.9131  0.8634 -2.1339
 2616SOL     hw10463   5.371   3.553   2.631  0.2836 -1.2226  1.3742
 2616SOL     vw10464   5.409   3.626   2.658 -0.2608 -0.4194  0.0577
 2617SOL     ow10465   6.263   6.971   4.316 -0.2650 -0.1605  0.8232
 2617SOL     hw10466   6.335   6.947   4.375  1.4014  0.4195 -0.8461
 2617SOL     hw10467   6.223   7.047   4.357  0.9766  0.3501  1.1478
 2617SOL     vw10468   6.267   6.978   4.329  0.1187 -0.0165  0.6459
 2618SOL     ow10469   4.254   4.292   1.531  0.9134 -0.2656  0.7971
 2618SOL     hw10470   4.258   4.387   1.546  0.5226 -0.4843  2.4259
 2618SOL     hw10471   4.331   4.274   1.477  0.0606  1.2061 -1.0391
 2618SOL     vw10472   4.265   4.302   1.526  0.7493 -0.1004  0.7698
 2619SOL     ow10473   3.837   1.475   0.299  0.1615 -0.1751  0.5088
 2619SOL     hw10474   3.760   1.462   0.244  0.3291  0.7439  0.0464
 2619SOL     hw10475   3.802   1.506   0.383  0.0926  2.5764 -0.4267
 2619SOL     vw10476   3.822   1.477   0.303  0.1745  0.3092  0.3244
 2620SOL     ow10477   6.348   6.945   3.364 -0.5490  0.2955 -0.0953
 2620SOL     hw10478   6.382   6.863   3.328  0.5960  1.0579 -0.8193
 2620SOL     hw10479   6.426   6.995   3.389 -1.1017  1.9522 -1.4794
 2620SOL     vw10480   6.363   6.941   3.362 -0.4711  0.6146 -0.3734
 2621SOL     ow10481   1.918   6.908   4.681  0.6644  0.5061  0.4538
 2621SOL     hw10482   1.978   6.856   4.627 -0.1439  0.2355 -0.2002
 2621SOL     hw10483   1.962   6.914   4.766  1.6339  0.3485 -0.0185
 2621SOL     vw10484   1.932   6.902   4.685  0.6857  0.4497  0.3054
 2622SOL     ow10485   5.105   1.091   0.597  0.1268 -0.4906  0.0943
 2622SOL     hw10486   5.161   1.034   0.545  0.2144  0.2251 -0.6105
 2622SOL     hw10487   5.082   1.163   0.538 -0.8844 -0.3606  0.6214
 2622SOL     vw10488   5.109   1.093   0.582  0.0048 -0.3791  0.0708
 2623SOL     ow10489   4.889   4.098   5.710  0.2018 -0.4345 -0.3623
 2623SOL     hw10490   4.837   4.018   5.703  2.1674 -1.7485 -0.8022
 2623SOL     hw10491   4.952   4.092   5.638  0.2324  1.6710 -0.5828
 2623SOL     vw10492   4.890   4.087   5.699  0.4652 -0.3302 -0.4497
 2624SOL     ow10493   4.580   1.002   5.245 -0.0137 -0.1099 -0.3355
 2624SOL     hw10494   4.505   0.978   5.191 -0.9880 -0.9545  1.2990
 2624SOL     hw10495   4.656   0.963   5.202 -0.8413 -1.2880 -0.7595
 2624SOL     vw10496   4.580   0.994   5.232 -0.2513 -0.3767 -0.1757
 2625SOL     ow10497   4.997   4.457   1.534 -1.0597  0.2634 -0.7069
 2625SOL     hw10498   5.010   4.526   1.599 -2.1443  1.1890 -1.4380
 2625SOL     hw10499   5.043   4.381   1.570  0.2567  1.3795  0.0776
 2625SOL     vw10500   5.005   4.456   1.547 -1.0293  0.5331 -0.6998
 2626SOL     ow10501   1.006   7.239   2.626 -0.4303  0.9858  0.3551
 2626SOL     hw10502   1.042   7.283   2.549 -0.3189  0.4805  0.1153
 2626SOL     hw10503   0.991   7.309   2.689  1.9049  1.1190  0.8458
 2626SOL     vw10504   1.009   7.254   2.624 -0.1075  0.9365  0.3883
 2627SOL     ow10505   1.334   0.147   4.219 -0.4416  0.0800  0.0187
 2627SOL     hw10506   1.372   0.163   4.133 -2.4381 -0.9556 -1.1204
 2627SOL     hw10507   1.380   0.069   4.251 -0.5610 -0.2918 -0.6916
 2627SOL     vw10508   1.345   0.139   4.212 -0.7207 -0.1057 -0.2253
 2628SOL     ow10509   4.076   5.493   4.061  0.0878 -0.1162 -0.3902
 2628SOL     hw10510   4.142   5.437   4.101  0.2339 -1.2554 -2.1242
 2628SOL     hw10511   4.118   5.529   3.983 -0.1806  2.0399  0.4186
 2628SOL     vw10512   4.090   5.490   4.056  0.0718  0.0181 -0.5121
 2629SOL     ow10513   1.767   2.955   5.403  0.1036 -0.4723  0.3187
 2629SOL     hw10514   1.749   2.940   5.495 -0.9323 -1.3381 -0.0058
 2629SOL     hw10515   1.852   2.999   5.402  0.0755 -0.3575  1.6800
 2629SOL     vw10516   1.776   2.959   5.415 -0.0368 -0.5715  0.4556
 2630SOL     ow10517   5.294   4.842   5.965  0.5361  0.5040 -0.0687
 2630SOL     hw10518   5.388   4.863   5.971  0.5303  0.6430 -0.4226
 2630SOL     hw10519   5.287   4.791   5.884  0.2649  0.7091 -0.1716
 2630SOL     vw10520   5.306   4.838   5.955  0.4995  0.5493 -0.1290
 2631SOL     ow10521   6.407   5.386   1.195  0.3758 -0.2915  0.0726
 2631SOL     hw10522   6.490   5.412   1.235  1.7146 -3.2759 -0.4508
 2631SOL     hw10523   6.414   5.290   1.187 -2.4367 -0.4595 -1.5369
 2631SOL     vw10524   6.419   5.377   1.199  0.1814 -0.7071 -0.2089
 2632SOL     ow10525   3.191   7.354   4.257  0.1754 -0.2116 -0.5654
 2632SOL     hw10526   3.129   7.395   4.196 -0.7537  0.2985  0.6932
 2632SOL     hw10527   3.136   7.305   4.318  0.8928  1.1964  1.2793
 2632SOL     vw10528   3.176   7.353   4.257  0.1473  0.0417 -0.1562
 2633SOL     ow10529   4.736   1.055   1.839 -0.1206  0.1912 -0.0549
 2633SOL     hw10530   4.761   1.122   1.902 -1.5180  1.3929 -0.7248
 2633SOL     hw10531   4.775   1.084   1.756 -1.1274  0.4686 -0.4511
 2633SOL     vw10532   4.744   1.067   1.836 -0.4380  0.3863 -0.1956
 2634SOL     ow10533   2.674   0.668   6.914  0.4705 -0.3482  0.0254
 2634SOL     hw10534   2.589   0.630   6.938  0.0151  1.6664  2.0499
 2634SOL     hw10535   2.660   0.705   6.827 -0.8115  0.0912  0.3947
 2634SOL     vw10536   2.661   0.668   6.906  0.2413 -0.0244  0.3409
 2635SOL     ow10537   2.132   2.384   6.218  0.2612  0.4699 -0.1407
 2635SOL     hw10538   2.216   2.410   6.180  0.7649  0.1645  0.7426
 2635SOL     hw10539   2.106   2.459   6.272  0.0257  0.5080 -0.3033
 2635SOL     vw10540   2.140   2.397   6.220  0.2965  0.4346 -0.0455
 2636SOL     ow10541   5.396   2.897   5.156  0.1316  0.3819  0.3201
 2636SOL     hw10542   5.415   2.804   5.167 -1.7929 -0.1743 -0.5991
 2636SOL     hw10543   5.403   2.934   5.244  1.6099 -0.4586  0.5847
 2636SOL     vw10544   5.399   2.890   5.169  0.0727  0.1975  0.2337
 2637SOL     ow10545   6.622   1.887   3.280  0.1298  0.0745  0.1714
 2637SOL     hw10546   6.607   1.961   3.339 -0.8475  0.4727 -0.5579
 2637SOL     hw10547   6.662   1.926   3.203  0.2008 -0.2600  0.0380
 2637SOL     vw10548   6.626   1.902   3.278  0.0103  0.0829  0.0576
 2638SOL     ow10549   2.741   4.354   4.314 -0.4639 -0.1241 -0.7062
 2638SOL     hw10550   2.755   4.423   4.249  0.3415  1.1949  0.7863
 2638SOL     hw10551   2.781   4.389   4.394  0.5480 -2.6084 -0.0481
 2638SOL     vw10552   2.748   4.368   4.316 -0.2241 -0.2780 -0.4225
 2639SOL     ow10553   4.814   3.839   1.838  0.3311  0.2161  0.2222
 2639SOL     hw10554   4.834   3.760   1.789  0.2702  0.7833 -0.7419
 2639SOL     hw10555   4.720   3.852   1.827  0.2501  0.1680  0.7859
 2639SOL     vw10556   4.804   3.830   1.830  0.3121  0.2847  0.1693
 2640SOL     ow10557   2.625   2.615   2.158  0.3384  0.0539 -0.2512
 2640SOL     hw10558   2.547   2.647   2.204 -0.4633  0.2123 -1.6310
 2640SOL     hw10559   2.682   2.692   2.150 -1.3844  1.2222 -3.1585
 2640SOL     vw10560   2.622   2.629   2.163  0.0052  0.2289 -0.8169
 2641SOL     ow10561   5.517   2.111   4.696  0.6099  0.2443 -0.3690
 2641SOL     hw10562   5.551   2.075   4.778  2.2375  1.0195 -0.6727
 2641SOL     hw10563   5.557   2.057   4.628 -1.5173 -1.0590 -0.6945
 2641SOL     vw10564   5.527   2.099   4.697  0.5441  0.1748 -0.4523
 2642SOL     ow10565   1.933   4.852   5.689 -0.9368 -0.3519  0.1081
 2642SOL     hw10566   1.837   4.848   5.684 -0.9849 -0.4230  0.9404
 2642SOL     hw10567   1.959   4.768   5.727 -0.6662  0.2186  1.2377
 2642SOL     vw10568   1.924   4.841   5.694 -0.9074 -0.2856  0.3672
 2643SOL     ow10569   0.008   3.309   0.602  0.8913 -0.3559 -0.4507
 2643SOL     hw10570  -0.013   3.278   0.514 -4.6150 -0.6983  0.5748
 2643SOL     hw10571  -0.034   3.245   0.660  0.7887  1.9433  2.2277
 2643SOL     vw10572  -0.000   3.297   0.598  0.1513 -0.0979  0.0380
 2644SOL     ow10573   5.028   2.986   3.218  0.5719 -0.2463  0.4624
 2644SOL     hw10574   4.954   2.927   3.200  1.7338 -1.4140 -0.7191
 2644SOL     hw10575   5.007   3.066   3.171 -0.7600  0.1386  1.6169
 2644SOL     vw10576   5.016   2.988   3.210  0.5496 -0.3495  0.4587
 2645SOL     ow10577   1.576   6.504   2.346  0.2574  0.6384 -0.1370
 2645SOL     hw10578   1.510   6.448   2.388  1.0110 -0.1217  0.0469
 2645SOL     hw10579   1.636   6.528   2.416 -0.1889  1.9011 -0.1637
 2645SOL     vw10580   1.575   6.500   2.360  0.2980  0.7048 -0.1163
 2646SOL     ow10581   3.197   2.924   3.348 -0.1189  0.5759  0.0542
 2646SOL     hw10582   3.268   2.886   3.297 -0.2582  1.9294 -1.2269
 2646SOL     hw10583   3.161   2.993   3.292 -1.7955  0.6003  1.0700
 2646SOL     vw10584   3.201   2.928   3.334 -0.3585  0.7578  0.0193
 2647SOL     ow10585   6.942   6.429   0.234 -0.5024  0.0188  0.0268
 2647SOL     hw10586   6.878   6.500   0.237  0.4181  0.8704  0.5548
 2647SOL     hw10587   6.998   6.450   0.159 -0.8611 -0.7374 -0.4570
 2647SOL     vw10588   6.941   6.441   0.225 -0.4287  0.0317  0.0326
 2648SOL     ow10589   5.692   6.705   4.018  0.0811  0.0310 -0.2868
 2648SOL     hw10590   5.607   6.686   4.056  0.7471  0.5289  1.5687
 2648SOL     hw10591   5.750   6.636   4.051  0.9153  1.0830  0.5318
 2648SOL     vw10592   5.689   6.693   4.028  0.2792  0.2353  0.0660
 2649SOL     ow10593   5.717   1.579   1.834 -0.2526  0.2766  0.5957
 2649SOL     hw10594   5.681   1.508   1.781  1.4091 -0.1901  0.0323
 2649SOL     hw10595   5.785   1.618   1.780  1.0303  0.2447  2.1033
 2649SOL     vw10596   5.721   1.575   1.820  0.1359  0.2108  0.7203
 2650SOL     ow10597   0.264   3.211   6.821  0.0575  0.3624 -0.3692
 2650SOL     hw10598   0.256   3.296   6.864 -0.8564  0.6799 -1.1368
 2650SOL     hw10599   0.346   3.174   6.855 -0.1275  1.0354  0.8452
 2650SOL     vw10600   0.274   3.217   6.831 -0.0875  0.4930 -0.3102
 2651SOL     ow10601   2.398   2.945   5.999  0.2710 -0.0978  0.3289
 2651SOL     hw10602   2.378   2.855   5.974 -3.4012  0.6056  0.1968
 2651SOL     hw10603   2.420   2.939   6.092  0.1004 -1.1582  0.3139
 2651SOL     vw10604   2.398   2.932   6.008 -0.2360 -0.1448  0.3095
 2652SOL     ow10605   0.820   0.354   2.241  0.0057  0.4454  0.2917
 2652SOL     hw10606   0.796   0.371   2.150 -0.1550  0.3421  0.3149
 2652SOL     hw10607   0.777   0.423   2.290  0.4015  0.7246  0.2507
 2652SOL     vw10608   0.811   0.365   2.235  0.0367  0.4686  0.2893
 2653SOL     ow10609   7.288   0.289   4.807  0.1761  0.3691 -0.4969
 2653SOL     hw10610   7.340   0.320   4.882  0.4704  0.1533 -0.6113
 2653SOL     hw10611   7.338   0.316   4.731 -0.1216  0.5828 -0.6208
 2653SOL     vw10612   7.301   0.297   4.807  0.1760  0.3688 -0.5281
 2654SOL     ow10613   4.137   2.606   2.653 -0.1628 -0.0106 -0.1719
 2654SOL     hw10614   4.170   2.687   2.693  0.3208 -0.0374 -0.5010
 2654SOL     hw10615   4.104   2.634   2.567  0.1391 -0.1781 -0.3466
 2654SOL     vw10616   4.137   2.621   2.647 -0.0591 -0.0360 -0.2384
 2655SOL     ow10617   3.322   5.539   1.202  0.5165 -0.5871  0.0872
 2655SOL     hw10618   3.260   5.551   1.130  2.0506  1.6430 -0.9951
 2655SOL     hw10619   3.269   5.550   1.281 -0.5701  1.0105 -0.7906
 2655SOL     vw10620   3.307   5.542   1.203  0.5757 -0.0820 -0.1714
 2656SOL     ow10621   3.402   2.845   2.762 -0.5195  0.3849  0.5433
 2656SOL     hw10622   3.421   2.755   2.789  0.5413  0.1274 -0.9771
 2656SOL     hw10623   3.319   2.839   2.715 -0.6356  0.2857  0.7555
 2656SOL     vw10624   3.393   2.832   2.760 -0.3947  0.3378  0.3706
 2657SOL     ow10625   0.350   2.788   5.063  0.2852 -0.0404  0.0994
 2657SOL     hw10626   0.277   2.729   5.043 -0.0238  0.1537  0.6324
 2657SOL     hw10627   0.425   2.731   5.075  0.4969 -0.1728 -1.6014
 2657SOL     vw10628   0.350   2.773   5.062  0.2723 -0.0323 -0.0546
 2658SOL     ow10629   0.359   0.599   2.786 -0.0410  0.5140 -0.2464
 2658SOL     hw10630   0.430   0.656   2.755  1.5364 -0.4015  1.4411
 2658SOL     hw10631   0.378   0.514   2.745 -1.0030  0.5994 -0.8907
 2658SOL     vw10632   0.371   0.595   2.776  0.0402  0.4044 -0.1088
 2659SOL     ow10633   5.238   6.140   5.358  0.3742  0.3724  0.0315
 2659SOL     hw10634   5.328   6.170   5.343  0.3271  2.5775  3.1065
 2659SOL     hw10635   5.184   6.217   5.340 -0.8167 -0.5714 -0.5873
 2659SOL     vw10636   5.243   6.154   5.354  0.2108  0.5388  0.3557
 2660SOL     ow10637   3.932   0.720   3.737 -0.0607  0.8542 -0.2473
 2660SOL     hw10638   3.948   0.644   3.793  0.8098 -0.2048 -1.8542
 2660SOL     hw10639   3.952   0.795   3.793  3.3540 -0.2120  0.1720
 2660SOL     vw10640   3.937   0.720   3.752  0.5046  0.5738 -0.4039
 2661SOL     ow10641   5.041   1.988   6.839  0.5303  0.4682 -0.2868
 2661SOL     hw10642   4.997   2.002   6.923 -0.3276 -0.5532 -0.5387
 2661SOL     hw10643   5.133   1.972   6.862  0.3881  0.6428  0.4149
 2661SOL     vw10644   5.048   1.987   6.853  0.3982  0.3565 -0.2279
 2662SOL     ow10645   5.995   6.645   3.834  0.6293 -0.1428 -0.1107
 2662SOL     hw10646   5.960   6.557   3.822  0.9266 -0.1917 -0.6108
 2662SOL     hw10647   6.088   6.637   3.812  0.2229  0.7700 -2.3223
 2662SOL     vw10648   6.003   6.632   3.830  0.6149 -0.0288 -0.4683
 2663SOL     ow10649   4.923   1.640   0.612  0.3651  0.7020  0.1576
 2663SOL     hw10650   4.944   1.688   0.693  0.0870  1.5763 -0.2786
 2663SOL     hw10651   5.000   1.654   0.556  0.6611 -0.1024  0.3462
 2663SOL     vw10652   4.936   1.648   0.615  0.3674  0.7111  0.1250
 2664SOL     ow10653   7.418   4.408   4.104 -0.2524 -0.2233 -0.1573
 2664SOL     hw10654   7.348   4.343   4.114 -0.0717 -0.5404 -0.8781
 2664SOL     hw10655   7.425   4.449   4.190 -1.6520  0.1506 -0.1913
 2664SOL     vw10656   7.409   4.405   4.116 -0.4129 -0.2158 -0.2570
 2665SOL     ow10657   0.838   1.984   0.355  0.2409 -0.8346 -0.4646
 2665SOL     hw10658   0.825   2.078   0.371 -1.3603 -1.0049 -0.6737
 2665SOL     hw10659   0.857   1.978   0.261 -0.7834 -0.8117 -0.6820
 2665SOL     vw10660   0.839   1.996   0.345 -0.1055 -0.8541 -0.5209
 2666SOL     ow10661   1.241   7.499   5.803 -0.0247  0.1961 -0.1828
 2666SOL     hw10662   1.241   7.424   5.743  0.0336 -0.4789  0.6405
 2666SOL     hw10663   1.175   7.478   5.868  0.1731  0.7465  0.2057
 2666SOL     vw10664   1.232   7.486   5.804  0.0091  0.1795 -0.0229
 2667SOL     ow10665   4.401   0.976   0.899 -0.7058 -0.1545  0.6934
 2667SOL     hw10666   4.329   1.036   0.919  0.1006  0.6669  1.2546
 2667SOL     hw10667   4.434   1.006   0.814  0.0894  0.6270  1.2546
 2667SOL     vw10668   4.396   0.988   0.891 -0.4945  0.0570  0.8415
 2668SOL     ow10669   7.471   3.315   5.143 -0.0424 -0.4212  0.4719
 2668SOL     hw10670   7.438   3.398   5.109  1.3952 -0.1549 -0.3398
 2668SOL     hw10671   7.490   3.334   5.235  0.4223  0.2040  0.2544
 2668SOL     vw10672   7.469   3.329   5.151  0.2086 -0.3036  0.3362
 2669SOL     ow10673   7.246   0.023   6.210 -0.2499  0.4656 -0.7231
 2669SOL     hw10674   7.173   0.013   6.270  1.5354  0.5659  1.5987
 2669SOL     hw10675   7.306  -0.048   6.233  1.5307  1.8909 -0.7491
 2669SOL     vw10676   7.244   0.013   6.221  0.2205  0.6669 -0.4201
 2670SOL     ow10677   5.301   2.608   4.781  0.6293  0.0992 -0.2207
 2670SOL     hw10678   5.328   2.633   4.693 -0.1637 -1.5470 -0.9933
 2670SOL     hw10679   5.205   2.600   4.774  0.7915 -3.3003 -0.2145
 2670SOL     vw10680   5.292   2.610   4.768  0.5457 -0.5666 -0.3221
 2671SOL     ow10681   5.650   4.667   6.997  0.2299  0.1043  0.2898
 2671SOL     hw10682   5.562   4.696   6.972  0.5036 -0.2120 -1.1368
 2671SOL     hw10683   5.709   4.727   6.951  0.7972  0.6842  1.6959
 2671SOL     vw10684   5.646   4.679   6.988  0.3409  0.1392  0.2873
 2672SOL     ow10685   1.562   3.375   4.754  0.9993 -0.0486 -0.1530
 2672SOL     hw10686   1.490   3.320   4.784  2.6612 -2.2810 -0.0226
 2672SOL     hw10687   1.522   3.461   4.739 -1.9701 -1.5222 -1.4788
 2672SOL     vw10688   1.548   3.379   4.756  0.8268 -0.5375 -0.3104
 2673SOL     ow10689   0.728   1.195   3.968 -0.7524 -0.6097 -0.2202
 2673SOL     hw10690   0.728   1.119   3.910  0.3546  0.4032 -1.5922
 2673SOL     hw10691   0.818   1.226   3.968 -1.3760  1.3330 -0.5317
 2673SOL     vw10692   0.740   1.189   3.961 -0.6886 -0.2198 -0.4423
 2674SOL     ow10693   4.342   1.132   1.126  0.4047  0.1426 -0.0272
 2674SOL     hw10694   4.295   1.208   1.161  1.0259 -0.1766  1.5765
 2674SOL     hw10695   4.290   1.057   1.156 -0.0433 -0.0986 -1.3513
 2674SOL     vw10696   4.329   1.132   1.135  0.4275  0.0687  0.0096
 2675SOL     ow10697   4.907   0.912   0.498 -0.4282 -0.1554 -0.4708
 2675SOL     hw10698   4.942   0.989   0.544  3.7862 -1.0658 -1.7272
 2675SOL     hw10699   4.876   0.854   0.568 -0.8334  1.3758  0.6775
 2675SOL     vw10700   4.908   0.915   0.513  0.0741 -0.0735 -0.4850
 2676SOL     ow10701   6.886   0.224   4.843  0.1373 -0.0732  0.2137
 2676SOL     hw10702   6.828   0.171   4.789 -2.1883  0.6435  1.8950
 2676SOL     hw10703   6.912   0.297   4.786 -0.0420 -0.7438 -0.7524
 2676SOL     vw10704   6.882   0.227   4.828 -0.1931 -0.0671  0.3080
 2677SOL     ow10705   0.875   1.161   3.607 -0.4620 -0.2705  0.3234
 2677SOL     hw10706   0.942   1.136   3.543  0.9843  0.5402  1.4286
 2677SOL     hw10707   0.792   1.140   3.566  0.4437 -0.3559 -1.5512
 2677SOL     vw10708   0.873   1.155   3.593 -0.1517 -0.1748  0.2217
 2678SOL     ow10709   1.703   2.827   5.666  0.1998  0.0390  0.3576
 2678SOL     hw10710   1.734   2.764   5.601  0.0986  0.6438 -0.2937
 2678SOL     hw10711   1.613   2.846   5.639  0.0128 -0.0250  0.9265
 2678SOL     vw10712   1.695   2.822   5.654  0.1618  0.1101  0.3467
 2679SOL     ow10713   3.293   6.299   1.815 -0.3855 -1.5900 -0.0678
 2679SOL     hw10714   3.363   6.287   1.880  0.5787 -0.8669 -0.9421
 2679SOL     hw10715   3.227   6.351   1.861  1.0051  0.3322 -0.0955
 2679SOL     vw10716   3.294   6.304   1.830 -0.0749 -1.2410 -0.1868
 2680SOL     ow10717   3.610   1.762   2.440 -0.0266 -0.0550 -1.0724
 2680SOL     hw10718   3.579   1.850   2.416 -2.3371 -0.9894 -1.7000
 2680SOL     hw10719   3.625   1.767   2.534 -1.1065  0.7554 -0.9267
 2680SOL     vw10720   3.608   1.775   2.449 -0.4740 -0.0714 -1.1361
 2681SOL     ow10721   6.665   1.748   4.995 -0.0346 -0.0547  0.4360
 2681SOL     hw10722   6.732   1.789   4.940 -0.0045 -1.1998 -0.4154
 2681SOL     hw10723   6.708   1.735   5.080  0.3724  0.4751  0.3147
 2681SOL     vw10724   6.679   1.752   4.999  0.0231 -0.1358  0.3078
 2682SOL     ow10725   3.422   2.913   1.095  0.7417  0.2605 -0.5674
 2682SOL     hw10726   3.516   2.930   1.083  0.7705  0.9129  0.4405
 2682SOL     hw10727   3.418   2.842   1.159  0.5632 -1.8910 -2.8160
 2682SOL     vw10728   3.434   2.906   1.102  0.7218  0.0626 -0.7312
 2683SOL     ow10729   3.986   7.038   6.548  0.2726  0.2268  0.7179
 2683SOL     hw10730   3.947   6.951   6.560 -1.2630  1.0741  2.4491
 2683SOL     hw10731   3.939   7.093   6.610  0.0425  2.6610 -1.4714
 2683SOL     vw10732   3.974   7.034   6.557  0.0396  0.6599  0.6573
 2684SOL     ow10733   6.015   5.330   0.491 -0.2707 -0.2947 -0.4524
 2684SOL     hw10734   5.992   5.370   0.575 -0.7397  0.5457 -0.9675
 2684SOL     hw10735   6.064   5.399   0.445 -2.0243  0.1187 -1.7958
 2684SOL     vw10736   6.019   5.345   0.496 -0.5641 -0.1292 -0.6976
 2685SOL     ow10737   7.187   0.305   4.048  0.0256  0.2027 -0.0090
 2685SOL     hw10738   7.176   0.229   4.106 -0.5339  0.4906  0.2764
 2685SOL     hw10739   7.269   0.288   4.001 -0.9888 -1.4655 -1.2877
 2685SOL     vw10740   7.196   0.293   4.050 -0.1824  0.0206 -0.1400
 2686SOL     ow10741   1.646   3.456   2.880  0.6553 -0.3563  0.3019
 2686SOL     hw10742   1.592   3.410   2.816  0.0490  0.4266  0.2217
 2686SOL     hw10743   1.733   3.460   2.842  0.3946 -0.2623 -0.2913
 2686SOL     vw10744   1.650   3.450   2.867  0.5409 -0.2406  0.2130
 2687SOL     ow10745   3.241   4.340   3.186 -0.4372  0.2612 -0.9893
 2687SOL     hw10746   3.305   4.365   3.252 -0.8960 -0.3768 -0.2772
 2687SOL     hw10747   3.291   4.288   3.123 -0.4694 -1.3616  0.2602
 2687SOL     vw10748   3.256   4.336   3.186 -0.5020 -0.0372 -0.7305
 2688SOL     ow10749   2.167   4.355   3.369 -0.0410 -0.0435  0.1688
 2688SOL     hw10750   2.131   4.309   3.445 -0.4637  1.0070  0.6225
 2688SOL     hw10751   2.224   4.291   3.327 -0.9109 -1.1043  0.5544
 2688SOL     vw10752   2.170   4.341   3.373 -0.2116 -0.0448  0.2797
 2689SOL     ow10753   7.117   2.759   2.797  0.2769 -0.3143 -0.2644
 2689SOL     hw10754   7.207   2.776   2.827  0.4502 -2.0803  0.3850
 2689SOL     hw10755   7.080   2.845   2.780  2.0266  0.4612 -0.3178
 2689SOL     vw10756   7.124   2.772   2.799  0.5307 -0.4450 -0.1857
 2690SOL     ow10757   0.150   1.512   1.368 -0.0282  0.5883 -0.4563
 2690SOL     hw10758   0.237   1.475   1.381  0.1810  1.3234  0.3352
 2690SOL     hw10759   0.091   1.451   1.412  0.0038 -0.2336 -1.5106
 2690SOL     vw10760   0.154   1.499   1.375  0.0037  0.5769 -0.4910
 2691SOL     ow10761   1.689   5.952   1.571  0.1033 -0.1947  0.2847
 2691SOL     hw10762   1.683   5.944   1.475 -4.5522 -1.0917  0.4442
 2691SOL     hw10763   1.688   6.046   1.587 -3.3259  0.0223 -0.5888
 2691SOL     vw10764   1.688   5.963   1.560 -0.9634 -0.2842  0.1906
 2692SOL     ow10765   4.198   3.886   2.122 -0.5111 -0.5400 -0.0649
 2692SOL     hw10766   4.293   3.877   2.130 -0.6818 -1.0679  2.2094
 2692SOL     hw10767   4.178   3.852   2.035  1.4797  0.7370 -1.0873
 2692SOL     vw10768   4.208   3.880   2.112 -0.2711 -0.4413  0.1004
 2693SOL     ow10769   2.080   5.367   5.587 -0.1055  0.2724  0.3184
 2693SOL     hw10770   2.135   5.299   5.549 -1.9733 -1.6827  0.9413
 2693SOL     hw10771   2.035   5.406   5.512  1.7669  1.6517 -0.1563
 2693SOL     vw10772   2.082   5.363   5.572 -0.1048  0.1962  0.3378
 2694SOL     ow10773   2.389   0.941   5.439 -0.5485  0.3356  0.4840
 2694SOL     hw10774   2.434   0.942   5.523 -0.9810  1.5820  0.7203
 2694SOL     hw10775   2.309   0.890   5.455 -0.6764  0.6519  0.8565
 2694SOL     vw10776   2.384   0.934   5.452 -0.6225  0.5417  0.5643
 2695SOL     ow10777   0.331   2.936   4.182 -0.2998 -0.0472 -0.2824
 2695SOL     hw10778   0.365   2.949   4.271 -2.0000  2.0076  0.1754
 2695SOL     hw10779   0.260   2.873   4.193  0.0900 -0.5024 -0.3556
 2695SOL     vw10780   0.326   2.930   4.195 -0.4727  0.1639 -0.2317
 2696SOL     ow10781   2.004   5.583   1.643  0.2116  0.2730 -0.3871
 2696SOL     hw10782   2.041   5.503   1.607  0.7087  0.2381  0.1814
 2696SOL     hw10783   2.062   5.652   1.612  2.4937 -0.0403  2.7268
 2696SOL     vw10784   2.016   5.582   1.635  0.5783  0.2270  0.0987
 2697SOL     ow10785   4.826   3.526   6.298  0.2381 -1.0673  0.2629
 2697SOL     hw10786   4.901   3.574   6.260  0.1712  0.2292  1.6823
 2697SOL     hw10787   4.860   3.438   6.314  0.8499 -1.0751 -0.9332
 2697SOL     vw10788   4.841   3.521   6.295  0.3099 -0.8972  0.2923
 2698SOL     ow10789   4.597   1.324   3.753  0.4972  0.6525 -0.0517
 2698SOL     hw10790   4.692   1.323   3.758  0.5567  3.4290  1.7727
 2698SOL     hw10791   4.576   1.411   3.718 -1.3527  0.5748  0.7383
 2698SOL     vw10792   4.607   1.335   3.749  0.2608  1.0086  0.2933
 2699SOL     ow10793   7.452   1.757   1.757  0.1083  0.1778  0.1049
 2699SOL     hw10794   7.359   1.739   1.742 -0.0647  0.1897  1.0966
 2699SOL     hw10795   7.497   1.682   1.719 -0.4027 -0.5754  0.9332
 2699SOL     vw10796   7.445   1.745   1.750  0.0179  0.0800  0.3451
 2700SOL     ow10797   3.139   5.624   6.675 -0.4902  0.1640  0.5415
 2700SOL     hw10798   3.048   5.649   6.662 -0.1975  0.2480 -1.8165
 2700SOL     hw10799   3.190   5.698   6.642  0.4201 -0.4841  0.4296
 2700SOL     vw10800   3.134   5.637   6.669 -0.3314  0.0896  0.2155
 2701SOL     ow10801   0.917   5.947   1.274 -0.2926 -0.0509  0.1032
 2701SOL     hw10802   0.894   5.856   1.255 -0.3954  0.0009 -0.0196
 2701SOL     hw10803   0.847   5.978   1.332 -1.1000  0.4117 -1.0604
 2701SOL     vw10804   0.905   5.939   1.279 -0.4127  0.0169 -0.0665
 2702SOL     ow10805   2.058   2.769   0.433 -0.4542  0.2417  0.1317
 2702SOL     hw10806   2.092   2.826   0.363  0.6623 -1.4306 -0.7492
 2702SOL     hw10807   1.975   2.736   0.397  0.8203 -1.7948 -1.1559
 2702SOL     vw10808   2.051   2.772   0.419 -0.1386 -0.2477 -0.1544
 2703SOL     ow10809   2.566   0.340   7.352  0.7348  0.0892  0.0632
 2703SOL     hw10810   2.640   0.383   7.393 -1.3581  0.5502  3.8357
 2703SOL     hw10811   2.501   0.409   7.340 -0.2930 -0.8413  0.0390
 2703SOL     vw10812   2.567   0.355   7.356  0.3232  0.0273  0.5577
 2704SOL     ow10813   0.398   0.499   6.773  0.3370 -0.7724  0.0480
 2704SOL     hw10814   0.383   0.593   6.777  0.0415 -0.7681 -0.8252
 2704SOL     hw10815   0.481   0.485   6.819  0.4592 -0.0751  0.0505
 2704SOL     vw10816   0.407   0.509   6.780  0.3141 -0.6799 -0.0668
 2705SOL     ow10817   1.193   5.952   1.291 -0.8537 -0.3794  0.0808
 2705SOL     hw10818   1.098   5.946   1.302 -0.6633 -0.2939  2.3590
 2705SOL     hw10819   1.214   6.043   1.314 -0.1861 -0.5363  0.1090
 2705SOL     vw10820   1.183   5.963   1.296 -0.7406 -0.3889  0.3850
 2706SOL     ow10821   6.785   0.637   0.348 -0.2188  0.5355  0.5110
 2706SOL     hw10822   6.789   0.679   0.261  1.2093 -2.0101 -0.7478
 2706SOL     hw10823   6.854   0.681   0.398  1.1336 -0.0853 -0.7164
 2706SOL     vw10824   6.795   0.649   0.343  0.1481  0.1177  0.1830
 2707SOL     ow10825   5.302   3.922   0.550  0.0665 -0.3280  0.8134
 2707SOL     hw10826   5.390   3.902   0.580 -0.8733 -1.8314  2.8408
 2707SOL     hw10827   5.245   3.867   0.605 -2.0964  0.1917 -0.7700
 2707SOL     vw10828   5.306   3.912   0.561 -0.3428 -0.4576  0.8720
 2708SOL     ow10829   2.934   0.004   4.837  0.0040 -0.2409 -0.2508
 2708SOL     hw10830   2.853  -0.027   4.796 -0.5709  0.9382 -0.0622
 2708SOL     hw10831   2.905   0.062   4.907  1.0092 -0.7449  0.6161
 2708SOL     vw10832   2.920   0.008   4.841  0.0608 -0.1516 -0.1116
 2709SOL     ow10833   2.843   6.403   2.735 -0.2830  0.3229 -0.1413
 2709SOL     hw10834   2.874   6.421   2.647 -0.6303 -0.0910 -0.3523
 2709SOL     hw10835   2.898   6.331   2.766 -0.4018  0.2216 -0.1618
 2709SOL     vw10836   2.855   6.396   2.728 -0.3445  0.2549 -0.1719
 2710SOL     ow10837   7.252   6.574   3.713  0.1805  0.7425  0.2896
 2710SOL     hw10838   7.204   6.652   3.683 -1.2197  0.2399  1.1009
 2710SOL     hw10839   7.235   6.508   3.646  0.1334  0.6976  0.3462
 2710SOL     vw10840   7.243   6.576   3.700 -0.0105  0.6702  0.4040
 2711SOL     ow10841   6.001   4.218   1.884 -0.4342 -0.3788 -0.2183
 2711SOL     hw10842   5.954   4.165   1.949 -0.3821  0.7001  0.7208
 2711SOL     hw10843   6.000   4.164   1.804 -0.8693 -1.5431  0.5474
 2711SOL     vw10844   5.995   4.204   1.882 -0.4849 -0.3901  0.0066
 2712SOL     ow10845   4.444   0.951   3.825  0.2448  0.6531  0.1859
 2712SOL     hw10846   4.381   0.882   3.804  0.8931  0.5972 -1.7442
 2712SOL     hw10847   4.407   1.030   3.784  0.7903  0.8948  0.1511
 2712SOL     vw10848   4.431   0.953   3.817  0.4022  0.6776 -0.0733
 2713SOL     ow10849   2.932   7.136   2.401 -0.6355 -0.0326 -0.4891
 2713SOL     hw10850   2.878   7.079   2.346 -2.8185 -0.3280  1.7510
 2713SOL     hw10851   3.011   7.085   2.419 -1.2404 -1.1481 -0.8967
 2713SOL     vw10852   2.935   7.122   2.397 -1.0034 -0.2189 -0.2474
 2714SOL     ow10853   7.374   6.322   4.653 -0.4104 -0.2733  0.6451
 2714SOL     hw10854   7.280   6.306   4.661 -0.7139  0.7300 -0.5491
 2714SOL     hw10855   7.411   6.235   4.637 -1.1920 -0.6279  0.7041
 2714SOL     vw10856   7.366   6.308   4.652 -0.5538 -0.1876  0.4952
 2715SOL     ow10857   3.005   4.729   2.318 -0.4300  0.5728  0.1351
 2715SOL     hw10858   3.099   4.736   2.335 -0.2222  1.1438 -1.1378
 2715SOL     hw10859   2.964   4.769   2.395  0.3680  0.4315  0.6470
 2715SOL     vw10860   3.012   4.735   2.330 -0.2973  0.6294  0.0347
 2716SOL     ow10861   1.737   3.274   4.493 -0.0789 -0.1723 -0.6268
 2716SOL     hw10862   1.670   3.213   4.463  0.0092 -0.8043  0.3942
 2716SOL     hw10863   1.806   3.268   4.427 -0.2254 -0.9200 -0.7266
 2716SOL     vw10864   1.737   3.265   4.480 -0.0866 -0.3543 -0.5052
 2717SOL     ow10865   4.130   0.300   0.007  0.4554 -0.0829  0.0093
 2717SOL     hw10866   4.088   0.263   0.085  0.5204  0.7013  0.4253
 2717SOL     hw10867   4.182   0.228  -0.028  1.4341 -0.1077  1.4092
 2717SOL     vw10868   4.131   0.285   0.013  0.5932  0.0173  0.2488
 2718SOL     ow10869   6.545   5.158   5.641 -0.1529 -0.1461  0.1012
 2718SOL     hw10870   6.516   5.090   5.580 -1.4327 -0.0143  0.5344
 2718SOL     hw10871   6.486   5.149   5.716  1.4307 -0.3568  1.3752
 2718SOL     vw10872   6.533   5.148   5.643 -0.1125 -0.1564  0.3264
 2719SOL     ow10873   2.245   3.649   3.143  0.0158  0.2957  0.1659
 2719SOL     hw10874   2.203   3.606   3.069  2.6783 -0.7605 -0.8411
 2719SOL     hw10875   2.212   3.739   3.141  1.1320  0.7537 -3.2991
 2719SOL     vw10876   2.235   3.656   3.133  0.5144  0.2168 -0.4241
 2720SOL     ow10877   4.164   5.683   2.748  0.1316  0.5012  0.0064
 2720SOL     hw10878   4.152   5.613   2.812 -0.6289  0.0417 -0.6159
 2720SOL     hw10879   4.247   5.663   2.705  0.3001  0.4230  0.3656
 2720SOL     vw10880   4.173   5.671   2.750  0.0534  0.4301 -0.0284
 2721SOL     ow10881   3.910   4.549   3.381 -0.0516 -0.0656 -0.4871
 2721SOL     hw10882   3.999   4.528   3.353  0.0414 -0.1812 -0.1104
 2721SOL     hw10883   3.856   4.477   3.350 -0.1469  0.3809 -1.4007
 2721SOL     vw10884   3.914   4.537   3.374 -0.0517 -0.0219 -0.5579
 2722SOL     ow10885   0.322   0.751   6.754  0.0499 -0.7429  0.3529
 2722SOL     hw10886   0.331   0.815   6.825 -0.0946  0.2923 -0.5362
 2722SOL     hw10887   0.376   0.787   6.683 -0.5115 -1.2985 -0.3651
 2722SOL     vw10888   0.330   0.765   6.754 -0.0433 -0.6796  0.1407
 2723SOL     ow10889   2.140   3.252   1.464 -0.2970 -0.5270  0.1300
 2723SOL     hw10890   2.080   3.197   1.414  1.0726 -1.1174 -0.9243
 2723SOL     hw10891   2.227   3.231   1.429  0.3735  1.5211  0.4420
 2723SOL     vw10892   2.144   3.242   1.453 -0.0277 -0.3345  0.0320
 2724SOL     ow10893   5.317   3.157   6.541  0.0806  0.4113 -0.7415
 2724SOL     hw10894   5.372   3.203   6.478 -1.0627  5.3587  1.3715
 2724SOL     hw10895   5.378   3.114   6.600  1.2925 -0.4691 -2.5715
 2724SOL     vw10896   5.332   3.158   6.541  0.0894  0.9481 -0.7043
 2725SOL     ow10897   0.387   6.071   5.792 -0.2033 -0.5376  0.4128
 2725SOL     hw10898   0.349   6.149   5.831  0.8840 -0.2878  1.0254
 2725SOL     hw10899   0.445   6.105   5.723  0.7499 -0.7365  1.0869
 2725SOL     vw10900   0.390   6.086   5.788  0.0659 -0.5310  0.5827
 2726SOL     ow10901   3.980   4.239   0.616  0.2110 -0.0182  0.7649
 2726SOL     hw10902   3.937   4.172   0.562  1.3026  0.7502 -1.1890
 2726SOL     hw10903   3.915   4.309   0.623 -0.3222 -0.5670  1.3572
 2726SOL     vw10904   3.965   4.239   0.610  0.2847  0.0105  0.5853
 2727SOL     ow10905   6.261   1.448   0.502  0.3025  0.0609 -0.9018
 2727SOL     hw10906   6.226   1.419   0.418  2.5998 -1.5420 -1.4052
 2727SOL     hw10907   6.337   1.502   0.480  1.6510 -1.3322  0.0763
 2727SOL     vw10908   6.266   1.451   0.488  0.7839 -0.3344 -0.8392
 2728SOL     ow10909   1.130   1.881   2.951 -0.3739 -0.5299 -0.5305
 2728SOL     hw10910   1.171   1.830   2.882 -2.4481 -0.3218 -1.9946
 2728SOL     hw10911   1.069   1.939   2.906  0.3478  1.7738  1.2532
 2728SOL     vw10912   1.127   1.881   2.936 -0.5524 -0.1985 -0.4883
 2729SOL     ow10913   2.585   3.916   3.242 -0.0999  0.2477  0.2739
 2729SOL     hw10914   2.516   3.940   3.305  1.4873 -0.0182  2.2134
 2729SOL     hw10915   2.650   3.985   3.251  1.6085 -1.4022  1.3076
 2729SOL     vw10916   2.584   3.928   3.251  0.3350 -0.0050  0.6660
 2730SOL     ow10917   0.118   6.328   2.492  0.9958 -0.1122  0.0213
 2730SOL     hw10918   0.202   6.372   2.480  0.0457  1.5286 -1.0287
 2730SOL     hw10919   0.054   6.400   2.498 -0.4758 -1.3290 -0.4831
 2730SOL     vw10920   0.120   6.344   2.491  0.6763 -0.0560 -0.1838
 2731SOL     ow10921   2.624   3.143   3.848 -0.3176 -0.0121  0.4403
 2731SOL     hw10922   2.667   3.082   3.789 -1.7535 -2.1747  1.4941
 2731SOL     hw10923   2.557   3.186   3.794 -1.3639 -1.6925  0.3269
 2731SOL     vw10924   2.621   3.141   3.833 -0.6452 -0.5192  0.5642
 2732SOL     ow10925   4.587   5.729   7.294  0.0403 -0.2336  0.1152
 2732SOL     hw10926   4.578   5.654   7.234  0.7215  0.6026 -1.0823
 2732SOL     hw10927   4.546   5.700   7.375  0.2342 -1.8835 -0.3375
 2732SOL     vw10928   4.581   5.715   7.297  0.1562 -0.3412 -0.1025
 2733SOL     ow10929   6.103   2.014   3.023 -0.0247 -0.2632 -0.1854
 2733SOL     hw10930   6.094   2.084   2.958  0.0207  0.1117  0.2109
 2733SOL     hw10931   6.013   1.990   3.045 -0.0477  0.2736  0.3239
 2733SOL     vw10932   6.090   2.020   3.017 -0.0217 -0.1428 -0.0660
 2734SOL     ow10933   6.536   6.772   1.057 -0.3837  0.0254  0.1373
 2734SOL     hw10934   6.529   6.855   1.010  0.3294 -0.9170 -1.7352
 2734SOL     hw10935   6.447   6.752   1.084 -0.5781  1.3461  0.5610
 2734SOL     vw10936   6.523   6.780   1.054 -0.3154  0.0756 -0.0539
 2735SOL     ow10937   2.372   4.131   6.996 -0.3051 -0.4343  0.0293
 2735SOL     hw10938   2.375   4.161   7.086 -1.0742  0.5570 -0.2554
 2735SOL     hw10939   2.340   4.206   6.946  1.1656 -0.6045 -1.2434
 2735SOL     vw10940   2.368   4.145   7.001 -0.2124 -0.3259 -0.1760
 2736SOL     ow10941   4.879   4.185   7.341  0.7577 -0.3600 -0.1788
 2736SOL     hw10942   4.941   4.219   7.277  0.7548 -1.1254 -0.6004
 2736SOL     hw10943   4.863   4.095   7.313 -1.5009  0.1695 -0.8354
 2736SOL     vw10944   4.885   4.178   7.329  0.4597 -0.3912 -0.3209
 2737SOL     ow10945   1.992   7.404   4.274 -0.1466 -0.0310  0.3256
 2737SOL     hw10946   2.001   7.310   4.261  0.9960  0.0367  0.5176
 2737SOL     hw10947   2.073   7.441   4.238 -0.4272  0.8396  0.5641
 2737SOL     vw10948   2.004   7.397   4.268 -0.0329  0.0927  0.3824
 2738SOL     ow10949   0.650   0.089   6.212  0.1248 -0.5141  0.0556
 2738SOL     hw10950   0.579   0.130   6.164  0.2294 -0.4594 -0.0541
 2738SOL     hw10951   0.607   0.028   6.272 -0.0518 -0.0280  0.4328
 2738SOL     vw10952   0.635   0.087   6.213  0.1153 -0.4427  0.0908
 2739SOL     ow10953   0.550   5.934   6.362 -0.0746 -0.2050 -0.4991
 2739SOL     hw10954   0.565   6.028   6.361  0.8113 -0.2632  1.9617
 2739SOL     hw10955   0.498   5.919   6.441 -3.7210 -1.3905 -2.8579
 2739SOL     vw10956   0.545   5.945   6.372 -0.4388 -0.3691 -0.4857
 2740SOL     ow10957   2.692   7.470   3.708  0.1774  0.1539 -0.2528
 2740SOL     hw10958   2.709   7.473   3.614  2.6917 -2.4764 -0.0541
 2740SOL     hw10959   2.714   7.558   3.739 -0.5824  1.0371 -2.0637
 2740SOL     vw10960   2.697   7.482   3.700  0.4089 -0.0765 -0.4654
 2741SOL     ow10961   2.032   5.422   2.176  0.0385 -0.4708  0.2209
 2741SOL     hw10962   1.980   5.344   2.194 -0.9055  0.3513  1.1521
 2741SOL     hw10963   2.118   5.404   2.215 -0.1858 -1.0211  0.4660
 2741SOL     vw10964   2.036   5.410   2.183 -0.1155 -0.4349  0.3761
 2742SOL     ow10965   1.840   6.563   6.946 -0.7504  0.5604  0.3841
 2742SOL     hw10966   1.783   6.610   7.007  0.0634  1.1699  0.6857
 2742SOL     hw10967   1.826   6.607   6.862 -0.8321  0.6152  0.4258
 2742SOL     vw10968   1.831   6.575   6.943 -0.6537  0.6480  0.4294
 2743SOL     ow10969   6.314   5.912   0.926 -0.4116  0.2198 -0.0072
 2743SOL     hw10970   6.242   5.877   0.875 -0.5155  1.2417 -0.5904
 2743SOL     hw10971   6.392   5.898   0.871 -0.5543  1.5225 -0.5834
 2743SOL     vw10972   6.315   5.906   0.912 -0.4439  0.5264 -0.1601
 2744SOL     ow10973   4.236   1.506   5.704 -0.1050  0.4494  0.0290
 2744SOL     hw10974   4.305   1.531   5.643 -1.6482  0.9502 -1.6069
 2744SOL     hw10975   4.173   1.457   5.651 -0.5938 -0.7853  1.6650
 2744SOL     vw10976   4.237   1.503   5.689 -0.3734  0.3526  0.0291
 2745SOL     ow10977   1.334   2.563   1.196  0.1134 -0.1982  0.1546
 2745SOL     hw10978   1.294   2.496   1.253  0.1692 -1.1247 -0.8611
 2745SOL     hw10979   1.403   2.602   1.250 -0.4256 -0.4242  1.0276
 2745SOL     vw10980   1.338   2.559   1.211  0.0497 -0.3504  0.1358
 2746SOL     ow10981   2.348   7.397   4.206  0.2617  0.3835  0.7347
 2746SOL     hw10982   2.421   7.450   4.174 -0.0804  0.7679  0.5810
 2746SOL     hw10983   2.332   7.430   4.294 -0.6860  1.3315  0.2331
 2746SOL     vw10984   2.356   7.409   4.213  0.0916  0.5593  0.6483
 2747SOL     ow10985   0.454   5.611   6.429 -0.5964 -0.7455  0.5369
 2747SOL     hw10986   0.467   5.660   6.348  2.3334 -1.5472  0.3728
 2747SOL     hw10987   0.451   5.677   6.498 -0.7305 -0.1691 -0.0171
 2747SOL     vw10988   0.456   5.626   6.428 -0.2276 -0.7751  0.4420
 2748SOL     ow10989   3.918   2.081   3.535 -0.0067  0.6887 -0.0138
 2748SOL     hw10990   3.830   2.044   3.532 -0.0889  0.9206 -0.9773
 2748SOL     hw10991   3.919   2.134   3.614 -0.3264 -0.2881  0.6587
 2748SOL     vw10992   3.906   2.083   3.545 -0.0597  0.5904 -0.0522
 2749SOL     ow10993   6.055   1.102   4.812  0.0690 -0.4105 -0.0260
 2749SOL     hw10994   6.132   1.064   4.770  1.4524  0.1149  1.9020
 2749SOL     hw10995   6.000   1.130   4.739  1.3414 -1.4855 -1.4722
 2749SOL     vw10996   6.058   1.101   4.796  0.4199 -0.4831  0.0377
 2750SOL     ow10997   1.768   6.104   0.295 -0.4504 -0.3839 -0.2916
 2750SOL     hw10998   1.708   6.147   0.235  0.3162  0.7374 -0.2870
 2750SOL     hw10999   1.780   6.166   0.367 -1.5064 -1.7801  1.1637
 2750SOL     vw11000   1.762   6.118   0.297 -0.4886 -0.4203 -0.0990
 2751SOL     ow11001   4.366   4.755   4.632  0.2875 -0.0449 -0.4165
 2751SOL     hw11002   4.324   4.715   4.556 -0.4909  0.2074 -0.1313
 2751SOL     hw11003   4.446   4.704   4.645 -1.2662 -2.3829  0.6945
 2751SOL     vw11004   4.371   4.743   4.624 -0.0203 -0.3200 -0.2320
 2752SOL     ow11005   6.135   6.557   0.907  0.0169  0.4271  0.6116
 2752SOL     hw11006   6.058   6.541   0.961 -0.3021  1.1770  0.4012
 2752SOL     hw11007   6.203   6.587   0.968  0.6969 -1.8183  1.0431
 2752SOL     vw11008   6.134   6.559   0.922  0.0644  0.2298  0.6407
 2753SOL     ow11009   0.987   3.330   3.543  0.1324  0.2444 -0.9172
 2753SOL     hw11010   0.897   3.349   3.515 -0.0130  0.2284 -0.4556
 2753SOL     hw11011   1.040   3.352   3.466 -0.2920 -0.0348 -1.2996
 2753SOL     vw11012   0.982   3.336   3.529  0.0573  0.2054 -0.9067
 2754SOL     ow11013   6.760   6.620   0.216 -0.5644  0.3723 -0.1599
 2754SOL     hw11014   6.740   6.682   0.286 -0.3792  2.2738 -1.6961
 2754SOL     hw11015   6.703   6.646   0.144 -1.9355 -2.5629 -0.2697
 2754SOL     vw11016   6.750   6.631   0.216 -0.7212  0.2360 -0.3771
 2755SOL     ow11017   2.859   7.108   1.997 -0.3950  0.2297  0.3265
 2755SOL     hw11018   2.814   7.162   1.932  1.1336 -1.3592 -2.2241
 2755SOL     hw11019   2.890   7.171   2.062 -3.0729  1.7551  0.2904
 2755SOL     vw11020   2.857   7.124   1.997 -0.5467  0.2215 -0.0147
 2756SOL     ow11021   1.064   1.707   6.430 -0.5785 -0.8653  0.3505
 2756SOL     hw11022   1.081   1.801   6.429  0.6705 -1.0242 -2.6929
 2756SOL     hw11023   1.101   1.677   6.514 -0.0736  1.1786  0.9086
 2756SOL     vw11024   1.071   1.715   6.441 -0.3471 -0.6166  0.0226
 2757SOL     ow11025   1.331   1.436   5.775 -0.1741 -0.6558  0.0268
 2757SOL     hw11026   1.256   1.388   5.811 -1.0144 -1.3492 -2.4324
 2757SOL     hw11027   1.401   1.371   5.771  0.5284 -0.0813  2.0615
 2757SOL     vw11028   1.330   1.421   5.779 -0.1923 -0.6714 -0.0291
 2758SOL     ow11029   3.647   0.366   6.375  0.3155  0.2008  0.3287
 2758SOL     hw11030   3.708   0.401   6.439  1.1096 -1.0637  0.3084
 2758SOL     hw11031   3.662   0.271   6.377  0.8360  0.1590 -2.1631
 2758SOL     vw11032   3.657   0.358   6.384  0.4890  0.0284 -0.0026
 2759SOL     ow11033   7.274   2.606   1.164 -0.2968 -0.8111 -0.1481
 2759SOL     hw11034   7.363   2.608   1.130 -0.1863  1.1412  0.1509
 2759SOL     hw11035   7.226   2.670   1.110 -0.8630  0.0653  1.3171
 2759SOL     vw11036   7.279   2.615   1.152 -0.3572 -0.4379  0.0846
 2760SOL     ow11037   7.133   0.013   3.687 -0.0467 -0.3627 -0.1085
 2760SOL     hw11038   7.207   0.064   3.651 -0.5871 -0.1091 -0.8912
 2760SOL     hw11039   7.150   0.010   3.781  0.3090  0.7775 -0.1131
 2760SOL     vw11040   7.145   0.020   3.695 -0.0710 -0.1788 -0.2123
 2761SOL     ow11041   6.515   6.962   0.860  0.5301  0.0670  0.1104
 2761SOL     hw11042   6.601   6.998   0.841  0.2789  0.1431 -0.9543
 2761SOL     hw11043   6.495   6.907   0.784 -1.7700  2.6602 -1.3374
 2761SOL     vw11044   6.524   6.960   0.847  0.1936  0.4191 -0.2211
 2762SOL     ow11045   7.071   3.177   0.621  0.0888  0.0264 -0.1309
 2762SOL     hw11046   7.162   3.181   0.650 -0.3463  1.0777  1.1710
 2762SOL     hw11047   7.076   3.186   0.526  1.2759  1.1629  0.0090
 2762SOL     vw11048   7.084   3.179   0.612  0.1879  0.3151  0.0593
 2763SOL     ow11049   6.142   4.250   0.329  0.7622  0.8092  0.2920
 2763SOL     hw11050   6.225   4.236   0.375  0.5620  0.1011  0.4487
 2763SOL     hw11051   6.160   4.225   0.238  0.8842  1.2417  0.1961
 2763SOL     vw11052   6.156   4.245   0.323  0.7522  0.7730  0.3000
 2764SOL     ow11053   2.897   6.932   6.088  0.0149  0.2370 -0.6261
 2764SOL     hw11054   2.937   6.854   6.048  0.2964  1.1998 -2.3227
 2764SOL     hw11055   2.812   6.902   6.119  1.4059 -1.5489  1.8880
 2764SOL     vw11056   2.891   6.918   6.087  0.2356  0.1283 -0.5183
 2765SOL     ow11057   0.458   4.119   4.820  0.1061  0.1829 -0.1095
 2765SOL     hw11058   0.494   4.069   4.747  1.0746  1.4601 -0.5425
 2765SOL     hw11059   0.533   4.137   4.876 -0.2859  0.8685  0.2083
 2765SOL     vw11060   0.473   4.114   4.818  0.1822  0.4418 -0.1249
 2766SOL     ow11061   1.703   5.794   3.697 -0.0211 -0.0822  0.2188
 2766SOL     hw11062   1.661   5.864   3.647 -0.2350 -0.4716 -0.1474
 2766SOL     hw11063   1.787   5.832   3.724 -0.1905  0.3610  0.1362
 2766SOL     vw11064   1.709   5.808   3.694 -0.0716 -0.0751  0.1596
 2767SOL     ow11065   7.103   1.665   7.496 -0.1438  0.0758  0.1230
 2767SOL     hw11066   7.070   1.747   7.532  0.3961  0.3444  0.0149
 2767SOL     hw11067   7.117   1.609   7.573  0.0700  0.2996  0.2459
 2767SOL     vw11068   7.100   1.668   7.511 -0.0443  0.1408  0.1250
 2768SOL     ow11069   7.224   5.620   0.409 -0.0910  0.1227  0.0230
 2768SOL     hw11070   7.303   5.628   0.354 -0.7910  0.1863 -1.0086
 2768SOL     hw11071   7.179   5.544   0.374 -1.6694  1.4602 -1.0056
 2768SOL     vw11072   7.229   5.611   0.397 -0.3917  0.3076 -0.2488
 2769SOL     ow11073   2.667   2.344   0.437  0.1499  0.0739 -0.1513
 2769SOL     hw11074   2.684   2.323   0.345 -0.7057 -1.7706  0.0660
 2769SOL     hw11075   2.752   2.367   0.472  0.9355 -1.6084 -0.8477
 2769SOL     vw11076   2.680   2.344   0.429  0.1407 -0.3915 -0.2146
 2770SOL     ow11077   0.311   3.181   1.142  0.0233 -0.0770  0.3244
 2770SOL     hw11078   0.279   3.169   1.053 -1.9010  1.7288  0.7066
 2770SOL     hw11079   0.285   3.102   1.188 -1.9722  0.3727  0.0494
 2770SOL     vw11080   0.304   3.169   1.136 -0.4938  0.2207  0.3386
 2771SOL     ow11081   5.284   6.445   2.735 -0.0248  0.4143 -0.2172
 2771SOL     hw11082   5.222   6.374   2.752 -1.4715  1.4759 -0.8946
 2771SOL     hw11083   5.343   6.410   2.669 -1.6103  0.2910 -1.6229
 2771SOL     vw11084   5.284   6.431   2.729 -0.4251  0.5379 -0.4920
 2772SOL     ow11085   4.616   7.401   1.825 -0.2821 -0.0443  0.3810
 2772SOL     hw11086   4.709   7.396   1.803  0.0354  0.0685  1.6045
 2772SOL     hw11087   4.602   7.493   1.849 -1.1319  0.3438 -1.4698
 2772SOL     vw11088   4.626   7.413   1.825 -0.3524  0.0215  0.2982
 2773SOL     ow11089   2.836   0.455   7.077 -0.4748 -0.1006  0.1878
 2773SOL     hw11090   2.862   0.485   7.164  1.9765  0.7060 -0.7180
 2773SOL     hw11091   2.766   0.514   7.050 -1.0186 -0.1425  1.4436
 2773SOL     vw11092   2.831   0.467   7.085 -0.2232  0.0003  0.2341
 2774SOL     ow11093   0.880   1.563   2.543 -0.6783  0.1337 -0.0499
 2774SOL     hw11094   0.971   1.539   2.526  0.2348  2.5480  0.9611
 2774SOL     hw11095   0.859   1.625   2.473 -1.1022  0.5185  0.4087
 2774SOL     vw11096   0.889   1.568   2.531 -0.6138  0.5029  0.1440
 2775SOL     ow11097   0.585   1.671   3.567  0.1601 -0.1077 -0.0021
 2775SOL     hw11098   0.493   1.661   3.543  0.1056 -1.0666  0.5712
 2775SOL     hw11099   0.591   1.760   3.602 -0.5878 -0.0918  0.1020
 2775SOL     vw11100   0.573   1.681   3.569  0.0542 -0.2321  0.0873
 2776SOL     ow11101   3.135   5.907   1.664  0.0736  0.0073  0.0273
 2776SOL     hw11102   3.085   5.988   1.662 -0.8468 -0.5318  0.7071
 2776SOL     hw11103   3.105   5.862   1.743  1.0702 -0.6853  0.0294
 2776SOL     vw11104   3.125   5.912   1.674  0.0837 -0.1554  0.1172
 2777SOL     ow11105   5.697   5.052   3.184  0.0293  0.1201 -0.0564
 2777SOL     hw11106   5.629   5.118   3.197  0.5032  0.3318  1.5144
 2777SOL     hw11107   5.717   5.020   3.272 -0.5507 -2.5258 -0.8049
 2777SOL     vw11108   5.691   5.057   3.197  0.0155 -0.2012  0.0519
 2778SOL     ow11109   0.738   1.894   6.207 -0.4489 -0.0181 -0.3282
 2778SOL     hw11110   0.719   1.800   6.218 -0.0970 -0.2197 -1.3353
 2778SOL     hw11111   0.833   1.898   6.198 -0.5118  0.3722 -0.8535
 2778SOL     vw11112   0.748   1.882   6.207 -0.4108  0.0068 -0.5302
 2779SOL     ow11113   1.752   1.518   1.338  0.6093  0.1119  0.3951
 2779SOL     hw11114   1.765   1.497   1.431  0.9699 -0.6750  0.1750
 2779SOL     hw11115   1.807   1.455   1.291  0.8482  0.8511 -0.3389
 2779SOL     vw11116   1.761   1.507   1.344  0.6884  0.1056  0.2692
 2780SOL     ow11117   2.368   7.056   2.137  0.6545  0.5277  0.1407
 2780SOL     hw11118   2.279   7.042   2.104  1.7614 -0.1753 -2.9075
 2780SOL     hw11119   2.425   7.026   2.065  3.3668  1.0203  1.9345
 2780SOL     vw11120   2.364   7.050   2.123  1.1584  0.5000 -0.0247
 2781SOL     ow11121   2.815   3.415   3.514 -0.3535 -0.6713 -0.6589
 2781SOL     hw11122   2.894   3.467   3.525 -1.0515 -0.0151  2.1678
 2781SOL     hw11123   2.743   3.479   3.513 -0.9677 -1.3443 -1.5678
 2781SOL     vw11124   2.816   3.430   3.516 -0.5267 -0.6735 -0.4058
 2782SOL     ow11125   1.976   6.484   7.208 -0.0577 -0.1332  0.3404
 2782SOL     hw11126   1.888   6.451   7.226  0.1969 -1.3385 -0.4797
 2782SOL     hw11127   1.988   6.558   7.268 -1.5473 -0.0782  0.5925
 2782SOL     vw11128   1.966   6.490   7.218 -0.2207 -0.2849  0.2656
 2783SOL     ow11129   6.039   4.912   2.508  0.4592 -0.4009  0.3439
 2783SOL     hw11130   5.973   4.873   2.450 -1.1269  0.5717  1.3994
 2783SOL     hw11131   6.110   4.848   2.511 -0.5439 -1.6168 -0.6489
 2783SOL     vw11132   6.039   4.899   2.501  0.1173 -0.4332  0.3521
 2784SOL     ow11133   6.716   0.287   3.827  0.2694  0.1093 -0.1036
 2784SOL     hw11134   6.710   0.231   3.904  0.1546 -1.0883 -0.9453
 2784SOL     hw11135   6.797   0.337   3.840  0.5781 -0.5232  0.5119
 2784SOL     vw11136   6.726   0.286   3.839  0.2949 -0.1321 -0.1334
 2785SOL     ow11137   6.451   0.366   3.768  0.0217 -0.1774 -0.8407
 2785SOL     hw11138   6.525   0.311   3.794  0.1670 -0.0618 -1.0059
 2785SOL     hw11139   6.419   0.326   3.687 -0.9977 -1.0721 -0.0300
 2785SOL     vw11140   6.457   0.353   3.760 -0.0935 -0.2802 -0.7554
 2786SOL     ow11141   5.122   0.223   7.057  0.2148  0.7511 -0.1785
 2786SOL     hw11142   5.053   0.269   7.104 -1.4900 -1.4871 -0.3203
 2786SOL     hw11143   5.108   0.248   6.965 -2.4064 -1.8539 -0.6368
 2786SOL     vw11144   5.111   0.233   7.051 -0.3560  0.1121 -0.2580
 2787SOL     ow11145   2.889   0.721   1.867 -0.4815 -0.6148  0.1818
 2787SOL     hw11146   2.845   0.685   1.790 -0.3811  0.2598 -0.3032
 2787SOL     hw11147   2.847   0.806   1.881  0.4095 -0.1691  0.2605
 2787SOL     vw11148   2.878   0.728   1.859 -0.3507 -0.4406  0.1282
 2788SOL     ow11149   2.930   5.552   1.838 -0.2483  0.1656  0.3784
 2788SOL     hw11150   2.855   5.495   1.857  0.1148 -0.1503  0.8837
 2788SOL     hw11151   2.906   5.595   1.756 -1.9815  1.7468  1.6180
 2788SOL     vw11152   2.917   5.550   1.830 -0.4290  0.3324  0.6086
 2789SOL     ow11153   6.745   2.532   4.191 -0.5611 -0.0087  0.3225
 2789SOL     hw11154   6.712   2.446   4.216 -0.6318  0.5347  2.3207
 2789SOL     hw11155   6.835   2.517   4.165 -1.0846 -0.9081 -1.0697
 2789SOL     vw11156   6.752   2.519   4.191 -0.6394 -0.0557  0.4025
 2790SOL     ow11157   2.975   2.321   3.326  0.2060 -0.3948 -0.6676
 2790SOL     hw11158   3.003   2.394   3.380  0.2442  0.3165 -1.6194
 2790SOL     hw11159   2.989   2.244   3.380 -0.0255  0.3166  0.4266
 2790SOL     vw11160   2.980   2.320   3.340  0.1806 -0.2071 -0.6487
 2791SOL     ow11161   3.145   3.648   6.998 -0.0383  0.0565  0.2391
 2791SOL     hw11162   3.089   3.570   7.004 -0.7861  0.6531  1.3973
 2791SOL     hw11163   3.101   3.703   6.933  0.0143 -0.1039  0.0655
 2791SOL     vw11164   3.132   3.645   6.990 -0.1299  0.1141  0.3691
 2792SOL     ow11165   0.010   1.016   6.586  0.4714 -0.3070 -0.1758
 2792SOL     hw11166   0.049   0.951   6.644  1.1187  0.6108  0.4485
 2792SOL     hw11167  -0.080   1.025   6.618  0.3901 -0.8496 -0.2368
 2792SOL     vw11168   0.003   1.008   6.598  0.5461 -0.2575 -0.1013
 2793SOL     ow11169   4.400   6.630   0.664  0.0962  0.0107 -0.6859
 2793SOL     hw11170   4.324   6.652   0.719  0.4626 -0.5486  0.0733
 2793SOL     hw11171   4.413   6.707   0.609 -0.7781  0.2737 -0.5392
 2793SOL     vw11172   4.392   6.643   0.664  0.0291 -0.0284 -0.5664
 2794SOL     ow11173   1.035   2.252   7.337 -0.4110 -0.4355 -0.1828
 2794SOL     hw11174   1.091   2.314   7.384  0.3557 -1.2760  0.0420
 2794SOL     hw11175   0.949   2.263   7.376 -0.4694  1.0253 -0.6760
 2794SOL     vw11176   1.031   2.261   7.348 -0.3176 -0.3537 -0.2179
 2795SOL     ow11177   1.118   0.665   2.529  0.1781  0.5227 -0.2932
 2795SOL     hw11178   1.107   0.590   2.471 -0.3227 -0.4082  0.9532
 2795SOL     hw11179   1.103   0.741   2.473  3.5295 -0.0874 -2.2773
 2795SOL     vw11180   1.115   0.665   2.514  0.5542  0.3194 -0.3906
 2796SOL     ow11181   6.249   4.567   6.677  0.2088 -0.1879  0.5972
 2796SOL     hw11182   6.284   4.488   6.636 -1.7183 -0.3567 -0.8746
 2796SOL     hw11183   6.157   4.547   6.692 -0.5723  2.0887 -0.7293
 2796SOL     vw11184   6.242   4.554   6.673 -0.1485  0.0899  0.2282
 2797SOL     ow11185   7.098   0.411   4.306  0.3031  0.3885  0.1084
 2797SOL     hw11186   7.097   0.414   4.210  0.4977  0.4574  0.1075
 2797SOL     hw11187   7.091   0.503   4.332 -0.0696  0.3454  0.1647
 2797SOL     vw11188   7.097   0.423   4.296  0.2792  0.3919  0.1159
 2798SOL     ow11189   7.189   0.359   1.689  0.2917 -0.1744 -0.0650
 2798SOL     hw11190   7.146   0.343   1.773 -0.7867  2.6407  0.0306
 2798SOL     hw11191   7.282   0.364   1.711  0.0117  0.6637  1.0439
 2798SOL     vw11192   7.196   0.358   1.703  0.1125  0.3075  0.0940
 2799SOL     ow11193   7.412   4.543   4.750  0.2027 -0.4467  0.1115
 2799SOL     hw11194   7.360   4.578   4.677  1.4203  0.1987 -0.4697
 2799SOL     hw11195   7.406   4.610   4.818  3.0352  1.3209 -1.2242
 2799SOL     vw11196   7.404   4.557   4.749  0.7367 -0.1283 -0.1411
 2800SOL     ow11197   1.970   6.627   4.889  0.2072 -0.0300  0.4920
 2800SOL     hw11198   2.003   6.637   4.800 -1.8688 -0.7424 -0.4234
 2800SOL     hw11199   2.047   6.638   4.944  1.4076  1.3158 -1.3242
 2800SOL     vw11200   1.985   6.630   4.884  0.0917  0.0534  0.1314
 2801SOL     ow11201   3.913   0.800   7.481  0.3674  0.0505 -0.2718
 2801SOL     hw11202   3.934   0.733   7.415  0.6422  0.4000 -0.5441
 2801SOL     hw11203   3.921   0.754   7.565  0.4402 -0.2878 -0.4615
 2801SOL     vw11204   3.917   0.785   7.483  0.4132  0.0520 -0.3327
 2802SOL     ow11205   0.790   6.857   2.034  0.7976  0.4679 -0.5198
 2802SOL     hw11206   0.723   6.887   1.973  0.1980 -0.1426 -0.1771
 2802SOL     hw11207   0.808   6.767   2.007  0.5281  0.1926  0.2014
 2802SOL     vw11208   0.784   6.849   2.022  0.6830  0.3512 -0.3796
 2803SOL     ow11209   3.932   0.515   0.014 -1.1820  0.5697  0.4062
 2803SOL     hw11210   3.856   0.470   0.052 -0.3802 -0.3542  0.9523
 2803SOL     hw11211   3.897   0.557  -0.065 -2.5757  1.3951  1.4087
 2803SOL     vw11212   3.917   0.514   0.008 -1.2600  0.5567  0.6108
 2804SOL     ow11213   1.194   3.588   0.036 -0.2004  0.3063 -0.8675
 2804SOL     hw11214   1.260   3.655   0.051  0.7750 -0.7483 -0.3345
 2804SOL     hw11215   1.183   3.586  -0.059  0.5354  0.4915 -0.9633
 2804SOL     vw11216   1.201   3.597   0.025  0.0255  0.1917 -0.8097
 2805SOL     ow11217   1.680   4.506   1.651  0.5608  0.4470 -0.1991
 2805SOL     hw11218   1.685   4.431   1.592  1.0000  1.4397 -1.4672
 2805SOL     hw11219   1.724   4.477   1.730 -2.0678 -1.7382  0.6301
 2805SOL     vw11220   1.686   4.492   1.654  0.2719  0.2894 -0.2571
 2806SOL     ow11221   5.433   2.941   5.414  0.4723  0.0298  0.4228
 2806SOL     hw11222   5.443   2.986   5.498  0.0196 -1.1368  1.1294
 2806SOL     hw11223   5.439   2.848   5.436 -2.3082 -0.4294 -0.3995
 2806SOL     vw11224   5.435   2.934   5.428  0.0458 -0.1847  0.4077
 2807SOL     ow11225   2.784   5.148   1.025  0.3123 -0.0589  0.8467
 2807SOL     hw11226   2.848   5.078   1.019 -0.2140 -0.4731 -0.5896
 2807SOL     hw11227   2.776   5.181   0.935 -0.1668  1.1984  1.3148
 2807SOL     vw11228   2.791   5.143   1.012  0.1796  0.0522  0.7190
 2808SOL     ow11229   6.001   6.717   0.687  0.2366 -0.5216  0.1311
 2808SOL     hw11230   6.056   6.759   0.620  1.6517 -1.3026  0.7568
 2808SOL     hw11231   6.061   6.659   0.734  0.4200  2.9398  4.8566
 2808SOL     vw11232   6.016   6.715   0.684  0.4475 -0.1681  0.8371
 2809SOL     ow11233   5.605   3.882   2.414 -0.3035  0.9535  0.0956
 2809SOL     hw11234   5.532   3.848   2.466  0.8546  1.3465  2.0471
 2809SOL     hw11235   5.563   3.935   2.346 -1.8796  0.0526  0.3227
 2809SOL     vw11236   5.590   3.885   2.412 -0.3588  0.8864  0.3829
 2810SOL     ow11237   6.244   0.501   3.842 -0.1259 -0.1666 -0.6223
 2810SOL     hw11238   6.303   0.437   3.803 -1.6209 -0.4315 -2.6490
 2810SOL     hw11239   6.159   0.456   3.845 -0.6411  0.8199  0.4838
 2810SOL     vw11240   6.240   0.486   3.838 -0.3910 -0.0714 -0.7437
 2811SOL     ow11241   0.992   0.006   4.081 -0.1756  0.0699 -0.6036
 2811SOL     hw11242   0.983  -0.063   4.015 -0.4696  0.6213 -1.1481
 2811SOL     hw11243   1.040   0.076   4.037  0.8761 -0.1178  0.2075
 2811SOL     vw11244   0.997   0.006   4.067 -0.0756  0.1178 -0.5684
 2812SOL     ow11245   2.675   3.639   3.219  0.0016  0.2543  0.0298
 2812SOL     hw11246   2.770   3.634   3.234 -0.0451  0.5954  0.4536
 2812SOL     hw11247   2.649   3.548   3.203  0.1549 -0.0709  1.4947
 2812SOL     vw11248   2.684   3.626   3.219  0.0155  0.2564  0.2789
 2813SOL     ow11249   3.245   7.390   3.910 -0.3631 -0.4776  0.3996
 2813SOL     hw11250   3.169   7.442   3.937 -1.1192 -1.7473  0.8206
 2813SOL     hw11251   3.250   7.403   3.815 -0.4462  0.4731  0.5210
 2813SOL     vw11252   3.235   7.398   3.901 -0.4739 -0.5200  0.4711
 2814SOL     ow11253   4.698   2.524   0.383  0.2174  0.1675  0.1400
 2814SOL     hw11254   4.617   2.565   0.412  0.9620  1.5933  0.2721
 2814SOL     hw11255   4.754   2.597   0.357  1.2455 -0.8242 -0.5257
 2814SOL     vw11256   4.695   2.539   0.383  0.4513  0.2248  0.0696
 2815SOL     ow11257   6.379   1.215   0.665 -0.7689 -0.2741 -0.8454
 2815SOL     hw11258   6.372   1.129   0.707 -2.5121 -0.8197 -2.0916
 2815SOL     hw11259   6.472   1.228   0.650 -0.1331 -0.3632  2.4264
 2815SOL     vw11260   6.390   1.205   0.669 -0.9153 -0.3579 -0.5781
 2816SOL     ow11261   6.911   3.743   7.219  0.7928  0.6002  0.2632
 2816SOL     hw11262   6.995   3.709   7.187  0.6878  0.5745  0.0067
 2816SOL     hw11263   6.881   3.801   7.149  1.2610  1.7121  0.9665
 2816SOL     vw11264   6.918   3.746   7.205  0.8407  0.7434  0.3221
 2817SOL     ow11265   7.076   5.061   1.217 -0.4916 -0.0276  0.1115
 2817SOL     hw11266   7.014   5.007   1.168 -1.0141 -1.0805  1.8190
 2817SOL     hw11267   7.103   5.005   1.290  0.4539  1.3546  0.8703
 2817SOL     vw11268   7.071   5.046   1.220 -0.4358  0.0157  0.4370
 2818SOL     ow11269   0.616   1.849   3.958 -0.7463 -0.1315  0.4390
 2818SOL     hw11270   0.604   1.923   3.898  1.2825 -0.6417 -0.6913
 2818SOL     hw11271   0.662   1.887   4.033  2.6405 -0.5322 -1.2253
 2818SOL     vw11272   0.620   1.864   3.960 -0.0318 -0.2517  0.0703
 2819SOL     ow11273   5.367   2.372   4.590 -0.7119  1.0377  0.0160
 2819SOL     hw11274   5.273   2.389   4.599 -0.7399  1.3197 -0.7540
 2819SOL     hw11275   5.392   2.417   4.509  0.1626  1.2841  0.4072
 2819SOL     vw11276   5.358   2.380   4.581 -0.6003  1.1073 -0.0343
 2820SOL     ow11277   4.848   5.346   2.993 -0.0308  0.0957  0.0572
 2820SOL     hw11278   4.814   5.280   3.052  0.6294  0.0067  0.3431
 2820SOL     hw11279   4.906   5.400   3.047  0.5881  0.0051 -0.4970
 2820SOL     vw11280   4.852   5.345   3.008  0.1383  0.0720  0.0218
 2821SOL     ow11281   0.167   1.147   7.264  0.0918 -0.0180 -0.3892
 2821SOL     hw11282   0.212   1.195   7.334  0.9102  0.9917 -1.5470
 2821SOL     hw11283   0.199   1.057   7.272 -0.8844 -0.2555  1.3542
 2821SOL     vw11284   0.178   1.141   7.274  0.0710  0.0840 -0.3119
 2822SOL     ow11285   4.204   1.732   0.238  0.1195 -0.9498 -0.3121
 2822SOL     hw11286   4.293   1.767   0.232 -0.2266 -0.0504 -0.4132
 2822SOL     hw11287   4.149   1.802   0.203 -0.4210 -2.5306 -2.9260
 2822SOL     vw11288   4.208   1.746   0.232  0.0026 -1.0397 -0.6703
 2823SOL     ow11289   5.405   1.880   5.022 -0.3034  0.4498 -0.4459
 2823SOL     hw11290   5.482   1.922   4.984  0.0895 -0.2054 -0.3880
 2823SOL     hw11291   5.423   1.877   5.116  1.3885 -3.1271 -0.7254
 2823SOL     vw11292   5.417   1.885   5.029 -0.0284 -0.1085 -0.4752
 2824SOL     ow11293   1.062   7.087   3.904 -0.1078  0.0580 -0.4577
 2824SOL     hw11294   1.129   7.084   3.836 -1.7654 -1.0742 -2.1288
 2824SOL     hw11295   1.042   6.995   3.922 -0.2398  0.3556  1.0449
 2824SOL     vw11296   1.068   7.075   3.897 -0.3440 -0.0522 -0.4799
 2825SOL     ow11297   1.413   0.958   1.164 -0.7395 -0.1867  0.1577
 2825SOL     hw11298   1.459   0.887   1.119 -2.1983 -1.1493  0.1341
 2825SOL     hw11299   1.376   0.917   1.242 -0.2074  0.9363  1.0260
 2825SOL     vw11300   1.414   0.944   1.169 -0.8618 -0.1655  0.2692
 2826SOL     ow11301   5.773   6.368   5.198  0.1098  0.0472 -0.0121
 2826SOL     hw11302   5.848   6.315   5.173  0.0074 -0.3069  0.4168
 2826SOL     hw11303   5.775   6.370   5.294  0.9967  2.1018 -0.0287
 2826SOL     vw11304   5.783   6.361   5.208  0.2131  0.2713  0.0422
 2827SOL     ow11305   7.250   5.598   7.282 -0.3452 -0.0926  0.2897
 2827SOL     hw11306   7.202   5.673   7.246  0.3229  0.0357 -0.3497
 2827SOL     hw11307   7.241   5.607   7.377 -1.1618  0.2033  0.1950
 2827SOL     vw11308   7.243   5.609   7.290 -0.3648 -0.0365  0.1929
 2828SOL     ow11309   3.861   7.119   3.133  0.2449  0.1077 -0.1298
 2828SOL     hw11310   3.856   7.201   3.083  3.1284  1.3631  1.3781
 2828SOL     hw11311   3.802   7.133   3.207  1.5018  1.3525  0.6926
 2828SOL     vw11312   3.852   7.132   3.136  0.7911  0.4375  0.1776
 2829SOL     ow11313   7.266   1.740   6.260  0.0658 -0.0526  0.2299
 2829SOL     hw11314   7.189   1.718   6.314 -0.4752 -0.1767 -0.5750
 2829SOL     hw11315   7.318   1.798   6.316 -0.1121 -0.7598  1.1647
 2829SOL     vw11316   7.263   1.744   6.275 -0.0291 -0.1623  0.2472
 2830SOL     ow11317   1.047   2.618   4.141  0.1227  0.5723  0.2653
 2830SOL     hw11318   1.056   2.525   4.124 -1.3100  0.4399  0.1476
 2830SOL     hw11319   1.085   2.631   4.228  1.4547  0.1169 -0.2275
 2830SOL     vw11320   1.053   2.608   4.150  0.1094  0.4947  0.1850
 2831SOL     ow11321   6.352   5.921   2.164  0.0153  0.1433 -0.2616
 2831SOL     hw11322   6.312   5.907   2.079 -0.1826  0.7571 -0.2744
 2831SOL     hw11323   6.446   5.923   2.147 -0.0615  1.7919 -0.7243
 2831SOL     vw11324   6.359   5.920   2.151 -0.0210  0.4420 -0.3245
 2832SOL     ow11325   4.656   1.685   3.447  0.3284  0.1185  0.3979
 2832SOL     hw11326   4.609   1.619   3.498  2.0021 -0.7956  0.8179
 2832SOL     hw11327   4.674   1.755   3.509 -2.5093  1.6685 -0.3140
 2832SOL     vw11328   4.652   1.685   3.462  0.1750  0.2024  0.3594
 2833SOL     ow11329   3.879   5.520   2.640 -0.3745 -0.0464 -0.7509
 2833SOL     hw11330   3.801   5.501   2.692 -0.2351  0.2818 -0.4186
 2833SOL     hw11331   3.916   5.434   2.620 -0.5843 -0.1861 -0.5446
 2833SOL     vw11332   3.874   5.507   2.644 -0.3837 -0.0217 -0.6799
 2834SOL     ow11333   3.498   3.136   3.425  0.4024  0.0632  1.2144
 2834SOL     hw11334   3.516   3.083   3.347 -1.0702  1.0312  0.1409
 2834SOL     hw11335   3.445   3.080   3.481 -1.6044  0.4887 -0.1525
 2834SOL     vw11336   3.493   3.122   3.422 -0.0566  0.2471  0.8924
 2835SOL     ow11337   4.241   3.564   6.957  0.1591 -0.2339 -0.0666
 2835SOL     hw11338   4.239   3.468   6.963  1.1501 -0.2923 -0.4175
 2835SOL     hw11339   4.269   3.593   7.044  1.1723 -0.3462 -0.3422
 2835SOL     vw11340   4.245   3.555   6.969  0.4237 -0.2564 -0.1490
 2836SOL     ow11341   5.878   3.173   1.664  0.2994  0.1623 -0.0196
 2836SOL     hw11342   5.822   3.146   1.737  0.0653  0.8251  0.0511
 2836SOL     hw11343   5.819   3.178   1.589  0.0024  1.9614  0.2871
 2836SOL     vw11344   5.863   3.170   1.664  0.2296  0.4872  0.0302
 2837SOL     ow11345   1.958   1.309   6.182  0.0852 -0.3019 -0.0288
 2837SOL     hw11346   1.972   1.389   6.132 -0.9047 -0.1358 -0.0731
 2837SOL     hw11347   1.938   1.243   6.116 -0.2464 -0.3101  0.0765
 2837SOL     vw11348   1.957   1.311   6.167 -0.0891 -0.2811 -0.0205
 2838SOL     ow11349   2.701   0.183   6.280 -0.4431 -0.2241  0.1615
 2838SOL     hw11350   2.627   0.239   6.256 -0.9450 -0.7321  0.4773
 2838SOL     hw11351   2.671   0.139   6.360 -0.4518 -1.6847 -0.6296
 2838SOL     vw11352   2.687   0.185   6.288 -0.5105 -0.4839  0.0989
 2839SOL     ow11353   0.482   0.575   6.305  0.5263 -0.0802 -0.0923
 2839SOL     hw11354   0.482   0.612   6.217 -0.9098  0.4465  0.1050
 2839SOL     hw11355   0.456   0.647   6.362  0.1627 -0.7431  0.6046
 2839SOL     vw11356   0.478   0.589   6.301  0.2888 -0.0981  0.0257
 2840SOL     ow11357   2.284   1.281   7.344  0.4911 -0.2641  0.1792
 2840SOL     hw11358   2.367   1.270   7.391 -0.5063 -1.9048  1.7116
 2840SOL     hw11359   2.241   1.355   7.387  0.6266 -0.2022  0.2072
 2840SOL     vw11360   2.289   1.289   7.356  0.3774 -0.4724  0.3853
 2841SOL     ow11361   1.409   2.917   2.682  0.2548 -0.0472  0.0933
 2841SOL     hw11362   1.353   2.976   2.733  0.6206  0.0325  0.4109
 2841SOL     hw11363   1.395   2.831   2.721 -0.0625 -0.1190 -0.1833
 2841SOL     vw11364   1.400   2.914   2.694  0.2612 -0.0463  0.0987
 2842SOL     ow11365   4.426   5.308   2.405  0.0907 -0.5036 -0.2583
 2842SOL     hw11366   4.368   5.289   2.332 -0.8637 -1.5269  0.7306
 2842SOL     hw11367   4.438   5.224   2.449 -2.7409  0.5961  3.1599
 2842SOL     vw11368   4.420   5.294   2.401 -0.4089 -0.4933  0.3232
 2843SOL     ow11369   4.213   6.129   6.967 -0.0122  0.2405 -0.0032
 2843SOL     hw11370   4.162   6.082   7.033  0.3831 -1.2449 -0.7074
 2843SOL     hw11371   4.147   6.158   6.903 -0.6772  3.4009  1.8911
 2843SOL     vw11372   4.197   6.127   6.967 -0.0479  0.4616  0.1540
 2844SOL     ow11373   7.169   2.725   4.684  0.0277  0.1843  0.0185
 2844SOL     hw11374   7.163   2.719   4.589  0.5834 -1.6192  0.0566
 2844SOL     hw11375   7.084   2.691   4.715  0.5372 -1.0088  0.1662
 2844SOL     vw11376   7.157   2.720   4.675  0.1678 -0.2110  0.0432
 2845SOL     ow11377   1.654   5.548   5.899 -0.0720  0.4055 -0.4135
 2845SOL     hw11378   1.703   5.570   5.820  0.2210 -1.1701 -0.7032
 2845SOL     hw11379   1.571   5.511   5.867  0.8485 -2.1520 -0.1308
 2845SOL     vw11380   1.649   5.546   5.884  0.0881 -0.1397 -0.4144
 2846SOL     ow11381   7.379   4.277   4.877  0.6756 -0.0768  0.2480
 2846SOL     hw11382   7.363   4.359   4.831  0.6050 -0.1708  0.1037
 2846SOL     hw11383   7.346   4.292   4.965 -2.4062 -1.0107 -0.6187
 2846SOL     vw11384   7.372   4.289   4.882  0.2596 -0.2124  0.1144
 2847SOL     ow11385   3.909   3.909   7.226  0.4269  0.2151  0.0749
 2847SOL     hw11386   3.950   3.825   7.245  0.8244  0.6064  1.0109
 2847SOL     hw11387   3.852   3.926   7.302 -0.7019  0.1546 -0.7369
 2847SOL     vw11388   3.907   3.900   7.239  0.3303  0.2589  0.0913
 2848SOL     ow11389   7.402   6.820   7.113  0.6478  0.2385  0.1645
 2848SOL     hw11390   7.407   6.912   7.140  0.3384  0.1016  0.7009
 2848SOL     hw11391   7.360   6.776   7.186  1.4195 -0.4584  0.2080
 2848SOL     vw11392   7.397   6.827   7.126  0.7088  0.1283  0.2410
 2849SOL     ow11393   7.128   4.486   4.290 -0.6321  0.2286 -0.4418
 2849SOL     hw11394   7.144   4.392   4.278  1.4477  0.2710  1.3411
 2849SOL     hw11395   7.165   4.526   4.211  2.2819 -0.2422  0.5660
 2849SOL     vw11396   7.135   4.479   4.278  0.0267  0.1717 -0.0734
 2850SOL     ow11397   4.191   2.116   0.194 -0.7437 -0.0028  0.0015
 2850SOL     hw11398   4.281   2.149   0.198 -0.4405 -0.4478 -1.9988
 2850SOL     hw11399   4.141   2.188   0.156 -0.2239 -1.3440 -3.6246
 2850SOL     vw11400   4.197   2.130   0.189 -0.6354 -0.2385 -0.7409
 2851SOL     ow11401   2.114   6.721   6.646  0.1618  0.7244 -0.4210
 2851SOL     hw11402   2.146   6.645   6.598  2.0335  0.2670  1.3730
 2851SOL     hw11403   2.021   6.727   6.625  0.0077 -1.9694 -0.7498
 2851SOL     vw11404   2.106   6.712   6.637  0.3885  0.3088 -0.2279
 2852SOL     ow11405   0.652   5.927   5.868 -0.8933  0.3115 -0.3996
 2852SOL     hw11406   0.732   5.979   5.865 -1.5651  1.3770 -1.9005
 2852SOL     hw11407   0.672   5.849   5.817 -0.4478 -0.0071  0.2594
 2852SOL     vw11408   0.665   5.924   5.861 -0.9231  0.4103 -0.5107
 2853SOL     ow11409   3.467   2.832   3.867 -0.2854 -0.4940  0.1315
 2853SOL     hw11410   3.508   2.919   3.871  0.7333 -0.9411 -0.3010
 2853SOL     hw11411   3.408   2.830   3.943 -0.8188  0.8090 -0.2146
 2853SOL     vw11412   3.465   2.843   3.878 -0.2215 -0.3811  0.0287
 2854SOL     ow11413   4.602   3.646   6.186  0.4832 -1.2402  0.9560
 2854SOL     hw11414   4.679   3.595   6.209  0.8113 -0.7520  0.9518
 2854SOL     hw11415   4.561   3.596   6.115 -0.1073 -2.3372  2.0399
 2854SOL     vw11416   4.607   3.633   6.180  0.4482 -1.3206  1.0984
 2855SOL     ow11417   1.010   5.795   6.409  0.5367  0.6582 -0.1413
 2855SOL     hw11418   0.920   5.781   6.380 -0.3493 -0.9608  2.9433
 2855SOL     hw11419   1.052   5.710   6.399  0.1773  0.0041  2.9615
 2855SOL     vw11420   1.004   5.782   6.404  0.3724  0.3583  0.6750
 2856SOL     ow11421   4.928   4.374   5.726  0.4866 -0.0347 -0.2330
 2856SOL     hw11422   4.943   4.469   5.719 -0.4278  0.1934  0.7692
 2856SOL     hw11423   5.015   4.338   5.741  0.7105  0.7683  0.5235
 2856SOL     vw11424   4.942   4.382   5.727  0.3955  0.1011 -0.0007
 2857SOL     ow11425   0.975   6.845   4.199 -0.3191 -0.3901 -0.4232
 2857SOL     hw11426   0.964   6.817   4.108  0.4089 -0.4777 -0.4891
 2857SOL     hw11427   0.901   6.904   4.215  0.7353  1.4081 -1.7856
 2857SOL     vw11428   0.964   6.849   4.189 -0.0839 -0.1645 -0.6115
 2858SOL     ow11429   1.200   5.776   3.703  0.3887 -0.3603 -0.1630
 2858SOL     hw11430   1.116   5.799   3.666  0.6905  0.5947 -0.2707
 2858SOL     hw11431   1.179   5.739   3.789 -0.0200  3.1864  1.4530
 2858SOL     vw11432   1.186   5.774   3.710  0.3746  0.2337  0.0361
 2859SOL     ow11433   6.011   5.396   5.165 -0.3407 -0.2014 -0.0970
 2859SOL     hw11434   6.000   5.312   5.209 -1.4865 -1.5959 -2.8039
 2859SOL     hw11435   6.105   5.403   5.148 -0.0239 -0.1160  1.5522
 2859SOL     vw11436   6.022   5.386   5.168 -0.4501 -0.3743 -0.2365
 2860SOL     ow11437   3.527   5.419   1.442  0.0801 -0.3756 -0.2531
 2860SOL     hw11438   3.609   5.375   1.421  0.3073 -0.7815  1.3163
 2860SOL     hw11439   3.473   5.350   1.481 -1.0008 -0.0979 -1.1935
 2860SOL     vw11440   3.531   5.404   1.444 -0.0324 -0.3927 -0.1702
 2861SOL     ow11441   5.680   4.398   6.960 -0.2433  0.2897 -0.2381
 2861SOL     hw11442   5.657   4.487   6.984  0.1934  0.5329 -0.7038
 2861SOL     hw11443   5.616   4.373   6.893  1.0900  1.1529 -1.9183
 2861SOL     vw11444   5.669   4.406   6.954 -0.0098  0.4354 -0.5212
 2862SOL     ow11445   3.288   1.022   1.346  0.0351 -0.3033  0.0405
 2862SOL     hw11446   3.247   1.036   1.431  2.2828  0.4762  1.0617
 2862SOL     hw11447   3.330   0.936   1.353  0.4975 -0.0980 -0.1650
 2862SOL     vw11448   3.288   1.012   1.358  0.3927 -0.1733  0.1481
 2863SOL     ow11449   3.150   4.406   0.045 -0.0691  0.3400  0.1780
 2863SOL     hw11450   3.195   4.434   0.125  1.8143  0.6130 -0.9057
 2863SOL     hw11451   3.125   4.488   0.002  0.6194  0.2660 -0.3906
 2863SOL     vw11452   3.153   4.420   0.050  0.2702  0.3662 -0.0400
 2864SOL     ow11453   3.126   1.098   3.685 -0.0806  0.5755 -0.6022
 2864SOL     hw11454   3.206   1.045   3.680 -0.7414 -0.3479 -2.4429
 2864SOL     hw11455   3.151   1.175   3.737  1.4681 -0.5688  0.4220
 2864SOL     vw11456   3.140   1.101   3.691  0.0365  0.3027 -0.7100
 2865SOL     ow11457   6.451   4.230   2.141 -0.4555  0.5459 -0.2984
 2865SOL     hw11458   6.390   4.178   2.089  0.5553  0.2801 -1.2692
 2865SOL     hw11459   6.418   4.320   2.133 -0.0943  0.5855 -1.8142
 2865SOL     vw11460   6.439   4.235   2.133 -0.2747  0.5162 -0.6264
 2866SOL     ow11461   2.625   2.882   6.882 -0.4974 -0.1394  0.5180
 2866SOL     hw11462   2.667   2.801   6.854  0.6181  1.0495 -1.3942
 2866SOL     hw11463   2.672   2.907   6.962 -0.1078 -0.7651  0.4932
 2866SOL     vw11464   2.636   2.875   6.889 -0.2987 -0.0651  0.2627
 2867SOL     ow11465   2.797   2.944   7.083 -0.4544 -0.8913 -0.2552
 2867SOL     hw11466   2.843   3.028   7.087 -0.9179 -0.5466 -1.5266
 2867SOL     hw11467   2.753   2.937   7.168 -2.3862  1.3764 -0.9364
 2867SOL     vw11468   2.797   2.955   7.094 -0.7703 -0.5466 -0.5128
 2868SOL     ow11469   2.549   3.849   5.861  0.1999  0.2864  0.0064
 2868SOL     hw11470   2.517   3.913   5.797 -1.6544  0.7846  1.3364
 2868SOL     hw11471   2.487   3.777   5.856 -0.1154  0.4378  1.3651
 2868SOL     vw11472   2.536   3.848   5.852 -0.0864  0.3722  0.3614
 2869SOL     ow11473   2.824   5.221   4.625 -0.1757  0.6323 -0.1124
 2869SOL     hw11474   2.883   5.281   4.671  0.2328 -0.4243  0.7848
 2869SOL     hw11475   2.840   5.136   4.666 -0.8838 -0.0575 -1.2200
 2869SOL     vw11476   2.834   5.217   4.636 -0.2153  0.4022 -0.1402
 2870SOL     ow11477   3.184   7.203   6.382  0.3658 -0.2041  0.5609
 2870SOL     hw11478   3.133   7.125   6.360 -0.9207  0.5306  0.7913
 2870SOL     hw11479   3.252   7.172   6.441 -0.0095 -1.1785  0.4961
 2870SOL     vw11480   3.186   7.188   6.387  0.1464 -0.2356  0.5825
 2871SOL     ow11481   3.389   6.365   4.881  0.3912  0.4461  0.9552
 2871SOL     hw11482   3.352   6.298   4.824  2.2103  0.1671  0.0496
 2871SOL     hw11483   3.452   6.318   4.936  3.3234  1.6126 -1.1546
 2871SOL     vw11484   3.392   6.350   4.881  1.0182  0.5634  0.5572
 2872SOL     ow11485   3.879   4.199   0.099  0.7840  0.1175  0.3997
 2872SOL     hw11486   3.847   4.219   0.188  3.8817 -0.1265  1.6916
 2872SOL     hw11487   3.885   4.284   0.057  0.9457  0.4372  1.0480
 2872SOL     vw11488   3.876   4.213   0.105  1.2140  0.1273  0.6557
 2873SOL     ow11489   2.574   5.673   1.472 -0.0758  0.5286  0.5516
 2873SOL     hw11490   2.595   5.754   1.426  1.1417  0.2973  0.6781
 2873SOL     hw11491   2.579   5.606   1.404 -0.6972  0.4944  0.5307
 2873SOL     vw11492   2.577   5.675   1.457  0.0027  0.4935  0.5656
 2874SOL     ow11493   2.003   4.620   2.744 -0.4923  0.3281 -0.4676
 2874SOL     hw11494   2.098   4.618   2.753 -0.4251 -1.9004 -1.0206
 2874SOL     hw11495   1.986   4.686   2.677  0.8365 -0.4624 -1.6423
 2874SOL     vw11496   2.013   4.628   2.737 -0.3080 -0.0703 -0.6956
 2875SOL     ow11497   5.066   4.295   1.228 -0.0055 -0.7786 -0.3705
 2875SOL     hw11498   5.106   4.339   1.153 -0.4453 -0.2120 -0.2799
 2875SOL     hw11499   4.993   4.352   1.253  0.8382 -0.3575  1.2097
 2875SOL     vw11500   5.061   4.308   1.221  0.0479 -0.6483 -0.1501
 2876SOL     ow11501   5.712   4.939   7.194 -0.2018 -0.5585  0.1695
 2876SOL     hw11502   5.674   4.985   7.269 -0.8207  2.1660 -1.6533
 2876SOL     hw11503   5.805   4.964   7.195 -0.5704  1.0174 -0.9141
 2876SOL     vw11504   5.720   4.948   7.204 -0.3321  0.0088 -0.2139
 2877SOL     ow11505   5.902   6.947   4.219 -0.0282 -0.4609  0.5094
 2877SOL     hw11506   5.971   6.900   4.173  0.8176  0.6514  0.6075
 2877SOL     hw11507   5.835   6.962   4.152  1.2177  1.2004 -0.4598
 2877SOL     vw11508   5.902   6.943   4.204  0.2477 -0.0949  0.3946
 2878SOL     ow11509   4.190   2.183   5.427  0.6760 -0.4825 -0.1788
 2878SOL     hw11510   4.178   2.111   5.364  1.5235 -0.7731 -0.0162
 2878SOL     hw11511   4.279   2.172   5.459  0.7677  0.5673 -0.0471
 2878SOL     vw11512   4.200   2.172   5.423  0.8001 -0.3823 -0.1402
 2879SOL     ow11513   1.720   4.501   2.647 -0.4442  0.1920  0.6521
 2879SOL     hw11514   1.643   4.453   2.680  0.0258 -2.3019 -1.5611
 2879SOL     hw11515   1.684   4.566   2.587 -0.9048 -1.0084 -0.4255
 2879SOL     vw11516   1.705   4.503   2.644 -0.4429 -0.2956  0.2178
 2880SOL     ow11517   4.988   4.029   0.283 -0.4767  0.2358  0.0641
 2880SOL     hw11518   5.009   4.054   0.373 -1.2163  0.9491  0.0533
 2880SOL     hw11519   4.894   4.046   0.276 -0.1673  1.5894 -1.2743
 2880SOL     vw11520   4.978   4.035   0.294 -0.5336  0.5085 -0.1139
 2881SOL     ow11521   4.978   2.035   3.713  0.1356  0.0416 -0.4156
 2881SOL     hw11522   4.951   2.093   3.784 -1.6274 -2.1542  0.8436
 2881SOL     hw11523   5.007   2.094   3.643 -0.6898  2.3705  1.0993
 2881SOL     vw11524   4.979   2.051   3.713 -0.2060  0.0591 -0.0496
 2882SOL     ow11525   5.971   7.329   4.605 -0.2932 -0.0413  0.0488
 2882SOL     hw11526   5.902   7.395   4.617  0.3597  0.3992  1.6029
 2882SOL     hw11527   6.046   7.363   4.654 -0.3417 -2.5300  2.0549
 2882SOL     vw11528   5.972   7.342   4.613 -0.2134 -0.3116  0.5186
 2883SOL     ow11529   4.016   5.981   0.163 -0.0596  0.2893  0.1038
 2883SOL     hw11530   3.941   6.040   0.166  0.0648  0.4717 -0.3002
 2883SOL     hw11531   4.068   6.012   0.088  0.6039  0.3942  0.5933
 2883SOL     vw11532   4.013   5.993   0.154  0.0443  0.3271  0.1151
 2884SOL     ow11533   7.250   2.702   1.717  0.5688 -0.5743  0.0104
 2884SOL     hw11534   7.324   2.763   1.712 -0.5488  0.7354 -1.3806
 2884SOL     hw11535   7.231   2.695   1.810  0.9580  0.9460  0.2258
 2884SOL     vw11536   7.258   2.709   1.729  0.4725 -0.2010 -0.1447
 2885SOL     ow11537   3.890   0.947   4.825  0.0349  0.3645  0.2789
 2885SOL     hw11538   3.858   0.857   4.812 -0.7030  0.4946  1.0745
 2885SOL     hw11539   3.811   1.000   4.824  0.4895  1.0383 -0.3694
 2885SOL     vw11540   3.875   0.942   4.823 -0.0024  0.4705  0.2985
 2886SOL     ow11541   7.275   6.264   4.381 -0.4622 -0.5554  0.5548
 2886SOL     hw11542   7.323   6.240   4.460  1.8393  0.6150 -0.3593
 2886SOL     hw11543   7.229   6.344   4.404  0.5153  0.0014  0.6558
 2886SOL     vw11544   7.276   6.272   4.394 -0.0293 -0.3273  0.4475
 2887SOL     ow11545   0.702   7.147   2.352 -0.9059 -0.1252 -0.1792
 2887SOL     hw11546   0.687   7.060   2.315 -1.3306  0.1524 -0.6684
 2887SOL     hw11547   0.638   7.203   2.308 -0.5987  0.4452  0.0940
 2887SOL     vw11548   0.691   7.143   2.341 -0.9214 -0.0131 -0.2078
 2888SOL     ow11549   6.146   6.263   3.352  0.0016 -0.6419  0.9774
 2888SOL     hw11550   6.211   6.255   3.422  0.2712  0.6066  0.8963
 2888SOL     hw11551   6.197   6.292   3.276 -0.1740 -2.6175  0.0516
 2888SOL     vw11552   6.161   6.266   3.351  0.0138 -0.7381  0.8446
 2889SOL     ow11553   2.937   3.044   4.635 -0.7053 -0.3982 -0.3620
 2889SOL     hw11554   2.957   2.996   4.715  0.9598  1.2831  0.2979
 2889SOL     hw11555   2.904   3.129   4.665  0.1577  0.3477 -1.4184
 2889SOL     vw11556   2.935   3.049   4.649 -0.3716 -0.0778 -0.4141
 2890SOL     ow11557   5.383   7.294   2.360 -0.0796 -0.4895 -0.6418
 2890SOL     hw11558   5.396   7.338   2.276  0.3081  1.6501  0.4735
 2890SOL     hw11559   5.425   7.209   2.349  0.2970 -0.1103 -2.4783
 2890SOL     vw11560   5.390   7.289   2.347  0.0212 -0.1571 -0.7370
 2891SOL     ow11561   5.125   0.917   7.384  0.9120 -0.0528  0.6797
 2891SOL     hw11562   5.126   1.010   7.361  0.7381  0.0565  1.0964
 2891SOL     hw11563   5.032   0.896   7.396  1.0219  0.1212  2.1095
 2891SOL     vw11564   5.113   0.927   7.383  0.9036 -0.0154  0.9234
 2892SOL     ow11565   7.040   0.658   5.411 -0.0717  0.6597 -0.5935
 2892SOL     hw11566   6.974   0.629   5.473  0.2999 -0.5347 -0.7388
 2892SOL     hw11567   7.048   0.586   5.348  1.1372  0.9125 -0.7584
 2892SOL     vw11568   7.032   0.645   5.411  0.1366  0.5355 -0.6344
 2893SOL     ow11569   1.558   7.491   5.772  0.2013  0.0920  0.4675
 2893SOL     hw11570   1.569   7.406   5.729 -0.4769 -1.2301  2.7457
 2893SOL     hw11571   1.555   7.554   5.700 -0.4945 -1.9279 -1.3674
 2893SOL     vw11572   1.559   7.488   5.757  0.0200 -0.3486  0.5260
 2894SOL     ow11573   7.446   6.496   4.864 -0.0229 -0.2272 -0.0421
 2894SOL     hw11574   7.373   6.555   4.843  0.2785  0.9132  1.8291
 2894SOL     hw11575   7.436   6.422   4.805 -1.4275  0.9172 -1.3084
 2894SOL     vw11576   7.435   6.494   4.853 -0.1684  0.0746  0.0374
 2895SOL     ow11577   7.004   4.864   0.498 -0.9533 -0.2705 -0.1041
 2895SOL     hw11578   6.951   4.816   0.562  1.9268 -1.3197  1.7207
 2895SOL     hw11579   7.001   4.955   0.529 -0.6380 -0.5513  0.7956
 2895SOL     vw11580   6.996   4.870   0.511 -0.5319 -0.4458  0.2554
 2896SOL     ow11581   6.155   5.104   1.968 -0.2773  0.3416 -0.6894
 2896SOL     hw11582   6.094   5.096   1.894 -2.0447 -0.5620  0.7874
 2896SOL     hw11583   6.100   5.098   2.045  1.6595  0.0995  0.7423
 2896SOL     vw11584   6.140   5.102   1.968 -0.2551  0.1905 -0.3057
 2897SOL     ow11585   4.712   7.290   0.865 -0.1410 -0.5938 -0.0993
 2897SOL     hw11586   4.802   7.321   0.874 -0.8434  1.4553  0.2905
 2897SOL     hw11587   4.658   7.364   0.893 -1.9647 -1.6688 -0.6182
 2897SOL     vw11588   4.716   7.304   0.870 -0.4742 -0.4652 -0.1163
 2898SOL     ow11589   5.897   4.630   1.988 -0.2006  0.4437  0.2876
 2898SOL     hw11590   5.817   4.595   1.949  0.8485 -2.4202  0.4452
 2898SOL     hw11591   5.867   4.684   2.060 -2.0187  0.7670 -0.6543
 2898SOL     vw11592   5.882   4.632   1.992 -0.3021  0.1085  0.1841
 2899SOL     ow11593   0.618   6.595   2.311  0.3926  0.5944 -0.1737
 2899SOL     hw11594   0.558   6.544   2.366  1.5455 -0.4566  0.1379
 2899SOL     hw11595   0.642   6.536   2.241  0.4806  1.2785 -0.7296
 2899SOL     vw11596   0.613   6.581   2.309  0.5563  0.5462 -0.2059
 2900SOL     ow11597   4.804   5.430   5.713 -0.1555 -0.0490  0.3199
 2900SOL     hw11598   4.752   5.351   5.699  2.8586 -1.8235 -1.8833
 2900SOL     hw11599   4.862   5.409   5.786  0.0498  0.4798  0.3134
 2900SOL     vw11600   4.805   5.417   5.720  0.2692 -0.2134  0.0281
 2901SOL     ow11601   1.933   5.805   4.062 -0.2567 -0.5780 -0.8927
 2901SOL     hw11602   1.929   5.870   4.132  0.1044 -0.9016 -0.5640
 2901SOL     hw11603   2.025   5.778   4.060 -0.2748 -0.6124 -1.4559
 2901SOL     vw11604   1.945   5.810   4.071 -0.2115 -0.6251 -0.9236
 2902SOL     ow11605   3.157   1.270   7.175  0.2227 -0.0902 -0.9273
 2902SOL     hw11606   3.077   1.248   7.223 -0.3475 -0.4180 -2.0047
 2902SOL     hw11607   3.212   1.192   7.183 -0.6134 -0.8555 -2.3030
 2902SOL     vw11608   3.154   1.257   7.183  0.0372 -0.2344 -1.2510
 2903SOL     ow11609   4.905   6.065   3.970  0.6233 -0.0173  0.5154
 2903SOL     hw11610   4.828   6.044   4.022  0.9409 -1.5703  0.4232
 2903SOL     hw11611   4.912   5.992   3.909  0.1931  1.7879 -1.8328
 2903SOL     vw11612   4.896   6.052   3.969  0.6082  0.0160  0.1935
 2904SOL     ow11613   4.504   4.346   4.022  0.1027 -0.3690  0.4955
 2904SOL     hw11614   4.442   4.362   3.951  0.4035  0.2270  0.3617
 2904SOL     hw11615   4.523   4.433   4.057  0.7617 -0.5604  0.6198
 2904SOL     vw11616   4.498   4.360   4.017  0.2294 -0.3157  0.4942
 2905SOL     ow11617   4.167   3.833   5.876  0.0818 -0.5170  0.4659
 2905SOL     hw11618   4.099   3.896   5.898 -2.3648 -1.9140 -2.4315
 2905SOL     hw11619   4.241   3.858   5.931 -1.5768  3.2336  1.3076
 2905SOL     vw11620   4.168   3.845   5.886 -0.4599 -0.2065  0.1948
 2906SOL     ow11621   4.539   4.337   1.078 -1.1496  0.8352  0.0989
 2906SOL     hw11622   4.535   4.241   1.078 -2.5180  0.8769 -1.0207
 2906SOL     hw11623   4.539   4.360   1.171 -0.4074 -0.2500  0.3932
 2906SOL     vw11624   4.539   4.327   1.090 -1.2324  0.6974 -0.0101
 2907SOL     ow11625   2.211   3.685   1.374 -0.3621 -0.0855 -0.3487
 2907SOL     hw11626   2.198   3.711   1.283  0.7802  0.0532 -0.4925
 2907SOL     hw11627   2.149   3.613   1.388 -1.7560  1.0079 -0.7020
 2907SOL     vw11628   2.201   3.679   1.364 -0.3953  0.0770 -0.4143
 2908SOL     ow11629   3.019   6.165   3.078 -0.7891 -0.0960 -0.8656
 2908SOL     hw11630   3.012   6.182   2.984 -0.6102 -0.2796 -0.9121
 2908SOL     hw11631   2.976   6.080   3.090  0.4414 -0.7489 -0.9962
 2908SOL     vw11632   3.012   6.156   3.067 -0.6031 -0.2062 -0.8889
 2909SOL     ow11633   4.935   5.871   3.804 -0.2643  0.5526  0.3399
 2909SOL     hw11634   5.015   5.822   3.788 -0.2927  0.5512  0.2005
 2909SOL     hw11635   4.876   5.809   3.847 -1.3183 -0.4125 -2.2832
 2909SOL     vw11636   4.938   5.857   3.807 -0.4070  0.4251 -0.0246
 2910SOL     ow11637   7.255   3.897   5.223  0.0265  0.1580 -0.4764
 2910SOL     hw11638   7.333   3.941   5.259 -0.1052  0.3453 -0.4194
 2910SOL     hw11639   7.192   3.897   5.295  0.0774 -0.2554 -0.4319
 2910SOL     vw11640   7.257   3.903   5.238  0.0157  0.1284 -0.4630
 2911SOL     ow11641   1.130   7.468   0.706 -0.0825 -0.3756 -0.5837
 2911SOL     hw11642   1.040   7.451   0.735  0.0592 -0.4752 -0.1807
 2911SOL     hw11643   1.183   7.411   0.762  0.4150  1.3446  0.7678
 2911SOL     vw11644   1.125   7.458   0.718  0.0019 -0.1616 -0.3522
 2912SOL     ow11645   1.848   2.765   5.165  0.5026  0.1442  0.8296
 2912SOL     hw11646   1.921   2.709   5.194 -0.3018 -0.7464  1.1728
 2912SOL     hw11647   1.881   2.807   5.086  1.2572 -0.5561  0.7550
 2912SOL     vw11648   1.862   2.763   5.158  0.4960 -0.0657  0.8652
 2913SOL     ow11649   6.834   0.238   1.791  0.0887  0.1683 -0.1587
 2913SOL     hw11650   6.806   0.328   1.806 -1.9191 -0.4934  0.3444
 2913SOL     hw11651   6.911   0.228   1.848 -2.7233  0.0722  4.1233
 2913SOL     vw11652   6.841   0.249   1.801 -0.5469  0.0683  0.4727
 2914SOL     ow11653   5.825   0.051   1.170 -0.5402  0.1946  0.6679
 2914SOL     hw11654   5.820   0.066   1.265 -2.3116  2.0005  0.3630
 2914SOL     hw11655   5.737   0.022   1.146 -0.9545  2.4427 -0.7777
 2914SOL     vw11656   5.813   0.049   1.179 -0.8285  0.7295  0.4370
 2915SOL     ow11657   4.394   6.140   1.979 -0.6759 -0.0999  0.2362
 2915SOL     hw11658   4.374   6.052   1.945 -0.7111 -0.0098  0.0203
 2915SOL     hw11659   4.406   6.193   1.901  1.3338 -0.3457  0.3344
 2915SOL     vw11660   4.393   6.135   1.964 -0.4156 -0.1206  0.2207
 2916SOL     ow11661   0.713   2.197   4.310  0.0863 -0.5607  0.0560
 2916SOL     hw11662   0.618   2.198   4.317  0.1919 -0.9310  2.2283
 2916SOL     hw11663   0.744   2.203   4.400  2.1718  1.8158 -0.6998
 2916SOL     vw11664   0.705   2.198   4.323  0.3754 -0.2959  0.2429
 2917SOL     ow11665   0.802   1.448   6.194 -0.4595 -0.3205  0.3685
 2917SOL     hw11666   0.761   1.365   6.170  1.3251 -1.0384 -0.3770
 2917SOL     hw11667   0.847   1.476   6.114 -0.6509  1.1433  0.7476
 2917SOL     vw11668   0.802   1.441   6.180 -0.2493 -0.2221  0.3200
 2918SOL     ow11669   3.912   1.272   5.180 -0.4799  0.3733  0.0464
 2918SOL     hw11670   3.877   1.339   5.122  0.0641  0.1543 -0.5393
 2918SOL     hw11671   3.843   1.259   5.246 -1.3557  0.1857 -0.8876
 2918SOL     vw11672   3.898   1.279   5.181 -0.5236  0.3197 -0.1543
 2919SOL     ow11673   0.040   5.433   4.230  0.2118 -0.4454  0.1432
 2919SOL     hw11674  -0.009   5.362   4.272  0.5330 -0.0067  1.2944
 2919SOL     hw11675   0.054   5.497   4.300 -0.9909  1.2765 -1.1084
 2919SOL     vw11676   0.035   5.432   4.245  0.0955 -0.1602  0.1302
 2920SOL     ow11677   0.363   6.404   2.428  0.0634 -0.4511 -0.0619
 2920SOL     hw11678   0.347   6.487   2.384  1.4907  1.1139  2.1726
 2920SOL     hw11679   0.342   6.337   2.363 -3.3096  1.5497 -1.2228
 2920SOL     vw11680   0.358   6.406   2.414 -0.1934  0.0196  0.0799
 2921SOL     ow11681   0.584   5.801   7.402  0.0550 -0.3887 -0.0838
 2921SOL     hw11682   0.531   5.738   7.450  1.0791 -0.3225  1.1743
 2921SOL     hw11683   0.663   5.813   7.455  1.3410 -0.4564 -1.8796
 2921SOL     vw11684   0.587   5.794   7.415  0.3598 -0.3891 -0.1547
 2922SOL     ow11685   6.509   0.477   4.544  0.1642  0.6619  0.3337
 2922SOL     hw11686   6.442   0.408   4.544  0.5797  0.1943 -2.0483
 2922SOL     hw11687   6.488   0.529   4.622 -2.5276  0.1066  0.1031
 2922SOL     vw11688   6.497   0.475   4.555 -0.1361  0.5269 -0.0107
 2923SOL     ow11689   0.882   2.893   6.681 -0.0280  0.3555  0.2782
 2923SOL     hw11690   0.972   2.877   6.709 -0.4119  1.6144  2.4282
 2923SOL     hw11691   0.890   2.956   6.609  0.8047  0.2247  0.2453
 2923SOL     vw11692   0.895   2.899   6.675  0.0313  0.5043  0.5577
 2924SOL     ow11693   1.427   2.943   2.409 -0.0549 -0.6441 -0.5133
 2924SOL     hw11694   1.434   2.931   2.503  0.6485 -1.0204 -0.6123
 2924SOL     hw11695   1.458   2.861   2.371 -1.8191 -1.1159 -1.0598
 2924SOL     vw11696   1.432   2.931   2.416 -0.1948 -0.7561 -0.5984
 2925SOL     ow11697   4.748   7.369   4.190 -0.1255 -0.3693 -0.5001
 2925SOL     hw11698   4.746   7.309   4.264  1.3405  0.5624  0.3587
 2925SOL     hw11699   4.829   7.348   4.143  1.5618  2.1975  1.0213
 2925SOL     vw11700   4.759   7.358   4.193  0.2906  0.0923 -0.1860
 2926SOL     ow11701   2.755   4.709   1.515 -0.6478 -0.1302  0.2770
 2926SOL     hw11702   2.762   4.778   1.448  3.6617  3.2029  3.5957
 2926SOL     hw11703   2.803   4.635   1.477  1.3496  1.5053 -0.5663
 2926SOL     vw11704   2.762   4.708   1.501  0.1842  0.5257  0.6037
 2927SOL     ow11705   0.526   6.106   6.057  0.2800  0.3091  0.0612
 2927SOL     hw11706   0.619   6.128   6.069  0.0189  0.7172  1.4929
 2927SOL     hw11707   0.479   6.168   6.113 -0.8542 -0.0600 -0.4482
 2927SOL     vw11708   0.532   6.117   6.066  0.0960  0.3140  0.1829
 2928SOL     ow11709   3.741   4.078   7.401 -0.2703 -0.2122 -0.7168
 2928SOL     hw11710   3.802   4.126   7.456  0.7389  0.5401 -2.3903
 2928SOL     hw11711   3.657   4.084   7.446  0.1989  1.6385 -0.0107
 2928SOL     vw11712   3.738   4.085   7.414 -0.0752  0.1314 -0.8442
 2929SOL     ow11713   0.394   2.026   3.747 -0.6286  0.7850  0.1197
 2929SOL     hw11714   0.424   2.107   3.789 -0.0066  1.2797 -1.2170
 2929SOL     hw11715   0.314   2.003   3.793  0.5638  0.7019  2.2692
 2929SOL     vw11716   0.387   2.034   3.758 -0.3892  0.8392  0.2270
 2930SOL     ow11717   1.243   1.915   1.433 -0.2336 -0.1590  0.1532
 2930SOL     hw11718   1.211   1.929   1.522 -0.5825  2.7441 -0.3306
 2930SOL     hw11719   1.337   1.930   1.438 -0.6340  3.6383 -0.4118
 2930SOL     vw11720   1.251   1.919   1.445 -0.3325  0.7251  0.0148
 2931SOL     ow11721   4.418   4.385   4.566  0.6175  0.1317  0.5281
 2931SOL     hw11722   4.417   4.363   4.473 -1.4464  2.4599 -0.1045
 2931SOL     hw11723   4.346   4.334   4.603 -1.9762  2.8660 -0.2963
 2931SOL     vw11724   4.408   4.376   4.559  0.0031  0.7999  0.3359
 2932SOL     ow11725   0.618   2.654   6.030  0.0309 -0.2038 -0.3476
 2932SOL     hw11726   0.538   2.661   5.978  0.3612 -1.9227 -1.1603
 2932SOL     hw11727   0.671   2.730   6.003 -1.8327  1.7776  1.2464
 2932SOL     vw11728   0.615   2.665   6.019 -0.1714 -0.1689 -0.2446
 2933SOL     ow11729   0.628   5.590   3.538 -0.6134  0.2812  0.6164
 2933SOL     hw11730   0.596   5.501   3.551 -0.5593  0.6759  4.2370
 2933SOL     hw11731   0.597   5.613   3.450 -0.9725 -3.0911 -0.3051
 2933SOL     vw11732   0.620   5.581   3.528 -0.6536 -0.1116  0.9725
 2934SOL     ow11733   6.774   0.919   5.221 -0.0776 -0.2748  0.0792
 2934SOL     hw11734   6.742   0.940   5.309  0.3314  1.3588 -0.1220
 2934SOL     hw11735   6.764   1.001   5.172  3.4026  0.0695 -0.2831
 2934SOL     vw11736   6.769   0.933   5.226  0.4354 -0.0138  0.0050
 2935SOL     ow11737   1.667   2.646   2.572 -0.3341  0.1475  0.5727
 2935SOL     hw11738   1.735   2.579   2.578 -1.1240 -0.7062  0.2289
 2935SOL     hw11739   1.585   2.597   2.571 -0.9532  1.1551  0.8581
 2935SOL     vw11740   1.665   2.631   2.572 -0.5201  0.1677  0.5649
 2936SOL     ow11741   3.145   5.319   6.625 -0.5070  0.7208  0.1345
 2936SOL     hw11742   3.212   5.262   6.587 -0.8702  0.2743  0.1570
 2936SOL     hw11743   3.100   5.357   6.550 -1.2308 -0.1687  0.1007
 2936SOL     vw11744   3.148   5.316   6.610 -0.6503  0.5445  0.1330
 2937SOL     ow11745   6.076   4.350   2.809  0.4850 -0.0020  0.2670
 2937SOL     hw11746   6.167   4.356   2.781  0.3173 -0.4419 -0.4052
 2937SOL     hw11747   6.069   4.411   2.882  1.5778 -0.7741  1.0358
 2937SOL     vw11748   6.087   4.359   2.815  0.6073 -0.1616  0.2798
 2938SOL     ow11749   3.218   3.416   1.192  0.4505 -0.4870  0.7486
 2938SOL     hw11750   3.204   3.468   1.113 -0.1835 -1.3601  0.2646
 2938SOL     hw11751   3.206   3.478   1.264 -2.8604 -0.3842  0.3036
 2938SOL     vw11752   3.214   3.431   1.191 -0.0700 -0.5887  0.6260
 2939SOL     ow11753   2.064   0.862   2.518  0.4887 -0.2367 -0.1414
 2939SOL     hw11754   2.149   0.829   2.548 -0.5123 -2.2385  0.7122
 2939SOL     hw11755   2.043   0.934   2.577 -0.2775 -2.4770  2.5488
 2939SOL     vw11756   2.072   0.867   2.529  0.2556 -0.7964  0.3263
 2940SOL     ow11757   3.120   4.441   6.461 -0.1125  0.6208  0.0735
 2940SOL     hw11758   3.060   4.404   6.525 -0.7985  2.0909  0.3386
 2940SOL     hw11759   3.097   4.398   6.378  0.1210 -0.5717  0.6082
 2940SOL     vw11760   3.109   4.431   6.458 -0.1721  0.6576  0.1791
 2941SOL     ow11761   0.575   3.400   0.740  0.3473  0.4083 -0.2527
 2941SOL     hw11762   0.642   3.469   0.747 -0.2383  0.9602  0.0291
 2941SOL     hw11763   0.584   3.351   0.821  0.3740  0.5201 -0.1871
 2941SOL     vw11764   0.585   3.403   0.752  0.2736  0.4959 -0.2069
 2942SOL     ow11765   3.292   2.603   3.545 -0.8388  0.0665  0.3371
 2942SOL     hw11766   3.205   2.598   3.506 -0.7792  0.2365  0.1777
 2942SOL     hw11767   3.348   2.555   3.484 -0.9169 -0.5321  0.7295
 2942SOL     vw11768   3.288   2.596   3.532 -0.8413  0.0100  0.3676
 2943SOL     ow11769   1.711   1.766   5.210 -0.6017  0.2965 -0.1290
 2943SOL     hw11770   1.635   1.708   5.206  0.2321 -0.9070  1.1223
 2943SOL     hw11771   1.674   1.853   5.194 -2.0424 -0.4143 -0.8604
 2943SOL     vw11772   1.696   1.770   5.207 -0.6818  0.0439 -0.0606
 2944SOL     ow11773   4.732   2.116   1.282  0.1239  0.0058 -0.1694
 2944SOL     hw11774   4.741   2.076   1.195 -0.1345  0.7646 -0.5554
 2944SOL     hw11775   4.759   2.047   1.343 -0.5247 -0.8312 -0.8011
 2944SOL     vw11776   4.737   2.102   1.279  0.0043 -0.0044 -0.3036
 2945SOL     ow11777   2.578   3.151   2.599 -0.7064  0.0351  0.3308
 2945SOL     hw11778   2.501   3.095   2.602 -2.8808  2.5073 -2.3382
 2945SOL     hw11779   2.633   3.112   2.531  0.8012 -1.9941  2.5549
 2945SOL     vw11780   2.575   3.139   2.590 -0.7943  0.0936  0.2722
 2946SOL     ow11781   1.542   1.037   2.565  0.2744 -0.2951  0.2548
 2946SOL     hw11782   1.621   1.051   2.616 -0.0627 -0.2411  0.7632
 2946SOL     hw11783   1.488   1.114   2.583  0.5905  0.2517 -1.0099
 2946SOL     vw11784   1.545   1.049   2.574  0.2717 -0.2158  0.1550
 2947SOL     ow11785   4.877   6.388   2.892 -0.2471  0.0309 -0.0695
 2947SOL     hw11786   4.829   6.435   2.959 -1.3560 -1.1801  0.0303
 2947SOL     hw11787   4.944   6.450   2.861  0.5084  0.5019  2.3399
 2947SOL     vw11788   4.880   6.402   2.897 -0.2937 -0.0668  0.2617
 2948SOL     ow11789   6.790   5.275   0.783 -0.4828  0.1073 -0.2379
 2948SOL     hw11790   6.704   5.247   0.813 -0.8207  0.7695 -0.5684
 2948SOL     hw11791   6.840   5.288   0.863  0.0524 -2.4547 -0.0591
 2948SOL     vw11792   6.785   5.273   0.798 -0.4566 -0.1435 -0.2579
 2949SOL     ow11793   5.959   6.731   0.123  0.5209  0.7783  0.3806
 2949SOL     hw11794   6.022   6.763   0.189  1.6135  1.2438 -0.8472
 2949SOL     hw11795   6.004   6.657   0.082  0.7734  1.8429 -1.3182
 2949SOL     vw11796   5.974   6.725   0.126  0.6983  0.9804 -0.0056
 2950SOL     ow11797   0.316   1.475   7.366 -0.4720  0.2784  0.7210
 2950SOL     hw11798   0.350   1.539   7.429  0.8289  1.6290 -1.2428
 2950SOL     hw11799   0.260   1.526   7.307  0.8057 -0.2741 -1.0537
 2950SOL     vw11800   0.313   1.490   7.367 -0.1318  0.3837  0.2277
 2951SOL     ow11801   3.447   7.270   4.374 -0.0400  0.4156 -0.0964
 2951SOL     hw11802   3.531   7.315   4.381 -0.6956  1.4866  1.3312
 2951SOL     hw11803   3.434   7.231   4.460 -0.7813 -0.1495 -0.4595
 2951SOL     vw11804   3.457   7.271   4.386 -0.2242  0.4828  0.0439
 2952SOL     ow11805   0.424   2.833   0.915 -0.1255 -0.1772 -0.3599
 2952SOL     hw11806   0.421   2.863   1.006  1.1175 -0.2422 -0.2857
 2952SOL     hw11807   0.371   2.753   0.914  1.4717 -1.2893  0.7581
 2952SOL     vw11808   0.416   2.826   0.927  0.2492 -0.3326 -0.2026
 2953SOL     ow11809   2.114   0.133   0.824  0.5569 -0.4729  0.0973
 2953SOL     hw11810   2.125   0.212   0.770 -0.0260 -1.7683 -2.0247
 2953SOL     hw11811   2.189   0.078   0.802 -0.8208 -1.9585 -1.1741
 2953SOL     vw11812   2.125   0.137   0.814  0.2983 -0.8398 -0.3504
 2954SOL     ow11813   2.384   7.119   5.104 -0.0675  0.4788  0.0997
 2954SOL     hw11814   2.315   7.106   5.170  0.2601  1.4345  0.6466
 2954SOL     hw11815   2.429   7.199   5.132  1.1692 -0.0417 -0.3403
 2954SOL     vw11816   2.381   7.128   5.117  0.1390  0.5364  0.1137
 2955SOL     ow11817   1.909   2.361   0.804 -0.4064  0.4472  0.0151
 2955SOL     hw11818   1.969   2.346   0.877 -0.2882 -0.5806 -0.2849
 2955SOL     hw11819   1.857   2.281   0.799  0.2482  0.0983 -1.6613
 2955SOL     vw11820   1.910   2.348   0.813 -0.3044  0.2657 -0.2457
 2956SOL     ow11821   0.751   6.555   5.099 -0.0989  0.0565  0.0579
 2956SOL     hw11822   0.701   6.594   5.171  2.4833 -0.7639  2.4705
 2956SOL     hw11823   0.777   6.469   5.132  1.6568 -0.1102 -1.6180
 2956SOL     vw11824   0.748   6.549   5.113  0.4735 -0.0739  0.1552
 2957SOL     ow11825   6.143   1.674   4.741  0.0966 -0.1738  0.4649
 2957SOL     hw11826   6.131   1.594   4.690 -0.1045 -0.1754  0.5154
 2957SOL     hw11827   6.122   1.744   4.679 -0.6040 -0.1936  0.6831
 2957SOL     vw11828   6.139   1.673   4.726 -0.0224 -0.1767  0.5007
 2958SOL     ow11829   0.681   0.569   1.114 -0.1720 -0.2704 -0.1929
 2958SOL     hw11830   0.730   0.593   1.036  2.0250  0.9138  1.4208
 2958SOL     hw11831   0.719   0.485   1.141  1.7862  1.0749  1.5616
 2958SOL     vw11832   0.693   0.561   1.108  0.3763  0.0633  0.2515
 2959SOL     ow11833   0.323   6.639   6.352  0.4448 -0.1964  0.0473
 2959SOL     hw11834   0.233   6.624   6.322 -0.2340  2.8024  0.2640
 2959SOL     hw11835   0.377   6.629   6.273 -0.3409 -0.1153 -0.5106
 2959SOL     vw11836   0.318   6.636   6.337  0.2516  0.2098  0.0021
 2960SOL     ow11837   2.780   0.746   2.357  0.0537 -0.0358  0.4296
 2960SOL     hw11838   2.712   0.773   2.418  0.4650  0.2658  0.7683
 2960SOL     hw11839   2.803   0.826   2.309 -0.5666 -0.3620 -0.4315
 2960SOL     vw11840   2.774   0.760   2.359  0.0261 -0.0391  0.3607
 2961SOL     ow11841   5.360   0.887   1.128  0.0700  0.7412 -0.1741
 2961SOL     hw11842   5.366   0.815   1.191 -0.5787  2.1105  1.5279
 2961SOL     hw11843   5.266   0.902   1.117  0.1942  1.4510 -0.3539
 2961SOL     vw11844   5.349   0.880   1.135  0.0007  1.0155  0.0268
 2962SOL     ow11845   1.313   1.743   5.620 -0.2560  0.3630 -0.1111
 2962SOL     hw11846   1.286   1.684   5.550  0.8311  1.0414 -1.1218
 2962SOL     hw11847   1.253   1.817   5.613  0.2426  0.7168 -0.7449
 2962SOL     vw11848   1.301   1.745   5.610 -0.0468  0.4992 -0.3281
 2963SOL     ow11849   6.661   0.298   2.461  0.0684  0.3921  0.6117
 2963SOL     hw11850   6.678   0.317   2.553  1.0674 -0.2793  0.5749
 2963SOL     hw11851   6.735   0.335   2.413  0.1037 -0.1992  0.1873
 2963SOL     vw11852   6.673   0.305   2.466  0.2046  0.2255  0.5507
 2964SOL     ow11853   2.041   2.749   3.164 -0.5469  0.1401  0.2001
 2964SOL     hw11854   2.020   2.663   3.200 -0.2690 -0.0600 -0.1069
 2964SOL     hw11855   2.126   2.770   3.201 -0.6005  0.2682  0.2494
 2964SOL     vw11856   2.049   2.740   3.173 -0.5172  0.1304  0.1662
 2965SOL     ow11857   2.020   0.015   3.861 -1.1177  0.0172  0.2755
 2965SOL     hw11858   2.013  -0.074   3.826 -0.9817  0.9764 -2.4699
 2965SOL     hw11859   2.078   0.007   3.937 -0.6265 -2.1451 -0.2679
 2965SOL     vw11860   2.027   0.002   3.866 -1.0350 -0.1416 -0.1583
 2966SOL     ow11861   2.579   3.211   5.885  0.8089  0.0789 -0.2961
 2966SOL     hw11862   2.672   3.195   5.899  1.5850  0.8199 -3.6743
 2966SOL     hw11863   2.568   3.305   5.895 -0.3451 -0.2658  3.0937
 2966SOL     vw11864   2.590   3.221   5.888  0.7590  0.1311 -0.2947
 2967SOL     ow11865   1.774   4.597   7.003 -0.2111 -0.3038 -0.2560
 2967SOL     hw11866   1.781   4.501   7.011 -2.2888 -0.3781  1.7440
 2967SOL     hw11867   1.817   4.630   7.082 -0.4142  0.3498 -0.4173
 2967SOL     vw11868   1.781   4.589   7.014 -0.5120 -0.2272 -0.0136
 2968SOL     ow11869   6.184   5.231   2.631  0.0888 -0.0260 -0.1886
 2968SOL     hw11870   6.208   5.168   2.563 -4.2073 -2.2838  0.0280
 2968SOL     hw11871   6.131   5.296   2.585  0.0950  0.4132  0.4253
 2968SOL     vw11872   6.180   5.231   2.616 -0.4773 -0.2658 -0.0792
 2969SOL     ow11873   4.773   2.494   0.663  0.0970 -0.7227  0.3209
 2969SOL     hw11874   4.705   2.558   0.679  0.2055 -0.1531 -1.3129
 2969SOL     hw11875   4.838   2.510   0.731  0.3886  1.3002 -0.3770
 2969SOL     vw11876   4.773   2.504   0.674  0.1497 -0.3806  0.0132
 2970SOL     ow11877   3.663   2.591   6.906 -0.1806  0.1070 -0.0019
 2970SOL     hw11878   3.759   2.591   6.900 -0.1325  0.9632  0.5298
 2970SOL     hw11879   3.637   2.502   6.881  0.9653 -1.2141  2.9252
 2970SOL     vw11880   3.672   2.579   6.902 -0.0231  0.0455  0.4544
 2971SOL     ow11881   4.336   6.451   5.815 -0.1181  0.1751 -0.0416
 2971SOL     hw11882   4.390   6.388   5.767 -1.4444 -0.3396 -0.9297
 2971SOL     hw11883   4.251   6.407   5.824 -0.0475  0.4261  2.4478
 2971SOL     vw11884   4.332   6.437   5.810 -0.2840  0.1404  0.1698
 2972SOL     ow11885   5.217   6.103   3.911  0.2275  0.2885  0.4574
 2972SOL     hw11886   5.267   6.031   3.949  0.2558 -0.4314 -0.8879
 2972SOL     hw11887   5.277   6.145   3.850 -0.5365 -0.1229 -0.6222
 2972SOL     vw11888   5.231   6.099   3.908  0.1304  0.1392  0.1376
 2973SOL     ow11889   7.475   7.041   0.359 -0.1625  0.1167 -0.3827
 2973SOL     hw11890   7.472   6.982   0.434 -0.6779 -0.5317 -0.8996
 2973SOL     hw11891   7.399   7.098   0.370 -0.4589 -0.2294 -0.6041
 2973SOL     vw11892   7.465   7.041   0.370 -0.2694 -0.0143 -0.4801
 2974SOL     ow11893   7.003   5.439   6.140 -0.5820 -0.1201 -0.1276
 2974SOL     hw11894   7.022   5.456   6.232 -1.7061 -1.2686  0.3385
 2974SOL     hw11895   6.909   5.453   6.131 -0.1050  2.8481 -1.8044
 2974SOL     vw11896   6.993   5.443   6.151 -0.6676  0.1202 -0.2875
 2975SOL     ow11897   0.098   2.837   5.267  0.2072 -0.4356 -0.1944
 2975SOL     hw11898   0.117   2.787   5.347  0.6334 -0.6628 -0.4363
 2975SOL     hw11899   0.024   2.893   5.291  1.2626  0.5830  0.8031
 2975SOL     vw11900   0.091   2.837   5.281  0.4027 -0.3312 -0.0944
 2976SOL     ow11901   0.165   4.857   3.433 -0.5089 -0.5002  0.1037
 2976SOL     hw11902   0.104   4.849   3.360 -0.6160 -0.8643  0.2331
 2976SOL     hw11903   0.222   4.781   3.426  0.9184  0.6156 -0.9015
 2976SOL     vw11904   0.164   4.846   3.423 -0.3347 -0.4013 -0.0118
 2977SOL     ow11905   3.996   1.219   0.365  0.3051  0.0184 -0.6811
 2977SOL     hw11906   3.916   1.169   0.349  0.0870  0.4881 -1.0667
 2977SOL     hw11907   4.008   1.214   0.460 -0.6246  0.6113 -0.5163
 2977SOL     vw11908   3.987   1.211   0.376  0.1538  0.1587 -0.7102
 2978SOL     ow11909   0.135   5.670   1.603 -0.3570 -0.3019 -0.3536
 2978SOL     hw11910   0.041   5.650   1.610 -0.0912 -1.4025  0.3409
 2978SOL     hw11911   0.151   5.732   1.674 -0.3628 -0.9195  0.1960
 2978SOL     vw11912   0.125   5.676   1.613 -0.3227 -0.5286 -0.1894
 2979SOL     ow11913   7.047   7.261   6.063  0.2674  0.3690  0.4595
 2979SOL     hw11914   6.959   7.257   6.026  0.3957  0.6501  0.1217
 2979SOL     hw11915   7.033   7.291   6.153 -0.0028  0.1589  0.4885
 2979SOL     vw11916   7.033   7.264   6.070  0.2487  0.3786  0.4187
 2980SOL     ow11917   5.335   6.363   6.345  0.2935 -0.5644 -0.0878
 2980SOL     hw11918   5.303   6.400   6.427  0.5561 -2.4702  0.9571
 2980SOL     hw11919   5.297   6.417   6.277 -1.3271  0.0568  1.2425
 2980SOL     vw11920   5.326   6.375   6.347  0.1147 -0.7339  0.2258
 2981SOL     ow11921   1.630   6.116   5.861 -0.0031  0.1758 -0.1091
 2981SOL     hw11922   1.712   6.164   5.844  1.0281 -1.8799 -1.3783
 2981SOL     hw11923   1.637   6.089   5.952  0.3745  0.6828  0.0192
 2981SOL     vw11924   1.642   6.119   5.871  0.1828 -0.0286 -0.2599
 2982SOL     ow11925   5.136   4.778   0.077  0.3303  0.5496 -0.5332
 2982SOL     hw11926   5.190   4.818   0.008  1.2695  0.4697  0.1346
 2982SOL     hw11927   5.189   4.787   0.156 -1.8035  3.0844  0.7815
 2982SOL     vw11928   5.150   4.785   0.078  0.1729  0.8738 -0.2717
 2983SOL     ow11929   0.474   3.834   4.933 -0.2062 -0.3475 -0.0786
 2983SOL     hw11930   0.553   3.874   4.897 -0.5383  1.1455  0.7994
 2983SOL     hw11931   0.507   3.763   4.988  0.5893  0.7003  0.8459
 2983SOL     vw11932   0.489   3.830   4.935 -0.1450 -0.0124  0.1590
 2984SOL     ow11933   1.735   6.911   6.184  0.0336 -0.6316 -0.3665
 2984SOL     hw11934   1.666   6.865   6.231 -2.2079  1.9885 -0.8317
 2984SOL     hw11935   1.768   6.846   6.121 -0.5323 -2.5811  1.2508
 2984SOL     vw11936   1.730   6.896   6.182 -0.3367 -0.5431 -0.2143
 2985SOL     ow11937   2.176   6.619   1.509  0.0044  0.5148 -0.4626
 2985SOL     hw11938   2.204   6.579   1.591 -0.5850  1.3069  0.1400
 2985SOL     hw11939   2.172   6.713   1.528 -1.7485  0.5566 -0.9013
 2985SOL     vw11940   2.179   6.626   1.522 -0.3047  0.6249 -0.4410
 2986SOL     ow11941   6.102   1.193   5.078  0.1525  0.4932  0.3343
 2986SOL     hw11942   6.066   1.151   4.999  1.9885 -1.0566  0.2380
 2986SOL     hw11943   6.167   1.255   5.045 -1.0135  1.8850  0.5694
 2986SOL     vw11944   6.106   1.196   5.063  0.2408  0.4724  0.3526
 2987SOL     ow11945   6.007   7.245   6.269  0.0858  0.5088  0.1315
 2987SOL     hw11946   6.096   7.279   6.257 -0.0872  1.2951  0.9587
 2987SOL     hw11947   6.000   7.229   6.363 -1.1880  2.0244  0.3209
 2987SOL     vw11948   6.018   7.247   6.280 -0.1051  0.8125  0.2656
 2988SOL     ow11949   4.311   1.586   4.123 -0.3719 -0.3027 -0.8135
 2988SOL     hw11950   4.340   1.512   4.177  0.0372 -0.0248 -0.6489
 2988SOL     hw11951   4.216   1.588   4.134 -0.3533 -0.6227 -0.5826
 2988SOL     vw11952   4.302   1.576   4.132 -0.3157 -0.3083 -0.7615
 2989SOL     ow11953   3.744   6.708   6.302 -0.7784 -0.0252 -0.0868
 2989SOL     hw11954   3.834   6.721   6.272 -0.8581 -0.0623 -0.3397
 2989SOL     hw11955   3.716   6.795   6.331 -0.8137  0.0730 -0.4211
 2989SOL     vw11956   3.752   6.721   6.302 -0.7936 -0.0172 -0.1640
 2990SOL     ow11957   5.936   3.571   2.883 -0.6514 -0.1444  0.7663
 2990SOL     hw11958   5.980   3.492   2.851  0.4864  0.5806  0.4915
 2990SOL     hw11959   5.863   3.585   2.823  0.1212 -0.0653 -0.1643
 2990SOL     vw11960   5.932   3.562   2.871 -0.3991 -0.0384  0.6073
 2991SOL     ow11961   6.020   6.735   4.097  0.2854 -0.6282  0.0589
 2991SOL     hw11962   5.992   6.716   4.008  1.1147 -1.3522 -0.0534
 2991SOL     hw11963   6.114   6.751   4.091  0.2253  0.0832  0.6963
 2991SOL     vw11964   6.028   6.735   4.085  0.3870 -0.6299  0.1283
 2992SOL     ow11965   0.731   1.606   3.773  0.4050  0.0803 -0.3390
 2992SOL     hw11966   0.692   1.627   3.688 -0.9802 -0.6747  0.0687
 2992SOL     hw11967   0.689   1.524   3.799  0.8985  0.2263  1.0029
 2992SOL     vw11968   0.720   1.598   3.765  0.2873  0.0000 -0.1081
 2993SOL     ow11969   6.482   4.470   1.291 -0.4281  0.1038 -0.1539
 2993SOL     hw11970   6.430   4.544   1.321  1.1906  1.6105 -0.9176
 2993SOL     hw11971   6.557   4.468   1.350  0.5612  0.3595 -1.3624
 2993SOL     vw11972   6.485   4.479   1.303 -0.0842  0.3364 -0.4141
 2994SOL     ow11973   5.429   2.003   0.363 -0.1142  0.2150 -0.1801
 2994SOL     hw11974   5.431   2.001   0.267 -1.8931 -0.0552 -0.2407
 2994SOL     hw11975   5.450   1.913   0.388  0.6757  0.3607 -0.2927
 2994SOL     vw11976   5.432   1.991   0.353 -0.2449  0.1987 -0.2030
 2995SOL     ow11977   4.439   0.356   2.990  0.4385 -0.2591 -0.2728
 2995SOL     hw11978   4.379   0.292   3.028  0.0596 -0.5759 -1.3913
 2995SOL     hw11979   4.456   0.418   3.061 -1.1316 -0.2157  0.0891
 2995SOL     vw11980   4.433   0.356   3.005  0.1812 -0.2951 -0.3726
 2996SOL     ow11981   4.594   7.490   6.655 -0.2492  0.4109  0.3055
 2996SOL     hw11982   4.630   7.575   6.628 -0.5264  0.0150 -1.4022
 2996SOL     hw11983   4.520   7.513   6.711 -1.3849  1.3726 -1.4908
 2996SOL     vw11984   4.589   7.504   6.659 -0.4356  0.4854 -0.1566
 2997SOL     ow11985   3.039   4.338   1.627  0.2142 -0.5214 -0.1236
 2997SOL     hw11986   2.994   4.402   1.573  1.1277  0.1897 -0.0624
 2997SOL     hw11987   3.015   4.361   1.717  0.1758 -0.5508 -0.1264
 2997SOL     vw11988   3.030   4.349   1.632  0.3295 -0.4318 -0.1159
 2998SOL     ow11989   5.409   3.624   5.262  0.5586 -0.7453  0.1618
 2998SOL     hw11990   5.444   3.622   5.173 -0.5886  0.0012 -0.3259
 2998SOL     hw11991   5.403   3.718   5.282  0.0837 -0.8989  0.7336
 2998SOL     vw11992   5.413   3.636   5.253  0.3445 -0.6672  0.1729
 2999SOL     ow11993   6.666   6.905   5.963 -0.3626  0.4449  0.0694
 2999SOL     hw11994   6.674   6.954   5.882 -0.4572  1.1947  0.5060
 2999SOL     hw11995   6.757   6.889   5.991 -0.3336  0.5266  0.0194
 2999SOL     vw11996   6.679   6.909   5.956 -0.3712  0.5548  0.1204
 3000SOL     ow11997   6.018   6.982   4.627 -0.3734 -0.6076  0.4337
 3000SOL     hw11998   6.096   7.007   4.676  0.2410  0.0353 -0.8215
 3000SOL     hw11999   5.945   7.019   4.678  0.2033 -0.3469  1.0849
 3000SOL     vw12000   6.018   6.990   4.640 -0.2162 -0.4880  0.3541
 3001SOL     ow12001   2.239   2.922   3.246 -0.5105 -0.4100  0.1564
 3001SOL     hw12002   2.296   2.880   3.312 -0.1630  0.2278  0.2659
 3001SOL     hw12003   2.299   2.948   3.176 -0.4949  1.3051  0.7869
 3001SOL     vw12004   2.255   2.920   3.245 -0.4625 -0.0997  0.2542
 3002SOL     ow12005   7.195   4.807   4.274  0.1913  0.0867  0.0515
 3002SOL     hw12006   7.202   4.764   4.189  0.1147 -0.0759  0.1265
 3002SOL     hw12007   7.196   4.736   4.337 -0.0432  0.1873  0.1710
 3002SOL     vw12008   7.196   4.792   4.271  0.1504  0.0784  0.0772
 3003SOL     ow12009   2.077   4.956   3.392 -0.5838  0.6932 -0.4451
 3003SOL     hw12010   1.984   4.974   3.406 -0.8372 -0.8222  0.0012
 3003SOL     hw12011   2.122   5.037   3.418 -1.7184  1.1618  0.0992
 3003SOL     vw12012   2.071   4.969   3.397 -0.7670  0.5548 -0.3145
 3004SOL     ow12013   6.703   3.300   6.768  0.1333 -0.2534  0.0586
 3004SOL     hw12014   6.617   3.296   6.725  0.2061  1.1152 -0.2507
 3004SOL     hw12015   6.734   3.389   6.753  0.2060  0.3053  2.9035
 3004SOL     vw12016   6.696   3.311   6.760  0.1526  0.0011  0.3932
 3005SOL     ow12017   6.024   7.035   0.075  0.4744  0.3618  0.2629
 3005SOL     hw12018   6.112   7.016   0.108  0.5797  1.0801  0.3983
 3005SOL     hw12019   6.023   7.129   0.061  0.7963  0.0352 -2.8178
 3005SOL     vw12020   6.035   7.045   0.077  0.5307  0.4134 -0.1257
 3006SOL     ow12021   4.483   0.861   4.096  0.1913 -0.1084  0.3011
 3006SOL     hw12022   4.450   0.864   4.185  2.3525 -0.0576  1.1616
 3006SOL     hw12023   4.508   0.770   4.082 -1.4843 -0.4413 -0.8328
 3006SOL     vw12024   4.482   0.849   4.106  0.2553 -0.1456  0.2651
 3007SOL     ow12025   4.564   7.009   4.486 -0.2231 -0.6200 -0.2930
 3007SOL     hw12026   4.612   7.092   4.485  1.2432 -1.4405 -1.3227
 3007SOL     hw12027   4.473   7.034   4.476  0.0979  0.9279  0.4277
 3007SOL     vw12028   4.559   7.023   4.485  0.0126 -0.5240 -0.3338
 3008SOL     ow12029   1.838   7.229   4.964  0.2232  0.0802 -0.1221
 3008SOL     hw12030   1.763   7.209   5.021  1.1616 -1.0206  0.7967
 3008SOL     hw12031   1.805   7.217   4.875 -0.3717 -1.7724  0.2888
 3008SOL     vw12032   1.824   7.225   4.960  0.2686 -0.3095  0.0532
 3009SOL     ow12033   5.306   7.321   7.450 -0.2922  0.1148 -0.2545
 3009SOL     hw12034   5.291   7.227   7.446 -1.0784  0.1894  0.6468
 3009SOL     hw12035   5.358   7.333   7.530  1.1230  0.3034 -1.1636
 3009SOL     vw12036   5.311   7.310   7.460 -0.2093  0.1500 -0.2553
 3010SOL     ow12037   3.709   3.673   2.732  0.0006 -0.5035  0.2213
 3010SOL     hw12038   3.783   3.715   2.775 -0.1671  0.0957 -0.0544
 3010SOL     hw12039   3.640   3.673   2.798  0.3337 -1.3335  0.5761
 3010SOL     vw12040   3.709   3.679   2.746  0.0224 -0.5341  0.2319
 3011SOL     ow12041   2.075   6.347   1.352 -0.6750  0.6399  0.0507
 3011SOL     hw12042   2.026   6.343   1.434  1.7472  1.4196  1.6420
 3011SOL     hw12043   2.030   6.285   1.294 -0.9365 -1.9586  2.8177
 3011SOL     vw12044   2.062   6.338   1.355 -0.3899  0.4001  0.6257
 3012SOL     ow12045   0.960   2.527   6.886 -0.5881  0.6361  0.0785
 3012SOL     hw12046   0.958   2.610   6.933  1.3428  0.3770  0.7330
 3012SOL     hw12047   0.959   2.551   6.794  2.3802  1.6157  0.1949
 3012SOL     vw12048   0.960   2.541   6.880  0.0583  0.7311  0.1802
 3013SOL     ow12049   3.937   2.607   6.924 -0.6045  0.3793 -0.1308
 3013SOL     hw12050   3.950   2.638   7.013  0.6651  0.1412 -0.2197
 3013SOL     hw12051   4.025   2.591   6.890 -1.1228 -1.1922 -0.8333
 3013SOL     vw12052   3.950   2.609   6.931 -0.5054  0.1405 -0.2351
 3014SOL     ow12053   2.214   6.493   3.551  0.4365 -0.0805  0.3946
 3014SOL     hw12054   2.272   6.547   3.605  0.0787 -0.2832  0.9957
 3014SOL     hw12055   2.162   6.443   3.615 -0.4604  0.1674 -0.1149
 3014SOL     vw12056   2.214   6.494   3.567  0.2708 -0.0746  0.4066
 3015SOL     ow12057   0.548   5.535   5.660 -0.1413  0.1665  0.4975
 3015SOL     hw12058   0.592   5.450   5.669 -3.8363 -2.0308 -0.2098
 3015SOL     hw12059   0.532   5.544   5.566  0.2305  1.7286  0.5545
 3015SOL     vw12060   0.552   5.525   5.649 -0.5797  0.0827  0.4115
 3016SOL     ow12061   1.277   0.174   6.129  0.2879 -0.2539 -0.0809
 3016SOL     hw12062   1.322   0.219   6.200 -1.2598  0.0856  0.7271
 3016SOL     hw12063   1.187   0.165   6.159  0.0613 -2.0348 -1.0958
 3016SOL     vw12064   1.271   0.179   6.142  0.0538 -0.4440 -0.1080
 3017SOL     ow12065   0.478   2.687   4.170  0.1129 -0.7811 -0.0558
 3017SOL     hw12066   0.519   2.648   4.247  3.7613 -1.1535 -1.9381
 3017SOL     hw12067   0.458   2.612   4.114  0.3223 -0.3808 -0.6724
 3017SOL     vw12068   0.481   2.672   4.173  0.6219 -0.7774 -0.3853
 3018SOL     ow12069   1.306   5.193   0.446  0.0675 -0.4200 -0.4725
 3018SOL     hw12070   1.292   5.119   0.506 -0.6393  0.1564  0.0945
 3018SOL     hw12071   1.354   5.155   0.373  0.2739 -1.3091  0.1001
 3018SOL     vw12072   1.310   5.178   0.444  0.0014 -0.4616 -0.3221
 3019SOL     ow12073   1.800   2.298   5.789 -0.4193  0.3001  0.1070
 3019SOL     hw12074   1.733   2.237   5.761 -0.6896  0.5798  0.1347
 3019SOL     hw12075   1.861   2.303   5.715  1.8652 -3.0737  1.5458
 3019SOL     vw12076   1.799   2.291   5.775 -0.1535 -0.1080  0.3004
 3020SOL     ow12077   4.480   2.990   7.127  0.5031  0.6114 -0.0660
 3020SOL     hw12078   4.409   3.007   7.189  0.4559  1.9194 -0.4609
 3020SOL     hw12079   4.452   2.911   7.080  0.0250  0.2418  0.8096
 3020SOL     vw12080   4.467   2.982   7.129  0.4339  0.7352 -0.0026
 3021SOL     ow12081   5.765   4.234   1.525 -0.1021  0.5059  0.1299
 3021SOL     hw12082   5.791   4.322   1.498  0.7612  0.2630  0.1410
 3021SOL     hw12083   5.748   4.243   1.619  1.8991  0.2528  0.5408
 3021SOL     vw12084   5.766   4.247   1.534  0.2759  0.4406  0.1855
 3022SOL     ow12085   4.894   5.540   2.266 -0.2978 -0.7538  0.2745
 3022SOL     hw12086   4.879   5.613   2.326 -0.4224  0.8921 -1.6605
 3022SOL     hw12087   4.933   5.580   2.188 -1.1338 -2.6349 -1.1952
 3022SOL     vw12088   4.897   5.555   2.264 -0.4246 -0.7849 -0.1746
 3023SOL     ow12089   1.780   6.721   3.203 -0.4301  0.0734 -0.3487
 3023SOL     hw12090   1.692   6.740   3.169 -0.8542 -0.8817  0.1850
 3023SOL     hw12091   1.777   6.748   3.294  0.8067  2.9391 -1.0359
 3023SOL     vw12092   1.768   6.727   3.210 -0.3228  0.3254 -0.3690
 3024SOL     ow12093   1.477   2.926   6.868  1.0897  0.4339 -0.1251
 3024SOL     hw12094   1.473   2.831   6.858 -2.1228  0.3462  0.9322
 3024SOL     hw12095   1.540   2.954   6.801  1.6620 -2.3466 -0.9010
 3024SOL     vw12096   1.485   2.917   6.858  0.7414  0.0556 -0.0880
 3025SOL     ow12097   3.580   4.680   6.377 -0.1898 -0.3587 -0.4982
 3025SOL     hw12098   3.556   4.736   6.303 -0.1141  1.5232  0.8306
 3025SOL     hw12099   3.675   4.669   6.369 -0.0300  0.6364 -0.2024
 3025SOL     vw12100   3.589   4.686   6.366 -0.1588  0.0207 -0.2837
 3026SOL     ow12101   4.644   4.836   1.631  0.3327  0.2321 -0.1354
 3026SOL     hw12102   4.663   4.879   1.547 -2.0226  0.7470 -0.4595
 3026SOL     hw12103   4.698   4.885   1.694 -1.3529  3.0056 -0.6738
 3026SOL     vw12104   4.654   4.848   1.628 -0.2005  0.6659 -0.2492
 3027SOL     ow12105   0.112   1.404   3.867 -0.1889 -0.0267 -0.4743
 3027SOL     hw12106   0.098   1.317   3.829  0.6288 -0.2706 -0.2575
 3027SOL     hw12107   0.203   1.424   3.847 -0.4475  0.9033 -0.7475
 3027SOL     vw12108   0.122   1.395   3.859 -0.1151  0.0638 -0.4818
 3028SOL     ow12109   4.897   5.842   3.549  0.4939 -0.5893  0.2891
 3028SOL     hw12110   4.847   5.762   3.538  0.4114 -0.3387 -1.6422
 3028SOL     hw12111   4.888   5.865   3.641 -1.2692 -1.6282  0.4037
 3028SOL     vw12112   4.890   5.835   3.559  0.2503 -0.6936  0.0492
 3029SOL     ow12113   4.575   0.963   1.107 -0.3232  0.4210 -0.8894
 3029SOL     hw12114   4.505   0.954   1.042 -2.8516  0.2632  1.6554
 3029SOL     hw12115   4.582   0.876   1.147 -0.0045  0.9065  0.1494
 3029SOL     vw12116   4.567   0.950   1.103 -0.6146  0.4642 -0.4166
 3030SOL     ow12117   6.816   2.251   6.382 -0.0175 -0.3133 -0.1335
 3030SOL     hw12118   6.804   2.280   6.291 -0.2532  0.1417  0.0398
 3030SOL     hw12119   6.734   2.207   6.403  0.1747 -0.7335 -0.2562
 3030SOL     vw12120   6.803   2.249   6.373 -0.0234 -0.3089 -0.1268
 3031SOL     ow12121   6.564   7.317   2.241 -0.4675 -0.4206 -0.2092
 3031SOL     hw12122   6.534   7.369   2.167  1.4799 -1.6930 -1.9859
 3031SOL     hw12123   6.515   7.235   2.234 -3.1010  0.7879  2.2447
 3031SOL     vw12124   6.553   7.313   2.230 -0.5579 -0.4292 -0.1200
 3032SOL     ow12125   6.047   5.187   0.847  0.0850 -0.0294 -0.2589
 3032SOL     hw12126   6.138   5.175   0.874 -0.6890 -0.8568  2.3563
 3032SOL     hw12127   6.036   5.281   0.838  1.5287  0.0211 -2.1771
 3032SOL     vw12128   6.057   5.198   0.849  0.1736 -0.1318 -0.1669
 3033SOL     ow12129   2.884   4.286   3.353 -0.4582 -0.0027  0.2641
 3033SOL     hw12130   2.811   4.273   3.413 -0.4547  0.7394  0.4384
 3033SOL     hw12131   2.952   4.226   3.384 -0.4337  0.4207  1.0464
 3033SOL     vw12132   2.883   4.276   3.365 -0.4545  0.1514  0.3904
 3034SOL     ow12133   5.779   2.995   0.745  1.0368  0.1722 -0.0591
 3034SOL     hw12134   5.734   2.917   0.713 -0.3632  1.3147 -1.0204
 3034SOL     hw12135   5.830   2.965   0.820  0.2990 -1.5870 -0.2208
 3034SOL     vw12136   5.780   2.981   0.751  0.7548  0.0908 -0.2073
 3035SOL     ow12137   6.863   6.315   6.763  0.2143  0.0243  0.2559
 3035SOL     hw12138   6.947   6.272   6.745 -1.0573 -1.8266 -1.7374
 3035SOL     hw12139   6.834   6.348   6.678 -1.4757 -0.1360  0.7402
 3035SOL     vw12140   6.870   6.314   6.749 -0.1762 -0.2410  0.0567
 3036SOL     ow12141   1.093   5.691   3.931  0.0537 -0.0348 -0.2750
 3036SOL     hw12142   1.165   5.653   3.981 -0.7849  1.8283  2.5868
 3036SOL     hw12143   1.016   5.640   3.957 -0.9762  2.8555  3.1580
 3036SOL     vw12144   1.092   5.679   3.941 -0.1929  0.5925  0.5556
 3037SOL     ow12145   1.950   5.984   2.064 -0.4973  0.2044 -0.3533
 3037SOL     hw12146   2.041   5.963   2.043 -1.0633 -1.6132 -1.1675
 3037SOL     hw12147   1.933   6.066   2.016  0.8338  0.8491  0.2305
 3037SOL     vw12148   1.959   5.992   2.055 -0.3964  0.0498 -0.3837
 3038SOL     ow12149   6.238   0.700   1.612  0.3260  0.3990  0.8777
 3038SOL     hw12150   6.154   0.653   1.614 -0.4598  1.7490  0.9785
 3038SOL     hw12151   6.296   0.643   1.562 -1.1003  0.1161 -0.5430
 3038SOL     vw12152   6.235   0.687   1.606  0.0341  0.5398  0.7035
 3039SOL     ow12153   0.547   4.405   1.998  0.1078  0.3056  0.1842
 3039SOL     hw12154   0.558   4.327   2.052 -0.2852  0.4872  0.5299
 3039SOL     hw12155   0.477   4.455   2.040  0.8816  1.2346  0.4049
 3039SOL     vw12156   0.539   4.401   2.010  0.1580  0.4525  0.2590
 3040SOL     ow12157   1.778   4.500   4.883  0.0149  0.5343  0.7762
 3040SOL     hw12158   1.723   4.427   4.854 -0.3837  0.0254  2.6515
 3040SOL     hw12159   1.720   4.576   4.881  0.0786  0.5741  0.0197
 3040SOL     vw12160   1.763   4.501   4.879 -0.0292  0.4723  0.9236
 3041SOL     ow12161   2.670   5.204   1.425 -0.2443 -0.0985  0.4302
 3041SOL     hw12162   2.682   5.297   1.405 -0.6184 -0.1942 -0.2572
 3041SOL     hw12163   2.727   5.159   1.363 -0.6118 -0.3567  0.2765
 3041SOL     vw12164   2.679   5.211   1.414 -0.3420 -0.1454  0.3192
 3042SOL     ow12165   6.815   5.788   0.193  0.3791  0.0725  0.0423
 3042SOL     hw12166   6.785   5.732   0.122  1.0253  0.7334 -0.7714
 3042SOL     hw12167   6.764   5.869   0.183  0.1534  0.0078  0.6124
 3042SOL     vw12168   6.804   5.791   0.182  0.4344  0.1512  0.0102
 3043SOL     ow12169   7.060   6.747   3.858 -0.2279  0.7928  0.1702
 3043SOL     hw12170   7.005   6.693   3.914  0.6730  1.1242  1.3978
 3043SOL     hw12171   7.011   6.828   3.847 -0.6247  0.5430  0.0703
 3043SOL     vw12172   7.046   6.751   3.864 -0.1616  0.8037  0.3190
 3044SOL     ow12173   7.286   5.098   6.986 -0.0769 -0.1311  0.5364
 3044SOL     hw12174   7.261   5.006   6.990 -2.2095  0.4114  0.6800
 3044SOL     hw12175   7.253   5.129   6.902  0.3801  0.5674  0.6048
 3044SOL     vw12176   7.278   5.090   6.975 -0.2980  0.0327  0.5643
 3045SOL     ow12177   1.757   6.953   2.641 -0.4630 -0.2831  0.2525
 3045SOL     hw12178   1.823   7.008   2.684 -0.9812  0.0579  0.6340
 3045SOL     hw12179   1.699   6.926   2.712  0.9883 -3.1854  0.4847
 3045SOL     vw12180   1.758   6.957   2.656 -0.3399 -0.6208  0.3335
 3046SOL     ow12181   4.436   4.157   1.713 -0.5882 -0.0882  0.2254
 3046SOL     hw12182   4.442   4.224   1.782  1.7379  1.1150 -1.0253
 3046SOL     hw12183   4.386   4.199   1.643  2.2384  1.1616 -1.2403
 3046SOL     vw12184   4.430   4.172   1.713  0.0913  0.2353 -0.1330
 3047SOL     ow12185   6.333   6.228   3.547  0.0342 -0.3557 -0.4687
 3047SOL     hw12186   6.419   6.187   3.557 -0.5636 -1.6876 -0.6218
 3047SOL     hw12187   6.345   6.317   3.581  1.1320 -0.9367  0.7685
 3047SOL     vw12188   6.346   6.234   3.553  0.1004 -0.6080 -0.3256
 3048SOL     ow12189   4.106   6.974   3.263  0.7205  0.1285 -0.3150
 3048SOL     hw12190   4.036   6.917   3.295 -0.3259  1.9033  0.7864
 3048SOL     hw12191   4.181   6.916   3.250 -0.4451 -1.5605  0.1353
 3048SOL     vw12192   4.106   6.959   3.265  0.4284  0.1397 -0.1101
 3049SOL     ow12193   3.847   5.199   3.248 -0.7883  0.9520  0.3062
 3049SOL     hw12194   3.941   5.181   3.242 -1.0443 -0.1363 -0.8965
 3049SOL     hw12195   3.836   5.241   3.334  0.8043  1.2308  0.4049
 3049SOL     vw12196   3.858   5.202   3.259 -0.6119  0.8454  0.1605
 3050SOL     ow12197   6.813   5.231   5.687  0.4793 -0.1249  0.3940
 3050SOL     hw12198   6.721   5.206   5.675 -0.0491  1.7773  0.1235
 3050SOL     hw12199   6.860   5.148   5.693 -1.2473 -1.1456  0.4887
 3050SOL     vw12200   6.807   5.217   5.687  0.1819 -0.0088  0.3710
 3051SOL     ow12201   3.769   1.830   2.205 -0.1167 -0.9290 -0.6017
 3051SOL     hw12202   3.710   1.904   2.192 -1.8697 -2.2082 -0.2932
 3051SOL     hw12203   3.787   1.799   2.116  1.0244  0.1311 -0.7631
 3051SOL     vw12204   3.763   1.836   2.192 -0.1975 -0.9579 -0.5823
 3052SOL     ow12205   5.735   6.467   3.471  0.0449 -0.5520 -0.9128
 3052SOL     hw12206   5.672   6.519   3.521  2.0259 -0.7132  2.0732
 3052SOL     hw12207   5.706   6.376   3.484 -1.0125 -0.4927 -2.5482
 3052SOL     vw12208   5.723   6.462   3.480  0.1669 -0.5655 -0.7346
 3053SOL     ow12209   6.452   4.436   2.479 -0.2238  0.7251  0.5041
 3053SOL     hw12210   6.439   4.516   2.429  0.0755  0.1109 -0.5938
 3053SOL     hw12211   6.528   4.395   2.438 -0.5922 -0.2869  0.8138
 3053SOL     vw12212   6.460   4.441   2.467 -0.2329  0.5107  0.4001
 3054SOL     ow12213   1.398   7.210   6.898 -0.2269 -0.3539  0.4531
 3054SOL     hw12214   1.459   7.241   6.830  1.1829 -2.0508  0.8769
 3054SOL     hw12215   1.425   7.257   6.977 -0.9572  0.5691  0.1713
 3054SOL     vw12216   1.410   7.221   6.899 -0.1373 -0.4559  0.4718
 3055SOL     ow12217   3.669   3.916   6.851  0.3194  0.0634  0.5336
 3055SOL     hw12218   3.590   3.883   6.809 -0.1826  1.1435  0.5967
 3055SOL     hw12219   3.740   3.865   6.812 -0.5204 -2.1320  1.7217
 3055SOL     vw12220   3.668   3.905   6.841  0.1423 -0.0837  0.6988
 3056SOL     ow12221   5.448   1.608   1.970  0.8286  0.1183  0.3007
 3056SOL     hw12222   5.491   1.622   1.886  0.8528 -1.2116  0.0614
 3056SOL     hw12223   5.516   1.567   2.025  0.1764 -1.1318  0.2163
 3056SOL     vw12224   5.463   1.604   1.966  0.7458 -0.2221  0.2580
 3057SOL     ow12225   7.081   2.967   2.436 -0.1655  0.5162  0.1488
 3057SOL     hw12226   7.063   3.011   2.353 -0.2077  0.0797 -0.0738
 3057SOL     hw12227   7.142   2.897   2.414 -0.7888 -0.0976  0.3458
 3057SOL     vw12228   7.086   2.964   2.422 -0.2532  0.3777  0.1456
 3058SOL     ow12229   0.415   3.211   1.454  0.0231  0.2718 -0.4902
 3058SOL     hw12230   0.491   3.162   1.485  0.8096  1.7707  0.0541
 3058SOL     hw12231   0.347   3.145   1.442  0.4433 -0.7359  2.0440
 3058SOL     vw12232   0.416   3.196   1.457  0.1823  0.3366 -0.0840
 3059SOL     ow12233   0.145   7.000   1.590 -0.1388 -0.0188 -0.6066
 3059SOL     hw12234   0.122   6.978   1.680  2.8035 -0.7233  0.0946
 3059SOL     hw12235   0.162   7.095   1.592  0.8248 -0.1875 -0.1485
 3059SOL     vw12236   0.144   7.010   1.602  0.3766 -0.1338 -0.4537
 3060SOL     ow12237   4.673   4.082   3.439 -0.0138 -0.2997  0.3535
 3060SOL     hw12238   4.687   4.048   3.350  2.9381 -0.0712  0.6328
 3060SOL     hw12239   4.711   4.016   3.496  0.0547  0.5426  1.3008
 3060SOL     vw12240   4.680   4.069   3.435  0.3846 -0.1583  0.5152
 3061SOL     ow12241   3.388   6.470   1.558  0.0169 -0.4926 -0.5994
 3061SOL     hw12242   3.344   6.421   1.628 -1.3993  2.2332  0.5605
 3061SOL     hw12243   3.334   6.456   1.481 -0.9155 -0.0400 -0.0423
 3061SOL     vw12244   3.375   6.462   1.557 -0.2929 -0.0732 -0.3728
 3062SOL     ow12245   1.545   2.161   0.935  0.6916  0.5882  0.0836
 3062SOL     hw12246   1.546   2.066   0.949  1.0914  0.5442 -0.2297
 3062SOL     hw12247   1.606   2.175   0.863 -1.3347  0.7975 -1.6691
 3062SOL     vw12248   1.553   2.151   0.927  0.4770  0.6100 -0.1889
 3063SOL     ow12249   1.198   1.540   3.898  0.4354  0.1074 -0.7915
 3063SOL     hw12250   1.144   1.578   3.968 -0.6947 -1.7848 -0.5528
 3063SOL     hw12251   1.148   1.556   3.818  2.1320  3.0350 -1.4007
 3063SOL     vw12252   1.184   1.547   3.896  0.5102  0.2441 -0.8404
 3064SOL     ow12253   4.075   4.659   3.807 -0.4937  0.0270 -0.0068
 3064SOL     hw12254   4.096   4.591   3.872 -1.8139  0.9991  1.5187
 3064SOL     hw12255   4.148   4.720   3.812  0.0115 -0.5446 -0.3447
 3064SOL     vw12256   4.087   4.658   3.816 -0.6015  0.0799  0.1497
 3065SOL     ow12257   5.375   0.769   0.596  0.6676 -0.2861 -0.5220
 3065SOL     hw12258   5.374   0.695   0.536  2.5239 -0.0603 -0.8693
 3065SOL     hw12259   5.467   0.795   0.603  0.2152  1.2418  0.5203
 3065SOL     vw12260   5.387   0.763   0.589  0.8526 -0.0547 -0.4304
 3066SOL     ow12261   6.631   0.524   4.008 -0.6041  0.2016  0.0233
 3066SOL     hw12262   6.699   0.572   3.961 -0.6291 -0.3824 -0.6157
 3066SOL     hw12263   6.583   0.477   3.940 -1.1568 -0.0117  0.5486
 3066SOL     vw12264   6.634   0.524   3.993 -0.6802  0.0964  0.0082
 3067SOL     ow12265   3.216   5.064   1.810 -0.2901  0.2667  0.4428
 3067SOL     hw12266   3.269   4.993   1.845 -0.0962  0.3871  0.3948
 3067SOL     hw12267   3.156   5.022   1.748 -0.7399  0.0254  1.0258
 3067SOL     vw12268   3.215   5.049   1.807 -0.3238  0.2506  0.5134
 3068SOL     ow12269   4.822   0.674   6.178  0.1974  0.4557 -0.1283
 3068SOL     hw12270   4.839   0.693   6.270  0.4900 -0.5921  0.0396
 3068SOL     hw12271   4.886   0.608   6.154 -0.8703 -0.4286 -0.6521
 3068SOL     vw12272   4.833   0.668   6.187  0.0954  0.2008 -0.1752
 3069SOL     ow12273   3.445   0.056   4.325 -0.0275 -0.3356  0.3953
 3069SOL     hw12274   3.537   0.032   4.323 -0.5347 -2.4190 -0.5571
 3069SOL     hw12275   3.443   0.141   4.368  2.3697 -0.0311  0.0104
 3069SOL     vw12276   3.457   0.064   4.330  0.2220 -0.5703  0.2189
 3070SOL     ow12277   4.537   5.033   4.327 -0.4278  0.3214  0.3555
 3070SOL     hw12278   4.493   5.109   4.364 -0.2690  1.1995 -1.1811
 3070SOL     hw12279   4.629   5.058   4.324 -0.5151  0.5120 -1.1576
 3070SOL     vw12280   4.543   5.046   4.332 -0.4182  0.4625 -0.0470
 3071SOL     ow12281   4.584   6.423   2.530 -0.1369 -0.2612  0.2350
 3071SOL     hw12282   4.560   6.482   2.602  0.9704 -0.1103  0.4871
 3071SOL     hw12283   4.663   6.379   2.560 -0.5536 -1.3779 -0.2445
 3071SOL     vw12284   4.591   6.425   2.544 -0.0458 -0.3886  0.2050
 3072SOL     ow12285   0.182   0.867   2.776  0.1061  0.5430 -0.5834
 3072SOL     hw12286   0.131   0.832   2.704 -0.2277 -1.8252  0.7167
 3072SOL     hw12287   0.121   0.924   2.824  0.1627  1.6432 -1.7507
 3072SOL     vw12288   0.168   0.870   2.773  0.0695  0.3757 -0.5658
 3073SOL     ow12289   4.188   0.501   1.991  0.2961  0.8008  0.1602
 3073SOL     hw12290   4.282   0.496   1.974  0.2625 -0.2943  0.1856
 3073SOL     hw12291   4.154   0.560   1.924  0.5329 -1.4649 -2.1180
 3073SOL     vw12292   4.196   0.508   1.980  0.3228  0.3574 -0.1370
 3074SOL     ow12293   3.631   2.794   4.124  0.0549 -0.1669  0.2480
 3074SOL     hw12294   3.649   2.864   4.186  0.4616  1.3549 -1.4976
 3074SOL     hw12295   3.568   2.737   4.169  0.5023  0.7341  2.0977
 3074SOL     vw12296   3.625   2.796   4.138  0.1676  0.1527  0.2618
 3075SOL     ow12297   6.053   4.897   3.944 -0.3311  0.1814 -0.6104
 3075SOL     hw12298   6.073   4.960   4.013  0.9902 -0.3749 -0.4575
 3075SOL     hw12299   6.039   4.952   3.866  2.6631  0.6655 -0.9266
 3075SOL     vw12300   6.054   4.913   3.942  0.2382  0.1719 -0.6320
 3076SOL     ow12301   2.381   0.758   4.927  0.2400  0.5068 -0.2043
 3076SOL     hw12302   2.366   0.735   5.019 -0.7542  0.6886 -0.3123
 3076SOL     hw12303   2.371   0.675   4.879  0.3045  0.4954 -0.1980
 3076SOL     vw12304   2.378   0.744   4.933  0.1173  0.5293 -0.2179
 3077SOL     ow12305   6.273   0.378   2.388  0.0066  0.0763 -0.0313
 3077SOL     hw12306   6.269   0.432   2.309 -1.6165  0.0962  0.0277
 3077SOL     hw12307   6.325   0.430   2.449  1.3143  0.0465 -1.0699
 3077SOL     vw12308   6.279   0.392   2.386 -0.0348  0.0750 -0.1605
 3078SOL     ow12309   3.187   4.386   4.133  0.2908 -0.1598 -0.6361
 3078SOL     hw12310   3.112   4.353   4.082 -0.9063 -1.0479  1.5671
 3078SOL     hw12311   3.168   4.479   4.144 -0.0808 -0.2147 -0.7788
 3078SOL     vw12312   3.174   4.394   4.127  0.0838 -0.2842 -0.3643
 3079SOL     ow12313   3.243   2.768   6.937  0.2909  0.3238 -0.4861
 3079SOL     hw12314   3.324   2.759   6.887 -0.1158 -1.3199 -0.9052
 3079SOL     hw12315   3.269   2.758   7.028  0.5145 -0.7228 -0.6536
 3079SOL     vw12316   3.257   2.765   6.942  0.2668 -0.0311 -0.5636
 3080SOL     ow12317   0.669   6.150   2.156 -0.2632  0.0738  0.8146
 3080SOL     hw12318   0.601   6.096   2.117  0.2843 -0.9590  1.2626
 3080SOL     hw12319   0.677   6.117   2.246  0.9578  0.0606  0.7121
 3080SOL     vw12320   0.661   6.139   2.163 -0.0299 -0.0644  0.8602
 3081SOL     ow12321   2.652   0.728   1.202 -0.4743  0.0349  0.2922
 3081SOL     hw12322   2.700   0.760   1.125 -0.5536 -0.9059 -0.1582
 3081SOL     hw12323   2.639   0.635   1.185 -0.6336 -0.1491  1.3790
 3081SOL     vw12324   2.657   0.720   1.189 -0.5057 -0.1135  0.3762
 3082SOL     ow12325   1.132   4.834   5.582  0.5313  0.2371  0.1868
 3082SOL     hw12326   1.208   4.775   5.586 -0.1986 -0.6631  1.4268
 3082SOL     hw12327   1.133   4.868   5.492  1.4430 -1.0430 -0.3179
 3082SOL     vw12328   1.142   4.831   5.571  0.5553 -0.0510  0.2842
 3083SOL     ow12329   1.179   6.603   4.355  0.2248  0.6081 -0.0144
 3083SOL     hw12330   1.263   6.596   4.402  0.3511 -0.8981 -0.4153
 3083SOL     hw12331   1.170   6.519   4.309 -0.8454  1.2871 -1.1016
 3083SOL     vw12332   1.189   6.591   4.355  0.1003  0.4988 -0.2108
 3084SOL     ow12333   0.963   4.207   6.735 -0.3639 -0.1685  0.1215
 3084SOL     hw12334   0.899   4.142   6.708 -1.1682  0.6837 -0.0868
 3084SOL     hw12335   0.948   4.281   6.676  0.5356  0.2008  0.3385
 3084SOL     vw12336   0.952   4.208   6.723 -0.3513 -0.0074  0.1228
 3085SOL     ow12337   6.325   5.459   5.362 -0.0084 -0.4513  0.0079
 3085SOL     hw12338   6.329   5.380   5.308  2.8935  0.6333 -1.5952
 3085SOL     hw12339   6.234   5.489   5.355 -0.6333 -2.4382 -1.1237
 3085SOL     vw12340   6.313   5.452   5.354  0.2923 -0.5703 -0.3529
 3086SOL     ow12341   3.273   5.160   3.190 -0.0910  0.0924  0.0897
 3086SOL     hw12342   3.185   5.175   3.226  0.4126  2.1177  0.6345
 3086SOL     hw12343   3.263   5.085   3.132 -1.8439 -0.6967  1.3174
 3086SOL     vw12344   3.260   5.152   3.187 -0.2557  0.2556  0.3235
 3087SOL     ow12345   7.464   3.222   1.111 -0.4178 -0.7563 -0.6211
 3087SOL     hw12346   7.375   3.245   1.141  0.9523  2.3840  1.6277
 3087SOL     hw12347   7.496   3.161   1.177 -0.5218 -0.9675 -0.7676
 3087SOL     vw12348   7.456   3.217   1.124 -0.2508 -0.3698 -0.3437
 3088SOL     ow12349   7.002   5.298   5.289 -0.5081 -0.0966 -0.0896
 3088SOL     hw12350   7.066   5.273   5.357  0.5012  1.0448 -0.5765
 3088SOL     hw12351   6.992   5.393   5.301 -0.8280  0.0007 -1.1101
 3088SOL     vw12352   7.009   5.307   5.300 -0.4172  0.0670 -0.2885
 3089SOL     ow12353   0.875   4.753   2.486  0.3878 -0.4168 -0.5320
 3089SOL     hw12354   0.908   4.838   2.514  1.4518 -0.6028 -1.1829
 3089SOL     hw12355   0.806   4.732   2.549 -1.2474  1.8048 -1.4696
 3089SOL     vw12356   0.870   4.761   2.498  0.3125 -0.1481 -0.7417
 3090SOL     ow12357   5.889   4.424   2.642 -0.1564  0.6673 -0.2730
 3090SOL     hw12358   5.969   4.430   2.694  0.9800 -0.8352 -1.7720
 3090SOL     hw12359   5.828   4.483   2.687  0.0332 -1.9414  3.9729
 3090SOL     vw12360   5.892   4.433   2.655  0.0186  0.1249  0.0894
 3091SOL     ow12361   3.169   5.571   1.421  0.2710 -0.4845 -0.3139
 3091SOL     hw12362   3.120   5.651   1.400 -0.3709 -0.3938  1.3875
 3091SOL     hw12363   3.103   5.502   1.422  0.4112 -0.6142  0.5700
 3091SOL     vw12364   3.154   5.572   1.419  0.2048 -0.4897  0.0272
 3092SOL     ow12365   2.918   1.042   7.203  0.2294  0.5875  0.0054
 3092SOL     hw12366   2.844   1.001   7.158  0.4024 -0.4635  0.6361
 3092SOL     hw12367   2.931   0.988   7.281 -1.5743  3.6130  2.6618
 3092SOL     vw12368   2.910   1.029   7.208  0.0142  0.8480  0.4392
 3093SOL     ow12369   0.624   3.471   1.104 -0.5006  0.5883  0.1303
 3093SOL     hw12370   0.595   3.394   1.055 -0.9798  1.0641 -0.3534
 3093SOL     hw12371   0.698   3.505   1.054  0.1608  0.0497  0.7248
 3093SOL     vw12372   0.630   3.465   1.091 -0.4765  0.5801  0.1448
 3094SOL     ow12373   5.830   6.592   2.980  0.7293  0.2708 -0.5049
 3094SOL     hw12374   5.898   6.541   2.936 -0.2533 -0.8876 -0.7621
 3094SOL     hw12375   5.841   6.571   3.073 -1.1172 -2.4096 -0.7737
 3094SOL     vw12376   5.840   6.582   2.987  0.3560 -0.2358 -0.5745
 3095SOL     ow12377   2.832   6.803   0.161 -0.2499  0.1399 -0.2848
 3095SOL     hw12378   2.758   6.828   0.107  0.5759  0.3238 -1.3813
 3095SOL     hw12379   2.899   6.776   0.098  0.4031 -0.6127  0.6937
 3095SOL     vw12380   2.831   6.802   0.146 -0.0547  0.0648 -0.3003
 3096SOL     ow12381   3.383   6.400   0.403 -0.3811  0.3181  0.2187
 3096SOL     hw12382   3.469   6.440   0.387 -1.5540  3.4505  1.0069
 3096SOL     hw12383   3.370   6.409   0.498 -0.1497 -3.4864  0.7609
 3096SOL     vw12384   3.393   6.406   0.414 -0.5052  0.2296  0.3942
 3097SOL     ow12385   5.099   0.605   0.717 -0.0636 -0.1661 -0.1545
 3097SOL     hw12386   5.005   0.617   0.730 -0.1091 -1.4363  0.8852
 3097SOL     hw12387   5.139   0.674   0.770 -0.4000  0.2458 -0.4284
 3097SOL     vw12388   5.092   0.616   0.726 -0.1140 -0.2793 -0.0535
 3098SOL     ow12389   3.933   2.894   3.534 -0.0344 -0.2003 -0.3587
 3098SOL     hw12390   3.911   2.944   3.613 -0.8954  0.6712 -1.1220
 3098SOL     hw12391   4.010   2.842   3.559  1.3289  1.9871  0.3018
 3098SOL     vw12392   3.940   2.894   3.548  0.0318  0.2033 -0.3723
 3099SOL     ow12393   4.903   5.182   0.999 -0.5935 -0.0412 -0.0396
 3099SOL     hw12394   4.828   5.217   1.047 -0.0080  0.1740  0.7399
 3099SOL     hw12395   4.966   5.254   0.996 -0.3761 -0.2423 -0.6241
 3099SOL     vw12396   4.901   5.196   1.005 -0.4876 -0.0396 -0.0139
 3100SOL     ow12397   1.538   1.869   7.237  0.5278 -0.2233  0.3377
 3100SOL     hw12398   1.493   1.943   7.276 -0.7844 -0.6409 -0.3264
 3100SOL     hw12399   1.630   1.882   7.260  0.4139  1.8562 -0.1514
 3100SOL     vw12400   1.544   1.880   7.245  0.3396 -0.0041  0.1855
 3101SOL     ow12401   6.266   4.450   0.691  0.5501  0.5757  0.3213
 3101SOL     hw12402   6.262   4.384   0.622  0.0007  0.7125  0.2242
 3101SOL     hw12403   6.271   4.534   0.644 -0.9355  0.7469  0.4328
 3101SOL     vw12404   6.266   4.453   0.675  0.2816  0.6161  0.3232
 3102SOL     ow12405   2.491   5.710   4.144 -0.3322 -0.0403 -0.2507
 3102SOL     hw12406   2.449   5.625   4.137  0.6108 -0.6846  1.2999
 3102SOL     hw12407   2.421   5.771   4.168 -0.6250 -0.8401  0.9845
 3102SOL     vw12408   2.476   5.707   4.146 -0.2464 -0.2308  0.1166
 3103SOL     ow12409   7.283   4.616   4.538  0.5234  0.0565 -0.4042
 3103SOL     hw12410   7.192   4.596   4.518  0.2389  0.0050  0.8845
 3103SOL     hw12411   7.283   4.710   4.558  0.4774 -0.2260  1.0015
 3103SOL     vw12412   7.271   4.626   4.538  0.4797  0.0124 -0.0484
 3104SOL     ow12413   6.079   3.052   1.538  0.0602  0.6090  0.1249
 3104SOL     hw12414   6.006   3.086   1.589 -0.1180 -1.3810  1.3012
 3104SOL     hw12415   6.049   2.967   1.506  0.6889  1.1764 -2.1808
 3104SOL     vw12416   6.065   3.046   1.540  0.1199  0.4213 -0.0241
 3105SOL     ow12417   6.292   6.760   4.128  0.1689 -0.1822 -0.9024
 3105SOL     hw12418   6.287   6.685   4.187 -0.2457 -0.0537 -0.7693
 3105SOL     hw12419   6.302   6.836   4.186 -0.1837 -0.0608 -0.9999
 3105SOL     vw12420   6.293   6.761   4.144  0.0675 -0.1493 -0.8976
 3106SOL     ow12421   2.878   0.813   3.429  0.0526 -0.1550 -0.0385
 3106SOL     hw12422   2.828   0.731   3.425  0.1266 -0.1479 -1.6707
 3106SOL     hw12423   2.969   0.786   3.418  0.7970 -0.3610  4.5803
 3106SOL     vw12424   2.883   0.799   3.427  0.1606 -0.1812  0.3556
 3107SOL     ow12425   4.399   7.326   5.071  0.4678  0.1445  0.0200
 3107SOL     hw12426   4.479   7.366   5.038  1.3835 -1.0004  0.8053
 3107SOL     hw12427   4.336   7.336   4.999  0.9679  2.0054 -0.2073
 3107SOL     vw12428   4.401   7.333   5.057  0.6545  0.2391  0.0937
 3108SOL     ow12429   2.810   1.566   4.860  0.0773  1.0971  0.0950
 3108SOL     hw12430   2.896   1.566   4.903  0.9035  2.3926 -1.4739
 3108SOL     hw12431   2.748   1.564   4.933  1.4163  0.3076  1.2765
 3108SOL     vw12432   2.813   1.566   4.875  0.3630  1.1640  0.0439
 3109SOL     ow12433   6.729   0.743   7.060  0.2622 -0.1523 -0.4114
 3109SOL     hw12434   6.757   0.779   7.144 -0.7163 -1.6260  0.6006
 3109SOL     hw12435   6.634   0.741   7.065  0.2376 -1.5598 -0.9545
 3109SOL     vw12436   6.720   0.747   7.072  0.1297 -0.5325 -0.3495
 3110SOL     ow12437   6.168   5.682   7.285  0.2893 -0.2209 -0.0621
 3110SOL     hw12438   6.192   5.765   7.326  0.6383 -0.2954 -0.1047
 3110SOL     hw12439   6.075   5.672   7.303  0.1656  0.3539 -0.3669
 3110SOL     vw12440   6.159   5.691   7.293  0.3190 -0.1550 -0.1082
 3111SOL     ow12441   2.353   3.452   0.942 -0.1244  1.0025 -0.1643
 3111SOL     hw12442   2.316   3.526   0.894  1.0599  0.3534 -2.1851
 3111SOL     hw12443   2.444   3.447   0.913  0.3543 -0.0893  1.3860
 3111SOL     vw12444   2.360   3.461   0.932  0.0949  0.7727 -0.2264
 3112SOL     ow12445   2.018   1.040   2.714  0.0092 -0.0286  0.2267
 3112SOL     hw12446   2.105   1.033   2.755 -0.3714 -1.4408  0.8660
 3112SOL     hw12447   2.017   1.126   2.674  2.3203 -0.5892 -1.1990
 3112SOL     vw12448   2.030   1.050   2.714  0.2639 -0.2889  0.1229
 3113SOL     ow12449   0.141   1.635   7.144  0.1894  0.0882 -0.3669
 3113SOL     hw12450   0.155   1.727   7.162  1.4500  0.4420 -2.6864
 3113SOL     hw12451   0.046   1.624   7.145  0.0561  1.2116  0.6934
 3113SOL     vw12452   0.130   1.645   7.146  0.3381  0.2831 -0.5329
 3114SOL     ow12453   2.092   0.337   0.644  0.2402  0.2382  0.0934
 3114SOL     hw12454   2.012   0.371   0.685 -1.6495 -3.3369 -0.2008
 3114SOL     hw12455   2.065   0.310   0.556  1.8314 -0.8275 -0.1176
 3114SOL     vw12456   2.078   0.338   0.638  0.2009 -0.3741  0.0268
 3115SOL     ow12457   4.295   1.290   3.454  0.4862 -0.2222 -0.2795
 3115SOL     hw12458   4.208   1.251   3.448  0.9574 -1.1605 -1.7067
 3115SOL     hw12459   4.355   1.216   3.447  1.4063  0.5060 -0.3118
 3115SOL     vw12460   4.292   1.275   3.452  0.6700 -0.2500 -0.4722
 3116SOL     ow12461   1.841   2.967   3.163  0.1281 -0.2196  0.6084
 3116SOL     hw12462   1.911   3.014   3.207  0.2117 -0.4350  0.7014
 3116SOL     hw12463   1.794   3.035   3.114  2.7411 -0.5129 -2.6975
 3116SOL     vw12464   1.844   2.982   3.162  0.4839 -0.2866  0.1845
 3117SOL     ow12465   5.284   0.011   6.994  0.0887  0.1681 -0.0034
 3117SOL     hw12466   5.230   0.083   7.026  0.5384  1.0641 -1.2123
 3117SOL     hw12467   5.342  -0.010   7.067  0.1994  1.2747  0.2358
 3117SOL     vw12468   5.285   0.018   7.008  0.1626  0.4323 -0.1314
 3118SOL     ow12469   0.930   5.197   2.383 -0.0782 -0.0945 -0.4060
 3118SOL     hw12470   0.923   5.127   2.448 -0.2064 -1.7915 -2.1703
 3118SOL     hw12471   0.900   5.275   2.429 -0.3781 -1.2684  1.4950
 3118SOL     vw12472   0.925   5.198   2.398 -0.1346 -0.4733 -0.3880
 3119SOL     ow12473   3.669   3.871   7.115 -0.4031  0.6201  0.0692
 3119SOL     hw12474   3.682   3.859   7.021 -0.4136  0.6986  0.0576
 3119SOL     hw12475   3.757   3.877   7.151 -0.2959 -1.9492  0.4041
 3119SOL     vw12476   3.682   3.870   7.107 -0.3905  0.2913  0.1116
 3120SOL     ow12477   6.117   3.802   5.442 -0.7012 -0.7307  0.1613
 3120SOL     hw12478   6.098   3.741   5.370  1.3435 -1.2317 -0.0198
 3120SOL     hw12479   6.206   3.778   5.470 -0.6131  0.9087  1.3921
 3120SOL     vw12480   6.127   3.791   5.436 -0.4199 -0.5805  0.2997
 3121SOL     ow12481   2.989   4.582   7.437 -0.1827  0.4968  0.8901
 3121SOL     hw12482   2.910   4.573   7.490 -0.1006  0.2674  0.9747
 3121SOL     hw12483   3.019   4.672   7.455 -1.0341  0.9854 -0.0114
 3121SOL     vw12484   2.983   4.593   7.446 -0.2843  0.5312  0.7823
 3122SOL     ow12485   5.810   3.291   7.223  0.0691 -0.0399  0.1562
 3122SOL     hw12486   5.739   3.238   7.185 -0.0953 -0.0801  0.5172
 3122SOL     hw12487   5.861   3.320   7.147  1.1299 -2.0744  0.0093
 3122SOL     vw12488   5.807   3.288   7.208  0.1874 -0.3134  0.1843
 3123SOL     ow12489   1.115   4.529   1.208  0.3733  0.2312  1.0807
 3123SOL     hw12490   1.176   4.504   1.277  1.2027 -3.6278 -0.8049
 3123SOL     hw12491   1.066   4.449   1.189 -1.3792  1.7336 -1.2967
 3123SOL     vw12492   1.116   4.516   1.215  0.2515 -0.0799  0.5183
 3124SOL     ow12493   4.291   6.591   7.149  0.3370 -0.0768 -0.7225
 3124SOL     hw12494   4.331   6.595   7.235 -1.7921 -2.6775  0.5440
 3124SOL     hw12495   4.340   6.523   7.103  1.3018  1.1251 -1.5346
 3124SOL     vw12496   4.303   6.582   7.154  0.1833 -0.2613 -0.6626
 3125SOL     ow12497   2.655   0.943   3.122 -0.1191  0.1635 -0.5173
 3125SOL     hw12498   2.639   0.984   3.037  1.4454  0.7654 -0.5552
 3125SOL     hw12499   2.632   0.851   3.108 -3.1400  0.8115 -0.5852
 3125SOL     vw12500   2.650   0.936   3.109 -0.3114  0.3285 -0.5313
 3126SOL     ow12501   2.514   4.031   5.648  0.3176 -0.1035 -0.7233
 3126SOL     hw12502   2.563   4.113   5.641 -0.5284  0.3919 -0.9332
 3126SOL     hw12503   2.444   4.040   5.584 -1.4165  0.1674  1.1130
 3126SOL     vw12504   2.511   4.043   5.639 -0.0229 -0.0024 -0.5088
 3127SOL     ow12505   2.074   0.180   3.649 -0.5940  0.4041  0.5288
 3127SOL     hw12506   2.045   0.156   3.737 -0.8287  1.5277  0.7768
 3127SOL     hw12507   1.994   0.177   3.596 -0.5873  0.4380  0.5166
 3127SOL     vw12508   2.059   0.176   3.653 -0.6241  0.5568  0.5599
 3128SOL     ow12509   1.996   3.476   1.390 -0.4850  0.4620 -0.4061
 3128SOL     hw12510   1.910   3.437   1.377 -1.3486  1.3428  1.9241
 3128SOL     hw12511   2.047   3.409   1.435  0.1365 -0.1086 -1.9066
 3128SOL     vw12512   1.991   3.462   1.395 -0.5170  0.5028 -0.2967
 3129SOL     ow12513   6.278   3.503   2.187 -0.0496 -0.4473 -0.0770
 3129SOL     hw12514   6.197   3.473   2.229  1.5464 -2.3504  1.8550
 3129SOL     hw12515   6.258   3.593   2.161 -1.4401  0.8700  4.4795
 3129SOL     vw12516   6.264   3.511   2.189 -0.0226 -0.5246  0.7790
 3130SOL     ow12517   5.055   0.249   1.543  0.3671  0.3222 -0.5696
 3130SOL     hw12518   5.135   0.228   1.591  0.1170 -0.1700 -0.3499
 3130SOL     hw12519   5.082   0.308   1.474  1.1137 -0.7196 -1.1919
 3130SOL     vw12520   5.069   0.254   1.540  0.4327  0.1198 -0.6227
 3131SOL     ow12521   0.985   6.671   4.640 -0.1948  0.5110 -0.2740
 3131SOL     hw12522   1.076   6.642   4.626  0.5834  2.8265 -0.3380
 3131SOL     hw12523   0.932   6.599   4.605  1.6003 -0.7583 -0.5398
 3131SOL     vw12524   0.990   6.657   4.634  0.1447  0.6490 -0.3176
 3132SOL     ow12525   2.597   4.135   5.252 -0.3962 -0.3698 -0.0003
 3132SOL     hw12526   2.587   4.217   5.301 -0.0729 -0.4980  0.2873
 3132SOL     hw12527   2.573   4.158   5.162  1.4561  0.4995 -0.3142
 3132SOL     vw12528   2.592   4.149   5.247 -0.1092 -0.2720 -0.0038
 3133SOL     ow12529   0.505   4.927   4.132  0.2743  0.1705 -0.6481
 3133SOL     hw12530   0.462   4.919   4.217  1.4676  0.6123  0.0234
 3133SOL     hw12531   0.580   4.984   4.148  0.0145  1.0096 -2.2036
 3133SOL     vw12532   0.509   4.933   4.145  0.3975  0.3395 -0.7651
 3134SOL     ow12533   1.224   4.905   2.551  0.0684 -0.0080  0.2770
 3134SOL     hw12534   1.266   4.988   2.528  1.3456 -0.9053 -0.7760
 3134SOL     hw12535   1.251   4.888   2.642  0.4786  0.3223  0.2165
 3134SOL     vw12536   1.233   4.914   2.560  0.2910 -0.0827  0.1301
 3135SOL     ow12537   4.025   5.788   2.217  0.3223  0.3999  0.0369
 3135SOL     hw12538   3.980   5.715   2.175 -0.1622  0.4691  0.4242
 3135SOL     hw12539   3.972   5.865   2.196  1.3098  0.7989 -1.1188
 3135SOL     vw12540   4.012   5.789   2.209  0.3889  0.4613 -0.0646
 3136SOL     ow12541   4.751   3.163   7.082  0.4299 -0.1779  0.3447
 3136SOL     hw12542   4.835   3.169   7.129  1.6410 -0.8695 -1.5877
 3136SOL     hw12543   4.735   3.253   7.052  1.9831 -0.5030 -1.6331
 3136SOL     vw12544   4.760   3.176   7.084  0.7949 -0.3120 -0.1712
 3137SOL     ow12545   5.880   5.197   2.951  0.1760  1.1662  0.1269
 3137SOL     hw12546   5.886   5.134   2.880 -1.6482 -0.3031  1.1804
 3137SOL     hw12547   5.838   5.274   2.911  0.0311  0.7114 -0.6077
 3137SOL     vw12548   5.875   5.199   2.936 -0.0837  0.9122  0.1690
 3138SOL     ow12549   4.331   5.065   1.812 -0.8814  0.1925  0.2694
 3138SOL     hw12550   4.333   5.092   1.720 -4.7472 -0.8809 -0.3183
 3138SOL     hw12551   4.243   5.088   1.842 -0.1251 -0.5086  3.4147
 3138SOL     vw12552   4.320   5.072   1.804 -1.2920 -0.0415  0.6068
 3139SOL     ow12553   0.009   3.215   2.089 -0.7984  0.1184  0.2997
 3139SOL     hw12554  -0.010   3.202   1.996 -1.1888  0.9293  0.2622
 3139SOL     hw12555   0.069   3.143   2.112 -0.3321  0.1873 -0.6820
 3139SOL     vw12556   0.014   3.204   2.080 -0.7884  0.2345  0.1651
 3140SOL     ow12557   5.745   6.112   2.912 -0.0352 -0.1873  0.6145
 3140SOL     hw12558   5.805   6.101   2.985 -1.0609  0.2327  1.5517
 3140SOL     hw12559   5.730   6.206   2.907 -1.0576 -0.3289  0.7833
 3140SOL     vw12560   5.751   6.123   2.921 -0.3052 -0.1507  0.7603
 3141SOL     ow12561   3.655   0.938   0.386 -0.3886  0.4049  0.7742
 3141SOL     hw12562   3.718   0.879   0.345 -1.0744 -0.5427  1.0464
 3141SOL     hw12563   3.577   0.931   0.331 -0.6801  0.6084  1.1589
 3141SOL     vw12564   3.653   0.930   0.373 -0.5175  0.3067  0.8609
 3142SOL     ow12565   0.575   0.646   2.620  0.2670 -0.3316 -0.1261
 3142SOL     hw12566   0.592   0.559   2.658  0.1019  0.0782  0.9355
 3142SOL     hw12567   0.649   0.699   2.650 -0.1067  0.1208 -0.0028
 3142SOL     vw12568   0.587   0.641   2.629  0.1959 -0.2179  0.0302
 3143SOL     ow12569   0.024   3.413   5.456  0.3974 -0.3628 -0.0024
 3143SOL     hw12570   0.058   3.502   5.451 -0.2676 -0.0599  0.7318
 3143SOL     hw12571   0.101   3.357   5.443  0.9703  0.3085  0.4179
 3143SOL     vw12572   0.039   3.417   5.453  0.3853 -0.2344  0.1497
 3144SOL     ow12573   6.802   2.925   6.580 -0.4351 -0.2524  0.7593
 3144SOL     hw12574   6.838   2.845   6.617  2.4363 -0.1299 -1.3933
 3144SOL     hw12575   6.877   2.970   6.541 -2.3201  2.2695 -0.3061
 3144SOL     vw12576   6.816   2.920   6.579 -0.3049  0.0966  0.3345
 3145SOL     ow12577   2.931   4.241   0.046  0.5447  0.1525 -0.5975
 3145SOL     hw12578   3.018   4.281   0.049  1.1044 -1.0313 -0.5827
 3145SOL     hw12579   2.907   4.229   0.138  0.6638 -0.1234 -0.5996
 3145SOL     vw12580   2.940   4.245   0.059  0.6344 -0.0401 -0.5958
 3146SOL     ow12581   6.661   0.946   5.452 -0.3578  0.1865  0.5748
 3146SOL     hw12582   6.585   0.998   5.427 -0.7001 -0.7726 -0.4734
 3146SOL     hw12583   6.722   1.008   5.492 -2.0304  0.8196  2.2392
 3146SOL     vw12584   6.659   0.961   5.454 -0.6237  0.1435  0.6561
 3147SOL     ow12585   4.037   2.416   6.602 -0.0930 -0.2791 -0.1451
 3147SOL     hw12586   4.057   2.327   6.573  1.0182  0.1511 -0.7222
 3147SOL     hw12587   4.097   2.432   6.675 -2.1006 -0.9400  1.7689
 3147SOL     vw12588   4.047   2.406   6.608 -0.2110 -0.3095  0.0308
 3148SOL     ow12589   3.210   3.834   1.522 -0.0262  0.0839 -0.7877
 3148SOL     hw12590   3.228   3.742   1.505 -1.0447 -0.0236 -1.4159
 3148SOL     hw12591   3.269   3.882   1.463  0.7922 -0.1463 -0.1656
 3148SOL     vw12592   3.220   3.828   1.512 -0.0526  0.0395 -0.7885
 3149SOL     ow12593   7.244   3.930   4.109 -0.5173  0.2836 -0.0828
 3149SOL     hw12594   7.313   3.864   4.119 -1.7045 -1.7446 -3.5559
 3149SOL     hw12595   7.172   3.897   4.163  0.0846  0.6901  0.9980
 3149SOL     vw12596   7.244   3.917   4.117 -0.5946  0.0696 -0.3984
 3150SOL     ow12597   2.297   3.695   7.001  0.1976  0.0518  0.2787
 3150SOL     hw12598   2.249   3.714   6.921  0.7042 -0.9449 -0.2803
 3150SOL     hw12599   2.245   3.627   7.045 -0.9464  1.7127  1.6423
 3150SOL     vw12600   2.284   3.688   6.996  0.1135  0.1395  0.3850
 3151SOL     ow12601   1.028   0.186   6.217 -0.6224  0.2404  0.8482
 3151SOL     hw12602   1.009   0.139   6.299 -1.0027 -0.2036  0.5120
 3151SOL     hw12603   0.952   0.169   6.162 -1.3968  2.3447  1.1816
 3151SOL     vw12604   1.016   0.178   6.221 -0.7747  0.4595  0.8481
 3152SOL     ow12605   5.277   4.300   1.406 -0.1556  0.1761  0.4758
 3152SOL     hw12606   5.196   4.318   1.358 -0.2958  0.3209  0.7638
 3152SOL     hw12607   5.297   4.383   1.451  1.0205  0.6521 -0.8589
 3152SOL     vw12608   5.269   4.314   1.406 -0.0188  0.2580  0.3377
 3153SOL     ow12609   3.208   6.986   4.441  0.1975 -0.4338  0.1607
 3153SOL     hw12610   3.295   7.002   4.476  0.1422  1.6564 -0.5018
 3153SOL     hw12611   3.222   6.946   4.355  0.5939  1.1528 -0.5472
 3153SOL     vw12612   3.221   6.983   4.434  0.2425  0.0515 -0.0200
 3154SOL     ow12613   1.388   6.728   4.046  0.1846  0.4973  0.0109
 3154SOL     hw12614   1.476   6.712   4.081  0.6484 -0.3950 -1.4959
 3154SOL     hw12615   1.358   6.643   4.015 -1.3804  0.7191  0.8205
 3154SOL     vw12616   1.396   6.715   4.047  0.0393  0.4089 -0.0811
 3155SOL     ow12617   4.875   1.284   3.818 -0.1937  0.8155  0.3979
 3155SOL     hw12618   4.894   1.202   3.772 -2.1825  0.5559 -0.0656
 3155SOL     hw12619   4.944   1.344   3.789  0.5311 -0.3088 -0.3008
 3155SOL     vw12620   4.886   1.281   3.808 -0.3605  0.6328  0.2446
 3156SOL     ow12621   6.826   3.454   5.051  0.3460  0.0437 -0.1560
 3156SOL     hw12622   6.820   3.362   5.077  0.8653  0.1772  0.4485
 3156SOL     hw12623   6.807   3.503   5.131 -1.4271  0.4870 -0.7963
 3156SOL     vw12624   6.823   3.448   5.065  0.1805  0.1198 -0.1607
 3157SOL     ow12625   0.767   5.998   1.056  0.2392 -0.1954  0.2402
 3157SOL     hw12626   0.733   6.088   1.064  2.2696  0.6261  0.2408
 3157SOL     hw12627   0.834   5.992   1.125  0.6792 -1.4428 -0.2807
 3157SOL     vw12628   0.771   6.009   1.067  0.5652 -0.2515  0.1715
 3158SOL     ow12629   3.835   1.869   0.521  0.0422 -0.4805 -1.0604
 3158SOL     hw12630   3.835   1.773   0.513  0.6588 -0.4926 -0.9474
 3158SOL     hw12631   3.776   1.887   0.595 -1.3202 -0.6726 -2.0541
 3158SOL     vw12632   3.827   1.859   0.530 -0.0563 -0.5075 -1.1766
 3159SOL     ow12633   3.115   5.531   2.182  0.0207  0.5545 -0.8430
 3159SOL     hw12634   3.097   5.443   2.151 -2.0882  0.6824 -0.1209
 3159SOL     hw12635   3.177   5.520   2.254  1.1845 -0.1435 -1.9154
 3159SOL     vw12636   3.121   5.518   2.187 -0.1041  0.4792 -0.8892
 3160SOL     ow12637   2.550   1.259   7.430  0.0395 -0.2530 -0.2504
 3160SOL     hw12638   2.568   1.182   7.483 -0.1077  0.2389  0.5436
 3160SOL     hw12639   2.576   1.235   7.341 -0.8766 -1.5310 -0.2005
 3160SOL     vw12640   2.555   1.246   7.425 -0.1009 -0.3568 -0.1390
 3161SOL     ow12641   1.140   7.235   6.691  0.0329  0.0769 -0.2532
 3161SOL     hw12642   1.131   7.145   6.724  0.0447  0.4926  0.9154
 3161SOL     hw12643   1.226   7.263   6.722  0.5904  0.0741 -1.7024
 3161SOL     vw12644   1.150   7.227   6.699  0.1081  0.1314 -0.2902
 3162SOL     ow12645   2.682   1.446   5.082  0.5602 -1.3796  0.3991
 3162SOL     hw12646   2.597   1.429   5.043  0.8323 -2.9623  0.4459
 3162SOL     hw12647   2.668   1.523   5.138 -0.5975 -1.0709 -0.2845
 3162SOL     vw12648   2.669   1.454   5.085  0.4432 -1.5476  0.3154
 3163SOL     ow12649   6.644   2.819   6.383 -0.4191  0.1257 -0.4227
 3163SOL     hw12650   6.709   2.871   6.430  1.5247 -0.6862 -2.0826
 3163SOL     hw12651   6.639   2.737   6.432  0.1801  0.0105 -0.5437
 3163SOL     vw12652   6.652   2.815   6.396 -0.0834  0.0035 -0.6576
 3164SOL     ow12653   3.583   0.660   4.443 -0.2272  0.5538  0.4325
 3164SOL     hw12654   3.529   0.682   4.367 -0.6761 -1.4695  0.1043
 3164SOL     hw12655   3.668   0.638   4.407 -0.9737 -2.3609  0.1822
 3164SOL     vw12656   3.587   0.660   4.428 -0.3850 -0.0977  0.3560
 3165SOL     ow12657   1.085   4.674   4.489 -0.6150 -0.4083  0.3139
 3165SOL     hw12658   1.149   4.656   4.421 -0.6443 -0.5530  0.3250
 3165SOL     hw12659   1.008   4.707   4.442 -0.1902  0.7096  0.3729
 3165SOL     vw12660   1.083   4.676   4.474 -0.5628 -0.2801  0.3231
 3166SOL     ow12661   0.072   4.061   7.024 -0.4753  0.3932  0.7417
 3166SOL     hw12662   0.112   4.121   7.086  0.5537  0.6340 -0.1251
 3166SOL     hw12663   0.072   3.976   7.069 -2.1637  1.0364  2.0668
 3166SOL     vw12664   0.077   4.058   7.038 -0.5623  0.5100  0.8023
 3167SOL     ow12665   0.455   2.258   3.868 -0.1767 -0.0960 -0.4177
 3167SOL     hw12666   0.445   2.328   3.804 -0.8286  0.6607  0.4855
 3167SOL     hw12667   0.470   2.304   3.951 -1.8805 -0.9575  0.4176
 3167SOL     vw12668   0.456   2.273   3.871 -0.4875 -0.1098 -0.1884
 3168SOL     ow12669   2.976   4.483   3.558 -0.5474 -0.1311  0.3398
 3168SOL     hw12670   3.067   4.459   3.573 -0.2043 -0.2192 -1.6986
 3168SOL     hw12671   2.964   4.563   3.609  0.9010  0.3150  0.0292
 3168SOL     vw12672   2.986   4.490   3.567 -0.3110 -0.0839  0.0298
 3169SOL     ow12673   2.740   3.786   5.674 -0.0722  0.5875  0.3380
 3169SOL     hw12674   2.667   3.816   5.727  0.2794  1.6784  0.2220
 3169SOL     hw12675   2.780   3.716   5.726 -0.5547  0.7124  0.8838
 3169SOL     vw12676   2.736   3.780   5.688 -0.0895  0.7479  0.3943
 3170SOL     ow12677   2.914   2.215   1.964 -0.4320 -0.0156 -0.0925
 3170SOL     hw12678   2.964   2.172   1.895 -0.7754 -0.2273 -0.2117
 3170SOL     hw12679   2.853   2.148   1.995 -1.4212  0.5700 -0.7204
 3170SOL     vw12680   2.912   2.201   1.959 -0.6078  0.0337 -0.1910
 3171SOL     ow12681   0.558   5.125   6.690 -0.5587 -0.2845  0.2867
 3171SOL     hw12682   0.508   5.044   6.681 -0.9342  0.0618 -0.9593
 3171SOL     hw12683   0.511   5.189   6.636  0.4335  0.4268  0.2191
 3171SOL     vw12684   0.545   5.123   6.681 -0.4774 -0.1452  0.1132
 3172SOL     ow12685   2.549   4.185   6.051 -0.0508  0.6110 -0.2898
 3172SOL     hw12686   2.575   4.232   6.130  2.7762 -0.6890 -0.3466
 3172SOL     hw12687   2.570   4.094   6.068 -1.5622 -0.0589 -1.7131
 3172SOL     vw12688   2.555   4.179   6.063  0.1228  0.3510 -0.4852
 3173SOL     ow12689   6.032   3.386   2.715  0.0884 -0.3748  0.2160
 3173SOL     hw12690   5.961   3.334   2.676 -0.6430 -0.2886  1.3812
 3173SOL     hw12691   6.106   3.326   2.717 -0.4982 -1.1015  0.7243
 3173SOL     vw12692   6.032   3.371   2.710 -0.0856 -0.4593  0.4368
 3174SOL     ow12693   5.827   4.673   7.224  0.2353 -0.0497 -0.6410
 3174SOL     hw12694   5.757   4.688   7.161 -0.2497  0.4083  0.0064
 3174SOL     hw12695   5.824   4.578   7.241 -0.0247 -0.0766 -0.8388
 3174SOL     vw12696   5.818   4.662   7.218  0.1373  0.0072 -0.5815
 3175SOL     ow12697   3.376   7.129   6.578  0.0361 -0.2104  0.7645
 3175SOL     hw12698   3.330   7.132   6.662 -0.6456  1.0541  0.3676
 3175SOL     hw12699   3.467   7.151   6.600 -0.0198 -0.4507  1.2458
 3175SOL     vw12700   3.382   7.132   6.592 -0.0610 -0.0753  0.7753
 3176SOL     ow12701   2.915   3.185   4.376 -0.0650 -0.1779  0.3084
 3176SOL     hw12702   2.883   3.261   4.425  1.8519 -0.2084  1.7280
 3176SOL     hw12703   3.009   3.201   4.367  0.3246 -2.2548  0.3757
 3176SOL     vw12704   2.923   3.197   4.381  0.2394 -0.4559  0.5047
 3177SOL     ow12705   3.287   3.228   4.654  0.2925 -0.7061  0.2752
 3177SOL     hw12706   3.378   3.231   4.626  0.0072  1.4508 -0.5986
 3177SOL     hw12707   3.239   3.273   4.585 -1.2441 -0.4211  1.4716
 3177SOL     vw12708   3.293   3.234   4.641  0.0522 -0.3841  0.3178
 3178SOL     ow12709   0.862   0.953   4.565  0.0677  0.4711  0.2224
 3178SOL     hw12710   0.915   0.886   4.523  0.2758  1.5452 -1.3355
 3178SOL     hw12711   0.918   0.990   4.632  0.5796  0.2576 -0.0842
 3178SOL     vw12712   0.876   0.949   4.568  0.1628  0.5847 -0.0234
 3179SOL     ow12713   4.913   4.937   4.183 -0.2693 -0.1327 -0.2483
 3179SOL     hw12714   4.957   4.908   4.103 -0.5326 -1.9002  0.1974
 3179SOL     hw12715   4.873   5.021   4.159 -0.3974 -0.6433 -2.0107
 3179SOL     vw12716   4.913   4.944   4.169 -0.3207 -0.4332 -0.4218
 3180SOL     ow12717   2.867   3.645   2.794  0.1475  0.2120  0.1119
 3180SOL     hw12718   2.867   3.645   2.698  0.2533 -2.3161  0.0336
 3180SOL     hw12719   2.846   3.554   2.818  0.9404  0.5726  2.4685
 3180SOL     vw12720   2.865   3.633   2.784  0.2662 -0.0740  0.4126
 3181SOL     ow12721   3.902   5.519   7.161 -0.0512 -0.0627 -0.6197
 3181SOL     hw12722   3.828   5.523   7.222  1.0241  1.1195  0.6849
 3181SOL     hw12723   3.931   5.428   7.166 -2.5097 -1.0748 -2.6126
 3181SOL     vw12724   3.896   5.507   7.170 -0.2337 -0.0405 -0.7107
 3182SOL     ow12725   1.660   3.021   3.699 -0.6747  0.3560  0.4397
 3182SOL     hw12726   1.613   2.984   3.774 -0.3073 -0.9759  0.0447
 3182SOL     hw12727   1.751   2.995   3.713 -0.0849  2.5502  0.9796
 3182SOL     vw12728   1.666   3.012   3.711 -0.5485  0.4697  0.4587
 3183SOL     ow12729   1.748   5.729   1.706 -0.1712 -0.0886  0.0473
 3183SOL     hw12730   1.719   5.813   1.670 -2.3994 -1.0741 -0.6336
 3183SOL     hw12731   1.781   5.681   1.630 -0.4397 -0.4243  0.1424
 3183SOL     vw12732   1.749   5.734   1.691 -0.5006 -0.2630 -0.0300
 3184SOL     ow12733   2.708   5.788   4.025 -0.0443  1.0743 -0.0855
 3184SOL     hw12734   2.624   5.766   4.065  0.4454 -0.0218  0.3995
 3184SOL     hw12735   2.687   5.809   3.934 -1.0595  2.6462  0.4821
 3184SOL     vw12736   2.694   5.788   4.018 -0.1137  1.1370  0.0532
 3185SOL     ow12737   6.626   3.846   2.695  0.1297 -0.3790 -0.0179
 3185SOL     hw12738   6.590   3.819   2.780  0.9574 -1.8071 -0.0918
 3185SOL     hw12739   6.714   3.879   2.715 -0.0630  0.2734 -0.2082
 3185SOL     vw12740   6.633   3.847   2.709  0.2139 -0.4815 -0.0528
 3186SOL     ow12741   0.049   1.627   3.735  0.3838  0.2796  0.2837
 3186SOL     hw12742   0.078   1.549   3.782  0.5014  0.9517  1.3834
 3186SOL     hw12743   0.129   1.674   3.714  0.2769  0.4434  0.2395
 3186SOL     vw12744   0.063   1.623   3.739  0.3853  0.3899  0.4230
 3187SOL     ow12745   4.093   3.808   1.882  0.1759 -0.3097  0.0927
 3187SOL     hw12746   4.147   3.859   1.821 -0.6435 -0.2886 -0.6412
 3187SOL     hw12747   4.015   3.861   1.896  0.7804  0.1531  1.9957
 3187SOL     vw12748   4.090   3.821   1.876  0.1473 -0.2459  0.2468
 3188SOL     ow12749   1.811   4.518   7.426  0.6585  0.1496  0.0501
 3188SOL     hw12750   1.785   4.582   7.360  3.4952  2.0669  0.5960
 3188SOL     hw12751   1.761   4.542   7.504  0.1648  0.3652 -0.3303
 3188SOL     vw12752   1.801   4.530   7.428  0.9677  0.4311  0.0720
 3189SOL     ow12753   5.103   6.363   6.713 -0.0003  0.8596  0.5409
 3189SOL     hw12754   5.113   6.430   6.780 -1.2345  1.6977 -0.0687
 3189SOL     hw12755   5.130   6.406   6.632  1.9054 -0.2774  0.5035
 3189SOL     vw12756   5.108   6.377   6.711  0.0885  0.8202  0.4556
 3190SOL     ow12757   5.267   4.926   7.364 -0.3506 -0.0241 -0.3917
 3190SOL     hw12758   5.213   4.940   7.287 -1.2878  0.5990  0.3502
 3190SOL     hw12759   5.335   4.864   7.336 -1.0342 -0.2737 -1.5285
 3190SOL     vw12760   5.269   4.920   7.350 -0.5646  0.0253 -0.4439
 3191SOL     ow12761   1.108   6.717   7.043 -0.1461  0.0297 -0.3901
 3191SOL     hw12762   1.152   6.792   7.083  1.5714 -1.0064 -0.2622
 3191SOL     hw12763   1.160   6.697   6.965 -0.8723 -0.7240 -0.6952
 3191SOL     vw12764   1.120   6.724   7.038 -0.0153 -0.2065 -0.4137
 3192SOL     ow12765   5.934   2.939   3.092  0.3382 -0.4261  0.3727
 3192SOL     hw12766   5.932   3.008   3.158  0.7210  1.1222 -1.1572
 3192SOL     hw12767   5.984   2.869   3.132  1.0012  0.6821  1.5530
 3192SOL     vw12768   5.940   2.939   3.106  0.4764 -0.0757  0.3266
 3193SOL     ow12769   3.597   3.134   2.980 -0.9446  0.4396 -0.2644
 3193SOL     hw12770   3.626   3.090   2.900  2.0494 -0.9965  1.4156
 3193SOL     hw12771   3.652   3.212   2.985 -2.1651  1.3259 -0.3038
 3193SOL     vw12772   3.608   3.138   2.970 -0.7106  0.3670 -0.0479
 3194SOL     ow12773   2.638   1.339   4.757  0.8135  0.2800  0.3889
 3194SOL     hw12774   2.636   1.254   4.711  0.1679  0.8010 -0.5897
 3194SOL     hw12775   2.574   1.392   4.710 -1.1250  0.3637  2.9212
 3194SOL     vw12776   2.630   1.335   4.745  0.4725  0.3597  0.5939
 3195SOL     ow12777   2.091   5.454   0.622 -0.8144 -0.0923  0.2022
 3195SOL     hw12778   2.092   5.510   0.699  0.8771 -0.9302  0.8575
 3195SOL     hw12779   2.090   5.365   0.658  0.2233 -0.4962 -0.7055
 3195SOL     vw12780   2.091   5.449   0.637 -0.4544 -0.2561  0.1689
 3196SOL     ow12781   7.024   4.028   3.580 -0.1637 -0.1188 -0.1615
 3196SOL     hw12782   6.994   4.119   3.583  1.5912  0.6585 -2.5025
 3196SOL     hw12783   6.963   3.980   3.636 -1.8670  2.2886  0.2027
 3196SOL     vw12784   7.012   4.034   3.588 -0.1571  0.3011 -0.4224
 3197SOL     ow12785   6.791   3.796   2.152  0.2954  0.4380 -0.5369
 3197SOL     hw12786   6.877   3.787   2.192  0.7546 -0.0264 -1.5903
 3197SOL     hw12787   6.808   3.794   2.058 -0.7276  1.7111 -0.7820
 3197SOL     vw12788   6.804   3.794   2.145  0.2213  0.5445 -0.7083
 3198SOL     ow12789   5.998   1.540   2.682 -0.7100  0.0946 -0.1137
 3198SOL     hw12790   6.024   1.448   2.679 -0.2061  0.1866  1.0172
 3198SOL     hw12791   6.037   1.579   2.604 -2.0516 -0.9164 -1.3354
 3198SOL     vw12792   6.006   1.533   2.671 -0.8204 -0.0266 -0.1256
 3199SOL     ow12793   1.783   5.023   4.551  0.4792 -0.0555 -0.5146
 3199SOL     hw12794   1.777   4.954   4.617  1.6450 -0.3208 -0.6646
 3199SOL     hw12795   1.768   5.105   4.599  4.6815  0.1189  0.8683
 3199SOL     vw12796   1.780   5.025   4.566  1.1875 -0.0672 -0.3519
 3200SOL     ow12797   0.285   5.208   4.596 -0.1038 -0.5185  0.0473
 3200SOL     hw12798   0.268   5.297   4.627  1.5123 -0.0893 -0.1998
 3200SOL     hw12799   0.204   5.181   4.553 -0.1582  1.3884 -1.1600
 3200SOL     vw12800   0.272   5.216   4.595  0.1022 -0.2103 -0.1450
 3201SOL     ow12801   6.788   0.130   1.373  0.9993  0.1216 -0.8514
 3201SOL     hw12802   6.772   0.222   1.394 -2.1563 -0.5303  0.2274
 3201SOL     hw12803   6.780   0.125   1.278 -0.4655  0.7675 -0.7932
 3201SOL     vw12804   6.785   0.141   1.364  0.3898  0.1208 -0.7014
 3202SOL     ow12805   6.304   5.783   1.178  0.0850  0.4158  0.5448
 3202SOL     hw12806   6.397   5.769   1.196  0.2110  0.4020 -0.0945
 3202SOL     hw12807   6.303   5.837   1.099 -0.4597 -0.8016 -0.3128
 3202SOL     vw12808   6.317   5.789   1.170  0.0296  0.2534  0.3473
 3203SOL     ow12809   3.132   0.762   3.677 -0.1575 -0.5976  0.0760
 3203SOL     hw12810   3.062   0.794   3.734 -0.2744 -1.5094  0.4622
 3203SOL     hw12811   3.204   0.824   3.691 -0.8748  0.3449 -0.3207
 3203SOL     vw12812   3.132   0.775   3.687 -0.2677 -0.5936  0.0746
 3204SOL     ow12813   7.037   5.340   2.979 -0.2339  0.0837  0.3132
 3204SOL     hw12814   7.077   5.413   3.026 -0.3859  0.9403 -0.8492
 3204SOL     hw12815   7.105   5.272   2.978  0.9494  1.2278 -0.9577
 3204SOL     vw12816   7.052   5.341   2.985 -0.0978  0.3476 -0.0077
 3205SOL     ow12817   0.946   7.270   6.911  0.1761 -0.3233 -0.0738
 3205SOL     hw12818   0.900   7.339   6.959  0.9999  0.2867 -0.1243
 3205SOL     hw12819   0.878   7.227   6.859 -0.4403  0.1157  0.3497
 3205SOL     vw12820   0.931   7.274   6.911  0.2035 -0.1853 -0.0246
 3206SOL     ow12821   0.899   5.545   0.808  0.2128 -0.5655  0.4741
 3206SOL     hw12822   0.933   5.474   0.754 -2.1649  0.4652 -2.6328
 3206SOL     hw12823   0.806   5.527   0.816 -0.7246  2.6251 -1.3712
 3206SOL     vw12824   0.892   5.534   0.802 -0.2246 -0.0081 -0.1794
 3207SOL     ow12825   0.321   0.319   3.858 -0.5493 -1.1877  0.3079
 3207SOL     hw12826   0.267   0.300   3.781 -0.2037 -1.6505  0.1779
 3207SOL     hw12827   0.349   0.410   3.846 -3.0452 -0.1746  1.4332
 3207SOL     vw12828   0.318   0.328   3.846 -0.8330 -1.1151  0.4392
 3208SOL     ow12829   5.029   6.004   1.108 -0.0782  0.0580 -0.7957
 3208SOL     hw12830   5.111   6.050   1.127  0.0269 -0.2728 -0.4342
 3208SOL     hw12831   4.984   6.060   1.045 -0.1760  0.9029  0.0040
 3208SOL     vw12832   5.034   6.017   1.102 -0.0772  0.1259 -0.6424
 3209SOL     ow12833   1.927   0.099   5.244 -0.6960  0.0675 -0.4610
 3209SOL     hw12834   1.930   0.092   5.339 -0.3348 -1.1092 -0.5466
 3209SOL     hw12835   1.854   0.159   5.226 -1.0197 -0.0191  0.5362
 3209SOL     vw12836   1.918   0.106   5.254 -0.6911 -0.0991 -0.3405
 3210SOL     ow12837   2.042   6.708   4.555  0.1760 -0.1346  0.0520
 3210SOL     hw12838   1.962   6.692   4.504 -0.8364  2.3278  0.7683
 3210SOL     hw12839   2.108   6.732   4.489 -0.1232 -0.4847 -0.3840
 3210SOL     vw12840   2.040   6.709   4.540  0.0029  0.1440  0.0889
 3211SOL     ow12841   7.145   3.124   5.424  0.3186  0.0674  0.9020
 3211SOL     hw12842   7.104   3.133   5.510 -0.1826 -1.0743  0.7956
 3211SOL     hw12843   7.082   3.074   5.372 -0.0230  1.9138 -0.5835
 3211SOL     vw12844   7.131   3.119   5.429  0.2074  0.1603  0.6919
 3212SOL     ow12845   0.687   6.613   1.899  0.1836 -0.0105 -0.5703
 3212SOL     hw12846   0.708   6.554   1.971 -0.0899  1.1382  0.4854
 3212SOL     hw12847   0.592   6.616   1.898  0.1490 -0.7957 -1.6613
 3212SOL     vw12848   0.677   6.605   1.909  0.1429  0.0370 -0.5750
 3213SOL     ow12849   0.357   1.150   6.884 -0.3020 -0.2352 -0.5532
 3213SOL     hw12850   0.452   1.166   6.882 -0.2989 -0.1523  0.0779
 3213SOL     hw12851   0.349   1.056   6.896 -0.3107 -0.4178 -1.8964
 3213SOL     vw12852   0.369   1.140   6.886 -0.3028 -0.2483 -0.6471
 3214SOL     ow12853   1.505   6.384   5.048 -0.1295 -0.2340 -0.6651
 3214SOL     hw12854   1.417   6.411   5.023  0.1695  1.0945 -0.3386
 3214SOL     hw12855   1.505   6.390   5.144  0.2326 -0.5136 -0.6469
 3214SOL     vw12856   1.493   6.388   5.057 -0.0423 -0.0956 -0.6194
 3215SOL     ow12857   2.939   0.610   7.332  0.0697 -0.2670 -0.4555
 3215SOL     hw12858   3.033   0.592   7.336  0.3757  0.6602 -2.3599
 3215SOL     hw12859   2.930   0.701   7.362  0.1030  0.3679 -2.2177
 3215SOL     vw12860   2.950   0.620   7.336  0.1143 -0.0609 -0.9391
 3216SOL     ow12861   4.510   3.825   2.128 -0.2576 -0.2644  0.6819
 3216SOL     hw12862   4.515   3.878   2.049  0.1682  2.1048  2.1790
 3216SOL     hw12863   4.599   3.790   2.139 -0.2602 -0.4148  0.2513
 3216SOL     vw12864   4.523   3.827   2.119 -0.2017  0.0284  0.8225
 3217SOL     ow12865   6.617   6.176   1.357 -0.1096 -0.0669  0.3223
 3217SOL     hw12866   6.703   6.214   1.376  0.0241  1.1753 -2.3865
 3217SOL     hw12867   6.568   6.247   1.315 -1.1974 -1.7626 -1.4379
 3217SOL     vw12868   6.622   6.190   1.354 -0.2356 -0.1264 -0.2674
 3218SOL     ow12869   3.612   1.943   1.883 -0.1354  0.3694  0.2081
 3218SOL     hw12870   3.631   1.929   1.791 -0.7643  1.9377 -0.2037
 3218SOL     hw12871   3.565   1.865   1.911 -1.1998  0.4733 -1.1931
 3218SOL     vw12872   3.608   1.931   1.875 -0.3588  0.5900 -0.0311
 3219SOL     ow12873   4.897   4.095   1.537 -0.3151  0.2597 -0.0999
 3219SOL     hw12874   4.932   4.014   1.501 -1.6827  0.3196 -1.6388
 3219SOL     hw12875   4.803   4.090   1.521 -0.4871  1.9286  0.2506
 3219SOL     vw12876   4.889   4.084   1.530 -0.5181  0.4878 -0.2567
 3220SOL     ow12877   5.279   0.771   0.836  0.3207  0.6780 -0.4140
 3220SOL     hw12878   5.304   0.858   0.868 -1.5238  1.2450 -0.4250
 3220SOL     hw12879   5.313   0.768   0.746 -1.3654  2.2560 -1.1743
 3220SOL     vw12880   5.287   0.782   0.828 -0.1447  0.9610 -0.5158
 3221SOL     ow12881   3.592   7.208   0.332  0.0535  0.6642 -0.8060
 3221SOL     hw12882   3.536   7.134   0.308 -1.6491  1.8407 -0.6498
 3221SOL     hw12883   3.570   7.276   0.268 -0.3133  1.8954  0.5977
 3221SOL     vw12884   3.582   7.207   0.320 -0.2196  0.9818 -0.6002
 3222SOL     ow12885   1.694   6.980   4.009  0.0438 -0.3768  0.7202
 3222SOL     hw12886   1.743   6.987   4.091  0.7366 -1.5597  0.4303
 3222SOL     hw12887   1.709   6.891   3.979  0.5472  0.2845 -1.1569
 3222SOL     vw12888   1.702   6.969   4.016  0.2015 -0.4456  0.4344
 3223SOL     ow12889   1.951   5.085   6.611  0.0726 -0.3411  0.1156
 3223SOL     hw12890   2.026   5.029   6.628 -1.0502 -2.5458 -1.6379
 3223SOL     hw12891   1.888   5.028   6.566 -1.8130  1.9333 -0.3320
 3223SOL     vw12892   1.953   5.070   6.607 -0.3242 -0.3319 -0.1748
 3224SOL     ow12893   5.631   1.971   4.252 -0.1615  0.9644  0.2423
 3224SOL     hw12894   5.620   1.984   4.346  0.1145 -0.1131  0.4442
 3224SOL     hw12895   5.660   1.880   4.244  1.4359  1.5298 -0.7790
 3224SOL     vw12896   5.633   1.961   4.263  0.0856  0.8969  0.1340
 3225SOL     ow12897   1.773   4.487   0.756  0.0286 -0.2758  0.1066
 3225SOL     hw12898   1.813   4.573   0.765 -0.8229  0.0070  1.5243
 3225SOL     hw12899   1.807   4.436   0.830  0.6454 -1.2247 -0.8013
 3225SOL     vw12900   1.783   4.491   0.767 -0.0024 -0.3638  0.1739
 3226SOL     ow12901   7.243   3.893   2.349 -0.3399 -0.3397 -0.1180
 3226SOL     hw12902   7.222   3.986   2.340  0.9433  0.5162  3.7558
 3226SOL     hw12903   7.328   3.884   2.306 -0.0602  0.5058  0.2282
 3226SOL     vw12904   7.252   3.904   2.342 -0.1335 -0.1153  0.4388
 3227SOL     ow12905   4.372   7.366   5.391 -0.0627  0.0736  0.1753
 3227SOL     hw12906   4.422   7.438   5.430 -0.3931  0.1120  0.5331
 3227SOL     hw12907   4.292   7.362   5.443  0.9533 -2.0859  1.7455
 3227SOL     vw12908   4.368   7.375   5.403  0.0277 -0.2065  0.4296
 3228SOL     ow12909   7.384   1.440   1.513 -0.4889  0.1024 -0.6264
 3228SOL     hw12910   7.363   1.350   1.537 -1.2831 -0.3073 -2.6350
 3228SOL     hw12911   7.299   1.478   1.488 -0.0670  1.1939 -0.4461
 3228SOL     vw12912   7.370   1.433   1.513 -0.5381  0.1923 -0.8675
 3229SOL     ow12913   7.418   6.319   7.170  0.7058  0.1924 -0.3237
 3229SOL     hw12914   7.453   6.370   7.244  0.3620  2.3734 -1.5989
 3229SOL     hw12915   7.335   6.361   7.149  0.4986 -0.7993 -1.5483
 3229SOL     vw12916   7.412   6.331   7.177  0.6335  0.3495 -0.6535
 3230SOL     ow12917   0.419   5.811   7.135 -0.4887  0.5545 -0.2341
 3230SOL     hw12918   0.416   5.716   7.146  0.8479  0.4023 -0.9518
 3230SOL     hw12919   0.367   5.827   7.056  0.8553  0.1672 -1.2468
 3230SOL     vw12920   0.412   5.800   7.126 -0.1350  0.4833 -0.4623
 3231SOL     ow12921   2.044   7.422   5.093 -0.0614  0.2428 -0.3731
 3231SOL     hw12922   2.122   7.468   5.063 -0.4062  0.3474 -1.1094
 3231SOL     hw12923   1.989   7.490   5.133  0.3544  0.1183  0.4351
 3231SOL     vw12924   2.047   7.437   5.095 -0.0521  0.2403 -0.3636
 3232SOL     ow12925   3.906   4.891   4.157 -0.5991  0.0454  0.2667
 3232SOL     hw12926   3.922   4.821   4.220 -1.4053 -0.5780 -0.1932
 3232SOL     hw12927   3.847   4.952   4.202 -0.8161 -0.1696  0.2755
 3232SOL     vw12928   3.900   4.890   4.171 -0.7341 -0.0651  0.2072
 3233SOL     ow12929   6.684   1.274   3.327 -0.7523 -0.6104 -0.1668
 3233SOL     hw12930   6.688   1.253   3.420  0.1455  0.8025  0.1488
 3233SOL     hw12931   6.600   1.319   3.316  0.1652  1.4052  0.5070
 3233SOL     vw12932   6.674   1.277   3.338 -0.5126 -0.1580 -0.0361
 3234SOL     ow12933   3.272   4.168   2.188  0.2127 -0.3454  0.2887
 3234SOL     hw12934   3.317   4.090   2.157  1.0365 -0.9409  2.7299
 3234SOL     hw12935   3.342   4.224   2.223 -0.6022  0.3046  0.9384
 3234SOL     vw12936   3.287   4.165   2.188  0.2139 -0.3383  0.6967
 3235SOL     ow12937   2.167   1.033   7.200  0.4064  0.5870  0.0275
 3235SOL     hw12938   2.217   1.110   7.229 -0.3545  0.1930  2.6498
 3235SOL     hw12939   2.085   1.070   7.165 -0.0162  1.0049  1.4018
 3235SOL     vw12940   2.162   1.048   7.199  0.2502  0.5901  0.5548
 3236SOL     ow12941   1.519   1.462   1.563  0.4084 -0.3765  0.3579
 3236SOL     hw12942   1.479   1.502   1.486 -1.9641  0.8120  2.0908
 3236SOL     hw12943   1.449   1.457   1.627  2.5453 -0.1765  2.9018
 3236SOL     vw12944   1.505   1.467   1.561  0.3773 -0.1934  0.9222
 3237SOL     ow12945   4.671   6.096   6.341 -0.0998  0.1834  0.3899
 3237SOL     hw12946   4.687   6.075   6.249  1.5298  0.2245  0.6365
 3237SOL     hw12947   4.678   6.191   6.345 -0.6425  0.2263  0.4965
 3237SOL     vw12948   4.674   6.106   6.329  0.0434  0.1945  0.4365
 3238SOL     ow12949   1.974   1.103   4.383 -0.9407 -0.1433 -0.5588
 3238SOL     hw12950   1.927   1.118   4.301 -0.1907  0.7967 -0.8473
 3238SOL     hw12951   2.057   1.149   4.371 -1.0497  0.5100  0.9418
 3238SOL     vw12952   1.979   1.111   4.370 -0.8561  0.0669 -0.3989
 3239SOL     ow12953   3.026   5.431   6.397 -0.1988  0.0819  0.5597
 3239SOL     hw12954   3.053   5.516   6.361 -1.3019  0.3692  0.3774
 3239SOL     hw12955   2.967   5.395   6.330  0.3347 -0.8779  0.5906
 3239SOL     vw12956   3.022   5.437   6.383 -0.2739 -0.0069  0.5398
 3240SOL     ow12957   5.238   1.986   2.924  0.1188  0.1671 -0.3284
 3240SOL     hw12958   5.324   1.983   2.966  0.8466 -0.7531 -1.8141
 3240SOL     hw12959   5.245   1.925   2.851 -2.0692 -0.5720 -0.0018
 3240SOL     vw12960   5.250   1.977   2.920 -0.0737 -0.0519 -0.4814
 3241SOL     ow12961   7.082   5.395   0.364 -0.1470  0.7295 -0.6691
 3241SOL     hw12962   7.111   5.316   0.409  1.1724  2.0643  0.9704
 3241SOL     hw12963   6.986   5.389   0.364 -0.0950 -0.4577  0.1934
 3241SOL     vw12964   7.073   5.384   0.370  0.0339  0.7491 -0.3390
 3242SOL     ow12965   1.647   0.415   3.143  0.0913  0.2720  0.7757
 3242SOL     hw12966   1.693   0.419   3.227 -1.1520 -0.1154  1.5004
 3242SOL     hw12967   1.560   0.450   3.162 -0.1783  0.2523 -0.3746
 3242SOL     vw12968   1.641   0.420   3.157 -0.1083  0.2183  0.7195
 3243SOL     ow12969   1.573   6.403   4.348 -0.0276  0.2716 -0.1462
 3243SOL     hw12970   1.490   6.366   4.317 -0.1959  0.3254  0.2235
 3243SOL     hw12971   1.625   6.416   4.269 -0.6506  0.9098 -0.4691
 3243SOL     vw12972   1.569   6.400   4.333 -0.1320  0.3626 -0.1397
 3244SOL     ow12973   3.441   7.397   4.080 -0.0817 -0.4373  0.0349
 3244SOL     hw12974   3.482   7.310   4.075 -0.5078 -0.6193 -0.3464
 3244SOL     hw12975   3.378   7.398   4.008 -0.8661 -0.2276  0.7151
 3244SOL     vw12976   3.438   7.385   4.070 -0.2414 -0.4337  0.0744
 3245SOL     ow12977   2.147   3.469   4.720  0.0027 -0.1166  0.2425
 3245SOL     hw12978   2.172   3.471   4.812  0.2136  0.6391  0.1728
 3245SOL     hw12979   2.141   3.561   4.694 -2.1048 -0.2596  0.0562
 3245SOL     vw12980   2.150   3.481   4.729 -0.2476 -0.0359  0.2086
 3246SOL     ow12981   3.872   4.486   4.707 -0.5528 -0.1882 -0.4085
 3246SOL     hw12982   3.860   4.417   4.641  1.1302  1.4242 -2.5175
 3246SOL     hw12983   3.849   4.567   4.661  0.3400  0.9662  1.1109
 3246SOL     vw12984   3.867   4.487   4.692 -0.2130  0.1769 -0.4866
 3247SOL     ow12985   0.355   0.903   6.967 -0.0967  0.5313 -0.1002
 3247SOL     hw12986   0.438   0.862   6.991 -0.1140  0.9555  0.7269
 3247SOL     hw12987   0.300   0.893   7.045 -0.6148  0.7990 -0.4202
 3247SOL     vw12988   0.358   0.896   6.981 -0.1674  0.6226 -0.0334
 3248SOL     ow12989   4.426   5.225   4.482  0.5383  0.4659  0.7653
 3248SOL     hw12990   4.458   5.299   4.430 -0.8372  2.4274  2.5597
 3248SOL     hw12991   4.334   5.245   4.498 -0.0873 -2.0619  0.6989
 3248SOL     vw12992   4.418   5.238   4.477  0.2744  0.3912  0.9933
 3249SOL     ow12993   1.408   0.121   2.723 -0.1150 -0.1221  0.2317
 3249SOL     hw12994   1.346   0.174   2.672 -0.1151  0.9132  1.2621
 3249SOL     hw12995   1.492   0.135   2.681 -0.3508 -0.4784 -0.3758
 3249SOL     vw12996   1.411   0.130   2.711 -0.1462 -0.0325  0.2875
 3250SOL     ow12997   2.891   1.117   3.445  0.0571  0.6497 -0.1705
 3250SOL     hw12998   2.848   1.192   3.487  0.1978  0.9154 -0.4995
 3250SOL     hw12999   2.984   1.142   3.442 -0.0676  1.0337 -1.4662
 3250SOL     vw13000   2.898   1.131   3.450  0.0592  0.7354 -0.3848
 3251SOL     ow13001   4.592   0.857   1.746 -0.4801  0.0235  0.4461
 3251SOL     hw13002   4.634   0.779   1.782 -0.3620  0.8547  2.2101
 3251SOL     hw13003   4.646   0.930   1.777 -0.2571  0.8218 -1.6209
 3251SOL     vw13004   4.605   0.856   1.755 -0.4351  0.2385  0.4061
 3252SOL     ow13005   7.270   0.835   5.491  0.6836 -0.1435  0.9130
 3252SOL     hw13006   7.336   0.905   5.491  1.6522 -0.9977 -0.9728
 3252SOL     hw13007   7.292   0.782   5.568  1.4612  0.2589  0.9809
 3252SOL     vw13008   7.282   0.837   5.501  0.9141 -0.2032  0.6733
 3253SOL     ow13009   3.067   1.482   2.595 -0.5214  1.0313 -0.0061
 3253SOL     hw13010   3.149   1.442   2.627 -0.5531 -0.0671 -1.2127
 3253SOL     hw13011   3.004   1.464   2.665 -0.6993 -1.7323 -0.7370
 3253SOL     vw13012   3.070   1.474   2.609 -0.5490  0.5217 -0.2617
 3254SOL     ow13013   7.118   0.790   1.349 -0.1519 -0.1464 -0.2485
 3254SOL     hw13014   7.170   0.740   1.412  1.5867  0.6560 -0.9672
 3254SOL     hw13015   7.113   0.734   1.272 -0.5054 -0.2902 -0.1224
 3254SOL     vw13016   7.125   0.776   1.347  0.0310 -0.0594 -0.3267
 3255SOL     ow13017   4.250   1.266   5.912  0.2820 -0.9419 -0.1085
 3255SOL     hw13018   4.309   1.204   5.868 -1.0142 -1.2032 -1.5372
 3255SOL     hw13019   4.162   1.237   5.888 -0.4248  0.0978  1.1027
 3255SOL     vw13020   4.246   1.254   5.903  0.0179 -0.8392 -0.1376
 3256SOL     ow13021   6.435   5.403   5.623 -0.7067 -0.0875  0.2804
 3256SOL     hw13022   6.470   5.314   5.617  0.4440  0.3939 -0.5535
 3256SOL     hw13023   6.415   5.414   5.716 -2.4282 -1.7621  0.1835
 3256SOL     vw13024   6.437   5.392   5.635 -0.7818 -0.2446  0.1578
 3257SOL     ow13025   4.283   3.324   7.256 -0.0930 -0.1405  0.3679
 3257SOL     hw13026   4.226   3.370   7.317 -0.6771 -0.5935  0.1829
 3257SOL     hw13027   4.372   3.346   7.283 -0.3402  1.6747 -0.1545
 3257SOL     vw13028   4.287   3.333   7.267 -0.2024  0.0393  0.2747
 3258SOL     ow13029   1.158   2.408   1.355  0.1480 -0.2546 -0.2074
 3258SOL     hw13030   1.185   2.419   1.446  1.2723  0.7603 -0.6367
 3258SOL     hw13031   1.074   2.454   1.349  0.4074  0.2729  0.1605
 3258SOL     vw13032   1.150   2.415   1.366  0.3306 -0.0510 -0.2155
 3259SOL     ow13033   6.933   5.050   2.827  1.1545 -0.1604  0.7746
 3259SOL     hw13034   6.964   5.119   2.767 -0.3740  0.2566  0.4049
 3259SOL     hw13035   6.991   5.056   2.902 -0.2112  3.1001  1.7669
 3259SOL     vw13036   6.945   5.060   2.829  0.7727  0.3252  0.8568
 3260SOL     ow13037   3.046   6.130   1.981 -0.4971  0.3736 -0.6642
 3260SOL     hw13038   3.132   6.101   1.953  0.2065  1.7661 -0.0694
 3260SOL     hw13039   3.052   6.226   1.981 -1.1267  0.4944  2.0533
 3260SOL     vw13040   3.058   6.139   1.977 -0.4873  0.5732 -0.2272
 3261SOL     ow13041   0.218   0.966   0.318  0.4401 -0.1479  0.2954
 3261SOL     hw13042   0.190   0.883   0.278  0.3522  0.3894 -0.8037
 3261SOL     hw13043   0.158   0.979   0.392 -0.7005 -0.2077 -0.5850
 3261SOL     vw13044   0.206   0.957   0.322  0.2780 -0.0848  0.0342
 3262SOL     ow13045   4.039   1.298   0.085  0.4747 -0.0754  0.2416
 3262SOL     hw13046   4.011   1.356   0.015 -0.2390 -1.5240 -0.7068
 3262SOL     hw13047   4.135   1.308   0.087  0.6244 -0.6820 -1.5961
 3262SOL     vw13048   4.048   1.307   0.076  0.4003 -0.3466 -0.1260
 3263SOL     ow13049   6.608   2.154   3.407  0.0252  0.6956  0.0154
 3263SOL     hw13050   6.534   2.203   3.444 -0.8108 -1.2957  1.2118
 3263SOL     hw13051   6.609   2.178   3.315 -0.5864  2.5987  0.4643
 3263SOL     vw13052   6.598   2.163   3.400 -0.1655  0.6839  0.2326
 3264SOL     ow13053   4.810   4.034   0.961  0.2643  0.8873  0.7471
 3264SOL     hw13054   4.863   3.963   0.926 -0.3745 -0.1319  1.7513
 3264SOL     hw13055   4.846   4.050   1.048 -2.2585 -1.3121  2.3731
 3264SOL     vw13056   4.821   4.026   0.968 -0.1528  0.4625  1.0941
 3265SOL     ow13057   0.860   4.757   1.856 -0.4244  0.2722 -0.0927
 3265SOL     hw13058   0.857   4.681   1.797  0.3414 -1.1739  1.6407
 3265SOL     hw13059   0.786   4.744   1.915  0.9175 -0.3121  1.5360
 3265SOL     vw13060   0.850   4.745   1.856 -0.1463  0.0045  0.3509
 3266SOL     ow13061   2.459   1.951   4.927  0.1231  0.4235  0.6039
 3266SOL     hw13062   2.494   1.903   4.852  1.4230  0.9294  0.8669
 3266SOL     hw13063   2.405   1.886   4.973 -0.2440 -0.0407 -0.4579
 3266SOL     vw13064   2.456   1.936   4.923  0.2462  0.4290  0.4988
 3267SOL     ow13065   2.412   7.092   4.716 -0.4586  0.8384 -0.0724
 3267SOL     hw13066   2.416   7.186   4.696 -0.4018  0.8315 -0.0933
 3267SOL     hw13067   2.483   7.078   4.778 -0.1980  0.7293 -0.3948
 3267SOL     vw13068   2.422   7.103   4.722 -0.4166  0.8233 -0.1175
 3268SOL     ow13069   0.976   6.806   3.889  0.7237 -0.2755 -0.8088
 3268SOL     hw13070   1.016   6.807   3.802  2.5723  1.6619 -0.0413
 3268SOL     hw13071   0.940   6.718   3.899 -0.3720 -0.2650 -3.8446
 3268SOL     vw13072   0.977   6.794   3.879  0.8230 -0.0186 -1.1082
 3269SOL     ow13073   0.792   3.550   0.673 -0.4728  0.0657  0.3943
 3269SOL     hw13074   0.843   3.591   0.603  2.1736 -3.7192 -0.2315
 3269SOL     hw13075   0.808   3.605   0.750  2.9699  0.3035 -0.3193
 3269SOL     vw13076   0.801   3.563   0.674  0.3306 -0.4022  0.2176
 3270SOL     ow13077   3.090   0.401   3.450 -0.2128 -0.2447  0.9070
 3270SOL     hw13078   3.160   0.338   3.433  3.1897  2.6247  2.7470
 3270SOL     hw13079   3.117   0.480   3.403 -2.8173  0.7461  0.9153
 3270SOL     vw13080   3.103   0.403   3.442 -0.1074  0.2646  1.1508
 3271SOL     ow13081   0.397   1.152   1.127  0.1372 -0.6336  0.5925
 3271SOL     hw13082   0.443   1.207   1.063 -0.1150 -1.5028 -0.3550
 3271SOL     hw13083   0.450   1.159   1.207 -0.0933  1.2796  0.6197
 3271SOL     vw13084   0.410   1.160   1.129  0.0735 -0.4958  0.4711
 3272SOL     ow13085   5.295   7.372   3.079 -0.1517 -0.0306  0.8737
 3272SOL     hw13086   5.314   7.465   3.070  1.2559 -0.1075  2.5054
 3272SOL     hw13087   5.206   7.362   3.046  0.6044  1.3734 -1.9329
 3272SOL     vw13088   5.286   7.383   3.074  0.1338  0.1445  0.7187
 3273SOL     ow13089   3.755   6.941   4.449  0.2886  0.0650  0.5131
 3273SOL     hw13090   3.846   6.928   4.472  0.5784 -0.1535 -0.6846
 3273SOL     hw13091   3.756   7.011   4.384 -0.5902  1.3437  1.7967
 3273SOL     vw13092   3.767   6.948   4.443  0.2109  0.2048  0.5245
 3274SOL     ow13093   0.800   1.630   6.417  0.1467 -0.1040  0.2442
 3274SOL     hw13094   0.809   1.575   6.339  0.5751  1.1764 -0.6476
 3274SOL     hw13095   0.890   1.654   6.440 -0.1101  2.6918 -1.2613
 3274SOL     vw13096   0.813   1.626   6.410  0.1694  0.4338 -0.0722
 3275SOL     ow13097   1.697   5.154   1.682  0.1206  0.4990  0.3764
 3275SOL     hw13098   1.602   5.166   1.678 -0.1072 -0.6524  1.6425
 3275SOL     hw13099   1.711   5.067   1.645  0.6534  0.5268  0.5042
 3275SOL     vw13100   1.687   5.144   1.677  0.1608  0.3507  0.5603
 3276SOL     ow13101   2.719   4.856   2.008  0.3217 -0.0838  0.3253
 3276SOL     hw13102   2.642   4.911   1.994  0.3451 -0.6351 -2.5508
 3276SOL     hw13103   2.768   4.861   1.926  0.9916 -3.3493  0.3741
 3276SOL     vw13104   2.716   4.864   1.995  0.4132 -0.5877 -0.0478
 3277SOL     ow13105   4.296   4.878   1.412 -0.0924  0.3039  0.4041
 3277SOL     hw13106   4.372   4.829   1.381 -0.1775  0.2894  0.2150
 3277SOL     hw13107   4.333   4.950   1.463  0.0831  0.7108 -0.2756
 3277SOL     vw13108   4.311   4.881   1.414 -0.0806  0.3560  0.2895
 3278SOL     ow13109   6.306   5.974   3.887 -1.1093 -0.3553 -0.5192
 3278SOL     hw13110   6.373   5.932   3.940 -0.7194 -0.4034 -1.0432
 3278SOL     hw13111   6.298   5.918   3.810 -0.2816  0.7420 -1.4299
 3278SOL     vw13112   6.313   5.961   3.884 -0.9487 -0.2165 -0.7085
 3279SOL     ow13113   1.678   0.384   2.837  0.4727 -0.0110 -0.0917
 3279SOL     hw13114   1.759   0.433   2.851  0.2279  0.5312 -0.5305
 3279SOL     hw13115   1.680   0.360   2.745  0.4337 -0.5657  0.0435
 3279SOL     vw13116   1.689   0.387   2.827  0.4354 -0.0126 -0.1318
 3280SOL     ow13117   0.244   5.489   1.437 -0.3565  0.1321 -0.1660
 3280SOL     hw13118   0.212   5.506   1.349 -0.4919  1.8329  0.1709
 3280SOL     hw13119   0.215   5.565   1.488  1.2899  0.0856  0.9200
 3280SOL     vw13120   0.236   5.501   1.432 -0.1571  0.3505  0.0218
 3281SOL     ow13121   2.007   7.164   5.231  0.1211 -0.2706  0.4731
 3281SOL     hw13122   2.045   7.187   5.315 -1.7581  0.0259  1.2743
 3281SOL     hw13123   1.968   7.078   5.245  1.2934 -1.0320 -0.6304
 3281SOL     vw13124   2.007   7.155   5.244  0.0279 -0.3319  0.4332
 3282SOL     ow13125   4.445   6.564   6.318 -0.9366 -0.3087  0.1238
 3282SOL     hw13126   4.473   6.575   6.409  1.8126 -0.8579 -0.5759
 3282SOL     hw13127   4.447   6.469   6.304  1.1331 -0.1229 -1.1686
 3282SOL     vw13128   4.449   6.553   6.328 -0.3009 -0.3569 -0.1392
 3283SOL     ow13129   7.404   1.186   2.059 -0.0956 -0.2045 -0.0237
 3283SOL     hw13130   7.464   1.202   1.986 -1.8815  0.6522 -1.3837
 3283SOL     hw13131   7.366   1.101   2.041 -0.2529 -0.1723  0.1528
 3283SOL     vw13132   7.407   1.177   2.047 -0.3519 -0.0873 -0.1800
 3284SOL     ow13133   7.501   1.441   0.135  0.2241  0.0698  0.4140
 3284SOL     hw13134   7.444   1.427   0.211 -0.0856 -0.2796  0.1214
 3284SOL     hw13135   7.581   1.478   0.171  0.4588 -1.0066  1.0318
 3284SOL     vw13136   7.504   1.444   0.150  0.2142 -0.1184  0.4569
 3285SOL     ow13137   3.179   0.597   0.517  0.1537  0.5280 -0.5201
 3285SOL     hw13138   3.266   0.566   0.540 -0.5640 -1.9035 -0.7372
 3285SOL     hw13139   3.165   0.674   0.571  1.3662 -0.6929  1.6752
 3285SOL     vw13140   3.189   0.603   0.527  0.2190  0.0461 -0.2591
 3286SOL     ow13141   7.431   7.067   7.205  0.0578  0.6484 -0.2429
 3286SOL     hw13142   7.523   7.080   7.181 -0.2743  0.3388 -1.7764
 3286SOL     hw13143   7.393   7.155   7.201  0.3357  0.8160  0.6564
 3286SOL     vw13144   7.438   7.081   7.201  0.0505  0.6297 -0.3264
 3287SOL     ow13145   2.606   3.659   6.872  0.1632 -0.6416  0.5315
 3287SOL     hw13146   2.650   3.672   6.787  1.3509  0.6669  1.3064
 3287SOL     hw13147   2.608   3.564   6.885 -1.4424 -1.0462 -1.5957
 3287SOL     vw13148   2.612   3.648   6.862  0.1080 -0.5223  0.3531
 3288SOL     ow13149   4.099   3.526   3.619  0.0768 -0.0207 -0.1833
 3288SOL     hw13150   4.052   3.456   3.572 -0.7786 -1.3272  2.4339
 3288SOL     hw13151   4.063   3.607   3.583  0.1920 -0.9019 -2.4253
 3288SOL     vw13152   4.088   3.528   3.608 -0.0207 -0.3093 -0.1339
 3289SOL     ow13153   2.743   2.897   7.371  0.0153 -0.4877  0.2882
 3289SOL     hw13154   2.824   2.945   7.388  0.4199 -0.4342 -1.6286
 3289SOL     hw13155   2.683   2.928   7.438  0.4899  2.1866 -0.4127
 3289SOL     vw13156   2.746   2.907   7.382  0.1314 -0.1278 -0.0575
 3290SOL     ow13157   3.121   3.099   3.154  0.0831  0.1394  0.0043
 3290SOL     hw13158   3.093   3.190   3.154  0.7113  0.3738 -1.7819
 3290SOL     hw13159   3.193   3.096   3.090 -0.1652 -1.6708 -0.2361
 3290SOL     vw13160   3.127   3.110   3.145  0.1332 -0.0684 -0.2630
 3291SOL     ow13161   4.341   6.328   0.774  0.3709 -0.5730 -0.7870
 3291SOL     hw13162   4.325   6.317   0.868  2.2160  0.9926 -0.2333
 3291SOL     hw13163   4.315   6.245   0.735 -4.0260 -0.0807  0.5586
 3291SOL     vw13164   4.335   6.316   0.781  0.0341 -0.3016 -0.5364
 3292SOL     ow13165   5.206   7.046   3.284 -0.2342 -0.2757 -0.3853
 3292SOL     hw13166   5.246   7.133   3.289 -1.3148  0.3130 -1.5190
 3292SOL     hw13167   5.223   7.006   3.369  0.7187  0.8447 -0.0315
 3292SOL     vw13168   5.214   7.052   3.296 -0.2508 -0.0503 -0.4882
 3293SOL     ow13169   3.357   7.261   4.651 -0.2050 -0.1995 -0.1355
 3293SOL     hw13170   3.303   7.340   4.663  0.7985  0.7903 -1.7192
 3293SOL     hw13171   3.297   7.188   4.667 -1.8760  0.8672 -1.2063
 3293SOL     vw13172   3.342   7.262   4.655 -0.2930  0.0720 -0.4857
 3294SOL     ow13173   1.886   3.974   1.685 -0.1985  0.1557 -0.0621
 3294SOL     hw13174   1.863   4.013   1.770 -1.8229 -0.6728 -0.0700
 3294SOL     hw13175   1.803   3.970   1.638  0.7846  1.1667 -1.9575
 3294SOL     vw13176   1.872   3.978   1.690 -0.2831  0.1796 -0.3132
 3295SOL     ow13177   7.036   1.089   6.076  0.9125  0.7148  0.0541
 3295SOL     hw13178   7.088   1.040   6.012  1.6464  0.5355  0.7755
 3295SOL     hw13179   7.096   1.104   6.149  0.8202  2.9878 -0.2663
 3295SOL     vw13180   7.051   1.084   6.077  0.9971  0.9910  0.1070
 3296SOL     ow13181   6.688   6.153   7.331  0.2211  0.4464 -0.2306
 3296SOL     hw13182   6.649   6.067   7.348 -0.1865  1.1042  2.5051
 3296SOL     hw13183   6.613   6.208   7.310  0.1575  0.7401  0.7482
 3296SOL     vw13184   6.673   6.149   7.330  0.1588  0.5720  0.2599
 3297SOL     ow13185   2.832   4.370   7.342 -0.2892 -0.4131 -0.0528
 3297SOL     hw13186   2.840   4.332   7.429 -2.2101  2.5945  1.6227
 3297SOL     hw13187   2.737   4.369   7.324 -0.0361  0.1435 -1.5804
 3297SOL     vw13188   2.820   4.365   7.351 -0.5093  0.0572 -0.0329
 3298SOL     ow13189   5.484   0.822   2.802 -0.2854  0.3188  0.5666
 3298SOL     hw13190   5.494   0.873   2.721 -0.2241  0.1602  0.4755
 3298SOL     hw13191   5.441   0.741   2.774  2.9478 -1.3714  0.0920
 3298SOL     vw13192   5.479   0.818   2.788  0.1493  0.0748  0.4921
 3299SOL     ow13193   6.743   4.775   1.201  0.2084  0.8864  0.1205
 3299SOL     hw13194   6.809   4.748   1.264 -0.3068  0.6614  0.5759
 3299SOL     hw13195   6.710   4.693   1.164 -0.3451  0.9443  0.4566
 3299SOL     vw13196   6.747   4.760   1.204  0.0677  0.8640  0.2249
 3300SOL     ow13197   1.134   1.589   3.607 -0.0652 -0.0130  0.4544
 3300SOL     hw13198   1.129   1.684   3.616 -2.3563 -0.0069 -0.2051
 3300SOL     hw13199   1.043   1.561   3.599  0.6176 -2.1653 -0.4820
 3300SOL     vw13200   1.121   1.598   3.607 -0.2775 -0.2962  0.2439
 3301SOL     ow13201   5.913   0.219   2.236 -0.0585  0.4310 -0.2530
 3301SOL     hw13202   5.858   0.141   2.244 -0.5452  0.9288  2.0699
 3301SOL     hw13203   5.963   0.221   2.318  1.6276  1.3519 -1.2402
 3301SOL     vw13204   5.912   0.209   2.248  0.0994  0.6182 -0.0767
 3302SOL     ow13205   3.765   7.231   1.851 -0.0599 -0.4689 -0.4694
 3302SOL     hw13206   3.673   7.259   1.856 -0.0368  0.0108 -2.1130
 3302SOL     hw13207   3.804   7.289   1.785  0.5728 -2.8139 -2.3156
 3302SOL     vw13208   3.758   7.243   1.843  0.0266 -0.7148 -0.9298
 3303SOL     ow13209   7.028   6.894   4.527 -0.4723 -0.1636  0.1279
 3303SOL     hw13210   7.054   6.957   4.595 -0.0794 -1.2418  1.0013
 3303SOL     hw13211   6.932   6.895   4.530 -0.6035  2.3471 -1.7323
 3303SOL     vw13212   7.018   6.902   4.537 -0.4377  0.0255 -0.0024
 3304SOL     ow13213   7.493   1.515   2.575  0.0917  0.9917 -0.3895
 3304SOL     hw13214   7.452   1.428   2.577  1.4540  0.3209 -0.4859
 3304SOL     hw13215   7.429   1.573   2.617 -1.3234  0.1643 -1.3214
 3304SOL     vw13216   7.479   1.511   2.581  0.0847  0.7941 -0.5252
 3305SOL     ow13217   5.762   3.856   2.812 -0.6021  0.1111 -0.0311
 3305SOL     hw13218   5.848   3.883   2.781  0.1420 -0.9229  1.0350
 3305SOL     hw13219   5.749   3.770   2.771 -0.2615 -0.5910  1.2866
 3305SOL     vw13220   5.772   3.848   2.802 -0.4590 -0.1179  0.2835
 3306SOL     ow13221   2.535   4.076   1.875 -0.4975 -0.5054  0.1405
 3306SOL     hw13222   2.519   4.016   1.803  0.9921 -2.1864  1.1228
 3306SOL     hw13223   2.572   4.021   1.944  1.7306  1.6606  0.8202
 3306SOL     vw13224   2.537   4.061   1.875 -0.0070 -0.4418  0.3598
 3307SOL     ow13225   3.777   1.341   5.994  1.1153 -0.2938 -0.6120
 3307SOL     hw13226   3.812   1.339   6.083  3.0895  0.6272 -1.3072
 3307SOL     hw13227   3.853   1.325   5.938 -0.3776 -2.6450 -2.1310
 3307SOL     vw13228   3.792   1.339   5.999  1.1787 -0.4824 -0.9041
 3308SOL     ow13229   0.695   2.365   4.092 -0.0322 -0.0736  0.2688
 3308SOL     hw13230   0.775   2.415   4.074  0.6982 -1.6627 -1.1741
 3308SOL     hw13231   0.713   2.321   4.175 -1.0801  2.7011  2.1107
 3308SOL     vw13232   0.708   2.366   4.100 -0.0741  0.0829  0.3214
 3309SOL     ow13233   1.186   1.163   6.718  0.4341 -0.1535 -0.3289
 3309SOL     hw13234   1.101   1.176   6.676  1.8063  0.1367 -3.2933
 3309SOL     hw13235   1.170   1.181   6.810 -2.1112  2.7582 -1.1587
 3309SOL     vw13236   1.173   1.167   6.724  0.2793  0.2690 -0.8295
 3310SOL     ow13237   7.375   1.484   2.060 -0.0835  0.5310  0.2011
 3310SOL     hw13238   7.446   1.543   2.033 -0.7467  0.9475 -0.6743
 3310SOL     hw13239   7.297   1.540   2.062 -0.2134  0.3902  2.4050
 3310SOL     vw13240   7.374   1.499   2.057 -0.1881  0.5673  0.3763
 3311SOL     ow13241   6.097   3.576   2.507 -0.3572  0.3614  0.0010
 3311SOL     hw13242   6.077   3.512   2.575  0.1434 -0.0722 -0.2553
 3311SOL     hw13243   6.024   3.638   2.510 -0.8997 -0.2819  0.1726
 3311SOL     vw13244   6.085   3.576   2.517 -0.3626  0.2193 -0.0101
 3312SOL     ow13245   7.055   7.242   3.296 -0.1218  0.0460  0.3710
 3312SOL     hw13246   7.065   7.153   3.263 -1.9157  0.0297 -0.2184
 3312SOL     hw13247   7.074   7.298   3.221  0.0870  0.1321  0.4878
 3312SOL     vw13248   7.059   7.238   3.282 -0.3312  0.0551  0.3086
 3313SOL     ow13249   7.402   2.246   3.165 -0.4985  0.1456  0.0570
 3313SOL     hw13250   7.374   2.215   3.251  1.0133  0.7230  0.7954
 3313SOL     hw13251   7.360   2.187   3.103 -0.7037 -0.9954  1.2498
 3313SOL     vw13252   7.393   2.234   3.168 -0.3262  0.0712  0.3119
 3314SOL     ow13253   5.954   0.268   1.104 -0.3453 -0.3343 -0.2458
 3314SOL     hw13254   5.912   0.311   1.030  1.0669 -0.7091 -1.3144
 3314SOL     hw13255   5.904   0.187   1.117 -0.2208 -0.5883 -1.2401
 3314SOL     vw13256   5.942   0.263   1.096 -0.1423 -0.4173 -0.5179
 3315SOL     ow13257   7.324   6.130   7.439  0.6793  0.5610  0.2759
 3315SOL     hw13258   7.278   6.066   7.494  1.3267  1.1583  1.5556
 3315SOL     hw13259   7.373   6.184   7.501  1.1711  1.4828 -0.8793
 3315SOL     vw13260   7.325   6.128   7.455  0.8297  0.7613  0.2925
 3316SOL     ow13261   6.522   4.981   0.226  0.0180 -0.0088 -0.1629
 3316SOL     hw13262   6.608   4.939   0.218 -0.2477 -0.6483  0.2639
 3316SOL     hw13263   6.533   5.044   0.298 -0.1003 -0.7096  0.4839
 3316SOL     vw13264   6.535   4.984   0.235 -0.0327 -0.1855 -0.0213
 3317SOL     ow13265   2.634   5.506   1.913  0.1020 -0.1030  0.0757
 3317SOL     hw13266   2.635   5.566   1.987 -1.0403  0.0628 -0.0145
 3317SOL     hw13267   2.547   5.518   1.874 -0.6485 -2.6033  0.7423
 3317SOL     vw13268   2.622   5.515   1.918 -0.1477 -0.4108  0.1517
 3318SOL     ow13269   3.960   2.070   5.531  0.3403  0.0306  0.4199
 3318SOL     hw13270   4.041   2.120   5.523  0.2579  0.2349  0.8570
 3318SOL     hw13271   3.893   2.127   5.494  0.1120  0.5959  1.6388
 3318SOL     vw13272   3.962   2.084   5.525  0.2992  0.1322  0.6387
 3319SOL     ow13273   2.967   4.325   1.901  0.1593  0.1947  0.1033
 3319SOL     hw13274   2.998   4.241   1.935 -0.7033  0.1354  0.7858
 3319SOL     hw13275   2.975   4.385   1.974 -0.3361  0.4195 -0.0236
 3319SOL     vw13276   2.972   4.322   1.915 -0.0198  0.2165  0.1765
 3320SOL     ow13277   5.817   6.478   0.632  0.4820  0.2784  0.4160
 3320SOL     hw13278   5.741   6.534   0.616 -0.5022 -1.3373 -0.8475
 3320SOL     hw13279   5.891   6.526   0.597 -0.4984  0.3736 -1.6399
 3320SOL     vw13280   5.817   6.491   0.625  0.2224  0.0777 -0.0219
 3321SOL     ow13281   4.822   1.472   0.416 -0.2389  0.1836 -0.1414
 3321SOL     hw13282   4.834   1.555   0.462 -0.3101 -0.5244  1.2044
 3321SOL     hw13283   4.745   1.485   0.361  0.1271  1.1993 -0.4378
 3321SOL     vw13284   4.814   1.484   0.415 -0.2003  0.2243 -0.0030
 3322SOL     ow13285   4.641   0.832   7.467 -1.1239  0.4383  0.2051
 3322SOL     hw13286   4.640   0.867   7.556 -2.5707 -1.5986  1.0666
 3322SOL     hw13287   4.549   0.813   7.447 -0.7373  0.0661 -1.4087
 3322SOL     vw13288   4.629   0.834   7.476 -1.2639  0.1204  0.1059
 3323SOL     ow13289   5.104   4.384   2.454 -0.8914  0.3806 -0.2593
 3323SOL     hw13290   5.065   4.415   2.535 -0.3980 -0.3108  0.2548
 3323SOL     hw13291   5.170   4.450   2.432 -0.7939  0.3980  0.0830
 3323SOL     vw13292   5.107   4.397   2.462 -0.8137  0.2918 -0.1463
 3324SOL     ow13293   7.225   5.038   5.679  0.4376 -0.1091 -0.2780
 3324SOL     hw13294   7.276   4.957   5.683 -1.3417 -1.7351 -4.7485
 3324SOL     hw13295   7.134   5.011   5.687 -0.2351  1.3078 -2.3155
 3324SOL     vw13296   7.220   5.024   5.681  0.1142 -0.1369 -1.1368
 3325SOL     ow13297   5.183   6.346   2.170 -0.0969  0.2074 -0.2436
 3325SOL     hw13298   5.087   6.348   2.181 -0.0595 -1.0034  0.5296
 3325SOL     hw13299   5.203   6.254   2.151  0.8783  0.5354 -0.8648
 3325SOL     vw13300   5.173   6.334   2.169  0.0370  0.0908 -0.2235
 3326SOL     ow13301   1.030   0.184   7.043  0.0393  0.4749  0.1878
 3326SOL     hw13302   0.942   0.152   7.022 -0.1980  0.4649  1.1662
 3326SOL     hw13303   1.023   0.279   7.037  0.1326  0.4498 -0.3670
 3326SOL     vw13304   1.018   0.192   7.039  0.0204  0.4703  0.2439
 3327SOL     ow13305   6.663   4.030   2.112 -0.4735  0.0613 -0.0137
 3327SOL     hw13306   6.689   3.951   2.160  1.4826  2.5231  3.4021
 3327SOL     hw13307   6.724   4.035   2.039  0.1817 -0.9441  0.4353
 3327SOL     vw13308   6.674   4.020   2.109 -0.1290  0.2534  0.4963
 3328SOL     ow13309   7.302   0.129   4.504  0.1898 -0.2745 -0.0028
 3328SOL     hw13310   7.247   0.089   4.572 -0.2430 -2.3580 -1.4739
 3328SOL     hw13311   7.259   0.106   4.422  2.5020 -0.8360 -1.1407
 3328SOL     vw13312   7.289   0.121   4.502  0.4377 -0.6235 -0.3471
 3329SOL     ow13313   1.736   2.906   2.504  0.2423 -0.4572 -0.6557
 3329SOL     hw13314   1.692   2.953   2.575  0.5722 -1.5396  0.2958
 3329SOL     hw13315   1.723   2.814   2.524 -2.3818 -0.9184 -3.7150
 3329SOL     vw13316   1.729   2.900   2.516 -0.0604 -0.6609 -0.9338
 3330SOL     ow13317   2.858   3.922   2.138  0.1496 -0.0262 -0.5638
 3330SOL     hw13318   2.767   3.925   2.111 -0.1489 -0.9546  0.2825
 3330SOL     hw13319   2.855   3.920   2.234  1.0158 -1.1119 -0.5380
 3330SOL     vw13320   2.846   3.922   2.147  0.2245 -0.2919 -0.4488
 3331SOL     ow13321   3.150   0.069   6.055  0.0696 -0.2739  0.0411
 3331SOL     hw13322   3.081   0.094   5.994  0.9827  2.4914  0.0042
 3331SOL     hw13323   3.213   0.020   6.002 -0.0027  0.5539 -0.8368
 3331SOL     vw13324   3.149   0.066   6.040  0.1806  0.2002 -0.0794
 3332SOL     ow13325   0.321   1.674   3.537 -0.4227 -0.2332  0.2457
 3332SOL     hw13326   0.307   1.624   3.456 -0.1679 -1.5254  0.9736
 3332SOL     hw13327   0.312   1.765   3.510  0.8754 -0.5592 -1.4969
 3332SOL     vw13328   0.318   1.679   3.523 -0.2179 -0.4467  0.1118
 3333SOL     ow13329   1.033   4.720   1.402 -1.5810  0.5481  0.4433
 3333SOL     hw13330   0.943   4.717   1.434 -0.8709  0.7319  2.6136
 3333SOL     hw13331   1.062   4.810   1.420 -1.0148  0.5582 -0.4344
 3333SOL     vw13332   1.025   4.732   1.409 -1.4126  0.5734  0.6139
 3334SOL     ow13333   3.719   1.041   0.020  0.0743 -0.4190  0.4275
 3334SOL     hw13334   3.625   1.031   0.006 -0.1867 -0.6548  2.2030
 3334SOL     hw13335   3.727   1.082   0.106  1.5636  1.2795 -0.4439
 3334SOL     vw13336   3.707   1.046   0.029  0.2364 -0.2259  0.5468
 3335SOL     ow13337   0.465   6.780   3.840 -0.0270 -0.2933  0.4375
 3335SOL     hw13338   0.515   6.746   3.914  1.1507  0.2375 -0.0966
 3335SOL     hw13339   0.501   6.735   3.764  1.2878  1.7565 -0.2404
 3335SOL     vw13340   0.476   6.770   3.840  0.3019  0.0470  0.2776
 3336SOL     ow13341   3.284   7.304   2.136 -0.2382 -0.3287  0.1136
 3336SOL     hw13342   3.335   7.381   2.160 -1.3947  0.8971 -1.1882
 3336SOL     hw13343   3.271   7.312   2.042 -0.4380 -2.1095 -0.0503
 3336SOL     vw13344   3.289   7.315   2.127 -0.4170 -0.4020 -0.0798
 3337SOL     ow13345   4.886   6.002   2.460 -0.5135  0.2850 -0.9896
 3337SOL     hw13346   4.932   5.968   2.383 -0.3266 -0.0308 -0.7365
 3337SOL     hw13347   4.808   6.044   2.424  0.0646  0.9956 -1.4385
 3337SOL     vw13348   4.882   6.003   2.445 -0.4127  0.3371 -1.0154
 3338SOL     ow13349   1.398   6.162   5.347  0.1457  0.3373  0.2521
 3338SOL     hw13350   1.432   6.252   5.349 -1.0833  0.8154  0.7269
 3338SOL     hw13351   1.379   6.146   5.254 -0.2625  0.8221  0.2470
 3338SOL     vw13352   1.400   6.172   5.335 -0.0703  0.4644  0.3140
 3339SOL     ow13353   2.497   0.549   0.523  0.1604  0.1794  0.1762
 3339SOL     hw13354   2.504   0.497   0.443 -0.5812 -1.6496  1.2501
 3339SOL     hw13355   2.403   0.547   0.544  0.2833  1.0569  0.8366
 3339SOL     vw13356   2.485   0.542   0.515  0.0789  0.0539  0.4050
 3340SOL     ow13357   6.128   6.139   3.704 -0.0421  0.3416 -0.0146
 3340SOL     hw13358   6.051   6.164   3.653  1.3528  1.6241 -1.6275
 3340SOL     hw13359   6.199   6.136   3.640  1.3983 -0.0956  1.5295
 3340SOL     vw13360   6.127   6.142   3.689  0.3319  0.4532 -0.0237
 3341SOL     ow13361   0.723   7.490   4.093 -0.0544 -0.1113  0.0920
 3341SOL     hw13362   0.809   7.530   4.105 -0.1539 -0.1558  1.0648
 3341SOL     hw13363   0.741   7.398   4.075  0.1737  0.3153 -2.1084
 3341SOL     vw13364   0.737   7.483   4.092 -0.0374 -0.0608 -0.0701
 3342SOL     ow13365   6.683   4.964   0.524 -0.4205  0.1950  0.2354
 3342SOL     hw13366   6.617   4.917   0.575  1.2904 -1.5111  1.0038
 3342SOL     hw13367   6.754   4.981   0.586  0.5354  0.5732 -0.9227
 3342SOL     vw13368   6.683   4.960   0.539 -0.0687  0.0198  0.1839
 3343SOL     ow13369   5.306   4.542   2.277  0.2212 -0.0454 -0.2601
 3343SOL     hw13370   5.308   4.635   2.255 -0.2766  0.6188  2.2625
 3343SOL     hw13371   5.397   4.513   2.270  1.3209  1.8844  3.5320
 3343SOL     vw13372   5.318   4.550   2.273  0.3009  0.2966  0.5732
 3344SOL     ow13373   5.676   1.533   0.094  0.4797 -0.0072  0.2378
 3344SOL     hw13374   5.646   1.479   0.168  0.5140 -0.0881  0.1935
 3344SOL     hw13375   5.750   1.484   0.058 -0.5925 -0.8381 -0.9258
 3344SOL     vw13376   5.682   1.519   0.099  0.3426 -0.1275  0.0784
 3345SOL     ow13377   1.187   7.093   2.822 -0.0482  0.0346 -0.6375
 3345SOL     hw13378   1.210   7.023   2.884 -0.1697  0.7400  0.2205
 3345SOL     hw13379   1.270   7.117   2.782 -0.1309 -1.2282 -1.6378
 3345SOL     vw13380   1.201   7.087   2.825 -0.0752 -0.0391 -0.6562
 3346SOL     ow13381   1.639   3.063   2.710  0.1006 -0.4853  0.0990
 3346SOL     hw13382   1.615   3.154   2.692 -1.4687 -0.9970 -0.5109
 3346SOL     hw13383   1.556   3.019   2.727  0.6878 -2.1269 -1.0660
 3346SOL     vw13384   1.625   3.069   2.710 -0.0290 -0.7694 -0.1353
 3347SOL     ow13385   0.774   0.346   7.036  0.3472 -0.1011 -0.2549
 3347SOL     hw13386   0.717   0.306   7.101  0.5567  1.0194  0.6382
 3347SOL     hw13387   0.847   0.383   7.086  0.0462  1.5902 -0.9907
 3347SOL     vw13388   0.776   0.346   7.051  0.3350  0.2699 -0.2341
 3348SOL     ow13389   3.218   1.703   2.404  0.2533  0.0736 -0.1262
 3348SOL     hw13390   3.231   1.784   2.453 -0.9375  0.5088 -0.4947
 3348SOL     hw13391   3.292   1.700   2.343  1.2519 -0.0140  1.0496
 3348SOL     vw13392   3.230   1.713   2.402  0.2280  0.1194 -0.0197
 3349SOL     ow13393   0.826   7.028   6.733  0.2393 -0.2850  0.0130
 3349SOL     hw13394   0.910   6.986   6.715 -0.1707 -1.8602  1.5206
 3349SOL     hw13395   0.775   7.013   6.653  0.7389 -1.0793 -0.1702
 3349SOL     vw13396   0.830   7.020   6.720  0.2512 -0.5975  0.1876
 3350SOL     ow13397   0.247   1.433   6.550 -0.1517 -0.3547  0.3298
 3350SOL     hw13398   0.226   1.504   6.489 -1.6395 -2.4909 -1.8056
 3350SOL     hw13399   0.305   1.376   6.501  0.0179 -1.2805  1.5586
 3350SOL     vw13400   0.252   1.435   6.536 -0.3256 -0.7587  0.2100
 3351SOL     ow13401   4.350   2.834   5.405 -0.0627 -0.6628 -0.6213
 3351SOL     hw13402   4.337   2.895   5.478  0.3799 -1.0982 -0.1760
 3351SOL     hw13403   4.278   2.854   5.345 -0.7353 -0.6551  0.1713
 3351SOL     vw13404   4.339   2.845   5.406 -0.0930 -0.7191 -0.4585
 3352SOL     ow13405   1.860   7.495   4.498  0.0057 -0.5028 -0.2945
 3352SOL     hw13406   1.767   7.513   4.490  0.1179 -0.3030 -1.3124
 3352SOL     hw13407   1.886   7.460   4.413  0.5137 -2.2531  0.5388
 3352SOL     vw13408   1.851   7.493   4.486  0.0876 -0.7074 -0.3188
 3353SOL     ow13409   6.484   6.516   0.760  0.3402 -0.1093 -0.1620
 3353SOL     hw13410   6.414   6.460   0.726  1.4320 -2.1515  0.8173
 3353SOL     hw13411   6.461   6.604   0.729 -3.2299 -0.4902  1.0146
 3353SOL     vw13412   6.472   6.520   0.751  0.0134 -0.4292  0.1225
 3354SOL     ow13413   5.208   1.987   0.569  0.0008 -0.3408 -0.2413
 3354SOL     hw13414   5.167   2.027   0.646  0.0130 -0.3454 -0.2326
 3354SOL     hw13415   5.183   1.895   0.574 -0.7578 -0.1750 -0.7295
 3354SOL     vw13416   5.199   1.980   0.580 -0.0975 -0.3195 -0.3046
 3355SOL     ow13417   2.926   5.697   2.285 -0.0174  0.4724 -1.2022
 3355SOL     hw13418   2.993   5.633   2.262  1.2422  2.1529 -2.5417
 3355SOL     hw13419   2.945   5.720   2.376 -0.6472 -1.1834 -0.6262
 3355SOL     vw13420   2.937   5.692   2.294  0.0656  0.4756 -1.3030
 3356SOL     ow13421   1.347   5.610   4.011  0.1877  0.4000 -0.2604
 3356SOL     hw13422   1.350   5.528   3.961  0.0639 -0.0384  0.4263
 3356SOL     hw13423   1.409   5.668   3.967 -0.6221  0.3610 -1.4781
 3356SOL     vw13424   1.356   5.607   3.999  0.0646  0.3371 -0.3304
 3357SOL     ow13425   6.967   3.164   6.744 -0.0735 -0.3820 -0.0576
 3357SOL     hw13426   7.043   3.106   6.754 -0.7193 -1.5308 -1.3890
 3357SOL     hw13427   7.004   3.251   6.734  1.0897 -0.9294 -0.7401
 3357SOL     vw13428   6.982   3.168   6.744 -0.0055 -0.6059 -0.3231
 3358SOL     ow13429   6.306   0.304   3.513  0.0787  0.3253 -0.1993
 3358SOL     hw13430   6.319   0.221   3.468  0.8598  0.7785 -0.8452
 3358SOL     hw13431   6.225   0.293   3.563  0.7728 -1.2199  0.6554
 3358SOL     vw13432   6.297   0.292   3.514  0.2732  0.1812 -0.1718
 3359SOL     ow13433   4.695   4.624   5.575  0.4426  0.1970 -0.2738
 3359SOL     hw13434   4.789   4.620   5.560  0.3022  0.0597 -1.1694
 3359SOL     hw13435   4.685   4.607   5.669  1.1818 -1.7878 -0.4965
 3359SOL     vw13436   4.706   4.621   5.585  0.5217 -0.0830 -0.4213
 3360SOL     ow13437   5.517   0.611   0.881  0.4210 -0.3238  0.5764
 3360SOL     hw13438   5.436   0.662   0.880  0.4130 -0.3215  0.9716
 3360SOL     hw13439   5.582   0.668   0.841 -0.1138 -0.9352 -1.2309
 3360SOL     vw13440   5.515   0.625   0.876  0.3493 -0.4042  0.3901
 3361SOL     ow13441   2.457   2.401   1.924  0.0680 -0.4503  0.3551
 3361SOL     hw13442   2.417   2.346   1.992  0.4051 -1.2265 -0.0562
 3361SOL     hw13443   2.430   2.490   1.946 -1.3362 -0.8759  0.4527
 3361SOL     vw13444   2.448   2.405   1.936 -0.0728 -0.6088  0.3137
 3362SOL     ow13445   4.778   4.373   5.040  0.0467 -0.3162  0.0072
 3362SOL     hw13446   4.869   4.397   5.027  0.0550 -0.3044  0.0901
 3362SOL     hw13447   4.767   4.291   4.991 -0.1058  0.1136 -0.6817
 3362SOL     vw13448   4.788   4.365   5.032  0.0274 -0.2582 -0.0725
 3363SOL     ow13449   3.318   0.841   7.303 -0.0549 -0.0048 -0.4712
 3363SOL     hw13450   3.251   0.890   7.257 -1.4528 -0.3392  1.1155
 3363SOL     hw13451   3.335   0.893   7.382  1.9209  0.3090 -1.0447
 3363SOL     vw13452   3.312   0.855   7.308  0.0215 -0.0075 -0.3376
 3364SOL     ow13453   6.128   1.561   5.086  0.2769  0.2470 -0.2315
 3364SOL     hw13454   6.213   1.604   5.094  0.5169 -0.4737  1.5346
 3364SOL     hw13455   6.073   1.624   5.040  1.2003  1.5819  0.4382
 3364SOL     vw13456   6.132   1.575   5.081  0.4306  0.3281  0.0901
 3365SOL     ow13457   6.556   1.485   2.024 -0.4556  0.3599 -0.5625
 3365SOL     hw13458   6.525   1.542   1.953  1.9500  0.5230 -1.5646
 3365SOL     hw13459   6.609   1.542   2.079 -0.1357 -0.3672 -0.1114
 3365SOL     vw13460   6.559   1.500   2.022 -0.0961  0.2855 -0.6350
 3366SOL     ow13461   3.622   4.016   2.428 -0.2680  0.6658  0.1334
 3366SOL     hw13462   3.704   4.017   2.478 -0.1805  3.2071  0.1169
 3366SOL     hw13463   3.579   3.935   2.453  2.0135 -0.5108  0.5301
 3366SOL     vw13464   3.627   4.006   2.438  0.0446  0.8459  0.1836
 3367SOL     ow13465   4.513   6.266   2.220  0.2951 -0.4261 -0.8572
 3367SOL     hw13466   4.463   6.212   2.160 -1.3505  0.5548 -0.4441
 3367SOL     hw13467   4.595   6.218   2.234  0.6972 -0.7368 -3.7378
 3367SOL     vw13468   4.517   6.253   2.214  0.1314 -0.3378 -1.1828
 3368SOL     ow13469   1.887   4.404   3.364 -0.0762  0.1096  0.1861
 3368SOL     hw13470   1.980   4.385   3.352 -0.2261 -0.0294 -0.8254
 3368SOL     hw13471   1.880   4.499   3.356 -0.1402  0.0398 -0.6184
 3368SOL     vw13472   1.899   4.414   3.362 -0.1044  0.0820 -0.0534
 3369SOL     ow13473   1.921   0.127   4.803  0.1356 -0.7803 -0.2984
 3369SOL     hw13474   1.980   0.195   4.835 -0.5937  0.6290 -1.7771
 3369SOL     hw13475   1.835   0.152   4.837 -0.5037  0.2845 -2.5016
 3369SOL     vw13476   1.918   0.140   4.812 -0.0449 -0.4539 -0.7842
 3370SOL     ow13477   6.326   5.098   0.911 -0.9792 -0.3826 -0.0941
 3370SOL     hw13478   6.416   5.129   0.918 -1.0647  0.8322 -2.9994
 3370SOL     hw13479   6.332   5.004   0.924  0.5167 -0.1710  0.9608
 3370SOL     vw13480   6.339   5.090   0.913 -0.7930 -0.1943 -0.3382
 3371SOL     ow13481   7.013   5.672   0.611  0.3225  0.2316 -0.1131
 3371SOL     hw13482   6.954   5.603   0.641  0.2784 -0.5247 -1.8637
 3371SOL     hw13483   6.955   5.744   0.586  0.3530  0.8156  1.4032
 3371SOL     vw13484   6.998   5.673   0.612  0.3204  0.2089 -0.1440
 3372SOL     ow13485   6.564   2.762   4.159  0.1288  0.1557  0.2259
 3372SOL     hw13486   6.515   2.733   4.082  0.1390 -0.1754  0.3462
 3372SOL     hw13487   6.540   2.855   4.169 -0.1190  0.1146  0.0149
 3372SOL     vw13488   6.555   2.771   4.150  0.0978  0.1067  0.2139
 3373SOL     ow13489   2.715   2.896   1.981 -1.0335 -0.0095  0.5981
 3373SOL     hw13490   2.624   2.886   2.010 -1.7264  1.2365 -0.9818
 3373SOL     hw13491   2.766   2.899   2.062 -2.6369  1.3592  1.6142
 3373SOL     vw13492   2.710   2.895   1.995 -1.3366  0.3355  0.5237
 3374SOL     ow13493   1.202   0.484   6.478 -0.2851  0.7794  0.0746
 3374SOL     hw13494   1.231   0.575   6.473  2.4466  0.1199  1.4628
 3374SOL     hw13495   1.261   0.437   6.419 -0.8070 -0.2375  0.3448
 3374SOL     vw13496   1.214   0.490   6.470  0.0065  0.5582  0.2937
 3375SOL     ow13497   2.395   3.634   5.891  0.6320  0.1725 -0.2420
 3375SOL     hw13498   2.465   3.573   5.913 -0.9791 -1.8175 -0.3182
 3375SOL     hw13499   2.380   3.620   5.797  0.2976  0.7644 -0.2802
 3375SOL     vw13500   2.402   3.624   5.882  0.3754 -0.0119 -0.2570
 3376SOL     ow13501   4.298   5.967   1.501 -0.1875  0.3194  0.7847
 3376SOL     hw13502   4.238   5.901   1.467 -1.2627  1.8476 -0.3951
 3376SOL     hw13503   4.242   6.041   1.526  1.0595  1.2002  1.0871
 3376SOL     vw13504   4.283   5.968   1.500 -0.1647  0.6375  0.6689
 3377SOL     ow13505   3.298   4.645   6.511 -0.1939  0.0919  0.0793
 3377SOL     hw13506   3.230   4.577   6.507 -0.4856  0.3989 -0.3490
 3377SOL     hw13507   3.291   4.681   6.599 -1.5227  1.0518 -0.3797
 3377SOL     vw13508   3.288   4.640   6.522 -0.4076  0.2592 -0.0379
 3378SOL     ow13509   4.380   3.307   4.602 -0.4649  0.6325 -0.5828
 3378SOL     hw13510   4.371   3.377   4.537 -2.1858  1.3349  0.3383
 3378SOL     hw13511   4.299   3.257   4.595  0.5793 -1.0850 -0.9533
 3378SOL     vw13512   4.368   3.310   4.593 -0.5541  0.4987 -0.5102
 3379SOL     ow13513   3.073   6.428   4.824  0.0623  0.2315 -0.4366
 3379SOL     hw13514   3.144   6.413   4.886 -0.2829  2.3768  0.5840
 3379SOL     hw13515   2.994   6.405   4.872 -0.0133 -1.7962 -1.4433
 3379SOL     vw13516   3.072   6.423   4.838  0.0068  0.2472 -0.4349
 3380SOL     ow13517   0.702   1.849   3.368  0.3010  0.0796 -0.2407
 3380SOL     hw13518   0.671   1.768   3.410  2.5803 -1.3300 -1.0851
 3380SOL     hw13519   0.627   1.908   3.373 -0.7211 -1.2574  2.4921
 3380SOL     vw13520   0.688   1.846   3.374  0.4669 -0.2828  0.0085
 3381SOL     ow13521   1.180   5.742   3.321  0.1335  0.2937 -0.7473
 3381SOL     hw13522   1.097   5.754   3.275  0.4749 -0.3081 -1.5570
 3381SOL     hw13523   1.244   5.729   3.251  0.4371 -2.1572 -0.1340
 3381SOL     vw13524   1.178   5.742   3.305  0.2186 -0.1090 -0.7733
 3382SOL     ow13525   5.944   7.417   4.306 -0.2832 -0.4313  0.0773
 3382SOL     hw13526   5.976   7.481   4.370 -0.5111 -1.7471  1.5874
 3382SOL     hw13527   5.860   7.452   4.276  1.0723  1.5762 -1.6610
 3382SOL     vw13528   5.937   7.430   4.311 -0.1342 -0.3402  0.0472
 3383SOL     ow13529   2.359   5.300   1.783  0.3951 -0.2053 -0.5210
 3383SOL     hw13530   2.386   5.385   1.749  0.0871  0.3667  0.6325
 3383SOL     hw13531   2.374   5.305   1.877 -1.1885 -0.8311 -0.2076
 3383SOL     vw13532   2.365   5.312   1.791  0.1456 -0.2124 -0.3273
 3384SOL     ow13533   0.097   1.270   1.085 -0.0744  0.0703  0.4430
 3384SOL     hw13534   0.002   1.257   1.082  0.1143 -1.5623  0.6211
 3384SOL     hw13535   0.124   1.266   0.993 -0.3281  2.1339  0.2327
 3384SOL     vw13536   0.088   1.268   1.073 -0.0830  0.1271  0.4388
 3385SOL     ow13537   3.599   3.044   6.804 -0.0468  0.5392  0.1490
 3385SOL     hw13538   3.617   3.062   6.897  3.6992 -0.5088 -0.2152
 3385SOL     hw13539   3.577   2.951   6.802  1.9699  0.0208 -0.1381
 3385SOL     vw13540   3.599   3.034   6.816  0.7136  0.3325  0.0629
 3386SOL     ow13541   1.851   7.138   5.719  0.2018  0.5251  0.1399
 3386SOL     hw13542   1.796   7.139   5.797 -0.5804  0.3799 -0.3883
 3386SOL     hw13543   1.897   7.222   5.720  0.2195  0.5062  0.7687
 3386SOL     vw13544   1.850   7.149   5.729  0.1009  0.5035  0.1533
 3387SOL     ow13545   6.518   6.095   1.898  0.3598  0.2154 -0.7406
 3387SOL     hw13546   6.531   6.186   1.926 -0.2088 -0.3222  1.4979
 3387SOL     hw13547   6.429   6.092   1.865  0.8373  0.7397 -2.1289
 3387SOL     vw13548   6.508   6.106   1.897  0.3481  0.2139 -0.6284
 3388SOL     ow13549   2.031   6.940   5.893 -0.0731 -0.5317 -0.4384
 3388SOL     hw13550   1.979   6.865   5.919 -2.1473  1.1300  0.5559
 3388SOL     hw13551   2.092   6.955   5.965 -1.3365  0.1527  0.5245
 3388SOL     vw13552   2.032   6.932   5.906 -0.5134 -0.2220 -0.1800
 3389SOL     ow13553   2.441   3.940   1.647  0.1086 -0.3285  0.4642
 3389SOL     hw13554   2.457   3.846   1.657  1.1619 -0.5264 -2.3310
 3389SOL     hw13555   2.483   3.964   1.565 -1.1536  2.3866  0.4755
 3389SOL     vw13556   2.449   3.931   1.638  0.0811  0.0036  0.0969
 3390SOL     ow13557   2.728   1.864   5.694 -0.0901  0.1779  0.0624
 3390SOL     hw13558   2.779   1.785   5.680  0.6405  0.5641  0.5117
 3390SOL     hw13559   2.680   1.876   5.612  4.0910  2.3907 -2.3762
 3390SOL     vw13560   2.728   1.855   5.681  0.5579  0.5208 -0.2000
 3391SOL     ow13561   5.572   3.641   2.025  0.1060 -0.1997  0.3184
 3391SOL     hw13562   5.600   3.709   1.964 -0.1515  2.6494  3.1051
 3391SOL     hw13563   5.628   3.566   2.004  2.3824  1.7400 -1.1818
 3391SOL     vw13564   5.583   3.640   2.014  0.3724  0.4320  0.4880
 3392SOL     ow13565   4.717   0.196   3.164  0.0231 -0.6211  0.0815
 3392SOL     hw13566   4.630   0.218   3.130 -0.2818  1.1597  1.8432
 3392SOL     hw13567   4.701   0.166   3.253  1.1663 -0.9331  0.1949
 3392SOL     vw13568   4.704   0.195   3.171  0.1338 -0.4273  0.3288
 3393SOL     ow13569   5.534   3.589   2.925  0.1085 -0.1609 -0.7664
 3393SOL     hw13570   5.574   3.612   3.008 -0.5581 -1.0678 -0.1793
 3393SOL     hw13571   5.583   3.513   2.895  0.7323  0.5118 -1.5140
 3393SOL     vw13572   5.546   3.582   2.932  0.1030 -0.1919 -0.7875
 3394SOL     ow13573   3.288   6.165   0.588  0.7996 -0.3222  0.5397
 3394SOL     hw13574   3.204   6.173   0.634  0.8866 -0.6348  0.7590
 3394SOL     hw13575   3.349   6.136   0.655  0.8593 -1.1137  0.1563
 3394SOL     vw13576   3.285   6.162   0.603  0.8191 -0.4680  0.5180
 3395SOL     ow13577   3.752   4.058   3.288  0.0274  0.4811  0.2316
 3395SOL     hw13578   3.687   4.063   3.217 -0.2470  0.9807  0.5158
 3395SOL     hw13579   3.774   4.150   3.306  0.2259  0.3457  0.6737
 3395SOL     vw13580   3.746   4.071   3.281  0.0174  0.5291  0.3273
 3396SOL     ow13581   6.965   5.934   7.473  0.1163  0.3569  0.1926
 3396SOL     hw13582   6.978   5.900   7.385 -1.6022 -0.2962  0.1443
 3396SOL     hw13583   7.039   5.901   7.523  2.0462  2.1069 -1.3124
 3396SOL     vw13584   6.976   5.926   7.468  0.1440  0.5014 -0.0124
 3397SOL     ow13585   4.367   4.521   5.238  0.2444  0.1810  0.2388
 3397SOL     hw13586   4.419   4.601   5.223  2.2841 -0.6330  2.3055
 3397SOL     hw13587   4.288   4.553   5.282  0.2787  1.2078 -0.4005
 3397SOL     vw13588   4.363   4.536   5.242  0.5181  0.2091  0.4270
 3398SOL     ow13589   1.970   1.122   1.401  0.1349 -0.1718 -0.4389
 3398SOL     hw13590   1.972   1.197   1.461  1.1244 -0.8230  0.3646
 3398SOL     hw13591   2.062   1.106   1.380  0.0995 -2.1926  0.7434
 3398SOL     vw13592   1.982   1.130   1.406  0.2608 -0.5243 -0.1770
 3399SOL     ow13593   6.186   5.580   1.334 -0.9012 -0.3604  0.1287
 3399SOL     hw13594   6.234   5.506   1.298 -0.5416 -0.3394  0.5623
 3399SOL     hw13595   6.234   5.657   1.304  1.4428 -0.3672  3.3567
 3399SOL     vw13596   6.198   5.581   1.325 -0.5443 -0.3586  0.6118
 3400SOL     ow13597   7.442   3.783   0.492  0.6539 -0.2654  0.2222
 3400SOL     hw13598   7.419   3.833   0.414 -0.2826  0.1289  0.7315
 3400SOL     hw13599   7.488   3.706   0.459 -1.2002 -0.9705 -0.8498
 3400SOL     vw13600   7.445   3.780   0.477  0.2859 -0.3065  0.1479
 3401SOL     ow13601   5.813   5.451   2.855  0.1804 -0.0638  0.0479
 3401SOL     hw13602   5.868   5.517   2.896 -1.5954  1.0956  0.6979
 3401SOL     hw13603   5.811   5.474   2.763  0.5567  0.0470  0.0673
 3401SOL     vw13604   5.820   5.463   2.848 -0.0041  0.1040  0.1363
 3402SOL     ow13605   2.548   2.941   3.430  0.3372 -0.7394 -0.0684
 3402SOL     hw13606   2.566   2.851   3.402 -0.7170 -0.8875 -0.3147
 3402SOL     hw13607   2.554   2.938   3.525 -0.2813 -1.2100 -0.0391
 3402SOL     vw13608   2.552   2.929   3.439  0.1167 -0.8211 -0.0969
 3403SOL     ow13609   7.198   1.815   6.016 -0.0660 -0.5447  0.3722
 3403SOL     hw13610   7.283   1.825   5.974 -1.2247 -1.6919 -2.5192
 3403SOL     hw13611   7.217   1.769   6.098  2.2145  0.6558  0.5923
 3403SOL     vw13612   7.212   1.810   6.022  0.0820 -0.5376  0.0198
 3404SOL     ow13613   1.394   6.078   2.877  0.5751  0.3167  0.3376
 3404SOL     hw13614   1.393   6.169   2.846 -0.0383 -0.1988 -1.2738
 3404SOL     hw13615   1.449   6.032   2.814  0.4325 -0.5386  0.8249
 3404SOL     vw13616   1.401   6.084   2.864  0.4754  0.1359  0.1892
 3405SOL     ow13617   6.021   5.086   4.150 -0.2836  0.5603 -0.0288
 3405SOL     hw13618   5.925   5.082   4.151 -0.3984  1.7700 -1.9390
 3405SOL     hw13619   6.042   5.148   4.220 -1.0337  1.8202 -0.8903
 3405SOL     vw13620   6.011   5.094   4.159 -0.3982  0.8862 -0.3946
 3406SOL     ow13621   1.430   7.178   2.707 -0.1360  0.7796  0.4899
 3406SOL     hw13622   1.454   7.179   2.614 -2.6996 -0.9647 -0.3097
 3406SOL     hw13623   1.469   7.257   2.744  1.2950  1.3039 -1.9716
 3406SOL     vw13624   1.438   7.188   2.700 -0.2854  0.6185  0.0595
 3407SOL     ow13625   1.327   5.196   4.116  0.7973 -0.1367 -0.4988
 3407SOL     hw13626   1.236   5.166   4.115  1.3545 -1.9410 -1.9271
 3407SOL     hw13627   1.332   5.261   4.047  0.5960 -0.0401 -0.4239
 3407SOL     vw13628   1.316   5.201   4.107  0.8442 -0.3617 -0.6773
 3408SOL     ow13629   2.110   6.368   3.303 -0.4070 -0.3401 -0.2401
 3408SOL     hw13630   2.202   6.386   3.286 -0.3989 -0.0237  0.1348
 3408SOL     hw13631   2.096   6.395   3.394 -0.2652 -2.6945  0.5599
 3408SOL     vw13632   2.120   6.374   3.313 -0.3872 -0.6087 -0.0851
 3409SOL     ow13633   7.000   0.601   6.016 -1.0953  0.5808  0.5495
 3409SOL     hw13634   6.993   0.505   6.016  0.1314  0.4752  0.2282
 3409SOL     hw13635   6.935   0.630   5.952 -0.9645 -0.0802  0.1064
 3409SOL     vw13636   6.990   0.592   6.008 -0.9162  0.4797  0.4487
 3410SOL     ow13637   1.385   4.486   1.343 -0.0574 -0.0917  0.9666
 3410SOL     hw13638   1.399   4.393   1.359 -0.4926 -0.2805  0.2908
 3410SOL     hw13639   1.428   4.502   1.259 -0.9528  0.0628  0.5283
 3410SOL     vw13640   1.392   4.476   1.334 -0.2329 -0.0963  0.8196
 3411SOL     ow13641   6.199   3.879   5.851  0.3039 -0.0180 -0.8719
 3411SOL     hw13642   6.263   3.927   5.799  1.5385 -1.6181 -0.9037
 3411SOL     hw13643   6.190   3.795   5.807  0.4830 -0.9751  0.8004
 3411SOL     vw13644   6.206   3.874   5.839  0.4904 -0.3554 -0.6554
 3412SOL     ow13645   4.973   6.449   1.946  0.0361 -0.3119 -0.1296
 3412SOL     hw13646   5.002   6.442   1.855 -0.1331  0.2042 -0.2262
 3412SOL     hw13647   4.877   6.447   1.940 -0.0933  2.5558 -0.2468
 3412SOL     vw13648   4.964   6.448   1.933 -0.0033  0.1345 -0.1578
 3413SOL     ow13649   5.189   2.110   3.988  0.1656 -0.0106  0.0425
 3413SOL     hw13650   5.194   2.040   3.923  0.1569  0.6491 -0.6865
 3413SOL     hw13651   5.124   2.079   4.051  0.8071 -1.0419  0.2170
 3413SOL     vw13652   5.181   2.097   3.987  0.2491 -0.0595 -0.0308
 3414SOL     ow13653   1.494   6.729   3.760 -0.7744  0.2570 -0.2347
 3414SOL     hw13654   1.420   6.745   3.819 -1.4204  2.9233 -1.6211
 3414SOL     hw13655   1.465   6.763   3.676  1.1429 -0.9332 -1.4529
 3414SOL     vw13656   1.480   6.736   3.757 -0.6067  0.4516 -0.5784
 3415SOL     ow13657   3.688   6.889   6.640  0.0918  1.1768 -0.2562
 3415SOL     hw13658   3.638   6.897   6.558 -1.9272 -0.2730  0.7462
 3415SOL     hw13659   3.771   6.849   6.614 -1.3819 -1.3354 -1.3906
 3415SOL     vw13660   3.692   6.885   6.626 -0.3692  0.6542 -0.2737
 3416SOL     ow13661   4.905   6.945   3.240 -0.1724  0.0367 -0.2575
 3416SOL     hw13662   4.906   6.849   3.249 -0.2995 -0.2095 -2.3537
 3416SOL     hw13663   4.813   6.966   3.224 -0.1713  0.5402  0.3699
 3416SOL     vw13664   4.893   6.935   3.239 -0.1888  0.0708 -0.4512
 3417SOL     ow13665   1.264   6.883   4.243  0.3956  0.2524 -0.3624
 3417SOL     hw13666   1.304   6.851   4.163  1.1391  0.0788  0.0650
 3417SOL     hw13667   1.250   6.976   4.228  3.0028  0.8359  0.2254
 3417SOL     vw13668   1.267   6.891   4.231  0.8377  0.3066 -0.2284
 3418SOL     ow13669   0.137   0.624   1.263  0.5830 -0.3343  0.1028
 3418SOL     hw13670   0.155   0.546   1.211  0.0970 -0.4208  0.0608
 3418SOL     hw13671   0.068   0.670   1.215  1.5564  0.6487 -0.4125
 3418SOL     vw13672   0.131   0.620   1.250  0.6473 -0.2160  0.0293
 3419SOL     ow13673   5.641   1.778   1.486 -0.3003 -0.1766 -0.0820
 3419SOL     hw13674   5.586   1.725   1.428 -0.0659 -0.4206 -0.0842
 3419SOL     hw13675   5.580   1.816   1.549 -0.7006  0.9413 -1.1106
 3419SOL     vw13676   5.626   1.776   1.487 -0.3219 -0.0613 -0.2180
 3420SOL     ow13677   2.442   3.097   6.709 -0.6688  0.0359 -0.0244
 3420SOL     hw13678   2.526   3.123   6.670  0.6221 -1.2173  1.7402
 3420SOL     hw13679   2.377   3.149   6.662  0.9078 -0.1662 -2.6256
 3420SOL     vw13680   2.444   3.108   6.698 -0.2904 -0.1562 -0.1347
 3421SOL     ow13681   3.231   3.022   3.795  0.1250 -0.1375  0.3165
 3421SOL     hw13682   3.239   3.115   3.775 -0.9693 -0.3946 -1.5529
 3421SOL     hw13683   3.292   2.979   3.734 -1.4805 -0.7929 -0.9016
 3421SOL     vw13684   3.240   3.028   3.784 -0.2311 -0.2578 -0.0910
 3422SOL     ow13685   0.997   1.765   6.169 -0.0725  0.0255 -0.5214
 3422SOL     hw13686   1.006   1.738   6.260 -1.6135 -1.4526 -0.7650
 3422SOL     hw13687   1.082   1.804   6.147  0.5113 -0.0874  1.3666
 3422SOL     vw13688   1.010   1.767   6.178 -0.1988 -0.1844 -0.3040
 3423SOL     ow13689   4.234   3.051   7.242  0.6815  0.2434 -0.3738
 3423SOL     hw13690   4.240   3.146   7.250  3.1041  0.2627 -1.4421
 3423SOL     hw13691   4.148   3.035   7.203 -0.6626  1.7835  1.7463
 3423SOL     vw13692   4.223   3.061   7.238  0.8235  0.4492 -0.2351
 3424SOL     ow13693   1.897   6.633   2.807  0.1746  0.4784 -0.1430
 3424SOL     hw13694   1.821   6.621   2.864  0.9525  0.8684  1.0089
 3424SOL     hw13695   1.863   6.621   2.718 -1.1046  0.0619  0.3881
 3424SOL     vw13696   1.883   6.630   2.802  0.1085  0.4749  0.0792
 3425SOL     ow13697   4.983   1.978   6.501  0.2211  0.3349 -0.4461
 3425SOL     hw13698   4.997   1.888   6.472  1.3987  0.3061  0.1502
 3425SOL     hw13699   5.056   2.027   6.463  0.7811  0.6274  0.9826
 3425SOL     vw13700   4.994   1.973   6.492  0.4504  0.3696 -0.1788
 3426SOL     ow13701   6.184   3.391   1.645  0.1485  0.0450 -0.1557
 3426SOL     hw13702   6.205   3.360   1.557 -1.1880  2.0563 -1.2476
 3426SOL     hw13703   6.187   3.486   1.639  0.0584  0.2342  1.9954
 3426SOL     vw13704   6.187   3.399   1.633 -0.0396  0.3352 -0.0160
 3427SOL     ow13705   1.801   4.989   4.276 -0.0849 -0.1442  0.0946
 3427SOL     hw13706   1.803   5.012   4.369 -1.1564  1.4899 -0.2508
 3427SOL     hw13707   1.886   5.019   4.243 -0.1861  0.3912  0.3073
 3427SOL     vw13708   1.813   4.996   4.284 -0.2396  0.1421  0.0770
 3428SOL     ow13709   4.157   4.445   0.650 -0.4994  0.5437 -0.0444
 3428SOL     hw13710   4.236   4.452   0.596 -0.7175  0.6201 -0.3515
 3428SOL     hw13711   4.084   4.457   0.589 -0.7366  1.1856  0.3562
 3428SOL     vw13712   4.158   4.447   0.635 -0.5596  0.6385 -0.0320
 3429SOL     ow13713   6.775   0.432   4.643 -0.3964 -0.0947 -0.2007
 3429SOL     hw13714   6.821   0.383   4.574 -2.0754 -1.0536 -0.6961
 3429SOL     hw13715   6.686   0.444   4.609 -1.0668  0.0251  1.5062
 3429SOL     vw13716   6.769   0.427   4.630 -0.7064 -0.2054 -0.0410
 3430SOL     ow13717   6.235   5.512   0.041  0.3150 -0.0189 -0.3076
 3430SOL     hw13718   6.221   5.560  -0.041  0.5355 -1.0442 -0.9702
 3430SOL     hw13719   6.196   5.426   0.025 -2.4383  0.6846  1.7491
 3430SOL     vw13720   6.228   5.507   0.028 -0.0193 -0.0615 -0.1237
 3431SOL     ow13721   2.374   0.024   6.640 -0.2841  0.1027  0.4547
 3431SOL     hw13722   2.434   0.030   6.714 -0.6424  3.1872  0.6435
 3431SOL     hw13723   2.425  -0.019   6.571  1.4063  0.7219  1.2747
 3431SOL     vw13724   2.388   0.019   6.641 -0.1082  0.5913  0.5879
 3432SOL     ow13725   3.909   1.929   5.940  0.4001  0.1579 -0.3550
 3432SOL     hw13726   3.988   1.887   5.973 -0.5208 -3.2911 -2.0710
 3432SOL     hw13727   3.855   1.943   6.017  0.6196 -2.3327  0.3177
 3432SOL     vw13728   3.912   1.925   5.954  0.3077 -0.6257 -0.4928
 3433SOL     ow13729   2.548   2.575   0.277  0.0375 -0.0206  0.1098
 3433SOL     hw13730   2.635   2.548   0.307  0.7548  1.3829 -0.6149
 3433SOL     hw13731   2.563   2.658   0.232 -1.5395 -0.2480 -0.9114
 3433SOL     vw13732   2.562   2.582   0.275 -0.0758  0.1345 -0.1205
 3434SOL     ow13733   5.801   0.176   6.438  0.2496  0.5415 -0.0483
 3434SOL     hw13734   5.894   0.157   6.455 -0.2724 -1.6220  0.6198
 3434SOL     hw13735   5.791   0.162   6.344  0.2368 -1.0710  0.1681
 3434SOL     vw13736   5.812   0.172   6.428  0.1793  0.0433  0.0679
 3435SOL     ow13737   6.687   0.455   5.341  0.2152 -0.5545 -0.2878
 3435SOL     hw13738   6.594   0.433   5.342  0.2148 -0.6549  1.9084
 3435SOL     hw13739   6.730   0.379   5.301 -0.7313  0.2785 -3.1502
 3435SOL     vw13740   6.681   0.442   5.336  0.0901 -0.4578 -0.3757
 3436SOL     ow13741   7.306   2.976   1.488 -0.8322 -0.6205  0.1337
 3436SOL     hw13742   7.232   3.022   1.448 -0.7055 -1.2906 -0.8995
 3436SOL     hw13743   7.289   2.981   1.582 -0.6934  1.7358  0.0758
 3436SOL     vw13744   7.294   2.983   1.495 -0.7970 -0.3979 -0.0103
 3437SOL     ow13745   6.645   4.867   0.851  0.4865  0.5509  0.6394
 3437SOL     hw13746   6.655   4.794   0.912 -0.7565 -0.4996 -0.3451
 3437SOL     hw13747   6.557   4.855   0.815 -0.1956  3.1652  1.2363
 3437SOL     vw13748   6.634   4.856   0.855  0.2325  0.7567  0.5883
 3438SOL     ow13749   1.004   3.662   3.797  0.3323  0.5577  0.3729
 3438SOL     hw13750   0.955   3.581   3.782 -1.8060  2.0598 -1.4469
 3438SOL     hw13751   1.056   3.673   3.718  1.6624  0.3453  1.1826
 3438SOL     vw13752   1.005   3.653   3.785  0.2257  0.7280  0.2397
 3439SOL     ow13753   2.104   6.925   4.951 -0.2335 -0.4163 -0.0805
 3439SOL     hw13754   2.183   6.877   4.975  0.2915  1.7014  3.1005
 3439SOL     hw13755   2.042   6.906   5.022 -1.0589  1.2324 -0.3171
 3439SOL     vw13756   2.106   6.916   4.964 -0.2732  0.0808  0.3078
 3440SOL     ow13757   3.179   2.588   0.823  0.3889 -0.3436 -0.1882
 3440SOL     hw13758   3.114   2.630   0.767 -2.0617 -1.5742  1.5507
 3440SOL     hw13759   3.151   2.497   0.829  0.8487 -0.3988  2.5235
 3440SOL     vw13760   3.167   2.582   0.816  0.1264 -0.5132  0.3990
 3441SOL     ow13761   7.296   3.947   3.134 -0.0574 -0.7787  0.3737
 3441SOL     hw13762   7.285   3.935   3.229 -0.6286 -0.4993  0.3487
 3441SOL     hw13763   7.391   3.947   3.121  0.1790  2.0144  1.3496
 3441SOL     vw13764   7.307   3.945   3.145 -0.1020 -0.3734  0.4992
 3442SOL     ow13765   5.447   0.182   7.302 -0.9664  0.2169  0.5281
 3442SOL     hw13766   5.400   0.251   7.255 -1.1663  0.3715  0.9508
 3442SOL     hw13767   5.513   0.228   7.353  0.5875 -0.0948 -1.1004
 3442SOL     vw13768   5.450   0.197   7.302 -0.7875  0.1962  0.3693
 3443SOL     ow13769   2.266   3.176   1.117  0.2142  0.0436  0.2415
 3443SOL     hw13770   2.188   3.133   1.152  0.9642 -1.0456  0.6378
 3443SOL     hw13771   2.297   3.116   1.049  1.0110  0.1906  0.4737
 3443SOL     vw13772   2.260   3.162   1.112  0.4183 -0.0806  0.3245
 3444SOL     ow13773   2.552   3.547   4.476  0.7113  0.1400 -0.6249
 3444SOL     hw13774   2.471   3.497   4.485  1.6118 -1.2769 -0.0093
 3444SOL     hw13775   2.524   3.633   4.445 -1.2575  0.3921  1.5536
 3444SOL     vw13776   2.538   3.552   4.473  0.5703 -0.0137 -0.2561
 3445SOL     ow13777   6.591   2.967   5.740  0.5226  0.2463  0.1956
 3445SOL     hw13778   6.555   3.049   5.706  0.8486  1.1054  1.8284
 3445SOL     hw13779   6.540   2.949   5.819  1.8038 -0.0097  0.9972
 3445SOL     vw13780   6.580   2.976   5.746  0.7346  0.3259  0.5169
 3446SOL     ow13781   0.965   5.878   3.621 -0.1612  0.0364 -0.1424
 3446SOL     hw13782   1.001   5.957   3.582  1.8988  0.0845  1.6755
 3446SOL     hw13783   0.926   5.909   3.703  0.7015 -0.8100  0.6025
 3446SOL     vw13784   0.964   5.893   3.627  0.2245 -0.0687  0.1957
 3447SOL     ow13785   3.230   3.533   0.493  0.6393 -0.1645 -0.4045
 3447SOL     hw13786   3.250   3.579   0.411 -1.6984  1.4042 -0.1818
 3447SOL     hw13787   3.201   3.601   0.552  0.1776 -1.5569  1.0417
 3447SOL     vw13788   3.229   3.548   0.490  0.2699 -0.1413 -0.1843
 3448SOL     ow13789   1.254   6.377   2.359  0.3740 -0.2112  0.6863
 3448SOL     hw13790   1.264   6.403   2.450 -1.0891 -0.1406  0.8558
 3448SOL     hw13791   1.205   6.294   2.363  0.2758 -0.1976 -0.0378
 3448SOL     vw13792   1.249   6.369   2.372  0.1680 -0.2000  0.6132
 3449SOL     ow13793   5.733   3.810   4.362 -0.3505 -0.6874 -0.5728
 3449SOL     hw13794   5.679   3.741   4.401 -0.2516 -2.6007 -3.5539
 3449SOL     hw13795   5.670   3.879   4.340 -0.2391  1.3290  4.1408
 3449SOL     vw13796   5.717   3.810   4.364 -0.3228 -0.6739 -0.3443
 3450SOL     ow13797   4.610   4.362   7.211  0.3649 -0.1753  0.4572
 3450SOL     hw13798   4.683   4.345   7.153 -0.0242  1.4372 -0.5451
 3450SOL     hw13799   4.650   4.381   7.296  1.0121 -0.9082  0.3220
 3450SOL     vw13800   4.625   4.362   7.215  0.3989 -0.0594  0.3073
 3451SOL     ow13801   0.467   2.432   0.655 -0.7438  0.3012  0.0462
 3451SOL     hw13802   0.502   2.521   0.668  0.3961 -0.1000 -0.1836
 3451SOL     hw13803   0.418   2.414   0.735  0.7249  0.3751  1.0090
 3451SOL     vw13804   0.466   2.442   0.667 -0.3996  0.2581  0.1429
 3452SOL     ow13805   3.936   4.942   3.634 -0.2695  0.2763  1.2846
 3452SOL     hw13806   3.868   5.003   3.605 -0.0799  0.5011  1.3110
 3452SOL     hw13807   4.017   4.978   3.598 -0.0813  0.3486  1.7790
 3452SOL     vw13808   3.938   4.955   3.625 -0.2196  0.3152  1.3534
 3453SOL     ow13809   6.206   1.302   2.080 -0.5248 -0.6072 -0.2672
 3453SOL     hw13810   6.271   1.371   2.095 -0.2227 -0.0130 -3.5528
 3453SOL     hw13811   6.255   1.220   2.086  0.1128 -0.2638 -0.6708
 3453SOL     vw13812   6.221   1.300   2.083 -0.4008 -0.4835 -0.7538
 3454SOL     ow13813   0.712   6.437   2.106 -0.2284 -0.0323  0.0071
 3454SOL     hw13814   0.803   6.453   2.130 -0.6948  1.0123  1.2173
 3454SOL     hw13815   0.695   6.347   2.133 -0.3347  0.6621  2.5159
 3454SOL     vw13816   0.722   6.427   2.113 -0.3039  0.1974  0.4977
 3455SOL     ow13817   5.446   6.035   2.387 -0.1551 -0.1342 -0.1736
 3455SOL     hw13818   5.481   5.947   2.403  3.0440  1.0295  0.0133
 3455SOL     hw13819   5.455   6.048   2.293  0.2101  0.2635 -0.0912
 3455SOL     vw13820   5.452   6.025   2.377  0.3150  0.0718 -0.1383
 3456SOL     ow13821   3.121   4.031   7.438 -0.3203 -0.1431 -0.1277
 3456SOL     hw13822   3.146   3.946   7.403  1.6557  0.9525 -1.6384
 3456SOL     hw13823   3.202   4.081   7.439 -1.6701  2.2136 -0.7758
 3456SOL     vw13824   3.135   4.027   7.433 -0.2376  0.3126 -0.4125
 3457SOL     ow13825   2.421   3.371   2.692 -0.1853  0.2043 -0.1890
 3457SOL     hw13826   2.490   3.312   2.660  0.4554  0.6098  0.4081
 3457SOL     hw13827   2.398   3.424   2.616  0.9995  0.8519 -0.1112
 3457SOL     vw13828   2.427   3.370   2.678  0.0554  0.3433 -0.0999
 3458SOL     ow13829   6.664   0.385   5.741  0.2186 -0.5849 -0.0585
 3458SOL     hw13830   6.588   0.393   5.684  1.5860  1.0166 -1.8064
 3458SOL     hw13831   6.696   0.296   5.726 -0.5129 -0.8056 -0.3461
 3458SOL     vw13832   6.658   0.374   5.731  0.3023 -0.4027 -0.3271
 3459SOL     ow13833   3.691   4.177   6.801 -0.5050 -0.1644  0.2073
 3459SOL     hw13834   3.685   4.082   6.812  0.0852 -0.3095 -0.6823
 3459SOL     hw13835   3.768   4.191   6.746  0.0007  0.8955  1.1177
 3459SOL     vw13836   3.701   4.167   6.795 -0.3604 -0.0436  0.2100
 3460SOL     ow13837   4.938   6.887   2.744 -0.0433 -0.1946 -0.2320
 3460SOL     hw13838   4.902   6.925   2.664  0.3198 -1.6320 -1.1236
 3460SOL     hw13839   4.861   6.855   2.792 -0.1356 -2.7295 -1.8522
 3460SOL     vw13840   4.923   6.888   2.740 -0.0076 -0.7188 -0.5635
 3461SOL     ow13841   0.474   5.705   3.715 -0.2165  0.1888 -0.4603
 3461SOL     hw13842   0.542   5.674   3.655  0.7339 -0.6014  0.9652
 3461SOL     hw13843   0.450   5.627   3.766  1.3890  1.4199  2.4122
 3461SOL     vw13844   0.480   5.690   3.714  0.1207  0.2470  0.1067
 3462SOL     ow13845   7.049   7.066   4.739  0.2948  0.5794  0.1898
 3462SOL     hw13846   6.962   7.097   4.716  1.0696  0.1913 -4.1563
 3462SOL     hw13847   7.108   7.137   4.712  1.5159 -0.6608 -0.5236
 3462SOL     vw13848   7.046   7.080   4.733  0.5581  0.3645 -0.4778
 3463SOL     ow13849   7.364   5.107   5.285  0.1554 -0.6374  0.3126
 3463SOL     hw13850   7.426   5.167   5.241  0.5024 -0.5403  0.9230
 3463SOL     hw13851   7.299   5.165   5.325  0.3525 -0.6745  0.6931
 3463SOL     vw13852   7.364   5.123   5.284  0.2272 -0.6292  0.4432
 3464SOL     ow13853   4.313   0.812   6.152  0.2122  0.1410  0.2365
 3464SOL     hw13854   4.377   0.882   6.160  0.5502 -0.1308 -0.0818
 3464SOL     hw13855   4.239   0.852   6.106  1.5288 -0.4153 -2.5824
 3464SOL     vw13856   4.312   0.826   6.147  0.4303  0.0317 -0.1774
 3465SOL     ow13857   1.722   5.040   6.746  0.5427  0.4500  0.4674
 3465SOL     hw13858   1.668   5.066   6.671  1.0983 -1.4744 -0.6664
 3465SOL     hw13859   1.811   5.065   6.721  0.6484  0.3689  0.7577
 3465SOL     vw13860   1.727   5.047   6.733  0.6300  0.1853  0.3560
 3466SOL     ow13861   5.140   1.355   2.789 -0.1067  0.2711 -0.8439
 3466SOL     hw13862   5.066   1.387   2.736 -0.6681 -1.2946 -1.0415
 3466SOL     hw13863   5.160   1.269   2.753 -0.1433 -0.6034  1.1382
 3466SOL     vw13864   5.133   1.348   2.777 -0.1855 -0.0508 -0.6084
 3467SOL     ow13865   4.293   1.319   0.088 -0.4304  0.2600  0.3263
 3467SOL     hw13866   4.350   1.388   0.055 -1.4610  0.8793 -0.2254
 3467SOL     hw13867   4.338   1.238   0.067  0.9562  0.7543  1.2629
 3467SOL     vw13868   4.306   1.318   0.081 -0.3834  0.4070  0.3771
 3468SOL     ow13869   3.399   0.956   6.935  0.1895  0.6521 -0.2756
 3468SOL     hw13870   3.348   0.875   6.941  1.4444 -0.4159 -2.7156
 3468SOL     hw13871   3.340   1.019   6.893  0.0474  0.1930 -0.7713
 3468SOL     vw13872   3.385   0.954   6.930  0.3363  0.4507 -0.6628
 3469SOL     ow13873   3.561   6.893   1.775 -0.3218  0.7137  0.1071
 3469SOL     hw13874   3.546   6.956   1.704  0.4206  0.9087  0.1169
 3469SOL     hw13875   3.634   6.930   1.824  0.0920 -0.1407  0.1414
 3469SOL     vw13876   3.568   6.906   1.772 -0.1693  0.6268  0.1130
 3470SOL     ow13877   0.167   5.828   3.780  0.2580 -0.4214  0.0307
 3470SOL     hw13878   0.073   5.824   3.766  0.2183  0.6024 -0.0746
 3470SOL     hw13879   0.177   5.826   3.875  0.0304  0.8631  0.1010
 3470SOL     vw13880   0.156   5.827   3.791  0.2227 -0.1166  0.0262
 3471SOL     ow13881   6.541   5.155   0.443  0.2715  0.0612  0.0384
 3471SOL     hw13882   6.481   5.166   0.516  0.1912  0.0835 -0.0300
 3471SOL     hw13883   6.608   5.094   0.475  0.9654  1.0685  0.5622
 3471SOL     vw13884   6.542   5.148   0.457  0.3526  0.1972  0.0985
 3472SOL     ow13885   4.616   6.510   7.279  0.5706  0.0205 -0.0954
 3472SOL     hw13886   4.629   6.581   7.217  0.0585  1.3687  1.2955
 3472SOL     hw13887   4.696   6.508   7.330 -0.2950  1.1446  1.3620
 3472SOL     vw13888   4.628   6.519   7.277  0.3889  0.3469  0.2804
 3473SOL     ow13889   3.837   6.214   0.200 -0.8105 -0.1288  0.5119
 3473SOL     hw13890   3.840   6.308   0.185  0.7732 -0.2764 -0.2677
 3473SOL     hw13891   3.756   6.185   0.158 -0.8297  0.7557 -0.0812
 3473SOL     vw13892   3.827   6.222   0.193 -0.6042 -0.0315  0.3308
 3474SOL     ow13893   6.228   4.508   7.487 -0.3766 -0.3938 -0.2384
 3474SOL     hw13894   6.293   4.564   7.445 -0.8580  0.8049  0.5539
 3474SOL     hw13895   6.256   4.419   7.466  0.6800  0.1243 -1.1390
 3474SOL     vw13896   6.240   4.503   7.479 -0.3006 -0.1674 -0.2530
 3475SOL     ow13897   5.215   4.327   4.356  0.2513 -0.3313 -0.2257
 3475SOL     hw13898   5.272   4.324   4.434 -0.2400  0.5699  0.1899
 3475SOL     hw13899   5.149   4.260   4.371 -1.9369  2.0616  1.8686
 3475SOL     vw13900   5.214   4.318   4.368 -0.1023  0.1035  0.1054
 3476SOL     ow13901   0.827   1.619   4.047 -0.1103  0.5014  0.0065
 3476SOL     hw13902   0.798   1.558   4.114 -1.5280 -0.5202 -1.4569
 3476SOL     hw13903   0.921   1.628   4.063  0.2731 -2.4304  0.0576
 3476SOL     vw13904   0.836   1.612   4.058 -0.2468 -0.0202 -0.1800
 3477SOL     ow13905   6.591   1.201   7.108 -0.5919  0.3907 -0.3547
 3477SOL     hw13906   6.611   1.224   7.199 -2.0596 -1.2007  0.4320
 3477SOL     hw13907   6.544   1.278   7.075 -0.3465  0.8609  0.3472
 3477SOL     vw13908   6.587   1.214   7.116 -0.7532  0.2428 -0.1583
 3478SOL     ow13909   4.272   2.892   7.443  0.3534 -0.4221 -0.1742
 3478SOL     hw13910   4.252   2.962   7.380 -0.5522 -0.0013  0.5541
 3478SOL     hw13911   4.215   2.910   7.517 -0.7294 -2.5694 -0.3973
 3478SOL     vw13912   4.261   2.904   7.444  0.0913 -0.6499 -0.1078
 3479SOL     ow13913   1.278   5.275   3.154  0.0060  0.2255 -0.5283
 3479SOL     hw13914   1.329   5.242   3.080 -1.8611  0.6666 -2.0924
 3479SOL     hw13915   1.289   5.208   3.222  2.0089 -0.0411 -1.0481
 3479SOL     vw13916   1.286   5.262   3.154  0.0239  0.2487 -0.8034
 3480SOL     ow13917   5.477   3.967   2.868 -0.4520 -0.0767  0.6154
 3480SOL     hw13918   5.533   3.979   2.791  0.2662 -1.6037  0.8825
 3480SOL     hw13919   5.526   3.909   2.925 -1.0542  0.8910  2.1774
 3480SOL     vw13920   5.491   3.961   2.865 -0.4368 -0.1506  0.8568
 3481SOL     ow13921   2.240   7.220   6.545 -0.7548  0.0458 -1.0566
 3481SOL     hw13922   2.289   7.138   6.559 -0.0686  0.7352  0.9638
 3481SOL     hw13923   2.302   7.277   6.499  0.9515  1.2820  2.3903
 3481SOL     vw13924   2.255   7.217   6.540 -0.4393  0.2999 -0.3355
 3482SOL     ow13925   0.859   0.656   2.330  0.0128  0.4068  0.2386
 3482SOL     hw13926   0.767   0.635   2.348  0.4744 -1.8654  0.2554
 3482SOL     hw13927   0.883   0.718   2.399 -1.0917 -0.1793  1.1964
 3482SOL     vw13928   0.850   0.661   2.341 -0.0721  0.0297  0.3673
 3483SOL     ow13929   2.933   1.669   3.769 -0.1320  0.2836  0.2667
 3483SOL     hw13930   2.849   1.625   3.771  0.5534 -1.0570  2.0734
 3483SOL     hw13931   2.926   1.739   3.835  0.0658  0.3559  0.2148
 3483SOL     vw13932   2.921   1.673   3.778 -0.0155  0.1163  0.4981
 3484SOL     ow13933   0.810   0.039   2.264 -0.7389  0.5677 -0.7552
 3484SOL     hw13934   0.846  -0.046   2.241  0.3136  1.5475 -3.0734
 3484SOL     hw13935   0.757   0.064   2.188 -2.3239  1.3124  0.5431
 3484SOL     vw13936   0.808   0.031   2.251 -0.8092  0.7953 -0.8898
 3485SOL     ow13937   6.863   4.044   4.859  0.3862 -0.5446 -0.3694
 3485SOL     hw13938   6.815   4.052   4.941  2.5829 -0.8869  1.0428
 3485SOL     hw13939   6.809   4.089   4.794 -2.2376 -1.7173  0.8575
 3485SOL     vw13940   6.849   4.051   4.861  0.3297 -0.7443 -0.0215
 3486SOL     ow13941   0.265   6.534   3.222  0.1523  0.0251 -0.2718
 3486SOL     hw13942   0.174   6.506   3.218 -0.2394  1.0340  0.6505
 3486SOL     hw13943   0.272   6.603   3.156 -0.0302  0.6123  0.3077
 3486SOL     vw13944   0.254   6.540   3.213  0.0766  0.2356 -0.0736
 3487SOL     ow13945   7.296   6.530   0.363  0.1728  0.1823  0.3568
 3487SOL     hw13946   7.305   6.455   0.421  0.4716  0.6692  0.9478
 3487SOL     hw13947   7.385   6.561   0.348 -0.0660  2.2343  2.5591
 3487SOL     vw13948   7.309   6.524   0.369  0.1807  0.5174  0.7253
 3488SOL     ow13949   6.136   5.721   6.745  0.2982  0.4243  0.4928
 3488SOL     hw13950   6.048   5.735   6.780  0.1989  0.5573  0.1904
 3488SOL     hw13951   6.138   5.770   6.663  0.3406 -0.3720  0.0106
 3488SOL     vw13952   6.125   5.729   6.739  0.2909  0.3366  0.3893
 3489SOL     ow13953   0.238   0.019   1.408  0.1212 -0.4832  0.0482
 3489SOL     hw13954   0.316   0.073   1.396  1.5323 -2.6068 -1.0025
 3489SOL     hw13955   0.253  -0.027   1.490  0.4233 -1.5699 -0.6073
 3489SOL     vw13956   0.250   0.020   1.417  0.3472 -0.9068 -0.1768
 3490SOL     ow13957   4.801   5.009   6.697 -0.1705 -0.1539  0.2986
 3490SOL     hw13958   4.830   5.043   6.782  0.3732 -0.9880  0.4559
 3490SOL     hw13959   4.858   4.934   6.681  0.0241  0.2561 -1.0137
 3490SOL     vw13960   4.813   5.004   6.706 -0.0730 -0.2100  0.1462
 3491SOL     ow13961   0.871   5.720   1.109 -0.1576  0.7825  0.0460
 3491SOL     hw13962   0.870   5.630   1.139  0.1215  0.9268  0.4997
 3491SOL     hw13963   0.946   5.726   1.050 -0.8839  0.4232 -0.9327
 3491SOL     vw13964   0.880   5.709   1.105 -0.2166  0.7541 -0.0232
 3492SOL     ow13965   1.118   6.222   5.907 -0.1274 -0.1014 -0.3152
 3492SOL     hw13966   1.107   6.311   5.872 -0.9345 -1.4746 -4.1098
 3492SOL     hw13967   1.029   6.190   5.920  0.1553  0.1217  2.7447
 3492SOL     vw13968   1.105   6.230   5.904 -0.1966 -0.2530 -0.4120
 3493SOL     ow13969   6.812   0.653   3.837  0.4917 -0.3389  0.2784
 3493SOL     hw13970   6.902   0.636   3.812  0.9872  1.6790  0.4729
 3493SOL     hw13971   6.807   0.749   3.845 -1.9417 -0.2868 -0.8306
 3493SOL     vw13972   6.823   0.664   3.835  0.2363 -0.0658  0.1578
 3494SOL     ow13973   6.664   4.582   1.043 -0.6398  0.1486 -0.9516
 3494SOL     hw13974   6.602   4.513   1.067  1.2657 -1.3720 -0.1617
 3494SOL     hw13975   6.723   4.541   0.981  0.3753  1.1470 -0.6827
 3494SOL     vw13976   6.664   4.567   1.038 -0.2542  0.0799 -0.8119
 3495SOL     ow13977   0.876   6.062   5.855 -0.1057  0.3490 -0.0783
 3495SOL     hw13978   0.848   6.153   5.842  0.5572  0.7003  0.8281
 3495SOL     hw13979   0.934   6.044   5.781 -0.3533  0.6156 -0.3395
 3495SOL     vw13980   0.880   6.072   5.844 -0.0509  0.4306  0.0069
 3496SOL     ow13981   3.083   0.107   6.479 -0.0307 -0.6548 -0.3607
 3496SOL     hw13982   3.047   0.191   6.452  0.2196 -0.4252  0.0182
 3496SOL     hw13983   3.070   0.050   6.403  1.4611  0.2198 -1.3162
 3496SOL     vw13984   3.077   0.110   6.465  0.1992 -0.5091 -0.4368
 3497SOL     ow13985   0.869   1.153   2.615 -0.1340 -0.8103 -0.6227
 3497SOL     hw13986   0.926   1.177   2.687 -0.4278  0.4042 -0.7739
 3497SOL     hw13987   0.915   1.183   2.537 -0.6353 -0.4807 -0.7988
 3497SOL     vw13988   0.883   1.160   2.614 -0.2389 -0.6066 -0.6660
 3498SOL     ow13989   6.458   3.753   0.620  0.2944 -0.2579  0.5349
 3498SOL     hw13990   6.434   3.674   0.572 -1.2355  0.1005  0.6695
 3498SOL     hw13991   6.410   3.823   0.577  1.2359  0.5440  0.7358
 3498SOL     vw13992   6.449   3.752   0.608  0.2170 -0.1049  0.5791
 3499SOL     ow13993   1.672   5.568   3.960 -0.5576  0.5575 -0.0967
 3499SOL     hw13994   1.685   5.554   3.866  1.4469  0.1680  0.1977
 3499SOL     hw13995   1.611   5.641   3.965 -0.6980  0.5889 -1.6940
 3499SOL     vw13996   1.666   5.576   3.948 -0.3117  0.5102 -0.2686
 3500SOL     ow13997   5.369   0.546   6.635 -0.2376  0.5729  0.0138
 3500SOL     hw13998   5.278   0.573   6.623 -0.2635  0.9722  1.0342
 3500SOL     hw13999   5.421   0.623   6.610 -0.1293  0.1264 -1.2345
 3500SOL     vw14000   5.364   0.560   6.630 -0.2267  0.5667 -0.0162
 3501SOL     ow14001   6.944   7.219   1.118 -0.3134 -0.6060  0.3038
 3501SOL     hw14002   6.954   7.127   1.094  2.2312  0.0278 -1.4943
 3501SOL     hw14003   6.874   7.251   1.062 -1.6996 -1.5289  1.4280
 3501SOL     vw14004   6.937   7.211   1.108 -0.1607 -0.6442  0.2149
 3502SOL     ow14005   2.948   6.782   3.570  0.2728 -0.0314 -0.3971
 3502SOL     hw14006   3.043   6.775   3.563  0.2466 -1.7479  0.5571
 3502SOL     hw14007   2.919   6.697   3.604 -1.8690 -0.4789 -3.0209
 3502SOL     vw14008   2.957   6.770   3.574 -0.0132 -0.3169 -0.6174
 3503SOL     ow14009   3.055   4.099   2.011 -0.5319  0.0661 -0.1448
 3503SOL     hw14010   3.121   4.134   2.071  0.8104 -3.5011  0.6677
 3503SOL     hw14011   2.998   4.045   2.067 -1.3081 -0.6588 -1.5835
 3503SOL     vw14012   3.056   4.097   2.026 -0.4572 -0.5002 -0.2273
 3504SOL     ow14013   0.612   0.555   2.333  0.5162 -0.3950 -0.0198
 3504SOL     hw14014   0.575   0.617   2.396  2.3210  0.4746  0.2663
 3504SOL     hw14015   0.541   0.537   2.272 -0.4916  0.8270  0.7502
 3504SOL     vw14016   0.598   0.561   2.333  0.6213 -0.1191  0.1194
 3505SOL     ow14017   5.069   0.333   0.563 -0.3238  0.0264  0.1242
 3505SOL     hw14018   5.035   0.244   0.570 -1.2249  0.3839  0.4764
 3505SOL     hw14019   5.021   0.371   0.489  0.4438  0.0632 -0.3694
 3505SOL     vw14020   5.058   0.326   0.554 -0.3414  0.0784  0.1056
 3506SOL     ow14021   3.187   6.876   3.756  0.1375 -0.9303  0.1985
 3506SOL     hw14022   3.237   6.806   3.798  2.9035  0.9395  0.3353
 3506SOL     hw14023   3.226   6.883   3.669 -0.2017  0.2914  0.1308
 3506SOL     vw14024   3.199   6.867   3.750  0.4579 -0.5226  0.2077
 3507SOL     ow14025   7.256   0.626   1.530 -0.5654  0.1196  0.1275
 3507SOL     hw14026   7.315   0.688   1.573  0.6830  0.1284 -1.4808
 3507SOL     hw14027   7.314   0.565   1.486 -1.7702 -0.4494 -0.7263
 3507SOL     vw14028   7.271   0.626   1.530 -0.5593  0.0457 -0.1974
 3508SOL     ow14029   0.282   5.444   3.701 -0.1970 -0.2090  0.5462
 3508SOL     hw14030   0.236   5.430   3.619 -0.4265 -1.7856  0.9070
 3508SOL     hw14031   0.368   5.404   3.688 -1.1545 -3.0205  1.8855
 3508SOL     vw14032   0.287   5.437   3.689 -0.3536 -0.7877  0.7704
 3509SOL     ow14033   7.279   6.761   1.729 -0.0560 -0.1515  0.1491
 3509SOL     hw14034   7.312   6.844   1.695 -1.7217  0.8312  0.8302
 3509SOL     hw14035   7.203   6.740   1.674  0.1417 -1.0691  0.1988
 3509SOL     vw14036   7.273   6.769   1.717 -0.2499 -0.1428  0.2455
 3510SOL     ow14037   7.307   6.292   2.055  0.1935  0.2078 -0.0618
 3510SOL     hw14038   7.239   6.235   2.090 -1.3047  1.9516  0.0170
 3510SOL     hw14039   7.381   6.282   2.115 -0.0131 -1.5984 -0.0512
 3510SOL     vw14040   7.308   6.283   2.067 -0.0315  0.1996 -0.0501
 3511SOL     ow14041   2.450   6.103   6.888 -0.2564  0.4021  0.1815
 3511SOL     hw14042   2.526   6.073   6.839 -0.4961  1.2757 -0.7642
 3511SOL     hw14043   2.393   6.026   6.894 -0.8859  0.5807 -2.2258
 3511SOL     vw14044   2.452   6.089   6.882 -0.3711  0.5405 -0.2611
 3512SOL     ow14045   1.916   0.241   1.022 -0.3011  0.6777  0.0019
 3512SOL     hw14046   1.870   0.269   1.101  0.4733 -0.4861  0.8930
 3512SOL     hw14047   1.994   0.297   1.018 -1.2908  2.0481 -1.0267
 3512SOL     vw14048   1.920   0.252   1.032 -0.3294  0.7049 -0.0162
 3513SOL     ow14049   0.108   5.717   7.409 -0.4054  0.0181  0.0777
 3513SOL     hw14050   0.138   5.626   7.411  1.4946  0.4210 -3.1152
 3513SOL     hw14051   0.170   5.763   7.466  0.0175 -0.3690 -0.0592
 3513SOL     vw14052   0.120   5.711   7.417 -0.0989  0.0200 -0.3614
 3514SOL     ow14053   5.264   3.542   2.965 -0.2372 -0.2673  0.3186
 3514SOL     hw14054   5.226   3.511   3.047  0.4297 -1.0630  0.3274
 3514SOL     hw14055   5.358   3.541   2.979 -0.1712  2.5156  0.5938
 3514SOL     vw14056   5.271   3.538   2.977 -0.1404 -0.0051  0.3561
 3515SOL     ow14057   0.154   5.409   3.461  0.1989 -0.5871 -0.2303
 3515SOL     hw14058   0.165   5.318   3.436  1.4358 -0.2044 -1.1497
 3515SOL     hw14059   0.186   5.459   3.386  1.1198  0.5951  0.8983
 3515SOL     vw14060   0.160   5.404   3.448  0.4836 -0.3805 -0.2027
 3516SOL     ow14061   3.928   5.257   7.118 -0.2157  0.0044  0.0246
 3516SOL     hw14062   3.885   5.239   7.202  0.3223 -1.6151 -0.0227
 3516SOL     hw14063   3.858   5.249   7.053 -0.7451  1.7708  0.3274
 3516SOL     vw14064   3.913   5.254   7.121 -0.2146  0.0238  0.0584
 3517SOL     ow14065   3.934   6.786   6.609  0.4549 -0.0993 -0.2210
 3517SOL     hw14066   3.923   6.701   6.566 -1.9152 -0.7700  1.5492
 3517SOL     hw14067   4.021   6.780   6.651 -0.3881 -2.4565  1.4170
 3517SOL     vw14068   3.944   6.774   6.609  0.0310 -0.4990  0.2289
 3518SOL     ow14069   1.387   1.612   7.076  0.0065  0.1669 -0.0375
 3518SOL     hw14070   1.447   1.539   7.063 -0.3751 -0.3447  0.9394
 3518SOL     hw14071   1.305   1.583   7.034  0.0167  0.2616 -0.1230
 3518SOL     vw14072   1.384   1.598   7.069 -0.0425  0.1118  0.0801
 3519SOL     ow14073   7.343   6.161   1.131 -0.5230 -0.1422 -0.2508
 3519SOL     hw14074   7.419   6.202   1.172 -0.7873 -0.8376  0.9964
 3519SOL     hw14075   7.379   6.100   1.067 -0.0197 -0.5829  0.4414
 3519SOL     vw14076   7.357   6.159   1.128 -0.4916 -0.2923  0.0051
 3520SOL     ow14077   3.009   2.190   2.948 -0.2155  0.9437  0.1742
 3520SOL     hw14078   3.044   2.107   2.980 -0.6055  0.5105 -0.4977
 3520SOL     hw14079   3.076   2.223   2.887 -0.3442  0.8143 -0.0363
 3520SOL     vw14080   3.022   2.184   2.944 -0.2841  0.8694  0.0577
 3521SOL     ow14081   2.178   3.459   2.923 -0.0676 -0.4820 -0.2930
 3521SOL     hw14082   2.147   3.508   2.846 -0.8933  0.3856  0.5603
 3521SOL     hw14083   2.104   3.402   2.945  0.9091 -2.2164 -1.3163
 3521SOL     vw14084   2.164   3.458   2.915 -0.0477 -0.5963 -0.3155
 3522SOL     ow14085   0.414   4.278   1.457 -0.5626 -0.0675  0.4955
 3522SOL     hw14086   0.392   4.227   1.380  0.2792 -1.1422  0.9365
 3522SOL     hw14087   0.471   4.348   1.425 -0.3682 -0.3999  0.1056
 3522SOL     vw14088   0.419   4.281   1.443 -0.4259 -0.2530  0.5022
 3523SOL     ow14089   4.669   6.519   6.098  0.2000  0.0882 -0.3074
 3523SOL     hw14090   4.712   6.604   6.092  1.8014 -0.7328 -1.2001
 3523SOL     hw14091   4.587   6.536   6.145  1.5587  1.6885  1.5912
 3523SOL     vw14092   4.664   6.532   6.103  0.5903  0.1910 -0.1748
 3524SOL     ow14093   7.050   2.431   5.830 -0.8061 -0.1042 -0.5998
 3524SOL     hw14094   7.088   2.371   5.894 -2.1742  0.4856  0.8112
 3524SOL     hw14095   7.125   2.475   5.791  0.1144 -1.2889 -0.2353
 3524SOL     vw14096   7.065   2.429   5.833 -0.8652 -0.1826 -0.3657
 3525SOL     ow14097   1.872   3.458   4.705  1.2451 -0.0483  0.1751
 3525SOL     hw14098   1.865   3.485   4.614 -0.1793  4.2097  1.3674
 3525SOL     hw14099   1.965   3.470   4.726  1.4755 -0.5340 -0.5160
 3525SOL     vw14100   1.884   3.463   4.696  1.0876  0.4494  0.2415
 3526SOL     ow14101   2.381   2.395   0.777  0.2157 -0.4895 -0.5107
 3526SOL     hw14102   2.396   2.303   0.752  1.0290 -0.3567 -0.5407
 3526SOL     hw14103   2.383   2.394   0.873  0.8007 -0.4223 -0.5161
 3526SOL     vw14104   2.383   2.382   0.786  0.4003 -0.4631 -0.5153
 3527SOL     ow14105   0.198   2.199   3.966  0.3516  0.5488 -0.2636
 3527SOL     hw14106   0.141   2.226   3.893  2.0648 -3.0737 -3.2510
 3527SOL     hw14107   0.286   2.226   3.940  1.1710 -1.8622 -0.2471
 3527SOL     vw14108   0.202   2.206   3.953  0.6857 -0.2471 -0.6555
 3528SOL     ow14109   4.011   6.217   0.433 -0.0519 -0.0078 -0.4564
 3528SOL     hw14110   3.974   6.223   0.345  0.3310  0.4053 -0.5907
 3528SOL     hw14111   3.948   6.263   0.489  0.2818  0.7731 -0.6991
 3528SOL     vw14112   3.998   6.224   0.429  0.0429  0.1497 -0.5062
 3529SOL     ow14113   2.556   3.457   3.059 -0.0750  0.0197  0.6823
 3529SOL     hw14114   2.497   3.391   3.024 -0.1219 -0.4602  1.6515
 3529SOL     hw14115   2.518   3.540   3.032  0.3666 -0.3317 -1.1754
 3529SOL     vw14116   2.543   3.459   3.051 -0.0229 -0.0900  0.5652
 3530SOL     ow14117   7.371   5.212   4.336 -0.1729  0.0777 -0.1848
 3530SOL     hw14118   7.291   5.182   4.380 -1.1192  3.4207  0.6053
 3530SOL     hw14119   7.403   5.134   4.290 -2.8990 -1.8320  0.8875
 3530SOL     vw14120   7.365   5.198   4.336 -0.6576  0.2666  0.0610
 3531SOL     ow14121   4.930   0.918   6.081  0.7180  0.1609 -0.0327
 3531SOL     hw14122   4.941   0.956   6.169  0.6191  0.0974  0.0067
 3531SOL     hw14123   4.889   0.833   6.097 -1.8800  1.2673 -0.3012
 3531SOL     vw14124   4.926   0.912   6.095  0.3622  0.2985 -0.0629
 3532SOL     ow14125   6.927   7.056   5.535  0.3977 -0.0128  0.6014
 3532SOL     hw14126   7.021   7.042   5.534  0.4375 -0.6489  3.4120
 3532SOL     hw14127   6.891   6.980   5.489  1.2418 -0.2759  0.3633
 3532SOL     vw14128   6.934   7.044   5.529  0.5143 -0.1316  0.9410
 3533SOL     ow14129   3.832   3.266   3.065  0.0008  0.0970  0.0891
 3533SOL     hw14130   3.873   3.314   3.137  0.4946 -0.1638 -0.0198
 3533SOL     hw14131   3.893   3.196   3.044  0.6484  1.1172 -1.6716
 3533SOL     vw14132   3.845   3.263   3.072  0.1513  0.1973 -0.1576
 3534SOL     ow14133   1.958   0.651   0.449  0.2254  0.3038  0.2387
 3534SOL     hw14134   1.948   0.710   0.524 -0.1500  1.1256 -0.4386
 3534SOL     hw14135   2.038   0.681   0.405 -0.0734  0.4305 -0.2190
 3534SOL     vw14136   1.967   0.663   0.453  0.1364  0.4289  0.0890
 3535SOL     ow14137   5.052   3.602   5.455 -0.1146 -0.5033  0.1799
 3535SOL     hw14138   5.066   3.695   5.436  1.5034 -0.9298 -0.9697
 3535SOL     hw14139   5.056   3.596   5.551 -0.4751  0.6319  0.2826
 3535SOL     vw14140   5.054   3.613   5.465  0.0515 -0.4097  0.0417
 3536SOL     ow14141   1.434   6.599   4.479 -0.2531  0.4207 -0.0036
 3536SOL     hw14142   1.372   6.575   4.547 -0.5728  1.5701  0.1348
 3536SOL     hw14143   1.482   6.519   4.460 -0.5936 -0.0587  1.1197
 3536SOL     vw14144   1.432   6.586   4.485 -0.3402  0.5093  0.1628
 3537SOL     ow14145   5.167   6.712   2.835  0.2505 -0.9219 -0.3420
 3537SOL     hw14146   5.095   6.767   2.806  0.6751 -0.7081 -1.0054
 3537SOL     hw14147   5.131   6.663   2.909 -1.2999 -2.4837 -2.0226
 3537SOL     vw14148   5.153   6.713   2.841  0.1018 -1.0993 -0.6512
 3538SOL     ow14149   4.235   6.693   6.378  0.7529  0.2007  0.2480
 3538SOL     hw14150   4.308   6.638   6.349  0.8910  0.0064  0.9478
 3538SOL     hw14151   4.210   6.657   6.463 -2.1280 -1.6481 -1.2358
 3538SOL     vw14152   4.242   6.681   6.385  0.3912 -0.0687  0.1447
 3539SOL     ow14153   3.817   1.583   4.515  0.5446 -0.0094 -0.6173
 3539SOL     hw14154   3.815   1.509   4.455 -1.7570 -0.2695 -0.2772
 3539SOL     hw14155   3.775   1.655   4.467  3.9677  1.6301 -1.4951
 3539SOL     vw14156   3.811   1.583   4.501  0.6924  0.1726 -0.6881
 3540SOL     ow14157   6.983   0.464   1.487 -0.5900 -0.3184 -0.0128
 3540SOL     hw14158   6.892   0.438   1.479 -0.4215 -0.4839 -1.7814
 3540SOL     hw14159   7.013   0.477   1.397  1.4232 -1.3081  0.4287
 3540SOL     vw14160   6.975   0.462   1.474 -0.3021 -0.4708 -0.1879
 3541SOL     ow14161   6.922   2.795   0.187  0.2584 -0.3913 -0.1980
 3541SOL     hw14162   7.006   2.836   0.206  0.0204 -0.1704  0.4132
 3541SOL     hw14163   6.934   2.703   0.211  0.5624 -0.5292 -0.8604
 3541SOL     vw14164   6.934   2.789   0.193  0.2670 -0.3802 -0.2047
 3542SOL     ow14165   6.408   0.759   1.841 -0.3634 -0.1834  0.0544
 3542SOL     hw14166   6.502   0.763   1.862 -0.4223 -0.3412  0.3618
 3542SOL     hw14167   6.376   0.685   1.893  0.0222 -2.5198 -2.7435
 3542SOL     vw14168   6.416   0.749   1.851 -0.3200 -0.5125 -0.2742
 3543SOL     ow14169   0.314   3.957   1.406  0.0688  0.4510 -0.5569
 3543SOL     hw14170   0.240   3.980   1.349  0.0573 -1.6835 -1.4941
 3543SOL     hw14171   0.391   3.987   1.359 -0.1083  1.7631 -0.0546
 3543SOL     vw14172   0.314   3.964   1.393  0.0439  0.3422 -0.6142
 3544SOL     ow14173   4.249   6.569   1.949  0.2542  0.6971 -0.9342
 3544SOL     hw14174   4.339   6.582   1.921  0.5875 -2.0557 -1.3468
 3544SOL     hw14175   4.219   6.493   1.900 -1.7234  0.4914  0.4864
 3544SOL     vw14176   4.257   6.561   1.939  0.0372  0.3066 -0.8012
 3545SOL     ow14177   3.946   4.486   7.011  0.9040  0.4860 -0.4273
 3545SOL     hw14178   3.952   4.533   7.094 -1.1881  3.5269 -1.7934
 3545SOL     hw14179   4.037   4.464   6.989  1.4941 -0.4445  2.6121
 3545SOL     vw14180   3.959   4.490   7.019  0.7057  0.7644 -0.2065
 3546SOL     ow14181   2.068   6.607   1.232  0.1060  0.0781  0.1125
 3546SOL     hw14182   1.976   6.587   1.211  0.4927 -0.8479 -0.7938
 3546SOL     hw14183   2.085   6.690   1.187 -0.4966  0.6410  0.9102
 3546SOL     vw14184   2.058   6.615   1.223  0.0774  0.0305  0.0982
 3547SOL     ow14185   2.126   6.554   3.859  0.3461 -0.1566  0.2534
 3547SOL     hw14186   2.127   6.637   3.905 -1.0499 -0.5275  1.0244
 3547SOL     hw14187   2.075   6.496   3.915  0.0419 -1.1117 -0.9512
 3547SOL     vw14188   2.119   6.557   3.872  0.1218 -0.3314  0.1961
 3548SOL     ow14189   1.672   4.686   2.478 -0.1088 -0.1235  0.0422
 3548SOL     hw14190   1.689   4.771   2.520 -1.7839  0.3428 -0.1619
 3548SOL     hw14191   1.592   4.700   2.428  0.3639 -1.4505 -1.1330
 3548SOL     vw14192   1.664   4.699   2.477 -0.2674 -0.2367 -0.1398
 3549SOL     ow14193   5.760   4.300   1.780 -0.1324  0.8192  0.4109
 3549SOL     hw14194   5.835   4.281   1.837 -0.7860  0.7317  1.2535
 3549SOL     hw14195   5.728   4.385   1.810  0.3245  1.4007 -0.7119
 3549SOL     vw14196   5.766   4.309   1.792 -0.1583  0.8845  0.3740
 3550SOL     ow14197   2.205   7.310   2.234 -0.6830 -0.4237 -0.1707
 3550SOL     hw14198   2.166   7.383   2.283 -0.9739 -0.9310  0.3653
 3550SOL     hw14199   2.129   7.261   2.201 -0.5039  0.2252 -1.6306
 3550SOL     vw14200   2.190   7.313   2.236 -0.6977 -0.4048 -0.2927
 3551SOL     ow14201   4.076   2.310   2.687 -0.1068  0.4105  0.2783
 3551SOL     hw14202   4.004   2.326   2.748 -1.1534  0.1276 -0.8437
 3551SOL     hw14203   4.088   2.216   2.689 -0.2949  0.3765 -0.1072
 3551SOL     vw14204   4.068   2.300   2.695 -0.2699  0.3688  0.0794
 3552SOL     ow14205   0.782   4.915   4.462  0.3234 -0.2128  0.0765
 3552SOL     hw14206   0.772   4.993   4.517  0.3594  0.5525 -0.9756
 3552SOL     hw14207   0.738   4.938   4.380 -0.6890 -1.7423  0.1562
 3552SOL     vw14208   0.775   4.928   4.459  0.1945 -0.3135 -0.0517
 3553SOL     ow14209   4.080   4.124   2.059  0.2366 -0.7075 -0.0741
 3553SOL     hw14210   4.116   4.037   2.075  0.5432 -0.6234 -0.3017
 3553SOL     hw14211   4.056   4.156   2.146  2.6773  0.0913  0.4087
 3553SOL     vw14212   4.082   4.117   2.073  0.5989 -0.5910 -0.0405
 3554SOL     ow14213   0.505   5.628   1.538  0.6351  0.2830 -0.1928
 3554SOL     hw14214   0.523   5.579   1.458  0.7935  1.7057 -1.0690
 3554SOL     hw14215   0.591   5.643   1.577  0.4946 -1.0962  0.6923
 3554SOL     vw14216   0.518   5.624   1.533  0.6374  0.2885 -0.1916
 3555SOL     ow14217   2.345   5.345   2.049  0.3241 -0.3843  0.3688
 3555SOL     hw14218   2.372   5.375   2.136  0.1225  1.0673 -0.0446
 3555SOL     hw14219   2.277   5.280   2.067  1.3501 -1.2401  1.3181
 3555SOL     vw14220   2.340   5.340   2.063  0.4327 -0.3057  0.4395
 3556SOL     ow14221   5.502   2.026   0.101 -0.1445  0.7444 -0.2353
 3556SOL     hw14222   5.533   1.941   0.069  1.2168  0.7747  0.9138
 3556SOL     hw14223   5.448   2.060   0.030  1.2073 -0.0361 -1.6994
 3556SOL     vw14224   5.499   2.019   0.088  0.2134  0.6455 -0.2769
 3557SOL     ow14225   2.964   6.617   4.657 -0.5942  0.0267  0.0394
 3557SOL     hw14226   3.000   6.535   4.690 -0.9010  0.2496  0.9323
 3557SOL     hw14227   3.036   6.657   4.608  0.5677  0.6795  2.1567
 3557SOL     vw14228   2.978   6.612   4.655 -0.4814  0.1421  0.4363
 3558SOL     ow14229   0.424   5.643   0.036  0.1823 -0.2188 -0.3939
 3558SOL     hw14230   0.358   5.590  -0.008 -0.1245  0.9529 -1.4038
 3558SOL     hw14231   0.463   5.584   0.101 -1.9581 -0.8985  0.3692
 3558SOL     vw14232   0.420   5.628   0.039 -0.1406 -0.1540 -0.4264
 3559SOL     ow14233   5.436   0.588   0.154  0.3491 -0.4549  0.4807
 3559SOL     hw14234   5.428   0.493   0.159  2.8159 -0.7684 -0.2797
 3559SOL     hw14235   5.526   0.606   0.181  0.5090  1.4846 -1.1227
 3559SOL     vw14236   5.447   0.578   0.159  0.6957 -0.2404  0.1688
 3560SOL     ow14237   3.009   4.415   7.119  0.3519 -0.1250  0.3552
 3560SOL     hw14238   2.977   4.421   7.029  2.4010  0.1649 -0.4044
 3560SOL     hw14239   3.098   4.381   7.111  0.6291  0.0197  2.2815
 3560SOL     vw14240   3.016   4.411   7.106  0.6589 -0.0677  0.5090
 3561SOL     ow14241   5.395   2.632   0.695  0.1676  0.5750 -0.1715
 3561SOL     hw14242   5.426   2.581   0.619 -2.0914  0.4687 -1.0852
 3561SOL     hw14243   5.300   2.622   0.693  0.0275  0.7148  2.6204
 3561SOL     vw14244   5.387   2.624   0.685 -0.1490  0.5795  0.0763
 3562SOL     ow14245   3.101   2.657   6.684 -0.3324 -0.2417 -0.3894
 3562SOL     hw14246   3.024   2.702   6.649 -1.1146 -0.7708  0.6164
 3562SOL     hw14247   3.137   2.611   6.608 -0.7314  0.3947 -0.9773
 3562SOL     vw14248   3.095   2.657   6.669 -0.4882 -0.2276 -0.3343
 3563SOL     ow14249   3.799   1.170   6.705 -0.0957 -0.1483  0.1917
 3563SOL     hw14250   3.837   1.085   6.729 -1.1041 -0.0990  2.1103
 3563SOL     hw14251   3.705   1.153   6.697  0.0085  0.1204 -2.7554
 3563SOL     vw14252   3.792   1.157   6.707 -0.2152 -0.1063  0.0558
 3564SOL     ow14253   7.439   4.908   3.930 -0.3220 -0.3923  0.1235
 3564SOL     hw14254   7.467   4.819   3.910 -0.0277 -0.0830 -0.8606
 3564SOL     hw14255   7.438   4.911   4.026 -1.4067 -1.7808  0.1945
 3564SOL     vw14256   7.443   4.897   3.940 -0.4263 -0.5348  0.0030
 3565SOL     ow14257   7.190   6.485   7.135 -0.5727  0.2779  0.4050
 3565SOL     hw14258   7.119   6.428   7.162  0.0045 -0.5550  0.2035
 3565SOL     hw14259   7.194   6.475   7.040  0.5246 -0.5466  0.5259
 3565SOL     vw14260   7.181   6.476   7.126 -0.3514  0.0594  0.3943
 3566SOL     ow14261   7.395   3.027   5.344  0.2404 -0.2248  0.0221
 3566SOL     hw14262   7.310   3.049   5.379  0.5557 -1.3225  1.5833
 3566SOL     hw14263   7.389   3.047   5.250 -1.1365  1.3197  0.4147
 3566SOL     vw14264   7.383   3.032   5.336  0.1004 -0.1657  0.2799
 3567SOL     ow14265   3.546   4.802   6.103  0.3295 -0.3731 -0.3481
 3567SOL     hw14266   3.456   4.830   6.092  1.3275  2.2171 -3.7178
 3567SOL     hw14267   3.570   4.763   6.019  2.6922  0.2335 -0.0500
 3567SOL     vw14268   3.537   4.801   6.091  0.7730  0.0486 -0.7534
 3568SOL     ow14269   1.619   5.182   4.212 -0.6573 -0.3110 -0.0243
 3568SOL     hw14270   1.655   5.254   4.264 -1.6811 -1.0487  1.7688
 3568SOL     hw14271   1.683   5.111   4.221  0.2893  0.2678 -1.6903
 3568SOL     vw14272   1.632   5.182   4.220 -0.6675 -0.3321 -0.0074
 3569SOL     ow14273   6.200   4.345   1.268  0.4886  0.7772  0.8696
 3569SOL     hw14274   6.122   4.335   1.214  0.2868 -2.3396  1.5637
 3569SOL     hw14275   6.168   4.375   1.353  0.3467  1.7740  0.4720
 3569SOL     vw14276   6.185   4.347   1.272  0.4432  0.4976  0.9088
 3570SOL     ow14277   3.561   1.564   1.699  0.2873  0.1636  0.1106
 3570SOL     hw14278   3.637   1.511   1.723 -0.5791 -1.3238 -0.3017
 3570SOL     hw14279   3.503   1.558   1.774  0.4215  1.0349  0.2966
 3570SOL     vw14280   3.564   1.556   1.712  0.1907  0.0823  0.0808
 3571SOL     ow14281   4.280   2.829   2.709  0.7096  0.1417  0.0681
 3571SOL     hw14282   4.338   2.828   2.784 -0.6029 -1.6081  1.1410
 3571SOL     hw14283   4.337   2.850   2.635  2.5460 -0.7067  1.1700
 3571SOL     vw14284   4.295   2.832   2.709  0.7784 -0.2010  0.3550
 3572SOL     ow14285   7.451   6.038   0.919  0.2632 -0.3051  0.1737
 3572SOL     hw14286   7.428   6.104   0.854 -1.0750 -0.4270  0.4930
 3572SOL     hw14287   7.537   6.064   0.950 -0.7497  2.0797  1.2119
 3572SOL     vw14288   7.459   6.050   0.915 -0.0472 -0.0064  0.3528
 3573SOL     ow14289   2.449   5.127   3.098  0.0339 -0.3535  0.3951
 3573SOL     hw14290   2.364   5.154   3.063  0.7148 -0.9974 -1.9990
 3573SOL     hw14291   2.511   5.191   3.061  0.7071 -0.4221  1.3717
 3573SOL     vw14292   2.446   5.139   3.088  0.2124 -0.4473  0.2081
 3574SOL     ow14293   4.270   7.436   5.743  0.8354 -0.0268  0.3334
 3574SOL     hw14294   4.363   7.426   5.724  0.5633  0.5903 -1.4938
 3574SOL     hw14295   4.226   7.405   5.665 -0.3950  1.9825  0.1475
 3574SOL     vw14296   4.277   7.431   5.730  0.6371  0.3200  0.0677
 3575SOL     ow14297   0.369   4.218   5.109  0.0152 -0.5785  0.0231
 3575SOL     hw14298   0.392   4.235   5.200  1.2974 -1.3246 -0.1382
 3575SOL     hw14299   0.433   4.269   5.059  0.2191 -1.2833 -0.4460
 3575SOL     vw14300   0.381   4.227   5.114  0.2113 -0.7699 -0.0601
 3576SOL     ow14301   5.606   5.010   7.425 -0.3079 -0.4495 -0.2050
 3576SOL     hw14302   5.513   4.992   7.438 -0.1985 -1.0614 -0.2319
 3576SOL     hw14303   5.615   5.104   7.437 -0.7188 -0.5626  1.0685
 3576SOL     vw14304   5.595   5.020   7.428 -0.3476 -0.5450 -0.0405
 3577SOL     ow14305   1.942   3.674   0.958  0.1056  0.2544  0.1186
 3577SOL     hw14306   1.888   3.602   0.989  0.3689  0.3865  0.8972
 3577SOL     hw14307   1.887   3.752   0.967 -0.8385 -0.0248 -2.3842
 3577SOL     vw14308   1.928   3.675   0.963  0.0158  0.2348 -0.1089
 3578SOL     ow14309   0.623   2.860   3.721  0.2915 -0.8483 -0.5967
 3578SOL     hw14310   0.674   2.806   3.661  0.0764 -0.0424 -1.5258
 3578SOL     hw14311   0.605   2.941   3.672  0.1507 -0.1484  0.5612
 3578SOL     vw14312   0.628   2.864   3.707  0.2445 -0.6497 -0.5665
 3579SOL     ow14313   0.221   3.645   5.098  0.0800 -0.1997  0.1901
 3579SOL     hw14314   0.277   3.584   5.050  3.7074  3.9054 -1.4582
 3579SOL     hw14315   0.269   3.664   5.179  0.4272  2.2143 -0.5018
 3579SOL     vw14316   0.235   3.639   5.102  0.6044  0.6605 -0.1187
 3580SOL     ow14317   6.891   0.313   4.448  0.5429  0.0195  0.0545
 3580SOL     hw14318   6.968   0.322   4.393  0.8482 -0.4021  0.4024
 3580SOL     hw14319   6.871   0.219   4.446 -0.7653  0.2900 -1.1081
 3580SOL     vw14320   6.899   0.302   4.441  0.4106 -0.0005 -0.0532
 3581SOL     ow14321   0.210   3.461   1.386 -0.0710  0.1724 -0.2289
 3581SOL     hw14322   0.118   3.456   1.413  0.1977  0.7589  0.8440
 3581SOL     hw14323   0.209   3.439   1.293 -1.3981  0.9217 -0.4143
 3581SOL     vw14324   0.198   3.458   1.377 -0.2107  0.3486 -0.1117
 3582SOL     ow14325   0.012   5.810   4.142  0.0392 -0.0119  0.5141
 3582SOL     hw14326  -0.006   5.745   4.074 -1.9705  1.1332 -0.1405
 3582SOL     hw14327   0.044   5.759   4.216 -1.1252 -1.7241 -0.1047
 3582SOL     vw14328   0.013   5.795   4.143 -0.3796 -0.0868  0.3459
 3583SOL     ow14329   4.446   6.547   2.297  0.2188 -0.2563 -1.1429
 3583SOL     hw14330   4.368   6.572   2.247  0.9892  0.1541 -2.1728
 3583SOL     hw14331   4.513   6.609   2.269  0.3140  0.9560  1.5037
 3583SOL     vw14332   4.444   6.558   2.286  0.3328 -0.0422 -0.9296
 3584SOL     ow14333   2.393   5.086   1.625  0.9749 -0.0452  0.3754
 3584SOL     hw14334   2.486   5.067   1.639  0.7506  0.2524  2.7920
 3584SOL     hw14335   2.379   5.169   1.672 -0.3479  0.3269 -0.6344
 3584SOL     vw14336   2.403   5.095   1.633  0.7706  0.0434  0.5611
 3585SOL     ow14337   0.891   0.898   2.531  0.2001 -0.3644 -0.0642
 3585SOL     hw14338   0.871   0.843   2.607  0.4807 -0.3872 -0.0055
 3585SOL     hw14339   0.869   0.987   2.559 -1.8139 -0.6141 -0.7046
 3585SOL     vw14340   0.885   0.903   2.545 -0.0286 -0.4004 -0.1410
 3586SOL     ow14341   1.099   6.071   3.494 -0.2538  0.7177 -0.6405
 3586SOL     hw14342   1.194   6.063   3.487 -0.1482  0.7690  0.4984
 3586SOL     hw14343   1.084   6.162   3.518 -0.7878  1.4140 -3.3217
 3586SOL     vw14344   1.109   6.082   3.496 -0.3103  0.8161 -0.8441
 3587SOL     ow14345   0.476   4.617   7.464 -0.9028  0.0169 -0.5474
 3587SOL     hw14346   0.532   4.540   7.456 -0.5877  0.0454  1.1171
 3587SOL     hw14347   0.387   4.583   7.458 -0.7600 -0.4337 -0.1167
 3587SOL     vw14348   0.472   4.603   7.462 -0.8423 -0.0386 -0.2711
 3588SOL     ow14349   2.410   1.178   5.704  0.4857  0.1560 -0.6243
 3588SOL     hw14350   2.409   1.083   5.713  1.0582  0.1853 -0.1730
 3588SOL     hw14351   2.323   1.206   5.733 -0.3120 -0.3455 -2.3815
 3588SOL     vw14352   2.398   1.169   5.709  0.4560  0.0937 -0.7968
 3589SOL     ow14353   5.669   4.542   1.871  0.1376 -0.9625  0.5463
 3589SOL     hw14354   5.616   4.554   1.792  0.2250 -2.6890  0.2002
 3589SOL     hw14355   5.615   4.581   1.941 -1.3019 -2.0275  0.0910
 3589SOL     vw14356   5.655   4.549   1.870 -0.0408 -1.3309  0.4406
 3590SOL     ow14357   5.152   0.219   2.906 -0.3342  0.6010  0.1550
 3590SOL     hw14358   5.090   0.235   2.977 -0.8590  0.2036 -0.2046
 3590SOL     hw14359   5.109   0.153   2.851  0.2488  0.5920 -0.2995
 3590SOL     vw14360   5.138   0.212   2.908 -0.3264  0.5474  0.0476
 3591SOL     ow14361   5.181   4.270   2.712 -0.5770  0.0495 -0.0209
 3591SOL     hw14362   5.219   4.351   2.679 -0.3736 -0.7511 -1.8745
 3591SOL     hw14363   5.157   4.220   2.633 -0.8687 -1.6080  1.0545
 3591SOL     vw14364   5.183   4.274   2.697 -0.5891 -0.2747 -0.1236
 3592SOL     ow14365   6.613   7.039   0.096  0.3404 -0.0619 -0.0260
 3592SOL     hw14366   6.665   6.976   0.047 -0.1764  0.9813 -2.0183
 3592SOL     hw14367   6.526   6.999   0.101  0.5392 -0.4322  0.5968
 3592SOL     vw14368   6.608   7.025   0.090  0.2985  0.0267 -0.2066
 3593SOL     ow14369   2.559   4.567   1.690 -0.2100  0.3955  0.7292
 3593SOL     hw14370   2.472   4.605   1.673 -0.2439  0.3360  0.7726
 3593SOL     hw14371   2.620   4.627   1.646 -0.3323 -0.0704 -0.1074
 3593SOL     vw14372   2.555   4.580   1.682 -0.2306  0.3259  0.6246
 3594SOL     ow14373   0.465   4.910   5.264 -0.5068  0.1788 -0.1875
 3594SOL     hw14374   0.548   4.956   5.279 -0.5932  0.2588  0.0457
 3594SOL     hw14375   0.455   4.911   5.168  0.5402 -1.2222 -0.3422
 3594SOL     vw14376   0.475   4.916   5.253 -0.3801  0.0045 -0.1769
 3595SOL     ow14377   1.843   2.655   1.837 -0.5586 -0.8184  0.0518
 3595SOL     hw14378   1.892   2.736   1.851  0.1314 -1.2654  0.3025
 3595SOL     hw14379   1.889   2.613   1.764 -1.5667 -0.4857 -0.7967
 3595SOL     vw14380   1.856   2.660   1.829 -0.6005 -0.8335 -0.0271
 3596SOL     ow14381   5.628   4.812   4.170 -0.0045  0.7587  0.3193
 3596SOL     hw14382   5.684   4.827   4.246  2.7020  0.5101 -1.4749
 3596SOL     hw14383   5.556   4.875   4.180  1.5578  2.4046  1.8535
 3596SOL     vw14384   5.626   4.822   4.181  0.5589  0.9434  0.2851
 3597SOL     ow14385   1.847   3.370   1.686 -0.1749  0.3478 -0.4384
 3597SOL     hw14386   1.915   3.302   1.692 -0.6578 -0.1825 -0.8693
 3597SOL     hw14387   1.769   3.323   1.657 -0.3765  1.1819 -1.2868
 3597SOL     vw14388   1.846   3.354   1.683 -0.2652  0.3879 -0.6071
 3598SOL     ow14389   1.525   3.413   2.146  0.4654  0.7672  0.5533
 3598SOL     hw14390   1.491   3.447   2.063 -1.5615  1.3684  1.5456
 3598SOL     hw14391   1.533   3.490   2.202  2.6264  0.4901  0.6999
 3598SOL     vw14392   1.521   3.428   2.142  0.4832  0.8099  0.7035
 3599SOL     ow14393   6.567   6.615   3.503 -0.9406 -0.6814 -0.0138
 3599SOL     hw14394   6.547   6.700   3.543  2.1468 -0.4725  1.4239
 3599SOL     hw14395   6.506   6.554   3.545 -1.7100  0.4605  0.5997
 3599SOL     vw14396   6.556   6.618   3.514 -0.6349 -0.5035  0.2570
 3600SOL     ow14397   6.212   0.988   1.763  0.0310  0.0300 -0.0952
 3600SOL     hw14398   6.249   1.073   1.785  0.7277 -0.4866  0.8226
 3600SOL     hw14399   6.165   0.961   1.841  0.8924 -0.9801  0.0990
 3600SOL     vw14400   6.211   0.996   1.776  0.2360 -0.1715  0.0515
 3601SOL     ow14401   0.724   5.837   0.663  0.1213  0.6983  0.1544
 3601SOL     hw14402   0.661   5.886   0.611 -0.3794  1.0018  1.0377
 3601SOL     hw14403   0.683   5.752   0.677 -0.1905  0.9638  0.8972
 3601SOL     vw14404   0.710   5.832   0.658  0.0141  0.7734  0.3690
 3602SOL     ow14405   6.020   6.257   0.680  0.2575  0.4752 -0.6862
 3602SOL     hw14406   6.094   6.316   0.696  0.1086  0.1865  1.3077
 3602SOL     hw14407   6.058   6.169   0.682 -0.1637  0.2824  0.9997
 3602SOL     vw14408   6.035   6.253   0.683  0.1819  0.4117 -0.2006
 3603SOL     ow14409   7.183   7.006   5.574  0.0281 -0.1043 -0.4017
 3603SOL     hw14410   7.251   7.072   5.581 -1.1082  1.0733  0.0734
 3603SOL     hw14411   7.229   6.922   5.577  1.4069  0.6532  0.1337
 3603SOL     vw14412   7.198   7.003   5.575  0.0603  0.1514 -0.2682
 3604SOL     ow14413   6.987   3.946   3.114  0.7217 -0.4265 -0.4437
 3604SOL     hw14414   6.968   4.034   3.082 -0.2433 -0.0789  0.9877
 3604SOL     hw14415   6.957   3.947   3.205  1.4626 -1.9879 -0.1568
 3604SOL     vw14416   6.981   3.958   3.122  0.6919 -0.5867 -0.2168
 3605SOL     ow14417   0.977   0.871   1.133  0.1175  0.6114  0.2225
 3605SOL     hw14418   1.050   0.839   1.081  0.6172 -0.0589  1.2866
 3605SOL     hw14419   1.017   0.898   1.216 -0.9054 -0.4665  1.1144
 3605SOL     vw14420   0.992   0.870   1.137  0.0485  0.3808  0.4806
 3606SOL     ow14421   5.969   2.202   2.403  0.4014 -0.2471  0.3661
 3606SOL     hw14422   5.894   2.193   2.461 -0.2668 -0.3703 -0.4954
 3606SOL     hw14423   5.956   2.134   2.336 -0.1273  1.3939 -1.2828
 3606SOL     vw14424   5.957   2.191   2.401  0.2434 -0.0468  0.0348
 3607SOL     ow14425   4.644   4.828   4.194 -0.2056  0.2611  0.4535
 3607SOL     hw14426   4.582   4.889   4.233 -1.0834 -0.1828 -0.2044
 3607SOL     hw14427   4.717   4.882   4.164 -0.7637  0.9229  0.2803
 3607SOL     vw14428   4.645   4.843   4.195 -0.3948  0.2897  0.3438
 3608SOL     ow14429   4.210   0.308   2.215  0.3241 -0.2734 -0.1624
 3608SOL     hw14430   4.170   0.238   2.267 -0.6004 -1.3453 -2.2145
 3608SOL     hw14431   4.303   0.305   2.240  0.3433 -2.3521 -0.2922
 3608SOL     vw14432   4.217   0.299   2.225  0.2043 -0.6890 -0.4503
 3609SOL     ow14433   3.315   6.033   1.852  0.2786  0.6904  0.7001
 3609SOL     hw14434   3.297   6.111   1.800  1.9339 -0.4388 -1.7569
 3609SOL     hw14435   3.288   5.960   1.796  0.7252 -0.5747  2.0608
 3609SOL     vw14436   3.309   6.033   1.838  0.5560  0.3743  0.5555
 3610SOL     ow14437   5.035   4.338   0.505 -0.2657 -0.5006  0.4284
 3610SOL     hw14438   5.002   4.405   0.565 -0.0810 -0.5525  0.5907
 3610SOL     hw14439   5.089   4.386   0.442  0.1649 -0.5385  0.7618
 3610SOL     vw14440   5.038   4.353   0.505 -0.1845 -0.5126  0.4938
 3611SOL     ow14441   6.262   0.585   3.449  0.1872  0.2014 -0.2115
 3611SOL     hw14442   6.262   0.489   3.458  0.1122  0.0441 -1.7014
 3611SOL     hw14443   6.171   0.607   3.430  0.5862  0.2755 -2.3029
 3611SOL     vw14444   6.250   0.575   3.448  0.2296  0.1904 -0.6840
 3612SOL     ow14445   3.761   2.412   3.544  0.2921 -0.0558 -0.4960
 3612SOL     hw14446   3.707   2.333   3.535 -0.1878  0.2424 -0.3035
 3612SOL     hw14447   3.830   2.387   3.605  0.4385 -0.4798 -0.8366
 3612SOL     vw14448   3.763   2.398   3.551  0.2481 -0.0724 -0.5155
 3613SOL     ow14449   0.228   6.236   1.835  0.0038  0.2722 -0.1490
 3613SOL     hw14450   0.158   6.196   1.784  0.0888  1.4782 -1.2714
 3613SOL     hw14451   0.284   6.278   1.769  0.3727  1.4935  0.9109
 3613SOL     vw14452   0.226   6.236   1.820  0.0637  0.5925 -0.1573
 3614SOL     ow14453   4.018   3.779   2.315  0.0035 -0.6215 -0.5469
 3614SOL     hw14454   4.056   3.802   2.230 -1.0044 -0.2720 -0.9180
 3614SOL     hw14455   3.988   3.862   2.352 -1.7844 -1.0168 -0.9714
 3614SOL     vw14456   4.019   3.793   2.309 -0.3653 -0.6274 -0.6520
 3615SOL     ow14457   1.014   3.067   3.406  0.1243  0.6612 -0.7184
 3615SOL     hw14458   1.020   3.109   3.320  0.7841 -1.6461 -1.8826
 3615SOL     hw14459   0.965   2.986   3.389  0.3960  0.0935  1.0692
 3615SOL     vw14460   1.008   3.061   3.392  0.2472  0.2818 -0.6360
 3616SOL     ow14461   5.765   4.648   0.393 -0.0077  0.1958 -0.4061
 3616SOL     hw14462   5.818   4.589   0.340 -0.9632 -0.7827 -0.3085
 3616SOL     hw14463   5.807   4.647   0.479  0.7344  0.6969 -0.7493
 3616SOL     vw14464   5.778   4.640   0.397 -0.0358  0.1328 -0.4385
 3617SOL     ow14465   6.086   1.865   1.614  0.1516  0.2428  0.0577
 3617SOL     hw14466   5.997   1.831   1.604  0.0945 -0.0259  1.3597
 3617SOL     hw14467   6.075   1.956   1.639  0.2587  0.2985 -0.0923
 3617SOL     vw14468   6.073   1.872   1.616  0.1581  0.2146  0.2096
 3618SOL     ow14469   5.098   3.868   1.257 -0.1836 -0.6516 -0.3919
 3618SOL     hw14470   5.106   3.842   1.165 -0.9647 -0.2457 -0.5891
 3618SOL     hw14471   5.039   3.944   1.255 -0.1834 -0.6190  0.4434
 3618SOL     vw14472   5.091   3.875   1.245 -0.2868 -0.5937 -0.3077
 3619SOL     ow14473   6.832   6.135   0.350 -0.3585  0.2859 -0.2337
 3619SOL     hw14474   6.769   6.184   0.403  1.8276  2.4833  0.5574
 3619SOL     hw14475   6.861   6.064   0.406  0.3807  1.3407  0.7636
 3619SOL     vw14476   6.828   6.132   0.364  0.0274  0.7148  0.0022
 3620SOL     ow14477   4.142   4.137   0.021 -0.3144 -0.4848  0.5588
 3620SOL     hw14478   4.168   4.051   0.053 -1.0504 -0.4040  1.3979
 3620SOL     hw14479   4.056   4.153   0.061 -0.4524  0.3844 -0.0558
 3620SOL     vw14480   4.134   4.128   0.030 -0.4299 -0.3595  0.5884
 3621SOL     ow14481   0.907   4.773   1.130  0.4163  0.6142 -0.3058
 3621SOL     hw14482   0.863   4.836   1.073 -0.9021 -1.7608 -2.0319
 3621SOL     hw14483   0.864   4.690   1.113  3.1311 -1.1274  0.7368
 3621SOL     vw14484   0.896   4.770   1.120  0.6005  0.0713 -0.3960
 3622SOL     ow14485   6.184   0.384   6.789 -0.0970  0.0744  0.1492
 3622SOL     hw14486   6.116   0.386   6.721  0.6941 -1.7256 -0.7605
 3622SOL     hw14487   6.192   0.292   6.812  0.0991  0.5874  2.2874
 3622SOL     vw14488   6.176   0.372   6.783  0.0331 -0.0954  0.3114
 3623SOL     ow14489   3.949   6.013   0.657  0.8158 -0.4266  0.4474
 3623SOL     hw14490   3.861   6.050   0.653  1.6910  1.7383  0.2760
 3623SOL     hw14491   3.976   6.025   0.748  0.6047 -2.0450  0.7698
 3623SOL     vw14492   3.941   6.019   0.668  0.9035 -0.3545  0.4673
 3624SOL     ow14493   6.327   4.484   2.105 -0.5805 -0.1781  0.1732
 3624SOL     hw14494   6.330   4.562   2.050  0.6311 -0.5827 -0.3724
 3624SOL     hw14495   6.246   4.440   2.079  0.6776 -1.1465 -2.4612
 3624SOL     vw14496   6.317   4.488   2.094 -0.2542 -0.3593 -0.2463
 3625SOL     ow14497   5.864   1.330   1.606 -0.4714 -0.4829  0.0619
 3625SOL     hw14498   5.780   1.349   1.648  0.4754  2.9093  0.6985
 3625SOL     hw14499   5.867   1.390   1.531  0.9618 -1.3085 -0.5885
 3625SOL     vw14500   5.853   1.341   1.601 -0.1571 -0.1443  0.0601
 3626SOL     ow14501   5.184   4.077   2.473 -0.1018  0.3154 -0.3769
 3626SOL     hw14502   5.235   4.140   2.422  1.9707 -1.6735 -0.9492
 3626SOL     hw14503   5.247   4.009   2.497 -2.0386 -1.1485  0.8912
 3626SOL     vw14504   5.199   4.076   2.469 -0.0842 -0.1402 -0.2851
 3627SOL     ow14505   6.951   1.633   6.063 -0.3899 -0.4787 -0.0251
 3627SOL     hw14506   7.005   1.683   6.001 -0.8649 -1.1300 -0.9889
 3627SOL     hw14507   6.894   1.699   6.103 -0.3474 -0.1065 -0.5658
 3627SOL     vw14508   6.951   1.648   6.060 -0.4468 -0.5155 -0.2236
 3628SOL     ow14509   0.430   7.430   0.088 -0.2020 -0.4245  0.0388
 3628SOL     hw14510   0.417   7.404  -0.003 -0.1554  4.1443 -1.5270
 3628SOL     hw14511   0.519   7.403   0.109  0.0449 -0.9240 -1.5360
 3628SOL     vw14512   0.440   7.423   0.079 -0.1633  0.1125 -0.3756
 3629SOL     ow14513   6.161   1.397   4.675  0.2415 -0.2340 -0.4505
 3629SOL     hw14514   6.238   1.377   4.621 -0.1421 -1.4304 -0.5731
 3629SOL     hw14515   6.097   1.331   4.650 -0.6327  0.4088  0.0703
 3629SOL     vw14516   6.163   1.386   4.664  0.0753 -0.3070 -0.3979
 3630SOL     ow14517   2.479   2.481   0.549  0.6450  0.0320  1.0343
 3630SOL     hw14518   2.557   2.430   0.526  1.0042  0.8523  0.3624
 3630SOL     hw14519   2.458   2.454   0.638  0.8619 -1.2274  0.7161
 3630SOL     vw14520   2.487   2.471   0.557  0.7210 -0.0260  0.9037
 3631SOL     ow14521   6.138   0.286   2.073  0.3968 -0.2914  0.1285
 3631SOL     hw14522   6.162   0.193   2.074  0.8876 -0.1855  1.5834
 3631SOL     hw14523   6.053   0.289   2.117 -0.4412 -0.2230 -1.4522
 3631SOL     vw14524   6.130   0.274   2.079  0.3510 -0.2684  0.1118
 3632SOL     ow14525   0.288   3.669   0.948  0.5505 -0.0778 -0.1079
 3632SOL     hw14526   0.371   3.671   0.996  0.9483 -0.2601 -0.7791
 3632SOL     hw14527   0.231   3.614   1.002  0.1938  1.6805  1.4029
 3632SOL     vw14528   0.292   3.662   0.962  0.5559  0.1302  0.0030
 3633SOL     ow14529   6.702   5.435   6.143  0.0209 -0.1275 -0.2293
 3633SOL     hw14530   6.736   5.346   6.149  0.7000  0.1652  0.3723
 3633SOL     hw14531   6.671   5.443   6.053 -0.2384 -1.0355 -0.2308
 3633SOL     vw14532   6.702   5.424   6.132  0.0761 -0.2086 -0.1500
 3634SOL     ow14533   0.236   3.073   5.102  0.1366 -0.0302 -0.1190
 3634SOL     hw14534   0.191   3.056   5.019 -1.3777  3.1828 -0.0808
 3634SOL     hw14535   0.175   3.126   5.153  3.6095  4.5484  0.0027
 3634SOL     vw14536   0.222   3.078   5.098  0.3950  0.9979 -0.0980
 3635SOL     ow14537   7.353   6.396   0.111 -0.3295  0.3535  0.2486
 3635SOL     hw14538   7.267   6.414   0.071 -0.4614  2.3127  1.2729
 3635SOL     hw14539   7.351   6.445   0.193  1.4251 -0.3752  0.7594
 3635SOL     vw14540   7.341   6.405   0.116 -0.1154  0.5159  0.4511
 3636SOL     ow14541   5.489   4.747   3.895 -0.2192  0.8812  0.3139
 3636SOL     hw14542   5.503   4.715   3.806  0.2687 -0.0231  0.7079
 3636SOL     hw14543   5.425   4.817   3.885 -0.8572  0.1828 -0.6396
 3636SOL     vw14544   5.483   4.752   3.882 -0.2389  0.6697  0.2400
 3637SOL     ow14545   4.531   6.275   5.671  0.2155  0.8618  0.0813
 3637SOL     hw14546   4.483   6.237   5.597  1.3175 -4.5623  1.7152
 3637SOL     hw14547   4.613   6.306   5.633 -0.5822  1.2421 -1.3893
 3637SOL     vw14548   4.536   6.274   5.656  0.2553  0.1962  0.1030
 3638SOL     ow14549   3.926   6.008   3.901  0.3372  0.0409 -0.3867
 3638SOL     hw14550   3.948   6.100   3.913 -0.9529  0.2543  0.6209
 3638SOL     hw14551   3.882   6.004   3.815 -0.7743  0.6251  0.1321
 3638SOL     vw14552   3.923   6.019   3.891  0.0203  0.1464 -0.1854
 3639SOL     ow14553   7.401   1.882   3.804  0.3403 -0.8413 -0.1517
 3639SOL     hw14554   7.366   1.964   3.839 -0.1554 -0.3653 -1.6578
 3639SOL     hw14555   7.490   1.877   3.838 -0.2496 -0.6405  1.4803
 3639SOL     vw14556   7.408   1.892   3.813  0.1972 -0.7520 -0.1351
 3640SOL     ow14557   0.320   4.421   0.878 -0.0960  0.2643  0.2437
 3640SOL     hw14558   0.286   4.468   0.954 -0.0571  0.7267 -0.0173
 3640SOL     hw14559   0.298   4.478   0.804  1.3473  0.6445  0.0740
 3640SOL     vw14560   0.313   4.435   0.878  0.0996  0.3757  0.1868
 3641SOL     ow14561   5.492   2.411   4.848 -0.5717  0.1690  0.2305
 3641SOL     hw14562   5.425   2.476   4.828  1.7113  2.3171 -0.9726
 3641SOL     hw14563   5.540   2.447   4.923  0.1789 -0.5551  0.1198
 3641SOL     vw14564   5.490   2.424   4.855 -0.1717  0.3569  0.0572
 3642SOL     ow14565   6.358   4.623   2.316  0.2858 -0.0371  0.1454
 3642SOL     hw14566   6.360   4.557   2.247  1.0510 -0.8267  0.9143
 3642SOL     hw14567   6.311   4.697   2.276  0.9890 -0.3463 -1.3282
 3642SOL     vw14568   6.352   4.624   2.302  0.4795 -0.1819  0.0525
 3643SOL     ow14569   2.321   5.429   2.301  0.3769 -0.1298  0.4507
 3643SOL     hw14570   2.276   5.385   2.373 -0.1223 -0.9667 -0.3705
 3643SOL     hw14571   2.346   5.514   2.338 -0.4258 -0.2968  1.4213
 3643SOL     vw14572   2.319   5.435   2.316  0.2050 -0.2623  0.4704
 3644SOL     ow14573   0.797   3.407   3.793  0.4596 -0.3848  0.1859
 3644SOL     hw14574   0.822   3.348   3.722 -0.1567 -0.7126  0.2362
 3644SOL     hw14575   0.827   3.363   3.872  1.5118  0.1681  0.1227
 3644SOL     vw14576   0.804   3.394   3.794  0.5171 -0.3552  0.1841
 3645SOL     ow14577   7.280   5.818   0.661  0.0763 -0.4307  0.4539
 3645SOL     hw14578   7.277   5.912   0.646  1.9026 -0.3916  0.0981
 3645SOL     hw14579   7.290   5.810   0.756 -2.2492 -0.3741  0.7473
 3645SOL     vw14580   7.281   5.829   0.672  0.0105 -0.4179  0.4457
 3646SOL     ow14581   1.901   7.424   0.936  0.1359 -1.2479 -0.2585
 3646SOL     hw14582   1.884   7.364   1.009 -0.3457  0.2959  0.9362
 3646SOL     hw14583   1.895   7.368   0.858 -0.4338 -2.7264  0.7927
 3646SOL     vw14584   1.898   7.408   0.935 -0.0028 -1.2395  0.0378
 3647SOL     ow14585   5.814   1.748   2.677 -0.5973  0.1099 -0.1969
 3647SOL     hw14586   5.725   1.749   2.639 -0.3844 -0.3387 -0.7181
 3647SOL     hw14587   5.865   1.802   2.616  0.1534 -2.0477 -1.5943
 3647SOL     vw14588   5.809   1.756   2.664 -0.4704 -0.2340 -0.4501
 3648SOL     ow14589   2.560   0.924   5.213  0.4429 -0.0727 -0.1221
 3648SOL     hw14590   2.637   0.876   5.243  0.2172 -0.6443 -0.4394
 3648SOL     hw14591   2.494   0.909   5.281  0.0957 -0.9460 -0.6271
 3648SOL     vw14592   2.561   0.916   5.226  0.3672 -0.2633 -0.2308
 3649SOL     ow14593   5.421   7.163   3.478 -0.1857 -0.3981 -0.3797
 3649SOL     hw14594   5.333   7.174   3.514  0.7064  0.1645  1.7643
 3649SOL     hw14595   5.437   7.243   3.428 -0.1644  0.3723  0.8487
 3649SOL     vw14596   5.411   7.175   3.476 -0.0656 -0.2222  0.0653
 3650SOL     ow14597   0.433   6.669   6.681  0.1987  0.4140  0.0376
 3650SOL     hw14598   0.439   6.740   6.744 -0.5860  0.1228  0.4655
 3650SOL     hw14599   0.516   6.623   6.688  0.3604  0.7558  0.4088
 3650SOL     vw14600   0.445   6.672   6.690  0.1165  0.4206  0.1431
 3651SOL     ow14601   4.335   4.575   2.086 -0.0945  0.1526 -0.0490
 3651SOL     hw14602   4.307   4.531   2.166 -1.9549  0.7051 -0.3348
 3651SOL     hw14603   4.423   4.608   2.106 -0.5702  0.4218  1.8183
 3651SOL     vw14604   4.343   4.573   2.099 -0.4027  0.2613  0.1596
 3652SOL     ow14605   1.466   5.247   2.937  0.0915 -0.2846  0.3075
 3652SOL     hw14606   1.532   5.260   3.005  0.0672  2.3589 -0.0830
 3652SOL     hw14607   1.516   5.211   2.863  1.1735  1.6934  0.0075
 3652SOL     vw14608   1.482   5.244   2.936  0.2310  0.3252  0.2164
 3653SOL     ow14609   6.224   5.436   6.895  0.4869 -0.5123 -0.2465
 3653SOL     hw14610   6.253   5.354   6.854 -3.3162  0.0439 -4.8436
 3653SOL     hw14611   6.162   5.408   6.963  3.0530 -1.3204  1.9736
 3653SOL     vw14612   6.220   5.421   6.899  0.3235 -0.5457 -0.5600
 3654SOL     ow14613   3.057   5.339   4.749 -0.5474  0.6319  0.5963
 3654SOL     hw14614   3.120   5.411   4.760 -1.7655  1.8891 -0.3130
 3654SOL     hw14615   3.101   5.276   4.692  0.3885  0.8353  1.0754
 3654SOL     vw14616   3.071   5.340   4.743 -0.5847  0.8245  0.5395
 3655SOL     ow14617   4.148   1.827   6.071 -0.4417 -0.8450  0.6318
 3655SOL     hw14618   4.243   1.821   6.060 -0.4029 -0.1735  0.5638
 3655SOL     hw14619   4.134   1.820   6.165 -0.2189  0.2907  0.7630
 3655SOL     vw14620   4.159   1.825   6.082 -0.4072 -0.6066  0.6402
 3656SOL     ow14621   6.736   6.188   6.051  0.0504  0.0670 -0.8000
 3656SOL     hw14622   6.798   6.116   6.049  1.7063  1.4155 -0.4637
 3656SOL     hw14623   6.667   6.162   5.990  0.8510 -1.5533 -1.0728
 3656SOL     vw14624   6.735   6.175   6.042  0.3746  0.0312 -0.7915
 3657SOL     ow14625   7.091   3.494   4.948 -0.1925  0.2901 -0.0103
 3657SOL     hw14626   7.079   3.407   4.910 -1.7955  1.0582 -1.4389
 3657SOL     hw14627   7.008   3.512   4.992 -0.2718  1.4578 -0.5942
 3657SOL     vw14628   7.078   3.485   4.949 -0.4144  0.5454 -0.2759
 3658SOL     ow14629   4.821   6.346   6.993 -0.4695  0.3220  0.0308
 3658SOL     hw14630   4.811   6.268   7.048 -0.4489  0.9659  0.9566
 3658SOL     hw14631   4.759   6.409   7.029 -2.2019 -0.0050 -2.1399
 3658SOL     vw14632   4.811   6.344   7.005 -0.6952  0.3636 -0.1333
 3659SOL     ow14633   0.588   5.792   1.223  0.5462 -0.2906  0.2712
 3659SOL     hw14634   0.568   5.701   1.248 -0.4591 -0.4917 -1.1197
 3659SOL     hw14635   0.503   5.830   1.201  1.2725 -0.3285 -3.2951
 3659SOL     vw14636   0.574   5.785   1.223  0.5094 -0.3221 -0.3828
 3660SOL     ow14637   1.830   4.753   5.996 -0.1416  0.9404 -0.3551
 3660SOL     hw14638   1.774   4.753   6.074  0.7022 -0.6777  0.2986
 3660SOL     hw14639   1.901   4.813   6.017  0.0537  0.5502  0.1055
 3660SOL     vw14640   1.832   4.761   6.009 -0.0045  0.6757 -0.2081
 3661SOL     ow14641   5.556   5.412   4.996  0.8432  0.9714 -0.3119
 3661SOL     hw14642   5.643   5.394   5.033  0.3900  1.3699  0.9885
 3661SOL     hw14643   5.575   5.461   4.916  1.8329  0.6804 -0.2775
 3661SOL     vw14644   5.570   5.416   4.990  0.9141  0.9856 -0.1359
 3662SOL     ow14645   7.173   1.446   6.173 -0.4547 -0.1066 -0.0283
 3662SOL     hw14646   7.239   1.467   6.107 -0.2917  1.1420  0.4965
 3662SOL     hw14647   7.216   1.382   6.231  0.9317  1.8591  1.2337
 3662SOL     vw14648   7.188   1.440   6.172 -0.2506  0.3175  0.2074
 3663SOL     ow14649   1.970   2.506   3.300 -0.5689 -0.1473  0.0408
 3663SOL     hw14650   1.987   2.550   3.383  0.4635  0.2374 -0.3682
 3663SOL     hw14651   1.875   2.490   3.301 -0.4563 -0.8613  1.6269
 3663SOL     vw14652   1.959   2.510   3.311 -0.4179 -0.1907  0.1961
 3664SOL     ow14653   7.494   6.486   3.610  0.3221  0.2556 -0.3349
 3664SOL     hw14654   7.456   6.484   3.522 -0.5311  0.6930  0.0071
 3664SOL     hw14655   7.431   6.537   3.662  0.3965 -0.6918  0.7225
 3664SOL     vw14656   7.480   6.493   3.606  0.2193  0.1884 -0.1503
 3665SOL     ow14657   1.229   0.632   4.552  0.5261 -0.7179 -0.2626
 3665SOL     hw14658   1.304   0.666   4.601  1.0066 -3.4438  1.0779
 3665SOL     hw14659   1.268   0.569   4.490 -0.4979 -0.7334 -0.9154
 3665SOL     vw14660   1.244   0.628   4.550  0.4545 -1.0796 -0.1721
 3666SOL     ow14661   6.953   6.938   1.065  0.7442  0.2479  0.0291
 3666SOL     hw14662   7.048   6.930   1.064  0.6630 -0.8802 -0.6093
 3666SOL     hw14663   6.924   6.891   0.987 -0.3790 -0.1559  0.6524
 3666SOL     vw14664   6.961   6.931   1.055  0.5853  0.0458  0.0271
 3667SOL     ow14665   6.873   2.493   2.836  0.3048  0.1796  0.3396
 3667SOL     hw14666   6.793   2.477   2.886  0.7623 -2.9611  0.2254
 3667SOL     hw14667   6.936   2.526   2.900 -0.6660  1.4123  0.6854
 3667SOL     vw14668   6.871   2.495   2.851  0.2372 -0.0722  0.3701
 3668SOL     ow14669   1.981   4.826   2.552  0.2852 -0.2568  0.3854
 3668SOL     hw14670   2.045   4.803   2.485 -0.5644 -2.0587  0.1262
 3668SOL     hw14671   1.912   4.872   2.504  0.9779  1.0069  0.5423
 3668SOL     vw14672   1.980   4.829   2.537  0.2645 -0.3276  0.3719
 3669SOL     ow14673   4.118   4.835   1.229  0.2009  0.3761  0.1488
 3669SOL     hw14674   4.040   4.833   1.285 -0.1127  1.4499 -0.2200
 3669SOL     hw14675   4.184   4.878   1.283  0.6151 -0.6880  0.5242
 3669SOL     vw14676   4.116   4.840   1.244  0.2141  0.3774  0.1497
 3670SOL     ow14677   0.260   4.158   0.836 -0.1538 -0.0586  0.0590
 3670SOL     hw14678   0.279   4.246   0.868 -0.9029  0.2865 -0.4019
 3670SOL     hw14679   0.253   4.168   0.741 -2.0120 -0.2339  0.1319
 3670SOL     vw14680   0.262   4.171   0.827 -0.4978 -0.0365  0.0078
 3671SOL     ow14681   5.340   7.091   6.113  0.6699 -0.3482 -0.0160
 3671SOL     hw14682   5.276   7.138   6.168  1.6839 -1.0063  1.8292
 3671SOL     hw14683   5.291   7.015   6.080  0.0630 -0.0240  0.1197
 3671SOL     vw14684   5.325   7.087   6.116  0.7236 -0.3922  0.2451
 3672SOL     ow14685   2.151   1.106   0.932  0.0342  0.4253  0.1816
 3672SOL     hw14686   2.173   1.054   1.010 -0.5394  0.7034  0.5350
 3672SOL     hw14687   2.189   1.192   0.948  3.1320 -0.4918 -1.4687
 3672SOL     vw14688   2.159   1.110   0.944  0.3672  0.3410  0.0105
 3673SOL     ow14689   4.891   0.412   0.783  0.2687  0.2749  0.6270
 3673SOL     hw14690   4.808   0.377   0.751  1.2588 -1.0661 -0.6076
 3673SOL     hw14691   4.876   0.431   0.875 -2.1116  2.3481 -0.0690
 3673SOL     vw14692   4.878   0.410   0.791  0.0854  0.3715  0.3723
 3674SOL     ow14693   2.729   3.942   5.054 -0.1879 -0.7737 -0.5486
 3674SOL     hw14694   2.729   3.862   5.000 -0.4546 -1.1196 -0.0430
 3674SOL     hw14695   2.710   4.012   4.992  0.9416 -0.9859 -1.1687
 3674SOL     vw14696   2.727   3.940   5.039 -0.0741 -0.8473 -0.5639
 3675SOL     ow14697   1.281   7.236   6.035  0.0419  0.7020  0.0193
 3675SOL     hw14698   1.262   7.181   5.959 -0.7994  1.2675 -0.1875
 3675SOL     hw14699   1.214   7.211   6.099  0.4029  0.6304  0.3763
 3675SOL     vw14700   1.270   7.225   6.034 -0.0215  0.7670  0.0396
 3676SOL     ow14701   4.306   3.278   6.988  0.0133 -0.2923  0.3155
 3676SOL     hw14702   4.311   3.186   6.962  1.9188 -0.5418  1.3825
 3676SOL     hw14703   4.283   3.276   7.081  1.2095  0.2396  0.6427
 3676SOL     vw14704   4.304   3.266   6.997  0.4222 -0.2549  0.4995
 3677SOL     ow14705   3.027   2.735   0.646 -0.4841  0.6077  0.1479
 3677SOL     hw14706   2.953   2.748   0.704  0.7670 -0.7054  2.1482
 3677SOL     hw14707   3.061   2.823   0.629 -1.3577  1.0637  0.7124
 3677SOL     vw14708   3.022   2.748   0.651 -0.4343  0.4947  0.4863
 3678SOL     ow14709   0.857   1.039   2.218  0.0129  0.2072 -0.1158
 3678SOL     hw14710   0.783   1.033   2.158 -0.5088 -1.4317  0.6416
 3678SOL     hw14711   0.924   0.983   2.179 -0.5443 -1.3619  1.0566
 3678SOL     vw14712   0.856   1.031   2.205 -0.1294 -0.2161  0.1388
 3679SOL     ow14713   0.574   5.466   4.797  0.5969 -0.5010 -0.1512
 3679SOL     hw14714   0.545   5.375   4.808 -1.1501 -0.1403 -1.3812
 3679SOL     hw14715   0.504   5.518   4.835  1.2065  0.3608 -0.1889
 3679SOL     vw14716   0.561   5.461   4.803  0.4469 -0.3397 -0.3183
 3680SOL     ow14717   5.244   6.296   5.725  0.0607  0.4501  0.2447
 3680SOL     hw14718   5.172   6.276   5.666  0.0804  0.3212  0.2639
 3680SOL     hw14719   5.303   6.351   5.674 -0.2007  0.8101  0.3253
 3680SOL     vw14720   5.242   6.301   5.711  0.0288  0.4807  0.2577
 3681SOL     ow14721   4.442   4.920   4.976  0.0823 -0.3811  0.0124
 3681SOL     hw14722   4.466   4.875   5.058  0.7259  0.9236  0.5815
 3681SOL     hw14723   4.356   4.885   4.954 -0.2540 -0.5413  1.4341
 3681SOL     vw14724   4.434   4.909   4.984  0.1230 -0.2301  0.2751
 3682SOL     ow14725   5.489   6.939   3.323  0.0783 -0.2680  0.3095
 3682SOL     hw14726   5.500   7.018   3.376  1.3641  0.1379 -0.5215
 3682SOL     hw14727   5.395   6.935   3.305 -0.1162  0.6189  1.0439
 3682SOL     vw14728   5.478   6.949   3.328  0.2222 -0.0975  0.2970
 3683SOL     ow14729   6.392   2.007   1.159  0.2114 -0.2876 -0.8138
 3683SOL     hw14730   6.413   2.100   1.146  1.6867 -0.3326  0.9621
 3683SOL     hw14731   6.446   1.961   1.096  1.3325 -0.0574 -0.0472
 3683SOL     vw14732   6.402   2.013   1.149  0.5538 -0.2632 -0.4783
 3684SOL     ow14733   4.639   6.001   6.602  0.0361  0.7499 -0.4353
 3684SOL     hw14734   4.696   5.925   6.600  0.1143  0.8111 -1.6344
 3684SOL     hw14735   4.645   6.038   6.514 -0.1169  2.0597  0.0739
 3684SOL     vw14736   4.647   5.996   6.590  0.0262  0.9310 -0.5267
 3685SOL     ow14737   5.501   7.208   2.952 -0.0215 -0.0289 -0.6849
 3685SOL     hw14738   5.461   7.163   2.878 -0.4650 -0.1083 -0.4025
 3685SOL     hw14739   5.431   7.263   2.987 -0.5637 -1.7048  1.0753
 3685SOL     vw14740   5.486   7.209   2.947 -0.1516 -0.2604 -0.4154
 3686SOL     ow14741   5.260   4.152   7.320  0.2342 -0.3448 -0.1454
 3686SOL     hw14742   5.268   4.077   7.261  0.7049  0.1145 -0.6800
 3686SOL     hw14743   5.214   4.218   7.269 -0.0563 -0.2167  0.2767
 3686SOL     vw14744   5.255   4.151   7.305  0.2577 -0.2673 -0.1602
 3687SOL     ow14745   4.631   6.051   6.084 -0.1312  0.1423  0.2568
 3687SOL     hw14746   4.708   6.018   6.038 -0.2465  2.2208 -1.6453
 3687SOL     hw14747   4.561   5.990   6.061  0.6093 -0.9602  0.8326
 3687SOL     vw14748   4.632   6.039   6.075 -0.0489  0.2711  0.0818
 3688SOL     ow14749   4.112   0.923   6.023  0.4110  0.1284  0.1986
 3688SOL     hw14750   4.044   0.958   6.081 -0.5084  0.6640 -1.1441
 3688SOL     hw14751   4.069   0.851   5.976  1.2005 -0.4305  0.3108
 3688SOL     vw14752   4.097   0.918   6.024  0.3939  0.1253  0.0362
 3689SOL     ow14753   3.404   1.015   7.502  0.1405 -0.5009 -0.7060
 3689SOL     hw14754   3.425   0.954   7.572  2.5321  0.5603 -0.3881
 3689SOL     hw14755   3.341   1.076   7.540 -0.9286 -1.7085 -0.4900
 3689SOL     vw14756   3.398   1.015   7.516  0.3151 -0.5203 -0.6356
 3690SOL     ow14757   4.417   4.374   1.881  0.1113  0.2358  0.0026
 3690SOL     hw14758   4.369   4.411   1.955  1.5730  1.4944  0.3491
 3690SOL     hw14759   4.466   4.447   1.845  1.8604 -1.0221 -0.2683
 3690SOL     vw14760   4.417   4.388   1.886  0.5350  0.2356  0.0126
 3691SOL     ow14761   0.006   6.339   5.399 -0.6485 -0.1416 -0.1598
 3691SOL     hw14762  -0.063   6.273   5.394  0.8806 -1.7244 -2.4661
 3691SOL     hw14763   0.038   6.334   5.489 -1.1734 -1.9618 -0.0297
 3691SOL     vw14764   0.001   6.330   5.410 -0.5160 -0.5903 -0.4468
 3692SOL     ow14765   1.797   2.236   6.354  0.0481  0.0259 -0.0028
 3692SOL     hw14766   1.754   2.312   6.393  1.0611  0.1896  0.8366
 3692SOL     hw14767   1.725   2.183   6.320 -0.8827  0.1110  1.6969
 3692SOL     vw14768   1.782   2.239   6.355  0.0590  0.0587  0.3321
 3693SOL     ow14769   2.153   3.862   1.556  0.7059  0.3159 -0.4231
 3693SOL     hw14770   2.169   3.792   1.492  2.3603 -1.4909  1.8181
 3693SOL     hw14771   2.238   3.906   1.564  0.3514  0.9137  0.1044
 3693SOL     vw14772   2.167   3.859   1.548  0.8774  0.1564 -0.0578
 3694SOL     ow14773   5.471   0.771   4.786 -0.3035  0.2563 -0.0572
 3694SOL     hw14774   5.389   0.792   4.830  0.6035  0.1236  1.7655
 3694SOL     hw14775   5.528   0.845   4.804  1.0719 -1.1412  1.6163
 3694SOL     vw14776   5.467   0.783   4.794 -0.0024  0.0544  0.4041
 3695SOL     ow14777   1.305   6.446   0.363 -0.1417 -0.1445  0.2972
 3695SOL     hw14778   1.308   6.541   0.352  1.2871 -0.2247 -0.1583
 3695SOL     hw14779   1.397   6.419   0.365 -0.5298 -1.5333  0.3074
 3695SOL     vw14780   1.317   6.455   0.362 -0.0044 -0.3386  0.2384
 3696SOL     ow14781   2.662   0.692   0.704  0.5298  0.4739 -0.0511
 3696SOL     hw14782   2.741   0.712   0.654  0.5060 -0.2115 -0.3782
 3696SOL     hw14783   2.611   0.635   0.646  0.7948 -0.8796  1.0025
 3696SOL     vw14784   2.666   0.688   0.690  0.5615  0.2049  0.0448
 3697SOL     ow14785   3.371   7.096   2.254 -0.5633  0.1183 -0.2900
 3697SOL     hw14786   3.353   7.180   2.214 -1.2470  0.6159  1.0053
 3697SOL     hw14787   3.318   7.033   2.204 -1.6905  0.7721  0.0527
 3697SOL     vw14788   3.362   7.098   2.242 -0.8020  0.2701 -0.0739
 3698SOL     ow14789   3.064   4.902   1.669 -0.0724  0.2421 -0.2545
 3698SOL     hw14790   3.037   4.922   1.579  0.8894 -1.9411 -1.0993
 3698SOL     hw14791   3.103   4.815   1.663  0.6741  0.3494  2.1705
 3698SOL     vw14792   3.066   4.894   1.656  0.1529 -0.0315 -0.0460
 3699SOL     ow14793   5.930   6.187   3.510  0.2328 -0.2008  0.2891
 3699SOL     hw14794   5.857   6.134   3.478 -1.5739  1.3995  1.4877
 3699SOL     hw14795   5.988   6.196   3.435 -2.9189  1.9649 -2.1575
 3699SOL     vw14796   5.928   6.181   3.496 -0.4213  0.2961  0.1245
 3700SOL     ow14797   2.086   6.793   3.952 -0.8239  0.6193 -0.0710
 3700SOL     hw14798   2.037   6.794   3.869  0.6819  1.0675 -1.0070
 3700SOL     hw14799   2.122   6.881   3.960  2.3233 -0.4248 -1.0579
 3700SOL     vw14800   2.084   6.804   3.942 -0.2100  0.5407 -0.3247
 3701SOL     ow14801   5.366   2.481   6.803  0.7113 -0.0186  0.1445
 3701SOL     hw14802   5.282   2.445   6.774  0.5591  0.7941 -0.4754
 3701SOL     hw14803   5.364   2.474   6.898 -0.0057 -0.1234  0.1235
 3701SOL     vw14804   5.355   2.476   6.812  0.5968  0.0749  0.0598
 3702SOL     ow14805   1.570   6.957   5.616 -0.0634 -0.4761 -0.4745
 3702SOL     hw14806   1.543   7.005   5.538 -0.3073  2.0120  1.0068
 3702SOL     hw14807   1.508   6.885   5.624 -3.5330  2.2854  0.2211
 3702SOL     vw14808   1.558   6.954   5.607 -0.5534  0.2165 -0.1874
 3703SOL     ow14809   1.322   5.362   3.878  0.0464 -0.2579 -0.3681
 3703SOL     hw14810   1.234   5.360   3.842 -0.2378  0.6289  0.2458
 3703SOL     hw14811   1.376   5.403   3.811  0.0179 -0.8641 -0.7709
 3703SOL     vw14812   1.318   5.367   3.865  0.0051 -0.2208 -0.3400
 3704SOL     ow14813   6.295   3.376   6.901 -0.1630  0.2578  0.3374
 3704SOL     hw14814   6.285   3.374   6.806 -0.4306 -1.4147  0.3777
 3704SOL     hw14815   6.388   3.364   6.916 -0.0095  1.2607  0.2977
 3704SOL     vw14816   6.306   3.374   6.890 -0.1781  0.1694  0.3376
 3705SOL     ow14817   4.060   6.110   1.970 -0.5387  0.0899 -0.4935
 3705SOL     hw14818   4.128   6.085   1.907  1.3398  1.2838  0.9262
 3705SOL     hw14819   4.000   6.035   1.972  0.3126 -0.7137 -2.3540
 3705SOL     vw14820   4.061   6.097   1.962 -0.1783  0.1414 -0.5516
 3706SOL     ow14821   2.286   1.360   0.877 -1.0348 -0.6716 -0.0474
 3706SOL     hw14822   2.215   1.403   0.924 -1.1441  0.2107 -0.9995
 3706SOL     hw14823   2.366   1.390   0.921 -1.1106  0.4988 -0.6666
 3706SOL     vw14824   2.287   1.370   0.889 -1.0592 -0.4008 -0.2547
 3707SOL     ow14825   0.405   1.342   7.101  0.0869 -0.1271 -0.8500
 3707SOL     hw14826   0.311   1.350   7.114  0.0992 -1.3954  0.2237
 3707SOL     hw14827   0.414   1.311   7.011 -0.4201  1.4446 -1.4716
 3707SOL     vw14828   0.394   1.339   7.091  0.0216 -0.0871 -0.7904
 3708SOL     ow14829   6.909   0.009   1.633 -0.2450  0.1474 -0.1000
 3708SOL     hw14830   6.875   0.090   1.671  0.5232  0.1875  0.5338
 3708SOL     hw14831   6.949  -0.037   1.707  4.3798  1.7598 -1.2687
 3708SOL     vw14832   6.910   0.014   1.648  0.4661  0.3657 -0.1706
 3709SOL     ow14833   6.331   1.870   3.212 -0.0950 -0.6404 -0.0652
 3709SOL     hw14834   6.418   1.850   3.245  0.1664 -1.2667 -1.0734
 3709SOL     hw14835   6.287   1.785   3.208 -0.7471 -0.3333  0.4095
 3709SOL     vw14836   6.337   1.856   3.216 -0.1466 -0.6825 -0.1355
 3710SOL     ow14837   1.959   3.092   2.141  0.7922 -0.5313 -0.0982
 3710SOL     hw14838   1.957   3.031   2.068  4.5540 -2.0617  0.8431
 3710SOL     hw14839   2.039   3.143   2.128 -1.5906  3.5713 -0.2026
 3710SOL     vw14840   1.969   3.090   2.130  0.9742 -0.1919  0.0122
 3711SOL     ow14841   2.823   6.177   0.028  0.5572 -0.4376 -0.5398
 3711SOL     hw14842   2.816   6.200   0.121 -1.6582 -1.3012 -0.4384
 3711SOL     hw14843   2.916   6.190   0.008  0.8586  1.0800  1.4238
 3711SOL     vw14844   2.834   6.182   0.038  0.3046 -0.3512 -0.2674
 3712SOL     ow14845   2.599   3.468   1.421 -0.3793  0.3572  0.6210
 3712SOL     hw14846   2.605   3.377   1.390 -0.8444  0.5870 -0.1662
 3712SOL     hw14847   2.677   3.510   1.384 -0.8848  0.6081 -0.1834
 3712SOL     vw14848   2.610   3.462   1.412 -0.5072  0.4206  0.4110
 3713SOL     ow14849   4.997   3.258   3.072 -0.2130  0.0351 -0.4709
 3713SOL     hw14850   5.037   3.330   3.121  0.3098 -0.6491  0.1304
 3713SOL     hw14851   4.960   3.300   2.995 -0.2806  1.0105  0.0696
 3713SOL     vw14852   4.997   3.273   3.068 -0.1528  0.0736 -0.3202
 3714SOL     ow14853   2.793   3.411   2.907  0.3225  0.4201  0.4134
 3714SOL     hw14854   2.715   3.453   2.944  0.7045  1.9837 -0.4771
 3714SOL     hw14855   2.766   3.320   2.891 -2.0356  1.4008 -1.8169
 3714SOL     vw14856   2.779   3.404   2.910  0.0618  0.7557  0.0017
 3715SOL     ow14857   5.626   6.596   4.973  0.1277 -0.0203 -0.5357
 3715SOL     hw14858   5.686   6.668   4.952 -0.1534  0.2106 -0.5618
 3715SOL     hw14859   5.541   6.639   4.984  0.4172  0.0420  2.0846
 3715SOL     vw14860   5.622   6.611   4.972  0.1287  0.0184 -0.1934
 3716SOL     ow14861   5.748   1.782   4.819  0.3013  0.4609 -0.0051
 3716SOL     hw14862   5.822   1.746   4.868 -0.3507 -0.7473  0.1247
 3716SOL     hw14863   5.785   1.804   4.734  0.8542  0.0047  0.1082
 3716SOL     vw14864   5.763   1.780   4.814  0.2882  0.2413  0.0269
 3717SOL     ow14865   2.869   6.927   4.653  0.1792  0.3065 -0.4605
 3717SOL     hw14866   2.816   6.978   4.592  0.9108  0.2508 -1.1504
 3717SOL     hw14867   2.957   6.964   4.646  0.7932 -1.1943 -1.1759
 3717SOL     vw14868   2.873   6.938   4.644  0.3566  0.1011 -0.6459
 3718SOL     ow14869   0.258   4.227   1.722 -0.1598  0.1986  0.0199
 3718SOL     hw14870   0.225   4.142   1.692  0.2844  0.8301 -2.5649
 3718SOL     hw14871   0.228   4.234   1.812  0.8444 -3.2045  0.7532
 3718SOL     vw14872   0.250   4.217   1.730  0.0313 -0.1669 -0.2244
 3719SOL     ow14873   3.683   5.018   3.013 -1.0643 -0.1527  0.1115
 3719SOL     hw14874   3.602   5.018   2.963 -0.6563 -0.3079 -0.5703
 3719SOL     hw14875   3.752   5.029   2.947 -0.5547  0.4477  0.7176
 3719SOL     vw14876   3.682   5.020   2.998 -0.9432 -0.0939  0.1016
 3720SOL     ow14877   0.118   2.033   6.302 -0.0505  0.3505 -0.3790
 3720SOL     hw14878   0.046   1.987   6.345 -0.6704  0.3216 -1.4135
 3720SOL     hw14879   0.125   2.116   6.350 -2.4892  1.4853 -1.8140
 3720SOL     vw14880   0.109   2.038   6.314 -0.4540  0.4965 -0.7050
 3721SOL     ow14881   6.382   6.157   6.924 -0.6001 -0.6998 -0.2736
 3721SOL     hw14882   6.301   6.169   6.874 -0.5281 -0.2251 -0.2842
 3721SOL     hw14883   6.370   6.074   6.970 -0.9731 -0.7739 -0.5000
 3721SOL     vw14884   6.370   6.148   6.923 -0.6402 -0.6473 -0.3045
 3722SOL     ow14885   5.644   3.209   5.523  0.3107  0.3755  0.5268
 3722SOL     hw14886   5.740   3.199   5.527  0.0228 -4.3967  0.5774
 3722SOL     hw14887   5.613   3.176   5.607 -1.4732 -1.9201 -0.9354
 3722SOL     vw14888   5.653   3.204   5.534  0.0372 -0.5568  0.3405
 3723SOL     ow14889   1.775   5.189   6.223  0.7690 -0.1676  0.0554
 3723SOL     hw14890   1.747   5.204   6.133  2.6308  1.5139 -0.3125
 3723SOL     hw14891   1.759   5.273   6.267  0.0973 -0.9023  1.2551
 3723SOL     vw14892   1.769   5.202   6.217  0.9261 -0.0424  0.1650
 3724SOL     ow14893   3.018   6.839   0.954  0.7070  0.2417  0.0651
 3724SOL     hw14894   3.063   6.769   0.906  0.8578  1.0866 -1.0424
 3724SOL     hw14895   2.925   6.819   0.943  0.7251 -1.4347  2.2529
 3724SOL     vw14896   3.011   6.827   0.946  0.7293  0.1321  0.2077
 3725SOL     ow14897   2.486   7.231   2.341  0.0452  0.9684 -0.4824
 3725SOL     hw14898   2.523   7.143   2.348 -0.7862  0.5627 -1.0493
 3725SOL     hw14899   2.534   7.282   2.406  1.4241  0.4128 -1.0291
 3725SOL     vw14900   2.497   7.226   2.351  0.1174  0.8416 -0.6294
 3726SOL     ow14901   0.874   2.974   6.410 -0.3799 -0.0016 -0.1739
 3726SOL     hw14902   0.934   2.958   6.336  1.2933 -1.0156  1.3244
 3726SOL     hw14903   0.841   3.063   6.394  1.2770  0.4810 -1.2802
 3726SOL     vw14904   0.878   2.984   6.398  0.0595 -0.0715 -0.1221
 3727SOL     ow14905   6.233   2.166   3.285  0.7178  0.2395  0.1824
 3727SOL     hw14906   6.185   2.157   3.367  1.3403  2.0088  0.7888
 3727SOL     hw14907   6.207   2.252   3.251  0.1220 -0.6381 -1.7333
 3727SOL     vw14908   6.224   2.176   3.291  0.7210  0.3572  0.0098
 3728SOL     ow14909   3.268   2.908   4.062 -0.3397 -0.4654 -0.2733
 3728SOL     hw14910   3.266   2.946   3.974 -0.5543 -1.1285 -0.5541
 3728SOL     hw14911   3.181   2.872   4.075  0.1102 -1.6108 -0.3438
 3728SOL     vw14912   3.256   2.909   4.052 -0.3086 -0.7039 -0.3195
 3729SOL     ow14913   2.398   5.312   5.957 -1.0730  0.0775 -0.0211
 3729SOL     hw14914   2.391   5.337   5.864 -0.5022 -0.5789 -0.2445
 3729SOL     hw14915   2.428   5.392   6.000  0.9565 -0.2200 -0.7695
 3729SOL     vw14916   2.401   5.326   5.950 -0.7300 -0.0484 -0.1493
 3730SOL     ow14917   5.433   5.485   6.241 -0.2170  0.1425  0.2310
 3730SOL     hw14918   5.373   5.413   6.221 -0.3450  0.0946  0.7736
 3730SOL     hw14919   5.401   5.520   6.324 -0.7262  1.4234 -0.4767
 3730SOL     vw14920   5.421   5.480   6.249 -0.3009  0.3049  0.2093
 3731SOL     ow14921   6.331   0.849   3.895 -0.0386 -0.1596 -0.4459
 3731SOL     hw14922   6.271   0.914   3.931 -0.3720 -0.2542 -0.8166
 3731SOL     hw14923   6.418   0.880   3.920 -0.2688 -0.3692  0.6571
 3731SOL     vw14924   6.334   0.862   3.903 -0.1128 -0.1997 -0.3493
 3732SOL     ow14925   5.424   5.795   5.916  0.2622  0.0567  0.2546
 3732SOL     hw14926   5.348   5.791   5.974 -1.2147 -0.7446 -1.6292
 3732SOL     hw14927   5.459   5.706   5.916  0.2059  0.0329 -0.1470
 3732SOL     vw14928   5.419   5.783   5.923  0.0601 -0.0520 -0.0467
 3733SOL     ow14929   6.517   3.254   6.166  0.1223 -0.2528 -0.7074
 3733SOL     hw14930   6.505   3.297   6.250  0.8156 -0.9203 -0.2508
 3733SOL     hw14931   6.567   3.175   6.186  1.2978  0.1602 -1.9041
 3733SOL     vw14932   6.522   3.249   6.179  0.3686 -0.2863 -0.8051
 3734SOL     ow14933   1.898   1.255   3.144 -0.5604  0.1770 -0.0035
 3734SOL     hw14934   1.959   1.191   3.108 -0.2939 -1.1205  2.5000
 3734SOL     hw14935   1.812   1.229   3.109 -0.9093 -3.3794  2.8914
 3734SOL     vw14936   1.894   1.243   3.135 -0.5713 -0.4634  0.7087
 3735SOL     ow14937   5.060   2.228   3.544 -0.5774 -0.0472  0.2607
 3735SOL     hw14938   5.073   2.313   3.588  0.4813 -0.5086  0.8836
 3735SOL     hw14939   5.077   2.247   3.452  1.9323  0.0079  0.6591
 3735SOL     vw14940   5.064   2.242   3.538 -0.1066 -0.1009  0.3954
 3736SOL     ow14941   6.894   4.944   1.051  0.2392  0.2675 -0.3070
 3736SOL     hw14942   6.960   4.883   1.019 -1.0753 -0.2038 -2.3404
 3736SOL     hw14943   6.828   4.888   1.092  1.1188  0.7423  1.8469
 3736SOL     vw14944   6.894   4.928   1.052  0.1817  0.2677 -0.2911
 3737SOL     ow14945   1.145   4.910   1.737 -0.3104 -0.0387 -0.0385
 3737SOL     hw14946   1.055   4.934   1.757 -0.8026 -0.5456 -1.5519
 3737SOL     hw14947   1.141   4.818   1.711  0.4878  0.1674 -0.9844
 3737SOL     vw14948   1.133   4.901   1.736 -0.2700 -0.0782 -0.3629
 3738SOL     ow14949   3.010   2.914   4.339  0.1965  0.0573  0.6429
 3738SOL     hw14950   3.037   2.838   4.391  0.5698  0.4891  1.0973
 3738SOL     hw14951   3.092   2.960   4.320  0.0708 -0.1563 -0.4389
 3738SOL     vw14952   3.025   2.910   4.343  0.2294  0.0862  0.5605
 3739SOL     ow14953   7.399   5.693   1.354  0.4796  0.0116  0.0146
 3739SOL     hw14954   7.465   5.756   1.325 -0.7314  1.3487  0.0791
 3739SOL     hw14955   7.316   5.740   1.349 -0.5471 -1.7640 -0.4622
 3739SOL     vw14956   7.397   5.707   1.350  0.1843 -0.0465 -0.0398
 3740SOL     ow14957   0.386   5.150   5.945  0.1047 -0.2767  0.1837
 3740SOL     hw14958   0.394   5.062   5.982 -1.1626 -0.1623  0.7670
 3740SOL     hw14959   0.376   5.136   5.851  1.7238 -0.6501  0.0413
 3740SOL     vw14960   0.386   5.136   5.938  0.1511 -0.3109  0.2418
 3741SOL     ow14961   1.025   4.432   4.630 -0.1070 -0.5189 -0.1083
 3741SOL     hw14962   1.093   4.364   4.633  1.4657  0.8706 -1.5464
 3741SOL     hw14963   0.944   4.385   4.615  0.8705 -2.1229 -0.6017
 3741SOL     vw14964   1.023   4.417   4.628  0.2294 -0.5472 -0.3633
 3742SOL     ow14965   1.968   2.429   1.672 -0.0593  0.4549 -0.1424
 3742SOL     hw14966   1.936   2.340   1.663  0.1723  0.3440  0.0988
 3742SOL     hw14967   2.046   2.432   1.616 -0.3405  0.6494 -0.5292
 3742SOL     vw14968   1.974   2.418   1.663 -0.0659  0.4660 -0.1616
 3743SOL     ow14969   4.678   7.237   4.437 -0.5787 -0.0634 -0.2089
 3743SOL     hw14970   4.715   7.252   4.524 -1.1452 -0.6645  0.1470
 3743SOL     hw14971   4.599   7.291   4.434 -1.3929 -1.2033  0.2347
 3743SOL     vw14972   4.672   7.246   4.448 -0.7610 -0.2933 -0.1032
 3744SOL     ow14973   0.411   1.633   5.864  0.4388  0.6720 -0.0985
 3744SOL     hw14974   0.388   1.546   5.834 -0.0993  0.7642  0.0404
 3744SOL     hw14975   0.373   1.692   5.799  2.8588  0.7610 -1.5691
 3744SOL     vw14976   0.403   1.630   5.852  0.6871  0.6959 -0.2742
 3745SOL     ow14977   0.582   1.619   4.821  0.3585 -0.4163  0.4730
 3745SOL     hw14978   0.563   1.668   4.901 -0.0595 -1.2420  0.9042
 3745SOL     hw14979   0.676   1.605   4.822  0.2873 -0.8862  1.1147
 3745SOL     vw14980   0.592   1.624   4.832  0.2939 -0.5872  0.6144
 3746SOL     ow14981   3.950   4.007   2.437 -0.1120 -0.2560  0.2421
 3746SOL     hw14982   3.993   4.064   2.502  0.2869 -0.4387  0.1452
 3746SOL     hw14983   3.976   4.044   2.353 -0.7927  0.0994  0.1810
 3746SOL     vw14984   3.959   4.020   2.435 -0.1491 -0.2332  0.2213
 3747SOL     ow14985   7.047   2.279   1.422  0.2686  0.3927  0.7824
 3747SOL     hw14986   7.069   2.364   1.461  1.1561  0.1302  0.8846
 3747SOL     hw14987   7.117   2.221   1.452 -0.0066 -0.2325  0.2318
 3747SOL     vw14988   7.059   2.283   1.431  0.3495  0.2755  0.7232
 3748SOL     ow14989   3.522   4.153   1.704 -0.2377 -0.1161 -0.0042
 3748SOL     hw14990   3.428   4.149   1.690 -0.6098  1.7132  1.5249
 3748SOL     hw14991   3.553   4.216   1.639 -0.2141 -0.0392  0.0810
 3748SOL     vw14992   3.514   4.161   1.694 -0.2836  0.1352  0.2087
 3749SOL     ow14993   5.128   4.237   1.606 -0.0712  0.2027 -0.1847
 3749SOL     hw14994   5.063   4.174   1.575 -0.9750 -0.3367  2.5357
 3749SOL     hw14995   5.187   4.249   1.532  0.1073 -3.8041 -0.9341
 3749SOL     vw14996   5.127   4.230   1.592 -0.1671 -0.3972  0.0753
 3750SOL     ow14997   7.218   5.524   5.928 -0.4825 -0.1552 -0.0258
 3750SOL     hw14998   7.308   5.548   5.906 -0.8115  0.8384 -0.3506
 3750SOL     hw14999   7.183   5.601   5.973 -0.6524 -1.1645  1.6602
 3750SOL     vw15000   7.225   5.537   5.931 -0.5484 -0.1576  0.1535
 3751SOL     ow15001   6.290   5.648   0.536 -0.0230  0.5526  0.8327
 3751SOL     hw15002   6.368   5.649   0.480 -0.3365  1.6152  0.3942
 3751SOL     hw15003   6.223   5.606   0.483 -0.1146  0.8533  0.7153
 3751SOL     vw15004   6.292   5.642   0.522 -0.0765  0.7324  0.7593
 3752SOL     ow15005   2.912   1.775   7.051  0.0226 -0.4387 -0.4461
 3752SOL     hw15006   2.874   1.812   7.131 -0.6975 -1.0769 -0.4805
 3752SOL     hw15007   2.890   1.838   6.982  2.4963  1.2279  0.1664
 3752SOL     vw15008   2.904   1.788   7.053  0.2540 -0.3030 -0.3698
 3753SOL     ow15009   0.043   6.272   2.203 -0.0834 -0.2049 -0.3838
 3753SOL     hw15010   0.052   6.359   2.163 -0.0456  0.1823  0.4414
 3753SOL     hw15011   0.041   6.289   2.297  0.6611 -1.1544 -0.1707
 3753SOL     vw15012   0.044   6.286   2.210  0.0198 -0.2794 -0.2469
 3754SOL     ow15013   6.297   5.345   1.738 -0.1919 -0.1756 -0.6005
 3754SOL     hw15014   6.313   5.430   1.696 -0.1342 -0.7260 -1.7258
 3754SOL     hw15015   6.232   5.302   1.682  0.7461 -1.4039 -0.7735
 3754SOL     vw15016   6.290   5.351   1.725 -0.0606 -0.4103 -0.7718
 3755SOL     ow15017   1.963   3.079   0.278 -0.0583 -0.2096 -0.0357
 3755SOL     hw15018   2.002   2.999   0.243 -2.2998 -0.9385 -1.0608
 3755SOL     hw15019   2.035   3.141   0.282  1.1792 -1.4231 -1.9172
 3755SOL     vw15020   1.978   3.077   0.274 -0.1907 -0.4660 -0.4192
 3756SOL     ow15021   0.105   4.440   4.565  0.0829  0.0484  0.1243
 3756SOL     hw15022   0.049   4.458   4.640 -0.4893 -0.0782 -0.2711
 3756SOL     hw15023   0.164   4.516   4.561  1.4523 -0.8419  1.8933
 3756SOL     vw15024   0.106   4.453   4.575  0.1881 -0.0858  0.3054
 3757SOL     ow15025   4.882   6.526   6.560 -0.0010  0.7283  0.3109
 3757SOL     hw15026   4.901   6.611   6.600  1.1493  0.3758  0.5634
 3757SOL     hw15027   4.860   6.547   6.469  0.8010  1.2610  0.2247
 3757SOL     vw15028   4.882   6.540   6.554  0.2565  0.7522  0.3326
 3758SOL     ow15029   7.350   5.397   7.094  0.3772  0.0415  0.3212
 3758SOL     hw15030   7.329   5.464   7.160 -0.6367 -0.2111  0.2590
 3758SOL     hw15031   7.391   5.447   7.023  0.8940  0.4032  0.8544
 3758SOL     vw15032   7.353   5.413   7.093  0.3116  0.0563  0.3831
 3759SOL     ow15033   1.072   6.862   4.473 -0.1269  0.1496  0.2092
 3759SOL     hw15034   1.046   6.950   4.501 -1.4948  0.0518 -0.6541
 3759SOL     hw15035   1.029   6.803   4.536  1.3241  0.0992  1.1838
 3759SOL     vw15036   1.063   6.866   4.485 -0.1159  0.1299  0.2239
 3760SOL     ow15037   7.108   6.193   0.235 -0.0349  0.0002 -0.5915
 3760SOL     hw15038   7.164   6.126   0.194 -0.1576 -0.5856  0.1798
 3760SOL     hw15039   7.170   6.252   0.278  0.0083 -0.4345 -0.0556
 3760SOL     vw15040   7.124   6.192   0.235 -0.0453 -0.1340 -0.4191
 3761SOL     ow15041   6.481   3.476   5.699  0.6613  0.7499  0.2604
 3761SOL     hw15042   6.490   3.381   5.703 -0.5545  0.6447  1.3944
 3761SOL     hw15043   6.561   3.507   5.657  2.4026 -0.5875  2.3758
 3761SOL     vw15044   6.493   3.468   5.694  0.7305  0.5596  0.6893
 3762SOL     ow15045   5.620   0.453   1.072 -0.9394 -0.3524 -0.3224
 3762SOL     hw15046   5.699   0.449   1.018 -0.8854 -1.9233 -0.1652
 3762SOL     hw15047   5.569   0.524   1.034  0.7775  1.0820 -0.0886
 3762SOL     vw15048   5.624   0.462   1.060 -0.7057 -0.3704 -0.2709
 3763SOL     ow15049   3.857   4.712   4.579 -0.1434 -0.2178  0.0410
 3763SOL     hw15050   3.919   4.778   4.611  0.7487 -0.1932 -1.6525
 3763SOL     hw15051   3.783   4.763   4.546 -0.7303 -0.2154  1.2873
 3763SOL     vw15052   3.856   4.728   4.579 -0.1031 -0.2146 -0.0181
 3764SOL     ow15053   0.680   2.798   0.616 -0.6975 -0.2028  0.5489
 3764SOL     hw15054   0.666   2.753   0.533  0.3393  1.2520 -0.4698
 3764SOL     hw15055   0.765   2.840   0.606 -1.1038  1.0167  1.8813
 3764SOL     vw15056   0.689   2.797   0.604 -0.6143  0.1501  0.5902
 3765SOL     ow15057   6.693   1.894   7.451 -0.2086 -0.2489 -0.1167
 3765SOL     hw15058   6.681   1.813   7.403 -3.8674  0.1224 -0.1729
 3765SOL     hw15059   6.674   1.963   7.387  3.4162  0.8164 -0.2347
 3765SOL     vw15060   6.689   1.893   7.436 -0.2131 -0.0594 -0.1397
 3766SOL     ow15061   0.214   7.247   0.720 -0.4969 -0.2519 -0.0522
 3766SOL     hw15062   0.197   7.170   0.775 -1.6261  0.4983  0.6872
 3766SOL     hw15063   0.307   7.239   0.698 -0.4167 -1.4561  0.5871
 3766SOL     vw15064   0.224   7.236   0.725 -0.6353 -0.3119  0.1297
 3767SOL     ow15065   7.422   4.181   6.789 -0.2269 -0.1098  0.7076
 3767SOL     hw15066   7.334   4.213   6.766 -0.9046 -0.5460  2.5473
 3767SOL     hw15067   7.472   4.260   6.810 -0.9553  0.0089  2.1109
 3767SOL     vw15068   7.417   4.196   6.789 -0.4125 -0.1516  1.1353
 3768SOL     ow15069   4.157   0.859   0.167 -0.1798  0.5285  0.2945
 3768SOL     hw15070   4.127   0.943   0.200 -0.6726  0.1839  0.7226
 3768SOL     hw15071   4.201   0.817   0.242 -1.0710 -0.1407  0.4581
 3768SOL     vw15072   4.159   0.864   0.181 -0.3624  0.3947  0.3725
 3769SOL     ow15073   4.452   4.212   1.370 -0.2073 -0.0111 -0.0869
 3769SOL     hw15074   4.388   4.182   1.305 -0.2433  0.1861 -0.1424
 3769SOL     hw15075   4.495   4.132   1.400 -0.2627 -0.1131 -0.2792
 3769SOL     vw15076   4.450   4.197   1.365 -0.2196  0.0017 -0.1196
 3770SOL     ow15077   2.152   7.075   3.998  0.8112 -1.0149  0.2556
 3770SOL     hw15078   2.157   7.106   4.088  1.4039  0.9095 -0.3904
 3770SOL     hw15079   2.230   7.109   3.956  0.7120 -2.1597 -0.9352
 3770SOL     vw15080   2.163   7.083   4.004  0.8764 -0.9122  0.0131
 3771SOL     ow15081   2.812   0.463   3.510 -0.9756  0.3244  0.3616
 3771SOL     hw15082   2.885   0.401   3.503 -1.5103 -0.7117  2.8645
 3771SOL     hw15083   2.766   0.455   3.427  0.6294 -0.4610 -0.5077
 3771SOL     vw15084   2.816   0.454   3.498 -0.8342  0.0841  0.5772
 3772SOL     ow15085   3.983   4.928   4.682  0.3988  0.4180 -0.0965
 3772SOL     hw15086   3.922   4.997   4.709 -2.3720 -1.2382 -1.6218
 3772SOL     hw15087   4.027   4.963   4.605 -1.2575  0.4244 -1.0786
 3772SOL     vw15088   3.981   4.942   4.676 -0.1851  0.2003 -0.4275
 3773SOL     ow15089   0.069   0.017   1.203  0.8332 -0.2039 -0.0943
 3773SOL     hw15090   0.141   0.003   1.265  1.9686 -1.8329 -1.6888
 3773SOL     hw15091  -0.003   0.048   1.258  1.9370 -1.0599  1.9630
 3773SOL     vw15092   0.069   0.019   1.218  1.1286 -0.5314 -0.0333
 3774SOL     ow15093   2.546   0.973   4.894 -0.4706 -0.0476  0.6374
 3774SOL     hw15094   2.510   0.887   4.913 -0.1184  0.1140  2.1602
 3774SOL     hw15095   2.500   1.002   4.815  0.1116 -2.0359 -0.4928
 3774SOL     vw15096   2.535   0.965   4.886 -0.3473 -0.2887  0.6893
 3775SOL     ow15097   3.635   0.027   0.934  0.1280  0.0922  0.7728
 3775SOL     hw15098   3.710  -0.032   0.941 -1.5745 -2.1294  1.2433
 3775SOL     hw15099   3.620   0.057   1.024  0.4089  0.4837  0.6895
 3775SOL     vw15100   3.643   0.023   0.947 -0.0596 -0.1493  0.8239
 3776SOL     ow15101   0.192   3.925   4.533 -0.7316 -0.0274  0.2472
 3776SOL     hw15102   0.217   3.851   4.588 -3.4300 -0.0963  1.4916
 3776SOL     hw15103   0.198   4.001   4.591  0.5752  0.5745 -0.6200
 3776SOL     vw15104   0.196   3.926   4.548 -0.9152  0.0429  0.2971
 3777SOL     ow15105   6.117   4.166   5.683  0.0351  0.3439 -0.2009
 3777SOL     hw15106   6.084   4.252   5.659  2.3862  1.2421 -0.5269
 3777SOL     hw15107   6.160   4.179   5.767  0.4266 -0.4962 -0.2583
 3777SOL     vw15108   6.118   4.179   5.691  0.3970  0.3514 -0.2513
 3778SOL     ow15109   5.092   4.094   2.027  0.2240 -0.4259  0.3287
 3778SOL     hw15110   5.140   4.025   1.981  0.6874 -1.0803  1.7230
 3778SOL     hw15111   5.012   4.106   1.975  0.4798 -1.4942 -0.3543
 3778SOL     vw15112   5.088   4.086   2.014  0.3185 -0.6528  0.4225
 3779SOL     ow15113   2.234   6.889   1.774  0.7072  0.1129 -0.1504
 3779SOL     hw15114   2.322   6.890   1.813  0.7059  0.9480 -0.1416
 3779SOL     hw15115   2.179   6.931   1.840  0.1503 -1.0294  0.1468
 3779SOL     vw15116   2.238   6.895   1.788  0.6334  0.0725 -0.1100
 3780SOL     ow15117   5.903   6.888   0.863  0.0894  0.3187  0.1336
 3780SOL     hw15118   5.892   6.845   0.948 -0.3924  0.8159  0.3309
 3780SOL     hw15119   5.939   6.820   0.806 -0.0893 -0.1689  0.5930
 3780SOL     vw15120   5.907   6.873   0.867  0.0021  0.3200  0.2202
 3781SOL     ow15121   1.876   3.961   3.459 -0.1354  0.2503  0.1031
 3781SOL     hw15122   1.965   3.931   3.478  0.5809  1.9087 -0.5028
 3781SOL     hw15123   1.820   3.900   3.507  1.3070 -0.8598  0.4570
 3781SOL     vw15124   1.881   3.949   3.468  0.1494  0.3226  0.0699
 3782SOL     ow15125   1.709   0.996   1.142  0.2280 -0.0854  0.2634
 3782SOL     hw15126   1.780   1.013   1.079  0.4047 -0.8701  0.2506
 3782SOL     hw15127   1.752   0.953   1.215 -0.5875 -2.9391 -0.8109
 3782SOL     vw15128   1.724   0.993   1.143  0.1437 -0.5654  0.1200
 3783SOL     ow15129   6.009   3.150   3.270 -0.3446 -0.3375 -0.1856
 3783SOL     hw15130   6.095   3.111   3.283 -0.6811 -0.5889  1.5916
 3783SOL     hw15131   6.026   3.235   3.230  0.6351 -0.8999 -0.9854
 3783SOL     vw15132   6.022   3.156   3.267 -0.2596 -0.4448 -0.0565
 3784SOL     ow15133   4.384   0.920   5.068  0.1389  0.2840  0.2715
 3784SOL     hw15134   4.375   0.841   5.121  0.2656 -0.2772 -0.5357
 3784SOL     hw15135   4.441   0.894   4.995 -0.8675  0.7607 -0.7046
 3784SOL     vw15136   4.391   0.906   5.066  0.0229  0.2729  0.0365
 3785SOL     ow15137   1.902   1.414   2.179  0.1379  0.0372  0.3206
 3785SOL     hw15138   1.841   1.484   2.198  0.5751  0.7201 -0.6844
 3785SOL     hw15139   1.974   1.457   2.133  1.2780 -0.7815  1.2839
 3785SOL     vw15140   1.903   1.429   2.175  0.3461  0.0193  0.3152
 3786SOL     ow15141   5.402   3.776   6.971 -0.0810  0.8337 -0.3343
 3786SOL     hw15142   5.434   3.738   6.889 -1.1695 -1.4048  0.2268
 3786SOL     hw15143   5.336   3.715   7.002 -0.4492  2.1801  1.7010
 3786SOL     vw15144   5.398   3.763   6.964 -0.2730  0.7161  0.0081
 3787SOL     ow15145   0.371   6.267   4.104 -0.1879 -0.1731 -0.0187
 3787SOL     hw15146   0.328   6.259   4.018 -1.6834  0.0748  0.6840
 3787SOL     hw15147   0.431   6.341   4.093 -1.7462  1.1033 -0.3312
 3787SOL     vw15148   0.373   6.275   4.091 -0.5908  0.0284  0.0327
 3788SOL     ow15149   4.803   5.748   2.415  0.2838 -0.0641 -0.0259
 3788SOL     hw15150   4.720   5.725   2.456  0.0559 -0.0808 -0.4884
 3788SOL     hw15151   4.818   5.839   2.438 -1.3775  0.9054 -2.4039
 3788SOL     vw15152   4.794   5.757   2.423  0.0346  0.0618 -0.4005
 3789SOL     ow15153   7.116   6.446   0.004  0.6644 -0.1802 -0.0115
 3789SOL     hw15154   7.124   6.532  -0.037 -0.0031  0.0528  0.3243
 3789SOL     hw15155   7.096   6.387  -0.069  2.0026 -0.2153 -0.3720
 3789SOL     vw15156   7.114   6.450  -0.011  0.7529 -0.1543 -0.0150
 3790SOL     ow15157   7.348   2.934   1.126 -0.2127  0.1399  0.1882
 3790SOL     hw15158   7.372   2.994   1.198  1.6894 -0.8943  0.4919
 3790SOL     hw15159   7.390   2.973   1.049  0.1482 -0.2350  0.1924
 3790SOL     vw15160   7.357   2.947   1.125  0.0856 -0.0460  0.2289
 3791SOL     ow15161   3.181   5.155   4.558  0.1664  0.1895 -0.5225
 3791SOL     hw15162   3.252   5.214   4.581  0.3116 -0.1418 -0.1139
 3791SOL     hw15163   3.194   5.078   4.613 -0.6805  0.2444 -0.2302
 3791SOL     vw15164   3.192   5.153   4.568  0.0739  0.1528 -0.4299
 3792SOL     ow15165   4.550   3.885   1.874  0.0997  0.1633  0.1183
 3792SOL     hw15166   4.462   3.880   1.839  0.2417 -0.3583 -0.1780
 3792SOL     hw15167   4.579   3.975   1.856  0.2564 -0.1499 -1.3137
 3792SOL     vw15168   4.542   3.896   1.867  0.1390  0.0532 -0.1097
 3793SOL     ow15169   4.549   4.065   7.252 -0.5246  0.0401  0.1132
 3793SOL     hw15170   4.607   4.136   7.280 -0.3348  0.0431 -0.2837
 3793SOL     hw15171   4.585   4.036   7.168  0.3511 -1.5667  0.9810
 3793SOL     vw15172   4.562   4.071   7.245 -0.3841 -0.1717  0.1752
 3794SOL     ow15173   0.300   1.713   4.727  0.1598  0.0756  0.0193
 3794SOL     hw15174   0.266   1.724   4.816 -1.6258  0.8144 -0.7031
 3794SOL     hw15175   0.270   1.791   4.680  1.2437 -0.2047 -1.1924
 3794SOL     vw15176   0.291   1.725   4.732  0.0672  0.1361 -0.2360
 3795SOL     ow15177   0.701   1.465   0.350 -0.3422 -0.4797  0.9309
 3795SOL     hw15178   0.651   1.512   0.417  0.0026  1.0719  0.1365
 3795SOL     hw15179   0.792   1.489   0.366 -0.0340 -1.6903  1.1161
 3795SOL     vw15180   0.706   1.474   0.361 -0.2560 -0.4346  0.8505
 3796SOL     ow15181   7.417   5.074   3.655 -1.2498 -0.2086 -0.4484
 3796SOL     hw15182   7.442   5.166   3.660 -2.1402  0.0306 -0.1224
 3796SOL     hw15183   7.391   5.061   3.564 -1.3306 -0.0717 -0.4456
 3796SOL     vw15184   7.417   5.085   3.644 -1.3781 -0.1590 -0.4050
 3797SOL     ow15185   0.856   6.384   0.048 -0.1709  0.2047 -0.0572
 3797SOL     hw15186   0.914   6.358  -0.023  1.3691  0.1770  1.1671
 3797SOL     hw15187   0.769   6.358   0.018  0.6310 -1.2875 -1.2352
 3797SOL     vw15188   0.852   6.377   0.034  0.1381  0.0045 -0.0511
 3798SOL     ow15189   2.536   0.306   4.831 -0.1154 -0.1698 -0.1531
 3798SOL     hw15190   2.474   0.375   4.852  0.5140  0.6826 -1.0158
 3798SOL     hw15191   2.559   0.268   4.916 -0.1057  1.0134  0.3902
 3798SOL     vw15192   2.531   0.310   4.845 -0.0311  0.0988 -0.1950
 3799SOL     ow15193   4.463   0.239   2.313 -0.0867 -0.5063  0.3617
 3799SOL     hw15194   4.466   0.161   2.259 -0.4253 -0.7183  0.6501
 3799SOL     hw15195   4.519   0.218   2.388  1.0699  0.0903 -0.2907
 3799SOL     vw15196   4.471   0.226   2.316  0.0212 -0.4556  0.3135
 3800SOL     ow15197   6.359   0.649   6.904  0.0271  0.0394  0.1029
 3800SOL     hw15198   6.396   0.675   6.988 -2.0868 -0.9935  1.4575
 3800SOL     hw15199   6.325   0.730   6.866 -1.6417  0.1755  1.7063
 3800SOL     vw15200   6.359   0.663   6.910 -0.4718 -0.0789  0.4933
 3801SOL     ow15201   5.401   2.645   5.264  0.3510  0.0504  0.6393
 3801SOL     hw15202   5.437   2.571   5.215 -0.2851  0.9088 -1.2043
 3801SOL     hw15203   5.366   2.606   5.344 -2.6244 -2.2183 -1.5122
 3801SOL     vw15204   5.401   2.630   5.268 -0.1254 -0.1357  0.1125
 3802SOL     ow15205   6.670   0.418   4.334  0.4353 -0.0223  0.2198
 3802SOL     hw15206   6.757   0.385   4.361  0.1528 -2.3787 -1.4570
 3802SOL     hw15207   6.619   0.418   4.415  1.2976 -1.0660  0.7935
 3802SOL     vw15208   6.675   0.414   4.348  0.5116 -0.4709  0.0744
 3803SOL     ow15209   2.972   7.106   4.196  0.3018 -0.2267 -0.0721
 3803SOL     hw15210   2.977   7.151   4.281  0.6390 -0.1381 -0.1366
 3803SOL     hw15211   2.888   7.133   4.160 -0.2535 -0.9752  0.6253
 3803SOL     vw15212   2.961   7.116   4.203  0.2731 -0.3138  0.0114
 3804SOL     ow15213   6.039   7.127   1.712  0.5023  0.0455  0.1340
 3804SOL     hw15214   6.107   7.072   1.671 -0.7607 -1.9516  0.5959
 3804SOL     hw15215   6.078   7.215   1.714  2.4330 -0.7081 -1.0639
 3804SOL     vw15216   6.053   7.131   1.707  0.5903 -0.3173  0.0368
 3805SOL     ow15217   0.177   2.460   4.063 -0.3980  0.5019  0.6050
 3805SOL     hw15218   0.151   2.368   4.072  0.4865 -0.1418 -2.3213
 3805SOL     hw15219   0.271   2.460   4.079 -0.0253  0.4637 -1.2835
 3805SOL     vw15220   0.186   2.448   4.066 -0.2322  0.4119 -0.0303
 3806SOL     ow15221   2.625   7.049   3.164 -0.1352 -0.0500  0.1001
 3806SOL     hw15222   2.660   7.093   3.241 -1.0430 -0.7569  0.9423
 3806SOL     hw15223   2.637   7.112   3.093 -2.5294  2.1458  1.4721
 3806SOL     vw15224   2.631   7.063   3.165 -0.5708  0.1464  0.3922
 3807SOL     ow15225   4.183   0.892   4.751 -0.3641  0.1879 -0.2448
 3807SOL     hw15226   4.177   0.798   4.735 -0.4695  0.0447  0.5974
 3807SOL     hw15227   4.253   0.922   4.693  1.0284 -0.7539  0.8749
 3807SOL     vw15228   4.192   0.883   4.741 -0.1945  0.0448  0.0141
 3808SOL     ow15229   4.530   2.526   4.857 -0.0556 -0.1818 -0.1596
 3808SOL     hw15230   4.552   2.433   4.863 -0.1279 -0.3960 -2.3953
 3808SOL     hw15231   4.613   2.571   4.874  0.5795 -0.7605 -1.6038
 3808SOL     vw15232   4.544   2.520   4.860  0.0186 -0.2865 -0.6449
 3809SOL     ow15233   3.680   7.413   4.316 -0.1085  0.0858  0.0858
 3809SOL     hw15234   3.741   7.480   4.344  0.0202 -0.9534  2.5299
 3809SOL     hw15235   3.716   7.380   4.234  1.6133  0.7473  0.5384
 3809SOL     vw15236   3.693   7.418   4.309  0.1355  0.0360  0.4675
 3810SOL     ow15237   4.576   4.193   2.004 -0.3180 -0.3515  0.0913
 3810SOL     hw15238   4.534   4.277   1.984 -0.2992 -0.2784  0.3511
 3810SOL     hw15239   4.664   4.217   2.034 -0.1237 -0.4989 -0.3620
 3810SOL     vw15240   4.582   4.207   2.005 -0.2902 -0.3614  0.0658
 3811SOL     ow15241   1.561   6.821   0.068  0.1169 -0.1952  0.0993
 3811SOL     hw15242   1.470   6.816   0.097 -0.0049 -0.2028 -0.2744
 3811SOL     hw15243   1.568   6.906   0.026 -0.1024 -0.7612 -1.1271
 3811SOL     vw15244   1.550   6.831   0.066  0.0719 -0.2708 -0.1118
 3812SOL     ow15245   5.072   6.334   5.332  0.4030 -0.4006  0.2873
 3812SOL     hw15246   5.079   6.428   5.349 -0.3705 -0.4165  0.7631
 3812SOL     hw15247   5.026   6.328   5.248 -0.4393 -0.3530  0.7363
 3812SOL     vw15248   5.067   6.345   5.323  0.1898 -0.3965  0.4091
 3813SOL     ow15249   5.057   3.635   6.217 -0.3982  0.1255 -0.3857
 3813SOL     hw15250   5.090   3.577   6.285 -4.3825 -0.9648  0.8809
 3813SOL     hw15251   5.072   3.589   6.135  0.0297 -0.8753  0.2467
 3813SOL     vw15252   5.063   3.621   6.215 -0.8674 -0.1503 -0.1352
 3814SOL     ow15253   7.021   6.779   1.367 -0.2141 -0.0276 -0.0135
 3814SOL     hw15254   7.116   6.785   1.357 -0.1635 -1.3284 -0.4729
 3814SOL     hw15255   7.009   6.744   1.456 -0.2616  0.2369  0.0831
 3814SOL     vw15256   7.032   6.775   1.377 -0.2134 -0.1643 -0.0615
 3815SOL     ow15257   2.502   0.929   5.685  0.0946 -0.2486  0.2735
 3815SOL     hw15258   2.573   0.980   5.724 -0.9592  0.9013  0.7474
 3815SOL     hw15259   2.473   0.871   5.756  0.5651 -0.7420  0.0697
 3815SOL     vw15260   2.508   0.928   5.700  0.0178 -0.1620  0.3095
 3816SOL     ow15261   7.186   5.199   5.451 -0.0592  0.1926  0.0195
 3816SOL     hw15262   7.163   5.250   5.529  0.3299 -0.0278  0.2783
 3816SOL     hw15263   7.219   5.116   5.485  1.5930  0.6799 -0.3312
 3816SOL     vw15264   7.187   5.195   5.466  0.2100  0.2279  0.0076
 3817SOL     ow15265   1.761   0.965   1.416 -0.2687  0.2599 -0.0795
 3817SOL     hw15266   1.824   1.038   1.411 -2.2857  2.1791  0.9202
 3817SOL     hw15267   1.771   0.931   1.505 -0.1313  0.0845 -0.1624
 3817SOL     vw15268   1.771   0.970   1.427 -0.5167  0.4900  0.0415
 3818SOL     ow15269   6.057   1.338   4.047  0.1902  0.7352 -0.2952
 3818SOL     hw15270   6.003   1.389   4.107 -0.0681  1.0286 -0.7739
 3818SOL     hw15271   5.997   1.308   3.979  0.4566  0.3018 -0.3435
 3818SOL     vw15272   6.042   1.341   4.046  0.1912  0.7167 -0.3648
 3819SOL     ow15273   2.542   0.014   4.076 -0.2936 -0.9807  0.0278
 3819SOL     hw15274   2.564   0.107   4.077 -1.4080 -0.6697 -1.4321
 3819SOL     hw15275   2.549  -0.011   3.984 -1.1654 -2.0420  0.2382
 3819SOL     vw15276   2.546   0.023   4.064 -0.5555 -1.0796 -0.1373
 3820SOL     ow15277   0.606   6.669   4.809 -0.2604  0.5280  0.4858
 3820SOL     hw15278   0.592   6.747   4.754 -1.5734 -0.3865 -0.5396
 3820SOL     hw15279   0.596   6.595   4.749  0.8118 -0.4514  1.4683
 3820SOL     vw15280   0.603   6.670   4.794 -0.2921  0.2780  0.4799
 3821SOL     ow15281   5.301   0.196   0.644  0.4147 -0.5691  0.0207
 3821SOL     hw15282   5.282   0.112   0.685 -0.6765 -0.4609 -0.2438
 3821SOL     hw15283   5.219   0.223   0.603  0.7649  0.5880  0.0273
 3821SOL     vw15284   5.288   0.189   0.644  0.3171 -0.4022 -0.0133
 3822SOL     ow15285   6.369   3.724   5.163  0.4478  0.1080 -0.0751
 3822SOL     hw15286   6.295   3.664   5.152 -0.8819  1.6327  0.0895
 3822SOL     hw15287   6.373   3.740   5.257 -0.6080  1.8739 -0.2861
 3822SOL     vw15288   6.359   3.718   5.174  0.1328  0.5422 -0.0813
 3823SOL     ow15289   7.150   5.268   1.547 -0.5238 -0.4098 -0.8858
 3823SOL     hw15290   7.171   5.181   1.513  1.4092 -0.3887  0.1294
 3823SOL     hw15291   7.054   5.272   1.546 -0.7582 -3.1991  0.5874
 3823SOL     vw15292   7.140   5.257   1.543 -0.2995 -0.7749 -0.5575
 3824SOL     ow15293   2.074   4.064   5.394 -0.4645 -0.7840  0.1504
 3824SOL     hw15294   1.992   4.101   5.428 -0.9171  3.1488 -4.1989
 3824SOL     hw15295   2.046   3.995   5.333 -0.4466 -0.5480 -0.1270
 3824SOL     vw15296   2.059   4.060   5.390 -0.5219 -0.2339 -0.4599
 3825SOL     ow15297   2.434   7.113   3.883  0.2346 -0.1357 -0.2318
 3825SOL     hw15298   2.424   7.206   3.900 -0.7601 -0.1313 -0.7575
 3825SOL     hw15299   2.447   7.074   3.969 -0.5286  0.3626  0.1173
 3825SOL     vw15300   2.435   7.120   3.896  0.0026 -0.0694 -0.2551
 3826SOL     ow15301   0.449   1.700   6.403  0.2181  0.6819  0.5086
 3826SOL     hw15302   0.400   1.781   6.416  0.0017  0.8226 -0.9573
 3826SOL     hw15303   0.498   1.688   6.485  0.1658  2.2260  0.8068
 3826SOL     vw15304   0.449   1.709   6.415  0.1826  0.9041  0.3543
 3827SOL     ow15305   3.022   7.110   1.119  0.5179  1.2041  0.1659
 3827SOL     hw15306   2.957   7.180   1.122 -0.9764 -0.0971 -0.8994
 3827SOL     hw15307   3.096   7.148   1.071  0.6612  2.7247  1.4885
 3827SOL     vw15308   3.023   7.124   1.113  0.3395  1.2326  0.1999
 3828SOL     ow15309   7.161   6.104   4.208 -0.1254  0.2201  0.3782
 3828SOL     hw15310   7.203   6.163   4.270 -1.4590  3.0450 -1.2352
 3828SOL     hw15311   7.234   6.063   4.161  0.8392  0.8466  1.2907
 3828SOL     vw15312   7.176   6.106   4.210 -0.1743  0.6754  0.2856
 3829SOL     ow15313   4.876   0.267   1.814 -0.4543  0.6159  0.6473
 3829SOL     hw15314   4.941   0.213   1.859 -1.8726 -1.9651 -0.2211
 3829SOL     hw15315   4.793   0.244   1.855 -1.8461 -1.9899 -3.1516
 3829SOL     vw15316   4.874   0.257   1.826 -0.8249 -0.0684  0.0316
 3830SOL     ow15317   5.897   3.491   3.946 -0.0532  0.0540 -0.8752
 3830SOL     hw15318   5.858   3.409   3.977 -0.2701 -1.5497 -4.8046
 3830SOL     hw15319   5.990   3.484   3.970 -0.4536 -0.2463  0.7313
 3830SOL     vw15320   5.904   3.479   3.953 -0.1347 -0.1972 -1.1817
 3831SOL     ow15321   6.373   5.267   0.248  0.3024 -0.0637 -0.0959
 3831SOL     hw15322   6.434   5.244   0.318 -0.1159 -2.3109 -0.4079
 3831SOL     hw15323   6.429   5.301   0.178  0.7705  1.7336  1.0814
 3831SOL     vw15324   6.389   5.269   0.248  0.3090 -0.1233  0.0183
 3832SOL     ow15325   3.682   2.957   2.794 -0.0240 -0.0923 -0.0693
 3832SOL     hw15326   3.593   2.946   2.761  0.2229 -0.7233 -0.5543
 3832SOL     hw15327   3.695   2.882   2.853 -0.3428  0.8403  1.2413
 3832SOL     vw15328   3.672   2.946   2.798 -0.0336 -0.0525  0.0397
 3833SOL     ow15329   1.909   2.015   4.560  0.2161 -0.3600 -0.2884
 3833SOL     hw15330   1.834   1.960   4.583 -1.1377  0.6038 -2.1268
 3833SOL     hw15331   1.877   2.104   4.572  1.4482  0.0732 -0.0886
 3833SOL     vw15332   1.895   2.020   4.565  0.2000 -0.1757 -0.5045
 3834SOL     ow15333   4.621   0.669   3.682 -0.5236  0.2419 -0.3950
 3834SOL     hw15334   4.545   0.615   3.661 -0.4768 -0.5020  1.2580
 3834SOL     hw15335   4.620   0.738   3.615 -3.2621  0.8900  0.1820
 3834SOL     vw15336   4.611   0.671   3.670 -0.8788  0.2293 -0.1007
 3835SOL     ow15337   0.330   4.583   4.229  0.1365  0.2099 -0.2029
 3835SOL     hw15338   0.317   4.510   4.168  0.6683  1.4736 -1.9262
 3835SOL     hw15339   0.423   4.604   4.222 -0.2134  1.7727 -0.6534
 3835SOL     vw15340   0.341   4.576   4.220  0.1605  0.5827 -0.4897
 3836SOL     ow15341   6.951   0.146   3.446  0.7049 -0.8495  0.5045
 3836SOL     hw15342   6.994   0.154   3.361  2.7280 -0.9996  1.4597
 3836SOL     hw15343   6.970   0.229   3.490  0.4981 -1.1447  1.1583
 3836SOL     vw15344   6.959   0.158   3.441  0.9446 -0.9082  0.7168
 3837SOL     ow15345   7.449   2.871   1.772 -0.2959  0.8808  0.8432
 3837SOL     hw15346   7.466   2.959   1.807 -0.1816  0.8178  0.9494
 3837SOL     hw15347   7.528   2.821   1.794  0.3694  1.1970 -0.7206
 3837SOL     vw15348   7.461   2.876   1.780 -0.1926  0.9142  0.6509
 3838SOL     ow15349   4.714   4.208   3.894  0.6798  0.6665 -0.5603
 3838SOL     hw15350   4.746   4.221   3.984 -1.6025 -2.4945  0.9010
 3838SOL     hw15351   4.625   4.242   3.895  0.3052 -0.2345 -1.3081
 3838SOL     vw15352   4.706   4.214   3.906  0.3295  0.1304 -0.4661
 3839SOL     ow15353   5.971   4.867   2.129  0.0582  0.0600  0.0068
 3839SOL     hw15354   5.942   4.959   2.125  0.4468  0.1911  0.1682
 3839SOL     hw15355   5.922   4.830   2.202  0.1495  0.2285  0.1543
 3839SOL     vw15356   5.961   4.874   2.138  0.1216  0.0994  0.0476
 3840SOL     ow15357   0.111   4.705   3.941 -0.2295  0.0458  0.0089
 3840SOL     hw15358   0.111   4.713   4.036 -0.8094 -1.6173  0.1894
 3840SOL     hw15359   0.137   4.614   3.925 -0.3206  0.2465 -1.4266
 3840SOL     vw15360   0.115   4.694   3.952 -0.3181 -0.1473 -0.1568
 3841SOL     ow15361   7.090   7.181   1.484  0.3747  0.0966 -0.4821
 3841SOL     hw15362   7.133   7.182   1.570  3.8313  0.0396 -2.0384
 3841SOL     hw15363   7.115   7.096   1.446 -0.7514  0.2850 -1.6998
 3841SOL     vw15364   7.099   7.170   1.491  0.6824  0.1137 -0.8481
 3842SOL     ow15365   0.077   0.126   4.784  0.2157 -0.4076 -0.5961
 3842SOL     hw15366   0.165   0.102   4.756  0.4922  1.1865 -1.1746
 3842SOL     hw15367   0.089   0.169   4.868 -0.2025 -1.5890  0.0959
 3842SOL     vw15368   0.090   0.128   4.791  0.1970 -0.3532 -0.5813
 3843SOL     ow15369   2.277   0.100   5.032  0.0241 -0.2101  0.1849
 3843SOL     hw15370   2.370   0.086   5.044  0.0297 -1.0755 -0.7702
 3843SOL     hw15371   2.251   0.152   5.108  0.8265 -1.9379  1.7306
 3843SOL     vw15372   2.285   0.105   5.044  0.1308 -0.5523  0.2630
 3844SOL     ow15373   1.689   0.144   1.231 -0.2653 -0.0154  0.6496
 3844SOL     hw15374   1.628   0.188   1.172  2.5208  1.2346 -1.5257
 3844SOL     hw15375   1.733   0.215   1.278  0.2054 -0.8076  1.4334
 3844SOL     vw15376   1.687   0.159   1.229  0.1644  0.0450  0.4660
 3845SOL     ow15377   0.335   0.083   4.707  0.1144 -0.5549 -0.8471
 3845SOL     hw15378   0.362   0.119   4.791  0.7518  0.4394 -1.4552
 3845SOL     hw15379   0.416   0.052   4.667  0.1565  0.8799 -1.9564
 3845SOL     vw15380   0.349   0.084   4.713  0.2041 -0.2344 -1.0741
 3846SOL     ow15381   3.941   6.180   2.426  0.5492  0.1785  0.0501
 3846SOL     hw15382   4.000   6.245   2.464 -1.3417  2.6221 -0.9331
 3846SOL     hw15383   3.892   6.146   2.500  0.3290  1.2177  0.3940
 3846SOL     vw15384   3.943   6.184   2.441  0.2706  0.6380 -0.0343
 3847SOL     ow15385   7.398   3.059   5.073 -0.3990  0.3082 -0.5756
 3847SOL     hw15386   7.464   3.020   5.016 -0.1521 -0.4940  0.2311
 3847SOL     hw15387   7.424   3.151   5.080  1.4946 -0.2620  0.8187
 3847SOL     vw15388   7.410   3.066   5.067 -0.1166  0.1273 -0.2854
 3848SOL     ow15389   2.953   5.168   1.973  0.1416  0.3280 -0.1182
 3848SOL     hw15390   2.919   5.100   2.031  0.1004 -0.5824 -1.1674
 3848SOL     hw15391   2.875   5.209   1.935  0.1074 -1.6804 -2.4335
 3848SOL     vw15392   2.939   5.165   1.975  0.1318 -0.0572 -0.5621
 3849SOL     ow15393   4.885   6.365   2.216 -0.8311  0.3779 -0.3475
 3849SOL     hw15394   4.906   6.387   2.125  3.8946  0.4620  0.5226
 3849SOL     hw15395   4.868   6.449   2.258 -1.2598  0.5062 -0.7648
 3849SOL     vw15396   4.885   6.379   2.209 -0.2642  0.4060 -0.2878
 3850SOL     ow15397   5.109   5.771   7.234 -0.2515 -0.8513  0.2488
 3850SOL     hw15398   5.141   5.772   7.143  0.3781  0.9403  0.4575
 3850SOL     hw15399   5.101   5.678   7.255  2.9698 -1.4073 -0.4989
 3850SOL     vw15400   5.112   5.759   7.225  0.2565 -0.6883  0.1779
 3851SOL     ow15401   6.082   0.460   1.862 -0.6840 -0.7557 -0.3830
 3851SOL     hw15402   6.058   0.534   1.918 -0.3516 -0.2806 -0.8588
 3851SOL     hw15403   6.079   0.384   1.920  2.0062  0.0201  0.9594
 3851SOL     vw15404   6.079   0.460   1.877 -0.2854 -0.5907 -0.2686
 3852SOL     ow15405   6.576   0.465   0.165  0.6967 -0.1191 -0.6385
 3852SOL     hw15406   6.494   0.461   0.115 -0.1068 -0.4581  0.6620
 3852SOL     hw15407   6.641   0.426   0.106  0.1561  1.0227 -2.0727
 3852SOL     vw15408   6.574   0.459   0.150  0.5190 -0.0132 -0.6562
 3853SOL     ow15409   5.253   2.241   2.438  0.4751  0.1678 -0.6557
 3853SOL     hw15410   5.212   2.234   2.351 -0.2990 -0.1406 -0.2750
 3853SOL     hw15411   5.315   2.168   2.441  1.5790  1.0433 -1.5015
 3853SOL     vw15412   5.256   2.230   2.427  0.5188  0.2426 -0.7172
 3854SOL     ow15413   4.786   3.765   2.125 -0.0428 -0.1065  0.6398
 3854SOL     hw15414   4.848   3.818   2.176  0.4254 -0.8469  0.8465
 3854SOL     hw15415   4.797   3.795   2.035 -0.3007  0.6481  0.8503
 3854SOL     vw15416   4.795   3.776   2.120 -0.0153 -0.1047  0.6949
 3855SOL     ow15417   5.101   6.260   2.803  0.2979 -0.6995  0.1506
 3855SOL     hw15418   5.150   6.239   2.883  0.4559  1.5580  0.7041
 3855SOL     hw15419   5.016   6.291   2.835 -0.2346 -1.3040 -0.6488
 3855SOL     vw15420   5.096   6.261   2.818  0.2487 -0.4814  0.1180
 3856SOL     ow15421   5.118   1.403   3.115 -0.0765  0.5261 -0.2983
 3856SOL     hw15422   5.072   1.468   3.167  1.4893  0.3802  1.3782
 3856SOL     hw15423   5.095   1.319   3.155  0.3203  0.3184 -0.4928
 3856SOL     vw15424   5.109   1.401   3.127  0.1824  0.4795 -0.1029
 3857SOL     ow15425   2.715   6.725   4.496 -0.3837  0.4163  0.7825
 3857SOL     hw15426   2.628   6.747   4.463  0.1939 -0.8488 -1.8588
 3857SOL     hw15427   2.770   6.718   4.417  1.6733 -0.6306  2.2060
 3857SOL     vw15428   2.711   6.727   4.481 -0.0360  0.1113  0.6220
 3858SOL     ow15429   1.883   2.341   6.107 -0.3401 -0.3844 -0.3497
 3858SOL     hw15430   1.828   2.320   6.182 -0.1569 -0.1574 -0.1479
 3858SOL     hw15431   1.972   2.341   6.142 -0.3177  0.5537 -0.3733
 3858SOL     vw15432   1.888   2.338   6.121 -0.3130 -0.2307 -0.3259
 3859SOL     ow15433   4.892   3.442   2.823  0.5063 -0.1266  0.2598
 3859SOL     hw15434   4.917   3.357   2.786 -0.0027  0.2569 -1.0224
 3859SOL     hw15435   4.852   3.489   2.750  0.4503  1.0880  1.0422
 3859SOL     vw15436   4.890   3.437   2.808  0.4318  0.0843  0.1940
 3860SOL     ow15437   1.751   0.976   2.783 -0.9286 -0.2681  0.6015
 3860SOL     hw15438   1.723   1.033   2.855 -0.7476 -1.0468  1.2981
 3860SOL     hw15439   1.837   1.009   2.758 -0.7258 -0.3744  1.1546
 3860SOL     vw15440   1.758   0.988   2.789 -0.8780 -0.3849  0.7664
 3861SOL     ow15441   0.129   4.880   3.693  0.3634  0.6280 -0.1026
 3861SOL     hw15442   0.150   4.872   3.599  0.1478 -0.3657 -0.0774
 3861SOL     hw15443   0.207   4.847   3.737  0.0053 -0.0223  0.0465
 3861SOL     vw15444   0.142   4.875   3.686  0.2877  0.4110 -0.0796
 3862SOL     ow15445   2.205   5.644   5.623 -0.2856 -0.3717  0.4860
 3862SOL     hw15446   2.232   5.730   5.655  0.4640 -0.5309  0.3059
 3862SOL     hw15447   2.178   5.660   5.532 -1.3371 -0.1183  0.8297
 3862SOL     vw15448   2.205   5.657   5.615 -0.3253 -0.3591  0.5078
 3863SOL     ow15449   7.043   5.357   5.632 -0.7206 -0.3706  0.6971
 3863SOL     hw15450   6.961   5.314   5.655 -1.0644 -0.2674 -0.2903
 3863SOL     hw15451   7.019   5.449   5.617 -0.2844 -0.1746  1.1534
 3863SOL     vw15452   7.029   5.364   5.633 -0.7083 -0.3309  0.6270
 3864SOL     ow15453   5.656   4.009   4.181 -0.4131 -0.3723 -0.4573
 3864SOL     hw15454   5.687   4.040   4.096  0.8226 -0.6966 -0.1481
 3864SOL     hw15455   5.694   4.070   4.245  0.9501 -1.6872  0.0530
 3864SOL     vw15456   5.665   4.021   4.179 -0.0703 -0.5887 -0.3493
 3865SOL     ow15457   3.759   5.214   7.341 -0.7363 -0.3613  0.7447
 3865SOL     hw15458   3.738   5.135   7.390 -2.3278  0.1574  0.9467
 3865SOL     hw15459   3.777   5.280   7.408  0.8715 -0.5710  0.5814
 3865SOL     vw15460   3.759   5.212   7.356 -0.7342 -0.3204  0.7498
 3866SOL     ow15461   2.079   7.377   4.665 -0.1546  0.1293  0.5660
 3866SOL     hw15462   2.095   7.335   4.749 -0.0460 -0.6864  0.1488
 3866SOL     hw15463   2.044   7.307   4.609 -0.6659  0.7645  0.0653
 3866SOL     vw15464   2.076   7.363   4.669 -0.2077  0.1056  0.4447
 3867SOL     ow15465   2.279   1.067   0.684 -0.4691 -0.3836 -0.8964
 3867SOL     hw15466   2.220   1.090   0.756  1.9200  0.6149  0.8639
 3867SOL     hw15467   2.310   1.151   0.651 -0.1938 -0.8878 -1.9402
 3867SOL     vw15468   2.275   1.081   0.689 -0.1174 -0.3184 -0.8019
 3868SOL     ow15469   2.272   5.165   5.583 -0.1658 -0.2822 -0.0184
 3868SOL     hw15470   2.343   5.111   5.548 -0.0302  0.2942 -0.6595
 3868SOL     hw15471   2.198   5.106   5.590  0.4378 -0.9597  0.8902
 3868SOL     vw15472   2.272   5.150   5.579 -0.0683 -0.2956  0.0169
 3869SOL     ow15473   1.570   4.801   1.750  0.2371  0.0929  0.2642
 3869SOL     hw15474   1.637   4.851   1.704 -0.2313  0.3004 -0.2030
 3869SOL     hw15475   1.575   4.832   1.840  0.9400 -0.0773  0.2855
 3869SOL     vw15476   1.579   4.812   1.756  0.2681  0.0978  0.2053
 3870SOL     ow15477   4.341   5.826   2.184  0.1283  0.1305 -0.0869
 3870SOL     hw15478   4.271   5.868   2.133  0.6393 -0.8758 -1.7050
 3870SOL     hw15479   4.335   5.866   2.271  0.1185  2.9577 -1.2832
 3870SOL     vw15480   4.331   5.837   2.189  0.1945  0.3707 -0.4584
 3871SOL     ow15481   2.491   1.030   1.801 -0.1751  0.3420 -0.2442
 3871SOL     hw15482   2.441   0.953   1.831 -0.6399  0.2432 -1.2468
 3871SOL     hw15483   2.545   1.054   1.877 -0.4049 -0.6564  0.2558
 3871SOL     vw15484   2.491   1.023   1.815 -0.2668  0.1973 -0.3105
 3872SOL     ow15485   5.293   5.278   6.203  0.0421 -0.0789 -0.8120
 3872SOL     hw15486   5.365   5.225   6.237  0.4202  0.1953 -1.1669
 3872SOL     hw15487   5.220   5.262   6.262  1.0454  1.4143  0.9444
 3872SOL     vw15488   5.293   5.269   6.215  0.2246  0.1543 -0.6270
 3873SOL     ow15489   2.356   3.350   5.573  0.8231  0.0039  0.0276
 3873SOL     hw15490   2.330   3.299   5.649 -0.4284  1.2468  0.4922
 3873SOL     hw15491   2.450   3.335   5.564  0.6011 -1.8876  0.4742
 3873SOL     vw15492   2.365   3.341   5.582  0.6287 -0.0817  0.1481
 3874SOL     ow15493   6.052   1.106   4.354 -0.0557  0.2009 -0.3460
 3874SOL     hw15494   6.066   1.021   4.397  1.2460  0.9702  0.8483
 3874SOL     hw15495   6.005   1.085   4.273  0.9160 -1.7431 -0.4632
 3874SOL     vw15496   6.048   1.092   4.349  0.2444  0.0459 -0.2041
 3875SOL     ow15497   3.329   2.749   7.217 -0.1663  0.8238  0.2306
 3875SOL     hw15498   3.407   2.803   7.227 -0.5487  1.9206 -2.1353
 3875SOL     hw15499   3.256   2.806   7.242 -0.3233  0.1442  1.4001
 3875SOL     vw15500   3.330   2.764   7.222 -0.2375  0.8788  0.0727
 3876SOL     ow15501   2.366   2.881   4.808 -0.3350 -0.8341  0.2811
 3876SOL     hw15502   2.322   2.965   4.793 -1.4796 -1.1867  1.4778
 3876SOL     hw15503   2.339   2.826   4.735  0.1140 -0.2827 -0.3067
 3876SOL     vw15504   2.357   2.885   4.797 -0.4269 -0.8078  0.3614
 3877SOL     ow15505   6.872   6.177   0.043 -0.4649 -0.2571  0.8154
 3877SOL     hw15506   6.785   6.180   0.003  0.4353 -1.8014 -1.5185
 3877SOL     hw15507   6.901   6.087   0.028  2.8982  1.0458 -1.7513
 3877SOL     vw15508   6.864   6.165   0.036  0.0978 -0.2887  0.1688
 3878SOL     ow15509   2.346   5.394   5.716 -0.1099 -0.1871 -0.0462
 3878SOL     hw15510   2.333   5.319   5.658 -1.1144  2.0027 -2.8998
 3878SOL     hw15511   2.412   5.448   5.672 -0.5208  1.3256  1.0991
 3878SOL     vw15512   2.353   5.391   5.703 -0.2966  0.3016 -0.2718
 3879SOL     ow15513   4.856   4.243   2.011 -0.2580 -0.5497 -0.0186
 3879SOL     hw15514   4.923   4.303   1.978  0.4706 -0.3998  1.6231
 3879SOL     hw15515   4.851   4.173   1.946 -0.8699  1.0653 -1.8098
 3879SOL     vw15516   4.864   4.242   1.998 -0.2425 -0.3169 -0.0382
 3880SOL     ow15517   7.118   2.164   6.347 -1.1025  0.3178 -0.0871
 3880SOL     hw15518   7.096   2.093   6.286  0.6653  1.0313 -1.6654
 3880SOL     hw15519   7.164   2.228   6.292  0.7676  0.9105  2.0342
 3880SOL     vw15520   7.121   2.163   6.331 -0.6225  0.4902 -0.0155
 3881SOL     ow15521   0.838   5.257   5.487  0.0642 -0.3704 -0.1386
 3881SOL     hw15522   0.850   5.350   5.468 -0.2208 -0.2109  0.4289
 3881SOL     hw15523   0.926   5.226   5.510  0.4230 -0.5841 -1.7308
 3881SOL     vw15524   0.852   5.265   5.488  0.0739 -0.3772 -0.2737
 3882SOL     ow15525   6.859   6.499   3.196 -0.3505  0.3540  0.5124
 3882SOL     hw15526   6.941   6.540   3.223 -0.3020  0.2315  0.5483
 3882SOL     hw15527   6.801   6.573   3.177  0.7507  0.5869 -2.6592
 3882SOL     vw15528   6.862   6.514   3.197 -0.1988  0.3688  0.0987
 3883SOL     ow15529   1.143   3.950   2.643  0.2270 -0.5761 -0.5721
 3883SOL     hw15530   1.233   3.919   2.630  0.7166  0.4206  0.2501
 3883SOL     hw15531   1.149   4.008   2.719 -0.8650  0.5871 -1.3342
 3883SOL     vw15532   1.156   3.953   2.652  0.1475 -0.2912 -0.5642
 3884SOL     ow15533   1.340   5.982   4.341  0.2011  0.1297 -0.2230
 3884SOL     hw15534   1.287   5.966   4.263  2.3526  0.0939 -1.7680
 3884SOL     hw15535   1.342   5.898   4.387  0.1003 -0.2437 -0.8892
 3884SOL     vw15536   1.333   5.969   4.336  0.4716  0.0758 -0.5147
 3885SOL     ow15537   4.560   4.603   1.532  0.0784  0.6328  0.6695
 3885SOL     hw15538   4.608   4.676   1.569  1.9919  0.1206 -0.6659
 3885SOL     hw15539   4.548   4.626   1.439  0.5336 -0.6403  0.2782
 3885SOL     vw15540   4.565   4.615   1.524  0.3908  0.3974  0.4417
 3886SOL     ow15541   1.937   6.238   2.013  0.3960 -0.3847  0.6857
 3886SOL     hw15542   1.866   6.294   1.981  2.1898  0.5584 -2.1208
 3886SOL     hw15543   1.971   6.283   2.089 -1.7956 -0.7640  1.9810
 3886SOL     vw15544   1.932   6.251   2.019  0.3435 -0.3102  0.4863
 3887SOL     ow15545   5.702   3.068   1.844 -0.1345  0.3063 -0.1463
 3887SOL     hw15546   5.730   2.977   1.856  0.7002  0.6168  0.3533
 3887SOL     hw15547   5.658   3.091   1.926  0.4912  0.6398  0.1029
 3887SOL     vw15548   5.700   3.059   1.856  0.0582  0.3912 -0.0475
 3888SOL     ow15549   5.548   5.534   4.745  0.2724 -0.3193 -0.3092
 3888SOL     hw15550   5.469   5.588   4.746  1.9972  2.5493  3.0229
 3888SOL     hw15551   5.611   5.584   4.693  0.3344 -2.0545 -2.0165
 3888SOL     vw15552   5.546   5.548   4.738  0.5083 -0.1695 -0.0949
 3889SOL     ow15553   0.657   6.872   2.270 -0.8098  0.1311  0.3578
 3889SOL     hw15554   0.658   6.783   2.304  2.5593  0.5223  1.5745
 3889SOL     hw15555   0.711   6.869   2.192 -1.9031  0.8694 -0.4692
 3889SOL     vw15556   0.664   6.860   2.264 -0.5096  0.2801  0.4092
 3890SOL     ow15557   3.333   3.091   2.979  0.5348 -0.0270  0.4155
 3890SOL     hw15558   3.421   3.129   2.976  1.0242 -1.0458  1.3619
 3890SOL     hw15559   3.337   3.018   2.918  0.7191 -0.8022  1.3344
 3890SOL     vw15560   3.345   3.087   2.970  0.6237 -0.2636  0.6616
 3891SOL     ow15561   2.206   5.384   0.094 -0.0802  0.0550  0.2382
 3891SOL     hw15562   2.208   5.323   0.021 -0.6376  0.0233  0.2410
 3891SOL     hw15563   2.248   5.463   0.061 -0.2095 -0.0054 -0.0764
 3891SOL     vw15564   2.212   5.386   0.080 -0.1707  0.0429  0.1971
 3892SOL     ow15565   5.989   3.114   7.269  0.6489  0.0890 -0.1822
 3892SOL     hw15566   5.934   3.192   7.263  3.2084  1.8660 -2.8628
 3892SOL     hw15567   6.056   3.136   7.333  0.1071 -0.8830  0.7684
 3892SOL     vw15568   5.990   3.127   7.277  0.9153  0.1954 -0.4106
 3893SOL     ow15569   5.359   0.120   3.045 -0.8573  0.0553  0.0133
 3893SOL     hw15570   5.308   0.164   2.978  1.3736  2.4870 -0.2386
 3893SOL     hw15571   5.332   0.161   3.127 -1.7778 -1.1538  0.3463
 3893SOL     vw15572   5.349   0.131   3.047 -0.6840  0.2166  0.0238
 3894SOL     ow15573   6.252   0.012   2.193 -0.6338 -0.1431  0.5057
 3894SOL     hw15574   6.331  -0.002   2.142  0.2561 -2.2657  2.2597
 3894SOL     hw15575   6.282   0.048   2.276 -1.6488  0.2397  0.7288
 3894SOL     vw15576   6.266   0.015   2.197 -0.6504 -0.3726  0.7665
 3895SOL     ow15577   0.435   4.847   1.877 -0.1347 -0.0602 -0.0015
 3895SOL     hw15578   0.503   4.790   1.914 -0.4636 -0.3188  0.2133
 3895SOL     hw15579   0.370   4.855   1.947 -0.7756 -0.5666 -0.5325
 3895SOL     vw15580   0.436   4.841   1.891 -0.2626 -0.1612 -0.0433
 3896SOL     ow15581   1.279   6.019   3.767  0.0953 -0.1065  0.2647
 3896SOL     hw15582   1.362   6.015   3.814  1.9350  1.0192 -2.5836
 3896SOL     hw15583   1.252   5.928   3.759  0.9563 -0.4859  1.4255
 3896SOL     vw15584   1.287   6.007   3.772  0.4516 -0.0081  0.0421
 3897SOL     ow15585   6.494   4.610   7.388  0.2402 -0.3939  0.1271
 3897SOL     hw15586   6.544   4.653   7.457 -0.4040  0.6386 -0.0313
 3897SOL     hw15587   6.550   4.615   7.311  1.5685 -2.7901  0.8423
 3897SOL     vw15588   6.508   4.616   7.387  0.3304 -0.5739  0.2005
 3898SOL     ow15589   1.473   2.002   1.488 -0.1736 -0.5594  0.0875
 3898SOL     hw15590   1.511   2.029   1.405  1.1171 -0.5902  0.6477
 3898SOL     hw15591   1.508   1.914   1.504  0.1859 -0.2739  0.9942
 3898SOL     vw15592   1.483   1.994   1.479  0.0441 -0.5258  0.2810
 3899SOL     ow15593   4.380   4.472   3.715  0.3832 -0.4619 -0.2350
 3899SOL     hw15594   4.412   4.522   3.639  0.2072  0.1787  0.1068
 3899SOL     hw15595   4.323   4.405   3.677  1.2731 -0.9330 -0.7653
 3899SOL     vw15596   4.377   4.470   3.700  0.4773 -0.4396 -0.2599
 3900SOL     ow15597   7.052   2.632   3.012  0.1827  0.3568  0.7059
 3900SOL     hw15598   7.081   2.681   2.934  0.6361  0.7777  1.1320
 3900SOL     hw15599   7.057   2.696   3.083 -1.3774  0.3169  0.8786
 3900SOL     vw15600   7.057   2.647   3.011  0.0365  0.4072  0.7848
 3901SOL     ow15601   5.388   3.300   1.462 -0.3749  0.3619 -0.6620
 3901SOL     hw15602   5.295   3.278   1.463 -1.0543  2.8384 -1.8591
 3901SOL     hw15603   5.391   3.392   1.488  1.9702 -0.1779  1.2782
 3901SOL     vw15604   5.376   3.309   1.465 -0.1550  0.6174 -0.5639
 3902SOL     ow15605   4.142   3.686   2.867  0.9268 -0.0958  0.0637
 3902SOL     hw15606   4.067   3.698   2.925  1.4984 -0.1846  0.8339
 3902SOL     hw15607   4.206   3.749   2.898  1.0170  0.2713 -0.8606
 3902SOL     vw15608   4.140   3.696   2.879  1.0142 -0.0590  0.0433
 3903SOL     ow15609   1.676   3.812   1.916 -0.5366 -0.1597  0.4762
 3903SOL     hw15610   1.682   3.806   2.012  1.6975  0.4533  0.4427
 3903SOL     hw15611   1.618   3.887   1.900 -1.3629 -0.5964  1.3269
 3903SOL     vw15612   1.669   3.821   1.927 -0.3509 -0.1364  0.5840
 3904SOL     ow15613   1.993   4.352   6.772  0.1000  0.0536  0.0122
 3904SOL     hw15614   2.084   4.382   6.776  0.1483  0.2566 -1.7272
 3904SOL     hw15615   1.983   4.294   6.848  1.4114  0.7151  0.7188
 3904SOL     vw15616   2.004   4.348   6.783  0.2794  0.1676 -0.1242
 3905SOL     ow15617   5.110   0.233   3.869  0.3671  0.2935 -0.1993
 3905SOL     hw15618   5.125   0.261   3.959 -0.0378 -0.2840  0.0587
 3905SOL     hw15619   5.019   0.255   3.851  0.1419 -0.5098 -0.1054
 3905SOL     vw15620   5.100   0.239   3.878  0.2840  0.1113 -0.1527
 3906SOL     ow15621   3.707   1.854   0.783 -0.6700  0.0794  0.0852
 3906SOL     hw15622   3.768   1.861   0.857 -1.6364 -1.8904  1.1327
 3906SOL     hw15623   3.643   1.789   0.811 -2.2403  0.7794 -1.7119
 3906SOL     vw15624   3.707   1.846   0.797 -1.0048 -0.0880 -0.0136
 3907SOL     ow15625   2.353   2.817   6.727 -0.0821  0.3179  0.5528
 3907SOL     hw15626   2.325   2.744   6.781  0.8817 -1.9838 -1.8474
 3907SOL     hw15627   2.281   2.830   6.664  0.1134  0.8690  0.4332
 3907SOL     vw15628   2.339   2.809   6.726  0.0708  0.0870  0.2201
 3908SOL     ow15629   4.123   7.075   3.832 -0.0445 -0.5341 -0.8141
 3908SOL     hw15630   4.045   7.125   3.856  1.1686  1.2520 -0.3384
 3908SOL     hw15631   4.153   7.114   3.750 -0.9468 -2.8071 -2.2944
 3908SOL     vw15632   4.117   7.087   3.824 -0.0033 -0.5982 -0.9465
 3909SOL     ow15633   1.186   0.251   2.596 -0.9424 -0.3429 -0.1382
 3909SOL     hw15634   1.130   0.328   2.606 -1.3489 -0.5492 -0.7535
 3909SOL     hw15635   1.137   0.194   2.537 -0.2691 -0.7098 -0.3493
 3909SOL     vw15636   1.172   0.254   2.589 -0.9072 -0.4185 -0.2474
 3910SOL     ow15637   6.450   6.252   7.195  0.1155 -0.0825  0.0467
 3910SOL     hw15638   6.415   6.234   7.107  1.0183 -0.8053 -0.1789
 3910SOL     hw15639   6.409   6.335   7.220 -0.3692 -0.0034 -0.9457
 3910SOL     vw15640   6.440   6.260   7.186  0.1707 -0.1674 -0.1140
 3911SOL     ow15641   4.237   4.906   3.745  0.6689  0.2427 -0.8605
 3911SOL     hw15642   4.322   4.866   3.725  0.6149 -1.2544  1.5681
 3911SOL     hw15643   4.258   4.985   3.794  0.6968 -0.4105  0.2132
 3911SOL     vw15644   4.251   4.911   3.749  0.6654 -0.0410 -0.3984
 3912SOL     ow15645   6.812   2.101   5.586 -0.3285  0.3649 -0.2072
 3912SOL     hw15646   6.738   2.041   5.583  0.6214 -0.9826  1.4880
 3912SOL     hw15647   6.878   2.056   5.639  0.8349  2.4634  0.2631
 3912SOL     vw15648   6.811   2.087   5.593 -0.0496  0.4641  0.0784
 3913SOL     ow15649   7.129   4.187   2.628 -0.0197  0.0778  0.2163
 3913SOL     hw15650   7.061   4.220   2.688 -0.4515  0.8954 -0.7031
 3913SOL     hw15651   7.141   4.257   2.565  1.6722 -0.0764  0.3368
 3913SOL     vw15652   7.121   4.200   2.628  0.1466  0.1655  0.1110
 3914SOL     ow15653   2.749   4.583   1.941  0.0954 -0.2875 -0.2450
 3914SOL     hw15654   2.760   4.676   1.923 -1.2739 -0.1561 -0.4874
 3914SOL     hw15655   2.795   4.569   2.024 -2.5961  1.3769  1.6838
 3914SOL     vw15656   2.756   4.594   1.950 -0.4405 -0.0503 -0.0225
 3915SOL     ow15657   2.587   3.937   2.087 -0.1000  0.2068  0.0604
 3915SOL     hw15658   2.531   3.978   2.154  0.4024  0.0780  0.5683
 3915SOL     hw15659   2.542   3.855   2.066 -0.1179  0.1095  0.4598
 3915SOL     vw15660   2.574   3.932   2.093 -0.0361  0.1769  0.1800
 3916SOL     ow15661   7.133   4.703   2.798  0.0216 -0.9190 -0.7466
 3916SOL     hw15662   7.169   4.685   2.711 -0.6691 -1.0386 -1.0150
 3916SOL     hw15663   7.193   4.766   2.836  0.8238 -1.5231 -0.9676
 3916SOL     vw15664   7.145   4.709   2.791  0.0365 -1.0145 -0.8112
 3917SOL     ow15665   0.810   0.691   0.590  0.4108  0.8670  0.1156
 3917SOL     hw15666   0.749   0.730   0.652 -0.7125  0.6827 -0.8219
 3917SOL     hw15667   0.888   0.671   0.641 -0.9423 -0.4796  1.7630
 3917SOL     vw15668   0.812   0.693   0.605  0.0840  0.6650  0.2093
 3918SOL     ow15669   3.632   3.614   7.222 -0.3047 -0.0749  0.5058
 3918SOL     hw15670   3.630   3.703   7.187 -1.9230  0.0018  0.7384
 3918SOL     hw15671   3.711   3.612   7.277 -0.0279  1.0836  0.1706
 3918SOL     vw15672   3.642   3.625   7.225 -0.4816  0.0881  0.4923
 3919SOL     ow15673   1.955   1.175   2.308 -0.3420 -0.2762 -0.3237
 3919SOL     hw15674   1.912   1.259   2.290 -1.0990 -0.5841 -0.0081
 3919SOL     hw15675   1.966   1.174   2.403  1.1373  0.1526 -0.4681
 3919SOL     vw15676   1.951   1.186   2.318 -0.2468 -0.2602 -0.3011
 3920SOL     ow15677   3.136   5.382   1.885  0.4305 -0.2531 -0.2524
 3920SOL     hw15678   3.073   5.443   1.847  1.7984  1.9331  0.7779
 3920SOL     hw15679   3.217   5.432   1.895  2.1482 -2.7001 -0.7477
 3920SOL     vw15680   3.138   5.396   1.882  0.8374 -0.2873 -0.1819
 3921SOL     ow15681   7.325   2.102   0.088  0.4455  0.1145 -0.0191
 3921SOL     hw15682   7.288   2.094   0.175  0.3512  0.3149 -0.0391
 3921SOL     hw15683   7.418   2.081   0.099  0.4898  0.4003  0.1796
 3921SOL     vw15684   7.333   2.098   0.101  0.4392  0.1786  0.0045
 3922SOL     ow15685   4.716   4.718   0.938  0.4482  0.1076 -0.1602
 3922SOL     hw15686   4.761   4.731   1.021  0.2176 -0.2536  0.0232
 3922SOL     hw15687   4.690   4.806   0.911 -2.4058  0.0256  1.7932
 3922SOL     vw15688   4.718   4.732   0.945  0.0415  0.0491  0.1217
 3923SOL     ow15689   6.879   2.496   2.422 -0.4540 -0.1646 -0.0156
 3923SOL     hw15690   6.865   2.461   2.334 -0.8963 -1.9252  0.7159
 3923SOL     hw15691   6.917   2.423   2.471 -2.0857  0.1009  1.7714
 3923SOL     vw15692   6.882   2.481   2.417 -0.7277 -0.3618  0.3166
 3924SOL     ow15693   6.822   5.033   2.542  0.1769  0.4769 -0.1341
 3924SOL     hw15694   6.790   5.119   2.516 -3.1691 -0.4788  0.4155
 3924SOL     hw15695   6.793   4.974   2.472  1.2752 -0.4282  0.1381
 3924SOL     vw15696   6.814   5.037   2.529 -0.1194  0.2313 -0.0256
 3925SOL     ow15697   4.943   5.365   2.710 -0.4410 -0.3801 -0.0491
 3925SOL     hw15698   4.933   5.458   2.728  0.8173 -0.1076 -0.6468
 3925SOL     hw15699   4.949   5.359   2.615  0.8019 -0.9113  0.0448
 3925SOL     vw15700   4.942   5.377   2.700 -0.1109 -0.4141 -0.1155
 3926SOL     ow15701   5.480   4.634   4.353  0.2264 -0.2230 -0.2464
 3926SOL     hw15702   5.524   4.553   4.378  1.4015  0.3570 -0.4106
 3926SOL     hw15703   5.539   4.677   4.291  0.5166  1.6548  1.2298
 3926SOL     vw15704   5.493   4.629   4.348  0.4199  0.1013 -0.0732
 3927SOL     ow15705   4.403   1.555   5.955  0.1764 -0.4691 -0.0837
 3927SOL     hw15706   4.473   1.575   5.892 -0.9261  0.3875 -1.0868
 3927SOL     hw15707   4.416   1.619   6.026 -0.5196  0.7673 -1.0388
 3927SOL     vw15708   4.414   1.566   5.956 -0.0610 -0.1931 -0.3419
 3928SOL     ow15709   5.098   0.672   0.453  0.4762  0.0304  0.0366
 3928SOL     hw15710   5.084   0.662   0.547  0.4999 -0.3797 -0.0054
 3928SOL     hw15711   5.188   0.641   0.438  0.0457 -1.0901 -0.3110
 3928SOL     vw15712   5.108   0.667   0.463  0.4227 -0.1716 -0.0148
 3929SOL     ow15713   6.186   4.524   4.090 -0.2121 -0.3695 -0.7602
 3929SOL     hw15714   6.128   4.496   4.161  0.4115 -1.8917 -0.8158
 3929SOL     hw15715   6.140   4.497   4.010 -0.0391 -0.3756 -0.8574
 3929SOL     vw15716   6.172   4.517   4.089 -0.1068 -0.5715 -0.7803
 3930SOL     ow15717   2.807   0.592   2.122 -0.2418 -0.0135  0.2919
 3930SOL     hw15718   2.799   0.662   2.187  0.6021  1.1393 -0.7724
 3930SOL     hw15719   2.825   0.639   2.040 -1.0103 -1.4267 -0.7198
 3930SOL     vw15720   2.808   0.608   2.120 -0.2319 -0.0479  0.0180
 3931SOL     ow15721   3.275   4.338   7.184 -0.5570  0.1546 -0.1434
 3931SOL     hw15722   3.299   4.303   7.270  0.8827 -0.4511 -0.7508
 3931SOL     hw15723   3.289   4.433   7.192 -2.2643  0.3521  0.8306
 3931SOL     vw15724   3.280   4.346   7.196 -0.5922  0.1011 -0.0949
 3932SOL     ow15725   0.555   0.772   7.066  0.4622 -0.0521 -0.3458
 3932SOL     hw15726   0.500   0.717   7.122  0.8713  1.2380  1.4127
 3932SOL     hw15727   0.611   0.710   7.020 -1.9640 -1.3693 -1.7231
 3932SOL     vw15728   0.555   0.757   7.067  0.1961 -0.0557 -0.2954
 3933SOL     ow15729   5.574   1.031   0.957  0.2710 -0.0016 -0.2486
 3933SOL     hw15730   5.493   1.058   0.913  0.5078  0.7813 -0.2130
 3933SOL     hw15731   5.626   0.992   0.887 -0.4665 -1.2857 -0.1088
 3933SOL     vw15732   5.570   1.029   0.942  0.2050 -0.0677 -0.2255
 3934SOL     ow15733   0.617   3.519   6.282  0.5440 -0.7637 -0.2602
 3934SOL     hw15734   0.544   3.577   6.306 -0.1307 -0.4448 -2.8127
 3934SOL     hw15735   0.670   3.513   6.362 -0.2748  1.9764  0.6034
 3934SOL     vw15736   0.614   3.526   6.296  0.3469 -0.3603 -0.4830
 3935SOL     ow15737   6.365   1.267   1.731 -0.0920  0.0198 -0.2183
 3935SOL     hw15738   6.433   1.249   1.666  1.1117  0.2444  0.9176
 3935SOL     hw15739   6.386   1.355   1.764  0.5724 -0.8557  1.8664
 3935SOL     vw15740   6.377   1.277   1.727  0.1547 -0.0660  0.2066
 3936SOL     ow15741   2.634   6.017   5.759 -0.4138  0.4945  0.2512
 3936SOL     hw15742   2.674   6.081   5.700 -2.1624 -0.7915 -2.5960
 3936SOL     hw15743   2.564   6.065   5.804 -1.1729  0.8641 -1.2430
 3936SOL     vw15744   2.630   6.031   5.757 -0.7446  0.3738 -0.3216
 3937SOL     ow15745   2.637   3.681   6.601 -0.2210 -0.0131  0.1144
 3937SOL     hw15746   2.617   3.754   6.542 -0.4704 -1.3354 -1.4988
 3937SOL     hw15747   2.555   3.632   6.606  0.3830 -1.0589 -0.0991
 3937SOL     vw15748   2.623   3.684   6.594 -0.1742 -0.3253 -0.1268
 3938SOL     ow15749   0.514   5.185   4.768  0.3154  0.2641  0.0379
 3938SOL     hw15750   0.586   5.136   4.729 -0.0348  0.5986 -1.0559
 3938SOL     hw15751   0.435   5.148   4.728 -0.0753  0.4504  0.6174
 3938SOL     vw15752   0.513   5.174   4.758  0.2177  0.3328 -0.0296
 3939SOL     ow15753   6.632   1.059   1.749  0.0709 -0.0084 -0.4638
 3939SOL     hw15754   6.649   1.127   1.815  1.1919 -2.3155  1.8007
 3939SOL     hw15755   6.710   1.059   1.694  1.9156 -1.8450  1.8998
 3939SOL     vw15756   6.644   1.068   1.750  0.4623 -0.5552  0.1469
 3940SOL     ow15757   7.326   2.320   7.415 -0.4504 -0.2534 -0.1912
 3940SOL     hw15758   7.396   2.293   7.356  0.6035 -0.9211  1.3269
 3940SOL     hw15759   7.312   2.245   7.472 -1.5643  0.3209  0.3219
 3940SOL     vw15760   7.333   2.307   7.414 -0.4580 -0.2657  0.0768
 3941SOL     ow15761   6.063   7.134   4.390  0.2287  0.0555 -0.3440
 3941SOL     hw15762   6.014   7.104   4.314 -0.5014 -1.1855  0.5883
 3941SOL     hw15763   6.046   7.069   4.458  2.1227  0.2811  0.4270
 3941SOL     vw15764   6.054   7.122   4.389  0.3822 -0.0784 -0.1192
 3942SOL     ow15765   6.718   6.737   1.244  1.3934  0.0116 -0.0613
 3942SOL     hw15766   6.662   6.674   1.289  3.2277 -2.1392 -0.6402
 3942SOL     hw15767   6.659   6.782   1.183 -0.2693  0.0466  1.4760
 3942SOL     vw15768   6.703   6.735   1.242  1.4160 -0.2675  0.0651
 3943SOL     ow15769   0.165   2.887   3.805  0.0760 -0.0645  0.2733
 3943SOL     hw15770   0.137   2.977   3.792  0.8055 -0.1078 -2.3501
 3943SOL     hw15771   0.241   2.893   3.863  2.5559  1.6304 -2.7636
 3943SOL     vw15772   0.172   2.900   3.811  0.4994  0.1533 -0.4735
 3944SOL     ow15773   4.969   5.108   2.876  0.1689  0.2071  0.1414
 3944SOL     hw15774   4.975   5.013   2.886  0.3927  0.1988 -0.0671
 3944SOL     hw15775   5.029   5.143   2.941 -0.9033  0.2468  1.1367
 3944SOL     vw15776   4.977   5.100   2.886  0.0567  0.2112  0.2452
 3945SOL     ow15777   1.917   2.043   0.972  0.0921 -0.2061 -0.0131
 3945SOL     hw15778   1.998   2.080   0.935 -0.7068  0.1380 -1.5028
 3945SOL     hw15779   1.888   2.109   1.035  0.7896 -0.1669  0.2727
 3945SOL     vw15780   1.924   2.057   0.975  0.0787 -0.1554 -0.1720
 3946SOL     ow15781   2.907   2.131   5.646 -0.0615  0.5132  0.0781
 3946SOL     hw15782   2.881   2.138   5.555 -2.4843  2.7174  0.8027
 3946SOL     hw15783   2.988   2.182   5.652 -0.8520  1.8949 -0.5708
 3946SOL     vw15784   2.914   2.139   5.635 -0.4854  0.9865  0.0882
 3947SOL     ow15785   7.371   3.596   1.210 -0.7015 -1.1403  0.8287
 3947SOL     hw15786   7.353   3.512   1.252 -1.1786 -1.7614 -0.5563
 3947SOL     hw15787   7.430   3.641   1.271  0.3656 -2.8818  1.1656
 3947SOL     vw15788   7.377   3.591   1.224 -0.6236 -1.4521  0.6904
 3948SOL     ow15789   4.361   1.537   3.381 -0.5851  0.6302  0.0891
 3948SOL     hw15790   4.331   1.446   3.378  3.5440 -0.9056 -0.3051
 3948SOL     hw15791   4.281   1.589   3.370 -3.1108 -2.9013  0.2749
 3948SOL     vw15792   4.346   1.532   3.379 -0.3736 -0.0384  0.0615
 3949SOL     ow15793   0.044   4.001   4.084  0.1771 -1.0416 -0.2789
 3949SOL     hw15794   0.035   3.915   4.123  0.4803 -0.7702  0.4007
 3949SOL     hw15795  -0.040   4.017   4.040  0.0282 -1.5650 -0.1835
 3949SOL     vw15796   0.031   3.992   4.083  0.1975 -1.0748 -0.1767
 3950SOL     ow15797   2.108   2.855   0.683  0.8580  0.2145 -0.6870
 3950SOL     hw15798   2.149   2.942   0.685  0.1640  0.5846 -1.9436
 3950SOL     hw15799   2.073   2.846   0.595 -0.5489 -0.6655 -0.0809
 3950SOL     vw15800   2.109   2.865   0.672  0.5809  0.1472 -0.7728
 3951SOL     ow15801   0.906   2.828   4.095  0.6113 -0.0167  0.1995
 3951SOL     hw15802   0.958   2.749   4.102  0.9513  0.2463  0.7659
 3951SOL     hw15803   0.953   2.892   4.149 -0.5658  0.0734  1.1609
 3951SOL     vw15804   0.919   2.826   4.103  0.5009  0.0299  0.4010
 3952SOL     ow15805   7.332   1.251   1.319  0.3838  0.1364 -0.1938
 3952SOL     hw15806   7.266   1.215   1.378  0.6589 -1.3265 -0.7602
 3952SOL     hw15807   7.333   1.345   1.340 -2.3502  0.3651 -0.6277
 3952SOL     vw15808   7.323   1.259   1.330  0.0594 -0.0263 -0.3257
 3953SOL     ow15809   1.388   1.760   5.914 -0.4961  0.1821  0.0890
 3953SOL     hw15810   1.328   1.813   5.966 -0.7405 -0.2577  0.2597
 3953SOL     hw15811   1.475   1.782   5.946 -0.6532 -0.2013  0.7908
 3953SOL     vw15812   1.391   1.770   5.925 -0.5491  0.0735  0.2043
 3954SOL     ow15813   2.730   6.828   1.811  0.0033  0.4691  0.2739
 3954SOL     hw15814   2.737   6.853   1.719  0.8061 -0.2776  0.1243
 3954SOL     hw15815   2.820   6.817   1.841 -0.0783  3.3002  1.9144
 3954SOL     vw15816   2.743   6.829   1.803  0.0985  0.7443  0.4706
 3955SOL     ow15817   0.282   6.926   1.982  0.6057 -0.3161  0.1283
 3955SOL     hw15818   0.320   7.012   1.967  1.6515 -0.7536  0.1670
 3955SOL     hw15819   0.303   6.907   2.074  0.6487 -0.7285  0.0357
 3955SOL     vw15820   0.290   6.935   1.992  0.7493 -0.4282  0.1212
 3956SOL     ow15821   2.991   7.286   2.183 -0.5330  0.5178  0.6243
 3956SOL     hw15822   2.975   7.239   2.264  1.0243 -2.2862 -0.5203
 3956SOL     hw15823   3.080   7.261   2.158 -1.1454  0.7485 -2.2253
 3956SOL     vw15824   3.001   7.276   2.190 -0.4082  0.1786  0.0973
 3957SOL     ow15825   0.288   1.937   7.494  0.0940  0.1281  0.1422
 3957SOL     hw15826   0.233   1.933   7.416 -0.7688 -0.2570  0.7463
 3957SOL     hw15827   0.258   2.014   7.541 -0.2167 -0.3106  0.6768
 3957SOL     vw15828   0.277   1.946   7.490 -0.0608  0.0194  0.2923
 3958SOL     ow15829   6.628   0.529   1.214  0.7049 -0.2045 -0.0423
 3958SOL     hw15830   6.618   0.481   1.132  1.2584 -1.2965  0.5099
 3958SOL     hw15831   6.669   0.612   1.189 -0.9514  0.3399 -1.1018
 3958SOL     vw15832   6.632   0.534   1.200  0.5596 -0.2768 -0.1093
 3959SOL     ow15833   5.664   0.273   2.043 -0.2446  0.0905  0.0998
 3959SOL     hw15834   5.735   0.330   2.014 -0.0746 -0.2399 -0.1369
 3959SOL     hw15835   5.677   0.191   1.995  0.1483 -0.5304  1.2259
 3959SOL     vw15836   5.675   0.269   2.033 -0.1700 -0.0350  0.2171
 3960SOL     ow15837   1.794   3.360   2.157  0.1239 -0.1714  0.1006
 3960SOL     hw15838   1.841   3.389   2.078 -1.0703  1.4792 -0.0472
 3960SOL     hw15839   1.705   3.393   2.146 -0.6701 -1.8163  1.1429
 3960SOL     vw15840   1.788   3.369   2.145 -0.1385 -0.1708  0.2187
 3961SOL     ow15841   5.624   1.791   0.045  0.2891 -0.2404  0.2783
 3961SOL     hw15842   5.639   1.701   0.072 -0.0970 -0.9255 -1.6574
 3961SOL     hw15843   5.560   1.785  -0.025 -0.4966  1.6436  0.7710
 3961SOL     vw15844   5.618   1.778   0.039  0.1345 -0.0822  0.0879
 3962SOL     ow15845   2.708   6.915   5.286 -0.3301  0.1068  0.9898
 3962SOL     hw15846   2.618   6.883   5.285  0.4611 -2.4435 -1.1067
 3962SOL     hw15847   2.712   6.979   5.214 -0.9195  1.9353  2.5124
 3962SOL     vw15848   2.697   6.919   5.276 -0.3035  0.0117  0.9143
 3963SOL     ow15849   2.499   7.019   4.114 -0.4319 -0.3145 -0.0154
 3963SOL     hw15850   2.583   7.063   4.101 -0.5938 -0.2875 -1.0614
 3963SOL     hw15851   2.508   6.937   4.066 -0.9779 -0.3519 -0.0589
 3963SOL     vw15852   2.511   7.014   4.106 -0.5254 -0.3159 -0.1590
 3964SOL     ow15853   5.478   2.075   0.665  0.4730 -0.6449 -0.5401
 3964SOL     hw15854   5.462   2.137   0.736  2.1238  0.6713 -1.2441
 3964SOL     hw15855   5.518   1.999   0.707  0.5418 -0.2872  0.0416
 3964SOL     vw15856   5.481   2.073   0.680  0.7000 -0.4240 -0.5562
 3965SOL     ow15857   0.601   3.073   3.581  0.3543  0.3686 -0.6701
 3965SOL     hw15858   0.506   3.084   3.584  0.2473 -0.6294  2.0373
 3965SOL     hw15859   0.618   3.045   3.491 -1.9500  0.2926 -1.1509
 3965SOL     vw15860   0.591   3.071   3.569  0.0362  0.2269 -0.3762
 3966SOL     ow15861   4.233   7.057   6.678  0.0818 -0.7072 -0.0703
 3966SOL     hw15862   4.145   7.080   6.648  0.2282  1.4326  0.9253
 3966SOL     hw15863   4.219   6.983   6.738 -1.0876 -0.2342  0.2761
 3966SOL     vw15864   4.219   7.050   6.682 -0.0532 -0.3624  0.1066
 3967SOL     ow15865   6.059   4.430   2.032  0.2242 -0.4390 -0.3111
 3967SOL     hw15866   5.989   4.493   2.018  0.1441 -0.3525  0.4253
 3967SOL     hw15867   6.033   4.354   1.980  2.1973  1.3860 -4.4161
 3967SOL     vw15868   6.046   4.428   2.024  0.4742 -0.1867 -0.7557
 3968SOL     ow15869   5.115   7.267   2.843  0.4479 -0.2928  0.0288
 3968SOL     hw15870   5.037   7.316   2.820  0.3646 -0.6421 -0.4522
 3968SOL     hw15871   5.180   7.292   2.778  0.8192  0.1858  0.5747
 3968SOL     vw15872   5.114   7.277   2.831  0.4859 -0.2756  0.0374
 3969SOL     ow15873   7.380   7.078   4.180 -0.2111  0.2254  0.2808
 3969SOL     hw15874   7.398   7.167   4.149  0.2387 -0.8024 -2.7408
 3969SOL     hw15875   7.431   7.070   4.261  0.3290  2.4429  0.2261
 3969SOL     vw15876   7.389   7.089   4.187 -0.0806  0.3827 -0.1252
 3970SOL     ow15877   1.886   4.702   2.289 -0.0112 -0.0287 -0.0187
 3970SOL     hw15878   1.822   4.670   2.226  0.6576 -1.5589  0.0414
 3970SOL     hw15879   1.835   4.728   2.365 -0.8286  1.7765 -1.1181
 3970SOL     vw15880   1.871   4.701   2.290 -0.0307  0.0076 -0.1558
 3971SOL     ow15881   1.075   6.948   6.654 -0.2972 -0.4872  0.8997
 3971SOL     hw15882   1.097   6.870   6.604  3.2756  0.6120  0.4357
 3971SOL     hw15883   1.145   6.956   6.719  0.9645  3.4456 -0.5819
 3971SOL     vw15884   1.087   6.939   6.656  0.3406  0.1767  0.6430
 3972SOL     ow15885   2.801   7.263   2.649  0.9963 -0.1100 -0.6215
 3972SOL     hw15886   2.757   7.201   2.708 -0.5538  0.4858 -1.1242
 3972SOL     hw15887   2.809   7.216   2.566 -2.4558  1.0798 -1.7997
 3972SOL     vw15888   2.796   7.249   2.646  0.3363  0.1256 -0.8433
 3973SOL     ow15889   4.993   3.665   1.691  0.2658 -0.4488  0.3065
 3973SOL     hw15890   5.020   3.738   1.635 -1.5894 -0.8167 -1.1558
 3973SOL     hw15891   5.067   3.605   1.690  1.8826  1.4134  1.6348
 3973SOL     vw15892   5.006   3.667   1.684  0.2341 -0.2517  0.2888
 3974SOL     ow15893   0.288   5.425   6.307  0.2004 -0.4132 -0.4736
 3974SOL     hw15894   0.255   5.354   6.361 -0.3537  1.1272  1.3220
 3974SOL     hw15895   0.341   5.478   6.366 -1.1427  1.8499 -1.1495
 3974SOL     vw15896   0.291   5.423   6.322 -0.0499  0.0887 -0.3257
 3975SOL     ow15897   4.148   1.704   3.337  0.2066  0.6512 -0.6482
 3975SOL     hw15898   4.192   1.786   3.319 -1.4246  1.5093 -0.9291
 3975SOL     hw15899   4.062   1.729   3.371  0.5780 -0.9398  1.6854
 3975SOL     vw15900   4.143   1.718   3.339  0.0403  0.5544 -0.3773
 3976SOL     ow15901   4.036   1.649   1.591  0.8721  0.1047  0.5235
 3976SOL     hw15902   3.992   1.596   1.658  0.0281  1.9980  1.5510
 3976SOL     hw15903   3.975   1.721   1.573  1.2389 -0.1111 -2.0479
 3976SOL     vw15904   4.022   1.652   1.597  0.8092  0.3260  0.3197
 3977SOL     ow15905   4.296   4.044   7.304 -0.0810 -0.0656  0.7307
 3977SOL     hw15906   4.384   4.048   7.265 -0.5323  2.1929 -0.2688
 3977SOL     hw15907   4.307   3.995   7.385  1.4315 -2.6909 -0.9323
 3977SOL     vw15908   4.309   4.038   7.309  0.0591 -0.1142  0.3793
 3978SOL     ow15909   4.678   2.383   2.186  0.4677 -0.2788 -0.3840
 3978SOL     hw15910   4.714   2.313   2.131 -0.0038 -0.5703 -0.3266
 3978SOL     hw15911   4.636   2.443   2.124  0.6958 -0.1482 -0.4149
 3978SOL     vw15912   4.677   2.382   2.170  0.4358 -0.3002 -0.3804
 3979SOL     ow15913   4.362   0.833   1.894  0.2872 -0.0886 -0.0966
 3979SOL     hw15914   4.440   0.839   1.838  0.1670  0.0541 -0.2522
 3979SOL     hw15915   4.300   0.781   1.842 -0.0549  0.5807 -0.3660
 3979SOL     vw15916   4.364   0.827   1.880  0.2260  0.0185 -0.1527
 3980SOL     ow15917   1.385   6.923   2.100  0.0279 -0.0657 -0.3923
 3980SOL     hw15918   1.431   6.890   2.177 -0.1879  1.0291  0.2155
 3980SOL     hw15919   1.297   6.944   2.130 -0.5901 -1.1883 -1.3268
 3980SOL     vw15920   1.380   6.921   2.114 -0.0821 -0.0694 -0.4355
 3981SOL     ow15921   6.838   2.963   5.621 -0.4066  0.0491 -0.6188
 3981SOL     hw15922   6.821   2.938   5.530  0.3927 -1.1189 -0.4635
 3981SOL     hw15923   6.753   2.958   5.664 -0.5935 -0.4980 -1.0464
 3981SOL     vw15924   6.825   2.959   5.615 -0.3257 -0.1773 -0.6547
 3982SOL     ow15925   0.090   0.788   4.104 -0.0637 -0.0690  1.3466
 3982SOL     hw15926   0.059   0.735   4.030 -0.6953  2.2561 -0.1855
 3982SOL     hw15927   0.014   0.795   4.162 -0.7104  0.8902  0.4431
 3982SOL     vw15928   0.076   0.782   4.102 -0.2323  0.3643  1.0252
 3983SOL     ow15929   6.716   7.353   0.158  0.1094 -0.1103  0.1248
 3983SOL     hw15930   6.795   7.325   0.203  0.3143 -1.0826 -0.7985
 3983SOL     hw15931   6.648   7.353   0.225  0.3551 -1.7657  0.4175
 3983SOL     vw15932   6.717   7.349   0.173  0.1690 -0.4570  0.0416
 3984SOL     ow15933   4.798   4.801   1.180 -0.0189 -0.3402 -0.1870
 3984SOL     hw15934   4.816   4.716   1.221  2.2842 -0.5381 -1.4331
 3984SOL     hw15935   4.880   4.825   1.137 -1.6139  0.8836 -2.8176
 3984SOL     vw15936   4.811   4.793   1.180  0.0746 -0.2053 -0.6984
 3985SOL     ow15937   5.963   4.012   5.513 -0.0981  0.0029 -0.4329
 3985SOL     hw15938   6.022   3.942   5.486 -1.4995 -1.5103  0.2350
 3985SOL     hw15939   6.008   4.055   5.586  0.9402  0.0738 -1.0924
 3985SOL     vw15940   5.977   4.009   5.519 -0.1462 -0.1876 -0.4318
 3986SOL     ow15941   1.935   6.685   3.729  0.4835  0.1118  0.1640
 3986SOL     hw15942   1.862   6.669   3.789  0.5292  2.6439  1.0078
 3986SOL     hw15943   2.005   6.628   3.760 -0.2912 -0.3943  1.0129
 3986SOL     vw15944   1.935   6.676   3.741  0.3874  0.3793  0.3874
 3987SOL     ow15945   2.216   5.501   0.399  0.0940 -0.1424 -0.5571
 3987SOL     hw15946   2.293   5.557   0.403 -0.6779  0.9288 -0.3611
 3987SOL     hw15947   2.182   5.500   0.489 -1.9799  2.0986 -1.2058
 3987SOL     vw15948   2.221   5.508   0.412 -0.2816  0.2947 -0.6168
 3988SOL     ow15949   2.045   6.307   6.961 -0.0398 -0.2162 -0.2027
 3988SOL     hw15950   2.059   6.251   7.036  1.8825 -0.3681 -0.6274
 3988SOL     hw15951   2.022   6.247   6.890  0.1056 -0.2735 -0.2017
 3988SOL     vw15952   2.043   6.292   6.961  0.2329 -0.2437 -0.2584
 3989SOL     ow15953   1.457   3.205   2.960  0.5009 -0.7302  0.4318
 3989SOL     hw15954   1.378   3.153   2.943 -0.0323  0.3733 -0.6359
 3989SOL     hw15955   1.424   3.290   2.990  1.1445  0.4439 -1.9366
 3989SOL     vw15956   1.442   3.209   2.962  0.5155 -0.4297 -0.0216
 3990SOL     ow15957   3.721   0.722   4.697  0.2861  0.9366  0.3320
 3990SOL     hw15958   3.671   0.665   4.755  0.2822  0.6714  0.0707
 3990SOL     hw15959   3.784   0.663   4.654 -0.6120  0.8744 -0.9581
 3990SOL     vw15960   3.723   0.706   4.699  0.1671  0.8934  0.1271
 3991SOL     ow15961   0.679   1.847   3.094 -0.1432  0.3231 -0.7771
 3991SOL     hw15962   0.758   1.898   3.077 -0.0917  0.7581  0.5858
 3991SOL     hw15963   0.671   1.848   3.190  0.7517 -3.5501 -0.5033
 3991SOL     vw15964   0.688   1.854   3.105 -0.0183 -0.1305 -0.5612
 3992SOL     ow15965   5.119   4.345   1.875 -0.2574 -0.3102  0.1270
 3992SOL     hw15966   5.154   4.307   1.956 -1.0415  0.3222  0.7921
 3992SOL     hw15967   5.152   4.289   1.805  1.2968 -0.2636  0.7958
 3992SOL     vw15968   5.128   4.333   1.877 -0.1557 -0.2205  0.3030
 3993SOL     ow15969   0.812   5.122   2.137  0.5577  0.1884 -0.0805
 3993SOL     hw15970   0.771   5.202   2.105  0.0620 -0.4368 -1.0698
 3993SOL     hw15971   0.840   5.142   2.226  0.2339  1.3801 -0.2413
 3993SOL     vw15972   0.810   5.135   2.145  0.4496  0.2630 -0.2322
 3994SOL     ow15973   5.453   3.279   3.602 -0.4481 -0.0851 -0.9151
 3994SOL     hw15974   5.391   3.318   3.541 -0.1913  0.0964 -1.0621
 3994SOL     hw15975   5.404   3.273   3.685 -1.6859 -2.7232 -1.7184
 3994SOL     vw15976   5.438   3.283   3.605 -0.5774 -0.4094 -1.0403
 3995SOL     ow15977   2.110   5.574   0.853  0.9953 -0.6747  0.3823
 3995SOL     hw15978   2.140   5.663   0.871 -0.1441 -0.0345 -0.6720
 3995SOL     hw15979   2.026   5.568   0.898  0.7953 -1.0117 -0.0304
 3995SOL     vw15980   2.103   5.585   0.861  0.8187 -0.6347  0.1887
 3996SOL     ow15981   6.612   6.074   0.216  0.4895 -0.1931  0.1207
 3996SOL     hw15982   6.691   6.092   0.266  1.1524 -0.2705 -0.8775
 3996SOL     hw15983   6.559   6.019   0.274  0.2799  1.4572  1.5565
 3996SOL     vw15984   6.615   6.069   0.230  0.5493  0.0145  0.1785
 3997SOL     ow15985   5.279   4.833   0.287 -0.1893  0.1395 -0.0414
 3997SOL     hw15986   5.367   4.806   0.263 -1.0364 -0.9522 -2.1079
 3997SOL     hw15987   5.278   4.928   0.275  1.4023  0.6049  2.5987
 3997SOL     vw15988   5.291   4.842   0.283 -0.0913  0.0567  0.0343
 3998SOL     ow15989   4.021   1.705   4.747 -0.6185 -0.4480  0.1856
 3998SOL     hw15990   4.025   1.799   4.762  0.1112 -0.3424 -0.6047
 3998SOL     hw15991   3.992   1.668   4.831 -2.3205  0.5770  0.1070
 3998SOL     vw15992   4.017   1.712   4.760 -0.7470 -0.2989  0.0710
 3999SOL     ow15993   2.302   3.426   3.330 -0.0724 -0.3641  0.7853
 3999SOL     hw15994   2.297   3.519   3.311 -2.1609 -0.2710  1.5242
 3999SOL     hw15995   2.298   3.421   3.426 -0.6635 -1.2271  0.7279
 3999SOL     vw15996   2.301   3.438   3.340 -0.4259 -0.4656  0.8754
 4000SOL     ow15997   6.874   4.003   3.356  0.0765 -0.2228  0.2303
 4000SOL     hw15998   6.913   4.012   3.443  0.3182 -0.4077  0.1424
 4000SOL     hw15999   6.790   3.960   3.371  0.8205 -1.7569  0.2221
 4000SOL     vw16000   6.868   3.998   3.369  0.2065 -0.4494  0.2178
 4001SOL     ow16001   7.311   6.042   7.125 -0.0074  0.4397  0.6031
 4001SOL     hw16002   7.310   6.011   7.034  0.3923  3.5205 -0.5528
 4001SOL     hw16003   7.320   5.962   7.177  1.1398 -1.3330 -2.0952
 4001SOL     vw16004   7.312   6.027   7.120  0.1965  0.6125  0.0949
 4002SOL     ow16005   4.762   6.338   5.556  0.4212  1.4259  0.0543
 4002SOL     hw16006   4.769   6.400   5.483 -0.4080  2.0760  0.5011
 4002SOL     hw16007   4.781   6.391   5.633 -0.1110  1.0871  0.4247
 4002SOL     vw16008   4.765   6.353   5.556  0.2413  1.4670  0.1621
 4003SOL     ow16009   1.580   1.883   0.981  0.1641  0.4448 -0.1823
 4003SOL     hw16010   1.520   1.811   0.998  0.6956 -0.6283 -2.4133
 4003SOL     hw16011   1.667   1.845   0.996  0.3861  1.5604  1.6110
 4003SOL     vw16012   1.584   1.869   0.985  0.2635  0.4504 -0.2400
 4004SOL     ow16013   7.336   5.796   0.908 -0.4499  0.3304  0.3970
 4004SOL     hw16014   7.388   5.876   0.916 -0.3896  0.1340  2.6912
 4004SOL     hw16015   7.388   5.729   0.952 -1.4921 -0.4719  0.4566
 4004SOL     vw16016   7.350   5.798   0.915 -0.5798  0.1986  0.7075
 4005SOL     ow16017   4.182   4.618   5.440 -0.4836  0.3151 -0.3911
 4005SOL     hw16018   4.101   4.656   5.474  0.2166  1.4480  0.0762
 4005SOL     hw16019   4.250   4.681   5.465  0.5540 -0.6592 -0.6907
 4005SOL     vw16020   4.180   4.631   5.448 -0.2546  0.3362 -0.3691
 4006SOL     ow16021   5.270   3.771   0.316  0.8583 -0.5689 -0.4857
 4006SOL     hw16022   5.279   3.823   0.396  1.0942 -1.7170  0.2610
 4006SOL     hw16023   5.196   3.811   0.270  2.3184  1.7171 -0.9818
 4006SOL     vw16024   5.261   3.783   0.321  1.0822 -0.4187 -0.4526
 4007SOL     ow16025   6.015   1.636   6.790  0.6870  0.4327  0.8003
 4007SOL     hw16026   6.019   1.707   6.726 -2.0288 -1.2565 -1.5047
 4007SOL     hw16027   5.937   1.655   6.842  1.6702  0.6490  2.2711
 4007SOL     vw16028   6.005   1.648   6.788  0.4585  0.2384  0.6902
 4008SOL     ow16029   1.338   3.093   7.114 -0.1344  0.1521  0.3102
 4008SOL     hw16030   1.262   3.151   7.119  0.6223  1.1748  0.3719
 4008SOL     hw16031   1.333   3.040   7.193 -0.0477  1.1881  1.0372
 4008SOL     vw16032   1.327   3.094   7.125 -0.0231  0.4238  0.4141
 4009SOL     ow16033   7.385   6.055   4.090  0.2787 -0.5596 -0.2001
 4009SOL     hw16034   7.439   6.130   4.114  0.6632 -1.3446  1.5706
 4009SOL     hw16035   7.448   5.985   4.072 -0.1039 -0.9694  0.0234
 4009SOL     vw16036   7.401   6.055   4.091  0.2794 -0.7172  0.0629
 4010SOL     ow16037   0.139   4.451   3.958 -0.2512 -0.2176 -0.0484
 4010SOL     hw16038   0.142   4.370   3.906  0.5347  0.6041 -1.3100
 4010SOL     hw16039   0.060   4.440   4.012 -0.5938 -1.4940 -0.7433
 4010SOL     vw16040   0.129   4.439   3.959 -0.1927 -0.2778 -0.3065
 4011SOL     ow16041   4.485   7.423   7.408 -0.0721 -0.1222  0.0273
 4011SOL     hw16042   4.491   7.508   7.364  1.4119 -1.4348 -2.5444
 4011SOL     hw16043   4.565   7.377   7.382 -1.1390 -2.5669  0.7720
 4011SOL     vw16044   4.497   7.428   7.399 -0.0169 -0.6180 -0.2136
 4012SOL     ow16045   0.450   1.355   5.409 -0.5562  0.1856 -0.5626
 4012SOL     hw16046   0.397   1.310   5.344 -0.0042  1.4231 -1.9312
 4012SOL     hw16047   0.399   1.351   5.490 -0.7127 -2.4132 -0.7370
 4012SOL     vw16048   0.436   1.349   5.411 -0.5040  0.0060 -0.7663
 4013SOL     ow16049   2.979   5.672   3.900 -0.2502  0.3823  0.4876
 4013SOL     hw16050   2.945   5.600   3.846  1.4244  0.4826 -0.7978
 4013SOL     hw16051   3.037   5.719   3.841  0.0473  1.7526  1.8354
 4013SOL     vw16052   2.982   5.668   3.885  0.0100  0.5763  0.4957
 4014SOL     ow16053   1.526   2.247   6.755 -0.5080  0.3828  0.4448
 4014SOL     hw16054   1.562   2.205   6.677 -1.4554 -0.1425  0.2856
 4014SOL     hw16055   1.600   2.250   6.816 -0.0378 -0.1776 -0.0802
 4014SOL     vw16056   1.541   2.242   6.753 -0.5710  0.2396  0.3545
 4015SOL     ow16057   5.727   3.362   3.659  0.4627 -0.8176 -0.0931
 4015SOL     hw16058   5.765   3.382   3.574  1.3555  1.1179  0.7013
 4015SOL     hw16059   5.633   3.359   3.644  0.5157  0.8304 -0.9301
 4015SOL     vw16060   5.720   3.364   3.646  0.5875 -0.3448 -0.0988
 4016SOL     ow16061   0.744   1.154   4.237 -0.2512  0.0538  0.2023
 4016SOL     hw16062   0.830   1.120   4.263  0.6950  2.4730  0.5586
 4016SOL     hw16063   0.750   1.163   4.142 -0.8487 -1.5171 -0.0162
 4016SOL     vw16064   0.756   1.151   4.228 -0.2052  0.1657  0.2205
 4017SOL     ow16065   2.186   2.152   1.531  0.3578 -0.2188  0.2257
 4017SOL     hw16066   2.215   2.183   1.617  1.5951  2.3990 -1.0091
 4017SOL     hw16067   2.265   2.119   1.489 -0.0460 -0.5580 -0.2936
 4017SOL     vw16068   2.200   2.152   1.537  0.4679  0.0818 -0.0058
 4018SOL     ow16069   1.063   2.266   1.110 -0.2794 -0.2338  0.1745
 4018SOL     hw16070   1.080   2.217   1.029  0.6124 -3.3116  2.0239
 4018SOL     hw16071   0.974   2.240   1.135  0.2466 -1.1102  1.2390
 4018SOL     vw16072   1.054   2.256   1.103 -0.0923 -0.7555  0.5590
 4019SOL     ow16073   1.789   5.903   0.037  0.4101 -0.3826  0.0157
 4019SOL     hw16074   1.760   5.855  -0.040  0.1878 -1.1271  0.5467
 4019SOL     hw16075   1.775   5.842   0.110 -0.1641  0.5874  0.7516
 4019SOL     vw16076   1.784   5.888   0.037  0.3050 -0.3529  0.1828
 4020SOL     ow16077   0.995   2.896   2.463  0.3890  0.5607 -0.2936
 4020SOL     hw16078   1.038   2.812   2.450  1.6401  1.1499 -0.1547
 4020SOL     hw16079   0.971   2.925   2.375  0.1831  0.1678 -0.3654
 4020SOL     vw16080   0.998   2.889   2.450  0.5269  0.5865 -0.2847
 4021SOL     ow16081   6.088   4.799   1.806  0.1441  0.1749  0.8815
 4021SOL     hw16082   6.038   4.746   1.869 -0.9193 -2.0337 -1.6223
 4021SOL     hw16083   6.031   4.872   1.786 -0.4545 -0.2834  0.8829
 4021SOL     vw16084   6.074   4.801   1.812 -0.0749 -0.1769  0.5513
 4022SOL     ow16085   0.732   1.926   4.200 -0.1182  0.1515 -0.0501
 4022SOL     hw16086   0.821   1.893   4.211  0.1268  0.7999 -0.0740
 4022SOL     hw16087   0.733   2.013   4.240 -0.9664 -0.1731  0.7220
 4022SOL     vw16088   0.744   1.933   4.207 -0.1978  0.1942  0.0486
 4023SOL     ow16089   6.857   1.047   1.594 -0.0982  0.0579  0.0945
 4023SOL     hw16090   6.847   0.970   1.538 -3.2674  0.6579 -0.3775
 4023SOL     hw16091   6.867   1.120   1.532  1.1742  0.2354  0.4889
 4023SOL     vw16092   6.857   1.046   1.578 -0.3486  0.1604  0.0843
 4024SOL     ow16093   0.270   6.869   6.520  0.6609  0.1903 -0.0798
 4024SOL     hw16094   0.273   6.958   6.554 -1.6442 -0.2309  1.4515
 4024SOL     hw16095   0.210   6.874   6.445 -0.8857 -0.2947  1.0605
 4024SOL     vw16096   0.262   6.882   6.515  0.1527  0.0708  0.2725
 4025SOL     ow16097   4.239   5.906   5.537  0.2888  0.0384 -0.6436
 4025SOL     hw16098   4.170   5.914   5.602  0.6704  1.3124 -0.3668
 4025SOL     hw16099   4.213   5.831   5.484 -1.2010  0.3557 -0.4222
 4025SOL     vw16100   4.226   5.897   5.538  0.1426  0.2482 -0.5779
 4026SOL     ow16101   3.311   2.180   2.834  0.6687 -0.4880  0.2722
 4026SOL     hw16102   3.397   2.220   2.827  0.3083  0.1591 -0.7285
 4026SOL     hw16103   3.325   2.099   2.883  1.6959  0.0123  0.8291
 4026SOL     vw16104   3.324   2.175   2.840  0.7567 -0.3365  0.2136
 4027SOL     ow16105   0.398   1.655   0.037 -0.0811 -0.6502 -0.0506
 4027SOL     hw16106   0.365   1.745   0.041  0.6448 -0.3360 -0.9534
 4027SOL     hw16107   0.345   1.608   0.101  0.0145  0.5768  0.9757
 4027SOL     vw16108   0.387   1.661   0.046  0.0273 -0.4468 -0.0346
 4028SOL     ow16109   3.968   1.288   5.822 -0.1558  0.0097  0.6905
 4028SOL     hw16110   3.959   1.350   5.750  3.1124  1.6863  1.5047
 4028SOL     hw16111   3.942   1.204   5.785 -0.1378  1.0806 -1.9501
 4028SOL     vw16112   3.964   1.285   5.808  0.2778  0.3722  0.4497
 4029SOL     ow16113   0.495   3.018   0.678  0.2170  0.8759 -0.3280
 4029SOL     hw16114   0.462   2.974   0.757 -0.3638 -0.2696 -1.1854
 4029SOL     hw16115   0.580   2.977   0.661 -0.5410 -0.3046 -1.4040
 4029SOL     vw16116   0.502   3.007   0.686  0.0404  0.5690 -0.5831
 4030SOL     ow16117   4.229   3.904   7.082  0.5088  0.0632  0.1819
 4030SOL     hw16118   4.168   3.969   7.046 -1.9612 -1.4847  1.2350
 4030SOL     hw16119   4.249   3.937   7.170  2.4688  1.2855 -0.6448
 4030SOL     vw16120   4.223   3.917   7.089  0.4418  0.0203  0.2120
 4031SOL     ow16121   6.491   5.345   2.357  1.0059 -0.1198 -0.1148
 4031SOL     hw16122   6.427   5.329   2.287 -0.3231  0.4049  0.9328
 4031SOL     hw16123   6.460   5.425   2.399  1.6841 -0.5204  1.1866
 4031SOL     vw16124   6.478   5.354   2.353  0.9196 -0.1035  0.1953
 4032SOL     ow16125   3.647   3.070   6.536 -0.3924 -0.1725  0.8879
 4032SOL     hw16126   3.737   3.100   6.546 -0.4094  0.9212 -1.5533
 4032SOL     hw16127   3.612   3.066   6.625  1.7558  0.3140  1.7928
 4032SOL     vw16128   3.654   3.073   6.549 -0.1112  0.0359  0.6852
 4033SOL     ow16129   0.745   4.597   3.004 -0.1144  0.5050  0.1314
 4033SOL     hw16130   0.715   4.520   2.956  0.2885  0.3225  0.1686
 4033SOL     hw16131   0.839   4.584   3.014 -0.2667  0.2767  1.4577
 4033SOL     vw16132   0.754   4.585   2.999 -0.0813  0.4506  0.3113
 4034SOL     ow16133   2.281   4.550   5.907  0.5004  0.1563 -0.1615
 4034SOL     hw16134   2.333   4.470   5.899  0.3356 -0.3074  2.3896
 4034SOL     hw16135   2.340   4.612   5.950 -0.7090 -0.1821  2.2027
 4034SOL     vw16136   2.295   4.548   5.912  0.3190  0.0503  0.4873
 4035SOL     ow16137   2.810   4.633   7.202  0.1857  0.1363  0.2300
 4035SOL     hw16138   2.834   4.680   7.122  0.4157  0.6670  0.6056
 4035SOL     hw16139   2.718   4.610   7.189  0.4340 -0.4887 -0.5271
 4035SOL     vw16140   2.801   4.636   7.190  0.2489  0.1237  0.1798
 4036SOL     ow16141   2.152   4.072   5.681 -0.0964 -0.2436  0.1688
 4036SOL     hw16142   2.146   4.165   5.705  0.8259 -0.0016 -0.4830
 4036SOL     hw16143   2.161   4.027   5.765 -0.5818  0.2509  0.4932
 4036SOL     vw16144   2.153   4.079   5.695 -0.0387 -0.1464  0.1254
 4037SOL     ow16145   6.111   2.646   5.812  0.4339 -0.4793 -0.4859
 4037SOL     hw16146   6.041   2.708   5.835  0.5389 -0.1264 -1.0995
 4037SOL     hw16147   6.097   2.627   5.719  0.7467 -0.9428 -0.4439
 4037SOL     vw16148   6.100   2.651   5.803  0.4892 -0.4939 -0.5612
 4038SOL     ow16149   7.366   5.375   1.661 -0.6598  0.1096  0.5529
 4038SOL     hw16150   7.346   5.347   1.751  1.5973 -2.4500  0.3500
 4038SOL     hw16151   7.307   5.323   1.606 -0.8731  0.4444  0.4631
 4038SOL     vw16152   7.355   5.365   1.666 -0.3903 -0.1841  0.5142
 4039SOL     ow16153   2.765   0.486   2.382  0.4334  0.0963  0.4233
 4039SOL     hw16154   2.671   0.469   2.387  0.4118 -0.4660 -1.3628
 4039SOL     hw16155   2.774   0.577   2.411 -0.3967 -0.4002  2.4427
 4039SOL     vw16156   2.754   0.495   2.387  0.3211 -0.0434  0.4539
 4040SOL     ow16157   5.645   1.998   4.923  0.2970  0.3226 -0.2607
 4040SOL     hw16158   5.685   1.921   4.884  1.8875 -0.4059  2.5545
 4040SOL     hw16159   5.714   2.036   4.977 -1.2468  2.2224  0.4933
 4040SOL     vw16160   5.659   1.993   4.925  0.3033  0.4770  0.2100
 4041SOL     ow16161   0.164   5.358   6.606 -0.4169  0.5908 -0.0587
 4041SOL     hw16162   0.114   5.280   6.585  2.4222 -1.3513 -0.1540
 4041SOL     hw16163   0.146   5.374   6.699 -1.2342 -0.0086 -0.1080
 4041SOL     vw16164   0.155   5.350   6.616 -0.1501  0.2556 -0.0780
 4042SOL     ow16165   6.126   2.122   1.123 -0.2630 -0.0747 -0.0354
 4042SOL     hw16166   6.031   2.129   1.122 -0.2395  0.7219 -2.0472
 4042SOL     hw16167   6.152   2.134   1.031  1.8139  0.2933  0.5420
 4042SOL     vw16168   6.117   2.124   1.111  0.0141  0.0790 -0.2246
 4043SOL     ow16169   2.250   6.784   4.353 -0.1802  0.4744  0.4020
 4043SOL     hw16170   2.329   6.730   4.356 -1.0316 -1.0243 -1.4815
 4043SOL     hw16171   2.275   6.866   4.395  3.0420  0.8548 -1.9016
 4043SOL     vw16172   2.264   6.788   4.359  0.1327  0.3266 -0.1502
 4044SOL     ow16173   0.789   4.708   1.510  0.0352 -0.1564  0.1854
 4044SOL     hw16174   0.705   4.696   1.465  0.5343 -0.2199 -0.7522
 4044SOL     hw16175   0.790   4.640   1.577 -0.6474 -0.1710  0.1901
 4044SOL     vw16176   0.778   4.697   1.513  0.0110 -0.1669  0.0623
 4045SOL     ow16177   0.104   0.898   6.802  0.0082 -0.2032 -0.0899
 4045SOL     hw16178   0.179   0.842   6.781  1.0469  0.7834  0.8450
 4045SOL     hw16179   0.035   0.836   6.826  0.4520 -1.1391 -1.1435
 4045SOL     vw16180   0.105   0.882   6.802  0.2038 -0.1965 -0.1056
 4046SOL     ow16181   4.423   3.809   3.659  0.5229  0.0888 -0.2112
 4046SOL     hw16182   4.485   3.864   3.611  0.6342  1.7591  1.7441
 4046SOL     hw16183   4.390   3.865   3.729 -1.8597 -1.3216 -0.0987
 4046SOL     vw16184   4.427   3.824   3.662  0.2234  0.1231  0.0618
 4047SOL     ow16185   6.383   3.387   4.566  0.0921 -0.2559  0.5599
 4047SOL     hw16186   6.465   3.435   4.574 -0.7289  1.4197 -0.5300
 4047SOL     hw16187   6.390   3.339   4.483 -0.3557  0.5815  0.0299
 4047SOL     vw16188   6.394   3.387   4.556 -0.0753  0.0756  0.3462
 4048SOL     ow16189   6.796   7.285   5.960  0.2531  0.4746 -0.7850
 4048SOL     hw16190   6.779   7.218   5.894 -2.0230 -1.7433  1.8065
 4048SOL     hw16191   6.736   7.356   5.940 -0.2680 -0.0809 -1.1993
 4048SOL     vw16192   6.786   7.285   5.949 -0.1161  0.1085 -0.4978
 4049SOL     ow16193   0.123   1.876   1.156 -0.0643  0.1110 -0.3602
 4049SOL     hw16194   0.156   1.950   1.106 -0.4635  0.2853 -0.3766
 4049SOL     hw16195   0.188   1.861   1.224  0.0027  0.4988 -0.3379
 4049SOL     vw16196   0.136   1.884   1.158 -0.1081  0.1853 -0.3594
 4050SOL     ow16197   6.044   3.441   2.283  0.1272  0.2048 -0.6798
 4050SOL     hw16198   5.992   3.363   2.301  1.7276 -0.6709  0.4354
 4050SOL     hw16199   6.065   3.477   2.369  2.4805 -0.3044 -0.9561
 4050SOL     vw16200   6.040   3.435   2.297  0.6487  0.0221 -0.5691
 4051SOL     ow16201   1.910   2.935   0.913  0.1103  0.2550  0.4865
 4051SOL     hw16202   1.817   2.954   0.901  0.0303  0.1452  0.9068
 4051SOL     hw16203   1.947   2.939   0.825 -0.7021 -1.9171 -0.0277
 4051SOL     vw16204   1.903   2.938   0.900 -0.0075 -0.0459  0.4741
 4052SOL     ow16205   1.249   5.212   1.413 -0.8007  0.0756  0.1892
 4052SOL     hw16206   1.337   5.214   1.450 -1.1941  0.7748  1.1258
 4052SOL     hw16207   1.215   5.301   1.426 -1.1011  0.2508 -1.5419
 4052SOL     vw16208   1.256   5.224   1.419 -0.8923  0.1907  0.0843
 4053SOL     ow16209   1.231   7.130   4.125 -0.1087 -0.6429 -0.6012
 4053SOL     hw16210   1.178   7.162   4.052 -0.1643 -1.1317 -0.7775
 4053SOL     hw16211   1.213   7.191   4.197 -0.9320 -0.8194 -0.6470
 4053SOL     vw16212   1.222   7.142   4.125 -0.2246 -0.7310 -0.6306
 4054SOL     ow16213   6.362   3.987   0.507 -0.0983  0.4017  0.3920
 4054SOL     hw16214   6.269   4.006   0.518 -0.2934 -0.8428  1.1373
 4054SOL     hw16215   6.373   3.973   0.413 -0.7106  0.3524  0.3284
 4054SOL     vw16216   6.351   3.987   0.496 -0.2048  0.2309  0.4819
 4055SOL     ow16217   4.186   2.069   2.656 -0.0014  0.2560  0.1040
 4055SOL     hw16218   4.151   1.989   2.616 -1.7141  1.0684 -0.1416
 4055SOL     hw16219   4.275   2.076   2.622  0.3613 -1.7587  0.4802
 4055SOL     vw16220   4.193   2.059   2.646 -0.1795  0.0974  0.1212
 4056SOL     ow16221   4.413   6.798   6.993 -0.4053  0.0106 -0.0782
 4056SOL     hw16222   4.371   6.752   7.066 -0.4728 -1.0219 -0.7492
 4056SOL     hw16223   4.477   6.855   7.035 -2.3681  1.5514  0.9653
 4056SOL     vw16224   4.416   6.799   7.008 -0.6731  0.0777 -0.0288
 4057SOL     ow16225   5.728   2.421   0.093 -0.1951  0.9701 -0.2276
 4057SOL     hw16226   5.632   2.415   0.086 -0.5250  2.5869  1.9398
 4057SOL     hw16227   5.745   2.513   0.113  1.8473  0.7285 -0.6179
 4057SOL     vw16228   5.717   2.433   0.094  0.0305  1.1517  0.0069
 4058SOL     ow16229   6.433   5.749   4.081 -0.3776  0.3884  0.4031
 4058SOL     hw16230   6.453   5.798   4.160  0.0375 -2.3836  2.1630
 4058SOL     hw16231   6.343   5.720   4.092 -0.5348  0.5159 -0.4581
 4058SOL     vw16232   6.424   5.752   4.093 -0.3436  0.0393  0.5214
 4059SOL     ow16233   1.355   6.048   6.249 -0.0066  0.1843  0.5304
 4059SOL     hw16234   1.446   6.038   6.277  0.2514 -0.4495 -0.4556
 4059SOL     hw16235   1.355   6.128   6.197  0.1070 -0.0917  0.1003
 4059SOL     vw16236   1.367   6.057   6.246  0.0424  0.0644  0.3436
 4060SOL     ow16237   2.433   4.799   6.301 -0.0713 -0.0022  0.3345
 4060SOL     hw16238   2.422   4.828   6.392 -0.9168 -0.8856  0.5383
 4060SOL     hw16239   2.507   4.739   6.304 -2.0003 -2.5213  1.1128
 4060SOL     vw16240   2.441   4.795   6.314 -0.4375 -0.4511  0.4644
 4061SOL     ow16241   4.863   5.974   5.927  0.3994 -0.3469  0.1271
 4061SOL     hw16242   4.893   5.883   5.927  1.0704 -0.2921 -3.7911
 4061SOL     hw16243   4.822   5.986   5.841  0.5112  3.1249  0.4181
 4061SOL     vw16244   4.861   5.963   5.916  0.5026  0.1183 -0.3514
 4062SOL     ow16245   2.752   3.223   4.802 -0.1789 -0.4976 -0.2451
 4062SOL     hw16246   2.743   3.280   4.726  1.8392 -0.6769 -0.6812
 4062SOL     hw16247   2.777   3.283   4.874 -3.6703 -0.0729  0.8036
 4062SOL     vw16248   2.754   3.239   4.802 -0.3734 -0.4653 -0.1643
 4063SOL     ow16249   0.811   2.647   1.073  0.4645 -0.4085  0.2326
 4063SOL     hw16250   0.845   2.714   1.013  0.3461  1.8447  2.5081
 4063SOL     hw16251   0.721   2.634   1.045  0.5701  0.2018 -0.4273
 4063SOL     vw16252   0.804   2.654   1.061  0.4628 -0.0309  0.4457
 4064SOL     ow16253   1.426   5.421   5.830 -0.5278  0.0703 -0.6595
 4064SOL     hw16254   1.387   5.405   5.744  0.2260 -0.2922 -0.9399
 4064SOL     hw16255   1.422   5.336   5.874 -0.1823  0.0689 -0.6340
 4064SOL     vw16256   1.420   5.408   5.824 -0.3828  0.0224 -0.6933
 4065SOL     ow16257   5.311   0.368   2.732 -0.0936 -0.2148 -0.1066
 4065SOL     hw16258   5.250   0.341   2.800 -1.1949 -0.7863 -1.2904
 4065SOL     hw16259   5.300   0.463   2.726 -2.1781 -0.4695 -1.4561
 4065SOL     vw16260   5.302   0.377   2.740 -0.5140 -0.3238 -0.4410
 4066SOL     ow16261   4.071   5.438   5.815  0.5476 -0.0048 -0.5916
 4066SOL     hw16262   4.157   5.468   5.842 -0.5413  0.3265  2.9846
 4066SOL     hw16263   4.010   5.480   5.875 -2.1244 -0.6263 -2.6370
 4066SOL     vw16264   4.074   5.447   5.826  0.0513 -0.0434 -0.3898
 4067SOL     ow16265   5.403   4.252   1.099 -0.1944 -0.5188 -0.1055
 4067SOL     hw16266   5.473   4.317   1.095 -0.5000 -0.1060  0.9994
 4067SOL     hw16267   5.374   4.242   1.008 -1.6259  2.5547 -0.0958
 4067SOL     vw16268   5.408   4.259   1.086 -0.4234 -0.0589  0.0416
 4068SOL     ow16269   4.687   4.854   4.797  0.4415 -0.3828  0.2790
 4068SOL     hw16270   4.662   4.763   4.811  0.9468 -0.4974  0.4484
 4068SOL     hw16271   4.768   4.850   4.747  0.2060 -0.0164 -0.1325
 4068SOL     vw16272   4.694   4.842   4.793  0.4773 -0.3498  0.2472
 4069SOL     ow16273   4.957   4.764   0.514 -0.1897 -0.1825 -0.4899
 4069SOL     hw16274   4.943   4.738   0.423 -2.8849 -0.2337 -0.1439
 4069SOL     hw16275   4.949   4.859   0.514 -0.6605 -0.2202 -0.2423
 4069SOL     vw16276   4.954   4.773   0.502 -0.6075 -0.1943 -0.4115
 4070SOL     ow16277   3.966   2.348   3.019 -0.0511  0.4326  0.2063
 4070SOL     hw16278   4.014   2.340   3.102 -0.2195  2.2764  0.5244
 4070SOL     hw16279   3.887   2.397   3.042 -0.7772 -0.2289 -0.8158
 4070SOL     vw16280   3.962   2.353   3.033 -0.1689  0.5887  0.1134
 4071SOL     ow16281   1.982   6.417   4.060  0.1485  0.0178  0.0581
 4071SOL     hw16282   2.013   6.392   4.147  0.5119  1.0551  0.2427
 4071SOL     hw16283   1.886   6.419   4.069  0.2180  1.3172  0.8024
 4071SOL     vw16284   1.973   6.414   4.073  0.2057  0.3262  0.1807
 4072SOL     ow16285   5.189   7.213   3.597 -0.1035  0.0751  0.1916
 4072SOL     hw16286   5.187   7.192   3.691 -0.7804  0.1185  0.1910
 4072SOL     hw16287   5.127   7.285   3.587  1.8158  1.8069  0.1091
 4072SOL     vw16288   5.180   7.220   3.608  0.0603  0.3092  0.1807
 4073SOL     ow16289   6.112   7.304   3.486 -0.1614 -0.0545  0.7507
 4073SOL     hw16290   6.185   7.365   3.468  0.5975 -1.0309  0.4498
 4073SOL     hw16291   6.033   7.357   3.473  0.3991  0.2902 -1.8486
 4073SOL     vw16292   6.111   7.319   3.482  0.0126 -0.1378  0.3680
 4074SOL     ow16293   4.371   3.193   2.065  0.3003  0.3606 -0.1384
 4074SOL     hw16294   4.417   3.272   2.037  2.2176 -0.4951  0.4285
 4074SOL     hw16295   4.340   3.213   2.153  2.2421 -0.0272  0.6831
 4074SOL     vw16296   4.373   3.206   2.073  0.8094  0.1965  0.0448
 4075SOL     ow16297   5.499   0.416   1.884  0.1054  0.0987 -0.0918
 4075SOL     hw16298   5.444   0.461   1.948  2.6191  1.7928  1.0443
 4075SOL     hw16299   5.540   0.345   1.933  0.0722 -0.2276 -0.5284
 4075SOL     vw16300   5.497   0.412   1.899  0.4327  0.2792  0.0005
 4076SOL     ow16301   3.896   4.527   4.131 -0.0375 -0.1601 -0.0911
 4076SOL     hw16302   3.923   4.435   4.139 -2.6396 -0.9135  1.3208
 4076SOL     hw16303   3.853   4.532   4.046 -1.2380 -0.7247  0.4433
 4076SOL     vw16304   3.894   4.515   4.121 -0.5392 -0.3343  0.1657
 4077SOL     ow16305   1.734   6.228   1.496  0.3918 -0.1064 -0.2178
 4077SOL     hw16306   1.759   6.242   1.405 -1.1483  0.3440 -0.5895
 4077SOL     hw16307   1.812   6.253   1.546  0.6395  1.4326 -1.3053
 4077SOL     vw16308   1.748   6.233   1.491  0.2213  0.1559 -0.4103
 4078SOL     ow16309   5.028   4.928   6.158  0.9722 -0.3571  0.1249
 4078SOL     hw16310   4.974   4.869   6.211 -0.2042  3.8739  4.3713
 4078SOL     hw16311   4.967   4.968   6.096  0.6527 -0.2024  0.5320
 4078SOL     vw16312   5.013   4.926   6.157  0.7749  0.2220  0.7389
 4079SOL     ow16313   4.112   6.257   2.220  0.0108 -0.4919  0.3762
 4079SOL     hw16314   4.106   6.227   2.130  0.7599  0.2011  0.0876
 4079SOL     hw16315   4.054   6.197   2.269 -0.1684 -1.0559 -0.5019
 4079SOL     vw16316   4.103   6.245   2.215  0.0858 -0.4747  0.2222
 4080SOL     ow16317   1.479   1.444   1.280  0.7892  0.4352  0.0457
 4080SOL     hw16318   1.415   1.512   1.261 -0.0366 -0.8866 -2.2826
 4080SOL     hw16319   1.563   1.490   1.287 -0.0206  1.8878  0.6762
 4080SOL     vw16320   1.482   1.459   1.279  0.5735  0.4525 -0.1782
 4081SOL     ow16321   4.558   5.534   6.623 -0.0069 -0.2378 -0.1721
 4081SOL     hw16322   4.529   5.587   6.549 -0.0303 -1.3842 -1.0143
 4081SOL     hw16323   4.540   5.588   6.700  2.2685  2.0346 -1.1010
 4081SOL     vw16324   4.552   5.548   6.623  0.2902 -0.0892 -0.4058
 4082SOL     ow16325   6.271   4.704   0.562 -0.4628 -0.6899  0.2982
 4082SOL     hw16326   6.201   4.762   0.533  2.2192  2.7851  0.1077
 4082SOL     hw16327   6.320   4.754   0.627  3.4758 -1.6278 -1.5889
 4082SOL     vw16328   6.268   4.718   0.567  0.4108 -0.3552  0.0241
 4083SOL     ow16329   0.243   1.233   4.301 -0.3189 -0.7010 -0.5238
 4083SOL     hw16330   0.229   1.315   4.349 -0.7781 -0.5379 -0.9319
 4083SOL     hw16331   0.338   1.218   4.307 -0.4911 -1.2578  1.3526
 4083SOL     vw16332   0.254   1.242   4.308 -0.4022 -0.7530 -0.3300
 4084SOL     ow16333   4.409   4.783   5.423  0.0405 -0.0927  0.4290
 4084SOL     hw16334   4.476   4.775   5.491  2.2738 -0.3427 -1.6813
 4084SOL     hw16335   4.409   4.876   5.401  0.6712 -0.2912 -0.4643
 4084SOL     vw16336   4.418   4.795   5.429  0.4182 -0.1516  0.0327
 4085SOL     ow16337   7.292   0.174   3.525 -0.7230  0.0140 -0.1092
 4085SOL     hw16338   7.372   0.213   3.557 -2.1195  2.9527  0.1146
 4085SOL     hw16339   7.319   0.118   3.452  1.5998 -0.2487  0.8888
 4085SOL     vw16340   7.306   0.172   3.519 -0.6003  0.3671  0.0520
 4086SOL     ow16341   4.509   7.191   6.760  0.9981 -0.8575 -0.5599
 4086SOL     hw16342   4.419   7.158   6.765  0.2005  1.3850  1.4702
 4086SOL     hw16343   4.542   7.185   6.849  2.2124  0.0660 -0.9277
 4086SOL     vw16344   4.501   7.186   6.772  1.0529 -0.4396 -0.3405
 4087SOL     ow16345   5.627   6.242   2.524 -0.6616 -0.9772  0.0748
 4087SOL     hw16346   5.625   6.308   2.593  3.8770 -0.5349  0.0565
 4087SOL     hw16347   5.635   6.291   2.443  3.2131 -1.2855  0.0923
 4087SOL     vw16348   5.628   6.257   2.522  0.4485 -0.9594  0.0745
 4088SOL     ow16349   5.735   0.507   1.928 -0.3298  0.0305 -0.4595
 4088SOL     hw16350   5.640   0.500   1.919 -0.4280 -0.5494  0.8615
 4088SOL     hw16351   5.755   0.596   1.899 -1.6798  1.2855  2.1117
 4088SOL     vw16352   5.725   0.517   1.923 -0.5207  0.1196  0.0541
 4089SOL     ow16353   2.276   0.800   7.124  0.6879  0.2427 -0.1777
 4089SOL     hw16354   2.234   0.883   7.146  0.5455  0.1354 -0.0436
 4089SOL     hw16355   2.355   0.798   7.179  1.8028  1.2278 -1.6501
 4089SOL     vw16356   2.281   0.810   7.134  0.8162  0.3585 -0.3545
 4090SOL     ow16357   4.196   6.831   6.854  0.3004 -0.9918  0.2671
 4090SOL     hw16358   4.278   6.838   6.902  0.1615  0.6961  0.3193
 4090SOL     hw16359   4.131   6.805   6.919  0.1461  1.1027  1.0451
 4090SOL     vw16360   4.198   6.829   6.869  0.2615 -0.4928  0.3762
 4091SOL     ow16361   2.413   6.628   3.643 -0.2952 -0.0977  0.4467
 4091SOL     hw16362   2.436   6.721   3.630  3.9211 -1.0817 -0.8353
 4091SOL     hw16363   2.428   6.613   3.736 -3.1862  0.8849  1.1526
 4091SOL     vw16364   2.418   6.639   3.653 -0.1202 -0.0980  0.3706
 4092SOL     ow16365   6.741   6.909   4.607 -0.5278 -0.0923  0.2913
 4092SOL     hw16366   6.655   6.900   4.565 -1.0434  1.3641  0.9745
 4092SOL     hw16367   6.727   6.972   4.678  1.4263  1.2720 -0.4559
 4092SOL     vw16368   6.728   6.916   4.611 -0.3378  0.2799  0.2828
 4093SOL     ow16369   5.007   4.160   2.279 -0.5164  0.2080 -0.2306
 4093SOL     hw16370   5.061   4.113   2.343 -2.7412 -0.4015  1.3095
 4093SOL     hw16371   5.049   4.140   2.195  0.8088 -1.4412  0.7358
 4093SOL     vw16372   5.020   4.151   2.276 -0.6351 -0.0901  0.1001
 4094SOL     ow16373   2.260   0.750   0.737 -0.1785  0.0353 -0.3519
 4094SOL     hw16374   2.262   0.727   0.830 -0.5165  0.5126 -0.2277
 4094SOL     hw16375   2.242   0.667   0.692  0.5541 -0.3049 -0.0344
 4094SOL     vw16376   2.258   0.736   0.743 -0.1264  0.0534 -0.2936
 4095SOL     ow16377   6.466   6.362   1.246 -0.5928  0.4263  0.2272
 4095SOL     hw16378   6.472   6.438   1.304 -0.5001  0.2980  0.3858
 4095SOL     hw16379   6.494   6.395   1.160 -0.0998  0.4630  0.3963
 4095SOL     vw16380   6.470   6.376   1.242 -0.5159  0.4144  0.2704
 4096SOL     ow16381   1.983   1.796   3.823  0.4338  0.3796 -0.2929
 4096SOL     hw16382   1.992   1.713   3.777  0.0643  0.9358 -1.3907
 4096SOL     hw16383   2.037   1.785   3.902 -1.6910 -1.8566  0.9915
 4096SOL     vw16384   1.991   1.784   3.827  0.1047  0.1580 -0.2683
 4097SOL     ow16385   5.150   3.955   3.215  0.1816 -0.3764 -0.0038
 4097SOL     hw16386   5.182   3.867   3.234 -0.5654 -0.3546  1.5251
 4097SOL     hw16387   5.134   3.994   3.301  1.5836  1.6875 -0.6020
 4097SOL     vw16388   5.152   3.949   3.229  0.2677 -0.1013  0.1189
 4098SOL     ow16389   6.480   4.609   2.789  0.0908 -0.1274  0.6671
 4098SOL     hw16390   6.464   4.606   2.695 -1.9228 -1.2152  0.9712
 4098SOL     hw16391   6.404   4.654   2.825  2.2746  3.1290  1.6020
 4098SOL     vw16392   6.468   4.614   2.781  0.1132  0.1590  0.8304
 4099SOL     ow16393   2.137   2.889   0.221  0.4141 -0.1828 -0.3142
 4099SOL     hw16394   2.114   2.830   0.149 -1.6949 -0.5144  0.5470
 4099SOL     hw16395   2.231   2.905   0.211  0.7041 -2.3275 -1.5812
 4099SOL     vw16396   2.146   2.883   0.210  0.1739 -0.5095 -0.3678
 4100SOL     ow16397   1.977   7.291   0.724  0.1672  0.7235  0.2041
 4100SOL     hw16398   2.050   7.345   0.693  1.0447 -0.5816 -0.1015
 4100SOL     hw16399   2.017   7.230   0.786 -0.7892  0.4060  0.5276
 4100SOL     vw16400   1.992   7.290   0.728  0.1568  0.5090  0.2064
 4101SOL     ow16401   0.212   1.844   6.128 -0.1543  0.5056  0.2172
 4101SOL     hw16402   0.147   1.853   6.058 -0.0093  0.4940  0.0821
 4101SOL     hw16403   0.192   1.915   6.188  0.4490  1.2242 -0.4167
 4101SOL     vw16404   0.201   1.854   6.127 -0.0556  0.5990  0.1156
 4102SOL     ow16405   7.031   5.944   1.542 -0.2877  0.7726 -0.3001
 4102SOL     hw16406   7.007   6.033   1.571 -0.1060  0.8800 -0.4753
 4102SOL     hw16407   7.082   5.908   1.614 -3.0577 -0.4146  1.2369
 4102SOL     vw16408   7.034   5.951   1.555 -0.6294  0.6301 -0.1204
 4103SOL     ow16409   1.334   5.086   1.840  0.1545 -0.3454 -0.7389
 4103SOL     hw16410   1.284   5.012   1.805  0.3655 -1.5013  1.2581
 4103SOL     hw16411   1.281   5.119   1.913 -0.0034  1.6112 -1.6806
 4103SOL     vw16412   1.320   5.081   1.845  0.1615 -0.2398 -0.5997
 4104SOL     ow16413   1.967   6.942   1.359 -0.3193 -0.1949 -0.2548
 4104SOL     hw16414   1.897   6.913   1.418  0.5870 -0.7728  0.5705
 4104SOL     hw16415   2.047   6.929   1.409  0.3900  0.4111 -1.2034
 4104SOL     vw16416   1.968   6.936   1.373 -0.1062 -0.1910 -0.2711
 4105SOL     ow16417   4.534   5.895   5.582  1.1203  0.2519  0.3529
 4105SOL     hw16418   4.597   5.823   5.578  0.1436 -0.5821 -0.3855
 4105SOL     hw16419   4.480   5.876   5.659  1.1428  0.4379  0.4151
 4105SOL     vw16420   4.535   5.883   5.592  0.9947  0.1662  0.2637
 4106SOL     ow16421   0.387   6.896   2.260 -0.1581  0.4511 -0.2078
 4106SOL     hw16422   0.360   6.963   2.323 -0.1708  1.5627 -1.3599
 4106SOL     hw16423   0.480   6.882   2.279 -0.4585 -0.1626  0.8786
 4106SOL     vw16424   0.396   6.903   2.271 -0.1995  0.5167 -0.2164
 4107SOL     ow16425   3.603   2.986   3.211  0.7750 -0.1119  0.2868
 4107SOL     hw16426   3.694   2.959   3.206  0.6256 -0.7128  0.7783
 4107SOL     hw16427   3.586   3.028   3.127  1.1153 -1.1986 -0.3344
 4107SOL     vw16428   3.613   2.988   3.199  0.8001 -0.3346  0.2697
 4108SOL     ow16429   4.787   3.593   2.602 -0.2065  0.9593 -0.2249
 4108SOL     hw16430   4.758   3.535   2.531 -1.0020  0.5684  0.3968
 4108SOL     hw16431   4.705   3.625   2.641  0.1494 -0.2934  1.6899
 4108SOL     vw16432   4.772   3.589   2.598 -0.2649  0.7423  0.1098
 4109SOL     ow16433   0.720   0.160   6.833  0.3114  0.9010 -0.4744
 4109SOL     hw16434   0.759   0.180   6.747  1.3123 -1.3041 -0.5995
 4109SOL     hw16435   0.738   0.238   6.885  1.0309  1.6957 -1.8360
 4109SOL     vw16436   0.728   0.173   6.828  0.5384  0.7149 -0.6709
 4110SOL     ow16437   5.710   3.275   0.480  0.4232  0.3893 -0.3557
 4110SOL     hw16438   5.622   3.250   0.452  0.0364 -0.0211  1.1271
 4110SOL     hw16439   5.758   3.289   0.399 -1.2041  1.3489 -1.2079
 4110SOL     vw16440   5.705   3.273   0.466  0.1576  0.4617 -0.2725
 4111SOL     ow16441   1.107   0.278   6.701  0.3453  0.3091  0.6851
 4111SOL     hw16442   1.144   0.324   6.626  0.9765 -1.5537 -0.2108
 4111SOL     hw16443   1.135   0.187   6.689 -1.7069 -0.5211  1.8090
 4111SOL     vw16444   1.116   0.272   6.690  0.1578 -0.0462  0.7150
 4112SOL     ow16445   1.050   0.207   3.178 -0.1695 -0.1623 -0.5235
 4112SOL     hw16446   1.140   0.173   3.172  0.0517  0.4937 -1.1271
 4112SOL     hw16447   1.058   0.298   3.150 -0.9511  0.0356 -0.1122
 4112SOL     vw16448   1.063   0.215   3.173 -0.2434 -0.0496 -0.5488
 4113SOL     ow16449   4.945   4.721   4.346  0.1609 -0.2789  0.1793
 4113SOL     hw16450   4.877   4.654   4.349 -0.1082 -0.0058  0.2193
 4113SOL     hw16451   4.919   4.779   4.274  0.1266  0.0599  0.4613
 4113SOL     vw16452   4.933   4.720   4.337  0.1206 -0.1981  0.2217
 4114SOL     ow16453   7.325   7.093   3.767  0.2725 -0.1959  0.2336
 4114SOL     hw16454   7.311   7.164   3.705  1.8115 -1.1378 -1.2945
 4114SOL     hw16455   7.408   7.114   3.809  1.1822 -1.4357 -0.8445
 4114SOL     vw16456   7.334   7.105   3.764  0.5956 -0.4835 -0.1103
 4115SOL     ow16457   0.701   6.078   1.341 -0.1913 -0.1417 -0.3820
 4115SOL     hw16458   0.645   6.083   1.263 -1.1159 -0.3713  0.2442
 4115SOL     hw16459   0.640   6.064   1.413  0.6007  0.6389  0.4695
 4115SOL     vw16460   0.686   6.076   1.340 -0.2088 -0.0691 -0.1870
 4116SOL     ow16461   1.507   2.648   6.865  0.0350  0.0205 -0.2968
 4116SOL     hw16462   1.557   2.644   6.783  1.7763  0.9890  0.6635
 4116SOL     hw16463   1.571   2.673   6.931 -1.1258 -1.6723  1.5777
 4116SOL     vw16464   1.522   2.651   6.863  0.1115 -0.0750  0.0772
 4117SOL     ow16465   4.053   5.061   4.454 -0.3322  0.3634  0.0625
 4117SOL     hw16466   4.082   5.147   4.484  2.6625 -0.4782 -0.0018
 4117SOL     hw16467   4.131   5.022   4.415 -1.9985 -1.7765 -1.3853
 4117SOL     vw16468   4.067   5.067   4.453 -0.1569 -0.0300 -0.1369
 4118SOL     ow16469   6.731   5.286   2.470  0.0467 -0.3075  0.2550
 4118SOL     hw16470   6.793   5.314   2.403  0.4629 -1.3152  0.2027
 4118SOL     hw16471   6.647   5.323   2.442  0.4132  0.1806 -0.2358
 4118SOL     vw16472   6.728   5.295   2.458  0.1500 -0.3762  0.1833
 4119SOL     ow16473   3.866   1.425   6.682  0.2549  0.2945 -0.5632
 4119SOL     hw16474   3.788   1.478   6.666 -0.3781 -0.4956 -0.1593
 4119SOL     hw16475   3.832   1.336   6.693  1.1570  0.0487  0.2657
 4119SOL     vw16476   3.851   1.420   6.681  0.2905  0.1578 -0.4008
 4120SOL     ow16477   7.430   3.129   2.508  0.8360  0.5924  0.1472
 4120SOL     hw16478   7.463   3.042   2.488  1.3117  0.3764  1.7611
 4120SOL     hw16479   7.373   3.151   2.434  0.9901 -0.9256 -0.4456
 4120SOL     vw16480   7.427   3.121   2.495  0.9193  0.3637  0.2819
 4121SOL     ow16481   5.295   3.460   5.475  0.3802  0.2675 -0.3248
 4121SOL     hw16482   5.251   3.392   5.526  2.5864 -1.5125 -0.6401
 4121SOL     hw16483   5.227   3.526   5.459 -2.4325 -2.6585 -1.5598
 4121SOL     vw16484   5.280   3.460   5.480  0.3002 -0.3535 -0.5295
 4122SOL     ow16485   2.305   0.112   3.812  0.0046  0.0627 -0.4921
 4122SOL     hw16486   2.257   0.146   3.736 -0.2851  1.8920  0.4473
 4122SOL     hw16487   2.237   0.082   3.872  0.1536  0.2678 -0.2198
 4122SOL     vw16488   2.289   0.112   3.810 -0.0138  0.3311 -0.3322
 4123SOL     ow16489   4.813   2.125   3.957  0.1048 -0.1151 -0.2136
 4123SOL     hw16490   4.749   2.061   3.926  0.9409 -2.8016  2.9771
 4123SOL     hw16491   4.783   2.208   3.920 -2.5405 -1.8907 -2.5551
 4123SOL     vw16492   4.800   2.127   3.948 -0.1338 -0.7039 -0.1016
 4124SOL     ow16493   2.753   5.880   0.034  0.3798 -0.3824  0.0454
 4124SOL     hw16494   2.734   5.787   0.045 -1.9537  0.0612  0.1639
 4124SOL     hw16495   2.818   5.899   0.102  1.4568 -2.0403 -0.4502
 4124SOL     vw16496   2.759   5.870   0.045  0.2141 -0.5429 -0.0043
 4125SOL     ow16497   5.083   1.037   5.828 -0.6396 -0.0798 -0.0116
 4125SOL     hw16498   5.030   1.116   5.827  0.6194  0.8018 -0.8073
 4125SOL     hw16499   5.146   1.050   5.757  1.6735 -0.3082  1.8725
 4125SOL     vw16500   5.085   1.049   5.818 -0.1681  0.0064  0.1321
 4126SOL     ow16501   6.737   0.393   1.427  0.3543  0.4792 -0.4546
 4126SOL     hw16502   6.709   0.460   1.365  0.9818  1.2933  0.1172
 4126SOL     hw16503   6.656   0.361   1.467 -0.0027  0.4007 -1.2160
 4126SOL     vw16504   6.723   0.398   1.424  0.3901  0.5763 -0.4796
 4127SOL     ow16505   1.876   1.296   1.222 -0.5658  0.1343 -0.3026
 4127SOL     hw16506   1.906   1.234   1.288 -2.0665  1.2286  1.4789
 4127SOL     hw16507   1.898   1.254   1.138  1.1705 -1.3951  0.8428
 4127SOL     vw16508   1.883   1.283   1.219 -0.5347  0.0769  0.0836
 4128SOL     ow16509   3.898   5.640   2.002  0.3159 -0.0262  1.0438
 4128SOL     hw16510   3.961   5.697   1.958 -0.0549  0.6567  1.3824
 4128SOL     hw16511   3.943   5.555   2.007 -0.1356 -0.5573 -1.8651
 4128SOL     vw16512   3.912   5.636   1.997  0.2074 -0.0060  0.7046
 4129SOL     ow16513   4.454   3.378   3.882  0.3472 -0.5853  0.1100
 4129SOL     hw16514   4.450   3.449   3.946  1.3897 -0.5740  0.1741
 4129SOL     hw16515   4.417   3.416   3.802 -1.2802 -0.7025  0.7606
 4129SOL     vw16516   4.448   3.392   3.880  0.2701 -0.5991  0.2043
 4130SOL     ow16517   5.284   3.524   7.079 -0.5196 -0.4210  0.2706
 4130SOL     hw16518   5.203   3.556   7.038 -1.1365 -1.1377  0.8999
 4130SOL     hw16519   5.257   3.445   7.125  0.6821 -1.0113 -0.0200
 4130SOL     vw16520   5.269   3.518   7.080 -0.4423 -0.5934  0.3152
 4131SOL     ow16521   2.089   4.249   1.998 -0.3163  0.8414  0.7220
 4131SOL     hw16522   2.049   4.261   2.084  0.6782 -2.0190  1.7154
 4131SOL     hw16523   2.183   4.255   2.014  0.0990 -2.9808  0.6586
 4131SOL     vw16524   2.096   4.251   2.011 -0.1302 -0.0401  0.8447
 4132SOL     ow16525   5.667   7.455   3.248  0.5867  0.0929  0.0719
 4132SOL     hw16526   5.713   7.470   3.330  2.8390 -0.7969 -0.9166
 4132SOL     hw16527   5.715   7.383   3.207 -2.4510 -1.7419 -0.5962
 4132SOL     vw16528   5.680   7.447   3.253  0.4830 -0.2663 -0.1467
 4133SOL     ow16529   7.274   6.209   3.914  0.6909  0.7337 -0.5701
 4133SOL     hw16530   7.334   6.226   3.842  2.5231  2.4899  1.2281
 4133SOL     hw16531   7.321   6.148   3.971  1.1982  2.6759  1.2240
 4133SOL     vw16532   7.288   6.203   3.912  0.9999  1.2214 -0.0961
 4134SOL     ow16533   7.149   4.749   5.463  0.4329  0.1734 -0.2059
 4134SOL     hw16534   7.065   4.704   5.448 -0.0555  0.9014  0.2928
 4134SOL     hw16535   7.166   4.795   5.381  1.4222 -1.6329 -1.0848
 4134SOL     vw16536   7.140   4.749   5.450  0.4990  0.0310 -0.2558
 4135SOL     ow16537   4.414   1.286   4.629  0.2356 -0.0317  0.0792
 4135SOL     hw16538   4.486   1.308   4.688  0.4146 -1.5601  0.4754
 4135SOL     hw16539   4.445   1.313   4.543  0.2783  1.5357  0.5521
 4135SOL     vw16540   4.427   1.292   4.626  0.2646 -0.0266  0.1938
 4136SOL     ow16541   0.169   4.819   5.575  0.3189  0.5105 -0.4709
 4136SOL     hw16542   0.199   4.871   5.649  0.2465  0.7977 -0.6385
 4136SOL     hw16543   0.135   4.884   5.513 -1.8573  0.1592  0.2490
 4136SOL     vw16544   0.168   4.835   5.576  0.0222  0.5019 -0.3982
 4137SOL     ow16545   0.841   1.558   3.086 -0.0550  0.8009  0.2047
 4137SOL     hw16546   0.851   1.544   3.180  0.0903 -1.3588 -0.0905
 4137SOL     hw16547   0.837   1.470   3.048  1.9734  1.5677 -2.0518
 4137SOL     vw16548   0.842   1.545   3.093  0.2318  0.6171 -0.1321
 4138SOL     ow16549   4.467   6.852   0.502 -0.0278  0.0388  0.5993
 4138SOL     hw16550   4.490   6.943   0.484 -0.0115 -0.2125 -0.7663
 4138SOL     hw16551   4.541   6.801   0.467  0.3723 -0.4681  2.1368
 4138SOL     vw16552   4.480   6.857   0.495  0.0272 -0.0613  0.6220
 4139SOL     ow16553   6.761   7.209   2.389  0.1026  0.1119  0.2138
 4139SOL     hw16554   6.697   7.241   2.324 -1.5293  2.0041  2.5385
 4139SOL     hw16555   6.709   7.194   2.468  2.1899 -0.7517  1.5082
 4139SOL     vw16556   6.745   7.212   2.391  0.1626  0.2477  0.6913
 4140SOL     ow16557   5.998   4.407   0.582 -0.1156 -0.2816 -0.2841
 4140SOL     hw16558   6.087   4.437   0.600  0.1064 -0.0245 -1.6477
 4140SOL     hw16559   5.952   4.413   0.666  0.6318  1.4364  0.0385
 4140SOL     vw16560   6.003   4.412   0.595  0.0119 -0.0210 -0.4215
 4141SOL     ow16561   1.106   5.918   2.973  0.0347  0.2195 -0.1399
 4141SOL     hw16562   1.147   5.834   2.993 -0.0444 -0.1197 -1.3232
 4141SOL     hw16563   1.016   5.895   2.948 -0.1395  0.7097  0.0275
 4141SOL     vw16564   1.100   5.904   2.972  0.0013  0.2394 -0.2739
 4142SOL     ow16565   0.156   1.560   1.116 -0.1733  0.2666 -0.0461
 4142SOL     hw16566   0.161   1.471   1.081 -1.0151  0.3595 -0.4335
 4142SOL     hw16567   0.149   1.548   1.211 -1.7568 -0.1702 -0.1731
 4142SOL     vw16568   0.155   1.547   1.124 -0.4933  0.2213 -0.1140
 4143SOL     ow16569   6.317   6.082   2.448 -0.2295  0.0257 -0.0836
 4143SOL     hw16570   6.390   6.133   2.486 -0.1315 -1.6435  2.1981
 4143SOL     hw16571   6.328   5.995   2.486 -2.5776 -0.6636 -0.8823
 4143SOL     vw16572   6.328   6.077   2.458 -0.5262 -0.2854  0.1121
 4144SOL     ow16573   6.656   3.645   2.524  0.3804  0.0927  0.2088
 4144SOL     hw16574   6.721   3.588   2.564  0.2365 -0.3902 -0.2289
 4144SOL     hw16575   6.646   3.718   2.586  0.6902 -0.2702  0.6930
 4144SOL     vw16576   6.663   3.647   2.537  0.4022 -0.0190  0.2151
 4145SOL     ow16577   5.783   4.433   0.030  0.4347  0.2523 -0.2502
 4145SOL     hw16578   5.786   4.337   0.031 -0.5008  0.2081 -0.0567
 4145SOL     hw16579   5.842   4.458  -0.040  3.3825 -0.2898  1.8647
 4145SOL     vw16580   5.791   4.423   0.021  0.7002  0.1752  0.0544
 4146SOL     ow16581   5.103   0.962   1.045 -0.3938 -0.4584  0.4474
 4146SOL     hw16582   5.020   0.916   1.033 -1.1496  1.2155 -1.1746
 4146SOL     hw16583   5.078   1.053   1.056  1.0947 -0.2929  3.1494
 4146SOL     vw16584   5.089   0.968   1.045 -0.2971 -0.2158  0.5898
 4147SOL     ow16585   2.507   0.821   7.262 -0.0402  0.4314  0.1079
 4147SOL     hw16586   2.468   0.908   7.273 -1.1781  0.0493 -0.7495
 4147SOL     hw16587   2.585   0.836   7.209  0.5128  1.0859  1.0638
 4147SOL     vw16588   2.512   0.835   7.257 -0.1173  0.4673  0.1211
 4148SOL     ow16589   1.207   2.616   2.678 -0.4649 -0.2225 -0.1237
 4148SOL     hw16590   1.292   2.608   2.720 -0.7402 -0.7015  0.3602
 4148SOL     hw16591   1.171   2.527   2.680 -0.5636 -0.2179 -1.2029
 4148SOL     vw16592   1.214   2.603   2.684 -0.5143 -0.2851 -0.2022
 4149SOL     ow16593   0.533   3.885   3.829  0.2219  0.3990  0.5795
 4149SOL     hw16594   0.443   3.879   3.796 -0.3870 -1.9513  2.3461
 4149SOL     hw16595   0.528   3.952   3.898  0.0553  0.9464  0.0411
 4149SOL     vw16596   0.520   3.893   3.834  0.1196  0.1611  0.7416
 4150SOL     ow16597   6.218   3.066   6.117  0.1120 -0.1642  0.9693
 4150SOL     hw16598   6.124   3.059   6.098  0.3104 -1.6419  0.3430
 4150SOL     hw16599   6.222   3.105   6.204 -1.1067 -0.6444  1.2662
 4150SOL     vw16600   6.206   3.070   6.126 -0.0226 -0.4227  0.9258
 4151SOL     ow16601   5.593   1.614   6.145  0.6975  0.1873  0.0263
 4151SOL     hw16602   5.598   1.574   6.232 -1.8719 -0.5333 -0.0942
 4151SOL     hw16603   5.517   1.671   6.149  0.7809  0.4513 -1.6389
 4151SOL     vw16604   5.584   1.616   6.157  0.3693  0.1271 -0.2093
 4152SOL     ow16605   6.533   3.582   6.279 -0.0526  1.0942  0.3442
 4152SOL     hw16606   6.527   3.528   6.358 -0.0171  1.2216  0.4347
 4152SOL     hw16607   6.615   3.630   6.289 -0.2002  1.3400  0.3758
 4152SOL     vw16608   6.543   3.581   6.291 -0.0675  1.1436  0.3605
 4153SOL     ow16609   3.414   3.457   4.462 -0.2932  0.2063 -0.0287
 4153SOL     hw16610   3.423   3.438   4.368 -0.0638 -1.0148  0.2168
 4153SOL     hw16611   3.456   3.383   4.505 -2.6469 -0.5909  1.0769
 4153SOL     vw16612   3.421   3.444   4.455 -0.5734 -0.0600  0.1497
 4154SOL     ow16613   2.103   3.405   1.115  0.4863  0.2361  0.3062
 4154SOL     hw16614   2.046   3.345   1.068  0.1457  1.0255 -0.3061
 4154SOL     hw16615   2.067   3.408   1.204  1.0541 -1.1507  0.6139
 4154SOL     vw16616   2.091   3.397   1.121  0.5164  0.1572  0.2660
 4155SOL     ow16617   4.878   3.573   4.284 -0.0205 -0.3830 -0.7087
 4155SOL     hw16618   4.787   3.604   4.278  0.0111 -0.3621 -1.0798
 4155SOL     hw16619   4.902   3.589   4.375  0.1537  1.1448 -1.0014
 4155SOL     vw16620   4.869   3.579   4.295  0.0067 -0.1787 -0.7963
 4156SOL     ow16621   1.935   3.725   6.010 -0.9263  0.1743  0.1738
 4156SOL     hw16622   1.900   3.650   6.058  1.5875 -1.8896 -0.9493
 4156SOL     hw16623   1.864   3.753   5.953 -1.4920 -2.4076 -0.5064
 4156SOL     vw16624   1.921   3.719   6.009 -0.6693 -0.4386 -0.0641
 4157SOL     ow16625   5.630   1.348   1.710 -0.1422 -0.6588 -0.5466
 4157SOL     hw16626   5.604   1.296   1.787 -1.8997  0.6098 -0.2211
 4157SOL     hw16627   5.547   1.380   1.675  0.5973 -1.3993 -3.1666
 4157SOL     vw16628   5.616   1.345   1.716 -0.2766 -0.5890 -0.8493
 4158SOL     ow16629   1.411   1.658   3.114 -0.1900 -0.0285  0.2067
 4158SOL     hw16630   1.484   1.717   3.131  2.6273 -2.7489 -1.3372
 4158SOL     hw16631   1.385   1.677   3.024 -3.4952  2.7506  1.4926
 4158SOL     vw16632   1.417   1.668   3.105 -0.2543 -0.0207  0.1726
 4159SOL     ow16633   4.034   3.993   1.204  0.1702  0.0280 -0.1758
 4159SOL     hw16634   4.000   3.912   1.166 -0.7942 -1.2722  3.1466
 4159SOL     hw16635   3.982   4.062   1.164  0.0715 -1.0627 -2.0610
 4159SOL     vw16636   4.023   3.991   1.193  0.0300 -0.2874  0.0138
 4160SOL     ow16637   0.817   0.224   2.510 -0.2308  0.1847 -0.7210
 4160SOL     hw16638   0.769   0.160   2.562  0.5032  0.1992 -0.0185
 4160SOL     hw16639   0.833   0.297   2.569  0.5389  0.2391 -0.9853
 4160SOL     vw16640   0.813   0.226   2.524 -0.0323  0.1938 -0.6630
 4161SOL     ow16641   2.739   6.368   5.995  1.2729  0.6600  0.2963
 4161SOL     hw16642   2.686   6.332   5.925  2.4227 -0.7088  0.0922
 4161SOL     hw16643   2.708   6.458   6.005 -1.8736 -0.3989  1.0096
 4161SOL     vw16644   2.728   6.375   5.987  1.0096  0.3397  0.3633
 4162SOL     ow16645   3.415   1.521   5.808 -0.2805  0.4198  0.0093
 4162SOL     hw16646   3.375   1.545   5.725 -0.3034  2.4741  0.5512
 4162SOL     hw16647   3.475   1.593   5.827  0.4645 -0.4996  1.2929
 4162SOL     vw16648   3.418   1.534   5.800 -0.1851  0.5695  0.2501
 4163SOL     ow16649   6.128   7.504   2.597 -0.0408 -0.0157 -0.9030
 4163SOL     hw16650   6.111   7.588   2.554 -0.8109  0.9298  1.1479
 4163SOL     hw16651   6.224   7.495   2.594 -0.0089  0.4391 -1.9636
 4163SOL     vw16652   6.139   7.513   2.591 -0.1380  0.1691 -0.7722
 4164SOL     ow16653   6.100   4.933   7.433 -0.0323 -0.2181 -0.2378
 4164SOL     hw16654   6.093   5.028   7.442 -2.0621 -0.2170 -1.3306
 4164SOL     hw16655   6.050   4.898   7.506 -1.1275 -0.3889 -1.0425
 4164SOL     vw16656   6.093   4.941   7.443 -0.4447 -0.2406 -0.4880
 4165SOL     ow16657   1.963   4.597   5.840 -0.4209 -0.4686  0.2773
 4165SOL     hw16658   1.897   4.544   5.795  0.1534 -1.0430  0.0928
 4165SOL     hw16659   1.912   4.659   5.892 -1.1369  0.9074 -1.9216
 4165SOL     vw16660   1.947   4.598   5.841 -0.4396 -0.3629 -0.0372
 4166SOL     ow16661   4.795   4.625   3.908  0.3298 -0.2800 -0.1174
 4166SOL     hw16662   4.737   4.614   3.984  0.1937 -1.6914 -0.3960
 4166SOL     hw16663   4.880   4.647   3.946 -0.1489  0.8630  0.3396
 4166SOL     vw16664   4.799   4.626   3.923  0.2487 -0.3152 -0.0938
 4167SOL     ow16665   2.782   2.648   0.450 -0.4386  0.4389  0.0781
 4167SOL     hw16666   2.835   2.651   0.530 -0.2344 -0.2459 -0.0244
 4167SOL     hw16667   2.838   2.687   0.383  0.5611 -1.6043 -0.3581
 4167SOL     vw16668   2.796   2.654   0.452 -0.2798  0.0790  0.0070
 4168SOL     ow16669   6.660   2.261   4.325 -0.1091  0.4333  0.4265
 4168SOL     hw16670   6.708   2.238   4.246 -0.6508  0.8319 -0.0206
 4168SOL     hw16671   6.713   2.225   4.396  0.9115  0.9702 -0.0453
 4168SOL     vw16672   6.673   2.253   4.324 -0.0460  0.5568  0.3054
 4169SOL     ow16673   0.653   6.460   1.625 -0.1921 -0.1448 -0.1611
 4169SOL     hw16674   0.583   6.401   1.652 -0.7752 -0.3372 -1.9337
 4169SOL     hw16675   0.681   6.426   1.540  0.7854  1.0059 -0.3214
 4169SOL     vw16676   0.647   6.448   1.617 -0.1401 -0.0184 -0.4162
 4170SOL     ow16677   4.943   1.759   4.344  0.2332 -0.2769  0.3963
 4170SOL     hw16678   4.977   1.711   4.419  0.3303 -0.3205  0.3252
 4170SOL     hw16679   4.870   1.810   4.379  0.8882  0.4524  0.7159
 4170SOL     vw16680   4.938   1.759   4.358  0.3326 -0.1864  0.4292
 4171SOL     ow16681   4.413   5.067   1.550 -0.3437  0.2172 -0.0678
 4171SOL     hw16682   4.444   5.130   1.486  0.6400 -1.3316 -1.1807
 4171SOL     hw16683   4.490   5.013   1.571 -0.7767  0.2905  1.9775
 4171SOL     vw16684   4.427   5.068   1.545 -0.2706  0.0224  0.0553
 4172SOL     ow16685   6.884   3.962   2.730 -0.0661 -0.9630  0.6523
 4172SOL     hw16686   6.936   3.976   2.651 -0.3270 -2.6083  0.1588
 4172SOL     hw16687   6.850   4.049   2.752  0.1371 -0.4498 -0.9470
 4172SOL     vw16688   6.887   3.975   2.723 -0.0737 -1.1123  0.3761
 4173SOL     ow16689   0.845   7.503   7.016 -0.6216 -0.1293  0.1826
 4173SOL     hw16690   0.800   7.554   6.948 -0.1190 -0.2967 -0.2789
 4173SOL     hw16691   0.781   7.497   7.087  0.3757  4.0710  1.7257
 4173SOL     vw16692   0.831   7.509   7.016 -0.4237  0.4027  0.3254
 4174SOL     ow16693   0.559   3.270   0.509 -0.0761  0.4648 -0.2962
 4174SOL     hw16694   0.627   3.300   0.448  0.4499  1.1464  0.5977
 4174SOL     hw16695   0.586   3.305   0.593 -0.9085 -0.2878  0.2965
 4174SOL     vw16696   0.572   3.279   0.512 -0.1165  0.4556 -0.1000
 4175SOL     ow16697   0.367   5.846   5.963 -0.1202  0.5394  0.1991
 4175SOL     hw16698   0.365   5.794   6.043 -0.4839  0.4301  0.1207
 4175SOL     hw16699   0.281   5.834   5.924  1.0134 -2.0125 -1.8681
 4175SOL     vw16700   0.356   5.837   5.968 -0.0186  0.1886 -0.0839
 4176SOL     ow16701   4.327   3.232   2.341  0.0180  0.6069 -0.8046
 4176SOL     hw16702   4.399   3.190   2.389 -1.1778 -1.9762 -1.0711
 4176SOL     hw16703   4.248   3.209   2.391 -0.6996  3.4536 -0.4491
 4176SOL     vw16704   4.326   3.223   2.354 -0.2346  0.6417 -0.7929
 4177SOL     ow16705   1.998   6.156   0.093 -0.5160 -0.1108  0.8922
 4177SOL     hw16706   1.949   6.231   0.058  1.7513  1.0342 -0.0443
 4177SOL     hw16707   2.069   6.196   0.143 -0.4191 -1.7008  2.0981
 4177SOL     vw16708   2.001   6.172   0.095 -0.2041 -0.1698  0.9277
 4178SOL     ow16709   2.600   5.158   2.193  0.2256 -0.2786  0.0086
 4178SOL     hw16710   2.616   5.200   2.108 -1.5365  0.2708 -0.0951
 4178SOL     hw16711   2.553   5.077   2.171 -1.0646  0.3154  0.4677
 4178SOL     vw16712   2.596   5.153   2.179 -0.1770 -0.1280  0.0556
 4179SOL     ow16713   1.956   6.789   5.429 -0.0219 -0.0391  0.1148
 4179SOL     hw16714   2.011   6.741   5.366  0.9101  1.4417 -0.2360
 4179SOL     hw16715   1.867   6.771   5.401  0.2421 -2.0745  0.3763
 4179SOL     vw16716   1.952   6.780   5.417  0.1358 -0.1123  0.1030
 4180SOL     ow16717   7.241   0.743   0.950  0.1413  0.1273 -0.2845
 4180SOL     hw16718   7.236   0.707   0.861  2.8589 -0.9445 -0.1157
 4180SOL     hw16719   7.246   0.838   0.937  0.1051  0.0055 -1.2676
 4180SOL     vw16720   7.241   0.751   0.937  0.4952 -0.0302 -0.3919
 4181SOL     ow16721   6.633   0.498   4.886  0.0797 -0.2164  0.7068
 4181SOL     hw16722   6.554   0.443   4.889  0.1009 -0.2828  0.1710
 4181SOL     hw16723   6.683   0.464   4.812 -0.0468  0.7053  0.1739
 4181SOL     vw16724   6.629   0.486   4.876  0.0658 -0.1036  0.5658
 4182SOL     ow16725   0.428   5.335   6.578 -0.7530 -0.2775  0.1484
 4182SOL     hw16726   0.469   5.419   6.597  0.2439 -0.6370 -0.3588
 4182SOL     hw16727   0.335   5.348   6.599 -0.1088 -0.0575  3.3777
 4182SOL     vw16728   0.421   5.348   6.583 -0.5365 -0.2956  0.5074
 4183SOL     ow16729   6.586   5.706   1.229 -0.1225 -0.0783  0.4859
 4183SOL     hw16730   6.603   5.623   1.184 -2.7010  1.1628 -3.2942
 4183SOL     hw16731   6.616   5.773   1.167 -2.8349  1.7739  0.9769
 4183SOL     vw16732   6.592   5.704   1.215 -0.8206  0.3300  0.0519
 4184SOL     ow16733   3.154   7.104   4.715 -0.0312  0.6292  0.1711
 4184SOL     hw16734   3.190   7.026   4.758 -1.4939 -0.7291 -0.9212
 4184SOL     hw16735   3.109   7.151   4.785  0.2163  0.0822  0.7110
 4184SOL     vw16736   3.152   7.100   4.730 -0.1915  0.3781  0.0985
 4185SOL     ow16737   5.817   6.304   0.922  0.4483  0.5887  0.1452
 4185SOL     hw16738   5.763   6.227   0.939 -0.5397  1.2824  0.1984
 4185SOL     hw16739   5.834   6.341   1.009 -0.6974  1.5082 -0.0078
 4185SOL     vw16740   5.812   6.299   0.936  0.1669  0.8016  0.1321
 4186SOL     ow16741   6.492   5.478   0.948 -0.1230 -0.1807 -0.8601
 4186SOL     hw16742   6.451   5.451   1.030  0.8963 -0.5300 -0.4471
 4186SOL     hw16743   6.419   5.503   0.892 -0.8466  0.0073  0.1285
 4186SOL     vw16744   6.477   5.478   0.952 -0.0839 -0.2019 -0.6752
 4187SOL     ow16745   2.434   7.349   4.682 -0.1752  0.0616 -0.3450
 4187SOL     hw16746   2.520   7.373   4.650 -0.7302  3.7780  0.4955
 4187SOL     hw16747   2.373   7.399   4.628 -1.6768 -0.7633  0.5031
 4187SOL     vw16748   2.437   7.359   4.671 -0.4467  0.4432 -0.1221
 4188SOL     ow16749   3.749   5.249   1.392 -0.8296 -0.0009  0.1032
 4188SOL     hw16750   3.723   5.179   1.332 -2.1171  2.2683 -2.1794
 4188SOL     hw16751   3.844   5.256   1.381 -0.6886 -1.3535  0.3596
 4188SOL     vw16752   3.759   5.241   1.383 -0.9809  0.1199 -0.1642
 4189SOL     ow16753   0.867   5.037   1.749  0.1265 -0.5058  0.4874
 4189SOL     hw16754   0.833   4.947   1.748  0.9263 -0.8549  1.7900
 4189SOL     hw16755   0.831   5.075   1.829 -0.0449  0.2865  0.0490
 4189SOL     vw16756   0.858   5.030   1.760  0.2094 -0.4475  0.6015
 4190SOL     ow16757   6.926   4.187   3.007  0.3144 -0.0437 -0.0197
 4190SOL     hw16758   7.002   4.238   2.979  0.6092 -1.4093 -1.8232
 4190SOL     hw16759   6.862   4.200   2.938 -0.9724  0.7179  1.2654
 4190SOL     vw16760   6.928   4.195   2.994  0.1836 -0.1235 -0.0880
 4191SOL     ow16761   7.210   0.581   6.190 -0.0300  0.0144 -0.0769
 4191SOL     hw16762   7.127   0.602   6.146 -0.5652  0.8628  1.2854
 4191SOL     hw16763   7.193   0.498   6.234  0.2349 -0.3976 -0.7271
 4191SOL     vw16764   7.197   0.572   6.190 -0.0660  0.0720  0.0169
 4192SOL     ow16765   0.933   6.613   1.728  0.9161  0.7924 -0.1865
 4192SOL     hw16766   0.982   6.601   1.647  2.5768 -0.5651  0.9495
 4192SOL     hw16767   0.999   6.643   1.791 -0.1404  0.8837  0.9120
 4192SOL     vw16768   0.949   6.616   1.726  0.9958  0.6254  0.1084
 4193SOL     ow16769   0.497   0.367   6.543  0.0233 -0.0057 -0.1883
 4193SOL     hw16770   0.455   0.427   6.605 -0.3305  0.6000 -0.9981
 4193SOL     hw16771   0.447   0.286   6.550  1.0265 -0.5366  1.5370
 4193SOL     vw16772   0.485   0.364   6.552  0.1089  0.0042 -0.0672
 4194SOL     ow16773   0.526   4.312   0.553 -0.8927  0.1532  0.1338
 4194SOL     hw16774   0.437   4.276   0.561 -0.6864 -1.4785 -3.0395
 4194SOL     hw16775   0.514   4.396   0.509 -0.8864 -0.4238 -1.0154
 4194SOL     vw16776   0.513   4.318   0.548 -0.8647 -0.1385 -0.4365
 4195SOL     ow16777   4.106   4.143   1.686  0.3453 -0.0371 -0.3645
 4195SOL     hw16778   4.159   4.212   1.646  2.2413 -0.6172  1.0129
 4195SOL     hw16779   4.055   4.187   1.754  2.7895 -0.1481  1.6560
 4195SOL     vw16780   4.106   4.158   1.690  0.9177 -0.1283  0.0839
 4196SOL     ow16781   3.862   3.445   3.322  0.5249  0.1491  0.1128
 4196SOL     hw16782   3.939   3.470   3.270  0.5624 -0.1310  0.0353
 4196SOL     hw16783   3.898   3.406   3.401  0.4967  1.9269  1.0487
 4196SOL     vw16784   3.877   3.443   3.326  0.5260  0.3467  0.2260
 4197SOL     ow16785   4.002   5.158   5.801  0.1575 -0.6386 -0.3304
 4197SOL     hw16786   3.918   5.154   5.847  0.2820  1.9393  0.2675
 4197SOL     hw16787   4.025   5.066   5.784 -1.6690 -1.4981  1.4908
 4197SOL     vw16788   3.994   5.145   5.805 -0.0669 -0.4115 -0.0112
 4198SOL     ow16789   6.966   6.094   3.852  0.2474 -0.6063 -0.0783
 4198SOL     hw16790   6.959   6.029   3.782 -0.8906 -1.6942  0.9891
 4198SOL     hw16791   7.059   6.112   3.859  0.4129 -0.7148 -1.6322
 4198SOL     vw16792   6.977   6.088   3.844  0.1192 -0.7641 -0.1426
 4199SOL     ow16793   7.361   7.014   1.655 -0.0400  0.4857 -0.0206
 4199SOL     hw16794   7.380   7.071   1.729 -2.2868 -0.0498  1.0595
 4199SOL     hw16795   7.445   7.003   1.611  0.7965  3.3452  0.6129
 4199SOL     vw16796   7.375   7.020   1.659 -0.2263  0.7920  0.2055
 4200SOL     ow16797   2.448   4.946   2.097  0.1687  0.1654  0.1157
 4200SOL     hw16798   2.385   4.949   2.025 -0.0639 -0.0698  0.3070
 4200SOL     hw16799   2.442   4.857   2.131 -0.1599  0.4425  0.8117
 4200SOL     vw16800   2.439   4.935   2.092  0.0947  0.1709  0.2328
 4201SOL     ow16801   1.909   3.205   0.918  0.6824  0.1114  0.4860
 4201SOL     hw16802   1.906   3.110   0.929  0.3945  0.1547  0.8384
 4201SOL     hw16803   1.964   3.220   0.841 -0.9220 -0.4437 -0.8338
 4201SOL     vw16804   1.916   3.195   0.909  0.4328  0.0437  0.3584
 4202SOL     ow16805   4.558   4.587   1.808 -0.0841 -0.0693  0.1047
 4202SOL     hw16806   4.637   4.554   1.764 -1.2097 -1.7380 -0.7375
 4202SOL     hw16807   4.589   4.610   1.896  1.5831  0.4927 -0.5738
 4202SOL     vw16808   4.573   4.586   1.814 -0.0126 -0.2155 -0.0960
 4203SOL     ow16809   2.688   1.205   7.177  0.3361 -0.6541 -0.2950
 4203SOL     hw16810   2.774   1.166   7.196  0.6843 -0.0800 -0.6570
 4203SOL     hw16811   2.658   1.160   7.099  1.8413  1.3998 -2.1903
 4203SOL     vw16812   2.696   1.194   7.169  0.5807 -0.3073 -0.5929
 4204SOL     ow16813   4.279   3.889   0.027  0.0006  0.3055  0.1919
 4204SOL     hw16814   4.344   3.857   0.089 -0.2703 -1.3201 -0.3351
 4204SOL     hw16815   4.236   3.811  -0.006 -1.9313  1.3054  0.1917
 4204SOL     vw16816   4.282   3.875   0.031 -0.2899  0.2229  0.1223
 4205SOL     ow16817   1.535   4.902   7.290 -0.3418 -0.2450  0.9990
 4205SOL     hw16818   1.444   4.932   7.280  0.2153  0.8629 -1.6344
 4205SOL     hw16819   1.586   4.982   7.296  0.5868 -0.8194  0.9132
 4205SOL     vw16820   1.530   4.917   7.290 -0.1459 -0.1745  0.6404
 4206SOL     ow16821   7.155   1.009   4.948  0.1554  0.4404 -0.1279
 4206SOL     hw16822   7.152   0.976   4.859 -1.2716  0.1172  0.0268
 4206SOL     hw16823   7.240   1.052   4.954  0.3248  0.3631 -1.5956
 4206SOL     vw16824   7.166   1.010   4.937 -0.0107  0.3875 -0.3011
 4207SOL     ow16825   0.211   0.455   1.498 -0.1424 -0.2332  0.3964
 4207SOL     hw16826   0.173   0.367   1.505  2.5698 -1.7211 -1.6086
 4207SOL     hw16827   0.172   0.491   1.418  1.5026 -1.2265 -0.9168
 4207SOL     vw16828   0.201   0.448   1.488  0.4325 -0.5605 -0.0414
 4208SOL     ow16829   4.112   3.238   2.519  0.1250  0.1062  0.7333
 4208SOL     hw16830   4.134   3.255   2.611 -1.2561 -0.4780  1.1935
 4208SOL     hw16831   4.017   3.240   2.516  0.0330 -2.3337 -0.1682
 4208SOL     vw16832   4.102   3.240   2.531 -0.0694 -0.2928  0.6751
 4209SOL     ow16833   3.784   3.178   3.966  0.4547  0.2818 -0.2845
 4209SOL     hw16834   3.782   3.167   4.062  0.2898  2.0506 -0.0673
 4209SOL     hw16835   3.862   3.230   3.950  1.5155 -1.5095 -1.3318
 4209SOL     vw16836   3.794   3.183   3.977  0.5729  0.2787 -0.3941
 4210SOL     ow16837   3.478   3.441   4.172  0.1619 -0.4558 -0.3041
 4210SOL     hw16838   3.480   3.536   4.170  1.1235 -0.4702 -0.5766
 4210SOL     hw16839   3.386   3.418   4.154 -0.1917  0.4170  0.3604
 4210SOL     vw16840   3.466   3.450   4.169  0.2421 -0.3425 -0.2522
 4211SOL     ow16841   1.749   7.272   3.916 -0.4757 -0.6023  0.2122
 4211SOL     hw16842   1.766   7.362   3.942 -2.5620  0.3647 -1.4674
 4211SOL     hw16843   1.830   7.243   3.873 -0.1705  0.8819 -0.2645
 4211SOL     vw16844   1.762   7.280   3.914 -0.7106 -0.2787 -0.0722
 4212SOL     ow16845   3.196   7.088   2.452 -1.0923  0.0459 -0.4597
 4212SOL     hw16846   3.219   7.022   2.517  0.7251  1.2925  0.2473
 4212SOL     hw16847   3.264   7.082   2.386 -0.6709  1.4255 -0.1904
 4212SOL     vw16848   3.208   7.079   2.452 -0.7970  0.3924 -0.3309
 4213SOL     ow16849   0.894   5.473   1.253  0.4808  0.0863  1.1032
 4213SOL     hw16850   0.841   5.421   1.313  1.6143 -2.6813 -0.1343
 4213SOL     hw16851   0.984   5.456   1.279  1.2623 -3.6428 -2.9001
 4213SOL     vw16852   0.899   5.464   1.264  0.7335 -0.7708  0.4117
 4214SOL     ow16853   1.908   5.474   1.872 -0.3172  0.3043 -0.2673
 4214SOL     hw16854   1.899   5.391   1.919  0.2873 -0.4184 -1.3961
 4214SOL     hw16855   1.849   5.466   1.797 -0.0913  0.8108 -0.5072
 4214SOL     vw16856   1.899   5.462   1.868 -0.2076  0.2759 -0.4479
 4215SOL     ow16857   4.235   1.042   2.102 -0.6943  0.5588 -0.3894
 4215SOL     hw16858   4.257   1.071   2.191 -3.9270  2.4185 -0.0302
 4215SOL     hw16859   4.142   1.063   2.093 -0.1427  1.9917 -4.8068
 4215SOL     vw16860   4.226   1.048   2.113 -1.0481  0.9931 -0.9247
 4216SOL     ow16861   1.102   0.482   2.334  0.8253 -0.2167 -0.0044
 4216SOL     hw16862   1.016   0.523   2.331  1.0944  0.3860  0.2673
 4216SOL     hw16863   1.139   0.495   2.247  0.1282 -1.6434 -0.5432
 4216SOL     vw16864   1.096   0.489   2.322  0.7688 -0.3254 -0.0397
 4217SOL     ow16865   1.322   6.783   2.478 -0.1821 -0.2991 -0.7822
 4217SOL     hw16866   1.281   6.761   2.394 -4.5151  1.9610  0.4388
 4217SOL     hw16867   1.309   6.705   2.532  0.8127 -1.0341 -1.5678
 4217SOL     vw16868   1.315   6.770   2.474 -0.6225 -0.0978 -0.7248
 4218SOL     ow16869   0.896   1.435   3.604 -0.0006 -0.5438  0.1513
 4218SOL     hw16870   0.822   1.449   3.663 -0.0239 -0.1210  0.0263
 4218SOL     hw16871   0.900   1.340   3.593 -1.3974 -0.5063 -0.9445
 4218SOL     vw16872   0.887   1.425   3.610 -0.1880 -0.4832 -0.0099
 4219SOL     ow16873   6.424   0.694   7.176 -0.4097 -0.4448  0.0186
 4219SOL     hw16874   6.330   0.687   7.194 -0.4001  0.8234  0.6704
 4219SOL     hw16875   6.466   0.671   7.259 -0.1885  0.4058  0.1422
 4219SOL     vw16876   6.417   0.690   7.189 -0.3791 -0.1653  0.1206
 4220SOL     ow16877   6.618   4.637   6.616 -0.2039  0.1061  0.0296
 4220SOL     hw16878   6.562   4.671   6.546 -0.6244  3.2135  1.7316
 4220SOL     hw16879   6.565   4.645   6.695  1.0204 -1.3476  1.0458
 4220SOL     vw16880   6.604   4.642   6.617 -0.0978  0.3240  0.3884
 4221SOL     ow16881   6.675   7.340   1.462  0.6748  0.4398 -0.3810
 4221SOL     hw16882   6.700   7.254   1.427  0.2574  0.6987 -1.3629
 4221SOL     hw16883   6.584   7.351   1.434 -0.7468 -0.5510  3.2237
 4221SOL     vw16884   6.667   7.330   1.454  0.4323  0.3431 -0.0350
 4222SOL     ow16885   4.118   5.893   4.120 -0.0732  0.1255 -0.3857
 4222SOL     hw16886   4.126   5.934   4.206 -0.5735 -2.0901  0.8041
 4222SOL     hw16887   4.208   5.875   4.094  0.0295 -1.4820  0.9134
 4222SOL     vw16888   4.131   5.896   4.128 -0.1256 -0.3786 -0.0575
 4223SOL     ow16889   0.319   6.216   2.241 -0.2820  0.2882  0.0305
 4223SOL     hw16890   0.360   6.186   2.159 -0.0186 -0.0993  0.3013
 4223SOL     hw16891   0.227   6.229   2.218 -0.4611 -0.9907 -0.0378
 4223SOL     vw16892   0.313   6.214   2.227 -0.2708  0.0682  0.0573
 4224SOL     ow16893   4.602   0.332   2.721 -0.3570  0.1576  0.3259
 4224SOL     hw16894   4.676   0.392   2.726  0.1109 -0.3525 -0.2172
 4224SOL     hw16895   4.636   0.256   2.673 -1.1870 -0.1537  0.2051
 4224SOL     vw16896   4.616   0.330   2.715 -0.4048  0.0492  0.2384
 4225SOL     ow16897   5.349   5.155   0.021 -0.4697 -0.1538 -0.1082
 4225SOL     hw16898   5.303   5.087  -0.029 -0.8203 -0.7898  1.0429
 4225SOL     hw16899   5.384   5.214  -0.045 -1.6303 -0.5101 -1.0693
 4225SOL     vw16900   5.347   5.154   0.006 -0.6692 -0.2844 -0.0832
 4226SOL     ow16901   0.977   2.566   6.617 -0.4185  0.2971  0.0766
 4226SOL     hw16902   0.921   2.508   6.566 -0.0876  1.7983 -2.1414
 4226SOL     hw16903   1.056   2.576   6.564  1.1707 -0.1782  2.1931
 4226SOL     vw16904   0.980   2.560   6.603 -0.1651  0.4324  0.0632
 4227SOL     ow16905   4.227   6.965   6.394 -0.1715 -0.3597  0.3301
 4227SOL     hw16906   4.237   6.873   6.369 -1.2828 -0.3180 -0.3461
 4227SOL     hw16907   4.276   6.973   6.476 -0.6845 -1.7433  0.8160
 4227SOL     vw16908   4.235   6.954   6.402 -0.3858 -0.5369  0.3049
 4228SOL     ow16909   5.853   3.976   2.490 -0.2785 -0.7304 -0.1674
 4228SOL     hw16910   5.898   4.014   2.414 -0.0384  0.1769  0.4213
 4228SOL     hw16911   5.765   3.957   2.457  0.2571 -1.7338 -1.0842
 4228SOL     vw16912   5.847   3.979   2.475 -0.1762 -0.7430 -0.2108
 4229SOL     ow16913   0.084   7.385   0.546  0.1383 -0.0350  1.2511
 4229SOL     hw16914   0.131   7.315   0.592  1.5057 -0.6064 -0.8674
 4229SOL     hw16915   0.009   7.340   0.506  1.7416 -0.6905 -1.2272
 4229SOL     vw16916   0.080   7.370   0.547  0.5303 -0.1967  0.6446
 4230SOL     ow16917   0.250   1.523   0.221  0.0889  0.4638 -0.3905
 4230SOL     hw16918   0.241   1.582   0.296 -0.6064 -0.9855  0.7336
 4230SOL     hw16919   0.285   1.443   0.259  2.9774  0.7530 -2.2056
 4230SOL     vw16920   0.253   1.520   0.236  0.3783  0.3107 -0.4817
 4231SOL     ow16921   6.849   6.522   1.340 -0.3080  0.2490 -0.4006
 4231SOL     hw16922   6.797   6.534   1.419  0.0956  0.7108 -0.2044
 4231SOL     hw16923   6.875   6.430   1.342 -0.5681  0.1784 -0.1696
 4231SOL     vw16924   6.845   6.511   1.351 -0.2892  0.3004 -0.3443
 4232SOL     ow16925   5.290   0.817   0.065 -0.2451  0.3250  0.2525
 4232SOL     hw16926   5.348   0.891   0.047 -0.1237  0.4105  0.9909
 4232SOL     hw16927   5.216   0.830   0.006 -0.0750  0.8572  0.1501
 4232SOL     vw16928   5.288   0.828   0.054 -0.2067  0.4065  0.3364
 4233SOL     ow16929   1.192   7.107   6.460 -0.4109  0.4167 -0.2174
 4233SOL     hw16930   1.117   7.052   6.482 -1.5423  1.6168 -0.9043
 4233SOL     hw16931   1.209   7.159   6.539  0.2351 -0.4255  0.2089
 4233SOL     vw16932   1.185   7.107   6.473 -0.4750  0.4640 -0.2518
 4234SOL     ow16933   4.315   2.489   4.628 -0.0261  0.0338 -0.1486
 4234SOL     hw16934   4.284   2.401   4.605  0.2760  0.1021 -0.8128
 4234SOL     hw16935   4.341   2.528   4.545  1.6701  0.0439  0.3638
 4234SOL     vw16936   4.314   2.483   4.614  0.2377  0.0442 -0.1688
 4235SOL     ow16937   6.971   4.257   3.354 -0.5956  0.0890  0.6581
 4235SOL     hw16938   6.952   4.309   3.276  1.2845 -0.7685 -0.4377
 4235SOL     hw16939   6.922   4.176   3.341  0.3036 -0.3595 -0.0324
 4235SOL     vw16940   6.962   4.253   3.342 -0.2289 -0.0832  0.4224
 4236SOL     ow16941   7.373   7.451   3.385  0.6488  0.2754 -0.1645
 4236SOL     hw16942   7.378   7.444   3.290  0.9134  0.0973 -0.1384
 4236SOL     hw16943   7.460   7.426   3.416  0.4854  0.0659  0.1380
 4236SOL     vw16944   7.385   7.447   3.376  0.6621  0.2244 -0.1211
 4237SOL     ow16945   1.504   0.836   2.285  0.2909 -0.2924  0.4937
 4237SOL     hw16946   1.476   0.756   2.327  0.5675 -0.4426  0.3960
 4237SOL     hw16947   1.444   0.847   2.211 -0.4354  0.1781  1.1469
 4237SOL     vw16948   1.492   0.827   2.281  0.2316 -0.2501  0.5670
 4238SOL     ow16949   0.474   5.133   3.484  0.1408  0.6623  0.1589
 4238SOL     hw16950   0.508   5.047   3.511 -0.3306  0.8596  1.4478
 4238SOL     hw16951   0.483   5.133   3.389 -0.7111 -1.2025  0.0279
 4238SOL     vw16952   0.480   5.122   3.475 -0.0338  0.4423  0.3116
 4239SOL     ow16953   5.766   1.042   0.734 -0.2762 -0.6149  0.5887
 4239SOL     hw16954   5.709   1.098   0.681  0.1898 -0.1793  0.5370
 4239SOL     hw16955   5.855   1.062   0.703  0.3553  1.9149  3.5067
 4239SOL     vw16956   5.770   1.052   0.723 -0.1311 -0.2237  0.9668
 4240SOL     ow16957   3.474   7.484   2.736 -0.1687 -0.2624  1.0769
 4240SOL     hw16958   3.536   7.493   2.808 -1.5423  1.2814  2.1345
 4240SOL     hw16959   3.511   7.538   2.666 -0.6654  1.3286  1.9912
 4240SOL     vw16960   3.487   7.492   2.736 -0.4156  0.1512  1.3371
 4241SOL     ow16961   1.829   3.513   6.117 -0.2873  0.1998 -0.4105
 4241SOL     hw16962   1.751   3.519   6.173  0.0722 -1.0864  0.2740
 4241SOL     hw16963   1.893   3.467   6.170  0.0571 -1.1210 -1.8712
 4241SOL     vw16964   1.827   3.508   6.131 -0.1943 -0.1441 -0.5128
 4242SOL     ow16965   1.667   7.155   2.218 -0.1848 -0.4416 -0.0219
 4242SOL     hw16966   1.758   7.176   2.236  0.2606  0.2568 -2.7082
 4242SOL     hw16967   1.626   7.150   2.305  1.7017  2.3558  1.1788
 4242SOL     vw16968   1.673   7.157   2.232  0.1228  0.0198 -0.2179
 4243SOL     ow16969   0.902   6.971   2.745 -0.1636  0.3704  0.1775
 4243SOL     hw16970   0.812   6.975   2.711 -0.1145 -0.9432 -0.1582
 4243SOL     hw16971   0.901   6.900   2.808  0.7629 -0.0354 -0.2399
 4243SOL     vw16972   0.890   6.962   2.749 -0.0349  0.1433  0.0782
 4244SOL     ow16973   2.297   3.045   2.879  0.2322  0.4215  0.5263
 4244SOL     hw16974   2.344   2.988   2.818 -1.4491 -0.8225  0.2981
 4244SOL     hw16975   2.346   3.127   2.879  3.3849 -1.3020  1.6578
 4244SOL     vw16976   2.310   3.048   2.871  0.4264  0.0299  0.6455
 4245SOL     ow16977   6.036   3.814   6.693 -0.0713  0.3290  0.5586
 4245SOL     hw16978   6.112   3.791   6.640 -0.8176  0.2324 -0.4877
 4245SOL     hw16979   6.073   3.841   6.777  1.3958  3.6058 -0.9716
 4245SOL     vw16980   6.051   3.814   6.697  0.0236  0.7485  0.2186
 4246SOL     ow16981   3.810   5.089   4.828 -0.3783 -0.3921  0.1268
 4246SOL     hw16982   3.743   5.153   4.803  1.4736  1.1739 -1.0966
 4246SOL     hw16983   3.854   5.129   4.903  1.5441  0.4236 -1.3522
 4246SOL     vw16984   3.807   5.103   4.834  0.1197 -0.0780 -0.2296
 4247SOL     ow16985   3.219   5.440   6.907 -0.0043  0.8249 -0.2545
 4247SOL     hw16986   3.230   5.519   6.961  3.4696  0.1522  0.2919
 4247SOL     hw16987   3.204   5.370   6.969  0.0069  0.6130 -0.4887
 4247SOL     vw16988   3.219   5.442   6.922  0.4556  0.7083 -0.2136
 4248SOL     ow16989   3.265   5.190   4.259 -0.5915  0.3888 -0.0204
 4248SOL     hw16990   3.295   5.200   4.169 -0.2081  1.8492  0.2409
 4248SOL     hw16991   3.329   5.131   4.299 -1.3239 -1.0728 -0.9407
 4248SOL     vw16992   3.278   5.184   4.252 -0.6375  0.3886 -0.1070
 4249SOL     ow16993   1.863   4.449   3.673 -0.0024 -0.2908 -0.2600
 4249SOL     hw16994   1.789   4.505   3.696  0.8519  1.1236 -0.8621
 4249SOL     hw16995   1.941   4.499   3.700  0.8422 -0.4412 -2.2899
 4249SOL     vw16996   1.864   4.463   3.680  0.2218 -0.1245 -0.6073
 4250SOL     ow16997   6.404   5.064   1.872  0.1680  0.0639  0.2056
 4250SOL     hw16998   6.310   5.064   1.888 -0.3694 -2.5059 -2.1857
 4250SOL     hw16999   6.424   4.974   1.848  2.3814  1.3561 -3.6442
 4250SOL     vw17000   6.395   5.052   1.871  0.3893 -0.1047 -0.6179
 4251SOL     ow17001   2.232   0.603   7.500  0.6249 -0.1863 -0.4020
 4251SOL     hw17002   2.294   0.591   7.428 -1.2826 -0.1511 -2.1619
 4251SOL     hw17003   2.230   0.518   7.544  0.6653 -0.7323 -1.4194
 4251SOL     vw17004   2.240   0.590   7.496  0.3784 -0.2537 -0.7684
 4252SOL     ow17005   2.005   5.865   0.242 -0.1697 -0.4036  0.2543
 4252SOL     hw17006   2.042   5.777   0.246  0.8785 -0.0672 -1.3022
 4252SOL     hw17007   2.012   5.898   0.332 -1.1406 -2.1009  0.9900
 4252SOL     vw17008   2.011   5.858   0.255 -0.1596 -0.5834  0.1460
 4253SOL     ow17009   6.105   6.089   2.272  0.2505  0.0263 -0.5718
 4253SOL     hw17010   6.073   6.112   2.359  0.1259 -1.6381 -0.1359
 4253SOL     hw17011   6.025   6.081   2.219  0.3922  2.2451 -1.1997
 4253SOL     vw17012   6.090   6.091   2.276  0.2527  0.0994 -0.5972
 4254SOL     ow17013   4.373   3.504   3.642  0.0729 -0.3662 -0.0500
 4254SOL     hw17014   4.406   3.594   3.633 -1.1924  0.1203  0.0075
 4254SOL     hw17015   4.278   3.514   3.647  0.0090 -1.5615  1.8742
 4254SOL     vw17016   4.365   3.518   3.642 -0.1023 -0.4599  0.2115
 4255SOL     ow17017   2.648   0.275   4.098  0.6458  0.0843 -0.3669
 4255SOL     hw17018   2.738   0.257   4.126  0.8125 -0.7694 -1.3663
 4255SOL     hw17019   2.604   0.305   4.177  1.1167 -2.0629  0.7887
 4255SOL     vw17020   2.654   0.276   4.112  0.7300 -0.3117 -0.3464
 4256SOL     ow17021   2.765   1.884   7.278 -0.0617  0.1368 -0.1045
 4256SOL     hw17022   2.720   1.806   7.309 -0.3352  0.7380  1.0485
 4256SOL     hw17023   2.695   1.939   7.241  0.4526 -1.4563 -3.9740
 4256SOL     vw17024   2.750   1.881   7.277 -0.0298  0.0060 -0.4628
 4257SOL     ow17025   4.742   0.391   1.568 -0.1488  0.5147  0.2038
 4257SOL     hw17026   4.673   0.366   1.630  1.1035 -2.4038  0.5966
 4257SOL     hw17027   4.696   0.439   1.499 -2.1525  0.7581  1.6121
 4257SOL     vw17028   4.727   0.394   1.567 -0.2480  0.1618  0.4414
 4258SOL     ow17029   1.160   6.225   0.215  0.4256 -0.1273 -0.0811
 4258SOL     hw17030   1.089   6.185   0.165  0.9425 -1.5303  0.2620
 4258SOL     hw17031   1.237   6.216   0.160  0.1888  2.3177 -0.8918
 4258SOL     vw17032   1.161   6.218   0.201  0.4625  0.0103 -0.1428
 4259SOL     ow17033   6.094   0.763   3.702  0.7110 -0.7064  0.6057
 4259SOL     hw17034   6.034   0.713   3.757 -1.2395  0.1003 -0.7059
 4259SOL     hw17035   6.063   0.749   3.612  0.8442  1.7880  0.0867
 4259SOL     vw17036   6.082   0.755   3.697  0.4711 -0.2709  0.3643
 4260SOL     ow17037   4.966   6.511   2.511 -0.3080 -0.7690 -0.3678
 4260SOL     hw17038   4.910   6.541   2.439  0.4549  0.5339 -0.4412
 4260SOL     hw17039   5.047   6.560   2.501 -0.9590  1.1924  2.6699
 4260SOL     vw17040   4.969   6.521   2.500 -0.2933 -0.3386  0.0234
 4261SOL     ow17041   5.842   5.246   4.933  0.5780 -0.2082 -0.0538
 4261SOL     hw17042   5.782   5.172   4.922  2.3168 -1.3662 -2.7150
 4261SOL     hw17043   5.866   5.242   5.026  0.2210 -2.7076  0.0231
 4261SOL     vw17044   5.837   5.235   4.944  0.7603 -0.6907 -0.3948
 4262SOL     ow17045   7.063   0.277   1.927 -0.1251  0.2158  0.1105
 4262SOL     hw17046   7.051   0.330   2.005  1.9678 -0.4020  0.9283
 4262SOL     hw17047   7.093   0.192   1.960  0.8380 -0.0534 -1.3417
 4262SOL     vw17048   7.065   0.273   1.942  0.2780  0.0987  0.0268
 4263SOL     ow17049   2.601   5.456   1.315 -0.0503  0.4675  0.1500
 4263SOL     hw17050   2.515   5.416   1.308 -0.6517  1.2870  2.2420
 4263SOL     hw17051   2.648   5.425   1.237 -1.3740 -2.0421  0.2471
 4263SOL     vw17052   2.596   5.447   1.304 -0.3043  0.2444  0.4388
 4264SOL     ow17053   7.398   6.522   1.821 -0.2171  0.1246 -0.3045
 4264SOL     hw17054   7.372   6.606   1.784 -1.4496 -0.3703 -0.6168
 4264SOL     hw17055   7.493   6.526   1.825 -0.2284  1.3297 -0.7948
 4264SOL     vw17056   7.407   6.534   1.816 -0.3812  0.2184 -0.4104
 4265SOL     ow17057   4.103   3.498   2.421  0.2238  0.1437 -0.8683
 4265SOL     hw17058   4.117   3.408   2.451 -0.2983  0.0523 -0.8949
 4265SOL     hw17059   4.108   3.492   2.325  2.4903  0.5345 -0.8220
 4265SOL     vw17060   4.106   3.485   2.412  0.4537  0.1832 -0.8657
 4266SOL     ow17061   6.308   4.326   2.681 -0.1888  0.2088  0.3195
 4266SOL     hw17062   6.272   4.245   2.643 -2.4471  2.4875 -2.9712
 4266SOL     hw17063   6.357   4.365   2.609 -1.1535  2.8303  0.9926
 4266SOL     vw17064   6.310   4.320   2.667 -0.6137  0.8554 -0.0259
 4267SOL     ow17065   4.301   6.298   2.423  0.0473  0.7000 -0.0348
 4267SOL     hw17066   4.236   6.279   2.355  2.1071 -1.9991 -1.4243
 4267SOL     hw17067   4.257   6.275   2.505 -0.6620 -1.5583 -0.9641
 4267SOL     vw17068   4.286   6.293   2.425  0.2255  0.0460 -0.3406
 4268SOL     ow17069   0.702   4.716   2.735  0.2727  0.0335  0.2340
 4268SOL     hw17070   0.611   4.730   2.712  0.6203  0.9172 -0.6270
 4268SOL     hw17071   0.700   4.640   2.794 -1.1630  0.9268  1.3971
 4268SOL     vw17072   0.690   4.708   2.740  0.1291  0.2680  0.2739
 4269SOL     ow17073   6.227   3.109   1.764  0.2802 -0.0529  0.0353
 4269SOL     hw17074   6.262   3.023   1.788 -1.2402 -0.2372  1.8944
 4269SOL     hw17075   6.187   3.095   1.679  0.9778 -0.9059 -0.1724
 4269SOL     vw17076   6.226   3.096   1.756  0.1717 -0.1898  0.2531
 4270SOL     ow17077   7.099   6.515   1.981  0.5460 -0.3696  0.0596
 4270SOL     hw17078   7.032   6.457   2.017  1.5094 -1.7277 -0.2753
 4270SOL     hw17079   7.064   6.603   1.997 -0.6621 -0.9981  1.1536
 4270SOL     vw17080   7.085   6.519   1.988  0.5138 -0.6316  0.1598
 4271SOL     ow17081   1.986   4.251   2.236 -0.1440 -0.2481  0.2584
 4271SOL     hw17082   2.010   4.342   2.251  0.6428 -0.2086 -1.0873
 4271SOL     hw17083   2.043   4.200   2.294  0.3029  0.0614  0.0951
 4271SOL     vw17084   1.997   4.256   2.245  0.0187 -0.2022  0.0594
 4272SOL     ow17085   7.143   6.915   4.941  0.2097  0.5586 -0.3380
 4272SOL     hw17086   7.183   6.853   4.879 -0.5327 -0.8448  0.5247
 4272SOL     hw17087   7.118   6.990   4.887  1.1601  0.1333 -1.4186
 4272SOL     vw17088   7.145   6.917   4.925  0.2372  0.3169 -0.3669
 4273SOL     ow17089   6.354   4.677   1.378  0.1591 -0.2779  0.8747
 4273SOL     hw17090   6.293   4.677   1.452 -0.7324 -0.6997  0.1525
 4273SOL     hw17091   6.323   4.747   1.321  0.0575 -0.8134  0.2669
 4273SOL     vw17092   6.342   4.686   1.380  0.0279 -0.4041  0.6993
 4274SOL     ow17093   6.448   4.638   6.814 -0.0293  0.0932 -0.6765
 4274SOL     hw17094   6.384   4.608   6.750  1.9011 -1.6036 -1.9275
 4274SOL     hw17095   6.480   4.558   6.855  1.8808  0.8031 -0.6864
 4274SOL     vw17096   6.443   4.623   6.811  0.4776 -0.0370 -0.8428
 4275SOL     ow17097   3.828   4.117   6.512 -0.2460 -0.6227  0.2857
 4275SOL     hw17098   3.806   4.024   6.513 -1.6592 -0.3361  2.2204
 4275SOL     hw17099   3.830   4.141   6.420  0.7970 -2.6743 -0.2871
 4275SOL     vw17100   3.826   4.108   6.500 -0.2947 -0.8557  0.4654
 4276SOL     ow17101   4.220   4.472   3.906  0.0899  0.7134 -0.6036
 4276SOL     hw17102   4.180   4.387   3.886 -0.5702  0.8602  0.0384
 4276SOL     hw17103   4.275   4.491   3.831  0.6046 -0.5049 -0.5635
 4276SOL     vw17104   4.222   4.463   3.894  0.0708  0.5720 -0.5136
 4277SOL     ow17105   1.828   6.335   7.471 -0.5085  0.7433 -0.0801
 4277SOL     hw17106   1.751   6.312   7.524  0.6011 -2.3063  0.3646
 4277SOL     hw17107   1.814   6.290   7.388  0.4088  0.8542 -0.3011
 4277SOL     vw17108   1.816   6.326   7.467 -0.2410  0.3555 -0.0505
 4278SOL     ow17109   2.967   7.100   3.729 -0.3150 -0.1399 -0.1526
 4278SOL     hw17110   2.873   7.117   3.732 -0.2280  0.3214 -0.0448
 4278SOL     hw17111   3.005   7.177   3.686  0.2000  0.4917  1.3621
 4278SOL     vw17112   2.960   7.112   3.724 -0.2354  0.0043  0.0616
 4279SOL     ow17113   7.106   6.558   4.188 -0.6290 -0.0451 -0.4499
 4279SOL     hw17114   7.020   6.592   4.162 -0.8128  0.7128  1.0464
 4279SOL     hw17115   7.133   6.502   4.114 -1.5004  1.2688 -1.8282
 4279SOL     vw17116   7.098   6.555   4.175 -0.7682  0.2282 -0.4344
 4280SOL     ow17117   2.375   4.232   2.019 -0.1640  0.2860  0.2055
 4280SOL     hw17118   2.421   4.179   1.954 -2.9425 -1.2760 -0.6822
 4280SOL     hw17119   2.404   4.197   2.103  0.3502 -0.5706 -0.3092
 4280SOL     vw17120   2.385   4.220   2.022 -0.4628 -0.0334  0.0204
 4281SOL     ow17121   5.354   6.485   2.352  0.0725  0.2273 -1.5748
 4281SOL     hw17122   5.306   6.444   2.280 -0.0942 -1.6857 -0.4550
 4281SOL     hw17123   5.445   6.488   2.321 -0.2974  1.2968 -2.6200
 4281SOL     vw17124   5.360   6.480   2.338  0.0017  0.1159 -1.5650
 4282SOL     ow17125   7.370   1.516   6.403  1.1377  0.1168 -0.4555
 4282SOL     hw17126   7.333   1.585   6.347  0.5296  0.7128  0.6385
 4282SOL     hw17127   7.427   1.466   6.345  0.5399  0.7166 -1.5997
 4282SOL     vw17128   7.372   1.519   6.388  0.9789  0.2747 -0.4623
 4283SOL     ow17129   5.436   6.623   6.717 -0.2310  0.0309  0.2845
 4283SOL     hw17130   5.390   6.691   6.767 -2.1268  0.9197 -2.4502
 4283SOL     hw17131   5.509   6.670   6.677 -0.8446  0.2005 -0.6513
 4283SOL     vw17132   5.439   6.638   6.719 -0.5620  0.1707 -0.2000
 4284SOL     ow17133   1.385   5.747   6.191 -0.2289  0.1895 -0.6163
 4284SOL     hw17134   1.454   5.762   6.126 -0.9057 -0.8483 -1.6246
 4284SOL     hw17135   1.353   5.659   6.171 -0.2644 -0.2799  1.3386
 4284SOL     vw17136   1.390   5.737   6.180 -0.3229 -0.0093 -0.4916
 4285SOL     ow17137   2.964   1.319   4.737 -0.4107 -0.0265  0.3592
 4285SOL     hw17138   3.007   1.314   4.651 -2.2570 -2.4800 -0.5386
 4285SOL     hw17139   2.975   1.231   4.774 -0.4766  0.7211  2.2382
 4285SOL     vw17140   2.971   1.307   4.730 -0.6630 -0.2515  0.4888
 4286SOL     ow17141   4.683   0.799   5.421 -0.1472 -0.2587  0.2829
 4286SOL     hw17142   4.769   0.769   5.450 -0.0494  0.8869  1.2625
 4286SOL     hw17143   4.673   0.761   5.334  2.2293  1.1469 -0.7206
 4286SOL     vw17144   4.693   0.790   5.413  0.1791  0.0778  0.2797
 4287SOL     ow17145   6.245   4.819   1.591  0.0318 -0.8290  0.6052
 4287SOL     hw17146   6.180   4.780   1.649  0.0879 -2.6521 -0.4684
 4287SOL     hw17147   6.196   4.884   1.541 -0.2620 -0.0400  1.8791
 4287SOL     vw17148   6.230   4.822   1.592  0.0002 -0.9656  0.6316
 4288SOL     ow17149   3.530   3.407   3.400  0.3766  0.5685  0.3514
 4288SOL     hw17150   3.459   3.451   3.448  1.1680  0.3297  1.8080
 4288SOL     hw17151   3.509   3.314   3.409 -1.1060  0.5241 -2.4236
 4288SOL     vw17152   3.518   3.400   3.408  0.2853  0.5311  0.1775
 4289SOL     ow17153   4.493   1.525   3.602  0.6144 -0.1467 -0.0052
 4289SOL     hw17154   4.461   1.602   3.648  0.2137 -0.8527  0.9430
 4289SOL     hw17155   4.437   1.517   3.525 -0.4906 -0.4695  0.8141
 4289SOL     vw17156   4.482   1.534   3.598  0.4158 -0.2825  0.2279
 4290SOL     ow17157   0.704   3.689   2.656 -0.3740 -1.0138 -0.8069
 4290SOL     hw17158   0.641   3.630   2.698 -0.6662 -1.7916 -2.2883
 4290SOL     hw17159   0.689   3.678   2.562  1.0516 -0.1787 -1.1663
 4290SOL     vw17160   0.693   3.680   2.649 -0.2244 -1.0061 -1.0499
 4291SOL     ow17161   0.328   1.377   5.658 -0.5811 -0.2048 -0.2910
 4291SOL     hw17162   0.246   1.382   5.707 -0.0450  1.2810  0.5165
 4291SOL     hw17163   0.378   1.309   5.702 -1.2478 -0.9207 -0.6117
 4291SOL     vw17164   0.324   1.369   5.670 -0.5984 -0.1032 -0.2267
 4292SOL     ow17165   4.356   1.010   4.601 -0.0916 -0.8357  0.3043
 4292SOL     hw17166   4.371   1.076   4.669  1.6711 -0.2161 -0.6131
 4292SOL     hw17167   4.435   0.957   4.601 -0.0422 -0.8171 -1.2492
 4292SOL     vw17168   4.368   1.012   4.610  0.1473 -0.7515 -0.0217
 4293SOL     ow17169   3.229   3.791   7.310  0.6586 -0.5071  0.3333
 4293SOL     hw17170   3.262   3.737   7.239 -2.4508 -2.8568  0.4350
 4293SOL     hw17171   3.284   3.769   7.385  2.1521 -0.2002 -0.6462
 4293SOL     vw17172   3.240   3.781   7.311  0.4454 -0.7766  0.2177
 4294SOL     ow17173   3.557   6.624   1.752  0.1895 -0.4319 -0.3647
 4294SOL     hw17174   3.581   6.601   1.842  1.1016  0.0075 -0.4826
 4294SOL     hw17175   3.555   6.720   1.751  3.0001 -0.2992 -1.4688
 4294SOL     vw17176   3.560   6.634   1.764  0.6806 -0.3567 -0.5260
 4295SOL     ow17177   2.088   2.041   2.828  0.2188 -0.2034  0.1823
 4295SOL     hw17178   2.144   2.003   2.895  0.2098  0.3326  0.4996
 4295SOL     hw17179   2.101   1.986   2.751  2.1429  0.6511 -0.1465
 4295SOL     vw17180   2.097   2.028   2.827  0.4714 -0.0198  0.1808
 4296SOL     ow17181   6.279   4.893   6.704  0.4591 -0.2686  0.1540
 4296SOL     hw17182   6.370   4.923   6.698  0.7552 -0.1366  3.4375
 4296SOL     hw17183   6.285   4.801   6.727 -0.1227  0.0235  1.6470
 4296SOL     vw17184   6.292   4.885   6.706  0.4215 -0.2127  0.7839
 4297SOL     ow17185   4.040   5.433   2.075 -0.5689  0.1721  0.0501
 4297SOL     hw17186   4.005   5.396   2.156 -1.4652 -0.3976 -0.5672
 4297SOL     hw17187   4.057   5.357   2.019  1.7563  0.4255  0.3212
 4297SOL     vw17188   4.037   5.418   2.078 -0.3805  0.1307  0.0044
 4298SOL     ow17189   2.824   4.926   7.347 -0.1512  0.1734  0.4035
 4298SOL     hw17190   2.869   4.846   7.322 -1.5892 -0.7789  0.7249
 4298SOL     hw17191   2.887   4.974   7.400  2.1039  1.1168 -2.8490
 4298SOL     vw17192   2.838   4.922   7.351 -0.0433  0.1721  0.0167
 4299SOL     ow17193   6.364   6.826   1.354 -0.0901  0.0363  0.3612
 4299SOL     hw17194   6.315   6.844   1.434 -1.2502  1.6709 -0.6433
 4299SOL     hw17195   6.418   6.904   1.340  0.7177 -0.5772 -0.0200
 4299SOL     vw17196   6.364   6.839   1.363 -0.1369  0.1712  0.1785
 4300SOL     ow17197   3.637   5.498   1.941 -0.5011  0.2624 -0.2990
 4300SOL     hw17198   3.557   5.462   1.902  0.0858  0.1267 -1.4209
 4300SOL     hw17199   3.706   5.437   1.915 -0.1300 -0.0810  1.3536
 4300SOL     vw17200   3.636   5.485   1.932 -0.3747  0.1993 -0.2291
 4301SOL     ow17201   5.588   4.636   2.102 -0.0453 -0.0511 -0.1014
 4301SOL     hw17202   5.507   4.686   2.093  0.2922  0.2850 -1.5496
 4301SOL     hw17203   5.608   4.639   2.195 -1.7076 -0.1686  0.2909
 4301SOL     vw17204   5.580   4.643   2.113 -0.2198 -0.0222 -0.2408
 4302SOL     ow17205   5.294   6.470   4.063 -0.8658 -0.5146  0.0684
 4302SOL     hw17206   5.292   6.541   3.999 -1.9312  0.7086  1.3858
 4302SOL     hw17207   5.367   6.415   4.036  0.6749  1.6440 -0.4192
 4302SOL     vw17208   5.303   6.472   4.051 -0.8028 -0.0684  0.1779
 4303SOL     ow17209   4.772   4.457   1.701 -0.0141 -0.2380 -0.3377
 4303SOL     hw17210   4.813   4.404   1.632 -3.2223 -3.1791 -0.2728
 4303SOL     hw17211   4.845   4.490   1.753  2.3911 -0.5610 -3.2571
 4303SOL     vw17212   4.787   4.454   1.699 -0.1202 -0.6685 -0.7143
 4304SOL     ow17213   1.968   2.935   2.672  0.0022  0.4802  0.2515
 4304SOL     hw17214   1.893   2.927   2.612 -0.0519 -2.5973  0.5536
 4304SOL     hw17215   2.034   2.876   2.635 -0.4351 -2.4505  3.6109
 4304SOL     vw17216   1.967   2.926   2.659 -0.0626 -0.3124  0.7346
 4305SOL     ow17217   4.481   3.153   0.718 -0.8186  0.2213 -0.6506
 4305SOL     hw17218   4.410   3.090   0.727 -0.4997 -0.1105 -0.4245
 4305SOL     hw17219   4.480   3.204   0.799  0.6797 -1.3401  0.4336
 4305SOL     vw17220   4.472   3.151   0.730 -0.5789 -0.0286 -0.4777
 4306SOL     ow17221   1.718   3.069   2.309  0.4483 -0.2628 -0.3908
 4306SOL     hw17222   1.748   3.019   2.232  0.6019 -1.8278  0.6502
 4306SOL     hw17223   1.726   3.008   2.382  0.4342  1.2406  0.9171
 4306SOL     vw17224   1.723   3.054   2.308  0.4668 -0.2710 -0.0808
 4307SOL     ow17225   2.999   7.009   6.321 -0.1343  0.0774  0.4447
 4307SOL     hw17226   2.985   6.939   6.386 -1.1835 -0.8238 -0.6873
 4307SOL     hw17227   2.969   6.970   6.239  2.5507  0.6531 -0.8956
 4307SOL     vw17228   2.993   6.994   6.319  0.0815  0.0348  0.1185
 4308SOL     ow17229   6.938   5.525   3.139  0.2860 -0.3181 -0.0893
 4308SOL     hw17230   6.977   5.611   3.121  0.8469 -0.2531  1.3398
 4308SOL     hw17231   6.949   5.513   3.233 -1.5273 -1.1200  0.0604
 4308SOL     vw17232   6.945   5.535   3.149  0.1209 -0.4153  0.1190
 4309SOL     ow17233   5.569   2.350   3.828 -0.1076 -0.2568  0.0512
 4309SOL     hw17234   5.629   2.331   3.756  0.9909 -1.1366  1.1598
 4309SOL     hw17235   5.589   2.440   3.853  1.6281 -0.9208  1.1784
 4309SOL     vw17236   5.579   2.360   3.822  0.2663 -0.4605  0.3461
 4310SOL     ow17237   0.320   5.835   1.450  0.6382  0.1379  0.2175
 4310SOL     hw17238   0.237   5.815   1.495 -0.2042  0.7813 -0.9807
 4310SOL     hw17239   0.376   5.760   1.468 -0.8524 -1.2118 -0.4522
 4310SOL     vw17240   0.316   5.822   1.458  0.3304  0.0446 -0.0290
 4311SOL     ow17241   1.337   3.264   4.841 -0.2920 -0.1509  0.5921
 4311SOL     hw17242   1.248   3.296   4.827 -0.8370 -0.1968  3.3381
 4311SOL     hw17243   1.325   3.173   4.869  0.3470  0.5111  3.2790
 4311SOL     vw17244   1.323   3.256   4.843 -0.2795 -0.0697  1.3087
 4312SOL     ow17245   5.826   3.634   6.607 -0.1290  0.3432 -0.1793
 4312SOL     hw17246   5.750   3.588   6.572  1.1268 -0.2647 -2.2064
 4312SOL     hw17247   5.894   3.567   6.614  1.3954  1.5996 -2.1324
 4312SOL     vw17248   5.825   3.619   6.604  0.2379  0.4288 -0.7045
 4313SOL     ow17249   1.188   3.125   2.445  0.3012 -0.2344 -0.6845
 4313SOL     hw17250   1.122   3.056   2.438 -0.3399 -0.2372  3.1786
 4313SOL     hw17251   1.143   3.205   2.418 -1.6499 -0.1581  2.2953
 4313SOL     vw17252   1.173   3.127   2.441 -0.0408 -0.2245  0.2183
 4314SOL     ow17253   3.628   2.717   3.617 -0.5014 -0.8571  0.2356
 4314SOL     hw17254   3.638   2.675   3.531  2.1589  0.3516 -0.1397
 4314SOL     hw17255   3.702   2.777   3.623 -2.3357  1.3818  2.1150
 4314SOL     vw17256   3.639   2.719   3.606 -0.3926 -0.4022  0.4339
 4315SOL     ow17257   0.193   1.800   2.147  0.8116  0.1378  0.3513
 4315SOL     hw17258   0.124   1.860   2.175  2.7499  1.4714  2.5433
 4315SOL     hw17259   0.247   1.851   2.087 -1.5060 -1.7528 -3.7803
 4315SOL     vw17260   0.191   1.815   2.142  0.7616  0.0644  0.0954
 4316SOL     ow17261   4.362   1.635   3.853  0.8546 -0.4221 -0.0440
 4316SOL     hw17262   4.330   1.599   3.935  2.9824  2.1051  2.1199
 4316SOL     hw17263   4.297   1.700   3.828  0.1131 -1.3225 -0.4813
 4316SOL     vw17264   4.349   1.639   3.861  1.0371 -0.2075  0.1838
 4317SOL     ow17265   4.223   7.373   7.229 -0.0380  0.2315  0.0471
 4317SOL     hw17266   4.221   7.307   7.160 -0.5021 -0.3588  0.6129
 4317SOL     hw17267   4.189   7.452   7.187 -1.6060 -0.4598 -0.0645
 4317SOL     vw17268   4.218   7.375   7.214 -0.3061  0.0625  0.1075
 4318SOL     ow17269   3.083   7.421   5.661 -0.0333 -0.2996  0.1500
 4318SOL     hw17270   3.116   7.510   5.677 -0.0988 -0.2524  0.0301
 4318SOL     hw17271   3.086   7.378   5.746  0.2563 -0.2694  0.1543
 4318SOL     vw17272   3.087   7.427   5.674 -0.0038 -0.2892  0.1347
 4319SOL     ow17273   4.823   4.324   2.418 -0.3092 -0.2437 -0.4867
 4319SOL     hw17274   4.828   4.281   2.504  0.7221 -2.1624 -1.4414
 4319SOL     hw17275   4.749   4.385   2.426 -0.0297 -0.1017  1.8523
 4319SOL     vw17276   4.814   4.326   2.431 -0.1361 -0.4783 -0.3040
 4320SOL     ow17277   0.708   0.319   6.321 -0.2581 -0.0734  0.1347
 4320SOL     hw17278   0.676   0.234   6.292  0.7968 -0.8644  1.2113
 4320SOL     hw17279   0.773   0.344   6.255 -0.2186 -0.3291  0.0767
 4320SOL     vw17280   0.712   0.311   6.308 -0.1138 -0.2115  0.2692
 4321poe    c3117281   4.925   2.177   7.116  0.2628 -0.0510  0.3302
 4321poe     o217282   4.901   2.044   7.074 -0.0193  0.1684 -0.2125
 4321poe    c2317283   4.823   1.963   7.160 -0.0091  0.0904 -0.2766
 4321poe    c2317284   4.800   1.824   7.099 -0.5095  0.0009  0.1150
 4321poe     o217285   4.765   1.822   6.963  0.5239  0.0165 -0.1593
 4321poe    c2317286   4.733   1.693   6.915 -0.2609  0.2668 -0.3287
 4321poe    c2317287   4.846   1.628   6.833 -0.2762 -0.1861  0.0079
 4321poe     o217288   4.863   1.671   6.700  0.0272  0.1916  0.1685
 4321poe    c2317289   4.970   1.602   6.639 -0.0826  0.0909  0.0916
 4321poe    c2317290   4.993   1.613   6.487 -0.3091  0.5626  0.0893
 4321poe     o217291   5.024   1.734   6.421  0.6173  0.4233  0.2497
 4321poe    c3117292   5.015   1.718   6.281  0.2928  0.1162  0.3044
 4322poe    c3117293   3.852   2.413   6.258 -0.2236  0.1250 -0.2280
 4322poe     o217294   3.950   2.403   6.157 -0.7148  0.0307 -0.6987
 4322poe    c2317295   3.907   2.290   6.085 -0.3180 -0.7542  0.2667
 4322poe    c2317296   4.022   2.225   6.005  0.1281 -0.0235  0.3099
 4322poe     o217297   4.116   2.190   6.104  0.5203  0.6322  0.1767
 4322poe    c2317298   4.246   2.173   6.051  0.5070  0.5135  0.1811
 4322poe    c2317299   4.344   2.156   6.169  0.2869 -0.1586  0.2709
 4322poe     o217300   4.367   2.278   6.236  0.0433 -0.1677  0.3708
 4322poe    c2317301   4.359   2.284   6.377 -0.1013 -0.1131  0.3609
 4322poe    c2317302   4.459   2.383   6.440  0.1623 -0.3081  0.2502
 4322poe     o217303   4.426   2.517   6.413 -0.3842 -0.4079  0.4004
 4322poe    c3117304   4.501   2.614   6.485  0.5078 -0.5171 -0.3589
 4323poe    c3117305   2.002   7.453   3.460 -0.0135 -0.3387  0.1623
 4323poe     o217306   1.889   7.379   3.420 -0.1603 -0.3083  0.5186
 4323poe    c2317307   1.772   7.454   3.439 -0.1044 -0.0844 -0.0240
 4323poe    c2317308   1.726   7.485   3.583 -0.0441 -0.4511  0.0740
 4323poe     o217309   1.782   7.598   3.647 -0.2553 -0.2246 -0.1403
 4323poe    c2317310   1.696   7.676   3.726  0.2292  0.3714 -0.1939
 4323poe    c2317311   1.754   7.784   3.819  0.3259 -0.1610  0.3736
 4323poe     o217312   1.818   7.888   3.748 -0.4035  0.3052  0.3778
 4323poe    c2317313   1.850   8.005   3.821 -0.3849 -0.0728  0.9832
 4323poe    c2317314   1.738   8.110   3.818  0.0738  0.4166  1.0170
 4323poe     o217315   1.623   8.069   3.889 -0.1253 -0.0983  0.4021
 4323poe    c3117316   1.506   8.134   3.846  0.0012 -0.2936 -0.2492
 4324poe    c3117317   3.916   6.400   6.204  0.0522 -0.5572  0.3684
 4324poe     o217318   3.777   6.414   6.219 -0.0546 -0.2750 -0.8310
 4324poe    c2317319   3.724   6.286   6.245 -0.1634 -0.1372 -0.3618
 4324poe    c2317320   3.604   6.303   6.340  0.2231 -0.4295  0.1809
 4324poe     o217321   3.622   6.424   6.409  0.1153 -0.2381 -0.1248
 4324poe    c2317322   3.550   6.444   6.529  0.1574  0.4109 -0.2044
 4324poe    c2317323   3.512   6.593   6.542 -0.8574  0.1247  0.1679
 4324poe     o217324   3.450   6.641   6.425  0.3890  0.0923 -0.5248
 4324poe    c2317325   3.360   6.745   6.456  0.5878  0.1067  0.0199
 4324poe    c2317326   3.291   6.810   6.334 -0.2700  0.1677  0.5308
 4324poe     o217327   3.386   6.896   6.276 -0.0201 -0.3398  0.1854
 4324poe    c3117328   3.338   6.996   6.189  0.0048 -0.5399 -0.0611
 4325poe    c3117329   1.622   0.539   5.764 -0.4707  0.1419  0.3353
 4325poe     o217330   1.596   0.401   5.749  0.1413  0.0497  0.1033
 4325poe    c2317331   1.705   0.328   5.695  0.3931  0.6524 -0.2146
 4325poe    c2317332   1.659   0.273   5.559  0.8581 -0.3491  0.0271
 4325poe     o217333   1.556   0.178   5.579  0.3505  0.2228  0.1509
 4325poe    c2317334   1.510   0.125   5.457 -0.1064  0.3063  0.2826
 4325poe    c2317335   1.369   0.064   5.460  0.0361 -0.0988 -0.8112
 4325poe     o217336   1.363  -0.071   5.501  0.3047  0.1157 -0.0431
 4325poe    c2317337   1.230  -0.115   5.514  0.4341 -0.2866 -0.0639
 4325poe    c2317338   1.216  -0.261   5.562  0.3805 -0.3815 -0.3607
 4325poe     o217339   1.242  -0.267   5.701  0.4699 -0.0338 -0.3615
 4325poe    c3117340   1.227  -0.403   5.732 -0.2113  0.1031 -0.0656
 4326poe    c3117341   6.368   3.936   4.248 -0.0635 -0.3808 -0.2758
 4326poe     o217342   6.250   3.950   4.324  0.3922 -0.6693  0.4897
 4326poe    c2317343   6.270   3.991   4.457 -0.3950 -0.2300  0.4797
 4326poe    c2317344   6.142   3.991   4.542 -0.4329 -0.0180  0.4241
 4326poe     o217345   6.102   3.863   4.586 -0.4859 -0.2105 -0.1744
 4326poe    c2317346   5.994   3.883   4.674 -0.6400  0.0522 -0.4243
 4326poe    c2317347   5.954   3.759   4.755  0.2822  0.5240  0.7950
 4326poe     o217348   5.913   3.656   4.667  0.4355  0.5946  0.6406
 4326poe    c2317349   5.867   3.542   4.738  0.4843  0.0988 -0.1143
 4326poe    c2317350   5.841   3.440   4.626 -0.1658 -0.4552  0.5312
 4326poe     o217351   5.955   3.400   4.552 -0.2662 -0.3283  0.3084
 4326poe    c3117352   5.911   3.376   4.420 -0.7576 -0.3443  0.4740
 4327poe    c3117353   1.080   7.462   7.340  0.5017 -1.2125  0.0569
 4327poe     o217354   1.165   7.536   7.256 -0.2795 -0.5234 -0.1373
 4327poe    c2317355   1.252   7.626   7.320 -0.8308  0.3893 -0.6431
 4327poe    c2317356   1.301   7.739   7.226  0.0793  0.3351 -0.2437
 4327poe     o217357   1.320   7.661   7.110 -0.3013  0.3266 -0.3027
 4327poe    c2317358   1.407   7.731   7.024  0.4756  0.0361  0.2365
 4327poe    c2317359   1.478   7.666   6.904 -0.0075 -0.2589  0.1120
 4327poe     o217360   1.531   7.540   6.935 -0.3176 -0.4894 -0.2803
 4327poe    c2317361   1.633   7.506   6.844  0.1271 -0.3876  0.1776
 4327poe    c2317362   1.583   7.435   6.717 -0.2951  0.1815  0.0245
 4327poe     o217363   1.560   7.296   6.723 -0.1866  0.1578 -0.0965
 4327poe    c3117364   1.531   7.253   6.592 -0.1224  0.3486 -0.1736
 4328poe    c3117365   0.030   7.041   5.318  0.0228 -0.2774 -0.3348
 4328poe     o217366   0.036   6.900   5.320 -0.1539 -0.2816  0.0937
 4328poe    c2317367   0.042   6.856   5.453  0.5017 -0.0323  0.1559
 4328poe    c2317368  -0.039   6.741   5.516  0.0475 -0.0129 -0.3880
 4328poe     o217369  -0.177   6.766   5.535  0.0951 -0.1252  0.1181
 4328poe    c2317370  -0.242   6.644   5.563  0.3905 -0.3107  0.0018
 4328poe    c2317371  -0.391   6.671   5.590  0.3252 -0.2869 -0.3694
 4328poe     o217372  -0.471   6.726   5.487 -0.2054  0.1148  0.2502
 4328poe    c2317373  -0.592   6.655   5.503 -0.0370 -0.1758  0.2392
 4328poe    c2317374  -0.691   6.715   5.401  0.0236 -0.2378  0.1423
 4328poe     o217375  -0.730   6.845   5.440 -0.0491 -0.2566  0.1317
 4328poe    c3117376  -0.868   6.855   5.417 -0.1071 -0.1930  0.4939
 4329poe    c3117377   0.689   2.485   3.725  0.1109 -0.0156  0.1230
 4329poe     o217378   0.550   2.461   3.733  0.0830  0.1790  0.2202
 4329poe    c2317379   0.486   2.506   3.616 -0.0930  0.3120  0.3674
 4329poe    c2317380   0.381   2.404   3.568  0.1247  0.3220 -0.1416
 4329poe     o217381   0.269   2.375   3.649  0.7829 -0.4721  0.4999
 4329poe    c2317382   0.180   2.284   3.589  0.2163  0.5515 -0.2539
 4329poe    c2317383   0.035   2.310   3.632  0.4245  0.6760  0.3884
 4329poe     o217384   0.019   2.275   3.768  0.3133  0.3939  0.3036
 4329poe    c2317385  -0.117   2.294   3.798 -0.0028 -0.8857 -0.2244
 4329poe    c2317386  -0.146   2.315   3.948 -0.6993 -0.1200 -0.4602
 4329poe     o217387  -0.114   2.197   4.017 -0.0553  0.4840  0.2943
 4329poe    c3117388  -0.122   2.213   4.156 -0.2564  0.6207  0.2667
 4330poe    c3117389   5.754   4.096   7.152  0.5288 -1.0645  0.4829
 4330poe     o217390   5.787   4.145   7.280  0.2927  0.2910  0.0466
 4330poe    c2317391   5.780   4.046   7.380  0.4020  0.0616 -0.1691
 4330poe    c2317392   5.826   4.089   7.521  0.3164  0.1026 -0.1537
 4330poe     o217393   5.750   4.185   7.592  0.4321 -0.1585  0.3286
 4330poe    c2317394   5.632   4.123   7.638  0.7295 -0.3957  0.7766
 4330poe    c2317395   5.556   4.219   7.732 -0.2561 -0.1408 -0.2626
 4330poe     o217396   5.604   4.224   7.864 -0.0027 -0.1956 -0.3521
 4330poe    c2317397   5.491   4.227   7.948  0.2630  0.6535 -0.0185
 4330poe    c2317398   5.529   4.269   8.092 -0.0434 -0.1101  0.2893
 4330poe     o217399   5.609   4.167   8.147  0.5374 -0.1757 -0.6552
 4330poe    c3117400   5.693   4.211   8.251 -0.3897  0.6344 -0.2423
 4331poe    c3117401   6.721   6.715   4.363 -0.5293 -0.2053 -0.1398
 4331poe     o217402   6.758   6.797   4.255 -0.4525 -0.0847 -0.0228
 4331poe    c2317403   6.693   6.920   4.272 -0.0651  0.1298 -0.0739
 4331poe    c2317404   6.761   7.028   4.185  0.0333  0.3253  0.2444
 4331poe     o217405   6.799   6.972   4.061 -0.1910  0.3087  0.1829
 4331poe    c2317406   6.898   7.057   4.008 -0.2278  0.2533  0.0243
 4331poe    c2317407   6.884   7.099   3.860  0.7713  0.2691 -0.0741
 4331poe     o217408   6.922   6.995   3.774  0.3462  0.5505 -0.6078
 4331poe    c2317409   6.888   7.013   3.639  0.2938  0.4177 -0.6125
 4331poe    c2317410   6.921   6.881   3.566  0.0022  0.0285 -0.0437
 4331poe     o217411   6.875   6.769   3.638  0.4131 -0.1601 -0.0759
 4331poe    c3117412   6.877   6.661   3.547  0.4473 -0.3034  0.0941
 4332poe    c3117413   4.313   3.046   4.056  0.1540 -0.4241 -0.5929
 4332poe     o217414   4.426   3.129   4.046  0.0140 -0.0982  0.4891
 4332poe    c2317415   4.478   3.161   4.174 -0.9533  0.8323  0.6659
 4332poe    c2317416   4.581   3.274   4.171 -0.1362  0.0787 -0.3362
 4332poe     o217417   4.664   3.244   4.061  0.6969 -0.0205  0.3039
 4332poe    c2317418   4.753   3.348   4.026  0.1386  0.4302  0.2016
 4332poe    c2317419   4.839   3.319   3.902  0.3182  0.1735  0.3840
 4332poe     o217420   4.766   3.330   3.782  0.5839  0.6186  0.2628
 4332poe    c2317421   4.823   3.304   3.655 -0.1462 -0.0085  0.0579
 4332poe    c2317422   4.713   3.288   3.549 -0.2038  0.6893  0.0064
 4332poe     o217423   4.630   3.178   3.580  0.1890  0.1648 -0.7684
 4332poe    c3117424   4.515   3.189   3.499 -0.1446  0.0862 -0.3077
 4333poe    c3117425   6.786   6.992   2.122  0.3663 -0.0587 -0.3064
 4333poe     o217426   6.857   6.990   2.244 -0.0941  0.2555 -0.0258
 4333poe    c2317427   6.922   6.865   2.258  0.0184  0.3576  0.3799
 4333poe    c2317428   6.951   6.845   2.408  0.5778 -0.0440  0.2201
 4333poe     o217429   6.995   6.971   2.453 -0.1886  0.4128 -0.2991
 4333poe    c2317430   6.994   6.959   2.593  0.3606  0.4661 -0.2912
 4333poe    c2317431   7.061   7.082   2.656  1.1364 -0.0570 -0.0769
 4333poe     o217432   7.016   7.201   2.595 -0.2890 -0.2246  0.6060
 4333poe    c2317433   7.084   7.316   2.641 -0.2880  0.0285 -0.0110
 4333poe    c2317434   7.043   7.440   2.561  0.0723  0.0396 -0.1795
 4333poe     o217435   7.051   7.418   2.422 -0.8918  0.2871 -0.2838
 4333poe    c3117436   7.138   7.515   2.367 -0.5643  0.1477 -0.0129
 4334poe    c3117437   5.950   0.588   4.901  0.2576  0.1520  0.2432
 4334poe     o217438   6.023   0.690   4.965  0.1463  0.1450  0.3796
 4334poe    c2317439   5.970   0.818   4.942  0.9957  0.4797  0.2376
 4334poe    c2317440   5.841   0.845   5.023  0.8252  0.0823  0.1035
 4334poe     o217441   5.866   0.861   5.161 -0.0151 -0.0617  0.2719
 4334poe    c2317442   5.759   0.827   5.248 -0.2581  0.7540  0.3023
 4334poe    c2317443   5.798   0.868   5.391 -0.5109 -0.1284  0.6348
 4334poe     o217444   5.935   0.842   5.411 -0.3520 -0.2526 -0.5046
 4334poe    c2317445   5.946   0.827   5.551 -0.3990  0.5370 -0.4151
 4334poe    c2317446   6.093   0.800   5.589 -0.5666  0.4709  0.1940
 4334poe     o217447   6.168   0.911   5.633  0.1742 -0.0914  0.3623
 4334poe    c3117448   6.284   0.875   5.706  0.2252  0.0009  0.3267
 4335poe    c3117449   1.762   0.598   2.287  0.4048 -0.4085  0.0871
 4335poe     o217450   1.790   0.599   2.425 -0.8027 -0.2649  0.3380
 4335poe    c2317451   1.851   0.479   2.467  0.0421  0.0710  0.0851
 4335poe    c2317452   1.962   0.499   2.571 -0.0460 -0.1141  0.2152
 4335poe     o217453   1.926   0.518   2.706  0.3218 -0.2475  0.3364
 4335poe    c2317454   1.982   0.635   2.762 -0.6294  0.5050 -0.2468
 4335poe    c2317455   1.952   0.645   2.912  0.2656  0.1265 -0.0389
 4335poe     o217456   1.815   0.670   2.931  0.2092 -0.0114 -0.2718
 4335poe    c2317457   1.781   0.732   3.053  0.1924 -0.6795  0.0653
 4335poe    c2317458   1.632   0.770   3.065  0.2866 -0.2088 -0.2066
 4335poe     o217459   1.591   0.825   2.942  0.4880 -0.0810 -0.2157
 4335poe    c3117460   1.463   0.883   2.948  0.5115 -0.0514 -0.0136
 4336poe    c3117461   2.135   6.249   4.713 -0.3828  0.1684 -0.1438
 4336poe     o217462   2.055   6.134   4.705  0.5289 -0.4702 -0.2625
 4336poe    c2317463   2.079   6.050   4.815 -0.4041  0.4846  0.6919
 4336poe    c2317464   1.967   5.944   4.810 -0.2115  0.3181 -0.3349
 4336poe     o217465   1.838   5.996   4.835 -0.0271  0.6942 -0.1570
 4336poe    c2317466   1.761   5.936   4.734  0.0859  0.4613 -0.1066
 4336poe    c2317467   1.617   5.992   4.732 -0.1779 -0.2117 -0.2785
 4336poe     o217468   1.616   6.128   4.695  0.2755 -0.0959  0.1292
 4336poe    c2317469   1.499   6.191   4.742  0.0762  0.0089 -0.4976
 4336poe    c2317470   1.500   6.343   4.715 -0.0015  0.0582 -0.2280
 4336poe     o217471   1.605   6.392   4.796 -0.1071 -0.1801  0.0527
 4336poe    c3117472   1.613   6.527   4.758 -0.1427 -0.3914 -0.7329
 4337poe    c3117473   4.577   5.516   4.349  0.0387  0.2710 -0.4888
 4337poe     o217474   4.505   5.403   4.306 -0.3053  0.3362 -0.0876
 4337poe    c2317475   4.492   5.424   4.168  0.1130  0.2034 -0.1485
 4337poe    c2317476   4.412   5.316   4.092  0.2465 -0.1173  0.1686
 4337poe     o217477   4.273   5.312   4.113  0.1767 -0.2704 -0.3095
 4337poe    c2317478   4.212   5.193   4.070 -0.0760 -0.3172  0.1769
 4337poe    c2317479   4.157   5.201   3.927  0.0016  0.6901  0.1992
 4337poe     o217480   4.249   5.182   3.822 -0.2763  0.2748  0.0300
 4337poe    c2317481   4.236   5.270   3.712 -0.2356  0.3765  0.1068
 4337poe    c2317482   4.265   5.420   3.726  0.3407  0.2092  0.7541
 4337poe     o217483   4.160   5.494   3.783 -0.3504  0.3011 -0.5919
 4337poe    c3117484   4.089   5.579   3.697  0.0431  0.5477 -0.6744
 4338poe    c3117485   1.683   0.485   4.698  0.3918 -0.0208  0.0558
 4338poe     o217486   1.655   0.551   4.576  0.7058 -0.1755 -0.1017
 4338poe    c2317487   1.682   0.467   4.466 -0.0695 -0.1821 -0.2962
 4338poe    c2317488   1.642   0.522   4.328  0.1636 -0.1168 -0.3389
 4338poe     o217489   1.502   0.533   4.311  0.1466 -0.7315 -0.6312
 4338poe    c2317490   1.470   0.536   4.174  0.1222  0.1354 -0.6134
 4338poe    c2317491   1.320   0.567   4.162  0.0965  0.5267  0.5507
 4338poe     o217492   1.245   0.450   4.183 -0.0267  0.5611  0.3162
 4338poe    c2317493   1.105   0.469   4.192 -0.1126  0.1897 -0.1590
 4338poe    c2317494   1.027   0.340   4.218 -0.0160  0.0217 -0.7004
 4338poe     o217495   1.063   0.270   4.335 -0.3535  0.2998 -0.4293
 4338poe    c3117496   0.940   0.221   4.384  0.0454 -0.0374  0.2423
 4339poe    c3117497   6.904   0.795   0.949 -0.3468 -0.1604 -0.4009
 4339poe     o217498   6.871   0.899   1.038  0.2520 -0.4094  0.1214
 4339poe    c2317499   6.985   0.983   1.033 -0.2559  0.2801 -0.0960
 4339poe    c2317500   7.002   1.050   1.171 -0.3473 -0.4850  0.2965
 4339poe     o217501   6.893   1.131   1.210 -0.0083  0.4947 -0.7117
 4339poe    c2317502   6.945   1.233   1.292 -0.4416  0.0638  0.1220
 4339poe    c2317503   6.840   1.334   1.343  0.0134  0.3302  0.5399
 4339poe     o217504   6.786   1.279   1.461 -0.0929  0.3643  0.5074
 4339poe    c2317505   6.694   1.369   1.518  0.1049  0.9418 -0.0736
 4339poe    c2317506   6.547   1.379   1.474 -0.0649 -0.4507  0.1421
 4339poe     o217507   6.475   1.257   1.477 -0.5129 -0.1853  0.2855
 4339poe    c3117508   6.363   1.269   1.393 -0.3282 -0.0176  0.0623
 4340poe    c3117509   0.947   6.106   6.861 -1.2250 -0.1930 -0.0331
 4340poe     o217510   1.048   6.050   6.779 -0.8309  0.2261  0.1616
 4340poe    c2317511   1.060   6.134   6.666  0.2716 -0.1886 -0.0364
 4340poe    c2317512   1.183   6.097   6.581  0.6842  0.5647  0.2192
 4340poe     o217513   1.275   6.022   6.657 -0.0601 -0.0552  0.5174
 4340poe    c2317514   1.402   6.006   6.599 -0.1606 -0.3210  0.3727
 4340poe    c2317515   1.488   5.952   6.715  0.3495  0.1736  0.2248
 4340poe     o217516   1.406   5.857   6.778 -0.0666 -0.0073 -0.5733
 4340poe    c2317517   1.468   5.745   6.836  0.2265  0.2153 -0.4561
 4340poe    c2317518   1.522   5.768   6.979 -0.0289 -0.0581 -0.3151
 4340poe     o217519   1.410   5.770   7.065 -0.0732  0.0036 -0.3745
 4340poe    c3117520   1.439   5.815   7.195 -0.1777  0.2305 -0.4282
 4341poe    c3117521   4.634   2.695   0.048  0.5306 -0.5514  0.3868
 4341poe     o217522   4.694   2.619  -0.054  0.0773 -0.3188 -0.0569
 4341poe    c2317523   4.834   2.626  -0.045  0.1067 -0.6257 -0.2662
 4341poe    c2317524   4.896   2.579  -0.178 -0.0924 -0.7335 -0.3211
 4341poe     o217525   4.850   2.664  -0.281 -0.2071 -0.0528  0.2834
 4341poe    c2317526   4.829   2.573  -0.387  0.8421  0.5794 -0.4825
 4341poe    c2317527   4.807   2.651  -0.518  0.0786  0.4132 -0.4524
 4341poe     o217528   4.679   2.710  -0.515  0.0593  0.3354  0.4761
 4341poe    c2317529   4.643   2.774  -0.635  0.3125  0.0045  0.2230
 4341poe    c2317530   4.490   2.770  -0.648  0.2918  0.6431  0.2487
 4341poe     o217531   4.411   2.808  -0.537  0.0634 -0.4693  0.4871
 4341poe    c3117532   4.275   2.827  -0.569  0.0607 -0.3292  0.5817
 4342poe    c3117533   1.862   3.717   3.047  0.2592 -0.1962  0.1244
 4342poe     o217534   1.726   3.681   3.034  0.1905 -0.0442  0.4243
 4342poe    c2317535   1.649   3.763   3.119 -0.3416  0.3523 -0.4273
 4342poe    c2317536   1.508   3.701   3.134 -0.1135 -0.0641  0.0508
 4342poe     o217537   1.480   3.680   2.998 -0.1595  0.0992  0.0343
 4342poe    c2317538   1.343   3.653   2.976 -0.3135  0.1628  0.8975
 4342poe    c2317539   1.313   3.629   2.827 -0.5004 -0.2227  0.9980
 4342poe     o217540   1.389   3.518   2.785 -0.4962  0.1514 -0.0038
 4342poe    c2317541   1.365   3.474   2.653 -0.0584 -0.0327 -0.0261
 4342poe    c2317542   1.424   3.335   2.622 -0.2389 -0.3141  0.8638
 4342poe     o217543   1.561   3.307   2.639 -0.1256 -0.0921  0.3024
 4342poe    c3117544   1.633   3.343   2.522 -0.7499  1.2303  0.3000
 4343poe    c3117545   4.552   5.268   7.317  0.3865 -0.3544  0.1649
 4343poe     o217546   4.558   5.165   7.221 -0.0119 -0.0853 -0.1529
 4343poe    c2317547   4.533   5.038   7.277  0.0937  0.0340  0.1697
 4343poe    c2317548   4.515   4.937   7.163  0.0229  0.3548 -0.1043
 4343poe     o217549   4.407   4.964   7.076 -0.0863  0.6887  0.1306
 4343poe    c2317550   4.441   4.902   6.953 -0.2498 -0.2487  0.5523
 4343poe    c2317551   4.324   4.901   6.853  0.3362  0.0993 -0.1368
 4343poe     o217552   4.297   5.026   6.793 -0.0698  0.1295  0.1058
 4343poe    c2317553   4.199   5.012   6.693 -0.1305 -0.0321  0.1872
 4343poe    c2317554   4.151   5.153   6.653  0.4607  0.2144  0.3392
 4343poe     o217555   4.088   5.228   6.755 -0.3230  0.2968 -0.1961
 4343poe    c3117556   3.947   5.228   6.748 -0.3353 -0.1576 -0.0122
 4344poe    c3117557   1.103   5.325   2.678 -0.0937  0.2639  0.5221
 4344poe     o217558   1.150   5.192   2.692 -0.3484  0.1243  0.0598
 4344poe    c2317559   1.109   5.120   2.806  0.0101  0.7243  0.5764
 4344poe    c2317560   1.219   5.042   2.880  0.2247  0.5266  0.0553
 4344poe     o217561   1.264   4.937   2.797  0.0077  0.2624  0.2685
 4344poe    c2317562   1.386   4.887   2.846 -0.0744  0.0032  0.2059
 4344poe    c2317563   1.374   4.737   2.881 -0.3464  0.0080  0.1368
 4344poe     o217564   1.370   4.666   2.759  0.6398 -0.3210  0.2864
 4344poe    c2317565   1.344   4.529   2.780 -1.3659 -0.0560 -0.2612
 4344poe    c2317566   1.361   4.450   2.649 -0.3317 -0.2329 -0.0302
 4344poe     o217567   1.254   4.467   2.558 -0.4809  0.2811  0.2333
 4344poe    c3117568   1.252   4.360   2.466  0.1037  0.5117 -0.0495
 4345poe    c3117569   4.963   2.295   3.243 -0.3169 -0.4099 -0.0601
 4345poe     o217570   5.063   2.198   3.264  0.1594 -0.0668 -0.7207
 4345poe    c2317571   5.028   2.070   3.217 -0.2318 -0.1420 -0.2249
 4345poe    c2317572   5.114   1.953   3.267 -0.2174 -0.1262 -0.2136
 4345poe     o217573   5.038   1.835   3.279 -0.5808  0.1185 -0.0729
 4345poe    c2317574   5.119   1.747   3.354 -0.2917 -0.0359 -0.5563
 4345poe    c2317575   5.039   1.646   3.439  0.1155  0.2934  0.2345
 4345poe     o217576   4.970   1.567   3.345 -0.1651  0.4327  0.3204
 4345poe    c2317577   4.911   1.447   3.389 -0.1245  0.2709 -0.0576
 4345poe    c2317578   4.813   1.400   3.281  0.5646  0.4538 -0.7675
 4345poe     o217579   4.708   1.489   3.249  0.0092  0.2895  0.5599
 4345poe    c3117580   4.611   1.405   3.190 -0.1941  0.9376 -0.0347
 4346poe    c3117581   3.433   0.832   2.388 -0.4782 -0.0879 -0.3732
 4346poe     o217582   3.312   0.895   2.422 -0.3172 -0.0898  0.2199
 4346poe    c2317583   3.321   1.030   2.462 -0.5692  0.0020 -0.0286
 4346poe    c2317584   3.187   1.101   2.487 -0.6323 -0.1314  0.0119
 4346poe     o217585   3.117   1.039   2.593 -0.4132 -0.7136 -0.1817
 4346poe    c2317586   2.978   1.049   2.575 -0.4023 -0.0868  0.0460
 4346poe    c2317587   2.896   0.997   2.694 -0.1182  0.0797  0.3140
 4346poe     o217588   2.922   0.860   2.716 -0.7930 -0.2516 -0.8845
 4346poe    c2317589   2.877   0.811   2.840  0.6395  0.2569 -0.1330
 4346poe    c2317590   2.870   0.658   2.853  0.1995  0.2601 -0.2909
 4346poe     o217591   3.002   0.610   2.863 -0.0126 -0.2801 -0.0760
 4346poe    c3117592   3.012   0.543   2.987 -0.0313  0.0894  0.1271
 4347poe    c3117593   6.237   4.370   1.590 -0.5265 -1.0784 -0.0829
 4347poe     o217594   6.136   4.418   1.505 -0.3328 -0.6381 -0.0658
 4347poe    c2317595   6.028   4.475   1.576 -0.1046 -0.0339 -0.1969
 4347poe    c2317596   5.912   4.528   1.491 -0.1278 -0.1657 -0.2469
 4347poe     o217597   5.870   4.428   1.401 -0.3201 -0.1983 -0.1215
 4347poe    c2317598   5.878   4.484   1.272 -0.6253 -0.1030 -0.1009
 4347poe    c2317599   5.857   4.387   1.155 -0.3830 -0.2562 -0.0176
 4347poe     o217600   5.980   4.319   1.140 -0.3159 -0.1682  0.1326
 4347poe    c2317601   5.944   4.203   1.069 -0.2232 -0.3119  0.3178
 4347poe    c2317602   6.069   4.118   1.040 -0.1029 -0.0404  0.0395
 4347poe     o217603   6.160   4.194   0.964  0.0816 -0.2826  0.0167
 4347poe    c3117604   6.153   4.162   0.827 -0.5241 -0.0130 -0.0161
 4348poe    c3117605   5.265   6.425   0.336  0.3471  0.4891 -0.7047
 4348poe     o217606   5.370   6.343   0.291  0.3911  0.2931 -0.2512
 4348poe    c2317607   5.350   6.305   0.157 -0.0491  0.1874 -0.1568
 4348poe    c2317608   5.458   6.216   0.092  0.3207  0.1953  0.4431
 4348poe     o217609   5.469   6.094   0.162 -0.0360  0.0173  0.1896
 4348poe    c2317610   5.585   6.040   0.104 -0.3994 -0.2178 -0.3269
 4348poe    c2317611   5.610   5.896   0.152 -0.3672 -0.0639  0.1174
 4348poe     o217612   5.636   5.890   0.291 -0.6422 -0.4278  0.1579
 4348poe    c2317613   5.641   5.756   0.335 -0.3924 -0.4155  0.1737
 4348poe    c2317614   5.717   5.725   0.465 -0.1125  0.5114  0.2392
 4348poe     o217615   5.854   5.734   0.434 -0.1903 -0.4669 -0.4297
 4348poe    c3117616   5.935   5.707   0.546 -0.1397 -0.3305 -0.4327
 4349poe    c3117617   3.332   7.048   0.127  0.5902 -0.0302 -0.6707
 4349poe     o217618   3.437   7.014   0.215  0.3451  0.5173 -0.1684
 4349poe    c2317619   3.503   6.898   0.172 -0.3929  0.0309  0.0038
 4349poe    c2317620   3.608   6.847   0.272 -0.1487  0.3520 -0.0901
 4349poe     o217621   3.700   6.946   0.312 -0.1477  0.3418 -0.0674
 4349poe    c2317622   3.804   6.879   0.381 -0.3119  0.2580  0.1013
 4349poe    c2317623   3.899   6.988   0.434 -0.1948 -0.0292  0.4821
 4349poe     o217624   3.827   7.100   0.482 -0.1871  0.0298  0.3536
 4349poe    c2317625   3.927   7.191   0.522 -0.1804  0.2373 -0.1271
 4349poe    c2317626   3.866   7.297   0.615  0.5854  0.4835  0.1062
 4349poe     o217627   3.739   7.329   0.561  0.2750 -0.0528  0.5024
 4349poe    c3117628   3.719   7.459   0.612  0.4135  0.1787 -0.0364
 4350poe    c3117629   4.362   3.881   2.517 -0.2535 -0.0885 -0.3377
 4350poe     o217630   4.248   3.958   2.547 -0.2438 -0.1903 -0.0392
 4350poe    c2317631   4.284   4.090   2.581 -0.1500 -0.1065 -0.4615
 4350poe    c2317632   4.194   4.177   2.671  0.0712 -0.2530 -0.0949
 4350poe     o217633   4.075   4.203   2.601  0.0794 -0.1922 -0.0862
 4350poe    c2317634   3.994   4.296   2.670 -0.1818 -0.2982 -0.2482
 4350poe    c2317635   3.855   4.320   2.608 -0.0204  0.2544 -0.4041
 4350poe     o217636   3.866   4.372   2.478  0.9301 -0.3690 -0.5832
 4350poe    c2317637   3.916   4.503   2.465  0.3926 -0.1475 -0.4173
 4350poe    c2317638   3.877   4.583   2.339  0.0233  0.0237 -0.1977
 4350poe     o217639   3.916   4.505   2.228 -0.0363 -0.2407 -0.0336
 4350poe    c3117640   3.907   4.582   2.110  0.2635  0.5713  0.4620
 4351poe    c3117641   7.237   6.093   5.320  0.0133 -0.5781 -0.1924
 4351poe     o217642   7.375   6.108   5.344 -0.0560 -0.5528  0.1949
 4351poe    c2317643   7.450   5.991   5.367  0.9040  0.0509  0.2011
 4351poe    c2317644   7.497   5.919   5.239 -0.4207  0.2864 -0.4308
 4351poe     o217645   7.597   5.994   5.175 -0.0438  0.2390  0.1003
 4351poe    c2317646   7.642   5.911   5.071  0.0224  0.2849  0.0915
 4351poe    c2317647   7.791   5.933   5.039  0.0544  0.2483  0.2177
 4351poe     o217648   7.786   6.070   5.008 -0.3338  0.1869  0.0099
 4351poe    c2317649   7.916   6.122   4.997 -0.3598  0.2987  0.2148
 4351poe    c2317650   7.911   6.263   4.936  0.3597  0.1508 -0.2069
 4351poe     o217651   7.841   6.353   5.018  0.7078 -0.0790  0.3446
 4351poe    c3117652   7.852   6.493   4.998 -0.3240 -0.0450 -0.0508
 4352poe    c3117653   5.512   2.521   6.456 -0.4473 -0.4184 -0.2876
 4352poe     o217654   5.531   2.416   6.549  0.1523 -0.2776 -0.2461
 4352poe    c2317655   5.605   2.310   6.493  0.4013 -0.3109  0.1434
 4352poe    c2317656   5.593   2.188   6.586 -0.2893 -0.3856 -0.0414
 4352poe     o217657   5.585   2.242   6.716  0.2146 -0.0288 -0.1566
 4352poe    c2317658   5.578   2.139   6.812  0.2600  0.2048  0.0976
 4352poe    c2317659   5.589   2.179   6.960 -0.0600  0.2811  0.1029
 4352poe     o217660   5.518   2.299   6.980 -0.5488 -0.0977  0.6689
 4352poe    c2317661   5.495   2.328   7.116 -0.4538 -0.0114  0.6669
 4352poe    c2317662   5.452   2.474   7.137 -0.1042  0.1616  0.1871
 4352poe     o217663   5.328   2.493   7.073 -0.0322 -0.1171 -0.0321
 4352poe    c3117664   5.292   2.625   7.103 -0.1855 -0.1926  0.1184
 4353poe    c3117665   5.954   1.913   7.033 -0.5908  0.0950 -0.0698
 4353poe     o217666   5.864   1.823   6.972  0.1131 -0.4822 -0.2574
 4353poe    c2317667   5.776   1.774   7.071 -0.1622 -0.2745 -0.4021
 4353poe    c2317668   5.791   1.623   7.093  0.2344 -0.1764  0.0094
 4353poe     o217669   5.794   1.553   6.971  0.2193 -0.2833  0.0691
 4353poe    c2317670   5.819   1.416   6.994 -0.4393 -0.2758  0.8682
 4353poe    c2317671   5.816   1.321   6.873  0.9165 -0.0073  0.6049
 4353poe     o217672   5.923   1.328   6.782 -0.0853  0.0906 -0.6005
 4353poe    c2317673   6.057   1.305   6.820 -0.2033 -0.1646 -0.3395
 4353poe    c2317674   6.150   1.321   6.698  0.7336  0.1338  0.4006
 4353poe     o217675   6.112   1.447   6.650 -0.2271 -0.2626  0.0893
 4353poe    c3117676   6.194   1.487   6.542 -0.2645  0.4043  0.3026
 4354poe    c3117677   5.385   5.904   6.334  0.5935 -0.3432  0.7775
 4354poe     o217678   5.399   6.032   6.391 -0.5591  0.0871  0.1329
 4354poe    c2317679   5.348   6.019   6.521  0.0082 -0.0090  0.3488
 4354poe    c2317680   5.361   6.155   6.592 -0.1186 -0.0128  0.3804
 4354poe     o217681   5.498   6.184   6.582 -0.0295 -0.3965  0.4772
 4354poe    c2317682   5.532   6.283   6.676 -0.0387  0.1784 -0.1225
 4354poe    c2317683   5.669   6.343   6.637  0.0293  0.3097  0.3192
 4354poe     o217684   5.677   6.363   6.498  0.4227 -0.0815  0.2844
 4354poe    c2317685   5.810   6.399   6.467  0.3556 -0.1959 -0.1388
 4354poe    c2317686   5.826   6.453   6.324 -0.2432 -0.1776 -0.2018
 4354poe     o217687   5.785   6.358   6.228  0.1127 -0.3878 -0.1458
 4354poe    c3117688   5.840   6.398   6.104 -0.1454 -0.3543 -0.2489
 4355poe    c3117689   1.202   4.642   7.356  0.5684 -0.2353  0.5215
 4355poe     o217690   1.242   4.526   7.286 -0.4311 -0.4530  0.3048
 4355poe    c2317691   1.340   4.472   7.372 -0.0808 -0.0246  0.1784
 4355poe    c2317692   1.400   4.345   7.308 -0.5085 -0.1388 -0.0013
 4355poe     o217693   1.465   4.385   7.190 -0.5817  0.4721  0.1571
 4355poe    c2317694   1.504   4.276   7.109 -0.3602  0.4510  0.2917
 4355poe    c2317695   1.650   4.227   7.111 -0.4096  0.3022  0.2592
 4355poe     o217696   1.742   4.311   7.045  0.6793 -1.2743 -0.3014
 4355poe    c2317697   1.875   4.297   7.092  0.6496  0.0314  0.2220
 4355poe    c2317698   1.948   4.166   7.061 -0.2707 -0.4482  0.0323
 4355poe     o217699   1.992   4.151   6.928 -0.0461  0.0607  0.0483
 4355poe    c3117700   2.059   4.030   6.902  0.1030  0.0445  0.5001
 4356poe    c3117701   7.488   4.467   6.438  0.4872  0.1595  0.1544
 4356poe     o217702   7.409   4.486   6.323  0.1797  0.0667  0.3487
 4356poe    c2317703   7.492   4.560   6.237 -0.0654 -0.0190  0.0363
 4356poe    c2317704   7.436   4.573   6.094  0.1960  0.0991 -0.0575
 4356poe     o217705   7.522   4.619   5.992  0.3191  0.0598  0.0289
 4356poe    c2317706   7.601   4.513   5.944  0.0365 -0.0315 -0.2348
 4356poe    c2317707   7.686   4.556   5.823  0.4843 -0.3954 -0.0525
 4356poe     o217708   7.784   4.652   5.855  0.3141 -0.0398 -0.5851
 4356poe    c2317709   7.903   4.609   5.917  0.3696  0.4364 -0.3573
 4356poe    c2317710   7.989   4.706   6.001  0.2677 -0.0668  0.3448
 4356poe     o217711   8.010   4.832   5.940 -0.1162 -0.0636  0.2149
 4356poe    c3117712   8.124   4.906   5.976  0.3081 -0.4031 -0.4135
 4357poe    c3117713   7.172   0.973   5.796 -0.3749  1.2191 -0.2568
 4357poe     o217714   7.245   0.996   5.915  0.1302  0.0171 -0.3273
 4357poe    c2317715   7.329   1.105   5.887 -0.1365  0.2399 -0.2577
 4357poe    c2317716   7.436   1.140   5.992 -0.2177 -0.3431  0.0185
 4357poe     o217717   7.500   1.016   6.012  0.2222 -0.0244  0.6063
 4357poe    c2317718   7.588   1.008   6.122  0.1285 -0.4361  0.6534
 4357poe    c2317719   7.669   0.877   6.117  0.5020 -0.1925  0.2073
 4357poe     o217720   7.592   0.760   6.135  0.0142  0.0140 -0.4939
 4357poe    c2317721   7.668   0.647   6.097 -0.0405 -0.2050  0.0287
 4357poe    c2317722   7.614   0.521   6.167  0.3361 -0.5199 -0.2465
 4357poe     o217723   7.476   0.493   6.157  0.1490  0.1322  0.4467
 4357poe    c3117724   7.452   0.378   6.235  0.4007 -0.0465  0.2600
 4358poe    c3117725   3.983   2.775   6.550  0.2845 -0.0683 -0.3014
 4358poe     o217726   3.843   2.762   6.533  0.2181 -0.0444  0.1944
 4358poe    c2317727   3.781   2.657   6.604 -0.1289 -0.2625 -0.4177
 4358poe    c2317728   3.635   2.644   6.559 -0.4285  0.1542  0.4093
 4358poe     o217729   3.544   2.751   6.572 -0.2794  0.3692 -0.2492
 4358poe    c2317730   3.422   2.711   6.513 -0.0274 -0.0552 -0.4868
 4358poe    c2317731   3.345   2.837   6.472 -0.1857  0.0345  0.0710
 4358poe     o217732   3.425   2.912   6.383 -0.1317  0.3049  0.3487
 4358poe    c2317733   3.349   2.949   6.271 -0.1530 -0.2721  0.1750
 4358poe    c2317734   3.399   3.086   6.223 -0.2271 -0.2467  0.1691
 4358poe     o217735   3.539   3.070   6.225 -0.2336 -0.3390 -0.0909
 4358poe    c3117736   3.593   3.171   6.142 -0.1138  0.4698  0.9426
 4359poe    c3117737   1.046   0.914   4.246  0.2203  0.2566  0.0948
 4359poe     o217738   1.005   1.045   4.214  0.0009  0.1792  0.0522
 4359poe    c2317739   1.113   1.131   4.183  0.3811 -0.2662  0.1354
 4359poe    c2317740   1.070   1.251   4.097 -0.8372 -0.2172  0.7871
 4359poe     o217741   0.998   1.215   3.981  0.4795 -0.2863 -0.0250
 4359poe    c2317742   1.069   1.142   3.883  0.2100  0.1610 -0.5559
 4359poe    c2317743   1.141   1.227   3.776 -0.1522  0.1176 -0.8393
 4359poe     o217744   1.270   1.265   3.821 -0.3396  0.0685 -0.2501
 4359poe    c2317745   1.352   1.255   3.706 -0.2242  0.1422 -0.1739
 4359poe    c2317746   1.488   1.319   3.737 -0.3839  0.1601  0.5137
 4359poe     o217747   1.460   1.445   3.794 -0.1601  0.4608 -0.0341
 4359poe    c3117748   1.565   1.539   3.791  0.2315  0.0187 -0.3111
 4360poe    c3117749   3.596   4.302   0.362  0.1813 -0.0348 -0.0449
 4360poe     o217750   3.694   4.207   0.326  0.1802 -0.0191 -0.0897
 4360poe    c2317751   3.675   4.084   0.392 -0.5890 -0.0459 -0.3536
 4360poe    c2317752   3.797   3.991   0.399 -0.4710  0.1662  0.4690
 4360poe     o217753   3.909   4.037   0.471  0.0396 -0.3612  0.0237
 4360poe    c2317754   4.020   3.952   0.451  0.6424  0.3602  0.2149
 4360poe    c2317755   4.086   3.917   0.585  0.4751 -0.2605  0.1387
 4360poe     o217756   4.149   4.030   0.641 -0.1937  0.0420  0.2904
 4360poe    c2317757   4.195   3.990   0.768 -0.1702 -0.0843  0.2427
 4360poe    c2317758   4.149   4.082   0.884  0.7422  0.4513  0.1902
 4360poe     o217759   4.157   4.220   0.857  0.1827  0.4360 -0.0684
 4360poe    c3117760   4.105   4.306   0.955  0.1589  0.3473 -0.0030
 4361poe    c3117761   3.637   6.133   1.381 -0.1600  0.0326  0.2852
 4361poe     o217762   3.690   6.034   1.296 -0.2604  0.0423  0.2110
 4361poe    c2317763   3.692   6.072   1.160 -0.3343  0.2273  0.2621
 4361poe    c2317764   3.763   5.958   1.085 -0.7793  0.1610 -0.0635
 4361poe     o217765   3.689   5.838   1.087 -0.0279 -0.3007  0.7945
 4361poe    c2317766   3.735   5.735   1.003 -0.3103  0.7770 -0.7309
 4361poe    c2317767   3.624   5.630   0.982  0.3312 -0.0516 -0.0594
 4361poe     o217768   3.514   5.652   0.896  0.5732 -0.3316 -0.4453
 4361poe    c2317769   3.450   5.527   0.882 -0.0120 -0.0970  0.0960
 4361poe    c2317770   3.342   5.536   0.773  0.0171  0.1966  0.0894
 4361poe     o217771   3.236   5.624   0.800  0.3404  0.5511  0.2205
 4361poe    c3117772   3.164   5.646   0.680 -0.3243  0.0179  0.5089
 4362poe    c3117773   3.851   3.750   5.329 -0.3919  0.1932  0.1982
 4362poe     o217774   3.782   3.735   5.451  0.1466 -0.0905  0.4702
 4362poe    c2317775   3.698   3.845   5.477  0.3298  0.1281  0.1437
 4362poe    c2317776   3.613   3.814   5.601  0.5558  0.4708  0.3858
 4362poe     o217777   3.682   3.764   5.714  0.7432  0.6168  0.3363
 4362poe    c2317778   3.592   3.764   5.822  0.5467  0.0238  0.1731
 4362poe    c2317779   3.682   3.761   5.947 -0.1838  0.3251  0.7174
 4362poe     o217780   3.762   3.645   5.938 -0.3646  0.2425  0.0956
 4362poe    c2317781   3.870   3.672   6.025 -0.1925  0.1521 -0.0902
 4362poe    c2317782   3.920   3.528   6.045 -0.1232  0.1712 -0.1237
 4362poe     o217783   3.931   3.469   5.918 -0.2462 -0.2454  0.0578
 4362poe    c3117784   4.024   3.364   5.918  0.1805  0.1309  0.0132
 4363poe    c3117785   0.043   6.167   1.582 -0.0347  0.4958  0.0787
 4363poe     o217786   0.062   6.100   1.704 -0.2616 -0.1624 -0.2392
 4363poe    c2317787  -0.007   5.978   1.717  0.0828 -0.3436 -0.0875
 4363poe    c2317788   0.049   5.886   1.826 -0.0783 -0.0596  0.2381
 4363poe     o217789   0.175   5.830   1.796 -0.0028  0.0296  0.3891
 4363poe    c2317790   0.204   5.748   1.907 -0.0071 -0.1474  0.2600
 4363poe    c2317791   0.358   5.739   1.904 -0.0018 -0.0467  0.2363
 4363poe     o217792   0.429   5.856   1.937 -0.7342  0.4904 -0.0630
 4363poe    c2317793   0.566   5.829   1.917 -0.6855  0.7082 -0.0323
 4363poe    c2317794   0.668   5.945   1.913  0.0924  0.0269 -0.2229
 4363poe     o217795   0.649   6.025   1.799 -0.2701  0.1778 -0.0585
 4363poe    c3117796   0.750   6.123   1.793 -0.0959  0.0569  0.8001
 4364poe    c3117797   1.457   5.755   3.067  0.1560  0.0350  0.0554
 4364poe     o217798   1.322   5.717   3.053  0.3306 -0.8297  0.6181
 4364poe    c2317799   1.311   5.592   2.990 -0.1449 -0.2026 -0.5838
 4364poe    c2317800   1.162   5.557   2.979 -0.2763  0.0295  0.4237
 4364poe     o217801   1.078   5.640   2.901  0.3853  0.2616 -0.0449
 4364poe    c2317802   0.942   5.608   2.920  0.2836  0.3879 -0.5542
 4364poe    c2317803   0.850   5.714   2.856 -0.2464  0.0337 -0.3870
 4364poe     o217804   0.878   5.848   2.892 -0.3917  0.1285 -0.6267
 4364poe    c2317805   0.780   5.934   2.837 -0.6084  0.5382  0.3881
 4364poe    c2317806   0.797   6.078   2.890 -0.8880  0.6250  0.2369
 4364poe     o217807   0.731   6.170   2.805 -0.3610  0.8125  0.0236
 4364poe    c3117808   0.725   6.293   2.874  0.4706  0.5294  0.6197
 4365poe    c3117809   6.891   5.551   7.269  0.1597 -0.2941 -0.0074
 4365poe     o217810   6.964   5.614   7.166 -0.1100 -0.0693 -0.0640
 4365poe    c2317811   6.996   5.529   7.058 -0.1446  0.0641 -0.1804
 4365poe    c2317812   7.041   5.616   6.939 -0.2948 -0.4592 -0.6234
 4365poe     o217813   7.171   5.667   6.959 -0.5725  0.3021 -0.7440
 4365poe    c2317814   7.239   5.670   6.836  0.0413  0.0322 -0.4181
 4365poe    c2317815   7.391   5.679   6.855 -0.0864 -0.4421  0.8925
 4365poe     o217816   7.463   5.564   6.894  0.1335 -0.3429  0.7808
 4365poe    c2317817   7.602   5.573   6.912  0.1853  0.3764  0.0816
 4365poe    c2317818   7.652   5.441   6.975  0.0046  0.1618 -0.2226
 4365poe     o217819   7.635   5.338   6.880 -0.9442 -0.2803  0.4063
 4365poe    c3117820   7.714   5.224   6.902 -0.1569  0.1735 -0.0163
 4366poe    c3117821   7.367   5.571   3.254 -0.6869  0.2825 -0.3806
 4366poe     o217822   7.271   5.471   3.280  0.4076 -0.6128  0.3260
 4366poe    c2317823   7.203   5.492   3.402 -0.1097  0.4657 -0.1381
 4366poe    c2317824   7.115   5.368   3.428 -0.1429  0.6259  0.5222
 4366poe     o217825   6.996   5.363   3.354  0.1519  0.2870  0.0652
 4366poe    c2317826   6.934   5.240   3.386 -0.3079  0.3329 -0.6153
 4366poe    c2317827   6.793   5.233   3.325 -0.5424 -0.1930 -0.0230
 4366poe     o217828   6.791   5.242   3.185  0.1513 -0.4197 -0.0492
 4366poe    c2317829   6.659   5.216   3.145  0.1777 -0.7598  0.0867
 4366poe    c2317830   6.676   5.229   2.992 -0.8181  0.3433  0.0546
 4366poe     o217831   6.737   5.354   2.971 -0.2128 -0.0049 -0.2921
 4366poe    c3117832   6.761   5.396   2.839  0.5913  0.1004 -0.1185
 4367poe    c3117833   1.641   1.121   6.303 -1.2816 -0.3796  0.0687
 4367poe     o217834   1.731   1.038   6.372 -0.5564 -0.2168 -0.6752
 4367poe    c2317835   1.728   1.061   6.511  0.0954 -0.0108 -0.6878
 4367poe    c2317836   1.792   0.949   6.595 -0.0131  0.0558 -0.5143
 4367poe     o217837   1.932   0.959   6.586  0.0813 -0.3909  0.3402
 4367poe    c2317838   1.999   0.864   6.665  0.2748 -0.5554 -0.0156
 4367poe    c2317839   2.149   0.897   6.656  0.2507 -0.4182  0.0830
 4367poe     o217840   2.184   0.907   6.519  0.2832  0.0819  0.1262
 4367poe    c2317841   2.321   0.932   6.502  0.3719 -0.2653  0.3194
 4367poe    c2317842   2.412   0.811   6.472  0.3213 -0.1266 -0.4247
 4367poe     o217843   2.428   0.730   6.586  0.0945 -0.4003 -0.5874
 4367poe    c3117844   2.527   0.635   6.553 -0.2108 -0.7288 -0.5613
 4368poe    c3117845   4.416   7.207   0.109  0.5086  0.7718  0.2354
 4368poe     o217846   4.308   7.232   0.021  0.5166 -0.2376 -0.0764
 4368poe    c2317847   4.201   7.145   0.052 -0.1435  0.5252 -0.2029
 4368poe    c2317848   4.084   7.214   0.125 -0.3041  0.2407 -0.1907
 4368poe     o217849   4.040   7.303   0.025  0.0686  0.1869 -0.4079
 4368poe    c2317850   3.915   7.358   0.062  0.1556 -0.1517  0.4193
 4368poe    c2317851   3.857   7.423  -0.065  0.0239  0.2432  0.6789
 4368poe     o217852   3.938   7.529  -0.110  0.1386  0.0624  0.4532
 4368poe    c2317853   3.894   7.552  -0.242  0.1645 -0.4485  0.3523
 4368poe    c2317854   3.973   7.667  -0.309  0.2932 -0.8629 -0.2148
 4368poe     o217855   4.109   7.634  -0.327  0.4617 -0.1354 -0.3094
 4368poe    c3117856   4.173   7.758  -0.344  0.1714 -0.0241 -0.5961
 4369poe    c3117857   7.307   1.811   5.297  0.6708 -0.0474 -0.3439
 4369poe     o217858   7.202   1.737   5.239  0.2337  0.1645  0.1706
 4369poe    c2317859   7.202   1.607   5.293 -0.5440  0.1274  0.0898
 4369poe    c2317860   7.147   1.499   5.197 -0.1741  0.0790 -0.0685
 4369poe     o217861   7.197   1.516   5.067 -0.5405  0.3701 -0.1706
 4369poe    c2317862   7.135   1.430   4.973  0.3543 -0.2183 -0.2354
 4369poe    c2317863   7.179   1.430   4.826 -0.1547 -0.5575 -0.3877
 4369poe     o217864   7.179   1.561   4.773  0.3709 -0.4412 -0.1047
 4369poe    c2317865   7.207   1.553   4.635  0.8414 -0.3634 -0.0140
 4369poe    c2317866   7.235   1.688   4.567 -0.0845  0.1638  0.6327
 4369poe     o217867   7.372   1.722   4.574 -0.0321  0.1438 -0.1830
 4369poe    c3117868   7.388   1.842   4.501  1.0485  0.2024  0.1357
 4370poe    c3117869   0.349   1.825   6.722  0.2260  0.4826 -0.3318
 4370poe     o217870   0.429   1.934   6.680  0.4280  0.4366 -0.0704
 4370poe    c2317871   0.474   2.006   6.792  0.4510 -0.0590  0.2384
 4370poe    c2317872   0.517   2.151   6.769  0.0852 -0.0822 -0.5979
 4370poe     o217873   0.597   2.154   6.652  0.4187 -0.0745 -0.3710
 4370poe    c2317874   0.720   2.204   6.699  0.0772  0.2707  0.1791
 4370poe    c2317875   0.819   2.241   6.587 -0.1574 -0.1758 -0.1780
 4370poe     o217876   0.804   2.362   6.517 -0.1215 -0.2500 -0.3155
 4370poe    c2317877   0.709   2.376   6.414  0.0372  0.2432 -0.3973
 4370poe    c2317878   0.770   2.332   6.280  0.2403 -0.3075 -0.1287
 4370poe     o217879   0.795   2.194   6.265  0.0099 -0.3443 -0.1898
 4370poe    c3117880   0.847   2.172   6.136  0.0906 -0.3911 -0.1498
 4371poe    c3117881   6.169   2.281   5.673  0.0164  0.2404  0.3233
 4371poe     o217882   6.275   2.190   5.693 -0.5220 -0.4094  0.3000
 4371poe    c2317883   6.280   2.096   5.589  0.0235 -0.1539  0.0870
 4371poe    c2317884   6.423   2.077   5.536  0.1170  0.1413  0.2349
 4371poe     o217885   6.526   2.012   5.607  0.1342 -0.1207 -0.0295
 4371poe    c2317886   6.516   1.873   5.587  0.2027 -0.1614  0.2224
 4371poe    c2317887   6.607   1.806   5.692  0.1380 -0.2079  0.2488
 4371poe     o217888   6.743   1.823   5.662  0.1512 -0.4696  0.1586
 4371poe    c2317889   6.816   1.781   5.775  0.6476 -0.3398 -0.1079
 4371poe    c2317890   6.957   1.840   5.789  0.4867 -0.0152  0.1853
 4371poe     o217891   6.974   1.976   5.756 -0.0472  0.0701  0.2606
 4371poe    c3117892   7.107   2.023   5.768  0.0933 -0.2677  0.0212
 4372poe    c3117893   6.634   5.831   7.277  0.7494 -0.0844 -0.5619
 4372poe     o217894   6.540   5.930   7.313  1.2231  0.0915  0.2180
 4372poe    c2317895   6.460   5.881   7.419  0.4282  0.0222 -0.4046
 4372poe    c2317896   6.334   5.962   7.455 -0.1815 -0.9538 -0.3148
 4372poe     o217897   6.248   5.961   7.342  0.1027  0.4664 -0.5700
 4372poe    c2317898   6.154   6.065   7.348  0.1847  0.5577 -0.9011
 4372poe    c2317899   6.051   6.054   7.234 -0.8306  0.7539 -0.0180
 4372poe     o217900   6.108   6.048   7.105  0.0884  0.3113  0.3978
 4372poe    c2317901   6.006   6.044   7.007  0.5866  0.4924 -0.1302
 4372poe    c2317902   6.074   6.040   6.868  0.3538  0.1715 -0.2353
 4372poe     o217903   6.142   6.150   6.813  0.2865  0.1166 -0.4265
 4372poe    c3117904   6.056   6.262   6.809  0.1935  0.0749  0.3666
 4373poe    c3117905   1.774   2.403   6.952 -0.1341  0.3623  0.2701
 4373poe     o217906   1.718   2.275   6.938  0.6123  0.0660 -0.1015
 4373poe    c2317907   1.726   2.190   7.050 -0.3654 -0.0321 -0.0975
 4373poe    c2317908   1.858   2.113   7.069 -0.4117 -0.0514  0.1476
 4373poe     o217909   1.893   2.012   6.976 -0.4155 -0.2981  0.4126
 4373poe    c2317910   2.032   2.005   6.953 -0.4484 -0.6544  0.3225
 4373poe    c2317911   2.073   1.886   6.865 -0.5995 -0.5256  0.0786
 4373poe     o217912   2.053   1.900   6.726  0.0788 -0.4031 -0.0109
 4373poe    c2317913   2.100   1.780   6.669  0.3149 -0.0752 -0.5118
 4373poe    c2317914   2.000   1.677   6.612  0.5313 -0.4868 -0.1535
 4373poe     o217915   1.926   1.716   6.498  0.2763  0.0772  0.2007
 4373poe    c3117916   1.829   1.620   6.465  0.2014  0.3506 -0.3937
 4374poe    c3117917   1.914   4.221   4.978  0.0057 -0.3176  0.2423
 4374poe     o217918   1.948   4.332   5.058  0.0166 -0.1987  0.0715
 4374poe    c2317919   1.935   4.312   5.197  0.0434 -0.6377  0.0111
 4374poe    c2317920   1.983   4.445   5.258  0.5533 -0.5950 -0.4708
 4374poe     o217921   1.920   4.537   5.171 -0.3298 -0.5605  0.1885
 4374poe    c2317922   1.890   4.658   5.237  0.2641 -0.2252 -0.1484
 4374poe    c2317923   1.865   4.782   5.150  0.2574  0.2205  0.4770
 4374poe     o217924   1.801   4.745   5.030  0.7392  0.3928  0.1642
 4374poe    c2317925   1.748   4.854   4.959 -0.8030  0.0204  0.6995
 4374poe    c2317926   1.634   4.817   4.862 -0.1193 -0.0526 -0.0872
 4374poe     o217927   1.682   4.769   4.738 -0.0059  0.1065 -0.1059
 4374poe    c3117928   1.583   4.706   4.660  0.1620 -0.8167  0.4042
 4375poe    c3117929   2.954   4.963   4.800 -0.4032 -0.8256  0.1454
 4375poe     o217930   2.844   4.984   4.714 -0.2048 -0.0017  0.0806
 4375poe    c2317931   2.845   4.874   4.626 -0.1805 -0.1019  0.2066
 4375poe    c2317932   2.739   4.900   4.517 -0.0265 -0.0419  0.0714
 4375poe     o217933   2.793   4.973   4.409  0.0463 -0.2591 -0.0407
 4375poe    c2317934   2.682   5.032   4.346  0.0274  0.3664  0.5585
 4375poe    c2317935   2.712   5.045   4.195  0.0224  0.0607  0.5300
 4375poe     o217936   2.834   5.111   4.169 -0.4388  0.6565 -0.1797
 4375poe    c2317937   2.852   5.136   4.032 -0.4779  0.1367 -0.2805
 4375poe    c2317938   2.985   5.207   4.001 -0.2703 -0.0767  0.1133
 4375poe     o217939   3.014   5.323   4.077 -0.4871  0.1659 -0.1743
 4375poe    c3117940   3.132   5.392   4.042  0.1951 -0.8503  0.0545
 4376poe    c3117941   1.991   5.120   3.957  0.0110 -0.3385 -0.5045
 4376poe     o217942   1.871   5.056   3.920 -0.1899 -0.3877  0.2128
 4376poe    c2317943   1.771   5.154   3.909  0.1456 -0.0361  0.2549
 4376poe    c2317944   1.645   5.094   3.843  0.4809 -0.2944 -0.1496
 4376poe     o217945   1.573   5.009   3.930 -0.2807  0.3780 -0.1189
 4376poe    c2317946   1.494   4.910   3.868 -0.2547  0.0559  0.3636
 4376poe    c2317947   1.342   4.933   3.860 -0.2129  0.1712 -0.1061
 4376poe     o217948   1.275   4.908   3.982  0.2337  0.4693  0.2033
 4376poe    c2317949   1.138   4.921   3.955  0.2638  0.0230 -0.2009
 4376poe    c2317950   1.072   4.938   4.094  0.8270 -0.0026  0.0714
 4376poe     o217951   1.113   5.059   4.153  0.4273  0.3274 -0.3220
 4376poe    c3117952   1.089   5.055   4.292 -0.3978  0.2120 -0.4613
 4377poe    c3117953   7.074   4.732   0.833 -0.5823 -0.2989 -0.4684
 4377poe     o217954   7.062   4.773   0.968  0.1522 -0.1709 -0.4376
 4377poe    c2317955   7.175   4.722   1.034  0.0945 -0.4581 -0.5571
 4377poe    c2317956   7.170   4.589   1.110 -0.8522 -0.2086 -0.1751
 4377poe     o217957   7.101   4.592   1.233 -0.4435 -0.0843  0.0514
 4377poe    c2317958   7.137   4.470   1.294  0.8503  0.3144  0.1261
 4377poe    c2317959   7.144   4.485   1.447 -0.5129 -0.1774  0.2570
 4377poe     o217960   7.261   4.560   1.475 -0.2429 -0.6687  0.4651
 4377poe    c2317961   7.301   4.577   1.609  0.4786 -0.5792  0.2421
 4377poe    c2317962   7.403   4.692   1.617  0.0309 -0.1649  0.0543
 4377poe     o217963   7.346   4.816   1.579  0.9813  0.0732 -0.6233
 4377poe    c3117964   7.425   4.927   1.614  0.6243  0.2958 -0.5223
 4378poe    c3117965   6.282   6.105   0.318 -0.4543  0.2850  0.1473
 4378poe     o217966   6.388   6.124   0.409 -0.0828  0.0752 -0.2361
 4378poe    c2317967   6.375   6.244   0.482  0.3356 -0.4409  0.7047
 4378poe    c2317968   6.511   6.294   0.534  0.4784  0.1750 -0.2369
 4378poe     o217969   6.586   6.197   0.604 -0.0488 -0.0710 -0.0096
 4378poe    c2317970   6.671   6.262   0.695 -0.1008  0.2393 -0.1817
 4378poe    c2317971   6.754   6.165   0.782 -0.4721 -0.1353 -0.2442
 4378poe     o217972   6.676   6.081   0.864 -0.2043 -0.0961  0.0511
 4378poe    c2317973   6.643   6.123   0.995 -0.5360  0.1859 -0.1203
 4378poe    c2317974   6.602   6.009   1.090  0.5190 -0.3917 -0.3401
 4378poe     o217975   6.694   5.909   1.128  0.2772 -0.2589  0.6221
 4378poe    c3117976   6.810   5.954   1.193  0.2353  0.3799  0.2638
 4379poe    c3117977   5.073   7.254   6.367 -0.1765  0.2112 -0.1419
 4379poe     o217978   5.167   7.255   6.261  0.3732 -0.1550  0.3338
 4379poe    c2317979   5.191   7.391   6.229 -0.2199 -0.1352 -0.0515
 4379poe    c2317980   5.106   7.432   6.108 -0.3141  0.0312  0.0710
 4379poe     o217981   5.145   7.357   5.995  0.0294  0.0213  0.1957
 4379poe    c2317982   5.083   7.385   5.871  0.0627  0.4316  0.2681
 4379poe    c2317983   5.138   7.501   5.787  0.3580  0.0363 -0.0877
 4379poe     o217984   5.248   7.465   5.705  0.0932 -0.5216 -0.2009
 4379poe    c2317985   5.228   7.479   5.566  0.4823 -0.0877 -0.2159
 4379poe    c2317986   5.333   7.549   5.478  0.2345  0.2429 -0.2485
 4379poe     o217987   5.455   7.483   5.453  0.2003 -0.1600  0.6011
 4379poe    c3117988   5.552   7.518   5.549  0.5425 -0.6215  0.4265
 4380poe    c3117989   2.721   4.336   0.898  0.1956 -0.1421  0.1265
 4380poe     o217990   2.844   4.404   0.909 -0.1335  0.5185 -0.1931
 4380poe    c2317991   2.945   4.351   0.825  0.0008  0.1846  0.1749
 4380poe    c2317992   3.082   4.411   0.859  0.2844 -0.1833 -0.3136
 4380poe     o217993   3.136   4.366   0.981  0.2615  0.6692  0.0214
 4380poe    c2317994   3.276   4.350   0.979  0.2322  0.4875 -0.8347
 4380poe    c2317995   3.365   4.475   0.990  0.6835  0.1198 -0.2512
 4380poe     o217996   3.350   4.558   1.103  0.3044  0.1752 -0.3421
 4380poe    c2317997   3.430   4.673   1.086  0.5339 -0.0154 -0.5775
 4380poe    c2317998   3.478   4.767   1.199 -0.1004  0.1999 -0.4816
 4380poe     o217999   3.372   4.845   1.251  0.0241 -0.0503  0.1578
 4380poe    c3118000   3.411   4.964   1.315 -0.4416  0.3920 -0.3703
 4381poe    c3118001   2.813   4.789   5.395  0.4065 -0.0183 -0.5978
 4381poe     o218002   2.944   4.789   5.344  0.7018  0.2390  0.1430
 4381poe    c2318003   2.962   4.713   5.226  0.0076 -0.3049  0.3836
 4381poe    c2318004   3.106   4.725   5.172 -0.1952 -0.1805 -0.1330
 4381poe     o218005   3.102   4.860   5.133  0.5237 -0.1324 -0.0394
 4381poe    c2318006   3.230   4.901   5.090  0.3357  0.2584 -0.2364
 4381poe    c2318007   3.231   5.030   5.005  0.0817  0.1809 -0.3585
 4381poe     o218008   3.208   5.148   5.078  0.1530 -0.1669  0.2340
 4381poe    c2318009   3.243   5.270   5.017 -0.4962 -0.0248  0.1423
 4381poe    c2318010   3.246   5.377   5.127  0.2857  0.1077 -0.0031
 4381poe     o218011   3.122   5.392   5.193  0.2491  0.1068 -0.0718
 4381poe    c3118012   3.104   5.495   5.287 -0.0239 -0.1447  0.1507
 4382poe    c3118013   6.084   1.772   7.360 -0.5240  0.0197  0.1530
 4382poe     o218014   6.095   1.818   7.493  0.0106  0.4368 -0.0264
 4382poe    c2318015   5.987   1.770   7.571  0.0305  0.1513 -0.1737
 4382poe    c2318016   5.968   1.866   7.689  0.1458 -0.1714  0.1092
 4382poe     o218017   6.086   1.894   7.762  0.1144 -0.0192  0.1028
 4382poe    c2318018   6.117   1.796   7.858 -0.4539 -0.0836  0.2261
 4382poe    c2318019   6.265   1.809   7.898 -0.4578  0.4305  0.0752
 4382poe     o218020   6.354   1.812   7.789 -0.8873  0.0015 -0.2933
 4382poe    c2318021   6.379   1.683   7.737  0.0277 -0.1108  0.3937
 4382poe    c2318022   6.503   1.616   7.799  0.2846  0.0178  0.0238
 4382poe     o218023   6.484   1.585   7.935 -0.0969  0.2160  0.0186
 4382poe    c3118024   6.600   1.519   7.982 -0.0794  0.2786  0.0647
 4383poe    c3118025   7.189   2.015   3.100 -0.1478  0.6166  0.1756
 4383poe     o218026   7.272   2.091   3.015 -0.1406 -0.4316 -0.7752
 4383poe    c2318027   7.328   2.004   2.919  0.4805 -0.7448 -0.1405
 4383poe    c2318028   7.384   2.090   2.805 -0.3181 -0.3868 -0.2723
 4383poe     o218029   7.503   2.154   2.848 -0.6085  0.0662 -0.1327
 4383poe    c2318030   7.515   2.281   2.788  0.3044  0.0343 -0.0274
 4383poe    c2318031   7.636   2.350   2.854 -0.0550  0.3352  0.3229
 4383poe     o218032   7.593   2.389   2.982  0.2629  0.6976  0.3195
 4383poe    c2318033   7.714   2.404   3.054  0.4660  0.5844  0.0023
 4383poe    c2318034   7.677   2.513   3.157 -0.3731  0.2055  0.1167
 4383poe     o218035   7.547   2.485   3.202 -0.4802  1.0024  0.3235
 4383poe    c3118036   7.525   2.542   3.329  0.5282  0.6288  0.6787
 4384poe    c3118037   6.066   2.610   0.690  0.4637  0.0592  0.4694
 4384poe     o218038   6.062   2.749   0.714 -0.0700  0.0677  0.3353
 4384poe    c2318039   6.154   2.811   0.627  0.0187 -0.1422  0.2794
 4384poe    c2318040   6.125   2.961   0.614 -0.4782 -0.2567  0.0570
 4384poe     o218041   6.138   3.055   0.719  0.5918 -0.1649 -0.1550
 4384poe    c2318042   6.262   3.067   0.785  0.2879 -0.2832  0.4332
 4384poe    c2318043   6.254   3.190   0.877 -0.5096  0.1022 -0.1452
 4384poe     o218044   6.272   3.315   0.813 -0.2467  0.3275  0.3690
 4384poe    c2318045   6.226   3.421   0.894  0.2648  0.5541  0.3702
 4384poe    c2318046   6.312   3.549   0.883 -0.2360  0.8322 -0.3388
 4384poe     o218047   6.444   3.537   0.931 -0.4268  0.1466  0.0322
 4384poe    c3118048   6.460   3.563   1.069 -0.3248 -0.1978  0.0861
 4385poe    c3118049   5.770   2.464   0.798 -0.1954 -0.2853 -0.1002
 4385poe     o218050   5.816   2.368   0.706  0.2762 -0.0564 -0.1041
 4385poe    c2318051   5.811   2.244   0.774  0.0506 -0.1360 -0.2647
 4385poe    c2318052   5.857   2.123   0.691 -0.0546 -0.5745  0.3130
 4385poe     o218053   5.757   2.079   0.602  0.0805 -0.2163 -0.0148
 4385poe    c2318054   5.769   1.949   0.548  0.3839 -0.1170 -0.1886
 4385poe    c2318055   5.737   1.835   0.646  0.0258 -0.4131 -0.6492
 4385poe     o218056   5.606   1.848   0.696  0.3891  0.0531  0.1957
 4385poe    c2318057   5.547   1.736   0.759 -0.3180  0.2993 -0.0201
 4385poe    c2318058   5.462   1.763   0.884 -0.3664 -0.3599  0.0888
 4385poe     o218059   5.540   1.808   0.992 -0.1137  0.6098 -0.4931
 4385poe    c3118060   5.468   1.818   1.113  0.2469 -0.0858 -0.2171
 4386poe    c3118061   0.032   2.880   0.711 -0.1651 -0.2172  0.0817
 4386poe     o218062  -0.104   2.893   0.746  0.0587  0.9025  0.5551
 4386poe    c2318063  -0.188   2.780   0.734  0.4673  0.6993 -0.5267
 4386poe    c2318064  -0.286   2.772   0.616 -0.5913 -0.2442  0.3952
 4386poe     o218065  -0.391   2.866   0.607 -0.0572  0.4132  0.9098
 4386poe    c2318066  -0.510   2.794   0.581  0.1634  0.2010  0.4811
 4386poe    c2318067  -0.615   2.884   0.514  0.2684  0.0997  0.1788
 4386poe     o218068  -0.654   2.982   0.608  0.4193 -0.0049  0.3503
 4386poe    c2318069  -0.768   3.048   0.559  0.1303 -0.3214  0.5941
 4386poe    c2318070  -0.822   3.128   0.679 -0.3216  0.6349 -0.2371
 4386poe     o218071  -0.722   3.201   0.746 -0.0069  0.5525 -0.6114
 4386poe    c3118072  -0.764   3.283   0.853 -0.1247 -0.1779 -0.0876
 4387poe    c3118073   3.633   7.239   3.364  0.2780  0.4337  0.7119
 4387poe     o218074   3.687   7.112   3.333 -0.2829  0.2279  0.5639
 4387poe    c2318075   3.641   7.009   3.417 -0.8781 -0.2100 -0.2930
 4387poe    c2318076   3.696   6.867   3.392 -0.2067 -0.1326  0.7348
 4387poe     o218077   3.834   6.848   3.417 -0.0066 -0.4772 -0.5575
 4387poe    c2318078   3.846   6.728   3.490 -0.3855 -0.2116 -0.0474
 4387poe    c2318079   3.973   6.652   3.448 -0.2554  0.0730 -0.1699
 4387poe     o218080   4.083   6.726   3.496  0.0741 -0.2151 -0.4739
 4387poe    c2318081   4.208   6.664   3.476  0.2617 -0.0193  0.0934
 4387poe    c2318082   4.258   6.544   3.560  0.1019  0.1911  0.4929
 4387poe     o218083   4.170   6.435   3.540  0.1077  0.2010  0.4110
 4387poe    c3118084   4.171   6.351   3.654  0.0181 -0.3873 -0.0197
 4388poe    c3118085   3.792   5.369   2.340 -0.8629 -0.7561 -0.3884
 4388poe     o218086   3.932   5.380   2.328 -0.8745  0.1115  0.1226
 4388poe    c2318087   4.019   5.278   2.372 -0.2764  0.1217 -1.0131
 4388poe    c2318088   4.128   5.332   2.467 -0.7060 -0.5383 -0.1383
 4388poe     o218089   4.083   5.361   2.597  0.0337  0.3632 -0.0694
 4388poe    c2318090   4.180   5.324   2.692 -0.3645  0.3618  0.3446
 4388poe    c2318091   4.132   5.337   2.838 -0.9803 -0.2585  0.1980
 4388poe     o218092   4.079   5.463   2.872  0.0424  0.2041  0.1195
 4388poe    c2318093   4.021   5.443   2.999  0.1889  0.2994  0.2010
 4388poe    c2318094   3.931   5.557   3.051  0.0281 -0.0005  0.5786
 4388poe     o218095   4.011   5.660   3.104  0.0440  0.3475 -0.1161
 4388poe    c3118096   3.927   5.769   3.132 -0.1017  0.0828  0.4984
 4389poe    c3118097   2.066   0.289   3.132 -0.1836 -0.0580  0.0727
 4389poe     o218098   1.969   0.268   3.233  0.2328 -0.5500  0.3695
 4389poe    c2318099   1.986   0.349   3.347  0.2828  0.0549 -0.0596
 4389poe    c2318100   1.856   0.351   3.430  0.4974  0.1666  0.2748
 4389poe     o218101   1.747   0.423   3.376  0.3049 -0.2328  0.1303
 4389poe    c2318102   1.634   0.422   3.459  0.6852  0.1400  0.6597
 4389poe    c2318103   1.521   0.523   3.435  0.3548 -0.4670 -0.4249
 4389poe     o218104   1.456   0.492   3.314 -0.0456  0.2028 -0.3910
 4389poe    c2318105   1.335   0.559   3.289 -0.2073  0.0159 -0.1199
 4389poe    c2318106   1.280   0.510   3.153 -0.3497  0.4915 -0.2358
 4389poe     o218107   1.374   0.531   3.051  0.2003 -0.4842  0.0624
 4389poe    c3118108   1.341   0.481   2.924  0.0799 -0.1674 -0.0316
 4390poe    c3118109   0.781   1.019   1.895 -0.3991 -0.6846  0.4992
 4390poe     o218110   0.696   1.047   2.004 -0.1605  0.0813  0.4966
 4390poe    c2318111   0.586   1.119   1.953  0.0506 -0.2853 -0.4961
 4390poe    c2318112   0.482   1.168   2.056  0.0307 -0.5650 -0.3799
 4390poe     o218113   0.413   1.072   2.132  0.1684 -0.0149  0.4510
 4390poe    c2318114   0.482   0.983   2.217  0.0079 -0.3306  0.2530
 4390poe    c2318115   0.524   1.028   2.358  0.2464  0.4942 -0.0784
 4390poe     o218116   0.409   1.063   2.432  0.3819  0.1541  0.2978
 4390poe    c2318117   0.449   1.098   2.562 -0.0410  0.2273  0.4086
 4390poe    c2318118   0.320   1.118   2.645  0.2312 -0.6161  1.0432
 4390poe     o218119   0.305   1.255   2.672  0.2285 -0.4855  0.4056
 4390poe    c3118120   0.215   1.280   2.778  0.2267  0.0499  0.2810
 4391poe    c3118121   7.472   4.040   1.321  0.2798 -0.0395 -0.5461
 4391poe     o218122   7.597   4.053   1.257  0.5271 -0.4667 -0.1577
 4391poe    c2318123   7.634   4.188   1.238  0.0713 -0.3954 -0.5723
 4391poe    c2318124   7.757   4.205   1.148  0.4796 -0.0199  0.0439
 4391poe     o218125   7.874   4.176   1.220  0.2761  0.1079  0.4288
 4391poe    c2318126   7.979   4.130   1.137 -0.2755 -0.3815  0.0016
 4391poe    c2318127   8.102   4.078   1.212 -0.1440 -0.3300 -0.1775
 4391poe     o218128   8.069   3.976   1.303 -0.1569 -0.1616  0.0075
 4391poe    c2318129   8.191   3.924   1.351 -0.0637 -0.0810 -0.1406
 4391poe    c2318130   8.178   3.825   1.469 -0.4393 -0.0534 -0.1580
 4391poe     o218131   8.145   3.896   1.586  1.0752  0.4702 -0.0324
 4391poe    c3118132   8.193   3.828   1.699  0.7778  0.1084 -0.1239
 4392poe    c3118133   7.480   1.371   3.463  0.1185  0.3710 -0.5623
 4392poe     o218134   7.417   1.487   3.413 -0.0126  0.6088  0.1518
 4392poe    c2318135   7.470   1.529   3.290  0.4939  0.8106  0.4352
 4392poe    c2318136   7.376   1.633   3.225  0.6338  0.4306 -0.3955
 4392poe     o218137   7.340   1.744   3.304 -0.1295 -0.3554  0.3887
 4392poe    c2318138   7.448   1.833   3.322 -0.3208  0.1396 -0.7882
 4392poe    c2318139   7.431   1.949   3.422 -0.5841 -0.4507 -0.1377
 4392poe     o218140   7.313   2.024   3.403 -0.1657  0.2961  0.2028
 4392poe    c2318141   7.261   2.060   3.529 -0.2025  0.1352  0.2332
 4392poe    c2318142   7.115   2.107   3.533 -0.4330 -0.5607  0.1643
 4392poe     o218143   7.028   1.998   3.511 -0.1948 -0.6823 -0.1762
 4392poe    c3118144   6.896   2.046   3.521  0.0672  0.0895 -0.3505
 4393poe    c3118145   4.265   7.466   6.786 -0.4252  0.1159 -0.4399
 4393poe     o218146   4.399   7.502   6.812 -0.5124  0.0520  0.1130
 4393poe    c2318147   4.420   7.504   6.951 -0.5396  0.1058  0.1166
 4393poe    c2318148   4.553   7.567   6.997 -0.2074 -0.2709 -0.3136
 4393poe     o218149   4.665   7.483   6.986  0.2103  0.2811 -0.3240
 4393poe    c2318150   4.762   7.554   7.061  0.1030 -0.1300  0.2109
 4393poe    c2318151   4.899   7.483   7.067  0.2724  0.2071  0.3318
 4393poe     o218152   4.904   7.397   7.179 -0.1847 -0.1145  0.1091
 4393poe    c2318153   5.036   7.375   7.221 -0.1798 -0.1375  0.0811
 4393poe    c2318154   5.089   7.231   7.210 -0.2266 -0.1328 -0.2089
 4393poe     o218155   5.150   7.211   7.084 -0.1243 -0.0601 -0.1706
 4393poe    c3118156   5.232   7.097   7.072 -0.2599 -0.2225  0.4266
 4394poe    c3118157   4.316   5.364   4.791 -0.1244  0.0962  0.9915
 4394poe     o218158   4.190   5.402   4.741  0.2929  0.3583  0.1097
 4394poe    c2318159   4.091   5.384   4.840  0.1604 -0.8457 -0.2269
 4394poe    c2318160   3.949   5.440   4.816  0.2616 -0.4660  0.0435
 4394poe     o218161   3.936   5.580   4.816  0.0235 -0.4889  0.2307
 4394poe    c2318162   3.805   5.610   4.861 -0.0317 -0.5581  0.1164
 4394poe    c2318163   3.797   5.748   4.927 -0.0188 -0.6084  0.2241
 4394poe     o218164   3.783   5.836   4.817  0.0169 -0.5263  0.2847
 4394poe    c2318165   3.777   5.971   4.856  0.4252 -0.4411  0.0484
 4394poe    c2318166   3.761   6.062   4.733 -0.0520 -0.2236  0.2698
 4394poe     o218167   3.859   6.033   4.636 -0.0937  0.3207  0.0592
 4394poe    c3118168   3.832   6.102   4.516 -0.4874  0.1657  0.0576
 4395poe    c3118169   2.631   1.129   0.504 -0.3834 -0.3007  0.0741
 4395poe     o218170   2.548   1.238   0.469 -0.8395 -0.9050 -0.7823
 4395poe    c2318171   2.627   1.325   0.391 -0.4717 -0.2838  0.2524
 4395poe    c2318172   2.533   1.425   0.321  0.5093  0.5953  0.1610
 4395poe     o218173   2.433   1.492   0.395 -0.0087 -0.0992  0.1094
 4395poe    c2318174   2.386   1.615   0.345 -0.3376 -0.2734 -0.0136
 4395poe    c2318175   2.275   1.683   0.428  0.1340  0.5432 -0.0371
 4395poe     o218176   2.189   1.574   0.453  0.5068  0.2406 -0.0628
 4395poe    c2318177   2.071   1.625   0.511  0.1857 -0.3890 -0.1531
 4395poe    c2318178   2.041   1.534   0.632 -0.1204 -0.1319 -0.0334
 4395poe     o218179   2.086   1.408   0.586 -0.0707 -0.0363 -0.2497
 4395poe    c3118180   1.997   1.307   0.630  0.1921 -0.0807  0.1820
 4396poe    c3118181   7.131   2.212   1.868 -0.5528 -0.1559 -0.6483
 4396poe     o218182   7.219   2.206   1.757  0.4481 -0.2696  0.1308
 4396poe    c2318183   7.200   2.085   1.688  0.0137 -0.2905  0.2809
 4396poe    c2318184   7.316   2.067   1.588 -0.0789  0.0683  0.1066
 4396poe     o218185   7.308   2.168   1.490  0.3372  0.0228  0.0248
 4396poe    c2318186   7.409   2.155   1.392  0.7794  0.7244  0.3849
 4396poe    c2318187   7.419   2.294   1.326 -0.0768  0.3971 -0.4521
 4396poe     o218188   7.447   2.386   1.429 -0.2196  0.0363 -0.0865
 4396poe    c2318189   7.584   2.408   1.450 -0.2874  0.1562  0.2410
 4396poe    c2318190   7.639   2.493   1.566  0.1441  0.3243 -0.0863
 4396poe     o218191   7.604   2.464   1.699  0.1657 -0.3241 -0.2187
 4396poe    c3118192   7.687   2.370   1.762  0.0845 -0.3762 -0.1895
 4397poe    c3118193   5.709   2.164   2.668  0.2450 -0.0194  0.6283
 4397poe     o218194   5.841   2.139   2.625  0.0697  0.2483 -0.0897
 4397poe    c2318195   5.902   2.047   2.714  0.1631  0.3112 -0.0876
 4397poe    c2318196   6.039   2.001   2.663  0.1758  0.4029 -0.1386
 4397poe     o218197   6.023   1.896   2.569 -0.1534  0.0891  0.2618
 4397poe    c2318198   6.145   1.860   2.508 -0.3312  0.2808 -0.2151
 4397poe    c2318199   6.108   1.757   2.400  0.7193 -0.5261  0.1733
 4397poe     o218200   6.049   1.637   2.447 -0.0334 -0.1732  0.1428
 4397poe    c2318201   5.989   1.582   2.332 -0.0541 -0.4076  0.2653
 4397poe    c2318202   5.856   1.514   2.370 -0.1921  0.0027  0.5234
 4397poe     o218203   5.852   1.390   2.437  0.0954 -0.2797  0.0186
 4397poe    c3118204   5.813   1.298   2.338 -0.0659 -0.0293 -0.1514
 4398poe    c3118205   1.305   3.336   4.377  0.4406 -0.2490  0.3322
 4398poe     o218206   1.316   3.196   4.390 -0.3076 -0.3071  0.3920
 4398poe    c2318207   1.378   3.158   4.512  0.4201 -0.6604 -0.0808
 4398poe    c2318208   1.459   3.028   4.498  0.3158 -0.6555 -0.7973
 4398poe     o218209   1.573   3.030   4.415  0.4529  0.1505 -0.6003
 4398poe    c2318210   1.649   2.912   4.431  0.5136  0.2891  0.1590
 4398poe    c2318211   1.749   2.899   4.315 -0.1902 -0.3608 -0.3853
 4398poe     o218212   1.799   3.028   4.290 -0.1755 -0.2656  0.1388
 4398poe    c2318213   1.937   3.045   4.317 -0.2042  0.3924 -0.1078
 4398poe    c2318214   1.997   3.181   4.279  0.1017  0.1230 -0.5932
 4398poe     o218215   1.986   3.296   4.360  0.2161 -0.2340 -0.0747
 4398poe    c3118216   1.999   3.409   4.277  0.2372 -0.2611 -0.1083
 4399poe    c3118217   0.445   1.708   5.419  0.7786  0.1381 -0.0824
 4399poe     o218218   0.553   1.618   5.431  0.6227  0.0065  0.3389
 4399poe    c2318219   0.658   1.681   5.503  0.3777  0.3884  0.3662
 4399poe    c2318220   0.714   1.555   5.571 -0.0617  0.0016  0.0227
 4399poe     o218221   0.735   1.444   5.486 -0.1523 -0.1370  0.1809
 4399poe    c2318222   0.803   1.347   5.562  0.0613 -0.3714 -0.3073
 4399poe    c2318223   0.857   1.244   5.461  0.4485 -0.1474 -0.3320
 4399poe     o218224   0.763   1.198   5.366  0.2325  0.2736 -0.3265
 4399poe    c2318225   0.829   1.115   5.273  0.4280 -0.2144  0.2406
 4399poe    c2318226   0.737   1.089   5.153 -0.2081  0.1765  0.6374
 4399poe     o218227   0.712   1.210   5.085 -0.9024 -0.0558  0.4672
 4399poe    c3118228   0.695   1.197   4.945  0.3717  0.0078  0.2923
 4400poe    c3118229   1.718   5.939   5.187  0.0401  0.6498 -0.3464
 4400poe     o218230   1.615   6.008   5.119 -0.3809  0.2200 -0.1464
 4400poe    c2318231   1.500   5.927   5.111  0.0593 -0.4376  0.0874
 4400poe    c2318232   1.376   5.998   5.053  0.1287  0.0542  0.5341
 4400poe     o218233   1.348   6.128   5.099 -0.7179 -0.1132  0.5101
 4400poe    c2318234   1.228   6.164   5.035 -0.2478  0.3033 -0.1511
 4400poe    c2318235   1.176   6.303   5.077 -0.1445  0.2296  0.2200
 4400poe     o218236   1.246   6.408   5.014 -0.2508 -0.0592 -0.3886
 4400poe    c2318237   1.165   6.521   5.034  0.3166  0.3775 -0.5422
 4400poe    c2318238   1.247   6.647   5.000 -0.1796  0.8200 -0.1267
 4400poe     o218239   1.279   6.658   4.863  0.2044 -0.1014 -0.1209
 4400poe    c3118240   1.329   6.788   4.840  0.7750 -0.2265  0.3954
 4401poe    c3118241   5.634   6.534   4.497 -0.0625 -0.3989 -0.2291
 4401poe     o218242   5.754   6.461   4.486  0.4395  0.3845 -0.0118
 4401poe    c2318243   5.745   6.335   4.548 -0.4073  0.8349  0.8098
 4401poe    c2318244   5.864   6.240   4.526 -0.5863  0.8424 -0.2433
 4401poe     o218245   5.978   6.315   4.562  0.0910 -0.3955  0.2785
 4401poe    c2318246   6.096   6.242   4.538  0.3026 -0.0106  0.1450
 4401poe    c2318247   6.211   6.300   4.624 -0.4236  0.4815  0.7953
 4401poe     o218248   6.192   6.289   4.763 -0.0839 -0.2840  0.7854
 4401poe    c2318249   6.315   6.286   4.832 -0.2439 -0.5228  1.0604
 4401poe    c2318250   6.401   6.159   4.851  0.3674 -0.3077 -0.1724
 4401poe     o218251   6.322   6.071   4.927 -0.3659  0.3066 -0.2079
 4401poe    c3118252   6.388   5.948   4.946 -0.6024  0.1982 -0.0855
 4402poe    c3118253   4.179   6.138   5.805 -0.5418  0.0617  0.4969
 4402poe     o218254   4.137   6.273   5.818  0.2163  0.3650 -0.1297
 4402poe    c2318255   4.005   6.291   5.772  0.0492 -0.5575 -0.0461
 4402poe    c2318256   3.920   6.391   5.853 -0.0879 -0.0736 -0.7686
 4402poe     o218257   3.945   6.527   5.828  0.3247  0.1222  0.6301
 4402poe    c2318258   3.829   6.603   5.852  0.2239 -0.0999  0.8546
 4402poe    c2318259   3.850   6.742   5.789 -0.0065 -0.5094 -0.1444
 4402poe     o218260   3.963   6.811   5.839  0.0771 -0.6243 -0.1743
 4402poe    c2318261   3.920   6.945   5.841  0.6259 -0.4518  0.1277
 4402poe    c2318262   4.033   7.048   5.856  0.1551  0.1035 -0.0736
 4402poe     o218263   4.067   7.057   5.993  0.1745  0.0194 -0.0728
 4402poe    c3118264   4.198   7.102   6.021  0.0339  0.6412 -0.4003
 4403poe    c3118265   7.438   4.389   0.812  0.1229 -0.0416  0.0005
 4403poe     o218266   7.504   4.493   0.742  0.2010 -0.0485  0.0641
 4403poe    c2318267   7.534   4.598   0.831  0.2296 -0.2285  0.2662
 4403poe    c2318268   7.629   4.695   0.759  0.2182 -0.2911  0.1674
 4403poe     o218269   7.752   4.631   0.731  0.3319 -0.0979  0.2294
 4403poe    c2318270   7.855   4.704   0.667  0.3389 -0.1405  0.1924
 4403poe    c2318271   7.973   4.636   0.596  0.2959 -0.2958  0.2692
 4403poe     o218272   7.942   4.578   0.471 -0.0203 -0.2007  0.3021
 4403poe    c2318273   7.928   4.673   0.368  0.3599 -0.1226  0.3199
 4403poe    c2318274   7.835   4.625   0.255  0.5804 -0.2596  0.1954
 4403poe     o218275   7.696   4.624   0.281  0.4338 -0.2129 -0.5652
 4403poe    c3118276   7.613   4.651   0.171 -0.1816 -0.3632 -0.1393
 4404poe    c3118277   2.205   3.876   3.392 -0.7931 -0.2449 -0.9886
 4404poe     o218278   2.131   3.931   3.499  0.2527 -0.3859 -0.1728
 4404poe    c2318279   2.181   3.911   3.629 -0.4591 -0.2141  0.1322
 4404poe    c2318280   2.085   3.944   3.745 -0.4334 -0.3051  0.1798
 4404poe     o218281   2.042   4.078   3.746  0.1399 -0.1156 -0.1013
 4404poe    c2318282   2.000   4.098   3.879  0.3062 -0.5287  0.0162
 4404poe    c2318283   2.071   4.213   3.954 -0.8125  0.1441  0.0763
 4404poe     o218284   2.050   4.345   3.911 -0.2582  0.1391 -0.2205
 4404poe    c2318285   2.167   4.394   3.849  0.2240 -0.0792  0.5105
 4404poe    c2318286   2.167   4.544   3.813 -0.1106 -0.1672  0.1460
 4404poe     o218287   2.057   4.581   3.732 -0.0689  0.0736  0.1974
 4404poe    c3118288   2.078   4.711   3.683  0.4146 -0.0638  0.0326
 4405poe    c3118289   5.478   0.281   5.899 -0.2989  0.2027 -0.0520
 4405poe     o218290   5.376   0.377   5.878 -0.5893 -0.2042 -0.5389
 4405poe    c2318291   5.371   0.429   5.747  0.1328 -0.1813 -0.5634
 4405poe    c2318292   5.293   0.561   5.736  0.0297 -0.1727  0.2737
 4405poe     o218293   5.351   0.682   5.782 -0.2944 -0.0372  0.3266
 4405poe    c2318294   5.464   0.735   5.717 -0.2804  0.0327  0.4075
 4405poe    c2318295   5.476   0.885   5.750  0.4247  0.2173 -0.6317
 4405poe     o218296   5.376   0.968   5.694  0.0108 -0.0536 -0.3014
 4405poe    c2318297   5.400   1.104   5.724 -0.6471 -0.0595  0.2959
 4405poe    c2318298   5.344   1.212   5.629 -0.1614 -0.1379 -0.0905
 4405poe     o218299   5.203   1.204   5.624 -0.1527 -0.3667 -0.0326
 4405poe    c3118300   5.158   1.338   5.611  0.0832 -0.2353  0.4924
 4406poe    c3118301   2.191   1.456   2.803  0.0297  0.3187  0.2505
 4406poe     o218302   2.131   1.438   2.676  0.1025  0.2651  0.2234
 4406poe    c2318303   2.168   1.533   2.579 -0.2580  0.7497  0.5544
 4406poe    c2318304   2.097   1.516   2.443 -0.0962 -0.1014  0.5723
 4406poe     o218305   1.957   1.532   2.444 -0.0683  0.1336  0.8029
 4406poe    c2318306   1.926   1.664   2.407  0.0874  0.0497  0.3662
 4406poe    c2318307   1.777   1.682   2.375  0.1275 -0.2945 -0.0169
 4406poe     o218308   1.737   1.623   2.253 -0.0284 -0.6575  0.2107
 4406poe    c2318309   1.601   1.641   2.219  0.1706 -0.0079 -0.2381
 4406poe    c2318310   1.565   1.570   2.087  0.0637  0.0256 -0.2267
 4406poe     o218311   1.544   1.431   2.097 -0.0611  0.0346 -0.3667
 4406poe    c3118312   1.471   1.395   1.982 -0.3609  0.0018 -0.1671
 4407poe    c3118313   7.269   6.077   2.528  0.0197 -0.1552 -0.6095
 4407poe     o218314   7.361   6.015   2.440  0.7430  0.5786 -0.3770
 4407poe    c2318315   7.316   5.888   2.400  0.7112  0.4505  0.0603
 4407poe    c2318316   7.435   5.803   2.352  0.2372 -0.2682  0.1443
 4407poe     o218317   7.524   5.791   2.460  0.3471  0.3583  0.1246
 4407poe    c2318318   7.634   5.716   2.411 -0.0523  0.1132 -0.4064
 4407poe    c2318319   7.708   5.672   2.539 -0.3537  0.6834 -0.0279
 4407poe     o218320   7.750   5.791   2.601 -0.2853  0.4844  0.3088
 4407poe    c2318321   7.831   5.766   2.714 -0.0326  0.4165  0.1136
 4407poe    c2318322   7.868   5.911   2.751  0.3105  0.3099  0.1896
 4407poe     o218323   7.748   5.982   2.771 -0.3073 -0.6529 -0.0585
 4407poe    c3118324   7.771   6.112   2.820 -0.0964 -0.9110  0.5389
 4408poe    c3118325   1.573   4.270   6.662  0.4352  0.1034 -0.1080
 4408poe     o218326   1.667   4.171   6.627  0.2186 -0.1434  0.0065
 4408poe    c2318327   1.652   4.061   6.715 -0.0201 -0.2435 -0.1585
 4408poe    c2318328   1.677   3.925   6.646 -0.2158 -0.2359 -0.2465
 4408poe     o218329   1.774   3.949   6.547 -0.2731 -0.3570 -0.3312
 4408poe    c2318330   1.842   3.836   6.496  0.1404 -0.3382  0.1620
 4408poe    c2318331   1.884   3.867   6.351 -0.0103 -0.0672  0.1758
 4408poe     o218332   1.952   3.990   6.361 -0.9240  0.4870 -0.3012
 4408poe    c2318333   2.049   4.008   6.260 -0.3623  0.2062  0.1863
 4408poe    c2318334   2.100   4.154   6.266 -0.6423  0.3032  0.1930
 4408poe     o218335   2.168   4.181   6.386  0.1027  0.3445 -0.2361
 4408poe    c3118336   2.203   4.318   6.395  0.3058  0.3024 -0.3613
 4409poe    c3118337   7.367   1.360   7.098  0.0406  0.2001  0.3289
 4409poe     o218338   7.308   1.394   7.221  0.3011  0.0063  0.5088
 4409poe    c2318339   7.197   1.308   7.237  0.3495 -0.0856  0.3458
 4409poe    c2318340   7.099   1.332   7.353  0.0127  0.5315 -0.0563
 4409poe     o218341   7.169   1.314   7.474 -0.4688  0.0923  0.1652
 4409poe    c2318342   7.081   1.288   7.581 -0.8208  0.1870 -0.1002
 4409poe    c2318343   7.143   1.321   7.718  0.2011  0.0488 -0.5206
 4409poe     o218344   7.165   1.461   7.722  0.2961  0.0181  0.1928
 4409poe    c2318345   7.158   1.508   7.854 -0.5016  0.4339  0.0113
 4409poe    c2318346   7.299   1.530   7.912 -0.5489 -0.9454  0.6969
 4409poe     o218347   7.398   1.437   7.873  0.2231 -0.0459  0.4666
 4409poe    c3118348   7.472   1.390   7.984  0.3056 -0.2889  0.3091
 4410poe    c3118349   2.194   6.415   0.243  0.1652  0.3174 -0.0101
 4410poe     o218350   2.183   6.278   0.212 -0.1671  0.3021  0.1723
 4410poe    c2318351   2.284   6.215   0.288 -0.0740 -0.4271 -0.5433
 4410poe    c2318352   2.306   6.067   0.252 -0.3214 -0.5613 -0.1514
 4410poe     o218353   2.358   6.043   0.123  0.0283  0.0822 -0.1330
 4410poe    c2318354   2.323   5.912   0.084  0.4008 -0.0761  0.0651
 4410poe    c2318355   2.363   5.882  -0.062 -0.2424 -0.1981 -0.0908
 4410poe     o218356   2.500   5.895  -0.093 -0.1365 -0.3048  0.3237
 4410poe    c2318357   2.506   5.916  -0.232  0.1691 -0.0164  0.3759
 4410poe    c2318358   2.651   5.931  -0.282  0.1913 -0.1916  0.3861
 4410poe     o218359   2.706   6.043  -0.218 -0.0000 -0.0352  0.2794
 4410poe    c3118360   2.821   6.069  -0.296 -0.1478 -0.6174 -0.1373
 4411poe    c3118361   4.768   4.101   5.279 -0.1114 -0.2889  0.3192
 4411poe     o218362   4.703   4.061   5.398 -0.9970 -0.3757 -0.1877
 4411poe    c2318363   4.758   3.935   5.432  0.3593  0.3202  0.2672
 4411poe    c2318364   4.693   3.852   5.544 -0.0916  0.0153 -0.2158
 4411poe     o218365   4.753   3.898   5.662 -0.5560 -0.1705  0.0965
 4411poe    c2318366   4.749   3.789   5.752 -0.0438 -0.0968  0.2111
 4411poe    c2318367   4.817   3.826   5.885  0.0353  0.0760  0.1234
 4411poe     o218368   4.752   3.933   5.952  0.1345  0.1340  0.1269
 4411poe    c2318369   4.775   3.944   6.090 -0.2590 -0.2759  0.2272
 4411poe    c2318370   4.684   4.045   6.162 -0.7755 -0.1334 -0.6161
 4411poe     o218371   4.662   4.167   6.095 -0.7006  0.0796 -0.2555
 4411poe    c3118372   4.587   4.248   6.182 -0.4646 -0.4316  0.4352
 4412poe    c3118373   6.052   4.418   3.393 -0.1371  0.4596 -0.5468
 4412poe     o218374   6.173   4.397   3.323  0.1300  0.0544  0.0303
 4412poe    c2318375   6.244   4.297   3.392 -0.5266 -0.4540 -0.0217
 4412poe    c2318376   6.393   4.289   3.356 -0.7456 -0.3262 -0.9838
 4412poe     o218377   6.421   4.219   3.237  0.2080 -0.8913 -0.4452
 4412poe    c2318378   6.559   4.196   3.222  0.3559 -0.8758  0.7484
 4412poe    c2318379   6.599   4.153   3.079 -0.0297  0.2171  0.2988
 4412poe     o218380   6.542   4.032   3.036  0.2399  0.1741  0.0540
 4412poe    c2318381   6.618   3.922   3.079 -0.1739 -0.0310  0.2761
 4412poe    c2318382   6.530   3.800   3.048 -0.0463 -0.1292  0.2929
 4412poe     o218383   6.491   3.803   2.912 -0.1019  0.0802  0.3128
 4412poe    c3118384   6.440   3.676   2.876  0.2965 -0.1536  0.5645
 4413poe    c3118385   6.353   1.490   2.527 -0.1146  0.3660 -0.0036
 4413poe     o218386   6.446   1.515   2.425  0.1162  0.2881  0.1870
 4413poe    c2318387   6.540   1.615   2.459  0.3914 -0.1383  0.6763
 4413poe    c2318388   6.636   1.653   2.344 -0.1417 -0.4608  0.1152
 4413poe     o218389   6.590   1.687   2.216 -0.0724  0.1145  0.2411
 4413poe    c2318390   6.550   1.822   2.205  0.0316  0.0853 -0.5686
 4413poe    c2318391   6.433   1.849   2.108 -0.4581 -0.1178 -0.0392
 4413poe     o218392   6.452   1.813   1.974 -0.2603 -0.0664 -0.0256
 4413poe    c2318393   6.549   1.884   1.900 -0.2581  0.2444  0.2775
 4413poe    c2318394   6.526   1.911   1.750 -0.3178  0.6050  0.3496
 4413poe     o218395   6.506   1.789   1.683  0.6327  0.4952  0.2480
 4413poe    c3118396   6.514   1.806   1.543 -0.0287 -0.5796  0.0661
 4414poe    c3118397   1.435   0.234   1.658 -0.0600  0.5228 -0.0423
 4414poe     o218398   1.385   0.265   1.530 -0.5853 -0.2513 -0.0328
 4414poe    c2318399   1.406   0.178   1.422 -0.5107  0.2908 -0.4592
 4414poe    c2318400   1.307   0.061   1.438  0.1430 -0.2131 -0.0073
 4414poe     o218401   1.176   0.114   1.430  0.0694 -0.3506  0.3046
 4414poe    c2318402   1.085   0.010   1.461 -0.4141  0.1282  0.5073
 4414poe    c2318403   0.939   0.045   1.428 -0.0592  0.3166 -0.9607
 4414poe     o218404   0.930   0.185   1.447  0.2852  0.1642  0.4642
 4414poe    c2318405   0.799   0.236   1.435  0.4248  0.2889 -0.5798
 4414poe    c2318406   0.824   0.386   1.459 -0.9937  0.5178 -0.4468
 4414poe     o218407   0.925   0.423   1.368  0.4280  0.1304  0.9222
 4414poe    c3118408   0.932   0.562   1.342  0.0830 -0.1943 -1.0655
 4415poe    c3118409   0.806   6.994   5.315 -0.6892 -0.1769 -0.6325
 4415poe     o218410   0.748   7.049   5.431  0.1186  0.1616 -0.3856
 4415poe    c2318411   0.824   7.025   5.548  0.1212 -0.0230 -0.4258
 4415poe    c2318412   0.803   7.142   5.646  0.5628 -0.1734 -0.1522
 4415poe     o218413   0.820   7.269   5.588  0.2913 -0.1680 -0.2218
 4415poe    c2318414   0.846   7.363   5.690 -0.1400 -0.0025 -0.2602
 4415poe    c2318415   0.836   7.507   5.637  0.0421 -0.0008 -0.2902
 4415poe     o218416   0.949   7.535   5.557 -0.0587  0.3413 -0.3140
 4415poe    c2318417   0.927   7.658   5.491 -0.1538  0.4585 -0.0638
 4415poe    c2318418   0.961   7.657   5.341 -0.1007  0.8267 -0.0565
 4415poe     o218419   0.867   7.576   5.274  0.3864  0.2388 -0.0438
 4415poe    c3118420   0.901   7.598   5.139 -0.5277  0.0871 -0.3061
 4416poe    c3118421   0.691   6.589   3.638 -0.1757 -0.2266 -0.9818
 4416poe     o218422   0.567   6.657   3.645 -0.0902 -0.1295 -0.4250
 4416poe    c2318423   0.524   6.692   3.516 -0.1458  0.5010 -0.2387
 4416poe    c2318424   0.374   6.709   3.487 -0.1450  0.0513 -0.5263
 4416poe     o218425   0.339   6.822   3.565  0.1626  0.0897 -0.4442
 4416poe    c2318426   0.205   6.864   3.561  0.1812  0.2437  0.3695
 4416poe    c2318427   0.174   6.950   3.685 -0.1748  0.3218  0.2268
 4416poe     o218428   0.169   6.873   3.803  0.4009  0.1961  0.1718
 4416poe    c2318429   0.146   6.960   3.912 -0.6748  0.2489 -0.0849
 4416poe    c2318430   0.132   6.869   4.035 -0.4254 -0.2459 -0.4163
 4416poe     o218431   0.240   6.779   4.020  0.1146  0.2126  0.5793
 4416poe    c3118432   0.251   6.699   4.135 -0.0556  0.5516  0.8359
 4417poe    c3118433   6.647   1.304   6.683 -0.3115 -0.5632  0.3868
 4417poe     o218434   6.571   1.311   6.801 -0.6393 -0.4774  0.1710
 4417poe    c2318435   6.610   1.422   6.880 -0.0939 -0.2513 -0.4086
 4417poe    c2318436   6.483   1.487   6.939  0.3003  0.3607 -0.2349
 4417poe     o218437   6.431   1.394   7.030  0.3362 -0.1642 -0.7406
 4417poe    c2318438   6.311   1.443   7.087  0.4810 -0.3548 -0.2626
 4417poe    c2318439   6.245   1.348   7.188 -0.0655 -0.0240 -0.3014
 4417poe     o218440   6.124   1.408   7.227 -0.2285 -0.4563 -0.1352
 4417poe    c2318441   6.101   1.373   7.362  0.5847 -0.7458 -0.0699
 4417poe    c2318442   5.962   1.423   7.405  0.8407 -0.1774  0.1028
 4417poe     o218443   5.886   1.349   7.498 -0.6596  0.9276 -0.2088
 4417poe    c3118444   5.850   1.215   7.474  0.0786  0.7657 -0.4379
 4418poe    c3118445   3.493   6.038   5.142  0.2575 -0.2942  0.8730
 4418poe     o218446   3.452   6.058   5.276 -0.2782 -0.2888  0.7098
 4418poe    c2318447   3.328   5.998   5.306 -0.5667  0.1020  0.3221
 4418poe    c2318448   3.280   5.996   5.453 -0.0950 -0.0820  0.4790
 4418poe     o218449   3.241   6.126   5.492  0.1778  0.1657 -0.0614
 4418poe    c2318450   3.320   6.178   5.596  0.4027  0.1688 -0.2329
 4418poe    c2318451   3.270   6.318   5.637  0.3995 -0.0466  0.5066
 4418poe     o218452   3.289   6.418   5.540 -0.1773 -0.6448 -0.2326
 4418poe    c2318453   3.169   6.443   5.469 -0.2349 -0.2966 -0.0194
 4418poe    c2318454   3.208   6.564   5.382  0.2060  0.3140  1.0115
 4418poe     o218455   3.327   6.535   5.314 -0.2749  0.5144  0.0763
 4418poe    c3118456   3.325   6.468   5.190  0.2948  0.4619  0.0925
 4419poe    c3118457   6.546   5.006   1.443 -0.1231  0.3077 -0.1185
 4419poe     o218458   6.637   5.019   1.550 -0.1493 -0.5984  0.0208
 4419poe    c2318459   6.726   4.911   1.538 -0.0619 -0.4890 -0.3140
 4419poe    c2318460   6.824   4.911   1.657  0.0530 -0.1589 -0.4062
 4419poe     o218461   6.905   5.026   1.651  0.3953 -0.3509  0.4770
 4419poe    c2318462   6.990   5.034   1.764 -0.1047 -0.9886  0.9076
 4419poe    c2318463   6.924   5.101   1.885 -0.1857 -0.1426  0.4017
 4419poe     o218464   6.918   5.239   1.854  0.1226 -0.2670 -0.2099
 4419poe    c2318465   6.872   5.308   1.967 -0.2210  0.1234 -0.5873
 4419poe    c2318466   6.850   5.458   1.941  0.1403  0.3313  0.2629
 4419poe     o218467   6.725   5.495   1.887  0.2741 -0.0068 -0.2818
 4419poe    c3118468   6.713   5.634   1.908  0.2762 -0.1782  0.9391
 4420poe    c3118469   4.944   5.429   1.404  0.3147  0.1279 -0.4993
 4420poe     o218470   5.021   5.544   1.430 -0.1325  0.2575  0.2955
 4420poe    c2318471   5.042   5.547   1.569 -0.3340 -0.8531  0.3587
 4420poe    c2318472   5.170   5.629   1.591 -0.7678 -0.1902  0.4517
 4420poe     o218473   5.161   5.769   1.577 -0.3480 -0.2024  0.0379
 4420poe    c2318474   5.281   5.832   1.617 -0.5370 -0.2196  0.6326
 4420poe    c2318475   5.260   5.984   1.617  0.1602 -0.1169 -0.3005
 4420poe     o218476   5.228   6.031   1.488  0.2538  0.3001 -0.1735
 4420poe    c2318477   5.335   6.017   1.398  0.0293 -0.0867 -0.3827
 4420poe    c2318478   5.341   6.135   1.299  0.3174  0.1862 -0.0427
 4420poe     o218479   5.225   6.153   1.220  0.2464 -0.6816 -0.1496
 4420poe    c3118480   5.267   6.231   1.110 -0.1834  0.3265  0.3875
 4421poe    c3118481   4.639   2.038   3.409  0.3793  0.1664 -0.3030
 4421poe     o218482   4.511   2.014   3.463  0.4708 -0.0120 -0.1639
 4421poe    c2318483   4.461   2.127   3.531  0.0391  0.0403 -0.5618
 4421poe    c2318484   4.343   2.098   3.625  0.3276  0.6082 -0.0166
 4421poe     o218485   4.382   2.055   3.754  0.4545  0.0124 -0.2512
 4421poe    c2318486   4.266   2.059   3.833  0.4572  0.0083 -0.2473
 4421poe    c2318487   4.230   1.920   3.889  0.0777  0.0091 -0.4885
 4421poe     o218488   4.185   1.827   3.793 -0.1033  0.0231 -0.4169
 4421poe    c2318489   4.063   1.853   3.727 -0.3762  0.3324  0.2022
 4421poe    c2318490   3.938   1.805   3.804 -0.7499  0.3020 -0.4167
 4421poe     o218491   3.900   1.906   3.894  0.0442  0.4293 -0.2132
 4421poe    c3118492   3.762   1.938   3.895 -0.0233  0.1489 -0.4504
 4422poe    c3118493   1.843   5.473   6.414 -0.7054 -0.3072 -0.1733
 4422poe     o218494   1.737   5.421   6.337 -0.5996 -0.4244 -0.2394
 4422poe    c2318495   1.633   5.513   6.362  0.0873  0.1707  0.4816
 4422poe    c2318496   1.495   5.446   6.370 -0.0308  0.3716  0.1486
 4422poe     o218497   1.456   5.394   6.245 -0.1451  0.3188  0.2062
 4422poe    c2318498   1.362   5.288   6.253 -0.2665  0.4033 -0.0840
 4422poe    c2318499   1.296   5.241   6.122 -0.6260 -0.1623  0.3007
 4422poe     o218500   1.383   5.228   6.012 -0.3115 -0.1291  0.5440
 4422poe    c2318501   1.445   5.101   6.002 -0.2158 -0.0273 -0.2050
 4422poe    c2318502   1.492   5.062   5.861  0.4612 -0.1400  0.0484
 4422poe     o218503   1.571   5.166   5.808  0.0053  0.3855  0.3886
 4422poe    c3118504   1.610   5.131   5.677 -0.3998  0.2194  0.3084
 4423poe    c3118505   2.436   3.346   6.955 -0.0585  0.0261  0.0397
 4423poe     o218506   2.554   3.412   6.918 -0.2541 -0.0636 -0.7489
 4423poe    c2318507   2.663   3.323   6.907  0.0207  0.1172  0.4678
 4423poe    c2318508   2.732   3.317   6.770 -0.2880  0.0834  0.3151
 4423poe     o218509   2.653   3.261   6.667  0.3470  0.1757 -0.2248
 4423poe    c2318510   2.704   3.313   6.546  0.4622 -0.3428 -0.4012
 4423poe    c2318511   2.631   3.250   6.426 -0.6175 -0.4640  0.3042
 4423poe     o218512   2.660   3.112   6.421  0.0652 -0.3178  0.1028
 4423poe    c2318513   2.564   3.056   6.335 -0.0459 -0.4440  0.3078
 4423poe    c2318514   2.484   2.938   6.393 -0.1685 -0.4390  0.1498
 4423poe     o218515   2.403   2.881   6.293 -0.1280 -0.1940 -0.0242
 4423poe    c3118516   2.335   2.774   6.355  0.6183 -0.1971  0.8040
 4424poe    c3118517   4.617   1.355   4.340 -0.3221 -0.1670 -1.0543
 4424poe     o218518   4.527   1.418   4.429  0.3971 -0.2510 -0.2610
 4424poe    c2318519   4.566   1.554   4.431 -0.2102 -0.0808  0.3352
 4424poe    c2318520   4.456   1.641   4.493  0.0453  0.3285  0.2185
 4424poe     o218521   4.492   1.776   4.513 -0.4104  0.5481 -0.4025
 4424poe    c2318522   4.399   1.845   4.594 -0.5752  0.0694 -0.1778
 4424poe    c2318523   4.457   1.981   4.638  0.0130 -0.0963 -0.4301
 4424poe     o218524   4.485   2.066   4.530 -0.2291  0.1542 -0.2955
 4424poe    c2318525   4.569   2.167   4.583 -0.2833  0.0576 -0.0259
 4424poe    c2318526   4.632   2.255   4.473 -0.4707 -0.4000 -0.5029
 4424poe     o218527   4.717   2.182   4.387  0.1019  0.0726 -0.3399
 4424poe    c3118528   4.715   2.255   4.267 -0.0948  0.3240 -0.1855
 4425poe    c3118529   1.995   2.597   5.878 -0.0505  0.2768  0.0753
 4425poe     o218530   1.870   2.557   5.930  0.0270 -0.1796 -0.0881
 4425poe    c2318531   1.795   2.664   5.983 -0.1181 -0.1437 -0.3617
 4425poe    c2318532   1.649   2.621   6.006 -0.0116  0.2941  1.2212
 4425poe     o218533   1.636   2.481   6.018 -0.0068  0.1868  0.0174
 4425poe    c2318534   1.503   2.449   6.053 -0.0581 -0.2523 -0.5494
 4425poe    c2318535   1.483   2.297   6.056 -0.3150 -0.2081  0.1993
 4425poe     o218536   1.535   2.255   5.932  0.4871  0.0469  0.4410
 4425poe    c2318537   1.506   2.120   5.903  0.5204  0.1408 -0.0425
 4425poe    c2318538   1.519   2.098   5.751 -0.3837  1.1175 -0.2738
 4425poe     o218539   1.644   2.133   5.696  0.0328  0.1623  0.0470
 4425poe    c3118540   1.651   2.066   5.573  0.5245  0.2044  0.0494
 4426poe    c3118541   7.202   4.213   1.945 -0.0704  0.5817 -0.2297
 4426poe     o218542   7.084   4.196   2.019  0.3745  0.0004  0.3577
 4426poe    c2318543   6.968   4.201   1.939  0.5550 -0.0753  0.0907
 4426poe    c2318544   6.935   4.082   1.847  0.1600 -0.1550  0.3317
 4426poe     o218545   6.866   3.970   1.898  0.1723 -0.2798  0.0747
 4426poe    c2318546   6.837   3.878   1.794  0.5559 -0.1287 -0.1695
 4426poe    c2318547   6.931   3.758   1.814 -0.1774 -0.7353 -0.3331
 4426poe     o218548   6.879   3.673   1.913  0.0134 -0.4262  0.0353
 4426poe    c2318549   6.964   3.563   1.933  0.2385 -0.3389 -0.4242
 4426poe    c2318550   6.883   3.473   2.029  0.6381  0.0459  0.2832
 4426poe     o218551   6.766   3.439   1.958  0.1230  0.9190  0.7050
 4426poe    c3118552   6.713   3.330   2.031 -0.2885  0.6587  0.0279
 4427poe    c3118553   4.526   7.077   4.132 -0.1096  0.0119 -0.7662
 4427poe     o218554   4.615   6.995   4.203 -0.0631  0.1194 -0.7005
 4427poe    c2318555   4.741   6.984   4.142  0.2639  0.2235 -0.0530
 4427poe    c2318556   4.849   6.936   4.241 -0.0116  0.3350  0.3019
 4427poe     o218557   4.785   6.838   4.320 -0.0554  0.0474 -0.0874
 4427poe    c2318558   4.879   6.764   4.395  0.1698  0.5270  0.1083
 4427poe    c2318559   4.817   6.762   4.536  0.0371 -0.5395  0.0463
 4427poe     o218560   4.677   6.753   4.526  0.0800 -0.5436 -0.5716
 4427poe    c2318561   4.616   6.714   4.647  0.1486  0.2193 -0.2887
 4427poe    c2318562   4.463   6.711   4.654  0.1815 -0.5429  0.2352
 4427poe     o218563   4.422   6.608   4.567  0.1807 -0.1191 -0.2690
 4427poe    c3118564   4.282   6.597   4.578  0.2777 -0.7655  0.4334
 4428poe    c3118565   6.055   2.782   6.529  0.0118 -0.8128  0.3141
 4428poe     o218566   6.156   2.693   6.484  0.1338 -0.4911 -0.0481
 4428poe    c2318567   6.233   2.743   6.377 -0.3584  0.1564 -0.1087
 4428poe    c2318568   6.333   2.642   6.318 -0.6713 -0.3004  0.1374
 4428poe     o218569   6.292   2.547   6.223 -0.2159 -0.1494 -0.2138
 4428poe    c2318570   6.398   2.455   6.212 -0.3983 -0.3396 -0.3896
 4428poe    c2318571   6.365   2.345   6.109 -0.2025 -0.2746 -0.5210
 4428poe     o218572   6.240   2.302   6.159  0.1414 -0.6300  0.0478
 4428poe    c2318573   6.176   2.207   6.076 -0.7229 -0.2857  0.3125
 4428poe    c2318574   6.030   2.199   6.125 -0.9049 -0.1207 -0.2015
 4428poe     o218575   5.982   2.331   6.117  0.2640  0.3165 -0.3078
 4428poe    c3118576   5.842   2.334   6.139  0.2375 -0.5060 -0.3217
 4429poe    c3118577   5.592   5.570   1.413  0.8645 -0.0994  0.2255
 4429poe     o218578   5.665   5.589   1.532 -0.0149  0.3831  0.7004
 4429poe    c2318579   5.787   5.655   1.504 -0.0893  0.0547 -0.4686
 4429poe    c2318580   5.895   5.626   1.609 -0.8277 -0.7176  0.0879
 4429poe     o218581   5.830   5.631   1.734 -0.2170 -0.2596  0.3895
 4429poe    c2318582   5.908   5.596   1.846  0.3617  0.0177  0.0783
 4429poe    c2318583   5.826   5.591   1.976  0.3026 -0.7175  0.0174
 4429poe     o218584   5.700   5.532   1.952  0.2826 -0.7355  0.1618
 4429poe    c2318585   5.608   5.556   2.055 -0.0173 -0.2276 -0.2202
 4429poe    c2318586   5.483   5.467   2.042 -0.1302 -0.0635 -0.2603
 4429poe     o218587   5.393   5.504   1.940 -0.4086 -0.0783 -0.0210
 4429poe    c3118588   5.310   5.391   1.919  0.0232 -0.3439 -0.3104
 4430poe    c3118589   1.625   1.336   5.393  0.1528  0.3968 -0.0649
 4430poe     o218590   1.721   1.432   5.430  0.0816  0.2874  0.4118
 4430poe    c2318591   1.655   1.543   5.487 -0.0101  0.1801  0.5133
 4430poe    c2318592   1.766   1.633   5.545 -0.0790  0.4539  0.2217
 4430poe     o218593   1.840   1.713   5.456 -0.4666  0.3307 -0.2153
 4430poe    c2318594   1.941   1.766   5.539 -0.3001 -0.3000 -0.0020
 4430poe    c2318595   1.999   1.886   5.461  0.0660 -0.2689  0.3140
 4430poe     o218596   2.003   1.851   5.324 -0.2679 -0.3055  0.3119
 4430poe    c2318597   2.041   1.959   5.241  0.1667 -0.4460  0.3239
 4430poe    c2318598   2.055   1.923   5.092 -0.1609 -0.1467  0.2179
 4430poe     o218599   1.938   1.869   5.034 -0.3158  0.2345  0.1719
 4430poe    c3118600   1.962   1.810   4.908 -0.3353 -0.0754  0.3128
 4431poe    c3118601   6.240   6.375   3.942  0.3547  0.5132  0.4339
 4431poe     o218602   6.184   6.251   3.979  0.0426  0.4803 -0.1259
 4431poe    c2318603   6.088   6.269   4.080  0.4854  0.0080  0.3897
 4431poe    c2318604   6.036   6.133   4.130  0.0556 -0.0791 -0.2916
 4431poe     o218605   6.025   6.056   4.012 -0.0316  0.1327 -0.4243
 4431poe    c2318606   5.952   5.937   4.032 -0.4513  0.4231 -0.2102
 4431poe    c2318607   5.935   5.879   3.890 -0.3172  0.0715 -0.0839
 4431poe     o218608   6.059   5.859   3.828 -0.0884  0.3405  0.2835
 4431poe    c2318609   6.043   5.824   3.692  0.0198  0.0240  0.3520
 4431poe    c2318610   6.179   5.773   3.642 -0.3638  0.1715 -0.8768
 4431poe     o218611   6.273   5.879   3.649 -0.1480 -0.0865  0.4055
 4431poe    c3118612   6.393   5.866   3.576 -0.2139  0.3359  0.2242
 4432poe    c3118613   5.928   3.194   1.229  0.0016  0.5297 -0.0818
 4432poe     o218614   5.790   3.225   1.234 -0.0098  0.3815  0.5624
 4432poe    c2318615   5.744   3.326   1.148  0.0208  0.3146  0.4665
 4432poe    c2318616   5.599   3.374   1.169 -0.1615 -0.1406  0.2417
 4432poe     o218617   5.578   3.493   1.241 -0.0869 -0.1305  0.2470
 4432poe    c2318618   5.441   3.525   1.233 -0.0124  0.1188 -0.0515
 4432poe    c2318619   5.412   3.625   1.346  0.0484 -0.0245  0.0927
 4432poe     o218620   5.420   3.565   1.473  0.1070 -0.2822 -0.0330
 4432poe    c2318621   5.404   3.667   1.568  0.5927 -0.3664  0.1452
 4432poe    c2318622   5.369   3.592   1.698 -0.1121  0.0077  0.1770
 4432poe     o218623   5.239   3.538   1.693  0.0495 -0.4170  0.5177
 4432poe    c3118624   5.236   3.420   1.771  0.1647 -0.0320  1.1159
 4433poe    c3118625   7.474   5.287   1.336 -0.0413  0.4915  0.0396
 4433poe     o218626   7.560   5.237   1.435 -0.5479 -0.4049  0.0370
 4433poe    c2318627   7.656   5.155   1.372 -0.4629 -0.4437  0.2155
 4433poe    c2318628   7.760   5.108   1.475 -0.0554  0.2074  0.1084
 4433poe     o218629   7.846   5.211   1.520 -0.0253  0.3098 -0.1795
 4433poe    c2318630   7.983   5.179   1.506 -0.2006 -0.4226 -0.2644
 4433poe    c2318631   8.052   5.139   1.638 -1.2814 -0.5191  0.2832
 4433poe     o218632   8.037   5.236   1.740 -0.0585 -0.0261  0.0157
 4433poe    c2318633   8.005   5.176   1.864  0.5262  0.3805  0.3661
 4433poe    c2318634   8.032   5.278   1.976 -0.3215  0.4943  0.4745
 4433poe     o218635   8.160   5.318   2.022  0.0285  0.0282 -0.0763
 4433poe    c3118636   8.167   5.458   2.010  0.0900  0.0058 -0.3059
 4434poe    c3118637   4.502   0.548   4.007  0.0831 -0.1045  0.0337
 4434poe     o218638   4.584   0.635   4.081 -0.0391  0.0105  0.0353
 4434poe    c2318639   4.699   0.577   4.140 -0.1436 -0.1371  0.0953
 4434poe    c2318640   4.811   0.671   4.188  0.4048 -0.4548 -0.5496
 4434poe     o218641   4.866   0.737   4.077  0.3789  0.2014 -0.1767
 4434poe    c2318642   4.982   0.809   4.113  0.5302  0.1469 -0.5455
 4434poe    c2318643   5.016   0.931   4.027 -0.4514  0.5494 -0.3782
 4434poe     o218644   5.049   0.882   3.899  0.1359 -0.5515  0.1808
 4434poe    c2318645   5.117   0.971   3.813 -0.4433 -0.1529  0.1278
 4434poe    c2318646   5.033   0.986   3.684 -0.0377  1.0020 -0.0114
 4434poe     o218647   4.922   1.073   3.688 -0.4616  0.4470  0.5570
 4434poe    c3118648   4.827   1.030   3.593  0.5618  0.7773 -0.6369
 4435poe    c3118649   3.659   4.404   0.739  0.5986  0.5792  0.6080
 4435poe     o218650   3.757   4.412   0.637 -0.2268 -0.4232 -0.2975
 4435poe    c2318651   3.809   4.542   0.621  0.4439 -0.5899  0.4453
 4435poe    c2318652   3.854   4.549   0.474  0.5328  0.2516  0.5071
 4435poe     o218653   3.968   4.468   0.457  0.4328  0.2332 -0.1008
 4435poe    c2318654   4.022   4.467   0.327 -0.0725  0.1536 -0.3124
 4435poe    c2318655   4.120   4.353   0.294 -0.0827  0.0833 -0.0992
 4435poe     o218656   4.225   4.357   0.388 -0.3598  0.2366  0.2057
 4435poe    c2318657   4.302   4.239   0.386  0.3459  0.6916  0.0470
 4435poe    c2318658   4.408   4.235   0.498  0.1212  0.3606  0.2510
 4435poe     o218659   4.343   4.248   0.623 -0.0486 -0.0720  0.2076
 4435poe    c3118660   4.447   4.275   0.714 -0.2915  0.3749  0.3540
 4436poe    c3118661   2.569   0.520   0.181 -0.1304  0.1722  0.2533
 4436poe     o218662   2.566   0.463   0.310 -0.2160 -0.2649  0.0592
 4436poe    c2318663   2.597   0.326   0.292 -0.1821 -0.2451 -0.0349
 4436poe    c2318664   2.518   0.229   0.382 -0.0452 -0.2173  0.1155
 4436poe     o218665   2.380   0.237   0.357  0.0018  0.5042  0.0640
 4436poe    c2318666   2.303   0.135   0.417 -0.1144  0.4389 -0.1928
 4436poe    c2318667   2.170   0.112   0.342 -0.0533  0.3962 -0.2875
 4436poe     o218668   2.077   0.217   0.359 -0.4730  0.0276 -0.2936
 4436poe    c2318669   1.943   0.194   0.324 -0.4840  0.2018 -0.3675
 4436poe    c2318670   1.853   0.309   0.372 -0.3509  0.0803  0.1754
 4436poe     o218671   1.836   0.284   0.510 -0.1506  0.2303  0.2270
 4436poe    c3118672   1.760   0.379   0.580 -0.0297  0.3115  0.2482
 4437poe    c3118673   1.807   1.628   3.045  0.1548  0.4895 -0.2289
 4437poe     o218674   1.842   1.565   3.166 -0.0500  0.4355 -0.1977
 4437poe    c2318675   1.727   1.561   3.248 -0.1820  0.2330 -0.3912
 4437poe    c2318676   1.768   1.524   3.392 -0.5866 -0.5897 -0.4815
 4437poe     o218677   1.857   1.415   3.384  0.4994  0.2649 -0.3722
 4437poe    c2318678   1.843   1.341   3.503  0.4007  0.2139 -0.4154
 4437poe    c2318679   1.930   1.215   3.484 -0.0083 -0.1854  0.3003
 4437poe     o218680   2.065   1.246   3.457  0.0470 -0.3505  0.3904
 4437poe    c2318681   2.139   1.126   3.457  0.7910  0.0985 -0.2980
 4437poe    c2318682   2.280   1.173   3.417  0.6462  0.7472 -0.0572
 4437poe     o218683   2.272   1.228   3.287 -0.1961 -0.0481 -0.3492
 4437poe    c3118684   2.399   1.253   3.232 -0.2305  0.0233 -0.3955
 4438poe    c3118685   3.105   6.509   3.330  0.1159 -0.4766  0.3991
 4438poe     o218686   3.135   6.393   3.256  0.0458 -0.6149  0.5861
 4438poe    c2318687   3.274   6.389   3.232 -0.0389 -0.4373  0.0651
 4438poe    c2318688   3.310   6.263   3.152 -0.2255 -0.4497 -0.0013
 4438poe     o218689   3.261   6.167   3.242  0.6622 -0.4321  0.5153
 4438poe    c2318690   3.307   6.036   3.219  0.0266 -0.5275 -0.2544
 4438poe    c2318691   3.206   5.941   3.286  0.2234 -0.4203  0.2010
 4438poe     o218692   3.075   5.992   3.279  0.3082 -0.2090  0.1264
 4438poe    c2318693   2.986   5.900   3.338  0.5030 -0.2435  0.3667
 4438poe    c2318694   2.835   5.922   3.315  0.6003 -0.0862 -0.1374
 4438poe     o218695   2.790   6.026   3.399 -0.0871 -0.5206  0.0417
 4438poe    c3118696   2.652   6.019   3.425 -0.1004 -0.0512  0.1132
 4439poe    c3118697   0.687   3.786   4.685 -0.1126  1.0583 -0.1887
 4439poe     o218698   0.694   3.853   4.808  0.0234  0.1374  0.3193
 4439poe    c2318699   0.813   3.930   4.806 -0.0996  0.3210  0.0827
 4439poe    c2318700   0.834   4.038   4.914  0.3514  0.0661  0.2536
 4439poe     o218701   0.731   4.135   4.903  0.1641 -0.1911 -0.3025
 4439poe    c2318702   0.772   4.263   4.946 -0.5952 -0.0658  0.0525
 4439poe    c2318703   0.678   4.327   5.050  0.0962 -0.3570  0.8589
 4439poe     o218704   0.552   4.360   4.997  0.4878 -0.2610 -0.0217
 4439poe    c2318705   0.560   4.481   4.926 -0.0920  0.1722  0.6507
 4439poe    c2318706   0.419   4.513   4.872  0.2506  0.4499 -0.0881
 4439poe     o218707   0.318   4.537   4.967  0.0236 -0.3295 -0.1237
 4439poe    c3118708   0.187   4.539   4.914 -0.3361 -0.1445  0.7525
 4440poe    c3118709   5.229   2.131   4.899 -0.2676  0.1934 -1.1473
 4440poe     o218710   5.132   2.045   4.846  0.1339 -0.8838 -0.1745
 4440poe    c2318711   5.011   2.116   4.865  0.7756  0.1521  0.1068
 4440poe    c2318712   4.900   2.038   4.792  0.8350  0.0528  0.1220
 4440poe     o218713   4.878   1.916   4.860 -0.1623 -0.1669 -0.5751
 4440poe    c2318714   4.800   1.831   4.779 -0.2587 -0.5267 -0.1121
 4440poe    c2318715   4.786   1.694   4.848 -0.6286 -0.3665  0.1268
 4440poe     o218716   4.915   1.639   4.851 -0.4169  0.1423  0.4743
 4440poe    c2318717   4.890   1.501   4.840  0.0703  0.0772  0.1338
 4440poe    c2318718   5.024   1.426   4.835  0.2196  0.3714 -0.3770
 4440poe     o218719   5.113   1.481   4.740  0.5083 -0.1094 -0.3851
 4440poe    c3118720   5.230   1.405   4.718  0.6501  0.0170 -0.0722
 4441poe    c3118721   1.004   4.391   0.008  0.1618  0.6765  0.3986
 4441poe     o218722   0.867   4.382   0.041  0.2189  0.0613  0.4732
 4441poe    c2318723   0.860   4.317   0.166 -0.2422  0.0333  0.4357
 4441poe    c2318724   0.724   4.319   0.237 -0.1777 -0.2868  0.5693
 4441poe     o218725   0.633   4.238   0.166  0.0565  0.0745 -0.1507
 4441poe    c2318726   0.500   4.285   0.179  0.0130 -0.0455 -0.1554
 4441poe    c2318727   0.410   4.179   0.113 -0.3851  0.2390 -0.0708
 4441poe     o218728   0.421   4.163  -0.026 -0.0096 -0.1703  0.0017
 4441poe    c2318729   0.337   4.070  -0.090 -0.0122 -0.2946  0.1880
 4441poe    c2318730   0.339   4.065  -0.244  0.1863 -0.2587  0.1903
 4441poe     o218731   0.236   4.143  -0.299  0.2162 -0.0830  0.3815
 4441poe    c3118732   0.283   4.273  -0.329 -0.3672  0.1243  0.3549
 4442poe    c3118733   4.171   1.236   3.091 -0.4475 -0.3770 -0.3300
 4442poe     o218734   4.278   1.194   3.011  0.1760  0.1199  0.2285
 4442poe    c2318735   4.303   1.055   3.016 -0.0213  0.0612 -0.4060
 4442poe    c2318736   4.346   1.007   2.876 -0.6913 -0.3832 -0.4695
 4442poe     o218737   4.444   1.091   2.817 -0.4713 -0.7664 -0.6568
 4442poe    c2318738   4.462   1.071   2.679  0.1146 -0.1911 -0.6692
 4442poe    c2318739   4.527   1.192   2.609 -0.1046  0.3717  0.0859
 4442poe     o218740   4.436   1.299   2.619  0.4333  0.8209  0.2061
 4442poe    c2318741   4.393   1.339   2.490 -0.2091 -0.1166  0.1247
 4442poe    c2318742   4.330   1.479   2.490  0.0186 -0.0147 -0.1880
 4442poe     o218743   4.423   1.585   2.500  0.2193 -0.2465  0.4531
 4442poe    c3118744   4.476   1.622   2.375  0.2079  0.2056  0.5803
 4443poe    c3118745   0.409   4.935   2.742 -0.3009 -0.0300  0.1758
 4443poe     o218746   0.447   4.801   2.719  0.1285  0.0423  0.4438
 4443poe    c2318747   0.358   4.720   2.793 -0.6581 -0.3064 -0.8432
 4443poe    c2318748   0.380   4.570   2.765 -0.2446 -0.2357 -0.8954
 4443poe     o218749   0.511   4.519   2.771 -0.4936 -0.7774  0.1361
 4443poe    c2318750   0.518   4.381   2.744  0.4283 -0.7426  0.1498
 4443poe    c2318751   0.659   4.321   2.727  0.7018  0.1010 -0.6388
 4443poe     o218752   0.734   4.331   2.847 -0.1603 -0.4167 -0.0476
 4443poe    c2318753   0.870   4.308   2.821 -0.0295  0.4078 -0.1057
 4443poe    c2318754   0.960   4.321   2.945 -0.4071  0.0107  0.2108
 4443poe     o218755   0.969   4.445   3.011  0.4377 -0.0279  0.1831
 4443poe    c3118756   1.027   4.425   3.138  0.0403 -0.3629  0.3157
 4444poe    c3118757   6.545   5.715   6.068 -0.1662  0.3479 -0.6368
 4444poe     o218758   6.418   5.655   6.074 -0.2621  0.6269  0.2484
 4444poe    c2318759   6.397   5.665   6.213 -0.6244  0.7406  0.1856
 4444poe    c2318760   6.309   5.545   6.249 -0.3828  0.4779 -0.0944
 4444poe     o218761   6.198   5.551   6.162 -0.0216 -0.1401 -0.6047
 4444poe    c2318762   6.141   5.422   6.163 -0.3936  0.0243 -0.3392
 4444poe    c2318763   6.056   5.411   6.036  0.2635 -0.3573 -0.7511
 4444poe     o218764   6.127   5.462   5.925  0.5280  0.1414 -0.3516
 4444poe    c2318765   6.076   5.442   5.796 -0.0321  0.5507 -0.1983
 4444poe    c2318766   5.968   5.536   5.740 -0.3490  0.7135  0.6753
 4444poe     o218767   6.014   5.668   5.756 -0.0080  0.6702  0.0949
 4444poe    c3118768   5.902   5.754   5.745 -0.4517  0.0759 -0.1060
 4445poe    c3118769   7.389   5.052   4.877  0.1945  0.0549 -0.3289
 4445poe     o218770   7.297   5.155   4.910  0.1150  0.0480 -0.5280
 4445poe    c2318771   7.344   5.277   4.858  0.2082 -0.0172 -0.5992
 4445poe    c2318772   7.248   5.386   4.910  0.2669 -0.1135 -0.2909
 4445poe     o218773   7.112   5.383   4.873  0.1539  0.3356  0.0761
 4445poe    c2318774   7.041   5.471   4.957 -0.3795  0.3194 -0.3498
 4445poe    c2318775   6.894   5.432   4.931 -0.3535  0.0168 -0.0554
 4445poe     o218776   6.868   5.301   4.975  0.5995 -0.0845  0.2337
 4445poe    c2318777   6.731   5.269   4.986  0.5362  0.1775  0.2229
 4445poe    c2318778   6.725   5.120   5.028  0.1822  0.1827  0.1887
 4445poe     o218779   6.814   5.103   5.136  0.4251 -0.0766 -0.0513
 4445poe    c3118780   6.761   5.029   5.243  0.3057 -0.1835 -0.1828
 4446poe    c3118781   3.546   6.490   4.612  0.2622 -0.3073 -0.3472
 4446poe     o218782   3.482   6.498   4.486 -0.1195 -0.1646 -0.1469
 4446poe    c2318783   3.492   6.626   4.428 -0.5757  0.0276  0.1916
 4446poe    c2318784   3.410   6.623   4.297  0.5591  0.3962 -0.5392
 4446poe     o218785   3.272   6.598   4.293  0.5062  0.6044 -0.0808
 4446poe    c2318786   3.213   6.568   4.169  0.3373 -0.3894  0.2294
 4446poe    c2318787   3.077   6.498   4.187  0.2476 -0.3450 -0.2512
 4446poe     o218788   3.078   6.385   4.270 -0.0944 -0.1170  0.0659
 4446poe    c2318789   2.970   6.387   4.361 -0.1231 -0.0734  0.0312
 4446poe    c2318790   2.964   6.253   4.437 -0.4142 -0.2838 -0.3555
 4446poe     o218791   2.949   6.132   4.368 -0.2823 -0.7457  0.4090
 4446poe    c3118792   2.835   6.121   4.285  0.3226 -0.3277 -0.4875
 4447poe    c3118793   3.279   4.978   5.951 -0.0521 -0.3666  0.3924
 4447poe     o218794   3.303   4.893   6.061  1.3916 -0.8630 -0.2745
 4447poe    c2318795   3.216   4.782   6.056  0.0215  0.1724  0.0336
 4447poe    c2318796   3.204   4.690   6.179 -0.5295  0.2508  0.0452
 4447poe     o218797   3.319   4.615   6.212 -0.1465  0.4960 -0.7079
 4447poe    c2318798   3.323   4.497   6.135 -0.7633 -0.3987  0.6091
 4447poe    c2318799   3.441   4.414   6.188 -0.0668  0.0643 -0.1973
 4447poe     o218800   3.430   4.399   6.328 -0.3441 -0.0164 -0.2283
 4447poe    c2318801   3.534   4.322   6.383 -0.3925 -0.0929 -0.2436
 4447poe    c2318802   3.540   4.331   6.537 -0.3838  0.1463 -0.2579
 4447poe     o218803   3.551   4.469   6.564  0.3416 -0.0572  0.5380
 4447poe    c3118804   3.629   4.506   6.675 -0.1790  0.6316  0.6830
 4448poe    c3118805   5.018   0.513   2.536 -0.2769 -0.1940  0.3133
 4448poe     o218806   5.114   0.611   2.569  0.3096 -0.7500  0.2884
 4448poe    c2318807   5.128   0.674   2.443 -0.1179 -0.2486  0.4920
 4448poe    c2318808   5.274   0.676   2.395 -0.4333  0.2824 -0.4689
 4448poe     o218809   5.345   0.768   2.473 -0.2623 -0.2302 -0.0139
 4448poe    c2318810   5.484   0.743   2.468 -0.2156  0.1847 -1.0544
 4448poe    c2318811   5.571   0.870   2.477 -0.0004 -0.0275  0.0268
 4448poe     o218812   5.546   0.961   2.582 -0.3211  0.4776 -0.4820
 4448poe    c2318813   5.636   1.070   2.586  0.5375 -0.2366 -0.0937
 4448poe    c2318814   5.625   1.147   2.719  0.1224 -0.3025 -0.0867
 4448poe     o218815   5.743   1.221   2.742 -0.3409  0.4311 -0.0425
 4448poe    c3118816   5.801   1.173   2.861 -0.4676  0.6171  0.0944
 4449poe    c3118817   2.096   6.199   3.867  0.0212  0.4177 -0.1749
 4449poe     o218818   2.101   6.225   3.728 -0.1012  0.0314 -0.2534
 4449poe    c2318819   2.184   6.124   3.675 -0.2822 -0.4452  0.3560
 4449poe    c2318820   2.163   6.117   3.523  0.2947  0.1236  0.2455
 4449poe     o218821   2.035   6.087   3.473  0.3955  0.1058 -0.0036
 4449poe    c2318822   1.994   5.952   3.486  0.4698  0.0640 -0.1935
 4449poe    c2318823   1.893   5.924   3.373 -0.1544  0.0265  0.3632
 4449poe     o218824   1.775   6.001   3.377 -0.4999 -0.4965  0.2611
 4449poe    c2318825   1.718   5.974   3.251 -0.3935 -0.0490  0.1162
 4449poe    c2318826   1.608   6.066   3.195 -0.2363  0.1828  0.1873
 4449poe     o218827   1.642   6.202   3.207 -0.0894  0.1650 -0.0197
 4449poe    c3118828   1.544   6.288   3.153  0.1818  0.8429  0.5480
 4450poe    c3118829   2.363   4.839   4.051  0.2225  0.3655 -0.4153
 4450poe     o218830   2.308   4.724   4.112  0.8014  0.5422  0.4585
 4450poe    c2318831   2.359   4.687   4.238  0.0665 -0.5062  0.4659
 4450poe    c2318832   2.282   4.575   4.310  0.3349 -0.5747  0.6465
 4450poe     o218833   2.166   4.625   4.373  0.3712 -0.4262  0.5949
 4450poe    c2318834   2.096   4.521   4.436 -0.5719 -0.1090  0.0902
 4450poe    c2318835   1.993   4.559   4.544 -0.1424  0.1811  0.3973
 4450poe     o218836   2.039   4.625   4.660  0.4800 -0.1476  0.3434
 4450poe    c2318837   2.004   4.761   4.646  0.4162 -0.2069 -0.0852
 4450poe    c2318838   2.137   4.833   4.616  0.2056  0.4052  0.4276
 4450poe     o218839   2.206   4.857   4.737  0.0075  0.2360  0.5760
 4450poe    c3118840   2.302   4.956   4.709 -0.0657  0.0300 -0.4361
 4451poe    c3118841   3.348   6.524   3.824  0.3585  0.2761 -0.4598
 4451poe     o218842   3.308   6.621   3.729 -0.3571  0.1974 -0.2449
 4451poe    c2318843   3.417   6.656   3.647 -0.0186  0.0577  0.1413
 4451poe    c2318844   3.361   6.699   3.510 -0.0390 -0.2142  0.0643
 4451poe     o218845   3.272   6.805   3.530  0.1485 -0.0096 -0.1809
 4451poe    c2318846   3.222   6.858   3.409  0.3280  0.0155 -0.2432
 4451poe    c2318847   3.277   7.000   3.384  0.6873 -0.0615  0.1014
 4451poe     o218848   3.189   7.090   3.447  0.2060 -0.0914 -0.5219
 4451poe    c2318849   3.225   7.226   3.434 -0.0447  0.0156 -0.1264
 4451poe    c2318850   3.097   7.310   3.447  0.0637  0.1664 -0.0186
 4451poe     o218851   3.041   7.301   3.576  0.3212  0.2324  0.0981
 4451poe    c3118852   2.997   7.430   3.612 -0.2549  0.2681 -0.6981
 4452poe    c3118853   0.444   3.200   6.443 -0.2497 -0.1154  0.3294
 4452poe     o218854   0.364   3.270   6.535 -0.3168  0.1621  0.0640
 4452poe    c2318855   0.339   3.393   6.470  0.0009 -0.1647 -0.6866
 4452poe    c2318856   0.262   3.489   6.562 -0.2383 -0.3594 -0.6835
 4452poe     o218857   0.131   3.440   6.581 -0.1698 -0.1714  0.2839
 4452poe    c2318858   0.045   3.542   6.626  0.2038  0.5048 -0.5286
 4452poe    c2318859  -0.101   3.496   6.636  0.3609  0.0323 -0.4138
 4452poe     o218860  -0.141   3.433   6.756  0.5839  0.2267 -0.2365
 4452poe    c2318861  -0.094   3.302   6.778 -0.4595 -0.1197  0.0001
 4452poe    c2318862  -0.045   3.261   6.918  0.3017  0.3679 -0.1209
 4452poe     o218863  -0.146   3.265   7.016  0.0774 -0.3176 -0.3192
 4452poe    c3118864  -0.121   3.184   7.128  0.3081 -0.0208 -0.1546
 4453poe    c3118865   0.912   1.467   4.832  0.2438 -0.0102 -0.4528
 4453poe     o218866   0.829   1.564   4.771  0.3095  0.0939 -0.3779
 4453poe    c2318867   0.904   1.676   4.729  0.3567 -0.0975 -0.8084
 4453poe    c2318868   0.816   1.786   4.667  0.0637 -0.0185 -0.2578
 4453poe     o218869   0.761   1.868   4.767 -0.0860 -0.0804 -0.2910
 4453poe    c2318870   0.643   1.926   4.717  0.3437  0.3323 -0.8248
 4453poe    c2318871   0.554   1.982   4.830  0.2299 -0.3870 -0.5541
 4453poe     o218872   0.509   1.877   4.912 -0.1494 -0.0729 -0.3568
 4453poe    c2318873   0.401   1.915   4.993 -0.7851 -0.4761 -1.0061
 4453poe    c2318874   0.370   1.793   5.082 -0.7206  0.4846  0.3688
 4453poe     o218875   0.306   1.691   5.009 -0.1859  0.4823 -0.0999
 4453poe    c3118876   0.247   1.593   5.091  0.4284  0.0073 -0.2103
 4454poe    c3118877   1.037   3.941   0.091  0.4231  0.2294  0.4752
 4454poe     o218878   0.915   3.899   0.148  0.1688  0.2251 -0.0618
 4454poe    c2318879   0.828   3.871   0.041  0.3596 -0.2883 -0.0863
 4454poe    c2318880   0.681   3.873   0.086  0.4998 -0.2974  0.3807
 4454poe     o218881   0.647   3.770   0.176 -0.3249 -0.3341  0.0443
 4454poe    c2318882   0.509   3.741   0.183 -0.3478 -0.2011  0.1482
 4454poe    c2318883   0.479   3.611   0.105  0.0592 -0.1829 -0.0452
 4454poe     o218884   0.512   3.483   0.155 -0.1264 -0.1878  0.0679
 4454poe    c2318885   0.500   3.378   0.062  0.3907  0.1632 -0.4036
 4454poe    c2318886   0.572   3.246   0.095 -0.6478 -0.2675  0.1634
 4454poe     o218887   0.544   3.151   0.196 -0.0463 -0.0144  0.5754
 4454poe    c3118888   0.651   3.065   0.226 -0.3204 -0.6475 -0.2255
 4455poe    c3118889   4.676   1.597   1.150 -0.3365  0.1969  0.2032
 4455poe     o218890   4.575   1.500   1.163 -0.0672 -0.0779  0.2756
 4455poe    c2318891   4.453   1.560   1.202 -0.2943  0.0639 -0.6446
 4455poe    c2318892   4.330   1.480   1.155 -0.1348 -0.4341 -0.2279
 4455poe     o218893   4.317   1.360   1.227  0.2752 -0.2275  0.1988
 4455poe    c2318894   4.251   1.389   1.348  0.0613 -0.0724  0.0469
 4455poe    c2318895   4.227   1.259   1.427 -0.4555  0.2940  0.5031
 4455poe     o218896   4.146   1.177   1.346 -0.1637  0.2892  0.2093
 4455poe    c2318897   4.141   1.049   1.406 -0.3334  0.1398 -0.1229
 4455poe    c2318898   4.097   0.936   1.311 -0.1770  0.2082 -0.2787
 4455poe     o218899   4.197   0.916   1.214 -0.0473  0.0241 -0.1109
 4455poe    c3118900   4.187   0.793   1.146  0.0638  0.0861 -0.2423
 4456poe    c3118901   1.894   6.128   6.697 -0.0288  0.2666  0.1982
 4456poe     o218902   2.026   6.169   6.728  0.0719  0.0036  0.1150
 4456poe    c2318903   2.113   6.059   6.747  0.4086  0.1990 -0.2750
 4456poe    c2318904   2.201   6.033   6.624  0.3348 -0.6805 -0.1478
 4456poe     o218905   2.297   6.135   6.606 -0.2583 -0.0868  0.0156
 4456poe    c2318906   2.414   6.097   6.537  0.1219 -0.0668  0.6490
 4456poe    c2318907   2.522   6.207   6.540  0.3620 -0.2927  0.3331
 4456poe     o218908   2.542   6.259   6.670 -0.1245 -0.1739  0.3615
 4456poe    c2318909   2.614   6.380   6.666 -0.4627  0.0173 -0.0885
 4456poe    c2318910   2.638   6.411   6.815  0.4559  0.1541 -0.2618
 4456poe     o218911   2.520   6.404   6.891  0.3531  0.3943 -0.3963
 4456poe    c3118912   2.511   6.495   6.999  0.0673  0.1528 -0.2150
 4457poe    c3118913   5.585   0.463   7.079  0.9692  0.6225 -0.3350
 4457poe     o218914   5.648   0.487   7.203  0.3243 -0.1106  0.1403
 4457poe    c2318915   5.741   0.384   7.229 -0.1175 -0.5874 -0.1333
 4457poe    c2318916   5.751   0.353   7.379 -0.2760  0.2036  0.0475
 4457poe     o218917   5.631   0.294   7.425  0.0456 -0.8479 -0.4367
 4457poe    c2318918   5.633   0.305   7.566 -0.0636  0.0362 -0.5013
 4457poe    c2318919   5.506   0.255   7.638 -0.2653  0.0727 -0.8302
 4457poe     o218920   5.399   0.347   7.646 -0.2422  0.0050  0.4093
 4457poe    c2318921   5.283   0.275   7.677  0.1262 -0.5844  0.4324
 4457poe    c2318922   5.146   0.345   7.681  0.4580  0.0649  0.5173
 4457poe     o218923   5.113   0.411   7.560 -0.0138 -0.6434  0.2481
 4457poe    c3118924   4.993   0.485   7.566  0.6989  0.5446  0.0294
 4458poe    c3118925   6.031   3.942   6.998 -0.5656  0.1225 -0.1270
 4458poe     o218926   6.114   3.854   6.927 -0.2006 -0.0258  0.4741
 4458poe    c2318927   6.250   3.862   6.966  0.0679  0.2359 -0.4732
 4458poe    c2318928   6.340   3.776   6.875  0.0049 -0.3044 -0.0294
 4458poe     o218929   6.339   3.816   6.740 -0.0326  0.4264  0.1835
 4458poe    c2318930   6.360   3.701   6.662 -1.1094  0.2897  0.0758
 4458poe    c2318931   6.336   3.747   6.517  0.1584 -0.2867 -0.3366
 4458poe     o218932   6.204   3.788   6.488 -0.0193 -0.6719 -0.0677
 4458poe    c2318933   6.195   3.875   6.378 -0.2941 -0.1868  0.3366
 4458poe    c2318934   6.058   3.881   6.306 -0.1434  0.1299  0.0714
 4458poe     o218935   6.061   3.774   6.215 -0.1071 -0.4010  0.6877
 4458poe    c3118936   5.936   3.753   6.152 -0.0797  0.2771  0.4080
 4459poe    c3118937   1.762   3.583   3.934  0.0405  0.3770  0.2179
 4459poe     o218938   1.675   3.669   4.004 -0.1890  0.6114 -0.3468
 4459poe    c2318939   1.746   3.779   4.058 -0.0962  0.3875 -0.0103
 4459poe    c2318940   1.657   3.872   4.142 -0.5150 -0.0421  0.0284
 4459poe     o218941   1.610   3.832   4.269 -0.2971  0.4708  0.2720
 4459poe    c2318942   1.496   3.907   4.308 -0.4152  0.6414 -0.3838
 4459poe    c2318943   1.435   3.855   4.439  1.0850 -0.5923 -0.1413
 4459poe     o218944   1.382   3.724   4.438  0.1963 -0.2422 -0.7474
 4459poe    c2318945   1.327   3.684   4.562  0.2059  0.5431 -0.4871
 4459poe    c2318946   1.403   3.684   4.695 -0.1243 -0.3465 -0.2963
 4459poe     o218947   1.522   3.608   4.702  0.2209  0.1875 -0.3658
 4459poe    c3118948   1.622   3.701   4.738 -0.2892  0.7103 -0.2799
 4460poe    c3118949   4.403   4.216   5.227  0.1744  0.6430 -0.3617
 4460poe     o218950   4.365   4.190   5.360 -0.0620 -0.3249 -0.6083
 4460poe    c2318951   4.392   4.055   5.394  0.0736 -0.0453  0.4277
 4460poe    c2318952   4.334   4.029   5.535  0.2197  0.0793  0.5110
 4460poe     o218953   4.209   4.093   5.539  0.2369  0.2045 -0.5536
 4460poe    c2318954   4.131   4.055   5.651  0.7859  0.5735 -0.0367
 4460poe    c2318955   4.019   4.148   5.699  0.0761 -0.0544 -0.4667
 4460poe     o218956   3.906   4.169   5.616 -0.1502 -0.0030 -0.1478
 4460poe    c2318957   3.839   4.285   5.659  0.2232  0.0330  0.3534
 4460poe    c2318958   3.740   4.320   5.546  0.1314 -0.3141  0.3273
 4460poe     o218959   3.791   4.330   5.415  0.1387  0.7118  0.4045
 4460poe    c3118960   3.699   4.367   5.314 -0.1088 -0.5706  0.1466
 4461poe    c3118961   4.271   6.708   6.034  0.0801 -0.8241 -0.4922
 4461poe     o218962   4.325   6.739   5.908 -0.3803  0.7580 -0.3322
 4461poe    c2318963   4.462   6.772   5.920 -0.0665 -0.6670  0.2223
 4461poe    c2318964   4.511   6.816   5.780 -0.4955 -0.1014  0.2472
 4461poe     o218965   4.476   6.708   5.696 -0.2357  0.0601 -0.0651
 4461poe    c2318966   4.529   6.725   5.566 -0.0289 -0.4495 -0.0511
 4461poe    c2318967   4.456   6.641   5.459 -0.1078 -0.5096  0.0500
 4461poe     o218968   4.324   6.686   5.437  0.2093  0.2063 -0.4302
 4461poe    c2318969   4.272   6.601   5.337 -0.0380  0.2825 -0.3669
 4461poe    c2318970   4.119   6.592   5.347  0.0251 -0.1527  0.2770
 4461poe     o218971   4.059   6.572   5.473  0.0132 -0.1957  0.2651
 4461poe    c3118972   3.927   6.528   5.452 -0.0579  0.0573  0.1687
 4462poe    c3118973   0.835   2.219   5.058 -0.1162  0.2823 -0.3173
 4462poe     o218974   0.939   2.167   4.978  0.3481  0.2674  0.2905
 4462poe    c2318975   0.973   2.043   5.034 -0.2470  0.0424  0.1565
 4462poe    c2318976   1.090   2.003   4.943 -0.4307  0.1128 -0.1139
 4462poe     o218977   1.066   2.025   4.806 -0.4056 -0.1546 -0.1619
 4462poe    c2318978   1.185   2.001   4.734 -0.2220 -0.1929  0.1515
 4462poe    c2318979   1.151   2.015   4.584 -0.6661 -0.2979  0.2388
 4462poe     o218980   1.090   2.140   4.563 -0.1034 -0.0531  0.0250
 4462poe    c2318981   1.053   2.157   4.428 -0.4736 -0.4080  0.0786
 4462poe    c2318982   1.021   2.303   4.391 -0.3356 -0.4991 -0.4055
 4462poe     o218983   0.908   2.339   4.468 -0.0621 -0.1879 -0.1487
 4462poe    c3118984   0.854   2.464   4.429  0.1022  0.1042  0.5443
 4463poe    c3118985   7.441   0.654   4.834 -0.4621 -0.4826 -0.1354
 4463poe     o218986   7.435   0.629   4.973  0.1596 -0.0733 -0.0316
 4463poe    c2318987   7.408   0.751   5.038  0.3242  0.1081 -0.3008
 4463poe    c2318988   7.403   0.748   5.192 -0.8903  0.5597 -0.3200
 4463poe     o218989   7.286   0.680   5.234 -0.2463 -0.3814 -0.0158
 4463poe    c2318990   7.317   0.546   5.263  0.6086 -0.2855 -0.4511
 4463poe    c2318991   7.217   0.451   5.194  0.3657  0.0450 -0.5584
 4463poe     o218992   7.081   0.470   5.225  0.4487  0.1208 -0.2353
 4463poe    c2318993   7.002   0.382   5.148  0.7070 -0.1029 -0.2475
 4463poe    c2318994   6.969   0.244   5.207 -0.2479 -0.0258 -0.5898
 4463poe     o218995   6.851   0.254   5.284  0.0732 -0.2252 -0.0667
 4463poe    c3118996   6.860   0.154   5.383  0.1797  0.0742  0.2252
 4464poe    c3118997   4.333   6.287   4.857  0.4946 -0.2500  0.1595
 4464poe     o218998   4.314   6.148   4.843 -0.0464 -0.1865  0.2227
 4464poe    c2318999   4.438   6.081   4.836 -0.0596 -0.1219 -0.6810
 4464poe    c2319000   4.419   5.930   4.813 -0.4292 -0.1963  0.0940
 4464poe     o219001   4.360   5.905   4.687  0.0463 -0.2228 -0.1256
 4464poe    c2319002   4.410   5.787   4.629  0.3524  0.1021 -0.5241
 4464poe    c2319003   4.341   5.758   4.495 -0.0058  0.1361 -0.3468
 4464poe     o219004   4.203   5.728   4.496  0.0728 -0.2308 -0.1900
 4464poe    c2319005   4.151   5.727   4.364 -0.1966  0.2408 -0.0905
 4464poe    c2319006   4.025   5.640   4.351 -0.4105  0.5163  0.1387
 4464poe     o219007   4.035   5.504   4.386  0.3014  0.5166 -0.0624
 4464poe    c3119008   3.922   5.427   4.351  0.5326 -0.1233  0.5611
 4465poe    c3119009   5.386   0.085   3.814 -0.3405 -0.4043 -0.3807
 4465poe     o219010   5.385   0.226   3.818 -0.1703 -0.4009 -0.4457
 4465poe    c2319011   5.503   0.295   3.852 -0.3337 -0.4403  0.2302
 4465poe    c2319012   5.489   0.439   3.797 -0.1898 -0.5722 -0.1611
 4465poe     o219013   5.349   0.459   3.803 -0.0667  0.2397  0.1536
 4465poe    c2319014   5.321   0.595   3.824  0.2210  0.2143  0.7115
 4465poe    c2319015   5.173   0.606   3.866 -0.1164 -0.0156 -0.4015
 4465poe     o219016   5.095   0.521   3.784 -0.0437 -0.3700 -0.1095
 4465poe    c2319017   4.957   0.545   3.797 -0.0107 -0.1643 -0.1325
 4465poe    c2319018   4.872   0.434   3.732 -0.1531 -0.1552  0.0366
 4465poe     o219019   4.882   0.319   3.812  0.0862 -0.2210 -0.0847
 4465poe    c3119020   4.808   0.216   3.749 -1.0734  0.2776  0.4418
 4466poe    c3119021   0.756   2.253   1.655  0.2524 -0.2617 -0.0381
 4466poe     o219022   0.887   2.232   1.606  0.1975  0.4869 -0.5285
 4466poe    c2319023   0.984   2.216   1.707  0.0381  0.2863 -0.4064
 4466poe    c2319024   1.132   2.233   1.667  0.1411  0.3114 -0.0281
 4466poe     o219025   1.184   2.359   1.630 -0.2927  0.5239  0.0747
 4466poe    c2319026   1.295   2.388   1.713 -0.3265 -0.0362  0.3267
 4466poe    c2319027   1.346   2.533   1.695  0.0487 -0.1631  0.3677
 4466poe     o219028   1.436   2.560   1.591 -0.4566 -0.3982 -0.1362
 4466poe    c2319029   1.441   2.701   1.577  0.4163 -0.3967  0.1337
 4466poe    c2319030   1.538   2.747   1.466 -0.3054  0.4480 -0.1555
 4466poe     o219031   1.522   2.711   1.330 -0.1404  0.0573 -0.0744
 4466poe    c3119032   1.631   2.756   1.252  0.0877 -0.2478  0.0643
 4467poe    c3119033   3.061   2.009   2.228  0.0025  0.1576  0.1673
 4467poe     o219034   3.168   2.062   2.302 -0.0024  0.1595  0.1729
 4467poe    c2319035   3.134   2.096   2.435  0.2074  0.3666  0.1740
 4467poe    c2319036   3.239   2.059   2.541  0.0181 -0.1222  0.1924
 4467poe     o219037   3.269   1.923   2.562 -0.3728 -0.2166  0.1400
 4467poe    c2319038   3.380   1.926   2.648  0.0822 -0.2587 -0.4336
 4467poe    c2319039   3.391   1.794   2.726 -0.0789 -0.3144 -0.5042
 4467poe     o219040   3.317   1.795   2.846  0.2709  0.6216 -0.2900
 4467poe    c2319041   3.176   1.792   2.842  0.2738 -0.1901  0.0683
 4467poe    c2319042   3.107   1.823   2.976  0.7508 -0.1355  0.3044
 4467poe     o219043   3.089   1.955   3.022 -0.2726 -0.1920  0.0909
 4467poe    c3119044   3.136   1.978   3.153 -0.8218 -0.0497  0.2656
 4468poe    c3119045   4.603   2.956   1.784  0.3178 -0.3434  0.3541
 4468poe     o219046   4.551   3.039   1.886 -0.0361 -0.5592  0.3486
 4468poe    c2319047   4.654   3.122   1.932  0.5198 -0.6562 -0.7013
 4468poe    c2319048   4.643   3.269   1.886 -0.0586 -0.3108  0.5045
 4468poe     o219049   4.536   3.338   1.946  0.0583 -0.1550  0.5326
 4468poe    c2319050   4.516   3.470   1.899 -0.1364 -0.4272 -0.1603
 4468poe    c2319051   4.396   3.540   1.965  0.0693 -0.1106 -0.1188
 4468poe     o219052   4.271   3.479   1.939 -0.2434  0.4440  0.0601
 4468poe    c2319053   4.219   3.476   1.808  0.0490  0.2293 -0.0529
 4468poe    c2319054   4.076   3.422   1.787  0.1588 -0.1347  0.1217
 4468poe     o219055   4.081   3.281   1.786  0.2872 -0.1292  0.0539
 4468poe    c3119056   3.951   3.234   1.759  0.1353  0.2720  0.0688
 4469poe    c3119057   5.693   6.821   5.260  0.0688 -0.0798  0.1068
 4469poe     o219058   5.603   6.839   5.152  0.0135 -0.2006  0.1325
 4469poe    c2319059   5.470   6.825   5.196 -0.0769 -0.5680 -0.2542
 4469poe    c2319060   5.387   6.816   5.067 -0.0314 -0.1849 -0.3107
 4469poe     o219061   5.397   6.695   4.995  0.5534 -0.0725 -0.4273
 4469poe    c2319062   5.280   6.677   4.919  0.6605  0.2446 -0.6666
 4469poe    c2319063   5.273   6.540   4.849  0.0886 -0.0843  0.0173
 4469poe     o219064   5.259   6.432   4.938  0.3518 -0.2232 -0.1093
 4469poe    c2319065   5.240   6.312   4.867  0.4893 -0.1376 -0.2936
 4469poe    c2319066   5.246   6.185   4.954  0.1144  0.0742  0.0438
 4469poe     o219067   5.381   6.162   4.985  0.0856 -0.5109 -0.2398
 4469poe    c3119068   5.394   6.057   5.079  0.1884 -0.0020  0.3219
 4470poe    c3119069   3.067   2.713   0.319 -0.3473 -0.3578  0.1145
 4470poe     o219070   2.942   2.710   0.254 -0.2169  0.8539 -0.2236
 4470poe    c2319071   2.976   2.701   0.118 -0.2364  0.1192 -0.1873
 4470poe    c2319072   2.865   2.635   0.033  0.1317  0.0401 -0.6107
 4470poe     o219073   2.857   2.497   0.059 -0.2424  0.1488 -0.1369
 4470poe    c2319074   2.789   2.430  -0.045  0.2444 -0.1268 -0.2831
 4470poe    c2319075   2.824   2.285  -0.082 -0.2115 -0.3183  0.0182
 4470poe     o219076   2.959   2.265  -0.118 -0.2379 -0.0279 -0.2504
 4470poe    c2319077   2.988   2.130  -0.148 -0.4397 -0.0974 -0.1365
 4470poe    c2319078   3.139   2.103  -0.131 -0.5744 -0.7212  0.1074
 4470poe     o219079   3.182   2.142  -0.003  0.1095  0.1041 -0.3592
 4470poe    c3119080   3.308   2.087   0.028  0.1317  0.8049  0.8883
 4471poe    c3119081   4.420   6.350   0.464  0.0264  0.3548 -0.1296
 4471poe     o219082   4.406   6.212   0.437 -0.4420  0.3413  0.1672
 4471poe    c2319083   4.523   6.166   0.374 -0.3563  0.0835  0.5116
 4471poe    c2319084   4.533   6.013   0.391  0.1197  0.0606  0.0570
 4471poe     o219085   4.508   5.953   0.516  0.2814 -0.1291 -0.0021
 4471poe    c2319086   4.427   5.837   0.509  0.1678 -0.0651  0.2589
 4471poe    c2319087   4.368   5.811   0.649  0.0588  0.3815  0.2978
 4471poe     o219088   4.291   5.908   0.717  0.2743  0.6166  0.2077
 4471poe    c2319089   4.226   5.851   0.828  0.7459  0.1102  0.2280
 4471poe    c2319090   4.192   5.958   0.933 -0.0190  0.4541 -0.3572
 4471poe     o219091   4.080   6.027   0.884 -0.4530 -0.3058 -0.4441
 4471poe    c3119092   4.053   6.141   0.963 -0.6970 -0.4966 -0.2518
 4472poe    c3119093   4.537   1.093   6.045 -1.1176  0.4687 -0.1556
 4472poe     o219094   4.482   1.023   6.155 -0.1219 -0.6802 -0.3823
 4472poe    c2319095   4.580   1.035   6.256 -0.3675 -0.0280 -0.2216
 4472poe    c2319096   4.536   0.990   6.396  0.5128 -0.2181  0.0031
 4472poe     o219097   4.474   0.863   6.391 -0.3363  0.1805  0.2112
 4472poe    c2319098   4.458   0.828   6.527 -0.5252 -0.2601  0.0754
 4472poe    c2319099   4.438   0.677   6.551 -0.7729 -0.1946  0.2818
 4472poe     o219100   4.360   0.630   6.443  0.1862  0.1525 -0.5802
 4472poe    c2319101   4.330   0.492   6.450 -0.6597  0.3498 -0.1678
 4472poe    c2319102   4.237   0.455   6.333  0.2716 -0.2131 -0.7421
 4472poe     o219103   4.273   0.528   6.218 -0.0012  0.4833 -0.3943
 4472poe    c3119104   4.261   0.470   6.090 -0.0152  0.4885 -0.3952
 4473poe    c3119105   0.699   7.226   5.070  0.2652 -0.7403  0.1713
 4473poe     o219106   0.581   7.279   5.127  0.2508 -0.2528 -0.3029
 4473poe    c2319107   0.505   7.354   5.035 -0.2771 -0.2678  0.1208
 4473poe    c2319108   0.380   7.401   5.113  0.0942  1.2346 -0.1758
 4473poe     o219109   0.434   7.434   5.239 -0.0157 -0.4481  0.3315
 4473poe    c2319110   0.348   7.529   5.297 -0.2516 -0.3720 -0.1344
 4473poe    c2319111   0.397   7.535   5.443  0.0880 -0.2358 -0.2536
 4473poe     o219112   0.429   7.404   5.487 -0.1276 -0.3482 -0.4331
 4473poe    c2319113   0.451   7.393   5.625 -0.2081 -0.1492 -0.4022
 4473poe    c2319114   0.390   7.257   5.667  0.0409 -0.2251 -0.2818
 4473poe     o219115   0.454   7.144   5.612  0.0852 -0.2027 -0.2744
 4473poe    c3119116   0.413   7.038   5.695  0.3358  0.1113  0.2632
 4474poe    c3119117   0.982   4.531   6.601  0.2605 -0.1531  0.8494
 4474poe     o219118   0.992   4.398   6.558 -0.3713  0.0322  0.1037
 4474poe    c2319119   1.110   4.381   6.484 -0.4976  0.2868 -0.1558
 4474poe    c2319120   1.131   4.246   6.414 -0.4474 -0.0004  0.4133
 4474poe     o219121   1.110   4.136   6.500 -0.3756 -0.2313  0.1393
 4474poe    c2319122   1.134   4.013   6.435  0.1777  0.0190 -0.1386
 4474poe    c2319123   1.123   3.896   6.534 -0.0693  0.2217  0.0748
 4474poe     o219124   1.232   3.890   6.624  0.2713  0.1031 -0.3418
 4474poe    c2319125   1.208   3.785   6.716  0.1294  0.0846 -0.4002
 4474poe    c2319126   1.300   3.798   6.838  0.2307  0.1041 -0.4790
 4474poe     o219127   1.286   3.924   6.899 -0.4513 -0.4027  0.4284
 4474poe    c3119128   1.362   3.923   7.017  0.2753 -0.7747 -0.0381
 4475poe    c3119129   1.116   0.393   5.879 -0.0570 -0.0800  0.0171
 4475poe     o219130   1.177   0.480   5.787 -0.2577  0.2702  0.2136
 4475poe    c2319131   1.234   0.380   5.705 -0.0254  0.2796  0.3637
 4475poe    c2319132   1.265   0.434   5.564 -0.4498  0.4992  0.3525
 4475poe     o219133   1.152   0.447   5.481 -0.2470  0.3060  0.0463
 4475poe    c2319134   1.176   0.558   5.398 -0.0587  0.4116  0.2396
 4475poe    c2319135   1.044   0.577   5.320 -0.1926 -0.2074  0.3110
 4475poe     o219136   0.947   0.644   5.397 -0.2900 -0.5460  0.4807
 4475poe    c2319137   0.824   0.659   5.330 -0.2512 -0.3579  0.4532
 4475poe    c2319138   0.700   0.694   5.414 -0.3121 -0.1439  0.2783
 4475poe     o219139   0.686   0.832   5.435  0.1390 -0.0770  0.1413
 4475poe    c3119140   0.564   0.865   5.497  0.0614  0.2183 -0.1638
 4476poe    c3119141   2.909   5.798   5.546  0.5790  0.3946  0.3156
 4476poe     o219142   2.948   5.934   5.550  0.6718  0.3781 -0.0032
 4476poe    c2319143   2.866   6.007   5.462  0.5193  0.0632 -0.1240
 4476poe    c2319144   2.854   6.157   5.492  0.1942 -0.0434  0.2904
 4476poe     o219145   2.777   6.195   5.604  0.6649 -0.4060  0.7400
 4476poe    c2319146   2.757   6.334   5.599 -0.4140 -0.5457  0.9338
 4476poe    c2319147   2.615   6.383   5.631 -0.3731 -0.0683  0.3992
 4476poe     o219148   2.585   6.330   5.758  0.0349 -0.0414  0.5072
 4476poe    c2319149   2.444   6.322   5.753  0.0725 -0.2636 -0.5869
 4476poe    c2319150   2.408   6.268   5.893  0.3216 -0.0412 -0.4344
 4476poe     o219151   2.450   6.136   5.920  0.0980 -0.0234 -0.0009
 4476poe    c3119152   2.429   6.106   6.057 -0.0841 -0.2007 -0.0674
 4477poe    c3119153   2.142   0.109   1.638  0.2495 -0.6253  0.5007
 4477poe     o219154   2.179   0.100   1.502  0.3947  0.1087  0.4831
 4477poe    c2319155   2.319   0.090   1.492  0.3368 -0.4866  0.1994
 4477poe    c2319156   2.360   0.081   1.343 -0.3786 -0.0612 -0.0307
 4477poe     o219157   2.272  -0.018   1.296 -0.5000  0.2080 -0.3701
 4477poe    c2319158   2.294  -0.073   1.168 -0.4569  0.1328 -0.3302
 4477poe    c2319159   2.210  -0.195   1.128  0.2898 -0.4872 -0.0439
 4477poe     o219160   2.076  -0.188   1.172  0.3238  0.1083 -0.0360
 4477poe    c2319161   2.021  -0.317   1.163 -0.0835  0.3116 -0.5646
 4477poe    c2319162   1.873  -0.310   1.204  0.0609  0.1790 -0.0201
 4477poe     o219163   1.795  -0.227   1.122  0.2784  0.1380 -0.2707
 4477poe    c3119164   1.667  -0.205   1.178  0.1559 -0.5494 -0.2715
 4478poe    c3119165   6.729   4.372   4.977  0.1925  0.4336 -0.4738
 4478poe     o219166   6.812   4.483   4.949  0.5589  0.1912 -0.3520
 4478poe    c2319167   6.885   4.524   5.063 -0.0817  0.2828  0.0293
 4478poe    c2319168   7.005   4.604   5.010  0.0407  0.3584  0.4207
 4478poe     o219169   6.940   4.705   4.937 -0.4881 -0.7332 -0.6463
 4478poe    c2319170   7.035   4.789   4.878 -0.0888 -0.2156  0.6994
 4478poe    c2319171   6.958   4.904   4.810  0.3716 -0.2005  0.1945
 4478poe     o219172   6.853   4.844   4.738  0.0223  0.3061  0.2805
 4478poe    c2319173   6.814   4.924   4.628 -0.4865 -0.0477  0.1981
 4478poe    c2319174   6.716   4.862   4.527 -0.1346 -0.2100 -0.0448
 4478poe     o219175   6.777   4.785   4.426 -0.0911  0.0091 -0.1874
 4478poe    c3119176   6.680   4.705   4.362 -0.5325  0.4947 -0.1330
 4479poe    c3119177   3.418   1.223   4.469  0.1770 -0.1992 -0.5187
 4479poe     o219178   3.509   1.168   4.562 -0.3205  0.1487  0.1860
 4479poe    c2319179   3.586   1.264   4.631  0.4148 -0.3566  0.0878
 4479poe    c2319180   3.713   1.211   4.699  0.6094  0.7933  0.6408
 4479poe     o219181   3.705   1.120   4.806 -0.2532  0.1445  0.0372
 4479poe    c2319182   3.640   1.169   4.921  0.2446  0.2991  0.2566
 4479poe    c2319183   3.626   1.048   5.015 -0.0999  0.5826  0.5744
 4479poe     o219184   3.526   0.960   4.970  0.3233  0.0801  0.6018
 4479poe    c2319185   3.513   0.842   5.046  0.5051 -0.5219 -0.2912
 4479poe    c2319186   3.431   0.744   4.961 -0.1564 -0.3258  0.1194
 4479poe     o219187   3.502   0.662   4.872 -0.1699 -0.1456 -0.0571
 4479poe    c3119188   3.422   0.556   4.824 -0.3100  0.0299 -0.2144
 4480poe    c3119189   3.413   5.104   6.700  0.1269 -0.2641  0.3501
 4480poe     o219190   3.358   5.163   6.585  0.2760  0.1013  0.4646
 4480poe    c2319191   3.365   5.068   6.480  0.0005 -0.0934  0.6199
 4480poe    c2319192   3.336   5.133   6.343  0.5998 -0.4685  0.3130
 4480poe     o219193   3.404   5.256   6.336  0.1077 -0.1758  0.6074
 4480poe    c2319194   3.323   5.353   6.272  0.3688 -0.5648 -0.3348
 4480poe    c2319195   3.361   5.498   6.307  0.5596 -0.7488  0.2417
 4480poe     o219196   3.495   5.531   6.280  0.0913  0.7543 -0.3393
 4480poe    c2319197   3.503   5.656   6.345 -0.5920  0.4808  0.2823
 4480poe    c2319198   3.647   5.696   6.381 -0.3335 -0.4707  0.3245
 4480poe     o219199   3.714   5.588   6.443 -0.1155 -0.3444  0.3095
 4480poe    c3119200   3.832   5.616   6.514  0.3117  0.0952 -0.5484
 4481poe    c3119201   2.260   2.068   5.991 -0.3055 -0.5797  0.3937
 4481poe     o219202   2.365   1.999   6.055  0.1363 -0.0483  0.2489
 4481poe    c2319203   2.436   1.931   5.954 -0.0846  0.3601 -0.1870
 4481poe    c2319204   2.564   1.858   6.001 -0.0250  0.5794 -0.0119
 4481poe     o219205   2.550   1.769   6.110 -0.2960  0.2056 -0.3516
 4481poe    c2319206   2.616   1.648   6.080 -0.3702  0.1364 -0.2326
 4481poe    c2319207   2.533   1.524   6.120  0.2316 -0.0995  0.3059
 4481poe     o219208   2.516   1.519   6.260 -0.0954  0.0665  0.2734
 4481poe    c2319209   2.381   1.495   6.294 -0.0837 -0.2802  0.0776
 4481poe    c2319210   2.301   1.608   6.360 -0.1001 -0.2904  0.0743
 4481poe     o219211   2.331   1.731   6.299 -0.1142 -0.3418 -0.0363
 4481poe    c3119212   2.223   1.821   6.313  0.1905  0.1682 -0.8828
 4482poe    c3119213   0.925   6.401   2.569  0.3085  0.2090 -0.1996
 4482poe     o219214   0.884   6.284   2.503 -0.1006  0.0788  0.2795
 4482poe    c2319215   0.746   6.291   2.476 -0.1314  0.7261  0.6005
 4482poe    c2319216   0.683   6.151   2.483 -0.3051  0.7682 -0.0164
 4482poe     o219217   0.731   6.055   2.392 -0.1438  0.0439  0.8172
 4482poe    c2319218   0.826   5.976   2.459  0.6196  0.2912  0.0392
 4482poe    c2319219   0.904   5.888   2.360  0.3012  0.2706 -0.1933
 4482poe     o219220   1.020   5.950   2.310  0.4573  0.3538  0.2656
 4482poe    c2319221   0.994   5.968   2.173 -0.1876  0.2257  0.3701
 4482poe    c2319222   1.107   6.038   2.095 -0.3429  0.2127  0.1308
 4482poe     o219223   1.130   6.172   2.133 -0.4344  0.1044  0.5719
 4482poe    c3119224   1.228   6.229   2.050 -0.6103  0.2883  0.4888
 4483poe    c3119225   1.398   0.849   1.902 -0.0990 -0.8646  0.1333
 4483poe     o219226   1.355   0.897   2.027  0.0743  0.0885 -0.1650
 4483poe    c2319227   1.348   1.038   2.026 -0.6714  0.0601  0.2628
 4483poe    c2319228   1.244   1.111   1.940 -0.0441  0.3178 -0.2911
 4483poe     o219229   1.287   1.102   1.806 -0.2095 -0.5765 -0.2863
 4483poe    c2319230   1.196   1.161   1.716  0.4033  0.3309 -0.3221
 4483poe    c2319231   1.251   1.145   1.573  0.9066 -0.2640 -0.0659
 4483poe     o219232   1.247   1.010   1.532  0.3539 -0.3142  0.1512
 4483poe    c2319233   1.376   0.955   1.524  0.6465  0.4502 -0.5481
 4483poe    c2319234   1.376   0.804   1.492  0.0565  0.3061  0.1282
 4483poe     o219235   1.343   0.776   1.358  0.1766 -0.3207  0.2250
 4483poe    c3119236   1.346   0.637   1.336  0.4189 -0.3137  0.2140
 4484poe    c3119237   3.624   1.046   5.596  0.9041  0.8967 -0.4447
 4484poe     o219238   3.689   0.981   5.703 -0.5661  0.6219  0.3056
 4484poe    c2319239   3.600   0.886   5.757  0.0456  0.1299  0.4541
 4484poe    c2319240   3.642   0.844   5.899 -0.2232 -0.4275  0.3719
 4484poe     o219241   3.618   0.956   5.981  0.4178 -0.0785  0.0909
 4484poe    c2319242   3.619   0.922   6.117 -0.1298  0.1309  0.1532
 4484poe    c2319243   3.597   1.037   6.217 -0.2094  0.5233 -0.3115
 4484poe     o219244   3.706   1.126   6.228 -0.0196  0.2668 -0.0831
 4484poe    c2319245   3.666   1.231   6.313  0.0420  0.3468 -0.1535
 4484poe    c2319246   3.786   1.310   6.369  0.1696  0.2051 -0.2263
 4484poe     o219247   3.852   1.375   6.263 -0.3500  0.1594 -0.5801
 4484poe    c3119248   3.894   1.500   6.312 -0.2313 -0.0612 -0.1180
 4485poe    c3119249   2.511   3.851   2.417 -0.5893  0.5499  0.0289
 4485poe     o219250   2.630   3.800   2.472 -0.5975 -0.0566 -0.5161
 4485poe    c2319251   2.609   3.691   2.559  0.5849  0.4205  0.3943
 4485poe    c2319252   2.687   3.565   2.521  0.4650  0.3319  0.4411
 4485poe     o219253   2.825   3.578   2.549  0.4314  0.3382  0.6057
 4485poe    c2319254   2.895   3.463   2.505 -0.2817  0.4976 -1.0314
 4485poe    c2319255   3.035   3.461   2.568 -0.7831  0.4088  0.1073
 4485poe     o219256   3.098   3.586   2.583 -0.3551  0.1748  0.2825
 4485poe    c2319257   3.210   3.555   2.663 -0.4215 -0.5306  0.1083
 4485poe    c2319258   3.343   3.575   2.587 -0.7293 -0.3525 -0.3847
 4485poe     o219259   3.391   3.470   2.507  0.1481 -0.2820  0.0373
 4485poe    c3119260   3.525   3.433   2.532  0.0097 -0.5552  0.3892
 4486poe    c3119261   5.767   3.913   1.342  0.2536 -0.2208 -0.1198
 4486poe     o219262   5.695   3.965   1.233  0.3961  0.1879 -0.0219
 4486poe    c2319263   5.669   3.857   1.146 -0.7552 -0.0784  0.6374
 4486poe    c2319264   5.597   3.890   1.014  0.7819 -0.0628 -0.2199
 4486poe     o219265   5.468   3.947   1.021  0.5974 -0.4741 -0.1809
 4486poe    c2319266   5.411   3.935   0.893  0.0756  0.0976 -0.0091
 4486poe    c2319267   5.269   3.994   0.879  0.0065  0.0734  0.5729
 4486poe     o219268   5.248   4.133   0.880 -0.2288  0.0580 -0.6161
 4486poe    c2319269   5.110   4.158   0.877 -0.2362  0.0916 -0.1792
 4486poe    c2319270   5.084   4.309   0.894  0.3195  0.1729 -0.0408
 4486poe     o219271   5.138   4.369   1.009  0.6158  0.0634 -0.1211
 4486poe    c3119272   5.162   4.503   0.973  0.7935  0.2009  0.4997
 4487poe    c3119273   0.996   3.411   2.476 -0.1442 -0.6296  0.5524
 4487poe     o219274   1.080   3.345   2.385 -0.4548 -0.1033 -0.1254
 4487poe    c2319275   1.110   3.418   2.268  0.2287  0.1387  0.1937
 4487poe    c2319276   1.101   3.316   2.153 -0.2178 -0.1883  0.5137
 4487poe     o219277   1.169   3.195   2.177  0.1891 -0.1899 -0.5766
 4487poe    c2319278   1.188   3.137   2.050 -0.0426 -0.2950 -0.5626
 4487poe    c2319279   1.240   2.993   2.066 -0.2195 -0.2694  0.2879
 4487poe     o219280   1.361   3.001   2.139  0.0262 -0.0716 -0.1369
 4487poe    c2319281   1.463   2.920   2.085  0.2649  0.2963 -0.2451
 4487poe    c2319282   1.540   2.956   1.957  0.6418 -0.9138 -0.3744
 4487poe     o219283   1.645   3.040   2.000 -0.4975  0.3555 -0.0010
 4487poe    c3119284   1.686   3.130   1.899 -0.2829  0.2728  0.0133
 4488poe    c3119285   4.566   3.425   2.976 -0.0810  0.5594  0.1108
 4488poe     o219286   4.526   3.421   2.841  0.6554 -0.3853 -0.0906
 4488poe    c2319287   4.450   3.537   2.817  0.3625 -0.6110 -0.2578
 4488poe    c2319288   4.412   3.556   2.669  0.3035 -0.3513 -0.2100
 4488poe     o219289   4.525   3.554   2.586  0.4340 -0.4112 -0.0301
 4488poe    c2319290   4.490   3.544   2.449  0.1072 -0.1353  0.0342
 4488poe    c2319291   4.582   3.456   2.363 -0.3990 -0.4307 -0.2099
 4488poe     o219292   4.721   3.483   2.364 -0.4926  0.0568  0.4112
 4488poe    c2319293   4.789   3.437   2.250 -1.0563  0.1565  0.0280
 4488poe    c2319294   4.838   3.294   2.280 -0.2876  0.3910 -0.0736
 4488poe     o219295   4.954   3.297   2.361 -0.1801  0.4156 -0.2292
 4488poe    c3119296   4.990   3.168   2.403 -0.1519  0.6329  0.4293
 4489poe    c3119297   1.002   6.742   0.481  0.0708  0.4798 -0.2082
 4489poe     o219298   1.021   6.728   0.620  0.0617  0.9132 -0.1611
 4489poe    c2319299   1.034   6.597   0.670 -0.0084  0.9305 -0.0977
 4489poe    c2319300   1.069   6.608   0.819  0.5296 -0.1778 -0.1309
 4489poe     o219301   0.974   6.683   0.891  0.5194 -0.1873 -0.1342
 4489poe    c2319302   1.024   6.697   1.022 -0.2872 -0.2294  0.1828
 4489poe    c2319303   0.946   6.803   1.102 -0.2229 -0.1904  0.1938
 4489poe     o219304   0.809   6.769   1.106 -0.2063 -0.2371  0.4009
 4489poe    c2319305   0.721   6.870   1.151  0.2161 -0.0861  0.8928
 4489poe    c2319306   0.580   6.851   1.092  0.5746 -0.1205  0.0264
 4489poe     o219307   0.562   6.860   0.953 -0.1116 -0.3160  0.1012
 4489poe    c3119308   0.431   6.905   0.925  0.1477  0.1902 -0.3123
 4490poe    c3119309   2.184   3.317   5.905  0.3197 -0.2188  0.0020
 4490poe     o219310   2.252   3.243   5.806  0.3478  0.1514 -0.2532
 4490poe    c2319311   2.189   3.123   5.766  0.0721  0.4334 -0.6787
 4490poe    c2319312   2.281   3.052   5.665  0.3933 -0.0958 -0.0239
 4490poe     o219313   2.396   2.990   5.718 -0.3607 -0.9723  0.6016
 4490poe    c2319314   2.488   2.951   5.619 -0.3181 -0.0737  0.2725
 4490poe    c2319315   2.599   2.861   5.678  0.0643  0.1319 -0.1312
 4490poe     o219316   2.652   2.937   5.783 -0.1550 -0.0270  0.0952
 4490poe    c2319317   2.763   2.872   5.840  0.2229  0.3161 -0.2411
 4490poe    c2319318   2.819   2.914   5.977  0.5470 -0.3498 -0.1668
 4490poe     o219319   2.851   3.051   5.983  0.4308 -0.3205 -0.2365
 4490poe    c3119320   2.909   3.072   6.109  1.1478 -0.4557 -0.5402
 4491poe    c3119321   4.388   4.390   5.849  0.1555 -0.6747 -0.2589
 4491poe     o219322   4.517   4.446   5.843 -0.1804  0.1440  0.0373
 4491poe    c2319323   4.552   4.537   5.945 -0.0245  0.2302 -0.0926
 4491poe    c2319324   4.705   4.551   5.964 -0.1068  0.8598  0.1325
 4491poe     o219325   4.765   4.619   5.856 -0.0802  0.3369 -0.1858
 4491poe    c2319326   4.885   4.675   5.905  0.0884  0.0382 -0.2570
 4491poe    c2319327   4.961   4.738   5.788  0.0332  0.0058 -0.3110
 4491poe     o219328   4.982   4.648   5.682  0.6067 -0.2074 -0.0240
 4491poe    c2319329   5.011   4.715   5.562  0.0500 -0.1720 -0.1415
 4491poe    c2319330   5.030   4.615   5.446 -0.0621 -0.1765 -0.1565
 4491poe     o219331   4.918   4.530   5.457 -0.2093  0.0572  0.1692
 4491poe    c3119332   4.939   4.404   5.398 -0.4210  0.1832 -0.1784
 4492poe    c3119333   4.505   3.505   7.361 -0.1081  0.0925  0.0303
 4492poe     o219334   4.503   3.381   7.429 -0.1367 -0.1405 -0.3890
 4492poe    c2319335   4.512   3.395   7.569 -0.2745 -0.7690 -0.3162
 4492poe    c2319336   4.380   3.357   7.639 -0.4485  0.0072 -0.2181
 4492poe     o219337   4.344   3.221   7.643  0.1526 -0.1344  0.5812
 4492poe    c2319338   4.243   3.192   7.737  0.0970 -0.0511  0.5465
 4492poe    c2319339   4.244   3.042   7.770  0.0403 -0.0847  0.4008
 4492poe     o219340   4.166   2.964   7.682  0.5395 -0.1067 -0.0251
 4492poe    c2319341   4.109   2.855   7.751 -0.2525  0.0046 -0.4930
 4492poe    c2319342   3.960   2.843   7.713 -0.4004  0.5613 -0.1038
 4492poe     o219343   3.970   2.789   7.583 -0.4754  0.6917 -0.1643
 4492poe    c3119344   3.842   2.782   7.525 -0.3871  0.0083 -0.2849
 4493poe    c3119345   5.207   3.226   6.186 -0.1879 -0.2566 -0.2814
 4493poe     o219346   5.160   3.099   6.226 -0.2080 -0.2119 -0.1627
 4493poe    c2319347   5.272   3.014   6.223 -0.0877 -0.0681  0.1735
 4493poe    c2319348   5.239   2.867   6.254 -0.6630  0.0099 -0.0679
 4493poe     o219349   5.193   2.838   6.384  0.1230 -0.1636  0.1764
 4493poe    c2319350   5.078   2.757   6.389  0.0276 -0.0698 -0.4144
 4493poe    c2319351   4.939   2.805   6.346 -0.0687  0.1686  0.1557
 4493poe     o219352   4.882   2.883   6.449  0.1390  0.5444 -0.0123
 4493poe    c2319353   4.743   2.900   6.432  0.0548  0.1532  0.2993
 4493poe    c2319354   4.702   3.031   6.502 -0.8278 -0.2000  0.4556
 4493poe     o219355   4.710   3.038   6.643  0.3850 -0.1971  0.3935
 4493poe    c3119356   4.712   3.173   6.683 -0.5056 -0.1304  0.2279
 4494poe    c3119357   7.080   0.405   5.669  0.3591  0.1914  0.0723
 4494poe     o219358   7.221   0.410   5.679  0.4051  0.7024 -0.7625
 4494poe    c2319359   7.277   0.300   5.611 -0.1994 -0.0080 -0.1277
 4494poe    c2319360   7.430   0.310   5.610 -0.1624 -0.5083  0.1365
 4494poe     o219361   7.476   0.430   5.551 -0.4723 -0.2238  0.4730
 4494poe    c2319362   7.615   0.446   5.560 -0.4688 -0.0878  0.1938
 4494poe    c2319363   7.653   0.591   5.524 -0.6316  0.0196  0.4561
 4494poe     o219364   7.621   0.683   5.626 -0.0419  0.2407  0.4425
 4494poe    c2319365   7.690   0.804   5.601 -0.1281  0.0774 -0.6586
 4494poe    c2319366   7.609   0.930   5.637 -0.2459 -0.1679 -0.0509
 4494poe     o219367   7.512   0.970   5.543  0.0285  0.4505 -0.0744
 4494poe    c3119368   7.484   1.106   5.563 -0.1105  0.3743  0.2533
 4495poe    c3119369   4.701   7.323   4.775 -0.2131 -0.4256 -0.2726
 4495poe     o219370   4.779   7.268   4.671 -0.3206  0.0588 -0.6126
 4495poe    c2319371   4.918   7.260   4.692 -0.4677  0.1874  0.4620
 4495poe    c2319372   4.959   7.128   4.762 -0.0057  0.0199 -0.1197
 4495poe     o219373   4.928   7.100   4.896  0.0566 -0.1024 -0.1310
 4495poe    c2319374   4.952   6.966   4.934 -0.4298 -0.0792  0.2653
 4495poe    c2319375   4.966   6.945   5.086  0.1387 -0.5316  0.1539
 4495poe     o219376   5.088   7.001   5.131  0.1827 -0.3152 -0.2306
 4495poe    c2319377   5.077   7.060   5.259  0.0203  0.2443 -0.5013
 4495poe    c2319378   5.199   7.094   5.346 -0.2248  0.5438 -0.2731
 4495poe     o219379   5.299   7.175   5.288 -0.4071  0.7976 -0.2392
 4495poe    c3119380   5.417   7.167   5.366 -0.6194 -0.1879 -0.0012
 4496poe    c3119381   2.400   5.759   4.927 -0.1135 -0.5818 -0.3414
 4496poe     o219382   2.515   5.681   4.950 -0.1454 -0.5320 -0.0027
 4496poe    c2319383   2.619   5.770   4.985 -0.4765 -0.1868  0.1156
 4496poe    c2319384   2.739   5.681   4.949 -0.7757 -0.3999 -0.3711
 4496poe     o219385   2.716   5.558   5.015 -0.3058  0.1231  0.8050
 4496poe    c2319386   2.821   5.469   4.987 -0.5767  0.1091 -0.2301
 4496poe    c2319387   2.810   5.355   5.091 -0.4965  0.2626 -0.0525
 4496poe     o219388   2.691   5.280   5.089 -0.4494  0.1888 -0.0505
 4496poe    c2319389   2.688   5.161   5.165  0.0830  0.3280  0.1974
 4496poe    c2319390   2.546   5.102   5.179  0.0830  0.1899 -0.3619
 4496poe     o219391   2.440   5.194   5.190  0.1421  0.1919  0.2322
 4496poe    c3119392   2.319   5.127   5.215  0.0666  0.5481  0.8227
 4497poe    c3119393   1.841   5.750   0.737  0.0680  0.4384 -0.2406
 4497poe     o219394   1.939   5.850   0.755 -0.0226  0.5610 -0.4204
 4497poe    c2319395   1.938   5.898   0.887  0.3815  0.4107 -0.3630
 4497poe    c2319396   2.086   5.934   0.914  0.3528  0.0779  0.2585
 4497poe     o219397   2.173   5.829   0.879  0.5555  0.3609 -0.0860
 4497poe    c2319398   2.309   5.866   0.877  0.5772  0.3238  0.5389
 4497poe    c2319399   2.358   5.934   0.748  0.1789 -0.0226  0.1996
 4497poe     o219400   2.348   5.854   0.632 -0.4893 -0.1375  0.3376
 4497poe    c2319401   2.473   5.795   0.607 -0.5368  0.1125 -0.5056
 4497poe    c2319402   2.511   5.770   0.460  0.5692 -0.1411 -0.1876
 4497poe     o219403   2.443   5.662   0.399  0.8172 -0.4596  0.0998
 4497poe    c3119404   2.510   5.627   0.281 -0.1009  0.1246 -0.6107
 4498poe    c3119405   5.747   2.756   0.164 -0.5968 -0.5464 -0.0423
 4498poe     o219406   5.841   2.652   0.172  0.0162  0.0080  0.0520
 4498poe    c2319407   5.930   2.664   0.280  0.1709 -0.0276 -0.0699
 4498poe    c2319408   6.020   2.540   0.301  0.5556  0.2147 -0.2805
 4498poe     o219409   5.950   2.421   0.329  0.9850  0.0452  0.0760
 4498poe    c2319410   6.032   2.306   0.339  0.0343 -0.6490  0.0735
 4498poe    c2319411   6.097   2.268   0.205  0.1646 -0.0673 -0.0324
 4498poe     o219412   5.992   2.235   0.117  0.0986 -0.4633  0.1918
 4498poe    c2319413   6.040   2.205  -0.012 -0.6745 -0.0203 -0.2063
 4498poe    c2319414   5.935   2.126  -0.092  0.0342 -0.5780 -0.5955
 4498poe     o219415   5.805   2.176  -0.068  0.3011 -0.2813  0.2446
 4498poe    c3119416   5.721   2.113  -0.161  0.2529  0.3637 -0.1537
 4499poe    c3119417   5.946   5.542   1.080 -0.2557 -0.6375 -0.3645
 4499poe     o219418   5.910   5.552   0.944  0.1617  0.0305 -0.4313
 4499poe    c2319419   5.776   5.592   0.929  0.0585 -0.0186  0.3263
 4499poe    c2319420   5.673   5.487   0.884 -0.2086  0.3043  0.1716
 4499poe     o219421   5.660   5.404   0.997 -0.0844  0.0104 -0.0269
 4499poe    c2319422   5.624   5.272   0.964  0.0061 -0.0556  0.1378
 4499poe    c2319423   5.633   5.190   1.094 -0.1606 -0.7417 -0.2788
 4499poe     o219424   5.551   5.222   1.204  0.7070  0.6115 -0.0105
 4499poe    c2319425   5.579   5.147   1.321 -0.2605  0.1379 -0.0729
 4499poe    c2319426   5.458   5.141   1.416 -0.4129  0.1605 -0.2621
 4499poe     o219427   5.453   5.272   1.468 -0.2017 -0.2210  0.7544
 4499poe    c3119428   5.333   5.299   1.537 -0.8501  0.2986 -0.5324
 4500poe    c3119429   3.867   3.520   6.976  0.0174  0.0515  0.2350
 4500poe     o219430   3.768   3.523   6.876  0.1000  0.2858  0.1587
 4500poe    c2319431   3.708   3.395   6.877  0.1776  0.2449 -0.2409
 4500poe    c2319432   3.612   3.370   6.760  0.1830  0.0583 -0.2061
 4500poe     o219433   3.491   3.442   6.752 -0.0661 -0.2939  0.3172
 4500poe    c2319434   3.440   3.454   6.622  0.3350  0.0200  0.1861
 4500poe    c2319435   3.338   3.569   6.610  0.1218 -0.2046 -0.2074
 4500poe     o219436   3.204   3.559   6.654  0.1162  0.5360 -0.0405
 4500poe    c2319437   3.118   3.652   6.593 -0.3099  0.3279  0.2379
 4500poe    c2319438   2.983   3.658   6.666 -0.3136  0.2406  0.2381
 4500poe     o219439   3.001   3.703   6.798  0.3771  0.2213  0.1508
 4500poe    c3119440   2.916   3.812   6.823  0.7620  0.5508  0.0340
 4501poe    c3119441   3.101   6.541   2.921  0.3505 -0.0568 -0.2999
 4501poe     o219442   2.981   6.605   2.883  0.4272  0.6041  0.5474
 4501poe    c2319443   3.004   6.696   2.778 -0.4405  0.5279  0.2829
 4501poe    c2319444   2.876   6.776   2.748 -0.2004  0.8348  0.0720
 4501poe     o219445   2.776   6.679   2.727  0.2461  0.4459 -0.2868
 4501poe    c2319446   2.714   6.706   2.604  0.1750 -0.3881 -0.4352
 4501poe    c2319447   2.614   6.591   2.578  0.2742 -0.6950  0.5372
 4501poe     o219448   2.532   6.572   2.691 -0.2089 -0.2932  0.2552
 4501poe    c2319449   2.431   6.482   2.652  0.0899 -0.6528  0.3031
 4501poe    c2319450   2.357   6.445   2.782  0.4245 -0.0764  0.6625
 4501poe     o219451   2.255   6.533   2.821  0.4437  0.1440  0.2226
 4501poe    c3119452   2.183   6.475   2.927  0.2182 -0.1845 -0.1097
 4502poe    c3119453   0.079   6.565   7.060 -0.5396  0.4549 -0.0622
 4502poe     o219454   0.043   6.626   6.938 -0.0275 -0.2387 -0.5725
 4502poe    c2319455   0.156   6.681   6.874  0.0412  0.5287  0.1811
 4502poe    c2319456   0.098   6.764   6.758  0.1946 -0.2486 -0.4648
 4502poe     o219457   0.005   6.846   6.826  0.0342 -0.2014 -0.7405
 4502poe    c2319458  -0.031   6.957   6.747  0.2297  0.2063 -0.2596
 4502poe    c2319459  -0.155   7.028   6.804  0.2044  0.2798 -0.4068
 4502poe     o219460  -0.249   6.929   6.838  0.2847  0.4379  0.2782
 4502poe    c2319461  -0.359   6.987   6.904 -0.0608 -0.0009  0.0932
 4502poe    c2319462  -0.500   6.927   6.888 -0.1063  0.0184  0.4068
 4502poe     o219463  -0.485   6.797   6.940 -0.2519 -0.3543 -0.4573
 4502poe    c3119464  -0.591   6.707   6.915 -0.3505 -0.1151 -0.8947
 4503poe    c3119465   1.529   2.175   7.389  0.2100 -0.4591  1.0447
 4503poe     o219466   1.441   2.068   7.360 -0.0179  0.0787 -0.3490
 4503poe    c2319467   1.322   2.117   7.302 -0.1397 -0.1825 -0.3196
 4503poe    c2319468   1.232   1.997   7.267 -0.4550 -0.0854  0.1586
 4503poe     o219469   1.269   1.924   7.153 -0.5531 -0.5216  0.4010
 4503poe    c2319470   1.227   1.987   7.034 -0.9267 -0.1833  0.7098
 4503poe    c2319471   1.286   1.917   6.910 -0.6060  0.4545  0.4992
 4503poe     o219472   1.420   1.885   6.941 -0.7303 -0.5410  0.0407
 4503poe    c2319473   1.485   1.823   6.832 -0.0430  0.3194 -0.0422
 4503poe    c2319474   1.630   1.789   6.873 -0.0220 -0.0317 -0.4052
 4503poe     o219475   1.623   1.740   7.005 -0.6898 -0.2064 -0.4993
 4503poe    c3119476   1.751   1.698   7.048 -0.8910 -0.1898  0.1291
 4504poe    c3119477   1.511   2.911   0.047  0.1108 -0.4225 -0.3516
 4504poe     o219478   1.630   2.980   0.078 -0.0982 -0.2611  0.0947
 4504poe    c2319479   1.662   3.080  -0.015  0.1866 -0.5682 -0.1372
 4504poe    c2319480   1.814   3.108  -0.013  0.1456 -0.3235 -0.4220
 4504poe     o219481   1.888   3.004  -0.073  0.2720 -0.2502 -0.3934
 4504poe    c2319482   2.024   3.040  -0.079  0.1564  0.2474 -0.1259
 4504poe    c2319483   2.098   2.912  -0.122  0.7520  0.6293 -0.2437
 4504poe     o219484   2.100   2.805  -0.030  0.1891  0.3814 -0.5131
 4504poe    c2319485   2.179   2.708  -0.095  0.1565  0.1925 -0.2738
 4504poe    c2319486   2.187   2.580  -0.011  0.2912  0.2633 -0.1780
 4504poe     o219487   2.065   2.518   0.021  0.4187  0.2168  0.2164
 4504poe    c3119488   2.094   2.381   0.038  0.0765  0.1707  0.4598
 4505poe    c3119489   6.397   0.240   4.848  0.2401  0.4865  0.0922
 4505poe     o219490   6.421   0.369   4.901  0.2488  0.6669 -0.3419
 4505poe    c2319491   6.295   0.422   4.936  0.0025 -0.0632 -0.1076
 4505poe    c2319492   6.309   0.538   5.037 -0.5091 -0.0040 -0.1045
 4505poe     o219493   6.356   0.648   4.963 -0.1723 -0.2301 -0.2316
 4505poe    c2319494   6.384   0.755   5.051  0.0678  0.0322 -0.6266
 4505poe    c2319495   6.470   0.856   4.973 -0.2716  0.5690 -0.3057
 4505poe     o219496   6.598   0.812   4.935 -0.0362  0.7254  0.2973
 4505poe    c2319497   6.655   0.872   4.821  0.1230  0.4154  0.2103
 4505poe    c2319498   6.808   0.855   4.823  0.0935  0.0558 -0.4234
 4505poe     o219499   6.847   0.731   4.877 -0.1769  0.2395  0.2041
 4505poe    c3119500   6.988   0.721   4.882 -0.1381  0.3397 -0.5192
 4506poe    c3119501   6.698   3.624   1.338 -0.1111 -0.3576  0.4618
 4506poe     o219502   6.708   3.494   1.392  0.5825 -0.4505  0.1217
 4506poe    c2319503   6.757   3.515   1.522  0.0491  0.6826  0.1505
 4506poe    c2319504   6.743   3.397   1.620 -0.1352  0.8355  0.3094
 4506poe     o219505   6.612   3.353   1.647  0.0236 -0.0560 -0.3343
 4506poe    c2319506   6.566   3.243   1.571 -0.8335  0.1589 -0.1388
 4506poe    c2319507   6.605   3.104   1.622 -0.1345  0.4042  0.0008
 4506poe     o219508   6.533   3.066   1.737 -0.2510 -0.1638 -0.2564
 4506poe    c2319509   6.557   2.927   1.751 -0.4175 -0.2421 -0.7399
 4506poe    c2319510   6.458   2.861   1.848 -0.4303 -0.1959 -0.7210
 4506poe     o219511   6.322   2.885   1.824 -0.4242 -0.1379 -0.6955
 4506poe    c3119512   6.238   2.796   1.896  0.4562 -0.5306 -0.1330
 4507poe    c3119513   7.080   1.313   1.769  0.1719  0.3015 -0.3631
 4507poe     o219514   7.130   1.183   1.786 -0.1338  0.2252 -0.0410
 4507poe    c2319515   7.052   1.120   1.884 -0.2551  0.1511 -0.1842
 4507poe    c2319516   7.087   0.973   1.913 -0.6445  0.1666  0.3909
 4507poe     o219517   7.215   0.971   1.972 -0.5599  0.2161  0.2092
 4507poe    c2319518   7.249   0.836   1.999 -0.7492  0.1048 -0.1005
 4507poe    c2319519   7.377   0.843   2.084 -0.7555 -0.2777 -0.0618
 4507poe     o219520   7.480   0.836   1.988 -0.4444 -0.0331  0.2485
 4507poe    c2319521   7.610   0.878   2.023 -0.5702  0.3310  0.2802
 4507poe    c2319522   7.694   0.891   1.895 -0.5226 -0.1902  0.2575
 4507poe     o219523   7.689   1.015   1.829 -0.2538 -0.4053 -0.1688
 4507poe    c3119524   7.734   0.980   1.700 -0.1427  0.2114 -0.3004
 4508poe    c3119525   4.494   6.814   1.594  0.0606 -0.6945 -0.0493
 4508poe     o219526   4.581   6.919   1.557 -0.1807 -0.3386  0.3874
 4508poe    c2319527   4.597   6.928   1.417  0.4852 -0.1067  0.4749
 4508poe    c2319528   4.722   7.010   1.381  0.3019 -0.2049 -0.3877
 4508poe     o219529   4.707   7.149   1.401 -0.0948 -0.3216  0.1355
 4508poe    c2319530   4.814   7.212   1.334 -0.4768  0.3132  0.1178
 4508poe    c2319531   4.791   7.360   1.301  0.4064  0.4480  0.0762
 4508poe     o219532   4.700   7.378   1.194  0.6144  0.0698 -0.1642
 4508poe    c2319533   4.675   7.516   1.180 -0.1863 -0.0250  0.2516
 4508poe    c2319534   4.568   7.541   1.072  0.2039 -0.1623 -0.1696
 4508poe     o219535   4.598   7.490   0.944  0.4483  0.3611 -0.3258
 4508poe    c3119536   4.524   7.549   0.840 -0.1736  0.0613 -0.0604
 4509poe    c3119537   3.061   7.209   6.002  0.5165 -0.3236 -0.7299
 4509poe     o219538   3.130   7.274   5.897 -0.1696  0.2683 -0.8227
 4509poe    c2319539   3.266   7.273   5.934 -0.2334  0.0622 -0.5840
 4509poe    c2319540   3.341   7.363   5.834  0.3246 -0.0335 -0.2525
 4509poe     o219541   3.310   7.499   5.852  0.2799 -0.0920  0.1289
 4509poe    c2319542   3.386   7.579   5.764 -0.1186 -0.1084 -0.2358
 4509poe    c2319543   3.307   7.702   5.715 -0.8930 -0.3733  0.3248
 4509poe     o219544   3.191   7.677   5.639 -0.6483 -0.5733  0.0139
 4509poe    c2319545   3.108   7.791   5.639  0.2801  0.1161 -0.0033
 4509poe    c2319546   2.975   7.760   5.568  0.4410 -0.1713 -0.1820
 4509poe     o219547   2.895   7.680   5.652  0.7203 -0.4755 -0.2001
 4509poe    c3119548   2.792   7.644   5.564  0.4523  0.1877 -0.1691
 4510poe    c3119549   3.835   0.071   4.551 -0.0346 -0.0678 -0.0560
 4510poe     o219550   3.781   0.102   4.425 -0.4682  0.2962  0.2203
 4510poe    c2319551   3.821   0.231   4.382  0.3672 -0.1032 -0.2212
 4510poe    c2319552   3.746   0.269   4.253  0.3195  0.7324  0.0494
 4510poe     o219553   3.766   0.174   4.151 -0.4803  0.4252  0.1677
 4510poe    c2319554   3.658   0.186   4.062 -0.1691 -0.0739 -0.2804
 4510poe    c2319555   3.697   0.110   3.933  0.0061 -0.4754  0.0096
 4510poe     o219556   3.797   0.171   3.856 -1.0835  0.3863 -0.7503
 4510poe    c2319557   3.843   0.086   3.753 -0.4789  0.4628 -0.5488
 4510poe    c2319558   3.930   0.158   3.649  0.0165 -0.0632 -0.5031
 4510poe     o219559   4.038   0.226   3.708 -0.0493 -0.1828 -0.2430
 4510poe    c3119560   4.121   0.273   3.604 -0.3585  0.7513 -0.0835
 4511poe    c3119561   3.413   7.208   7.161  0.4063 -0.3494 -0.3676
 4511poe     o219562   3.449   7.075   7.131 -0.0198 -0.4561 -0.4040
 4511poe    c2319563   3.386   6.990   7.224  0.1221  0.0133  0.1252
 4511poe    c2319564   3.410   6.844   7.181  0.2942  0.0591  0.0643
 4511poe     o219565   3.377   6.757   7.288  0.6132  0.0653  0.1685
 4511poe    c2319566   3.415   6.622   7.283 -0.3522 -0.1845 -0.8425
 4511poe    c2319567   3.565   6.586   7.285 -0.2734  0.1638  0.2495
 4511poe     o219568   3.629   6.641   7.397 -0.5613  0.2724  0.3618
 4511poe    c2319569   3.767   6.614   7.406 -0.5313  0.4140  0.3410
 4511poe    c2319570   3.839   6.698   7.513  0.3222  0.3583 -0.1772
 4511poe     o219571   3.957   6.637   7.560 -0.1721 -0.1603  0.4051
 4511poe    c3119572   4.072   6.715   7.537 -0.5444  0.1350 -0.4942
 4512poe    c3119573   2.998   4.325   3.857 -0.4497  0.7265  0.2453
 4512poe     o219574   3.014   4.272   3.987  0.5280  0.4341  0.0138
 4512poe    c2319575   3.010   4.132   3.997 -0.5622  0.4656  0.1539
 4512poe    c2319576   3.019   4.088   4.145 -0.3242  0.2482  0.0758
 4512poe     o219577   3.143   4.113   4.206 -0.5611  0.6786  0.3894
 4512poe    c2319578   3.124   4.110   4.346  0.0608  0.1646  0.4694
 4512poe    c2319579   3.261   4.117   4.416  0.6215 -0.8253 -0.4980
 4512poe     o219580   3.321   4.227   4.352  0.2164 -0.1066  0.3377
 4512poe    c2319581   3.453   4.262   4.389  0.4172 -0.5445  0.0410
 4512poe    c2319582   3.486   4.393   4.315  0.1906 -0.4438  0.1193
 4512poe     o219583   3.475   4.350   4.181  0.3362 -0.1030 -0.0021
 4512poe    c3119584   3.502   4.456   4.091  0.1220  0.2880  0.3886
 4513poe    c3119585   5.628   3.018   7.245  0.2244  0.2147  0.3048
 4513poe     o219586   5.613   3.141   7.178  0.1899  0.1608  0.2116
 4513poe    c2319587   5.539   3.126   7.059  0.5928 -0.1134 -0.0044
 4513poe    c2319588   5.567   3.255   6.981  0.3399 -0.0334  0.0365
 4513poe     o219589   5.704   3.259   6.947  0.1937  0.0028 -0.5578
 4513poe    c2319590   5.735   3.378   6.878 -0.0448 -0.0739 -0.8004
 4513poe    c2319591   5.884   3.413   6.890 -0.0858 -0.0768 -0.2274
 4513poe     o219592   5.906   3.435   7.027  0.0338  0.0227 -0.2623
 4513poe    c2319593   6.037   3.486   7.042 -0.1003  0.2123  0.2859
 4513poe    c2319594   6.066   3.513   7.191 -0.1768  0.3420  0.2777
 4513poe     o219595   6.086   3.394   7.264 -0.2640  0.2101  0.0864
 4513poe    c3119596   6.151   3.407   7.388  0.2968  0.4569 -0.2269
 4514poe    c3119597   2.491   7.497   2.181  0.1943  0.1160 -0.5829
 4514poe     o219598   2.446   7.390   2.100  0.0842 -0.5802  0.3693
 4514poe    c2319599   2.462   7.422   1.963 -0.0923  0.0140  0.4857
 4514poe    c2319600   2.398   7.321   1.867 -0.2284  0.5835 -0.0255
 4514poe     o219601   2.258   7.318   1.888 -0.2119  0.4188  0.0622
 4514poe    c2319602   2.191   7.251   1.784 -0.8022  0.9152  0.1172
 4514poe    c2319603   2.074   7.170   1.842 -0.3356  0.4059  0.3491
 4514poe     o219604   2.099   7.059   1.926 -0.2572  0.2814  0.1621
 4514poe    c2319605   1.970   7.031   1.977 -0.3303 -0.1059 -0.2310
 4514poe    c2319606   1.977   6.978   2.121 -0.4782  0.2966 -0.0753
 4514poe     o219607   2.037   7.071   2.207  0.1868  0.0190 -0.2365
 4514poe    c3119608   2.069   7.024   2.336 -0.2343  0.6821  0.1197
 4515poe    c3119609   5.013   1.391   5.245  0.3441 -0.5753  0.2174
 4515poe     o219610   5.063   1.523   5.237  0.1719 -0.4937  0.4688
 4515poe    c2319611   5.040   1.590   5.358 -0.1766  0.3432 -0.0551
 4515poe    c2319612   5.064   1.742   5.344  0.4594  0.2686  0.2161
 4515poe     o219613   5.196   1.790   5.338  0.5106  0.1123  0.0692
 4515poe    c2319614   5.205   1.931   5.327  0.2163  0.0651 -0.8756
 4515poe    c2319615   5.348   1.981   5.357  0.0618 -0.2066  0.3518
 4515poe     o219616   5.432   1.902   5.277 -0.0315  0.3392 -0.2949
 4515poe    c2319617   5.562   1.897   5.331 -0.0601 -0.0006 -0.2507
 4515poe    c2319618   5.656   1.832   5.228  0.1539  0.3998 -0.3117
 4515poe     o219619   5.643   1.692   5.239 -0.2932  0.4403 -0.3173
 4515poe    c3119620   5.718   1.629   5.137  0.3025 -0.2912  0.5600
 4516poe    c3119621   0.240   1.685   2.817 -0.5989  0.0854  0.1626
 4516poe     o219622   0.277   1.767   2.709  0.2114  0.0527  0.4105
 4516poe    c2319623   0.196   1.883   2.706  0.1189 -0.0235 -0.3467
 4516poe    c2319624   0.259   2.006   2.638 -0.3273  0.4744  0.1395
 4516poe     o219625   0.249   2.003   2.498  0.9107 -0.2637  0.0548
 4516poe    c2319626   0.246   2.129   2.434 -0.5347 -0.0675  0.4653
 4516poe    c2319627   0.217   2.118   2.283 -0.0712  0.1487  0.3578
 4516poe     o219628   0.329   2.066   2.214 -0.3597  0.1406 -0.1104
 4516poe    c2319629   0.328   2.125   2.087  0.1783  0.4712  0.0350
 4516poe    c2319630   0.368   2.033   1.970 -0.7290 -0.0107  0.0974
 4516poe     o219631   0.279   1.925   1.948 -0.6182 -0.1231  0.1970
 4516poe    c3119632   0.315   1.849   1.835  0.1381  0.5601 -0.0350
 4517poe    c3119633   7.104   4.490   0.416  0.0910 -0.4959 -0.2292
 4517poe     o219634   7.123   4.615   0.354 -0.4905 -0.2014  0.1681
 4517poe    c2319635   7.191   4.601   0.231 -0.5828  0.4798  0.0395
 4517poe    c2319636   7.185   4.737   0.159 -0.1430  0.4172 -0.1135
 4517poe     o219637   7.225   4.839   0.248  0.1931  0.1753  0.0136
 4517poe    c2319638   7.260   4.954   0.174 -0.1896  0.1713 -0.1737
 4517poe    c2319639   7.299   5.068   0.270 -0.4000 -0.1914  0.3539
 4517poe     o219640   7.413   5.022   0.339 -0.5721 -0.2400  0.6031
 4517poe    c2319641   7.458   5.117   0.433  0.4509 -0.1866  0.0696
 4517poe    c2319642   7.526   5.027   0.538  0.2391 -0.5048 -0.0641
 4517poe     o219643   7.429   4.963   0.618  0.0181  0.3189  0.3479
 4517poe    c3119644   7.437   5.006   0.751 -0.2234 -0.0956  0.5002
 4518poe    c3119645   5.221   1.494   5.922 -0.0534  0.1001  0.6765
 4518poe     o219646   5.280   1.379   5.980  0.1103 -0.1637  0.0019
 4518poe    c2319647   5.194   1.276   6.024 -0.0331  0.0894  0.3221
 4518poe    c2319648   5.270   1.172   6.108  0.3858  0.1431  0.0118
 4518poe     o219649   5.378   1.118   6.034 -0.2918 -0.5326 -0.5051
 4518poe    c2319650   5.461   1.049   6.125 -0.5698 -0.4959 -0.2216
 4518poe    c2319651   5.589   1.007   6.050  0.0861  0.5525  0.2926
 4518poe     o219652   5.653   1.107   5.975  0.4042  0.0076 -0.1673
 4518poe    c2319653   5.776   1.075   5.913  0.6378 -0.1020  0.3494
 4518poe    c2319654   5.828   1.179   5.813 -0.1641  0.0153  0.0471
 4518poe     o219655   5.747   1.179   5.698 -0.1939  0.2727  0.0668
 4518poe    c3119656   5.819   1.218   5.583 -0.0610  0.0487  0.0729
 4519poe    c3119657   3.010   1.566   5.141 -0.8747  0.2878 -0.1873
 4519poe     o219658   3.023   1.572   5.001 -0.2829  0.2305 -0.1353
 4519poe    c2319659   3.155   1.545   4.958 -0.2849  0.2188 -0.1338
 4519poe    c2319660   3.170   1.540   4.805 -0.6677  0.1905 -0.1709
 4519poe     o219661   3.159   1.671   4.753 -0.4079  0.0415 -0.6084
 4519poe    c2319662   3.236   1.695   4.637  0.5905  0.6237  0.1545
 4519poe    c2319663   3.149   1.721   4.513  0.4147 -0.0655  0.1236
 4519poe     o219664   3.073   1.613   4.465 -0.1626  0.3896 -0.0007
 4519poe    c2319665   3.034   1.642   4.332  0.3923  0.3512 -0.1756
 4519poe    c2319666   2.963   1.529   4.254  0.6528 -0.3279  0.5515
 4519poe     o219667   2.849   1.485   4.325 -0.1133  0.1337 -0.3677
 4519poe    c3119668   2.752   1.423   4.243 -0.2473  0.3657 -0.3865
 4520poe    c3119669   3.093   1.593   7.346  0.2189 -0.2985 -0.8476
 4520poe     o219670   2.952   1.593   7.348  0.2227 -0.1853 -0.0405
 4520poe    c2319671   2.911   1.620   7.480  0.1628 -0.3604 -0.0239
 4520poe    c2319672   2.765   1.570   7.490 -0.0747  0.3494  0.0921
 4520poe     o219673   2.668   1.654   7.433  0.1169  0.0683 -0.6582
 4520poe    c2319674   2.548   1.583   7.413 -0.2185  0.4432 -0.0229
 4520poe    c2319675   2.454   1.672   7.330 -0.1494  0.1954 -0.3710
 4520poe     o219676   2.464   1.808   7.365  0.3678  0.1560 -0.3597
 4520poe    c2319677   2.384   1.898   7.292  0.1605  0.2635 -0.0066
 4520poe    c2319678   2.453   1.956   7.166  0.0978  0.2303 -0.0557
 4520poe     o219679   2.578   2.010   7.201  0.0478 -0.1300  0.7043
 4520poe    c3119680   2.622   2.114   7.117 -0.5150 -0.6980 -0.3146
 4521poe    c3119681   2.489   4.440   1.135 -0.9207  0.5088 -0.5789
 4521poe     o219682   2.566   4.557   1.129  0.4383 -0.3426 -0.1423
 4521poe    c2319683   2.512   4.660   1.209  0.0635 -0.5286 -0.1594
 4521poe    c2319684   2.567   4.792   1.152 -0.5970 -0.2447 -0.1565
 4521poe     o219685   2.707   4.804   1.147 -0.6446  0.3218 -0.1405
 4521poe    c2319686   2.747   4.767   1.017  0.1385 -0.3840  0.2855
 4521poe    c2319687   2.900   4.788   1.009  0.0814 -0.0593  0.0009
 4521poe     o219688   2.945   4.921   1.012  0.1872 -0.0957  0.0455
 4521poe    c2319689   3.081   4.915   1.047  0.2107 -0.1101 -0.0465
 4521poe    c2319690   3.156   5.050   1.051 -0.1548  0.0883  0.2129
 4521poe     o219691   3.076   5.131   1.134 -0.4462  0.2678 -0.2366
 4521poe    c3119692   3.135   5.257   1.154  0.0943  0.0470 -0.4300
 4522poe    c3119693   3.905   0.700   6.285 -0.4951  0.2816  0.1072
 4522poe     o219694   3.776   0.686   6.341 -0.4658 -0.3948  0.0214
 4522poe    c2319695   3.751   0.767   6.454 -0.1065 -0.0534 -0.1417
 4522poe    c2319696   3.647   0.720   6.557 -0.0053  0.3472  0.1447
 4522poe     o219697   3.533   0.684   6.481 -0.0283  1.1536 -0.2177
 4522poe    c2319698   3.420   0.667   6.564  0.2399  0.2125 -0.0315
 4522poe    c2319699   3.310   0.619   6.467 -0.1618 -0.1995  0.6282
 4522poe     o219700   3.355   0.502   6.403  0.1969  0.0116  0.4976
 4522poe    c2319701   3.248   0.449   6.328  0.7268 -0.5553  0.1338
 4522poe    c2319702   3.289   0.316   6.261 -0.3461 -0.6752 -0.3149
 4522poe     o219703   3.407   0.345   6.189 -0.1832  0.1657  0.2732
 4522poe    c3119704   3.455   0.225   6.134 -0.7427  0.2388 -0.3760
 4523poe    c3119705   5.316   3.838   6.008 -0.5088 -0.2096  0.0663
 4523poe     o219706   5.288   3.956   6.080 -0.1232  0.0413 -0.1956
 4523poe    c2319707   5.405   4.036   6.081 -0.1828  0.1258 -0.0461
 4523poe    c2319708   5.380   4.138   6.194  0.1243 -0.0745  0.2046
 4523poe     o219709   5.248   4.181   6.168  0.2596  0.1105 -0.1838
 4523poe    c2319710   5.226   4.301   6.238 -0.3537  0.1631 -0.4623
 4523poe    c2319711   5.075   4.328   6.248 -0.3005  0.1872  0.3214
 4523poe     o219712   5.007   4.214   6.297 -0.4305  0.3223  0.4574
 4523poe    c2319713   5.009   4.198   6.437 -0.2117 -0.9084  0.3269
 4523poe    c2319714   4.897   4.103   6.484 -0.6939 -0.4855  0.0475
 4523poe     o219715   4.896   3.979   6.417 -0.0012 -0.6578  0.3523
 4523poe    c3119716   4.794   3.892   6.462 -0.4362 -0.0475  0.5568
 4524poe    c3119717   3.275   1.270   5.586 -0.6295  0.0431 -0.3328
 4524poe     o219718   3.294   1.253   5.725 -0.2542 -0.0256 -0.3904
 4524poe    c2319719   3.230   1.136   5.771 -0.3207  0.1978  0.0875
 4524poe    c2319720   3.190   1.163   5.918 -0.0836 -0.7505  0.3308
 4524poe     o219721   3.307   1.211   5.980 -0.2253 -0.3480  0.2877
 4524poe    c2319722   3.269   1.245   6.112  0.6567  0.3606  0.3679
 4524poe    c2319723   3.270   1.397   6.137  0.0813  0.3752  0.3017
 4524poe     o219724   3.392   1.441   6.081  0.1059  0.0666  0.1088
 4524poe    c2319725   3.458   1.522   6.175  0.0297  0.0869  0.1452
 4524poe    c2319726   3.433   1.672   6.146 -0.8652 -0.0398  0.2385
 4524poe     o219727   3.462   1.705   6.012 -0.6570 -0.3455  0.2061
 4524poe    c3119728   3.410   1.834   5.990 -0.3190 -0.2968 -0.3350
 4525poe    c3119729   3.206   4.137   0.624 -0.3355 -0.2225  0.2906
 4525poe     o219730   3.183   4.080   0.751  0.1189 -0.4329  0.2806
 4525poe    c2319731   3.172   3.939   0.760  0.8978 -0.4781  0.5393
 4525poe    c2319732   3.105   3.846   0.658  0.4578  0.5809 -0.1601
 4525poe     o219733   3.104   3.712   0.702  0.0513  0.5852 -0.1563
 4525poe    c2319734   2.971   3.672   0.731  0.1525  0.2941 -0.0959
 4525poe    c2319735   2.956   3.519   0.716  0.9382  0.2024 -0.0291
 4525poe     o219736   2.932   3.478   0.583 -0.4262  0.1740  0.2085
 4525poe    c2319737   2.867   3.354   0.599 -0.6737  0.2538 -0.1707
 4525poe    c2319738   2.865   3.279   0.464  0.2245  0.4728 -0.3134
 4525poe     o219739   2.985   3.207   0.453  0.1918  0.4005 -0.1981
 4525poe    c3119740   2.999   3.121   0.342 -0.1425  0.2893 -0.1545
 4526poe    c3119741   6.863   3.402   3.934  0.0568 -0.2011 -0.1228
 4526poe     o219742   6.779   3.295   3.898 -0.2088  0.1990 -0.7226
 4526poe    c2319743   6.681   3.340   3.808 -0.0386  0.0558 -0.9807
 4526poe    c2319744   6.567   3.248   3.762 -0.2913 -0.0279 -0.1965
 4526poe     o219745   6.600   3.130   3.692  0.1886  0.0548 -0.1097
 4526poe    c2319746   6.496   3.037   3.712  0.2277 -0.0241 -0.2773
 4526poe    c2319747   6.520   2.893   3.662 -0.2383 -0.3828  0.5083
 4526poe     o219748   6.636   2.853   3.731  0.0213  0.4724  0.5749
 4526poe    c2319749   6.670   2.719   3.706  0.2001  0.5747  0.2470
 4526poe    c2319750   6.778   2.679   3.808  0.0635 -0.1421  0.1200
 4526poe     o219751   6.877   2.780   3.807 -0.1550  0.0813  0.6208
 4526poe    c3119752   6.991   2.723   3.867 -0.2616  0.0107  0.7565
 4527poe    c3119753   4.204   4.023   6.456 -0.5312 -0.3738 -0.0157
 4527poe     o219754   4.256   3.892   6.464 -0.1493 -0.2085  0.2209
 4527poe    c2319755   4.291   3.841   6.337  0.8206  0.3761  0.2492
 4527poe    c2319756   4.253   3.695   6.309  0.3399  0.5597 -0.0500
 4527poe     o219757   4.316   3.649   6.191  0.3476  0.1181  0.1252
 4527poe    c2319758   4.311   3.508   6.183 -0.3228  0.1618 -0.2923
 4527poe    c2319759   4.350   3.447   6.047 -0.0169 -0.6586  0.1563
 4527poe     o219760   4.481   3.483   6.010 -0.2593 -0.2034 -0.2581
 4527poe    c2319761   4.517   3.414   5.892  0.4490 -0.5740  0.1745
 4527poe    c2319762   4.471   3.472   5.757  0.1525 -0.2741  0.4039
 4527poe     o219763   4.341   3.430   5.722  0.0428  0.3339  0.0619
 4527poe    c3119764   4.258   3.544   5.721 -0.0823  0.2387 -0.3497
 4528poe    c3119765   6.884   6.133   6.410  0.5567  0.4381  0.5710
 4528poe     o219766   6.778   6.213   6.363  0.2165 -0.1741  0.2748
 4528poe    c2319767   6.662   6.173   6.431 -0.1899  0.4437 -0.0514
 4528poe    c2319768   6.561   6.284   6.396 -0.8923 -0.1989 -0.0913
 4528poe     o219769   6.562   6.325   6.261  0.4319 -0.1716 -0.0800
 4528poe    c2319770   6.473   6.433   6.244 -0.0324 -0.5063  0.1926
 4528poe    c2319771   6.464   6.464   6.094 -0.0307 -0.3152  0.2315
 4528poe     o219772   6.598   6.481   6.052 -0.0426  0.2053  0.3984
 4528poe    c2319773   6.603   6.573   5.946 -0.4752  0.0924  0.2783
 4528poe    c2319774   6.731   6.538   5.867 -0.2188  0.4300  0.5409
 4528poe     o219775   6.737   6.404   5.825  0.3759  0.5948  0.0996
 4528poe    c3119776   6.861   6.374   5.764  0.0635  0.0705 -0.2952
 4529poe    c3119777   1.943   0.132   2.785  0.4389  0.1015 -0.5428
 4529poe     o219778   1.844   0.044   2.834 -0.0291  0.6450 -0.5022
 4529poe    c2319779   1.787  -0.033   2.731 -0.0515 -0.1243  0.0746
 4529poe    c2319780   1.747  -0.176   2.771  0.3909 -0.1829  0.3112
 4529poe     o219781   1.635  -0.197   2.853 -0.1685 -0.2215 -0.4496
 4529poe    c2319782   1.668  -0.164   2.986 -0.4062 -0.0060 -0.4413
 4529poe    c2319783   1.547  -0.171   3.080  0.0917 -0.1432  0.2002
 4529poe     o219784   1.457  -0.062   3.076  0.1493 -0.1083 -0.1048
 4529poe    c2319785   1.336  -0.096   3.140  0.2661  0.1269  0.2430
 4529poe    c2319786   1.322  -0.031   3.278  0.6794 -0.1113  0.3992
 4529poe     o219787   1.284   0.105   3.268  0.4307 -0.2074  0.0639
 4529poe    c3119788   1.304   0.175   3.388  0.2102 -0.1827  0.0869
 4530poe    c3119789   7.097   3.715   3.778  0.6971  0.0189 -0.3799
 4530poe     o219790   7.052   3.667   3.653 -0.3552  0.6951 -0.2791
 4530poe    c2319791   6.915   3.639   3.667 -0.1013 -0.3393  0.2187
 4530poe    c2319792   6.834   3.587   3.547  0.2845  0.1432 -0.2529
 4530poe     o219793   6.862   3.458   3.498 -0.3748 -0.2822  0.4633
 4530poe    c2319794   6.778   3.435   3.388  0.6740  0.2446 -0.4646
 4530poe    c2319795   6.835   3.304   3.330  0.4158 -0.0530 -0.0461
 4530poe     o219796   6.964   3.317   3.277  0.2411  0.5578 -0.3346
 4530poe    c2319797   6.994   3.218   3.180  0.2223  0.0813  0.1416
 4530poe    c2319798   7.117   3.276   3.107  0.0732  0.0184 -0.1581
 4530poe     o219799   7.228   3.280   3.194  0.2329  0.6002 -0.3884
 4530poe    c3119800   7.354   3.290   3.131  0.7182 -0.2141  0.4313
 4531poe    c3119801   6.643   4.814   7.181  0.6845 -0.3015  0.2211
 4531poe     o219802   6.622   4.677   7.153 -0.1708 -0.2511  0.5798
 4531poe    c2319803   6.681   4.637   7.032 -0.2201 -0.0619  0.4941
 4531poe    c2319804   6.666   4.485   7.016 -0.4249  0.0090 -0.0184
 4531poe     o219805   6.546   4.435   6.961 -0.1275 -0.0888 -0.5862
 4531poe    c2319806   6.545   4.294   6.973  0.6210 -0.0182  0.5093
 4531poe    c2319807   6.438   4.228   6.884  0.9671 -0.2569  0.2663
 4531poe     o219808   6.459   4.252   6.747  0.0099  0.4086  0.2270
 4531poe    c2319809   6.345   4.208   6.675  0.3888 -0.3065  0.0536
 4531poe    c2319810   6.355   4.250   6.527 -0.6281  0.1553  0.1112
 4531poe     o219811   6.373   4.390   6.528  0.3251  0.0397 -0.3082
 4531poe    c3119812   6.448   4.426   6.415  0.2841 -0.4149 -0.4829
 4532poe    c3119813   1.658   5.017   0.768  0.3478 -0.4687 -0.0983
 4532poe     o219814   1.623   5.049   0.635 -0.0060  0.6381  0.2468
 4532poe    c2319815   1.553   4.939   0.582  0.3153  0.4802  0.1482
 4532poe    c2319816   1.590   4.938   0.432  0.3915  0.3902  0.1679
 4532poe     o219817   1.570   5.064   0.373 -0.1945  0.1890 -0.0686
 4532poe    c2319818   1.581   5.044   0.233 -0.2790  0.0714 -0.0580
 4532poe    c2319819   1.515   5.163   0.162 -0.0918  0.0381 -0.2850
 4532poe     o219820   1.380   5.173   0.199 -0.1446  0.6579 -0.6236
 4532poe    c2319821   1.302   5.246   0.107 -0.4232  0.8908 -0.2081
 4532poe    c2319822   1.162   5.190   0.080 -0.2511  0.2621  0.1990
 4532poe     o219823   1.099   5.159   0.203  0.0549  0.1075  0.3170
 4532poe    c3119824   1.004   5.057   0.184  0.2237 -0.0806  0.4765
 4533poe    c3119825   4.665   2.257   7.361 -0.2316  0.2966 -0.5313
 4533poe     o219826   4.538   2.249   7.420 -0.0626 -0.8056 -0.2936
 4533poe    c2319827   4.521   2.124   7.482 -0.4407 -0.5760  0.0693
 4533poe    c2319828   4.529   2.134   7.636  0.1264 -0.0963  0.0108
 4533poe     o219829   4.433   2.213   7.703  0.2728 -0.0784  0.2011
 4533poe    c2319830   4.471   2.348   7.718 -0.0068 -0.0180  0.3609
 4533poe    c2319831   4.348   2.433   7.756 -0.3269 -0.3638  0.1086
 4533poe     o219832   4.281   2.441   7.632  0.2818  0.1107 -0.1972
 4533poe    c2319833   4.147   2.477   7.656  0.1632 -0.4983  0.0759
 4533poe    c2319834   4.054   2.409   7.553  0.0585  0.1571 -0.2644
 4533poe     o219835   4.041   2.270   7.566 -0.2510  0.2045 -0.0379
 4533poe    c3119836   3.944   2.207   7.484  0.0667 -0.1638 -0.1358
 4534poe    c3119837   4.879   5.066   0.103 -0.6918  0.3263 -0.4237
 4534poe     o219838   4.889   5.118   0.233 -0.4368  0.0318 -0.3231
 4534poe    c2319839   4.883   5.258   0.220 -0.0391  0.0500 -0.2990
 4534poe    c2319840   4.906   5.326   0.356 -0.5638 -0.7559  0.1977
 4534poe     o219841   5.035   5.342   0.410 -0.3885  0.0916 -0.4444
 4534poe    c2319842   5.143   5.403   0.343 -0.0915  0.0836  0.0131
 4534poe    c2319843   5.260   5.413   0.442 -0.2434  0.3262  0.1675
 4534poe     o219844   5.319   5.285   0.449  0.1611  0.5177  0.2562
 4534poe    c2319845   5.416   5.281   0.552  0.0408  0.3382  0.3622
 4534poe    c2319846   5.524   5.172   0.550 -0.2576  0.0454 -0.0455
 4534poe     o219847   5.490   5.039   0.582  0.0354 -0.0984 -0.3233
 4534poe    c3119848   5.589   4.947   0.542  0.5249  0.3597 -0.1789
 4535poe    c3119849   3.921   6.745   1.716  0.0662 -0.0823  0.2917
 4535poe     o219850   3.966   6.874   1.750  0.1170  0.1089 -0.4857
 4535poe    c2319851   4.064   6.912   1.656  0.2118 -0.0036 -0.4312
 4535poe    c2319852   4.107   7.060   1.668 -0.3722  0.1307  0.0500
 4535poe     o219853   3.996   7.144   1.645 -0.0388  0.6473  0.3113
 4535poe    c2319854   4.034   7.264   1.583  0.1328  0.4239 -0.0194
 4535poe    c2319855   3.917   7.355   1.542 -0.2954 -0.0100  0.2244
 4535poe     o219856   3.870   7.424   1.656 -0.5509 -0.0397  0.1374
 4535poe    c2319857   3.765   7.514   1.629 -0.3122  0.3298  0.4387
 4535poe    c2319858   3.803   7.663   1.614 -0.1742  0.2494  0.0039
 4535poe     o219859   3.688   7.743   1.604 -0.1314  0.2595 -0.4654
 4535poe    c3119860   3.626   7.788   1.723  0.3007 -0.0143 -0.1331
 4536poe    c3119861   2.681   7.299   1.073  0.2453  0.9098  0.1983
 4536poe     o219862   2.805   7.292   1.006 -0.1242  0.0491 -0.4120
 4536poe    c2319863   2.858   7.418   0.974 -0.3746  0.1714 -0.3475
 4536poe    c2319864   2.993   7.397   0.904 -0.2411 -0.1842  0.0179
 4536poe     o219865   3.090   7.318   0.969  0.1900  0.5405  0.2610
 4536poe    c2319866   3.208   7.297   0.895 -0.0602  0.3543 -0.0857
 4536poe    c2319867   3.328   7.240   0.974  0.0008 -0.3292 -0.6642
 4536poe     o219868   3.289   7.112   1.020  0.2157 -0.2239 -0.1873
 4536poe    c2319869   3.372   7.037   1.105 -0.2541  0.0936  0.5615
 4536poe    c2319870   3.346   6.885   1.106 -0.8592  0.1874 -0.2706
 4536poe     o219871   3.222   6.855   1.165 -0.6978  0.4612  0.2136
 4536poe    c3119872   3.215   6.725   1.219 -0.3557  0.2982 -0.1278
 4537poe    c3119873   1.247   3.141   6.573 -0.1193  0.2478 -0.4526
 4537poe     o219874   1.372   3.138   6.637 -0.3685 -0.2294  0.0188
 4537poe    c2319875   1.463   3.098   6.537 -0.3776 -0.2162  0.0054
 4537poe    c2319876   1.608   3.107   6.587 -0.3783  0.5378 -0.1142
 4537poe     o219877   1.641   3.029   6.700 -0.1920  0.5822 -0.1368
 4537poe    c2319878   1.780   3.028   6.721 -0.2778  0.3868  0.4238
 4537poe    c2319879   1.832   2.914   6.811 -0.3643 -0.3691 -0.4746
 4537poe     o219880   1.783   2.923   6.943  0.4843 -0.1237 -0.1630
 4537poe    c2319881   1.825   2.812   7.018 -0.0142 -0.3204 -0.1700
 4537poe    c2319882   1.730   2.766   7.131 -0.0418  0.1051 -0.0199
 4537poe     o219883   1.605   2.715   7.089 -0.4469  1.0076  0.0602
 4537poe    c3119884   1.542   2.650   7.197 -0.3373  0.1257 -0.3936
 4538poe    c3119885   1.224   6.810   1.576  0.4266  0.1151  0.0474
 4538poe     o219886   1.135   6.849   1.678  0.1406 -0.2150 -0.0749
 4538poe    c2319887   1.046   6.951   1.638  0.2999 -0.0724 -0.0677
 4538poe    c2319888   0.972   7.012   1.759 -0.1798 -0.4661 -0.1578
 4538poe     o219889   1.061   7.096   1.829 -0.4157 -0.6450  0.3568
 4538poe    c2319890   0.990   7.176   1.921 -0.4923  0.1398 -0.3735
 4538poe    c2319891   1.070   7.299   1.966  0.1959 -0.3485 -0.2566
 4538poe     o219892   1.179   7.272   2.051  0.1885  0.3096 -0.0359
 4538poe    c2319893   1.255   7.390   2.041 -0.3472  0.6031 -0.6943
 4538poe    c2319894   1.386   7.398   2.123 -0.5680 -0.4427 -0.2189
 4538poe     o219895   1.346   7.436   2.253 -0.1780  0.0801 -0.2488
 4538poe    c3119896   1.459   7.457   2.335 -0.2906  0.1426 -0.1092
 4539poe    c3119897   5.517   6.499   0.896 -0.4693  0.2711 -0.3870
 4539poe     o219898   5.467   6.539   0.770 -0.2688  0.6251 -0.3534
 4539poe    c2319899   5.509   6.674   0.766  0.9810  0.2603  0.1171
 4539poe    c2319900   5.520   6.711   0.617  0.2171 -0.0691 -0.0275
 4539poe     o219901   5.584   6.610   0.543 -1.0242 -0.5785 -0.4226
 4539poe    c2319902   5.616   6.662   0.416 -0.5339 -0.2792 -0.1787
 4539poe    c2319903   5.658   6.556   0.313 -0.2394 -0.2968 -0.0427
 4539poe     o219904   5.772   6.482   0.352  0.1892  0.1166 -0.5000
 4539poe    c2319905   5.827   6.434   0.231  0.1546  0.0782 -0.5004
 4539poe    c2319906   5.918   6.310   0.242 -0.3316 -0.2130  0.3315
 4539poe     o219907   5.845   6.190   0.253 -0.2843 -0.2704  0.0331
 4539poe    c3119908   5.912   6.072   0.217 -0.2889 -0.2751  0.0406
 4540poe    c3119909   5.065   5.116   5.610  0.3583 -0.4602  0.1239
 4540poe     o219910   5.170   5.151   5.521  0.1752  0.1790  0.1546
 4540poe    c2319911   5.297   5.135   5.580  0.2573  0.6650  0.1077
 4540poe    c2319912   5.357   4.994   5.589 -0.8233  0.2013  0.2501
 4540poe     o219913   5.410   4.959   5.462  0.5122 -0.1479  0.8813
 4540poe    c2319914   5.457   4.826   5.452 -0.3100 -0.4064  0.3740
 4540poe    c2319915   5.506   4.804   5.308 -0.1351  0.2119  0.3335
 4540poe     o219916   5.402   4.815   5.214 -0.0875 -0.0792  0.2448
 4540poe    c2319917   5.446   4.762   5.091  0.3301  0.4921  0.1437
 4540poe    c2319918   5.349   4.820   4.987  0.1808  0.0002  0.0050
 4540poe     o219919   5.352   4.961   4.981  0.0643 -0.0042 -0.1896
 4540poe    c3119920   5.241   5.007   4.908  0.1739 -0.0024 -0.3570
 4541poe    c3119921   3.190   4.723   2.012 -0.1623 -0.4243 -0.0603
 4541poe     o219922   3.204   4.744   1.874  0.3611  0.3819  0.1085
 4541poe    c2319923   3.272   4.630   1.826  0.0865  0.1753  0.2106
 4541poe    c2319924   3.311   4.657   1.680  0.0053 -0.3988  0.0823
 4541poe     o219925   3.195   4.661   1.601 -0.1913 -1.1381  0.3268
 4541poe    c2319926   3.227   4.623   1.469  0.0624  0.0938  0.0229
 4541poe    c2319927   3.102   4.648   1.383 -0.8013  0.8654  1.4595
 4541poe     o219928   3.005   4.546   1.395  0.4859 -0.5994 -0.0135
 4541poe    c2319929   2.931   4.523   1.278  0.3921  0.1217 -0.1004
 4541poe    c2319930   2.822   4.415   1.291  0.0858  0.4419 -0.0092
 4541poe     o219931   2.746   4.429   1.409  0.2087  0.3853  0.0763
 4541poe    c3119932   2.648   4.329   1.422  0.0121  0.5954  0.2136
 4542poe    c3119933   7.119   5.809   3.980  0.5280 -0.0340  0.0441
 4542poe     o219934   7.125   5.806   4.121 -0.2061 -0.0684  0.0827
 4542poe    c2319935   7.171   5.678   4.161 -0.1849 -0.1186 -0.1022
 4542poe    c2319936   7.216   5.658   4.306 -0.3294 -0.2296 -0.0733
 4542poe     o219937   7.118   5.654   4.407 -0.2331  0.3531  0.0455
 4542poe    c2319938   7.165   5.621   4.536 -0.4451 -1.0934 -0.2330
 4542poe    c2319939   7.036   5.614   4.619 -0.2108 -0.0832  0.2262
 4542poe     o219940   6.984   5.744   4.641  0.1887  0.0699  0.2683
 4542poe    c2319941   6.856   5.745   4.701  0.2717  0.3922  0.4442
 4542poe    c2319942   6.822   5.883   4.758  0.3693  0.5789  0.0528
 4542poe     o219943   6.888   5.927   4.875  0.2996  0.2824  0.2039
 4542poe    c3119944   6.812   6.020   4.950  0.4437  0.6168 -0.0629
 4543poe    c3119945   7.034   5.605   2.577 -0.1941  0.2456  0.9118
 4543poe     o219946   7.121   5.495   2.593  0.0220  0.2421 -0.1971
 4543poe    c2319947   7.227   5.534   2.678 -0.1556 -0.4720  0.3667
 4543poe    c2319948   7.351   5.443   2.681  0.2696  0.0705 -0.2585
 4543poe     o219949   7.312   5.313   2.722 -0.4638  0.2856 -0.2578
 4543poe    c2319950   7.431   5.238   2.723 -0.5821  0.1016 -0.0013
 4543poe    c2319951   7.404   5.087   2.728  0.4747 -0.0926  0.2334
 4543poe     o219952   7.320   5.045   2.623  0.5925  0.7073 -0.1884
 4543poe    c2319953   7.372   5.054   2.492  0.2208 -0.0051 -0.3917
 4543poe    c2319954   7.258   5.015   2.396 -0.1909  0.0320  0.0817
 4543poe     o219955   7.242   4.875   2.396  0.3293 -0.0289  0.0876
 4543poe    c3119956   7.180   4.823   2.281  0.0112 -0.2302  0.3467
 4544poe    c3119957   4.694   3.984   2.442  0.0521  0.4160  0.3608
 4544poe     o219958   4.789   3.977   2.546  0.1361 -0.5514  0.2213
 4544poe    c2319959   4.735   4.025   2.667 -0.1245  0.1192 -0.1600
 4544poe    c2319960   4.814   4.136   2.739  0.5864 -0.6184  0.2050
 4544poe     o219961   4.815   4.261   2.675  1.0089 -0.7044  0.0410
 4544poe    c2319962   4.824   4.367   2.767 -0.5071 -0.0948 -0.4751
 4544poe    c2319963   4.860   4.506   2.714  0.1758  0.1186  0.5098
 4544poe     o219964   4.997   4.500   2.679  0.2301 -0.4659  0.8253
 4544poe    c2319965   5.056   4.621   2.719 -0.1489  0.1317 -0.3752
 4544poe    c2319966   5.197   4.632   2.658  0.1095 -0.0453  0.1780
 4544poe     o219967   5.267   4.511   2.677  0.0032 -0.1907 -0.3317
 4544poe    c3119968   5.400   4.529   2.635  0.0936  0.1749  0.1007
 4545poe    c3119969   7.414   3.626   2.053  0.1981 -0.0311 -0.7437
 4545poe     o219970   7.463   3.534   2.148 -0.5214  0.1717 -0.1708
 4545poe    c2319971   7.457   3.598   2.274  0.2541  0.1162 -0.0999
 4545poe    c2319972   7.494   3.493   2.380  0.2207 -0.0112 -0.2137
 4545poe     o219973   7.599   3.412   2.333  0.5114 -0.0822  0.5499
 4545poe    c2319974   7.654   3.332   2.436  0.5262  0.0319  0.6312
 4545poe    c2319975   7.767   3.247   2.374 -0.0392 -0.3990  0.1788
 4545poe     o219976   7.725   3.167   2.266 -0.1382 -0.8373  0.5421
 4545poe    c2319977   7.824   3.074   2.229  0.2701 -0.4238  0.5982
 4545poe    c2319978   7.754   2.941   2.197 -0.4326  0.0659  0.0847
 4545poe     o219979   7.658   2.975   2.100 -0.4817  0.2266  0.1893
 4545poe    c3119980   7.572   2.863   2.093 -0.1631 -0.0090  0.0508
 4546poe    c3119981   0.595   3.269   6.050  0.1881  0.3879  0.3987
 4546poe     o219982   0.705   3.354   6.074  0.6414  0.0582 -0.4397
 4546poe    c2319983   0.819   3.273   6.090  0.3092 -0.4071 -0.4044
 4546poe    c2319984   0.923   3.319   6.195  0.5012 -0.1479 -0.7078
 4546poe     o219985   0.864   3.352   6.319  0.4672 -0.6850 -0.5805
 4546poe    c2319986   0.944   3.436   6.399 -0.3971 -0.6796  0.2939
 4546poe    c2319987   0.871   3.455   6.533  0.1423 -0.1029  0.5139
 4546poe     o219988   0.753   3.531   6.516  0.3158  0.0756  0.1088
 4546poe    c2319989   0.761   3.652   6.588 -0.0674  0.0102  0.2641
 4546poe    c2319990   0.665   3.766   6.551  0.3227  0.1902 -0.2137
 4546poe     o219991   0.532   3.728   6.582  0.2523  0.3684 -0.2972
 4546poe    c3119992   0.433   3.817   6.535 -0.5171 -0.3024  0.0505
 4547poe    c3119993   3.422   5.505   3.227 -0.4936  0.0264 -0.2091
 4547poe     o219994   3.523   5.469   3.318 -0.5343 -0.2435 -0.2706
 4547poe    c2319995   3.654   5.493   3.272 -0.5102 -0.0084 -0.0774
 4547poe    c2319996   3.747   5.482   3.395 -0.6489  0.1447  0.0403
 4547poe     o219997   3.757   5.350   3.442 -0.0309  0.0839 -0.2554
 4547poe    c2319998   3.682   5.346   3.562  0.5887  0.2152  0.1416
 4547poe    c2319999   3.732   5.217   3.628  0.5032 -0.0472 -0.3014
 4547poe     o220000   3.733   5.095   3.556 -0.1571 -0.0744 -0.2696
 4547poe    c2320001   3.621   5.032   3.499 -0.3170  0.7795 -0.9338
 4547poe    c2320002   3.652   4.905   3.417  0.0368  0.5767 -0.4890
 4547poe     o220003   3.740   4.938   3.313 -0.2151 -0.5751 -1.0911
 4547poe    c3120004   3.844   4.843   3.308  0.2370 -0.1234 -0.4710
 4548poe    c3120005   3.268   6.012   7.370 -0.3917  0.2719  0.4574
 4548poe     o220006   3.204   6.005   7.495  0.6404 -0.3550  0.9649
 4548poe    c2320007   3.136   5.883   7.519 -0.3918 -0.0261 -0.2219
 4548poe    c2320008   3.079   5.880   7.662 -0.2417 -0.0396 -0.1630
 4548poe     o220009   2.957   5.945   7.691  0.0064  0.2568  0.2267
 4548poe    c2320010   2.935   5.974   7.827  0.2168 -0.6288  0.4624
 4548poe    c2320011   2.806   6.052   7.858  0.4843  0.0923 -0.1983
 4548poe     o220012   2.802   6.180   7.798  0.6810  0.1854 -0.0105
 4548poe    c2320013   2.688   6.253   7.837  0.5733  0.2055 -0.3673
 4548poe    c2320014   2.686   6.388   7.763 -0.6495  0.3571 -0.0736
 4548poe     o220015   2.643   6.378   7.629  0.2964 -0.5306 -0.3207
 4548poe    c3120016   2.666   6.498   7.558  0.1976 -0.2351  0.1392
 4549poe    c3120017   5.930   4.109   6.009 -0.8421 -0.1284  0.2785
 4549poe     o220018   5.893   4.069   5.879  0.2760  0.8217 -0.3593
 4549poe    c2320019   5.770   4.116   5.829 -0.2003 -0.4152 -0.3950
 4549poe    c2320020   5.701   4.030   5.722 -0.1683 -0.3007 -0.5071
 4549poe     o220021   5.682   3.898   5.768  0.1580 -0.2318 -0.1736
 4549poe    c2320022   5.636   3.816   5.663  0.2783 -0.3543 -0.1314
 4549poe    c2320023   5.597   3.677   5.718 -0.2491  0.1048  0.6701
 4549poe     o220024   5.712   3.610   5.763 -0.2382 -0.5717 -0.3372
 4549poe    c2320025   5.683   3.486   5.823 -0.3068 -0.1971  0.4201
 4549poe    c2320026   5.794   3.462   5.926  0.0972 -0.8893 -0.1658
 4549poe     o220027   5.918   3.491   5.864  0.1111  0.0169  0.2729
 4549poe    c3120028   6.016   3.422   5.937  0.0843 -0.3747 -0.0602
 4550poe    c3120029   4.371   0.089   2.779  0.0079 -0.1158  0.6002
 4550poe     o220030   4.327   0.222   2.775 -0.0168 -0.1308  0.3912
 4550poe    c2320031   4.188   0.234   2.753  0.0357 -0.2087  0.0031
 4550poe    c2320032   4.149   0.382   2.774  0.0712 -0.2688  0.5207
 4550poe     o220033   4.274   0.435   2.737 -0.0438 -0.2468  0.1600
 4550poe    c2320034   4.266   0.576   2.741 -0.2155 -0.2484 -0.1261
 4550poe    c2320035   4.391   0.656   2.701 -0.2160 -0.0475  0.2706
 4550poe     o220036   4.493   0.627   2.794  0.1331  0.0230 -0.0869
 4550poe    c2320037   4.616   0.674   2.744  0.0074  0.3714 -0.0705
 4550poe    c2320038   4.744   0.639   2.822  0.4783  0.0058 -0.9840
 4550poe     o220039   4.776   0.503   2.800 -0.0931 -0.3826  0.4307
 4550poe    c3120040   4.891   0.468   2.874 -0.1155 -0.3035  0.5024
 4551poe    c3120041   3.617   1.400   0.757  1.0376  0.1734 -0.5781
 4551poe     o220042   3.604   1.387   0.617 -0.2360 -0.1647 -0.4392
 4551poe    c2320043   3.527   1.282   0.564 -0.3946 -0.2413 -0.0630
 4551poe    c2320044   3.468   1.317   0.426  0.2357  0.5410 -0.1366
 4551poe     o220045   3.557   1.311   0.317  0.3734  0.2852 -0.0112
 4551poe    c2320046   3.490   1.376   0.211  0.3252  0.3940  0.0866
 4551poe    c2320047   3.553   1.345   0.075  0.0350 -0.6714  0.1894
 4551poe     o220048   3.673   1.417   0.058 -0.4027  0.0070 -0.0859
 4551poe    c2320049   3.695   1.453  -0.076  0.4515 -0.1376  0.0047
 4551poe    c2320050   3.807   1.557  -0.092  0.1774  0.2043  0.2884
 4551poe     o220051   3.937   1.508  -0.068  0.0468 -0.2523  0.0764
 4551poe    c3120052   4.035   1.546  -0.163 -0.1290 -0.1938 -0.0824
 4552poe    c3120053   5.207   2.725   3.854 -1.1436 -0.5639  0.5421
 4552poe     o220054   5.280   2.613   3.807 -0.2067  0.3157 -0.1295
 4552poe    c2320055   5.407   2.659   3.767 -0.1949  0.1938 -0.2331
 4552poe    c2320056   5.452   2.647   3.621  0.1133 -0.2853 -0.1008
 4552poe     o220057   5.573   2.715   3.593 -0.3067  0.3699 -0.3412
 4552poe    c2320058   5.589   2.714   3.453 -0.0390 -0.3119 -0.3091
 4552poe    c2320059   5.733   2.761   3.425  0.0405 -0.3719  0.0013
 4552poe     o220060   5.772   2.894   3.451 -0.4106 -0.1767 -0.3083
 4552poe    c2320061   5.899   2.877   3.510 -0.5283  0.4456  0.1253
 4552poe    c2320062   5.874   2.896   3.661  0.3478  0.3583  0.2869
 4552poe     o220063   5.789   3.008   3.672 -0.0816  0.0589  0.0372
 4552poe    c3120064   5.749   3.015   3.807  0.0491  0.2841  0.0644
 4553poe    c3120065   0.777   5.261   0.976  0.0575  0.1038 -0.0860
 4553poe     o220066   0.780   5.129   0.929 -0.5133  0.0389  0.0510
 4553poe    c2320067   0.659   5.057   0.921 -0.6005  0.1819  0.0793
 4553poe    c2320068   0.676   4.923   0.846 -0.0997  0.1994  0.1567
 4553poe     o220069   0.738   4.820   0.920  0.3346  0.1597 -0.2615
 4553poe    c2320070   0.748   4.689   0.867 -0.1677  0.0950 -0.2012
 4553poe    c2320071   0.717   4.571   0.961 -0.1894  0.1646 -0.1207
 4553poe     o220072   0.810   4.554   1.065 -0.2748  0.1354 -0.0499
 4553poe    c2320073   0.779   4.436   1.137  0.0142  0.1056  0.0266
 4553poe    c2320074   0.847   4.307   1.088  0.1783  0.2056 -0.0106
 4553poe     o220075   0.973   4.300   1.150  0.2619  0.1112 -0.1899
 4553poe    c3120076   1.045   4.183   1.118  0.4144  0.2157 -0.2353
 4554poe    c3120077   0.140   6.470   2.805 -1.2130  0.3011 -0.8248
 4554poe     o220078   0.113   6.573   2.898 -0.2697 -0.4548  0.3168
 4554poe    c2320079  -0.026   6.594   2.913 -0.2140  0.0198  0.1909
 4554poe    c2320080  -0.054   6.690   3.030 -0.0321  0.1972  0.0890
 4554poe     o220081   0.013   6.632   3.140 -0.1214  0.9187  0.5274
 4554poe    c2320082  -0.012   6.712   3.253  0.3139  0.4424  0.9684
 4554poe    c2320083  -0.148   6.670   3.314 -0.2346  0.1838 -0.3945
 4554poe     o220084  -0.151   6.545   3.379 -0.1459  0.3537 -0.0594
 4554poe    c2320085  -0.264   6.473   3.336 -0.0023 -0.1286  0.3568
 4554poe    c2320086  -0.302   6.350   3.420 -0.2618 -0.4840 -0.2747
 4554poe     o220087  -0.336   6.390   3.551 -0.4748 -0.2090 -0.4142
 4554poe    c3120088  -0.456   6.328   3.591 -0.1459 -0.5065  0.1090
 4555poe    c3120089   0.507   1.687   4.350 -0.3941  0.2889 -0.8246
 4555poe     o220090   0.459   1.556   4.330 -0.2795  0.0536  0.4182
 4555poe    c2320091   0.334   1.568   4.267 -0.1554 -0.2377  0.1180
 4555poe    c2320092   0.202   1.577   4.346  0.0989  0.4882  0.4640
 4555poe     o220093   0.195   1.467   4.433 -0.3780 -0.0027 -0.1881
 4555poe    c2320094   0.086   1.485   4.520  0.2370 -0.3747  0.6817
 4555poe    c2320095   0.062   1.374   4.623 -0.0612 -0.0714  0.9421
 4555poe     o220096   0.024   1.255   4.557 -0.2703  0.4114  0.1905
 4555poe    c2320097  -0.010   1.156   4.651 -0.0267  0.3472  0.2141
 4555poe    c2320098   0.050   1.020   4.610  0.0071  0.3560  0.2346
 4555poe     o220099   0.190   1.009   4.623 -0.0638 -0.6038  0.2397
 4555poe    c3120100   0.234   0.887   4.568 -0.4516 -0.9215  0.6222
 4556poe    c3120101   6.511   1.991   6.018  0.3569 -0.1027  0.2952
 4556poe     o220102   6.575   2.115   5.995 -0.0824  0.2727  1.0447
 4556poe    c2320103   6.714   2.109   6.021  0.0010 -0.3194  0.5064
 4556poe    c2320104   6.780   2.248   6.024  0.2680 -0.4476  0.5755
 4556poe     o220105   6.755   2.339   6.129 -0.2987  0.1533 -0.0623
 4556poe    c2320106   6.819   2.462   6.102  0.1783 -0.1605 -0.3821
 4556poe    c2320107   6.861   2.547   6.223  0.0202 -0.1716 -0.3195
 4556poe     o220108   6.967   2.497   6.301  0.0263  0.4740  0.0985
 4556poe    c2320109   6.975   2.580   6.415  0.6784  0.6833 -0.0931
 4556poe    c2320110   7.072   2.509   6.512  0.1457  0.5148  0.3213
 4556poe     o220111   7.002   2.407   6.579 -0.2306  0.6282  0.1062
 4556poe    c3120112   7.027   2.408   6.718 -0.1488  0.7945  0.0897
 4557poe    c3120113   4.441   7.429   2.115  0.3754  0.4916  0.1271
 4557poe     o220114   4.390   7.506   2.222  0.4804  0.4336  0.2192
 4557poe    c2320115   4.286   7.436   2.285 -0.1126  0.3625 -0.8137
 4557poe    c2320116   4.199   7.510   2.389  0.0197 -0.1215 -0.3518
 4557poe     o220117   4.110   7.608   2.339  0.0595 -0.1039 -0.3891
 4557poe    c2320118   4.057   7.675   2.451  0.5202 -0.0678 -0.1909
 4557poe    c2320119   3.928   7.746   2.407  0.1468 -0.3861  0.3700
 4557poe     o220120   3.951   7.863   2.332  0.2471 -0.3136  0.5133
 4557poe    c2320121   3.910   7.981   2.397 -0.1673 -0.0791 -0.1574
 4557poe    c2320122   3.939   8.111   2.319  0.1266  0.3931  0.7217
 4557poe     o220123   4.062   8.106   2.250 -0.2836 -0.0192  0.0097
 4557poe    c3120124   4.107   8.238   2.226  0.4147 -0.2372  0.0947
 4558poe    c3120125   7.484   4.212   3.798 -0.0379  0.0178 -1.3846
 4558poe     o220126   7.620   4.243   3.818 -0.1924  0.3100 -0.7910
 4558poe    c2320127   7.705   4.147   3.761 -0.2867 -0.0182 -0.3837
 4558poe    c2320128   7.849   4.196   3.782 -0.3217  0.0532 -0.3131
 4558poe     o220129   7.906   4.178   3.909 -0.3287 -0.1169 -0.3345
 4558poe    c2320130   8.042   4.211   3.891 -0.3681  0.1207 -0.2033
 4558poe    c2320131   8.131   4.182   4.013 -0.5191 -0.8159 -0.3087
 4558poe     o220132   8.119   4.042   4.028 -0.4118 -0.8089 -0.1547
 4558poe    c2320133   8.206   3.999   4.130  0.2886  0.4117 -0.2097
 4558poe    c2320134   8.194   3.846   4.147  0.3290  0.3875 -0.3918
 4558poe     o220135   8.243   3.769   4.040  0.4174  0.0400 -0.1052
 4558poe    c3120136   8.206   3.635   4.059  0.4446  0.0700  0.1551
 4559poe    c3120137   2.465   0.328   2.501  0.2503 -0.1914  0.1405
 4559poe     o220138   2.522   0.413   2.403 -0.1748 -0.1381 -0.0655
 4559poe    c2320139   2.422   0.468   2.321 -0.4302 -0.0308  0.3130
 4559poe    c2320140   2.352   0.382   2.214  0.2597  0.5509 -0.6259
 4559poe     o220141   2.445   0.332   2.121  0.0814 -0.5931 -0.2016
 4559poe    c2320142   2.384   0.291   2.000 -0.9784  0.6577 -0.1110
 4559poe    c2320143   2.481   0.307   1.882 -0.5680 -0.5794  0.0482
 4559poe     o220144   2.595   0.226   1.901 -0.1775 -0.0193  0.0963
 4559poe    c2320145   2.700   0.260   1.813  0.1585  0.2015  0.5712
 4559poe    c2320146   2.803   0.149   1.838 -0.2853 -0.2876  0.2659
 4559poe     o220147   2.836   0.163   1.974 -0.4601  0.1615  0.2632
 4559poe    c3120148   2.919   0.059   2.021  0.0581  0.0283 -0.9066
 4560poe    c3120149   2.644   5.849   1.760  0.0637 -0.0516 -0.2455
 4560poe     o220150   2.681   5.941   1.860 -0.2762 -0.0432 -0.1275
 4560poe    c2320151   2.705   6.070   1.808 -0.1867  0.0626  0.1719
 4560poe    c2320152   2.694   6.176   1.919  0.3096  0.7085 -0.3894
 4560poe     o220153   2.759   6.137   2.038 -0.1590 -0.5701 -0.5386
 4560poe    c2320154   2.725   6.231   2.137  0.5217 -0.0994 -0.7387
 4560poe    c2320155   2.764   6.179   2.276  0.0871 -0.2706 -0.6775
 4560poe     o220156   2.901   6.144   2.270  0.1987 -0.1322  0.6818
 4560poe    c2320157   2.947   6.063   2.375  0.4641 -0.4444  0.3281
 4560poe    c2320158   3.092   6.036   2.331  0.6077  0.5156  0.2021
 4560poe     o220159   3.107   5.987   2.199 -0.3293  0.6440  0.0391
 4560poe    c3120160   3.224   5.911   2.180 -0.7074  0.0364  0.0854
 4561poe    c3120161   0.577   2.012   2.735  0.0725 -0.2172  0.3311
 4561poe     o220162   0.607   2.137   2.677  0.6111 -0.4134  0.1756
 4561poe    c2320163   0.544   2.247   2.738  0.0323 -0.3727 -0.4799
 4561poe    c2320164   0.643   2.365   2.738 -0.6605  0.2211 -0.3564
 4561poe     o220165   0.717   2.351   2.618 -0.3978 -0.2492 -0.1422
 4561poe    c2320166   0.800   2.461   2.592 -0.4836 -0.1859 -0.1483
 4561poe    c2320167   0.844   2.456   2.445  0.4145 -0.4435  0.1206
 4561poe     o220168   0.867   2.320   2.414 -0.0296 -0.4428 -0.2347
 4561poe    c2320169   0.955   2.307   2.304  0.1119  0.7231 -0.2761
 4561poe    c2320170   0.988   2.168   2.246 -0.5850  0.3036  0.3125
 4561poe     o220171   0.869   2.109   2.200 -0.3773 -0.2201  0.4484
 4561poe    c3120172   0.896   1.992   2.127  0.3994  0.3332 -0.1584
 4562poe    c3120173   7.268   1.486   4.236 -0.2031  0.1015  0.1094
 4562poe     o220174   7.260   1.457   4.098 -0.1247 -0.0355  0.1336
 4562poe    c2320175   7.185   1.339   4.084  0.2268 -0.2933  0.3782
 4562poe    c2320176   7.201   1.240   3.967 -0.0662 -0.2215  0.2760
 4562poe     o220177   7.329   1.186   3.945 -0.1704 -0.4763  0.2871
 4562poe    c2320178   7.339   1.145   3.811  0.2951  0.5055  0.0148
 4562poe    c2320179   7.469   1.070   3.778 -0.1680 -0.4980  0.4477
 4562poe     o220180   7.570   1.168   3.772  0.0722 -0.7556  0.1950
 4562poe    c2320181   7.679   1.107   3.708 -0.0598 -0.2151 -0.5522
 4562poe    c2320182   7.810   1.163   3.767 -0.1421 -0.5018 -0.0981
 4562poe     o220183   7.817   1.127   3.903 -0.3248 -0.1578  0.0029
 4562poe    c3120184   7.934   1.171   3.968 -0.0708 -0.4228 -0.2725
 4563poe    c3120185   4.517   4.127   4.876 -0.2226  0.3767  0.0346
 4563poe     o220186   4.654   4.124   4.911 -0.2405 -0.7068  0.0593
 4563poe    c2320187   4.721   4.014   4.855  0.0279 -0.3555 -0.3191
 4563poe    c2320188   4.861   4.014   4.919 -0.0381  0.1902 -0.1687
 4563poe     o220189   4.907   4.146   4.911 -0.3952  0.3096 -0.2969
 4563poe    c2320190   5.043   4.151   4.948 -0.1765 -0.1551 -1.0313
 4563poe    c2320191   5.124   4.282   4.950 -0.0946 -0.2163  0.5458
 4563poe     o220192   5.039   4.384   4.998 -0.2380  0.1156 -0.3841
 4563poe    c2320193   5.121   4.496   5.020  0.0766 -0.2639  0.4399
 4563poe    c2320194   5.056   4.614   5.095 -0.2259 -0.1158 -0.0507
 4563poe     o220195   4.963   4.672   5.007 -0.1087  0.2219  0.0475
 4563poe    c3120196   4.880   4.762   5.078 -0.3245 -0.0112  0.0905
 4564poe    c3120197   3.381   7.433   6.807  0.0224  0.3849  0.4754
 4564poe     o220198   3.308   7.512   6.715 -0.2893  0.2800  0.6325
 4564poe    c2320199   3.386   7.624   6.681  0.1690 -0.2576 -0.1142
 4564poe    c2320200   3.333   7.750   6.751  0.5747 -0.0391 -0.1949
 4564poe     o220201   3.193   7.737   6.737  0.6126  0.1550 -0.8136
 4564poe    c2320202   3.122   7.858   6.746 -0.0075 -0.2367 -0.3645
 4564poe    c2320203   2.969   7.843   6.747 -0.0001 -0.3103 -0.2983
 4564poe     o220204   2.913   7.807   6.622 -0.2998 -0.4168 -0.1346
 4564poe    c2320205   2.775   7.836   6.608 -0.2151  0.0997  0.0608
 4564poe    c2320206   2.680   7.721   6.647  0.1688  0.1123  1.0830
 4564poe     o220207   2.689   7.622   6.547 -0.2825 -0.0134  1.1606
 4564poe    c3120208   2.768   7.509   6.577  0.1111 -0.1545 -0.3333
 4565poe    c3120209   6.467   4.431   3.879  0.1523  0.0516  0.0664
 4565poe     o220210   6.513   4.557   3.834  0.8178 -0.1827  0.0866
 4565poe    c2320211   6.555   4.550   3.700 -0.1714 -0.3863 -0.2172
 4565poe    c2320212   6.562   4.691   3.637 -0.7838 -0.1032  0.3341
 4565poe     o220213   6.492   4.773   3.727 -0.1932  0.0475  0.6693
 4565poe    c2320214   6.529   4.908   3.708  0.0860 -0.1199 -0.0097
 4565poe    c2320215   6.432   4.991   3.793  0.0719 -0.2303  0.0820
 4565poe     o220216   6.412   4.941   3.924 -0.1548 -0.0131  0.1327
 4565poe    c2320217   6.357   5.034   4.014  0.2594  0.1419  0.2281
 4565poe    c2320218   6.370   4.999   4.163 -0.3378 -0.2954  0.1794
 4565poe     o220219   6.332   4.873   4.214  0.3601 -0.3698  0.5260
 4565poe    c3120220   6.296   4.872   4.351 -0.2940 -0.1116  0.3568
 4566poe    c3120221   5.877   0.567   3.072 -0.0583 -0.3293  0.3268
 4566poe     o220222   5.954   0.596   2.958 -0.6158  0.5411  0.1630
 4566poe    c2320223   6.036   0.706   2.991  0.1368 -0.0664  0.3431
 4566poe    c2320224   6.081   0.776   2.862 -0.0227  0.3734  0.5267
 4566poe     o220225   5.963   0.801   2.788  0.4577  0.4294 -0.2282
 4566poe    c2320226   5.990   0.874   2.670 -0.5486  0.4075 -0.4757
 4566poe    c2320227   5.994   0.782   2.546  0.2540 -0.5691  0.2564
 4566poe     o220228   5.872   0.713   2.532  0.1065 -0.2683  0.0228
 4566poe    c2320229   5.861   0.659   2.403  0.1654 -0.1525 -0.0303
 4566poe    c2320230   5.820   0.511   2.402 -0.0820 -0.0856 -0.6714
 4566poe     o220231   5.709   0.478   2.484  0.8539 -0.5452  0.4471
 4566poe    c3120232   5.689   0.339   2.474 -0.2242 -0.3620 -0.1878
 4567poe    c3120233   2.993   1.202   1.357  0.3787 -0.2947 -0.4900
 4567poe     o220234   3.039   1.326   1.309 -0.1537 -0.0821 -0.4667
 4567poe    c2320235   3.105   1.316   1.184  0.5471  0.4123 -0.1421
 4567poe    c2320236   3.169   1.445   1.128 -0.0991  0.7017 -0.2259
 4567poe     o220237   3.305   1.458   1.163  0.0415 -0.1875 -0.4067
 4567poe    c2320238   3.345   1.582   1.108 -0.3070 -0.0362 -0.3223
 4567poe    c2320239   3.494   1.610   1.133 -0.3564 -0.4368  0.4520
 4567poe     o220240   3.527   1.622   1.269  0.1269  0.2312  0.2802
 4567poe    c2320241   3.648   1.692   1.291  0.3242 -0.0733  0.1695
 4567poe    c2320242   3.735   1.624   1.397  0.2612 -0.0345  0.2468
 4567poe     o220243   3.795   1.512   1.334 -0.5321 -0.3828  0.0981
 4567poe    c3120244   3.836   1.417   1.430 -0.1227 -0.2424  0.0637
 4568poe    c3120245   4.626   0.254   4.390  0.4945 -0.3648 -0.3008
 4568poe     o220246   4.507   0.204   4.333  0.0695 -0.1836  0.4203
 4568poe    c2320247   4.415   0.311   4.331  0.3136  0.0203 -0.1991
 4568poe    c2320248   4.272   0.255   4.342  0.2103  0.3228 -0.0248
 4568poe     o220249   4.243   0.187   4.222  0.1089 -0.3577  0.3848
 4568poe    c2320250   4.130   0.104   4.237 -0.3750  0.3415  0.6267
 4568poe    c2320251   4.102   0.039   4.100  0.4280 -0.4607  0.8348
 4568poe     o220252   4.216  -0.020   4.043  0.1193 -0.2321 -0.0283
 4568poe    c2320253   4.196  -0.116   3.941 -0.5798  0.2627 -0.3682
 4568poe    c2320254   4.326  -0.175   3.882 -0.1287  0.8666  0.0022
 4568poe     o220255   4.416  -0.067   3.874  0.0229  0.7116 -0.3999
 4568poe    c3120256   4.537  -0.090   3.806  0.0944  0.4369 -0.1805
 4569poe    c3120257   1.628   2.047   4.144  0.2926  0.3914  0.6099
 4569poe     o220258   1.738   1.958   4.146  0.0910  0.0957 -0.4705
 4569poe    c2320259   1.694   1.830   4.109  0.0222 -0.1891  0.5558
 4569poe    c2320260   1.678   1.707   4.200  0.2825 -0.0136  0.8388
 4569poe     o220261   1.808   1.672   4.241  0.5027  0.2687  0.3843
 4569poe    c2320262   1.856   1.556   4.179  0.2663  0.4684 -0.1728
 4569poe    c2320263   1.985   1.498   4.239  0.0385  0.5580  0.4124
 4569poe     o220264   2.107   1.552   4.191  0.1297  0.0163  0.0190
 4569poe    c2320265   2.220   1.488   4.245 -0.3250 -0.2354  0.6825
 4569poe    c2320266   2.265   1.358   4.176 -0.1750  0.2307 -0.1091
 4569poe     o220267   2.207   1.246   4.239 -0.0708  0.1476 -0.1620
 4569poe    c3120268   2.234   1.119   4.183  0.0631  0.1443 -0.0907
 4570poe    c3120269   4.803   1.051   5.603 -0.6096 -0.3904 -0.0856
 4570poe     o220270   4.708   1.104   5.513 -0.0461 -0.3164 -0.6455
 4570poe    c2320271   4.726   1.244   5.524 -0.2872 -0.3031 -0.4179
 4570poe    c2320272   4.642   1.316   5.417  0.0152  0.5433 -0.0946
 4570poe     o220273   4.509   1.312   5.464  0.0313  0.8426 -0.0252
 4570poe    c2320274   4.414   1.386   5.389 -0.2763  0.2126 -0.2642
 4570poe    c2320275   4.415   1.540   5.396 -1.1320  0.2371 -0.5553
 4570poe     o220276   4.393   1.602   5.521  0.3113 -0.0496 -0.1317
 4570poe    c2320277   4.442   1.733   5.506  0.2814 -0.0722 -0.4487
 4570poe    c2320278   4.393   1.817   5.625  0.3475 -0.7230  0.0474
 4570poe     o220279   4.255   1.831   5.650  0.4450  0.6761 -0.1046
 4570poe    c3120280   4.225   1.905   5.766 -0.1979 -0.1054  0.2416
 4571poe    c3120281   5.010   2.691   3.467 -0.4096 -0.4888 -0.1706
 4571poe     o220282   5.097   2.580   3.457 -0.1721 -0.3199  0.0008
 4571poe    c2320283   5.187   2.617   3.355 -0.5535  0.0699 -0.2035
 4571poe    c2320284   5.255   2.498   3.284 -0.2490  0.0304  0.1520
 4571poe     o220285   5.360   2.449   3.365 -0.5203 -0.3752  0.2579
 4571poe    c2320286   5.431   2.346   3.301 -0.3916 -0.0087 -0.1855
 4571poe    c2320287   5.554   2.282   3.368 -0.3321 -0.0840 -0.3641
 4571poe     o220288   5.653   2.380   3.392 -0.7206  0.2286 -0.0172
 4571poe    c2320289   5.778   2.316   3.412 -0.8423  0.2124  0.7299
 4571poe    c2320290   5.868   2.387   3.515 -0.1362  0.2983  0.0618
 4571poe     o220291   5.853   2.352   3.651  0.2143 -0.3072 -0.0514
 4571poe    c3120292   5.932   2.440   3.728 -0.3234  0.0641  0.0794
 4572poe    c3120293   5.728   0.114   0.782  0.5269  1.2630 -0.3392
 4572poe     o220294   5.868   0.118   0.795  0.6199 -0.5838 -0.4681
 4572poe    c2320295   5.922   0.145   0.667  0.0340 -0.5039 -0.7014
 4572poe    c2320296   6.034   0.247   0.697 -0.3858 -0.2875  0.1687
 4572poe     o220297   5.983   0.376   0.720 -0.6961 -0.4202  0.2300
 4572poe    c2320298   6.101   0.452   0.727 -0.8092 -0.1496 -0.6824
 4572poe    c2320299   6.067   0.601   0.742 -0.0970 -0.0530  0.0546
 4572poe     o220300   6.013   0.643   0.866  0.1035 -0.2336  0.2031
 4572poe    c2320301   6.015   0.782   0.887  0.0400 -0.2357  0.2240
 4572poe    c2320302   5.913   0.808   0.999 -0.5288  0.1564 -0.3752
 4572poe     o220303   5.955   0.739   1.115 -0.2456  0.4873 -0.2786
 4572poe    c3120304   5.952   0.830   1.222  0.1485 -0.0561  0.1968
 4573poe    c3120305   2.215   5.194   3.577  0.4102  0.0727 -0.3068
 4573poe     o220306   2.186   5.180   3.440  0.8905 -0.3020 -0.3715
 4573poe    c2320307   2.200   5.301   3.369 -0.2803  0.1469  0.1320
 4573poe    c2320308   2.121   5.280   3.239  0.2236 -0.2734 -0.1105
 4573poe     o220309   2.176   5.181   3.155  0.1612 -0.1744 -0.2665
 4573poe    c2320310   2.128   5.218   3.027 -0.0687  0.0375 -0.1190
 4573poe    c2320311   2.108   5.091   2.943 -0.0265  0.3009 -0.5294
 4573poe     o220312   2.237   5.042   2.917 -0.1714  0.0960 -0.8746
 4573poe    c2320313   2.237   4.947   2.813 -0.4073 -0.8695 -0.0110
 4573poe    c2320314   2.370   4.963   2.737 -0.4304  0.2042  0.1648
 4573poe     o220315   2.486   4.944   2.815 -0.1296 -0.2843 -0.3975
 4573poe    c3120316   2.596   4.970   2.730 -0.1860  0.5914 -0.2096
 4574poe    c3120317   2.605   4.467   6.303  0.0842  0.5410  0.1170
 4574poe     o220318   2.637   4.597   6.258  0.3426  0.3972 -0.1204
 4574poe    c2320319   2.777   4.617   6.250  0.4591 -0.2727  0.1142
 4574poe    c2320320   2.850   4.672   6.374  0.2541  0.2577  0.0055
 4574poe     o220321   2.831   4.811   6.375 -0.8304  0.1255 -0.5484
 4574poe    c2320322   2.868   4.875   6.496 -0.4617  0.0489 -0.6198
 4574poe    c2320323   2.971   4.984   6.460 -0.2046 -0.2721 -0.8547
 4574poe     o220324   2.929   5.087   6.374 -0.4080  0.3783  0.0181
 4574poe    c2320325   2.952   5.081   6.235 -0.6103 -0.1144  0.0060
 4574poe    c2320326   2.862   5.190   6.175  0.1928  0.3629 -0.3537
 4574poe     o220327   2.920   5.318   6.188  0.6241  0.1051  0.3149
 4574poe    c3120328   2.835   5.416   6.133  0.2643 -0.2627  0.2044
 4575poe    c3120329   5.784   2.137   3.945 -0.4415  0.3701 -0.2601
 4575poe     o220330   5.679   2.044   3.944 -0.3245  0.2355 -0.0136
 4575poe    c2320331   5.719   1.914   3.906 -0.3082  0.0746  0.5413
 4575poe    c2320332   5.595   1.822   3.902 -0.0653 -0.2294 -0.3798
 4575poe     o220333   5.532   1.849   4.025 -0.1289 -0.4414 -0.3657
 4575poe    c2320334   5.407   1.786   4.010 -0.3209 -0.1813  0.0883
 4575poe    c2320335   5.328   1.800   4.141 -0.5778  0.4156 -0.1267
 4575poe     o220336   5.324   1.935   4.181 -0.3182  0.6895 -1.0029
 4575poe    c2320337   5.287   1.938   4.317 -0.4096 -0.2837 -1.0010
 4575poe    c2320338   5.220   2.073   4.352  0.0007 -0.4141  0.3504
 4575poe     o220339   5.118   2.120   4.267  0.3794  0.1107  0.1826
 4575poe    c3120340   5.077   2.239   4.328 -0.5972  0.0316 -0.3076
 4576poe    c3120341   6.044   3.230   3.727 -0.3003  0.3257  0.0162
 4576poe     o220342   6.013   3.367   3.740 -0.7223  0.2218  0.1426
 4576poe    c2320343   6.080   3.430   3.632 -0.1210  0.3722  0.5958
 4576poe    c2320344   6.085   3.582   3.656  0.3908  0.5902 -0.7940
 4576poe     o220345   5.950   3.619   3.675  0.1893 -0.5069  0.0332
 4576poe    c2320346   5.947   3.744   3.740  0.0539 -0.6224  0.2535
 4576poe    c2320347   5.795   3.768   3.738  0.1580  0.0400 -0.7249
 4576poe     o220348   5.744   3.644   3.783  0.0112  0.1879 -0.4811
 4576poe    c2320349   5.606   3.646   3.810  0.1175  0.0676  0.0833
 4576poe    c2320350   5.555   3.727   3.931  0.2771  0.1261  0.1110
 4576poe     o220351   5.592   3.678   4.058 -0.1228  0.1954  0.2549
 4576poe    c3120352   5.521   3.568   4.109  0.5925 -0.0897  0.6448
 4577poe    c3120353   0.495   3.265   3.850 -0.0479  0.5945  1.0066
 4577poe     o220354   0.387   3.191   3.903  0.0644 -0.0960  0.2792
 4577poe    c2320355   0.310   3.269   3.991  0.1611 -0.1795  0.4382
 4577poe    c2320356   0.194   3.203   4.068  0.0943 -0.7480 -0.1442
 4577poe     o220357   0.070   3.196   4.001  0.0383 -0.0797 -0.1116
 4577poe    c2320358  -0.050   3.191   4.075  0.0448  0.0698 -0.0890
 4577poe    c2320359  -0.179   3.236   4.003 -0.0497  0.0258  0.0528
 4577poe     o220360  -0.207   3.154   3.892 -0.3896  0.0676  0.1073
 4577poe    c2320361  -0.335   3.179   3.839 -0.1242  0.1134 -0.5328
 4577poe    c2320362  -0.347   3.101   3.707  0.3613 -1.0723  0.1111
 4577poe     o220363  -0.248   3.114   3.607  0.2950 -0.2038  0.1519
 4577poe    c3120364  -0.257   3.011   3.511 -0.5394 -0.2042  0.2177
 4578poe    c3120365   3.943   6.877   4.116  0.0265 -0.0913 -0.5068
 4578poe     o220366   4.072   6.885   4.059  0.2450  0.2143  0.0241
 4578poe    c2320367   4.167   6.861   4.159 -0.3691 -0.4321  0.4650
 4578poe    c2320368   4.280   6.770   4.107  0.3361  0.4650  0.4042
 4578poe     o220369   4.310   6.821   3.979  0.5509 -0.0680  0.2416
 4578poe    c2320370   4.391   6.734   3.904  0.4902 -0.0834  0.1949
 4578poe    c2320371   4.449   6.816   3.788  0.2300 -0.2192 -0.0333
 4578poe     o220372   4.339   6.875   3.722  0.2678 -0.4817 -0.3365
 4578poe    c2320373   4.398   6.966   3.632 -0.2994 -0.2759 -0.5002
 4578poe    c2320374   4.301   7.013   3.522  0.0127 -0.0494 -0.6794
 4578poe     o220375   4.214   7.098   3.594 -0.0515 -0.6851 -0.0002
 4578poe    c3120376   4.158   7.202   3.517 -0.0823 -0.6491  0.0700
 4579poe    c3120377   0.956   0.405   3.504 -0.2234  0.1067 -0.3048
 4579poe     o220378   0.832   0.338   3.509  0.1143 -0.5247 -0.2547
 4579poe    c2320379   0.730   0.435   3.522  0.1337 -0.4885 -0.3638
 4579poe    c2320380   0.593   0.366   3.533  0.3160 -0.7619  0.2889
 4579poe     o220381   0.596   0.260   3.441 -0.1141 -0.0838 -0.5241
 4579poe    c2320382   0.470   0.196   3.432 -0.2077 -0.0685  0.5632
 4579poe    c2320383   0.485   0.092   3.320  0.1858  0.1394  0.4189
 4579poe     o220384   0.593   0.005   3.344  0.0502 -0.0091  0.4969
 4579poe    c2320385   0.591  -0.100   3.250  0.0061  0.2623  0.1927
 4579poe    c2320386   0.718  -0.188   3.247  0.1163  0.4249  0.0296
 4579poe     o220387   0.837  -0.123   3.208 -0.0375  0.3651 -0.5340
 4579poe    c3120388   0.944  -0.211   3.230 -0.4516  0.0896  0.4373
 4580poe    c3120389   7.042   6.107   5.971 -0.0622  0.3017  0.5773
 4580poe     o220390   6.944   6.023   6.028  0.0176 -0.0051  0.2638
 4580poe    c2320391   6.919   5.909   5.949  0.3542 -0.0953  0.2879
 4580poe    c2320392   6.929   5.775   6.023  0.3321 -0.4337 -0.3198
 4580poe     o220393   7.064   5.738   6.038  0.3432 -0.3171 -0.1424
 4580poe    c2320394   7.105   5.775   6.168  0.5927 -0.4588 -0.1800
 4580poe    c2320395   7.234   5.706   6.215  0.4511 -0.4344  0.2491
 4580poe     o220396   7.226   5.565   6.216  0.0066 -0.4090  0.3816
 4580poe    c2320397   7.354   5.509   6.240  0.2930  0.0343 -0.0914
 4580poe    c2320398   7.344   5.355   6.238  0.4086  0.0287 -0.1674
 4580poe     o220399   7.277   5.306   6.125  0.0627  0.2168 -0.0446
 4580poe    c3120400   7.283   5.166   6.119 -0.0118  0.2210 -0.2410
 4581poe    c3120401   0.691   3.287   4.356 -0.3216 -0.7010 -0.0170
 4581poe     o220402   0.805   3.243   4.286 -0.1110  0.2824 -0.3132
 4581poe    c2320403   0.871   3.147   4.366 -0.0923  0.8069  0.3114
 4581poe    c2320404   1.008   3.109   4.307 -0.2103  0.3853  0.3012
 4581poe     o220405   1.010   3.063   4.174  0.2543 -0.1897  0.5064
 4581poe    c2320406   1.134   3.048   4.107 -0.2991  0.1037 -0.6152
 4581poe    c2320407   1.218   3.172   4.072 -0.2296  0.1964 -0.1287
 4581poe     o220408   1.143   3.272   4.009 -0.3013  0.0619 -0.2571
 4581poe    c2320409   1.227   3.384   3.989 -0.4323  0.2422  0.2027
 4581poe    c2320410   1.237   3.421   3.840 -0.6005 -1.0242 -0.1337
 4581poe     o220411   1.312   3.332   3.761 -0.3682 -0.3613 -0.6732
 4581poe    c3120412   1.450   3.354   3.778 -0.4963 -0.2115  0.2201
 4582poe    c3120413   0.764   3.118   2.577 -0.4122  0.2957  0.2757
 4582poe     o220414   0.779   3.002   2.656 -0.3172  0.2534  0.1956
 4582poe    c2320415   0.672   3.012   2.748 -0.1026  0.8026  0.3948
 4582poe    c2320416   0.628   2.875   2.804  0.5147  0.5425  0.2580
 4582poe     o220417   0.725   2.802   2.875  0.2705 -0.3308 -0.2986
 4582poe    c2320418   0.691   2.680   2.937  0.0690 -0.2149 -0.1788
 4582poe    c2320419   0.820   2.607   2.980  0.1352  0.0844  0.1267
 4582poe     o220420   0.891   2.540   2.878 -0.1454 -0.4480  0.2817
 4582poe    c2320421   0.995   2.469   2.942  0.1874  0.0503  0.3033
 4582poe    c2320422   1.046   2.348   2.861 -0.1787  0.0755  0.0318
 4582poe     o220423   1.090   2.395   2.736 -0.4778 -0.0443 -0.1201
 4582poe    c3120424   1.101   2.276   2.662 -0.0137 -0.1507  0.1194
 4583poe    c3120425   0.081   0.055   5.923  0.3837  0.1797  0.3568
 4583poe     o220426   0.057  -0.083   5.944  0.3397  0.0970 -0.1995
 4583poe    c2320427   0.175  -0.135   6.002  0.0707 -0.6397 -0.3031
 4583poe    c2320428   0.159  -0.288   6.007  0.0979 -0.6300  0.0859
 4583poe     o220429   0.062  -0.346   6.091 -0.6391  0.0135 -0.3153
 4583poe    c2320430   0.096  -0.325   6.226 -0.7485  0.0739 -0.2972
 4583poe    c2320431   0.028  -0.428   6.318  0.0593  0.2774  0.5337
 4583poe     o220432   0.075  -0.561   6.317  0.0315  0.2739 -0.2785
 4583poe    c2320433  -0.001  -0.639   6.228 -0.1713  0.1306  0.0220
 4583poe    c2320434   0.072  -0.762   6.171 -0.5219 -0.0508 -0.0372
 4583poe     o220435   0.096  -0.864   6.265 -0.1938 -0.1424 -0.2199
 4583poe    c3120436  -0.017  -0.940   6.300 -0.2611 -0.0059 -0.1389
 4584poe    c3120437   0.563   3.360   6.822  0.6727  0.1824 -0.0243
 4584poe     o220438   0.547   3.224   6.857  0.6163  0.1633 -0.1234
 4584poe    c2320439   0.537   3.206   6.996 -0.3821  0.3145 -0.1635
 4584poe    c2320440   0.497   3.059   7.020 -0.1592  0.1626 -0.7067
 4584poe     o220441   0.386   3.011   6.946 -0.1567 -0.2238 -0.4646
 4584poe    c2320442   0.344   2.878   6.964  0.8359 -0.4905  0.0025
 4584poe    c2320443   0.222   2.846   6.875  0.6614 -0.1389  0.1141
 4584poe     o220444   0.255   2.802   6.745  0.2011 -0.0095 -0.0509
 4584poe    c2320445   0.298   2.668   6.743 -0.4449 -0.2134 -0.2654
 4584poe    c2320446   0.384   2.656   6.616 -0.3462  0.2332 -0.2400
 4584poe     o220447   0.507   2.725   6.626 -0.4402  0.3456  0.1914
 4584poe    c3120448   0.512   2.864   6.607  0.4371  0.2983  0.0274
 4585poe    c3120449   7.092   7.145   5.242  0.5063 -0.1333 -0.2253
 4585poe     o220450   7.029   7.071   5.140 -0.7917  0.3183  0.2387
 4585poe    c2320451   6.891   7.085   5.164 -0.8917  0.8038 -0.5826
 4585poe    c2320452   6.810   6.988   5.076 -0.7527 -0.4300  0.6111
 4585poe     o220453   6.864   6.859   5.092  0.6338  0.0086 -0.2935
 4585poe    c2320454   6.803   6.770   5.001 -0.0315 -0.2755  0.4147
 4585poe    c2320455   6.847   6.624   5.023 -0.1443 -0.2541  0.7859
 4585poe     o220456   6.986   6.602   5.021 -0.0112  0.5428  0.9549
 4585poe    c2320457   7.028   6.492   5.099 -0.1006 -0.4299 -0.3446
 4585poe    c2320458   7.181   6.496   5.114 -0.1418  0.0058 -0.0153
 4585poe     o220459   7.233   6.593   5.202  0.2153 -0.2912  0.1065
 4585poe    c3120460   7.368   6.556   5.185  0.3044  0.0275  0.1193
 4586poe    c3120461   6.742   0.059   0.562 -0.5386  0.1943  0.0482
 4586poe     o220462   6.621   0.031   0.495 -0.2559 -0.0118 -0.3770
 4586poe    c2320463   6.616  -0.110   0.494 -0.3983 -0.0177  0.4569
 4586poe    c2320464   6.482  -0.161   0.438 -0.3166  0.1353  0.1190
 4586poe     o220465   6.486  -0.164   0.297  0.0402  0.1639  0.1273
 4586poe    c2320466   6.364  -0.206   0.241 -0.2064  0.6369  0.2991
 4586poe    c2320467   6.355  -0.157   0.095 -0.1764  0.0982  0.1134
 4586poe     o220468   6.468  -0.206   0.026 -0.3679 -0.2690  0.0554
 4586poe    c2320469   6.444  -0.197  -0.113 -0.1909 -0.4967  0.0103
 4586poe    c2320470   6.520  -0.302  -0.196  0.0672 -0.3042  0.0030
 4586poe     o220471   6.655  -0.285  -0.162 -0.0391  0.0080  0.2715
 4586poe    c3120472   6.740  -0.376  -0.229 -0.1546  0.0593  0.0559
 4587poe    c3120473   3.122   0.005   5.321 -0.2548 -0.0324  0.2298
 4587poe     o220474   3.258  -0.030   5.307 -0.2447  0.1844 -0.2352
 4587poe    c2320475   3.347   0.023   5.403 -0.2771  0.3265 -0.2836
 4587poe    c2320476   3.386   0.163   5.353 -0.2211  0.3584 -0.1494
 4587poe     o220477   3.425   0.172   5.218 -0.7654  0.2125 -0.3186
 4587poe    c2320478   3.447   0.306   5.182  0.3465  0.3311  0.7632
 4587poe    c2320479   3.328   0.402   5.166 -0.0803 -0.3032  0.0919
 4587poe     o220480   3.241   0.344   5.071  0.1151  0.5806 -0.6484
 4587poe    c2320481   3.129   0.423   5.040 -0.2000  0.2778 -0.3009
 4587poe    c2320482   3.054   0.359   4.922 -0.3311  0.2233 -0.1876
 4587poe     o220483   3.128   0.384   4.804  0.3027  0.0768  0.1727
 4587poe    c3120484   3.041   0.406   4.696 -0.1952 -0.3250  0.4870
 4588poe    c3120485   1.354   1.875   1.786  0.5609 -0.1833  0.2423
 4588poe     o220486   1.227   1.909   1.733  0.7100 -0.2673 -0.1692
 4588poe    c2320487   1.135   1.818   1.789  0.2897  0.1524 -0.1725
 4588poe    c2320488   0.986   1.830   1.752  0.1870 -0.1545  0.1356
 4588poe     o220489   0.956   1.780   1.624 -0.1883  0.0799  0.1315
 4588poe    c2320490   0.817   1.765   1.604 -0.1511  0.3097 -0.3099
 4588poe    c2320491   0.807   1.725   1.456  0.0686  0.1239 -0.2744
 4588poe     o220492   0.825   1.589   1.424  0.0852 -0.0049  0.2673
 4588poe    c2320493   0.820   1.553   1.287  0.1426  0.4673  0.1407
 4588poe    c2320494   0.873   1.410   1.273  0.0248  0.4205  0.1734
 4588poe     o220495   1.005   1.413   1.324  0.2253  0.9152 -0.3644
 4588poe    c3120496   1.063   1.301   1.262 -0.1551  0.6948 -0.3230
 4589poe    c3120497   3.230   6.749   4.841  0.0602  0.1696 -0.4678
 4589poe     o220498   3.248   6.889   4.834 -0.3074  0.2556  0.1426
 4589poe    c2320499   3.344   6.938   4.925 -0.6454  0.6342  0.2938
 4589poe    c2320500   3.495   6.911   4.916 -0.8261 -0.3774  0.0935
 4589poe     o220501   3.550   6.962   4.796 -0.2011 -0.2394  0.4341
 4589poe    c2320502   3.690   6.955   4.812 -0.1581 -0.4471 -0.0296
 4589poe    c2320503   3.774   7.069   4.751 -0.1692 -0.3104  0.2120
 4589poe     o220504   3.753   7.183   4.831  0.0026 -0.4162  0.4099
 4589poe    c2320505   3.872   7.256   4.848 -0.1397 -0.0450 -0.1681
 4589poe    c2320506   3.837   7.404   4.873 -0.5363 -0.1519 -0.0993
 4589poe     o220507   3.788   7.433   5.002  0.1620  0.3899  0.0478
 4589poe    c3120508   3.796   7.573   5.017 -0.4592  0.3580  0.7208
 4590poe    c3120509   3.366   0.425   2.903  0.1839 -0.4373 -0.0409
 4590poe     o220510   3.326   0.411   2.768  0.3573  0.5608 -0.2004
 4590poe    c2320511   3.433   0.352   2.697 -0.0392 -0.7720  0.2832
 4590poe    c2320512   3.396   0.334   2.549 -0.2159 -0.0007  0.2302
 4590poe     o220513   3.275   0.263   2.537 -0.5327  0.6098 -0.2139
 4590poe    c2320514   3.231   0.274   2.403 -0.4111  0.6539 -0.2511
 4590poe    c2320515   3.093   0.207   2.383 -0.0800  0.0490 -0.5413
 4590poe     o220516   3.010   0.255   2.487  0.1291 -0.2749 -0.2207
 4590poe    c2320517   2.907   0.163   2.515  0.4446 -0.6221 -0.1784
 4590poe    c2320518   2.839   0.176   2.652  0.2716  0.1118 -0.3280
 4590poe     o220519   2.938   0.155   2.750  0.4399  0.7569 -0.3574
 4590poe    c3120520   2.871   0.155   2.875  0.2783 -0.0093 -0.4403
 4591poe    c3120521   4.521   4.843   3.874  0.0739  0.0015 -0.0270
 4591poe     o220522   4.467   4.827   3.745 -0.0335  0.0747  0.0095
 4591poe    c2320523   4.558   4.780   3.648 -0.1363  0.6419 -0.3680
 4591poe    c2320524   4.490   4.746   3.514 -0.0802 -0.5527 -0.1022
 4591poe     o220525   4.419   4.624   3.511 -0.6122 -0.2572  0.4491
 4591poe    c2320526   4.342   4.612   3.394 -0.3929 -0.0658  0.2850
 4591poe    c2320527   4.211   4.532   3.409 -0.1257 -0.4746  0.4296
 4591poe     o220528   4.144   4.501   3.290 -0.2184  0.3716  0.2619
 4591poe    c2320529   4.195   4.392   3.217 -0.6952  0.4170 -0.1492
 4591poe    c2320530   4.141   4.252   3.254  0.0643  0.2770  0.4614
 4591poe     o220531   4.179   4.191   3.375  0.2612 -0.3094  0.1056
 4591poe    c3120532   4.160   4.051   3.374 -0.1594 -0.2510 -0.2060
 4592poe    c3120533   6.572   0.280   3.319  0.3648  0.3210 -0.1300
 4592poe     o220534   6.582   0.410   3.266 -0.2620  0.2705 -0.3751
 4592poe    c2320535   6.719   0.421   3.234 -0.0355 -0.1239  0.4298
 4592poe    c2320536   6.739   0.509   3.109  0.1017 -0.0851  0.4787
 4592poe     o220537   6.712   0.645   3.131  0.2596  0.0139  0.0631
 4592poe    c2320538   6.772   0.728   3.034 -0.2721  0.1089 -0.1889
 4592poe    c2320539   6.750   0.871   3.085 -0.1425 -0.0513  0.3191
 4592poe     o220540   6.617   0.884   3.132 -0.1717 -0.3290  0.3119
 4592poe    c2320541   6.584   1.017   3.161 -0.4070 -0.3749  0.2532
 4592poe    c2320542   6.430   1.005   3.164 -0.4770  0.3574 -0.0228
 4592poe     o220543   6.393   0.944   3.286 -0.0744 -0.2608 -0.2022
 4592poe    c3120544   6.256   0.959   3.316 -0.1031  0.1384 -0.5218
 4593poe    c3120545   3.191   6.058   4.043 -0.4965 -0.9365 -0.0028
 4593poe     o220546   3.205   5.940   4.119  0.2839 -0.9811 -0.2086
 4593poe    c2320547   3.284   5.839   4.059  0.5602 -0.8683 -0.0290
 4593poe    c2320548   3.328   5.728   4.156  0.7339 -0.5757  0.2289
 4593poe     o220549   3.218   5.662   4.214  0.0944 -0.0415 -0.3704
 4593poe    c2320550   3.253   5.601   4.336 -0.2872 -0.3657 -0.4209
 4593poe    c2320551   3.129   5.547   4.409 -0.4610 -0.4179 -0.7495
 4593poe     o220552   3.031   5.646   4.427  0.4907  0.3854  0.1495
 4593poe    c2320553   2.953   5.610   4.539 -0.0541 -0.0887 -0.3711
 4593poe    c2320554   2.861   5.722   4.590  0.2055 -0.1567  0.2643
 4593poe     o220555   2.739   5.727   4.518 -0.0017 -0.0598  0.6181
 4593poe    c3120556   2.680   5.851   4.550  0.7443  0.6332 -0.6032
 4594poe    c3120557   5.119   4.194   6.812 -0.7253  0.3788 -0.2281
 4594poe     o220558   5.050   4.263   6.913 -0.1759 -0.0232  0.4334
 4594poe    c2320559   4.914   4.253   6.875 -0.0086  0.0421 -0.1798
 4594poe    c2320560   4.857   4.395   6.882  0.1968  0.1059  0.2408
 4594poe     o220561   4.851   4.423   7.020  0.0975  0.0853  0.2411
 4594poe    c2320562   4.849   4.563   7.036  0.5387  0.1069  0.1067
 4594poe    c2320563   4.840   4.585   7.188  0.6052 -0.2625  0.1656
 4594poe     o220564   4.958   4.537   7.249  0.6286 -0.5464 -0.0998
 4594poe    c2320565   4.965   4.562   7.387 -0.3812  0.1781 -0.1643
 4594poe    c2320566   4.889   4.471   7.486 -0.3430  0.5205  0.1800
 4594poe     o220567   4.753   4.448   7.459 -0.2954  0.6780 -0.1996
 4594poe    c3120568   4.691   4.368   7.557  0.7642 -0.0082 -0.0674
 4595poe    c3120569   5.103   1.338   0.002 -0.3593 -0.1580 -0.4096
 4595poe     o220570   5.195   1.312  -0.102 -0.4330 -0.6741 -0.3473
 4595poe    c2320571   5.318   1.378  -0.080 -1.0577  0.4799 -0.2801
 4595poe    c2320572   5.410   1.355  -0.201 -0.6451  0.3921  0.0507
 4595poe     o220573   5.448   1.220  -0.208 -0.0587  0.5872 -0.6673
 4595poe    c2320574   5.510   1.201  -0.333 -0.3089  0.0490 -0.7159
 4595poe    c2320575   5.504   1.053  -0.375 -0.1796 -0.1068 -0.1944
 4595poe     o220576   5.372   1.011  -0.401 -0.1506 -0.0236 -0.4813
 4595poe    c2320577   5.359   0.872  -0.412  0.0076 -0.0877  0.1253
 4595poe    c2320578   5.225   0.801  -0.441 -0.1924  0.1195  0.5393
 4595poe     o220579   5.237   0.661  -0.445 -0.0564  0.1553 -0.3565
 4595poe    c3120580   5.116   0.613  -0.499 -0.0282 -0.2611 -0.0523
 4596poe    c3120581   6.405   2.452   3.461  0.1523 -0.2334 -0.0872
 4596poe     o220582   6.429   2.318   3.499  0.7477 -0.1785 -0.2531
 4596poe    c2320583   6.361   2.263   3.609  0.0726 -0.0376 -0.5882
 4596poe    c2320584   6.207   2.262   3.617  0.1058 -0.0593  0.1858
 4596poe     o220585   6.139   2.153   3.559 -0.2866  0.0087  0.5213
 4596poe    c2320586   6.047   2.087   3.644 -0.5323  0.3533  0.5274
 4596poe    c2320587   5.959   1.985   3.570  0.3754 -0.0047 -0.0835
 4596poe     o220588   6.045   1.885   3.522  0.6761 -0.0284  0.5004
 4596poe    c2320589   5.986   1.774   3.458 -0.2890  0.7689 -0.0185
 4596poe    c2320590   5.964   1.664   3.564 -0.2419  0.3605 -0.4286
 4596poe     o220591   5.913   1.702   3.690  0.0280 -0.0785 -0.1830
 4596poe    c3120592   5.936   1.608   3.792  0.0916  0.1222 -0.0123
 4597poe    c3120593   2.422   2.180   3.547 -0.4468  0.1022 -0.2641
 4597poe     o220594   2.385   2.057   3.605  0.2093  0.0787  0.1078
 4597poe    c2320595   2.476   1.952   3.580  0.1844  0.2404 -0.6650
 4597poe    c2320596   2.467   1.826   3.667 -0.0685  0.4025 -0.4579
 4597poe     o220597   2.468   1.859   3.804 -0.7208 -0.3067 -0.2725
 4597poe    c2320598   2.431   1.750   3.885 -0.4325 -0.0143  0.2600
 4597poe    c2320599   2.451   1.792   4.032  0.0044  0.8990 -0.0531
 4597poe     o220600   2.368   1.905   4.042 -0.6084  0.4613 -0.0986
 4597poe    c2320601   2.451   2.018   4.062  0.1546 -0.1479  0.2492
 4597poe    c2320602   2.375   2.150   4.090  0.2277 -0.0796  0.1287
 4597poe     o220603   2.284   2.172   3.986  0.3427  0.0032  0.0452
 4597poe    c3120604   2.201   2.284   4.007 -0.5191 -0.6054 -0.0296
 4598poe    c3120605   3.503   1.155   1.033 -0.0964  0.6476 -0.2894
 4598poe     o220606   3.531   1.117   1.166 -0.5513 -0.2014 -0.4317
 4598poe    c2320607   3.667   1.081   1.173 -0.5180 -0.0146 -0.1158
 4598poe    c2320608   3.711   0.993   1.291  0.0525  0.2727 -0.1103
 4598poe     o220609   3.609   1.023   1.384  0.1651  0.1096  0.0657
 4598poe    c2320610   3.647   1.017   1.520  0.2336  0.1856  0.0499
 4598poe    c2320611   3.528   1.049   1.613  0.5162  0.0036  0.4717
 4598poe     o220612   3.440   1.137   1.549 -0.3069 -0.9683  0.2332
 4598poe    c2320613   3.340   1.194   1.630  0.4475 -0.1145  0.5901
 4598poe    c2320614   3.236   1.096   1.689  0.3288 -0.3207  0.0424
 4598poe     o220615   3.177   1.023   1.584  0.2388 -0.3065  0.0832
 4598poe    c3120616   3.086   0.924   1.627  0.4097 -0.4514  0.1127
 4599poe    c3120617   1.206   2.661   6.363 -0.2939  0.3997 -0.2131
 4599poe     o220618   1.172   2.671   6.499  0.2610  0.3843 -0.0723
 4599poe    c2320619   1.236   2.775   6.570  0.9965 -0.2089  0.1487
 4599poe    c2320620   1.233   2.759   6.723  0.2481  0.3939  0.2005
 4599poe     o220621   1.119   2.824   6.777 -0.2255 -0.0838 -0.2090
 4599poe    c2320622   1.131   2.846   6.916 -0.0215 -0.8184 -0.1070
 4599poe    c2320623   0.995   2.883   6.976  0.1168 -0.0317 -0.2594
 4599poe     o220624   0.902   2.777   6.963  0.0915 -0.0438 -0.0011
 4599poe    c2320625   0.775   2.819   7.006  0.1615 -0.2106  0.3712
 4599poe    c2320626   0.682   2.716   7.072 -0.3771  0.0393  0.0144
 4599poe     o220627   0.635   2.615   6.986  0.5187 -0.2709 -0.1288
 4599poe    c3120628   0.553   2.521   7.052 -0.2658  0.4272 -0.0876
 4600poe    c3120629   1.309   4.464   6.809 -0.3384  0.5689 -0.0641
 4600poe     o220630   1.222   4.370   6.868 -0.0857  0.0781 -0.4629
 4600poe    c2320631   1.134   4.420   6.966 -0.4228 -0.2119 -0.6175
 4600poe    c2320632   1.123   4.300   7.062 -0.0920  0.2233 -0.0311
 4600poe     o220633   1.076   4.188   6.991 -0.7172  0.5948 -0.2125
 4600poe    c2320634   1.035   4.099   7.092  0.2027  0.1600 -0.2063
 4600poe    c2320635   0.929   3.992   7.058 -0.1467  0.4257  0.0272
 4600poe     o220636   0.800   4.032   7.018 -0.4393 -0.3121  0.2218
 4600poe    c2320637   0.714   3.933   6.965  0.0541 -0.2931 -0.6373
 4600poe    c2320638   0.573   3.994   6.950  0.1708  0.0906 -0.2076
 4600poe     o220639   0.557   4.062   6.827 -0.3138 -0.1320 -0.2678
 4600poe    c3120640   0.425   4.108   6.812 -0.2670  0.0547 -0.1096
 4601poe    c3120641   3.873   2.645   2.136  0.5042  0.1373 -0.0635
 4601poe     o220642   3.978   2.599   2.218  0.3513  0.6563  0.4216
 4601poe    c2320643   3.942   2.486   2.294 -0.0653  0.4847 -0.0279
 4601poe    c2320644   4.066   2.395   2.305 -0.3418  0.1371  0.2610
 4601poe     o220645   4.171   2.450   2.382 -0.3206  0.9542 -0.3332
 4601poe    c2320646   4.284   2.368   2.360 -0.2748  0.8735  0.2057
 4601poe    c2320647   4.400   2.441   2.432 -0.0011  0.2914  0.3576
 4601poe     o220648   4.372   2.424   2.569  0.2679 -0.6807  0.2982
 4601poe    c2320649   4.476   2.494   2.633  0.0509 -0.0513 -0.0404
 4601poe    c2320650   4.480   2.455   2.782  0.2108  0.7301  0.1673
 4601poe     o220651   4.343   2.449   2.812  0.2186 -0.4073  0.0228
 4601poe    c3120652   4.309   2.433   2.948 -0.2286 -0.4185 -0.0871
 4602poe    c3120653   2.290   1.042   4.650 -0.1354  0.0428 -0.0315
 4602poe     o220654   2.430   1.057   4.664 -0.1591  0.3179 -0.0968
 4602poe    c2320655   2.484   1.110   4.546  0.3082  0.4007  0.1536
 4602poe    c2320656   2.634   1.077   4.530  0.1614 -0.2115  0.0276
 4602poe     o220657   2.721   1.107   4.637  0.3186 -0.0443 -0.1478
 4602poe    c2320658   2.832   1.021   4.622  0.3866  0.0248 -0.0376
 4602poe    c2320659   2.894   0.978   4.756 -0.0509  0.0559  0.1769
 4602poe     o220660   2.939   1.075   4.848  0.1416  0.3752 -0.2512
 4602poe    c2320661   2.985   1.013   4.966 -0.3987 -0.3364 -0.4055
 4602poe    c2320662   3.004   1.121   5.075 -0.0643 -0.4192 -0.3796
 4602poe     o220663   2.923   1.129   5.190  0.2661 -0.0453 -0.1745
 4602poe    c3120664   2.971   1.212   5.294 -0.5133  0.6111 -0.3287
 4603poe    c3120665   0.382   4.548   3.789 -0.4911  0.1427  0.0390
 4603poe     o220666   0.381   4.672   3.722  0.5004 -0.1099 -0.4603
 4603poe    c2320667   0.494   4.744   3.766  0.6817 -0.5774 -0.1494
 4603poe    c2320668   0.512   4.891   3.724 -0.0169 -0.3356  0.3713
 4603poe     o220669   0.562   4.908   3.594 -0.4139 -0.2929  0.2244
 4603poe    c2320670   0.698   4.929   3.564 -0.6816  0.2540 -0.6698
 4603poe    c2320671   0.752   5.064   3.615 -0.0301 -0.2192 -0.0866
 4603poe     o220672   0.733   5.167   3.521  0.5110 -0.0905 -0.0607
 4603poe    c2320673   0.834   5.163   3.423  0.4348 -0.5014 -0.1222
 4603poe    c2320674   0.830   5.285   3.329  0.0728 -0.2775  0.1789
 4603poe     o220675   0.733   5.282   3.226  0.4539 -0.0610 -0.1875
 4603poe    c3120676   0.733   5.390   3.135  0.2042  0.1325  0.0400
 4604poe    c3120677   5.932   7.311   5.916 -0.1936  0.1334 -0.4020
 4604poe     o220678   6.027   7.389   5.985  0.0734 -0.1034 -0.4990
 4604poe    c2320679   6.160   7.346   5.965  0.2086  0.1777 -0.2121
 4604poe    c2320680   6.268   7.405   6.057 -0.0501  0.0484  0.1799
 4604poe     o220681   6.246   7.368   6.191  0.6037 -0.3724  0.1781
 4604poe    c2320682   6.330   7.434   6.283  0.4165 -0.1988  0.2246
 4604poe    c2320683   6.359   7.341   6.402 -0.1608 -0.7816 -0.0820
 4604poe     o220684   6.238   7.321   6.471 -0.0445 -0.1166  0.3194
 4604poe    c2320685   6.233   7.190   6.524  0.2352 -0.1645  0.2315
 4604poe    c2320686   6.097   7.161   6.592  0.0919 -0.0822 -0.0192
 4604poe     o220687   5.980   7.154   6.513 -0.0650 -0.2997  0.2316
 4604poe    c3120688   5.868   7.165   6.598 -0.0855 -0.0216  0.1709
 4605poe    c3120689   3.164   5.748   7.083  0.2795 -0.3959 -0.5672
 4605poe     o220690   3.251   5.659   7.017 -0.0290 -0.5233 -0.8065
 4605poe    c2320691   3.384   5.681   7.058 -0.3551 -0.2051  0.1090
 4605poe    c2320692   3.492   5.667   6.949 -0.5021 -0.0352 -0.0606
 4605poe     o220693   3.504   5.534   6.903 -0.9371 -0.4241  0.9185
 4605poe    c2320694   3.624   5.474   6.947 -0.1723  0.5374  0.1844
 4605poe    c2320695   3.597   5.322   6.948  0.5252  0.4124  0.2444
 4605poe     o220696   3.691   5.238   7.010  0.0143 -0.1549  0.2526
 4605poe    c2320697   3.635   5.109   7.001  0.0067 -0.1251 -0.1318
 4605poe    c2320698   3.711   4.977   7.024  0.1104 -0.0668 -0.1460
 4605poe     o220699   3.823   4.966   6.939 -0.2109 -0.4708 -0.5217
 4605poe    c3120700   3.901   4.852   6.965 -0.0267 -0.2099  0.0907
 4606poe    c3120701   2.449   0.558   5.267 -0.7403  0.2646 -0.4827
 4606poe     o220702   2.338   0.611   5.336 -0.2820  0.3940  0.1659
 4606poe    c2320703   2.373   0.636   5.470  0.2887 -0.2068  0.1331
 4606poe    c2320704   2.238   0.672   5.534  0.6784  0.3135  0.6731
 4606poe     o220705   2.183   0.788   5.475  0.4249 -0.2415 -0.2090
 4606poe    c2320706   2.042   0.781   5.485  0.4339 -0.0400  0.0983
 4606poe    c2320707   1.988   0.925   5.480 -0.1555 -0.2734 -0.4752
 4606poe     o220708   2.034   0.995   5.367  0.0540  0.0402 -0.1980
 4606poe    c2320709   1.963   1.113   5.335 -0.1800 -0.1070 -0.2224
 4606poe    c2320710   1.971   1.217   5.448 -0.5874  0.0378 -0.3258
 4606poe     o220711   2.087   1.297   5.434 -0.1832 -0.3734  0.5336
 4606poe    c3120712   2.105   1.414   5.511  0.4182  0.0142 -0.1752
 4607poe    c3120713   3.383   2.402   4.666  0.8324  0.1510  0.0185
 4607poe     o220714   3.373   2.326   4.784 -0.6515 -0.1266 -0.2677
 4607poe    c2320715   3.441   2.400   4.883 -1.0577 -0.0106 -0.0724
 4607poe    c2320716   3.479   2.329   5.015 -0.0810 -0.1002 -0.3925
 4607poe     o220717   3.373   2.324   5.108  0.4528 -0.1939  0.2133
 4607poe    c2320718   3.332   2.446   5.165 -0.6320 -0.3851 -0.1425
 4607poe    c2320719   3.199   2.428   5.242 -0.5889  0.2217  0.0763
 4607poe     o220720   3.199   2.358   5.364  0.3335 -0.1318 -0.1156
 4607poe    c2320721   3.123   2.426   5.461 -0.2847 -0.8811 -0.0640
 4607poe    c2320722   3.154   2.402   5.610  0.0743 -0.5700 -0.0879
 4607poe     o220723   3.076   2.306   5.678  0.0601 -0.3726  0.1798
 4607poe    c3120724   3.127   2.304   5.809 -0.1846 -0.1899  0.2758
 4608poe    c3120725   6.779   1.717   4.486  0.8624  0.6754 -0.4681
 4608poe     o220726   6.722   1.760   4.608  0.1020 -0.0949 -0.5417
 4608poe    c2320727   6.583   1.740   4.621  0.1606 -0.0660  0.1982
 4608poe    c2320728   6.496   1.863   4.651  0.3412  0.1204 -0.0315
 4608poe     o220729   6.498   1.896   4.788 -0.0191 -0.4783  0.1230
 4608poe    c2320730   6.417   2.009   4.810  0.1765 -0.2992 -0.0776
 4608poe    c2320731   6.424   2.060   4.955  0.1476 -0.1483 -0.1290
 4608poe     o220732   6.398   1.943   5.028  0.1802 -0.0838 -0.0134
 4608poe    c2320733   6.422   1.956   5.166  0.7151 -0.0549 -0.1078
 4608poe    c2320734   6.368   1.835   5.245 -0.1280  0.2065 -0.2792
 4608poe     o220735   6.424   1.729   5.171 -0.1634  0.2247 -0.3327
 4608poe    c3120736   6.401   1.610   5.243  0.2310  0.0698 -0.4651
 4609poe    c3120737   4.381   6.368   1.102  0.2229  0.1290  0.5944
 4609poe     o220738   4.396   6.252   1.024  0.2219  0.3092  0.3228
 4609poe    c2320739   4.506   6.181   1.075  0.5712  0.4138 -0.2712
 4609poe    c2320740   4.570   6.071   0.988  0.1463 -0.4508  0.4808
 4609poe     o220741   4.636   6.127   0.877  0.3182 -0.5084  0.5537
 4609poe    c2320742   4.692   6.027   0.795  0.3564 -0.1193  0.0969
 4609poe    c2320743   4.775   6.086   0.680  0.3489  0.0676  0.1868
 4609poe     o220744   4.862   6.190   0.719  0.3216  0.3113 -0.3946
 4609poe    c2320745   4.960   6.214   0.620  0.0541  0.2179 -0.6846
 4609poe    c2320746   5.073   6.306   0.669 -0.0919 -0.3556  0.7738
 4609poe     o220747   5.069   6.436   0.617  0.3135 -0.6731 -0.0664
 4609poe    c3120748   5.157   6.519   0.690  0.5876 -0.2216 -0.8847
 4610poe    c3120749   2.954   4.453   5.483  0.7590 -0.3121 -0.0397
 4610poe     o220750   3.027   4.378   5.388 -0.2460 -1.1299 -0.1899
 4610poe    c2320751   2.930   4.348   5.290 -0.3246  0.5505 -0.6634
 4610poe    c2320752   2.988   4.255   5.183  0.4159  0.1868  0.0421
 4610poe     o220753   2.993   4.121   5.227  0.5553 -0.0186 -0.5761
 4610poe    c2320754   3.086   4.039   5.161  0.4799 -0.0007 -0.7036
 4610poe    c2320755   3.066   3.901   5.226  0.2399  0.4492  0.1896
 4610poe     o220756   3.111   3.901   5.359 -0.4131 -0.2776  0.4180
 4610poe    c2320757   3.085   3.769   5.401 -0.4165 -0.4740 -0.1922
 4610poe    c2320758   3.098   3.761   5.555  0.3681  0.8291 -0.1718
 4610poe     o220759   3.233   3.736   5.584  0.1820  0.2019  0.1702
 4610poe    c3120760   3.246   3.720   5.724 -0.1964 -0.1213  0.1690
 4611poe    c3120761   1.797   3.524   5.472  0.0741 -0.1284 -0.0383
 4611poe     o220762   1.766   3.488   5.605  0.2203 -0.0041  0.0302
 4611poe    c2320763   1.631   3.518   5.629  0.1932  0.0003 -0.1235
 4611poe    c2320764   1.576   3.458   5.760 -0.7004  0.0520 -0.4710
 4611poe     o220765   1.637   3.332   5.770  0.1639  0.4557 -0.5557
 4611poe    c2320766   1.566   3.255   5.865  0.0691  0.2864 -0.7633
 4611poe    c2320767   1.615   3.242   6.010  0.1842 -0.2736 -0.8494
 4611poe     o220768   1.739   3.175   6.014  0.3658  0.1085  0.1765
 4611poe    c2320769   1.777   3.129   6.143 -0.0552 -0.1899  0.1983
 4611poe    c2320770   1.923   3.082   6.153  0.0458 -0.0497 -0.5203
 4611poe     o220771   1.947   2.962   6.083 -0.8224 -0.3497 -0.3148
 4611poe    c3120772   2.068   2.901   6.121 -0.4192  0.5694 -0.1066
 4612poe    c3120773   0.797   0.465   4.609  0.0324 -0.2357 -0.1169
 4612poe     o220774   0.864   0.570   4.675  0.0799 -0.2962 -0.0690
 4612poe    c2320775   0.877   0.550   4.814  0.0851 -0.2705 -0.0660
 4612poe    c2320776   0.948   0.666   4.887 -0.1841 -0.4623  0.5092
 4612poe     o220777   0.893   0.796   4.892  0.2654 -0.2598  0.2792
 4612poe    c2320778   0.965   0.897   4.959 -0.0480 -0.3217  0.7161
 4612poe    c2320779   1.070   0.970   4.874 -0.2633 -0.7816  0.0503
 4612poe     o220780   1.022   1.040   4.761  0.1083 -0.4038  0.1247
 4612poe    c2320781   1.101   1.154   4.735 -0.1785 -0.2471 -0.0695
 4612poe    c2320782   1.176   1.157   4.601  0.0136 -0.1634  0.0407
 4612poe     o220783   1.300   1.091   4.619  0.2528  0.2462 -0.0929
 4612poe    c3120784   1.352   1.065   4.491 -0.5730  0.4371 -0.4784
 4613poe    c3120785   2.994   6.941   3.083 -0.0443  0.0843 -0.0734
 4613poe     o220786   2.950   7.054   3.154 -0.3138  0.1961 -0.4130
 4613poe    c2320787   3.001   7.165   3.084  0.4997  0.1127  0.0324
 4613poe    c2320788   2.922   7.297   3.099  0.1479 -0.1039  0.1041
 4613poe     o220789   2.897   7.352   3.226  0.2558  0.1971 -0.0050
 4613poe    c2320790   2.841   7.481   3.217 -0.4740 -0.1262 -0.1331
 4613poe    c2320791   2.790   7.554   3.343 -0.0314  0.5009 -0.3163
 4613poe     o220792   2.689   7.495   3.421  0.3989  0.1143 -0.0445
 4613poe    c2320793   2.562   7.503   3.362  0.3590  0.4336  0.0803
 4613poe    c2320794   2.459   7.439   3.457  0.2194  0.1343 -0.2700
 4613poe     o220795   2.484   7.301   3.473  0.4962  0.2451  0.2748
 4613poe    c3120796   2.368   7.248   3.534 -0.1219  0.9981 -0.2262
 4614poe    c3120797   2.883   4.519   2.969  1.0166 -0.0661  0.0200
 4614poe     o220798   2.758   4.495   3.029  0.6877 -0.4002 -0.7748
 4614poe    c2320799   2.654   4.539   2.945  0.2777  0.0113 -0.0598
 4614poe    c2320800   2.524   4.498   3.017  0.0530  0.9986  0.1113
 4614poe     o220801   2.504   4.572   3.135 -0.0075 -0.0092  0.7441
 4614poe    c2320802   2.420   4.502   3.224 -1.4168  0.0853 -0.4734
 4614poe    c2320803   2.396   4.589   3.349 -0.0653 -0.1282 -0.0520
 4614poe     o220804   2.520   4.600   3.416 -0.2011  0.2356  0.1390
 4614poe    c2320805   2.509   4.692   3.522 -0.3136  0.2294  0.1329
 4614poe    c2320806   2.653   4.738   3.552 -0.2463  0.1085 -0.0020
 4614poe     o220807   2.705   4.809   3.442  0.0654 -0.0661  0.0326
 4614poe    c3120808   2.834   4.855   3.477 -0.0946 -0.4765  1.2100
 4615poe    c3120809   4.235   5.543   6.592 -0.1898 -0.7079 -0.0959
 4615poe     o220810   4.255   5.550   6.452 -0.0184  0.0355 -0.0359
 4615poe    c2320811   4.279   5.682   6.410  0.2040 -0.1285 -0.4305
 4615poe    c2320812   4.414   5.714   6.343  0.2814 -0.0821 -0.2541
 4615poe     o220813   4.519   5.704   6.436  0.0052  0.1265  0.0816
 4615poe    c2320814   4.634   5.761   6.377  0.3483 -0.0302  0.5916
 4615poe    c2320815   4.769   5.730   6.444  0.5224  0.2691  0.3784
 4615poe     o220816   4.758   5.772   6.578 -0.6051 -0.2404  0.4582
 4615poe    c2320817   4.871   5.718   6.644 -0.1877  0.0122 -0.0424
 4615poe    c2320818   4.908   5.769   6.785  0.0975  0.3754 -0.2474
 4615poe     o220819   4.817   5.718   6.880  0.0492  0.1256 -0.4272
 4615poe    c3120820   4.861   5.764   7.006  0.4876  0.0890 -0.5661
 4616poe    c3120821   3.749   0.430   0.900 -0.2788 -0.2288 -0.1840
 4616poe     o220822   3.642   0.486   0.973 -0.1692 -0.1327 -0.0958
 4616poe    c2320823   3.663   0.622   1.004  0.0102 -0.0526 -0.5601
 4616poe    c2320824   3.548   0.700   1.070 -0.1356 -0.7121 -0.0187
 4616poe     o220825   3.433   0.697   0.988 -0.2424  0.3424  0.0673
 4616poe    c2320826   3.322   0.770   1.035 -0.2764  0.1309  0.3224
 4616poe    c2320827   3.185   0.729   0.980 -0.1058 -0.0976  0.0637
 4616poe     o220828   3.149   0.598   1.020 -0.3610 -0.0596 -0.0388
 4616poe    c2320829   3.010   0.577   1.032 -0.2688 -0.3473  0.5439
 4616poe    c2320830   2.944   0.528   0.902  0.5736  0.1676 -0.0867
 4616poe     o220831   2.990   0.406   0.848  0.2157 -0.1933  0.4112
 4616poe    c3120832   2.932   0.416   0.720  0.0241  0.2180  0.5270
 4617poe    c3120833   0.430   0.055   1.027  0.1888 -0.4134 -0.4964
 4617poe     o220834   0.371  -0.069   1.061  0.1342 -0.2267  0.1092
 4617poe    c2320835   0.431  -0.136   1.170  0.0739 -0.5694 -0.0669
 4617poe    c2320836   0.363  -0.274   1.169 -0.0184 -0.5234 -0.1732
 4617poe     o220837   0.223  -0.256   1.173  0.1201  0.5481  0.6173
 4617poe    c2320838   0.152  -0.378   1.184 -0.2577  0.6860 -0.1717
 4617poe    c2320839  -0.000  -0.363   1.201 -0.2926 -0.0569  0.1761
 4617poe     o220840  -0.058  -0.262   1.122 -0.0770 -0.0093  0.0770
 4617poe    c2320841  -0.197  -0.238   1.125  0.0284  0.6167 -0.0728
 4617poe    c2320842  -0.239  -0.161   0.998  0.0665  0.5261 -0.1397
 4617poe     o220843  -0.139  -0.063   0.981  0.4293  0.1698 -0.0876
 4617poe    c3120844  -0.161   0.001   0.858  0.1005 -0.5780 -0.4228
 4618poe    c3120845   1.498   7.450   0.790  0.5043 -0.2671  0.4069
 4618poe     o220846   1.560   7.576   0.791 -0.3797  0.1829 -0.0214
 4618poe    c2320847   1.479   7.686   0.823  0.2160  0.4485  0.5933
 4618poe    c2320848   1.451   7.715   0.972 -0.2504 -0.6162  0.7205
 4618poe     o220849   1.554   7.781   1.040 -0.3595 -0.2003  0.4853
 4618poe    c2320850   1.591   7.906   0.985 -0.4712 -0.2161  0.3754
 4618poe    c2320851   1.666   7.995   1.086 -0.2666 -0.0407  0.0718
 4618poe     o220852   1.776   7.934   1.148 -0.2206  0.2940  0.3205
 4618poe    c2320853   1.823   8.008   1.259 -0.1900  0.5879  0.1118
 4618poe    c2320854   1.906   7.917   1.353 -0.1593 -0.2166 -0.6755
 4618poe     o220855   1.823   7.804   1.368  0.4258 -0.5118  0.3857
 4618poe    c3120856   1.822   7.777   1.507  0.0196 -0.3203  0.4221
 4619poe    c3120857   4.147   6.605   0.381 -0.1022  0.6819 -0.2008
 4619poe     o220858   4.026   6.578   0.448  0.4127 -0.7237  0.2116
 4619poe    c2320859   4.042   6.552   0.585  0.4340 -0.1527  0.3219
 4619poe    c2320860   3.909   6.491   0.633  0.2024 -0.1835 -0.3500
 4619poe     o220861   3.866   6.360   0.603 -0.1832 -0.0681 -0.3067
 4619poe    c2320862   3.749   6.338   0.679  0.4110 -0.4842  0.4926
 4619poe    c2320863   3.655   6.230   0.622  0.3033 -0.3797  0.4722
 4619poe     o220864   3.719   6.104   0.621  0.0909 -0.4856 -0.2567
 4619poe    c2320865   3.640   5.989   0.601 -1.1592  0.3648 -0.2944
 4619poe    c2320866   3.555   5.937   0.718  0.0032 -0.6980  0.1031
 4619poe     o220867   3.448   6.026   0.747  0.4605 -0.1987  0.2817
 4619poe    c3120868   3.386   5.973   0.862  0.3442 -0.4202  0.1181
 4620poe    c3120869   6.960   1.433   2.218  0.1307 -0.0556  0.4493
 4620poe     o220870   7.021   1.320   2.276  0.0225  0.2423  1.1588
 4620poe    c2320871   6.939   1.209   2.306 -0.2375 -0.0107 -0.4087
 4620poe    c2320872   7.008   1.095   2.384 -0.3135 -0.3481 -0.8282
 4620poe     o220873   7.137   1.060   2.339  0.0539 -0.0179 -0.0542
 4620poe    c2320874   7.209   0.993   2.440 -0.0568 -0.4405 -0.2541
 4620poe    c2320875   7.359   0.984   2.408  0.0376  0.0042  0.0642
 4620poe     o220876   7.443   1.098   2.405  0.0088  0.0256  0.0863
 4620poe    c2320877   7.574   1.079   2.358 -0.0973  0.4009 -0.3664
 4620poe    c2320878   7.643   1.216   2.342  0.0297  0.4728  0.6818
 4620poe     o220879   7.571   1.307   2.262 -0.0017 -0.1360 -0.0001
 4620poe    c3120880   7.667   1.403   2.223 -0.2895  0.2467  0.2179
 4621poe    c3120881   6.442   5.604   6.618 -0.1736  0.5408 -0.1077
 4621poe     o220882   6.397   5.612   6.751 -0.1791  0.1354 -0.0846
 4621poe    c2320883   6.497   5.658   6.839 -0.1335 -0.4887  0.2004
 4621poe    c2320884   6.534   5.562   6.952 -0.0239 -0.5834  0.0846
 4621poe     o220885   6.606   5.451   6.903  0.8348  0.1396 -0.3078
 4621poe    c2320886   6.679   5.390   7.007 -0.1214  0.0126  0.2985
 4621poe    c2320887   6.752   5.260   6.969 -0.0129  0.0847  0.2602
 4621poe     o220888   6.648   5.167   6.942  0.0435 -0.0218  0.4112
 4621poe    c2320889   6.709   5.052   6.888 -0.7944 -0.5610  0.5919
 4621poe    c2320890   6.608   4.949   6.835 -0.2709 -0.5686 -0.4219
 4621poe     o220891   6.545   4.964   6.710 -0.0553  0.2254 -0.4447
 4621poe    c3120892   6.630   4.983   6.599  0.4700  0.0615 -0.0737
 4622poe    c3120893   2.478   5.178   6.358 -1.7199 -0.2152  1.1649
 4622poe     o220894   2.427   5.269   6.264  0.3638 -0.0866  0.1074
 4622poe    c2320895   2.419   5.393   6.331 -0.5487 -0.1602  0.1511
 4622poe    c2320896   2.354   5.506   6.248 -0.2987 -0.6161 -0.6810
 4622poe     o220897   2.426   5.521   6.128  0.5700 -0.2397 -0.1284
 4622poe    c2320898   2.370   5.618   6.042 -0.0862 -0.3395  0.1799
 4622poe    c2320899   2.463   5.689   5.942 -0.3614  0.2817  0.3574
 4622poe     o220900   2.515   5.587   5.860  0.2807  0.4849  0.5038
 4622poe    c2320901   2.600   5.630   5.756  0.0784 -0.1661  0.0603
 4622poe    c2320902   2.648   5.528   5.651  0.3612  0.1518 -0.1207
 4622poe     o220903   2.540   5.472   5.581  0.3655 -0.0487  0.0303
 4622poe    c3120904   2.597   5.371   5.500 -0.1621  0.1519 -0.5989
 4623poe    c3120905   2.926   3.096   3.630  0.6247 -0.4702  0.8122
 4623poe     o220906   2.827   3.016   3.690 -0.0943 -0.5009 -0.3929
 4623poe    c2320907   2.895   2.905   3.744  0.4576 -0.1195 -0.3010
 4623poe    c2320908   2.806   2.780   3.725  0.1817  0.0270  0.0127
 4623poe     o220909   2.772   2.755   3.590  0.4636 -0.2749 -0.0032
 4623poe    c2320910   2.667   2.662   3.579  0.4304 -0.2536  0.1302
 4623poe    c2320911   2.656   2.630   3.429  1.0304  0.4703 -0.0705
 4623poe     o220912   2.587   2.720   3.345  0.3047 -0.1944 -0.1886
 4623poe    c2320913   2.596   2.666   3.215  0.1654 -0.5432 -0.0544
 4623poe    c2320914   2.477   2.588   3.155 -0.4696  0.0898  0.3700
 4623poe     o220915   2.456   2.496   3.260  0.1771  0.3011  0.6910
 4623poe    c3120916   2.326   2.442   3.270  0.1846  0.3220  0.9189
 4624poe    c3120917   4.529   7.202   5.717  0.4387  0.5001 -0.1451
 4624poe     o220918   4.506   7.338   5.686 -1.1238  0.2112 -0.2882
 4624poe    c2320919   4.609   7.396   5.610 -0.2994 -0.7157  0.1054
 4624poe    c2320920   4.572   7.544   5.593  0.4113 -0.5879 -0.3607
 4624poe     o220921   4.472   7.578   5.499 -0.1158 -0.0874  0.3670
 4624poe    c2320922   4.454   7.717   5.505 -0.4514 -0.1300  0.3423
 4624poe    c2320923   4.325   7.760   5.432 -0.4684 -0.2960  0.2737
 4624poe     o220924   4.207   7.715   5.494 -0.6730  0.4066  0.3991
 4624poe    c2320925   4.100   7.754   5.411 -0.2759 -0.0026 -0.3115
 4624poe    c2320926   3.966   7.704   5.470  0.0894 -0.1740  0.3786
 4624poe     o220927   3.948   7.565   5.483  0.0146 -0.2188 -0.1907
 4624poe    c3120928   3.835   7.536   5.562  0.0800  0.0294 -0.0048
 4625poe    c3120929   3.804   1.325   2.644  0.8033 -0.1647 -0.0160
 4625poe     o220930   3.812   1.464   2.663  0.1861 -0.1882  0.4361
 4625poe    c2320931   3.706   1.514   2.742 -0.2391 -0.0542 -0.2096
 4625poe    c2320932   3.712   1.658   2.796 -0.1941 -0.3295  0.5241
 4625poe     o220933   3.708   1.752   2.692  0.6062 -0.2570  0.5483
 4625poe    c2320934   3.742   1.880   2.740 -0.1769  0.2277 -0.1519
 4625poe    c2320935   3.776   1.987   2.635  0.6729  0.1354  0.0215
 4625poe     o220936   3.682   2.005   2.531  1.0515  0.1867 -0.3160
 4625poe    c2320937   3.726   2.110   2.448 -0.1491  0.4212 -0.6883
 4625poe    c2320938   3.625   2.133   2.334 -0.1444  0.2442 -0.7299
 4625poe     o220939   3.597   2.022   2.252  0.7299 -0.2494 -0.3792
 4625poe    c3120940   3.505   2.065   2.154  0.2671 -0.2095  0.0677
 4626poe    c3120941   4.137   4.719   0.891 -0.1352  0.1423 -0.2816
 4626poe     o220942   4.151   4.839   0.819  0.2806  0.2996  0.0574
 4626poe    c2320943   4.251   4.918   0.879  0.6478 -0.0593 -0.0747
 4626poe    c2320944   4.258   5.038   0.783  0.0632 -0.1669 -0.2551
 4626poe     o220945   4.124   5.073   0.756 -0.0169  0.1076  0.4692
 4626poe    c2320946   4.115   5.170   0.655 -0.1179 -0.2833  0.1025
 4626poe    c2320947   3.978   5.185   0.586 -0.2293  0.1788  0.4190
 4626poe     o220948   3.952   5.050   0.555  0.2002  0.1196  0.3027
 4626poe    c2320949   3.876   5.027   0.438  0.3202  0.6961  0.1073
 4626poe    c2320950   3.971   5.011   0.318  0.0904 -0.0916  0.0231
 4626poe     o220951   4.054   4.901   0.345  0.0098 -0.0873  0.2896
 4626poe    c3120952   4.126   4.844   0.238  0.0513 -0.4708  0.5206
 4627poe    c3120953   5.311   6.577   1.499 -0.5595  0.2162 -0.2250
 4627poe     o220954   5.252   6.695   1.548 -0.1909  0.3582 -0.1216
 4627poe    c2320955   5.179   6.746   1.440  0.0244  0.3225 -0.2855
 4627poe    c2320956   5.034   6.750   1.491 -0.1328  0.1303 -0.7098
 4627poe     o220957   5.026   6.811   1.618 -0.4002 -0.6819 -0.3245
 4627poe    c2320958   4.902   6.828   1.682 -0.3035  0.3141 -0.3765
 4627poe    c2320959   4.900   6.938   1.790  0.2059 -0.0944  0.0547
 4627poe     o220960   4.892   7.066   1.731  0.1570 -0.1603 -0.0832
 4627poe    c2320961   4.890   7.165   1.831 -0.0503  0.2742 -0.5147
 4627poe    c2320962   4.948   7.295   1.772  0.1457  0.3091 -0.2485
 4627poe     o220963   4.844   7.378   1.724 -0.4224 -0.2833 -0.0570
 4627poe    c3120964   4.899   7.471   1.634  0.6831 -0.4053  0.4793
 4628poe    c3120965   1.838   6.652   1.656  0.1838  0.2721  0.1488
 4628poe     o220966   1.928   6.560   1.715  0.3312  0.3687  0.0735
 4628poe    c2320967   2.015   6.627   1.804  0.3348  0.4074  0.0406
 4628poe    c2320968   2.134   6.539   1.845  0.0895 -0.3192 -0.7713
 4628poe     o220969   2.233   6.537   1.745  0.1168 -0.0908 -0.7482
 4628poe    c2320970   2.340   6.453   1.779  0.0341  0.1896  0.2359
 4628poe    c2320971   2.449   6.441   1.671  0.2692 -0.1670  0.5073
 4628poe     o220972   2.390   6.393   1.552  0.5641  0.5681  0.0572
 4628poe    c2320973   2.477   6.392   1.441  0.1705  0.0244 -0.2509
 4628poe    c2320974   2.425   6.347   1.304 -0.2945 -0.9016  0.2238
 4628poe     o220975   2.328   6.439   1.260  0.0778 -0.5355  0.1659
 4628poe    c3120976   2.293   6.404   1.127  0.2324  0.1323 -0.0549
 4629poe    c3120977   4.078   7.235   5.218 -0.4172 -0.0218 -0.0082
 4629poe     o220978   4.201   7.184   5.264 -0.2229  0.4250 -0.0344
 4629poe    c2320979   4.191   7.044   5.274 -0.2277  0.4713  0.6558
 4629poe    c2320980   4.327   7.011   5.338  0.1094  0.7574  0.1034
 4629poe     o220981   4.433   7.076   5.273  0.6970  0.0872  0.3785
 4629poe    c2320982   4.554   7.073   5.347  0.6258  0.2039  0.4989
 4629poe    c2320983   4.660   7.122   5.247  0.4156  0.0873  0.2174
 4629poe     o220984   4.629   7.258   5.226 -0.2939 -0.0114  0.6006
 4629poe    c2320985   4.738   7.336   5.183 -0.3105 -0.2247  0.1678
 4629poe    c2320986   4.700   7.485   5.171  0.3033 -0.0508  0.3782
 4629poe     o220987   4.607   7.502   5.067 -0.1520  0.2779  0.8327
 4629poe    c3120988   4.553   7.630   5.044 -0.4874 -0.0270 -0.1312
 4630poe    c3120989   3.624   2.322   3.938 -0.0057 -0.4752  0.5160
 4630poe     o220990   3.733   2.406   3.966 -0.0347 -0.2003 -0.1890
 4630poe    c2320991   3.829   2.344   4.048  0.1208 -0.1004 -0.2974
 4630poe    c2320992   3.947   2.443   4.051  0.3078 -0.3218 -0.3058
 4630poe     o220993   4.043   2.446   3.947  0.3399 -0.1209 -0.2718
 4630poe    c2320994   4.164   2.504   3.989  0.1259 -0.0799  0.2992
 4630poe    c2320995   4.241   2.538   3.859 -0.5502 -0.5587 -0.2303
 4630poe     o220996   4.211   2.645   3.772  0.2258  0.1521  0.3638
 4630poe    c2320997   4.314   2.643   3.676 -0.2625  0.2219 -0.1618
 4630poe    c2320998   4.314   2.774   3.596  0.4094 -0.0434 -0.6058
 4630poe     o220999   4.196   2.789   3.518 -0.3999 -0.2788  0.5540
 4630poe    c3121000   4.213   2.723   3.394  0.0331  0.1759  0.3684
 4631poe    c3121001   4.660   1.965   5.963  0.0048 -0.1551 -0.1396
 4631poe     o221002   4.619   1.970   6.098  0.0117  0.0385 -0.1447
 4631poe    c2321003   4.725   1.991   6.188  0.1550  0.3689 -0.3908
 4631poe    c2321004   4.673   2.004   6.332  0.4666  0.3530 -0.2752
 4631poe     o221005   4.588   1.894   6.354 -0.1721  0.8497 -0.2098
 4631poe    c2321006   4.510   1.912   6.469 -0.3377 -0.2054 -0.1432
 4631poe    c2321007   4.475   1.781   6.541 -0.0154 -0.0730  0.2593
 4631poe     o221008   4.390   1.699   6.464 -0.0021 -0.2521  0.4324
 4631poe    c2321009   4.441   1.570   6.440  1.1870  0.1983  0.4486
 4631poe    c2321010   4.374   1.490   6.327 -0.1228  0.3044  1.1295
 4631poe     o221011   4.241   1.448   6.348 -0.3983  0.4390 -0.2677
 4631poe    c3121012   4.212   1.342   6.259 -0.1548  0.1778 -0.0376
 4632poe    c3121013   3.060   0.210   3.801  0.3881  0.0872  0.0016
 4632poe     o221014   2.952   0.300   3.791  0.4089  0.1196  0.0581
 4632poe    c2321015   3.002   0.426   3.753  0.2546  0.0665 -0.3288
 4632poe    c2321016   2.940   0.542   3.832 -0.5216 -0.2611 -0.4420
 4632poe     o221017   2.801   0.557   3.814 -0.4697  0.1255 -0.5465
 4632poe    c2321018   2.756   0.637   3.920 -0.2166 -0.7433  0.2342
 4632poe    c2321019   2.604   0.660   3.922 -0.0533  0.4649 -0.2302
 4632poe     o221020   2.558   0.738   3.814  0.2739  0.7624 -0.1562
 4632poe    c2321021   2.422   0.768   3.837  0.1706  0.1256  0.0693
 4632poe    c2321022   2.340   0.672   3.748  0.2299  0.1266  0.0128
 4632poe     o221023   2.353   0.532   3.763  0.0145  0.1129  0.0780
 4632poe    c3121024   2.264   0.466   3.675  0.0991 -0.1635  0.2018
 4633poe    c3121025   5.631   2.943   1.094  0.2108  0.2294  0.5217
 4633poe     o221026   5.590   2.898   1.221 -0.3365 -0.2869  0.1643
 4633poe    c2321027   5.455   2.863   1.202 -0.3480  0.0796 -0.4897
 4633poe    c2321028   5.400   2.815   1.339  0.4329 -0.4989 -0.3716
 4633poe     o221029   5.460   2.699   1.392  0.1149 -0.2594  0.5254
 4633poe    c2321030   5.444   2.688   1.531  0.2895 -0.0085  0.5664
 4633poe    c2321031   5.567   2.633   1.605  0.3093 -0.0901  0.4725
 4633poe     o221032   5.676   2.722   1.618  0.3756 -0.0580 -0.2808
 4633poe    c2321033   5.783   2.659   1.684  0.0042  0.2195  0.5987
 4633poe    c2321034   5.853   2.756   1.781  0.0809  0.6929  0.0755
 4633poe     o221035   5.765   2.823   1.870 -0.2051  0.2200  0.1517
 4633poe    c3121036   5.738   2.755   1.990  0.1484  0.1569  0.1965
 4634poe    c3121037   4.322   3.135   2.748 -0.3605  0.2565  0.3330
 4634poe     o221038   4.242   3.251   2.738 -0.2229  0.3230 -0.0261
 4634poe    c2321039   4.177   3.296   2.855 -0.1815  0.2879  0.0104
 4634poe    c2321040   4.041   3.363   2.824 -0.2519  0.0556 -0.1878
 4634poe     o221041   3.968   3.271   2.745 -0.3192 -0.2843  0.2647
 4634poe    c2321042   3.839   3.317   2.714  0.0657  0.5626 -0.1130
 4634poe    c2321043   3.784   3.219   2.608  0.0916  0.8322 -0.3773
 4634poe     o221044   3.870   3.204   2.497 -0.2831 -0.3644 -0.5118
 4634poe    c2321045   3.812   3.185   2.369 -0.1479 -0.2592 -0.5880
 4634poe    c2321046   3.916   3.144   2.262  0.3341 -0.2940 -0.1145
 4634poe     o221047   3.974   3.020   2.295  0.2685 -0.1472  0.5798
 4634poe    c3121048   4.021   2.968   2.173 -0.0006  0.6103  0.1412
 4635poe    c3121049   3.101   0.857   3.117  0.1663 -0.2762 -0.4721
 4635poe     o221050   3.177   0.867   3.234 -0.3577 -0.3908 -0.1179
 4635poe    c2321051   3.314   0.884   3.205 -0.4193  0.0462 -0.1601
 4635poe    c2321052   3.379   0.891   3.345  0.3844 -0.3004 -0.5079
 4635poe     o221053   3.352   0.990   3.442 -0.0297 -0.1041 -0.8164
 4635poe    c2321054   3.480   1.044   3.464 -0.4625  0.4225  0.4601
 4635poe    c2321055   3.479   1.171   3.552 -0.0719  0.2676  0.6927
 4635poe     o221056   3.431   1.150   3.682  0.3786  0.2868  0.8635
 4635poe    c2321057   3.449   1.267   3.759  1.2928  0.3188  0.6113
 4635poe    c2321058   3.355   1.264   3.881  0.4326 -0.5691 -0.0556
 4635poe     o221059   3.223   1.280   3.835  0.1833 -0.4427  0.6947
 4635poe    c3121060   3.125   1.295   3.935  0.0353  0.1185  0.4732
 4636poe    c3121061   0.267   3.406   4.884 -0.8848  0.2714 -0.1257
 4636poe     o221062   0.377   3.444   4.964 -0.5382 -0.0521 -0.4467
 4636poe    c2321063   0.486   3.502   4.897 -0.1466 -0.6115 -0.3028
 4636poe    c2321064   0.597   3.555   4.989 -0.4801 -0.2396 -0.1126
 4636poe     o221065   0.536   3.640   5.083  0.2457  0.1547  0.0144
 4636poe    c2321066   0.596   3.621   5.209  0.0544  0.0651  0.0929
 4636poe    c2321067   0.522   3.697   5.321  0.2373 -0.2727  0.4486
 4636poe     o221068   0.395   3.655   5.365 -0.2160  0.0719 -0.4978
 4636poe    c2321069   0.335   3.728   5.470 -0.1896 -0.4759 -0.0945
 4636poe    c2321070   0.214   3.659   5.535 -0.1250 -0.1256  0.3982
 4636poe     o221071   0.088   3.652   5.472  0.1480 -0.5199 -0.1018
 4636poe    c3121072   0.032   3.770   5.420 -0.1270 -0.5632  0.0985
 4637poe    c3121073   7.465   0.422   1.884 -0.5095 -0.1575 -0.1086
 4637poe     o221074   7.423   0.328   1.788  0.4546 -0.0806 -0.6238
 4637poe    c2321075   7.483   0.204   1.815 -0.0440 -0.1186  0.3514
 4637poe    c2321076   7.396   0.092   1.756 -0.0034  0.1679 -0.2578
 4637poe     o221077   7.409   0.060   1.619 -0.1424 -0.6709 -0.0817
 4637poe    c2321078   7.295  -0.008   1.572 -0.1507 -0.6185 -0.1359
 4637poe    c2321079   7.307  -0.048   1.424 -0.1641  0.0713 -0.3263
 4637poe     o221080   7.329   0.066   1.343  0.3892  0.1429 -0.0820
 4637poe    c2321081   7.211   0.126   1.295  0.0598 -0.2241  0.2638
 4637poe    c2321082   7.244   0.220   1.177 -0.3061  0.2641  0.5469
 4637poe     o221083   7.349   0.311   1.202  0.1977 -0.0513 -0.3882
 4637poe    c3121084   7.356   0.421   1.113 -0.2336  0.3309  0.0475
 4638poe    c3121085   2.014   0.864   2.116 -0.8973  0.1788 -0.0155
 4638poe     o221086   2.014   1.004   2.101  0.2880  0.2165  0.1796
 4638poe    c2321087   1.913   1.022   2.004 -0.0115 -0.3387  0.3855
 4638poe    c2321088   1.913   1.161   1.940  0.3842 -0.2806  0.5093
 4638poe     o221089   2.018   1.204   1.856  0.0985 -0.3449  0.1122
 4638poe    c2321090   2.045   1.121   1.745  0.2234  0.3157 -0.3555
 4638poe    c2321091   2.191   1.140   1.697  0.3405  0.0288 -0.1146
 4638poe     o221092   2.216   1.261   1.630  0.0709  0.1300 -0.0339
 4638poe    c2321093   2.306   1.344   1.699  0.2719 -0.0904 -0.0310
 4638poe    c2321094   2.396   1.431   1.611  0.5440  0.3900  0.7078
 4638poe     o221095   2.493   1.358   1.539 -0.0460  0.0061  0.2939
 4638poe    c3121096   2.588   1.439   1.474 -0.0587 -0.6684 -0.5797
 4639poe    c3121097   7.211   2.387   0.372  0.1993  0.3295 -0.0901
 4639poe     o221098   7.282   2.444   0.264  0.2422  0.2066 -0.1274
 4639poe    c2321099   7.273   2.584   0.269 -0.1155  0.1716  0.2310
 4639poe    c2321100   7.331   2.646   0.141  0.0009 -0.6233 -0.1081
 4639poe     o221101   7.268   2.616   0.018 -0.2154  0.2453 -0.2207
 4639poe    c2321102   7.294   2.718  -0.075 -0.2075  0.3734 -0.0794
 4639poe    c2321103   7.191   2.691  -0.186 -0.1851  0.2069 -0.0606
 4639poe     o221104   7.200   2.554  -0.217  0.1797  0.3617 -0.6647
 4639poe    c2321105   7.116   2.517  -0.324 -0.0403 -0.2881 -0.2735
 4639poe    c2321106   7.088   2.365  -0.326 -0.0008 -0.2979 -0.1480
 4639poe     o221107   7.003   2.339  -0.217 -0.3483  0.2952 -0.2715
 4639poe    c3121108   6.969   2.203  -0.206  0.0996  0.1751 -0.3552
 4640poe    c3121109   0.818   4.613   5.731  0.0462 -0.0639  0.2528
 4640poe     o221110   0.911   4.542   5.810  0.3278  0.0393  0.0143
 4640poe    c2321111   1.037   4.602   5.799  0.5513 -0.4116  0.0917
 4640poe    c2321112   1.157   4.513   5.761  0.5238 -0.2691 -0.3335
 4640poe     o221113   1.184   4.409   5.852 -0.5696 -0.1745  0.1101
 4640poe    c2321114   1.311   4.349   5.840 -0.3565  0.3036 -0.0370
 4640poe    c2321115   1.309   4.227   5.934 -0.0717  0.3450  0.0240
 4640poe     o221116   1.222   4.131   5.880 -0.3435  0.6232 -0.0385
 4640poe    c2321117   1.208   4.034   5.982 -0.3515  0.2471 -0.3923
 4640poe    c2321118   1.121   3.915   5.939  0.2187 -0.0950 -0.6101
 4640poe     o221119   1.007   3.966   5.873 -0.1464  0.1194  0.1788
 4640poe    c3121120   0.920   3.861   5.834  0.3071 -0.1360 -0.1534
 4641poe    c3121121   0.938   4.182   2.357 -0.6339  0.1880  0.5003
 4641poe     o221122   0.816   4.156   2.423 -0.4157  0.0673  0.8554
 4641poe    c2321123   0.753   4.050   2.356 -0.0302  0.0264  0.5577
 4641poe    c2321124   0.612   4.030   2.415 -0.2735 -0.2410 -0.1017
 4641poe     o221125   0.610   3.980   2.546  0.7885 -0.1986 -0.0544
 4641poe    c2321126   0.475   3.969   2.588  0.7605  0.5467  0.0657
 4641poe    c2321127   0.464   3.962   2.742 -0.3269 -0.3123 -0.0441
 4641poe     o221128   0.557   3.866   2.786  0.1386  0.3362  0.4095
 4641poe    c2321129   0.544   3.866   2.926  0.3594  1.0086  0.4346
 4641poe    c2321130   0.660   3.781   2.981 -0.0804 -0.0555 -0.2473
 4641poe     o221131   0.773   3.837   2.916  0.0016  0.2425  0.1499
 4641poe    c3121132   0.892   3.813   2.987  0.1407 -0.3923 -0.2917
 4642poe    c3121133   7.080   3.912   6.405  0.5300  0.2962 -0.1524
 4642poe     o221134   7.209   3.928   6.351  0.6331 -0.2190 -0.0625
 4642poe    c2321135   7.282   4.025   6.423  0.4281 -0.2509  0.1904
 4642poe    c2321136   7.416   4.061   6.357  0.3217 -0.1469  0.0311
 4642poe     o221137   7.411   4.101   6.221 -0.1045 -0.1365  0.0495
 4642poe    c2321138   7.544   4.090   6.177 -0.1341  0.3134 -0.1532
 4642poe    c2321139   7.551   4.138   6.031  0.3349 -0.1691 -0.2924
 4642poe     o221140   7.452   4.074   5.953 -0.0081 -0.1608  0.1310
 4642poe    c2321141   7.474   4.089   5.814  0.0045 -0.4152  0.1047
 4642poe    c2321142   7.356   4.024   5.740 -0.0508 -0.0451 -0.1324
 4642poe     o221143   7.239   4.047   5.816 -0.1530 -0.0584 -0.2861
 4642poe    c3121144   7.120   4.040   5.740 -0.1909 -0.2319 -0.2100
 4643poe    c3121145   5.192   5.668   3.654 -0.3656 -0.2510 -0.3168
 4643poe     o221146   5.173   5.755   3.764  0.2987 -0.0261 -0.3752
 4643poe    c2321147   5.241   5.693   3.871 -0.9548 -1.1532 -0.2134
 4643poe    c2321148   5.198   5.748   4.008 -0.0423  0.3793 -0.5269
 4643poe     o221149   5.283   5.854   4.047 -0.0066  0.0123  0.3965
 4643poe    c2321150   5.344   5.830   4.172  0.2248 -0.3022  0.2253
 4643poe    c2321151   5.428   5.957   4.193 -0.6051  0.3945 -0.6040
 4643poe     o221152   5.347   6.056   4.253 -0.1325  0.1965  0.3786
 4643poe    c2321153   5.430   6.155   4.310  0.2559  0.3087 -0.3640
 4643poe    c2321154   5.360   6.290   4.334 -0.0876  0.1018 -0.1858
 4643poe     o221155   5.238   6.273   4.403  0.1521 -0.6553  0.0634
 4643poe    c3121156   5.176   6.399   4.411  0.0299 -0.7126  0.0182
 4644poe    c3121157   2.640   2.699   4.054  0.0576  0.2739  0.6378
 4644poe     o221158   2.597   2.831   4.030  0.4141  0.3404  0.3611
 4644poe    c2321159   2.460   2.838   4.062  0.5288  0.1505  0.9046
 4644poe    c2321160   2.387   2.970   4.029  0.1015 -0.3213 -0.0624
 4644poe     o221161   2.451   3.069   4.106 -0.3168 -0.2895  0.2479
 4644poe    c2321162   2.391   3.196   4.104 -0.2059 -0.2446 -0.5863
 4644poe    c2321163   2.479   3.309   4.160 -0.4072 -0.3204 -0.1181
 4644poe     o221164   2.601   3.317   4.090 -0.0398 -0.0350  0.5438
 4644poe    c2321165   2.682   3.420   4.142 -0.4205  0.9726 -0.8001
 4644poe    c2321166   2.807   3.416   4.054 -0.3124  0.0802 -0.6116
 4644poe     o221167   2.841   3.283   4.021  0.4767  0.0594  0.2298
 4644poe    c3121168   2.942   3.279   3.923 -0.4591  0.0361 -0.7527
 4645poe    c3121169   4.843   2.097   2.122  0.5147  0.2105  0.3775
 4645poe     o221170   4.837   2.219   2.051 -0.1661 -0.3604 -0.5725
 4645poe    c2321171   4.909   2.209   1.931  0.0393  0.1988 -0.5006
 4645poe    c2321172   4.916   2.352   1.874  0.3726  0.1383 -0.6142
 4645poe     o221173   5.002   2.421   1.961  0.6987 -0.1600 -0.6935
 4645poe    c2321174   5.049   2.535   1.893  0.3970  0.1619 -0.3685
 4645poe    c2321175   5.159   2.608   1.973  0.1337 -0.1923  0.3179
 4645poe     o221176   5.134   2.611   2.112 -0.3543  0.5100  0.2197
 4645poe    c2321177   5.243   2.672   2.179  0.3846 -0.4971 -0.0332
 4645poe    c2321178   5.380   2.606   2.196  0.3232 -0.5085  0.4228
 4645poe     o221179   5.384   2.474   2.247 -0.0089 -0.3925  0.7477
 4645poe    c3121180   5.514   2.420   2.240  0.0548 -0.1325 -0.2867
 4646poe    c3121181   2.736   1.873   2.685 -0.4634  0.0970 -0.2067
 4646poe     o221182   2.770   1.736   2.680  0.0720  0.2315 -0.2728
 4646poe    c2321183   2.723   1.669   2.795  1.2860  0.0958  0.1605
 4646poe    c2321184   2.764   1.520   2.795  0.5347 -0.1204 -0.7458
 4646poe     o221185   2.898   1.480   2.804  0.1740 -1.1615  0.1129
 4646poe    c2321186   2.942   1.434   2.931  0.4995  0.6481  0.6771
 4646poe    c2321187   3.068   1.347   2.922 -0.2909 -0.4543  0.0654
 4646poe     o221188   3.181   1.424   2.889 -0.4397 -0.1773  0.1989
 4646poe    c2321189   3.292   1.337   2.879 -0.2519  0.0688  0.1454
 4646poe    c2321190   3.366   1.396   2.758 -0.2705  0.0846  0.1415
 4646poe     o221191   3.314   1.386   2.627  0.2388  0.2158 -0.0759
 4646poe    c3121192   3.410   1.392   2.524  0.3113  0.5979  0.0131
 4647poe    c3121193   0.007   6.755   0.630 -0.2217  0.2898 -0.6503
 4647poe     o221194   0.077   6.864   0.573  0.1063  0.5708  0.2688
 4647poe    c2321195   0.206   6.823   0.532 -0.2526 -0.2665 -0.0353
 4647poe    c2321196   0.292   6.936   0.473 -0.0223 -0.5112 -0.1744
 4647poe     o221197   0.258   6.979   0.343 -0.5041  0.0589  0.1354
 4647poe    c2321198   0.345   7.082   0.301 -0.9589  0.5086  0.2796
 4647poe    c2321199   0.304   7.103   0.155  0.2755  0.2043 -0.1238
 4647poe     o221200   0.169   7.144   0.149  0.1271 -0.2379  0.1766
 4647poe    c2321201   0.129   7.189   0.021 -0.0407  0.4799  0.4755
 4647poe    c2321202  -0.021   7.160   0.006  0.1097 -0.1442  0.1245
 4647poe     o221203  -0.032   7.031   0.061 -0.1319 -0.1694  0.0168
 4647poe    c3121204  -0.160   6.980   0.027 -0.1343 -0.4918  0.4971
 4648poe    c3121205   2.348   1.835   2.391 -0.6063 -0.6491 -0.3756
 4648poe     o221206   2.217   1.854   2.440 -0.2976 -0.1791  0.2698
 4648poe    c2321207   2.203   1.994   2.449  0.3655 -0.0775 -0.2075
 4648poe    c2321208   2.057   2.044   2.450  0.5414  0.4308  0.2614
 4648poe     o221209   1.979   1.998   2.558 -0.1239 -0.2747 -0.5062
 4648poe    c2321210   1.844   2.037   2.548 -0.2194 -0.4685  0.0100
 4648poe    c2321211   1.753   1.997   2.666  0.0596  0.0849  0.4204
 4648poe     o221212   1.799   2.079   2.771 -0.1020 -0.2582  0.7625
 4648poe    c2321213   1.761   2.031   2.897 -0.5639 -0.2406  0.6308
 4648poe    c2321214   1.787   2.145   2.997 -0.2299  0.2691 -0.0354
 4648poe     o221215   1.913   2.197   2.962  0.0751 -0.4937 -0.0752
 4648poe    c3121216   1.960   2.291   3.056  0.1957 -0.4383 -0.1908
 4649poe    c3121217   4.794   3.077   4.597  0.6896  0.3200  0.3617
 4649poe     o221218   4.757   3.098   4.732 -0.0567 -0.0653  0.2186
 4649poe    c2321219   4.698   2.981   4.786 -0.3617 -0.1668 -0.3151
 4649poe    c2321220   4.721   2.984   4.939 -0.2107  0.2875 -0.3434
 4649poe     o221221   4.651   3.090   4.999 -0.1169  0.2641 -0.1908
 4649poe    c2321222   4.649   3.080   5.139  0.5445  0.4799 -0.1645
 4649poe    c2321223   4.523   3.142   5.201  0.1257  0.2321 -0.7647
 4649poe     o221224   4.410   3.083   5.140  0.1816 -0.3131 -0.3384
 4649poe    c2321225   4.292   3.146   5.184  0.0213 -0.6100 -0.3401
 4649poe    c2321226   4.174   3.126   5.087 -0.2310  0.0504 -0.1784
 4649poe     o221227   4.196   3.135   4.948  0.6908  0.1661 -0.0312
 4649poe    c3121228   4.074   3.112   4.881  0.8656 -0.3354 -0.1789
 4650poe    c3121229   2.628   3.040   4.371 -0.8211 -0.7502 -0.1573
 4650poe     o221230   2.718   2.955   4.438  0.1106  0.2871 -0.0613
 4650poe    c2321231   2.682   2.821   4.413 -0.2259  0.3557  0.0423
 4650poe    c2321232   2.757   2.722   4.504 -0.5007 -0.0797 -0.2031
 4650poe     o221233   2.895   2.714   4.476 -0.5372  0.0892 -0.4316
 4650poe    c2321234   2.954   2.588   4.498 -0.3635  0.1994 -0.2572
 4650poe    c2321235   3.057   2.574   4.385  0.0996  0.2887  0.1526
 4650poe     o221236   3.150   2.680   4.378  0.4506 -0.0069  0.3361
 4650poe    c2321237   3.253   2.655   4.285  0.0839 -0.5659  0.0777
 4650poe    c2321238   3.371   2.576   4.345  0.0236 -0.8485 -0.1733
 4650poe     o221239   3.491   2.571   4.270 -0.2473  0.0063 -0.6775
 4650poe    c3121240   3.566   2.458   4.309 -0.3338  0.1116 -0.2039
 4651poe    c3121241   3.799   3.915   4.465  0.1507 -0.4619 -0.3390
 4651poe     o221242   3.812   3.811   4.559  0.2961  0.2030  0.3842
 4651poe    c2321243   3.947   3.780   4.587  0.2883 -0.4819 -0.3001
 4651poe    c2321244   3.985   3.635   4.620  1.2525 -0.1624  0.0234
 4651poe     o221245   3.904   3.586   4.725  0.4493  0.1666 -0.4361
 4651poe    c2321246   3.963   3.461   4.753 -0.0679  0.0436  0.1340
 4651poe    c2321247   3.889   3.393   4.869 -0.6843  0.0391 -0.2575
 4651poe     o221248   3.757   3.347   4.852 -0.5643 -0.3938 -0.0254
 4651poe    c2321249   3.688   3.309   4.970  0.4438 -0.0483  0.6877
 4651poe    c2321250   3.536   3.326   4.950  0.4639 -0.0460  0.5360
 4651poe     o221251   3.500   3.462   4.952 -0.0745 -0.1722 -0.2057
 4651poe    c3121252   3.361   3.474   4.970  0.0090  0.3044  0.1191
 4652poe    c3121253   7.424   1.711   4.905 -0.2987  0.7003 -0.6203
 4652poe     o221254   7.332   1.797   4.968 -0.6332  0.2882 -0.5397
 4652poe    c2321255   7.379   1.923   4.923  0.3996  0.2401  0.3593
 4652poe    c2321256   7.263   2.023   4.939  0.0087 -0.1793  0.1745
 4652poe     o221257   7.195   1.986   5.057  0.3624  0.0352  0.4466
 4652poe    c2321258   7.079   2.064   5.076  0.1731 -0.0762 -0.2147
 4652poe    c2321259   7.014   2.030   5.211  0.2781 -0.1720 -0.1873
 4652poe     o221260   6.972   1.895   5.217  0.3481 -0.1971 -0.2605
 4652poe    c2321261   6.873   1.877   5.316 -0.0594  0.3657 -0.5613
 4652poe    c2321262   6.832   1.729   5.313 -0.2727  0.4147 -0.1837
 4652poe     o221263   6.747   1.674   5.214 -0.4569  0.0978  0.1443
 4652poe    c3121264   6.743   1.537   5.243  0.1316  0.0872  0.1846
 4653poe    c3121265   6.971   4.077   3.959 -0.6253  0.3035 -0.2068
 4653poe     o221266   6.987   4.197   4.031  0.2863  0.1260 -0.1038
 4653poe    c2321267   6.869   4.220   4.104  0.0483 -0.1026 -0.4174
 4653poe    c2321268   6.858   4.368   4.143 -0.1424 -0.2275  0.0052
 4653poe     o221269   6.858   4.442   4.023 -0.0289  0.0305  0.1633
 4653poe    c2321270   6.878   4.577   4.058  0.7497 -0.1293  0.3564
 4653poe    c2321271   6.929   4.668   3.945  0.3283 -0.1815  0.1237
 4653poe     o221272   7.063   4.649   3.907  0.1794 -0.5719 -0.2232
 4653poe    c2321273   7.093   4.736   3.800  0.4290 -0.7975 -0.3384
 4653poe    c2321274   7.234   4.736   3.737  0.3753  0.3551 -0.4757
 4653poe     o221275   7.255   4.613   3.672 -0.0545 -0.3013  0.6030
 4653poe    c3121276   7.393   4.604   3.647 -0.1819 -0.5101 -0.0440
 4654poe    c3121277   6.157   5.755   4.263  0.0157  0.0005 -0.1368
 4654poe     o221278   6.191   5.691   4.142 -0.1450 -0.2100 -0.0720
 4654poe    c2321279   6.188   5.550   4.142  0.1270 -0.2176 -0.2699
 4654poe    c2321280   6.240   5.464   4.025  0.2560 -0.5930  0.0607
 4654poe     o221281   6.367   5.506   3.980  0.1058 -0.1540  0.0363
 4654poe    c2321282   6.402   5.433   3.865  0.8074 -0.4735  0.4450
 4654poe    c2321283   6.507   5.512   3.783 -0.3039  0.0677 -0.4999
 4654poe     o221284   6.590   5.550   3.891 -0.5175  0.2959 -0.4168
 4654poe    c2321285   6.692   5.638   3.850 -0.1927  0.0679 -0.0921
 4654poe    c2321286   6.779   5.645   3.977 -0.3511 -0.3440  0.0421
 4654poe     o221287   6.691   5.655   4.087 -0.0145 -0.1968  0.3000
 4654poe    c3121288   6.771   5.632   4.201  0.2233  0.4572  0.2740
 4655poe    c3121289   2.058   2.247   0.502  0.1355  0.4576 -0.0487
 4655poe     o221290   2.151   2.185   0.589  0.1314  0.2431 -0.1959
 4655poe    c2321291   2.248   2.119   0.511  0.1568  0.0712 -0.0203
 4655poe    c2321292   2.368   2.060   0.586  0.4897  0.0061 -0.5983
 4655poe     o221293   2.444   2.155   0.658 -0.1207  0.1527 -0.1416
 4655poe    c2321294   2.582   2.129   0.669 -0.0943  0.2391 -0.2621
 4655poe    c2321295   2.644   2.003   0.732  0.3121  0.4940 -0.1557
 4655poe     o221296   2.651   1.894   0.644  0.3745  0.2052  0.2019
 4655poe    c2321297   2.677   1.772   0.710 -0.0741  0.0687  0.1305
 4655poe    c2321298   2.707   1.670   0.599 -0.5589 -0.0284  0.0896
 4655poe     o221299   2.810   1.709   0.512 -0.0580 -0.4568  0.4838
 4655poe    c3121300   2.861   1.616   0.419 -0.0354 -0.1135  0.1454
 4656poe    c3121301   7.149   2.857   5.124 -0.1263 -0.1791 -0.8272
 4656poe     o221302   7.204   2.735   5.078  0.1662 -0.3547 -0.0302
 4656poe    c2321303   7.153   2.621   5.143 -0.3575 -0.2733 -0.2930
 4656poe    c2321304   7.245   2.500   5.116  0.4037  0.2735 -0.1769
 4656poe     o221305   7.243   2.483   4.976  0.3605 -0.0986 -0.1308
 4656poe    c2321306   7.333   2.382   4.938  1.0418  0.2160  0.6221
 4656poe    c2321307   7.356   2.390   4.785 -0.0508 -0.4810  0.4128
 4656poe     o221308   7.439   2.500   4.756 -0.0062 -0.4968  0.4792
 4656poe    c2321309   7.472   2.499   4.619 -0.4638 -0.0675  0.3652
 4656poe    c2321310   7.516   2.639   4.573  0.1424 -0.1012  0.8386
 4656poe     o221311   7.435   2.739   4.632 -0.4629  0.1577 -0.4056
 4656poe    c3121312   7.434   2.870   4.580 -0.5813 -0.1127 -1.1023
 4657poe    c3121313   5.697   4.452   5.125  0.0728 -0.6041 -0.0136
 4657poe     o221314   5.794   4.439   5.226  0.2450 -0.3735 -0.1471
 4657poe    c2321315   5.902   4.528   5.208  0.4700 -0.5574  0.2715
 4657poe    c2321316   5.934   4.615   5.331  0.3897 -0.0986 -0.0287
 4657poe     o221317   5.993   4.534   5.430 -0.3076 -0.2591  0.2656
 4657poe    c2321318   5.967   4.584   5.559  0.0316 -0.0054  0.2398
 4657poe    c2321319   6.070   4.550   5.668  0.1228  0.2610  0.2361
 4657poe     o221320   6.055   4.420   5.720 -0.1107  0.2158  0.0566
 4657poe    c2321321   6.031   4.422   5.859 -0.3223  0.1745  0.0203
 4657poe    c2321322   6.167   4.418   5.930  0.0146  0.1207 -0.6216
 4657poe     o221323   6.232   4.293   5.925 -0.4792 -0.1625 -0.0678
 4657poe    c3121324   6.361   4.301   5.982 -0.3928  0.3170 -0.3244
 4658poe    c3121325   3.698   1.893   0.137 -0.3299  0.0227  0.2429
 4658poe     o221326   3.774   2.004   0.177  0.4664 -0.4838  0.1665
 4658poe    c2321327   3.681   2.066   0.264  1.0266 -0.6197  0.8769
 4658poe    c2321328   3.745   2.181   0.345 -0.2322  0.4659  0.3640
 4658poe     o221329   3.819   2.134   0.455  0.1944 -0.1514 -0.1827
 4658poe    c2321330   3.873   2.255   0.502 -0.5005  0.0954 -0.0235
 4658poe    c2321331   3.976   2.227   0.612  0.1296 -0.1482 -0.6699
 4658poe     o221332   4.045   2.111   0.571  0.3153 -0.1983 -0.2283
 4658poe    c2321333   4.172   2.104   0.632  0.4204  0.5209 -0.3590
 4658poe    c2321334   4.227   1.975   0.568 -0.1991  0.0634  0.0146
 4658poe     o221335   4.114   1.891   0.565 -0.4218  0.3762 -0.7657
 4658poe    c3121336   4.145   1.754   0.574 -0.9879  0.2764 -0.2580
 4659poe    c3121337   3.408   4.075   1.319 -0.0731 -0.7094  0.0953
 4659poe     o221338   3.281   4.033   1.361  0.1235 -0.4096  1.0089
 4659poe    c2321339   3.201   4.142   1.402  0.5058  0.4460 -0.4489
 4659poe    c2321340   3.052   4.104   1.408  0.5382  0.4052  0.2256
 4659poe     o221341   3.012   4.022   1.515  0.0633  0.5362  0.1521
 4659poe    c2321342   2.872   4.024   1.521  0.0128  0.2019 -0.7508
 4659poe    c2321343   2.846   3.892   1.594  0.6218  0.2457 -0.4530
 4659poe     o221344   2.918   3.907   1.714  0.5016  0.1540 -0.3683
 4659poe    c2321345   2.881   3.805   1.805  0.1311  0.3751 -0.2736
 4659poe    c2321346   3.011   3.767   1.877 -0.0316 -0.7086 -0.5463
 4659poe     o221347   3.119   3.780   1.788  0.1097  0.0395 -0.2719
 4659poe    c3121348   3.230   3.702   1.828 -0.0265 -0.0659 -0.1003
 4660poe    c3121349   6.483   5.167   6.316  0.2155  0.0356  0.0938
 4660poe     o221350   6.351   5.202   6.349  0.0653 -0.5206  0.0966
 4660poe    c2321351   6.283   5.106   6.428  0.0815 -0.1682  0.5459
 4660poe    c2321352   6.134   5.142   6.447  0.0310 -0.1476  0.1234
 4660poe     o221353   6.105   5.224   6.557  0.5044  0.0372  0.1142
 4660poe    c2321354   5.981   5.291   6.545  0.2737 -0.4514 -0.2900
 4660poe    c2321355   5.951   5.358   6.681 -0.2081 -0.0076 -0.6127
 4660poe     o221356   5.926   5.268   6.787  0.2005  0.1542 -0.3770
 4660poe    c2321357   5.852   5.331   6.888 -0.2988 -0.5076 -0.3181
 4660poe    c2321358   5.905   5.294   7.027 -0.1497  0.3419 -0.1402
 4660poe     o221359   6.039   5.327   7.055 -0.3313  0.3322  0.7935
 4660poe    c3121360   6.079   5.274   7.179  0.1848  0.0228  0.4981
 4661poe    c3121361   1.207   5.782   2.563 -0.1299 -0.2171 -0.7126
 4661poe     o221362   1.260   5.911   2.538  0.3010 -0.1300  0.5278
 4661poe    c2321363   1.366   5.898   2.446  0.0158  0.0197  0.1728
 4661poe    c2321364   1.431   6.030   2.402  0.7354 -0.2910  0.2925
 4661poe     o221365   1.521   6.005   2.296 -0.2464  0.1659 -0.6777
 4661poe    c2321366   1.589   6.121   2.257  0.4183  0.1768  0.4495
 4661poe    c2321367   1.641   6.100   2.113 -0.5490  0.1967  0.0918
 4661poe     o221368   1.534   6.106   2.021 -0.5475 -0.0608  0.0728
 4661poe    c2321369   1.568   6.080   1.887  0.2180  0.3255  0.1838
 4661poe    c2321370   1.452   6.013   1.811  0.7553 -0.1263 -0.2453
 4661poe     o221371   1.438   5.873   1.826 -0.0368 -0.0210  0.0248
 4661poe    c3121372   1.356   5.840   1.936 -0.3108 -0.4097 -0.2936
 4662poe    c3121373   1.514   6.595   0.671  0.4151  0.2383  0.4767
 4662poe     o221374   1.454   6.713   0.623  0.3535 -0.1003 -0.2916
 4662poe    c2321375   1.433   6.808   0.725  0.5367  0.0706 -0.4124
 4662poe    c2321376   1.356   6.929   0.672  0.4158  0.2837  0.2365
 4662poe     o221377   1.409   6.961   0.545 -0.7089  0.2751 -0.2518
 4662poe    c2321378   1.350   7.081   0.499 -0.7807  0.1380 -0.5194
 4662poe    c2321379   1.365   7.093   0.346 -0.4429 -0.1407 -0.5106
 4662poe     o221380   1.316   6.979   0.281  0.1107 -0.5453 -0.2287
 4662poe    c2321381   1.272   7.011   0.150  0.1854 -0.2891 -0.1903
 4662poe    c2321382   1.200   6.889   0.089 -0.2166  0.1069 -0.5105
 4662poe     o221383   1.299   6.799   0.045  0.0512  0.2062 -0.1192
 4662poe    c3121384   1.247   6.723  -0.062 -0.3473  0.1248  0.1265
 4663poe    c3121385   2.449   5.762   5.338  0.6240  0.1559 -0.0333
 4663poe     o221386   2.348   5.796   5.431  0.0495  0.1625 -0.6524
 4663poe    c2321387   2.391   5.911   5.501  0.3166 -0.0925 -0.3925
 4663poe    c2321388   2.268   5.960   5.580  0.4886  0.3360 -0.3898
 4663poe     o221389   2.240   5.879   5.691  0.1660  0.3889 -0.4315
 4663poe    c2321390   2.145   5.945   5.772  0.0885  0.2435 -0.4031
 4663poe    c2321391   2.098   5.839   5.873  0.4390  0.2450 -0.2350
 4663poe     o221392   1.993   5.751   5.839  0.4660  0.3482 -0.5923
 4663poe    c2321393   1.870   5.803   5.793  0.0323  0.0621  0.2101
 4663poe    c2321394   1.832   5.727   5.665  0.1278  0.2679  0.0584
 4663poe     o221395   1.801   5.595   5.704  0.3842  0.1281 -0.2044
 4663poe    c3121396   1.737   5.533   5.595 -0.0901 -0.0156  0.1490
 4664poe    c3121397   4.300   6.406   4.257 -0.3444  0.0167  0.6664
 4664poe     o221398   4.372   6.308   4.328  0.1248 -0.0872  0.0595
 4664poe    c2321399   4.510   6.334   4.347 -0.0280  0.2837  0.6802
 4664poe    c2321400   4.604   6.240   4.424  0.2371  0.4859  0.6024
 4664poe     o221401   4.742   6.268   4.417  0.1727  0.8353  0.7354
 4664poe    c2321402   4.822   6.192   4.504  0.2802  0.2442  0.1264
 4664poe    c2321403   4.848   6.044   4.467  0.1382  0.3942 -0.5890
 4664poe     o221404   4.960   5.999   4.394 -0.1156 -0.4560 -0.4594
 4664poe    c2321405   4.980   5.867   4.438 -0.0372 -0.0820  0.6624
 4664poe    c2321406   5.128   5.849   4.480  0.1920 -0.1523 -0.1687
 4664poe     o221407   5.153   5.882   4.614 -0.1181  0.3629 -0.2342
 4664poe    c3121408   5.176   6.020   4.633 -0.6266  0.5108 -0.6658
 4665poe    c3121409   4.279   4.875   2.190 -0.2808 -0.0171 -0.5989
 4665poe     o221410   4.383   4.970   2.189  0.1279 -0.4255  0.7071
 4665poe    c2321411   4.493   4.912   2.123 -0.1262 -0.5161  0.3622
 4665poe    c2321412   4.627   4.985   2.143 -0.0900 -0.4370 -0.1325
 4665poe     o221413   4.642   5.086   2.046 -0.2263 -0.1150  0.1785
 4665poe    c2321414   4.678   5.204   2.114 -0.1307 -0.0725  0.0533
 4665poe    c2321415   4.747   5.309   2.024 -0.0686 -0.0285  0.1512
 4665poe     o221416   4.666   5.359   1.920  0.5356 -0.0035 -0.3105
 4665poe    c2321417   4.740   5.430   1.823 -0.0721  0.3209 -0.5443
 4665poe    c2321418   4.652   5.490   1.712 -0.2429 -0.0259 -0.5971
 4665poe     o221419   4.570   5.600   1.743  0.3179  0.2312 -0.0214
 4665poe    c3121420   4.518   5.637   1.618 -0.4905  0.6256  0.4260
 4666poe    c3121421   2.813   1.935   3.951  0.1756 -0.4881  0.1061
 4666poe     o221422   2.930   1.866   3.913  0.4947  0.2964 -0.3404
 4666poe    c2321423   3.038   1.957   3.910  0.4884  0.3115 -0.1058
 4666poe    c2321424   3.170   1.882   3.886  0.3036  0.0480 -0.2977
 4666poe     o221425   3.189   1.815   3.763  0.0110  0.0261 -0.3318
 4666poe    c2321426   3.311   1.746   3.776 -0.2528 -0.3754  0.0605
 4666poe    c2321427   3.310   1.623   3.683 -0.0861 -0.0622 -0.3592
 4666poe     o221428   3.184   1.611   3.621 -0.3082 -0.1685  0.1136
 4666poe    c2321429   3.187   1.516   3.517 -0.1268 -0.3288  0.2643
 4666poe    c2321430   3.052   1.503   3.443 -0.0932  0.1244  0.1214
 4666poe     o221431   3.031   1.636   3.402  0.0587  0.2563  0.4626
 4666poe    c3121432   2.916   1.646   3.321  0.3357 -0.4613 -0.0310
 4667poe    c3121433   2.752   2.712   1.688 -0.1587  0.2365  0.1694
 4667poe     o221434   2.730   2.852   1.684 -0.3162  0.2045 -0.1508
 4667poe    c2321435   2.613   2.872   1.607 -0.7614 -0.1379  0.4287
 4667poe    c2321436   2.612   3.025   1.599  0.5287 -0.1375 -0.0915
 4667poe     o221437   2.661   3.076   1.722  0.3598  0.0416 -0.0966
 4667poe    c2321438   2.666   3.216   1.719 -0.1816  0.0668  0.0513
 4667poe    c2321439   2.728   3.282   1.844  0.0830 -0.2932  0.1112
 4667poe     o221440   2.865   3.261   1.870  0.1534 -0.2040 -0.1764
 4667poe    c2321441   2.892   3.277   2.008  0.1403 -0.3013 -0.1625
 4667poe    c2321442   3.041   3.243   2.028  0.0645 -0.1800  0.6335
 4667poe     o221443   3.089   3.111   2.016  0.1058 -0.1151  0.0700
 4667poe    c3121444   3.211   3.076   2.075  0.0677 -0.3903 -0.0158
 4668poe    c3121445   0.044   5.223   5.744  0.4597 -0.4607 -0.4244
 4668poe     o221446   0.072   5.359   5.720 -0.8538 -0.0353  0.3377
 4668poe    c2321447   0.008   5.418   5.610 -0.1978  0.1715  0.0589
 4668poe    c2321448   0.087   5.544   5.569  0.2300 -0.1926 -0.2498
 4668poe     o221449   0.078   5.650   5.662  0.5599 -0.4278  0.0511
 4668poe    c2321450   0.158   5.758   5.618  0.0499 -0.1383 -0.1688
 4668poe    c2321451   0.105   5.887   5.684  0.0841 -0.1527 -0.1117
 4668poe     o221452   0.108   5.863   5.823  0.1657  0.1950 -0.0527
 4668poe    c2321453   0.003   5.927   5.893  0.0326 -0.4317  0.3266
 4668poe    c2321454   0.040   5.925   6.042  0.7126  0.0906  0.1683
 4668poe     o221455   0.083   5.799   6.088  0.4616  0.0251  0.2229
 4668poe    c3121456   0.101   5.804   6.228  0.8879  0.1098  0.1669
 4669poe    c3121457   0.588   2.305   5.879 -0.1352 -0.0614  0.1179
 4669poe     o221458   0.512   2.244   5.980 -0.0746  0.4463  0.4698
 4669poe    c2321459   0.376   2.269   5.951  0.1348  0.4004 -0.5624
 4669poe    c2321460   0.282   2.211   6.057  1.1070 -0.7653 -0.3131
 4669poe     o221461   0.308   2.246   6.191  0.3123 -0.2709 -0.2836
 4669poe    c2321462   0.249   2.369   6.230  0.5030 -0.1479 -0.3822
 4669poe    c2321463   0.235   2.362   6.383  0.3996 -0.3465 -0.4007
 4669poe     o221464   0.157   2.250   6.420 -0.1774  0.1390 -0.1278
 4669poe    c2321465   0.107   2.266   6.551 -0.4684 -0.3268 -0.1824
 4669poe    c2321466   0.064   2.141   6.630  0.2467 -0.5184 -0.0965
 4669poe     o221467  -0.059   2.090   6.584  0.2442 -0.0584 -0.6089
 4669poe    c3121468  -0.169   2.145   6.654  0.6010 -0.0015 -0.0869
 4670poe    c3121469   5.393   1.301   2.413  0.2407 -0.0212  0.4086
 4670poe     o221470   5.302   1.302   2.306  0.2924 -0.0409  0.3647
 4670poe    c2321471   5.290   1.180   2.235  0.0965  0.3544 -0.2957
 4670poe    c2321472   5.191   1.191   2.118  0.0624 -0.4394 -0.3442
 4670poe     o221473   5.232   1.275   2.013  0.0824 -0.7388 -0.5772
 4670poe    c2321474   5.128   1.301   1.922  0.2467  0.2808 -0.4820
 4670poe    c2321475   5.151   1.427   1.836  0.2245  0.6213  0.0054
 4670poe     o221476   5.163   1.547   1.908 -0.1312  0.4857  0.2937
 4670poe    c2321477   5.108   1.654   1.834  0.1688  0.1222 -0.4652
 4670poe    c2321478   5.107   1.784   1.916 -0.0983 -0.3167  0.2440
 4670poe     o221479   5.206   1.780   2.016 -0.0738  0.3360  0.2531
 4670poe    c3121480   5.226   1.903   2.083 -0.0033  0.1579  0.5636
 4671poe    c3121481   0.595   6.774   0.317 -0.4439  0.2036  0.1933
 4671poe     o221482   0.541   6.702   0.425 -0.2979  0.2008  0.2652
 4671poe    c2321483   0.560   6.567   0.388  0.6241  0.3721  0.0986
 4671poe    c2321484   0.457   6.482   0.465 -0.1301  1.1673 -0.0140
 4671poe     o221485   0.473   6.471   0.604  0.1803  0.2585 -0.1098
 4671poe    c2321486   0.346   6.440   0.658  0.2193 -0.2260 -0.2993
 4671poe    c2321487   0.339   6.294   0.709  0.5007  0.0288  0.4802
 4671poe     o221488   0.375   6.210   0.602  0.4081  0.3378  0.2038
 4671poe    c2321489   0.327   6.085   0.646  0.1357  0.2587 -0.3067
 4671poe    c2321490   0.357   5.976   0.542  0.2973  0.3419 -0.3486
 4671poe     o221491   0.491   5.937   0.525  0.3247  0.0632  0.4420
 4671poe    c3121492   0.517   5.858   0.411 -0.0135 -0.2912  0.6061
 4672poe    c3121493   5.674   0.066   7.007 -0.5530  0.5943  0.4237
 4672poe     o221494   5.686   0.175   6.918 -0.2297  0.0713 -0.1773
 4672poe    c2321495   5.821   0.217   6.918 -0.0774 -0.4080  0.1231
 4672poe    c2321496   5.844   0.368   6.902 -0.0119 -0.4761 -0.4449
 4672poe     o221497   5.814   0.408   6.770 -0.2702  0.1141 -0.2102
 4672poe    c2321498   5.806   0.548   6.753  0.1802  0.2018  0.2601
 4672poe    c2321499   5.767   0.586   6.609  0.0020  0.0752  0.2739
 4672poe     o221500   5.632   0.561   6.577 -0.0795  0.3206  0.4223
 4672poe    c2321501   5.616   0.589   6.440  0.4169 -0.1541  0.2632
 4672poe    c2321502   5.604   0.458   6.361  0.1317 -0.1887  0.3640
 4672poe     o221503   5.494   0.384   6.409 -0.2607  0.1125 -0.0610
 4672poe    c3121504   5.490   0.262   6.339  0.4460 -0.1889  0.4106
 4673poe    c3121505   3.685   0.667   4.027 -0.1286 -0.0322 -0.0039
 4673poe     o221506   3.646   0.575   3.928 -0.0098 -0.0842 -0.0029
 4673poe    c2321507   3.509   0.588   3.896 -0.0974 -0.3382  0.2580
 4673poe    c2321508   3.466   0.484   3.792 -0.0992 -0.3548  0.2755
 4673poe     o221509   3.519   0.510   3.664  0.2835  0.3261  0.5672
 4673poe    c2321510   3.439   0.582   3.572 -0.0188 -0.2077  0.4076
 4673poe    c2321511   3.449   0.544   3.423  0.2793 -0.7898  0.5720
 4673poe     o221512   3.563   0.604   3.366 -0.3865  0.1270  0.1749
 4673poe    c2321513   3.575   0.549   3.237  0.1266  0.0677  0.2461
 4673poe    c2321514   3.718   0.574   3.184  0.3421 -0.6646  0.4623
 4673poe     o221515   3.822   0.513   3.256  1.0533 -0.2269 -0.1867
 4673poe    c3121516   3.854   0.380   3.220  0.4443 -0.4095 -0.0537
 4674poe    c3121517   4.726   4.422   4.502  0.1159 -0.9108  0.2165
 4674poe     o221518   4.858   4.472   4.505 -0.3292  0.3597 -0.3241
 4674poe    c2321519   4.945   4.425   4.606 -0.5923  0.4219 -0.0692
 4674poe    c2321520   4.978   4.275   4.618  0.4282  0.6514  0.0808
 4674poe     o221521   5.024   4.212   4.501 -0.7704  0.2350 -0.1781
 4674poe    c2321522   5.022   4.075   4.533  0.0011  0.0560 -0.8589
 4674poe    c2321523   5.156   4.018   4.482  0.0420 -0.0397 -0.6460
 4674poe     o221524   5.163   3.989   4.345  0.3221  0.2691 -0.6987
 4674poe    c2321525   5.294   3.950   4.309  0.4521 -0.1415  0.1889
 4674poe    c2321526   5.314   3.910   4.161 -0.1542 -0.0190  0.0684
 4674poe     o221527   5.270   4.006   4.068 -0.1726  0.3623  0.4652
 4674poe    c3121528   5.324   4.136   4.067  0.3800  0.1409 -0.8118
 4675poe    c3121529   2.642   7.251   6.215  0.3815 -0.2866  0.1348
 4675poe     o221530   2.608   7.224   6.349  0.0634  0.3720  0.1927
 4675poe    c2321531   2.643   7.089   6.372 -1.0111  0.0771  0.1640
 4675poe    c2321532   2.650   7.050   6.521  0.5829  0.2489  0.1553
 4675poe     o221533   2.528   7.061   6.591  0.4586  0.2797 -0.0641
 4675poe    c2321534   2.485   6.940   6.651  0.3158  0.4077  0.0909
 4675poe    c2321535   2.386   6.957   6.768  0.1293  1.1180 -0.1629
 4675poe     o221536   2.254   6.999   6.738 -0.3116 -0.4347 -0.4671
 4675poe    c2321537   2.156   6.974   6.837  0.2566 -0.1779  0.1732
 4675poe    c2321538   2.020   7.017   6.779  0.0488 -0.3132  0.5593
 4675poe     o221539   2.021   7.154   6.746  0.4239 -0.3694  0.3345
 4675poe    c3121540   1.946   7.233   6.836  0.4853 -0.0071  0.0693
 4676poe    c3121541   5.214   2.763   4.499 -0.0253 -0.4061  0.3122
 4676poe     o221542   5.328   2.711   4.563  0.2184 -0.5532 -0.2330
 4676poe    c2321543   5.450   2.771   4.525  0.0574  0.3046  0.5581
 4676poe    c2321544   5.571   2.710   4.598 -0.0735 -0.4741  0.1338
 4676poe     o221545   5.566   2.734   4.737  0.1624 -0.2472  0.1024
 4676poe    c2321546   5.697   2.719   4.788  0.2207 -0.3749 -0.0844
 4676poe    c2321547   5.702   2.714   4.942  0.0211 -0.0022 -0.0647
 4676poe     o221548   5.672   2.583   4.986 -0.5168  0.1960  0.1655
 4676poe    c2321549   5.702   2.559   5.121 -0.8195 -0.3726  0.1331
 4676poe    c2321550   5.648   2.430   5.186 -0.6991 -0.1229  0.7370
 4676poe     o221551   5.509   2.411   5.175 -0.6099 -0.1438 -0.5591
 4676poe    c3121552   5.495   2.271   5.176 -0.0564 -0.2004  0.0263
 4677poe    c3121553   0.840   5.195   5.065  0.3138  0.3349 -0.0163
 4677poe     o221554   0.938   5.275   5.002  0.1794 -0.0299 -0.6996
 4677poe    c2321555   0.996   5.380   5.076 -0.5293 -0.2117  0.1326
 4677poe    c2321556   0.908   5.498   5.120 -0.1798  0.1266 -0.0773
 4677poe     o221557   0.886   5.579   5.006 -0.6695 -0.0166 -0.0850
 4677poe    c2321558   0.831   5.703   5.044  0.9364  0.6379  0.1805
 4677poe    c2321559   0.818   5.774   4.908  0.2369 -0.1279 -0.1585
 4677poe     o221560   0.750   5.692   4.815  0.0039  0.0385 -0.1345
 4677poe    c2321561   0.747   5.759   4.691 -0.5924 -0.2709 -0.2912
 4677poe    c2321562   0.715   5.671   4.569 -0.2899 -0.5385 -0.1797
 4677poe     o221563   0.766   5.540   4.584 -0.3817 -0.5396  0.1363
 4677poe    c3121564   0.714   5.462   4.478  0.0368 -0.1324 -0.3749
 4678poe    c3121565   0.346   1.822   1.444  0.2981  0.6311 -0.4633
 4678poe     o221566   0.317   1.832   1.307 -0.2475  0.0959 -0.3929
 4678poe    c2321567   0.427   1.764   1.250 -0.1029  0.0845 -0.0998
 4678poe    c2321568   0.436   1.798   1.100 -0.5046  0.0179 -0.1400
 4678poe     o221569   0.325   1.757   1.024 -0.8687  0.2819  0.2469
 4678poe    c2321570   0.336   1.817   0.896 -0.1898 -0.1673  0.0946
 4678poe    c2321571   0.219   1.771   0.808 -0.0370 -0.2218 -0.0808
 4678poe     o221572   0.099   1.785   0.881  0.0262  0.2753 -0.0656
 4678poe    c2321573   0.004   1.695   0.829 -0.2387  0.2999  0.3726
 4678poe    c2321574  -0.127   1.710   0.909 -0.4586 -0.6336  0.2014
 4678poe     o221575  -0.093   1.693   1.044  0.3608 -0.3490  0.0391
 4678poe    c3121576  -0.212   1.731   1.111  0.3991  0.5730 -0.4103
 4679poe    c3121577   1.142   4.918   2.158  1.0386  0.0881 -0.6351
 4679poe     o221578   1.056   4.811   2.191  0.3370  0.6981 -0.4695
 4679poe    c2321579   1.080   4.703   2.103 -0.0822 -0.0565  0.3224
 4679poe    c2321580   1.028   4.565   2.147 -0.0390  0.0217  0.6219
 4679poe     o221581   0.915   4.591   2.227 -0.6028 -0.2006 -0.0948
 4679poe    c2321582   0.819   4.487   2.223 -0.5322 -0.2534 -0.5275
 4679poe    c2321583   0.701   4.513   2.319 -0.2641 -0.5458 -0.1159
 4679poe     o221584   0.631   4.628   2.277  0.1424 -0.3385 -0.2271
 4679poe    c2321585   0.547   4.680   2.378 -0.0978 -0.1812 -0.5052
 4679poe    c2321586   0.451   4.789   2.328 -0.1086  0.4209  0.7653
 4679poe     o221587   0.527   4.906   2.307  0.0877  0.1612 -0.0193
 4679poe    c3121588   0.456   5.000   2.230  0.2968  0.1604 -0.2146
 4680poe    c3121589   1.162   2.135   0.218  0.1357  0.0137  0.2348
 4680poe     o221590   1.144   2.258   0.285  0.5758  0.0253  0.3385
 4680poe    c2321591   1.207   2.249   0.411 -0.3730 -0.0951  0.8204
 4680poe    c2321592   1.175   2.364   0.509 -0.1289  0.5222  0.1897
 4680poe     o221593   1.039   2.361   0.545 -0.2081 -0.0894 -0.1463
 4680poe    c2321594   1.026   2.465   0.639  0.6518  0.0781 -0.2071
 4680poe    c2321595   0.900   2.454   0.726  0.7525 -0.2989 -0.1105
 4680poe     o221596   0.880   2.335   0.801 -0.4332 -0.2208 -0.2855
 4680poe    c2321597   0.763   2.355   0.877  0.3306  0.5726  0.7093
 4680poe    c2321598   0.729   2.240   0.974  0.0894 -0.0661 -0.1169
 4680poe     o221599   0.793   2.217   1.098 -0.3724 -0.2238  0.0942
 4680poe    c3121600   0.732   2.265   1.215  0.2604 -0.1233  0.3863
 4681poe    c3121601   6.959   1.062   3.351 -0.4834  0.3351 -0.1517
 4681poe     o221602   6.970   1.197   3.313  0.0126  0.3502  0.0387
 4681poe    c2321603   7.074   1.272   3.371  0.0377  0.3169  0.0370
 4681poe    c2321604   7.077   1.403   3.290  0.3344  0.3069  0.0312
 4681poe     o221605   6.940   1.436   3.287  0.2212 -0.1914 -0.7870
 4681poe    c2321606   6.929   1.566   3.232 -0.2579 -0.0103 -0.2687
 4681poe    c2321607   6.787   1.596   3.180 -0.3910  0.1187  0.1608
 4681poe     o221608   6.780   1.534   3.054 -0.2150  0.4338 -0.0046
 4681poe    c2321609   6.647   1.534   3.009 -0.0690 -0.6665 -0.4839
 4681poe    c2321610   6.650   1.479   2.865 -0.0121  0.3859 -0.8992
 4681poe     o221611   6.680   1.341   2.873  0.3089  0.4814 -0.4118
 4681poe    c3121612   6.717   1.286   2.749 -0.7143 -0.1037 -0.4700
 4682poe    c3121613   5.438   1.894   6.223 -0.3379 -0.1301 -0.1940
 4682poe     o221614   5.397   1.769   6.274 -0.0227 -0.1770 -0.0571
 4682poe    c2321615   5.441   1.754   6.407  0.7292 -0.0827 -0.2906
 4682poe    c2321616   5.415   1.610   6.455  0.2384  0.0429 -0.1797
 4682poe     o221617   5.514   1.523   6.405  0.0022 -0.0881 -0.4268
 4682poe    c2321618   5.502   1.387   6.441 -0.1550 -0.0813 -0.4529
 4682poe    c2321619   5.585   1.295   6.350 -0.1082  0.2134 -0.7084
 4682poe     o221620   5.721   1.325   6.371 -0.1194 -0.2636  0.0717
 4682poe    c2321621   5.785   1.205   6.333 -0.0614 -0.2946  0.2676
 4682poe    c2321622   5.938   1.202   6.316  0.0186  0.0521  0.8961
 4682poe     o221623   5.959   1.303   6.220 -0.2069 -0.5134  0.2479
 4682poe    c3121624   6.077   1.272   6.149 -0.1405  0.3075 -0.0182
 4683poe    c3121625   0.209   3.515   0.343  0.2337  0.1262 -0.5500
 4683poe     o221626   0.095   3.589   0.306  0.1085  0.0745 -0.2688
 4683poe    c2321627  -0.005   3.510   0.245 -0.0652  0.0690  0.0202
 4683poe    c2321628  -0.147   3.568   0.259 -0.2593 -0.2714 -0.5041
 4683poe     o221629  -0.196   3.563   0.391 -0.2389 -0.7294 -0.5123
 4683poe    c2321630  -0.336   3.544   0.391 -0.4057  0.4034  0.0998
 4683poe    c2321631  -0.377   3.503   0.534  0.6097 -0.0172  0.2787
 4683poe     o221632  -0.343   3.616   0.612  0.2225  0.3074 -0.0186
 4683poe    c2321633  -0.379   3.603   0.747  0.2441 -0.3232 -0.0716
 4683poe    c2321634  -0.334   3.730   0.821 -0.2573  0.0328 -0.3755
 4683poe     o221635  -0.208   3.762   0.765 -0.2823  0.2320 -0.3207
 4683poe    c3121636  -0.143   3.861   0.841 -0.0155  0.0356 -0.2894
 4684poe    c3121637   3.746   7.193   2.730  0.2652 -0.2003 -0.1486
 4684poe     o221638   3.845   7.127   2.655  0.1571 -0.2955 -0.2058
 4684poe    c2321639   3.972   7.171   2.696 -0.1974  0.2927  0.2821
 4684poe    c2321640   4.078   7.076   2.637 -0.2313  0.1616  0.4306
 4684poe     o221641   4.062   6.941   2.676  0.0124  0.0253  0.0714
 4684poe    c2321642   4.166   6.855   2.634 -0.4597 -0.2524 -0.5293
 4684poe    c2321643   4.120   6.712   2.667 -0.0048 -0.2368  0.1902
 4684poe     o221644   3.992   6.705   2.609 -0.0651  0.3981  0.2406
 4684poe    c2321645   3.953   6.570   2.621  0.5799  0.1623 -0.2799
 4684poe    c2321646   3.807   6.558   2.575  0.5423  0.3443 -0.2106
 4684poe     o221647   3.797   6.626   2.452 -0.0669  0.0208 -0.3474
 4684poe    c3121648   3.683   6.592   2.376 -0.1459  0.0627 -0.2468
 4685poe    c3121649   5.033   5.616   3.232  0.2353  0.1831  0.5271
 4685poe     o221650   4.968   5.491   3.238  0.3255  0.0922 -0.2044
 4685poe    c2321651   5.041   5.426   3.340 -0.3473 -0.2282  0.0791
 4685poe    c2321652   4.951   5.312   3.393 -0.3929 -0.2930 -0.1370
 4685poe     o221653   4.934   5.231   3.279 -0.4685  0.0692 -0.3867
 4685poe    c2321654   4.822   5.149   3.304 -0.2405 -0.1193  0.0306
 4685poe    c2321655   4.776   5.059   3.188  0.2681  0.2545 -0.4644
 4685poe     o221656   4.721   5.145   3.090  0.0055 -0.0523 -0.5870
 4685poe    c2321657   4.628   5.089   2.999 -0.2646 -0.0167 -0.3358
 4685poe    c2321658   4.569   5.171   2.883 -0.1176  0.1502 -0.2948
 4685poe     o221659   4.660   5.247   2.808  0.2635  0.0485  0.0624
 4685poe    c3121660   4.606   5.284   2.683  0.5390 -0.1401 -0.1149
 4686poe    c3121661   5.039   3.279   5.284  0.2566  0.0409 -0.2334
 4686poe     o221662   5.024   3.218   5.157  0.0920 -0.2990 -0.0510
 4686poe    c2321663   5.002   3.318   5.061 -0.1103 -0.2542  0.0413
 4686poe    c2321664   5.013   3.249   4.923 -0.0123 -0.1883  0.0167
 4686poe     o221665   5.142   3.219   4.875 -0.1793 -0.8755 -0.0151
 4686poe    c2321666   5.151   3.177   4.741  0.7990 -0.7330 -0.0014
 4686poe    c2321667   5.287   3.217   4.680  0.5321  1.0162  0.4997
 4686poe     o221668   5.391   3.129   4.716 -0.1723 -0.1426 -0.2180
 4686poe    c2321669   5.501   3.173   4.640 -0.1582  0.1035 -0.0584
 4686poe    c2321670   5.634   3.129   4.705  0.2602  0.4725 -0.6497
 4686poe     o221671   5.659   3.208   4.819 -0.2985  0.2973 -0.4004
 4686poe    c3121672   5.776   3.165   4.885 -0.4420  0.0290 -0.3214
 4687poe    c3121673   4.705   2.421   1.105  0.0511  0.0624  0.3104
 4687poe     o221674   4.619   2.385   1.210 -0.1473  0.2872  0.2250
 4687poe    c2321675   4.481   2.408   1.193 -0.1560  0.3321  0.3543
 4687poe    c2321676   4.410   2.374   1.325 -0.4592 -0.4092  0.0074
 4687poe     o221677   4.455   2.254   1.382 -0.0769 -0.2585  0.0244
 4687poe    c2321678   4.363   2.192   1.469  0.2153 -0.5365  0.1387
 4687poe    c2321679   4.422   2.092   1.570  0.7749 -0.2062  0.1397
 4687poe     o221680   4.497   1.996   1.499  0.5300 -0.2852 -0.0159
 4687poe    c2321681   4.584   1.938   1.594  0.3659  0.1569  0.4085
 4687poe    c2321682   4.695   1.859   1.523 -0.2054 -0.1958 -0.1003
 4687poe     o221683   4.787   1.943   1.457 -0.0147 -0.7107 -0.5009
 4687poe    c3121684   4.906   1.871   1.434  0.3789 -0.3412  0.3065
 4688poe    c3121685   0.596   1.811   0.252 -0.3924  0.1182  0.1900
 4688poe     o221686   0.630   1.811   0.389  0.3745  0.8574  0.0044
 4688poe    c2321687   0.540   1.894   0.458 -0.2296 -0.0401  0.3111
 4688poe    c2321688   0.590   1.904   0.604  0.0840 -0.5865  0.2406
 4688poe     o221689   0.731   1.892   0.598  0.1828  0.6056  0.0095
 4688poe    c2321690   0.795   1.890   0.724  0.0210 -0.5526  0.0804
 4688poe    c2321691   0.947   1.911   0.708 -0.0993  0.4181  0.1896
 4688poe     o221692   0.985   1.838   0.593  0.0850  0.1617  0.4137
 4688poe    c2321693   1.124   1.817   0.605  0.0107 -0.3760  0.3408
 4688poe    c2321694   1.204   1.855   0.479 -0.1673  0.3540  0.4435
 4688poe     o221695   1.159   1.789   0.363 -0.0196  0.1975  0.4742
 4688poe    c3121696   1.259   1.772   0.266 -0.1355  0.3547  0.3268
 4689poe    c3121697   0.754   5.835   6.671  0.6221 -0.4281 -0.1269
 4689poe     o221698   0.753   5.701   6.715 -0.5874 -0.5460 -0.4843
 4689poe    c2321699   0.714   5.691   6.850  0.6073  0.4947 -0.0452
 4689poe    c2321700   0.838   5.711   6.939  0.3326 -0.1301  0.4839
 4689poe     o221701   0.925   5.600   6.937  0.5484  0.0420  0.0944
 4689poe    c2321702   0.980   5.619   7.066 -0.0617  0.2822  0.3253
 4689poe    c2321703   1.107   5.538   7.098  0.2686  0.5151 -0.3797
 4689poe     o221704   1.215   5.533   7.006  0.9699  0.1403  0.4486
 4689poe    c2321705   1.307   5.440   7.060  0.5468 -0.1063  0.7555
 4689poe    c2321706   1.410   5.404   6.952 -0.1424  0.2456 -0.0348
 4689poe     o221707   1.346   5.346   6.840 -0.4566  0.3639  0.0835
 4689poe    c3121708   1.449   5.325   6.746 -0.1057  0.4941  0.4333
 4690poe    c3121709   4.387   2.504   4.300 -0.0677  0.4029 -0.0322
 4690poe     o221710   4.430   2.544   4.428 -0.0566 -0.1599  0.1453
 4690poe    c2321711   4.529   2.642   4.408  0.0196 -0.3087 -0.2149
 4690poe    c2321712   4.498   2.772   4.484 -0.0966 -0.3466 -0.1981
 4690poe     o221713   4.460   2.760   4.619 -0.1032  0.2661 -0.1426
 4690poe    c2321714   4.344   2.836   4.646 -0.3558 -0.2971  0.3905
 4690poe    c2321715   4.303   2.817   4.793  0.0270 -0.2134  0.5094
 4690poe     o221716   4.249   2.690   4.823 -0.4867 -0.1269 -0.0353
 4690poe    c2321717   4.192   2.682   4.951  0.8461  0.0347  0.5872
 4690poe    c2321718   4.149   2.536   4.973  0.0051  0.1170 -0.4454
 4690poe     o221719   4.261   2.452   4.962 -0.0005 -0.0209  0.5037
 4690poe    c3121720   4.232   2.316   4.986 -0.0786  0.0190  0.6317
 4691poe    c3121721   6.630   7.324   1.099  0.2044  0.1828  0.0534
 4691poe     o221722   6.717   7.264   1.007 -0.1320  0.3756 -0.3918
 4691poe    c2321723   6.682   7.300   0.875 -0.5116 -0.2433 -0.4660
 4691poe    c2321724   6.775   7.228   0.775 -0.0548  0.2683 -0.4157
 4691poe     o221725   6.751   7.089   0.784  0.2126  0.2645  0.3749
 4691poe    c2321726   6.873   7.029   0.746 -0.4133 -0.4240 -0.6155
 4691poe    c2321727   6.871   6.875   0.746 -0.4004 -0.4297 -0.0188
 4691poe     o221728   6.862   6.808   0.869 -0.2402 -0.2156  0.1110
 4691poe    c2321729   6.902   6.677   0.837  0.2814 -0.0365  0.0204
 4691poe    c2321730   6.874   6.577   0.951 -0.2364  0.3344  0.2243
 4691poe     o221731   6.931   6.597   1.078  0.2134  0.7057 -0.0296
 4691poe    c3121732   7.059   6.539   1.086 -0.1086 -0.0785 -0.4068
 4692poe    c3121733   5.851   2.038   2.099 -0.1676  0.0030 -0.6925
 4692poe     o221734   5.971   2.064   2.167 -0.3838 -0.0884 -0.2729
 4692poe    c2321735   6.083   2.076   2.081  0.0547 -0.3113  0.2605
 4692poe    c2321736   6.201   2.163   2.126  0.0364 -0.1147 -0.0744
 4692poe     o221737   6.180   2.295   2.170  0.1595 -0.1536  0.1001
 4692poe    c2321738   6.140   2.380   2.065  0.2597 -0.0483  0.1471
 4692poe    c2321739   6.107   2.516   2.130  0.0933 -0.0540  0.0756
 4692poe     o221740   6.042   2.499   2.254  0.7931 -0.0234  0.4547
 4692poe    c2321741   5.991   2.621   2.301 -0.0766 -0.1168 -0.2013
 4692poe    c2321742   5.917   2.611   2.436  0.2839  0.2291  0.0260
 4692poe     o221743   5.826   2.503   2.439  0.1308  0.3481 -0.3109
 4692poe    c3121744   5.749   2.513   2.557  0.1012 -0.2193 -0.2802
 4693poe    c3121745   0.824   6.504   7.054 -0.5798  0.2431 -0.1828
 4693poe     o221746   0.824   6.635   7.105  0.9058  0.1498  0.0967
 4693poe    c2321747   0.795   6.628   7.243  0.4528  0.5303  0.0238
 4693poe    c2321748   0.763   6.767   7.301  0.4397  0.4426  0.2305
 4693poe     o221749   0.861   6.850   7.243  0.2514  0.1093 -0.5840
 4693poe    c2321750   0.847   6.976   7.304  0.6754 -0.0834 -0.0839
 4693poe    c2321751   0.943   7.078   7.241 -0.2892  0.9321  0.0503
 4693poe     o221752   1.074   7.050   7.287 -0.3620  0.3947 -0.0592
 4693poe    c2321753   1.163   7.118   7.201  0.2700  0.6449  0.7769
 4693poe    c2321754   1.289   7.033   7.177 -0.1617  0.2377 -0.0737
 4693poe     o221755   1.274   6.914   7.102 -0.0287  0.3517 -0.2818
 4693poe    c3121756   1.389   6.834   7.117 -0.0791  0.3710  0.2050
 4694poe    c3121757   2.494   7.140   5.777  0.1276 -0.6179 -0.4451
 4694poe     o221758   2.633   7.162   5.783  0.0216  0.1821 -0.7354
 4694poe    c2321759   2.702   7.039   5.777 -0.4899 -0.1344 -0.2426
 4694poe    c2321760   2.855   7.041   5.759 -0.4925  0.0911 -0.2497
 4694poe     o221761   2.895   7.025   5.624  0.4304  0.5411 -0.0319
 4694poe    c2321762   3.029   7.065   5.607  0.4819  0.3606 -0.0509
 4694poe    c2321763   3.070   7.071   5.459  0.2774 -0.1193 -0.1276
 4694poe     o221764   3.062   6.945   5.396 -0.3633 -0.2762  0.2533
 4694poe    c2321765   3.057   6.967   5.256 -0.7595 -0.1213  0.2903
 4694poe    c2321766   3.049   6.839   5.171  0.1499  0.3964 -0.5991
 4694poe     o221767   2.946   6.753   5.214  0.2182  0.4969 -0.2294
 4694poe    c3121768   2.919   6.661   5.110 -0.2007 -0.0048  0.3147
 4695poe    c3121769   6.314   4.045   5.057  0.1406  0.1224 -0.5589
 4695poe     o221770   6.359   4.165   5.115 -0.2637  0.0213 -0.0254
 4695poe    c2321771   6.358   4.272   5.023  0.1802  0.0956  0.0552
 4695poe    c2321772   6.245   4.376   5.021 -0.1648 -0.2741  0.1173
 4695poe     o221773   6.126   4.305   4.998 -0.2821 -0.0191 -0.0722
 4695poe    c2321774   6.077   4.301   4.866 -0.2275 -0.3170 -0.0832
 4695poe    c2321775   5.926   4.280   4.885 -0.2707 -0.1394 -0.2281
 4695poe     o221776   5.916   4.151   4.942  0.2177 -0.2601 -0.4114
 4695poe    c2321777   5.785   4.104   4.959  0.2478 -0.4811 -0.7949
 4695poe    c2321778   5.780   3.967   5.029 -0.7102  0.0074  0.1194
 4695poe     o221779   5.847   3.967   5.153 -0.2208 -0.6560 -0.1404
 4695poe    c3121780   5.825   3.843   5.218 -0.1266 -0.5184  0.1561
 4696poe    c3121781   3.176   1.931   6.829 -0.0490  1.0245 -0.4251
 4696poe     o221782   3.068   1.991   6.898 -0.0806  0.0374  0.3914
 4696poe    c2321783   2.997   2.044   6.788  0.1754 -0.2494  0.0834
 4696poe    c2321784   2.854   2.088   6.828  0.0072  0.1389 -0.9270
 4696poe     o221785   2.769   1.979   6.855 -0.1596  0.3962 -0.4047
 4696poe    c2321786   2.712   1.906   6.748  0.1914 -0.2141 -0.1791
 4696poe    c2321787   2.559   1.920   6.739  0.1651 -0.2330  0.2298
 4696poe     o221788   2.506   2.027   6.664  0.1346  0.0100  0.5969
 4696poe    c2321789   2.409   2.091   6.744 -0.0977 -0.2257  0.5074
 4696poe    c2321790   2.400   2.233   6.685  0.5786 -0.3088  0.1905
 4696poe     o221791   2.322   2.251   6.568  0.3750  0.3109  0.4189
 4696poe    c3121792   2.354   2.380   6.522  0.0555  0.2550  0.0419
 4697poe    c3121793   1.288   3.707   0.442  0.4334  0.4099  0.0487
 4697poe     o221794   1.308   3.588   0.368  0.1026  0.3004  0.1333
 4697poe    c2321795   1.417   3.613   0.281  0.0204  0.3749  0.0498
 4697poe    c2321796   1.475   3.479   0.233 -0.2284  0.2654  0.0497
 4697poe     o221797   1.380   3.417   0.149  0.1072 -0.0315 -0.1138
 4697poe    c2321798   1.448   3.323   0.069 -0.5904 -0.5739 -0.0750
 4697poe    c2321799   1.339   3.251  -0.014 -0.4407  0.0047 -0.7905
 4697poe     o221800   1.217   3.249   0.055 -0.0113  0.7961  0.0179
 4697poe    c2321801   1.108   3.221  -0.031  0.2916  0.5020 -0.2703
 4697poe    c2321802   0.975   3.273   0.027  0.3643  0.4556 -0.0603
 4697poe     o221803   1.009   3.406   0.062  0.0525  0.3940  0.4711
 4697poe    c3121804   0.893   3.473   0.107 -0.3568  0.2205 -0.2993
 4698poe    c3121805   2.024   5.607   3.637 -0.3655 -0.3845 -0.0230
 4698poe     o221806   2.105   5.703   3.702 -0.2729 -0.2838 -0.2843
 4698poe    c2321807   2.203   5.646   3.786 -0.2097  0.2524  0.0165
 4698poe    c2321808   2.289   5.755   3.851 -0.2723  0.2420  0.1176
 4698poe     o221809   2.222   5.849   3.931 -0.3738  0.6154 -0.3993
 4698poe    c2321810   2.301   5.958   3.971  0.2361 -0.0224  0.1575
 4698poe    c2321811   2.272   5.998   4.117  0.1741 -0.1533  0.1805
 4698poe     o221812   2.313   5.909   4.218 -0.1922 -0.1933  0.2990
 4698poe    c2321813   2.260   5.947   4.343 -0.1662  0.4784  0.1089
 4698poe    c2321814   2.268   5.835   4.448 -0.0405  0.1606 -0.2354
 4698poe     o221815   2.147   5.762   4.442 -0.0951  0.2633 -0.3916
 4698poe    c3121816   2.105   5.684   4.552 -0.6424  0.2787 -0.5878
 4699poe    c3121817   1.541   5.508   2.070 -0.3576 -0.1461 -0.1044
 4699poe     o221818   1.503   5.569   2.191  0.3952  0.0106  0.0580
 4699poe    c2321819   1.443   5.470   2.273  0.1386  0.0483 -0.0832
 4699poe    c2321820   1.423   5.512   2.420  0.1716 -1.2000  0.2854
 4699poe     o221821   1.541   5.533   2.493 -0.1389 -0.1526  0.4981
 4699poe    c2321822   1.483   5.564   2.618 -0.3558 -0.1298  0.3925
 4699poe    c2321823   1.585   5.536   2.730 -0.1382 -0.4067  0.1274
 4699poe     o221824   1.709   5.598   2.703 -0.2102 -0.2456  0.1673
 4699poe    c2321825   1.796   5.596   2.814  0.0475 -0.4377 -0.0371
 4699poe    c2321826   1.935   5.645   2.769  0.1533 -0.0471  0.7085
 4699poe     o221827   1.923   5.781   2.735  0.1148 -0.0150  0.8505
 4699poe    c3121828   2.053   5.835   2.728 -0.3248  0.9526 -0.1764
 4700poe    c3121829   5.029   5.019   3.658 -0.1867  0.2896  0.2871
 4700poe     o221830   5.056   4.899   3.727  0.0823  0.2084  0.0436
 4700poe    c2321831   5.083   4.796   3.634 -0.3734 -0.2082  0.3613
 4700poe    c2321832   5.179   4.686   3.681  0.1607 -0.0044 -0.2345
 4700poe     o221833   5.311   4.733   3.686  0.2067 -0.1710  0.2310
 4700poe    c2321834   5.375   4.729   3.560  0.3399 -0.2932  0.3024
 4700poe    c2321835   5.515   4.788   3.584  0.1896  0.1511  0.1054
 4700poe     o221836   5.591   4.713   3.677  0.0387 -0.0793  0.0451
 4700poe    c2321837   5.726   4.749   3.658 -0.0475 -0.0901 -0.6179
 4700poe    c2321838   5.821   4.687   3.763 -0.3166 -0.3070 -0.5006
 4700poe     o221839   5.781   4.709   3.896  0.2489  0.0297 -0.3804
 4700poe    c3121840   5.852   4.636   3.994 -0.0087  0.6390  0.2712
 4701poe    c3121841   4.228   4.925   5.831  0.0023  0.0045 -0.0470
 4701poe     o221842   4.092   4.922   5.870  0.2027  0.5518  0.7290
 4701poe    c2321843   4.037   4.804   5.815  0.1464  0.8557  0.1240
 4701poe    c2321844   3.883   4.796   5.820  0.2132 -0.5007  0.1924
 4701poe     o221845   3.841   4.920   5.768  0.6214 -0.0851  0.8434
 4701poe    c2321846   3.702   4.938   5.776  0.6526  0.3781  0.3508
 4701poe    c2321847   3.656   5.085   5.779 -0.4505  0.0397  0.8277
 4701poe     o221848   3.709   5.153   5.890  0.3982  0.1382  0.3714
 4701poe    c2321849   3.639   5.273   5.914  0.3175  0.1708 -0.0203
 4701poe    c2321850   3.651   5.338   6.054 -0.1428  0.4474 -0.1059
 4701poe     o221851   3.788   5.361   6.079 -0.1403  0.0856  0.2142
 4701poe    c3121852   3.817   5.443   6.190  0.2642  0.1189  0.0843
 4702poe    c3121853   3.199   2.340   6.508  0.2304  0.1837  0.6969
 4702poe     o221854   3.179   2.466   6.448 -0.6959  0.1998  1.0354
 4702poe    c2321855   3.085   2.465   6.343 -0.0409 -0.1809  0.4439
 4702poe    c2321856   2.941   2.502   6.386 -0.1740 -0.4751  0.2558
 4702poe     o221857   2.928   2.639   6.417  0.1226 -0.4408  0.2406
 4702poe    c2321858   2.800   2.680   6.461  0.1223 -0.3528  0.1559
 4702poe    c2321859   2.817   2.822   6.518  0.5835 -0.1877 -0.3816
 4702poe     o221860   2.915   2.824   6.619  0.2785  0.2380 -0.0915
 4702poe    c2321861   2.918   2.948   6.688  0.0555  0.0910  0.1827
 4702poe    c2321862   3.035   3.035   6.639 -0.4897  0.5460 -0.3278
 4702poe     o221863   3.016   3.096   6.513 -0.2018  0.7425 -0.2770
 4702poe    c3121864   3.125   3.184   6.507  0.1527  0.3077 -0.2257
 4703poe    c3121865   2.119   7.205   0.321  0.6123 -0.2666 -0.4564
 4703poe     o221866   2.004   7.126   0.341  0.4166  0.2648  0.5767
 4703poe    c2321867   2.009   7.023   0.245  0.2242  0.4335  0.3831
 4703poe    c2321868   1.892   6.930   0.281  0.1409  0.3243 -0.1501
 4703poe     o221869   1.896   6.857   0.402  0.4249  0.3642 -0.1344
 4703poe    c2321870   1.987   6.750   0.412 -0.0970 -0.0326  0.4282
 4703poe    c2321871   1.944   6.676   0.540 -0.2686 -0.1800  0.2890
 4703poe     o221872   1.921   6.781   0.632 -0.1073 -0.3640  0.5436
 4703poe    c2321873   1.907   6.738   0.765  0.4967 -0.4282  0.5901
 4703poe    c2321874   1.863   6.872   0.826  0.4892  0.1891 -0.7358
 4703poe     o221875   1.750   6.926   0.762 -0.2310 -0.2038  0.1941
 4703poe    c3121876   1.710   7.050   0.814 -0.1147 -0.4155  0.7971
 4704poe    c3121877   5.055   5.914   2.816 -0.0600  0.0044 -0.7351
 4704poe     o221878   5.082   5.800   2.736  0.5461 -0.4114  0.0565
 4704poe    c2321879   5.165   5.826   2.626 -0.0138  0.2382 -0.2205
 4704poe    c2321880   5.145   5.736   2.502 -0.3404  0.1575 -0.1100
 4704poe     o221881   5.207   5.612   2.525  0.7726  0.6447 -0.3785
 4704poe    c2321882   5.221   5.543   2.403  0.2161 -0.1928  0.0156
 4704poe    c2321883   5.199   5.395   2.440 -0.0579 -0.1272  0.1167
 4704poe     o221884   5.257   5.365   2.565  0.3211  0.3609  0.0619
 4704poe    c2321885   5.252   5.228   2.596  0.2201  0.2505 -0.4342
 4704poe    c2321886   5.348   5.211   2.715  0.4671 -0.3646 -0.7198
 4704poe     o221887   5.383   5.337   2.767  0.2477 -0.3685 -0.5614
 4704poe    c3121888   5.428   5.319   2.900  0.1105  0.1952 -0.4382
 4705poe    c3121889   6.223   2.803   4.350 -0.7157 -0.4799 -0.1073
 4705poe     o221890   6.286   2.817   4.475  0.0712 -0.3216 -0.5171
 4705poe    c2321891   6.267   2.708   4.562  0.2110  0.0163 -0.0627
 4705poe    c2321892   6.348   2.717   4.693  0.1406 -0.5793  0.0240
 4705poe     o221893   6.282   2.811   4.776  0.0211 -0.7234  0.0940
 4705poe    c2321894   6.321   2.806   4.911 -0.1731 -0.1211  0.1752
 4705poe    c2321895   6.268   2.928   4.989  0.0437 -0.2000  0.4471
 4705poe     o221896   6.334   3.042   4.939 -0.0055 -0.4852 -0.2771
 4705poe    c2321897   6.318   3.156   5.021  0.1231 -0.1184 -0.7547
 4705poe    c2321898   6.407   3.267   4.964  0.3335  0.2006  0.1783
 4705poe     o221899   6.334   3.328   4.860 -0.0951 -0.0751  0.3153
 4705poe    c3121900   6.298   3.460   4.895 -0.1871  0.1017 -0.4203
 4706poe    c3121901   5.225   1.203   3.395 -0.0402 -0.0901  0.3413
 4706poe     o221902   5.123   1.190   3.298  0.0841 -0.2075  0.2279
 4706poe    c2321903   5.058   1.065   3.288  0.3374 -0.3419  0.2422
 4706poe    c2321904   5.006   1.028   3.148 -0.3437  0.3421  0.3088
 4706poe     o221905   4.938   1.134   3.085 -0.2507  0.2863  0.1128
 4706poe    c2321906   4.930   1.123   2.945 -0.1199  0.5361  0.0859
 4706poe    c2321907   4.817   1.204   2.878 -0.3414  0.2617  0.1267
 4706poe     o221908   4.846   1.342   2.891  0.2484  0.1554 -0.0026
 4706poe    c2321909   4.786   1.438   2.808 -0.1940 -0.0582  0.0653
 4706poe    c2321910   4.813   1.438   2.656  0.2563 -0.3667  0.1434
 4706poe     o221911   4.950   1.458   2.633  0.1092  0.3159 -0.1514
 4706poe    c3121912   4.989   1.463   2.498 -0.0052 -0.3521 -0.2091
 4707poe    c3121913   6.299   3.464   0.533  0.2331  0.1543 -0.3396
 4707poe     o221914   6.410   3.545   0.500  0.1444  0.1845 -0.5648
 4707poe    c2321915   6.510   3.470   0.435  0.2553  0.0153 -0.1992
 4707poe    c2321916   6.634   3.549   0.390 -0.4947  0.8035 -0.8946
 4707poe     o221917   6.688   3.626   0.495  0.1625 -0.4099 -0.3188
 4707poe    c2321918   6.783   3.715   0.440 -0.1896  0.0427 -0.2092
 4707poe    c2321919   6.850   3.785   0.560 -0.2182 -0.6928  0.2438
 4707poe     o221920   6.747   3.850   0.630 -0.0814 -0.0258 -0.1608
 4707poe    c2321921   6.792   3.972   0.683 -0.2506  0.0253 -0.1342
 4707poe    c2321922   6.676   4.019   0.773 -0.0609  0.4165 -0.0901
 4707poe     o221923   6.616   3.911   0.841 -0.0361  0.3085 -0.2408
 4707poe    c3121924   6.509   3.967   0.912 -0.1612 -0.6463  0.3398
 4708poe    c3121925   5.679   5.228   5.229 -0.1188 -0.1992  0.6417
 4708poe     o221926   5.812   5.183   5.223  0.0273  0.2478  0.4470
 4708poe    c2321927   5.867   5.157   5.351 -0.0652 -0.4472  0.3500
 4708poe    c2321928   6.009   5.099   5.354  0.0249 -0.2860 -0.5264
 4708poe     o221929   6.118   5.177   5.310  0.1609 -0.2403 -0.1101
 4708poe    c2321930   6.232   5.138   5.382  0.2709  0.1830 -0.0506
 4708poe    c2321931   6.339   5.101   5.277 -0.3260 -0.2570 -0.5057
 4708poe     o221932   6.377   5.214   5.202 -0.0148  0.0927  0.1697
 4708poe    c2321933   6.319   5.203   5.074 -0.7900  0.3879  0.4942
 4708poe    c2321934   6.316   5.341   5.005 -0.1479  0.3699  0.4295
 4708poe     o221935   6.252   5.434   5.089 -0.4160  0.2662  0.3414
 4708poe    c3121936   6.294   5.564   5.052 -0.1079  0.1795  0.3825
 4709poe    c3121937   4.150   1.061   5.401  0.2228 -0.3354  0.5863
 4709poe     o221938   4.237   0.955   5.370  0.5295  0.0502  0.1057
 4709poe    c2321939   4.167   0.852   5.304  0.3097  0.0959  0.2673
 4709poe    c2321940   4.249   0.721   5.307 -0.1677 -0.2125 -0.0730
 4709poe     o221941   4.358   0.728   5.217 -0.4560 -0.3181 -0.4341
 4709poe    c2321942   4.423   0.604   5.224  0.1787  0.0386  0.1234
 4709poe    c2321943   4.557   0.609   5.149 -0.3786  0.0160 -0.8856
 4709poe     o221944   4.652   0.697   5.205 -0.2229 -0.6246 -0.1241
 4709poe    c2321945   4.760   0.707   5.114  0.2377 -0.4633  0.4358
 4709poe    c2321946   4.872   0.804   5.155  0.1033 -0.1096 -0.0242
 4709poe     o221947   4.807   0.925   5.184 -0.0999 -0.2332  0.0408
 4709poe    c3121948   4.875   1.035   5.126 -0.0487 -0.0820  0.3855
 4710poe    c3121949   4.837   5.516   7.427 -0.1326  0.3618 -0.3980
 4710poe     o221950   4.977   5.503   7.420 -0.2134 -0.8296  0.0342
 4710poe    c2321951   5.005   5.378   7.360 -0.3111 -0.7007 -0.2835
 4710poe    c2321952   5.156   5.380   7.327 -0.2340 -0.3677  0.0766
 4710poe     o221953   5.197   5.492   7.251 -0.0538 -0.4266  0.0875
 4710poe    c2321954   5.329   5.485   7.203 -0.1255  0.4365 -0.2465
 4710poe    c2321955   5.350   5.543   7.062  0.7666  0.2118 -0.2161
 4710poe     o221956   5.310   5.678   7.053  0.5492  0.1675  0.0621
 4710poe    c2321957   5.283   5.731   6.925  0.1154  0.0185  0.0909
 4710poe    c2321958   5.254   5.882   6.933 -0.3057 -0.0600  0.0898
 4710poe     o221959   5.139   5.901   7.013 -0.2806  0.0183  0.1074
 4710poe    c3121960   5.127   6.041   7.017 -0.3987  0.0115  0.0056
 4711poe    c3121961   2.410   5.014   0.844  0.2317  0.0394  0.2418
 4711poe     o221962   2.392   5.138   0.910  0.8111  0.5848 -0.6121
 4711poe    c2321963   2.392   5.239   0.811 -0.6605  0.2017 -1.0268
 4711poe    c2321964   2.413   5.369   0.890 -0.6537 -0.4184  0.0039
 4711poe     o221965   2.343   5.365   1.013  0.4607 -0.3194  0.6593
 4711poe    c2321966   2.351   5.495   1.067  0.3696 -0.2804  0.5808
 4711poe    c2321967   2.270   5.503   1.198 -0.0963  0.4337  0.2599
 4711poe     o221968   2.331   5.437   1.307 -0.2042 -0.1773 -0.0422
 4711poe    c2321969   2.265   5.451   1.431 -0.1064 -0.0704 -0.0019
 4711poe    c2321970   2.172   5.332   1.456  0.1692 -0.3716 -0.3969
 4711poe     o221971   2.090   5.343   1.571 -0.4627 -0.5282 -0.8283
 4711poe    c3121972   2.014   5.224   1.580 -0.1659 -0.6446  0.2491
 4712poe    c3121973   5.565   0.004   1.871  0.2517  0.2144  0.3348
 4712poe     o221974   5.688   0.033   1.934  0.4088  0.0139  0.1233
 4712poe    c2321975   5.791  -0.012   1.850  0.5463  0.4255  0.0670
 4712poe    c2321976   5.882  -0.120   1.912 -0.1463 -0.3210 -0.1818
 4712poe     o221977   5.824  -0.247   1.929  0.4741 -0.6863 -0.7388
 4712poe    c2321978   5.889  -0.307   2.039 -0.3879  0.0218  0.1833
 4712poe    c2321979   5.861  -0.458   2.050 -0.0955 -0.0342  0.1742
 4712poe     o221980   5.919  -0.543   1.954 -0.3750 -0.1624  0.1197
 4712poe    c2321981   5.898  -0.678   1.991  0.0488 -0.0902  0.6163
 4712poe    c2321982   5.977  -0.790   1.921  0.3557  0.3070  0.3184
 4712poe     o221983   5.910  -0.809   1.798  0.9274  0.5020 -0.0246
 4712poe    c3121984   5.993  -0.899   1.728  0.2038 -0.3689  0.2227
 4713poe    c3121985   4.604   6.642   0.258 -0.5516  0.1459  0.3804
 4713poe     o221986   4.630   6.670   0.394  0.1890  0.3124  0.2124
 4713poe    c2321987   4.748   6.600   0.424 -0.1844 -0.2015  0.5030
 4713poe    c2321988   4.869   6.692   0.444 -0.3969  0.2141 -0.0979
 4713poe     o221989   4.854   6.790   0.545  0.1628  0.2699 -0.0659
 4713poe    c2321990   4.922   6.912   0.526  0.1133  0.2195 -0.5817
 4713poe    c2321991   4.887   6.991   0.398 -0.2695  0.5241 -0.2931
 4713poe     o221992   4.754   7.034   0.410 -0.4514 -0.0741 -0.1196
 4713poe    c2321993   4.740   7.163   0.465  0.0515  0.1734 -0.5665
 4713poe    c2321994   4.591   7.202   0.477  0.1811  0.2819  0.8658
 4713poe     o221995   4.517   7.116   0.560 -0.1656 -0.2461  0.0229
 4713poe    c3121996   4.380   7.151   0.557 -0.2248 -0.4921 -0.2411
 4714poe    c3121997   0.517   2.760   5.684  0.6504  0.0403 -0.0653
 4714poe     o221998   0.588   2.722   5.569  0.5308  0.0783 -0.1531
 4714poe    c2321999   0.656   2.606   5.612 -0.0952 -0.2723 -0.1114
 4714poe    c2322000   0.738   2.525   5.511  0.1664 -0.2865  0.1129
 4714poe     o222001   0.863   2.582   5.478  0.2588 -0.3496  0.3485
 4714poe    c2322002   0.923   2.506   5.375  0.2775 -0.0306  0.1233
 4714poe    c2322003   1.064   2.550   5.332  0.3117 -0.1427  0.1228
 4714poe     o222004   1.063   2.684   5.288 -0.2107 -0.1651  0.0697
 4714poe    c2322005   1.191   2.736   5.264 -0.3111 -0.0992 -0.3230
 4714poe    c2322006   1.195   2.867   5.183  0.5049 -0.1244 -0.3360
 4714poe     o222007   1.147   2.980   5.254  0.5000 -0.0950 -0.3859
 4714poe    c3122008   1.202   3.094   5.191  0.3553  0.2036  0.0300
 4715poe    c3122009   4.954   5.291   6.336 -0.3688 -0.0759 -0.3064
 4715poe     o222010   5.081   5.246   6.378 -0.3382  0.3368  0.0512
 4715poe    c2322011   5.085   5.163   6.492 -0.2377  0.2456 -0.0189
 4715poe    c2322012   5.227   5.159   6.553 -0.2719  0.0854  0.0497
 4715poe     o222013   5.324   5.123   6.457 -0.3478  0.3904 -0.1417
 4715poe    c2322014   5.457   5.152   6.495 -0.2422  0.8582 -0.8499
 4715poe    c2322015   5.555   5.100   6.388  0.3235  0.1594 -0.0046
 4715poe     o222016   5.531   5.155   6.261  0.2491 -0.1323 -0.1172
 4715poe    c2322017   5.641   5.131   6.176  0.3080  0.0571 -0.0930
 4715poe    c2322018   5.614   5.015   6.079 -0.4613  0.0035  0.1816
 4715poe     o222019   5.510   5.047   5.988 -0.2939 -0.2359 -0.0957
 4715poe    c3122020   5.533   5.154   5.899  0.2771  0.1263  0.4683
 4716poe    c3122021   6.675   6.136   3.652 -1.1110  0.3557  1.1647
 4716poe     o222022   6.599   6.165   3.537  0.3706  0.0196  0.0650
 4716poe    c2322023   6.683   6.211   3.433  0.2074 -0.4120 -0.2607
 4716poe    c2322024   6.601   6.222   3.303  0.0660 -1.1439 -0.2375
 4716poe     o222025   6.669   6.265   3.187  0.1438  0.0829  0.2469
 4716poe    c2322026   6.582   6.252   3.078  0.2280 -0.0975  0.2009
 4716poe    c2322027   6.637   6.337   2.962  0.2012 -0.4409 -0.0665
 4716poe     o222028   6.777   6.320   2.949  0.2611 -0.0934  0.1186
 4716poe    c2322029   6.825   6.418   2.860  0.3037  0.4842  0.7683
 4716poe    c2322030   6.978   6.402   2.857  0.2350 -0.1041 -0.9821
 4716poe     o222031   7.012   6.404   2.994 -0.2533  0.0250 -0.8597
 4716poe    c3122032   7.153   6.399   3.000 -0.3019  0.2853  1.0925
 4717poe    c3122033   1.301   3.060   0.336  0.9752  0.1818  0.5307
 4717poe     o222034   1.320   3.189   0.392  0.5275  0.3788  0.2338
 4717poe    c2322035   1.369   3.181   0.524  0.5682 -0.3347  0.1820
 4717poe    c2322036   1.412   3.310   0.597  0.0173  0.1113 -0.2706
 4717poe     o222037   1.533   3.368   0.553  0.1540  0.1141  0.1092
 4717poe    c2322038   1.547   3.503   0.592  0.0674 -0.0339  0.6680
 4717poe    c2322039   1.687   3.566   0.590 -0.1269  0.3878 -0.4546
 4717poe     o222040   1.732   3.558   0.457  0.1555 -0.1829 -0.3296
 4717poe    c2322041   1.863   3.608   0.439 -0.0480  0.5799  0.2576
 4717poe    c2322042   1.906   3.590   0.292 -0.0772 -0.4263  0.3672
 4717poe     o222043   1.868   3.468   0.233 -0.5206  0.2040 -0.6666
 4717poe    c3122044   1.931   3.476   0.107  0.2294 -0.1636 -0.3199
 4718poe    c3122045   6.786   2.931   2.933  0.0430 -0.7079  0.3203
 4718poe     o222046   6.683   2.864   2.864 -0.2406  0.2788 -0.2264
 4718poe    c2322047   6.567   2.944   2.868 -0.1630  0.3707  0.3234
 4718poe    c2322048   6.436   2.873   2.828 -0.2244  0.7885 -0.2305
 4718poe     o222049   6.417   2.864   2.689 -0.0534 -0.0302 -0.2030
 4718poe    c2322050   6.309   2.778   2.657 -0.5510  0.2994  0.5860
 4718poe    c2322051   6.272   2.781   2.508 -0.2705 -1.2597  0.4790
 4718poe     o222052   6.377   2.727   2.430 -0.6355 -0.4742 -0.5791
 4718poe    c2322053   6.354   2.746   2.292 -0.5404  0.3187 -0.4889
 4718poe    c2322054   6.477   2.736   2.200 -0.0478  0.0503  0.1836
 4718poe     o222055   6.568   2.841   2.223  0.0636 -0.0061  0.0053
 4718poe    c3122056   6.678   2.835   2.135 -0.0374  0.6798 -0.1733
 4719poe    c3122057   2.887   5.402   2.593 -0.3008  0.6884  0.3414
 4719poe     o222058   2.977   5.380   2.486 -0.1616 -0.3084  0.6501
 4719poe    c2322059   3.080   5.289   2.516  0.3501  0.0798  0.1027
 4719poe    c2322060   3.135   5.219   2.391 -0.7420 -0.2123 -0.2294
 4719poe     o222061   3.218   5.284   2.297  0.0203 -0.8190  0.0067
 4719poe    c2322062   3.351   5.309   2.335 -0.2642  0.1217  0.4332
 4719poe    c2322063   3.372   5.428   2.430  0.3680  0.2134  0.1864
 4719poe     o222064   3.336   5.550   2.371  0.2787  0.2047  0.2211
 4719poe    c2322065   3.358   5.667   2.447 -0.1998  0.6800 -0.3591
 4719poe    c2322066   3.503   5.712   2.468 -0.1448  0.2038  0.3156
 4719poe     o222067   3.571   5.767   2.358 -0.2522  0.3689  0.3326
 4719poe    c3122068   3.682   5.833   2.414  0.0336  0.2982 -0.1399
 4720poe    c3122069   1.648   0.623   0.287  0.0742 -0.0961  0.0989
 4720poe     o222070   1.688   0.694   0.171  0.5609 -0.4434  0.0509
 4720poe    c2322071   1.796   0.638   0.100  0.3297 -0.5557 -0.2181
 4720poe    c2322072   1.857   0.701  -0.026  0.5297  0.0210  0.1607
 4720poe     o222073   1.922   0.824   0.001  0.1249  0.0818  0.8820
 4720poe    c2322074   1.905   0.915  -0.105  0.3192 -0.1820  0.6201
 4720poe    c2322075   1.930   1.058  -0.054  0.5017  0.1975 -0.5013
 4720poe     o222076   1.843   1.089   0.053  0.8248 -0.1415 -0.1358
 4720poe    c2322077   1.906   1.198   0.116 -0.0536  0.2058  0.1558
 4720poe    c2322078   1.877   1.208   0.267 -0.8676  0.1671  0.0101
 4720poe     o222079   1.968   1.145   0.354 -0.7943 -0.0232 -0.2042
 4720poe    c3122080   1.956   1.004   0.349  0.3628 -0.1449  0.0095
 4721poe    c3122081   6.655   7.299   2.704  1.0937 -0.0813  0.0683
 4721poe     o222082   6.604   7.208   2.610 -0.1967  0.9056 -0.2165
 4721poe    c2322083   6.501   7.131   2.669  0.2793 -0.3018 -0.9238
 4721poe    c2322084   6.443   7.033   2.565 -0.5178 -0.6452 -0.1703
 4721poe     o222085   6.391   7.095   2.449  0.3615  0.2712 -0.0900
 4721poe    c2322086   6.321   6.989   2.388  0.4668  0.2032 -0.0936
 4721poe    c2322087   6.289   7.040   2.246 -0.3757  0.6645  0.2476
 4721poe     o222088   6.389   7.101   2.167 -0.2473  0.2019  0.0423
 4721poe    c2322089   6.345   7.105   2.033  0.0263 -0.9260 -0.0833
 4721poe    c2322090   6.443   7.116   1.915 -0.4644 -0.3830 -0.4442
 4721poe     o222091   6.475   7.248   1.876  0.0385 -0.3436  0.0845
 4721poe    c3122092   6.558   7.236   1.763 -0.1510 -0.1679 -0.0746
 4722poe    c3122093   5.224   3.419   0.465 -0.0559  0.0677  0.0226
 4722poe     o222094   5.327   3.469   0.382 -0.2219 -0.3206 -0.4219
 4722poe    c2322095   5.443   3.478   0.461 -0.1375 -0.0810 -0.5742
 4722poe    c2322096   5.559   3.547   0.387  0.4168 -0.4771 -0.0831
 4722poe     o222097   5.523   3.665   0.317 -0.2799 -0.4856  0.2545
 4722poe    c2322098   5.639   3.733   0.274 -0.6430 -0.2776 -0.4038
 4722poe    c2322099   5.727   3.676   0.162 -0.0244  0.0352 -0.0822
 4722poe     o222100   5.671   3.668   0.033  0.1205  0.4137 -0.1717
 4722poe    c2322101   5.760   3.630  -0.070  0.1888 -0.2810  0.1374
 4722poe    c2322102   5.706   3.642  -0.213  0.0226 -0.2901  0.1987
 4722poe     o222103   5.686   3.777  -0.250 -0.3446 -0.4177 -0.0764
 4722poe    c3122104   5.687   3.781  -0.391  0.1101  0.0770 -0.0631
 4723poe    c3122105   0.055   4.300   3.390  0.4967 -0.3832  0.0785
 4723poe     o222106  -0.014   4.179   3.415  0.0770 -0.2223 -0.2922
 4723poe    c2322107   0.068   4.075   3.367 -0.1282 -0.3459 -0.3781
 4723poe    c2322108   0.025   3.939   3.425 -0.4156 -0.2318 -0.3194
 4723poe     o222109  -0.104   3.900   3.384 -0.6021  0.0256  0.0243
 4723poe    c2322110  -0.170   3.802   3.461 -0.3416 -0.2228 -0.0672
 4723poe    c2322111  -0.250   3.696   3.383  0.1094 -0.2215 -0.5352
 4723poe     o222112  -0.350   3.767   3.314  0.3529  0.1398 -0.5231
 4723poe    c2322113  -0.437   3.678   3.247 -0.2425  0.3136  0.0062
 4723poe    c2322114  -0.385   3.618   3.114 -0.1710  0.0313  0.1602
 4723poe     o222115  -0.365   3.717   3.016  0.0585 -0.3093 -0.1380
 4723poe    c3122116  -0.320   3.653   2.899  0.2110 -0.5381  0.0449
 4724poe    c3122117   7.035   6.320   4.675 -0.0306 -0.3576 -0.2722
 4724poe     o222118   7.140   6.225   4.676  0.2314 -0.0697  0.9432
 4724poe    c2322119   7.109   6.098   4.624  0.0796  0.5544 -0.5467
 4724poe    c2322120   7.233   6.006   4.631 -0.5637 -0.2710  0.2449
 4724poe     o222121   7.340   6.080   4.576 -0.4538 -0.7412 -0.1830
 4724poe    c2322122   7.454   6.003   4.545  0.1566  0.0032  0.2049
 4724poe    c2322123   7.564   6.094   4.487  0.2540 -0.3143 -0.1104
 4724poe     o222124   7.607   6.194   4.577 -0.0361 -0.1819 -0.1196
 4724poe    c2322125   7.746   6.219   4.586 -0.0808 -0.1445  0.4841
 4724poe    c2322126   7.783   6.364   4.620 -0.3413 -0.0378  0.3166
 4724poe     o222127   7.747   6.460   4.523  0.6730 -0.0302 -0.0741
 4724poe    c3122128   7.814   6.578   4.559 -0.0528  0.1829  0.6125
 4725poe    c3122129   7.085   5.552   0.050 -0.4472 -0.2445  0.1172
 4725poe     o222130   7.226   5.549   0.044 -0.4360  0.0432  0.2047
 4725poe    c2322131   7.269   5.419   0.077  0.2961  0.3030  0.2900
 4725poe    c2322132   7.422   5.418   0.092  0.3663 -0.0152 -0.3916
 4725poe     o222133   7.458   5.522   0.181 -0.5310  0.1303 -0.1885
 4725poe    c2322134   7.573   5.492   0.258 -0.8975 -0.0469  0.2963
 4725poe    c2322135   7.566   5.545   0.402 -0.6744  0.5216  0.1016
 4725poe     o222136   7.490   5.476   0.499 -0.5979  0.1983 -0.0687
 4725poe    c2322137   7.509   5.540   0.623  0.0096 -0.3658  0.1287
 4725poe    c2322138   7.409   5.487   0.727  0.1435  0.0135  0.4513
 4725poe     o222139   7.275   5.530   0.717  0.2623  0.3512  0.3056
 4725poe    c3122140   7.196   5.496   0.828  0.1154 -0.5171 -0.0584
 4726poe    c3122141   2.877   1.205   1.719  0.2598 -0.3110  0.1621
 4726poe     o222142   2.886   1.346   1.713  0.0607 -0.3054 -0.0207
 4726poe    c2322143   2.785   1.388   1.802  0.5104  0.6322  0.0558
 4726poe    c2322144   2.826   1.524   1.862 -0.1386  0.6801  0.4025
 4726poe     o222145   2.808   1.629   1.770  0.1364  0.1758 -0.2341
 4726poe    c2322146   2.834   1.757   1.825  0.4290  0.1905 -0.4001
 4726poe    c2322147   2.807   1.857   1.711  0.6452  0.6900 -0.0115
 4726poe     o222148   2.889   1.832   1.600  0.3960 -0.3164  0.0237
 4726poe    c2322149   2.825   1.907   1.499  0.1682 -0.3053  0.1772
 4726poe    c2322150   2.908   1.901   1.370 -0.4494  0.0052 -0.2380
 4726poe     o222151   2.966   1.772   1.366  0.2068  0.2852  0.0565
 4726poe    c3122152   3.070   1.760   1.271 -0.0665  0.5935 -0.2869
 4727poe    c3122153   5.393   6.549   5.957  0.6177 -0.2433 -0.0144
 4727poe     o222154   5.401   6.642   6.062 -0.3348 -0.2904  0.1065
 4727poe    c2322155   5.528   6.664   6.118 -0.4778 -0.1987  0.4026
 4727poe    c2322156   5.523   6.765   6.234  0.1667  0.3246 -0.0078
 4727poe     o222157   5.580   6.715   6.353 -0.1766 -0.2926 -0.0942
 4727poe    c2322158   5.668   6.807   6.414 -0.2852 -0.2056 -0.0695
 4727poe    c2322159   5.745   6.764   6.541  0.1213 -0.3904 -0.3776
 4727poe     o222160   5.668   6.770   6.659  0.2595  0.1685 -0.3112
 4727poe    c2322161   5.756   6.764   6.768 -0.3204 -0.3734  0.1352
 4727poe    c2322162   5.689   6.736   6.904  0.5568  0.2919  0.7143
 4727poe     o222163   5.601   6.841   6.936 -0.2154 -0.1793  0.1425
 4727poe    c3122164   5.591   6.856   7.076  0.1171  0.3932  0.1095
 4728poe    c3122165   3.268   2.471   3.070 -0.4307 -0.2559  0.4490
 4728poe     o222166   3.154   2.496   2.991 -0.3944  0.7035  0.6910
 4728poe    c2322167   3.190   2.535   2.860 -0.3245  0.1793  0.5516
 4728poe    c2322168   3.064   2.555   2.773 -0.4917 -0.2321  0.6955
 4728poe     o222169   2.995   2.432   2.768  0.1016 -0.5373 -0.1006
 4728poe    c2322170   2.882   2.425   2.684  0.0707  0.1709 -0.1274
 4728poe    c2322171   2.808   2.290   2.695 -0.4932  0.5293  0.5628
 4728poe     o222172   2.762   2.280   2.828  0.3023 -0.1114  0.8013
 4728poe    c2322173   2.673   2.174   2.854  0.0201 -0.0911 -0.0644
 4728poe    c2322174   2.627   2.184   3.000 -0.4055 -0.7706 -0.1467
 4728poe     o222175   2.743   2.199   3.078 -0.5614 -0.8152  0.0951
 4728poe    c3122176   2.723   2.160   3.212 -0.1978 -0.3530  0.2859
 4729poe    c3122177   6.237   7.006   1.064  0.0529 -0.1875  0.2051
 4729poe     o222178   6.161   7.043   0.951  0.4607  0.2936  0.0812
 4729poe    c2322179   6.222   7.148   0.879  0.4093  0.3935  0.1845
 4729poe    c2322180   6.168   7.139   0.735 -0.2882  0.2346  0.4481
 4729poe     o222181   6.029   7.154   0.746 -0.3669 -0.2357  0.1181
 4729poe    c2322182   5.962   7.138   0.623 -0.0009  0.3311 -0.1564
 4729poe    c2322183   5.818   7.189   0.638  0.0156  0.4079 -0.2542
 4729poe     o222184   5.760   7.123   0.749 -0.0021  0.7270 -0.0724
 4729poe    c2322185   5.643   7.191   0.788 -0.4470 -0.0674  0.0040
 4729poe    c2322186   5.574   7.124   0.909 -0.2853  0.4811  0.4045
 4729poe     o222187   5.648   7.151   1.026 -0.0231 -0.4403  0.4608
 4729poe    c3122188   5.568   7.102   1.132 -0.0274 -0.3997  0.4766
 4730poe    c3122189   0.697   6.906   4.588 -0.2645 -0.3034 -0.3024
 4730poe     o222190   0.608   6.911   4.698  0.3760  0.0050  0.2072
 4730poe    c2322191   0.536   7.029   4.727 -0.2011 -0.1740 -0.4668
 4730poe    c2322192   0.423   7.025   4.831 -0.0634  0.1953 -0.3023
 4730poe     o222193   0.464   6.999   4.964 -0.0055  0.4119 -0.2777
 4730poe    c2322194   0.353   6.966   5.044  0.1635  0.7093  0.0830
 4730poe    c2322195   0.391   6.941   5.191 -0.3774  0.4547  0.1807
 4730poe     o222196   0.474   6.828   5.209  0.0886  0.7807  0.0974
 4730poe    c2322197   0.433   6.758   5.325  0.2150 -0.1261 -0.3982
 4730poe    c2322198   0.490   6.615   5.324  0.0441 -0.1962 -0.1759
 4730poe     o222199   0.630   6.623   5.309  0.0066  0.4491 -0.2221
 4730poe    c3122200   0.693   6.635   5.435 -0.5228  0.4949  0.0367
 4731poe    c3122201   5.820   6.798   4.834  0.3248  0.6248 -0.3184
 4731poe     o222202   5.855   6.716   4.943 -0.4725  0.2342 -0.3555
 4731poe    c2322203   5.983   6.749   4.990 -0.5163 -0.3591  0.2034
 4731poe    c2322204   6.034   6.655   5.100  0.5521 -0.1161 -0.0620
 4731poe     o222205   6.047   6.520   5.060  0.5467  0.0076 -0.4777
 4731poe    c2322206   6.089   6.447   5.172  0.3024  0.0520 -0.3570
 4731poe    c2322207   6.117   6.302   5.128  0.2466 -0.1588  0.2869
 4731poe     o222208   6.006   6.249   5.059  0.3214 -0.0719  0.0992
 4731poe    c2322209   6.015   6.109   5.074  0.2733 -0.0922 -0.0585
 4731poe    c2322210   5.955   6.036   4.953 -0.2627  0.2717 -0.0133
 4731poe     o222211   5.824   6.080   4.923 -0.4280 -0.0961  0.1525
 4731poe    c3122212   5.758   5.970   4.865  0.5109 -0.6591  0.1385
 4732poe    c3122213   6.474   1.944   4.261 -0.1787  0.1169 -0.5742
 4732poe     o222214   6.437   1.910   4.130 -0.3616 -0.0707 -0.4751
 4732poe    c2322215   6.296   1.907   4.136 -0.3885  0.4802 -0.7601
 4732poe    c2322216   6.245   1.791   4.049  0.6084 -0.5785  0.0346
 4732poe     o222217   6.323   1.816   3.935  0.6002 -0.1326  0.1236
 4732poe    c2322218   6.263   1.783   3.812  0.1217  0.1189  0.2872
 4732poe    c2322219   6.358   1.820   3.697  0.2978  0.3431  0.5065
 4732poe     o222220   6.485   1.758   3.706  0.3545  0.4645  0.5526
 4732poe    c2322221   6.564   1.779   3.591  0.2088  0.2901  0.4192
 4732poe    c2322222   6.699   1.703   3.592  0.1316  0.1464 -0.0776
 4732poe     o222223   6.778   1.752   3.698  0.8824 -0.1465 -0.4932
 4732poe    c3122224   6.911   1.705   3.699  0.6877 -0.7046 -0.5553
 4733poe    c3122225   0.496   0.782   0.676 -0.3516 -0.1695 -0.5026
 4733poe     o222226   0.633   0.793   0.709 -0.4184  0.2208 -0.3502
 4733poe    c2322227   0.642   0.909   0.789 -0.1822  0.3169 -0.5167
 4733poe    c2322228   0.787   0.950   0.817 -0.1032 -0.4196  0.2001
 4733poe     o222229   0.861   0.951   0.697 -0.1085  0.0687  0.1978
 4733poe    c2322230   0.993   0.997   0.713  0.0533 -0.3500  0.0780
 4733poe    c2322231   1.049   1.032   0.574 -0.6585  0.0173 -0.1223
 4733poe     o222232   1.021   0.917   0.497 -0.1951 -0.1244 -0.0842
 4733poe    c2322233   1.066   0.943   0.366 -0.4841  0.0251 -0.1534
 4733poe    c2322234   1.027   0.815   0.290  0.3778 -0.4984  0.2743
 4733poe     o222235   0.889   0.792   0.310  0.2072  0.2036 -0.0619
 4733poe    c3122236   0.839   0.682   0.238 -0.1919 -0.0135  0.5435
 4734poe    c3122237   3.621   6.150   5.901  0.0489  0.2456  0.0039
 4734poe     o222238   3.492   6.109   5.941  0.3886 -0.3101  0.5438
 4734poe    c2322239   3.491   5.975   5.986  0.7548 -0.3334  0.4846
 4734poe    c2322240   3.352   5.955   6.047  0.3890  0.0907 -0.1857
 4734poe     o222241   3.331   6.038   6.159 -0.8948  0.2462 -0.5293
 4734poe    c2322242   3.218   5.985   6.226 -0.6379 -0.3911 -0.5902
 4734poe    c2322243   3.174   6.070   6.347  0.4852  0.0183 -0.4544
 4734poe     o222244   3.151   6.207   6.320 -0.1528 -0.0295 -0.1771
 4734poe    c2322245   3.127   6.269   6.444  0.8306 -0.1658  0.0875
 4734poe    c2322246   3.122   6.423   6.438 -0.0209 -0.1985 -0.0691
 4734poe     o222247   3.009   6.462   6.363  0.0086 -0.2361 -0.1332
 4734poe    c3122248   3.003   6.602   6.341 -0.3543 -0.2882 -0.3650
 4735poe    c3122249   3.987   3.826   6.850 -0.0429  0.4135  0.1341
 4735poe     o222250   3.881   3.810   6.759  0.2042  0.2015 -0.1193
 4735poe    c2322251   3.935   3.818   6.629 -0.1749  0.0442 -0.2902
 4735poe    c2322252   3.837   3.771   6.521 -0.2183 -0.9061  0.1519
 4735poe     o222253   3.743   3.875   6.516  0.4189 -0.3305 -0.0148
 4735poe    c2322254   3.627   3.824   6.454  0.1997  0.4370 -0.2474
 4735poe    c2322255   3.510   3.919   6.488 -0.3937 -0.1706 -0.5562
 4735poe     o222256   3.482   3.941   6.624  0.2946  0.3571 -0.4874
 4735poe    c2322257   3.380   4.036   6.645 -0.0709 -0.2196  0.4674
 4735poe    c2322258   3.292   3.995   6.764 -0.9305  0.1596 -0.0304
 4735poe     o222259   3.350   4.042   6.884 -0.3207  0.2536 -0.3598
 4735poe    c3122260   3.276   3.990   6.992  0.2666  0.4858  0.1551
 4736poe    c3122261   6.903   0.723   6.712  0.2640 -0.0325 -0.5260
 4736poe     o222262   6.944   0.816   6.613 -0.0595  0.5098 -0.1554
 4736poe    c2322263   6.940   0.753   6.487 -0.3467  0.3812 -0.0857
 4736poe    c2322264   7.075   0.786   6.421 -0.0011 -0.2268  0.3004
 4736poe     o222265   7.186   0.730   6.487  0.3440  0.1430  0.0441
 4736poe    c2322266   7.309   0.773   6.434  0.6077 -0.0289  0.5137
 4736poe    c2322267   7.433   0.720   6.510  1.4048  0.2901 -0.5326
 4736poe     o222268   7.404   0.598   6.575  0.7527  0.6079 -0.2042
 4736poe    c2322269   7.527   0.528   6.581  0.2493 -0.2892 -0.1597
 4736poe    c2322270   7.515   0.401   6.667 -0.2053 -0.0560  0.1255
 4736poe     o222271   7.488   0.437   6.800 -0.3717 -0.0229  0.0826
 4736poe    c3122272   7.483   0.321   6.881 -0.2215 -0.6886 -0.8490
 4737poe    c3122273   5.143   1.058   2.579  0.2670  0.4551  0.0030
 4737poe     o222274   5.182   1.116   2.701 -0.0565  0.1451  0.2584
 4737poe    c2322275   5.272   1.026   2.763  0.6302  0.6770  0.0511
 4737poe    c2322276   5.311   1.083   2.900  0.1877  0.2257  0.3715
 4737poe     o222277   5.367   1.213   2.905 -0.1153  0.3717  0.0011
 4737poe    c2322278   5.427   1.229   3.031  0.1687  0.0755 -0.0948
 4737poe    c2322279   5.493   1.368   3.041  0.2736  0.0181  0.0099
 4737poe     o222280   5.393   1.464   3.019  0.1982 -0.2339 -0.7708
 4737poe    c2322281   5.422   1.601   3.032 -0.1839 -0.2073 -0.1294
 4737poe    c2322282   5.315   1.688   2.964 -0.4361 -0.0812  0.4217
 4737poe     o222283   5.201   1.607   2.980 -0.5533  0.0229  0.1274
 4737poe    c3122284   5.096   1.688   2.935 -0.4718 -0.2344 -0.5397
 4738poe    c3122285   0.883   5.729   0.301  0.0707 -0.4786  0.5359
 4738poe     o222286   1.020   5.717   0.332  0.2708 -0.0024 -0.1376
 4738poe    c2322287   1.044   5.775   0.458  0.0875  0.1978 -0.1919
 4738poe    c2322288   1.180   5.747   0.526 -0.0192  0.1904  0.0192
 4738poe     o222289   1.191   5.621   0.588 -0.1506 -0.1590 -0.6526
 4738poe    c2322290   1.295   5.620   0.683 -0.2821 -0.6336 -0.5148
 4738poe    c2322291   1.343   5.482   0.735  0.1681 -0.2151  0.2091
 4738poe     o222292   1.266   5.416   0.833  0.3560 -0.4504  0.1977
 4738poe    c2322293   1.341   5.309   0.887  0.9854  0.0591  0.3489
 4738poe    c2322294   1.270   5.253   1.011 -0.2439  0.3689 -0.1947
 4738poe     o222295   1.150   5.183   0.987 -0.0153  0.0155 -0.3059
 4738poe    c3122296   1.084   5.173   1.111  0.2276  0.3169 -0.1496
 4739poe    c3122297   5.806   6.802   5.902  0.2782  0.2384  0.7196
 4739poe     o222298   5.685   6.872   5.900 -0.0708 -0.3658  0.2400
 4739poe    c2322299   5.641   6.865   5.766 -0.1791  0.2287  0.2418
 4739poe    c2322300   5.499   6.925   5.754 -0.2877 -0.0648  0.0457
 4739poe     o222301   5.523   7.061   5.784  0.2680 -0.1629  0.0499
 4739poe    c2322302   5.415   7.151   5.781  0.0977 -0.3788 -0.4187
 4739poe    c2322303   5.447   7.289   5.842  0.6735 -0.5232 -0.3912
 4739poe     o222304   5.479   7.284   5.979 -0.1587  0.1349 -0.1668
 4739poe    c2322305   5.554   7.396   6.024  0.5500 -0.4378  0.1026
 4739poe    c2322306   5.535   7.408   6.176 -0.3602 -0.2320 -0.0207
 4739poe     o222307   5.554   7.278   6.227  0.0185 -0.0740  0.2410
 4739poe    c3122308   5.534   7.279   6.367 -0.9199  0.1487  0.1107
 4740poe    c3122309   1.183   3.979   3.705  0.2625 -0.0907  0.7499
 4740poe     o222310   1.089   4.050   3.782 -0.3464  0.3886 -0.4036
 4740poe    c2322311   1.144   4.175   3.816 -0.5920  0.2350  0.5975
 4740poe    c2322312   1.121   4.221   3.961  0.2657  0.2730  0.7271
 4740poe     o222313   1.141   4.119   4.056  0.1876 -0.7068 -0.2866
 4740poe    c2322314   1.124   4.173   4.185  0.5574 -0.1769 -0.4531
 4740poe    c2322315   1.147   4.078   4.305 -0.0158  0.2695  0.0192
 4740poe     o222316   1.061   3.967   4.315  0.2268  0.0823  0.0333
 4740poe    c2322317   1.061   3.902   4.441  0.2415 -0.3240 -0.1727
 4740poe    c2322318   0.987   3.768   4.433  0.4562 -0.4123 -0.7155
 4740poe     o222319   1.051   3.669   4.355  0.9012 -0.7386  0.0504
 4740poe    c3122320   0.981   3.547   4.347 -0.0374 -0.2136  0.1396
 4741poe    c3122321   4.751   6.031   5.311 -0.2582 -0.1511  0.4076
 4741poe     o222322   4.696   5.912   5.259  0.1149 -0.3981  0.5712
 4741poe    c2322323   4.748   5.881   5.132 -0.3524  0.2154  0.2229
 4741poe    c2322324   4.684   5.748   5.087  0.5889 -0.2445  0.2079
 4741poe     o222325   4.548   5.759   5.052  0.5154 -0.0930  0.5323
 4741poe    c2322326   4.487   5.640   5.008 -0.0566  0.1179  0.7383
 4741poe    c2322327   4.334   5.646   5.026 -0.2754 -0.7001 -0.6586
 4741poe     o222328   4.288   5.668   5.157 -0.0825 -0.3876 -0.6418
 4741poe    c2322329   4.227   5.558   5.221  0.0055  0.0898  0.2905
 4741poe    c2322330   4.236   5.589   5.371 -0.2489 -0.1278  0.3521
 4741poe     o222331   4.154   5.691   5.424  0.0812  0.0401  0.5449
 4741poe    c3122332   4.021   5.647   5.439  0.2115 -0.5934 -0.1054
 4742poe    c3122333   2.244   3.086   4.581  0.0669  0.4111  0.7961
 4742poe     o222334   2.271   3.107   4.718 -0.1401  0.2500  0.8624
 4742poe    c2322335   2.375   3.202   4.727 -0.1635  0.3591  0.0574
 4742poe    c2322336   2.389   3.243   4.875  0.4880 -0.4672  0.2313
 4742poe     o222337   2.446   3.137   4.950  0.7344 -0.3548  0.2044
 4742poe    c2322338   2.460   3.154   5.089 -0.6458  0.1954  0.2951
 4742poe    c2322339   2.568   3.055   5.136 -0.1292  0.2250 -0.8201
 4742poe     o222340   2.545   2.921   5.099 -0.2994  0.1341 -0.3864
 4742poe    c2322341   2.648   2.841   5.153 -0.8371 -0.0638  0.3597
 4742poe    c2322342   2.662   2.706   5.079 -0.5625  0.1025  0.1053
 4742poe     o222343   2.624   2.720   4.944 -0.0002 -0.2515 -0.0888
 4742poe    c3122344   2.608   2.596   4.879 -0.4383 -0.6630  0.7929
 4743poe    c3122345   5.216   7.076   1.657  0.9371  0.3120 -0.4748
 4743poe     o222346   5.277   6.955   1.695 -0.1058 -0.0459  0.0901
 4743poe    c2322347   5.392   6.981   1.773 -0.3267 -0.0812  0.4338
 4743poe    c2322348   5.502   6.875   1.753 -0.5335 -0.1703 -0.2627
 4743poe     o222349   5.452   6.751   1.797  0.1901 -0.3595  0.0389
 4743poe    c2322350   5.553   6.652   1.793  0.4207 -0.1579  0.7168
 4743poe    c2322351   5.519   6.510   1.844  0.1101 -0.2992  0.1370
 4743poe     o222352   5.407   6.470   1.769  0.1269  0.2199 -0.1692
 4743poe    c2322353   5.340   6.365   1.834 -0.1509  0.5573  0.0961
 4743poe    c2322354   5.221   6.302   1.759  0.6198 -0.2068 -0.5083
 4743poe     o222355   5.112   6.381   1.718  0.3806 -0.4552 -0.3523
 4743poe    c3122356   5.006   6.312   1.655 -0.3362 -0.5050  0.8742
 4744poe    c3122357   0.748   0.369   0.405  0.0301 -0.3521 -0.0318
 4744poe     o222358   0.845   0.269   0.380  0.4697  0.0519  0.0461
 4744poe    c2322359   0.895   0.278   0.248 -0.1681  0.5573 -0.1668
 4744poe    c2322360   0.988   0.170   0.190 -0.4312  0.7156 -0.9007
 4744poe     o222361   1.125   0.172   0.226 -0.6257  0.2917 -0.1029
 4744poe    c2322362   1.197   0.287   0.188 -0.1466 -0.0164 -0.1348
 4744poe    c2322363   1.346   0.264   0.217 -0.2139 -0.0886  0.1518
 4744poe     o222364   1.373   0.245   0.354  0.2014 -0.5472  0.0103
 4744poe    c2322365   1.506   0.213   0.388  0.5313  0.3202 -0.4325
 4744poe    c2322366   1.549   0.076   0.332 -0.5210 -0.1065 -0.2065
 4744poe     o222367   1.634   0.008   0.421 -0.1044  0.3607 -0.2446
 4744poe    c3122368   1.710  -0.090   0.353 -0.1065  0.3490 -0.2299
 4745poe    c3122369   7.194   3.264   4.739 -0.1582  0.3270 -0.0704
 4745poe     o222370   7.062   3.276   4.789 -0.2127 -0.0048 -0.1295
 4745poe    c2322371   6.976   3.172   4.750  0.0027 -0.2160 -0.0440
 4745poe    c2322372   6.830   3.209   4.784 -0.0828 -0.3319 -0.2858
 4745poe     o222373   6.777   3.310   4.701 -0.2561 -0.1604  0.0304
 4745poe    c2322374   6.734   3.285   4.569 -0.9253 -0.7038  0.3457
 4745poe    c2322375   6.718   3.425   4.506  0.0562 -0.3509  0.8609
 4745poe     o222376   6.615   3.504   4.561 -0.2812 -0.3024  0.1748
 4745poe    c2322377   6.625   3.639   4.522  0.3941 -0.5507 -0.5213
 4745poe    c2322378   6.515   3.726   4.585  0.7763 -0.3228 -0.1723
 4745poe     o222379   6.529   3.735   4.725 -0.2417 -0.2201 -0.0757
 4745poe    c3122380   6.434   3.835   4.758 -0.1186  0.0269 -0.4625
 4746poe    c3122381   3.288   1.082   6.437  0.0643 -0.0564  0.0329
 4746poe     o222382   3.347   1.136   6.553 -0.2344 -0.4113  0.3524
 4746poe    c2322383   3.265   1.237   6.609  0.1475 -0.0107  0.1925
 4746poe    c2322384   3.126   1.199   6.663  0.2095 -0.0929  0.2938
 4746poe     o222385   3.158   1.095   6.753 -0.7957 -0.3794  0.3268
 4746poe    c2322386   3.036   1.046   6.803 -0.7588 -0.8007  0.0134
 4746poe    c2322387   3.037   0.892   6.801  0.1079 -0.7954 -0.0928
 4746poe     o222388   3.114   0.834   6.905 -0.1417 -0.0780  0.4991
 4746poe    c2322389   3.090   0.696   6.920 -0.2223 -0.1534 -0.2606
 4746poe    c2322390   3.200   0.619   6.995 -0.4063  0.1388  0.3228
 4746poe     o222391   3.328   0.643   6.940 -0.1499 -0.5549  0.6115
 4746poe    c3122392   3.435   0.609   7.025  0.3636  0.2035  0.2689
 4747poe    c3122393   7.278   2.476   6.165 -0.3930 -0.5447  0.1902
 4747poe     o222394   7.261   2.345   6.215 -0.0679 -0.4277  0.6135
 4747poe    c2322395   7.358   2.252   6.172  0.0848  0.2170 -0.4795
 4747poe    c2322396   7.302   2.173   6.052 -0.1533  0.1427 -0.3201
 4747poe     o222397   7.269   2.253   5.940  0.0144  0.1703 -0.3494
 4747poe    c2322398   7.366   2.247   5.838 -0.5014 -0.2714 -0.8245
 4747poe    c2322399   7.347   2.345   5.722 -0.5331  0.1337 -0.4789
 4747poe     o222400   7.338   2.483   5.752  0.4835  0.0226  0.3892
 4747poe    c2322401   7.374   2.545   5.630 -0.2232  0.3650  0.3470
 4747poe    c2322402   7.327   2.691   5.629  0.0946  0.4665  0.1127
 4747poe     o222403   7.188   2.713   5.632  0.1531  0.8393  0.1488
 4747poe    c3122404   7.152   2.848   5.615 -0.0878  0.7544 -0.0187
 4748poe    c3122405   2.084   3.886   7.293  0.1676 -0.3875  0.3611
 4748poe     o222406   2.060   3.959   7.411  0.1262 -0.1267  0.1916
 4748poe    c2322407   2.074   3.869   7.519  0.3619 -0.0543  0.2227
 4748poe    c2322408   1.996   3.921   7.641  0.2807  0.3389  0.0079
 4748poe     o222409   2.038   4.026   7.725  0.2253  0.2809  0.1083
 4748poe    c2322410   2.141   3.978   7.809  0.3092  0.3910  0.0681
 4748poe    c2322411   2.196   4.089   7.901  0.4848 -0.3696  0.8919
 4748poe     o222412   2.261   4.193   7.832  0.0923 -0.7315 -0.0318
 4748poe    c2322413   2.267   4.304   7.919 -0.0424 -0.5283 -0.2799
 4748poe    c2322414   2.342   4.419   7.850  0.1434 -0.1907  0.4754
 4748poe     o222415   2.273   4.499   7.757  0.4027 -0.2573  0.2240
 4748poe    c3122416   2.359   4.584   7.685  0.2892 -0.1478  0.2175
 4749poe    c3122417   0.319   0.307   2.877 -0.7222 -0.0345  0.1404
 4749poe     o222418   0.367   0.306   2.745  0.1345 -0.4649  0.4466
 4749poe    c2322419   0.278   0.225   2.671  0.1955  0.0105 -0.1496
 4749poe    c2322420   0.349   0.152   2.555 -0.5544 -0.3046 -0.4154
 4749poe     o222421   0.454   0.068   2.599 -0.0060  0.2113 -0.7263
 4749poe    c2322422   0.526   0.038   2.482  0.4354 -0.2429 -0.3360
 4749poe    c2322423   0.632  -0.063   2.530  0.3917 -0.0570  0.1612
 4749poe     o222424   0.719   0.003   2.619 -0.0523 -0.0051  0.5575
 4749poe    c2322425   0.706  -0.062   2.744 -0.2558 -0.3852  0.3415
 4749poe    c2322426   0.818  -0.040   2.847 -0.3627  0.9977  0.1853
 4749poe     o222427   0.942  -0.100   2.815 -0.7502  0.3741 -0.1552
 4749poe    c3122428   1.043  -0.045   2.895 -0.5456  0.2771 -0.3453
 4750poe    c3122429   4.262   1.899   5.240  0.2723  0.6256  0.2365
 4750poe     o222430   4.165   2.001   5.243 -0.4650 -0.0632  0.1087
 4750poe    c2322431   4.059   1.959   5.160 -0.1513 -0.3211 -0.1645
 4750poe    c2322432   3.950   2.066   5.141  0.3679  0.2504  0.0566
 4750poe     o222433   3.845   2.070   5.236 -0.2882 -0.0637 -0.6459
 4750poe    c2322434   3.790   2.197   5.211 -0.1673  0.2025  0.4292
 4750poe    c2322435   3.684   2.240   5.315 -0.3063  0.2094  0.2856
 4750poe     o222436   3.747   2.236   5.442  0.3908 -0.5601 -0.0717
 4750poe    c2322437   3.669   2.276   5.552  0.3529  0.2236 -0.3764
 4750poe    c2322438   3.551   2.188   5.596  0.4111  0.6372  0.6339
 4750poe     o222439   3.589   2.057   5.633 -0.1907  0.0165 -0.8890
 4750poe    c3122440   3.480   1.968   5.622 -0.4184  0.1081  0.4594
 4751poe    c3122441   0.540   2.489   4.993 -0.3232 -0.1076 -0.9629
 4751poe     o222442   0.557   2.607   5.067 -0.3796 -0.3438 -0.5678
 4751poe    c2322443   0.688   2.644   5.106 -0.7368  0.3760  0.0009
 4751poe    c2322444   0.738   2.787   5.083 -0.6675  0.2408 -0.7470
 4751poe     o222445   0.671   2.871   5.175 -0.5975  0.3319 -0.7785
 4751poe    c2322446   0.708   3.005   5.150  0.2565  0.1951 -0.2996
 4751poe    c2322447   0.597   3.103   5.190 -0.3309 -0.6127  0.0787
 4751poe     o222448   0.578   3.095   5.330 -0.0444 -0.0123  0.1558
 4751poe    c2322449   0.523   3.211   5.390 -0.2724 -0.1833  0.2802
 4751poe    c2322450   0.480   3.170   5.532  0.3982 -0.5550  0.3844
 4751poe     o222451   0.341   3.144   5.539  0.3394 -0.5083 -0.4235
 4751poe    c3122452   0.295   3.128   5.672 -0.5103  0.2204 -0.6246
 4752poe    c3122453   3.071   2.236   4.543 -0.0485  0.4888 -0.1345
 4752poe     o222454   3.003   2.194   4.659  0.4070 -0.1484 -0.0940
 4752poe    c2322455   2.963   2.305   4.736  0.1285 -0.2418 -0.1039
 4752poe    c2322456   2.866   2.269   4.850  0.1364 -0.0478 -0.0369
 4752poe     o222457   2.950   2.180   4.920 -0.0526 -0.2253 -0.0379
 4752poe    c2322458   2.891   2.132   5.039 -0.2582  0.4880  0.1496
 4752poe    c2322459   3.016   2.114   5.126 -0.1774 -0.4945 -0.1625
 4752poe     o222460   3.107   2.027   5.062 -0.2936 -0.3162 -0.5665
 4752poe    c2322461   3.215   1.999   5.148 -0.1773  0.7475 -0.3522
 4752poe    c2322462   3.333   1.919   5.091 -0.3664  0.0108  0.2728
 4752poe     o222463   3.378   1.975   4.970 -0.4656 -0.6469 -0.0715
 4752poe    c3122464   3.507   1.930   4.934 -0.1064  0.4791 -0.2438
 4753poe    c3122465   7.383   1.789   2.292  0.6586 -0.3430 -0.0091
 4753poe     o222466   7.446   1.885   2.210  0.2868 -0.0722  0.0220
 4753poe    c2322467   7.347   1.938   2.124 -0.1607 -0.7039  0.1393
 4753poe    c2322468   7.424   2.033   2.031 -0.0964 -0.2017  0.6970
 4753poe     o222469   7.464   2.148   2.102  1.0551 -0.0468 -0.1585
 4753poe    c2322470   7.446   2.270   2.032 -0.6576  0.1768  0.6092
 4753poe    c2322471   7.506   2.404   2.078 -0.0520 -0.0107  0.3792
 4753poe     o222472   7.647   2.392   2.079 -0.0811 -0.4176 -0.1480
 4753poe    c2322473   7.710   2.501   2.141 -0.5399 -0.1538 -0.1364
 4753poe    c2322474   7.848   2.506   2.072 -0.1913  0.0847  0.5615
 4753poe     o222475   7.948   2.410   2.097 -0.1172  0.0102 -0.0126
 4753poe    c3122476   8.064   2.458   2.033 -0.4063  0.7118 -0.0189
 4754poe    c3122477   6.541   3.431   0.052 -0.2315  0.2335  0.4876
 4754poe     o222478   6.667   3.486   0.086 -0.1920  0.1125  0.5378
 4754poe    c2322479   6.772   3.407   0.034 -0.0502  0.2700  0.5843
 4754poe    c2322480   6.866   3.457  -0.077 -0.1334  0.4707  0.6043
 4754poe     o222481   6.930   3.572  -0.027  0.1179  0.7434 -0.3179
 4754poe    c2322482   7.069   3.579  -0.051  0.0402  0.6034 -0.8176
 4754poe    c2322483   7.128   3.713  -0.006  0.3076  0.0692  0.4834
 4754poe     o222484   7.040   3.806  -0.065 -0.1843 -0.3655  0.5242
 4754poe    c2322485   7.069   3.943  -0.049 -0.2343 -0.2579 -0.2589
 4754poe    c2322486   6.964   4.039  -0.109 -0.1630 -0.1911 -0.2779
 4754poe     o222487   6.834   3.986  -0.104 -0.1125 -0.3092 -0.2173
 4754poe    c3122488   6.736   4.087  -0.112  0.4910  0.3258  0.3075
 4755poe    c3122489   5.408   4.401   7.199 -0.4124 -0.5004  0.0002
 4755poe     o222490   5.385   4.529   7.143 -0.2844 -0.5372 -0.1363
 4755poe    c2322491   5.316   4.520   7.020 -0.5367 -0.2465 -0.0147
 4755poe    c2322492   5.276   4.657   6.961 -0.0911 -0.0863  0.0503
 4755poe     o222493   5.393   4.734   6.943 -0.1662  0.1011  0.3452
 4755poe    c2322494   5.375   4.860   6.883 -0.4032 -0.2134 -0.2622
 4755poe    c2322495   5.368   4.849   6.730  0.1152 -0.1524 -0.2890
 4755poe     o222496   5.499   4.843   6.676  0.2092  0.2792 -0.1151
 4755poe    c2322497   5.525   4.714   6.625  0.6445  0.2559  0.1648
 4755poe    c2322498   5.636   4.722   6.518  0.6401 -1.0346  0.0494
 4755poe     o222499   5.750   4.794   6.559 -0.3743  0.4307  0.3792
 4755poe    c3122500   5.833   4.790   6.446 -0.2169  0.4473  0.4949
 4756poe    c3122501   1.149   6.347   3.696  0.0672 -1.0908  0.3421
 4756poe     o222502   1.081   6.309   3.578 -0.0997  0.2929 -0.0216
 4756poe    c2322503   1.030   6.428   3.521  0.0513  0.4327  0.1341
 4756poe    c2322504   0.936   6.398   3.403  0.3154  0.4883 -0.0911
 4756poe     o222505   0.836   6.314   3.455  0.4965  0.1367 -0.3077
 4756poe    c2322506   0.753   6.263   3.353 -0.2264  0.5550  0.0598
 4756poe    c2322507   0.647   6.179   3.428  0.0247  0.1097 -0.0788
 4756poe     o222508   0.534   6.244   3.481  0.2246  0.3664  0.0381
 4756poe    c2322509   0.449   6.316   3.394  0.1736 -0.1258 -0.3297
 4756poe    c2322510   0.340   6.224   3.337  0.2642 -0.5519  0.1726
 4756poe     o222511   0.261   6.155   3.431  0.1751 -0.3702  0.2312
 4756poe    c3122512   0.145   6.105   3.367  0.1006  0.3038 -0.1702
 4757poe    c3122513   2.568   2.140   1.685  0.1366  0.0128  0.3963
 4757poe     o222514   2.699   2.190   1.704  0.3558 -0.1851 -0.5396
 4757poe    c2322515   2.738   2.305   1.632  0.1429  0.4268  0.3124
 4757poe    c2322516   2.885   2.350   1.647  0.4464 -0.4273 -0.0424
 4757poe     o222517   2.938   2.427   1.753 -0.2911 -0.1188  0.1098
 4757poe    c2322518   3.067   2.478   1.732 -0.1478 -0.4279  0.2316
 4757poe    c2322519   3.092   2.566   1.855  0.3669 -0.2380 -0.0051
 4757poe     o222520   3.042   2.498   1.968  0.3753 -0.2704 -0.0210
 4757poe    c2322521   3.083   2.564   2.085 -0.4112  0.2194 -0.0158
 4757poe    c2322522   3.040   2.466   2.196 -0.1261  0.4695  0.3204
 4757poe     o222523   2.912   2.411   2.172  0.0264  0.1150  0.3198
 4757poe    c3122524   2.860   2.331   2.276  0.1538 -0.6403 -0.1974
 4758poe    c3122525   6.639   5.739   2.375  0.5365 -0.3484 -0.0768
 4758poe     o222526   6.534   5.737   2.469  0.5084  0.1008 -0.0961
 4758poe    c2322527   6.569   5.826   2.573  0.7251 -0.1524  0.0493
 4758poe    c2322528   6.453   5.841   2.673  0.5437 -0.4932 -0.1080
 4758poe     o222529   6.333   5.894   2.620  0.5233 -0.1587  0.2626
 4758poe    c2322530   6.225   5.862   2.705  0.3481  0.0577  0.1227
 4758poe    c2322531   6.089   5.920   2.663  0.5151  0.1224 -0.3358
 4758poe     o222532   6.081   6.057   2.696  0.1972 -0.1198  0.6374
 4758poe    c2322533   5.951   6.097   2.657  0.2228 -0.3582  0.3008
 4758poe    c2322534   5.952   6.239   2.599 -0.4090 -0.5297 -0.1434
 4758poe     o222535   6.020   6.236   2.476  0.5171 -0.6460  0.3584
 4758poe    c3122536   6.038   6.373   2.447 -0.5741 -0.5496  0.0856
 4759poe    c3122537   1.843   2.473   4.125  0.0352 -0.3769  0.0520
 4759poe     o222538   1.866   2.486   4.263 -0.6562 -0.2985  0.1629
 4759poe    c2322539   1.965   2.395   4.308  0.1453  0.2623 -0.4410
 4759poe    c2322540   1.964   2.391   4.462  0.2374 -0.0997 -0.4489
 4759poe     o222541   1.864   2.333   4.542  0.1471  0.0650 -0.4427
 4759poe    c2322542   1.728   2.329   4.504 -0.0156  0.0812  0.1347
 4759poe    c2322543   1.636   2.243   4.593 -0.1046 -0.1889 -0.2211
 4759poe     o222544   1.633   2.107   4.557 -0.0954 -0.1384 -0.4172
 4759poe    c2322545   1.557   2.040   4.656  0.3133 -0.1443 -0.1077
 4759poe    c2322546   1.555   1.891   4.619  0.0330 -0.0144 -0.6175
 4759poe     o222547   1.683   1.834   4.602  0.2674  0.2848  0.1222
 4759poe    c3122548   1.677   1.698   4.567  0.0246  0.5063 -0.7275
 4760poe    c3122549   1.484   0.917   7.273 -0.9914  0.0714  0.4302
 4760poe     o222550   1.514   1.027   7.357  0.6000 -0.2602  0.3232
 4760poe    c2322551   1.539   1.147   7.287 -0.3640 -0.4051 -0.3019
 4760poe    c2322552   1.597   1.243   7.393 -0.6077  0.1079 -0.6287
 4760poe     o222553   1.514   1.244   7.506 -0.1404  0.0250 -0.2824
 4760poe    c2322554   1.551   1.360   7.577 -0.6122  0.3433 -0.5516
 4760poe    c2322555   1.471   1.365   7.708 -0.1641  0.0794 -0.2680
 4760poe     o222556   1.503   1.258   7.795 -0.7298  0.2647  0.1678
 4760poe    c2322557   1.462   1.272   7.930 -0.1874  0.0448  0.3585
 4760poe    c2322558   1.310   1.276   7.951 -0.2324 -0.7807  0.2200
 4760poe     o222559   1.244   1.380   7.883  0.4182 -0.1502  0.5421
 4760poe    c3122560   1.108   1.405   7.914  0.3568  0.3756 -0.1117
 4761poe    c3122561   4.792   7.097   3.786 -0.9371 -0.2622  0.1172
 4761poe     o222562   4.716   7.154   3.682 -0.2078  0.9483  0.2332
 4761poe    c2322563   4.793   7.212   3.579 -0.3970  0.4170 -0.2119
 4761poe    c2322564   4.713   7.259   3.456 -0.3081  0.1274 -0.3807
 4761poe     o222565   4.641   7.373   3.495  0.0336  0.0220  0.5874
 4761poe    c2322566   4.541   7.414   3.404  0.0029 -0.1635  0.5387
 4761poe    c2322567   4.493   7.556   3.439 -0.1692 -0.2202  0.5323
 4761poe     o222568   4.586   7.649   3.388 -0.4435  0.0618  0.5406
 4761poe    c2322569   4.578   7.759   3.476  0.0042  0.1247  0.5050
 4761poe    c2322570   4.655   7.888   3.441 -0.2370  0.2574  0.4606
 4761poe     o222571   4.790   7.849   3.438 -0.2646  0.1920  0.0806
 4761poe    c3122572   4.854   7.938   3.349 -0.1513 -0.4513 -0.4969
 4762poe    c3122573   0.175   4.432   6.818  0.1291 -0.3840  0.3459
 4762poe     o222574   0.043   4.394   6.850  0.0874 -0.3523  0.2150
 4762poe    c2322575  -0.007   4.500   6.928  0.2439 -0.1059 -0.0208
 4762poe    c2322576  -0.151   4.475   6.978  0.3980  0.0550  0.5098
 4762poe     o222577  -0.154   4.351   7.045  0.1846 -0.2304 -0.0213
 4762poe    c2322578  -0.281   4.311   7.094 -0.1314  0.2941 -0.3976
 4762poe    c2322579  -0.269   4.168   7.149 -0.9504  0.2114 -0.4324
 4762poe     o222580  -0.238   4.078   7.045 -0.3447 -0.3849  0.2553
 4762poe    c2322581  -0.253   3.943   7.081  0.1366 -0.3759  0.4977
 4762poe    c2322582  -0.237   3.866   6.949 -0.8223  0.3274 -0.0319
 4762poe     o222583  -0.122   3.914   6.882 -0.4292 -0.7670 -0.1666
 4762poe    c3122584  -0.093   3.848   6.762  0.2827 -0.1787 -0.3254
 4763poe    c3122585   3.379   0.859   1.972  0.0524 -0.1446  0.2189
 4763poe     o222586   3.321   0.741   1.920 -0.1588  0.0528 -0.0004
 4763poe    c2322587   3.405   0.696   1.815 -0.6167  0.3399 -0.4922
 4763poe    c2322588   3.341   0.581   1.735 -1.1141  0.1945  0.1034
 4763poe     o222589   3.262   0.629   1.628 -0.6091  0.3521 -0.2021
 4763poe    c2322590   3.221   0.526   1.542  0.7540  0.3191 -0.8388
 4763poe    c2322591   3.117   0.570   1.437 -0.3649  0.6409  0.3828
 4763poe     o222592   2.989   0.616   1.475 -0.7674 -0.1301 -0.0149
 4763poe    c2322593   2.905   0.511   1.518 -0.3814 -0.3982  0.0994
 4763poe    c2322594   2.762   0.558   1.552 -0.3056  0.0254 -0.1571
 4763poe     o222595   2.758   0.661   1.648 -0.2892  0.0328 -0.1642
 4763poe    c3122596   2.622   0.694   1.665 -0.3373 -0.5595  0.6520
 4764poe    c3122597   5.750   1.070   4.188  0.1104  0.2958  0.1776
 4764poe     o222598   5.883   1.040   4.154  0.0949  0.6138 -0.1666
 4764poe    c2322599   5.892   0.981   4.027 -0.1763 -0.3938  0.2765
 4764poe    c2322600   6.032   0.923   3.999 -0.3049 -0.4317 -0.3059
 4764poe     o222601   6.125   1.013   3.943 -0.3416 -0.2831 -0.1295
 4764poe    c2322602   6.095   1.092   3.830  0.6313 -0.0779 -0.2552
 4764poe    c2322603   6.219   1.171   3.786  0.6748 -0.1368 -0.2399
 4764poe     o222604   6.269   1.258   3.885  0.2253 -0.9375  0.7017
 4764poe    c2322605   6.408   1.279   3.872  0.0152  0.1523  0.1283
 4764poe    c2322606   6.443   1.403   3.957  0.2888  0.1908 -0.0405
 4764poe     o222607   6.380   1.381   4.081  0.5051  0.0408  0.0432
 4764poe    c3122608   6.397   1.495   4.163  0.5232  0.2737 -0.2795
 4765poe    c3122609   3.314   5.276   0.127  0.2566 -0.5715  0.2385
 4765poe     o222610   3.293   5.266   0.266  0.2552  0.3963  0.3143
 4765poe    c2322611   3.418   5.250   0.330  0.3327  1.1909  0.3655
 4765poe    c2322612   3.398   5.260   0.482 -0.1810 -0.0609  0.3934
 4765poe     o222613   3.280   5.187   0.505 -0.8942  0.9426  0.0077
 4765poe    c2322614   3.250   5.170   0.642 -0.3771  0.8467  0.1142
 4765poe    c2322615   3.134   5.068   0.639  0.3492  0.0372 -0.7224
 4765poe     o222616   3.048   5.087   0.529 -0.4138  0.9514  0.0119
 4765poe    c2322617   2.942   4.993   0.523  0.3756  0.0397 -0.0145
 4765poe    c2322618   2.836   5.034   0.419  0.0684 -0.3864  0.1314
 4765poe     o222619   2.881   5.011   0.287 -0.1597 -0.0893  0.0015
 4765poe    c3122620   2.777   4.974   0.200 -0.5271  0.1376  0.3418
 4766poe    c3122621   0.241   6.280   6.247 -0.3096 -0.1432 -0.0229
 4766poe     o222622   0.380   6.279   6.269 -0.2939 -0.0346 -0.1187
 4766poe    c2322623   0.407   6.303   6.405 -0.4048 -0.3705 -0.0362
 4766poe    c2322624   0.559   6.300   6.431 -0.4410  0.0956  0.2512
 4766poe     o222625   0.611   6.181   6.375 -0.0046  0.6546 -0.5475
 4766poe    c2322626   0.751   6.194   6.365  0.0540  0.3165 -0.1965
 4766poe    c2322627   0.820   6.134   6.241 -0.0010  0.5733 -0.3537
 4766poe     o222628   0.768   6.190   6.123 -0.3779  0.4619 -0.2423
 4766poe    c2322629   0.824   6.317   6.095 -0.0832  0.2782 -0.4914
 4766poe    c2322630   0.781   6.378   5.960 -0.1154  0.3010 -0.4704
 4766poe     o222631   0.838   6.302   5.856 -0.2149  0.3296 -0.5460
 4766poe    c3122632   0.794   6.367   5.739  0.1118  0.5775 -0.5320
 4767poe    c3122633   4.803   0.866   1.427  0.1075  0.3350  0.8449
 4767poe     o222634   4.816   0.983   1.349  0.0881 -0.1791  0.0558
 4767poe    c2322635   4.949   1.030   1.351 -0.0381  0.1704  0.1574
 4767poe    c2322636   4.979   1.176   1.312 -0.1264 -0.0068 -0.5704
 4767poe     o222637   4.966   1.196   1.173 -0.0922 -0.7655 -0.6856
 4767poe    c2322638   4.997   1.325   1.128  0.7451 -0.7834 -0.1698
 4767poe    c2322639   4.990   1.350   0.976 -0.0270  0.3548  0.0373
 4767poe     o222640   4.860   1.326   0.926 -0.1243  0.1702  0.3751
 4767poe    c2322641   4.855   1.319   0.785  0.1677 -0.0406  0.3756
 4767poe    c2322642   4.725   1.372   0.722  0.2891 -0.2586 -0.0590
 4767poe     o222643   4.622   1.276   0.725 -0.0629  0.1035 -0.5052
 4767poe    c3122644   4.508   1.337   0.780  0.3964 -0.0136  0.5891
 4768poe    c3122645   1.547   3.307   5.122 -0.1560 -0.6577 -0.1556
 4768poe     o222646   1.678   3.256   5.136  0.0890  0.0351  0.1537
 4768poe    c2322647   1.779   3.323   5.064 -0.1196 -0.1380 -0.3046
 4768poe    c2322648   1.922   3.268   5.072 -0.0970 -0.0308  0.0216
 4768poe     o222649   1.906   3.150   4.997  0.3190 -0.0304 -0.0698
 4768poe    c2322650   2.019   3.065   5.007  0.1436 -0.1852  0.6401
 4768poe    c2322651   2.005   2.947   4.909  0.2771 -0.0283  0.4324
 4768poe     o222652   1.913   2.847   4.948 -0.3812  0.2692 -0.3264
 4768poe    c2322653   1.910   2.741   4.855 -0.4538  0.0722 -0.1001
 4768poe    c2322654   1.797   2.638   4.870 -0.1077 -0.2406  0.4118
 4768poe     o222655   1.676   2.706   4.845 -0.0268 -0.1142  0.3613
 4768poe    c3122656   1.564   2.619   4.839 -0.2471  0.2050 -0.3117
 4769poe    c3122657   6.889   0.311   0.174 -0.3696 -0.1349  0.5954
 4769poe     o222658   6.787   0.295   0.078 -0.1597 -0.2850  0.3965
 4769poe    c2322659   6.800   0.177   0.001 -0.0700 -0.2848  0.4119
 4769poe    c2322660   6.698   0.180  -0.114  0.6601  0.4421 -0.2307
 4769poe     o222661   6.566   0.188  -0.066  0.4754 -0.1889 -0.6088
 4769poe    c2322662   6.484   0.266  -0.150 -0.2537 -0.3240 -0.0300
 4769poe    c2322663   6.356   0.302  -0.072 -0.1817 -0.7793  0.3047
 4769poe     o222664   6.375   0.398   0.030 -0.5149 -0.0738 -0.2860
 4769poe    c2322665   6.258   0.440   0.096 -0.2203  0.0011  0.1923
 4769poe    c2322666   6.239   0.364   0.229  0.2017 -0.0246  0.2366
 4769poe     o222667   6.350   0.345   0.314  0.3655 -0.2739 -0.0306
 4769poe    c3122668   6.312   0.303   0.443 -0.4912  0.9737  0.1359
 4770poe    c3122669   3.629   5.663   2.860  0.3751  0.3939  0.5519
 4770poe     o222670   3.664   5.550   2.783 -0.0268  0.5129  0.1901
 4770poe    c2322671   3.584   5.438   2.815  0.5253  0.2280  0.5871
 4770poe    c2322672   3.595   5.314   2.726  0.2415  0.6128  0.0076
 4770poe     o222673   3.721   5.250   2.734  0.0250  0.1433 -0.2351
 4770poe    c2322674   3.730   5.130   2.661 -0.5999 -0.0891  0.0702
 4770poe    c2322675   3.852   5.039   2.685 -0.4327  0.1120 -0.0195
 4770poe     o222676   3.866   4.984   2.814 -0.4565 -0.8929 -0.4424
 4770poe    c2322677   4.001   4.955   2.841 -0.4116  0.2600  0.6223
 4770poe    c2322678   4.023   4.805   2.865  0.6643  0.2672 -0.2140
 4770poe     o222679   3.951   4.773   2.983  0.7551 -0.6741 -0.4033
 4770poe    c3122680   3.937   4.636   3.011  0.2003 -0.4606  0.3813
 4771poe    c3122681   3.825   0.856   6.879 -0.3211 -0.4476 -0.5408
 4771poe     o222682   3.903   0.943   6.801  0.3341 -0.5064  0.0398
 4771poe    c2322683   4.041   0.926   6.825  0.2446  0.5324  1.4390
 4771poe    c2322684   4.131   1.011   6.733 -0.5052  0.2545  0.4272
 4771poe     o222685   4.135   1.145   6.776 -0.1573  0.4059 -0.0846
 4771poe    c2322686   4.196   1.230   6.680  0.3042 -0.2071 -0.3466
 4771poe    c2322687   4.251   1.338   6.775 -0.0343  0.1885 -0.5968
 4771poe     o222688   4.159   1.442   6.798 -0.4481 -0.2912 -0.0573
 4771poe    c2322689   4.216   1.556   6.858  0.1884 -0.1733 -0.8629
 4771poe    c2322690   4.104   1.641   6.922  0.1450 -0.4653 -0.5487
 4771poe     o222691   3.994   1.648   6.835 -0.0075  0.1783 -0.3064
 4771poe    c3122692   3.905   1.748   6.881  0.6251  0.9318 -0.6913
 4772poe    c3122693   2.189   0.183   6.322 -0.0374 -0.2333 -0.5319
 4772poe     o222694   2.190   0.089   6.217 -0.3498 -0.3218 -0.4586
 4772poe    c2322695   2.064   0.038   6.180 -0.5456 -0.1321 -0.0528
 4772poe    c2322696   2.074  -0.066   6.067  0.5412 -0.1411  0.0376
 4772poe     o222697   2.129  -0.187   6.112 -0.0552 -0.2573  0.4731
 4772poe    c2322698   2.171  -0.263   6.000 -0.3715  0.1436  0.0815
 4772poe    c2322699   2.246  -0.385   6.057 -0.1638 -0.0658 -0.6373
 4772poe     o222700   2.161  -0.486   6.106  0.0617  0.2664  0.4670
 4772poe    c2322701   2.217  -0.567   6.206  0.4419 -0.2096 -0.1234
 4772poe    c2322702   2.113  -0.627   6.303 -0.0460  0.3398 -0.3007
 4772poe     o222703   2.040  -0.518   6.353 -0.2155  0.0669  0.0477
 4772poe    c3122704   1.944  -0.569   6.443  0.1172 -0.0928  0.3148
 4773poe    c3122705   4.540   2.626   5.194  0.5375  0.3619  0.5562
 4773poe     o222706   4.458   2.596   5.304  0.0826  0.0754  0.1428
 4773poe    c2322707   4.386   2.475   5.298  0.3599 -0.0830  0.0015
 4773poe    c2322708   4.270   2.494   5.397  0.4965  0.6692  0.0216
 4773poe     o222709   4.305   2.568   5.512  0.0547  0.3745  0.3514
 4773poe    c2322710   4.190   2.578   5.593 -0.2827  0.4960 -0.1371
 4773poe    c2322711   4.220   2.668   5.715  0.6573 -0.2599  0.1980
 4773poe     o222712   4.232   2.801   5.671  0.6417 -0.1981  0.3837
 4773poe    c2322713   4.255   2.902   5.767 -0.4787  0.0021  0.4604
 4773poe    c2322714   4.234   3.043   5.709  0.6268 -0.0296 -0.0420
 4773poe     o222715   4.325   3.055   5.602  0.2431  0.4602 -0.3201
 4773poe    c3122716   4.294   3.174   5.534  0.7927  0.8655  0.1365
 4774poe    c3122717   4.671   2.787   1.081 -0.0959  0.2235 -0.0705
 4774poe     o222718   4.654   2.923   1.116  0.3052  0.3031 -0.1799
 4774poe    c2322719   4.774   2.996   1.103  0.4256  0.0323 -0.5966
 4774poe    c2322720   4.740   3.140   1.143  0.0854 -0.0601 -0.5494
 4774poe     o222721   4.646   3.131   1.248  0.0904  0.2395 -0.5180
 4774poe    c2322722   4.630   3.250   1.322  0.6164  0.0506 -0.0998
 4774poe    c2322723   4.526   3.217   1.431 -0.2269  0.7942 -0.6702
 4774poe     o222724   4.407   3.170   1.372 -0.3202  0.0273  0.1157
 4774poe    c2322725   4.308   3.226   1.455  0.1331 -0.1122  0.7564
 4774poe    c2322726   4.173   3.152   1.444  0.2258 -0.1686 -0.0060
 4774poe     o222727   4.174   3.026   1.508  0.2625 -0.1196  0.0905
 4774poe    c3122728   4.054   2.954   1.491  0.1859 -0.1358  0.6743
 4775poe    c3122729   1.360   3.937   1.207 -0.7448 -0.0684  0.6418
 4775poe     o222730   1.430   4.057   1.189  0.2705 -0.7118  0.2387
 4775poe    c2322731   1.502   4.052   1.067  0.1050 -0.4387  0.1281
 4775poe    c2322732   1.470   4.177   0.983  0.0313 -0.3189  0.3346
 4775poe     o222733   1.530   4.294   1.034  0.1702 -0.1776 -0.1544
 4775poe    c2322734   1.463   4.406   0.980 -0.0976 -0.1437  0.2442
 4775poe    c2322735   1.507   4.553   0.993 -0.9714  0.1214  0.2485
 4775poe     o222736   1.490   4.588   1.128 -0.0467  0.3354  0.3102
 4775poe    c2322737   1.572   4.703   1.139 -0.0797  0.4052 -0.1768
 4775poe    c2322738   1.543   4.780   1.268  0.0502  0.0522  0.0648
 4775poe     o222739   1.421   4.848   1.288 -0.0645 -0.1748  0.1368
 4775poe    c3122740   1.434   4.924   1.407  0.6892 -0.5571  0.3072
 4776poe    c3122741   0.547   7.130   0.646  0.1055  0.1799 -0.4151
 4776poe     o222742   0.480   7.253   0.662 -0.0400  0.0190  0.2295
 4776poe    c2322743   0.564   7.366   0.662 -0.5624  0.4134  0.0907
 4776poe    c2322744   0.487   7.499   0.661 -0.4305  0.4891 -0.1350
 4776poe     o222745   0.437   7.525   0.532 -0.0032  0.1558 -0.3690
 4776poe    c2322746   0.418   7.664   0.525  0.2895  0.2501  0.6236
 4776poe    c2322747   0.278   7.728   0.528 -0.1460 -0.6680  0.2662
 4776poe     o222748   0.196   7.668   0.431 -0.0525 -0.2207 -0.0987
 4776poe    c2322749   0.079   7.743   0.410  0.4527  0.5903 -0.0483
 4776poe    c2322750   0.015   7.684   0.282  0.1697  0.5235  0.1237
 4776poe     o222751   0.021   7.544   0.298  0.2618  0.3538 -1.3073
 4776poe    c3122752  -0.072   7.501   0.201 -0.1951  0.0544 -0.7416
 4777poe    c3122753   2.617   4.532   4.550  0.5499  0.0683 -0.2072
 4777poe     o222754   2.526   4.447   4.616  0.6403  0.4910  0.4768
 4777poe    c2322755   2.415   4.491   4.691  0.2262  0.3158 -0.0258
 4777poe    c2322756   2.317   4.379   4.731  0.2879  0.4268  0.4435
 4777poe     o222757   2.365   4.283   4.822  0.2978  0.2031  0.2034
 4777poe    c2322758   2.270   4.180   4.842  0.5806 -0.0485  0.2462
 4777poe    c2322759   2.313   4.080   4.951  0.2691  0.2330  0.6223
 4777poe     o222760   2.425   4.009   4.905  0.1144  0.3167  0.1094
 4777poe    c2322761   2.393   3.875   4.872 -0.2348  0.3806  0.1796
 4777poe    c2322762   2.509   3.791   4.815 -0.2687  0.1817  0.4045
 4777poe     o222763   2.616   3.773   4.906  0.1178 -0.6232 -0.1984
 4777poe    c3122764   2.672   3.644   4.909  0.1142 -0.6189  0.0742
 4778poe    c3122765   2.096   2.294   5.632 -0.3371  0.1392  0.4951
 4778poe     o222766   1.970   2.267   5.574 -0.0323 -0.3940  0.0654
 4778poe    c2322767   1.970   2.328   5.447 -0.0478  0.2477  0.3666
 4778poe    c2322768   1.826   2.350   5.398  0.0450  0.4042  0.1625
 4778poe     o222769   1.753   2.430   5.489  0.0716  0.1878  0.3757
 4778poe    c2322770   1.616   2.397   5.490  0.0853  0.0916 -0.3136
 4778poe    c2322771   1.527   2.474   5.589  0.1511 -0.2277 -0.0028
 4778poe     o222772   1.497   2.607   5.551  0.2309 -0.1406  0.2389
 4778poe    c2322773   1.414   2.663   5.649  0.3836  0.6786 -0.0922
 4778poe    c2322774   1.358   2.801   5.608 -0.3560  0.3944 -0.0536
 4778poe     o222775   1.465   2.892   5.601 -0.0826  0.0739 -0.0702
 4778poe    c3122776   1.424   3.012   5.541 -0.8626 -0.0126  0.2772
 4779poe    c3122777   2.458   5.137   7.246  0.3663 -0.1514 -0.3862
 4779poe     o222778   2.538   5.195   7.146  0.0578  0.2097 -0.4280
 4779poe    c2322779   2.444   5.244   7.054 -0.3345  0.4294  0.0886
 4779poe    c2322780   2.521   5.319   6.944 -0.2626 -0.1341 -0.2479
 4779poe     o222781   2.634   5.243   6.908  0.0275  0.4940 -0.6865
 4779poe    c2322782   2.714   5.319   6.820  0.3978  0.5429 -0.3105
 4779poe    c2322783   2.849   5.246   6.824  0.2809  0.3293 -0.2744
 4779poe     o222784   2.886   5.221   6.958  0.4207 -0.0113 -0.3734
 4779poe    c2322785   3.002   5.143   6.953  0.2120 -0.3366 -0.1465
 4779poe    c2322786   3.081   5.157   7.085  0.5519 -0.4283 -0.3383
 4779poe     o222787   3.177   5.258   7.067  0.6346 -0.4939 -0.2653
 4779poe    c3122788   3.258   5.254   7.183 -0.8224 -0.1627  0.7908
 4780poe    c3122789   2.927   7.141   0.121 -0.4232 -0.0808 -0.0072
 4780poe     o222790   2.826   7.236   0.092 -0.3281  0.3349  0.9908
 4780poe    c2322791   2.837   7.310  -0.028 -0.0933 -0.7017  0.3559
 4780poe    c2322792   2.766   7.444   0.000 -0.1356 -0.6945  0.2179
 4780poe     o222793   2.625   7.439   0.011 -0.1309 -0.0917  0.6190
 4780poe    c2322794   2.573   7.390   0.132 -0.0943 -0.0467  0.6526
 4780poe    c2322795   2.422   7.361   0.127 -0.0699 -0.0408 -0.2071
 4780poe     o222796   2.360   7.476   0.075 -0.1498  0.0871  0.1657
 4780poe    c2322797   2.250   7.454  -0.011  0.3668 -0.0996 -0.4598
 4780poe    c2322798   2.184   7.583  -0.064  0.2761  0.2882  0.5769
 4780poe     o222799   2.273   7.633  -0.161 -0.4767 -0.2748 -0.4154
 4780poe    c3122800   2.232   7.765  -0.187 -0.5159 -0.0372  0.7848
 4781poe    c3122801   5.589   0.458   4.837  0.4164 -0.2895  0.4747
 4781poe     o222802   5.513   0.360   4.904  0.5828 -1.1321 -0.5413
 4781poe    c2322803   5.424   0.298   4.815  0.1305 -0.4979 -0.5368
 4781poe    c2322804   5.325   0.209   4.894  0.1739  0.0563  0.1488
 4781poe     o222805   5.383   0.087   4.932 -0.1168 -0.2377 -0.3407
 4781poe    c2322806   5.282  -0.005   4.968 -0.1084 -0.1714 -0.1452
 4781poe    c2322807   5.322  -0.151   4.938  0.3266 -0.0188 -0.3248
 4781poe     o222808   5.430  -0.208   5.008 -0.0259 -0.3693 -0.0597
 4781poe    c2322809   5.470  -0.335   4.962  0.4044 -0.1160 -0.3887
 4781poe    c2322810   5.619  -0.368   4.979  0.2719 -0.6337 -0.2126
 4781poe     o222811   5.711  -0.277   4.922 -0.2115 -0.0641 -0.0835
 4781poe    c3122812   5.841  -0.302   4.968 -0.1723 -0.4379 -0.3921
 4782poe    c3122813   0.672   4.389   6.917  0.2824  0.2400 -0.3333
 4782poe     o222814   0.680   4.525   6.955 -0.0091  0.2660 -0.3565
 4782poe    c2322815   0.611   4.608   6.864  0.1568  0.1627 -0.5781
 4782poe    c2322816   0.595   4.748   6.926  0.9963 -0.0675  0.1890
 4782poe     o222817   0.533   4.753   7.052 -0.9530 -0.0069 -0.7276
 4782poe    c2322818   0.493   4.885   7.079  0.6127  0.3218  0.1205
 4782poe    c2322819   0.463   4.908   7.229  0.1845  0.0066  0.0833
 4782poe     o222820   0.575   4.868   7.305  0.5753  0.1848 -0.3883
 4782poe    c2322821   0.591   4.955   7.415  0.1260  0.0653 -0.2247
 4782poe    c2322822   0.718   4.911   7.490  0.3574  0.2242 -0.5211
 4782poe     o222823   0.719   4.771   7.505 -0.1611  0.2989  0.2217
 4782poe    c3122824   0.824   4.729   7.589 -0.4647 -0.1652  0.3788
 4783poe    c3122825   3.569   5.532   7.353 -0.2026 -0.0763  0.2859
 4783poe     o222826   3.684   5.586   7.293 -0.0486 -0.5603  0.1428
 4783poe    c2322827   3.717   5.692   7.380  0.2501 -0.3349 -0.2425
 4783poe    c2322828   3.862   5.682   7.430  0.2285  0.5555  0.0188
 4783poe     o222829   3.964   5.706   7.336 -0.1538 -0.4631 -0.6659
 4783poe    c2322830   4.080   5.754   7.399 -0.5823  0.0056 -0.2350
 4783poe    c2322831   4.183   5.790   7.291 -0.3214  0.8489  0.2831
 4783poe     o222832   4.170   5.700   7.183 -0.3258  0.1765  0.8384
 4783poe    c2322833   4.254   5.727   7.073 -0.3795 -0.8905  0.5276
 4783poe    c2322834   4.191   5.646   6.958 -0.1984 -0.3609  0.0524
 4783poe     o222835   4.050   5.650   6.968 -0.1883 -0.4161  0.2142
 4783poe    c3122836   3.979   5.596   6.858  0.8847  0.1568 -0.7808
 4784poe    c3122837   3.559   4.350   2.215  0.3770  0.7455 -0.7196
 4784poe     o222838   3.453   4.333   2.307  0.5280  0.4681 -0.5953
 4784poe    c2322839   3.411   4.449   2.375 -0.0267  0.1456 -0.3775
 4784poe    c2322840   3.267   4.454   2.428  0.0571  0.3857 -0.1695
 4784poe     o222841   3.262   4.369   2.540 -0.2644  0.0920 -0.4061
 4784poe    c2322842   3.160   4.393   2.635 -0.0535  0.3047 -0.2327
 4784poe    c2322843   3.169   4.305   2.761 -0.1339  0.0895 -0.3758
 4784poe     o222844   3.147   4.169   2.734 -0.2348  0.0631 -0.1603
 4784poe    c2322845   3.099   4.091   2.841 -0.3433  0.4451  0.0718
 4784poe    c2322846   2.976   4.122   2.927 -0.4496  0.5033 -0.1017
 4784poe     o222847   2.862   4.136   2.845 -0.5138 -0.0519 -0.1086
 4784poe    c3122848   2.755   4.193   2.918 -0.3218  0.3282 -0.1203
 4785poe    c3122849   5.537   7.111   7.332 -0.4531  0.1950 -0.4482
 4785poe     o222850   5.655   7.132   7.257  0.0623 -0.4854  0.1555
 4785poe    c2322851   5.760   7.179   7.339  0.1708 -0.6742  0.1267
 4785poe    c2322852   5.880   7.211   7.247  0.0156  0.1899  0.2101
 4785poe     o222853   5.964   7.098   7.231 -0.0756  0.1498  0.0058
 4785poe    c2322854   6.077   7.166   7.183 -0.1054  0.1716 -0.0345
 4785poe    c2322855   6.198   7.071   7.176 -0.1840  0.0560  0.1798
 4785poe     o222856   6.174   6.975   7.075  0.5044  0.1330 -0.0631
 4785poe    c2322857   6.256   6.861   7.080 -0.2695 -0.4231  0.2012
 4785poe    c2322858   6.220   6.765   7.195 -0.1084 -0.5311  0.1617
 4785poe     o222859   6.091   6.710   7.190 -0.4428  0.2463  0.0340
 4785poe    c3122860   6.080   6.618   7.084  0.4391 -0.0880  0.2260
 4786poe    c3122861   1.440   4.067   1.894 -0.7493 -1.1955  0.1697
 4786poe     o222862   1.531   4.007   1.805  0.0799 -0.1571  0.2992
 4786poe    c2322863   1.478   4.019   1.675  0.5911  0.3911  0.1360
 4786poe    c2322864   1.531   3.912   1.577 -0.4028  0.2249 -0.2318
 4786poe     o222865   1.668   3.934   1.550 -0.3365  0.4191  0.2470
 4786poe    c2322866   1.706   3.875   1.428 -0.3946  0.5534  0.1642
 4786poe    c2322867   1.802   3.959   1.342  0.1757 -0.1561  0.0966
 4786poe     o222868   1.924   4.002   1.397 -0.2558  0.5957  0.4908
 4786poe    c2322869   1.992   4.056   1.287 -0.0318  0.3518  0.5063
 4786poe    c2322870   2.066   4.182   1.335 -0.7186  0.7288  0.5911
 4786poe     o222871   2.136   4.169   1.457  0.0438  0.5756  0.1476
 4786poe    c3122872   2.266   4.220   1.442  0.1853  0.2263  0.1968
 4787poe    c3122873   5.436   2.509   1.034 -0.1850 -0.0210 -0.6561
 4787poe     o222874   5.541   2.439   1.096 -0.3202  0.3686  0.0214
 4787poe    c2322875   5.601   2.528   1.187  0.5019  0.3858 -0.5356
 4787poe    c2322876   5.712   2.466   1.274  0.4130  0.2130 -0.5464
 4787poe     o222877   5.833   2.415   1.223  0.3855 -0.5528  0.1248
 4787poe    c2322878   5.919   2.524   1.196  0.0899 -0.3840 -0.1511
 4787poe    c2322879   6.060   2.474   1.157  0.4190  0.7672 -0.4755
 4787poe     o222880   6.062   2.406   1.033  0.0534 -0.3817  0.1299
 4787poe    c2322881   6.194   2.389   0.988  0.1064  0.3862 -0.0164
 4787poe    c2322882   6.216   2.322   0.851  0.3696 -0.3372  0.3762
 4787poe     o222883   6.190   2.184   0.863 -0.4499 -0.2314 -0.1158
 4787poe    c3122884   6.218   2.120   0.740 -0.5593 -0.4551 -0.0264
 4788poe    c3122885   4.462   2.295   0.620  0.5473 -0.4028  0.3899
 4788poe     o222886   4.602   2.282   0.608  0.5961  0.1913  0.3071
 4788poe    c2322887   4.632   2.151   0.567 -0.1786 -0.0309  0.4230
 4788poe    c2322888   4.785   2.134   0.565 -0.1591  0.1682 -0.2063
 4788poe     o222889   4.837   2.243   0.493 -0.1978  0.5701  0.3650
 4788poe    c2322890   4.972   2.259   0.529 -0.0319 -0.4792  0.2439
 4788poe    c2322891   5.041   2.363   0.438 -0.4765 -0.6932 -0.3400
 4788poe     o222892   4.965   2.478   0.411  0.2352  0.0599  0.7971
 4788poe    c2322893   5.042   2.564   0.330 -0.1631 -0.0095  0.3390
 4788poe    c2322894   4.989   2.702   0.371  0.0774  0.2455 -0.1904
 4788poe     o222895   4.861   2.729   0.317 -0.0234 -0.0322 -0.0915
 4788poe    c3122896   4.846   2.869   0.318  0.2840  0.0054 -0.5796
 4789poe    c3122897   5.009   4.878   0.890  0.8598 -0.2124 -0.1949
 4789poe     o222898   5.001   4.843   1.026  0.0409 -0.0126 -0.1819
 4789poe    c2322899   5.123   4.875   1.090  0.2320 -0.1962 -0.4541
 4789poe    c2322900   5.144   5.015   1.150  0.5867 -0.5961  0.3608
 4789poe     o222901   5.174   5.111   1.052  0.3002 -0.5977  0.2712
 4789poe    c2322902   5.209   5.225   1.128 -0.0416 -0.1199 -0.2781
 4789poe    c2322903   5.224   5.346   1.033 -0.5862  0.0635 -0.1324
 4789poe     o222904   5.112   5.405   0.970 -0.6753 -0.0900 -0.1202
 4789poe    c2322905   5.151   5.532   0.923 -0.2937  0.0455  0.5466
 4789poe    c2322906   5.021   5.598   0.872 -0.1353  0.2223  0.3702
 4789poe     o222907   4.974   5.522   0.764 -0.4575  0.6739  0.1912
 4789poe    c3122908   4.848   5.560   0.713 -0.6373 -0.2267 -0.0655
 4790poe    c3122909   6.702   1.275   0.854  0.3572 -0.0342  0.1512
 4790poe     o222910   6.679   1.187   0.747 -0.1510 -0.2006  0.3924
 4790poe    c2322911   6.776   1.201   0.645 -0.5868  0.0887  0.0140
 4790poe    c2322912   6.735   1.119   0.521  0.1083 -0.2344 -0.0088
 4790poe     o222913   6.644   1.183   0.433  0.2888 -0.0681 -0.0760
 4790poe    c2322914   6.634   1.110   0.314  0.2417 -0.1945  0.0052
 4790poe    c2322915   6.518   1.163   0.227  0.2499 -0.0903  0.0570
 4790poe     o222916   6.383   1.142   0.258  0.2456  0.4264  0.3948
 4790poe    c2322917   6.296   1.215   0.175 -0.0738 -0.1572  0.2039
 4790poe    c2322918   6.148   1.220   0.220 -0.0527 -0.2282  0.2791
 4790poe     o222919   6.131   1.331   0.306  0.1400  0.4527 -0.5478
 4790poe    c3122920   6.001   1.325   0.360  0.1160 -0.9412 -0.7255
 4791poe    c3122921   6.962   3.572   6.222  0.3133 -0.6289 -0.1378
 4791poe     o222922   6.924   3.470   6.133  0.4171 -0.3239 -0.5370
 4791poe    c2322923   6.802   3.502   6.070  0.0048 -0.5305  0.1477
 4791poe    c2322924   6.782   3.398   5.959 -0.4163  0.0534 -0.3345
 4791poe     o222925   6.799   3.270   6.017 -1.0150  0.1339  0.0242
 4791poe    c2322926   6.792   3.178   5.910  0.0167 -0.3706  0.3788
 4791poe    c2322927   6.845   3.045   5.966  0.1506 -0.3401  0.3247
 4791poe     o222928   6.983   3.042   5.998  0.3453  0.3076 -0.4068
 4791poe    c2322929   7.017   2.905   6.007  0.2849  0.3104 -0.1166
 4791poe    c2322930   7.169   2.913   6.032  0.2640  0.5676 -0.0636
 4791poe     o222931   7.244   2.959   5.923  0.1258  0.7124 -0.0983
 4791poe    c3122932   7.375   2.939   5.972 -0.2798 -0.8270  0.4229
 4792poe    c3122933   4.765   1.249   0.177 -0.4122  0.0601  0.1402
 4792poe     o222934   4.693   1.161   0.093 -0.5262  0.2039  0.0877
 4792poe    c2322935   4.642   1.209  -0.030  0.7676  0.3269 -0.4196
 4792poe    c2322936   4.541   1.115  -0.097  0.1221  0.4434  0.3771
 4792poe     o222937   4.421   1.106  -0.024  0.1938 -0.0581  0.4407
 4792poe    c2322938   4.327   1.005  -0.053  0.0431  0.3156 -0.4020
 4792poe    c2322939   4.285   1.000  -0.201 -0.6154  0.0464 -0.2069
 4792poe     o222940   4.219   1.120  -0.234 -0.4465  0.1759 -0.0727
 4792poe    c2322941   4.202   1.149  -0.371  0.1997 -0.3308 -0.2667
 4792poe    c2322942   4.074   1.231  -0.398  0.3150 -0.4098 -1.0587
 4792poe     o222943   3.960   1.148  -0.391  0.2060 -0.1813 -0.1143
 4792poe    c3122944   3.844   1.198  -0.452  0.1659 -0.0523  0.0645
 4793poe    c3122945   2.184   5.150   2.442 -0.5551  0.3638  0.2191
 4793poe     o222946   2.249   5.261   2.500  0.1317  0.2133 -0.2560
 4793poe    c2322947   2.194   5.280   2.628  0.6685 -0.3777  0.0670
 4793poe    c2322948   2.259   5.400   2.700 -0.3720  0.4623 -0.3625
 4793poe     o222949   2.391   5.369   2.740 -0.4733  0.1797 -0.2429
 4793poe    c2322950   2.441   5.437   2.852 -0.3813  0.3232 -0.3707
 4793poe    c2322951   2.594   5.457   2.862 -0.3483 -0.0260 -0.1847
 4793poe     o222952   2.670   5.346   2.905 -0.6617 -0.1306  0.1149
 4793poe    c2322953   2.790   5.404   2.951 -0.4528 -0.1862 -0.3541
 4793poe    c2322954   2.891   5.296   2.994 -0.1397  0.4502  0.5399
 4793poe     o222955   2.863   5.205   3.098 -0.3330  0.2441  0.3073
 4793poe    c3122956   2.775   5.096   3.084  0.1853 -0.1138 -0.2250
 4794poe    c3122957   6.510   6.280   2.181 -0.0101  1.1354  0.2680
 4794poe     o222958   6.377   6.233   2.186  0.2797  0.2528 -0.0862
 4794poe    c2322959   6.282   6.323   2.133 -0.2677 -0.5032 -0.4038
 4794poe    c2322960   6.290   6.368   1.986 -0.0810 -0.1888 -0.2990
 4794poe     o222961   6.292   6.246   1.916  0.7286 -0.0862 -0.4614
 4794poe    c2322962   6.233   6.269   1.790 -0.0235  0.1138 -0.0781
 4794poe    c2322963   6.151   6.145   1.750  0.0096  0.2908 -0.7103
 4794poe     o222964   6.245   6.040   1.742 -0.1396  0.0868  0.1388
 4794poe    c2322965   6.157   5.930   1.751  0.5077 -0.4574 -0.0655
 4794poe    c2322966   6.223   5.798   1.795 -0.5002 -0.8873  0.1957
 4794poe     o222967   6.268   5.812   1.927 -0.3038 -0.5137  0.0922
 4794poe    c3122968   6.319   5.684   1.959  1.1721  0.1882  0.6568
 4795poe    c3122969   6.755   0.803   4.322 -0.1261  0.6716 -0.4144
 4795poe     o222970   6.630   0.762   4.273 -0.0424  0.1859 -0.2219
 4795poe    c2322971   6.526   0.776   4.368  0.2864  0.2209  0.1357
 4795poe    c2322972   6.395   0.733   4.300  0.5218 -0.5229  0.1487
 4795poe     o222973   6.408   0.599   4.258 -0.0677 -0.6232  0.2783
 4795poe    c2322974   6.298   0.554   4.181  0.2310  0.1923 -0.6409
 4795poe    c2322975   6.309   0.402   4.159  0.1889  0.1542 -0.3967
 4795poe     o222976   6.441   0.364   4.125  0.2460 -0.0972  0.0943
 4795poe    c2322977   6.439   0.230   4.080  0.3978 -0.0784  0.0313
 4795poe    c2322978   6.563   0.148   4.119  0.0700 -0.7359 -0.3010
 4795poe     o222979   6.682   0.200   4.065  0.1043  0.3897  0.8205
 4795poe    c3122980   6.789   0.157   4.146  0.8496  0.0329 -0.3269
 4796poe    c3122981   1.988   0.647   4.519  0.1626  0.0853 -0.6785
 4796poe     o222982   1.961   0.710   4.642  0.2051  0.6567 -0.9586
 4796poe    c2322983   2.066   0.711   4.737 -0.2913  0.0060 -0.3860
 4796poe    c2322984   2.001   0.730   4.875 -0.1867  0.0256 -0.3403
 4796poe     o222985   1.939   0.856   4.882 -0.3978 -0.0509 -0.8321
 4796poe    c2322986   1.852   0.863   4.993  0.7666 -0.3289  0.1204
 4796poe    c2322987   1.811   1.010   5.009 -0.0320 -0.4859 -0.3991
 4796poe     o222988   1.757   1.041   4.883 -0.5683  0.0391 -0.0481
 4796poe    c2322989   1.718   1.176   4.882  0.2647  0.2837 -0.2665
 4796poe    c2322990   1.649   1.226   4.753  0.4750  0.4189 -0.3267
 4796poe     o222991   1.750   1.259   4.660  0.8998  0.5158  0.1671
 4796poe    c3122992   1.688   1.296   4.539  0.0693  0.1458  0.4752
 4797poe    c3122993   5.883   7.096   5.341  0.6925 -0.0077  0.0022
 4797poe     o222994   5.984   7.004   5.374  0.2041 -0.7003 -0.3845
 4797poe    c2322995   6.085   7.085   5.431  0.1863 -0.9056 -0.0639
 4797poe    c2322996   6.199   7.003   5.494  0.7953 -0.1042 -0.1159
 4797poe     o222997   6.175   6.956   5.625 -0.1081 -0.0571 -0.2591
 4797poe    c2322998   6.240   6.837   5.665 -0.1746 -0.0829 -0.2277
 4797poe    c2322999   6.229   6.808   5.816  0.2384 -0.2930 -0.2364
 4797poe     o223000   6.292   6.905   5.897 -0.2938 -0.3135  0.2070
 4797poe    c2323001   6.232   6.908   6.025 -0.3745  0.1610  0.1593
 4797poe    c2323002   6.317   7.003   6.112 -0.4239  0.4535 -0.1095
 4797poe     o223003   6.441   6.949   6.149 -0.5045  0.1970 -0.2155
 4797poe    c3123004   6.449   6.864   6.262 -0.7203 -0.0426 -0.3797
 4798poe    c3123005   6.410   2.912   6.892 -0.2366 -0.1984  0.3469
 4798poe     o223006   6.437   2.774   6.890  0.2084 -0.1075 -0.0465
 4798poe    c2323007   6.343   2.708   6.808 -0.3483 -0.0715  0.5545
 4798poe    c2323008   6.368   2.556   6.813 -0.4804 -0.1366 -0.4856
 4798poe     o223009   6.489   2.518   6.753 -0.2011 -0.1341  0.0660
 4798poe    c2323010   6.493   2.378   6.760  0.1680 -0.1346 -0.1173
 4798poe    c2323011   6.615   2.302   6.703  0.0768 -0.2285 -0.1884
 4798poe     o223012   6.715   2.254   6.791  0.3432 -0.0965 -0.4172
 4798poe    c2323013   6.683   2.125   6.840  0.6189 -0.0055  0.0034
 4798poe    c2323014   6.799   2.076   6.928  0.2079 -0.3381  0.3616
 4798poe     o223015   6.916   2.063   6.850 -0.1592 -0.0916 -0.2387
 4798poe    c3123016   7.019   2.052   6.946 -0.8846  0.5470  0.6329
 4799poe    c3123017   2.123   1.473   3.846 -0.7059  0.4832  0.2981
 4799poe     o223018   2.064   1.545   3.741 -0.3778  0.0601 -0.1853
 4799poe    c2323019   2.135   1.531   3.620 -0.3725 -0.0418 -0.1705
 4799poe    c2323020   2.080   1.617   3.505 -0.1159  0.1565 -0.1468
 4799poe     o223021   2.120   1.749   3.531 -0.1424  0.1528 -0.0885
 4799poe    c2323022   2.087   1.830   3.420  0.1102 -0.1259 -0.3679
 4799poe    c2323023   2.113   1.979   3.448  0.3880 -0.2452  0.0262
 4799poe     o223024   2.029   2.023   3.553  0.0707 -0.1808 -0.2535
 4799poe    c2323025   2.020   2.163   3.554  0.5855 -0.1491  0.3519
 4799poe    c2323026   1.895   2.182   3.641 -0.0794 -0.1896 -0.5752
 4799poe     o223027   1.909   2.095   3.752  0.0516  0.2817 -0.2199
 4799poe    c3123028   1.804   2.116   3.843  0.3387  0.1114  0.1533
 4800poe    c3123029   0.315   3.153   1.794 -0.0925 -0.2498 -0.2488
 4800poe     o223030   0.455   3.169   1.803 -0.1278  0.0186 -0.1833
 4800poe    c2323031   0.498   3.263   1.899  0.1783  0.3709 -0.6572
 4800poe    c2323032   0.648   3.295   1.889  0.3663 -0.2099  0.1155
 4800poe     o223033   0.678   3.340   1.758  0.4205 -0.6804 -0.0373
 4800poe    c2323034   0.814   3.376   1.761  0.2271  0.0690  0.1591
 4800poe    c2323035   0.856   3.416   1.618 -0.5543 -0.3212 -0.1847
 4800poe     o223036   0.835   3.305   1.534 -0.2579 -0.5085 -0.0170
 4800poe    c2323037   0.780   3.350   1.411 -0.0955 -0.3556 -0.0337
 4800poe    c2323038   0.771   3.229   1.315  0.4177 -0.3157 -0.1361
 4800poe     o223039   0.717   3.124   1.392  0.2652 -0.1749 -0.0486
 4800poe    c3123040   0.692   3.007   1.317  0.2681  0.0873 -0.4605
 4801poe    c3123041   5.305   5.277   3.773 -0.1721  0.3330 -0.5608
 4801poe     o223042   5.395   5.208   3.857 -0.1697  0.8615 -0.1288
 4801poe    c2323043   5.483   5.288   3.932  0.0579  0.1700  0.3487
 4801poe    c2323044   5.421   5.340   4.063 -0.8123 -0.0553  0.0323
 4801poe     o223045   5.437   5.234   4.155  0.0496  0.2284  0.2185
 4801poe    c2323046   5.426   5.288   4.285 -0.6283  0.3124  0.1313
 4801poe    c2323047   5.432   5.165   4.377  0.4662  0.4639  0.2783
 4801poe     o223048   5.563   5.113   4.373  0.1739 -0.2697  0.0614
 4801poe    c2323049   5.585   5.012   4.469 -0.0385 -0.1830  0.2019
 4801poe    c2323050   5.733   4.972   4.475 -0.1138 -0.5343 -0.2243
 4801poe     o223051   5.759   4.882   4.370  0.0908 -0.5711 -0.1433
 4801poe    c3123052   5.899   4.866   4.365  0.2137  0.4991 -0.3281
 4802poe    c3123053   6.255   6.083   5.967  0.7978 -0.2637 -0.0504
 4802poe     o223054   6.231   6.010   5.848 -0.5576 -0.1368  0.1354
 4802poe    c2323055   6.177   6.085   5.741 -0.6477 -0.3313  0.0444
 4802poe    c2323056   6.168   6.006   5.609  0.1216 -0.0732 -0.1721
 4802poe     o223057   6.295   5.959   5.571  0.1223 -0.4390  0.2767
 4802poe    c2323058   6.322   5.989   5.436 -0.4109 -0.9721  0.0449
 4802poe    c2323059   6.466   5.952   5.396 -0.0562 -0.0196  0.3933
 4802poe     o223060   6.482   5.813   5.378 -0.1136  0.0436 -0.1775
 4802poe    c2323061   6.614   5.767   5.357 -0.1940 -0.0135 -0.5575
 4802poe    c2323062   6.622   5.623   5.305 -0.3120 -0.2058 -0.0503
 4802poe     o223063   6.575   5.528   5.398  0.1483 -0.1416  0.2521
 4802poe    c3123064   6.652   5.413   5.372 -0.4346 -0.4584 -0.0761
 4803poe    c3123065   3.897   4.283   4.434  0.0073  0.4260 -0.0889
 4803poe     o223066   3.958   4.249   4.557  0.4078  0.4968 -0.2687
 4803poe    c2323067   4.085   4.187   4.552  0.4174  0.4795  0.1476
 4803poe    c2323068   4.163   4.181   4.684  0.2190 -0.0399  0.2421
 4803poe     o223069   4.154   4.307   4.746 -0.0600  0.3438 -0.5599
 4803poe    c2323070   4.217   4.310   4.872 -0.6348 -0.1711 -0.2548
 4803poe    c2323071   4.198   4.445   4.942 -0.2297 -0.1173 -0.2430
 4803poe     o223072   4.064   4.473   4.977 -0.1780 -0.1714 -0.0003
 4803poe    c2323073   4.054   4.590   5.055  0.1678 -0.2886  0.2216
 4803poe    c2323074   3.909   4.629   5.090  0.3487  0.5223  0.0833
 4803poe     o223075   3.823   4.611   4.980 -0.0094  0.2522  0.4066
 4803poe    c3123076   3.769   4.732   4.933  0.2358  0.0920 -0.3108
 4804poe    c3123077   4.001   2.910   3.004 -0.0754 -0.1654  0.1155
 4804poe     o223078   3.989   3.026   3.084 -0.6415 -0.2856  0.2121
 4804poe    c2323079   4.082   3.015   3.189 -0.1585 -0.1265 -0.1943
 4804poe    c2323080   4.108   3.134   3.284  0.5891  0.0402 -0.6000
 4804poe     o223081   4.129   3.253   3.211  0.2869  0.2999 -0.2678
 4804poe    c2323082   4.202   3.347   3.287  0.2704  0.3171 -0.2726
 4804poe    c2323083   4.221   3.476   3.205  0.1829  0.5342  0.0466
 4804poe     o223084   4.096   3.541   3.205 -0.1168 -0.0291 -0.3686
 4804poe    c2323085   4.116   3.680   3.219 -0.0474 -0.0957  0.2355
 4804poe    c2323086   3.991   3.759   3.176  0.1094 -0.1601 -0.3472
 4804poe     o223087   3.970   3.775   3.038 -0.1821 -0.0627 -0.2910
 4804poe    c3123088   3.857   3.858   3.018  0.1214  0.3615 -0.2667
 4805poe    c3123089   2.613   7.259   6.890 -0.5552 -0.3487  0.1458
 4805poe     o223090   2.513   7.350   6.930 -0.2478  0.2931 -0.5311
 4805poe    c2323091   2.383   7.297   6.915 -0.3260  0.4861 -0.5440
 4805poe    c2323092   2.289   7.344   7.027  0.1201 -0.3924  0.2194
 4805poe     o223093   2.254   7.478   7.001  0.3349 -0.2613  0.6000
 4805poe    c2323094   2.124   7.509   7.048  0.0783 -0.0199 -0.2451
 4805poe    c2323095   2.059   7.630   6.978 -0.2060 -0.1120 -0.1404
 4805poe     o223096   2.035   7.610   6.841  0.2906 -0.1631 -0.2238
 4805poe    c2323097   1.966   7.717   6.781 -0.3300 -0.3153  0.2044
 4805poe    c2323098   2.067   7.817   6.722 -0.3433 -0.1408  0.4782
 4805poe     o223099   2.142   7.902   6.806  0.0271  0.0482 -0.0367
 4805poe    c3123100   2.233   7.981   6.732  0.3908 -0.0181  0.3379
 4806poe    c3123101   1.642   4.169   3.668 -0.2435  0.5545 -0.0449
 4806poe     o223102   1.656   4.251   3.554 -0.1776  0.3767 -0.1661
 4806poe    c2323103   1.531   4.293   3.506 -0.5072 -0.5199 -0.1104
 4806poe    c2323104   1.546   4.399   3.395  0.5244 -0.5398  0.0014
 4806poe     o223105   1.601   4.526   3.419  0.3589 -0.3452 -0.6128
 4806poe    c2323106   1.611   4.596   3.297 -0.7788  0.6359 -0.1603
 4806poe    c2323107   1.704   4.717   3.317 -0.1282  0.1060  0.0527
 4806poe     o223108   1.839   4.679   3.304 -0.2866 -0.5173  0.2099
 4806poe    c2323109   1.891   4.751   3.195  0.0980 -0.1439  0.6369
 4806poe    c2323110   2.025   4.696   3.143 -0.1363 -0.1794  0.0656
 4806poe     o223111   1.996   4.578   3.071 -0.2961 -0.4341  0.5431
 4806poe    c3123112   2.116   4.510   3.043 -0.0591  0.1137  0.1998
 4807poe    c3123113   5.282   0.778   6.274 -0.0756  0.5732 -0.5398
 4807poe     o223114   5.236   0.684   6.180  0.3653 -0.1566 -0.0337
 4807poe    c2323115   5.209   0.553   6.226  0.1191 -0.2121 -0.3299
 4807poe    c2323116   5.149   0.463   6.116 -0.4951 -0.3138  0.0818
 4807poe     o223117   5.026   0.505   6.061 -0.3899  0.2083  0.2343
 4807poe    c2323118   4.985   0.413   5.962 -0.0074  0.5168 -0.2213
 4807poe    c2323119   4.832   0.391   5.966  0.0342  0.3151  0.4071
 4807poe     o223120   4.762   0.508   5.931 -0.0557  0.1033 -0.1216
 4807poe    c2323121   4.658   0.483   5.839 -0.4023  0.2173  0.2363
 4807poe    c2323122   4.597   0.618   5.798 -0.4997  0.0584 -0.1427
 4807poe     o223123   4.527   0.675   5.907  0.0544  0.5093 -0.0213
 4807poe    c3123124   4.443   0.776   5.856 -0.5930 -0.1669 -0.3068
 4808poe    c3123125   2.491   4.169   4.071  0.5535  0.3157  0.3902
 4808poe     o223126   2.559   4.143   4.192 -0.0835  0.0465  0.6967
 4808poe    c2323127   2.526   4.011   4.229  0.2750 -0.1950  0.1635
 4808poe    c2323128   2.624   3.959   4.336  0.3934  0.0270  0.1638
 4808poe     o223129   2.647   4.068   4.422  0.1287 -0.0386  0.3179
 4808poe    c2323130   2.731   4.025   4.527  0.6792  0.0147 -0.0975
 4808poe    c2323131   2.777   4.133   4.627 -0.1900  0.0846  0.2335
 4808poe     o223132   2.845   4.231   4.552 -0.1189  0.0968  0.3146
 4808poe    c2323133   2.943   4.295   4.631  0.4320 -0.6152  0.2185
 4808poe    c2323134   2.998   4.411   4.546 -0.1892 -0.1663  0.4187
 4808poe     o223135   2.916   4.513   4.496  0.1244 -0.1512 -0.0678
 4808poe    c3123136   2.971   4.588   4.390  0.3101  0.4499  0.4482
 4809poe    c3123137   5.654   3.119   6.638 -0.4910  0.2044 -0.2164
 4809poe     o223138   5.540   3.037   6.631 -0.2877 -0.0914 -0.0531
 4809poe    c2323139   5.559   2.911   6.692  0.1270  0.1467  0.3180
 4809poe    c2323140   5.425   2.835   6.698  0.1656  0.0534  0.0222
 4809poe     o223141   5.323   2.909   6.761 -0.0494 -0.0013 -0.2571
 4809poe    c2323142   5.205   2.835   6.741  0.0930 -0.1998 -0.3727
 4809poe    c2323143   5.081   2.913   6.790  0.3772  0.1398 -0.1842
 4809poe     o223144   5.101   3.047   6.752 -0.1208  0.0895 -0.6353
 4809poe    c2323145   5.056   3.139   6.849 -0.0182  0.0147 -0.5163
 4809poe    c2323146   5.090   3.286   6.819 -0.1005  0.1261 -0.0708
 4809poe     o223147   5.066   3.302   6.681  0.1491 -0.1593 -0.1491
 4809poe    c3123148   5.070   3.434   6.630 -0.3099 -0.3567 -0.7121
 4810poe    c3123149   5.612   3.329   0.797 -0.1628  0.5072 -0.7622
 4810poe     o223150   5.595   3.217   0.713  0.0068  0.3539 -0.5943
 4810poe    c2323151   5.458   3.184   0.708 -0.0418  0.4234  0.1964
 4810poe    c2323152   5.446   3.076   0.599  0.0897  0.5250  0.0823
 4810poe     o223153   5.451   3.132   0.470 -0.3912  0.1190 -0.1161
 4810poe    c2323154   5.437   3.041   0.363  0.2433 -0.4114  0.2462
 4810poe    c2323155   5.490   3.084   0.226 -0.4787  0.2836  0.1768
 4810poe     o223156   5.627   3.117   0.235 -0.3734 -0.2403  0.5138
 4810poe    c2323157   5.667   3.182   0.116  0.1630 -0.1246  0.7528
 4810poe    c2323158   5.816   3.219   0.128  0.2115 -0.1580  0.2542
 4810poe     o223159   5.856   3.314   0.223 -0.0291 -0.0976  0.2971
 4810poe    c3123160   5.996   3.316   0.244  0.1010 -0.1360 -0.5664
 4811poe    c3123161   5.043   0.446   4.666  0.3333 -0.3772  0.4465
 4811poe     o223162   5.124   0.543   4.729  0.4975 -0.4851  0.4046
 4811poe    c2323163   5.052   0.635   4.809  0.4474 -0.3732  0.2307
 4811poe    c2323164   5.145   0.721   4.897  0.3425  0.0961 -0.1168
 4811poe     o223165   5.222   0.826   4.840  0.4156 -0.2359 -0.6417
 4811poe    c2323166   5.149   0.930   4.780  0.2382  0.0258  0.0196
 4811poe    c2323167   5.218   1.030   4.686  0.1713 -0.4201 -0.5047
 4811poe     o223168   5.247   0.977   4.559 -0.3720  0.0988 -0.8549
 4811poe    c2323169   5.345   1.059   4.499  0.1621 -0.0585 -0.2071
 4811poe    c2323170   5.355   1.035   4.348  0.5066 -0.0036 -0.1950
 4811poe     o223171   5.341   0.895   4.338  0.2713 -0.0039  0.1281
 4811poe    c3123172   5.383   0.848   4.212  0.2740  0.3072  0.0127
 4812poe    c3123173   4.691   6.904   6.281 -0.2094  0.1784  0.1476
 4812poe     o223174   4.683   6.804   6.380 -0.1776 -0.3019 -0.3303
 4812poe    c2323175   4.579   6.825   6.473 -0.1917  0.2788 -0.4742
 4812poe    c2323176   4.591   6.720   6.585 -1.0093  0.4350 -0.2302
 4812poe     o223177   4.544   6.590   6.556  0.1411 -0.0811  0.1804
 4812poe    c2323178   4.517   6.513   6.671  0.1975 -0.5345 -0.1110
 4812poe    c2323179   4.481   6.367   6.638 -0.3300 -0.3701 -0.2639
 4812poe     o223180   4.353   6.351   6.579 -0.5202 -0.2174  0.1101
 4812poe    c2323181   4.352   6.230   6.508 -0.4256 -0.1763  0.0374
 4812poe    c2323182   4.318   6.227   6.358  0.6524 -0.5987 -0.2044
 4812poe     o223183   4.404   6.310   6.283  0.3836 -0.5447 -0.4522
 4812poe    c3123184   4.384   6.285   6.145 -0.3882  0.3629 -0.5201
 4813poe    c3123185   2.612   1.181   6.172 -0.3135  0.6383  0.0057
 4813poe     o223186   2.637   1.170   6.033  0.3848 -0.4193  0.1983
 4813poe    c2323187   2.703   1.046   6.022  0.5521 -0.3199  0.0984
 4813poe    c2323188   2.796   1.030   5.900  0.1496 -0.0631 -0.2438
 4813poe     o223189   2.733   1.063   5.778 -0.0970  0.4240  0.0135
 4813poe    c2323190   2.825   1.049   5.672 -0.2671  0.3034 -0.1180
 4813poe    c2323191   2.737   1.088   5.551 -0.0848  0.3277 -0.2436
 4813poe     o223192   2.702   1.224   5.562 -0.2963  0.2539  0.0426
 4813poe    c2323193   2.652   1.276   5.441  0.0899  0.6370  0.0436
 4813poe    c2323194   2.627   1.427   5.460  0.1847  0.6593 -0.0072
 4813poe     o223195   2.549   1.424   5.577  0.1139 -0.7061 -0.0762
 4813poe    c3123196   2.457   1.530   5.581 -0.0234 -0.8471  0.9376
 4814poe    c3123197   3.671   2.702   1.694 -0.2590  0.7287 -0.4171
 4814poe     o223198   3.728   2.609   1.605  0.3836 -0.1762  0.9046
 4814poe    c2323199   3.794   2.682   1.504 -0.2934 -0.2501  0.3983
 4814poe    c2323200   3.876   2.589   1.412 -0.2002  0.1826  0.0441
 4814poe     o223201   3.902   2.482   1.499  0.1385 -0.1454 -0.4597
 4814poe    c2323202   3.975   2.371   1.450  1.2376  0.4585 -0.2270
 4814poe    c2323203   4.010   2.289   1.575  0.4792  0.3855 -0.0606
 4814poe     o223204   3.896   2.299   1.658  0.3887 -0.3334 -0.0907
 4814poe    c2323205   3.927   2.274   1.793 -0.3569 -0.2046  0.1084
 4814poe    c2323206   3.799   2.290   1.878 -0.0495 -0.3761  0.6048
 4814poe     o223207   3.720   2.377   1.801  0.3221 -0.0413  0.5964
 4814poe    c3123208   3.592   2.373   1.862 -0.2525  0.0165 -0.5726
 4815poe    c3123209   1.471   1.185   5.639  0.2850 -0.3089  0.3318
 4815poe     o223210   1.520   1.274   5.737  0.4111 -0.4060  0.3580
 4815poe    c2323211   1.607   1.200   5.820  1.0190 -0.4042 -0.2690
 4815poe    c2323212   1.679   1.286   5.925  0.7282 -0.0113 -0.3895
 4815poe     o223213   1.588   1.360   6.003  0.4002 -0.4116 -0.3908
 4815poe    c2323214   1.647   1.441   6.102 -0.5937 -0.3050  0.1281
 4815poe    c2323215   1.532   1.507   6.179 -0.2684  0.4004  0.0159
 4815poe     o223216   1.456   1.419   6.259 -0.4699  0.2947 -0.2922
 4815poe    c2323217   1.372   1.495   6.344 -0.1501  0.4436 -0.1099
 4815poe    c2323218   1.306   1.398   6.443  0.1155  0.1439 -0.2227
 4815poe     o223219   1.220   1.301   6.387 -0.2238  0.5573 -0.4190
 4815poe    c3123220   1.085   1.343   6.380 -0.3501  0.2613  0.1661
 4816poe    c3123221   5.767   0.127   4.098  0.4074  0.2675  0.0184
 4816poe     o223222   5.739   0.046   4.210 -0.1924 -0.3434 -0.5620
 4816poe    c2323223   5.600   0.024   4.209 -0.1187 -0.8198 -0.4295
 4816poe    c2323224   5.571  -0.105   4.288 -0.0815 -0.5577  0.0127
 4816poe     o223225   5.609  -0.103   4.424  0.1310  0.2458 -0.0518
 4816poe    c2323226   5.573   0.002   4.510 -0.5929  0.0637 -0.1260
 4816poe    c2323227   5.673  -0.008   4.627 -0.4940  0.1753 -0.2016
 4816poe     o223228   5.810   0.002   4.596 -0.4283 -0.2194 -0.0429
 4816poe    c2323229   5.847   0.137   4.582 -0.4945 -0.1801  0.1578
 4816poe    c2323230   6.000   0.158   4.581 -0.5555  0.2690 -0.3563
 4816poe     o223231   6.072   0.108   4.470  0.0148 -0.1333  0.1906
 4816poe    c3123232   6.207   0.148   4.467 -0.1123  0.2618 -0.3363
 4817poe    c3123233   5.062   2.394   1.395 -0.5561 -0.2653 -0.2833
 4817poe     o223234   4.952   2.471   1.438 -0.2673 -0.0103  0.0013
 4817poe    c2323235   4.993   2.605   1.422  0.0701 -0.0734  0.3295
 4817poe    c2323236   4.907   2.716   1.487 -0.6019 -0.5046  0.1887
 4817poe     o223237   4.784   2.742   1.422 -0.2565 -0.0621 -0.3021
 4817poe    c2323238   4.701   2.828   1.495  0.1101 -0.2465  0.3460
 4817poe    c2323239   4.552   2.808   1.462  0.1216 -0.4513  0.4166
 4817poe     o223240   4.507   2.855   1.336 -0.3368  0.5029  0.9259
 4817poe    c2323241   4.369   2.833   1.320 -0.1266  0.0928 -0.3560
 4817poe    c2323242   4.325   2.877   1.179 -0.4164  0.6342 -0.0986
 4817poe     o223243   4.383   3.004   1.165  0.6112  0.1614 -0.2303
 4817poe    c3123244   4.366   3.047   1.031 -0.7622  0.3241 -0.0148
 4818poe    c3123245   7.211   4.685   6.726 -0.1133 -0.3331 -0.0247
 4818poe     o223246   7.076   4.671   6.687 -0.1523  0.4726 -0.2000
 4818poe    c2323247   7.019   4.795   6.652 -0.6340  0.2226 -0.3119
 4818poe    c2323248   7.060   4.853   6.516  0.4643  0.1857 -0.0071
 4818poe     o223249   7.030   4.774   6.402 -0.0066 -0.4855  0.5713
 4818poe    c2323250   7.130   4.772   6.303  0.2869 -0.5190  0.8664
 4818poe    c2323251   7.071   4.742   6.164 -0.6622  0.6440  1.0050
 4818poe     o223252   7.060   4.603   6.148 -0.3217  0.7340 -0.0691
 4818poe    c2323253   6.987   4.571   6.031  0.4357  0.0509 -0.3719
 4818poe    c2323254   7.061   4.578   5.897  0.1912  0.3822 -0.4916
 4818poe     o223255   7.143   4.469   5.862  0.4796  0.4204  0.0586
 4818poe    c3123256   7.212   4.504   5.744  0.8117 -0.6962 -0.0886
 4819poe    c3123257   0.585   6.647   2.948  0.6329 -0.1391 -0.5887
 4819poe     o223258   0.501   6.678   2.839  0.0070 -0.8187 -0.3113
 4819poe    c2323259   0.573   6.684   2.718  0.6994  0.4146  0.1430
 4819poe    c2323260   0.502   6.740   2.594  0.1817 -0.0304  0.2385
 4819poe     o223261   0.489   6.880   2.599  0.6546  0.0291 -0.1669
 4819poe    c2323262   0.362   6.936   2.624  0.5388 -0.1989 -0.2363
 4819poe    c2323263   0.340   7.081   2.577 -0.5597 -0.2417  0.1192
 4819poe     o223264   0.326   7.091   2.437 -0.1231  0.0990  0.0967
 4819poe    c2323265   0.275   7.217   2.397 -0.0193  0.2193  0.3394
 4819poe    c2323266   0.326   7.250   2.256  0.0510 -0.3186  0.2352
 4819poe     o223267   0.466   7.266   2.256  0.0255 -0.0873  0.0434
 4819poe    c3123268   0.510   7.339   2.144  0.2030 -0.0899  0.1096
 4820poe    c3123269   0.159   0.772   2.426  0.6257  0.1072 -0.0696
 4820poe     o223270   0.128   0.726   2.555  0.1495 -0.3649 -0.3481
 4820poe    c2323271   0.042   0.614   2.559 -0.0264 -0.2148  0.2178
 4820poe    c2323272  -0.026   0.588   2.694 -0.1079  0.8592  0.3930
 4820poe     o223273   0.051   0.584   2.813 -0.0054 -0.5338  0.3004
 4820poe    c2323274  -0.020   0.604   2.933  0.0183  0.0715  0.2212
 4820poe    c2323275   0.079   0.588   3.050  0.0481  0.1793  0.2105
 4820poe     o223276   0.162   0.701   3.038 -0.2187  0.3306 -0.2208
 4820poe    c2323277   0.250   0.704   3.148 -0.1720  0.1383 -0.2529
 4820poe    c2323278   0.349   0.818   3.122  0.2536 -0.0652  0.4257
 4820poe     o223279   0.387   0.794   2.988 -0.3250  0.1600  0.2176
 4820poe    c3123280   0.494   0.879   2.955 -0.2346  0.2803  0.8056
 4821poe    c3123281   6.809   7.356   3.082  0.0704 -0.2323 -0.9606
 4821poe     o223282   6.904   7.447   3.031  0.2872  0.1206  0.0517
 4821poe    c2323283   6.846   7.574   3.006  0.3139  0.2169  0.4702
 4821poe    c2323284   6.956   7.676   2.972 -0.0148  0.3951 -0.0584
 4821poe     o223285   7.018   7.732   3.085  0.2059 -0.0976  0.0647
 4821poe    c2323286   7.123   7.815   3.040 -0.1717  0.4682  0.2176
 4821poe    c2323287   7.198   7.884   3.155  0.2120  0.0616  0.2167
 4821poe     o223288   7.107   7.952   3.239  0.0366  0.1161 -0.0151
 4821poe    c2323289   7.183   8.051   3.306  0.0286  0.2226 -0.1637
 4821poe    c2323290   7.100   8.146   3.394 -0.0313 -0.4937  0.5596
 4821poe     o223291   7.048   8.112   3.521 -0.0092  0.2134  0.7624
 4821poe    c3123292   6.994   8.230   3.576  0.0581  0.0665  1.1498
 4822poe    c3123293   1.628   1.815   0.659 -0.2714  0.2192 -0.0511
 4822poe     o223294   1.703   1.918   0.597  0.1623 -0.0062  0.0976
 4822poe    c2323295   1.647   1.929   0.469  0.0189  0.2516  0.1829
 4822poe    c2323296   1.722   2.038   0.389  0.0691  0.3205  0.3234
 4822poe     o223297   1.648   2.157   0.387 -0.7717 -0.1934  0.0200
 4822poe    c2323298   1.716   2.243   0.298 -0.2032 -0.2136  0.4246
 4822poe    c2323299   1.656   2.384   0.278 -0.0463 -0.1276  0.5556
 4822poe     o223300   1.709   2.486   0.359  0.2415  0.0264  0.1717
 4822poe    c2323301   1.680   2.477   0.497  0.0098  0.5748  0.1648
 4822poe    c2323302   1.616   2.597   0.568 -0.1212  0.7791 -0.2905
 4822poe     o223303   1.481   2.632   0.547 -0.3914 -0.2285 -0.2992
 4822poe    c3123304   1.459   2.681   0.417 -0.2654  0.3878 -0.0950
 4823poe    c3123305   2.180   6.154   7.257 -0.3637 -0.0912 -0.1788
 4823poe     o223306   2.063   6.136   7.179 -0.5348  0.1330  0.0247
 4823poe    c2323307   1.982   6.030   7.226 -0.4412  0.2179  0.3818
 4823poe    c2323308   1.834   6.033   7.183 -0.3600 -0.3735  0.0551
 4823poe     o223309   1.768   6.147   7.233 -0.0722 -0.1106 -0.1545
 4823poe    c2323310   1.666   6.198   7.151 -0.3152 -0.1786  0.1028
 4823poe    c2323311   1.587   6.318   7.208 -0.3977  0.1012 -0.5912
 4823poe     o223312   1.679   6.424   7.216 -0.0615 -0.2651  0.4466
 4823poe    c2323313   1.608   6.540   7.254  0.1849  0.0212  0.0367
 4823poe    c2323314   1.694   6.668   7.261 -0.3492  0.3359  0.9933
 4823poe     o223315   1.739   6.719   7.138  0.3113 -0.8367  0.7317
 4823poe    c3123316   1.796   6.846   7.153 -0.0815 -0.6740  0.8671
 4824poe    c3123317   6.226   0.807   0.446 -0.2949  0.3248 -0.4489
 4824poe     o223318   6.272   0.823   0.578 -0.3333  0.0695 -0.4027
 4824poe    c2323319   6.410   0.852   0.582 -0.3194 -0.0377 -0.1207
 4824poe    c2323320   6.448   0.892   0.726 -0.0301 -0.0186 -0.2011
 4824poe     o223321   6.374   1.003   0.772 -0.2825 -0.3270  0.1435
 4824poe    c2323322   6.369   0.976   0.910 -0.3375  0.1477  0.2351
 4824poe    c2323323   6.287   1.064   1.007  0.2964  0.7043  0.2759
 4824poe     o223324   6.156   1.095   0.968  0.3245  0.5255  0.0341
 4824poe    c2323325   6.106   1.188   1.062  0.1761 -0.3613  0.8440
 4824poe    c2323326   5.959   1.227   1.036  0.2029 -0.7861  0.0048
 4824poe     o223327   5.927   1.320   0.935 -0.1511 -0.2809  0.5712
 4824poe    c3123328   5.791   1.321   0.900  0.0082  0.1767 -0.0571
 4825poe    c3123329   1.413   0.693   6.278  0.0398 -0.5161  0.3099
 4825poe     o223330   1.331   0.727   6.388 -0.1443 -0.0276  0.0211
 4825poe    c2323331   1.314   0.866   6.401 -0.4495 -0.0556 -0.0627
 4825poe    c2323332   1.192   0.904   6.488 -0.3383 -0.5414  0.3108
 4825poe     o223333   1.218   0.888   6.625 -0.1044  0.0511  0.3408
 4825poe    c2323334   1.168   0.765   6.671 -0.1064 -0.0564  0.0519
 4825poe    c2323335   1.179   0.755   6.825 -0.2025 -0.3848  0.0396
 4825poe     o223336   1.155   0.888   6.866  0.2836 -0.2898  0.0169
 4825poe    c2323337   1.173   0.896   7.006 -0.8033  0.0163  0.1441
 4825poe    c2323338   1.138   1.033   7.066  0.7359  0.3095  0.4100
 4825poe     o223339   1.196   1.129   6.980  0.1188  0.2091 -0.1259
 4825poe    c3123340   1.158   1.258   7.023 -0.3322 -0.1218  0.4859
 4826poe    c3123341   4.707   3.229   0.368  0.1627 -0.5957  0.4611
 4826poe     o223342   4.705   3.247   0.508 -0.5393  0.5207  0.3168
 4826poe    c2323343   4.828   3.303   0.545 -0.3209  0.2687 -0.0161
 4826poe    c2323344   4.805   3.319   0.697 -0.2247 -0.6580  0.1075
 4826poe     o223345   4.675   3.366   0.723  0.0559  0.1727  0.0484
 4826poe    c2323346   4.666   3.384   0.863 -0.3617  0.4293 -0.0112
 4826poe    c2323347   4.531   3.425   0.925 -0.4111 -0.3213  0.3889
 4826poe     o223348   4.429   3.329   0.907  0.0754 -0.6564 -0.6528
 4826poe    c2323349   4.301   3.371   0.949  0.5069 -0.1340  0.1708
 4826poe    c2323350   4.245   3.485   0.862  0.2308 -0.4641 -0.0840
 4826poe     o223351   4.239   3.440   0.728  0.4773 -0.6920 -0.0197
 4826poe    c3123352   4.147   3.509   0.646  0.0156 -0.4572  0.6828
 4827poe    c3123353   6.733   0.634   6.192 -0.2368  0.1166 -0.5484
 4827poe     o223354   6.665   0.527   6.129  0.0306 -0.1050 -0.4664
 4827poe    c2323355   6.535   0.512   6.181  0.0604  0.4489 -0.2168
 4827poe    c2323356   6.441   0.422   6.098 -0.0177  0.1597  0.1802
 4827poe     o223357   6.423   0.472   5.967 -0.6058  0.2033  0.2725
 4827poe    c2323358   6.340   0.381   5.899 -0.3654 -0.0057  0.2571
 4827poe    c2323359   6.285   0.436   5.766  0.0712  0.0198  0.0843
 4827poe     o223360   6.370   0.445   5.654 -0.0930 -1.1173 -0.1455
 4827poe    c2323361   6.288   0.434   5.540 -0.4648  0.3101 -0.0320
 4827poe    c2323362   6.354   0.465   5.404 -0.0687 -0.3524  0.0072
 4827poe     o223363   6.426   0.371   5.328 -0.3489 -0.3592 -0.2552
 4827poe    c3123364   6.381   0.240   5.300 -0.2850 -0.3260 -0.5054
 4828poe    c3123365   3.973   3.279   5.540 -0.3889  0.1525 -0.0248
 4828poe     o223366   3.874   3.371   5.502 -0.2185  0.3988  0.1242
 4828poe    c2323367   3.806   3.327   5.387  0.5419  0.2034 -0.2520
 4828poe    c2323368   3.676   3.408   5.384  0.4042  0.0000  0.2329
 4828poe     o223369   3.576   3.314   5.419  0.2140  0.3762  0.7169
 4828poe    c2323370   3.448   3.369   5.439 -0.1336 -0.4244  0.7286
 4828poe    c2323371   3.331   3.272   5.416 -0.3036  0.0217 -0.3660
 4828poe     o223372   3.356   3.156   5.491  0.5055  0.1731 -0.3976
 4828poe    c2323373   3.252   3.062   5.506  0.5280  0.1741 -0.2299
 4828poe    c2323374   3.311   2.921   5.520  0.0445  0.0049  0.1502
 4828poe     o223375   3.421   2.911   5.432 -0.2408 -0.0761 -0.2019
 4828poe    c3123376   3.456   2.775   5.419  0.2780  0.0653 -0.3156
 4829poe    c3123377   3.476   4.890   3.920  0.4699  0.7210 -0.3335
 4829poe     o223378   3.410   5.002   3.864 -0.9086  0.2890  0.3754
 4829poe    c2323379   3.356   4.976   3.736 -0.1661 -0.1505  0.1434
 4829poe    c2323380   3.271   5.089   3.676  0.1142 -0.0542 -0.0768
 4829poe     o223381   3.328   5.215   3.648  0.0072 -0.0682 -0.3616
 4829poe    c2323382   3.231   5.312   3.616 -0.4335 -0.1541  0.7047
 4829poe    c2323383   3.285   5.455   3.600 -0.3749 -0.2813 -0.2629
 4829poe     o223384   3.316   5.522   3.720 -0.1170 -0.3967 -0.2652
 4829poe    c2323385   3.351   5.657   3.707 -0.0947 -0.3402  0.3552
 4829poe    c2323386   3.246   5.748   3.640  0.2719 -0.0873  0.1213
 4829poe     o223387   3.138   5.782   3.723  0.0395  0.0216 -0.2244
 4829poe    c3123388   3.057   5.884   3.669  0.8408  0.4626 -0.6040
 4830poe    c3123389   3.372   0.382   0.634  0.4605 -0.4792  0.6763
 4830poe     o223390   3.398   0.514   0.593 -0.3942 -0.4332  0.2740
 4830poe    c2323391   3.474   0.588   0.685  0.4137 -0.4062 -0.4063
 4830poe    c2323392   3.485   0.739   0.656 -0.4920 -0.3419 -0.4262
 4830poe     o223393   3.354   0.792   0.664 -0.5709 -0.5738 -0.1253
 4830poe    c2323394   3.337   0.901   0.576  0.0041  0.0528  0.5247
 4830poe    c2323395   3.189   0.942   0.588 -0.0879 -0.0644 -0.1357
 4830poe     o223396   3.093   0.843   0.562 -0.4937  0.2182  0.2761
 4830poe    c2323397   2.966   0.906   0.557 -0.4930  0.1519 -0.7995
 4830poe    c2323398   2.867   0.825   0.472 -0.3934 -0.5596 -0.2585
 4830poe     o223399   2.850   0.693   0.518  0.8354 -0.3771  0.7566
 4830poe    c3123400   2.824   0.603   0.413 -0.0774  0.0976  0.5645
 4831poe    c3123401   4.975   2.886   5.520 -0.0024 -0.1051 -0.2151
 4831poe     o223402   5.003   2.773   5.601 -0.5070  0.2379  0.4452
 4831poe    c2323403   4.951   2.650   5.556  0.4761  0.0153 -0.1075
 4831poe    c2323404   4.926   2.557   5.675 -0.0853  0.1624 -0.1064
 4831poe     o223405   5.037   2.576   5.761 -0.2433  0.2338  0.0822
 4831poe    c2323406   5.050   2.477   5.860  0.0047  0.0163 -0.1660
 4831poe    c2323407   5.166   2.379   5.835  0.0973  0.0168  0.2536
 4831poe     o223408   5.285   2.452   5.858  0.1164  0.3297 -0.7997
 4831poe    c2323409   5.390   2.378   5.916 -0.1753  0.2048 -0.4260
 4831poe    c2323410   5.523   2.453   5.935 -0.1877  0.0777  0.1980
 4831poe     o223411   5.573   2.471   5.804 -0.0279  0.2127  0.2755
 4831poe    c3123412   5.682   2.558   5.790 -0.0107  0.1374 -0.0610
 4832poe    c3123413   4.796   0.484   0.401  0.3272 -0.0316  0.1283
 4832poe     o223414   4.879   0.370   0.395  0.3233 -0.0134 -0.2650
 4832poe    c2323415   4.807   0.253   0.362  0.2540 -0.1122  0.2365
 4832poe    c2323416   4.893   0.126   0.344  0.3431  0.0311 -0.3529
 4832poe     o223417   4.975   0.101   0.455  0.0505  0.0296 -0.1359
 4832poe    c2323418   5.078   0.007   0.435  0.2003  0.0923  0.3159
 4832poe    c2323419   5.058  -0.146   0.431 -0.5246  0.1943 -0.2109
 4832poe     o223420   4.989  -0.199   0.321 -0.3581 -0.3585 -0.0492
 4832poe    c2323421   5.067  -0.220   0.205 -0.1325  0.3741 -0.0337
 4832poe    c2323422   5.008  -0.131   0.094 -0.0968  0.2995 -0.1126
 4832poe     o223423   4.876  -0.158   0.053  0.0959 -0.6311 -0.1475
 4832poe    c3123424   4.801  -0.042   0.022  0.8442 -0.1820 -0.3270
 4833poe    c3123425   3.188   6.724   1.602  0.1292 -0.0685  0.0576
 4833poe     o223426   3.277   6.815   1.541 -0.3844  0.0766 -0.4857
 4833poe    c2323427   3.265   6.943   1.598 -0.0155 -0.0954 -0.0181
 4833poe    c2323428   3.355   7.048   1.530 -0.2852  0.1078 -0.0662
 4833poe     o223429   3.493   7.021   1.539 -0.2203  0.4051 -0.1697
 4833poe    c2323430   3.575   7.111   1.468  0.2571 -0.4531 -0.7161
 4833poe    c2323431   3.712   7.044   1.447  0.4492 -0.3988  0.3500
 4833poe     o223432   3.690   6.924   1.376  0.0673 -0.4597  0.5665
 4833poe    c2323433   3.812   6.854   1.363  0.3297  0.0399  0.3291
 4833poe    c2323434   3.803   6.734   1.267  0.1674 -0.3071  0.7764
 4833poe     o223435   3.719   6.628   1.308 -0.3989 -0.0830  0.2179
 4833poe    c3123436   3.692   6.556   1.190 -0.3500 -0.1754  0.2632
 4834poe    c3123437   3.068   3.166   0.911 -0.5205 -0.4855 -0.3698
 4834poe     o223438   3.100   3.144   1.047 -0.2329  0.2640 -0.3062
 4834poe    c2323439   2.990   3.067   1.091  0.3231 -0.3463  0.0322
 4834poe    c2323440   2.995   3.036   1.241 -0.4754  0.1084  0.1558
 4834poe     o223441   3.044   3.151   1.308 -0.2163 -0.0891  0.3077
 4834poe    c2323442   2.978   3.166   1.432 -0.2749  0.2060  0.2397
 4834poe    c2323443   3.082   3.234   1.523  0.3412 -0.3525 -0.0341
 4834poe     o223444   3.110   3.363   1.472 -0.6193 -0.0516  0.1759
 4834poe    c2323445   3.177   3.452   1.558 -0.3346 -0.3182  0.2328
 4834poe    c2323446   3.315   3.492   1.501 -0.3693  0.3633  0.6153
 4834poe     o223447   3.307   3.577   1.389  0.4381 -0.0799  0.2100
 4834poe    c3123448   3.440   3.613   1.360  0.0594  0.4715 -0.9179
 4835poe    c3123449   6.609   2.716   0.131 -0.2831 -0.0481  0.0118
 4835poe     o223450   6.638   2.605   0.212  0.2314  0.1492  0.1046
 4835poe    c2323451   6.528   2.576   0.296 -0.0459 -0.2025 -0.3737
 4835poe    c2323452   6.415   2.487   0.241 -0.4015  0.2421 -0.3730
 4835poe     o223453   6.437   2.348   0.239 -0.0384  0.2960 -0.1360
 4835poe    c2323454   6.521   2.299   0.137  0.1806  0.7204 -0.1618
 4835poe    c2323455   6.672   2.282   0.162  0.0962  0.3471  0.0998
 4835poe     o223456   6.704   2.162   0.229 -0.3985  0.1015 -0.0946
 4835poe    c2323457   6.836   2.152   0.277 -0.5011  0.2103  0.2130
 4835poe    c2323458   6.829   2.036   0.379  0.1688  0.3345  0.4080
 4835poe     o223459   6.826   1.912   0.313  0.2274  0.6586 -0.2115
 4835poe    c3123460   6.833   1.815   0.415  0.0159  0.5726 -0.2768
 4836poe    c3123461   5.260   4.377   3.306 -0.1452  0.1616  0.0926
 4836poe     o223462   5.204   4.288   3.400  0.3772 -0.2407  0.0269
 4836poe    c2323463   5.289   4.249   3.505  0.2982 -0.6059 -0.0457
 4836poe    c2323464   5.211   4.169   3.610 -0.1379  0.3751  0.3882
 4836poe     o223465   5.120   4.225   3.703 -0.3421 -0.0041  0.4236
 4836poe    c2323466   5.180   4.311   3.798  0.3642 -0.2406  0.2041
 4836poe    c2323467   5.077   4.382   3.888  0.0057 -0.1579 -0.2672
 4836poe     o223468   5.024   4.313   3.999 -0.4957  0.6018 -0.0221
 4836poe    c2323469   4.946   4.397   4.081 -0.1583  0.2887  0.6292
 4836poe    c2323470   4.878   4.312   4.189  0.3714 -0.7325  0.1718
 4836poe     o223471   4.794   4.214   4.132  0.4189 -0.6682 -0.0097
 4836poe    c3123472   4.748   4.130   4.236 -0.4536 -0.1446  0.0319
 4837poe    c3123473   5.461   3.035   2.105 -0.0338 -0.6130 -0.2451
 4837poe     o223474   5.557   3.118   2.043 -0.5347  0.1556 -0.0127
 4837poe    c2323475   5.574   3.229   2.128  0.1750 -0.2882  0.4318
 4837poe    c2323476   5.709   3.299   2.104  0.0833 -0.3106 -0.1659
 4837poe     o223477   5.721   3.369   1.982  0.3131 -0.3416 -0.1614
 4837poe    c2323478   5.856   3.381   1.943  0.1794 -0.7808 -0.7819
 4837poe    c2323479   5.865   3.465   1.815  0.0101  0.1856 -0.1674
 4837poe     o223480   5.829   3.599   1.841 -0.2473  0.1132 -0.1421
 4837poe    c2323481   5.809   3.683   1.729 -0.5762  0.4916  0.1956
 4837poe    c2323482   5.744   3.818   1.763 -0.1950  0.8531 -0.5012
 4837poe     o223483   5.619   3.805   1.826  0.0490 -0.0148 -0.1884
 4837poe    c3123484   5.561   3.932   1.849 -0.5466 -0.3437  0.1672
 4838poe    c3123485   4.378   6.945   1.948 -0.1935 -0.3172  0.1834
 4838poe     o223486   4.305   7.065   1.934 -0.1922 -0.3301  0.0615
 4838poe    c2323487   4.214   7.079   2.041 -0.0978  0.1166  0.0869
 4838poe    c2323488   4.089   7.166   2.019 -0.0663  0.1311 -0.0319
 4838poe     o223489   4.134   7.296   1.988  0.2543 -0.0033 -0.1323
 4838poe    c2323490   4.031   7.392   1.987  0.1401 -0.1233  0.0240
 4838poe    c2323491   4.085   7.527   1.935  0.0104 -0.1263 -0.1205
 4838poe     o223492   4.144   7.534   1.807  0.0241 -0.4290 -0.1307
 4838poe    c2323493   4.202   7.660   1.786  0.1920 -0.4545  0.1720
 4838poe    c2323494   4.264   7.677   1.646  0.7544 -0.0044  0.4685
 4838poe     o223495   4.311   7.808   1.624  0.0935  0.1024 -0.4158
 4838poe    c3123496   4.300   7.858   1.493 -0.0903  0.0164 -0.4325
 4839poe    c3123497   1.782   3.305   3.463 -0.0898  0.2189 -0.0387
 4839poe     o223498   1.673   3.220   3.433  0.0635  0.0746 -0.1855
 4839poe    c2323499   1.554   3.286   3.397  0.0457 -0.1190 -0.4800
 4839poe    c2323500   1.462   3.172   3.348 -0.2063 -0.2505  0.2873
 4839poe     o223501   1.460   3.060   3.434  0.1608 -0.2934  0.2405
 4839poe    c2323502   1.361   2.965   3.402 -0.1018  0.0729 -0.0497
 4839poe    c2323503   1.374   2.868   3.520 -0.2841  0.2389  0.1062
 4839poe     o223504   1.344   2.915   3.650 -0.1847 -0.1255  0.2631
 4839poe    c2323505   1.354   2.808   3.741  0.2051 -0.1055  0.2464
 4839poe    c2323506   1.378   2.845   3.889 -0.3958  0.1677  0.2785
 4839poe     o223507   1.486   2.932   3.914 -0.2350  0.0811 -0.1009
 4839poe    c3123508   1.526   2.962   4.046 -0.1408  0.4224 -0.2051
 4840poe    c3123509   3.143   6.683   0.055  0.2745 -0.4197  0.1829
 4840poe     o223510   3.012   6.715   0.013  0.3222 -0.2258  0.1826
 4840poe    c2323511   3.026   6.751  -0.122 -0.4679  0.3395  0.2471
 4840poe    c2323512   2.885   6.775  -0.179 -0.6045  0.0656  0.4686
 4840poe     o223513   2.821   6.885  -0.119 -0.0776  0.6368  0.0006
 4840poe    c2323514   2.685   6.874  -0.156 -0.1402  0.3327  0.3179
 4840poe    c2323515   2.604   6.947  -0.047  0.1057  0.5720  0.3415
 4840poe     o223516   2.606   6.873   0.073 -0.0408 -0.0430 -0.0363
 4840poe    c2323517   2.514   6.927   0.165 -0.6505 -0.0655 -0.6202
 4840poe    c2323518   2.481   6.820   0.270  0.3319  0.1283 -0.0995
 4840poe     o223519   2.590   6.779   0.349 -0.0933  0.0981  0.4766
 4840poe    c3123520   2.554   6.726   0.475  0.4818 -0.8327  0.2639
 4841poe    c3123521   6.394   1.863   2.783 -0.5424  0.5747 -0.1670
 4841poe     o223522   6.483   1.929   2.870  0.0405 -0.8556  0.3554
 4841poe    c2323523   6.617   1.911   2.829  0.1488  0.0399  0.2934
 4841poe    c2323524   6.713   1.889   2.947  0.6710 -0.1864 -0.1691
 4841poe     o223525   6.720   1.993   3.042  0.3777 -0.0489 -0.2972
 4841poe    c2323526   6.764   2.118   2.993 -0.0415  0.2511  0.0966
 4841poe    c2323527   6.758   2.215   3.113  0.1703  0.3760  0.0063
 4841poe     o223528   6.624   2.238   3.149 -0.0132  0.4325 -0.7095
 4841poe    c2323529   6.587   2.373   3.162 -0.3932  0.2702 -0.0416
 4841poe    c2323530   6.541   2.446   3.035 -0.2417 -0.0105 -0.2596
 4841poe     o223531   6.641   2.461   2.936 -0.1717  0.2537 -0.1511
 4841poe    c3123532   6.579   2.458   2.809 -0.4398  0.6672 -0.0334
 4842poe    c3123533   3.751   4.841   6.635  0.0089  0.5074 -0.2358
 4842poe     o223534   3.885   4.819   6.598 -0.0042  0.5331 -0.2985
 4842poe    c2323535   3.910   4.680   6.606 -0.6090  0.4335 -0.1426
 4842poe    c2323536   4.054   4.651   6.561 -0.8093 -0.6987 -0.0875
 4842poe     o223537   4.069   4.715   6.436 -0.3265 -0.2079  0.2156
 4842poe    c2323538   4.202   4.693   6.392 -0.4354  0.1464 -0.3025
 4842poe    c2323539   4.226   4.758   6.255  0.3973 -0.2847 -0.3655
 4842poe     o223540   4.203   4.897   6.263 -0.3109 -0.3997 -0.3525
 4842poe    c2323541   4.314   4.975   6.301 -0.6865  0.0859 -0.2432
 4842poe    c2323542   4.310   5.123   6.258  0.0167  0.2227  0.1422
 4842poe     o223543   4.174   5.160   6.270 -0.0623 -0.0364  0.0405
 4842poe    c3123544   4.142   5.284   6.212  0.0106 -0.1464 -0.2396
 4843poe    c3123545   1.383   2.500   0.844 -0.3852  0.4295 -0.7649
 4843poe     o223546   1.333   2.606   0.922  0.4675  0.1692  0.1495
 4843poe    c2323547   1.416   2.712   0.880  0.3005  0.3688  0.3202
 4843poe    c2323548   1.360   2.846   0.928 -0.4897  0.2534 -0.2609
 4843poe     o223549   1.318   2.832   1.062  0.0272  0.6789 -0.0523
 4843poe    c2323550   1.286   2.958   1.116  0.6292  0.8900 -0.1777
 4843poe    c2323551   1.219   2.937   1.253 -0.2745  0.5223 -0.6695
 4843poe     o223552   1.126   2.831   1.245  0.1190  0.0991  0.1904
 4843poe    c2323553   1.040   2.826   1.357  0.2892 -0.1659  0.3097
 4843poe    c2323554   0.927   2.721   1.355 -0.0393  0.1900 -0.2701
 4843poe     o223555   0.967   2.593   1.398  0.0568  0.3758  0.2088
 4843poe    c3123556   0.939   2.567   1.533 -0.0143  0.0008  0.1246
 4844poe    c3123557   3.232   6.859   0.513  0.1821 -0.1814 -0.0959
 4844poe     o223558   3.103   6.914   0.530  0.3704  0.1362  0.3121
 4844poe    c2323559   3.088   6.976   0.655 -0.4504 -0.3018  0.4332
 4844poe    c2323560   2.967   7.072   0.661 -0.1555  0.1301 -0.4368
 4844poe     o223561   2.838   7.017   0.670  0.0519 -0.3681 -0.4529
 4844poe    c2323562   2.793   7.054   0.799  0.1239 -0.1835 -0.4801
 4844poe    c2323563   2.710   6.950   0.877  0.2888  0.4093  0.4979
 4844poe     o223564   2.787   6.839   0.917  0.2506  0.3256  0.3356
 4844poe    c2323565   2.692   6.745   0.962  0.0783  0.3119 -0.0489
 4844poe    c2323566   2.743   6.602   0.988  0.3043  0.3857 -0.0812
 4844poe     o223567   2.820   6.596   1.106  0.0917 -0.0840  0.0362
 4844poe    c3123568   2.873   6.469   1.136  0.2332 -0.1657 -0.5451
 4845poe    c3123569   2.811   4.059   0.619  0.3452  0.3832 -0.3661
 4845poe     o223570   2.785   4.058   0.481 -0.4544  0.0185 -0.2171
 4845poe    c2323571   2.704   3.964   0.413 -0.0011  0.0541 -0.8218
 4845poe    c2323572   2.748   3.817   0.395  0.3841  0.1526 -0.6929
 4845poe     o223573   2.822   3.766   0.287  0.0085 -0.6428 -0.5818
 4845poe    c2323574   2.830   3.625   0.288 -0.2638 -0.6564 -0.1468
 4845poe    c2323575   2.902   3.571   0.163 -0.2586 -0.6976 -0.1259
 4845poe     o223576   2.851   3.620   0.041  0.1859  0.2441  0.0577
 4845poe    c2323577   2.927   3.576  -0.069  0.0532 -0.4000  0.2235
 4845poe    c2323578   2.898   3.657  -0.196 -0.1096 -0.6603  0.0929
 4845poe     o223579   2.760   3.684  -0.212  0.1258  0.4439 -0.1732
 4845poe    c3123580   2.692   3.593  -0.295 -0.7831  0.8795  0.0848
 4846poe    c3123581   1.485   3.659   5.066 -0.0514 -0.4530  0.1036
 4846poe     o223582   1.484   3.769   5.155 -0.1669 -0.1825 -0.2282
 4846poe    c2323583   1.472   3.891   5.086  0.3254  0.1607  0.2900
 4846poe    c2323584   1.476   4.007   5.188 -0.1113  0.5509 -0.1357
 4846poe     o223585   1.371   4.010   5.281  0.3444 -0.3394  0.4156
 4846poe    c2323586   1.393   4.113   5.375  0.1835 -0.0062  0.0915
 4846poe    c2323587   1.258   4.184   5.399  0.3060  0.1857  0.2147
 4846poe     o223588   1.169   4.076   5.421  0.2609  0.2240  0.2194
 4846poe    c2323589   1.049   4.125   5.476 -0.2144  0.1669 -0.7482
 4846poe    c2323590   0.960   4.004   5.510 -0.0393  0.1679 -0.2734
 4846poe     o223591   0.952   3.918   5.398  0.2713 -0.1200 -0.0789
 4846poe    c3123592   0.830   3.847   5.403  0.2186 -0.0508 -0.3923
 4847poe    c3123593   1.460   6.188   0.632 -0.0215  0.3652  0.0303
 4847poe     o223594   1.325   6.192   0.674 -0.1840 -1.2010 -0.2620
 4847poe    c2323595   1.343   6.215   0.812  0.1589 -0.4296 -0.4270
 4847poe    c2323596   1.219   6.172   0.893  0.2336 -0.1399 -0.1583
 4847poe     o223597   1.117   6.265   0.864  0.1776 -0.0371  0.3641
 4847poe    c2323598   0.994   6.202   0.893 -0.1244 -0.0643 -0.9291
 4847poe    c2323599   0.864   6.268   0.843 -0.5039  0.0620  0.1991
 4847poe     o223600   0.843   6.213   0.715  0.0541  0.0640  0.1014
 4847poe    c2323601   0.732   6.261   0.643 -0.1113 -0.6046 -0.0879
 4847poe    c2323602   0.707   6.171   0.520 -0.1926 -0.5543 -0.1082
 4847poe     o223603   0.808   6.193   0.425 -0.2064  0.3052  0.0704
 4847poe    c3123604   0.800   6.067   0.362 -0.4728  0.2468  0.2200
 4848poe    c3123605   0.020   7.191   2.714 -0.3009  0.5859 -0.0657
 4848poe     o223606  -0.007   7.191   2.853 -0.6767 -0.3429 -0.1341
 4848poe    c2323607  -0.141   7.181   2.896 -0.5672  0.0497  0.3043
 4848poe    c2323608  -0.144   7.149   3.046 -0.3964 -0.1645  0.2641
 4848poe     o223609  -0.024   7.081   3.074 -0.3212 -0.1764 -0.0832
 4848poe    c2323610  -0.035   7.061   3.214  0.4939  0.4150  0.0671
 4848poe    c2323611   0.102   7.078   3.282  0.4678 -0.0355  0.2312
 4848poe     o223612   0.203   7.009   3.212  0.3946  0.2886 -0.1923
 4848poe    c2323613   0.331   7.026   3.270  0.2754 -0.1642  0.2058
 4848poe    c2323614   0.444   6.980   3.176  0.4178 -0.0924  0.3416
 4848poe     o223615   0.467   7.084   3.083  0.8932 -0.4044  0.1085
 4848poe    c3123616   0.551   7.043   2.978  0.3465  0.2562 -0.5937
 4849poe    c3123617   5.250   6.010   3.462 -0.0063  0.0666 -0.3759
 4849poe     o223618   5.117   6.045   3.495  0.0520 -0.3569  0.3009
 4849poe    c2323619   5.093   6.169   3.558 -0.1200 -0.0352 -0.3924
 4849poe    c2323620   4.953   6.174   3.623 -0.1761 -0.2396 -0.4959
 4849poe     o223621   4.870   6.126   3.519 -0.3512 -0.1674 -0.3884
 4849poe    c2323622   4.738   6.170   3.545 -0.1439  0.0743  0.2871
 4849poe    c2323623   4.691   6.250   3.422  0.5713 -0.3036 -0.2378
 4849poe     o223624   4.658   6.173   3.308  0.3910 -0.3524 -0.1531
 4849poe    c2323625   4.636   6.274   3.212 -0.3697  0.0770  0.4621
 4849poe    c2323626   4.599   6.218   3.074 -0.3232  0.4754  0.2866
 4849poe     o223627   4.696   6.137   3.010 -0.9311 -0.1090  0.0927
 4849poe    c3123628   4.645   6.071   2.896 -0.5369 -0.6350  0.2228
 4850poe    c3123629   0.979   2.732   3.713 -0.0507 -0.4056  0.0501
 4850poe     o223630   0.890   2.734   3.604 -0.1656  0.9303  0.1439
 4850poe    c2323631   0.979   2.731   3.495 -0.2023 -0.5701  0.1274
 4850poe    c2323632   0.921   2.757   3.355 -0.1533 -0.5027  0.1196
 4850poe     o223633   0.869   2.887   3.338  0.4632 -0.2745 -0.0250
 4850poe    c2323634   0.733   2.891   3.300  0.2521  0.0921  0.7470
 4850poe    c2323635   0.685   3.023   3.236  0.4372 -0.1942  0.0020
 4850poe     o223636   0.687   3.124   3.335 -0.1896 -0.2671  0.0922
 4850poe    c2323637   0.665   3.253   3.284  0.0761 -0.3466 -0.2239
 4850poe    c2323638   0.639   3.358   3.393  0.2231  0.0822 -0.6007
 4850poe     o223639   0.760   3.404   3.449  0.1882 -0.2444 -0.2559
 4850poe    c3123640   0.792   3.536   3.411  0.0454 -0.4691 -1.1658
 4851poe    c3123641   0.978   5.187   5.966 -0.0539 -0.1489  0.5372
 4851poe     o223642   0.994   5.181   5.826 -0.3281  0.5362  0.4779
 4851poe    c2323643   1.053   5.291   5.760 -0.5793  0.3625 -0.0423
 4851poe    c2323644   1.142   5.261   5.638 -0.5369 -0.3384  0.1567
 4851poe     o223645   1.077   5.189   5.535 -0.0265  0.2214 -0.5720
 4851poe    c2323646   1.172   5.165   5.434  0.3754 -0.5073 -0.0336
 4851poe    c2323647   1.126   5.076   5.317 -0.2091 -0.0204 -0.1789
 4851poe     o223648   1.090   4.941   5.339 -0.1304 -0.1003 -0.5300
 4851poe    c2323649   1.149   4.845   5.254  0.1229 -0.4459  0.0310
 4851poe    c2323650   1.113   4.703   5.300  0.0438 -0.3323  0.3255
 4851poe     o223651   0.990   4.651   5.254  0.3681 -0.3182 -0.5687
 4851poe    c3123652   0.967   4.518   5.296 -0.1202 -0.1487 -0.2917
 4852poe    c3123653   4.077   3.237   3.841  0.2524  0.0959 -0.0584
 4852poe     o223654   3.989   3.307   3.926  0.3947  0.4220 -0.1768
 4852poe    c2323655   4.054   3.424   3.970  0.1637  0.4305  0.1470
 4852poe    c2323656   3.963   3.540   4.014 -0.2424 -0.0230  0.5192
 4852poe     o223657   3.880   3.604   3.919  0.1138 -0.5547 -0.1577
 4852poe    c2323658   3.837   3.726   3.974 -0.1538 -0.8019  0.1841
 4852poe    c2323659   3.722   3.773   3.882 -0.1986  0.0754  0.6776
 4852poe     o223660   3.605   3.701   3.913 -0.1835 -0.1908  0.1216
 4852poe    c2323661   3.505   3.723   3.816  0.1012  0.0615 -0.1143
 4852poe    c2323662   3.383   3.631   3.831 -0.0269  0.2233 -0.1548
 4852poe     o223663   3.280   3.676   3.917  0.1073  0.0286  0.1097
 4852poe    c3123664   3.168   3.591   3.903  0.2839 -0.0888 -0.6074
 4853poe    c3123665   3.689   2.881   0.677  0.1931  0.2848 -0.4759
 4853poe     o223666   3.614   2.977   0.749 -0.1549 -0.3311 -0.0024
 4853poe    c2323667   3.669   3.104   0.776 -0.2213 -0.3028 -0.0004
 4853poe    c2323668   3.576   3.176   0.875 -0.0587 -0.4857  0.2873
 4853poe     o223669   3.456   3.215   0.812 -0.1450 -0.7128  0.3115
 4853poe    c2323670   3.397   3.321   0.886  0.2403  0.1832 -0.6414
 4853poe    c2323671   3.458   3.455   0.841 -0.1511  0.5566 -0.0678
 4853poe     o223672   3.430   3.497   0.709 -0.3505  0.3214 -0.1012
 4853poe    c2323673   3.503   3.611   0.672 -0.1264  0.0978 -0.3555
 4853poe    c2323674   3.648   3.598   0.622 -0.1649  0.1086 -0.4704
 4853poe     o223675   3.666   3.524   0.503 -0.4884  0.0518 -0.4841
 4853poe    c3123676   3.800   3.536   0.460 -0.2413  0.1014  0.2739
 4854poe    c3123677   6.745   0.447   6.562  0.3323  0.0078 -0.2741
 4854poe     o223678   6.862   0.417   6.636  0.2455 -0.2385 -0.2368
 4854poe    c2323679   6.843   0.296   6.706  0.1871 -0.1445 -0.0898
 4854poe    c2323680   6.973   0.273   6.786  0.0280  0.3836  0.3242
 4854poe     o223681   6.974   0.354   6.902 -0.1361  0.4876  0.2538
 4854poe    c2323682   7.100   0.345   6.965  0.0073  0.4367 -0.0374
 4854poe    c2323683   7.110   0.444   7.082 -0.1847  0.7801 -0.3062
 4854poe     o223684   7.119   0.577   7.036 -0.5603  0.8480 -0.1911
 4854poe    c2323685   7.139   0.659   7.149  0.0310  0.2107  0.1763
 4854poe    c2323686   7.156   0.805   7.105 -0.0587  0.1044 -0.2093
 4854poe     o223687   7.260   0.814   7.009  0.2685  0.1823  0.1520
 4854poe    c3123688   7.249   0.947   6.962  0.0693 -0.1245 -0.6753
 4855poe    c3123689   0.372   0.908   7.483 -0.0331  0.5909 -0.1757
 4855poe     o223690   0.480   0.970   7.550 -0.1018  0.6806 -0.1483
 4855poe    c2323691   0.612   0.931   7.519 -0.4317 -0.3618 -0.2943
 4855poe    c2323692   0.653   0.933   7.371  0.5110  0.3429 -0.0350
 4855poe     o223693   0.629   1.062   7.319 -1.6733 -0.2991 -0.7476
 4855poe    c2323694   0.655   1.051   7.181 -0.1077 -0.1404 -0.4925
 4855poe    c2323695   0.724   1.177   7.126  0.0622  0.0581  0.1778
 4855poe     o223696   0.669   1.303   7.155 -0.3113 -0.0745  0.0414
 4855poe    c2323697   0.775   1.396   7.149 -0.0139 -0.4451 -0.6012
 4855poe    c2323698   0.719   1.540   7.155  0.2273 -0.3653 -0.2178
 4855poe     o223699   0.605   1.546   7.238 -0.0686 -0.5054 -0.6111
 4855poe    c3123700   0.555   1.677   7.232 -0.2277 -0.5190  0.2560
 4856poe    c3123701   4.212   6.232   3.213 -0.2240  0.2320  0.2708
 4856poe     o223702   4.221   6.128   3.308 -0.2426 -0.3033 -0.3094
 4856poe    c2323703   4.093   6.081   3.342 -0.0625 -0.5161  0.0840
 4856poe    c2323704   4.110   6.014   3.479 -0.1663 -0.5670  0.0724
 4856poe     o223705   4.188   5.897   3.489  0.3625 -0.2043  0.2279
 4856poe    c2323706   4.159   5.798   3.392 -0.3755  0.4220 -0.2070
 4856poe    c2323707   4.275   5.700   3.366 -0.2921  0.3947  0.2482
 4856poe     o223708   4.376   5.740   3.275 -0.0874 -0.1698  0.2250
 4856poe    c2323709   4.350   5.726   3.137 -0.2551 -0.9303  0.3253
 4856poe    c2323710   4.451   5.808   3.054 -0.3411 -0.2178  0.9165
 4856poe     o223711   4.588   5.774   3.062 -0.2012  0.0219 -0.2844
 4856poe    c3123712   4.625   5.687   2.958  0.3600 -0.6212  0.4426
 4857poe    c3123713   0.693   7.098   4.044 -0.4607 -0.1348 -0.1005
 4857poe     o223714   0.707   7.181   4.157  0.1479 -0.3791  0.0081
 4857poe    c2323715   0.634   7.140   4.270 -0.0243 -0.5938 -0.1783
 4857poe    c2323716   0.508   7.229   4.275  0.5227  0.1588  0.4614
 4857poe     o223717   0.536   7.365   4.299 -0.0376  0.2770  0.4561
 4857poe    c2323718   0.423   7.434   4.347 -0.4416 -0.4773  0.6011
 4857poe    c2323719   0.487   7.569   4.386  1.0361 -0.8609 -0.4023
 4857poe     o223720   0.502   7.657   4.277  0.1128 -0.1780  0.0149
 4857poe    c2323721   0.543   7.787   4.316 -0.1624 -0.0373 -0.1603
 4857poe    c2323722   0.575   7.862   4.185 -0.6729  0.2076 -0.1469
 4857poe     o223723   0.636   7.772   4.095 -0.0117 -0.0290  0.5273
 4857poe    c3123724   0.678   7.834   3.976 -0.6411  0.1040  0.3714
 4858poe    c3123725   2.835   2.457   0.739  0.1344 -0.6949  0.3112
 4858poe     o223726   2.931   2.397   0.656  0.1906 -0.2134  0.0303
 4858poe    c2323727   2.967   2.282   0.730  0.1743 -0.1869  0.0791
 4858poe    c2323728   3.112   2.233   0.729  0.1124 -0.3709  0.0835
 4858poe     o223729   3.202   2.321   0.794  0.0374 -0.1099 -0.1629
 4858poe    c2323730   3.306   2.246   0.852  0.3460  0.5369  0.1218
 4858poe    c2323731   3.412   2.221   0.743  0.1377  0.1250  0.0150
 4858poe     o223732   3.518   2.313   0.735  0.0681  0.1905 -0.1534
 4858poe    c2323733   3.627   2.293   0.822 -0.0894 -0.1520 -0.0315
 4858poe    c2323734   3.721   2.415   0.826 -0.6683  0.2895  0.3330
 4858poe     o223735   3.692   2.507   0.928  0.0616 -0.0163  0.8257
 4858poe    c3123736   3.788   2.610   0.932  0.4186 -0.3198  0.1891
 4859poe    c3123737   6.223   6.967   3.912  0.4995  0.1025 -0.0563
 4859poe     o223738   6.155   7.039   3.812 -0.2163 -0.2831  0.1438
 4859poe    c2323739   6.044   7.117   3.852  0.1278  0.5556 -0.5153
 4859poe    c2323740   5.933   7.155   3.752 -0.4353 -0.1496 -0.1656
 4859poe     o223741   5.813   7.086   3.778 -0.5762  0.1947  0.1167
 4859poe    c2323742   5.718   7.100   3.675 -0.5495 -0.4106  0.0030
 4859poe    c2323743   5.596   7.011   3.703 -1.2412  0.2099 -0.9423
 4859poe     o223744   5.647   6.879   3.712 -0.0212  0.7393  0.2840
 4859poe    c2323745   5.532   6.803   3.738  0.4710 -0.0253  0.2479
 4859poe    c2323746   5.570   6.659   3.697  0.1536 -0.2476  0.7241
 4859poe     o223747   5.561   6.644   3.557 -0.1443  0.3052  0.6789
 4859poe    c3123748   5.429   6.632   3.508  0.1106 -0.1359  0.0922
 4860poe    c3123749   6.905   2.725   1.713 -0.4939 -0.2657  1.1183
 4860poe     o223750   6.895   2.594   1.663  0.0650  0.1017  0.0092
 4860poe    c2323751   6.780   2.529   1.712 -0.0277  0.1309 -0.1688
 4860poe    c2323752   6.771   2.377   1.689  0.2199  0.1311 -0.2745
 4860poe     o223753   6.790   2.329   1.558  1.2215  0.2362 -0.1757
 4860poe    c2323754   6.761   2.191   1.565 -0.1232  0.4883 -0.4134
 4860poe    c2323755   6.727   2.118   1.433 -0.2107  0.3390 -0.3076
 4860poe     o223756   6.829   2.141   1.338 -0.5108  0.0331 -0.7023
 4860poe    c2323757   6.796   2.086   1.212 -0.1093 -0.6998 -0.4985
 4860poe    c2323758   6.913   2.091   1.113  0.0924 -0.5050 -0.2516
 4860poe     o223759   6.961   2.224   1.117 -0.3226 -0.3504 -0.3729
 4860poe    c3123760   7.078   2.241   1.040 -0.1537 -0.2398 -0.0941
 4861lim     li23761   0.483   2.871   4.096 -0.9153  0.2768  0.0090
 4862lim     li23762   2.513   2.883   4.935 -0.8050  0.7362 -0.7304
 4863lim     li23763   2.706   0.520   3.648 -0.9331 -1.1920  0.0193
 4864lim     li23764   0.112   1.733   1.050  0.2146  0.0458  0.1707
 4865lim     li23765   2.876   5.703   4.059  0.0180 -0.5050  0.8882
 4866lim     li23766   4.026   1.519   6.709 -0.3412 -1.0997 -0.0328
 4867lim     li23767   0.763   5.518   4.750 -1.5451  0.5840 -0.2523
 4868lim     li23768   2.359   5.197   6.104 -1.3787  0.1783 -0.6904
 4869lim     li23769   2.040   0.990   6.445 -0.1732 -0.5049 -0.8733
 4870lim     li23770   3.842   0.666   3.554  0.7537  0.9753 -0.9979
 4871lim     li23771   7.349   0.550   6.055  0.1034  0.3877  0.2082
 4872lim     li23772   5.310   4.981   0.665  0.7636 -0.5978 -1.2618
 4873lim     li23773   5.536   2.016   4.083  0.4445  0.3500  0.8357
 4874lim     li23774   0.237   5.358   1.571  0.7768  0.4474 -0.1903
 4875lim     li23775   0.684   4.721   3.144 -0.2559  1.5566  0.6264
 4876lim     li23776   6.554   0.486   4.181  1.8645  0.4483 -0.2010
 4877lim     li23777   2.610   4.486   1.852  0.5365 -0.4736  0.4199
 4878lim     li23778   0.894   2.929   5.567 -0.1681  0.3835 -0.3240
 4879lim     li23779   4.957   2.015   6.676 -0.2690  0.5889 -1.2946
 4880lim     li23780   1.626   4.685   6.941 -0.3357 -0.5917  0.2955
 4881lim     li23781   3.324   3.393   0.597  0.1867  0.7162  0.0745
 4882lim     li23782   3.062   6.976   3.858  0.3039  1.2205 -0.1031
 4883lim     li23783   0.336   0.115   6.957  0.9134  0.8533 -0.9910
 4884lim     li23784   6.598   7.031   6.087  0.5032  0.5126  0.5062
 4885lim     li23785   6.265   3.299   1.790 -0.3646  0.1285  0.2810
 4886lim     li23786   1.867   4.480   2.755  0.6268 -0.1011 -0.0055
 4887lim     li23787   5.266   1.614   2.034  0.0560 -0.3599  1.3343
 4888lim     li23788   1.088   4.615   4.665 -0.0041 -0.2162 -0.6594
 4889lim     li23789   3.776   2.433   1.614 -0.7240  0.7558 -0.6574
 4890lim     li23790   2.929   4.464   3.360  0.0826 -0.9091  0.7062
 4891lim     li23791   3.084   3.916   1.662 -0.4823 -1.1637  0.1837
 4892lim     li23792   2.817   1.425   4.736 -1.1196  0.1764 -0.2690
 4893lim     li23793   3.046   6.923   1.124  0.9091  0.1479 -0.6148
 4894lim     li23794   4.468   6.365   2.382 -1.4902  0.1564  0.6012
 4895lim     li23795   0.062   3.382   2.170 -0.2446 -0.1796 -0.6868
 4896lim     li23796   0.418   4.276   1.642 -0.3714  0.0236 -0.4792
 4897lim     li23797   0.876   4.414   5.925  0.5215 -0.6338  1.5754
 4898lim     li23798   0.848   0.848   0.470  0.0567 -1.2265  0.3257
 4899lim     li23799   5.276   2.979   5.033  0.2097  0.3443  0.4125
 4900lim     li23800   1.313   3.789   4.059 -0.0414 -0.1433 -0.3431
 4901lim     li23801   7.467   6.140   7.143  0.5905  0.1628  0.2311
 4902lim     li23802   2.159   5.479   5.726 -0.5336 -1.1285  0.0693
 4903lim     li23803   2.384   7.256   2.188 -0.7272 -0.1220  0.2247
 4904lim     li23804   0.614   1.427   5.374  1.4432 -0.5465  1.0619
 4905lim     li23805   0.617   6.006   4.091  0.3591  0.9469 -0.0915
 4906lim     li23806   5.324   5.499   2.673  0.2255 -0.0245 -0.1210
 4907lim     li23807   3.436   7.351   5.030  0.1059 -0.6675  0.0083
 4908lim     li23808   4.543   1.139   1.159 -0.1578  0.1193  1.0419
 4909lim     li23809   6.608   0.155   2.359 -0.1643 -0.0669 -0.2988
 4910lim     li23810   0.733   2.192   2.546 -0.0741  0.7031  0.0174
 4911lim     li23811   2.097   1.128   2.192  0.2957 -0.8844 -0.3611
 4912lim     li23812   1.833   6.912   0.563  0.4645 -0.2307 -0.2623
 4913lim     li23813   0.027   5.005   3.785 -0.3435 -0.0847 -0.5637
 4914lim     li23814   2.782   2.951   1.816  0.2710  0.0592 -0.0172
 4915lim     li23815   2.830   6.519   2.885  0.8549 -0.7239 -0.0864
 4916lim     li23816   4.505   7.291   1.710 -1.0264 -1.0431 -0.0739
 4917lim     li23817   5.836   0.696   2.825 -0.2679 -0.3806 -0.0117
 4918lim     li23818   1.136   6.348   0.368 -0.3256  0.1786  0.5091
 4919lim     li23819   1.707   2.840   5.266  0.0526 -0.0733  0.3883
 4920lim     li23820   5.711   3.040   3.520 -0.7007 -0.7955 -0.2114
 4921lim     li23821   3.088   2.667   6.873 -0.0428  0.1696  0.2827
 4922lim     li23822   1.321   1.626   5.785 -1.0714 -0.8476 -0.4910
 4923lim     li23823   5.937   1.482   6.693 -0.6476 -0.7743  0.1636
 4924lim     li23824   1.142   0.654   5.743 -0.3593  0.7226 -0.4104
 4925lim     li23825   6.035   7.354   2.516  0.1450 -0.4547  0.1244
 4926lim     li23826   1.121   0.070   0.558 -1.0659 -0.4443 -0.3616
 4927lim     li23827   2.498   1.799   6.273 -0.2577 -0.1881  0.5592
 4928lim     li23828   3.349   6.115   4.411  0.1125 -0.2107  0.4689
 4929lim     li23829   1.045   0.298   1.388 -0.0372 -0.1376 -0.3707
 4930lim     li23830   1.627   3.052   3.506 -0.4368  0.7947  0.7996
 4931lim     li23831   7.402   4.082   6.953  0.0452 -0.2862 -0.4971
 4932lim     li23832   6.847   1.299   3.238  0.2171 -0.3184 -1.0637
 4933lim     li23833   6.925   2.292   1.271  0.0016 -0.6308 -0.1889
 4934lim     li23834   1.895   1.717   5.287  0.0115 -1.2475  0.4939
 4935lim     li23835   5.605   1.593   5.390  0.1366  0.1082  0.2733
 4936lim     li23836   2.572   1.266   5.682  0.0092  0.2958 -0.8226
 4937lim     li23837   6.879   5.361   3.077 -0.2445  0.1593 -0.7794
 4938lim     li23838   0.398   1.583   2.452 -0.3234 -0.3558  0.5684
 4939lim     li23839   1.956   2.883   3.046  0.3567 -0.4402 -0.6638
 4940lim     li23840   3.611   2.976   6.356 -0.1155 -0.7606 -0.6027
 4941lim     li23841   4.248   1.457   5.889  0.2793 -0.6243 -0.1242
 4942lim     li23842   5.938   7.267   4.432  0.3283 -0.7186  0.2917
 4943lim     li23843   5.713   0.065   2.831 -0.3112  0.0071 -0.4972
 4944lim     li23844   3.553   2.673   3.783  0.2876  0.5229  0.9683
 4945lim     li23845   4.554   6.603   0.756  0.5611  0.7350 -0.2050
 4946lim     li23846   1.808   3.104   0.394 -0.1758 -0.4286 -0.3029
 4947lim     li23847   2.955   1.671   1.563  0.1063 -1.2097  0.6154
 4948lim     li23848   7.152   4.774   0.408 -0.0188  0.6430  0.3861
 4949lim     li23849   2.445   4.965   3.187 -0.7408  1.7233  1.6841
 4950lim     li23850   4.433   5.672   2.111  0.1708  1.2277 -0.2032
 4951lim     li23851   7.416   3.203   3.632  1.1475  0.1630 -0.1685
 4952lim     li23852   2.773   6.867   0.334  0.0077 -0.8818  0.0863
 4953lim     li23853   3.910   4.484   4.891 -1.0249 -0.4958  0.4927
 4954lim     li23854   1.233   2.670   1.065 -0.0226  0.5994 -0.3958
 4955lim     li23855   6.847   3.800   7.399  1.2753  0.2337  0.2257
 4956lim     li23856   5.509   1.008   1.136  1.2352  0.1821 -1.2827
 4957lim     li23857   6.257   2.032   3.152  1.3483  1.1791  0.4758
 4958lim     li23858   4.304   7.363   7.404 -0.3254  0.1533 -0.6450
 4959lim     li23859   2.491   0.836   1.242 -0.4617 -0.2707 -0.1208
 4960lim     li23860   7.284   6.469   1.987  0.3419 -0.7133  0.5297
 4961lim     li23861   6.249   5.620   6.840  0.2551  0.3058 -0.2121
 4962lim     li23862   6.428   5.544   5.501  0.3108 -0.4131  0.7523
 4963lim     li23863   7.203   7.203   5.932  0.7956 -0.6491  0.8466
 4964lim     li23864   0.604   0.703   1.228 -0.0992  0.1663  0.0192
 4965lim     li23865   1.692   0.785   2.764 -0.0199  0.2975 -0.1124
 4966lim     li23866   0.840   2.703   6.630 -0.4945 -0.1811 -0.1340
 4967lim     li23867   1.169   0.058   7.070  0.5118  0.5575 -0.3597
 4968lim     li23868   5.530   2.409   6.735 -0.0712 -0.7887 -0.0818
 4969lim     li23869   1.901   4.713   4.026  0.0111  0.8349 -0.0615
 4970lim     li23870   6.717   0.654   4.959 -1.3912  0.2951 -0.6924
 4971lim     li23871   7.397   1.330   2.189 -0.3437 -0.9885 -0.5627
 4972lim     li23872   1.913   4.498   5.006 -0.3997  0.0444  1.1385
 4973lim     li23873   2.009   6.502   7.017  0.9437  0.3825  1.1202
 4974lim     li23874   0.919   2.913   2.640 -0.9871  0.6410  0.6052
 4975lim     li23875   1.622   7.125   3.911  0.0050  0.0273 -1.3621
 4976lim     li23876   5.970   4.287   0.402  1.0287  0.1324 -0.7777
 4977lim     li23877   4.777   4.254   5.710  0.2756 -0.2470  0.8509
 4978lim     li23878   5.459   6.231   0.407 -1.3989  0.3330  0.3350
 4979lim     li23879   5.901   6.567   4.463 -0.3096  0.7099 -0.2420
 4980lim     li23880   0.778   3.129   1.575 -0.5637  0.9116 -0.0277
 4981lim     li23881   5.228   4.959   6.097  0.1772 -0.0821 -1.6724
 4982lim     li23882   0.696   1.659   3.046 -0.1720 -0.4649  0.5959
 4983lim     li23883   4.987   4.340   2.317 -0.0688  0.1934 -1.4892
 4984lim     li23884   6.001   4.173   2.840 -0.5563 -0.5307 -0.8453
 4985lim     li23885   2.547   5.504   4.987  1.0406  0.0990 -0.4716
 4986lim     li23886   5.870   5.123   3.121  0.7406  0.0664 -0.5538
 4987lim     li23887   0.177   1.218   6.895  0.0103  0.2373 -0.9027
 4988lim     li23888   1.540   4.620   1.691 -1.3880  0.6549  1.3547
 4989lim     li23889   5.439   0.381   6.587  0.1915 -0.1052 -1.5762
 4990lim     li23890   2.024   2.145   1.430 -0.6169  0.0371 -1.3292
 4991lim     li23891   7.160   0.782   5.331  0.1510 -0.2240 -0.4029
 4992lim     li23892   5.203   3.693   2.853  0.2650 -0.2212  0.1333
 4993lim     li23893   6.131   2.472   6.204  1.7890 -0.6091 -0.3720
 4994lim     li23894   0.036   1.267   0.067 -0.3141  0.0527  0.2604
 4995lim     li23895   0.624   4.707   7.373 -0.8800  0.1140 -0.9010
 4996lim     li23896   6.389   4.327   1.216  1.5576  0.2072 -0.2972
 4997lim     li23897   1.808   4.116   6.512  0.0272  0.5160  1.2821
 4998lim     li23898   6.788   2.656   2.478  0.8810 -0.0201 -0.5424
 4999lim     li23899   0.750   6.682   4.964 -0.2001  1.0524 -0.4728
 5000lim     li23900   3.285   7.414   2.741  0.2732 -0.4582  0.3578
 5001lim     li23901   0.660   3.520   6.090  0.6582 -0.0937 -0.7764
 5002lim     li23902   5.130   4.714   4.364  1.3656  0.0648  0.2458
 5003lim     li23903   5.514   7.156   6.108  0.6970 -0.2666  0.4943
 5004lim     li23904   2.112   2.688   0.782 -0.7566 -1.3346  0.7813
 5005lim     li23905   3.908   1.886   5.544  0.1718 -0.6611 -0.8782
 5006lim     li23906   4.736   4.284   3.717 -0.2761 -0.4332 -0.9500
 5007lim     li23907   4.065   5.010   6.250  0.2261  0.5891  0.5002
 5008lim     li23908   0.131   5.919   2.629 -0.2071 -0.9316 -0.2022
 5009lim     li23909   2.002   5.625   1.831 -0.0210  0.3964 -0.1793
 5010lim     li23910   2.836   6.253   6.120  0.5524 -0.8297  0.9114
 5011lim     li23911   3.486   3.519   7.142 -0.1628  1.3827 -0.0201
 5012lim     li23912   6.323   0.845   1.685  0.0972 -0.0826 -1.1989
 5013lim     li23913   1.937   0.106   0.889 -0.5774 -1.3959  0.2633
 5014lim     li23914   1.950   6.967   5.723  0.4643  0.0091  1.0354
 5015lim     li23915   4.219   4.211   7.355  0.1370 -0.8257  0.1580
 5016lim     li23916   6.722   6.266   6.902 -0.2710  1.0352  0.4785
 5017lim     li23917   2.420   6.275   6.806 -0.6998  0.7437  0.7741
 5018lim     li23918   4.481   5.867   3.388 -0.8096 -0.4719  0.7191
 5019lim     li23919   6.586   4.149   2.245 -0.1351  0.1321 -0.3580
 5020lim     li23920   7.350   3.680   0.619  0.5010 -0.3895  0.6219
 5021lim     li23921   7.042   6.892   5.100  0.2681 -0.0182 -0.0402
 5022lim     li23922   3.648   6.541   6.268 -0.0282 -0.0002  0.1985
 5023lim     li23923   4.652   3.045   7.193 -0.0971 -0.9527 -0.6983
 5024lim     li23924   3.451   4.545   6.424  0.4559 -1.3360  0.3965
 5025lim     li23925   2.616   4.226   4.349  1.2959  0.7993 -2.2322
 5026lim     li23926   5.122   3.166   6.591  0.3026  0.6776  0.2814
 5027lim     li23927   4.019   5.973   4.700  0.2058  0.1124 -0.5989
 5028lim     li23928   0.158   7.489   0.408 -0.6215 -0.2453  0.0413
 5029lim     li23929   6.532   0.358   0.311  0.1349 -0.4109 -0.3336
 5030lim     li23930   5.209   5.958   5.471  0.4350  0.1620  0.3106
 5031lim     li23931   4.081   7.078   6.377  0.7237 -1.0905 -0.1890
 5032lim     li23932   6.416   4.692   3.870  0.1478 -0.2914  0.2265
 5033lim     li23933   6.889   6.685   1.231 -0.3528  0.4388 -0.1376
 5034lim     li23934   4.400   5.947   5.443 -0.8091 -0.3245 -0.8049
 5035lim     li23935   4.419   2.671   5.456  0.5668  0.4631 -0.0116
 5036lim     li23936   4.680   4.586   0.803  0.1014 -1.2841  0.4452
 5037lim     li23937   0.248   3.186   6.632  0.0946  0.1241  0.8557
 5038lim     li23938   4.650   7.318   6.703  0.5625 -0.5144  0.3238
 5039lim     li23939   2.945   6.073   2.124 -0.2719 -0.1498 -0.2080
 5040lim     li23940   1.752   4.425   0.573  1.0944  0.9317 -1.1246
 5041lim     li23941   0.404   6.740   6.492  1.0220 -0.4501  0.6848
 5042lim     li23942   6.640   0.739   5.821 -0.1709 -0.9042  1.2276
 5043lim     li23943   0.132   2.461   0.399  0.0657  0.4535 -0.7415
 5044lim     li23944   6.981   1.469   6.151  0.9605  1.1049  0.3938
 5045lim     li23945   6.633   2.645   4.301  0.3933 -0.5191  0.3276
 5046lim     li23946   3.277   4.165   5.570  0.2897 -0.2678 -0.3310
 5047lim     li23947   1.110   5.219   0.370  0.9860 -0.2214  0.1720
 5048lim     li23948   0.453   4.730   5.334 -0.4686  0.3564 -0.2014
 5049lim     li23949   2.812   6.761   5.336 -0.5822  0.4367 -0.1233
 5050lim     li23950   4.375   0.059   4.010  1.4685  0.1790 -0.4795
 5051lim     li23951   3.089   0.378   0.176  0.0294  0.6667 -0.4829
 5052lim     li23952   2.180   6.505   1.346  0.7660 -0.2536  0.2671
 5053lim     li23953   6.476   1.894   3.938 -0.1416  0.4589  0.0922
 5054lim     li23954   0.739   6.608   1.717  0.2120  0.7041 -0.9567
 5055lim     li23955   4.618   6.862   4.368  0.5772 -1.0935 -0.4820
 5056lim     li23956   0.541   7.323   5.313  0.4012 -0.4922  0.4960
 5057lim     li23957   3.359   2.657   0.833  0.2116  0.1560  0.0508
 5058lim     li23958   4.330   6.633   5.764  0.0495 -0.4633 -0.6884
 5059lim     li23959   2.265   6.708   2.777  0.2562  0.4411  0.5560
 5060lim     li23960   5.025   0.830   0.389 -0.3843 -0.6504  0.1936
 5061lim     li23961   4.680   1.650   3.261  0.0295  0.4703 -0.1395
 5062lim     li23962   5.125   2.734   5.719  0.1789  1.2401 -0.0939
 5063lim     li23963   6.274   1.369   0.680  0.3870 -0.3016  0.1099
 5064lim     li23964   1.550   1.106   1.161 -0.3787  0.0645 -0.5888
 5065lim     li23965   1.202   5.901   6.772  0.9781 -1.1045  0.6864
 5066lim     li23966   5.294   1.736   4.956 -0.0421 -0.2505  0.2868
 5067lim     li23967   6.633   3.673   4.844  0.0185 -0.3234 -0.1525
 5068lim     li23968   5.588   5.916   5.925 -0.0782 -1.2218  0.4518
 5069lim     li23969   4.918   6.345   6.636  0.5420  0.9168 -0.3449
 5070lim     li23970   7.216   3.919   5.030 -0.6296  0.4430 -0.1743
 5071lim     li23971   2.410   2.143   4.934  0.5693  0.3860  0.2605
 5072lim     li23972   3.292   4.236   4.177  0.6303 -0.0004  0.2981
 5073lim     li23973   4.568   0.962   3.964  0.7159  0.2855  0.2427
 5074lim     li23974   5.264   0.814   4.475  0.6665  0.8002 -1.2527
 5075lim     li23975   2.681   6.054   7.478 -0.8296  0.9994  0.1946
 5076lim     li23976   4.963   5.992   3.442 -0.4229  0.7003 -0.1648
 5077lim     li23977   5.757   3.157   0.631  0.3516 -1.2337  1.1525
 5078lim     li23978   4.429   0.355   2.789 -1.5582  0.0662 -0.7302
 5079lim     li23979   5.891   3.800   4.265  0.0698 -0.9417  0.1831
 5080lim     li23980   0.765   1.736   3.901 -0.4694 -0.2649  1.1406
 5081lim     li23981   3.755   1.682   2.340  0.0307 -0.2655 -0.5454
 5082lim     li23982   6.775   2.927   3.802  0.8584  0.7080  0.0324
 5083lim     li23983   5.686   6.420   5.043  0.8041 -1.0469 -0.4576
 5084lim     li23984   3.810   3.897   1.483 -0.3043  1.6498 -0.3678
 5085lim     li23985   5.382   4.187   1.281  0.6214 -0.6585  0.9475
 5086lim     li23986   1.988   4.517   7.488 -0.3329 -0.5175 -0.3097
 5087lim     li23987   5.075   0.417   0.746 -0.2196 -0.3781 -1.0943
 5088lim     li23988   2.968   1.601   7.003 -0.7298 -0.0001  0.2759
 5089lim     li23989   6.590   0.737   3.224  0.6743 -0.4070 -0.2897
 5090lim     li23990   3.604   0.817   4.572 -0.4411  0.6395  0.2727
 5091lim     li23991   0.298   2.921   5.186  0.3045  0.2732  0.0149
 5092lim     li23992   1.664   6.358   4.968 -0.8186  0.2107 -0.0810
 5093lim     li23993   5.847   1.594   2.776 -0.1906 -2.2894  0.1993
 5094lim     li23994   6.820   7.472   1.461  0.2353  0.3698  0.8887
 5095lim     li23995   5.450   3.472   5.356  0.3529 -0.0805  1.1049
 5096lim     li23996   2.379   5.201   1.079 -0.4856  0.4996  0.8865
 5097lim     li23997   1.843   4.332   3.530  0.8701  0.3687  1.3476
 5098lim     li23998   6.151   6.086   3.879 -0.0397  0.0026 -0.9914
 5099lim     li23999   4.998   3.660   4.142 -0.0234 -0.7230  0.0766
 5100lim     li24000   7.155   4.279   3.442 -0.5776 -0.4557  0.2481
 5101lim     li24001   0.743   5.144   6.732  0.9378 -0.2644  0.3532
 5102lim     li24002   5.213   4.230   2.907 -1.0297  0.2403  1.1371
 5103lim     li24003   6.983   6.152   4.186 -0.5315 -0.4784 -0.6398
 5104lim     li24004   4.311   1.563   2.854 -0.3895  0.0942  1.0765
 5105lim     li24005   5.041   2.459   2.139  0.1586 -0.0737 -0.4124
 5106lim     li24006   7.456   3.181   2.679  0.0026 -0.3257  0.2788
 5107lim     li24007   1.777   2.400   5.956  0.9783  0.3199 -0.1251
 5108lim     li24008   4.508   3.213   3.919 -0.0941 -0.2193  0.0795
 5109lim     li24009   5.847   3.499   3.766  0.2895  0.5888 -0.0249
 5110lim     li24010   0.680   0.899   4.590 -0.2162  0.6914  0.1203
 5111lim     li24011   1.193   3.925   5.318 -0.0782 -0.9034  0.1552
 5112lim     li24012   5.953   4.159   5.365  0.6463  0.5456 -0.3201
 5113lim     li24013   1.497   6.047   5.718 -0.1659  1.4084 -0.8034
 5114lim     li24014   6.471   5.224   1.812 -0.5515 -0.0301  0.0789
 5115lim     li24015   5.644   7.235   6.862 -0.2952  0.5053 -0.7480
 5116lim     li24016   0.604   0.462   6.406  0.5024  0.9635  0.4032
 5117lim     li24017   3.687   3.527   3.345  0.2894  0.8766 -0.9248
 5118lim     li24018   1.615   3.639   2.893  0.2870  0.6990 -0.4021
 5119lim     li24019   2.091   5.428   0.264 -1.4236  0.1548  0.7315
 5120lim     li24020   6.234   1.277   4.052  1.4101  0.1199  0.8159
 5121lim     li24021   2.452   2.942   6.828 -0.3705 -0.5545  0.7087
 5122lim     li24022   7.217   0.594   6.588  0.6079  0.1199 -0.7090
 5123lim     li24023   2.067   7.264   6.618 -1.5933  0.4419  0.4242
 5124lim     li24024   5.860   5.295   4.745 -0.2027  0.3836 -1.0291
 5125lim     li24025   1.670   5.219   0.563 -1.0827 -0.8805  0.6759
 5126lim     li24026   4.345   2.550   7.232  0.1470 -0.5158  0.4855
 5127lim     li24027   3.165   3.245   1.219 -1.1456 -0.1660 -0.3310
 5128lim     li24028   5.513   0.059   5.048 -0.0988  0.5523  0.1269
 5129lim     li24029   3.988   1.662   4.570 -0.6924  0.1917 -0.3520
 5130lim     li24030   0.330   5.813   3.656  0.5643  0.4284 -0.0363
 5131lim     li24031   2.333   0.893   0.651  1.3104  0.5363  0.6104
 5132lim     li24032   4.207   0.068   5.877  0.4312 -0.8859 -1.0146
 5133lim     li24033   6.512   6.030   1.432  0.5100  0.0589 -0.4001
 5134lim     li24034   4.103   5.196   7.117  0.1620  0.3730 -0.7350
 5135lim     li24035   6.485   1.789   4.981  0.0530 -0.2789 -0.5566
 5136lim     li24036   7.266   4.074   5.990  0.6000  0.0207 -0.8109
 5137lim     li24037   5.207   5.233   5.172  1.1124  0.2087  0.3567
 5138lim     li24038   3.063   2.082   4.815 -1.3717  0.1600  0.1235
 5139lim     li24039   3.457   1.119   1.354  0.1412 -0.1434 -0.0493
 5140lim     li24040   1.474   1.079   0.046 -0.8204 -0.0739  0.1132
 5141lim     li24041   2.799   6.723   4.661  0.6525  0.5681 -0.4243
 5142lim     li24042   2.000   7.243   5.052 -0.0925  0.8906  0.2736
 5143lim     li24043   1.339   3.071   2.292  0.9993  0.4966 -0.6490
 5144lim     li24044   7.187   1.768   5.073  0.7736  0.1314  0.2690
 5145lim     li24045   0.384   3.392   1.459  0.5088  0.0402  0.1036
 5146lim     li24046   2.927   4.075   7.466 -0.8554  0.4752  0.6293
 5147lim     li24047   6.976   0.023   3.603 -0.9523 -0.3856 -0.5185
 5148lim     li24048   2.589   3.115   3.358 -0.0218 -1.5829 -0.1793
 5149lim     li24049   5.144   4.043   6.122  1.0318 -0.3206 -0.1291
 5150lim     li24050   5.570   6.129   6.413  0.6856  0.3518 -0.7830
 5151lim     li24051   2.817   6.902   3.506 -0.5594  0.6279  0.1526
 5152lim     li24052   4.064   0.436   2.173  0.3800 -0.7192 -0.1702
 5153lim     li24053   4.214   1.720   1.604 -0.2585  0.0357  0.1128
 5154lim     li24054   7.126   3.344   5.366 -0.8296 -0.5441  0.8443
 5155lim     li24055   4.547   2.995   1.236 -0.4102  0.2539 -0.7327
 5156lim     li24056   2.651   5.228   2.358 -0.0665 -0.4126 -1.1729
 5157lim     li24057   5.036   7.075   3.209  0.6470 -0.3613  0.4811
 5158lim     li24058   0.481   5.984   5.924  0.5254 -0.9664 -0.1432
 5159lim     li24059   5.501   2.301   4.690 -0.6404  0.0967  0.6337
 5160lim     li24060   1.473   6.969   1.933 -1.1578  0.8655  1.8319
 5161lim     li24061   2.017   4.036   1.556 -0.2770  0.7242 -0.3135
 5162lim     li24062   1.219   5.582   3.413  0.0998 -0.3070 -1.2069
 5163lim     li24063   2.097   4.519   5.962 -0.2271 -0.1106 -0.1547
 5164lim     li24064   1.544   5.720   1.424 -0.4640 -0.6853  0.5964
 5165lim     li24065   0.087   1.172   4.185  0.0786  0.2748  0.5261
 5166lim     li24066   0.171   6.146   5.127 -0.4299 -0.6817 -0.0217
 5167lim     li24067   5.243   0.315   3.756 -0.1939 -0.2579  0.7729
 5168lim     li24068   2.015   1.961   3.727  0.0391 -0.6383  0.2282
 5169lim     li24069   6.796   4.665   4.837 -0.0668 -0.0135 -0.3052
 5170lim     li24070   1.808   5.760   2.337  1.3591 -0.0315  0.1106
 5171lim     li24071   6.929   7.107   2.364 -0.3413  0.2363  0.1277
 5172lim     li24072   1.963   6.285   3.241  0.6576  0.8819  0.0627
 5173lim     li24073   3.367   7.393   4.256 -0.5437  0.4637  0.0727
 5174lim     li24074   0.912   6.779   7.051  0.1444 -0.7834 -0.9387
 5175lim     li24075   3.843   0.967   7.417  0.3491  0.2573 -0.0201
 5176lim     li24076   3.979   5.676   2.646  0.1266  1.2275  0.4806
 5177lim     li24077   5.545   3.238   1.568 -0.0576 -0.0282 -0.0164
 5178lim     li24078   2.892   3.009   4.452  0.5575  0.1313  0.8381
 5179lim     li24079   2.551   1.047   5.070 -0.0812 -0.3888 -0.2555
 5180lim     li24080   1.751   5.529   4.334 -0.3929  0.4996 -0.4479
 5181lim     li24081   4.383   3.058   1.942 -0.3630  0.3919  1.1191
 5182lim     li24082   3.154   5.199   0.380 -0.5971 -0.0387  0.0297
 5183lim     li24083   2.277   3.384   1.111 -0.7550  0.2056 -0.5611
 5184lim     li24084   0.075   6.990   0.210  0.3146 -0.9110 -0.6663
 5185lim     li24085   5.707   2.082   1.178 -0.0814 -0.2390 -0.1230
 5186lim     li24086   2.432   2.614   0.422  0.6901  1.2069  1.5567
 5187lim     li24087   2.003   2.493   2.181 -0.0878  0.1002  0.3222
 5188lim     li24088   6.311   5.270   2.781  0.5182  0.8395 -0.6503
 5189lim     li24089   0.708   3.796   3.849  0.0085  0.6369 -0.0328
 5190lim     li24090   3.634   4.262   6.957 -0.7117 -0.2728  0.0152
 5191lim     li24091   1.855   3.526   1.792 -0.4807  0.4249 -0.6314
 5192lim     li24092   4.242   4.694   1.702  0.2954 -0.2095 -0.4930
 5193lim     li24093   2.640   3.799   3.103 -0.3725  1.0222  0.6831
 5194lim     li24094   2.470   3.780   6.928  0.7854  0.1062 -0.5205
 5195lim     li24095   6.014   0.402   1.243  0.2656 -0.0918  0.0901
 5196lim     li24096   5.026   0.879   5.926  0.2372  0.0880 -1.0829
 5197lim     li24097   5.349   3.618   0.258  0.0861  1.4154 -0.8183
 5198lim     li24098   6.255   0.715   3.787  0.4272 -0.7200 -0.1782
 5199lim     li24099   6.078   1.378   1.958 -0.3694  0.1255 -0.6575
 5200lim     li24100   6.025   0.865   5.268 -0.1051  0.8479  0.5565
 5201lim     li24101   2.889   2.404   1.974 -0.6052 -0.2539  0.0316
 5202lim     li24102   3.585   6.885   6.795 -0.8331 -0.4562 -0.6764
 5203lim     li24103   0.901   0.204   2.338 -0.2008 -0.6643  1.8352
 5204lim     li24104   7.255   6.928   4.174 -0.2011  0.1149 -1.0942
 5205lim     li24105   6.615   3.761   0.717 -0.5003 -0.1195 -0.0884
 5206lim     li24106   0.105   7.106   2.965 -0.0090 -0.0606  0.6859
 5207lim     li24107   2.504   3.032   5.866 -0.2655 -0.1347  0.9395
 5208lim     li24108   4.643   2.270   1.346 -0.2083  0.2786 -0.8683
 5209lim     li24109   7.145   3.900   3.027  0.9864  1.0633 -0.1978
 5210lim     li24110   2.579   0.210   7.209 -1.0760 -0.2141 -1.3648
 5211lim     li24111   4.000   3.659   2.465  0.1725  0.2015  0.4278
 5212lim     li24112   2.177   3.969   5.517 -0.3203 -0.2127  0.1729
 5213lim     li24113   2.696   3.980   5.243  0.1138 -0.4823  0.2387
 5214lim     li24114   4.079   6.074   0.528 -0.3535 -0.1266 -0.6413
 5215lim     li24115   4.383   0.669   6.253  0.3648 -0.7746 -0.6903
 5216lim     li24116   1.978   0.037   4.636 -0.9746  0.0624 -0.0495
 5217lim     li24117   6.081   2.351   2.345 -0.8748  0.1905  0.6411
 5218lim     li24118   5.384   0.650   7.494  0.1434 -0.7402 -0.7493
 5219lim     li24119   2.858   2.309   2.990  0.3911 -1.1727 -0.4322
 5220lim     li24120   6.861   6.326   3.105 -0.9374 -0.2606  0.0018
 5221lim     li24121   1.618   0.289   2.990 -0.8409  0.4751 -0.7404
 5222lim     li24122   3.421   1.352   5.912  0.3104  0.8370  0.0990
 5223lim     li24123   5.675   1.513   6.021  0.9279 -0.0642  1.2912
 5224lim     li24124   0.552   1.689   5.989  0.6941  0.4728 -0.7275
 5225lim     li24125   3.232   3.947   2.465 -0.4779 -0.3568  0.2656
 5226lim     li24126   1.192   3.421   0.120  0.0136 -0.2767  0.1628
 5227lim     li24127   3.967   1.987   0.475  0.5236 -1.0652  1.1859
 5228lim     li24128   0.414   3.162   0.564  0.1305  0.1281 -0.6925
 5229lim     li24129   4.999   1.149   7.085 -0.1220  0.0827 -0.1059
 5230lim     li24130   1.443   5.126   4.244  0.5182  0.1404  0.5263
 5231lim     li24131   3.495   0.456   6.313 -0.1429 -0.4507  0.4332
 5232lim     li24132   5.261   6.627   2.681  0.3354  1.1908 -0.1925
 5233lim     li24133   4.068   1.006   4.850  0.1828 -0.2051 -0.2557
 5234lim     li24134   3.993   5.681   7.143  0.2384  0.6443  0.7528
 5235lim     li24135   4.561   3.292   0.595  0.1200  0.1198 -0.2104
 5236lim     li24136   1.477   3.099   6.978 -0.2756  0.3263  0.9811
 5237lim     li24137   5.215   1.429   2.956 -0.2937 -0.3721  0.7578
 5238lim     li24138   6.411   1.965   0.230 -0.1379  0.1711  0.4851
 5239lim     li24139   5.221   2.441   3.801 -0.9989  0.9460  0.0691
 5240lim     li24140   4.842   5.260   2.823 -1.0853 -0.4905 -0.1382
 5241lim     li24141   4.331   3.670   6.828  0.1392 -0.0795 -0.1836
 5242lim     li24142   5.652   4.806   3.965  0.1889 -0.0772 -0.4173
 5243lim     li24143   0.055   2.729   3.805  0.9375 -0.3133  0.0452
 5244lim     li24144   6.384   4.883   0.156  0.2722  0.4174  0.1526
 5245lim     li24145   4.173   6.894   3.879 -0.8942 -0.1876 -0.4548
 5246lim     li24146   3.678   7.182   0.487  0.3358  0.4444 -0.7342
 5247lim     li24147   4.371   7.257   5.247 -0.1878 -0.2676 -0.4351
 5248lim     li24148   5.238   4.176   0.002  0.8821  0.7161 -1.0616
 5249lim     li24149   1.404   0.050   5.873 -1.2184  1.0641  0.7826
 5250lim     li24150   4.933   5.942   1.264 -0.5087 -0.4477  0.0967
 5251lim     li24151   7.203   5.661   0.592  0.4010  0.1846  0.7662
 5252lim     li24152   1.935   2.126   6.447 -0.5037  0.2157  1.4295
 5253lim     li24153   0.030   7.396   1.074  0.6141 -1.0346 -0.3444
 5254lim     li24154   0.146   4.093   4.213  0.8526 -0.5992 -0.1305
 5255lim     li24155   3.067   2.307   0.332 -0.6963 -0.7281  0.0662
 5256lim     li24156   7.445   2.399   3.076  0.3288 -0.3924  0.0599
 5257lim     li24157   1.888   6.007   0.162  0.2791 -0.4357 -0.0403
 5258lim     li24158   1.116   6.769   4.310 -0.3801  0.3692 -0.3986
 5259lim     li24159   7.258   2.591   1.567  0.2853  0.6023  0.1901
 5260lim     li24160   5.838   6.320   0.734  0.9506 -0.6536  0.5530
 5261lim     li24161   3.215   5.464   6.720  1.0717  0.6462  0.1883
 5262lim     li24162   3.301   0.228   1.019 -0.4406  0.6138  0.8518
 5263lim     li24163   2.937   4.502   7.272 -0.5841  0.0504 -0.0489
 5264lim     li24164   0.738   0.171   3.438 -1.3810  0.0213  0.3917
 5265lim     li24165   2.029   1.939   4.439 -0.3218  0.0856  1.1994
 5266lim     li24166   1.260   0.985   6.755  0.1460 -0.2608 -0.1742
 5267lim     li24167   3.700   5.077   3.197 -0.0111  0.0122 -0.6002
 5268lim     li24168   6.515   3.624   2.386 -1.0340  0.4626  0.0014
 5269lim     li24169   4.012   4.921   0.706 -0.7928 -0.8231  1.4841
 5270lim     li24170   1.859   3.207   2.272  0.1974  0.3250 -0.9264
 5271lim     li24171   6.550   1.044   7.021  0.2625 -0.2190  0.0031
 5272lim     li24172   0.635   4.175   0.672  0.5162  0.8044 -0.1838
 5273lim     li24173   7.260   1.725   7.403  0.1203 -0.6321  1.5142
 5274lim     li24174   7.411   6.750   6.940  0.3490  0.1274  0.1060
 5275lim     li24175   3.065   1.583   2.435 -0.2993  0.3082  1.2714
 5276lim     li24176   4.088   2.509   6.192  0.1015  0.6523 -0.4216
 5277lim     li24177   0.144   5.454   5.874 -0.0276 -0.0155 -1.0746
 5278lim     li24178   3.947   5.886   4.045 -0.4689  0.1077 -0.1831
 5279lim     li24179   0.245   0.719   2.880 -1.3955  0.2318  0.2690
 5280lim     li24180   1.236   0.244   4.354 -0.3452  0.8648 -0.1920
 5281lim     li24181   1.968   2.173   2.794  0.5898  0.2308  0.3926
 5282lim     li24182   0.705   5.817   1.068  0.5365 -0.4655  0.3103
 5283lim     li24183   3.130   0.035   6.661  0.2574 -0.1794  0.9014
 5284lim     li24184   5.809   2.256   0.087  0.1535 -0.1235  0.6461
 5285lim     li24185   0.528   1.394   7.242 -1.1381  0.7364  0.3404
 5286lim     li24186   1.278   5.907   6.147  0.7484  0.2481 -0.5180
 5287lim     li24187   6.682   2.511   5.676 -0.3966 -1.1088  0.8908
 5288lim     li24188   4.680   5.898   7.268 -0.2466 -0.2105 -0.1614
 5289lim     li24189   5.469   6.142   2.543  0.3780  0.1967 -0.5150
 5290lim     li24190   1.458   1.801   7.084  0.3024  1.6593  0.0207
 5291lim     li24191   4.114   0.474   0.062 -0.5363  0.0897  0.5543
 5292lim     li24192   5.935   3.049   2.926 -0.7187 -0.5097 -0.2181
 5293lim     li24193   7.115   0.517   1.616 -0.8149 -1.1337  0.1452
 5294lim     li24194   2.790   2.027   5.757  0.8569  0.3932  0.0724
 5295lim     li24195   5.972   7.061   0.878  0.4579 -0.0955  0.3282
 5296lim     li24196   3.311   6.280   0.289  1.0770 -0.1616  0.4583
 5297lim     li24197   5.634   6.856   3.236 -0.4825  0.5351 -0.8845
 5298lim     li24198   5.023   2.314   2.801 -0.7747  0.7589  0.6831
 5299lim     li24199   4.611   0.986   5.447 -0.6029  0.7888 -0.4276
 5300lim     li24200   0.215   1.117   1.139  0.4655 -0.2347  0.2414
 5301lim     li24201   5.233   5.849   7.350  0.3181  0.2970  0.4681
 5302lim     li24202   1.256   1.655   3.232 -0.0171  0.0200 -0.4441
 5303lim     li24203   1.805   3.357   5.719 -0.2165 -0.8429 -0.0622
 5304lim     li24204   0.704   2.057   6.305 -0.2519 -0.1140  0.6711
 5305lim     li24205   7.289   5.223   7.132 -0.2066 -0.2312  0.0933
 5306lim     li24206   4.000   5.317   5.687  0.1556  0.1446 -0.4496
 5307lim     li24207   1.670   7.050   6.066  0.4861  0.9566  0.8602
 5308lim     li24208   6.707   6.356   6.158 -0.1379  0.9515  0.8630
 5309lim     li24209   3.657   3.721   4.596 -0.2152 -0.2349  0.5758
 5310lim     li24210   4.362   1.013   1.977  0.0866 -1.1876 -0.3527
 5311lim     li24211   6.820   4.954   2.716  0.3087 -0.6477  0.7219
 5312lim     li24212   6.289   6.080   2.257  0.9160  1.0067  0.5143
 5313lim     li24213   2.118   7.479   1.379  0.6661  0.1903 -0.4975
 5314lim     li24214   3.507   3.066   5.425 -1.0504  0.1060  0.5537
 5315lim     li24215   3.082   6.216   3.264  0.2434 -0.2419  1.1348
 5316lim     li24216   7.202   2.472   7.434 -0.1319  0.3172  0.6743
 5317lim     li24217   4.200   4.223   5.417 -1.1883  1.6094  0.1135
 5318lim     li24218   7.142   5.374   6.033 -1.0114  0.3383 -0.3102
 5319lim     li24219   4.917   1.786   4.165 -0.8506  0.4447  1.0560
 5320lim     li24220   5.913   6.887   0.025  0.8290  0.6328  0.0081
 5321lim     li24221   3.108   5.136   4.381 -0.4219  0.5607  0.4741
 5322lim     li24222   7.442   0.251   4.440 -0.1888 -0.5900  0.0338
 5323lim     li24223   3.904   6.774   2.452 -1.1222 -0.3585 -0.0991
 5324lim     li24224   3.793   3.548   5.799 -0.1135  1.2052 -0.3831
 5325lim     li24225   3.070   1.734   3.658  0.3144  0.6616  0.2731
 5326lim     li24226   5.059   6.161   4.028  0.8641  0.3001 -0.1916
 5327lim     li24227   1.216   6.065   2.910  0.3471 -0.0114 -0.0334
 5328lim     li24228   3.479   5.791   1.439 -0.0182  0.6022 -1.1051
 5329lim     li24229   6.179   4.993   6.828  0.5988 -0.9479 -0.6710
 5330lim     li24230   3.931   4.768   3.721 -1.1281  1.1323  0.0839
 5331lim     li24231   5.895   3.635   5.763  0.5320 -0.1860  1.3056
 5332lim     li24232   1.735   3.328   4.676  0.2066 -0.7034 -1.7451
 5333lim     li24233   4.744   2.384   0.504 -0.2815  0.0387 -0.4168
 5334lim     li24234   7.233   7.391   4.807 -0.7485 -0.2908 -0.9044
 5335lim     li24235   6.405   3.596   6.133 -0.0068 -0.3863 -0.6682
 5336lim     li24236   3.429   6.430   5.435 -0.4678 -0.0836  0.0053
 5337lim     li24237   0.564   0.112   4.114 -0.9011  0.3607 -0.0696
 5338lim     li24238   2.254   1.415   0.485  0.0349 -0.0278 -0.2889
 5339lim     li24239   4.637   7.127   0.933 -0.3555  0.5551  0.1175
 5340lim     li24240   5.883   7.061   1.627 -0.1966  0.1454 -0.2964
 5341lim     li24241   3.708   5.662   1.977 -0.3344 -0.2371 -0.3166
 5342lim     li24242   1.062   7.068   2.677  0.3213  1.5838 -0.0548
 5343lim     li24243   5.659   5.560   1.730  0.8443  0.7028 -0.2394
 5344lim     li24244   6.756   4.493   6.581 -0.0491 -0.6926 -0.4759
 5345lim     li24245   0.996   2.191   4.801  0.0842  1.0556 -0.0803
 5346lim     li24246   5.850   3.821   6.652  0.2747  0.0963  0.4733
 5347lim     li24247   3.996   1.376   0.265 -1.2640 -0.6703 -0.2833
 5348lim     li24248   0.221   4.137   5.052  0.0098 -0.1651  0.2659
 5349lim     li24249   4.346   2.541   4.801  0.2295  0.7197  0.3038
 5350lim     li24250   4.671   5.138   6.642  0.9195 -0.3493 -0.5280
 5351lim     li24251   4.565   4.998   4.847  0.2826 -0.3741 -0.1409
 5352lim     li24252   4.905   0.358   1.655 -0.3315 -0.2041 -0.6462
 5353lim     li24253   3.099   0.637   2.672 -0.0196  0.8543 -1.6331
 5354lim     li24254   1.844   0.916   4.751 -0.2176 -0.0096  0.3065
 5355lim     li24255   3.970   2.918   2.455 -0.2822  1.3545  1.3543
 5356lim     li24256   0.409   1.574   4.769  0.1335 -0.3154 -0.2364
 5357lim     li24257   1.334   1.414   3.915 -0.5571  0.6736 -0.2634
 5358lim     li24258   2.717   5.190   7.058 -0.1017  0.4343 -0.0717
 5359lim     li24259   7.333   2.660   4.749  0.2238 -0.8643 -0.1113
 5360lim     li24260   0.652   6.771   0.826  0.3029 -0.1752 -0.7849
 5361lim     li24261   6.362   0.469   6.820 -1.1128  0.6553  0.0734
 5362lim     li24262   1.067   4.710   1.207 -0.6241 -0.5987  0.3534
 5363lim     li24263   3.133   5.198   1.932 -0.3504  1.4468 -0.0514
 5364lim     li24264   5.365   2.099   0.516  0.1293  0.1265 -0.7430
 5365lim     li24265   6.988   2.241   6.467 -0.2150 -0.9183  0.7474
 5366lim     li24266   6.818   3.166   6.843  0.9072 -0.4404 -0.0051
 5367lim     li24267   1.006   3.137   3.579  0.2432  0.8825  1.2493
 5368lim     li24268   4.164   4.240   0.665  0.4786  0.6311  0.2766
 5369lim     li24269   6.935   3.289   6.139  0.7689  0.8851 -0.1000
 5370lim     li24270   6.528   5.573   4.056  0.8543 -0.2031 -0.4381
 5371lim     li24271   7.368   1.700   3.764 -1.1275 -0.6856  0.3564
 5372lim     li24272   1.172   2.233   1.276  0.7693  0.1917  0.0182
 5373lim     li24273   6.203   6.965   3.477 -0.0093  0.4593 -0.8077
 5374lim     li24274   1.502   1.003   2.375  0.5982  0.8262  1.0106
 5375lim     li24275   6.955   5.202   5.120  0.6977  0.4058  1.3923
 5376lim     li24276   6.927   6.248   0.214 -0.2405  0.3239  0.4770
 5377lim     li24277   2.688   3.182   4.018 -0.0434  0.3822  0.9550
 5378lim     li24278   0.279   6.738   3.839 -0.1478  0.1701 -0.3333
 5379lim     li24279   6.934   3.088   0.729  0.2494 -0.2737  1.0530
 5380lim     li24280   0.737   3.858   2.736 -0.0287  0.4388 -0.8810
 5381lim     li24281   5.257   6.764   1.714  0.3940 -0.2909 -0.3703
 5382lim     li24282   3.141   5.108   5.452 -0.3167  0.1474 -1.1135
 5383lim     li24283   2.786   0.965   3.481  0.4047  1.2068 -0.1517
 5384lim     li24284   0.919   4.759   2.294  0.0199  0.4290  0.8861
 5385lim     li24285   1.949   1.408   3.231 -0.1451 -0.6262  0.0582
 5386lim     li24286   4.224   2.435   2.684 -0.7412  0.0154 -0.3363
 5387lim     li24287   0.497   5.919   7.261  0.4115 -0.0123  0.8553
 5388lim     li24288   0.808   1.828   0.451  0.5528 -0.6652  0.1447
 5389lim     li24289   6.068   3.062   7.099  0.4451 -0.0553  0.6963
 5390lim     li24290   4.476   3.332   4.764  0.4741 -0.0689 -0.1625
 5391lim     li24291   3.546   6.590   1.562  1.0506 -0.9254  1.0423
 5392lim     li24292   2.775   0.037   5.938 -0.4374 -0.1152 -0.7835
 5393lim     li24293   6.654   7.222   0.036  0.2812 -1.0922  0.2230
 5394lim     li24294   1.036   2.371   6.961 -0.1959  0.3947  0.2590
 5395lim     li24295   4.050   7.061   3.098 -0.0741 -1.3111  0.4419
 5396lim     li24296   1.138   4.200   6.827  1.0621 -0.1047  0.4283
 5397lim     li24297   6.286   5.576   5.990  0.3415  1.5614  0.6717
 5398lim     li24298   6.217   1.986   1.222 -0.7166  0.7660 -0.9594
 5399lim     li24299   6.319   3.263   4.694 -0.1645  0.1147  0.7167
 5400lim     li24300   2.857   0.437   2.222  0.0931 -0.1026 -0.6747
 5401ntf    cn124301   4.869   6.269   0.237 -0.4562  0.3774 -0.0752
 5401ntf    sn224302   4.879   6.118   0.136 -0.5431  0.1561  0.2465
 5401ntf    nn324303   4.909   6.013   0.249  0.0712 -0.4366 -0.4594
 5401ntf    sn224304   5.028   5.922   0.297  0.0881 -0.1329  0.0818
 5401ntf    cn124305   4.944   5.779   0.372  0.0372 -0.3423 -0.3698
 5401ntf    fn424306   4.945   6.272   0.345  0.1824 -0.2837 -0.4988
 5401ntf    fn424307   4.898   6.375   0.163 -0.3405  0.2797 -0.1695
 5401ntf    fn424308   4.743   6.285   0.276 -0.4043 -0.1105  0.2955
 5401ntf    on524309   4.746   6.108   0.083 -0.4545  0.0975  0.0361
 5401ntf    on524310   4.994   6.135   0.051 -0.9558  0.1103 -0.3260
 5401ntf    on524311   5.101   5.987   0.402 -0.5132  0.5630  0.0771
 5401ntf    on524312   5.113   5.868   0.194 -0.5576  0.4224 -0.7511
 5401ntf    fn424313   4.856   5.729   0.286 -0.2170  0.1253 -0.3888
 5401ntf    fn424314   5.017   5.674   0.404  0.3853 -0.1118 -0.4053
 5401ntf    fn424315   4.863   5.805   0.473  0.3646  0.1401 -0.2300
 5402ntf    cn124316   5.958   3.356   5.132  0.1535  0.6788 -0.0302
 5402ntf    sn224317   6.026   3.449   5.272 -0.1023  0.2302  0.3990
 5402ntf    nn324318   6.111   3.336   5.340  0.0752 -0.1127 -0.3880
 5402ntf    sn224319   6.071   3.236   5.454 -0.2124  0.0307 -0.3639
 5402ntf    cn124320   6.079   3.074   5.371 -0.0188 -0.3446  0.3781
 5402ntf    fn424321   5.884   3.257   5.181  0.4347  0.5908  0.2219
 5402ntf    fn424322   5.874   3.433   5.065 -0.4267  0.4268  0.3924
 5402ntf    fn424323   6.041   3.308   5.041  0.0608  0.4371  0.0089
 5402ntf    on524324   6.107   3.545   5.201 -0.1608 -0.1176 -0.1398
 5402ntf    on524325   5.915   3.504   5.345 -0.0962  0.6544  0.0896
 5402ntf    on524326   5.934   3.248   5.499 -0.1695 -0.3261 -0.1314
 5402ntf    on524327   6.183   3.230   5.545 -0.4031  0.0544 -0.1273
 5402ntf    fn424328   6.087   2.967   5.449  0.5631 -0.5178  0.0788
 5402ntf    fn424329   5.976   3.060   5.290  0.1809  0.2099  0.0199
 5402ntf    fn424330   6.176   3.071   5.282 -0.1640  0.2779  0.1910
 5403ntf    cn124331   6.889   6.215   2.359 -0.2149 -0.2876 -0.0146
 5403ntf    sn224332   6.918   6.212   2.179  0.2364 -0.3698  0.0589
 5403ntf    nn324333   7.048   6.124   2.168  0.4578 -0.0275 -0.0848
 5403ntf    sn224334   7.067   6.003   2.070 -0.0087 -0.2426  0.0872
 5403ntf    cn124335   7.000   5.874   2.179 -0.2212 -0.2213 -0.0160
 5403ntf    fn424336   6.918   6.100   2.418 -0.0881 -0.5874 -0.6410
 5403ntf    fn424337   6.965   6.306   2.417 -0.0068 -0.1337 -0.5223
 5403ntf    fn424338   6.765   6.243   2.396 -0.0910  0.1998  0.0344
 5403ntf    on524339   6.801   6.143   2.131 -0.2470  0.3126  0.2435
 5403ntf    on524340   6.939   6.349   2.139 -0.0925 -0.3004  0.1243
 5403ntf    on524341   7.205   5.963   2.062  0.0310 -0.0569 -0.1601
 5403ntf    on524342   6.989   6.003   1.949 -0.0022  0.7863  0.0747
 5403ntf    fn424343   7.009   5.753   2.126  0.2579 -0.4727  0.6230
 5403ntf    fn424344   7.053   5.863   2.300  0.0054 -0.1851 -0.1102
 5403ntf    fn424345   6.869   5.888   2.193 -0.2446  0.3208 -0.7521
 5404ntf    cn124346   2.922   1.257   0.772 -0.1547  0.1356  0.2065
 5404ntf    sn224347   2.802   1.181   0.886  0.0167 -0.1175  0.2181
 5404ntf    nn324348   2.784   1.300   0.987 -0.2646  0.0075  0.0229
 5404ntf    sn224349   2.664   1.400   1.000 -0.1557  0.1640 -0.1621
 5404ntf    cn124350   2.756   1.542   1.065  0.0120  0.0811 -0.2185
 5404ntf    fn424351   2.890   1.233   0.646  0.0298 -0.0438  0.1946
 5404ntf    fn424352   2.922   1.387   0.796 -0.6766  0.2000 -0.1299
 5404ntf    fn424353   3.046   1.215   0.790 -0.1575 -0.0219 -0.1411
 5404ntf    on524354   2.685   1.154   0.806 -0.0347  0.5625  0.0555
 5404ntf    on524355   2.877   1.071   0.941  0.1021 -0.0162  0.3034
 5404ntf    on524356   2.569   1.369   1.104  0.1237  0.2795  0.1282
 5404ntf    on524357   2.610   1.449   0.875 -0.8449  0.4381  0.2373
 5404ntf    fn424358   2.818   1.529   1.182  0.2773 -0.2622 -0.3940
 5404ntf    fn424359   2.853   1.583   0.985  0.0635  0.2934 -0.0489
 5404ntf    fn424360   2.673   1.643   1.083 -0.2682 -0.1014 -0.4887
 5405ntf    cn124361   6.500   6.665   4.692 -0.2492 -0.3387  0.2937
 5405ntf    sn224362   6.382   6.789   4.629  0.1713 -0.0652  0.0398
 5405ntf    nn324363   6.343   6.860   4.764 -0.0872 -0.1218 -0.0056
 5405ntf    sn224364   6.357   7.011   4.803  0.2595 -0.1901  0.1303
 5405ntf    cn124365   6.324   6.997   4.981  0.1542  0.3006  0.1500
 5405ntf    fn424366   6.621   6.658   4.640 -0.4181  0.1035 -0.1681
 5405ntf    fn424367   6.512   6.685   4.822  0.0498 -0.0877  0.2278
 5405ntf    fn424368   6.451   6.543   4.675  0.3956 -0.4830 -0.6201
 5405ntf    on524369   6.461   6.859   4.530 -0.1834 -0.0397 -0.2258
 5405ntf    on524370   6.269   6.713   4.581  0.1049  0.3330 -0.4405
 5405ntf    on524371   6.247   7.097   4.767 -0.1626 -0.2627  1.1981
 5405ntf    on524372   6.488   7.072   4.800  0.0542  0.2508  0.1502
 5405ntf    fn424373   6.338   7.109   5.050 -0.5166  0.3568  0.2024
 5405ntf    fn424374   6.200   6.952   4.991  0.2856 -0.2598 -0.6821
 5405ntf    fn424375   6.401   6.909   5.043  0.0244  0.2658  0.2602
 5406ntf    cn124376   0.500   2.742   7.412  0.1764 -0.1191  0.1983
 5406ntf    sn224377   0.492   2.604   7.529  0.0828 -0.3094 -0.0328
 5406ntf    nn324378   0.551   2.679   7.654  0.0126 -0.2311 -0.0468
 5406ntf    sn224379   0.643   2.616   7.764  0.3055  0.2591 -0.0106
 5406ntf    cn124380   0.811   2.670   7.721  0.2537  0.4066 -0.0307
 5406ntf    fn424381   0.422   2.718   7.308  0.0884  0.0504  0.2247
 5406ntf    fn424382   0.446   2.848   7.472  0.0145 -0.0265 -0.1051
 5406ntf    fn424383   0.622   2.777   7.376 -0.1532  0.5575 -0.3046
 5406ntf    on524384   0.352   2.567   7.529 -0.1186  0.4438 -0.6207
 5406ntf    on524385   0.579   2.505   7.469  0.5229 -0.1599  0.3566
 5406ntf    on524386   0.659   2.473   7.765  0.0632  0.2303 -0.0804
 5406ntf    on524387   0.612   2.677   7.891 -0.4072 -0.6854  0.2823
 5406ntf    fn424388   0.816   2.800   7.697  0.3315  0.4322  0.1228
 5406ntf    fn424389   0.894   2.652   7.823  0.5779  0.2925 -0.3093
 5406ntf    fn424390   0.865   2.596   7.626  0.1352 -0.2912  0.4320
 5407ntf    cn124391   0.433   5.900   3.156 -0.2607  0.3334  0.2697
 5407ntf    sn224392   0.514   5.738   3.176 -0.6917  0.0840 -0.0019
 5407ntf    nn324393   0.421   5.653   3.082 -0.3030  0.1584 -0.4612
 5407ntf    sn224394   0.275   5.601   3.107 -0.1011 -0.1043  0.1914
 5407ntf    cn124395   0.289   5.432   3.041  0.1901 -0.0006 -0.0138
 5407ntf    fn424396   0.420   5.918   3.026  0.3151  0.2265  0.1935
 5407ntf    fn424397   0.313   5.902   3.212 -0.0702  0.3839  0.6788
 5407ntf    fn424398   0.508   5.998   3.204  0.2050  0.0441  0.1336
 5407ntf    on524399   0.643   5.751   3.113 -0.6217 -0.2861  0.0625
 5407ntf    on524400   0.509   5.708   3.317  0.4992  0.7854  0.2022
 5407ntf    on524401   0.175   5.652   3.017 -0.5687 -0.0216  0.7469
 5407ntf    on524402   0.234   5.573   3.243  0.0981 -0.1088  0.2500
 5407ntf    fn424403   0.381   5.352   3.091  0.1191 -0.2990 -0.3616
 5407ntf    fn424404   0.176   5.366   3.061  0.1652  0.0667  0.0683
 5407ntf    fn424405   0.305   5.435   2.910 -0.2599 -0.1949 -0.0753
 5408ntf    cn124406   4.914   3.671   7.293 -0.3095 -0.3059 -0.4404
 5408ntf    sn224407   4.880   3.799   7.168  0.1685  0.2154 -0.0388
 5408ntf    nn324408   4.833   3.703   7.053  0.0927  0.2563 -0.0412
 5408ntf    sn224409   4.909   3.652   6.926  0.0239  0.0848 -0.0143
 5408ntf    cn124410   4.925   3.803   6.827  0.0017  0.0123 -0.1282
 5408ntf    fn424411   4.831   3.568   7.289 -0.5181 -0.1403 -0.3741
 5408ntf    fn424412   5.035   3.618   7.284 -0.2219 -0.2342  0.2499
 5408ntf    fn424413   4.906   3.720   7.415  0.1960 -0.4510 -0.3456
 5408ntf    on524414   4.775   3.879   7.224 -0.1887 -0.6507  0.5548
 5408ntf    on524415   5.006   3.866   7.147  0.2129  0.1923  0.1525
 5408ntf    on524416   4.827   3.565   6.845 -0.1635 -0.4837  0.7823
 5408ntf    on524417   5.045   3.610   6.950  0.1733  0.3673 -0.3564
 5408ntf    fn424418   4.998   3.795   6.716  0.1087  0.6098 -0.1065
 5408ntf    fn424419   4.808   3.855   6.792 -0.2117 -0.6103 -0.3605
 5408ntf    fn424420   4.981   3.902   6.894  0.7242 -0.3220 -0.2298
 5409ntf    cn124421   5.400   6.324   3.270 -0.4032 -0.2214  0.3411
 5409ntf    sn224422   5.318   6.426   3.144  0.0738 -0.2149  0.0325
 5409ntf    nn324423   5.215   6.504   3.234 -0.3439 -0.5982 -0.1092
 5409ntf    sn224424   5.077   6.575   3.209 -0.1139 -0.1151 -0.0080
 5409ntf    cn124425   4.967   6.437   3.253  0.0742 -0.2014  0.1938
 5409ntf    fn424426   5.501   6.380   3.334 -0.4830  0.1919  0.1043
 5409ntf    fn424427   5.320   6.293   3.371 -0.2276 -0.3426  0.4422
 5409ntf    fn424428   5.459   6.214   3.227  0.0545  0.1388  0.0439
 5409ntf    on524429   5.426   6.508   3.094  0.1426 -0.1098  0.3501
 5409ntf    on524430   5.250   6.337   3.053  0.0064  0.1526 -0.2786
 5409ntf    on524431   5.041   6.607   3.073  1.0113  0.4623 -0.1855
 5409ntf    on524432   5.048   6.674   3.310  0.1890 -0.1699  0.1349
 5409ntf    fn424433   4.953   6.354   3.151 -0.0607 -0.4490  0.4145
 5409ntf    fn424434   5.012   6.370   3.358 -0.0351  0.0032  0.3715
 5409ntf    fn424435   4.846   6.486   3.275  0.1875 -0.0810  0.5624
 5410ntf    cn124436   7.372   7.259   2.125 -0.4898 -0.0663  0.2353
 5410ntf    sn224437   7.276   7.164   2.003  0.0526  0.1803 -0.3925
 5410ntf    nn324438   7.148   7.254   2.019  0.2443  0.3618  0.1371
 5410ntf    sn224439   7.086   7.355   1.916  0.0133 -0.0271 -0.1074
 5410ntf    cn124440   6.913   7.335   1.968 -0.1521  0.4464 -0.4643
 5410ntf    fn424441   7.301   7.285   2.234 -0.2835  0.2216  0.3012
 5410ntf    fn424442   7.483   7.198   2.163 -0.2907  0.1647  0.0255
 5410ntf    fn424443   7.407   7.383   2.095  0.1610 -0.2318  0.3020
 5410ntf    on524444   7.353   7.166   1.882  1.1014  0.1649  0.2653
 5410ntf    on524445   7.272   7.040   2.077  1.0873  0.2273 -0.2425
 5410ntf    on524446   7.084   7.317   1.777 -0.1238 -0.3319 -0.0216
 5410ntf    on524447   7.122   7.490   1.954 -0.0985 -0.2768  0.9286
 5410ntf    fn424448   6.871   7.210   1.977  0.7633  0.1336 -0.4144
 5410ntf    fn424449   6.872   7.393   2.080  0.4731  0.2795 -0.1418
 5410ntf    fn424450   6.840   7.393   1.874 -0.2391  0.3618 -0.4502
 5411ntf    cn124451   0.663   1.569   0.848  0.0133 -0.6460  0.1884
 5411ntf    sn224452   0.604   1.483   0.699 -0.4073 -0.1267  0.0482
 5411ntf    nn324453   0.452   1.469   0.737 -0.3870  0.5917  0.4024
 5411ntf    sn224454   0.375   1.343   0.788 -0.3411  0.3457 -0.1271
 5411ntf    cn124455   0.360   1.244   0.636 -0.0364  0.3526 -0.1617
 5411ntf    fn424456   0.793   1.590   0.837 -0.1197  0.0714 -0.0654
 5411ntf    fn424457   0.609   1.689   0.867  0.2918 -0.3788 -0.6665
 5411ntf    fn424458   0.650   1.506   0.964  0.0167  0.5496  0.8573
 5411ntf    on524459   0.624   1.573   0.589 -0.6579 -0.0155  0.0938
 5411ntf    on524460   0.685   1.364   0.691 -0.1645  0.0250  0.2344
 5411ntf    on524461   0.239   1.362   0.831 -0.2470 -0.0051  0.3477
 5411ntf    on524462   0.463   1.268   0.875 -0.0613  0.3979 -0.3664
 5411ntf    fn424463   0.337   1.308   0.523 -0.0206 -0.0032 -0.3662
 5411ntf    fn424464   0.463   1.166   0.604  0.0261  0.3794 -0.0266
 5411ntf    fn424465   0.261   1.158   0.644  0.1032  0.1413 -0.6691
 5412ntf    cn124466   5.200   3.014   7.234  0.2204  0.1909 -0.3060
 5412ntf    sn224467   5.109   3.170   7.263  0.0911  0.0770 -0.0939
 5412ntf    nn324468   5.106   3.159   7.419  0.1248 -1.0925 -0.1594
 5412ntf    sn224469   4.985   3.149   7.518  0.2100  0.0521  0.0757
 5412ntf    cn124470   5.088   3.136   7.668  0.2550 -0.1018  0.0309
 5412ntf    fn424471   5.213   3.002   7.103  0.5882 -0.9232 -0.1731
 5412ntf    fn424472   5.321   3.008   7.288  0.2943  0.0308 -0.4906
 5412ntf    fn424473   5.132   2.912   7.282  0.1200  0.4223  0.0516
 5412ntf    on524474   5.195   3.276   7.216  0.1832  0.2277  0.4130
 5412ntf    on524475   4.983   3.155   7.196 -0.0101 -0.4141  0.2021
 5412ntf    on524476   4.915   3.024   7.505 -0.2629  0.3379 -0.1360
 5412ntf    on524477   4.911   3.269   7.552  0.5138  0.2352  0.0939
 5412ntf    fn424478   5.030   3.106   7.782 -0.1686  0.7455  0.0462
 5412ntf    fn424479   5.184   3.046   7.654  0.1551 -0.2750  0.4777
 5412ntf    fn424480   5.153   3.249   7.690  0.1746 -0.0221 -0.1407
 5413ntf    cn124481   5.552   1.780   2.288  0.0028 -0.4150  0.4731
 5413ntf    sn224482   5.510   1.891   2.426 -0.1921  0.2124 -0.0903
 5413ntf    nn324483   5.353   1.884   2.438 -0.1646  0.4605  0.4451
 5413ntf    sn224484   5.271   1.799   2.541 -0.1664 -0.3778 -0.2285
 5413ntf    cn124485   5.109   1.797   2.457 -0.1992 -0.1108 -0.1746
 5413ntf    fn424486   5.662   1.800   2.218 -0.3676 -0.3124 -0.0822
 5413ntf    fn424487   5.557   1.658   2.339 -0.5055 -0.1899  1.0908
 5413ntf    fn424488   5.461   1.776   2.192  0.5560 -0.3692 -0.0604
 5413ntf    on524489   5.588   1.838   2.534  0.2248  0.6332 -0.1798
 5413ntf    on524490   5.555   2.014   2.364 -0.3319  0.4536  0.2820
 5413ntf    on524491   5.247   1.874   2.662 -0.5698 -0.6329 -0.1491
 5413ntf    on524492   5.297   1.659   2.558 -0.4590 -0.3834  0.2013
 5413ntf    fn424493   5.114   1.722   2.348  0.3294 -0.1915 -0.1002
 5413ntf    fn424494   5.016   1.742   2.534 -0.2297 -0.0846 -0.1932
 5413ntf    fn424495   5.055   1.908   2.411  0.3680  0.2048 -0.0851
 5414ntf    cn124496   5.841   2.240   1.590  0.0383 -0.0112 -0.3319
 5414ntf    sn224497   5.969   2.248   1.719 -0.2768  0.0477 -0.0228
 5414ntf    nn324498   6.037   2.381   1.672 -0.0884 -0.0816 -0.1174
 5414ntf    sn224499   6.120   2.414   1.542 -0.2771  0.4446 -0.1077
 5414ntf    cn124500   6.273   2.458   1.630 -0.1795  0.3143 -0.2129
 5414ntf    fn424501   5.894   2.245   1.468  0.2800 -0.4096 -0.2461
 5414ntf    fn424502   5.777   2.124   1.601  0.1088 -0.0264 -0.0724
 5414ntf    fn424503   5.749   2.334   1.604  0.3189  0.2662 -0.3463
 5414ntf    on524504   5.893   2.262   1.841 -0.2859 -0.4898  0.0359
 5414ntf    on524505   6.041   2.126   1.691  0.1313  0.2697  0.0542
 5414ntf    on524506   6.084   2.537   1.477  0.1205  0.4677 -0.2833
 5414ntf    on524507   6.161   2.300   1.463  0.0446  0.6773 -0.2789
 5414ntf    fn424508   6.336   2.351   1.677  0.2018  0.5338 -0.2231
 5414ntf    fn424509   6.361   2.510   1.547 -0.6264  0.1612 -0.7879
 5414ntf    fn424510   6.255   2.531   1.739 -0.2688 -0.0316  0.0081
 5415ntf    cn124511   4.411   5.105   3.469 -0.3598  0.1947 -0.0113
 5415ntf    sn224512   4.396   5.236   3.344 -0.1294  0.2568  0.0256
 5415ntf    nn324513   4.373   5.131   3.230  0.1271  0.0981  0.1184
 5415ntf    sn224514   4.239   5.087   3.161  0.3530 -0.0579 -0.2239
 5415ntf    cn124515   4.236   4.910   3.205 -0.0277  0.0324  0.1197
 5415ntf    fn424516   4.292   5.053   3.493 -0.0321 -0.3625  0.4396
 5415ntf    fn424517   4.490   5.012   3.418 -0.2470  0.3294 -0.0840
 5415ntf    fn424518   4.463   5.148   3.583 -0.2154 -0.2434  0.0899
 5415ntf    on524519   4.282   5.315   3.385 -0.3542 -0.2674  0.4234
 5415ntf    on524520   4.520   5.309   3.344  0.1657 -0.2412  0.0670
 5415ntf    on524521   4.251   5.089   3.017  0.2328 -0.4326 -0.2404
 5415ntf    on524522   4.116   5.137   3.217  0.4281  0.0584 -0.1621
 5415ntf    fn424523   4.320   4.832   3.140  0.0719  0.1981  0.0497
 5415ntf    fn424524   4.275   4.899   3.331 -0.0767 -0.3382  0.1012
 5415ntf    fn424525   4.117   4.853   3.195  0.2161 -0.3191 -0.8596
 5416ntf    cn124526   1.742   4.320   5.851  0.0988 -0.1202  0.2062
 5416ntf    sn224527   1.744   4.169   5.953  0.0260 -0.1328  0.1887
 5416ntf    nn324528   1.641   4.087   5.868 -0.1852  0.1290  0.1902
 5416ntf    sn224529   1.674   3.954   5.790 -0.2077  0.2519 -0.0290
 5416ntf    cn124530   1.508   3.905   5.736 -0.0600 -0.2519 -0.0295
 5416ntf    fn424531   1.778   4.299   5.725  0.2986 -0.0409  0.2485
 5416ntf    fn424532   1.619   4.368   5.856  0.3514  0.5172  0.4091
 5416ntf    fn424533   1.814   4.422   5.895 -0.0045  0.1355 -0.2119
 5416ntf    on524534   1.885   4.142   5.938  0.0653  0.0056  0.3002
 5416ntf    on524535   1.690   4.215   6.078  0.4315 -0.1515  0.3739
 5416ntf    on524536   1.716   3.843   5.872 -0.4350 -0.0526 -0.3242
 5416ntf    on524537   1.743   3.976   5.665  0.4750  1.3124  0.5168
 5416ntf    fn424538   1.441   3.992   5.662  0.3262 -0.2109 -0.3349
 5416ntf    fn424539   1.497   3.792   5.667  0.0323 -0.1253 -0.2539
 5416ntf    fn424540   1.428   3.891   5.840  0.3344  0.4081  0.3700
 5417ntf    cn124541   2.141   1.421   4.747 -0.3227 -0.5727  0.2165
 5417ntf    sn224542   2.110   1.397   4.924 -0.1028  0.2317  0.3677
 5417ntf    nn324543   2.160   1.532   4.988  0.2026  0.3719 -0.1621
 5417ntf    sn224544   2.307   1.566   5.033  0.1151  0.2392  0.2328
 5417ntf    cn124545   2.306   1.520   5.209  0.1580 -0.1224  0.1399
 5417ntf    fn424546   2.097   1.319   4.677  0.3401 -0.4944 -0.3265
 5417ntf    fn424547   2.076   1.523   4.693  0.3518 -0.2942 -0.0792
 5417ntf    fn424548   2.268   1.445   4.718 -0.3422 -0.5314  0.1642
 5417ntf    on524549   1.966   1.392   4.932 -0.1348  0.2149 -0.1775
 5417ntf    on524550   2.177   1.276   4.963 -0.6752 -0.2327 -0.0865
 5417ntf    on524551   2.340   1.706   5.035  0.4117  0.1645  0.5330
 5417ntf    on524552   2.401   1.479   4.967 -0.4119 -0.2222  0.0796
 5417ntf    fn424553   2.424   1.550   5.260  0.1896  0.4413 -0.2420
 5417ntf    fn424554   2.216   1.586   5.280 -0.1300 -0.1621 -0.1873
 5417ntf    fn424555   2.280   1.393   5.235  0.3918 -0.2821 -0.3896
 5418ntf    cn124556   1.317   5.697   4.775 -0.2479 -0.4503  0.1956
 5418ntf    sn224557   1.395   5.643   4.619  0.0834  0.3423  0.0833
 5418ntf    nn324558   1.298   5.524   4.586 -0.1180  0.4962  0.1090
 5418ntf    sn224559   1.165   5.526   4.504 -0.1048 -0.3205  0.0592
 5418ntf    cn124560   1.231   5.469   4.345  0.2802  0.3837 -0.0352
 5418ntf    fn424561   1.405   5.759   4.851 -0.1257 -0.6808  0.2407
 5418ntf    fn424562   1.213   5.775   4.752  0.1662  0.0213 -0.0943
 5418ntf    fn424563   1.268   5.600   4.850  0.3768 -0.9160  0.0098
 5418ntf    on524564   1.377   5.761   4.538 -0.4435  0.1088 -0.1470
 5418ntf    on524565   1.528   5.604   4.659 -0.0640 -0.2538 -0.0007
 5418ntf    on524566   1.105   5.653   4.473  0.4585 -0.1779 -0.4691
 5418ntf    on524567   1.073   5.419   4.533 -0.3999 -0.0542  0.1137
 5418ntf    fn424568   1.135   5.423   4.267  0.3366  0.4251 -0.1309
 5418ntf    fn424569   1.299   5.561   4.278  0.2156  0.4242 -0.0441
 5418ntf    fn424570   1.324   5.376   4.358 -0.0016  0.0870 -0.1255
 5419ntf    cn124571   2.218   5.281   4.492 -0.3518 -0.1671  0.0223
 5419ntf    sn224572   2.159   5.230   4.327  0.1297 -0.3316 -0.1001
 5419ntf    nn324573   2.258   5.316   4.241 -0.2961 -0.1957 -0.4552
 5419ntf    sn224574   2.240   5.381   4.099  0.0552  0.1215 -0.3579
 5419ntf    cn124575   2.329   5.253   4.005 -0.4096 -0.2324 -0.3195
 5419ntf    fn424576   2.137   5.227   4.581  0.2431 -0.2465  0.5192
 5419ntf    fn424577   2.346   5.256   4.513 -0.2504  0.2255 -0.1226
 5419ntf    fn424578   2.210   5.412   4.505 -0.0074 -0.1492  0.0488
 5419ntf    on524579   2.194   5.090   4.321 -0.2649 -0.4357  0.0148
 5419ntf    on524580   2.019   5.261   4.322  0.1510 -0.2211 -0.0149
 5419ntf    on524581   2.316   5.502   4.082 -0.2281  0.3477 -0.0105
 5419ntf    on524582   2.104   5.395   4.052  0.1647  0.1538 -0.6701
 5419ntf    fn424583   2.340   5.290   3.878 -0.5735  0.1394 -0.2255
 5419ntf    fn424584   2.450   5.237   4.055 -0.6762  0.1463  0.4514
 5419ntf    fn424585   2.274   5.132   4.010 -0.3479 -0.2403  0.1909
 5420ntf    cn124586   3.699   5.406   5.154 -0.1994 -0.4381 -0.0517
 5420ntf    sn224587   3.706   5.270   5.275  0.1216 -0.1719  0.2319
 5420ntf    nn324588   3.791   5.168   5.191 -0.0966 -0.7057  0.6549
 5420ntf    sn224589   3.945   5.140   5.197  0.0575  0.0693  0.4867
 5420ntf    cn124590   3.955   4.989   5.298  0.4596 -0.1445  0.1324
 5420ntf    fn424591   3.810   5.476   5.138 -0.2315 -0.3611  0.0643
 5420ntf    fn424592   3.657   5.372   5.033 -0.3659  0.0341 -0.1263
 5420ntf    fn424593   3.602   5.490   5.184  0.2240  0.0182  0.0443
 5420ntf    on524594   3.759   5.329   5.395 -0.1540  0.7352 -0.0825
 5420ntf    on524595   3.567   5.232   5.284  0.3206 -1.0566 -0.3622
 5420ntf    on524596   4.016   5.237   5.277  0.1764  0.6367 -0.2962
 5420ntf    on524597   3.996   5.103   5.067 -0.2963 -0.2726  0.4407
 5420ntf    fn424598   3.870   4.983   5.400  0.5275 -0.3761  0.1765
 5420ntf    fn424599   3.934   4.880   5.226 -0.2932 -0.1623  0.3720
 5420ntf    fn424600   4.071   4.978   5.361  0.2661 -0.2831  0.4680
 5421ntf    cn124601   7.042   0.632   2.581  0.1255  0.2773 -0.2297
 5421ntf    sn224602   7.033   0.457   2.535  0.2955  0.1700  0.1400
 5421ntf    nn324603   7.154   0.470   2.436 -0.2067  0.7200 -0.4093
 5421ntf    sn224604   7.158   0.452   2.280  0.0350 -0.0107 -0.3258
 5421ntf    cn124605   7.322   0.374   2.276 -0.0707 -0.2429 -0.0852
 5421ntf    fn424606   7.068   0.713   2.480  0.4746  0.2927 -0.1286
 5421ntf    fn424607   6.943   0.679   2.655  0.0926 -0.2239  0.0510
 5421ntf    fn424608   7.149   0.642   2.658  0.0594 -0.3861 -0.0412
 5421ntf    on524609   7.055   0.385   2.658  0.2469  0.7002  0.4573
 5421ntf    on524610   6.903   0.458   2.474  0.4247 -0.0471 -0.1405
 5421ntf    on524611   7.161   0.574   2.203 -0.5276 -0.1812 -0.6187
 5421ntf    on524612   7.067   0.348   2.240 -0.1996  0.2234 -0.4002
 5421ntf    fn424613   7.331   0.259   2.341 -0.5590 -0.0473  0.3317
 5421ntf    fn424614   7.360   0.348   2.152  0.1329  0.1036 -0.0970
 5421ntf    fn424615   7.416   0.452   2.327 -0.2371  0.3886 -0.7403
 5422ntf    cn124616   3.620   7.109   5.556  0.0746  0.4921  0.4944
 5422ntf    sn224617   3.770   7.148   5.460 -0.0406  0.0274  0.1229
 5422ntf    nn324618   3.800   7.005   5.403  0.1348  0.2940 -0.4568
 5422ntf    sn224619   3.697   6.925   5.315  0.0756 -0.1496  0.0088
 5422ntf    cn124620   3.812   6.831   5.210  0.2691 -0.0089  0.0941
 5422ntf    fn424621   3.512   7.071   5.489  0.2060  0.6230  0.2078
 5422ntf    fn424622   3.633   7.013   5.645  0.1362 -0.4126 -0.4711
 5422ntf    fn424623   3.585   7.212   5.632 -0.0784  0.5243  0.3796
 5422ntf    on524624   3.740   7.243   5.356 -0.1609 -0.1452 -0.0013
 5422ntf    on524625   3.864   7.194   5.559 -0.1967  0.0753  0.2498
 5422ntf    on524626   3.625   7.013   5.226  0.1924  0.2651  0.3229
 5422ntf    on524627   3.623   6.828   5.392 -0.1230  0.0784  0.1056
 5422ntf    fn424628   3.755   6.775   5.105 -0.1209  0.5164  0.0235
 5422ntf    fn424629   3.907   6.911   5.164  0.7056 -0.8157 -0.4240
 5422ntf    fn424630   3.876   6.733   5.272 -0.1427 -0.3572 -0.0263
 5423ntf    cn124631   3.847   1.467   3.566  0.3516  0.2424  0.1322
 5423ntf    sn224632   3.760   1.598   3.475 -0.2054 -0.2469 -0.0477
 5423ntf    nn324633   3.702   1.491   3.376  0.2685 -0.6746  0.1318
 5423ntf    sn224634   3.713   1.460   3.223  0.1686  0.3536 -0.0941
 5423ntf    cn124635   3.540   1.469   3.168  0.1236  0.4471  0.0610
 5423ntf    fn424636   3.908   1.522   3.670 -0.3743  0.8120  0.2656
 5423ntf    fn424637   3.764   1.374   3.610  0.0351  0.4645  0.0138
 5423ntf    fn424638   3.929   1.399   3.487  0.2698  0.5032 -0.1797
 5423ntf    on524639   3.655   1.641   3.565  0.3062  0.1504  0.3716
 5423ntf    on524640   3.861   1.691   3.429 -0.0608 -0.5575 -0.3555
 5423ntf    on524641   3.735   1.320   3.196 -0.3061  0.2834 -0.1164
 5423ntf    on524642   3.796   1.548   3.145  0.0726  0.3434 -0.2091
 5423ntf    fn424643   3.468   1.386   3.240  0.3515 -0.0224 -0.2461
 5423ntf    fn424644   3.487   1.590   3.170  0.0424  0.4259 -0.5502
 5423ntf    fn424645   3.530   1.428   3.042  0.5778 -0.0049  0.1658
 5424ntf    cn124646   2.977   1.108   2.080 -0.2598  0.3561  0.0163
 5424ntf    sn224647   2.810   1.092   2.151 -0.4014  0.0079 -0.3912
 5424ntf    nn324648   2.816   1.217   2.246  0.6627  0.0580 -0.5120
 5424ntf    sn224649   2.725   1.345   2.243  0.0291 -0.3780 -0.0766
 5424ntf    cn124650   2.587   1.297   2.352  0.3520  0.3160  0.6531
 5424ntf    fn424651   3.007   1.004   2.005 -0.1456  0.6175 -0.2990
 5424ntf    fn424652   2.980   1.216   2.004 -0.1764  0.4599  0.1668
 5424ntf    fn424653   3.078   1.114   2.165  0.0288  0.2681 -0.3239
 5424ntf    on524654   2.728   1.110   2.034 -0.9096 -0.3115 -0.0876
 5424ntf    on524655   2.811   0.958   2.203 -0.2112  0.4291  0.7142
 5424ntf    on524656   2.659   1.384   2.121 -0.4927 -0.4319  0.1849
 5424ntf    on524657   2.792   1.452   2.313  0.6774 -0.5399 -0.4448
 5424ntf    fn424658   2.524   1.194   2.298  0.1900  0.5421  0.4061
 5424ntf    fn424659   2.642   1.265   2.467  0.0834 -0.1072  0.6658
 5424ntf    fn424660   2.500   1.392   2.384 -0.3358  0.0411 -0.3288
 5425ntf    cn124661   1.589   2.515   2.943 -0.2864  0.2240  0.1856
 5425ntf    sn224662   1.449   2.629   2.970 -0.1231  0.5624 -0.3818
 5425ntf    nn324663   1.333   2.536   3.019 -0.1624  0.9502  0.2665
 5425ntf    sn224664   1.305   2.486   3.166 -0.1048  0.0330 -0.0240
 5425ntf    cn124665   1.192   2.615   3.227 -0.0583  0.1837 -0.2549
 5425ntf    fn424666   1.700   2.572   2.898 -0.1701  0.5257  0.8424
 5425ntf    fn424667   1.619   2.454   3.057 -0.1983  0.0365  0.0616
 5425ntf    fn424668   1.564   2.421   2.854  0.4884  0.2819 -0.0976
 5425ntf    on524669   1.494   2.731   3.061  0.4915  0.0889 -0.1448
 5425ntf    on524670   1.433   2.677   2.835 -0.0453  0.4816 -0.4201
 5425ntf    on524671   1.422   2.486   3.250  0.0830  0.0821 -0.2844
 5425ntf    on524672   1.223   2.368   3.168  0.3153 -0.2626 -0.0995
 5425ntf    fn424673   1.267   2.722   3.247  0.0356  0.1830 -0.6018
 5425ntf    fn424674   1.102   2.641   3.134 -0.0156  0.7336 -0.1495
 5425ntf    fn424675   1.134   2.592   3.343 -0.2063  0.7453 -0.2143
 5426ntf    cn124676   3.060   3.863   4.709  0.2471 -0.3575  0.1434
 5426ntf    sn224677   3.119   3.692   4.690  0.0718 -0.3687 -0.3386
 5426ntf    nn324678   3.043   3.647   4.561  0.0466 -0.8770 -0.1503
 5426ntf    sn224679   3.092   3.654   4.411 -0.0850  0.1135 -0.1579
 5426ntf    cn124680   2.930   3.680   4.333 -0.1378  0.1718 -0.0293
 5426ntf    fn424681   3.124   3.933   4.801 -0.4610  0.3556  0.1091
 5426ntf    fn424682   3.074   3.930   4.595  0.0833 -0.1139  0.2655
 5426ntf    fn424683   2.933   3.873   4.744  0.1882 -0.2971 -0.0800
 5426ntf    on524684   3.262   3.705   4.676 -0.0166  0.4987 -0.5083
 5426ntf    on524685   3.070   3.635   4.813  0.6351 -0.2132 -0.0370
 5426ntf    on524686   3.133   3.528   4.355  0.0276 -0.1524  0.5086
 5426ntf    on524687   3.163   3.772   4.371 -0.4465  0.2029 -0.5364
 5426ntf    fn424688   2.883   3.801   4.357  0.0006  0.1828  0.1868
 5426ntf    fn424689   2.929   3.665   4.201  0.0425  0.0495 -0.0165
 5426ntf    fn424690   2.832   3.596   4.360  0.2453 -0.0495  0.7009
 5427ntf    cn124691   3.025   7.034   6.998 -0.1800  0.2914  0.2912
 5427ntf    sn224692   3.070   7.089   6.830 -0.0580 -0.1293  0.1831
 5427ntf    nn324693   2.973   7.000   6.746 -0.2053  0.1849  0.0182
 5427ntf    sn224694   3.000   6.856   6.690 -0.5397  0.2461 -0.3086
 5427ntf    cn124695   2.871   6.761   6.776 -0.1013 -0.1988 -0.1377
 5427ntf    fn424696   3.058   6.910   7.032 -0.5608 -0.0416 -0.5182
 5427ntf    fn424697   3.086   7.110   7.087  0.0195  0.5348 -0.0506
 5427ntf    fn424698   2.895   7.044   7.017 -0.2822  0.0997 -0.2843
 5427ntf    on524699   3.020   7.224   6.825 -1.1515 -0.5387 -0.0666
 5427ntf    on524700   3.212   7.074   6.807 -0.0163  0.1511  0.2469
 5427ntf    on524701   3.131   6.804   6.723 -0.6292  0.1773 -0.0579
 5427ntf    on524702   2.958   6.836   6.554  0.5242 -0.1792 -0.5907
 5427ntf    fn424703   2.753   6.792   6.726  0.0491 -0.0346 -0.3944
 5427ntf    fn424704   2.884   6.630   6.763 -0.0214 -0.2603  0.5438
 5427ntf    fn424705   2.873   6.781   6.907  0.4064  0.4912 -0.2457
 5428ntf    cn124706   0.998   3.434   3.029  0.4510  0.4233 -0.2650
 5428ntf    sn224707   1.075   3.273   3.065 -0.1913  0.1418 -0.1395
 5428ntf    nn324708   1.026   3.191   2.940 -0.2498 -0.1504  0.0720
 5428ntf    sn224709   1.095   3.060   2.888 -0.0379 -0.0199  0.0193
 5428ntf    cn124710   1.027   2.941   3.008 -0.0886 -0.0731 -0.0620
 5428ntf    fn424711   1.036   3.487   2.914 -0.1185 -0.0487 -0.6798
 5428ntf    fn424712   0.866   3.425   3.029  0.4969 -0.3125  0.1900
 5428ntf    fn424713   1.023   3.524   3.123 -0.0474 -0.1415  0.4184
 5428ntf    on524714   1.217   3.297   3.073 -0.1968 -0.0059  0.4497
 5428ntf    on524715   1.020   3.222   3.188  0.1185  0.1613  0.0080
 5428ntf    on524716   1.239   3.053   2.894 -0.0200  0.5010  0.2749
 5428ntf    on524717   1.030   3.016   2.767  0.0658 -0.3918  0.0968
 5428ntf    fn424718   0.895   2.949   3.016 -0.0221  0.6465  0.4293
 5428ntf    fn424719   1.052   2.816   2.974  0.5054 -0.0510  0.2706
 5428ntf    fn424720   1.068   2.955   3.133 -0.0638  0.8263 -0.1590
 5429ntf    cn124721   2.073   6.381   5.798 -0.4825  0.0939 -0.1720
 5429ntf    sn224722   1.910   6.415   5.723 -0.6309 -0.0508  0.0835
 5429ntf    nn324723   1.952   6.442   5.574 -0.4855  0.1010  0.1507
 5429ntf    sn224724   1.876   6.395   5.445 -0.1387 -0.3502  0.1092
 5429ntf    cn124725   1.955   6.232   5.440  0.4069 -0.0934  0.2938
 5429ntf    fn424726   2.067   6.315   5.912  0.3686  0.1930 -0.0660
 5429ntf    fn424727   2.152   6.306   5.723 -0.0801 -0.0784  0.4211
 5429ntf    fn424728   2.132   6.496   5.824  0.0913 -0.3617  0.5817
 5429ntf    on524729   1.843   6.292   5.756 -0.0576 -0.2324  0.6139
 5429ntf    on524730   1.870   6.537   5.788 -0.2002  0.1940 -0.1029
 5429ntf    on524731   1.929   6.448   5.322  0.2661 -0.5468  0.1961
 5429ntf    on524732   1.732   6.386   5.451 -0.2237  0.6787 -0.2465
 5429ntf    fn424733   2.085   6.259   5.437  0.3468  0.1077 -0.8686
 5429ntf    fn424734   1.938   6.160   5.550  0.4741  0.1281  0.4480
 5429ntf    fn424735   1.918   6.157   5.337  0.0194  0.0243  0.3471
 5430ntf    cn124736   3.835   7.095   7.267 -0.0210 -0.1932  0.2691
 5430ntf    sn224737   3.867   7.013   7.108 -0.2844 -0.2406  0.2411
 5430ntf    nn324738   3.804   7.111   7.003  0.0829 -0.0646  0.1877
 5430ntf    sn224739   3.885   7.205   6.906 -0.0976  0.2215  0.3124
 5430ntf    cn124740   3.773   7.349   6.906 -0.5074 -0.0965  0.3105
 5430ntf    fn424741   3.852   7.225   7.252 -0.5105 -0.1695 -0.1126
 5430ntf    fn424742   3.709   7.076   7.302 -0.0957 -0.5855 -0.2103
 5430ntf    fn424743   3.912   7.056   7.368  0.0662  0.4915  0.4707
 5430ntf    on524744   4.009   6.990   7.098 -0.3606 -0.5331 -0.2466
 5430ntf    on524745   3.783   6.895   7.117 -0.7884  0.0543 -0.4625
 5430ntf    on524746   3.883   7.162   6.768 -0.7814 -0.1155  0.4261
 5430ntf    on524747   4.012   7.249   6.959 -0.1429  0.7269  0.0122
 5430ntf    fn424748   3.649   7.313   6.877 -0.4406 -0.4441  0.4425
 5430ntf    fn424749   3.761   7.405   7.025 -0.1714  0.2197  0.1966
 5430ntf    fn424750   3.804   7.458   6.838 -0.6962 -0.3331 -0.1633
 5431ntf    cn124751   3.493   3.521   0.128  0.4185  0.2387 -0.2980
 5431ntf    sn224752   3.321   3.569   0.162  0.3114 -0.1910 -0.2246
 5431ntf    nn324753   3.347   3.666   0.283  0.1880 -0.2863 -0.1219
 5431ntf    sn224754   3.378   3.819   0.267  0.0568 -0.2309  0.1542
 5431ntf    cn124755   3.208   3.883   0.265  0.1944  0.1322  0.0970
 5431ntf    fn424756   3.567   3.630   0.118 -0.1987  0.6588 -0.2878
 5431ntf    fn424757   3.541   3.454   0.232 -0.5898 -0.4802 -0.2866
 5431ntf    fn424758   3.511   3.448   0.019  0.8292 -0.3482  0.1530
 5431ntf    on524759   3.275   3.630   0.040  0.1526 -0.1293 -0.1339
 5431ntf    on524760   3.258   3.444   0.195  0.1477  0.0166  0.2628
 5431ntf    on524761   3.435   3.853   0.139 -0.4765 -0.3321 -0.1132
 5431ntf    on524762   3.440   3.884   0.380 -0.7986  0.5255  0.2071
 5431ntf    fn424763   3.213   4.001   0.204  0.0935  0.2334  0.2825
 5431ntf    fn424764   3.124   3.807   0.198  0.1516  0.0087  0.2896
 5431ntf    fn424765   3.152   3.901   0.384  0.5628 -0.3110  0.3378
 5432ntf    cn124766   0.426   3.569   4.454 -0.0468 -0.0140 -0.3233
 5432ntf    sn224767   0.343   3.540   4.294 -0.2306 -0.1490 -0.2056
 5432ntf    nn324768   0.235   3.434   4.335 -0.2021 -0.2866 -0.4887
 5432ntf    sn224769   0.087   3.462   4.379 -0.0971  0.0243 -0.3307
 5432ntf    cn124770   0.030   3.305   4.450  0.1607  0.2472  0.3766
 5432ntf    fn424771   0.514   3.667   4.448 -0.8127  0.6754 -0.4643
 5432ntf    fn424772   0.346   3.607   4.553  0.3469  0.2879 -0.1206
 5432ntf    fn424773   0.492   3.467   4.507 -0.3823  0.1138  0.3568
 5432ntf    on524774   0.295   3.669   4.252  0.0897 -0.0457 -0.2593
 5432ntf    on524775   0.445   3.474   4.217  0.6360 -0.0708  0.8444
 5432ntf    on524776  -0.002   3.492   4.269 -0.1661 -0.1730 -0.3286
 5432ntf    on524777   0.079   3.549   4.494  0.4811  0.0010 -0.2726
 5432ntf    fn424778   0.021   3.222   4.347  0.0916  0.0263  0.5600
 5432ntf    fn424779   0.117   3.251   4.534  0.0990  0.0829  0.3351
 5432ntf    fn424780  -0.090   3.299   4.506 -0.0915 -0.0195 -0.1801
 5433ntf    cn124781   2.626   7.352   5.431  0.5012  0.1496 -0.2709
 5433ntf    sn224782   2.640   7.375   5.251 -0.3916  0.2591 -0.3335
 5433ntf    nn324783   2.704   7.518   5.235 -0.3973  0.3283  0.2491
 5433ntf    sn224784   2.681   7.631   5.129 -0.0611 -0.0561 -0.2356
 5433ntf    cn124785   2.677   7.773   5.243  0.0842 -0.1085 -0.1644
 5433ntf    fn424786   2.533   7.265   5.465  0.0670  0.4359 -0.7043
 5433ntf    fn424787   2.735   7.311   5.493  0.6286  0.7592 -0.0809
 5433ntf    fn424788   2.592   7.466   5.489 -0.1975 -0.4167  0.4562
 5433ntf    on524789   2.737   7.272   5.220 -0.8068 -0.1924 -0.1295
 5433ntf    on524790   2.513   7.353   5.187 -0.5763 -0.6067  0.3249
 5433ntf    on524791   2.558   7.657   5.058 -0.1364  0.6299  0.1447
 5433ntf    on524792   2.796   7.645   5.042  0.2651  0.1320  0.2254
 5433ntf    fn424793   2.791   7.798   5.305 -0.2073  0.6885  0.0644
 5433ntf    fn424794   2.651   7.885   5.177  0.0057  0.2455  0.4641
 5433ntf    fn424795   2.595   7.745   5.342  0.3812  0.1028  0.1438
 5434ntf    cn124796   0.490   0.383   0.816 -0.1189 -0.1145  0.2692
 5434ntf    sn224797   0.346   0.459   0.897 -0.1031  0.2246 -0.0172
 5434ntf    nn324798   0.241   0.463   0.780  0.4516  0.4369 -0.5123
 5434ntf    sn224799   0.106   0.543   0.787  0.1803 -0.0786  0.2402
 5434ntf    cn124800  -0.011   0.404   0.785  0.0349  0.0502 -0.5144
 5434ntf    fn424801   0.599   0.387   0.891 -0.0120  0.3237  0.0937
 5434ntf    fn424802   0.462   0.261   0.775  0.3556 -0.0218 -0.3510
 5434ntf    fn424803   0.529   0.462   0.717  0.5200  0.0242  0.6199
 5434ntf    on524804   0.301   0.355   0.987  0.4592  0.0466  0.0576
 5434ntf    on524805   0.392   0.582   0.954  0.6449 -0.2041  0.3080
 5434ntf    on524806   0.073   0.611   0.664 -0.3172 -0.5275  0.1220
 5434ntf    on524807   0.074   0.613   0.909  0.1988  0.0531  0.1699
 5434ntf    fn424808   0.013   0.317   0.688  0.0695 -0.4277 -0.0818
 5434ntf    fn424809  -0.010   0.334   0.898  0.5000  0.3179 -0.3528
 5434ntf    fn424810  -0.139   0.436   0.778 -0.1569 -0.6338 -0.2218
 5435ntf    cn124811   3.696   2.679   5.041  0.1067 -0.2818  0.1142
 5435ntf    sn224812   3.797   2.831   5.038 -0.0472 -0.1796  0.0722
 5435ntf    nn324813   3.915   2.784   5.130 -0.2861 -0.3236  0.3078
 5435ntf    sn224814   3.967   2.839   5.268 -0.3231 -0.4390  0.3683
 5435ntf    cn124815   3.910   2.712   5.385 -0.0942 -0.4914  0.4230
 5435ntf    fn424816   3.672   2.646   5.167  0.0287  0.2058  0.2299
 5435ntf    fn424817   3.583   2.689   4.973  0.0494  0.6718  0.3320
 5435ntf    fn424818   3.759   2.578   4.984  0.1674 -0.2952  0.2048
 5435ntf    on524819   3.833   2.849   4.900  0.1497 -0.5886  0.0669
 5435ntf    on524820   3.706   2.928   5.093  0.0469  0.2298 -0.4930
 5435ntf    on524821   3.914   2.965   5.314 -0.0475 -0.3530  0.4569
 5435ntf    on524822   4.110   2.833   5.284 -0.3139 -0.1044  0.4108
 5435ntf    fn424823   3.791   2.670   5.348 -0.2210  0.3326 -0.1357
 5435ntf    fn424824   3.985   2.604   5.400 -0.1829 -0.6514 -0.2872
 5435ntf    fn424825   3.888   2.757   5.508 -0.1812 -0.2413  0.3165
 5436ntf    cn124826   4.464   4.118   2.967  0.0027  0.0593 -0.1803
 5436ntf    sn224827   4.415   3.963   3.048  0.0127  0.2093  0.1136
 5436ntf    nn324828   4.539   3.873   3.017 -0.1881  0.0384 -0.2036
 5436ntf    sn224829   4.668   3.867   3.107  0.0425  0.3453 -0.5066
 5436ntf    cn124830   4.629   3.735   3.227  0.2240  0.2471 -0.5561
 5436ntf    fn424831   4.491   4.101   2.839 -0.1042 -0.2398 -0.1635
 5436ntf    fn424832   4.370   4.212   2.973 -0.7555 -0.6847 -0.2441
 5436ntf    fn424833   4.575   4.169   3.019  0.1384 -0.0153 -0.3952
 5436ntf    on524834   4.398   3.981   3.190 -0.1369  0.5057  0.0591
 5436ntf    on524835   4.302   3.919   2.970  0.2077 -0.3925  0.1729
 5436ntf    on524836   4.696   3.986   3.184  0.0964  0.1836 -0.2744
 5436ntf    on524837   4.780   3.804   3.043 -0.1270 -0.3903 -0.1021
 5436ntf    fn424838   4.729   3.703   3.306 -0.2558  0.7296  0.2568
 5436ntf    fn424839   4.535   3.773   3.312  0.3704 -0.1993 -0.1925
 5436ntf    fn424840   4.585   3.625   3.168  0.5133 -0.2596  0.1666
 5437ntf    cn124841   0.342   4.127   5.724  0.0897 -0.1498 -0.0258
 5437ntf    sn224842   0.510   4.121   5.657  0.1055  0.0456 -0.0046
 5437ntf    nn324843   0.490   4.196   5.520  0.3897 -0.1682 -0.1667
 5437ntf    sn224844   0.503   4.348   5.486 -0.1366 -0.1493 -0.2939
 5437ntf    cn124845   0.682   4.356   5.458 -0.1162  0.1192 -0.0846
 5437ntf    fn424846   0.266   4.042   5.658  0.1809  0.1124 -0.4700
 5437ntf    fn424847   0.326   4.091   5.851 -0.2659 -0.0699 -0.0477
 5437ntf    fn424848   0.286   4.247   5.723  0.0331 -0.1587  0.8213
 5437ntf    on524849   0.596   4.195   5.746 -0.1467  0.2798  0.0418
 5437ntf    on524850   0.540   3.980   5.643 -0.3516 -0.0363 -0.1879
 5437ntf    on524851   0.483   4.447   5.589  0.3537  0.5580 -0.8693
 5437ntf    on524852   0.452   4.381   5.354  0.1382 -0.7541 -0.5538
 5437ntf    fn424853   0.725   4.481   5.470 -0.5713  0.2779 -0.0913
 5437ntf    fn424854   0.749   4.283   5.545  0.0248  0.2357 -0.0947
 5437ntf    fn424855   0.721   4.314   5.339 -0.5431 -0.1489 -0.1311
 5438ntf    cn124856   7.003   2.316   0.700  0.0760 -0.0000 -0.1153
 5438ntf    sn224857   6.851   2.400   0.646 -0.0370 -0.0152  0.1785
 5438ntf    nn324858   6.761   2.272   0.634  0.1472 -0.1244 -0.0518
 5438ntf    sn224859   6.605   2.257   0.651  0.0964  0.2653 -0.1648
 5438ntf    cn124860   6.613   2.194   0.821 -0.0229  0.1481 -0.2028
 5438ntf    fn424861   6.986   2.230   0.798 -0.1333  0.1907  0.0175
 5438ntf    fn424862   7.055   2.239   0.606 -0.2498  0.0835 -0.3679
 5438ntf    fn424863   7.096   2.405   0.730 -0.0160  0.2528 -0.5589
 5438ntf    on524864   6.827   2.490   0.756  0.1176  0.2169  0.0248
 5438ntf    on524865   6.874   2.458   0.516  0.3216 -0.0040  0.2483
 5438ntf    on524866   6.564   2.139   0.579  0.3726  0.0905 -0.0381
 5438ntf    on524867   6.545   2.388   0.650  0.0729  0.2565  0.2323
 5438ntf    fn424868   6.707   2.106   0.850  0.0062  0.0527 -0.5846
 5438ntf    fn424869   6.628   2.290   0.910 -0.4610 -0.0504  0.0883
 5438ntf    fn424870   6.504   2.131   0.863  0.4823 -0.6006  0.0000
 5439ntf    cn124871   3.986   5.597   1.283  0.1757 -0.2011  0.2322
 5439ntf    sn224872   4.019   5.621   1.460  0.0336  0.0795  0.2212
 5439ntf    nn324873   4.017   5.472   1.509 -0.3425 -0.0049 -0.0516
 5439ntf    sn224874   4.063   5.414   1.647 -0.0179 -0.0043 -0.1588
 5439ntf    cn124875   4.231   5.363   1.600 -0.0256 -0.0788 -0.1069
 5439ntf    fn424876   3.986   5.712   1.217 -0.7588 -0.0836  0.4262
 5439ntf    fn424877   4.083   5.538   1.214  0.2155  0.2734 -0.1241
 5439ntf    fn424878   3.873   5.536   1.252  0.0211  0.0611  0.2840
 5439ntf    on524879   4.152   5.678   1.458  0.1861 -0.2753  0.0784
 5439ntf    on524880   3.911   5.703   1.509 -0.7732 -0.6986 -0.2256
 5439ntf    on524881   3.987   5.296   1.682  0.1905 -0.1669 -0.2565
 5439ntf    on524882   4.078   5.514   1.750  0.0521  0.3399 -0.5014
 5439ntf    fn424883   4.311   5.468   1.592  0.2386 -0.3058 -0.4724
 5439ntf    fn424884   4.273   5.266   1.680 -0.0326  0.0990  0.1124
 5439ntf    fn424885   4.232   5.312   1.478  0.2923 -0.1333 -0.0804
 5440ntf    cn124886   3.337   7.501   0.379  0.0563 -0.1399 -0.0413
 5440ntf    sn224887   3.227   7.408   0.491  0.0464 -0.2586 -0.1489
 5440ntf    nn324888   3.092   7.414   0.411  0.3059  0.3217 -0.5560
 5440ntf    sn224889   2.988   7.532   0.417 -0.2804 -0.2017 -0.2651
 5440ntf    cn124890   2.861   7.457   0.524  0.0695 -0.4787 -0.0406
 5440ntf    fn424891   3.345   7.441   0.261  0.0555 -0.6390  0.2110
 5440ntf    fn424892   3.277   7.616   0.354  0.1248 -0.0543  0.1918
 5440ntf    fn424893   3.459   7.523   0.424 -0.0419  0.2352  0.0382
 5440ntf    on524894   3.273   7.272   0.488 -0.4961 -0.4570  0.3517
 5440ntf    on524895   3.239   7.474   0.619 -0.3537 -0.1890 -0.1448
 5440ntf    on524896   2.918   7.556   0.294  0.0433 -0.1550 -0.4412
 5440ntf    on524897   3.036   7.646   0.491  0.2682  0.1612 -1.1699
 5440ntf    fn424898   2.754   7.534   0.535  0.0711 -0.4209 -0.4029
 5440ntf    fn424899   2.812   7.348   0.469  0.0366 -0.2710 -0.4278
 5440ntf    fn424900   2.906   7.431   0.646  0.2065 -0.2667 -0.0449
 5441ntf    cn124901   7.440   0.554   0.188  0.2018  0.2369 -0.1389
 5441ntf    sn224902   7.590   0.605   0.099  0.2086 -0.3827 -0.4822
 5441ntf    nn324903   7.697   0.509   0.164 -0.1302 -0.3065  0.1871
 5441ntf    sn224904   7.852   0.508   0.142 -0.1604 -0.7228 -0.0117
 5441ntf    cn124905   7.900   0.626   0.272 -0.2857 -0.2358 -0.4050
 5441ntf    fn424906   7.370   0.660   0.226 -0.1983  0.0534 -0.3610
 5441ntf    fn424907   7.357   0.490   0.108  0.0025  0.6519 -0.2702
 5441ntf    fn424908   7.467   0.482   0.296 -0.0589  0.1438 -0.1361
 5441ntf    on524909   7.567   0.582  -0.042 -1.0360  0.2819 -0.4000
 5441ntf    on524910   7.605   0.740   0.145  0.5239 -0.7896  0.6518
 5441ntf    on524911   7.903   0.571   0.023  0.0779 -0.5010  0.2066
 5441ntf    on524912   7.913   0.382   0.178  0.5713 -0.2673  0.3723
 5441ntf    fn424913   7.854   0.594   0.392  0.0100  0.0243 -0.2200
 5441ntf    fn424914   8.032   0.623   0.278 -0.2798  0.1617 -0.3391
 5441ntf    fn424915   7.865   0.751   0.246 -0.0242 -0.1117 -0.1694
 5442ntf    cn124916   2.716   5.692   6.402  0.0647 -0.0221  0.4281
 5442ntf    sn224917   2.808   5.844   6.442  0.0046  0.1679 -0.1551
 5442ntf    nn324918   2.746   5.884   6.580  0.3815  0.4303 -0.0612
 5442ntf    sn224919   2.796   5.964   6.706 -0.1239  0.1518  0.3228
 5442ntf    cn124920   2.803   5.819   6.814  0.1110  0.1142  0.2566
 5442ntf    fn424921   2.714   5.614   6.510  0.1203 -0.4116  0.1493
 5442ntf    fn424922   2.594   5.707   6.355  0.0722 -0.2197  0.3454
 5442ntf    fn424923   2.778   5.632   6.302  0.0008  0.0134  0.3666
 5442ntf    on524924   2.948   5.810   6.439 -0.0688 -0.1944  0.3388
 5442ntf    on524925   2.761   5.936   6.341 -0.1949  0.3218  0.0770
 5442ntf    on524926   2.696   6.037   6.780 -0.3614 -0.0791  0.2316
 5442ntf    on524927   2.932   6.012   6.701 -0.0503 -0.1203 -0.4623
 5442ntf    fn424928   2.864   5.837   6.930 -0.1683 -0.6112  0.5252
 5442ntf    fn424929   2.683   5.774   6.847 -0.0344  0.2520 -0.0865
 5442ntf    fn424930   2.866   5.717   6.757 -0.4361 -0.1094  0.0448
 5443ntf    cn124931   0.508   6.301   6.819  0.1065  0.2917 -0.1677
 5443ntf    sn224932   0.460   6.131   6.863  0.1042  0.2529 -0.3201
 5443ntf    nn324933   0.425   6.056   6.730 -0.2739 -0.3016  0.0834
 5443ntf    sn224934   0.374   5.911   6.701 -0.2728 -0.3002  0.0723
 5443ntf    cn124935   0.210   5.948   6.631 -0.0043  0.1099 -0.3477
 5443ntf    fn424936   0.609   6.293   6.733 -0.0344 -0.1027 -0.2999
 5443ntf    fn424937   0.409   6.369   6.765 -0.2519  0.0580  0.1859
 5443ntf    fn424938   0.551   6.369   6.924  0.7948 -0.3637 -0.0103
 5443ntf    on524939   0.575   6.067   6.923 -0.1229 -0.5066 -0.6836
 5443ntf    on524940   0.348   6.159   6.949  0.4923 -0.3621  0.4058
 5443ntf    on524941   0.350   5.822   6.811  0.0864 -0.3571  0.1051
 5443ntf    on524942   0.440   5.853   6.586 -0.2696 -0.0045 -0.0762
 5443ntf    fn424943   0.146   5.840   6.591 -0.2531 -0.1402  0.6905
 5443ntf    fn424944   0.131   6.013   6.715 -0.1524  0.1099 -0.4853
 5443ntf    fn424945   0.221   6.017   6.519  0.1292  0.0651 -0.3613
 5444ntf    cn124946   1.315   2.273   5.275  0.1908 -0.4721  0.0064
 5444ntf    sn224947   1.414   2.352   5.145  0.1192 -0.1367  0.1536
 5444ntf    nn324948   1.554   2.285   5.169  0.5135  0.4418 -0.4805
 5444ntf    sn224949   1.624   2.167   5.093  0.5784  0.3161 -0.2296
 5444ntf    cn124950   1.773   2.248   5.028  0.5980  0.2440 -0.2747
 5444ntf    fn424951   1.316   2.339   5.390 -0.1730 -0.0431 -0.2335
 5444ntf    fn424952   1.187   2.275   5.243  0.3130  0.0864 -0.4509
 5444ntf    fn424953   1.349   2.150   5.310 -0.2672 -0.4523  0.5468
 5444ntf    on524954   1.338   2.311   5.030  0.3742  0.6767 -0.3091
 5444ntf    on524955   1.401   2.490   5.185  0.0343 -0.1247  0.0855
 5444ntf    on524956   1.553   2.128   4.974  0.1374 -0.6083  0.3236
 5444ntf    on524957   1.669   2.060   5.179 -0.7578  0.4030  0.6039
 5444ntf    fn424958   1.854   2.163   4.966  0.8966  0.1453  0.2426
 5444ntf    fn424959   1.741   2.342   4.940 -0.4355  0.0290 -0.1377
 5444ntf    fn424960   1.846   2.311   5.119 -0.1244  0.5663  0.0893
 5445ntf    cn124961   1.520   6.576   2.767  0.0583  0.2464 -0.1746
 5445ntf    sn224962   1.475   6.412   2.702  0.5315  0.1811 -0.3374
 5445ntf    nn324963   1.616   6.351   2.668  0.4341 -0.2464  0.0114
 5445ntf    sn224964   1.715   6.266   2.755  0.6364 -0.0317 -0.0111
 5445ntf    cn124965   1.863   6.295   2.653  0.4231 -0.2832 -0.3906
 5445ntf    fn424966   1.418   6.631   2.831 -0.0761  0.1265 -0.2827
 5445ntf    fn424967   1.615   6.568   2.858  0.1121 -0.0302 -0.2533
 5445ntf    fn424968   1.561   6.662   2.675  0.3927  0.0577 -0.2048
 5445ntf    on524969   1.401   6.342   2.804  0.0959  0.3647 -0.5288
 5445ntf    on524970   1.398   6.451   2.587  0.1503  1.2096  0.2541
 5445ntf    on524971   1.698   6.124   2.743  0.0623 -0.1334  1.7971
 5445ntf    on524972   1.744   6.323   2.885  0.0192 -0.2203  0.2112
 5445ntf    fn424973   1.877   6.424   2.630 -0.1334 -0.0842  0.3499
 5445ntf    fn424974   1.973   6.243   2.705  0.5268  0.3394  0.0226
 5445ntf    fn424975   1.852   6.243   2.531 -0.2570 -0.5996 -0.1973
 5446ntf    cn124976   4.274   3.585   5.375  0.2959 -0.2319 -0.1868
 5446ntf    sn224977   4.191   3.581   5.213 -0.1379  0.1576  0.0220
 5446ntf    nn324978   4.188   3.736   5.186  0.1896  0.1745  0.0779
 5446ntf    sn224979   4.244   3.814   5.062  0.2182 -0.0316 -0.0405
 5446ntf    cn124980   4.425   3.800   5.079  0.1989  0.1996  0.3878
 5446ntf    fn424981   4.310   3.465   5.418  0.7360 -0.0621 -0.0829
 5446ntf    fn424982   4.384   3.657   5.382  0.1077  0.0017  0.4092
 5446ntf    fn424983   4.186   3.633   5.462  0.0439 -0.2901 -0.4067
 5446ntf    on524984   4.280   3.511   5.123  0.3378 -0.2415  0.7926
 5446ntf    on524985   4.067   3.509   5.228 -0.0349 -0.1864 -0.7354
 5446ntf    on524986   4.221   3.957   5.068  0.5872  0.0291 -0.0369
 5446ntf    on524987   4.215   3.769   4.929 -0.1926  0.0845  0.0090
 5446ntf    fn424988   4.463   3.871   5.184 -0.9724  0.9569  0.3139
 5446ntf    fn424989   4.474   3.678   5.095 -0.7510 -0.2417  0.0074
 5446ntf    fn424990   4.492   3.844   4.974 -0.2389 -0.6925 -0.2802
 5447ntf    cn124991   1.143   1.651   2.148 -0.1239  0.0366 -0.0628
 5447ntf    sn224992   1.027   1.527   2.084 -0.1494  0.0818 -0.1040
 5447ntf    nn324993   0.895   1.610   2.065 -0.3147 -0.1784 -0.0983
 5447ntf    sn224994   0.761   1.602   2.147 -0.1831  0.1659  0.1526
 5447ntf    cn124995   0.664   1.709   2.036 -0.3557 -0.1147  0.0332
 5447ntf    fn424996   1.251   1.608   2.210 -0.0818 -0.3934 -0.4267
 5447ntf    fn424997   1.178   1.737   2.053 -0.1523 -0.3719 -0.4486
 5447ntf    fn424998   1.080   1.726   2.237 -0.4578 -0.5327  0.1778
 5447ntf    on524999   1.094   1.469   1.971 -0.0241  0.0481 -0.0114
 5447ntf    on525000   1.024   1.451   2.206 -0.1609  0.4498  0.1263
 5447ntf    on525001   0.771   1.673   2.272  0.0952 -0.2015  0.3408
 5447ntf    on525002   0.697   1.473   2.144  0.0866  0.0360 -0.0999
 5447ntf    fn425003   0.560   1.750   2.107 -0.2160  0.2466  0.0271
 5447ntf    fn425004   0.730   1.819   2.005 -0.5176 -0.0215  0.0196
 5447ntf    fn425005   0.621   1.655   1.923 -0.0476 -0.3268  0.0163
 5448ntf    cn125006   4.892   2.842   2.150  0.2373 -0.1352  0.2257
 5448ntf    sn225007   4.763   2.822   2.276  0.1409  0.0402  0.1553
 5448ntf    nn325008   4.832   2.742   2.392 -0.0678 -0.6804 -0.2125
 5448ntf    sn225009   4.790   2.728   2.542  0.3071  0.1994 -0.0180
 5448ntf    cn125010   4.902   2.840   2.631  0.1116  0.0230  0.4529
 5448ntf    fn425011   5.008   2.859   2.211  0.2129  0.6469  0.0670
 5448ntf    fn425012   4.896   2.740   2.066 -0.6905 -0.0020  0.0067
 5448ntf    fn425013   4.865   2.950   2.077  0.3252 -0.4668 -0.3063
 5448ntf    on525014   4.736   2.958   2.316 -0.3397  0.0368 -0.1458
 5448ntf    on525015   4.662   2.744   2.209  0.2505  0.0012  0.0370
 5448ntf    on525016   4.825   2.596   2.588 -0.0615  0.1197  0.0332
 5448ntf    on525017   4.660   2.783   2.570 -0.0527 -0.3192 -0.6390
 5448ntf    fn425018   4.867   2.875   2.754 -0.0554  0.4241  0.2928
 5448ntf    fn425019   5.028   2.799   2.633  0.0837 -0.1039 -0.2318
 5448ntf    fn425020   4.912   2.953   2.564 -0.0393 -0.1853  0.0762
 5449ntf    cn125021   0.975   3.122   1.028 -0.1037 -0.1388 -0.1794
 5449ntf    sn225022   0.862   3.019   0.930 -0.0211  0.0605 -0.4871
 5449ntf    nn325023   0.864   3.081   0.786 -0.2999  0.1157 -0.4685
 5449ntf    sn225024   0.966   3.037   0.675  0.0617 -0.0072 -0.0899
 5449ntf    cn125025   0.969   3.191   0.578 -0.2359  0.1240  0.1076
 5449ntf    fn425026   1.096   3.140   0.977 -0.3062  0.3614 -0.4942
 5449ntf    fn425027   0.936   3.249   1.029 -0.1888 -0.1663  0.1713
 5449ntf    fn425028   0.999   3.088   1.153  0.3288  0.3681 -0.1182
 5449ntf    on525029   0.911   2.885   0.952  0.1904  0.2475  0.2200
 5449ntf    on525030   0.735   3.053   0.989  0.1723  0.0196 -0.0406
 5449ntf    on525031   0.905   2.945   0.583 -0.1991 -0.4696  0.5416
 5449ntf    on525032   1.103   3.021   0.717  0.2311  0.4825 -0.4497
 5449ntf    fn425033   1.037   3.292   0.631 -0.1494  0.0829  0.0753
 5449ntf    fn425034   1.033   3.176   0.463  0.5468  0.7893  0.4467
 5449ntf    fn425035   0.851   3.237   0.541 -0.1774 -0.0193 -0.2628
 5450ntf    cn125036   1.127   7.394   3.629  0.0066 -0.0423 -0.0685
 5450ntf    sn225037   1.275   7.428   3.730 -0.0658  0.0457  0.0081
 5450ntf    nn325038   1.279   7.585   3.730  0.2745  0.0370  0.1141
 5450ntf    sn225039   1.261   7.677   3.856 -0.0417  0.0272  0.0768
 5450ntf    cn125040   1.248   7.835   3.767  0.5289  0.1961  0.2904
 5450ntf    fn425041   1.024   7.452   3.688 -0.1428  0.3300 -0.6909
 5450ntf    fn425042   1.125   7.452   3.510  0.1177 -0.2903 -0.1922
 5450ntf    fn425043   1.099   7.267   3.606  0.7252 -0.1780 -0.2250
 5450ntf    on525044   1.263   7.355   3.854  0.2144 -0.0843 -0.0417
 5450ntf    on525045   1.379   7.380   3.643 -0.2436  0.1514 -0.2633
 5450ntf    on525046   1.386   7.687   3.927 -0.1713 -0.2999  0.3524
 5450ntf    on525047   1.133   7.663   3.922 -0.1064 -0.5651 -0.1674
 5450ntf    fn425048   1.145   7.845   3.685  0.6608  0.0207  0.1008
 5450ntf    fn425049   1.252   7.943   3.843 -0.3248 -0.1230  0.8051
 5450ntf    fn425050   1.350   7.855   3.685  0.1795  0.4290 -0.0890
 5451ntf    cn125051   7.284   1.976   0.604  0.0107 -0.5418 -0.5327
 5451ntf    sn225052   7.341   1.959   0.432  0.4175 -0.1522 -0.4363
 5451ntf    nn325053   7.481   1.891   0.455  0.3079 -0.1224  0.3458
 5451ntf    sn225054   7.592   1.853   0.350  0.0103  0.1042 -0.0550
 5451ntf    cn125055   7.706   1.993   0.371 -0.3363  0.3506  0.2104
 5451ntf    fn425056   7.250   1.860   0.657 -0.3674 -0.0612  0.2879
 5451ntf    fn425057   7.375   2.032   0.682  0.3333 -0.1894 -1.1524
 5451ntf    fn425058   7.173   2.049   0.606  0.6774  0.4761  0.1836
 5451ntf    on525059   7.248   1.868   0.370 -0.3944  0.2414  0.1912
 5451ntf    on525060   7.340   2.095   0.383 -0.0901  0.1638  0.4315
 5451ntf    on525061   7.547   1.863   0.214 -0.9981  0.0253  0.2606
 5451ntf    on525062   7.674   1.739   0.380  1.1967  0.8311 -0.4782
 5451ntf    fn425063   7.766   1.992   0.489 -0.2804 -0.0728  0.1802
 5451ntf    fn425064   7.801   1.997   0.279 -0.3395 -0.4187  0.1699
 5451ntf    fn425065   7.642   2.108   0.364 -0.6483  0.1842  0.2906
 5452ntf    cn125066   0.447   2.757   2.476 -0.0107  0.0329 -0.1723
 5452ntf    sn225067   0.326   2.658   2.570  0.2742  0.0176  0.1808
 5452ntf    nn325068   0.202   2.715   2.494  0.2000 -0.0783  0.2304
 5452ntf    sn225069   0.062   2.760   2.549  0.0436 -0.1572 -0.0995
 5452ntf    cn125070  -0.046   2.620   2.506 -0.5650  0.2056  0.2252
 5452ntf    fn425071   0.463   2.880   2.522  0.0532  0.0610 -0.2712
 5452ntf    fn425072   0.564   2.695   2.464 -0.4154 -0.7504 -0.1506
 5452ntf    fn425073   0.406   2.773   2.352 -0.5745  0.4117  0.0572
 5452ntf    on525074   0.363   2.522   2.538  0.1368  0.1133 -0.3967
 5452ntf    on525075   0.348   2.715   2.701 -0.3004  0.3678  0.1271
 5452ntf    on525076   0.011   2.875   2.477 -0.1219 -0.1850 -0.0279
 5452ntf    on525077   0.044   2.761   2.692  0.6408 -0.2649 -0.0209
 5452ntf    fn425078  -0.175   2.644   2.527 -0.7555 -0.6925  0.0918
 5452ntf    fn425079  -0.033   2.591   2.378 -0.2385  0.1180  0.2770
 5452ntf    fn425080  -0.008   2.512   2.571 -0.2920  0.3127  0.2472
 5453ntf    cn125081   3.483   6.324   7.015  0.0721  0.1117  0.3090
 5453ntf    sn225082   3.329   6.386   6.941  0.2266  0.0309 -0.0814
 5453ntf    nn325083   3.239   6.413   7.066 -0.3064 -0.0933 -0.4334
 5453ntf    sn225084   3.134   6.327   7.145 -0.1718  0.1372 -0.0008
 5453ntf    cn125085   2.980   6.415   7.105 -0.3513 -0.1390  0.0796
 5453ntf    fn425086   3.475   6.197   7.050 -0.3661 -0.0103 -0.2195
 5453ntf    fn425087   3.581   6.345   6.928 -0.3745 -0.6200 -0.3854
 5453ntf    fn425088   3.511   6.381   7.131 -0.2769 -0.0639  0.4827
 5453ntf    on525089   3.359   6.511   6.877 -0.1674  0.0438 -0.2465
 5453ntf    on525090   3.285   6.280   6.853  0.0192 -0.3299  0.4505
 5453ntf    on525091   3.149   6.355   7.286  0.3320  0.1279 -0.0521
 5453ntf    on525092   3.104   6.192   7.104  0.1623  0.0704 -0.0224
 5453ntf    fn425093   2.998   6.543   7.134 -0.1137 -0.1040 -0.2155
 5453ntf    fn425094   2.940   6.408   6.979  0.2717  0.3498 -0.1490
 5453ntf    fn425095   2.876   6.379   7.179 -0.6400  0.6364  0.0595
 5454ntf    cn125096   2.573   2.141   1.181  0.1601 -0.0331  0.5465
 5454ntf    sn225097   2.414   2.086   1.248 -0.1371 -0.2836 -0.3554
 5454ntf    nn325098   2.388   1.940   1.197 -0.1413 -0.4754  0.1838
 5454ntf    sn225099   2.310   1.892   1.069 -0.0359 -0.1664  0.0021
 5454ntf    cn125100   2.404   1.743   1.023 -0.1498 -0.3324  0.3038
 5454ntf    fn425101   2.576   2.132   1.049 -0.6216  0.2662  0.5076
 5454ntf    fn425102   2.597   2.269   1.204  0.2045  0.1890 -0.7107
 5454ntf    fn425103   2.678   2.072   1.223  0.5243 -0.0267 -0.3359
 5454ntf    on525104   2.423   2.089   1.392  0.4558  0.7395 -0.4099
 5454ntf    on525105   2.317   2.178   1.194  0.0648  0.0839 -0.0899
 5454ntf    on525106   2.319   1.966   0.946  0.5193 -0.7085 -0.2880
 5454ntf    on525107   2.178   1.846   1.107 -0.0675  0.1871  0.3243
 5454ntf    fn425108   2.352   1.683   0.918 -0.0299 -0.0694  0.0930
 5454ntf    fn425109   2.530   1.772   0.996 -0.0712 -1.0844 -0.1760
 5454ntf    fn425110   2.417   1.656   1.122 -0.4520 -0.4248  0.2625
 5455ntf    cn125111   7.480   7.072   4.875  0.3434 -0.1108  0.1933
 5455ntf    sn225112   7.469   7.006   4.706  0.2937 -0.0926  0.1888
 5455ntf    nn325113   7.603   7.062   4.646  0.2202 -0.0802  0.0345
 5455ntf    sn225114   7.628   7.126   4.505 -0.0404  0.1214  0.0769
 5455ntf    cn125115   7.609   7.303   4.540 -0.1311  0.0874  0.1966
 5455ntf    fn425116   7.377   7.049   4.955  0.1564  0.4462  0.1209
 5455ntf    fn425117   7.587   7.021   4.932  0.2730 -0.0551  0.3764
 5455ntf    fn425118   7.494   7.204   4.872  0.3083 -0.1098  0.0711
 5455ntf    on525119   7.473   6.863   4.726 -0.5909 -0.1610 -0.1044
 5455ntf    on525120   7.349   7.066   4.653  0.4957  0.0829 -0.0759
 5455ntf    on525121   7.536   7.099   4.398  0.3662  0.1140 -0.2740
 5455ntf    on525122   7.770   7.124   4.476 -0.1329  0.1186 -0.3775
 5455ntf    fn425123   7.694   7.344   4.633  0.3671 -0.4622 -0.0117
 5455ntf    fn425124   7.641   7.376   4.435  0.0632  0.2047  0.3364
 5455ntf    fn425125   7.490   7.337   4.585 -0.4302 -0.7615  0.0702
 5456ntf    cn125126   1.754   0.456   7.095  0.2128 -0.2627 -0.4229
 5456ntf    sn225127   1.714   0.631   7.068  0.3057 -0.2113 -0.2295
 5456ntf    nn325128   1.725   0.625   6.911  0.0677  0.0479 -0.2576
 5456ntf    sn225129   1.605   0.612   6.811 -0.0586 -0.3357 -0.0568
 5456ntf    cn125130   1.694   0.538   6.670  0.0988 -0.5731  0.1650
 5456ntf    fn425131   1.792   0.426   7.219 -0.1177 -0.0267 -0.2620
 5456ntf    fn425132   1.650   0.379   7.064 -0.2278  0.2720 -0.2968
 5456ntf    fn425133   1.853   0.412   7.021  0.7453  0.2563 -0.0249
 5456ntf    on525134   1.583   0.641   7.126  0.4196 -0.4577  0.0732
 5456ntf    on525135   1.826   0.702   7.125  0.4170 -0.2240 -0.4297
 5456ntf    on525136   1.558   0.741   6.770  0.7181 -0.0196  0.0213
 5456ntf    on525137   1.509   0.509   6.841 -0.0997 -0.5205 -0.7948
 5456ntf    fn425138   1.756   0.424   6.694  0.1732 -0.7402 -0.7878
 5456ntf    fn425139   1.610   0.509   6.572  0.4472 -0.4582 -0.1665
 5456ntf    fn425140   1.779   0.623   6.615  0.1989 -0.2629  0.7857
 5457ntf    cn125141   0.659   7.308   1.516  0.0200 -0.1024 -0.0577
 5457ntf    sn225142   0.588   7.315   1.683  0.1137  0.1367 -0.0289
 5457ntf    nn325143   0.436   7.342   1.656  0.1177 -0.0486 -0.2401
 5457ntf    sn225144   0.311   7.280   1.727  0.4021 -0.1776  0.1534
 5457ntf    cn125145   0.256   7.416   1.835  0.0171 -0.1272 -0.1010
 5457ntf    fn425146   0.603   7.208   1.449 -0.4355  0.0532  0.0882
 5457ntf    fn425147   0.642   7.419   1.447  0.2812  0.0522  0.1267
 5457ntf    fn425148   0.789   7.286   1.508 -0.0666 -0.4472 -0.6436
 5457ntf    on525149   0.628   7.186   1.734 -0.3258  0.1643  0.3931
 5457ntf    on525150   0.643   7.432   1.748  0.5168 -0.1799  0.2044
 5457ntf    on525151   0.329   7.173   1.821  0.3276 -0.1508  0.1988
 5457ntf    on525152   0.203   7.267   1.632  0.8523 -0.7980 -0.2781
 5457ntf    fn425153   0.354   7.469   1.906 -0.0091 -0.1670 -0.0344
 5457ntf    fn425154   0.199   7.513   1.767  0.4374 -0.0644 -0.3694
 5457ntf    fn425155   0.163   7.375   1.920  0.3115  0.1998  0.3863
 5458ntf    cn125156   5.262   2.651   7.492  0.1486  0.0629 -0.1147
 5458ntf    sn225157   5.362   2.536   7.591 -0.1367 -0.3604 -0.3160
 5458ntf    nn325158   5.257   2.426   7.629 -0.0709 -0.2433  0.2111
 5458ntf    sn225159   5.254   2.275   7.585  0.2753 -0.3497  0.5407
 5458ntf    cn125160   5.079   2.251   7.542  0.3471  0.3774 -0.1998
 5458ntf    fn425161   5.191   2.593   7.397 -0.2949  0.1244  0.1729
 5458ntf    fn425162   5.172   2.714   7.567  0.3149  0.1262  0.0327
 5458ntf    fn425163   5.336   2.743   7.432  0.1349 -0.0261 -0.2667
 5458ntf    on525164   5.469   2.500   7.502  0.3846 -0.4257  0.3294
 5458ntf    on525165   5.400   2.611   7.709  0.0514 -0.1613 -0.5014
 5458ntf    on525166   5.267   2.199   7.706 -0.2807 -0.5509  0.4789
 5458ntf    on525167   5.318   2.248   7.458  0.3750  0.3260  0.4422
 5458ntf    fn425168   5.040   2.344   7.457  0.0776  0.1777 -0.2989
 5458ntf    fn425169   5.050   2.133   7.490  0.3817  0.2328  0.1035
 5458ntf    fn425170   4.997   2.261   7.646  0.5070 -0.1220 -0.0232
 5459ntf    cn125171   4.860   7.453   2.213 -0.2357 -0.0272  0.5150
 5459ntf    sn225172   4.930   7.621   2.207 -0.0421 -0.1223  0.0537
 5459ntf    nn325173   5.081   7.593   2.174 -0.2639 -0.3550 -0.8053
 5459ntf    sn225174   5.160   7.592   2.039  0.5129 -0.1668 -0.3597
 5459ntf    cn125175   5.223   7.421   2.036  0.5608 -0.1511 -0.2711
 5459ntf    fn425176   4.867   7.398   2.092 -0.1234  0.0357  0.4922
 5459ntf    fn425177   4.924   7.379   2.302 -0.5884 -0.4940  0.3808
 5459ntf    fn425178   4.733   7.455   2.249 -0.5484  0.0339 -0.5493
 5459ntf    on525179   4.856   7.688   2.102 -0.0282 -0.1157  0.0483
 5459ntf    on525180   4.907   7.665   2.342  0.5787  0.0902  0.0915
 5459ntf    on525181   5.278   7.675   2.045  0.1962  0.2910 -0.4356
 5459ntf    on525182   5.076   7.597   1.921  0.2648 -0.5320 -0.1994
 5459ntf    fn425183   5.313   7.394   1.943  0.5512 -0.5470 -0.1677
 5459ntf    fn425184   5.281   7.395   2.151  0.1801 -0.0110 -0.0454
 5459ntf    fn425185   5.118   7.341   2.023  0.3436  0.1155 -0.1691
 5460ntf    cn125186   0.025   4.234   2.377  0.1177 -0.0365 -0.0606
 5460ntf    sn225187   0.175   4.335   2.356  0.2129 -0.1949 -0.1476
 5460ntf    nn325188   0.108   4.439   2.258  0.1778  0.0869  0.1737
 5460ntf    sn225189   0.175   4.537   2.156  0.2227 -0.0130  0.1069
 5460ntf    cn125190   0.124   4.453   2.004  0.2727  0.1294  0.0113
 5460ntf    fn425191  -0.036   4.200   2.265  0.1231 -0.2462 -0.0010
 5460ntf    fn425192   0.051   4.121   2.441 -0.5110 -0.2563 -0.1866
 5460ntf    fn425193  -0.063   4.296   2.454 -0.4013 -0.2315 -0.4895
 5460ntf    on525194   0.203   4.398   2.482 -0.2350 -0.1808 -0.0536
 5460ntf    on525195   0.274   4.246   2.302  0.1074 -0.1888 -0.3537
 5460ntf    on525196   0.319   4.521   2.155  0.2061 -0.1385 -0.1485
 5460ntf    on525197   0.116   4.668   2.147 -0.1631 -0.2068 -0.1774
 5460ntf    fn425198   0.173   4.334   1.975  0.0971 -0.0326  0.3766
 5460ntf    fn425199  -0.008   4.437   1.997  0.3301 -0.1904 -0.4154
 5460ntf    fn425200   0.149   4.526   1.896  0.5244  0.3081  0.1922
 5461ntf    cn125201   2.499   1.818   3.296  0.3219  0.2449 -0.2035
 5461ntf    sn225202   2.535   1.733   3.140 -0.4058  0.1207 -0.3056
 5461ntf    nn325203   2.459   1.828   3.040  0.0764  0.4072 -0.4040
 5461ntf    sn225204   2.307   1.814   3.001  0.0157  0.0845 -0.0684
 5461ntf    cn125205   2.329   1.787   2.822 -0.0934 -0.1307 -0.0486
 5461ntf    fn425206   2.556   1.758   3.400  0.1750 -0.0139 -0.2710
 5461ntf    fn425207   2.535   1.945   3.299  0.0169  0.3274  0.0508
 5461ntf    fn425208   2.369   1.829   3.318  0.3883  0.3819  0.1360
 5461ntf    on525209   2.675   1.761   3.121 -0.3176  0.0780  0.2564
 5461ntf    on525210   2.495   1.597   3.166  0.7045 -0.1318  0.1144
 5461ntf    on525211   2.249   1.944   3.025 -0.2258 -0.0498  0.0808
 5461ntf    on525212   2.233   1.704   3.057  0.2684 -0.1646 -0.2193
 5461ntf    fn425213   2.210   1.787   2.764 -0.1130  0.4891 -0.0131
 5461ntf    fn425214   2.391   1.894   2.776 -0.3236 -0.3014 -0.7567
 5461ntf    fn425215   2.396   1.676   2.794  0.5379  0.2985 -0.2542
 5462ntf    cn125216   5.585   4.244   2.499  0.0265  0.1775 -0.2468
 5462ntf    sn225217   5.644   4.286   2.332 -0.0110  0.0637 -0.2888
 5462ntf    nn325218   5.575   4.169   2.254  0.0432 -0.3201  0.2292
 5462ntf    sn225219   5.426   4.148   2.209  0.0307  0.3441 -0.0626
 5462ntf    cn125220   5.425   4.198   2.034  0.2138  0.1807 -0.1110
 5462ntf    fn425221   5.650   4.317   2.589 -0.1577  0.0147  0.0214
 5462ntf    fn425222   5.458   4.279   2.512 -0.0458 -0.2935  0.4055
 5462ntf    fn425223   5.598   4.117   2.535 -0.4813  0.2994  0.3880
 5462ntf    on525224   5.587   4.415   2.302 -0.0814 -0.0217 -0.5274
 5462ntf    on525225   5.786   4.269   2.345 -0.0467 -0.2748 -0.3432
 5462ntf    on525226   5.324   4.229   2.269  0.1216  0.2491  0.2202
 5462ntf    on525227   5.392   4.007   2.206  0.3088  0.2793 -0.2021
 5462ntf    fn425228   5.541   4.173   1.974 -0.1128 -0.0708 -0.6452
 5462ntf    fn425229   5.327   4.143   1.963  0.4275 -0.5005  0.1127
 5462ntf    fn425230   5.411   4.329   2.029  0.1908  0.1831  0.0122
 5463ntf    cn125231   3.011   7.329   1.416 -0.1476 -0.1001 -0.0963
 5463ntf    sn225232   3.008   7.446   1.556  0.1487 -0.1009 -0.0901
 5463ntf    nn325233   3.156   7.431   1.607 -0.1438  0.1377  0.8389
 5463ntf    sn225234   3.276   7.530   1.581 -0.2325  0.0755  0.1768
 5463ntf    cn125235   3.233   7.647   1.714 -0.0926  0.1385  0.1664
 5463ntf    fn425236   2.907   7.339   1.334 -0.5331 -0.4061  0.3507
 5463ntf    fn425237   3.104   7.371   1.332  0.1221  0.0978  0.3024
 5463ntf    fn425238   3.031   7.200   1.436 -0.1880 -0.1693 -0.4927
 5463ntf    on525239   2.968   7.571   1.497  0.4885  0.1899  0.2947
 5463ntf    on525240   2.923   7.394   1.659 -0.6478  0.4098 -0.4836
 5463ntf    on525241   3.274   7.606   1.458 -0.6889 -0.3394 -0.0794
 5463ntf    on525242   3.407   7.487   1.622 -0.1148  0.5286  0.2855
 5463ntf    fn425243   3.331   7.730   1.746  0.4017 -0.3055 -0.1792
 5463ntf    fn425244   3.133   7.724   1.674 -0.2791  0.1220  0.5987
 5463ntf    fn425245   3.184   7.585   1.820 -0.3885  0.2052  0.0688
 5464ntf    cn125246   1.138   1.727   1.099 -0.3137 -0.0557  0.2320
 5464ntf    sn225247   1.273   1.734   0.978 -0.1327 -0.1328  0.4277
 5464ntf    nn325248   1.214   1.627   0.879  0.4023 -0.1112  0.0761
 5464ntf    sn225249   1.276   1.487   0.846 -0.1360 -0.3193 -0.0640
 5464ntf    cn125250   1.122   1.407   0.790 -0.3583  0.3259 -0.3816
 5464ntf    fn425251   1.124   1.604   1.146 -0.3342 -0.3460 -0.5145
 5464ntf    fn425252   1.153   1.806   1.204  0.0149  0.1883  0.0051
 5464ntf    fn425253   1.022   1.765   1.048 -0.0880  0.3257 -0.0017
 5464ntf    on525254   1.257   1.869   0.930  0.0538 -0.4304 -0.4958
 5464ntf    on525255   1.391   1.699   1.053 -0.1582  0.4028  0.7211
 5464ntf    on525256   1.306   1.411   0.965 -0.2985 -0.2859 -0.0010
 5464ntf    on525257   1.366   1.494   0.734 -0.3901 -0.1298 -0.2575
 5464ntf    fn425258   1.045   1.392   0.896  0.1369  0.4494  0.0018
 5464ntf    fn425259   1.052   1.469   0.697 -0.4485  0.3793 -0.2779
 5464ntf    fn425260   1.145   1.286   0.743  0.0417  0.2693 -0.0516
 5465ntf    cn125261   4.868   6.663   3.674 -0.0346  0.0887  0.2394
 5465ntf    sn225262   4.898   6.672   3.853  0.0715  0.1867  0.2173
 5465ntf    nn325263   4.994   6.795   3.865 -0.0549  0.2824  0.2581
 5465ntf    sn225264   5.151   6.791   3.865 -0.0664 -0.2276  0.0873
 5465ntf    cn125265   5.191   6.836   4.036 -0.3600  0.0489  0.0841
 5465ntf    fn425266   4.983   6.646   3.611 -0.3892 -0.3778 -0.2870
 5465ntf    fn425267   4.802   6.554   3.640  0.4462 -0.2774  0.4634
 5465ntf    fn425268   4.809   6.767   3.618  0.8073 -0.1276 -1.1054
 5465ntf    on525269   4.762   6.701   3.893 -0.2418 -1.0139  0.0654
 5465ntf    on525270   4.953   6.547   3.899 -0.4108 -0.2397 -0.3458
 5465ntf    on525271   5.196   6.905   3.788 -0.0025 -0.1801  0.1949
 5465ntf    on525272   5.222   6.666   3.856 -0.0157 -0.2104  0.2494
 5465ntf    fn425273   5.321   6.850   4.058 -0.3006 -0.0311 -0.2203
 5465ntf    fn425274   5.146   6.955   4.070  0.0872  0.2664 -0.0726
 5465ntf    fn425275   5.134   6.748   4.118  0.0185 -0.2773  0.0017
 5466ntf    cn125276   4.094   2.682   1.816 -0.1549  0.0646  0.1407
 5466ntf    sn225277   4.259   2.684   1.741 -0.1723 -0.1901  0.0925
 5466ntf    nn325278   4.334   2.592   1.843  0.6542  0.3036 -0.0577
 5466ntf    sn225279   4.461   2.503   1.817  0.3176 -0.1513 -0.1573
 5466ntf    cn125280   4.375   2.343   1.827 -0.7993  0.4659  0.3157
 5466ntf    fn425281   4.055   2.563   1.860 -0.1853  0.1323  0.2972
 5466ntf    fn425282   4.094   2.747   1.931  0.2387  0.1765  0.0769
 5466ntf    fn425283   4.000   2.743   1.745 -0.1343 -0.0064  0.0521
 5466ntf    on525284   4.238   2.636   1.606  0.0297  0.6079 -0.2255
 5466ntf    on525285   4.306   2.820   1.746 -0.3335 -0.1482  0.4524
 5466ntf    on525286   4.553   2.489   1.927  0.4335 -0.8179 -0.3329
 5466ntf    on525287   4.512   2.517   1.683  0.2418  0.2037 -0.1504
 5466ntf    fn425288   4.298   2.329   1.720 -0.0681 -0.2088 -0.1311
 5466ntf    fn425289   4.457   2.239   1.832 -0.0617  1.0033 -0.3184
 5466ntf    fn425290   4.301   2.333   1.936 -0.3916  0.1242  0.5656
 5467ntf    cn125291   3.596   5.414   4.532 -0.2601  0.1899  0.0886
 5467ntf    sn225292   3.513   5.364   4.685 -0.0388 -0.0187  0.1415
 5467ntf    nn325293   3.496   5.500   4.762  0.3246  0.2116 -0.1826
 5467ntf    sn225294   3.372   5.596   4.771  0.0758 -0.1458  0.2271
 5467ntf    cn125295   3.394   5.661   4.939  0.1275 -0.3593  0.3026
 5467ntf    fn425296   3.717   5.460   4.561 -0.0496 -0.2189 -0.1330
 5467ntf    fn425297   3.614   5.314   4.447 -0.3787  0.4435 -0.2379
 5467ntf    fn425298   3.523   5.502   4.465 -0.2371 -0.1132 -0.3399
 5467ntf    on525299   3.391   5.302   4.641  0.3597 -0.4256 -0.3988
 5467ntf    on525300   3.608   5.278   4.751  0.2236  0.0256 -0.1822
 5467ntf    on525301   3.241   5.534   4.771 -0.2279  0.4868 -0.0372
 5467ntf    on525302   3.407   5.713   4.694 -0.7540  0.2634  0.4608
 5467ntf    fn425303   3.279   5.709   4.986  0.3585  0.0437  0.4593
 5467ntf    fn425304   3.431   5.564   5.022 -0.3793 -0.5552  0.3083
 5467ntf    fn425305   3.479   5.761   4.946 -0.3298  0.0262  0.4516
 5468ntf    cn125306   4.911   1.738   5.759 -0.0940  0.2046 -0.1947
 5468ntf    sn225307   4.783   1.612   5.727  0.2400 -0.1832 -0.0030
 5468ntf    nn325308   4.855   1.482   5.779  0.2902 -0.0491  0.2652
 5468ntf    sn225309   4.794   1.369   5.870  0.1084 -0.2845 -0.1427
 5468ntf    cn125310   4.821   1.442   6.035 -0.1079  0.5778 -0.4817
 5468ntf    fn425311   5.002   1.730   5.664 -0.0852 -0.0649 -0.1659
 5468ntf    fn425312   4.864   1.862   5.755 -0.7138 -0.0108  0.1376
 5468ntf    fn425313   4.960   1.710   5.879 -0.2977 -0.3767 -0.2420
 5468ntf    on525314   4.669   1.657   5.802  0.1253  0.0100 -0.2927
 5468ntf    on525315   4.777   1.615   5.583  0.5620 -0.6811 -0.0323
 5468ntf    on525316   4.872   1.249   5.882 -0.3248 -0.4763  0.9191
 5468ntf    on525317   4.651   1.354   5.867  0.0234  0.3502  0.3173
 5468ntf    fn425318   4.777   1.372   6.139 -0.1078  0.1643 -0.7561
 5468ntf    fn425319   4.949   1.460   6.061 -0.1237  0.5043 -0.3488
 5468ntf    fn425320   4.763   1.559   6.052 -0.1035  0.4626  0.4072
 5469ntf    cn125321   7.348   6.042   3.539 -0.0787 -0.0135  0.0889
 5469ntf    sn225322   7.349   5.862   3.562  0.0959 -0.0462 -0.1736
 5469ntf    nn325323   7.201   5.842   3.512 -0.0628  0.3638  0.1345
 5469ntf    sn225324   7.057   5.829   3.574 -0.0854  0.0388  0.0130
 5469ntf    cn125325   6.959   5.805   3.423  0.0017 -0.4991  0.0382
 5469ntf    fn425326   7.350   6.075   3.411  0.5701  0.3288  0.1832
 5469ntf    fn425327   7.255   6.104   3.610 -0.2765  0.2074 -0.3598
 5469ntf    fn425328   7.457   6.095   3.593  0.0514 -0.0408 -0.1459
 5469ntf    on525329   7.441   5.803   3.468  0.7704 -0.3364  0.6593
 5469ntf    on525330   7.380   5.852   3.702  0.2133  0.4149 -0.1664
 5469ntf    on525331   6.997   5.947   3.631 -0.2068 -0.0650  0.1008
 5469ntf    on525332   7.030   5.712   3.654 -0.5323 -0.0518 -0.2693
 5469ntf    fn425333   6.834   5.786   3.463  0.1293 -0.6471  0.3693
 5469ntf    fn425334   6.959   5.912   3.344 -0.1746  0.1752  0.9382
 5469ntf    fn425335   6.991   5.700   3.349 -0.6288 -0.0935 -0.8244
 5470ntf    cn125336   1.173   4.284   4.982  0.0371  0.1257 -0.0784
 5470ntf    sn225337   1.239   4.155   4.873  0.0708 -0.1635  0.2830
 5470ntf    nn325338   1.393   4.173   4.897  0.0948 -0.2736  0.2160
 5470ntf    sn225339   1.490   4.266   4.815 -0.0750 -0.2764  0.0113
 5470ntf    cn125340   1.523   4.149   4.680 -0.0165 -0.0181 -0.1990
 5470ntf    fn425341   1.222   4.406   4.962  0.0676  0.2159  0.5054
 5470ntf    fn425342   1.043   4.290   4.963 -0.0773 -0.7766  0.3756
 5470ntf    fn425343   1.182   4.254   5.111 -0.0220 -0.1315 -0.1344
 5470ntf    on525344   1.196   4.029   4.928 -0.3820  0.0733  0.4704
 5470ntf    on525345   1.196   4.198   4.743 -0.1102 -0.3830  0.2694
 5470ntf    on525346   1.624   4.276   4.869 -0.0187  0.3394 -0.2374
 5470ntf    on525347   1.430   4.387   4.766 -0.0679 -0.0347  0.5961
 5470ntf    fn425348   1.634   4.175   4.614 -0.1901  0.1618 -0.4220
 5470ntf    fn425349   1.544   4.028   4.729  0.6373  0.3069  0.3384
 5470ntf    fn425350   1.424   4.137   4.592  0.0722  0.0096 -0.3030
 5471ntf    cn125351   3.850   6.271   7.169  0.0985 -0.0875  0.1252
 5471ntf    sn225352   3.886   6.196   7.330  0.0282 -0.0098  0.1769
 5471ntf    nn325353   4.012   6.278   7.376  0.0218  0.1428 -0.0760
 5471ntf    sn225354   4.156   6.232   7.418 -0.0170  0.0039 -0.0964
 5471ntf    cn125355   4.207   6.346   7.550  0.0271 -0.1347  0.0060
 5471ntf    fn425356   3.913   6.214   7.068  0.2327  0.2495  0.0141
 5471ntf    fn425357   3.723   6.268   7.131  0.3623  0.3143 -0.8310
 5471ntf    fn425358   3.885   6.399   7.170  0.2101 -0.1200  0.2393
 5471ntf    on525359   3.768   6.217   7.410 -0.3805 -0.4939 -0.2945
 5471ntf    on525360   3.915   6.060   7.291 -0.3312  0.0133 -0.1661
 5471ntf    on525361   4.253   6.267   7.318  0.2406 -0.3622  0.0227
 5471ntf    on525362   4.172   6.100   7.474  0.7434  0.0328 -0.2441
 5471ntf    fn425363   4.250   6.462   7.504  0.2927 -0.1194  0.2818
 5471ntf    fn425364   4.109   6.361   7.637  0.2739  0.4608  0.1858
 5471ntf    fn425365   4.306   6.300   7.625  0.1448 -0.3699 -0.2937
 5472ntf    cn125366   5.353   5.079   2.173  0.5264  0.1634 -0.1929
 5472ntf    sn225367   5.335   4.933   2.279  0.2004  0.1885 -0.2120
 5472ntf    nn325368   5.204   4.978   2.353  0.1116  0.1324 -0.3360
 5472ntf    sn225369   5.052   4.967   2.318 -0.0042 -0.0067  0.1958
 5472ntf    cn125370   5.007   4.823   2.419 -0.2242 -0.2635 -0.2619
 5472ntf    fn425371   5.375   5.188   2.245  0.1377  0.2819 -0.2528
 5472ntf    fn425372   5.452   5.081   2.086  0.6269  0.4992 -0.0755
 5472ntf    fn425373   5.239   5.100   2.110  0.1167  0.2234  0.5466
 5472ntf    on525374   5.316   4.823   2.188 -0.1815 -0.1307  0.2508
 5472ntf    on525375   5.442   4.929   2.377 -0.1520 -0.4316  0.1567
 5472ntf    on525376   5.026   4.934   2.180 -0.2338  0.5869  0.0950
 5472ntf    on525377   4.972   5.072   2.375 -0.4287 -0.0795 -0.2589
 5472ntf    fn425378   4.998   4.843   2.549  0.1489  0.0042 -0.2737
 5472ntf    fn425379   4.891   4.772   2.382 -0.3700  0.0799 -0.2786
 5472ntf    fn425380   5.100   4.732   2.394  0.5340  0.4241  0.0073
 5473ntf    cn125381   6.854   3.110   1.339 -0.1581 -0.0586  0.2348
 5473ntf    sn225382   6.990   3.048   1.235 -0.1743  0.0850  0.1295
 5473ntf    nn325383   6.983   3.165   1.129  0.1654 -0.0335 -0.0256
 5473ntf    sn225384   7.086   3.280   1.100 -0.0811  0.1560 -0.1450
 5473ntf    cn125385   6.999   3.420   1.177 -0.4225 -0.0349 -0.1802
 5473ntf    fn425386   6.889   3.219   1.404 -0.7007  0.3579 -0.1678
 5473ntf    fn425387   6.751   3.145   1.264 -0.0332  0.6934  0.4091
 5473ntf    fn425388   6.811   3.031   1.436 -0.0517  0.0054  0.3346
 5473ntf    on525389   7.103   3.054   1.324 -0.1080 -0.1339  0.0586
 5473ntf    on525390   6.935   2.927   1.181  0.0157  0.3548 -0.6946
 5473ntf    on525391   7.101   3.307   0.959 -0.4001 -0.0963 -0.2292
 5473ntf    on525392   7.209   3.277   1.175  0.0277 -0.2865 -0.3415
 5473ntf    fn425393   7.068   3.528   1.144 -0.0045 -0.4576 -0.7183
 5473ntf    fn425394   6.875   3.436   1.134 -0.5253  0.4871  0.3009
 5473ntf    fn425395   6.996   3.407   1.308 -0.1287 -0.3510 -0.2045
 5474ntf    cn125396   5.973   2.665   5.314 -0.1564 -0.3726 -0.4680
 5474ntf    sn225397   6.038   2.539   5.427  0.0671  0.0366 -0.1358
 5474ntf    nn325398   6.184   2.530   5.370 -0.0363  0.0722 -0.4071
 5474ntf    sn225399   6.258   2.409   5.303  0.1243  0.0515 -0.1942
 5474ntf    cn125400   6.243   2.454   5.127  0.0935 -0.1152 -0.2352
 5474ntf    fn425401   5.845   2.683   5.341 -0.0394 -0.4624  0.1397
 5474ntf    fn425402   6.041   2.778   5.330 -0.1531 -0.4166 -0.1772
 5474ntf    fn425403   5.980   2.626   5.188  0.3363 -0.5353 -0.3937
 5474ntf    on525404   6.030   2.610   5.553 -1.0607 -0.2631 -0.0249
 5474ntf    on525405   5.949   2.427   5.408  0.3997 -0.2090 -0.2595
 5474ntf    on525406   6.202   2.277   5.315  0.6360 -0.1837 -0.3850
 5474ntf    on525407   6.400   2.418   5.325  0.1021 -0.3250  0.1009
 5474ntf    fn425408   6.295   2.571   5.091 -0.6494  0.2300 -0.2082
 5474ntf    fn425409   6.308   2.371   5.047  0.4872 -0.1280  0.0935
 5474ntf    fn425410   6.117   2.458   5.089  0.1919  0.1369 -0.5431
 5475ntf    cn125411   7.004   7.348   4.189 -0.3166  0.2388 -0.1352
 5475ntf    sn225412   7.153   7.434   4.249 -0.0859 -0.1542 -0.1412
 5475ntf    nn325413   7.269   7.372   4.162 -0.2016 -0.1435 -0.3056
 5475ntf    sn225414   7.327   7.441   4.033  0.1648 -0.0379 -0.0854
 5475ntf    cn125415   7.447   7.563   4.095 -0.0477  0.2686 -0.2798
 5475ntf    fn425416   6.990   7.364   4.059  0.0811  0.3464 -0.1662
 5475ntf    fn425417   7.014   7.218   4.213  0.5074  0.3107 -0.0557
 5475ntf    fn425418   6.900   7.384   4.262 -0.1619  0.0928  0.1575
 5475ntf    on525419   7.122   7.575   4.245 -0.3128 -0.2244 -1.1278
 5475ntf    on525420   7.158   7.371   4.378 -0.3296  0.1916  0.0367
 5475ntf    on525421   7.236   7.525   3.960  0.7460  0.7057  0.0295
 5475ntf    on525422   7.406   7.344   3.961 -0.3354 -0.1546 -0.4802
 5475ntf    fn425423   7.549   7.499   4.149  0.0299  0.4759 -0.1812
 5475ntf    fn425424   7.499   7.637   3.999 -0.3043 -0.1143 -0.7188
 5475ntf    fn425425   7.385   7.633   4.189  0.1674 -0.0990  0.1397
 5476ntf    cn125426   1.325   1.514   4.961 -0.0109  0.3668  0.3173
 5476ntf    sn225427   1.323   1.552   5.139  0.0683 -0.0621  0.4106
 5476ntf    nn325428   1.197   1.642   5.161 -0.2115 -0.1503 -0.7260
 5476ntf    sn225429   1.059   1.600   5.224 -0.0429  0.0089 -0.2388
 5476ntf    cn125430   0.962   1.752   5.246  0.2276  0.0899  0.4078
 5476ntf    fn425431   1.430   1.444   4.923 -0.1085  0.2767  0.2105
 5476ntf    fn425432   1.217   1.454   4.913  0.2040  0.4511 -0.2788
 5476ntf    fn425433   1.335   1.626   4.890 -0.2216 -0.1051 -0.4746
 5476ntf    on525434   1.322   1.422   5.201  0.0333 -0.1036  0.3238
 5476ntf    on525435   1.447   1.624   5.158  0.2363 -0.1030 -0.4511
 5476ntf    on525436   1.074   1.562   5.362  0.3805 -0.5606 -0.4385
 5476ntf    on525437   0.967   1.524   5.143 -0.3281  0.5224 -0.4050
 5476ntf    fn425438   1.034   1.846   5.305 -0.0474  0.2671  0.4638
 5476ntf    fn425439   0.935   1.802   5.127  0.0289 -0.4099  0.2419
 5476ntf    fn425440   0.850   1.742   5.316 -0.0117  0.0365  0.0230
 5477ntf    cn125441   5.560   5.989   3.694  0.2971 -0.1855 -0.1991
 5477ntf    sn225442   5.554   6.169   3.718 -0.3196 -0.2455  0.1292
 5477ntf    nn325443   5.661   6.196   3.830 -0.0766  0.7184 -0.3221
 5477ntf    sn225444   5.655   6.280   3.962 -0.1473 -0.5079  0.4697
 5477ntf    cn125445   5.784   6.406   3.943 -0.0764 -0.6370  0.0883
 5477ntf    fn425446   5.664   5.947   3.624  0.4842  0.4708 -0.3271
 5477ntf    fn425447   5.572   5.935   3.814  0.4756 -0.5992 -0.4031
 5477ntf    fn425448   5.453   5.927   3.646  0.0514  0.1753 -0.1244
 5477ntf    on525449   5.603   6.214   3.590 -0.4891 -0.5292 -0.0343
 5477ntf    on525450   5.417   6.197   3.751 -0.3528 -0.3061  0.0417
 5477ntf    on525451   5.685   6.206   4.082 -0.1515  0.0317  0.8047
 5477ntf    on525452   5.536   6.361   3.975  0.2610  0.0845  0.5378
 5477ntf    fn425453   5.765   6.483   3.837  0.0677 -0.2090  0.3709
 5477ntf    fn425454   5.797   6.485   4.049 -0.8280 -0.5167  0.0942
 5477ntf    fn425455   5.902   6.352   3.915  0.0001 -0.3217 -0.2127
 5478ntf    cn125456   5.414   1.399   1.064  0.0458  0.0701 -0.0144
 5478ntf    sn225457   5.465   1.329   1.224  0.1021  0.0023 -0.0623
 5478ntf    nn325458   5.357   1.389   1.321  0.2293 -0.1746  0.1895
 5478ntf    sn225459   5.369   1.504   1.427 -0.1595  0.0620 -0.0207
 5478ntf    cn125460   5.196   1.555   1.450 -0.0873  0.2947  0.0145
 5478ntf    fn425461   5.475   1.350   0.958 -0.4499  0.0732 -0.3027
 5478ntf    fn425462   5.284   1.385   1.045 -0.0214  0.8280 -0.1698
 5478ntf    fn425463   5.440   1.529   1.059  0.2415  0.0399  0.2057
 5478ntf    on525464   5.443   1.192   1.185 -0.0560  0.0338 -0.0865
 5478ntf    on525465   5.605   1.357   1.245 -0.0080  0.4782  0.0519
 5478ntf    on525466   5.441   1.622   1.384  0.4613 -0.3981 -0.2514
 5478ntf    on525467   5.409   1.450   1.555 -0.3327  0.4396  0.1954
 5478ntf    fn425468   5.171   1.587   1.575 -0.4094  0.5733 -0.1193
 5478ntf    fn425469   5.160   1.660   1.378 -0.2445  0.4932  0.3810
 5478ntf    fn425470   5.114   1.454   1.424 -0.5729  0.6627  0.1071
 5479ntf    cn125471   0.711   7.307   1.032  0.0183  0.2724 -0.1964
 5479ntf    sn225472   0.861   7.273   0.935  0.0251  0.0577 -0.1102
 5479ntf    nn325473   0.961   7.288   1.056  0.0172  0.0939 -0.1082
 5479ntf    sn225474   1.108   7.339   1.077 -0.0409  0.1205  0.2411
 5479ntf    cn125475   1.161   7.217   1.200 -0.1933 -0.1145  0.0752
 5479ntf    fn425476   0.712   7.418   1.104 -0.1819  0.2665 -0.1828
 5479ntf    fn425477   0.618   7.318   0.938 -0.0605  0.0773 -0.1412
 5479ntf    fn425478   0.673   7.208   1.111  0.8724  0.0120 -0.1062
 5479ntf    on525479   0.842   7.137   0.892  0.2014  0.0496 -0.1679
 5479ntf    on525480   0.871   7.373   0.832  0.2624  0.3314  0.1745
 5479ntf    on525481   1.120   7.462   1.150  0.0018  0.7234 -0.7569
 5479ntf    on525482   1.189   7.331   0.958 -0.2817  0.3998  0.0576
 5479ntf    fn425483   1.153   7.095   1.148  0.2831 -0.0672 -0.1124
 5479ntf    fn425484   1.285   7.238   1.241 -0.2959 -0.1397  0.4030
 5479ntf    fn425485   1.077   7.227   1.302 -0.4705 -0.2368 -0.1426
 5480ntf    cn125486   7.448   1.867   5.666  0.0716  0.1592  0.0908
 5480ntf    sn225487   7.575   1.794   5.775 -0.0029 -0.2296 -0.0816
 5480ntf    nn325488   7.546   1.641   5.752  0.3673 -0.3085 -0.0305
 5480ntf    sn225489   7.524   1.524   5.853  0.2534 -0.1518  0.1278
 5480ntf    cn125490   7.351   1.486   5.811  0.1470  0.3449  0.1115
 5480ntf    fn425491   7.332   1.808   5.687  0.0364  0.2071  0.0284
 5480ntf    fn425492   7.426   1.994   5.695  0.4540  0.1793  0.3075
 5480ntf    fn425493   7.467   1.855   5.536 -0.3724 -0.1139  0.0500
 5480ntf    on525494   7.694   1.836   5.705 -0.3958  0.2072 -0.4992
 5480ntf    on525495   7.548   1.862   5.899  0.5757  0.2246 -0.1976
 5480ntf    on525496   7.522   1.555   5.994  0.9131 -1.0587  0.3458
 5480ntf    on525497   7.586   1.400   5.813 -0.2294 -0.3157 -0.1178
 5480ntf    fn425498   7.270   1.584   5.845  0.3653  0.5234  0.1165
 5480ntf    fn425499   7.336   1.471   5.681  0.1604 -0.8768  0.2403
 5480ntf    fn425500   7.305   1.381   5.877 -0.5194  0.3585 -0.3184
 5481ntf    cn125501   1.076   0.306   1.906 -0.5404  0.3023  0.0519
 5481ntf    sn225502   1.143   0.475   1.903  0.0635  0.0654  0.0047
 5481ntf    nn325503   1.288   0.440   1.952  0.0261 -0.1499 -0.0355
 5481ntf    sn225504   1.344   0.404   2.095  0.0344  0.3730  0.0960
 5481ntf    cn125505   1.484   0.300   2.045 -0.2920  0.1050 -0.2725
 5481ntf    fn425506   1.173   0.216   1.898 -0.2070  0.6534  0.0821
 5481ntf    fn425507   1.008   0.280   2.017 -0.6574  0.0873 -0.0685
 5481ntf    fn425508   0.993   0.279   1.806  0.0014 -0.2879 -0.2478
 5481ntf    on525509   1.143   0.512   1.764 -0.0185 -0.1239 -0.0455
 5481ntf    on525510   1.061   0.548   1.997  0.3781  0.0982  0.2555
 5481ntf    on525511   1.265   0.316   2.178  0.5902 -0.1424  0.0824
 5481ntf    on525512   1.406   0.517   2.159  0.2123  0.3040  0.0449
 5481ntf    fn425513   1.457   0.174   2.016  0.7414 -0.2953  0.4600
 5481ntf    fn425514   1.541   0.348   1.935  0.2124 -0.0245 -0.0719
 5481ntf    fn425515   1.578   0.296   2.138 -0.2777  0.5229 -0.2654
 5482ntf    cn125516   2.286   6.968   0.672  0.1904 -0.3310  0.0608
 5482ntf    sn225517   2.330   7.090   0.800 -0.1383 -0.0099 -0.1272
 5482ntf    nn325518   2.414   7.183   0.706 -0.1191 -0.0589 -0.1590
 5482ntf    sn225519   2.379   7.324   0.645 -0.4049 -0.0011  0.1349
 5482ntf    cn125520   2.518   7.414   0.720 -0.1719 -0.3232  0.0920
 5482ntf    fn425521   2.209   6.873   0.723  0.0522 -0.2309  0.0376
 5482ntf    fn425522   2.231   7.015   0.562 -0.3602 -0.4954  0.2608
 5482ntf    fn425523   2.397   6.916   0.623  0.2141 -0.5532  0.3503
 5482ntf    on525524   2.204   7.143   0.844  0.0064  0.1537  0.0928
 5482ntf    on525525   2.402   7.028   0.909 -0.1093  0.2514  0.0026
 5482ntf    on525526   2.262   7.392   0.696 -0.4520  0.0734 -0.0713
 5482ntf    on525527   2.406   7.326   0.503  0.0524 -0.2308  0.2147
 5482ntf    fn425528   2.635   7.357   0.698 -0.1497 -0.3366  0.2431
 5482ntf    fn425529   2.526   7.535   0.667  0.2325 -0.3280  0.1411
 5482ntf    fn425530   2.509   7.431   0.851  0.2548 -0.5626  0.1536
 5483ntf    cn125531   5.872   6.352   1.427  0.2179 -0.5370  0.1659
 5483ntf    sn225532   5.942   6.457   1.296  0.1550 -0.2485  0.3620
 5483ntf    nn325533   5.900   6.601   1.343 -0.8367 -0.4232  0.0399
 5483ntf    sn225534   5.840   6.719   1.259  0.1524  0.2384  0.2506
 5483ntf    cn125535   5.669   6.662   1.279  0.1300  0.2521  0.1022
 5483ntf    fn425536   5.742   6.371   1.448  0.3837  0.1016  0.6305
 5483ntf    fn425537   5.887   6.223   1.405 -0.4084 -0.5375 -0.3059
 5483ntf    fn425538   5.925   6.379   1.545  0.4350  0.1014 -0.0731
 5483ntf    on525539   6.083   6.429   1.309  0.2282  0.0568  0.2279
 5483ntf    on525540   5.893   6.412   1.168  0.1268 -0.4431  0.4414
 5483ntf    on525541   5.862   6.718   1.117 -0.4696 -0.1691  0.1548
 5483ntf    on525542   5.840   6.848   1.323  0.2716  0.2412  0.2450
 5483ntf    fn425543   5.654   6.606   1.397 -0.2136  0.8763  0.3597
 5483ntf    fn425544   5.584   6.764   1.281  0.1278  0.2580 -0.2725
 5483ntf    fn425545   5.626   6.572   1.191  0.1008  0.1295  0.2425
 5484ntf    cn125546   7.117   6.615   6.055 -0.2420  0.1552  0.4838
 5484ntf    sn225547   7.058   6.787   6.067  0.1105  0.2996  0.1669
 5484ntf    nn325548   7.082   6.797   6.221 -0.1907  0.9499  0.1722
 5484ntf    sn225549   6.986   6.790   6.345  0.1224  0.0742  0.3732
 5484ntf    cn125550   7.064   6.898   6.468  0.1270  0.4021  0.0844
 5484ntf    fn425551   7.247   6.615   6.030 -0.3616  0.2134 -0.1699
 5484ntf    fn425552   7.090   6.543   6.163  0.4542 -0.2057  0.4250
 5484ntf    fn425553   7.065   6.541   5.958 -0.4224  0.2533  0.5073
 5484ntf    on525554   7.153   6.865   5.991  0.1785  0.0714  0.0139
 5484ntf    on525555   6.926   6.790   6.010  0.1577 -0.5329 -0.0142
 5484ntf    on525556   6.983   6.657   6.401 -0.1850  0.1809  0.6184
 5484ntf    on525557   6.855   6.846   6.321  0.2595  0.2117 -0.0655
 5484ntf    fn425558   7.145   6.986   6.412  0.2941  0.1128 -0.1241
 5484ntf    fn425559   6.982   6.966   6.548 -0.1277  0.0797  0.0979
 5484ntf    fn425560   7.140   6.825   6.547 -0.2723 -0.1854 -0.0694
 5485ntf    cn125561   5.157   5.304   4.669 -0.0707  0.4089  0.1941
 5485ntf    sn225562   5.018   5.251   4.564  0.0349  0.2430  0.1372
 5485ntf    nn325563   4.923   5.373   4.587  0.3122  0.5240 -0.1948
 5485ntf    sn225564   4.817   5.395   4.701  0.4449 -0.0885  0.0480
 5485ntf    cn125565   4.833   5.576   4.716 -0.0996 -0.0375  0.0449
 5485ntf    fn425566   5.136   5.323   4.798 -0.2346 -0.5240  0.3100
 5485ntf    fn425567   5.264   5.229   4.651 -0.3637 -0.0762  0.4476
 5485ntf    fn425568   5.199   5.423   4.628 -0.2161  0.4165  0.0631
 5485ntf    on525569   5.085   5.241   4.436 -0.4485  0.1260 -0.1098
 5485ntf    on525570   4.974   5.125   4.619  0.3620 -0.1251 -0.4381
 5485ntf    on525571   4.861   5.343   4.828  0.1458 -0.8167 -0.1407
 5485ntf    on525572   4.678   5.385   4.664  0.2239 -0.3550  0.9149
 5485ntf    fn425573   4.954   5.614   4.753 -0.1954 -0.1150  0.4529
 5485ntf    fn425574   4.803   5.649   4.610 -0.1162  0.1180  0.1565
 5485ntf    fn425575   4.745   5.613   4.808 -0.1282  0.0560 -0.0204
 5486ntf    cn125576   6.523   7.017   0.494  0.2628 -0.1280 -0.2846
 5486ntf    sn225577   6.511   6.836   0.475  0.2390 -0.1335 -0.2229
 5486ntf    nn325578   6.389   6.830   0.377  0.0368 -0.8304  0.0648
 5486ntf    sn225579   6.241   6.793   0.414 -0.1813 -0.0721 -0.0218
 5486ntf    cn125580   6.264   6.614   0.438  0.0973 -0.0600 -0.1959
 5486ntf    fn425581   6.616   7.053   0.580 -0.1636  0.1399  0.0704
 5486ntf    fn425582   6.574   7.075   0.386 -0.0376 -0.4292 -0.5949
 5486ntf    fn425583   6.408   7.071   0.529  0.1805 -0.4957  0.0205
 5486ntf    on525584   6.632   6.806   0.403 -0.0425 -0.1862 -0.6786
 5486ntf    on525585   6.494   6.792   0.611  0.5314  0.1988 -0.0769
 5486ntf    on525586   6.140   6.781   0.312 -0.2120 -0.0296  0.0034
 5486ntf    on525587   6.204   6.840   0.545  0.1617  0.0659  0.0260
 5486ntf    fn425588   6.152   6.544   0.443  0.0542  0.0515  0.4197
 5486ntf    fn425589   6.333   6.562   0.338  0.2920 -0.1302 -0.0251
 5486ntf    fn425590   6.326   6.590   0.552 -0.2217  0.0170 -0.0025
 5487ntf    cn125591   0.842   2.049   5.499 -0.1288  0.1122  0.0710
 5487ntf    sn225592   0.888   1.964   5.653 -0.0996 -0.1160 -0.0625
 5487ntf    nn325593   0.961   2.082   5.727 -0.3248 -0.4150  0.6451
 5487ntf    sn225594   1.116   2.104   5.744 -0.3011  0.1083 -0.2100
 5487ntf    cn125595   1.124   2.283   5.710 -0.2113  0.1365 -0.0422
 5487ntf    fn425596   0.794   2.172   5.513 -0.6890 -0.0568 -0.3150
 5487ntf    fn425597   0.946   2.067   5.420 -0.5319  0.1848 -0.4522
 5487ntf    fn425598   0.755   1.980   5.427  0.1295  0.1953 -0.3209
 5487ntf    on525599   0.761   1.936   5.715  0.0582 -0.5445  0.0713
 5487ntf    on525600   0.974   1.854   5.618 -0.1738 -0.2481  0.1670
 5487ntf    on525601   1.205   2.044   5.648  0.1680  0.0586  0.2538
 5487ntf    on525602   1.155   2.094   5.882 -0.1240 -0.0482 -0.2709
 5487ntf    fn425603   1.244   2.331   5.737 -0.3040 -0.0660  0.7492
 5487ntf    fn425604   1.094   2.308   5.583 -0.1952  0.0864 -0.0557
 5487ntf    fn425605   1.036   2.348   5.783  0.0016  0.4190 -0.0372
 5488ntf    cn125606   3.440   4.164   3.569  0.0680  0.1300 -0.4315
 5488ntf    sn225607   3.339   4.270   3.677  0.0976 -0.1484 -0.1302
 5488ntf    nn325608   3.429   4.398   3.692 -0.1796  0.0019  0.2863
 5488ntf    sn225609   3.463   4.499   3.577  0.0387 -0.2259  0.1483
 5488ntf    cn125610   3.339   4.630   3.605  0.1247 -0.1626  0.2302
 5488ntf    fn425611   3.395   4.040   3.572 -0.1556  0.2201  0.0461
 5488ntf    fn425612   3.437   4.198   3.441  0.1876 -0.2634 -0.5377
 5488ntf    fn425613   3.567   4.162   3.603 -0.0564 -0.1948  0.0288
 5488ntf    on525614   3.211   4.290   3.613  0.2175  0.0283 -0.3157
 5488ntf    on525615   3.334   4.200   3.803 -0.4973  0.3824  0.1512
 5488ntf    on525616   3.436   4.461   3.440 -0.7054  0.3069  0.1395
 5488ntf    on525617   3.585   4.569   3.608 -0.1884  0.0437  0.4418
 5488ntf    fn425618   3.332   4.657   3.734  0.0788  0.7256  0.0422
 5488ntf    fn425619   3.353   4.743   3.538  0.0646  0.0588  0.5920
 5488ntf    fn425620   3.216   4.595   3.571  0.2879 -0.4376 -0.0912
 5489ntf    cn125621   2.351   3.387   6.258 -0.1331 -0.1890  0.1309
 5489ntf    sn225622   2.192   3.460   6.308  0.1515  0.3455  0.2646
 5489ntf    nn325623   2.204   3.414   6.457 -0.2621 -0.0396  0.1823
 5489ntf    sn225624   2.135   3.296   6.535 -0.0160 -0.3512 -0.0664
 5489ntf    cn125625   2.010   3.394   6.625  0.4170 -0.0902  0.2550
 5489ntf    fn425626   2.359   3.257   6.281  0.0239 -0.2669 -0.3360
 5489ntf    fn425627   2.370   3.405   6.128  0.3149 -0.3369  0.1727
 5489ntf    fn425628   2.449   3.447   6.323  0.0492 -0.0436 -0.2729
 5489ntf    on525629   2.209   3.603   6.296  0.2996  0.3388  0.3858
 5489ntf    on525630   2.089   3.396   6.230  0.8416 -0.1023 -0.2888
 5489ntf    on525631   2.219   3.240   6.637  0.1613  0.0543  0.0136
 5489ntf    on525632   2.058   3.201   6.459 -0.0561 -0.1940 -0.2249
 5489ntf    fn425633   1.927   3.460   6.546 -0.1587 -0.3159  0.6592
 5489ntf    fn425634   1.940   3.312   6.701  0.2963 -0.1652  0.0640
 5489ntf    fn425635   2.067   3.484   6.703  1.0706 -0.0869 -0.2135
 5490ntf    cn125636   4.753   7.273   6.053  0.2391 -0.4453  0.3397
 5490ntf    sn225637   4.585   7.250   6.119  0.0732 -0.0066  0.0737
 5490ntf    nn325638   4.510   7.373   6.055  0.0386 -0.0235  0.0815
 5490ntf    sn225639   4.400   7.469   6.112  0.1108  0.2791 -0.2883
 5490ntf    cn125640   4.513   7.585   6.195  0.0943  0.1253 -0.0518
 5490ntf    fn425641   4.763   7.232   5.928  0.1855 -0.1839  0.2490
 5490ntf    fn425642   4.790   7.400   6.062 -0.0837 -0.2789 -0.5837
 5490ntf    fn425643   4.838   7.200   6.123  0.3835 -0.0340  0.5996
 5490ntf    on525644   4.535   7.125   6.068 -0.3336  0.1615  0.0492
 5490ntf    on525645   4.604   7.267   6.261  0.1673 -0.1292  0.0757
 5490ntf    on525646   4.305   7.414   6.206  0.4841 -0.2727 -0.2279
 5490ntf    on525647   4.346   7.545   6.002 -0.2905 -0.8809 -0.9016
 5490ntf    fn425648   4.594   7.529   6.284  0.1144 -0.0044 -0.1509
 5490ntf    fn425649   4.597   7.652   6.118 -0.1106 -0.5419 -0.8596
 5490ntf    fn425650   4.453   7.683   6.260  0.3208  0.3852 -0.2283
 5491ntf    cn125651   0.967   2.545   6.077  0.1824 -0.6104 -0.0277
 5491ntf    sn225652   1.071   2.647   5.968  0.3613 -0.6130  0.1397
 5491ntf    nn325653   1.102   2.764   6.067  0.5039 -0.1271 -0.4726
 5491ntf    sn225654   1.089   2.920   6.054 -0.2301 -0.1729 -0.3275
 5491ntf    cn125655   1.263   2.969   6.068 -0.3150 -0.0214  0.2007
 5491ntf    fn425656   1.030   2.490   6.180  0.0597  0.3028  0.5479
 5491ntf    fn425657   0.862   2.614   6.116  0.1413 -0.5234 -0.2926
 5491ntf    fn425658   0.914   2.446   6.007 -0.5176  0.2720 -0.7638
 5491ntf    on525659   1.183   2.561   5.934  0.0017 -0.8980 -0.3406
 5491ntf    on525660   0.968   2.679   5.873  0.4744 -0.1872  0.1593
 5491ntf    on525661   1.028   2.982   6.168  0.4193  0.1260 -0.1409
 5491ntf    on525662   1.054   2.968   5.922 -0.5495 -0.0931 -0.2158
 5491ntf    fn425663   1.283   3.098   6.089  0.1280 -0.1117  0.3416
 5491ntf    fn425664   1.306   2.905   6.176 -0.1450 -0.3202 -0.0402
 5491ntf    fn425665   1.340   2.932   5.967 -0.2972 -0.0547  0.2260
 5492ntf    cn125666   4.742   1.807   0.258  0.1727  0.0720  0.1069
 5492ntf    sn225667   4.591   1.728   0.194  0.1645  0.1344  0.0497
 5492ntf    nn325668   4.633   1.714   0.043 -0.6433  0.2880 -0.1984
 5492ntf    sn225669   4.570   1.619  -0.064 -0.0120 -0.2170 -0.1314
 5492ntf    cn125670   4.493   1.744  -0.172 -0.0303  0.0111  0.1440
 5492ntf    fn425671   4.751   1.785   0.389 -0.2052 -0.1250  0.1027
 5492ntf    fn425672   4.852   1.764   0.200  0.3269  0.1714  0.3234
 5492ntf    fn425673   4.751   1.938   0.250  0.5612  0.0128 -0.4725
 5492ntf    on525674   4.579   1.606   0.269  0.1572 -0.1306 -0.3777
 5492ntf    on525675   4.483   1.824   0.203  0.5909  0.6725 -0.4571
 5492ntf    on525676   4.461   1.535  -0.024 -0.2088  0.0587 -0.0820
 5492ntf    on525677   4.674   1.566  -0.149  0.1926  0.0962 -0.0805
 5492ntf    fn425678   4.497   1.708  -0.300 -0.4976  0.0625  0.1156
 5492ntf    fn425679   4.368   1.765  -0.136 -0.0832 -0.0392 -0.0098
 5492ntf    fn425680   4.555   1.861  -0.177 -0.1875  0.0940  0.1256
 5493ntf    cn125681   3.317   2.064   1.287  0.4907  0.1358 -0.2452
 5493ntf    sn225682   3.383   2.035   1.453 -0.2223 -0.2733 -0.0278
 5493ntf    nn325683   3.269   2.094   1.543  0.0401 -0.0312  0.1500
 5493ntf    sn225684   3.215   2.046   1.682 -0.2107 -0.0417  0.0499
 5493ntf    cn125685   3.323   2.160   1.774  0.0679 -0.2455 -0.0241
 5493ntf    fn425686   3.370   1.992   1.189  0.2681 -0.3944  0.0237
 5493ntf    fn425687   3.189   2.033   1.278  0.5274 -0.2242  0.4415
 5493ntf    fn425688   3.331   2.191   1.252 -0.0582  0.3582  0.3303
 5493ntf    on525689   3.403   1.892   1.453 -0.3055 -0.2843 -0.4798
 5493ntf    on525690   3.500   2.120   1.448 -0.2499 -0.2159  0.2870
 5493ntf    on525691   3.244   1.910   1.721  0.5576  0.1056  0.0004
 5493ntf    on525692   3.080   2.083   1.718 -0.0082  0.3895  0.3733
 5493ntf    fn425693   3.295   2.173   1.902 -0.3439 -0.1010 -0.1257
 5493ntf    fn425694   3.450   2.128   1.752  0.1419  0.0166  0.0169
 5493ntf    fn425695   3.315   2.286   1.737  0.4242 -0.2723 -0.1956
 5494ntf    cn125696   1.104   4.999   6.409 -0.2580 -0.2466  0.2652
 5494ntf    sn225697   1.251   4.893   6.391 -0.0951 -0.0266  0.2915
 5494ntf    nn325698   1.224   4.833   6.248 -0.4303 -0.6379  0.6051
 5494ntf    sn225699   1.271   4.694   6.193 -0.1752 -0.2993 -0.0413
 5494ntf    cn125700   1.317   4.743   6.024 -0.2222 -0.0662  0.0138
 5494ntf    fn425701   0.991   4.934   6.391 -0.7698  0.7675 -0.2652
 5494ntf    fn425702   1.096   5.048   6.531 -0.1600  0.3649  0.0311
 5494ntf    fn425703   1.102   5.099   6.322 -0.1618  0.0173  0.5632
 5494ntf    on525704   1.365   4.980   6.382  0.0181 -0.1677  0.3490
 5494ntf    on525705   1.236   4.814   6.511 -0.2013 -0.2811  0.1115
 5494ntf    on525706   1.167   4.596   6.171 -0.0896 -0.3619 -0.1689
 5494ntf    on525707   1.395   4.654   6.254  0.2294  0.3403 -0.4338
 5494ntf    fn425708   1.430   4.811   6.023  0.1384 -0.6591  0.1583
 5494ntf    fn425709   1.326   4.637   5.946 -0.3007 -0.4830  0.5630
 5494ntf    fn425710   1.229   4.820   5.961 -0.3750  0.2737  0.6300
 5495ntf    cn125711   5.620   0.925   0.373 -0.4950 -0.3484  0.2826
 5495ntf    sn225712   5.786   0.862   0.332 -0.3597  0.1902 -0.0043
 5495ntf    nn325713   5.781   0.728   0.413  0.5824  0.1632  0.0189
 5495ntf    sn225714   5.769   0.578   0.368  0.2664  0.1170  0.2476
 5495ntf    cn125715   5.943   0.531   0.340  0.1600 -0.0163 -0.2059
 5495ntf    fn425716   5.531   0.828   0.365 -0.7232 -0.1172 -0.0120
 5495ntf    fn425717   5.610   0.970   0.497  0.5469 -0.1244  0.2927
 5495ntf    fn425718   5.576   1.025   0.297 -0.3775 -0.0969  0.5452
 5495ntf    on525719   5.779   0.851   0.188 -0.4614  0.0183  0.0135
 5495ntf    on525720   5.881   0.954   0.388 -0.5949  0.4309  0.0034
 5495ntf    on525721   5.708   0.563   0.238  0.4958  0.0058  0.1513
 5495ntf    on525722   5.730   0.494   0.478 -0.1338  0.0389  0.0479
 5495ntf    fn425723   5.996   0.605   0.244 -0.1824  0.7031  0.1505
 5495ntf    fn425724   6.020   0.546   0.447  0.0027  0.0433 -0.1009
 5495ntf    fn425725   5.955   0.409   0.293  0.1414 -0.1604  0.1571
 5496ntf    cn125726   3.685   2.010   7.063 -0.0168  0.1262  0.0919
 5496ntf    sn225727   3.585   1.871   7.125  0.0207  0.2752  0.4867
 5496ntf    nn325728   3.629   1.759   7.025 -0.5449  0.2834  0.2244
 5496ntf    sn225729   3.530   1.655   6.961 -0.1586  0.0514 -0.0013
 5496ntf    cn125730   3.610   1.503   7.020  0.2019  0.2330 -0.0141
 5496ntf    fn425731   3.647   2.040   6.940  0.6693  0.3243 -0.0720
 5496ntf    fn425732   3.672   2.121   7.133 -0.2278  0.1029  0.0921
 5496ntf    fn425733   3.812   1.976   7.055 -0.1018 -0.1094 -0.2575
 5496ntf    on525734   3.626   1.844   7.261  0.1303  0.0660  0.4128
 5496ntf    on525735   3.449   1.913   7.105  0.0029  0.1802  0.4109
 5496ntf    on525736   3.544   1.650   6.818  0.6718  0.1359  0.0666
 5496ntf    on525737   3.401   1.647   7.025 -0.1140 -0.5827  0.0082
 5496ntf    fn425738   3.549   1.391   6.982  0.3989  0.1328 -0.0351
 5496ntf    fn425739   3.736   1.483   6.986  0.2972  0.9510 -0.0829
 5496ntf    fn425740   3.603   1.493   7.151 -0.1830 -0.1880 -0.0618
 5497ntf    cn125741   5.768   4.726   4.812 -0.0318 -0.5122  0.1974
 5497ntf    sn225742   5.837   4.854   4.922 -0.0610 -0.2134 -0.1291
 5497ntf    nn325743   5.989   4.820   4.932  0.0991  0.6533  0.5209
 5497ntf    sn225744   6.121   4.876   4.868  0.2172 -0.1428  0.0502
 5497ntf    cn125745   6.143   4.741   4.747 -0.0951 -0.1309 -0.0202
 5497ntf    fn425746   5.821   4.744   4.692  0.0080  0.0533  0.2985
 5497ntf    fn425747   5.797   4.601   4.844 -0.0933 -0.3214  1.0193
 5497ntf    fn425748   5.636   4.733   4.808 -0.0026  0.0260  0.0860
 5497ntf    on525749   5.822   4.975   4.846  0.5473 -0.1417 -0.1334
 5497ntf    on525750   5.757   4.839   5.041 -0.1070  0.0745 -0.1249
 5497ntf    on525751   6.236   4.863   4.954  0.0007  0.0271  0.3631
 5497ntf    on525752   6.110   5.000   4.794  0.3886 -0.2344 -0.1317
 5497ntf    fn425753   6.254   4.757   4.677 -0.1206  0.6872  0.1191
 5497ntf    fn425754   6.143   4.623   4.806  0.3195 -0.3822 -0.5155
 5497ntf    fn425755   6.045   4.738   4.659 -0.3238  0.4128  0.2059
 5498ntf    cn125756   4.191   6.870   1.306  0.2680 -0.0122 -0.1509
 5498ntf    sn225757   4.259   6.907   1.141  0.4437 -0.0140 -0.0803
 5498ntf    nn325758   4.132   6.903   1.048  0.3927 -0.3662  0.0004
 5498ntf    sn225759   4.115   6.811   0.922 -0.1213 -0.1447 -0.0966
 5498ntf    cn125760   4.028   6.921   0.807 -0.2989 -0.0247  0.1514
 5498ntf    fn425761   4.290   6.863   1.394 -0.5266 -0.3976  0.7199
 5498ntf    fn425762   4.107   6.966   1.340 -0.1586 -0.3992 -0.1136
 5498ntf    fn425763   4.128   6.754   1.309  0.0011  0.1390  0.1321
 5498ntf    on525764   4.317   7.038   1.151  0.0768  0.1620 -0.2277
 5498ntf    on525765   4.351   6.799   1.117  0.1465 -0.2280 -0.2617
 5498ntf    on525766   4.020   6.706   0.950  0.1597 -0.4317 -0.2128
 5498ntf    on525767   4.235   6.773   0.851 -0.0995  0.0807 -0.1805
 5498ntf    fn425768   4.100   7.030   0.787 -0.3041 -0.0114  0.2037
 5498ntf    fn425769   4.014   6.881   0.681 -0.0585  0.0902  0.0876
 5498ntf    fn425770   3.911   6.971   0.842 -0.2586  0.1898 -0.0178
 5499ntf    cn125771   4.680   2.458   3.587 -0.1023  0.2849 -0.0406
 5499ntf    sn225772   4.657   2.425   3.764 -0.0875 -0.1864 -0.1250
 5499ntf    nn325773   4.639   2.572   3.817  0.0185 -0.4478  0.6495
 5499ntf    sn225774   4.734   2.676   3.885 -0.3205  0.3526 -0.0743
 5499ntf    cn125775   4.679   2.675   4.058  0.3460 -0.2225  0.1389
 5499ntf    fn425776   4.580   2.514   3.520 -0.2718  0.5589  0.4402
 5499ntf    fn425777   4.782   2.542   3.570 -0.1242  0.3705  0.2573
 5499ntf    fn425778   4.706   2.347   3.520 -0.7037  0.1282 -0.0214
 5499ntf    on525779   4.535   2.347   3.756 -0.5619  0.5371 -0.0610
 5499ntf    on525780   4.772   2.348   3.801  0.4004  0.2602 -0.6890
 5499ntf    on525781   4.703   2.811   3.844 -0.0909  0.3470 -0.2711
 5499ntf    on525782   4.873   2.637   3.894 -0.3454  0.3653  0.4011
 5499ntf    fn425783   4.711   2.778   4.135  0.6757 -0.2703  0.0671
 5499ntf    fn425784   4.547   2.676   4.052  0.3418 -0.4458  0.1675
 5499ntf    fn425785   4.705   2.562   4.123 -0.0068 -0.4406 -0.0912
 5500ntf    cn125786   5.698   5.265   2.443 -0.4093  0.0745 -0.0699
 5500ntf    sn225787   5.746   5.441   2.452 -0.2592  0.0134  0.3493
 5500ntf    nn325788   5.850   5.452   2.334 -0.2236  0.4099  0.4188
 5500ntf    sn225789   6.006   5.456   2.350 -0.2027 -0.0760  0.3508
 5500ntf    cn125790   6.019   5.637   2.335 -0.2669 -0.0738  0.3098
 5500ntf    fn425791   5.585   5.239   2.505  0.0992  0.1276  0.8924
 5500ntf    fn425792   5.676   5.227   2.318 -0.7433  0.3063 -0.0822
 5500ntf    fn425793   5.788   5.189   2.503 -0.1145  0.1990 -0.3487
 5500ntf    on525794   5.628   5.512   2.409  0.0875  0.4834  0.1664
 5500ntf    on525795   5.792   5.471   2.585  0.0107  0.1215  0.2316
 5500ntf    on525796   6.067   5.413   2.227 -0.1403  0.0253  0.3454
 5500ntf    on525797   6.065   5.427   2.478  0.6961 -0.6696 -0.1858
 5500ntf    fn425798   5.976   5.696   2.445 -0.3103  0.3203  0.0833
 5500ntf    fn425799   6.143   5.682   2.319 -0.3561  0.1559  0.2654
 5500ntf    fn425800   5.947   5.686   2.235  0.4509 -0.2262 -0.2900
 5501ntf    cn125801   6.762   1.087   7.429  0.2928 -0.1352  0.0134
 5501ntf    sn225802   6.862   0.960   7.346  0.1545 -0.0642 -0.2622
 5501ntf    nn325803   6.759   0.843   7.329 -0.6194  0.5210  0.3060
 5501ntf    sn225804   6.730   0.729   7.433  0.3613  0.1085  0.1397
 5501ntf    cn125805   6.855   0.607   7.383  0.3086  0.0228  0.2170
 5501ntf    fn425806   6.658   1.129   7.360  0.5468  0.2311 -0.1560
 5501ntf    fn425807   6.710   1.041   7.541 -0.1422 -0.2745 -0.2442
 5501ntf    fn425808   6.829   1.195   7.468  0.2944  0.0833 -0.5815
 5501ntf    on525809   6.888   1.007   7.212  0.1298  0.1924 -0.1775
 5501ntf    on525810   6.981   0.941   7.425  0.2067  1.0264 -0.0620
 5501ntf    on525811   6.608   0.662   7.397  0.1694  0.3250  0.3858
 5501ntf    on525812   6.747   0.756   7.574  0.7186  0.0011  0.1175
 5501ntf    fn425813   6.980   0.651   7.394  0.2676  0.1690  0.1035
 5501ntf    fn425814   6.844   0.494   7.450 -0.0929 -0.3374 -0.4536
 5501ntf    fn425815   6.837   0.578   7.255  0.0034 -0.1682  0.3037
 5502ntf    cn125816   0.431   1.136   3.343  0.1496  0.1943  0.3277
 5502ntf    sn225817   0.495   1.285   3.426  0.3371  0.2469  0.0896
 5502ntf    nn325818   0.537   1.370   3.301 -0.2695 -0.3818 -0.5537
 5502ntf    sn225819   0.459   1.483   3.225 -0.2216  0.1393  0.1557
 5502ntf    cn125820   0.392   1.379   3.091 -0.2455  0.1409  0.1663
 5502ntf    fn425821   0.372   1.168   3.229  0.5778 -0.3656 -0.0590
 5502ntf    fn425822   0.527   1.051   3.312  0.2245  0.3194  0.2133
 5502ntf    fn425823   0.354   1.058   3.417  0.0170  0.3519  0.3560
 5502ntf    on525824   0.384   1.340   3.499  0.2507 -0.2348  0.3196
 5502ntf    on525825   0.603   1.233   3.506  0.3039  0.0565  0.0106
 5502ntf    on525826   0.547   1.577   3.160 -0.5403  0.1513 -0.2624
 5502ntf    on525827   0.351   1.544   3.298 -0.2236  0.4507 -0.1023
 5502ntf    fn425828   0.276   1.328   3.128  0.0526 -0.3914  0.3865
 5502ntf    fn425829   0.380   1.447   2.979  0.5290 -0.2875 -0.1882
 5502ntf    fn425830   0.471   1.276   3.067  0.0051  0.3286  0.1835
 5503ntf    cn125831   7.134   3.014   4.292  0.1163 -0.2720 -0.2114
 5503ntf    sn225832   7.015   2.881   4.262 -0.2033  0.0692 -0.4656
 5503ntf    nn325833   7.109   2.777   4.191 -0.1807 -0.3933  0.2329
 5503ntf    sn225834   7.191   2.660   4.256  0.2439 -0.2135  0.0211
 5503ntf    cn125835   7.077   2.521   4.231  0.0907 -0.1337  0.2768
 5503ntf    fn425836   7.223   2.987   4.387  0.2128 -0.1005 -0.2530
 5503ntf    fn425837   7.210   3.045   4.188 -0.4561 -0.3701 -0.6591
 5503ntf    fn425838   7.072   3.124   4.331 -0.0508 -0.2538 -0.5292
 5503ntf    on525839   6.971   2.840   4.393  0.0909  0.4979 -0.2298
 5503ntf    on525840   6.922   2.937   4.166 -0.7778  0.5254  0.3456
 5503ntf    on525841   7.211   2.672   4.398 -0.2716 -0.0564  0.0809
 5503ntf    on525842   7.310   2.632   4.180 -0.0387 -0.4392 -0.3403
 5503ntf    fn425843   7.027   2.529   4.108  0.4002 -0.8859  0.0973
 5503ntf    fn425844   7.140   2.406   4.247  0.1094 -0.2346 -0.4978
 5503ntf    fn425845   6.976   2.534   4.316 -0.3249  0.1605 -0.2482
 5504ntf    cn125846   7.290   4.121   0.420 -0.4417 -0.2225 -0.1172
 5504ntf    sn225847   7.397   4.102   0.274  0.1805  0.2238  0.2793
 5504ntf    nn325848   7.320   4.178   0.161  0.6515  0.0226 -0.1817
 5504ntf    sn225849   7.355   4.311   0.084 -0.2162  0.3660  0.0030
 5504ntf    cn125850   7.474   4.262  -0.045  0.3568  0.5977  0.4390
 5504ntf    fn425851   7.342   4.066   0.528  0.3895 -0.1373 -0.4666
 5504ntf    fn425852   7.284   4.249   0.450 -0.1724 -0.1675 -0.2934
 5504ntf    fn425853   7.170   4.066   0.410 -0.5948  0.1872 -0.5265
 5504ntf    on525854   7.524   4.156   0.316  0.3573  0.1433 -0.1541
 5504ntf    on525855   7.395   3.960   0.251 -0.0274  0.3014 -0.1881
 5504ntf    on525856   7.423   4.409   0.165  0.2066  0.0632  0.0170
 5504ntf    on525857   7.247   4.345  -0.005  0.1463 -0.3664 -0.7312
 5504ntf    fn425858   7.451   4.148  -0.107  0.2966  0.7136  0.2499
 5504ntf    fn425859   7.479   4.356  -0.138 -0.7852  0.3292  0.0862
 5504ntf    fn425860   7.601   4.257  -0.011  0.4607  0.8930  0.1048
 5505ntf    cn125861   3.586   6.905   4.160 -0.1444 -0.3270 -0.0375
 5505ntf    sn225862   3.532   6.991   4.009 -0.2453 -0.3813 -0.0331
 5505ntf    nn325863   3.666   7.032   3.938 -0.4474  0.2824 -0.0346
 5505ntf    sn225864   3.731   7.175   3.931  0.3452 -0.0865 -0.2431
 5505ntf    cn125865   3.632   7.245   3.796  0.1712  0.0330 -0.0521
 5505ntf    fn425866   3.678   6.976   4.222 -0.1583 -0.3774  0.0419
 5505ntf    fn425867   3.482   6.893   4.242 -0.0837  0.5339  0.1740
 5505ntf    fn425868   3.618   6.778   4.142  0.0632 -0.2980  0.1285
 5505ntf    on525869   3.460   6.894   3.931 -0.0756 -0.5192 -0.0217
 5505ntf    on525870   3.451   7.098   4.061  0.4182  0.1743 -0.1206
 5505ntf    on525871   3.865   7.177   3.877  0.2314 -0.2212 -0.5379
 5505ntf    on525872   3.705   7.262   4.042 -0.3296  0.2720 -0.6803
 5505ntf    fn425873   3.507   7.268   3.833  0.0274 -0.8254  0.0203
 5505ntf    fn425874   3.686   7.358   3.755 -0.2991  0.2674 -0.0314
 5505ntf    fn425875   3.630   7.166   3.690 -0.2507 -0.2828  0.1878
 5506ntf    cn125876   0.486   5.539   5.158  0.2267  0.0563  0.0958
 5506ntf    sn225877   0.358   5.501   5.281 -0.0116 -0.0374 -0.1808
 5506ntf    nn325878   0.304   5.362   5.230 -0.2001 -0.1467  0.3088
 5506ntf    sn225879   0.180   5.343   5.136  0.1031  0.0313 -0.1337
 5506ntf    cn125880   0.262   5.258   4.998 -0.1583  0.1025 -0.3336
 5506ntf    fn425881   0.425   5.548   5.040  0.4283  0.0882 -0.0060
 5506ntf    fn425882   0.533   5.662   5.171 -0.1418  0.2476 -0.3528
 5506ntf    fn425883   0.583   5.449   5.162  0.3586  0.1637 -0.5171
 5506ntf    on525884   0.443   5.492   5.396 -0.6123 -0.5196  0.2344
 5506ntf    on525885   0.264   5.610   5.277 -0.1990 -0.1896  0.0528
 5506ntf    on525886   0.119   5.459   5.076  0.4365 -0.0659 -0.6687
 5506ntf    on525887   0.094   5.235   5.178  0.0099 -0.0545 -0.5353
 5506ntf    fn425888   0.303   5.138   5.033 -0.0548  0.2803  0.1624
 5506ntf    fn425889   0.177   5.243   4.897 -0.2262 -0.6715 -0.1623
 5506ntf    fn425890   0.365   5.328   4.952 -0.0541  0.2435  0.1049
 5507ntf    cn125891   7.052   1.310   5.607 -0.1496  0.0591 -0.1315
 5507ntf    sn225892   6.887   1.278   5.539 -0.1215  0.0183 -0.1800
 5507ntf    nn325893   6.795   1.371   5.626  0.1686  0.0198  0.1277
 5507ntf    sn225894   6.695   1.319   5.735  0.3729 -0.3221  0.1529
 5507ntf    cn125895   6.549   1.299   5.627  0.3846  0.0979  0.0543
 5507ntf    fn425896   7.087   1.436   5.583  0.0475  0.0034 -0.1364
 5507ntf    fn425897   7.049   1.298   5.739  0.1248 -0.0174 -0.1318
 5507ntf    fn425898   7.148   1.232   5.562 -0.2182 -0.1166  0.0271
 5507ntf    on525899   6.898   1.328   5.404 -0.0850  0.1742 -0.1198
 5507ntf    on525900   6.869   1.136   5.554  0.3191 -0.0276 -0.0926
 5507ntf    on525901   6.658   1.430   5.820  0.1665  0.2868 -0.7134
 5507ntf    on525902   6.718   1.191   5.797  0.0883 -0.1572  0.5994
 5507ntf    fn425903   6.565   1.195   5.546 -0.7988  0.2055 -0.3280
 5507ntf    fn425904   6.437   1.280   5.694  0.4714 -0.1411  0.1359
 5507ntf    fn425905   6.528   1.402   5.548  0.0756  0.0732  0.1045
 5508ntf    cn125906   6.127   6.636   6.577  0.3299 -0.2206 -0.3040
 5508ntf    sn225907   6.209   6.778   6.657 -0.0763 -0.1407 -0.0236
 5508ntf    nn325908   6.306   6.709   6.759 -0.1685 -0.0496  0.1255
 5508ntf    sn225909   6.455   6.667   6.733 -0.0342  0.1088  0.6278
 5508ntf    cn125910   6.542   6.826   6.722 -0.1903  0.1612  0.1405
 5508ntf    fn425911   6.206   6.532   6.560  1.0474  0.2515  0.0613
 5508ntf    fn425912   6.034   6.587   6.657  0.4978 -0.3598 -0.1953
 5508ntf    fn425913   6.073   6.661   6.459  0.1719 -0.4170 -0.2744
 5508ntf    on525914   6.267   6.842   6.542  0.0606 -0.2259 -0.0012
 5508ntf    on525915   6.093   6.843   6.713 -0.0044  0.3363 -0.4231
 5508ntf    on525916   6.481   6.613   6.602  0.1285 -0.5413  0.9214
 5508ntf    on525917   6.512   6.590   6.841 -0.2434 -0.3738  0.3987
 5508ntf    fn425918   6.672   6.811   6.741 -0.1693  0.0467 -0.0863
 5508ntf    fn425919   6.532   6.886   6.604  0.3020  0.3966  0.2133
 5508ntf    fn425920   6.517   6.907   6.823  0.1968  0.1589  0.2416
 5509ntf    cn125921   3.194   3.761   3.459 -0.0665 -0.1451  0.0678
 5509ntf    sn225922   3.175   3.582   3.440  0.2850 -0.1669 -0.0864
 5509ntf    nn325923   3.177   3.572   3.283 -0.0897  0.4265 -0.1297
 5509ntf    sn225924   3.074   3.505   3.185 -0.1522  0.2730  0.0384
 5509ntf    cn125925   3.169   3.504   3.029 -0.2565 -0.0247 -0.0237
 5509ntf    fn425926   3.270   3.778   3.565 -0.3231  0.2526  0.1938
 5509ntf    fn425927   3.246   3.822   3.353 -0.6161  0.0101 -0.1189
 5509ntf    fn425928   3.084   3.831   3.479 -0.0033  0.0813 -0.3485
 5509ntf    on525929   3.303   3.545   3.495  0.3013  0.1202  0.0658
 5509ntf    on525930   3.055   3.568   3.518 -0.0139  0.8024 -0.3660
 5509ntf    on525931   2.956   3.585   3.161 -0.6537 -0.3049  0.5514
 5509ntf    on525932   3.050   3.365   3.210 -0.1415  0.1933 -0.3814
 5509ntf    fn425933   3.094   3.474   2.924 -0.0176  0.0065 -0.2035
 5509ntf    fn425934   3.223   3.623   3.008  0.2695 -0.2797 -0.1309
 5509ntf    fn425935   3.260   3.409   3.041  0.1858  0.4352  0.2868
 5510ntf    cn125936   3.576   3.245   1.966 -0.0877  0.1881  0.6106
 5510ntf    sn225937   3.532   3.421   1.976 -0.1613  0.1937  0.2237
 5510ntf    nn325938   3.609   3.477   2.101  0.6126 -0.5189  0.0740
 5510ntf    sn225939   3.641   3.629   2.122 -0.0049 -0.3933  0.1354
 5510ntf    cn125940   3.801   3.619   2.036  0.2780 -0.0532  0.6158
 5510ntf    fn425941   3.706   3.237   1.946 -0.0242  0.7475  0.7924
 5510ntf    fn425942   3.542   3.173   2.072  0.2030 -0.1221  0.4972
 5510ntf    fn425943   3.521   3.193   1.857  0.7227  0.4739  0.0515
 5510ntf    on525944   3.569   3.467   1.845  0.4007 -0.6436  0.0804
 5510ntf    on525945   3.390   3.412   2.002 -0.1979  0.6088  0.1673
 5510ntf    on525946   3.666   3.663   2.260  1.0827  0.1814 -0.1899
 5510ntf    on525947   3.571   3.726   2.042  0.0768  0.0922  0.6450
 5510ntf    fn425948   3.862   3.505   2.062 -0.0241 -0.2361  0.5216
 5510ntf    fn425949   3.785   3.634   1.905 -0.4828 -0.1337  0.6984
 5510ntf    fn425950   3.891   3.712   2.064  0.0274  0.2712  0.3619
 5511ntf    cn125951   0.543   5.434   2.391 -0.5338 -0.2003  0.0738
 5511ntf    sn225952   0.689   5.453   2.498 -0.1888 -0.1462 -0.4032
 5511ntf    nn325953   0.678   5.322   2.584  0.5630  0.0881  0.0606
 5511ntf    sn225954   0.672   5.303   2.740  0.3623 -0.2838  0.0084
 5511ntf    cn125955   0.493   5.314   2.766  0.3233  0.3393 -0.5192
 5511ntf    fn425956   0.565   5.343   2.298  0.5058  0.4448 -0.3353
 5511ntf    fn425957   0.432   5.407   2.457 -0.6964 -0.0481 -0.1362
 5511ntf    fn425958   0.527   5.552   2.334  0.2785 -0.1232 -0.0163
 5511ntf    on525959   0.803   5.461   2.410 -0.1333 -0.2298 -0.3394
 5511ntf    on525960   0.667   5.576   2.570 -0.3035 -0.4210  0.0389
 5511ntf    on525961   0.722   5.406   2.828  0.2433 -0.2970  0.0912
 5511ntf    on525962   0.703   5.165   2.771  0.5171 -0.1638  0.3943
 5511ntf    fn425963   0.467   5.276   2.890  0.2120  0.2036 -0.5834
 5511ntf    fn425964   0.445   5.436   2.748  0.3331  0.5532  0.8407
 5511ntf    fn425965   0.427   5.233   2.684  0.2868 -0.1077 -0.0477
 5512ntf    cn125966   3.520   3.793   5.060  0.1075  0.0460 -0.2291
 5512ntf    sn225967   3.538   3.974   5.076  0.1248  0.0118  0.1425
 5512ntf    nn325968   3.471   4.018   4.942  0.5425  0.2602  0.0164
 5512ntf    sn225969   3.490   4.142   4.847 -0.0217  0.3024 -0.0454
 5512ntf    cn125970   3.324   4.215   4.838 -0.2340 -0.2151 -0.3549
 5512ntf    fn425971   3.606   3.728   4.983  0.1505  0.0422 -0.1783
 5512ntf    fn425972   3.538   3.745   5.182  0.6079 -0.2658 -0.4210
 5512ntf    fn425973   3.399   3.749   5.032  0.1241  0.0960 -0.3789
 5512ntf    on525974   3.449   4.009   5.185  0.4532 -0.2760  0.5091
 5512ntf    on525975   3.680   3.992   5.092  0.2558 -0.6380 -0.2539
 5512ntf    on525976   3.517   4.102   4.711  0.2117 -0.1950  0.1434
 5512ntf    on525977   3.570   4.248   4.902  0.0788  0.4348 -0.4403
 5512ntf    fn425978   3.319   4.322   4.761  0.4052  0.1609  0.1206
 5512ntf    fn425979   3.232   4.137   4.784 -0.3423 -0.2857 -0.0715
 5512ntf    fn425980   3.273   4.242   4.957  0.1347 -0.4838 -0.1361
 5513ntf    cn125981   1.578   5.847   0.432 -0.2256  0.1926 -0.1735
 5513ntf    sn225982   1.598   5.696   0.333  0.1692  0.1749 -0.0662
 5513ntf    nn325983   1.462   5.683   0.256  0.3664  0.0841 -0.4043
 5513ntf    sn225984   1.441   5.715   0.104  0.4132  0.0893 -0.4094
 5513ntf    cn125985   1.274   5.657   0.063  0.2906 -0.0358  0.2480
 5513ntf    fn425986   1.543   5.945   0.351 -0.1288  0.8590  0.5783
 5513ntf    fn425987   1.487   5.850   0.528 -0.0956  0.2188 -0.0512
 5513ntf    fn425988   1.691   5.882   0.492 -0.3223  0.0359  0.1043
 5513ntf    on525989   1.718   5.721   0.257 -0.5879 -0.0868 -1.3773
 5513ntf    on525990   1.625   5.589   0.427 -0.0877  0.1239 -0.0510
 5513ntf    on525991   1.519   5.633   0.015 -0.0511 -0.3551 -0.4098
 5513ntf    on525992   1.434   5.857   0.082 -0.0775  0.0329 -0.6330
 5513ntf    fn425993   1.177   5.733   0.113  0.3592 -0.0984  0.4759
 5513ntf    fn425994   1.257   5.640  -0.068 -0.0696 -0.4780  0.3490
 5513ntf    fn425995   1.237   5.541   0.113  0.1837 -0.1308 -0.0455
 5514ntf    cn125996   7.466   2.704   6.506 -0.0038  0.2383 -0.2329
 5514ntf    sn225997   7.354   2.835   6.565  0.1745  0.1683  0.2641
 5514ntf    nn325998   7.353   2.823   6.722  0.2456  0.0275  0.2532
 5514ntf    sn225999   7.235   2.846   6.823  0.2245 -0.1341  0.2663
 5514ntf    cn126000   7.314   2.854   6.986  0.2704 -0.1536  0.2445
 5514ntf    fn426001   7.586   2.720   6.559 -0.0727  0.4032 -0.1267
 5514ntf    fn426002   7.434   2.585   6.554  0.4792  0.2585  0.1491
 5514ntf    fn426003   7.489   2.693   6.376  0.3859  0.6470 -0.1999
 5514ntf    on526004   7.418   2.956   6.520 -0.3717 -0.1075 -1.3278
 5514ntf    on526005   7.232   2.793   6.502  0.2539 -0.3429  0.4478
 5514ntf    on526006   7.145   2.734   6.838  0.3183 -0.3501 -0.6932
 5514ntf    on526007   7.180   2.978   6.809  0.5959  0.0208  0.2490
 5514ntf    fn426008   7.234   2.913   7.073  0.2194 -0.1614  0.2029
 5514ntf    fn426009   7.326   2.732   7.037  0.1926 -0.3766 -0.2654
 5514ntf    fn426010   7.431   2.915   6.998  0.2718 -0.0935 -0.0658
 5515ntf    cn126011   4.811   6.365   4.855  0.2237  0.1763  0.1953
 5515ntf    sn226012   4.844   6.269   5.006  0.2429 -0.3821 -0.1621
 5515ntf    nn326013   4.704   6.291   5.074  0.2944  0.6703 -0.3843
 5515ntf    sn226014   4.668   6.395   5.186  0.0806  0.0958  0.0812
 5515ntf    cn126015   4.637   6.552   5.101  0.0384  0.0402 -0.0057
 5515ntf    fn426016   4.698   6.337   4.792  0.7613  0.1150 -0.7671
 5515ntf    fn426017   4.818   6.496   4.870 -0.4455  0.2273  0.1015
 5515ntf    fn426018   4.903   6.336   4.764  0.2880 -0.7084  0.5306
 5515ntf    on526019   4.859   6.130   4.969 -0.8543 -0.4282 -0.4790
 5515ntf    on526020   4.951   6.342   5.068 -0.4846  0.4074  0.1818
 5515ntf    on526021   4.772   6.434   5.278  0.3559 -0.2236 -0.0938
 5515ntf    on526022   4.541   6.360   5.246  0.3967 -0.2993  0.5330
 5515ntf    fn426023   4.741   6.607   5.041  0.0678 -0.1678 -0.1496
 5515ntf    fn426024   4.557   6.543   4.996 -0.0761 -0.5639  0.1311
 5515ntf    fn426025   4.586   6.644   5.180  0.1961  0.2247 -0.1171
 5516ntf    cn126026   0.916   6.471   6.712 -0.1198  0.0946  0.2606
 5516ntf    sn226027   0.861   6.639   6.668  0.0982  0.0653 -0.1268
 5516ntf    nn326028   0.971   6.683   6.565  0.0507  0.2933 -0.0802
 5516ntf    sn226029   0.962   6.695   6.409  0.3038 -0.1858 -0.1342
 5516ntf    cn126030   1.087   6.577   6.350 -0.2660 -0.6727 -0.3745
 5516ntf    fn426031   1.029   6.475   6.781  0.0719 -0.2934 -0.0279
 5516ntf    fn426032   0.825   6.400   6.776 -0.0538 -0.0370  0.2080
 5516ntf    fn426033   0.948   6.401   6.604 -0.1045  0.6532 -0.1015
 5516ntf    on526034   0.733   6.610   6.610 -0.3518 -0.2945  1.0185
 5516ntf    on526035   0.868   6.709   6.794  0.2649 -0.1192 -0.0309
 5516ntf    on526036   1.018   6.817   6.354 -0.2719  0.0975 -0.0935
 5516ntf    on526037   0.848   6.646   6.336  0.0261  0.1136  0.0957
 5516ntf    fn426038   1.099   6.574   6.219  0.1439 -0.1104 -0.3549
 5516ntf    fn426039   1.208   6.602   6.399 -0.2748  0.2371 -0.8140
 5516ntf    fn426040   1.054   6.453   6.382 -0.2771 -0.6166 -0.1646
 5517ntf    cn126041   3.578   6.261   3.587  0.1675 -0.0680 -0.1515
 5517ntf    sn226042   3.488   6.120   3.658  0.0047  0.0756 -0.0710
 5517ntf    nn326043   3.543   6.004   3.566 -0.4312 -0.2223  0.0430
 5517ntf    sn226044   3.672   5.920   3.594 -0.3454 -0.2641 -0.4777
 5517ntf    cn126045   3.733   5.882   3.427  0.0228  0.1001 -0.4258
 5517ntf    fn426046   3.559   6.281   3.457  0.0936 -0.3215 -0.1799
 5517ntf    fn426047   3.539   6.372   3.648 -0.0006 -0.3105  0.1875
 5517ntf    fn426048   3.708   6.253   3.605 -0.0153 -0.9384  0.8598
 5517ntf    on526049   3.532   6.129   3.795  0.5330  0.3290 -0.2536
 5517ntf    on526050   3.347   6.145   3.639  0.0578  0.3584 -0.0996
 5517ntf    on526051   3.648   5.787   3.645 -0.2866 -0.2382 -0.3808
 5517ntf    on526052   3.784   6.000   3.636 -0.6188 -0.2410  0.2184
 5517ntf    fn426053   3.855   5.831   3.439 -0.1441 -0.1245  0.3482
 5517ntf    fn426054   3.650   5.795   3.373 -0.0831  0.0815 -0.2337
 5517ntf    fn426055   3.747   5.989   3.349 -0.6606  0.4128 -0.1238
 5518ntf    cn126056   4.877   0.228   6.317 -0.2154  0.0339 -0.3511
 5518ntf    sn226057   4.866   0.274   6.492 -0.0681  0.1219 -0.3639
 5518ntf    nn326058   4.825   0.425   6.481 -0.5038  0.0653  0.4009
 5518ntf    sn226059   4.911   0.548   6.529 -0.1600  0.0066 -0.0614
 5518ntf    cn126060   4.846   0.552   6.699 -0.1338 -0.2521 -0.0440
 5518ntf    fn426061   4.894   0.101   6.286  0.2776  0.0885 -0.3171
 5518ntf    fn426062   4.767   0.258   6.251 -0.6941 -0.0648  0.3943
 5518ntf    fn426063   4.983   0.292   6.270 -0.3195  0.2888 -0.2419
 5518ntf    on526064   4.756   0.196   6.544 -0.4162  0.8188 -0.0353
 5518ntf    on526065   4.994   0.243   6.551 -0.2392 -0.2316 -0.1769
 5518ntf    on526066   4.862   0.667   6.464  0.1385  0.0415 -0.2218
 5518ntf    on526067   5.054   0.529   6.537 -0.2101 -0.2527  0.2785
 5518ntf    fn426068   4.906   0.647   6.769 -0.0211 -0.3020 -0.0727
 5518ntf    fn426069   4.715   0.573   6.698 -0.1659 -0.4391  0.1316
 5518ntf    fn426070   4.862   0.433   6.753 -0.4722 -0.1727  0.2334
 5519ntf    cn126071   4.720   0.019   2.883 -0.0860 -0.4033  0.5408
 5519ntf    sn226072   4.737  -0.162   2.873  0.0235 -0.3537 -0.3138
 5519ntf    nn326073   4.589  -0.204   2.844 -0.0802 -0.2447  0.0476
 5519ntf    sn226074   4.509  -0.234   2.712 -0.0526  0.2263 -0.0777
 5519ntf    cn126075   4.530  -0.413   2.686  0.3498  0.2465  0.0974
 5519ntf    fn426076   4.836   0.077   2.904 -0.3126  0.1586  0.2769
 5519ntf    fn426077   4.667   0.073   2.773  0.1808 -0.5945  0.3184
 5519ntf    fn426078   4.638   0.056   2.980 -0.2982  0.0723  0.1879
 5519ntf    on526079   4.833  -0.177   2.767  0.1000 -0.2948 -0.2529
 5519ntf    on526080   4.789  -0.193   3.004 -0.4725  0.0722 -0.0078
 5519ntf    on526081   4.566  -0.177   2.592  0.3526 -0.0820 -0.0366
 5519ntf    on526082   4.366  -0.216   2.719 -0.0672  0.0366  0.1306
 5519ntf    fn426083   4.653  -0.461   2.698  0.0823 -0.5937 -0.4171
 5519ntf    fn426084   4.455  -0.485   2.768  0.5173 -0.6072 -0.4874
 5519ntf    fn426085   4.490  -0.462   2.570  0.1941  0.6475 -0.0215
 5520ntf    cn126086   3.599   4.758   1.921  0.6381  0.3263 -0.0689
 5520ntf    sn226087   3.600   4.939   1.934  0.0070  0.3300 -0.0628
 5520ntf    nn326088   3.685   4.963   2.064 -0.1606  0.2919  0.0551
 5520ntf    sn226089   3.632   4.959   2.211 -0.1001  0.3262  0.0777
 5520ntf    cn126090   3.790   4.934   2.298 -0.0348 -0.3993 -0.2478
 5520ntf    fn426091   3.564   4.722   1.799 -0.2131  0.2996  0.1774
 5520ntf    fn426092   3.713   4.696   1.945  0.4412  0.0164  0.0682
 5520ntf    fn426093   3.513   4.701   2.003  0.0897  0.5918 -0.4543
 5520ntf    on526094   3.664   4.979   1.812  0.1996  0.1088 -0.0335
 5520ntf    on526095   3.459   4.971   1.944 -0.0739  0.0195 -0.2086
 5520ntf    on526096   3.546   4.847   2.240  0.1702  0.0246 -0.2906
 5520ntf    on526097   3.584   5.086   2.261 -0.2536  0.2301  0.1749
 5520ntf    fn426098   3.768   4.885   2.419  0.9714 -0.2141  0.0177
 5520ntf    fn426099   3.862   4.845   2.232  0.3159 -0.1771 -0.1689
 5520ntf    fn426100   3.855   5.048   2.314  0.3494 -0.6821  0.2190
 5521ntf    cn126101   3.368   4.723   3.153  0.0804  0.0717 -0.3052
 5521ntf    sn226102   3.242   4.786   3.037 -0.0842  0.2720 -0.0179
 5521ntf    nn326103   3.302   4.737   2.901  0.0611  0.0361  0.1291
 5521ntf    sn226104   3.407   4.807   2.808  0.1335 -0.1529  0.0682
 5521ntf    cn126105   3.541   4.685   2.799 -0.0713 -0.3853  0.1603
 5521ntf    fn426106   3.328   4.730   3.279  0.4828  0.6510 -0.2029
 5521ntf    fn426107   3.399   4.597   3.128 -0.0954 -0.0612  0.1424
 5521ntf    fn426108   3.486   4.783   3.145  0.2269 -0.2728 -0.8030
 5521ntf    on526109   3.128   4.708   3.079  0.4474 -0.1056  0.7589
 5521ntf    on526110   3.238   4.930   3.047  0.3066  0.2554  0.4207
 5521ntf    on526111   3.482   4.921   2.854  0.0586 -0.0104 -0.1594
 5521ntf    on526112   3.359   4.810   2.672 -0.2547  0.0529  0.2085
 5521ntf    fn426113   3.636   4.723   2.715 -0.4305  0.4327  0.1133
 5521ntf    fn426114   3.603   4.667   2.915  0.3578 -0.0579 -0.0160
 5521ntf    fn426115   3.501   4.566   2.758  0.1986 -0.5104  0.2516
 5522ntf    cn126116   2.919   5.566   7.242 -0.0278  0.1725  0.4266
 5522ntf    sn226117   2.779   5.459   7.284 -0.0968  0.0636 -0.0753
 5522ntf    nn326118   2.837   5.397   7.416 -0.0155  0.1157 -0.0873
 5522ntf    sn226119   2.819   5.454   7.561 -0.2620  0.1675 -0.1379
 5522ntf    cn126120   2.670   5.365   7.616 -0.1857 -0.0500 -0.2800
 5522ntf    fn426121   2.924   5.599   7.113  0.6965 -0.4061  0.3015
 5522ntf    fn426122   2.913   5.681   7.307 -0.0102  0.4609 -0.0718
 5522ntf    fn426123   3.035   5.507   7.265 -0.2102 -0.4722 -0.2684
 5522ntf    on526124   2.657   5.535   7.298 -0.3384 -0.2005 -0.6932
 5522ntf    on526125   2.783   5.358   7.181 -0.3162  0.1550 -0.1761
 5522ntf    on526126   2.803   5.597   7.572  0.8578  0.2743  0.2591
 5522ntf    on526127   2.917   5.394   7.648 -0.9442 -0.3083  0.3182
 5522ntf    fn426128   2.565   5.419   7.557 -0.3599 -0.8166 -0.6796
 5522ntf    fn426129   2.676   5.239   7.578 -0.2458 -0.2461  0.3521
 5522ntf    fn426130   2.646   5.364   7.746  1.1050  0.6984 -0.0173
 5523ntf    cn126131   3.232   4.578   6.881 -0.1886  0.0977  0.1756
 5523ntf    sn226132   3.337   4.725   6.903  0.0960 -0.0845  0.0418
 5523ntf    nn326133   3.258   4.799   7.017 -0.2073 -0.1003 -0.1555
 5523ntf    sn226134   3.266   4.760   7.169  0.0905 -0.1004 -0.1705
 5523ntf    cn126135   3.408   4.857   7.231  0.2996 -0.2294 -0.4460
 5523ntf    fn426136   3.103   4.596   6.902 -0.2397  0.4354 -0.4016
 5523ntf    fn426137   3.239   4.537   6.755 -0.4581 -0.0665  0.2117
 5523ntf    fn426138   3.277   4.474   6.950  0.0884  0.2369  0.2044
 5523ntf    on526139   3.463   4.664   6.937 -0.1645 -0.5673  0.1572
 5523ntf    on526140   3.326   4.787   6.774 -0.0342 -0.0465  0.0717
 5523ntf    on526141   3.279   4.619   7.198 -0.3756 -0.1346 -0.1208
 5523ntf    on526142   3.153   4.826   7.229  0.2895 -0.0350  0.1344
 5523ntf    fn426143   3.421   4.867   7.362  0.0752 -0.0787 -0.4346
 5523ntf    fn426144   3.519   4.801   7.186  0.4741 -0.2225 -0.0267
 5523ntf    fn426145   3.400   4.980   7.185 -0.1021 -0.1586 -0.1964
 5524ntf    cn126146   1.131   5.062   4.821 -0.5218  0.2799 -0.2048
 5524ntf    sn226147   1.306   5.015   4.808 -0.3815  0.7488 -0.0184
 5524ntf    nn326148   1.353   5.082   4.943  0.6326 -0.1581  0.0970
 5524ntf    sn226149   1.470   5.177   4.986  0.2883  0.3362 -0.0502
 5524ntf    cn126150   1.379   5.320   5.053  0.3626  0.5169 -0.3331
 5524ntf    fn426151   1.057   5.005   4.727  0.1408 -0.0968 -0.5084
 5524ntf    fn426152   1.082   5.034   4.940  0.1778  0.3294  0.1016
 5524ntf    fn426153   1.118   5.193   4.807 -0.5334  0.2991 -0.0159
 5524ntf    on526154   1.312   4.871   4.816  0.2514  0.7453 -0.4721
 5524ntf    on526155   1.357   5.067   4.684 -0.0198  0.0059 -0.1833
 5524ntf    on526156   1.547   5.230   4.877 -0.0142 -0.6712 -0.7694
 5524ntf    on526157   1.543   5.120   5.097 -0.2350  0.0543  0.1547
 5524ntf    fn426158   1.316   5.387   4.958 -0.0730 -0.0371 -0.4419
 5524ntf    fn426159   1.297   5.283   5.150  0.3443 -0.0476 -0.5625
 5524ntf    fn426160   1.461   5.405   5.114  0.6381 -0.0127  0.0480
 5525ntf    cn126161   1.240   1.282   2.817  0.0145 -0.1705 -0.1712
 5525ntf    sn226162   1.393   1.313   2.724  0.1046 -0.0060  0.0291
 5525ntf    nn326163   1.395   1.469   2.739  0.6205  0.0079 -0.1616
 5525ntf    sn226164   1.292   1.569   2.675  0.3685 -0.0440  0.1589
 5525ntf    cn126165   1.408   1.659   2.568  0.1426 -0.0341 -0.0789
 5525ntf    fn426166   1.233   1.361   2.923  0.5954 -0.2514 -0.0652
 5525ntf    fn426167   1.132   1.299   2.744  0.1562 -0.1709 -0.3818
 5525ntf    fn426168   1.243   1.163   2.876  0.1887  0.0433  0.2574
 5525ntf    on526169   1.492   1.251   2.807  0.2096  0.0267 -0.0706
 5525ntf    on526170   1.382   1.262   2.589 -0.4064  0.7638 -0.2314
 5525ntf    on526171   1.245   1.676   2.759  0.0423 -0.2466  0.2354
 5525ntf    on526172   1.202   1.514   2.576  0.1158  0.0763  0.3212
 5525ntf    fn426173   1.461   1.585   2.471  0.1974  0.3261 -0.3260
 5525ntf    fn426174   1.339   1.745   2.496  0.4342  0.2425 -0.0308
 5525ntf    fn426175   1.507   1.721   2.630  0.1631 -0.1597  0.0145
 5526ntf    cn126176   6.077   3.753   0.425  0.1186  0.1762 -0.3155
 5526ntf    sn226177   5.986   3.863   0.538  0.1836  0.2299 -0.3145
 5526ntf    nn326178   5.991   3.766   0.662  0.0527 -0.0159 -0.4996
 5526ntf    sn226179   5.890   3.659   0.718  0.4412 -0.0068  0.2345
 5526ntf    cn126180   5.888   3.699   0.895 -0.2164 -0.1812  0.2680
 5526ntf    fn426181   6.080   3.800   0.302  0.3911  0.4697 -0.1973
 5526ntf    fn426182   6.199   3.729   0.470 -0.2069 -0.0058  0.5038
 5526ntf    fn426183   6.013   3.638   0.405 -0.5074  0.4954 -0.1879
 5526ntf    on526184   6.065   3.982   0.555  0.4313  0.0155  0.0433
 5526ntf    on526185   5.851   3.883   0.491  0.1124  0.1499 -0.1462
 5526ntf    on526186   5.945   3.526   0.720  1.1360  0.2687 -0.0415
 5526ntf    on526187   5.753   3.675   0.677  0.3958 -0.2205  0.3047
 5526ntf    fn426188   6.009   3.675   0.944  0.0583 -0.0637 -0.3504
 5526ntf    fn426189   5.858   3.825   0.922  0.4725  0.2105 -0.7557
 5526ntf    fn426190   5.801   3.634   0.971 -0.8237 -0.0100 -0.2753
 5527ntf    cn126191   2.581   0.420   3.061  0.1974  0.1292 -0.1437
 5527ntf    sn226192   2.563   0.544   3.193 -0.1801 -0.1243  0.0454
 5527ntf    nn326193   2.408   0.558   3.216 -0.1883 -0.0136 -0.0750
 5527ntf    sn226194   2.332   0.666   3.301 -0.0723 -0.0821  0.1169
 5527ntf    cn126195   2.278   0.784   3.174  0.1141 -0.3918 -0.2513
 5527ntf    fn426196   2.542   0.467   2.944  0.3261 -0.2059 -0.3218
 5527ntf    fn426197   2.703   0.378   3.031  0.0901 -0.0618 -0.3144
 5527ntf    fn426198   2.508   0.314   3.093  0.3277  0.0762 -0.0195
 5527ntf    on526199   2.633   0.470   3.295  0.3986  0.4005  0.0359
 5527ntf    on526200   2.620   0.663   3.135 -0.3189 -0.3168 -0.4891
 5527ntf    on526201   2.406   0.759   3.384  0.5398 -0.4000 -0.0667
 5527ntf    on526202   2.210   0.610   3.353 -0.6257  0.7444 -0.2837
 5527ntf    fn426203   2.371   0.834   3.095 -0.2591 -0.4604 -0.7377
 5527ntf    fn426204   2.186   0.734   3.093 -0.1120 -0.9223  0.3261
 5527ntf    fn426205   2.223   0.893   3.225 -0.3396 -0.5912 -0.3123
 5528ntf    cn126206   2.282   6.688   5.576  0.1141 -0.0323 -0.1101
 5528ntf    sn226207   2.358   6.776   5.437  0.3180 -0.2612 -0.1424
 5528ntf    nn326208   2.281   6.702   5.322  0.4917  0.1348 -0.5152
 5528ntf    sn226209   2.337   6.646   5.186  0.1326 -0.1319 -0.5548
 5528ntf    cn126210   2.348   6.468   5.221 -0.0577 -0.0396 -0.0073
 5528ntf    fn426211   2.363   6.592   5.619 -0.0781 -0.1443  0.0055
 5528ntf    fn426212   2.265   6.770   5.678  0.0312  0.1903 -0.3025
 5528ntf    fn426213   2.168   6.633   5.537  0.0621  0.0495 -0.0742
 5528ntf    on526214   2.325   6.914   5.462  0.2052 -0.3843  0.4036
 5528ntf    on526215   2.497   6.744   5.462  0.2515 -0.0879  0.4496
 5528ntf    on526216   2.468   6.690   5.145  0.3951 -0.1977  0.1939
 5528ntf    on526217   2.237   6.655   5.082 -0.2702 -0.3456 -0.1906
 5528ntf    fn426218   2.443   6.445   5.311 -0.3107 -0.0519  0.2549
 5528ntf    fn426219   2.237   6.420   5.274 -0.2993  0.2531 -0.2399
 5528ntf    fn426220   2.381   6.400   5.112 -0.5775 -0.1303 -0.1078
 5529ntf    cn126221   2.403   5.655   3.154 -0.3065  0.2270 -0.2149
 5529ntf    sn226222   2.277   5.786   3.161 -0.2306  0.2788  0.2046
 5529ntf    nn326223   2.375   5.905   3.188  0.1960 -0.0413  0.0908
 5529ntf    sn226224   2.356   6.054   3.141 -0.2245 -0.1001  0.0683
 5529ntf    cn126225   2.480   6.066   3.008 -0.0635 -0.1765  0.2117
 5529ntf    fn426226   2.471   5.637   3.266 -0.3230  0.2367 -0.2034
 5529ntf    fn426227   2.352   5.538   3.121 -0.2795  0.2156 -0.2181
 5529ntf    fn426228   2.500   5.676   3.067  0.3036 -0.1255  0.3706
 5529ntf    on526229   2.219   5.779   3.029  0.2075 -0.2242  0.0356
 5529ntf    on526230   2.200   5.746   3.276 -0.2745  0.6404  0.3001
 5529ntf    on526231   2.410   6.148   3.236  0.6701 -0.4322 -0.1015
 5529ntf    on526232   2.227   6.088   3.086 -0.0590  0.1475 -0.1710
 5529ntf    fn426233   2.490   6.190   2.964  0.0509 -0.2853 -0.0720
 5529ntf    fn426234   2.593   6.021   3.062  0.1314  0.5795  0.4422
 5529ntf    fn426235   2.455   5.993   2.901 -0.2101  0.2260 -0.0301
 5530ntf    cn126236   4.066   4.034   4.182 -0.5109 -0.5217  0.0066
 5530ntf    sn226237   4.077   4.145   4.038 -0.5626 -0.6188 -0.0717
 5530ntf    nn326238   3.966   4.089   3.943 -0.7544 -0.0920 -0.1634
 5530ntf    sn226239   3.891   4.167   3.829 -0.4760  0.1600 -0.1726
 5530ntf    cn126240   3.723   4.188   3.894 -0.3909 -0.0195  0.1066
 5530ntf    fn426241   3.960   4.060   4.258 -0.0585 -0.0283  0.4789
 5530ntf    fn426242   4.060   3.906   4.152 -0.1563 -0.5734  0.1511
 5530ntf    fn426243   4.173   4.044   4.259  0.0586 -1.0312 -0.7143
 5530ntf    on526244   4.042   4.269   4.103  0.7594 -0.3722  0.2085
 5530ntf    on526245   4.204   4.118   3.975  0.1330  0.4889  0.8113
 5530ntf    on526246   3.863   4.080   3.717  0.1345 -0.4184  0.1137
 5530ntf    on526247   3.936   4.300   3.799 -0.4296  0.0816 -0.4569
 5530ntf    fn426248   3.668   4.073   3.930  0.0999 -0.0691  0.7192
 5530ntf    fn426249   3.718   4.272   3.997 -0.1009 -0.2619  0.3207
 5530ntf    fn426250   3.648   4.244   3.801  0.1054 -0.2139 -0.4135
 5531ntf    cn126251   2.481   1.178   2.682  0.1243  0.2506 -0.0016
 5531ntf    sn226252   2.446   1.034   2.786 -0.1827  0.2768 -0.0677
 5531ntf    nn326253   2.519   0.928   2.695 -0.3165  0.1111  0.0178
 5531ntf    sn226254   2.457   0.803   2.622 -0.1234  0.0285 -0.0048
 5531ntf    cn126255   2.473   0.666   2.740  0.0644  0.4482  0.4593
 5531ntf    fn426256   2.610   1.209   2.673  0.2702 -0.2548  0.3351
 5531ntf    fn426257   2.437   1.154   2.559 -0.0766  0.0040  0.1196
 5531ntf    fn426258   2.427   1.291   2.724 -0.0400  0.1957 -0.0653
 5531ntf    on526259   2.528   1.061   2.901  0.1652 -0.0220 -0.2426
 5531ntf    on526260   2.303   1.037   2.801 -0.2339 -0.0524 -0.4667
 5531ntf    on526261   2.539   0.766   2.510  0.0820 -1.1308  0.5147
 5531ntf    on526262   2.317   0.819   2.589 -0.0616  0.8081  0.0786
 5531ntf    fn426263   2.413   0.553   2.708  0.2336  0.2705  0.7556
 5531ntf    fn426264   2.602   0.643   2.762  0.1021 -0.3359 -0.5277
 5531ntf    fn426265   2.427   0.699   2.859 -0.0412  0.1605  0.4991
 5532ntf    cn126266   1.601   0.921   4.198 -0.1046 -0.3622 -0.0119
 5532ntf    sn226267   1.585   1.061   4.084  0.4295 -0.1141  0.2146
 5532ntf    nn326268   1.701   1.032   3.982  0.1032 -0.7224  0.0132
 5532ntf    sn226269   1.815   1.134   3.949 -0.2251 -0.3740 -0.0408
 5532ntf    cn126270   1.927   1.016   3.868  0.4263  0.1427  0.0884
 5532ntf    fn426271   1.580   0.809   4.130  0.5550 -0.5951  0.1599
 5532ntf    fn426272   1.725   0.914   4.244  0.0154  0.1168 -0.2607
 5532ntf    fn426273   1.531   0.935   4.310 -0.3308  0.0544 -0.2063
 5532ntf    on526274   1.451   1.042   4.034  0.3588  0.3694  0.2171
 5532ntf    on526275   1.600   1.176   4.169 -0.2043  0.1607 -0.0430
 5532ntf    on526276   1.898   1.172   4.061  0.0062  0.7653 -0.5807
 5532ntf    on526277   1.778   1.231   3.848  0.0016 -0.5574 -0.3009
 5532ntf    fn426278   2.027   1.076   3.807  0.4722 -0.2095 -0.1837
 5532ntf    fn426279   1.979   0.929   3.953  0.1207  0.2360  0.3771
 5532ntf    fn426280   1.868   0.945   3.772  0.7880  0.1077 -0.1079
 5533ntf    cn126281   7.181   3.437   1.583  0.3142 -0.2784 -0.2333
 5533ntf    sn226282   7.363   3.442   1.576  0.3309 -0.1569  0.2261
 5533ntf    nn326283   7.389   3.580   1.645 -0.3730  0.2381 -0.2863
 5533ntf    sn226284   7.468   3.710   1.604  0.3115  0.0116  0.3005
 5533ntf    cn126285   7.337   3.831   1.642  0.3853  0.2653 -0.2574
 5533ntf    fn426286   7.125   3.334   1.523 -0.2600 -0.2046  0.1720
 5533ntf    fn426287   7.133   3.423   1.706 -0.2840 -0.3760 -0.4755
 5533ntf    fn426288   7.126   3.545   1.529 -0.0171 -0.2657  0.1242
 5533ntf    on526289   7.399   3.337   1.668  0.6257  0.2317  0.5511
 5533ntf    on526290   7.392   3.426   1.435  0.0968  0.3014  0.1252
 5533ntf    on526291   7.509   3.715   1.466 -0.2081  0.8445  0.1664
 5533ntf    on526292   7.567   3.745   1.702  0.3044 -0.0593  0.3334
 5533ntf    fn426293   7.384   3.955   1.635 -0.2640  0.5382  0.1885
 5533ntf    fn426294   7.230   3.830   1.564  0.3709 -0.3757 -0.2368
 5533ntf    fn426295   7.298   3.812   1.767  0.6799  0.0609 -0.1954
 5534ntf    cn126296   5.095   2.968   0.677  0.2884  0.4175  0.0874
 5534ntf    sn226297   5.082   2.976   0.858  0.1674 -0.0084  0.0971
 5534ntf    nn326298   4.990   2.851   0.882  0.3686 -0.1714  0.0260
 5534ntf    sn226299   5.031   2.700   0.890  0.4541 -0.1601 -0.2019
 5534ntf    cn126300   5.065   2.682   1.068 -0.0964 -0.2750 -0.1060
 5534ntf    fn426301   5.187   2.888   0.625  0.0561  0.1691  0.0619
 5534ntf    fn426302   4.982   2.929   0.621  0.4934 -0.3375  0.1920
 5534ntf    fn426303   5.119   3.089   0.629 -0.0705  0.4099 -0.1140
 5534ntf    on526304   5.217   2.961   0.906  0.0383 -0.4273  0.3430
 5534ntf    on526305   5.017   3.101   0.888  0.4105  0.1317  0.0460
 5534ntf    on526306   5.146   2.655   0.816  0.4236 -0.4940 -0.0528
 5534ntf    on526307   4.912   2.620   0.870 -0.1289  0.5092  0.5442
 5534ntf    fn426308   5.181   2.724   1.116 -0.1134 -0.0702 -0.2434
 5534ntf    fn426309   4.970   2.756   1.123  0.3192 -0.0847  0.3622
 5534ntf    fn426310   5.042   2.560   1.113 -0.4493 -0.0081  0.4536
 5535ntf    cn126311   6.021   7.011   2.828 -0.1420  0.0637 -0.0906
 5535ntf    sn226312   6.026   7.192   2.817 -0.2271  0.0829  0.1907
 5535ntf    nn326313   6.177   7.217   2.853 -0.0208  0.2170 -0.7357
 5535ntf    sn226314   6.235   7.334   2.941  0.3237 -0.2753 -0.2993
 5535ntf    cn126315   6.262   7.249   3.099 -0.2915 -0.3085 -0.2069
 5535ntf    fn426316   6.071   6.966   2.942  0.1554  0.3378 -0.1123
 5535ntf    fn426317   5.901   6.955   2.832  0.0863 -0.3871  0.5530
 5535ntf    fn426318   6.094   6.959   2.730 -0.1856  0.4553 -0.3325
 5535ntf    on526319   6.003   7.233   2.681 -0.0206  0.3532  0.2355
 5535ntf    on526320   5.925   7.236   2.911  0.0049  0.3574  0.3154
 5535ntf    on526321   6.138   7.433   2.983  0.5251  0.1339 -0.7941
 5535ntf    on526322   6.363   7.386   2.902  0.3550 -0.0903  0.0457
 5535ntf    fn426323   6.314   7.130   3.073 -0.6635 -0.5892  0.3188
 5535ntf    fn426324   6.351   7.311   3.175  0.0406 -0.2100 -0.6675
 5535ntf    fn426325   6.157   7.234   3.177 -0.2434 -0.5779 -0.1929
 5536ntf    cn126326   4.440   4.507   6.665 -0.0398  0.0005 -0.3096
 5536ntf    sn226327   4.366   4.405   6.797 -0.0265 -0.1444 -0.4136
 5536ntf    nn326328   4.471   4.292   6.821  0.2113  0.2381  0.3763
 5536ntf    sn226329   4.460   4.136   6.807  0.5482  0.2782 -0.3972
 5536ntf    cn126330   4.537   4.110   6.644  0.7189  0.0008 -0.2728
 5536ntf    fn426331   4.360   4.607   6.632 -0.1924 -0.1654 -0.4476
 5536ntf    fn426332   4.555   4.565   6.695  0.0741 -0.1484 -0.4577
 5536ntf    fn426333   4.464   4.436   6.556  0.6806  0.2282 -0.3033
 5536ntf    on526334   4.363   4.494   6.911  0.0309 -0.4199 -0.1975
 5536ntf    on526335   4.239   4.360   6.745 -0.0402 -0.5137 -0.0632
 5536ntf    on526336   4.330   4.077   6.785  0.7249 -0.0844 -0.4735
 5536ntf    on526337   4.551   4.062   6.892 -0.4498 -0.6378 -0.0986
 5536ntf    fn426338   4.474   4.186   6.556  0.0356 -0.2731 -0.0299
 5536ntf    fn426339   4.665   4.142   6.649  0.7161  0.0085 -0.2416
 5536ntf    fn426340   4.520   3.985   6.603  0.4028 -0.2827  0.6756
 5537ntf    cn126341   4.674   2.152   5.669 -0.0455  0.1119  0.1629
 5537ntf    sn226342   4.596   2.243   5.532  0.3544  0.1083 -0.0675
 5537ntf    nn326343   4.670   2.182   5.408  0.1676  0.1796 -0.2140
 5537ntf    sn226344   4.795   2.247   5.338  0.2021  0.1470 -0.1838
 5537ntf    cn126345   4.889   2.098   5.297  0.3145  0.2852 -0.4237
 5537ntf    fn426346   4.624   2.185   5.787  0.0423 -0.0540  0.2478
 5537ntf    fn426347   4.646   2.022   5.661  0.0241  0.1248 -0.3505
 5537ntf    fn426348   4.806   2.161   5.673 -0.0526  0.0786  0.4782
 5537ntf    on526349   4.459   2.201   5.535  0.2679  0.4098  0.4401
 5537ntf    on526350   4.604   2.384   5.563  0.5482  0.0725  0.0472
 5537ntf    on526351   4.888   2.309   5.430 -0.3114  0.2763  0.2580
 5537ntf    on526352   4.769   2.303   5.208  0.1059 -0.0580 -0.2534
 5537ntf    fn426353   4.814   2.001   5.247  0.1434 -0.0013  0.3851
 5537ntf    fn426354   4.987   2.121   5.211  0.0732  0.0950 -0.7529
 5537ntf    fn426355   4.951   2.043   5.400 -0.1481  0.0207 -0.2846
 5538ntf    cn126356   6.328   4.358   4.502  0.0984  0.3043 -0.3341
 5538ntf    sn226357   6.452   4.343   4.635 -0.1670  0.0454 -0.1135
 5538ntf    nn326358   6.582   4.344   4.548  0.0604  0.0979  0.2249
 5538ntf    sn226359   6.709   4.251   4.540  0.0559  0.0841  0.3448
 5538ntf    cn126360   6.660   4.143   4.403  0.5303  0.1881  0.0921
 5538ntf    fn426361   6.332   4.255   4.420  0.4595 -0.3598  0.4944
 5538ntf    fn426362   6.204   4.355   4.547  0.0766  0.7669 -0.3630
 5538ntf    fn426363   6.339   4.462   4.422  0.4851  0.3435 -0.2350
 5538ntf    on526364   6.451   4.457   4.723  0.1234 -0.4684  0.5619
 5538ntf    on526365   6.426   4.217   4.700  0.1157 -0.0087 -0.1038
 5538ntf    on526366   6.749   4.164   4.648 -0.0483 -0.2849  0.0889
 5538ntf    on526367   6.816   4.316   4.468  0.2917 -0.8365 -0.1424
 5538ntf    fn426368   6.539   4.092   4.421  0.5820 -0.1186 -0.3959
 5538ntf    fn426369   6.647   4.216   4.294  0.3777  0.2947  0.1801
 5538ntf    fn426370   6.745   4.046   4.374 -0.0005 -0.2930  0.1198
 5539ntf    cn126371   5.351   2.879   2.549 -0.0779  0.3400  0.1891
 5539ntf    sn226372   5.477   2.869   2.680 -0.0270  0.4521  0.1493
 5539ntf    nn326373   5.392   2.811   2.799 -0.1000  0.3763  0.0606
 5539ntf    sn226374   5.393   2.662   2.849 -0.2447  0.2249 -0.3867
 5539ntf    cn126375   5.528   2.661   2.970 -0.3133 -0.0183 -0.3124
 5539ntf    fn426376   5.410   2.902   2.433  0.3680  0.2566  0.3974
 5539ntf    fn426377   5.287   2.764   2.537  0.0515  0.2503  0.3540
 5539ntf    fn426378   5.257   2.972   2.560 -0.4628  0.0078 -0.2608
 5539ntf    on526379   5.586   2.788   2.632 -0.2793  0.2279 -0.0523
 5539ntf    on526380   5.513   3.005   2.709  0.2091  0.3412  0.3813
 5539ntf    on526381   5.419   2.563   2.747  0.2274 -0.0293 -0.0230
 5539ntf    on526382   5.275   2.637   2.928 -0.0339 -0.0526 -0.1594
 5539ntf    fn426383   5.568   2.542   3.012 -0.7762 -0.1745 -0.3029
 5539ntf    fn426384   5.634   2.723   2.922 -0.1851  0.2446  0.2999
 5539ntf    fn426385   5.505   2.730   3.081  0.1399 -0.5968  0.1517
 5540ntf    cn126386   0.710   0.569   5.767  0.0600  0.5082 -0.1587
 5540ntf    sn226387   0.653   0.458   5.899  0.1978  0.2295 -0.3327
 5540ntf    nn326388   0.498   0.444   5.873  0.1716  0.0845 -0.1011
 5540ntf    sn226389   0.410   0.322   5.915  0.2869 -0.0326 -0.1997
 5540ntf    cn126390   0.417   0.229   5.759 -0.4193  0.0178 -0.2622
 5540ntf    fn426391   0.665   0.537   5.646  0.6537 -0.4838 -0.1288
 5540ntf    fn426392   0.673   0.693   5.795 -0.1927  0.2305  0.7524
 5540ntf    fn426393   0.842   0.574   5.756  0.1573 -0.2973  0.5866
 5540ntf    on526394   0.723   0.334   5.875  0.0736  0.0576  0.1787
 5540ntf    on526395   0.685   0.521   6.024 -0.7931 -0.0347  0.0659
 5540ntf    on526396   0.271   0.361   5.911  0.3293  0.1805  0.3539
 5540ntf    on526397   0.464   0.229   6.011  0.4861 -0.0285 -0.3078
 5540ntf    fn426398   0.373   0.308   5.663  0.2293  0.1344 -0.4631
 5540ntf    fn426399   0.539   0.191   5.726 -0.4038 -0.1586 -0.0052
 5540ntf    fn426400   0.341   0.120   5.761 -0.3477 -0.0200  0.7866
 5541ntf    cn126401   6.048   4.958   3.510 -0.0774 -0.0576  0.1580
 5541ntf    sn226402   5.926   5.077   3.572 -0.4124 -0.2552 -0.1098
 5541ntf    nn326403   5.982   5.213   3.517 -0.0222 -0.1533  0.5227
 5541ntf    sn226404   6.098   5.299   3.578  0.1565  0.2906 -0.4212
 5541ntf    cn126405   6.005   5.407   3.691  0.0181 -0.2290 -0.0380
 5541ntf    fn426406   6.162   4.970   3.575  0.0589 -0.0522 -0.0772
 5541ntf    fn426407   6.003   4.835   3.531 -0.9591  0.2621  0.2052
 5541ntf    fn426408   6.075   4.965   3.380  0.2173 -0.4998  0.1939
 5541ntf    on526409   5.811   5.029   3.500 -0.3084 -0.0765 -0.3971
 5541ntf    on526410   5.921   5.050   3.714 -0.1543 -0.2374 -0.0957
 5541ntf    on526411   6.146   5.396   3.482  0.5068  0.4349 -0.1016
 5541ntf    on526412   6.192   5.232   3.665 -0.4049 -0.1980 -0.1910
 5541ntf    fn426413   5.911   5.484   3.640  0.0251 -0.4547 -0.3956
 5541ntf    fn426414   5.943   5.336   3.784 -0.1263 -0.2457 -0.1462
 5541ntf    fn426415   6.089   5.483   3.758  0.1684 -0.3822 -0.0544
 5542ntf    cn126416   5.944   1.656   4.449  0.1530 -0.2706 -0.0703
 5542ntf    sn226417   5.851   1.601   4.303  0.1175 -0.0841 -0.1182
 5542ntf    nn326418   5.754   1.512   4.389 -0.5628  0.0947 -0.6873
 5542ntf    sn226419   5.633   1.564   4.475 -0.0352 -0.1319  0.2086
 5542ntf    cn126420   5.657   1.469   4.628 -0.2899 -0.2772  0.1598
 5542ntf    fn426421   5.885   1.757   4.511 -0.4148 -0.3307 -0.5037
 5542ntf    fn426422   5.958   1.560   4.539  0.1244 -0.3005 -0.0979
 5542ntf    fn426423   6.065   1.698   4.416 -0.0599  0.2538 -0.2014
 5542ntf    on526424   5.796   1.717   4.236 -0.8013 -0.3875  0.0841
 5542ntf    on526425   5.946   1.524   4.228  0.4405  0.4209 -0.2332
 5542ntf    on526426   5.509   1.512   4.422  0.3263 -0.3787 -0.4080
 5542ntf    on526427   5.630   1.705   4.501  0.4372 -0.1544  0.3847
 5542ntf    fn426428   5.663   1.340   4.600  0.5685 -0.1912 -0.0975
 5542ntf    fn426429   5.773   1.503   4.683 -0.4131 -0.1465  0.3375
 5542ntf    fn426430   5.561   1.485   4.717 -0.2165 -0.1814  0.2206
 5543ntf    cn126431   0.785   0.555   7.393  0.3259 -0.4114 -0.1499
 5543ntf    sn226432   0.956   0.504   7.361  0.5228  0.1297  0.0297
 5543ntf    nn326433   1.043   0.597   7.452  0.1653 -0.1585  0.6657
 5543ntf    sn226434   1.171   0.683   7.422 -0.0776  0.0412  0.2060
 5543ntf    cn126435   1.287   0.604   7.538 -0.0046  0.1473  0.2053
 5543ntf    fn426436   0.690   0.507   7.314 -0.1241  0.3854 -0.0997
 5543ntf    fn426437   0.753   0.535   7.520  0.5879 -0.2163 -0.0527
 5543ntf    fn426438   0.782   0.686   7.375 -0.2938 -0.3979  0.0070
 5543ntf    on526439   0.951   0.372   7.418  0.3512  0.3642  0.5638
 5543ntf    on526440   0.966   0.527   7.219  0.0807  0.5007  0.0591
 5543ntf    on526441   1.173   0.817   7.477  0.1662  0.0169  0.2568
 5543ntf    on526442   1.227   0.664   7.291  0.2364 -0.6802  0.4402
 5543ntf    fn426443   1.402   0.669   7.537 -0.2987  0.6750 -0.1832
 5543ntf    fn426444   1.240   0.603   7.661  0.5055 -1.3406  0.4008
 5543ntf    fn426445   1.316   0.480   7.504  0.0546  0.3548 -0.5320
 5544ntf    cn126446   6.002   2.133   6.712 -0.0147  0.0750  0.0716
 5544ntf    sn226447   5.979   2.121   6.532  0.1181  0.0981  0.0522
 5544ntf    nn326448   5.854   2.028   6.511  0.2146  0.1031 -0.5575
 5544ntf    sn226449   5.860   1.873   6.534  0.1653  0.1675 -0.0932
 5544ntf    cn126450   5.895   1.843   6.358  0.0064  0.1772 -0.1276
 5544ntf    fn426451   5.913   2.212   6.769 -0.1528 -0.1632  0.1887
 5544ntf    fn426452   5.984   2.018   6.775 -0.5531  0.3320  0.3879
 5544ntf    fn426453   6.127   2.170   6.736  0.1648 -0.4476 -0.0464
 5544ntf    on526454   5.949   2.259   6.504  0.5064  0.1107 -0.2983
 5544ntf    on526455   6.099   2.066   6.475 -0.3141 -0.8416  0.0151
 5544ntf    on526456   5.731   1.816   6.566  0.3163  0.2085  0.5984
 5544ntf    on526457   5.976   1.818   6.600 -0.0642 -0.6626 -0.3656
 5544ntf    fn426458   5.892   1.713   6.334 -0.5740  0.2509 -0.4581
 5544ntf    fn426459   5.796   1.887   6.283 -0.1052  0.0398 -0.0596
 5544ntf    fn426460   6.016   1.880   6.317  0.1735  0.0720  0.2585
 5545ntf    cn126461   5.572   5.379   3.493 -0.4386 -0.3442  0.2189
 5545ntf    sn226462   5.456   5.323   3.365 -0.1006  0.5029 -0.4607
 5545ntf    nn326463   5.411   5.466   3.317 -0.4882  0.6290  0.2624
 5545ntf    sn226464   5.459   5.561   3.201  0.2541  0.2113  0.2243
 5545ntf    cn126465   5.449   5.715   3.298  0.0557  0.2402  0.1582
 5545ntf    fn426466   5.654   5.286   3.539  0.4288 -0.1082 -0.8381
 5545ntf    fn426467   5.658   5.468   3.449 -0.3503 -0.4152  0.2452
 5545ntf    fn426468   5.509   5.440   3.593  0.1485 -0.4583  0.6639
 5545ntf    on526469   5.526   5.247   3.264  0.4545  0.0821  0.2308
 5545ntf    on526470   5.356   5.248   3.437  0.1115  0.2921 -0.3852
 5545ntf    on526471   5.356   5.584   3.104 -0.0054  0.2377  0.5046
 5545ntf    on526472   5.598   5.544   3.165 -0.0005  0.1624 -0.7303
 5545ntf    fn426473   5.451   5.833   3.239  0.0506  0.1521 -0.0191
 5545ntf    fn426474   5.337   5.711   3.367  0.0163  0.1371  0.0905
 5545ntf    fn426475   5.548   5.717   3.386  0.5638 -0.1266 -0.3875
 5546ntf    cn126476   7.002   5.114   3.811  0.5054  0.1997 -0.3413
 5546ntf    sn226477   6.968   5.259   3.916  0.0034 -0.0119 -0.2105
 5546ntf    nn326478   6.917   5.164   4.030 -0.1405  0.1663 -0.1253
 5546ntf    sn226479   6.777   5.170   4.100 -0.1308 -0.1017 -0.0799
 5546ntf    cn126480   6.788   5.029   4.214 -0.3389  0.1485  0.2551
 5546ntf    fn426481   6.902   5.027   3.807  0.8853 -0.2358 -0.4413
 5546ntf    fn426482   7.038   5.141   3.687  0.1069  0.5504 -0.3835
 5546ntf    fn426483   7.102   5.040   3.856  0.2387 -0.1451 -0.3137
 5546ntf    on526484   7.098   5.315   3.943 -0.2027  0.2875  0.1687
 5546ntf    on526485   6.869   5.343   3.854 -0.2976  0.2659  0.6345
 5546ntf    on526486   6.661   5.140   4.019 -0.3278  0.6731 -0.0956
 5546ntf    on526487   6.766   5.281   4.192 -0.3898 -0.0828 -0.1311
 5546ntf    fn426488   6.823   4.924   4.140 -1.3058  0.2486 -0.3614
 5546ntf    fn426489   6.889   5.043   4.299  0.1319  0.1712 -0.2980
 5546ntf    fn426490   6.677   5.006   4.281 -0.0476 -0.9027  0.3971
 5547ntf    cn126491   2.912   4.613   5.861  0.2866 -0.0048  0.4810
 5547ntf    sn226492   2.740   4.661   5.827  0.2654 -0.4298 -0.0303
 5547ntf    nn326493   2.766   4.794   5.747 -0.2111 -0.0681  0.4067
 5547ntf    sn226494   2.776   4.940   5.803 -0.2111  0.0369  0.1338
 5547ntf    cn126495   2.612   5.002   5.753 -0.0986  0.2162 -0.0132
 5547ntf    fn426496   2.925   4.490   5.907 -0.0803 -0.0057  0.5831
 5547ntf    fn426497   2.981   4.617   5.748 -0.0817  0.4565  0.2665
 5547ntf    fn426498   2.973   4.690   5.949  0.3506 -0.0311  0.4589
 5547ntf    on526499   2.693   4.555   5.741 -0.6481 -0.0789  0.0225
 5547ntf    on526500   2.676   4.669   5.955  0.3139  0.2800 -0.0447
 5547ntf    on526501   2.861   5.024   5.723 -0.3930  0.1383  0.0466
 5547ntf    on526502   2.778   4.954   5.946  0.2799  0.1975  0.1131
 5547ntf    fn426503   2.605   5.036   5.625  0.4699  0.6902  0.0765
 5547ntf    fn426504   2.516   4.914   5.770  0.4397 -0.3320  0.2346
 5547ntf    fn426505   2.585   5.114   5.818  0.0326  0.1513  0.1532
 5548ntf    cn126506   0.816   1.028   6.331  0.3222  0.1780  0.1419
 5548ntf    sn226507   0.793   0.899   6.457  0.1396 -0.1135 -0.1875
 5548ntf    nn326508   0.863   0.964   6.582 -0.1820 -0.1822  0.0277
 5548ntf    sn226509   0.796   1.062   6.684  0.1494  0.2420 -0.1606
 5548ntf    cn126510   0.759   0.943   6.817 -0.1277  0.0553 -0.4052
 5548ntf    fn426511   0.941   1.068   6.313  0.5341 -0.1767  0.8119
 5548ntf    fn426512   0.767   0.996   6.212  0.4102 -0.0065  0.1565
 5548ntf    fn426513   0.759   1.143   6.362 -0.2335  0.0337 -0.3299
 5548ntf    on526514   0.650   0.880   6.452  0.1485 -0.0448 -0.7632
 5548ntf    on526515   0.868   0.790   6.399  0.1338 -0.2313  0.0255
 5548ntf    on526516   0.668   1.117   6.646  0.0432 -0.0536 -0.2279
 5548ntf    on526517   0.883   1.161   6.744 -0.4405  0.2012  0.7851
 5548ntf    fn426518   0.812   0.828   6.781  0.1902  0.1395 -0.2086
 5548ntf    fn426519   0.807   0.974   6.936  0.0171 -0.5776 -0.2975
 5548ntf    fn426520   0.630   0.919   6.837 -0.1049  0.3771  0.1413
 5549ntf    cn126521   4.770   1.073   4.540 -0.1689  0.0326  0.0668
 5549ntf    sn226522   4.710   0.912   4.482  0.0857  0.0597 -0.2742
 5549ntf    nn326523   4.602   0.882   4.592  0.1801 -0.1405 -0.2354
 5549ntf    sn226524   4.626   0.807   4.728 -0.3313 -0.5131 -0.3482
 5549ntf    cn126525   4.567   0.648   4.662  0.0275 -0.5396 -0.6093
 5549ntf    fn426526   4.675   1.145   4.597 -0.1539  0.0875  0.0228
 5549ntf    fn426527   4.863   1.050   4.633 -0.0025  0.0640 -0.0919
 5549ntf    fn426528   4.834   1.139   4.445  0.4568  0.2277  0.6139
 5549ntf    on526529   4.647   0.945   4.356  0.7578  0.2877 -0.5554
 5549ntf    on526530   4.824   0.825   4.471  0.0469 -0.0903  0.4675
 5549ntf    on526531   4.535   0.842   4.835 -0.3427  0.1993 -0.5883
 5549ntf    on526532   4.764   0.781   4.760 -0.3530  0.0904  0.2524
 5549ntf    fn426533   4.604   0.545   4.735  0.6019  0.3660  0.4159
 5549ntf    fn426534   4.435   0.648   4.648 -0.1416 -0.1680  0.8371
 5549ntf    fn426535   4.621   0.627   4.543  0.0086 -0.3149 -0.6594
 5550ntf    cn126536   1.427   6.526   6.659 -0.0365 -0.1043  0.4464
 5550ntf    sn226537   1.386   6.686   6.734  0.1652  0.2902 -0.2784
 5550ntf    nn326538   1.526   6.728   6.793  0.1690 -0.0448 -0.0451
 5550ntf    sn226539   1.643   6.794   6.712  0.1918  0.1756  0.1686
 5550ntf    cn126540   1.624   6.962   6.780  0.6556  0.3785 -0.1982
 5550ntf    fn426541   1.325   6.472   6.593  0.1933 -0.6187  0.5054
 5550ntf    fn426542   1.528   6.535   6.574 -0.2280  0.3784  0.2665
 5550ntf    fn426543   1.465   6.441   6.753  0.3870 -0.4958 -0.0667
 5550ntf    on526544   1.334   6.776   6.634 -0.2043  0.1236 -0.2370
 5550ntf    on526545   1.296   6.648   6.839  0.0410  0.2304 -0.4065
 5550ntf    on526546   1.629   6.817   6.570  0.2010  0.2192  0.1747
 5550ntf    on526547   1.776   6.749   6.746 -0.1883 -0.4809  0.8095
 5550ntf    fn426548   1.702   7.062   6.742  0.6183  0.4766 -0.0197
 5550ntf    fn426549   1.500   7.007   6.780  0.3635 -0.4110 -0.0157
 5550ntf    fn426550   1.659   6.954   6.907 -0.2541  0.6834  0.0755
 5551ntf    cn126551   7.370   0.033   6.595 -0.2685  0.8501 -0.1110
 5551ntf    sn226552   7.483  -0.045   6.475 -0.7015  0.2813 -0.1551
 5551ntf    nn326553   7.567   0.076   6.421  0.2320 -0.3341 -0.1066
 5551ntf    sn226554   7.714   0.120   6.451  0.1304 -0.1209  0.0845
 5551ntf    cn126555   7.795   0.035   6.311 -0.3605 -0.4151 -0.0204
 5551ntf    fn426556   7.437   0.084   6.697  0.3154  0.1996 -0.1575
 5551ntf    fn426557   7.296   0.125   6.536 -0.0385  0.5039 -0.9435
 5551ntf    fn426558   7.289  -0.061   6.642  0.5147  0.2540  0.0673
 5551ntf    on526559   7.560  -0.143   6.548 -0.4342  0.2406 -0.4923
 5551ntf    on526560   7.400  -0.113   6.379  0.0282 -0.5512 -0.2008
 5551ntf    on526561   7.782   0.067   6.566  0.1759  0.2338  0.2217
 5551ntf    on526562   7.738   0.261   6.430  0.3432 -0.1589  0.0619
 5551ntf    fn426563   7.918   0.076   6.285 -0.2184 -0.6249  0.3178
 5551ntf    fn426564   7.795  -0.095   6.333 -0.4301 -0.4753 -0.3674
 5551ntf    fn426565   7.728   0.049   6.197  0.0136 -0.7037 -0.2761
 5552ntf    cn126566   6.568   6.283   4.032 -0.2401 -0.3323 -0.1134
 5552ntf    sn226567   6.587   6.305   4.212 -0.4627  0.1759 -0.1489
 5552ntf    nn326568   6.604   6.153   4.248 -0.4068  0.2053 -0.0526
 5552ntf    sn226569   6.507   6.052   4.320 -0.0447 -0.1314 -0.0334
 5552ntf    cn126570   6.556   6.082   4.492  0.2719 -0.0958 -0.1292
 5552ntf    fn426571   6.530   6.388   3.961  0.2056  0.1385  0.3256
 5552ntf    fn426572   6.687   6.263   3.977 -0.0492 -0.4388  0.3328
 5552ntf    fn426573   6.498   6.175   4.004 -0.2848 -0.2723 -0.2334
 5552ntf    on526574   6.712   6.374   4.227 -0.3780 -0.0109  0.0044
 5552ntf    on526575   6.459   6.360   4.251 -0.3923  0.4342 -0.2836
 5552ntf    on526576   6.543   5.914   4.298 -0.2426 -0.1966  0.0535
 5552ntf    on526577   6.367   6.085   4.320 -0.0962 -0.3367 -0.6146
 5552ntf    fn426578   6.551   6.214   4.505  0.3284 -0.0848 -0.2239
 5552ntf    fn426579   6.487   6.019   4.585  0.0524  1.2515  0.6377
 5552ntf    fn426580   6.680   6.042   4.516  0.2520  0.0656  0.2504
 5553ntf    cn126581   5.790   6.006   5.355  0.2084  0.0123 -0.1241
 5553ntf    sn226582   5.794   5.825   5.344  0.2462  0.0007  0.0785
 5553ntf    nn326583   5.650   5.798   5.402 -0.2021 -0.2699 -1.1109
 5553ntf    sn226584   5.597   5.671   5.477  0.1003  0.2358 -0.0161
 5553ntf    cn126585   5.515   5.582   5.341  0.4336 -0.1378  0.0241
 5553ntf    fn426586   5.773   6.036   5.483  0.0171  0.5504 -0.2711
 5553ntf    fn426587   5.903   6.062   5.316  0.1019  0.2561 -0.0814
 5553ntf    fn426588   5.693   6.073   5.296 -0.1279  0.0189  0.4361
 5553ntf    on526589   5.807   5.796   5.203  0.3165 -0.1312  0.1114
 5553ntf    on526590   5.902   5.792   5.434  0.2556 -0.5482 -0.1295
 5553ntf    on526591   5.493   5.706   5.570  0.4493  0.5879  0.2457
 5553ntf    on526592   5.696   5.576   5.524 -0.2837 -0.1938 -0.0729
 5553ntf    fn426593   5.452   5.669   5.265  0.4345 -0.4110 -0.2908
 5553ntf    fn426594   5.599   5.525   5.257  0.0675  0.2645 -0.6177
 5553ntf    fn426595   5.430   5.492   5.388  0.9636 -0.7991 -0.2663
 5554ntf    cn126596   0.500   7.161   3.696  0.3744  0.0186 -0.2069
 5554ntf    sn226597   0.449   7.334   3.718  0.0478 -0.1047  0.0185
 5554ntf    nn326598   0.333   7.355   3.614  0.1225  0.3758  0.0333
 5554ntf    sn226599   0.179   7.363   3.642  0.0900 -0.0835 -0.0188
 5554ntf    cn126600   0.170   7.534   3.702 -0.4242 -0.2716  0.4456
 5554ntf    fn426601   0.614   7.138   3.761  0.1863  0.3035  0.2245
 5554ntf    fn426602   0.411   7.071   3.736  0.2842  0.2034  0.0072
 5554ntf    fn426603   0.509   7.128   3.568 -0.2799  0.3617 -0.3443
 5554ntf    on526604   0.425   7.348   3.859  0.2905  0.3633  0.0156
 5554ntf    on526605   0.570   7.397   3.670  0.1038 -0.1825  0.0567
 5554ntf    on526606   0.128   7.273   3.743  0.5738  0.1116  0.4049
 5554ntf    on526607   0.099   7.368   3.523  0.1590  0.5378 -0.0389
 5554ntf    fn426608   0.242   7.625   3.640  0.0269 -0.8162  0.1654
 5554ntf    fn426609   0.045   7.578   3.700 -0.1501  0.5018  0.0871
 5554ntf    fn426610   0.217   7.543   3.826  0.0220 -0.3174  0.2807
 5555ntf    cn126611   2.339   2.552   3.661 -0.1127  0.0355 -0.1236
 5555ntf    sn226612   2.277   2.715   3.609 -0.0831  0.1328  0.1444
 5555ntf    nn326613   2.150   2.735   3.699 -0.2367 -0.1320 -0.0099
 5555ntf    sn226614   2.000   2.721   3.658 -0.3294 -0.0146  0.2859
 5555ntf    cn126615   1.922   2.692   3.820 -0.3272  0.1858  0.3238
 5555ntf    fn426616   2.385   2.544   3.785 -0.3899  0.0061 -0.0216
 5555ntf    fn426617   2.248   2.455   3.661 -0.0566 -0.0179 -0.0126
 5555ntf    fn426618   2.437   2.508   3.584 -0.2931 -0.0541 -0.3023
 5555ntf    on526619   2.384   2.806   3.644 -0.6784  1.0873 -0.4888
 5555ntf    on526620   2.245   2.704   3.469 -0.5850 -0.3881  0.2965
 5555ntf    on526621   1.965   2.602   3.585 -0.2727  0.4495 -0.5156
 5555ntf    on526622   1.948   2.849   3.615  0.6944  0.3026 -0.0308
 5555ntf    fn426623   1.954   2.568   3.853 -1.0115 -0.1107 -0.1037
 5555ntf    fn426624   1.954   2.773   3.920 -0.4653  0.2734  0.2966
 5555ntf    fn426625   1.791   2.689   3.809 -0.3450  0.1760  0.5429
 5556ntf    cn126626   2.661   5.391   0.578 -0.1776  0.6093 -0.1322
 5556ntf    sn226627   2.772   5.428   0.716 -0.3506  0.0319  0.1648
 5556ntf    nn326628   2.702   5.553   0.781 -0.5664 -0.2318  0.4455
 5556ntf    sn226629   2.742   5.642   0.904 -0.0927 -0.2005  0.2703
 5556ntf    cn126630   2.807   5.790   0.821 -0.3588 -0.2363 -0.0051
 5556ntf    fn426631   2.726   5.426   0.468 -0.2629 -0.0007 -0.3791
 5556ntf    fn426632   2.635   5.263   0.554  0.1953  0.4934  0.0905
 5556ntf    fn426633   2.540   5.442   0.595 -0.3835 -0.0061  0.2676
 5556ntf    on526634   2.755   5.310   0.797 -0.3661  0.2836  0.5366
 5556ntf    on526635   2.902   5.453   0.660 -0.3367  0.3744  0.3467
 5556ntf    on526636   2.852   5.605   0.990  0.1391 -0.1659 -0.0113
 5556ntf    on526637   2.627   5.691   0.975 -0.4689 -0.5718 -0.0797
 5556ntf    fn426638   2.880   5.755   0.717 -0.5598 -0.8033  0.0433
 5556ntf    fn426639   2.703   5.860   0.779  0.0990  0.2212 -0.3891
 5556ntf    fn426640   2.884   5.857   0.906 -0.2817 -0.0469 -0.2236
 5557ntf    cn126641   0.232   6.170   1.258 -0.1256 -0.2818 -0.2361
 5557ntf    sn226642   0.320   6.127   1.104  0.3123 -0.1487 -0.0253
 5557ntf    nn326643   0.362   6.272   1.059  0.1361 -0.2230 -0.4294
 5557ntf    sn226644   0.507   6.331   1.052  0.1157 -0.0992  0.1371
 5557ntf    cn126645   0.509   6.461   1.178 -0.0654  0.2792 -0.2509
 5557ntf    fn426646   0.150   6.272   1.239 -0.3567 -0.3893  0.1748
 5557ntf    fn426647   0.166   6.071   1.316 -0.0756 -0.2564 -0.1351
 5557ntf    fn426648   0.322   6.204   1.349  0.1181 -0.1322 -0.5311
 5557ntf    on526649   0.415   6.025   1.141  0.1148 -0.1736  0.4258
 5557ntf    on526650   0.219   6.089   1.008 -0.1277  0.2504  0.2755
 5557ntf    on526651   0.519   6.413   0.934  0.3684  0.6833  0.6997
 5557ntf    on526652   0.615   6.240   1.084 -0.0761 -0.3628  0.0386
 5557ntf    fn426653   0.620   6.531   1.195  0.1483 -0.1769  0.2305
 5557ntf    fn426654   0.413   6.547   1.148 -0.6231 -0.1704  0.2210
 5557ntf    fn426655   0.471   6.405   1.291  0.0675  0.0018 -0.3445
 5558ntf    cn126656   3.773   6.578   3.945 -0.1485 -0.0602  0.2699
 5558ntf    sn226657   3.934   6.498   3.972 -0.1900 -0.2468 -0.0360
 5558ntf    nn326658   3.938   6.512   4.128 -0.4526  0.3781 -0.0843
 5558ntf    sn226659   3.874   6.412   4.231 -0.1264  0.2994  0.0427
 5558ntf    cn126660   3.867   6.531   4.368 -0.1233  0.0138  0.2919
 5558ntf    fn426661   3.788   6.705   3.978 -0.2246  0.0402 -0.0773
 5558ntf    fn426662   3.740   6.582   3.817 -0.1227 -0.0483  0.2633
 5558ntf    fn426663   3.667   6.526   4.004  0.0064  0.0718  0.6693
 5558ntf    on526664   3.917   6.361   3.929  0.4503 -0.2415 -0.3224
 5558ntf    on526665   4.028   6.578   3.898 -0.2940  0.2686  0.3863
 5558ntf    on526666   3.962   6.306   4.274 -0.0950  0.1673 -0.3452
 5558ntf    on526667   3.736   6.372   4.223  0.1073 -0.3362 -0.9800
 5558ntf    fn426668   3.986   6.582   4.394  0.3354 -0.5797 -0.6059
 5558ntf    fn426669   3.786   6.635   4.351 -0.2604 -0.1336  0.0425
 5558ntf    fn426670   3.823   6.478   4.481 -0.5375  0.6564  0.4379
 5559ntf    cn126671   5.958   2.533   6.808  0.1629  0.5124 -0.4392
 5559ntf    sn226672   5.791   2.581   6.861  0.0511  0.0595 -0.3759
 5559ntf    nn326673   5.814   2.554   7.014 -0.3371  0.4413 -0.2484
 5559ntf    sn226674   5.884   2.647   7.120  0.1006  0.0725 -0.2087
 5559ntf    cn126675   5.838   2.565   7.276 -0.0979  0.0041 -0.3024
 5559ntf    fn426676   5.987   2.413   6.857 -0.2252  0.3747 -0.5462
 5559ntf    fn426677   5.977   2.519   6.678  0.4839 -0.0646 -0.3379
 5559ntf    fn426678   6.056   2.615   6.841  0.4452  0.0298 -0.0488
 5559ntf    on526679   5.791   2.721   6.825  0.3047  0.1641  0.0198
 5559ntf    on526680   5.694   2.493   6.801 -0.3278  0.3940 -0.2528
 5559ntf    on526681   5.816   2.773   7.132  0.2847  0.1717 -0.2096
 5559ntf    on526682   6.027   2.663   7.125  0.1625 -0.4649 -0.1900
 5559ntf    fn426683   5.853   2.636   7.387 -0.4800 -0.2001 -0.1180
 5559ntf    fn426684   5.710   2.534   7.269 -0.1479  0.2866 -0.7300
 5559ntf    fn426685   5.898   2.448   7.290 -0.0092  0.1030  0.1551
 5560ntf    cn126686   4.086   2.047   2.257  0.5576  0.1595  0.7218
 5560ntf    sn226687   4.137   1.887   2.188 -0.1152  0.3199 -0.1519
 5560ntf    nn326688   4.288   1.920   2.161 -0.2743  0.8390 -0.4262
 5560ntf    sn226689   4.353   1.930   2.018 -0.1996 -0.0564 -0.4574
 5560ntf    cn126690   4.519   1.996   2.050 -0.2065 -0.2747  0.0481
 5560ntf    fn426691   4.136   2.074   2.377  0.9781 -0.0821  0.6011
 5560ntf    fn426692   4.119   2.143   2.172 -0.0250 -0.2348  0.0440
 5560ntf    fn426693   3.956   2.056   2.276  0.4378 -0.2732  0.1178
 5560ntf    on526694   4.109   1.790   2.291 -0.1721  1.3495  0.8242
 5560ntf    on526695   4.054   1.873   2.071  0.9132 -0.2119 -0.8281
 5560ntf    on526696   4.286   2.031   1.940 -1.0781 -0.3211 -0.0648
 5560ntf    on526697   4.381   1.801   1.958  0.1734  0.0101 -0.4280
 5560ntf    fn426698   4.597   1.992   1.943 -0.0518  0.1328  0.1461
 5560ntf    fn426699   4.511   2.124   2.082 -0.2282 -0.2675  0.0134
 5560ntf    fn426700   4.579   1.927   2.146 -0.1531 -0.2081  0.0620
 5561ntf    cn126701   0.859   7.109   0.416 -0.0308 -0.0899 -0.2246
 5561ntf    sn226702   0.927   7.239   0.308 -0.2736 -0.0426 -0.3193
 5561ntf    nn326703   0.875   7.187   0.169  0.0778 -0.2792 -0.3642
 5561ntf    sn226704   0.733   7.215   0.107  0.0051 -0.0977 -0.1178
 5561ntf    cn126705   0.676   7.043   0.091  0.2503 -0.2891  0.9904
 5561ntf    fn426706   0.730   7.127   0.439 -0.0301 -0.0190 -0.2777
 5561ntf    fn426707   0.874   6.988   0.363  0.2570 -0.1968  0.1014
 5561ntf    fn426708   0.915   7.102   0.535  0.0312 -0.0141 -0.2491
 5561ntf    on526709   0.856   7.354   0.359  0.0353 -0.0588  0.1491
 5561ntf    on526710   1.070   7.233   0.321 -0.2278 -0.1098 -0.8048
 5561ntf    on526711   0.738   7.266  -0.028 -0.7007 -0.5604 -0.3282
 5561ntf    on526712   0.638   7.281   0.192  0.2189 -0.3747  0.3412
 5561ntf    fn426713   0.612   7.021  -0.023  0.7753 -0.2317  0.6820
 5561ntf    fn426714   0.768   6.948   0.093  0.2032 -0.3497  0.4623
 5561ntf    fn426715   0.593   7.006   0.188  0.1340 -0.5191  0.8056
 5562ntf    cn126716   1.178   2.273   6.425 -0.1364  0.0935  0.2767
 5562ntf    sn226717   1.201   2.094   6.445  0.1950  0.1068  0.0222
 5562ntf    nn326718   1.319   2.053   6.350 -0.0226  0.3219 -0.3426
 5562ntf    sn226719   1.471   2.046   6.388 -0.1311  0.1059  0.0506
 5562ntf    cn126720   1.501   1.870   6.420  0.1212  0.2109  0.3989
 5562ntf    fn426721   1.287   2.347   6.418 -0.2483  0.2131 -0.2238
 5562ntf    fn426722   1.118   2.297   6.310  0.1042  0.0711  0.1463
 5562ntf    fn426723   1.099   2.331   6.514  0.2222  0.4914  0.3350
 5562ntf    on526724   1.229   2.077   6.585 -0.4948 -0.0018  0.1524
 5562ntf    on526725   1.081   2.023   6.407  0.3390 -0.4593  0.6021
 5562ntf    on526726   1.508   2.100   6.517 -0.1517  0.4734 -0.0978
 5562ntf    on526727   1.555   2.077   6.275 -0.3331  0.7237  0.0641
 5562ntf    fn426728   1.470   1.802   6.311  0.6766  0.0456  0.3409
 5562ntf    fn426729   1.621   1.825   6.454  0.1832 -0.1950 -0.3338
 5562ntf    fn426730   1.419   1.824   6.514 -0.3712  0.1352 -0.0612
 5563ntf    cn126731   2.123   7.041   7.257  0.2725  0.1737 -0.3647
 5563ntf    sn226732   2.260   6.922   7.249  0.1155 -0.0155 -0.2476
 5563ntf    nn326733   2.259   6.856   7.391 -0.1936  0.2334 -0.1331
 5563ntf    sn226734   2.189   6.726   7.445  0.2230 -0.0598 -0.3031
 5563ntf    cn126735   2.320   6.604   7.409  0.3135 -0.1369  0.2847
 5563ntf    fn426736   2.109   7.110   7.145 -0.1630  0.4966 -0.1196
 5563ntf    fn426737   2.004   6.991   7.285  0.6176 -0.4051  0.0727
 5563ntf    fn426738   2.152   7.127   7.354  0.5665  0.4131 -0.6622
 5563ntf    on526739   2.235   6.834   7.138  0.1742  0.1724 -0.4114
 5563ntf    on526740   2.379   7.004   7.247  0.3883 -0.3967  0.1658
 5563ntf    on526741   2.082   6.675   7.363  0.1183 -0.2657 -0.0365
 5563ntf    on526742   2.181   6.728   7.589  0.0470  0.0640 -0.3144
 5563ntf    fn426743   2.273   6.481   7.420  0.6875 -0.3181 -0.1489
 5563ntf    fn426744   2.353   6.617   7.282 -1.1157  0.3440 -0.0610
 5563ntf    fn426745   2.429   6.623   7.481  0.3445 -0.7212  0.3918
 5564ntf    cn126746   3.499   6.903   2.660  0.1265  0.3147  0.0991
 5564ntf    sn226747   3.375   6.913   2.792  0.0242  0.1991  0.0111
 5564ntf    nn326748   3.400   6.787   2.883 -0.5229  0.3855  0.4275
 5564ntf    sn226749   3.485   6.757   3.012 -0.0738  0.3667  0.1271
 5564ntf    cn126750   3.561   6.595   2.981 -0.1703  0.3237  0.1152
 5564ntf    fn426751   3.537   7.016   2.602 -0.2660  0.1400 -0.5011
 5564ntf    fn426752   3.610   6.844   2.700  0.2758  0.3463 -0.2634
 5564ntf    fn426753   3.463   6.822   2.563  0.0687 -0.3548  0.6717
 5564ntf    on526754   3.402   7.034   2.866 -0.5499  0.4797 -0.2338
 5564ntf    on526755   3.250   6.912   2.719 -0.2840  0.2463  0.5276
 5564ntf    on526756   3.413   6.734   3.134 -0.6398  0.0271 -0.2701
 5564ntf    on526757   3.600   6.845   3.016  0.2306  0.0054 -0.4457
 5564ntf    fn426758   3.649   6.616   2.884 -0.3133  0.2103 -0.0405
 5564ntf    fn426759   3.634   6.555   3.083 -0.6081 -0.1290  0.2502
 5564ntf    fn426760   3.475   6.504   2.940 -0.0358  0.1465  0.2269
 5565ntf    cn126761   1.383   2.458   2.072  0.2993 -0.3441 -0.4356
 5565ntf    sn226762   1.481   2.550   2.196 -0.4030  0.0836 -0.1913
 5565ntf    nn326763   1.516   2.431   2.292 -0.0579  0.0565 -0.3505
 5565ntf    sn226764   1.436   2.365   2.410  0.2515 -0.0810 -0.2141
 5565ntf    cn126765   1.518   2.203   2.411 -0.2929 -0.3574 -0.1051
 5565ntf    fn426766   1.373   2.528   1.961 -0.0001  0.1427 -0.1080
 5565ntf    fn426767   1.434   2.340   2.042  0.2448 -0.4766 -0.0152
 5565ntf    fn426768   1.262   2.429   2.115  0.1110  0.8730 -0.1096
 5565ntf    on526769   1.591   2.608   2.123  0.2196 -0.4556  0.3076
 5565ntf    on526770   1.393   2.646   2.257 -0.7226 -0.4519  0.2045
 5565ntf    on526771   1.296   2.330   2.398  0.2500 -0.3704  0.6093
 5565ntf    on526772   1.468   2.433   2.533 -0.1653  0.5034 -0.4218
 5565ntf    fn426773   1.493   2.136   2.523  0.6086 -0.1144  0.2478
 5565ntf    fn426774   1.502   2.131   2.301 -0.8392 -0.7277  0.2108
 5565ntf    fn426775   1.648   2.227   2.413 -0.3898  0.2057 -0.4074
 5566ntf    cn126776   2.673   2.738   1.030 -0.2892  0.2275  0.3631
 5566ntf    sn226777   2.683   2.822   0.870  0.4494 -0.2450  0.1547
 5566ntf    nn326778   2.690   2.966   0.933  0.0290 -0.0626 -0.2076
 5566ntf    sn226779   2.586   3.082   0.949 -0.1137 -0.2127 -0.0351
 5566ntf    cn126780   2.653   3.223   0.856 -0.2631  0.1222  0.3605
 5566ntf    fn426781   2.663   2.607   1.017  0.6035  0.1790  0.1071
 5566ntf    fn426782   2.780   2.748   1.108 -0.0501 -0.1929  0.0943
 5566ntf    fn426783   2.574   2.780   1.107  0.0419  0.3824  0.7119
 5566ntf    on526784   2.810   2.778   0.816  0.4567  0.1336 -0.1461
 5566ntf    on526785   2.559   2.793   0.802  0.2240 -0.2300  0.5598
 5566ntf    on526786   2.587   3.140   1.081  0.0635  0.5817 -0.3785
 5566ntf    on526787   2.453   3.058   0.901 -0.0612 -0.0521 -0.2653
 5566ntf    fn426788   2.580   3.332   0.873 -0.2269  0.3137 -0.6087
 5566ntf    fn426789   2.773   3.269   0.888  0.2309 -0.3362 -0.7629
 5566ntf    fn426790   2.657   3.190   0.728 -0.2044  0.6157  0.2320
 5567ntf    cn126791   2.927   0.851   6.441  0.0463  0.0874  0.1208
 5567ntf    sn226792   2.931   0.711   6.324 -0.0614 -0.0088  0.2321
 5567ntf    nn326793   3.072   0.731   6.260 -0.2554  0.1542 -0.1486
 5567ntf    sn226794   3.122   0.824   6.143  0.1418  0.0134 -0.0927
 5567ntf    cn126795   3.133   0.702   6.009 -0.0198 -0.2785  0.1560
 5567ntf    fn426796   3.048   0.901   6.459  0.2186 -0.3518  0.2061
 5567ntf    fn426797   2.851   0.951   6.400  0.5098  0.2817 -0.2703
 5567ntf    fn426798   2.893   0.809   6.562  0.5814 -0.0171  0.2388
 5567ntf    on526799   2.937   0.599   6.414  0.5062 -0.1507  0.0201
 5567ntf    on526800   2.816   0.730   6.238 -0.0776  0.3045  0.3189
 5567ntf    on526801   3.257   0.868   6.170  0.1913 -0.3350  0.2408
 5567ntf    on526802   3.037   0.930   6.095 -0.0480 -0.2757 -0.3976
 5567ntf    fn426803   3.021   0.636   5.988  0.0393 -0.2839 -0.1604
 5567ntf    fn426804   3.153   0.756   5.890  0.1368 -0.2235  0.2063
 5567ntf    fn426805   3.224   0.608   6.028  0.3352 -0.0293 -0.2923
 5568ntf    cn126806   3.615   4.739   5.386  0.0607 -0.0608 -0.3382
 5568ntf    sn226807   3.451   4.694   5.450  0.1939 -0.3825 -0.2197
 5568ntf    nn326808   3.470   4.709   5.605 -0.1090 -0.5578 -0.1645
 5568ntf    sn226809   3.448   4.607   5.722 -0.0857 -0.2116  0.1447
 5568ntf    cn126810   3.267   4.616   5.738 -0.0266  0.4575  0.4715
 5568ntf    fn426811   3.651   4.863   5.414 -0.4174 -0.0558  0.2614
 5568ntf    fn426812   3.709   4.667   5.445 -0.2309  0.0198  0.2328
 5568ntf    fn426813   3.626   4.726   5.255  0.3218 -0.3099 -0.2927
 5568ntf    on526814   3.357   4.787   5.393  0.4316 -0.1027 -0.1573
 5568ntf    on526815   3.441   4.555   5.415  0.9434 -0.4681 -0.1061
 5568ntf    on526816   3.496   4.654   5.850  0.5291 -0.0112 -0.1595
 5568ntf    on526817   3.467   4.465   5.705  0.0990 -0.1802  0.0917
 5568ntf    fn426818   3.216   4.538   5.832 -0.5516  0.0043 -0.1788
 5568ntf    fn426819   3.230   4.740   5.764  0.0564  0.6024 -0.1054
 5568ntf    fn426820   3.209   4.573   5.628  0.0229  0.0007  0.6198
 5569ntf    cn126821   7.210   3.666   4.489  0.0189 -0.2438  0.3859
 5569ntf    sn226822   7.077   3.790   4.492  0.2058 -0.0370  0.1227
 5569ntf    nn326823   7.143   3.883   4.601  0.1654 -0.1100  0.2091
 5569ntf    sn226824   7.253   3.992   4.578  0.0028  0.0818  0.3413
 5569ntf    cn126825   7.163   4.150   4.577  0.2893  0.2449  0.3791
 5569ntf    fn426826   7.172   3.545   4.451  0.0880  0.0681 -0.7243
 5569ntf    fn426827   7.309   3.696   4.406 -0.4388  0.4318  0.0785
 5569ntf    fn426828   7.268   3.643   4.605  0.7203  0.1299  0.1172
 5569ntf    on526829   7.069   3.842   4.358 -0.2580 -0.4574 -0.0135
 5569ntf    on526830   6.958   3.733   4.548  0.0421  0.4226  0.2486
 5569ntf    on526831   7.324   3.980   4.453  0.1717  0.1638  0.4283
 5569ntf    on526832   7.341   4.000   4.693  0.1425 -0.2460  0.2574
 5569ntf    fn426833   7.065   4.156   4.489  0.2575 -0.6216  0.3458
 5569ntf    fn426834   7.100   4.167   4.692  0.0337 -0.2049  0.3079
 5569ntf    fn426835   7.234   4.261   4.560  0.6791 -0.1048 -0.3340
 5570ntf    cn126836   4.586   5.006   5.958  0.2611 -0.3429  0.3528
 5570ntf    sn226837   4.689   5.104   6.071  0.0613  0.1664  0.0945
 5570ntf    nn326838   4.653   5.246   6.012  0.3007  0.3562  0.3993
 5570ntf    sn226839   4.600   5.373   6.087 -0.2042  0.0345  0.5977
 5570ntf    cn126840   4.701   5.500   6.006  0.1858 -0.1080  0.8589
 5570ntf    fn426841   4.598   4.875   5.966  0.1225 -0.3913 -0.1781
 5570ntf    fn426842   4.460   5.037   5.984  0.0000 -0.5581 -0.6252
 5570ntf    fn426843   4.610   5.032   5.830 -0.6076 -0.1137  0.2263
 5570ntf    on526844   4.644   5.065   6.202 -0.2950  0.2349 -0.0077
 5570ntf    on526845   4.822   5.067   6.031  0.0417  0.1563  0.0385
 5570ntf    on526846   4.640   5.382   6.226 -0.3271 -0.1269  0.6438
 5570ntf    on526847   4.466   5.411   6.050  0.0217 -0.0606 -0.3319
 5570ntf    fn426848   4.644   5.548   5.897  0.2855 -0.1245  0.7983
 5570ntf    fn426849   4.726   5.604   6.084 -0.2757  0.0910  0.7434
 5570ntf    fn426850   4.820   5.455   5.969 -0.0212 -0.0303  0.0949
 5571ntf    cn126851   4.863   2.601   4.572 -0.3794 -0.1393  0.0638
 5571ntf    sn226852   4.961   2.501   4.688 -0.0599  0.2090  0.0971
 5571ntf    nn326853   5.008   2.608   4.792  0.1979  0.0748  0.1200
 5571ntf    sn226854   4.954   2.637   4.937  0.1526  0.0155  0.1151
 5571ntf    cn126855   5.037   2.501   5.026 -0.1838 -0.1967  0.1049
 5571ntf    fn426856   4.851   2.538   4.456 -0.0084  0.1628 -0.1409
 5571ntf    fn426857   4.740   2.619   4.617 -0.3140  0.4032  0.0338
 5571ntf    fn426858   4.918   2.721   4.565 -0.1690 -0.2655 -0.4537
 5571ntf    on526859   4.869   2.403   4.740  0.4602 -0.5397 -0.3628
 5571ntf    on526860   5.074   2.455   4.611  0.3348  0.2228  0.6647
 5571ntf    on526861   4.814   2.606   4.952  0.0756  0.1102 -0.3791
 5571ntf    on526862   5.012   2.749   5.006 -0.3076  0.2650  0.0941
 5571ntf    fn426863   5.168   2.515   5.020 -0.2842  0.9786  0.3142
 5571ntf    fn426864   5.004   2.498   5.154  0.0991  0.7445  0.2134
 5571ntf    fn426865   5.002   2.381   4.983  0.3308 -0.1478 -0.4613
 5572ntf    cn126866   3.700   2.587   0.365  0.0889  0.3419 -0.0073
 5572ntf    sn226867   3.526   2.599   0.315  0.1152  0.1362 -0.1507
 5572ntf    nn326868   3.537   2.561   0.163 -0.6592 -0.0189 -0.1744
 5572ntf    sn226869   3.464   2.640   0.049 -0.3951  0.0547 -0.2930
 5572ntf    cn126870   3.317   2.539   0.012 -0.1806 -0.5091  0.3650
 5572ntf    fn426871   3.780   2.517   0.285 -0.0730  0.3479 -0.1748
 5572ntf    fn426872   3.759   2.702   0.392  0.1334  0.2917  0.1084
 5572ntf    fn426873   3.705   2.511   0.473  0.1093 -0.6443 -0.6834
 5572ntf    on526874   3.460   2.504   0.402  0.0051  0.4565  0.1167
 5572ntf    on526875   3.503   2.739   0.338 -0.3192  0.0173  0.1670
 5572ntf    on526876   3.537   2.629  -0.075  0.1209  0.7459 -0.0583
 5572ntf    on526877   3.421   2.776   0.072  0.2686  0.0869  0.8626
 5572ntf    fn426878   3.348   2.416  -0.025 -0.0526 -0.3272 -0.1321
 5572ntf    fn426879   3.231   2.537   0.113 -0.5969  0.1411  0.0319
 5572ntf    fn426880   3.246   2.588  -0.088  0.0844 -0.5294  0.1646
 5573ntf    cn126881   1.486   3.573   6.489  0.2383  0.2119  0.5657
 5573ntf    sn226882   1.400   3.496   6.349 -0.0050  0.2537  0.6908
 5573ntf    nn326883   1.367   3.621   6.260  0.1475 -0.1348  0.0844
 5573ntf    sn226884   1.471   3.695   6.169 -0.1086  0.4042  0.2288
 5573ntf    cn126885   1.443   3.868   6.218 -0.2687  0.5267 -0.2869
 5573ntf    fn426886   1.511   3.494   6.592 -0.0075 -0.2965  0.2362
 5573ntf    fn426887   1.606   3.611   6.448 -0.0698  0.7356  0.1267
 5573ntf    fn426888   1.431   3.685   6.535 -0.5214  0.1171 -0.0909
 5573ntf    on526889   1.494   3.399   6.298 -0.1933  0.1182  0.5973
 5573ntf    on526890   1.279   3.442   6.406 -0.0795 -0.2596  0.0573
 5573ntf    on526891   1.437   3.689   6.029  0.2496 -0.1646  0.1646
 5573ntf    on526892   1.608   3.672   6.206 -0.1319  0.2594  0.2237
 5573ntf    fn426893   1.526   3.946   6.151 -0.1529  0.4437 -0.2410
 5573ntf    fn426894   1.320   3.910   6.193 -0.5915 -0.1651  0.1024
 5573ntf    fn426895   1.456   3.892   6.347 -0.0603  0.4302 -0.2900
 5574ntf    cn126896   3.547   0.398   0.027 -0.0205 -0.2577  0.0988
 5574ntf    sn226897   3.587   0.441   0.199  0.5784 -0.1183 -0.0756
 5574ntf    nn326898   3.739   0.401   0.193  0.6241  0.0869 -0.2974
 5574ntf    sn226899   3.807   0.265   0.232  0.1446 -0.1216 -0.1834
 5574ntf    cn126900   3.819   0.267   0.413  0.3630  0.2133 -0.2007
 5574ntf    fn426901   3.438   0.458  -0.019  0.2803  0.2971  0.1068
 5574ntf    fn426902   3.651   0.433  -0.046 -0.2867  0.0457 -0.1361
 5574ntf    fn426903   3.533   0.267   0.015 -0.0491 -0.2571  0.1229
 5574ntf    on526904   3.578   0.585   0.192  0.2549 -0.1147  0.3652
 5574ntf    on526905   3.493   0.362   0.275 -0.0035  0.4659 -0.1775
 5574ntf    on526906   3.944   0.248   0.193  0.0949  0.7822 -0.7921
 5574ntf    on526907   3.718   0.157   0.197  0.0917 -0.2201  0.2530
 5574ntf    fn426908   3.711   0.221   0.475  1.0421 -0.7402  0.3035
 5574ntf    fn426909   3.911   0.185   0.460  0.0863  0.2889  0.4824
 5574ntf    fn426910   3.842   0.387   0.464 -0.1375  0.1633  0.1527
 5575ntf    cn126911   1.591   0.794   0.684  0.0872  0.0161 -0.2327
 5575ntf    sn226912   1.650   0.847   0.847 -0.5251  0.0882 -0.0337
 5575ntf    nn326913   1.749   0.730   0.882 -0.2001  0.4743  0.3583
 5575ntf    sn226914   1.895   0.721   0.825 -0.4881 -0.4306 -0.2654
 5575ntf    cn126915   1.981   0.781   0.974 -0.2578  0.0027 -0.5715
 5575ntf    fn426916   1.687   0.784   0.593  0.1093 -0.3790 -0.1659
 5575ntf    fn426917   1.519   0.684   0.684  0.3456 -0.1591 -0.6598
 5575ntf    fn426918   1.511   0.888   0.635 -0.6118 -0.2415  0.4056
 5575ntf    on526919   1.715   0.975   0.827  0.1647 -0.2485  0.0292
 5575ntf    on526920   1.537   0.844   0.937 -0.3242  0.6520  0.2462
 5575ntf    on526921   1.924   0.808   0.714 -0.4112 -0.0094  0.0806
 5575ntf    on526922   1.938   0.585   0.812  0.1447 -0.2553 -0.0408
 5575ntf    fn426923   1.941   0.905   1.001 -0.1192 -0.0662 -0.0325
 5575ntf    fn426924   1.951   0.707   1.079  0.8095  0.2332 -0.0971
 5575ntf    fn426925   2.113   0.780   0.969 -0.2340  0.1522 -0.0833
 5576ntf    cn126926   1.891   3.712   5.112 -0.1553 -0.2367  0.1879
 5576ntf    sn226927   2.037   3.818   5.088 -0.5212  0.1405 -0.4110
 5576ntf    nn326928   2.149   3.740   5.167 -0.9051 -0.2357 -0.2348
 5576ntf    sn226929   2.196   3.595   5.131  0.2284  0.1380 -0.2726
 5576ntf    cn126930   2.370   3.604   5.184  0.0804  0.3852  0.1714
 5576ntf    fn426931   1.907   3.592   5.059  0.3868  0.1110 -0.4567
 5576ntf    fn426932   1.869   3.690   5.240 -0.2782 -0.2840  0.1590
 5576ntf    fn426933   1.779   3.767   5.068 -0.0686  0.3919  0.7417
 5576ntf    on526934   2.055   3.833   4.946  0.6802  0.7847 -0.2023
 5576ntf    on526935   1.995   3.940   5.153 -0.2885  0.1689 -0.3129
 5576ntf    on526936   2.211   3.559   4.992 -0.6812 -0.2823 -0.2670
 5576ntf    on526937   2.143   3.494   5.218  0.4685  0.1926 -0.0611
 5576ntf    fn426938   2.395   3.630   5.311  0.0784  0.3577  0.1776
 5576ntf    fn426939   2.440   3.497   5.148  0.2146  0.3709  0.4726
 5576ntf    fn426940   2.427   3.704   5.119  0.1391  0.2928  0.0810
 5577ntf    cn126941   5.384   3.269   5.805  0.3675 -0.3278 -0.1932
 5577ntf    sn226942   5.211   3.224   5.773  0.2172 -0.0387  0.2223
 5577ntf    nn326943   5.138   3.315   5.880  0.2541 -0.1566  0.3477
 5577ntf    sn226944   5.050   3.443   5.862 -0.0616 -0.4452 -0.2003
 5577ntf    cn126945   4.883   3.373   5.848 -0.4331  0.3485  0.1754
 5577ntf    fn426946   5.480   3.217   5.730  0.6041 -0.2091  0.0269
 5577ntf    fn426947   5.404   3.399   5.793  0.5365 -0.3044  0.3273
 5577ntf    fn426948   5.416   3.252   5.932  0.4902 -0.0201 -0.1837
 5577ntf    on526949   5.189   3.268   5.638  0.0686  0.0721  0.2814
 5577ntf    on526950   5.207   3.084   5.805 -0.3504 -0.1351 -0.2523
 5577ntf    on526951   5.069   3.513   5.738 -0.3948  0.4752  0.2567
 5577ntf    on526952   5.053   3.528   5.979 -0.1061 -0.2131 -0.3669
 5577ntf    fn426953   4.870   3.288   5.748  0.1563  0.5530 -0.0763
 5577ntf    fn426954   4.842   3.309   5.957 -0.1494  0.4137  0.3221
 5577ntf    fn426955   4.797   3.471   5.826 -0.4669  0.1788 -0.4444
 5578ntf    cn126956   2.231   2.686   5.015  0.2917  0.0769  0.3018
 5578ntf    sn226957   2.193   2.567   5.146  0.3433  0.1218  0.3578
 5578ntf    nn326958   2.279   2.619   5.267  0.3896  0.0080  0.3741
 5578ntf    sn226959   2.237   2.708   5.389  0.0974  0.1083  0.2025
 5578ntf    cn126960   2.361   2.636   5.500 -0.2349  0.1981  0.6364
 5578ntf    fn426961   2.178   2.658   4.897  0.1123 -0.0045  0.4012
 5578ntf    fn426962   2.188   2.807   5.046  0.3094  0.0188  0.5483
 5578ntf    fn426963   2.362   2.695   4.996  0.2586  0.0988  0.0715
 5578ntf    on526964   2.054   2.583   5.180  0.2250  0.6860 -0.3729
 5578ntf    on526965   2.242   2.442   5.094 -0.0019  0.1055  0.0649
 5578ntf    on526966   2.112   2.669   5.451  0.2037  0.2645  0.5223
 5578ntf    on526967   2.268   2.848   5.373  0.0847  0.0459 -0.3784
 5578ntf    fn426968   2.483   2.672   5.462 -0.3111  0.1510  0.3452
 5578ntf    fn426969   2.345   2.674   5.626  0.3754  0.3653  0.6672
 5578ntf    fn426970   2.349   2.504   5.510 -0.1283  0.1220 -0.1827
 5579ntf    cn126971   4.036   0.625   4.458  0.2501  0.2523  0.0455
 5579ntf    sn226972   3.965   0.664   4.296 -0.3020  0.0107  0.2228
 5579ntf    nn326973   3.999   0.816   4.274  0.5051 -0.1802  0.1122
 5579ntf    sn226974   4.076   0.885   4.156 -0.0734  0.1981 -0.0477
 5579ntf    cn126975   3.957   1.021   4.140 -0.1240  0.1752  0.1357
 5579ntf    fn426976   4.162   0.664   4.463  0.3018  0.1123 -0.1733
 5579ntf    fn426977   3.967   0.690   4.551 -0.2881 -0.0476 -0.1362
 5579ntf    fn426978   4.027   0.497   4.491  0.3751  0.2189 -0.0531
 5579ntf    on526979   4.032   0.561   4.220 -0.4324  0.4264 -0.4635
 5579ntf    on526980   3.826   0.636   4.319 -0.3484 -0.1961 -0.2907
 5579ntf    on526981   4.072   0.823   4.025  0.3922  0.4428 -0.1811
 5579ntf    on526982   4.199   0.944   4.201 -0.4957  0.0391  1.3421
 5579ntf    fn426983   3.835   0.977   4.164  0.1682 -0.5423  0.3161
 5579ntf    fn426984   3.983   1.115   4.230 -0.3461  0.2833  0.0885
 5579ntf    fn426985   3.948   1.088   4.026 -0.3585  0.0131  0.0597
 5580ntf    cn126986   5.918   6.064   6.172  0.0253  0.2649  0.2893
 5580ntf    sn226987   5.988   5.906   6.227 -0.2926  0.0536  0.0889
 5580ntf    nn326988   6.131   5.953   6.273 -0.2934 -0.3480  0.5037
 5580ntf    sn226989   6.207   5.967   6.410  0.3433 -0.1863  0.1355
 5580ntf    cn126990   6.196   6.148   6.427 -0.2326 -0.1730 -0.3479
 5580ntf    fn426991   6.003   6.120   6.087  0.3492  0.0365  0.4613
 5580ntf    fn426992   5.800   6.052   6.114  0.2955 -0.3332 -0.1417
 5580ntf    fn426993   5.897   6.148   6.273 -0.5701  0.1141  0.2938
 5580ntf    on526994   5.901   5.871   6.337 -0.3522  0.1312  0.0661
 5580ntf    on526995   5.985   5.829   6.105 -0.2388  0.6940 -0.3188
 5580ntf    on526996   6.348   5.946   6.391  0.4723  0.2684  0.5926
 5580ntf    on526997   6.148   5.908   6.528 -0.0086  0.3058  0.2096
 5580ntf    fn426998   6.239   6.200   6.313  0.4114  0.5100  0.2018
 5580ntf    fn426999   6.075   6.197   6.450  0.1143 -0.0254  1.2540
 5580ntf    fn427000   6.275   6.201   6.518 -0.4129 -0.2355 -0.1544
 5581ntf    cn127001   1.751   3.463   7.271  0.0819 -0.6750  0.1900
 5581ntf    sn227002   1.880   3.428   7.147 -0.0402 -0.2519 -0.0584
 5581ntf    nn327003   1.874   3.561   7.064 -0.6029 -0.0262  0.3348
 5581ntf    sn227004   1.782   3.605   6.944  0.0782  0.3408 -0.0593
 5581ntf    cn127005   1.696   3.750   7.013 -0.3165 -0.0264  0.2234
 5581ntf    fn427006   1.760   3.380   7.374 -0.1813 -0.2952  0.5205
 5581ntf    fn427007   1.759   3.585   7.320 -0.4455 -0.2103 -0.8595
 5581ntf    fn427008   1.625   3.449   7.233 -0.0969  0.5231  0.3124
 5581ntf    on527009   2.002   3.417   7.224 -0.1477  0.4283  0.2122
 5581ntf    on527010   1.833   3.309   7.080  0.0423 -0.4032  0.1494
 5581ntf    on527011   1.676   3.511   6.917  0.3542 -0.0088  0.0618
 5581ntf    on527012   1.857   3.662   6.835  0.0707  0.3841 -0.0423
 5581ntf    fn427013   1.773   3.843   7.066 -0.2369  0.4631 -0.7235
 5581ntf    fn427014   1.618   3.812   6.926 -0.3926 -0.1746  0.1858
 5581ntf    fn427015   1.629   3.702   7.116  0.1104 -0.3231  0.3643
 5582ntf    cn127016   2.009   4.120   4.364  0.3888  0.2007  0.3159
 5582ntf    sn227017   2.132   4.029   4.462  0.0286 -0.3157  0.2921
 5582ntf    nn327018   2.213   3.968   4.342  0.2358  0.1759  0.1800
 5582ntf    sn227019   2.210   3.817   4.298 -0.3197  0.2120  0.0825
 5582ntf    cn127020   2.195   3.840   4.118 -0.2116  0.0622  0.0537
 5582ntf    fn427021   1.909   4.042   4.326  0.1971  0.3565  0.4993
 5582ntf    fn427022   1.966   4.229   4.425 -0.5324  0.0781 -0.0923
 5582ntf    fn427023   2.071   4.156   4.253 -0.1593 -0.0881 -0.0871
 5582ntf    on527024   2.218   4.131   4.517 -0.4223 -0.0181  0.4536
 5582ntf    on527025   2.054   3.948   4.553 -0.4900  0.1455  0.2583
 5582ntf    on527026   2.099   3.732   4.329 -0.3040  0.1009 -0.1664
 5582ntf    on527027   2.340   3.758   4.319 -0.3962  0.0407  0.0734
 5582ntf    fn427028   2.290   3.906   4.054  0.0516 -0.3739 -0.0046
 5582ntf    fn427029   2.186   3.725   4.054  0.4389  0.0674 -0.0555
 5582ntf    fn427030   2.083   3.904   4.088 -0.0770  0.3037  0.0615
 5583ntf    cn127031   5.086   3.416   0.998 -0.0298 -0.4388 -0.0210
 5583ntf    sn227032   5.162   3.519   0.869 -0.0175 -0.1326  0.2294
 5583ntf    nn327033   5.028   3.575   0.809  0.4731  0.2367 -0.5480
 5583ntf    sn227034   5.001   3.723   0.766  0.0447  0.4087  0.3051
 5583ntf    cn127035   4.866   3.690   0.648  0.2001  0.3445  0.1456
 5583ntf    fn427036   5.056   3.495   1.099  0.0720 -0.0365 -0.3011
 5583ntf    fn427037   4.971   3.356   0.971 -0.0251 -0.2134 -0.5652
 5583ntf    fn427038   5.165   3.321   1.045  0.1425 -0.4669 -0.3651
 5583ntf    on527039   5.240   3.616   0.942 -0.3346  0.2321  0.0863
 5583ntf    on527040   5.226   3.428   0.778  0.1922  0.4203 -0.1822
 5583ntf    on527041   5.104   3.776   0.681 -0.0118  0.4544  0.2650
 5583ntf    on527042   4.935   3.802   0.868 -0.1532 -0.0406  0.5305
 5583ntf    fn427043   4.886   3.576   0.586  0.2840  0.2926  0.2670
 5583ntf    fn427044   4.746   3.684   0.703  0.3346  0.1967  0.4279
 5583ntf    fn427045   4.848   3.786   0.559 -0.1660  0.2746  0.1441
 5584ntf    cn127046   2.447   6.763   5.965 -0.1284 -0.2271 -0.0422
 5584ntf    sn227047   2.566   6.729   6.099 -0.2041 -0.0106  0.0795
 5584ntf    nn327048   2.470   6.704   6.221  0.0756  0.2409  0.3518
 5584ntf    sn227049   2.462   6.576   6.312 -0.2476  0.1729  0.2275
 5584ntf    cn127050   2.314   6.499   6.239  0.0612 -0.1603 -0.0488
 5584ntf    fn427051   2.374   6.657   5.934 -0.0740 -0.2525 -0.0850
 5584ntf    fn427052   2.366   6.861   5.999 -0.2938 -0.5228  0.4361
 5584ntf    fn427053   2.508   6.797   5.853 -0.4679  0.3922 -0.0364
 5584ntf    on527054   2.646   6.623   6.044 -0.2363 -0.0968  0.1963
 5584ntf    on527055   2.632   6.856   6.115  0.4849 -0.2617 -0.7459
 5584ntf    on527056   2.421   6.605   6.447 -0.1754  0.1138  0.2623
 5584ntf    on527057   2.565   6.477   6.294  0.1414  0.5457  0.4104
 5584ntf    fn427058   2.275   6.395   6.311  0.0818  0.0055  0.2036
 5584ntf    fn427059   2.219   6.591   6.244  0.2388  0.0396 -0.3098
 5584ntf    fn427060   2.337   6.465   6.113  0.2060 -0.0602 -0.0496
 5585ntf    cn127061   4.153   0.100   1.113 -0.0648 -0.3858  0.0035
 5585ntf    sn227062   4.044   0.023   1.236  0.0631  0.2773  0.5372
 5585ntf    nn327063   4.013  -0.108   1.155 -0.0481  0.9099 -0.4619
 5585ntf    sn227064   3.877  -0.161   1.097  0.1193  0.0082 -0.0552
 5585ntf    cn127065   3.898  -0.340   1.116  0.1081 -0.0155 -0.2656
 5585ntf    fn427066   4.224   0.199   1.165 -0.5042 -0.3326  0.5081
 5585ntf    fn427067   4.239   0.013   1.064  0.1273  0.0058 -0.3712
 5585ntf    fn427068   4.090   0.140   1.003 -0.2558  0.0926  0.2848
 5585ntf    on527069   4.137   0.003   1.345  0.0110 -0.2739  0.4818
 5585ntf    on527070   3.935   0.114   1.259 -0.5711 -0.2044 -0.5103
 5585ntf    on527071   3.859  -0.134   0.957  0.0326  0.1792 -0.0121
 5585ntf    on527072   3.766  -0.135   1.186 -0.0441  0.2921 -0.3385
 5585ntf    fn427073   3.884  -0.383   1.241  0.0792 -0.1978 -0.3312
 5585ntf    fn427074   3.815  -0.412   1.042  0.5684 -0.3173 -0.4909
 5585ntf    fn427075   4.024  -0.373   1.091  0.2661  0.0849  0.3726
 5586ntf    cn127076   0.328   2.006   3.078 -0.2783  0.3363  0.0507
 5586ntf    sn227077   0.396   2.082   3.229  0.0355 -0.1375  0.1486
 5586ntf    nn327078   0.479   2.199   3.167 -0.0647 -0.1610 -0.0299
 5586ntf    sn227079   0.624   2.245   3.207 -0.1430 -0.0565  0.1375
 5586ntf    cn127080   0.598   2.425   3.210  0.2458  0.0102 -0.2937
 5586ntf    fn427081   0.399   1.922   3.006 -0.6492  0.1076 -0.0496
 5586ntf    fn427082   0.212   1.947   3.102 -0.0557  0.0633  0.4616
 5586ntf    fn427083   0.308   2.100   2.988  0.5078 -0.2102 -0.7080
 5586ntf    on527084   0.282   2.137   3.297 -0.0356  0.6624 -0.6045
 5586ntf    on527085   0.466   1.970   3.287  0.7816  0.3804  0.2559
 5586ntf    on527086   0.719   2.233   3.098 -0.0204  0.1513  0.2205
 5586ntf    on527087   0.672   2.211   3.339  0.2361  0.3564  0.1077
 5586ntf    fn427088   0.702   2.493   3.253 -0.1048  0.1288  0.3788
 5586ntf    fn427089   0.564   2.484   3.097  0.0838  0.5498  0.0372
 5586ntf    fn427090   0.502   2.473   3.287  0.6725  0.3149  0.0542
 5587ntf    cn127091   3.907   3.198   7.501 -0.0929  0.2413  0.3402
 5587ntf    sn227092   3.915   3.322   7.369 -0.2464  0.0948  0.1924
 5587ntf    nn327093   4.032   3.412   7.423 -0.2124  0.3654 -0.3228
 5587ntf    sn227094   4.045   3.568   7.408  0.1363  0.3849  0.1299
 5587ntf    cn127095   3.961   3.624   7.559  0.0188 -0.2589  0.3054
 5587ntf    fn427096   3.804   3.116   7.497 -0.0422  0.1765  0.3568
 5587ntf    fn427097   4.014   3.119   7.505 -0.3009 -0.0590  0.0330
 5587ntf    fn427098   3.907   3.265   7.615  0.1157  0.3228  0.2928
 5587ntf    on527099   3.955   3.235   7.261 -0.8797  0.1600 -0.0936
 5587ntf    on527100   3.782   3.376   7.373  0.1649  1.1400  0.2127
 5587ntf    on527101   3.967   3.626   7.301  0.1914  0.3772  0.0855
 5587ntf    on527102   4.182   3.613   7.407  0.1493  0.3482 -0.3527
 5587ntf    fn427103   3.996   3.558   7.669  0.0013 -0.8295 -0.0268
 5587ntf    fn427104   3.995   3.751   7.574 -0.5276 -0.1162  0.3592
 5587ntf    fn427105   3.829   3.615   7.555  0.0310 -0.1538 -0.5062
 5588ntf    cn127106   6.495   4.626   3.236  0.0176  0.3184 -0.0449
 5588ntf    sn227107   6.595   4.775   3.204  0.2461  0.1623 -0.0599
 5588ntf    nn327108   6.706   4.771   3.315  0.0102 -0.1720  0.1667
 5588ntf    sn227109   6.862   4.754   3.309  0.0108 -0.0781 -0.1153
 5588ntf    cn127110   6.907   4.852   3.456  0.3491 -0.0436 -0.2405
 5588ntf    fn427111   6.429   4.630   3.351 -0.2030 -0.0941 -0.1552
 5588ntf    fn427112   6.403   4.606   3.143  0.5027 -0.1857 -0.4194
 5588ntf    fn427113   6.562   4.512   3.240  0.8152  0.7924  0.5891
 5588ntf    on527114   6.639   4.755   3.068 -0.2070 -0.2791 -0.1474
 5588ntf    on527115   6.492   4.874   3.218 -0.1688 -0.2968  0.1852
 5588ntf    on527116   6.920   4.831   3.202  0.1565 -0.2813 -0.1818
 5588ntf    on527117   6.919   4.624   3.335  0.5187  0.1874  0.1241
 5588ntf    fn427118   7.034   4.878   3.478  0.3340 -0.1393 -0.0377
 5588ntf    fn427119   6.852   4.972   3.450 -0.5319 -0.4278 -0.1190
 5588ntf    fn427120   6.849   4.804   3.565 -0.0230 -0.0605 -0.4428
 5589ntf    cn127121   2.536   6.217   4.553 -0.0054  0.2092  0.2242
 5589ntf    sn227122   2.546   6.398   4.542  0.0861  0.1995  0.1392
 5589ntf    nn327123   2.568   6.405   4.387 -0.5581 -0.1197  0.0293
 5589ntf    sn227124   2.520   6.514   4.285 -0.0054  0.0661 -0.0385
 5589ntf    cn127125   2.373   6.435   4.213  0.1843 -0.0430 -0.3055
 5589ntf    fn427126   2.524   6.170   4.676  0.2048 -0.4828 -0.0103
 5589ntf    fn427127   2.432   6.175   4.481  0.3443 -0.2764 -0.0054
 5589ntf    fn427128   2.641   6.161   4.494  0.0298  0.6816 -0.1633
 5589ntf    on527129   2.416   6.432   4.595 -0.1374  0.0580 -0.3146
 5589ntf    on527130   2.663   6.436   4.618  0.2300  0.4421 -0.1991
 5589ntf    on527131   2.609   6.528   4.172 -0.2507  0.2877 -0.2064
 5589ntf    on527132   2.469   6.633   4.349 -0.1471  0.4620 -0.8682
 5589ntf    fn427133   2.395   6.332   4.133 -0.3591 -0.5684  0.2093
 5589ntf    fn427134   2.299   6.383   4.310  0.0609 -0.2196 -0.4918
 5589ntf    fn427135   2.298   6.513   4.137  0.1028 -0.1191 -0.3022
 5590ntf    cn127136   0.143   3.701   2.700  0.3804  0.0840  0.1386
 5590ntf    sn227137   0.151   3.588   2.842 -0.1457  0.0272  0.1268
 5590ntf    nn327138   0.307   3.575   2.858 -0.1062 -0.0987 -0.3334
 5590ntf    sn227139   0.395   3.450   2.826 -0.1338 -0.1472 -0.2214
 5590ntf    cn127140   0.412   3.387   2.996 -0.2641  0.0975 -0.1179
 5590ntf    fn427141   0.183   3.824   2.726  0.0195  0.1865  0.2152
 5590ntf    fn427142   0.218   3.657   2.601 -0.1693 -0.0107 -0.2383
 5590ntf    fn427143   0.020   3.707   2.651  0.4557  0.0396 -0.0561
 5590ntf    on527144   0.095   3.672   2.944  0.1913  0.0370  0.3062
 5590ntf    on527145   0.071   3.477   2.796 -0.4661  0.3127 -0.0051
 5590ntf    on527146   0.529   3.482   2.784 -0.3631 -0.0053 -0.8535
 5590ntf    on527147   0.336   3.336   2.759  0.3599 -0.5933  0.0911
 5590ntf    fn427148   0.445   3.486   3.077 -0.9396  0.1992  0.0383
 5590ntf    fn427149   0.294   3.342   3.033 -0.3299  0.3163 -0.0616
 5590ntf    fn427150   0.499   3.288   3.010 -0.8102 -0.3821 -0.1093
 5591ntf    cn127151   4.986   7.100   5.636 -0.2200  0.1819  0.3372
 5591ntf    sn227152   4.904   6.938   5.635 -0.2519  0.2006  0.0486
 5591ntf    nn327153   5.014   6.860   5.553  0.2788  0.6542  0.3250
 5591ntf    sn227154   5.144   6.789   5.606  0.1801  0.3377  0.1435
 5591ntf    cn127155   5.088   6.617   5.594  0.1061  0.4008 -0.4537
 5591ntf    fn427156   4.968   7.173   5.527 -0.4969 -0.6600 -0.1851
 5591ntf    fn427157   4.936   7.175   5.734  0.3312  0.2045  0.6043
 5591ntf    fn427158   5.117   7.098   5.655 -0.1830 -0.0448  0.0642
 5591ntf    on527159   4.892   6.907   5.775  0.4745  0.1030  0.0963
 5591ntf    on527160   4.783   6.970   5.564 -0.1575 -0.0968 -0.2525
 5591ntf    on527161   5.180   6.808   5.744  0.2621 -0.2078  0.1991
 5591ntf    on527162   5.255   6.788   5.515  0.0026  0.2417 -0.0735
 5591ntf    fn427163   5.092   6.562   5.473  0.1821  0.6078 -0.5448
 5591ntf    fn427164   5.153   6.531   5.671  0.2391  0.0394 -0.9658
 5591ntf    fn427165   4.964   6.617   5.640  0.1440  0.1909 -0.3514
 5592ntf    cn127166   5.775   4.900   1.629  0.2798 -0.3223 -0.1057
 5592ntf    sn227167   5.824   5.064   1.689 -0.1836 -0.4188  0.5401
 5592ntf    nn327168   5.860   5.133   1.553  0.3344 -1.0483  0.3575
 5592ntf    sn227169   5.999   5.169   1.489  0.0115 -0.1512  0.1549
 5592ntf    cn127170   5.949   5.271   1.347 -0.1282 -0.5148 -0.0567
 5592ntf    fn427171   5.674   4.896   1.543  0.0459  0.0450  0.1500
 5592ntf    fn427172   5.874   4.854   1.555  0.0621 -0.2005 -0.4790
 5592ntf    fn427173   5.747   4.806   1.718 -0.1494 -0.0981  0.0010
 5592ntf    on527174   5.707   5.118   1.754  0.0590  0.6829  0.0908
 5592ntf    on527175   5.935   5.033   1.776  0.1449  0.5943  0.4941
 5592ntf    on527176   6.066   5.055   1.432  0.1427 -0.1631  0.3325
 5592ntf    on527177   6.088   5.254   1.565 -0.3012 -0.0381  0.3948
 5592ntf    fn427178   6.053   5.330   1.291 -0.1898 -0.4686 -0.1228
 5592ntf    fn427179   5.899   5.187   1.257  0.1928 -0.7192 -0.0470
 5592ntf    fn427180   5.851   5.354   1.378 -0.1716 -0.6862  0.2682
 5593ntf    cn127181   1.650   3.236   1.442  0.0660  0.2687  0.1959
 5593ntf    sn227182   1.694   3.250   1.266  0.0998  0.2087  0.1995
 5593ntf    nn327183   1.598   3.363   1.214 -0.3951 -0.1672  0.2932
 5593ntf    sn227184   1.619   3.443   1.081 -0.2237 -0.4734  0.1348
 5593ntf    cn127185   1.507   3.583   1.113  0.1227 -0.0385 -0.5300
 5593ntf    fn427186   1.529   3.185   1.457  0.2576 -0.1941  0.1636
 5593ntf    fn427187   1.734   3.162   1.512 -0.1626 -0.3058 -0.1309
 5593ntf    fn427188   1.643   3.352   1.506 -0.2513  0.0509  0.5585
 5593ntf    on527189   1.833   3.288   1.275  0.0885  0.2006  0.4123
 5593ntf    on527190   1.673   3.121   1.207  0.0046  0.1893  0.2738
 5593ntf    on527191   1.561   3.375   0.968  0.5182 -0.5705 -0.1943
 5593ntf    on527192   1.743   3.512   1.056 -0.5535 -0.0992 -0.5019
 5593ntf    fn427193   1.531   3.646   1.226  0.4093 -0.2426 -0.4760
 5593ntf    fn427194   1.528   3.667   1.013  0.1457  0.1078 -0.4012
 5593ntf    fn427195   1.381   3.541   1.111  0.0582  0.1216  0.0668
 5594ntf    cn127196   3.554   7.374   6.451  0.1367  0.3644 -0.2740
 5594ntf    sn227197   3.705   7.456   6.390  0.3105  0.0960 -0.2068
 5594ntf    nn327198   3.691   7.435   6.235 -1.0864 -0.1888 -0.0629
 5594ntf    sn227199   3.750   7.316   6.151 -0.5752  0.0765 -0.0843
 5594ntf    cn127200   3.627   7.308   6.016  0.1627 -0.0507 -0.7575
 5594ntf    fn427201   3.543   7.345   6.580 -0.1439  0.3156 -0.3078
 5594ntf    fn427202   3.446   7.441   6.415 -0.3773 -0.0015  0.5687
 5594ntf    fn427203   3.538   7.258   6.388  0.1925  0.0796  0.2326
 5594ntf    on527204   3.680   7.594   6.423  0.8827  0.1579 -0.0321
 5594ntf    on527205   3.816   7.388   6.451  0.1400 -0.0321 -0.0343
 5594ntf    on527206   3.743   7.183   6.205  0.2506 -0.0343 -0.2338
 5594ntf    on527207   3.867   7.354   6.075 -0.7912  0.1816 -0.3698
 5594ntf    fn427208   3.665   7.223   5.922  0.1536 -0.0792 -0.7360
 5594ntf    fn427209   3.514   7.258   6.063  0.2460  0.4188 -0.0441
 5594ntf    fn427210   3.599   7.423   5.958 -0.3308 -0.0911 -0.5977
 5595ntf    cn127211   2.046   1.572   7.419  0.2138 -0.0786 -0.0856
 5595ntf    sn227212   1.994   1.671   7.562 -0.1740 -0.0544 -0.2418
 5595ntf    nn327213   1.884   1.749   7.482 -0.4131 -0.3030 -0.1588
 5595ntf    sn227214   1.913   1.871   7.387 -0.0040 -0.2717  0.0055
 5595ntf    cn127215   1.897   2.009   7.504  0.0962  0.1010 -0.4178
 5595ntf    fn427216   1.946   1.493   7.383  0.8960 -0.6975 -0.6537
 5595ntf    fn427217   2.081   1.638   7.310 -0.1775  0.1539 -0.0721
 5595ntf    fn427218   2.138   1.479   7.439 -0.2633 -0.6503 -0.4901
 5595ntf    on527219   1.936   1.573   7.651  0.2022  0.0972  0.1764
 5595ntf    on527220   2.111   1.743   7.606  0.2395 -0.7215 -0.2375
 5595ntf    on527221   1.801   1.896   7.300 -0.0517 -0.0141  0.1411
 5595ntf    on527222   2.048   1.886   7.338 -0.0883  0.2365 -0.0775
 5595ntf    fn427223   1.922   2.128   7.450 -0.0132  0.0960 -0.4801
 5595ntf    fn427224   1.779   2.016   7.564  0.2373  0.4392 -0.1700
 5595ntf    fn427225   1.973   2.000   7.612 -0.8911  0.5036  0.3233
 5596ntf    cn127226   4.552   5.459   0.219 -0.1091  0.1287 -0.1121
 5596ntf    sn227227   4.422   5.538   0.120 -0.1020  0.0745 -0.1644
 5596ntf    nn327228   4.319   5.420   0.131 -0.0484  0.0496  0.0643
 5596ntf    sn227229   4.163   5.419   0.145 -0.0490 -0.2198  0.0610
 5596ntf    cn127230   4.162   5.347   0.311 -0.1688 -0.3399  0.0085
 5596ntf    fn427231   4.669   5.520   0.206  0.2895 -0.6345 -0.1751
 5596ntf    fn427232   4.529   5.458   0.349 -0.5235  0.0472 -0.1858
 5596ntf    fn427233   4.577   5.340   0.167 -0.0010 -0.1536  0.5753
 5596ntf    on527234   4.395   5.660   0.192  0.2479 -0.0714  0.2163
 5596ntf    on527235   4.472   5.552  -0.015  0.2934 -0.3964 -0.0703
 5596ntf    on527236   4.088   5.322   0.068 -0.5383 -0.3049  0.6369
 5596ntf    on527237   4.100   5.548   0.161  0.2275 -0.0021 -0.5761
 5596ntf    fn427238   4.039   5.335   0.357 -0.2307  0.4661  0.0607
 5596ntf    fn427239   4.234   5.236   0.322 -0.1203 -0.3229 -0.1401
 5596ntf    fn427240   4.219   5.431   0.396  0.2979 -0.5923 -0.0459
 5597ntf    cn127241   2.363   0.189   2.862 -0.2786 -0.0877 -0.2124
 5597ntf    sn227242   2.436   0.028   2.821  0.1572  0.0674 -0.0493
 5597ntf    nn327243   2.304  -0.054   2.842  0.2357 -0.1154 -0.2527
 5597ntf    sn227244   2.277  -0.202   2.885  0.2839 -0.0503  0.0046
 5597ntf    cn127245   2.233  -0.170   3.059 -0.0743 -0.0401 -0.0860
 5597ntf    fn427246   2.315   0.189   2.985  0.7926  0.2343  0.2185
 5597ntf    fn427247   2.442   0.294   2.846  0.1622 -0.4371 -0.3571
 5597ntf    fn427248   2.258   0.215   2.785 -0.1336 -0.1142 -0.4201
 5597ntf    on527249   2.468   0.037   2.680 -0.0212 -0.2217 -0.1087
 5597ntf    on527250   2.544  -0.004   2.912  0.1115 -0.1848 -0.0821
 5597ntf    on527251   2.397  -0.282   2.883  0.1560 -0.2363 -0.1764
 5597ntf    on527252   2.157  -0.255   2.825 -0.1344  0.2760  0.5439
 5597ntf    fn427253   2.324  -0.107   3.131 -0.3436  0.0084  0.2140
 5597ntf    fn427254   2.126  -0.094   3.050  0.0744  0.1559 -0.2092
 5597ntf    fn427255   2.202  -0.281   3.125  0.3207 -0.1842 -0.1360
 5598ntf    cn127256   6.308   0.301   2.968  0.0771  0.1310  0.1488
 5598ntf    sn227257   6.404   0.302   2.814  0.0189 -0.3345  0.1087
 5598ntf    nn327258   6.449   0.452   2.806 -0.1260 -0.3101 -0.2862
 5598ntf    sn227259   6.384   0.556   2.708 -0.1380  0.0751  0.1299
 5598ntf    cn127260   6.420   0.702   2.810  0.1546 -0.0074  0.1470
 5598ntf    fn427261   6.215   0.395   2.974  0.0551  0.1109  0.1250
 5598ntf    fn427262   6.238   0.189   2.977 -0.0033  0.2239  0.7158
 5598ntf    fn427263   6.383   0.312   3.076 -0.3130 -0.1518  0.4485
 5598ntf    on527264   6.515   0.214   2.844  0.0490 -0.3567 -0.0635
 5598ntf    on527265   6.306   0.264   2.715 -0.1039  0.2915 -0.0126
 5598ntf    on527266   6.240   0.549   2.703 -0.1673  0.2506  0.6646
 5598ntf    on527267   6.456   0.576   2.585 -0.0145  0.2225  0.2244
 5598ntf    fn427268   6.551   0.716   2.820  0.0939  0.3893  0.4478
 5598ntf    fn427269   6.352   0.807   2.766 -0.5320 -0.2969  0.5010
 5598ntf    fn427270   6.375   0.695   2.934  0.6002 -0.0805  0.3047
 5599ntf    cn127271   1.677   7.428   1.572  0.0572  0.1773 -0.0621
 5599ntf    sn227272   1.754   7.271   1.624 -0.2033  0.0547 -0.0480
 5599ntf    nn327273   1.673   7.172   1.533 -0.1313 -0.1755  0.1371
 5599ntf    sn227274   1.580   7.051   1.568 -0.0863 -0.1881  0.2135
 5599ntf    cn127275   1.602   6.943   1.423  0.2480 -0.0677  0.1732
 5599ntf    fn427276   1.738   7.525   1.638  0.0025 -0.0551  0.3363
 5599ntf    fn427277   1.701   7.456   1.445 -0.0272  0.2403 -0.0641
 5599ntf    fn427278   1.549   7.423   1.606  0.0153 -0.3335 -0.2880
 5599ntf    on527279   1.893   7.287   1.590 -0.3064  0.5284 -0.2519
 5599ntf    on527280   1.719   7.258   1.764 -0.1151 -0.1241 -0.0430
 5599ntf    on527281   1.439   7.079   1.570  0.0031  0.2978 -0.1353
 5599ntf    on527282   1.632   6.968   1.674  0.3751 -0.5098 -0.2559
 5599ntf    fn427283   1.722   6.888   1.439  0.3594  0.0311 -0.3190
 5599ntf    fn427284   1.521   6.839   1.413  0.1903 -0.0016 -0.0386
 5599ntf    fn427285   1.605   7.005   1.307 -0.0167  0.0732  0.2399
 5600ntf    cn127286   2.616   7.287   1.475 -0.3448 -0.0984 -0.1301
 5600ntf    sn227287   2.517   7.147   1.535 -0.0007 -0.2585  0.0652
 5600ntf    nn327288   2.560   7.036   1.433  0.5443  0.2388 -0.2539
 5600ntf    sn227289   2.638   6.900   1.440 -0.0454 -0.0994 -0.1528
 5600ntf    cn127290   2.505   6.781   1.475 -0.4670  0.4627  0.1706
 5600ntf    fn427291   2.589   7.405   1.529 -0.4874 -0.2724  0.1815
 5600ntf    fn427292   2.745   7.273   1.498 -0.4695 -0.0434  0.6094
 5600ntf    fn427293   2.602   7.305   1.344  0.5912 -0.1211 -0.2349
 5600ntf    on527294   2.556   7.118   1.670  0.2095 -0.2316  0.0104
 5600ntf    on527295   2.377   7.177   1.516  0.1834  0.5362 -0.0811
 5600ntf    on527296   2.732   6.878   1.547 -0.1211 -0.1530 -0.0974
 5600ntf    on527297   2.685   6.867   1.308  0.2650  0.0630 -0.0839
 5600ntf    fn427298   2.485   6.749   1.601  0.1188 -0.3725  0.0583
 5600ntf    fn427299   2.389   6.822   1.425 -0.3246  0.5390 -0.1037
 5600ntf    fn427300   2.528   6.665   1.415  0.2045  0.7421 -0.1228
 5601ntf    cn127301   5.493   6.301   7.046  0.2286 -0.0925  0.1763
 5601ntf    sn227302   5.500   6.208   7.202  0.2640 -0.2044  0.1092
 5601ntf    nn327303   5.580   6.305   7.296  0.2067 -0.2172  0.1713
 5601ntf    sn227304   5.737   6.316   7.300  0.2020 -0.2156  0.3859
 5601ntf    cn127305   5.760   6.491   7.342  0.2925 -0.1403  0.0262
 5601ntf    fn427306   5.594   6.273   6.966 -0.2959 -0.9120 -0.2160
 5601ntf    fn427307   5.383   6.262   6.984  0.1965 -0.3306  0.3824
 5601ntf    fn427308   5.467   6.430   7.060  0.4215  0.0059 -0.3513
 5601ntf    on527309   5.361   6.207   7.241  0.1051  0.1275 -0.4330
 5601ntf    on527310   5.544   6.075   7.171  0.1300 -0.1527 -0.3125
 5601ntf    on527311   5.809   6.307   7.175  0.3389  0.4146  0.4170
 5601ntf    on527312   5.788   6.246   7.416  0.1113  0.0258  0.5716
 5601ntf    fn427313   5.711   6.528   7.459  0.7364  0.6462 -0.0258
 5601ntf    fn427314   5.885   6.534   7.335  0.1605  0.2714  0.1315
 5601ntf    fn427315   5.704   6.578   7.259  0.5864 -0.1206 -0.1529
 5602ntf    cn127316   3.200   3.133   7.460  0.0029 -0.3312  0.0052
 5602ntf    sn227317   3.105   3.089   7.311 -0.2102  0.2226 -0.0232
 5602ntf    nn327318   3.132   3.219   7.227 -0.4532  0.7355  0.6743
 5602ntf    sn227319   3.064   3.267   7.094  0.5276  0.2036 -0.0330
 5602ntf    cn127320   3.193   3.237   6.969  0.1000 -0.6743 -0.2787
 5602ntf    fn427321   3.177   3.047   7.559  0.1234 -0.3707 -0.0015
 5602ntf    fn427322   3.330   3.142   7.443 -0.0260  0.4943  0.1914
 5602ntf    fn427323   3.159   3.249   7.510  0.0651 -0.2057 -0.2348
 5602ntf    on527324   3.170   2.974   7.254 -0.0304  0.3269 -0.0293
 5602ntf    on527325   2.974   3.074   7.371 -0.3142 -0.2849 -0.3683
 5602ntf    on527326   3.054   3.410   7.087  0.7093  0.1936 -0.5206
 5602ntf    on527327   2.957   3.181   7.049  0.5187  0.2686 -0.1354
 5602ntf    fn427328   3.224   3.109   6.972  0.3786 -0.6007  0.0478
 5602ntf    fn427329   3.156   3.277   6.848  0.7106  0.0942 -0.2237
 5602ntf    fn427330   3.308   3.299   6.994 -0.3712  0.1416 -0.0740
 5603ntf    cn127331   3.763   2.477   2.728  0.2266  0.0544  0.3260
 5603ntf    sn227332   3.583   2.456   2.708  0.2774  0.2001 -0.2941
 5603ntf    nn327333   3.579   2.432   2.553 -0.1589 -0.7427 -0.1474
 5603ntf    sn227334   3.559   2.544   2.445 -0.1167 -0.2460  0.3550
 5603ntf    cn127335   3.379   2.528   2.427 -0.1119 -0.3899  0.4405
 5603ntf    fn427336   3.797   2.504   2.853  0.3054 -0.4421  0.4164
 5603ntf    fn427337   3.832   2.365   2.714 -0.4866 -0.3957  0.3225
 5603ntf    fn427338   3.821   2.563   2.647 -0.1614  0.5107  0.5265
 5603ntf    on527339   3.547   2.333   2.775  0.0893  0.2227 -0.3552
 5603ntf    on527340   3.528   2.581   2.754 -0.1897  0.1561 -0.7322
 5603ntf    on527341   3.607   2.505   2.315 -0.0898  0.1129  0.2542
 5603ntf    on527342   3.589   2.681   2.480 -0.2816  0.0495 -0.6335
 5603ntf    fn427343   3.347   2.415   2.366 -0.4333  0.0955 -0.2962
 5603ntf    fn427344   3.312   2.522   2.541 -0.0691 -0.5808  0.4562
 5603ntf    fn427345   3.320   2.628   2.364  0.1981 -0.2770  0.3255
 5604ntf    cn127346   3.626   6.154   6.780 -0.4616 -0.5251  0.3033
 5604ntf    sn227347   3.716   5.999   6.749  0.4628  0.0577  0.0421
 5604ntf    nn327348   3.813   6.047   6.636 -0.0453  0.0265 -0.4124
 5604ntf    sn227349   3.964   6.087   6.649 -0.0837  0.1034 -0.2001
 5604ntf    cn127350   4.049   5.934   6.599  0.4170  0.2891  0.0688
 5604ntf    fn427351   3.515   6.138   6.851 -0.3687 -0.1545  0.5353
 5604ntf    fn427352   3.710   6.227   6.851 -0.2927 -0.7803  0.3687
 5604ntf    fn427353   3.599   6.222   6.670 -0.0551  0.2076  0.6475
 5604ntf    on527354   3.778   5.953   6.870  0.7789  0.6361  0.1007
 5604ntf    on527355   3.611   5.914   6.698  0.5885  0.1105 -0.3051
 5604ntf    on527356   4.009   6.113   6.784 -0.0759  0.3559 -0.2524
 5604ntf    on527357   3.995   6.185   6.549 -0.3678  0.0604 -0.3307
 5604ntf    fn427358   4.176   5.912   6.628  0.3689  0.3493  0.3236
 5604ntf    fn427359   3.990   5.829   6.653 -0.2223  0.7361  0.2522
 5604ntf    fn427360   4.042   5.921   6.467 -0.0166  0.0007  0.1194
 5605ntf    cn127361   2.066   4.678   0.466 -0.0318  0.2743  0.2219
 5605ntf    sn227362   2.013   4.824   0.371  0.2025  0.1372 -0.1207
 5605ntf    nn327363   2.126   4.828   0.263 -0.2482 -0.1505 -0.6099
 5605ntf    sn227364   2.219   4.944   0.213 -0.0008 -0.0641  0.0479
 5605ntf    cn127365   2.343   4.967   0.345 -0.1160 -0.1836  0.1770
 5605ntf    fn427366   1.972   4.644   0.553  0.1814 -0.1856  0.2740
 5605ntf    fn427367   2.080   4.575   0.384  0.2804  0.0884  0.5096
 5605ntf    fn427368   2.180   4.698   0.530 -0.2192  0.2282  0.5720
 5605ntf    on527369   1.884   4.782   0.322  0.2373  0.1407 -0.2151
 5605ntf    on527370   2.010   4.937   0.461  1.0397  0.2676 -0.2511
 5605ntf    on527371   2.141   5.066   0.211  0.1970  0.0634  0.0580
 5605ntf    on527372   2.294   4.907   0.096  0.5149  0.6583  0.1433
 5605ntf    fn427373   2.296   5.022   0.455 -0.0288  0.2434  0.0004
 5605ntf    fn427374   2.375   4.845   0.385 -0.0037 -0.2006  0.0389
 5605ntf    fn427375   2.455   5.027   0.309 -0.2184 -0.0983 -0.0011
 5606ntf    cn127376   6.164   2.701   3.982  0.3745 -0.2005  0.3320
 5606ntf    sn227377   6.307   2.659   3.878  0.3037 -0.1013  0.1955
 5606ntf    nn327378   6.305   2.502   3.874 -0.6592 -0.0900 -0.0824
 5606ntf    sn227379   6.350   2.399   3.984 -0.0502 -0.1102 -0.3472
 5606ntf    cn127380   6.192   2.308   3.989 -0.3232  0.3804 -0.0787
 5606ntf    fn427381   6.157   2.639   4.099  0.1131 -0.9940 -0.0944
 5606ntf    fn427382   6.156   2.831   4.006 -0.4233 -0.2369  0.2946
 5606ntf    fn427383   6.048   2.692   3.919  0.5445  0.0660 -0.0226
 5606ntf    on527384   6.270   2.726   3.756  0.4344 -0.2173  0.0925
 5606ntf    on527385   6.417   2.714   3.954  0.2699 -0.3384  0.4190
 5606ntf    on527386   6.369   2.445   4.119 -0.4721  0.2029 -0.3929
 5606ntf    on527387   6.450   2.306   3.938  0.2011 -0.1470  0.2729
 5606ntf    fn427388   6.159   2.234   3.885 -0.3022  0.3982 -0.0981
 5606ntf    fn427389   6.184   2.228   4.094  0.0026 -0.1231 -0.4374
 5606ntf    fn427390   6.092   2.394   4.001 -0.4446  0.2147  0.1071
 5607ntf    cn127391   0.864   6.914   3.201 -0.5402 -0.6166 -0.2818
 5607ntf    sn227392   0.939   6.749   3.212 -0.0149 -0.3678 -0.0439
 5607ntf    nn327393   1.056   6.766   3.109  0.3079 -0.6715  0.2730
 5607ntf    sn227394   1.071   6.719   2.960 -0.2957 -0.0994  0.0272
 5607ntf    cn127395   1.094   6.542   2.995  0.0434 -0.0738 -0.0734
 5607ntf    fn427396   0.780   6.940   3.300 -0.0542 -0.5935  0.1344
 5607ntf    fn427397   0.958   7.007   3.201 -0.5880 -0.5563  0.6835
 5607ntf    fn427398   0.808   6.936   3.084 -0.2281 -0.2448 -0.3640
 5607ntf    on527399   0.978   6.739   3.350  0.2029  0.4688 -0.0436
 5607ntf    on527400   0.835   6.657   3.170  0.0524 -0.5293  0.1422
 5607ntf    on527401   1.184   6.772   2.889 -0.2955 -0.5886 -0.3442
 5607ntf    on527402   0.945   6.730   2.891 -0.0397  0.3189 -0.3738
 5607ntf    fn427403   1.080   6.468   2.886  0.2071 -0.1637 -0.0342
 5607ntf    fn427404   1.213   6.510   3.044 -0.1922 -0.6689  0.1174
 5607ntf    fn427405   1.000   6.487   3.070 -0.2033  0.3183 -0.0937
 5608ntf    cn127406   1.581   3.854   7.403 -0.0094 -0.3015  0.2143
 5608ntf    sn227407   1.435   3.940   7.469  0.0354  0.0361 -0.1268
 5608ntf    nn327408   1.500   4.054   7.555  0.0901 -0.0407 -0.0669
 5608ntf    sn227409   1.521   4.063   7.710 -0.5496 -0.1044  0.0258
 5608ntf    cn127410   1.395   4.185   7.757 -0.1764  0.2936 -0.0012
 5608ntf    fn427411   1.663   3.943   7.351 -0.1144 -0.1326  0.3349
 5608ntf    fn427412   1.659   3.803   7.497  0.1823 -0.1976  0.1134
 5608ntf    fn427413   1.561   3.761   7.311  0.4560 -0.1282 -0.0620
 5608ntf    on527414   1.371   3.986   7.348 -0.2761 -0.3383 -0.1069
 5608ntf    on527415   1.361   3.834   7.533 -0.2853  0.2241 -0.1857
 5608ntf    on527416   1.648   4.126   7.738 -0.6444  0.1157 -0.0346
 5608ntf    on527417   1.485   3.949   7.790 -0.0729 -0.0866  0.2692
 5608ntf    fn427418   1.279   4.130   7.789  0.2535 -0.3532  0.4769
 5608ntf    fn427419   1.420   4.258   7.865 -0.0263  0.1149  0.0851
 5608ntf    fn427420   1.369   4.272   7.661 -0.3233  0.2810  0.0255
 5609ntf    cn127421   1.254   0.637   0.889 -0.3422  0.2852  0.3297
 5609ntf    sn227422   1.157   0.539   0.770 -0.1089 -0.0398  0.4040
 5609ntf    nn327423   1.099   0.422   0.857 -0.2488  0.1367  0.5494
 5609ntf    sn227424   0.954   0.406   0.917 -0.4666 -0.0847 -0.0281
 5609ntf    cn127425   0.872   0.337   0.770  0.0587  0.0737 -0.4004
 5609ntf    fn427426   1.344   0.558   0.946 -0.0898  0.5418  0.2827
 5609ntf    fn427427   1.310   0.741   0.831  0.0050 -0.3935 -0.5765
 5609ntf    fn427428   1.183   0.686   0.989 -0.2989  0.2110  0.3970
 5609ntf    on527429   1.066   0.629   0.704  1.0280  0.2505 -0.8101
 5609ntf    on527430   1.273   0.493   0.698 -0.2357  0.1865  0.0527
 5609ntf    on527431   0.883   0.530   0.939 -0.1356  0.0249  0.4376
 5609ntf    on527432   0.945   0.301   1.015 -0.5486  0.0495  0.1070
 5609ntf    fn427433   0.771   0.257   0.799 -0.1894  0.4564 -0.2065
 5609ntf    fn427434   0.815   0.438   0.706 -0.1628  0.2673  0.0928
 5609ntf    fn427435   0.954   0.281   0.683  0.1507  0.5588 -0.6289
 5610ntf    cn127436   2.826   4.113   6.730  0.5243  0.0692  0.1245
 5610ntf    sn227437   2.816   4.275   6.648  0.3925  0.0569  0.1162
 5610ntf    nn327438   2.702   4.327   6.742  0.0746 -0.0227 -0.2230
 5610ntf    sn227439   2.719   4.438   6.852 -0.5140 -0.4266  0.2871
 5610ntf    cn127440   2.678   4.585   6.753 -0.0429 -0.4618  0.0376
 5610ntf    fn427441   2.708   4.055   6.746  0.0978  0.6920 -0.6823
 5610ntf    fn427442   2.906   4.029   6.667  0.0252 -0.4613  0.1957
 5610ntf    fn427443   2.876   4.127   6.852 -0.0311 -0.0361  0.3664
 5610ntf    on527444   2.954   4.318   6.653  0.4561 -0.1829  0.4575
 5610ntf    on527445   2.759   4.250   6.518  0.6736  0.3446 -0.0633
 5610ntf    on527446   2.856   4.456   6.894 -0.2825 -0.2611 -0.5214
 5610ntf    on527447   2.616   4.438   6.953 -0.8349 -0.1207 -0.0324
 5610ntf    fn427448   2.548   4.598   6.734  0.0180  0.0287 -0.0733
 5610ntf    fn427449   2.718   4.690   6.823  0.1566 -0.3021 -0.3131
 5610ntf    fn427450   2.744   4.597   6.638 -0.0906  0.1355  0.0689
 5611ntf    cn127451   1.035   0.795   2.853 -0.2506 -0.1912 -0.3647
 5611ntf    sn227452   0.856   0.801   2.881 -0.1317  0.3200  0.3101
 5611ntf    nn327453   0.851   0.704   3.005  0.5496  0.4734  0.4633
 5611ntf    sn227454   0.861   0.548   3.022 -0.3552  0.3405 -0.1102
 5611ntf    cn127455   0.686   0.514   3.053 -0.2262  0.1316  0.4026
 5611ntf    fn427456   1.079   0.673   2.829  0.3484 -0.0911  0.1959
 5611ntf    fn427457   1.073   0.878   2.756  0.8384 -0.0202  0.1891
 5611ntf    fn427458   1.101   0.833   2.961 -0.2735  0.4275 -0.5611
 5611ntf    on527459   0.823   0.939   2.907  0.2797  0.4910 -0.0684
 5611ntf    on527460   0.803   0.744   2.760  0.3007  0.0311  0.2546
 5611ntf    on527461   0.934   0.505   3.138 -0.2075  0.4834 -0.1486
 5611ntf    on527462   0.896   0.479   2.900  0.1264 -0.0874  0.2669
 5611ntf    fn427463   0.666   0.389   3.091 -0.3857  0.0798  0.1578
 5611ntf    fn427464   0.627   0.592   3.141 -0.2802  0.0396  0.4483
 5611ntf    fn427465   0.617   0.525   2.940  0.1894 -0.5025  0.0821
 5612ntf    cn127466   0.948   3.261   6.884 -0.1764  0.1254 -0.1797
 5612ntf    sn227467   0.987   3.297   7.058  0.3485  0.1884 -0.3069
 5612ntf    nn327468   1.032   3.446   7.038  0.9015  0.1293  0.4777
 5612ntf    sn227469   1.032   3.560   7.146  0.1604  0.3472  0.2516
 5612ntf    cn127470   0.859   3.616   7.139  0.1201  0.1421 -0.4731
 5612ntf    fn427471   0.835   3.321   6.854 -0.0574  0.5351  0.1792
 5612ntf    fn427472   1.033   3.310   6.795  0.3776  0.4126  0.4945
 5612ntf    fn427473   0.937   3.137   6.840  0.8016 -0.1501  0.3142
 5612ntf    on527474   0.864   3.272   7.129  0.2465  0.6880 -0.3046
 5612ntf    on527475   1.099   3.211   7.087  0.3670  0.1886 -0.3779
 5612ntf    on527476   1.100   3.681   7.106  0.4344  0.3566  0.7372
 5612ntf    on527477   1.063   3.523   7.282 -0.1021  0.4682  0.3447
 5612ntf    fn427478   0.828   3.671   7.023  0.4059  0.1091 -0.5676
 5612ntf    fn427479   0.773   3.519   7.165  0.2350  0.1431 -0.0855
 5612ntf    fn427480   0.835   3.705   7.234 -0.5245 -0.1795 -0.3354
 5613ntf    cn127481   6.569   7.324   3.452 -0.3124 -0.2284 -0.3674
 5613ntf    sn227482   6.464   7.420   3.565  0.6770  0.0085  0.3649
 5613ntf    nn327483   6.435   7.308   3.671 -0.3360 -0.1550 -0.0753
 5613ntf    sn227484   6.521   7.266   3.795 -0.0799  0.0209 -0.1935
 5613ntf    cn127485   6.432   7.337   3.936 -0.0400 -0.3167  0.0044
 5613ntf    fn427486   6.695   7.325   3.492 -0.6097  0.2914  0.5947
 5613ntf    fn427487   6.532   7.197   3.447  0.0431 -0.3520  0.0346
 5613ntf    fn427488   6.571   7.375   3.330  0.0685 -0.4626 -0.4608
 5613ntf    on527489   6.544   7.531   3.611  0.3490  0.5727 -0.4120
 5613ntf    on527490   6.350   7.445   3.480  0.7390  0.1182  0.3145
 5613ntf    on527491   6.652   7.326   3.787 -0.2933  0.5090 -0.0541
 5613ntf    on527492   6.504   7.125   3.820  0.5147  0.0854  0.6142
 5613ntf    fn427493   6.310   7.287   3.941 -0.2223  0.1369  0.1919
 5613ntf    fn427494   6.488   7.302   4.050  0.4692 -0.0927 -0.1747
 5613ntf    fn427495   6.403   7.466   3.929  0.4540 -0.1799  0.4613
 5614ntf    cn127496   5.740   2.103   5.837 -0.1014  0.1107  0.0235
 5614ntf    sn227497   5.690   2.016   5.685 -0.1031  0.1582 -0.0033
 5614ntf    nn327498   5.535   1.999   5.704 -0.0616 -0.4690 -0.1967
 5614ntf    sn227499   5.462   1.871   5.759  0.0210 -0.5127 -0.1901
 5614ntf    cn127500   5.297   1.944   5.779  0.1784 -0.1761 -0.0885
 5614ntf    fn427501   5.861   2.156   5.832 -0.1968  0.3578  0.3339
 5614ntf    fn427502   5.657   2.204   5.860 -0.3416 -0.1582  0.3475
 5614ntf    fn427503   5.738   2.032   5.948 -0.6482  0.2031  0.0790
 5614ntf    on527504   5.710   2.111   5.578 -0.0645  0.7525  0.5244
 5614ntf    on527505   5.775   1.900   5.678 -0.2244  0.0500  0.2670
 5614ntf    on527506   5.500   1.848   5.896  0.1859 -0.0166 -0.1498
 5614ntf    on527507   5.447   1.765   5.663  0.2243 -0.5325 -0.2019
 5614ntf    fn427508   5.252   1.999   5.667  0.1797  0.1669  0.0792
 5614ntf    fn427509   5.200   1.864   5.820 -0.1381  0.2794  0.0615
 5614ntf    fn427510   5.299   2.049   5.859 -0.7323 -0.2672  0.0638
 5615ntf    cn127511   2.237   0.600   1.871  0.2561 -0.0237 -0.1577
 5615ntf    sn227512   2.199   0.753   1.779 -0.0608  0.0521  0.0981
 5615ntf    nn327513   2.044   0.766   1.799 -0.1296 -0.1576 -0.2791
 5615ntf    sn227514   1.917   0.719   1.720 -0.1310  0.0760 -0.4155
 5615ntf    cn127515   1.795   0.687   1.851  0.0009  0.2017 -0.2600
 5615ntf    fn427516   2.174   0.498   1.815  0.4347 -0.4977  0.4891
 5615ntf    fn427517   2.366   0.572   1.879  0.2578 -0.0256 -0.1855
 5615ntf    fn427518   2.181   0.603   1.990 -0.3562 -0.3329 -0.4327
 5615ntf    on527519   2.273   0.850   1.856  0.3800 -0.1730 -0.0398
 5615ntf    on527520   2.240   0.731   1.643  0.1193  0.3502  0.1046
 5615ntf    on527521   1.915   0.588   1.660  0.5132  0.1073 -0.5068
 5615ntf    on527522   1.853   0.831   1.655  0.0741  0.4299 -0.0125
 5615ntf    fn427523   1.699   0.602   1.818  0.1303 -0.2255  0.4456
 5615ntf    fn427524   1.854   0.642   1.960 -0.3062 -0.2446 -0.2709
 5615ntf    fn427525   1.726   0.795   1.882 -0.1465  0.2512 -0.7514
 5616ntf    cn127526   0.356   2.802   3.487 -0.4950 -0.1380  0.4415
 5616ntf    sn227527   0.233   2.926   3.438 -0.0813  0.1028  0.0088
 5616ntf    nn327528   0.261   2.914   3.284  0.3623  1.0200  0.0084
 5616ntf    sn227529   0.174   2.964   3.163 -0.4910  0.1051  0.2274
 5616ntf    cn127530   0.308   3.009   3.048 -0.1340  0.0040  0.5999
 5616ntf    fn427531   0.467   2.821   3.418 -0.5105 -0.2430  0.3879
 5616ntf    fn427532   0.388   2.801   3.615  0.6277 -0.3398  0.1744
 5616ntf    fn427533   0.307   2.683   3.454  0.1081 -0.1823 -0.3225
 5616ntf    on527534   0.102   2.888   3.483 -0.6196  0.8027 -0.9336
 5616ntf    on527535   0.290   3.051   3.484 -0.3782 -0.0635  0.8345
 5616ntf    on527536   0.109   3.090   3.192  0.1008  0.4058  0.2669
 5616ntf    on527537   0.098   2.852   3.114  0.2516 -0.2315 -0.1737
 5616ntf    fn427538   0.269   3.082   2.944 -0.2648 -0.0206  0.6308
 5616ntf    fn427539   0.396   3.086   3.110 -0.2768  0.7191 -0.0697
 5616ntf    fn427540   0.364   2.900   2.999 -0.0319  0.1873  0.3097
 5617ntf    cn127541   7.477   1.955   7.020  0.1949  0.2064 -0.0848
 5617ntf    sn227542   7.572   2.039   7.150  0.1381 -0.1878  0.2133
 5617ntf    nn327543   7.617   2.164   7.066 -0.3918  0.1484  0.4202
 5617ntf    sn227544   7.572   2.314   7.079 -0.2410  0.2266  0.0506
 5617ntf    cn127545   7.723   2.399   7.024  0.0911 -0.2564  0.2098
 5617ntf    fn427546   7.542   1.896   6.921 -0.3323  0.5861 -0.6664
 5617ntf    fn427547   7.407   1.866   7.088  0.5732 -0.3132 -0.3698
 5617ntf    fn427548   7.388   2.034   6.962  0.1769  0.1993 -0.0669
 5617ntf    on527549   7.474   2.061   7.254 -0.1382  0.7149 -0.2279
 5617ntf    on527550   7.678   1.946   7.177  0.1552 -0.0764  0.5406
 5617ntf    on527551   7.557   2.365   7.212 -0.2843  0.1490  0.0756
 5617ntf    on527552   7.481   2.360   6.976  0.3452 -0.1707 -0.6583
 5617ntf    fn427553   7.769   2.362   6.906  0.1240 -0.7570  0.3755
 5617ntf    fn427554   7.723   2.531   7.023  0.4938 -0.2540  0.3585
 5617ntf    fn427555   7.830   2.371   7.096  0.3496 -0.0385 -0.0856
 5618ntf    cn127556   0.536   3.025   4.649  0.2626 -0.1706  0.0805
 5618ntf    sn227557   0.429   2.898   4.575 -0.0901 -0.0209  0.3267
 5618ntf    nn327558   0.498   2.777   4.647  0.0759  0.0079  0.2185
 5618ntf    sn227559   0.547   2.645   4.578  0.1535  0.3543 -0.4016
 5618ntf    cn127560   0.410   2.532   4.619  0.3534  0.1983 -0.1526
 5618ntf    fn427561   0.536   3.141   4.585  0.8529 -0.1113  0.1825
 5618ntf    fn427562   0.500   3.054   4.773  0.0535  0.8095 -0.1974
 5618ntf    fn427563   0.664   2.993   4.649  0.3719  0.2479 -0.3201
 5618ntf    on527564   0.301   2.931   4.632 -0.3589 -0.1969 -0.1630
 5618ntf    on527565   0.442   2.925   4.433 -0.6021  0.5019  0.3731
 5618ntf    on527566   0.659   2.593   4.653 -0.1978  0.0114 -0.1103
 5618ntf    on527567   0.549   2.642   4.434 -0.4536 -0.5577 -0.4024
 5618ntf    fn427568   0.440   2.403   4.623 -0.4444  0.0113  0.1011
 5618ntf    fn427569   0.351   2.568   4.732  0.3354 -0.5664  0.0887
 5618ntf    fn427570   0.323   2.540   4.519 -0.0188 -0.9502  0.0680
 5619ntf    cn127571   2.049   1.391   7.054  0.1501  0.1969 -0.5162
 5619ntf    sn227572   1.942   1.280   6.958 -0.1800 -0.0409  0.1211
 5619ntf    nn327573   1.800   1.346   6.968 -0.1053  0.1676 -0.1956
 5619ntf    sn227574   1.661   1.289   6.923 -0.1108  0.1624 -0.1723
 5619ntf    cn127575   1.628   1.395   6.780 -0.0224  0.2903 -0.0979
 5619ntf    fn427576   2.013   1.396   7.181  0.3622  0.1659 -0.4543
 5619ntf    fn427577   2.176   1.353   7.051  0.0654 -0.1418 -0.0497
 5619ntf    fn427578   2.046   1.516   7.011 -0.5079  0.5153  0.4077
 5619ntf    on527579   2.001   1.288   6.827  0.0730  0.0294  0.2378
 5619ntf    on527580   1.968   1.163   7.039  0.3111 -0.0394 -0.0316
 5619ntf    on527581   1.559   1.320   7.020 -0.1642  0.3189 -0.2787
 5619ntf    on527582   1.673   1.154   6.873  0.2824  0.1248  0.0214
 5619ntf    fn427583   1.714   1.370   6.682  0.3198 -0.2249  0.3346
 5619ntf    fn427584   1.509   1.375   6.725  0.0290 -0.1900 -0.0380
 5619ntf    fn427585   1.633   1.525   6.802  0.1090  0.2833 -0.0894
 5620ntf    cn127586   2.806   5.795   2.752 -0.1493  0.2345 -0.0092
 5620ntf    sn227587   2.976   5.817   2.690 -0.0411 -0.5986 -0.0223
 5620ntf    nn327588   3.054   5.707   2.769  0.7175 -0.1006 -0.0701
 5620ntf    sn227589   3.110   5.720   2.915 -0.1442  0.1563  0.2391
 5620ntf    cn127590   3.282   5.762   2.874 -0.1088 -0.0838  0.1424
 5620ntf    fn427591   2.724   5.895   2.724 -0.2141  0.2183  0.1208
 5620ntf    fn427592   2.747   5.690   2.699  0.4370 -0.0869 -0.0335
 5620ntf    fn427593   2.802   5.788   2.884  0.1313 -0.2389 -0.0221
 5620ntf    on527594   2.961   5.785   2.550 -0.0025 -0.0884 -0.1475
 5620ntf    on527595   3.004   5.954   2.724 -0.2995 -0.3349 -0.8288
 5620ntf    on527596   3.126   5.592   2.978  0.4202 -0.0067 -0.2305
 5620ntf    on527597   3.068   5.836   2.990  0.3153  0.2631  0.3337
 5620ntf    fn427598   3.291   5.867   2.795 -0.2587 -0.2762 -0.1297
 5620ntf    fn427599   3.355   5.788   2.982 -0.1627  0.3895  0.0650
 5620ntf    fn427600   3.339   5.665   2.805  0.1055  0.0389  0.1455
 5621ntf    cn127601   2.082   3.151   3.726  0.1324  0.4273  0.1459
 5621ntf    sn227602   2.048   3.308   3.812  0.1539  0.6771 -0.2971
 5621ntf    nn327603   2.196   3.357   3.830  0.3823 -0.2423  0.4217
 5621ntf    sn227604   2.303   3.412   3.729  0.0036 -0.0338  0.1317
 5621ntf    cn127605   2.321   3.586   3.776 -0.2294  0.0065  0.0746
 5621ntf    fn427606   1.968   3.092   3.696  0.0150  0.7234  0.0089
 5621ntf    fn427607   2.151   3.161   3.614  0.2122  0.1338  0.1683
 5621ntf    fn427608   2.151   3.065   3.799  0.1345  0.3212  0.0178
 5621ntf    on527609   1.960   3.388   3.730 -0.1804  0.5812 -0.0365
 5621ntf    on527610   1.987   3.259   3.934  0.1251  0.6405 -0.3263
 5621ntf    on527611   2.258   3.420   3.592  0.5029  0.0672 -0.0257
 5621ntf    on527612   2.434   3.361   3.760 -0.0920 -0.3768 -0.0162
 5621ntf    fn427613   2.198   3.629   3.799 -0.2315 -0.1183  0.2976
 5621ntf    fn427614   2.388   3.604   3.889  0.0148 -0.0266 -0.0660
 5621ntf    fn427615   2.379   3.658   3.681 -0.1001  0.2813  0.3597
 5622ntf    cn127616   6.013   2.647   3.247  0.1359 -0.0056 -0.0782
 5622ntf    sn227617   6.142   2.553   3.159  0.1153  0.2006 -0.3276
 5622ntf    nn327618   6.100   2.571   3.009 -0.0926  0.0909 -0.2820
 5622ntf    sn227619   6.083   2.462   2.896  0.1313 -0.1928 -0.0430
 5622ntf    cn127620   5.903   2.481   2.878  0.1528  0.0067 -0.0533
 5622ntf    fn427621   6.033   2.629   3.376  0.2542  0.1122 -0.0797
 5622ntf    fn427622   6.022   2.777   3.226  0.1411 -0.0533 -0.3809
 5622ntf    fn427623   5.889   2.616   3.212 -0.1209  0.2659  0.5852
 5622ntf    on527624   6.257   2.628   3.203  0.0105 -0.2270  0.6928
 5622ntf    on527625   6.130   2.422   3.217  0.0152  0.2272 -0.2883
 5622ntf    on527626   6.122   2.329   2.934  0.1397 -0.0177  0.5827
 5622ntf    on527627   6.131   2.515   2.771  0.0247  0.0522  0.0186
 5622ntf    fn427628   5.850   2.385   2.804  0.3694 -0.0795 -0.0974
 5622ntf    fn427629   5.841   2.460   2.994  0.0969  0.2687 -0.0352
 5622ntf    fn427630   5.864   2.594   2.823  0.0660 -0.0223 -0.0529
 5623ntf    cn127631   1.338   3.746   2.387  0.1368  0.0152  0.0427
 5623ntf    sn227632   1.514   3.752   2.344  0.1465  0.0090  0.0819
 5623ntf    nn327633   1.538   3.907   2.360  0.3275 -0.0765  0.6781
 5623ntf    sn227634   1.664   3.990   2.319  0.0178  0.0540 -0.0154
 5623ntf    cn127635   1.758   4.003   2.473 -0.0486  0.0196  0.0279
 5623ntf    fn427636   1.321   3.795   2.509 -0.2846 -0.3602  0.1397
 5623ntf    fn427637   1.270   3.819   2.300 -0.5927 -0.0248  0.5679
 5623ntf    fn427638   1.286   3.625   2.384  0.2295 -0.0150 -0.3527
 5623ntf    on527639   1.585   3.672   2.441  0.1422  0.2751  0.3084
 5623ntf    on527640   1.522   3.706   2.208 -0.2536  0.3067 -0.0458
 5623ntf    on527641   1.631   4.124   2.276 -0.0177  0.0584  0.0269
 5623ntf    on527642   1.753   3.918   2.231 -0.1566 -0.5008  0.2614
 5623ntf    fn427643   1.840   4.107   2.479  0.4444 -0.3863  0.4364
 5623ntf    fn427644   1.675   4.002   2.576  0.1070 -0.1740  0.1535
 5623ntf    fn427645   1.837   3.899   2.496  0.1430  0.0655 -0.4136
 5624ntf    cn127646   1.075   5.062   7.253 -0.2226  0.1665  0.3145
 5624ntf    sn227647   1.015   4.949   7.124 -0.3016  0.3566  0.1860
 5624ntf    nn327648   1.151   4.904   7.061 -0.2913  0.2355  0.2959
 5624ntf    sn227649   1.188   4.867   6.913 -0.0151  0.4634  0.3047
 5624ntf    cn127650   1.247   5.028   6.853  0.1874  0.2548 -0.0553
 5624ntf    fn427651   1.173   5.000   7.318  0.2928  0.1257 -0.4879
 5624ntf    fn427652   1.117   5.184   7.226 -0.1990  0.1082  0.0902
 5624ntf    fn427653   0.983   5.073   7.347 -0.3707  0.0615  0.1829
 5624ntf    on527654   0.944   4.847   7.197 -0.2859  0.1808 -0.0430
 5624ntf    on527655   0.934   5.038   7.043  0.2364  0.4684 -0.2344
 5624ntf    on527656   1.078   4.831   6.827  0.6476 -1.1510  0.0898
 5624ntf    on527657   1.300   4.777   6.917 -0.2634  0.1660  0.7022
 5624ntf    fn427658   1.310   5.009   6.738  0.6659  0.4071  0.1809
 5624ntf    fn427659   1.148   5.111   6.822  0.0317  0.0077 -0.2297
 5624ntf    fn427660   1.327   5.085   6.941  0.4868 -0.0467 -0.1314
 5625ntf    cn127661   3.770   4.132   6.082  0.0328  0.0207 -0.0086
 5625ntf    sn227662   3.949   4.109   6.103  0.0286 -0.3343 -0.3372
 5625ntf    nn327663   3.994   4.241   6.031  0.1605 -0.0234  0.3042
 5625ntf    sn227664   4.030   4.380   6.095 -0.3687  0.1326  0.2728
 5625ntf    cn127665   4.195   4.343   6.162 -0.0974 -0.0060 -0.4651
 5625ntf    fn427666   3.745   4.181   5.962 -0.0981 -0.9070 -0.3708
 5625ntf    fn427667   3.696   4.024   6.100  0.0944 -0.0685 -0.2827
 5625ntf    fn427668   3.732   4.222   6.170  0.6598  0.4838 -0.2049
 5625ntf    on527669   3.968   4.108   6.246 -0.5307  0.4415 -0.2515
 5625ntf    on527670   3.986   3.990   6.031  0.0767 -0.1544 -0.6092
 5625ntf    on527671   3.951   4.414   6.211 -0.4681 -0.3275  0.3436
 5625ntf    on527672   4.049   4.480   5.993 -0.2966  0.2563  0.4073
 5625ntf    fn427673   4.190   4.245   6.250 -0.3010 -0.1934 -0.6815
 5625ntf    fn427674   4.278   4.300   6.068 -0.1114 -0.3566 -0.3177
 5625ntf    fn427675   4.251   4.447   6.220  0.1464 -0.2401 -0.2775
 5626ntf    cn127676   7.139   0.818   4.201 -0.3581 -0.0319  0.1554
 5626ntf    sn227677   7.258   0.802   4.338  0.0010 -0.0930 -0.1626
 5626ntf    nn327678   7.247   0.939   4.415  0.0313 -0.1524 -0.0532
 5626ntf    sn227679   7.148   0.958   4.535 -0.0583 -0.1720 -0.1231
 5626ntf    cn127680   7.101   1.130   4.501  0.2093 -0.1220 -0.2415
 5626ntf    fn427681   7.173   0.891   4.096  0.8252 -0.1978  0.4063
 5626ntf    fn427682   7.116   0.697   4.153  0.3168  0.1957 -0.7731
 5626ntf    fn427683   7.025   0.863   4.251 -0.2733  0.4807 -0.1015
 5626ntf    on527684   7.222   0.681   4.406 -0.1759  0.1183  0.1231
 5626ntf    on527685   7.390   0.802   4.279  0.1142  0.2126  0.0869
 5626ntf    on527686   7.211   0.977   4.663  0.1128 -0.5145 -0.1563
 5626ntf    on527687   7.021   0.890   4.533 -0.1760  0.0452 -0.0426
 5626ntf    fn427688   7.028   1.134   4.391 -0.1696  0.6086  0.0262
 5626ntf    fn427689   7.029   1.191   4.594  0.3298 -0.0327 -0.2070
 5626ntf    fn427690   7.206   1.209   4.487  0.2859 -0.2626 -0.4590
 5627ntf    cn127691   1.639   4.165   3.040 -0.1691  0.4330  0.1296
 5627ntf    sn227692   1.569   4.104   2.884  0.4377 -0.0819  0.0538
 5627ntf    nn327693   1.435   4.046   2.942  0.3507  0.1540  0.0891
 5627ntf    sn227694   1.301   4.126   2.959  0.0754 -0.3387  0.2669
 5627ntf    cn127695   1.232   4.044   3.107 -0.0299 -0.6965  0.0207
 5627ntf    fn427696   1.560   4.232   3.123 -0.1170  0.4138  0.1945
 5627ntf    fn427697   1.684   4.064   3.114  0.5872  0.4034 -0.3689
 5627ntf    fn427698   1.740   4.248   3.020  0.7487 -0.6795  0.0545
 5627ntf    on527699   1.559   4.218   2.796  0.1536  0.1518  0.3877
 5627ntf    on527700   1.654   3.995   2.844  0.4760  0.0790 -0.3105
 5627ntf    on527701   1.198   4.098   2.862  0.3902 -0.1053 -0.1389
 5627ntf    on527702   1.315   4.260   3.012  0.4292 -0.4254  0.3946
 5627ntf    fn427703   1.124   4.109   3.148  0.2742  0.0769 -0.3694
 5627ntf    fn427704   1.193   3.921   3.077 -0.4106 -0.5242 -0.2033
 5627ntf    fn427705   1.314   4.040   3.211 -0.2255  0.2192  0.2215
 5628ntf    cn127706   2.404   0.639   4.288 -0.0063  0.2113 -0.2569
 5628ntf    sn227707   2.369   0.473   4.354  0.0463  0.2163 -0.2162
 5628ntf    nn327708   2.217   0.449   4.323  0.0875  0.0861 -0.3191
 5628ntf    sn227709   2.156   0.342   4.226 -0.0249  0.0213 -0.1783
 5628ntf    cn127710   2.004   0.424   4.169 -0.0959 -0.0167 -0.0452
 5628ntf    fn427711   2.365   0.654   4.163  0.4068  0.5717 -0.3453
 5628ntf    fn427712   2.348   0.731   4.365 -0.4414 -0.3694  0.1305
 5628ntf    fn427713   2.536   0.655   4.286  0.0684 -0.4020 -0.4200
 5628ntf    on527714   2.463   0.386   4.289  0.2001 -0.0181  0.3126
 5628ntf    on527715   2.384   0.485   4.497 -0.3132 -0.2814 -0.1323
 5628ntf    on527716   2.104   0.234   4.306  0.0179  0.5100  0.5263
 5628ntf    on527717   2.229   0.312   4.105  0.0373 -0.4279 -0.0283
 5628ntf    fn427718   1.930   0.356   4.083 -0.1231 -0.2073  0.1281
 5628ntf    fn427719   1.926   0.460   4.269 -0.6120  0.2224 -0.5258
 5628ntf    fn427720   2.046   0.531   4.102 -0.4358 -0.0750 -0.3552
 5629ntf    cn127721   4.075   3.287   4.350  0.7019 -0.2096 -0.2662
 5629ntf    sn227722   4.061   3.144   4.461  0.1319 -0.0002 -0.0657
 5629ntf    nn327723   4.095   3.032   4.356 -0.1654  0.1775 -0.3526
 5629ntf    sn227724   3.993   2.947   4.272  0.1305 -0.3752 -0.1561
 5629ntf    cn127725   3.941   2.819   4.390 -0.2636 -0.1753 -0.1105
 5629ntf    fn427726   4.200   3.330   4.355  0.5109  0.3097  0.1802
 5629ntf    fn427727   4.044   3.253   4.226  0.0907  0.0059 -0.1786
 5629ntf    fn427728   3.997   3.386   4.390  0.5130 -0.2662 -0.4916
 5629ntf    on527729   4.172   3.152   4.553 -0.0704  0.2300  0.1604
 5629ntf    on527730   3.928   3.149   4.518  0.2059  0.2504  0.0848
 5629ntf    on527731   4.063   2.884   4.163  0.4231 -0.3620  0.0224
 5629ntf    on527732   3.871   3.012   4.233  0.2350  0.2347  0.5097
 5629ntf    fn427733   3.868   2.727   4.328 -0.1129 -0.6827  0.4613
 5629ntf    fn427734   4.044   2.755   4.443 -0.6208 -0.8028 -0.1683
 5629ntf    fn427735   3.869   2.867   4.489 -0.1111 -0.2068  0.0158
 5630ntf    cn127736   1.685   0.001   6.308  0.0121  0.2849  0.0874
 5630ntf    sn227737   1.746   0.150   6.392 -0.2002  0.4756 -0.0976
 5630ntf    nn327738   1.809   0.238   6.277 -0.0102 -0.1540 -0.4866
 5630ntf    sn227739   1.758   0.360   6.192 -0.1076  0.0713 -0.1081
 5630ntf    cn127740   1.866   0.490   6.261 -0.1101 -0.0039  0.0379
 5630ntf    fn427741   1.772  -0.053   6.224 -0.0491  0.0496  0.1752
 5630ntf    fn427742   1.645  -0.101   6.383  0.1588  0.4324  0.3689
 5630ntf    fn427743   1.586   0.027   6.225 -0.0918 -0.1753  0.0650
 5630ntf    on527744   1.633   0.199   6.467  0.0277  0.2695  0.3821
 5630ntf    on527745   1.855   0.097   6.470 -0.7924 -0.5096  0.0797
 5630ntf    on527746   1.626   0.410   6.222  0.0136  0.3382 -0.0095
 5630ntf    on527747   1.792   0.346   6.053  0.0788 -0.7224  0.0122
 5630ntf    fn427748   1.993   0.455   6.254 -0.0968 -0.0848  0.6537
 5630ntf    fn427749   1.859   0.606   6.199  0.1339 -0.0204 -0.0204
 5630ntf    fn427750   1.847   0.509   6.390  0.1997  0.4378  0.0183
 5631ntf    cn127751   5.292   3.783   6.511 -0.3544  0.1728  0.5821
 5631ntf    sn227752   5.451   3.699   6.539 -0.2947  0.0603 -0.0747
 5631ntf    nn327753   5.427   3.571   6.451  0.3636  0.3250 -0.6432
 5631ntf    sn227754   5.527   3.463   6.397  0.1135 -0.2384  0.0047
 5631ntf    cn127755   5.548   3.515   6.224  0.0198  0.1106  0.0973
 5631ntf    fn427756   5.200   3.714   6.577 -0.6812 -0.2580 -0.3127
 5631ntf    fn427757   5.286   3.909   6.553  0.1740  0.4007 -0.0128
 5631ntf    fn427758   5.276   3.782   6.380  0.5392 -0.1709  0.4715
 5631ntf    on527759   5.541   3.793   6.477 -0.1098 -0.0221  0.0673
 5631ntf    on527760   5.464   3.683   6.682 -0.0227 -0.3040 -0.1405
 5631ntf    on527761   5.462   3.335   6.388  0.0071 -0.1692 -0.2088
 5631ntf    on527762   5.661   3.473   6.449  0.2112 -0.2156 -0.2495
 5631ntf    fn427763   5.631   3.437   6.157 -0.0838  0.1218 -0.0450
 5631ntf    fn427764   5.438   3.505   6.152 -0.3982 -0.6029  0.8216
 5631ntf    fn427765   5.598   3.637   6.213  0.4540 -0.0035  0.7635
 5632ntf    cn127766   6.468   5.687   4.619 -0.0942  0.0768 -0.3810
 5632ntf    sn227767   6.530   5.540   4.705 -0.2069  0.1586 -0.1604
 5632ntf    nn327768   6.418   5.431   4.692  0.6395 -0.7245 -0.1749
 5632ntf    sn227769   6.390   5.325   4.579  0.0452 -0.3981 -0.3416
 5632ntf    cn127770   6.468   5.178   4.653  0.4119  0.0876  0.2513
 5632ntf    fn427771   6.556   5.785   4.617 -0.1498  0.1296 -0.2236
 5632ntf    fn427772   6.440   5.664   4.491 -0.4911  0.2367 -0.3252
 5632ntf    fn427773   6.368   5.750   4.679  0.2380  0.0919  0.1553
 5632ntf    on527774   6.653   5.501   4.642  0.1750  0.3370  0.4595
 5632ntf    on527775   6.540   5.580   4.844 -0.0383  0.5675 -0.2894
 5632ntf    on527776   6.464   5.340   4.456 -0.1324 -0.4639 -0.4547
 5632ntf    on527777   6.250   5.296   4.564 -0.0391 -0.0329 -0.2852
 5632ntf    fn427778   6.592   5.210   4.688  0.6653  0.0213 -0.5588
 5632ntf    fn427779   6.406   5.130   4.759 -0.1179 -0.0695 -0.1264
 5632ntf    fn427780   6.478   5.083   4.561  0.7096 -0.1918  0.5719
 5633ntf    cn127781   7.296   7.417   6.962 -0.0030 -0.3548  0.0820
 5633ntf    sn227782   7.369   7.455   7.124 -0.2119 -0.1776  0.1360
 5633ntf    nn327783   7.292   7.581   7.175  0.0906  0.1165 -0.1291
 5633ntf    sn227784   7.317   7.666   7.305 -0.1721 -0.1368  0.0898
 5633ntf    cn127785   7.167   7.621   7.397 -0.2825  0.2889  0.1214
 5633ntf    fn427786   7.264   7.526   6.894  0.6893 -0.0229  0.2753
 5633ntf    fn427787   7.386   7.351   6.891  0.3440  0.0998  0.0946
 5633ntf    fn427788   7.187   7.342   6.964  0.1234 -0.5506 -0.2607
 5633ntf    on527789   7.333   7.337   7.199 -0.3330 -0.0396  0.2960
 5633ntf    on527790   7.511   7.468   7.099 -0.2561  0.0496  0.0056
 5633ntf    on527791   7.301   7.805   7.270  0.1413 -0.0418  0.3195
 5633ntf    on527792   7.435   7.632   7.380 -0.2706 -0.1486  0.2407
 5633ntf    fn427793   7.179   7.667   7.521 -0.0207  0.1081  0.1631
 5633ntf    fn427794   7.054   7.667   7.345 -0.5425 -0.6391 -0.1466
 5633ntf    fn427795   7.153   7.490   7.411 -0.6988  0.2435 -0.6483
 5634ntf    cn127796   5.809   4.894   5.729  0.0382  0.6651  0.5126
 5634ntf    sn227797   5.940   5.018   5.752  0.3829  0.3756  0.1474
 5634ntf    nn327798   5.928   5.026   5.909  0.2933 -0.4533  0.1829
 5634ntf    sn227799   6.044   5.041   6.013  0.1905 -0.1804  0.2583
 5634ntf    cn127800   6.032   4.871   6.075  0.0266 -0.1200  0.3912
 5634ntf    fn427801   5.801   4.844   5.607 -0.1016 -0.0765  0.8208
 5634ntf    fn427802   5.831   4.781   5.795 -0.1939  0.2031 -0.1915
 5634ntf    fn427803   5.693   4.946   5.765 -0.7663 -0.7348  0.0247
 5634ntf    on527804   6.059   4.960   5.695 -0.1041 -0.4530 -0.0392
 5634ntf    on527805   5.883   5.130   5.680 -0.1009  0.6421  0.9257
 5634ntf    on527806   6.002   5.116   6.128 -0.4569  0.0637 -0.1293
 5634ntf    on527807   6.182   5.057   5.973  0.1814 -0.5835  0.0540
 5634ntf    fn427808   6.132   4.847   6.158  0.5423 -0.0755 -0.2113
 5634ntf    fn427809   5.915   4.847   6.133  0.1889  0.2294  0.8655
 5634ntf    fn427810   6.038   4.779   5.980 -0.2226 -0.1341  0.3865
 5635ntf    cn127811   6.419   3.126   6.498  0.1571  0.0351  0.4913
 5635ntf    sn227812   6.378   3.296   6.546 -0.0057  0.1595 -0.0832
 5635ntf    nn327813   6.227   3.281   6.585  0.0325  0.1973  0.0815
 5635ntf    sn227814   6.099   3.338   6.513  0.0667  0.0455 -0.1003
 5635ntf    cn127815   5.995   3.190   6.497  0.2799 -0.1241  0.0791
 5635ntf    fn427816   6.412   3.044   6.601 -1.0327 -0.1821  0.2504
 5635ntf    fn427817   6.338   3.080   6.404 -0.0660  0.5366  0.4367
 5635ntf    fn427818   6.540   3.116   6.446 -0.0717  0.8401 -0.2249
 5635ntf    on527819   6.462   3.320   6.660 -0.2555  0.4107  0.0492
 5635ntf    on527820   6.423   3.364   6.427  0.1044 -0.7555 -0.5740
 5635ntf    on527821   6.114   3.362   6.372 -0.4630 -0.5127 -0.2555
 5635ntf    on527822   6.012   3.422   6.591  0.0789 -0.0680  0.0347
 5635ntf    fn427823   5.868   3.207   6.464  0.1409 -0.8040  0.2448
 5635ntf    fn427824   6.045   3.096   6.418 -0.3522 -0.3038 -0.1107
 5635ntf    fn427825   5.999   3.131   6.616  0.0740  0.1068  0.2019
 5636ntf    cn127826   2.163   1.721   5.955 -0.2042 -0.1003  0.1333
 5636ntf    sn227827   2.014   1.619   5.929 -0.5214  0.3514  0.1694
 5636ntf    nn327828   1.909   1.728   5.888  0.0779  0.6494 -0.6099
 5636ntf    sn227829   1.814   1.818   5.976 -0.0042 -0.0534  0.0325
 5636ntf    cn127830   1.856   1.976   5.897  0.0636  0.1016  0.3769
 5636ntf    fn427831   2.208   1.772   5.841 -0.1960 -0.2792  0.0563
 5636ntf    fn427832   2.142   1.821   6.039  0.2586 -0.0207  0.1556
 5636ntf    fn427833   2.268   1.652   5.995  0.2040  0.0934 -0.5811
 5636ntf    on527834   2.052   1.534   5.819 -0.4961  0.4135  0.1296
 5636ntf    on527835   1.986   1.558   6.057  0.5052 -0.2159  0.1361
 5636ntf    on527836   1.851   1.845   6.113  0.5634  0.6145 -0.2456
 5636ntf    on527837   1.673   1.804   5.949  0.0894 -0.8275 -0.0853
 5636ntf    fn427838   1.842   1.977   5.765  0.5073  0.3548  0.3280
 5636ntf    fn427839   1.787   2.078   5.944  0.2782  0.3697  0.1140
 5636ntf    fn427840   1.985   1.997   5.917  0.1743 -0.0793 -0.1278
 5637ntf    cn127841   6.106   0.732   6.130 -0.5296  0.1950  0.4491
 5637ntf    sn227842   5.926   0.731   6.153 -0.5719  0.1652  0.1216
 5637ntf    nn327843   5.884   0.651   6.024  0.3377  0.2032 -0.2056
 5637ntf    sn227844   5.888   0.496   6.001  0.1198  0.1876 -0.1492
 5637ntf    cn127845   5.909   0.492   5.820 -0.0478  0.2448 -0.1703
 5637ntf    fn427846   6.141   0.859   6.140  0.8928 -0.1672  0.2714
 5637ntf    fn427847   6.177   0.666   6.220 -0.1198  0.4383  0.3087
 5637ntf    fn427848   6.150   0.693   6.012  0.6417  0.7497  0.6920
 5637ntf    on527849   5.908   0.659   6.277 -0.0253  0.1536  0.1967
 5637ntf    on527850   5.880   0.868   6.149 -0.1861  0.2815 -0.3817
 5637ntf    on527851   5.762   0.430   6.023 -0.1359  0.8089  0.2905
 5637ntf    on527852   6.006   0.433   6.056  0.1641  0.5378  0.1663
 5637ntf    fn427853   6.027   0.527   5.771  0.1141  0.2037  0.1857
 5637ntf    fn427854   5.881   0.372   5.772  0.7438  0.1125 -0.3139
 5637ntf    fn427855   5.824   0.574   5.761 -0.3341 -0.0049 -0.1079
 5638ntf    cn127856   0.332   3.864   2.155  0.3344 -0.1829 -0.3123
 5638ntf    sn227857   0.498   3.825   2.093  0.3458 -0.5028 -0.0818
 5638ntf    nn327858   0.557   3.750   2.218  0.3792 -0.1540  0.1114
 5638ntf    sn227859   0.536   3.599   2.254  0.1612 -0.1513 -0.0057
 5638ntf    cn127860   0.696   3.536   2.197  0.1413  0.0133 -0.2435
 5638ntf    fn427861   0.263   3.756   2.187  0.0227  0.1196  0.0516
 5638ntf    fn427862   0.345   3.934   2.267  0.3881  0.0886 -0.4889
 5638ntf    fn427863   0.263   3.935   2.068 -0.2210 -0.6586 -0.2696
 5638ntf    on527864   0.474   3.752   1.971  0.0327  0.4649 -0.6022
 5638ntf    on527865   0.556   3.955   2.070  0.1923 -0.4317 -0.0685
 5638ntf    on527866   0.439   3.528   2.174 -0.5517  0.4206  0.3394
 5638ntf    on527867   0.529   3.577   2.396  0.1183  0.4265  0.0855
 5638ntf    fn427868   0.793   3.580   2.275 -0.5155  0.0125  0.5800
 5638ntf    fn427869   0.703   3.404   2.202  0.5193  0.0330 -0.2023
 5638ntf    fn427870   0.714   3.580   2.073  0.4769 -0.1017 -0.2374
 5639ntf    cn127871   4.646   0.967   3.266  0.2367  0.4079 -0.2022
 5639ntf    sn227872   4.497   0.927   3.361  0.0604  0.1630 -0.5808
 5639ntf    nn327873   4.423   0.825   3.266  0.1952 -0.0618 -0.4461
 5639ntf    sn227874   4.325   0.708   3.303  0.1783  0.0168 -0.2397
 5639ntf    cn127875   4.336   0.607   3.153 -0.1947  0.6367 -0.6872
 5639ntf    fn427876   4.734   0.870   3.248 -0.3668 -0.0560 -0.7096
 5639ntf    fn427877   4.611   1.008   3.145  0.2546  0.0296 -0.3346
 5639ntf    fn427878   4.698   1.075   3.322  0.2480  0.0801  0.4262
 5639ntf    on527879   4.557   0.858   3.473 -0.1432  0.3532 -0.3530
 5639ntf    on527880   4.427   1.053   3.372 -0.3668 -0.0329 -1.0187
 5639ntf    on527881   4.186   0.742   3.314  0.2565  0.2472  0.0550
 5639ntf    on527882   4.372   0.619   3.406 -0.0113  0.3207  0.1116
 5639ntf    fn427883   4.283   0.673   3.051 -0.2192  0.2105 -0.9548
 5639ntf    fn427884   4.461   0.573   3.123  0.0740  0.5088  0.5408
 5639ntf    fn427885   4.270   0.493   3.157 -0.0831  0.5931 -0.0911
 5640ntf    cn127886   1.649   4.267   4.290 -0.3360 -0.1034 -0.0992
 5640ntf    sn227887   1.549   4.325   4.149 -0.0306 -0.1223 -0.3250
 5640ntf    nn327888   1.410   4.367   4.210 -0.0439  0.1233 -0.5261
 5640ntf    sn227889   1.367   4.514   4.245  0.0575  0.0444 -0.0645
 5640ntf    cn127890   1.285   4.563   4.090  0.2712  0.0430 -0.1782
 5640ntf    fn427891   1.585   4.190   4.376 -0.2127 -0.1709 -0.0682
 5640ntf    fn427892   1.753   4.198   4.248 -0.2660 -0.1304  0.1168
 5640ntf    fn427893   1.704   4.373   4.346 -0.1578  0.1915 -0.8217
 5640ntf    on527894   1.637   4.423   4.090 -0.1582  0.3671  0.2844
 5640ntf    on527895   1.534   4.207   4.069 -0.1831 -0.5742  0.3614
 5640ntf    on527896   1.468   4.617   4.263 -0.1762  0.2779 -0.0836
 5640ntf    on527897   1.261   4.515   4.343 -0.0209  0.1790 -0.1504
 5640ntf    fn427898   1.365   4.559   3.985 -0.0850  0.2307 -0.4572
 5640ntf    fn427899   1.181   4.485   4.066 -0.2276  0.5238  0.4023
 5640ntf    fn427900   1.241   4.688   4.098  0.4856  0.1098 -0.0163
 5641ntf    cn127901   5.059   2.266   1.003 -0.0197  0.1254  0.1548
 5641ntf    sn227902   5.155   2.126   0.937 -0.0834  0.2876 -0.2883
 5641ntf    nn327903   5.070   2.009   0.999  0.1975  0.1220 -0.2162
 5641ntf    sn227904   4.963   1.912   0.938 -0.0189  0.2507 -0.0443
 5641ntf    cn127905   5.021   1.752   1.002 -0.4701  0.0683 -0.0864
 5641ntf    fn427906   5.095   2.380   0.944 -0.0184 -0.2828 -0.6468
 5641ntf    fn427907   4.929   2.252   0.983  0.0954 -0.5834 -0.1142
 5641ntf    fn427908   5.079   2.281   1.133 -0.6528  0.1331  0.2531
 5641ntf    on527909   5.152   2.138   0.793  0.1307  0.0273 -0.3136
 5641ntf    on527910   5.286   2.132   0.997 -0.2520  0.0902  0.1001
 5641ntf    on527911   4.969   1.897   0.794  0.2213  0.4800 -0.0607
 5641ntf    on527912   4.835   1.918   1.003 -0.2685 -0.4638 -0.4588
 5641ntf    fn427913   5.007   1.738   1.133 -0.1837  0.4103 -0.0166
 5641ntf    fn427914   4.959   1.650   0.946 -0.4488 -0.0608  0.1231
 5641ntf    fn427915   5.152   1.736   0.987 -0.4618  0.2420 -0.2044
 5642ntf    cn127916   1.720   2.721   6.361 -0.2795 -0.0519  0.1167
 5642ntf    sn227917   1.728   2.624   6.514 -0.1192  0.3413  0.3577
 5642ntf    nn327918   1.861   2.683   6.574  0.4015 -0.1681 -0.2758
 5642ntf    sn227919   2.008   2.630   6.555  0.5607  0.0041  0.4321
 5642ntf    cn127920   2.008   2.502   6.684  0.4540 -0.5040 -0.0648
 5642ntf    fn427921   1.818   2.695   6.275 -0.1038  0.6641  0.0957
 5642ntf    fn427922   1.606   2.701   6.297 -0.2784 -0.0614  0.1177
 5642ntf    fn427923   1.735   2.851   6.376 -0.6757 -0.0119  0.1575
 5642ntf    on527924   1.610   2.666   6.585 -0.3071  0.9492 -0.3099
 5642ntf    on527925   1.733   2.488   6.467  0.5781  0.2818  0.5885
 5642ntf    on527926   2.108   2.723   6.600  0.5353 -0.1091  0.7215
 5642ntf    on527927   2.031   2.558   6.432 -0.3020 -0.1411  0.3426
 5642ntf    fn427928   1.995   2.547   6.808  0.6444  0.4643 -0.3799
 5642ntf    fn427929   1.916   2.409   6.673  0.2876 -0.3855  0.2912
 5642ntf    fn427930   2.119   2.430   6.686  0.2973 -0.7423  0.1400
 5643ntf    cn127931   7.167   0.537   0.483  0.0891  0.0419 -0.0111
 5643ntf    sn227932   7.150   0.694   0.574  0.1178 -0.0870  0.2194
 5643ntf    nn327933   7.238   0.787   0.483 -0.5956  0.1993 -0.1849
 5643ntf    sn227934   7.200   0.934   0.442 -0.2801  0.3541  0.0781
 5643ntf    cn127935   7.080   0.906   0.309 -0.2726 -0.1549  0.1783
 5643ntf    fn427936   7.130   0.548   0.357 -0.1299 -0.0392  0.0448
 5643ntf    fn427937   7.293   0.497   0.474  0.1445  0.2919 -0.3545
 5643ntf    fn427938   7.088   0.439   0.524  0.3887 -0.0492  0.3542
 5643ntf    on527939   7.008   0.721   0.573  0.1718  0.1903  0.0056
 5643ntf    on527940   7.212   0.666   0.701  0.3525 -0.3196  0.0548
 5643ntf    on527941   7.305   1.002   0.369 -0.5258  1.0911  0.3974
 5643ntf    on527942   7.129   1.020   0.534 -0.3433  0.6789 -0.2681
 5643ntf    fn427943   6.981   0.995   0.312  0.0352  0.1978 -0.0336
 5643ntf    fn427944   7.134   0.909   0.189 -0.1785 -0.4963  0.2123
 5643ntf    fn427945   7.015   0.791   0.322  0.9232 -0.8728 -0.0598
 5644ntf    cn127946   3.591   3.996   0.930 -0.0529 -0.3241 -0.2056
 5644ntf    sn227947   3.586   3.832   1.009 -0.2617 -0.2259 -0.0133
 5644ntf    nn327948   3.692   3.750   0.927  0.3719 -0.0826  0.6540
 5644ntf    sn227949   3.846   3.731   0.954  0.5155  0.2022  0.0730
 5644ntf    cn127950   3.839   3.553   0.993  0.2375  0.3493  0.7030
 5644ntf    fn427951   3.709   4.057   0.934 -0.1341 -0.1838  0.1348
 5644ntf    fn427952   3.560   3.988   0.802  0.5976 -0.6336 -0.3502
 5644ntf    fn427953   3.503   4.081   0.980 -0.0826 -0.0704 -0.6873
 5644ntf    on527954   3.616   3.865   1.146 -0.0037  0.1105 -0.1492
 5644ntf    on527955   3.453   3.784   0.980 -0.0072 -0.8026 -0.2427
 5644ntf    on527956   3.915   3.797   1.062  0.3526 -0.1766  0.4134
 5644ntf    on527957   3.911   3.742   0.826  0.2662  0.2343 -0.0524
 5644ntf    fn427958   3.774   3.496   0.894  0.3577  0.3127  0.6451
 5644ntf    fn427959   3.962   3.506   1.000  0.0510 -0.1825  0.3992
 5644ntf    fn427960   3.771   3.526   1.104 -0.1603  0.3145  0.4501
 5645ntf    cn127961   4.821   1.486   1.526 -0.2830  0.2432  0.2905
 5645ntf    sn227962   4.685   1.412   1.621 -0.1533 -0.1319  0.1875
 5645ntf    nn327963   4.746   1.435   1.764 -0.0606 -0.1259  0.1469
 5645ntf    sn227964   4.695   1.393   1.906  0.0206 -0.2323  0.1450
 5645ntf    cn127965   4.715   1.548   1.999 -0.0839 -0.0945 -0.0616
 5645ntf    fn427966   4.777   1.532   1.410 -0.0329 -0.5348 -0.1194
 5645ntf    fn427967   4.867   1.591   1.592 -0.0294  0.4666 -0.2340
 5645ntf    fn427968   4.927   1.408   1.508 -0.5052  0.1226 -0.5331
 5645ntf    on527969   4.583   1.509   1.589  0.1893  0.0945 -0.2232
 5645ntf    on527970   4.678   1.276   1.576  0.0624  0.0800 -0.5041
 5645ntf    on527971   4.786   1.301   1.969 -0.2436 -0.6241 -0.0422
 5645ntf    on527972   4.555   1.363   1.919 -0.0330  0.1239  0.4183
 5645ntf    fn427973   4.650   1.644   1.935 -0.4212 -0.0918  0.2821
 5645ntf    fn427974   4.658   1.544   2.118 -0.4103 -0.4502 -0.2267
 5645ntf    fn427975   4.839   1.588   2.023 -0.2365  0.2257  0.2079
 5646ntf    cn127976   6.335   4.165   7.359  0.0758 -0.0267  0.2110
 5646ntf    sn227977   6.233   4.049   7.454  0.2977 -0.2839  0.1341
 5646ntf    nn327978   6.342   3.938   7.475 -0.1649 -0.8309 -0.2819
 5646ntf    sn227979   6.397   3.878   7.609 -0.2677 -0.0402  0.1233
 5646ntf    cn127980   6.272   3.749   7.636 -0.1587 -0.1977 -0.1147
 5646ntf    fn427981   6.269   4.267   7.305  0.3067  0.0000 -0.0207
 5646ntf    fn427982   6.423   4.222   7.440 -0.3969 -0.0353  0.7409
 5646ntf    fn427983   6.406   4.106   7.265 -0.0625  0.0106  0.0829
 5646ntf    on527984   6.200   4.126   7.571 -0.3011 -0.2374 -0.0596
 5646ntf    on527985   6.127   4.027   7.358  0.2231  0.2981  0.0794
 5646ntf    on527986   6.392   3.957   7.729 -0.6623  0.1627 -0.0278
 5646ntf    on527987   6.513   3.793   7.597 -0.3611 -0.1455 -0.0430
 5646ntf    fn427988   6.151   3.787   7.596 -0.1088 -0.0871 -0.1618
 5646ntf    fn427989   6.290   3.637   7.569 -0.0406 -0.0415 -0.3457
 5646ntf    fn427990   6.262   3.715   7.764 -0.0387  0.1670 -0.0066
 5647ntf    cn127991   0.117   4.872   6.711 -0.1574 -0.3695 -0.0244
 5647ntf    sn227992   0.241   4.841   6.582 -0.1026 -0.0717 -0.0432
 5647ntf    nn327993   0.171   4.928   6.472 -0.4076  0.0254  0.2268
 5647ntf    sn227994   0.232   5.028   6.367 -0.2902 -0.1435  0.1338
 5647ntf    cn127995   0.179   4.946   6.213  0.1875  0.1633 -0.1927
 5647ntf    fn427996   0.002   4.815   6.679 -0.5163  0.5749 -0.4433
 5647ntf    fn427997   0.148   4.812   6.825 -1.0042  0.2631  0.5487
 5647ntf    fn427998   0.091   5.000   6.731  0.0580 -0.3870  0.3831
 5647ntf    on527999   0.357   4.898   6.647  0.2408 -0.5569 -0.2240
 5647ntf    on528000   0.243   4.699   6.556 -0.1938 -0.0400 -0.2252
 5647ntf    on528001   0.376   5.029   6.357 -0.2824  0.8436  0.3129
 5647ntf    on528002   0.177   5.161   6.362  0.5877  0.2370  0.4562
 5647ntf    fn428003   0.229   4.824   6.202  0.1433  0.0982  0.3233
 5647ntf    fn428004   0.049   4.925   6.202  0.1283  0.2915  0.2401
 5647ntf    fn428005   0.224   5.001   6.101  0.0464 -0.1527 -0.4041
 5648ntf    cn128006   0.990   2.535   1.925  0.3086 -0.1653  0.0032
 5648ntf    sn228007   1.035   2.710   1.906 -0.0664 -0.0598  0.0646
 5648ntf    nn328008   0.978   2.760   2.043 -0.0785 -0.3468  0.1632
 5648ntf    sn228009   0.887   2.884   2.075  0.3639  0.0939 -0.2762
 5648ntf    cn128010   0.722   2.808   2.071  0.4498 -0.0863 -0.4194
 5648ntf    fn428011   1.077   2.464   1.857  0.4736 -0.0718  0.1145
 5648ntf    fn428012   0.999   2.486   2.048  0.6477 -0.1133  0.0002
 5648ntf    fn428013   0.870   2.501   1.881  0.4200 -0.3149 -0.1827
 5648ntf    on528014   1.180   2.706   1.905 -0.0708 -0.1606 -0.6178
 5648ntf    on528015   0.960   2.748   1.789 -0.5546 -0.5215  0.2272
 5648ntf    on528016   0.880   2.980   1.968  0.6316  0.2457 -0.1603
 5648ntf    on528017   0.893   2.935   2.210 -0.2863 -0.1840 -0.1400
 5648ntf    fn428018   0.619   2.891   2.082  0.4391 -0.1487 -0.0655
 5648ntf    fn428019   0.709   2.737   1.960 -0.1227 -0.2363 -0.2581
 5648ntf    fn428020   0.699   2.715   2.161 -0.0898  0.5476  0.1063
 5649ntf    cn128021   0.347   6.859   7.214 -0.1564  0.0331 -0.2162
 5649ntf    sn228022   0.339   7.036   7.177 -0.0775  0.0673 -0.0669
 5649ntf    nn328023   0.351   7.027   7.021 -0.1038 -0.2016 -0.0526
 5649ntf    sn228024   0.484   7.010   6.939  0.0588  0.1371  0.1404
 5649ntf    cn128025   0.498   7.179   6.873 -0.4354  0.1812  0.1435
 5649ntf    fn428026   0.250   6.797   7.148 -0.0563 -0.0010 -0.3306
 5649ntf    fn428027   0.462   6.807   7.172 -0.2003 -0.1505 -0.1108
 5649ntf    fn428028   0.335   6.834   7.343  0.0536  0.0549 -0.1914
 5649ntf    on528029   0.207   7.083   7.213 -0.3093 -0.2434 -0.4949
 5649ntf    on528030   0.451   7.088   7.252  0.0294 -0.5261  0.1888
 5649ntf    on528031   0.470   6.933   6.818  0.3071 -0.0381  0.2231
 5649ntf    on528032   0.606   6.983   7.011 -0.3428 -0.1573  0.7267
 5649ntf    fn428033   0.589   7.184   6.777 -0.5088  0.1125  0.0705
 5649ntf    fn428034   0.381   7.218   6.825 -0.7270 -0.4338  0.3358
 5649ntf    fn428035   0.541   7.264   6.965  0.2721 -0.0286  0.0172
 5650ntf    cn128036   6.367   3.169   0.273  0.0248 -0.1767 -0.0897
 5650ntf    sn228037   6.287   3.006   0.271  0.0645 -0.1951 -0.1695
 5650ntf    nn328038   6.327   2.949   0.131 -0.0839 -0.6803 -0.0182
 5650ntf    sn228039   6.258   2.986  -0.005 -0.1753  0.0598  0.2229
 5650ntf    cn128040   6.145   2.844  -0.018 -0.1266  0.0437 -0.0277
 5650ntf    fn428041   6.351   3.242   0.164  0.4412 -0.2398 -0.1947
 5650ntf    fn428042   6.315   3.246   0.368  0.6393  0.1702 -0.0260
 5650ntf    fn428043   6.497   3.166   0.295  0.0336  0.2639 -0.0539
 5650ntf    on528044   6.359   2.946   0.381  0.7532  0.4655 -0.2477
 5650ntf    on528045   6.148   3.040   0.291 -0.0002 -0.6238  0.1275
 5650ntf    on528046   6.349   2.965  -0.115  0.3302  0.6682  0.5178
 5650ntf    on528047   6.170   3.100  -0.009  0.1542  0.2991 -0.3339
 5650ntf    fn428048   6.199   2.725   0.003  0.2459  0.2470  0.1697
 5650ntf    fn428049   6.045   2.857   0.068 -0.2350 -0.6435 -0.0394
 5650ntf    fn428050   6.089   2.816  -0.135 -0.3888 -0.1500  0.1441
 5651ntf    cn128051   6.456   0.252   0.860  0.0421  0.5722  0.1935
 5651ntf    sn228052   6.621   0.329   0.859  0.2022  0.2301  0.2072
 5651ntf    nn328053   6.706   0.208   0.911  0.0392 -0.1017 -0.2890
 5651ntf    sn228054   6.823   0.198   1.015 -0.1437 -0.1994 -0.0915
 5651ntf    cn128055   6.955   0.147   0.901 -0.0775  0.1669 -0.1826
 5651ntf    fn428056   6.368   0.314   0.782  0.3281  0.0905 -0.5230
 5651ntf    fn428057   6.458   0.125   0.823  0.1238  0.5839  0.1570
 5651ntf    fn428058   6.409   0.252   0.983 -0.0619  0.0126  0.1533
 5651ntf    on528059   6.650   0.353   0.720 -0.0995 -0.4450  0.0252
 5651ntf    on528060   6.594   0.434   0.954  0.0527 -0.1535  0.5938
 5651ntf    on528061   6.812   0.087   1.106  1.0332  0.5157  0.9758
 5651ntf    on528062   6.870   0.322   1.073 -0.2883 -0.0337 -0.3304
 5651ntf    fn428063   6.955   0.015   0.885 -0.3775  0.1780 -0.2722
 5651ntf    fn428064   6.956   0.214   0.788 -0.5671 -0.3028 -0.4713
 5651ntf    fn428065   7.069   0.179   0.959 -0.0654 -0.2178  0.0098
 5652ntf    cn128066   5.595   4.196   3.737  0.2786  0.0859 -0.1556
 5652ntf    sn228067   5.704   4.265   3.866 -0.1280 -0.1045  0.2930
 5652ntf    nn328068   5.831   4.314   3.789 -0.0810 -0.1076  0.3690
 5652ntf    sn228069   5.977   4.341   3.840  0.1278 -0.2898 -0.1226
 5652ntf    cn128070   6.069   4.196   3.781  0.0859 -0.3725  0.0166
 5652ntf    fn428071   5.587   4.273   3.630 -0.1408  0.0348 -0.1610
 5652ntf    fn428072   5.649   4.082   3.700 -0.0283 -0.1424  0.0961
 5652ntf    fn428073   5.473   4.169   3.781  0.3102 -0.0337 -0.1419
 5652ntf    on528074   5.633   4.376   3.926 -0.1962  0.1971 -0.3338
 5652ntf    on528075   5.727   4.150   3.950  0.1618 -0.4754 -0.2936
 5652ntf    on528076   6.000   4.335   3.982 -0.4106 -0.1948 -0.0312
 5652ntf    on528077   6.048   4.449   3.775 -0.7776  0.3360 -0.0846
 5652ntf    fn428078   6.038   4.087   3.849 -0.4840 -0.4984 -0.4285
 5652ntf    fn428079   6.055   4.174   3.651 -0.1803  0.6160 -0.1308
 5652ntf    fn428080   6.200   4.207   3.790  0.0599 -0.1172  0.0737
 5653ntf    cn128081   6.167   2.384   4.756  0.2184 -0.2445 -0.0258
 5653ntf    sn228082   6.044   2.251   4.777  0.0281 -0.0675 -0.0160
 5653ntf    nn328083   6.101   2.151   4.670 -0.1066 -0.0326 -0.1205
 5653ntf    sn228084   6.029   2.043   4.582  0.0616 -0.0260 -0.2674
 5653ntf    cn128085   6.055   2.125   4.422  0.0772  0.2134 -0.1411
 5653ntf    fn428086   6.137   2.491   4.829  0.1642 -0.3777  0.1486
 5653ntf    fn428087   6.289   2.345   4.787 -0.0105 -0.1575  1.0158
 5653ntf    fn428088   6.157   2.426   4.631  0.0288  0.5091  0.2352
 5653ntf    on528089   6.059   2.201   4.911 -0.9547 -0.0123  0.1201
 5653ntf    on528090   5.923   2.321   4.743 -0.0599 -0.0940  0.2422
 5653ntf    on528091   5.885   2.031   4.593  0.1304 -0.2520  0.4803
 5653ntf    on528092   6.101   1.919   4.563  0.3439  0.1442 -0.3014
 5653ntf    fn428093   6.012   2.250   4.432  0.6998  0.4486 -0.3843
 5653ntf    fn428094   6.184   2.144   4.402  0.0699  0.3394 -0.0722
 5653ntf    fn428095   6.002   2.076   4.311  0.0848 -0.4950  0.1619
 5654ntf    cn128096   3.508   5.678   5.496 -0.4445 -0.2774  0.2751
 5654ntf    sn228097   3.500   5.559   5.633 -0.0058 -0.2929  0.2894
 5654ntf    nn328098   3.387   5.624   5.721 -0.0672 -0.2941  0.2123
 5654ntf    sn228099   3.248   5.565   5.762 -0.1106 -0.1941  0.2090
 5654ntf    cn128100   3.294   5.452   5.897  0.0788 -0.5190 -0.1276
 5654ntf    fn428101   3.557   5.794   5.536  0.0139 -0.3540 -0.0653
 5654ntf    fn428102   3.591   5.635   5.403 -0.5713  0.7461 -0.3255
 5654ntf    fn428103   3.394   5.713   5.439 -0.4333 -0.9427 -0.1661
 5654ntf    on528104   3.457   5.435   5.572  0.1678 -0.1525 -0.1231
 5654ntf    on528105   3.630   5.563   5.694  0.0891  0.0121  0.0726
 5654ntf    on528106   3.183   5.476   5.669  0.1577 -0.0397 -0.1253
 5654ntf    on528107   3.168   5.667   5.826  0.1995  0.0857  0.1541
 5654ntf    fn428108   3.361   5.351   5.843  0.1793 -0.4002 -0.2238
 5654ntf    fn428109   3.367   5.511   5.990 -0.1633  0.1622 -0.3621
 5654ntf    fn428110   3.180   5.399   5.940  0.0029 -0.4137 -0.1988
 5655ntf    cn128111   3.075   4.707   3.847  0.2435 -0.1740  0.1314
 5655ntf    sn228112   3.037   4.714   4.024  0.1207 -0.0695  0.1016
 5655ntf    nn328113   2.915   4.615   4.033  0.1630 -0.1220  0.0944
 5655ntf    sn228114   2.761   4.644   4.043  0.1025 -0.4023 -0.0329
 5655ntf    cn128115   2.691   4.534   3.917 -0.2990 -0.2489  0.0565
 5655ntf    fn428116   3.146   4.605   3.802  0.6047 -0.0357  0.3860
 5655ntf    fn428117   2.974   4.706   3.761  0.2598  0.0601  0.1093
 5655ntf    fn428118   3.145   4.815   3.815 -0.2412  0.0852 -0.0742
 5655ntf    on528119   3.154   4.660   4.089 -0.1087 -0.2361  0.3780
 5655ntf    on528120   3.003   4.851   4.054 -0.1234 -0.1321  0.1157
 5655ntf    on528121   2.710   4.771   3.998  0.4771 -0.1546  0.2350
 5655ntf    on528122   2.707   4.597   4.168  0.8565 -0.6088  0.2196
 5655ntf    fn428123   2.745   4.556   3.798  0.4446  0.3871  0.5046
 5655ntf    fn428124   2.715   4.407   3.947 -0.5778 -0.2012  0.4923
 5655ntf    fn428125   2.559   4.538   3.910 -0.2815  0.4134  0.0586
 5656ntf    cn128126   0.595   0.961   1.554 -0.0986 -0.0507 -0.1677
 5656ntf    sn228127   0.651   1.105   1.458 -0.1147 -0.1656 -0.3512
 5656ntf    nn328128   0.571   1.213   1.541 -0.5220 -0.3549 -0.4947
 5656ntf    sn228129   0.493   1.338   1.487  0.2109  0.3494  0.0627
 5656ntf    cn128130   0.564   1.468   1.593 -0.1643  0.5891  0.0193
 5656ntf    fn428131   0.594   0.988   1.683 -0.1064  0.1354 -0.2060
 5656ntf    fn428132   0.470   0.928   1.526 -0.1565 -0.4695  0.5682
 5656ntf    fn428133   0.669   0.853   1.535 -0.5909 -0.3388 -0.4602
 5656ntf    on528134   0.795   1.112   1.464 -0.1289 -0.0126 -0.1498
 5656ntf    on528135   0.589   1.072   1.332 -0.5477  0.1368 -0.2210
 5656ntf    on528136   0.355   1.327   1.525  0.1457 -0.4312 -0.3837
 5656ntf    on528137   0.510   1.372   1.348 -0.0519  0.4257  0.0489
 5656ntf    fn428138   0.539   1.442   1.720  0.2697 -0.0635 -0.0268
 5656ntf    fn428139   0.696   1.476   1.583 -0.1354 -0.3996 -0.4885
 5656ntf    fn428140   0.506   1.584   1.564 -0.5446  0.4440  0.2032
 5657ntf    cn128141   2.757   2.743   2.448  0.1498 -0.1749  0.0032
 5657ntf    sn228142   2.846   2.881   2.371 -0.1326 -0.0801 -0.1554
 5657ntf    nn328143   2.993   2.866   2.425 -0.3342  0.2584  0.4944
 5657ntf    sn228144   3.062   2.922   2.555  0.0281  0.3284  0.2743
 5657ntf    cn128145   3.160   3.059   2.486  0.1430  0.0702 -0.0795
 5657ntf    fn428146   2.797   2.625   2.402  0.4492 -0.1719  0.2530
 5657ntf    fn428147   2.780   2.738   2.578  0.5997  0.1921 -0.0615
 5657ntf    fn428148   2.626   2.748   2.429  0.1397  0.7021  0.2711
 5657ntf    on528149   2.836   2.849   2.230  0.1129 -0.2638 -0.1315
 5657ntf    on528150   2.783   3.004   2.411  0.1552  0.0680 -0.1564
 5657ntf    on528151   3.158   2.827   2.605 -0.4585 -0.1211  0.3723
 5657ntf    on528152   2.966   2.976   2.648 -0.4994  0.9115 -0.5907
 5657ntf    fn428153   3.084   3.144   2.419 -0.5931 -0.6038 -0.1123
 5657ntf    fn428154   3.221   3.122   2.585  0.2938 -0.5943  0.2573
 5657ntf    fn428155   3.255   3.019   2.403  0.2227 -0.1045  0.0938
 5658ntf    cn128156   3.765   2.631   5.746  0.0138  0.1743  0.2791
 5658ntf    sn228157   3.707   2.711   5.898 -0.0877 -0.1553  0.4149
 5658ntf    nn328158   3.562   2.653   5.912 -0.1685  0.0308  0.3422
 5658ntf    sn228159   3.477   2.619   6.040 -0.1698 -0.6530  0.1638
 5658ntf    cn128160   3.494   2.438   6.031  0.6416 -0.5766  0.0843
 5658ntf    fn428161   3.891   2.656   5.715  0.1936 -0.2993  0.6102
 5658ntf    fn428162   3.756   2.499   5.750  0.5493  0.1029 -0.5224
 5658ntf    fn428163   3.686   2.669   5.647  0.1413 -0.3967 -0.0531
 5658ntf    on528164   3.802   2.661   5.994  0.3462 -0.0586  0.0384
 5658ntf    on528165   3.707   2.850   5.861  0.5527 -0.2914 -0.1220
 5658ntf    on528166   3.337   2.647   6.022 -0.2057 -0.5609  0.5892
 5658ntf    on528167   3.533   2.656   6.167 -0.0548  0.1848 -0.1245
 5658ntf    fn428168   3.429   2.370   6.124  0.0410  0.2908  0.3188
 5658ntf    fn428169   3.444   2.394   5.917  0.0611 -0.2905  0.2246
 5658ntf    fn428170   3.619   2.395   6.027  0.6674 -0.4441 -0.5940
 5659ntf    cn128171   2.367   4.733   5.552  0.2732 -0.0085 -0.0189
 5659ntf    sn228172   2.305   4.635   5.412  0.2519  0.1406 -0.1150
 5659ntf    nn328173   2.432   4.628   5.321  0.1558  0.6578 -0.2886
 5659ntf    sn228174   2.457   4.546   5.190 -0.4431  0.2977 -0.1812
 5659ntf    cn128175   2.554   4.654   5.080  0.0467 -0.0122 -0.0565
 5659ntf    fn428176   2.307   4.716   5.669 -0.3056  0.4861 -0.2412
 5659ntf    fn428177   2.494   4.705   5.575  0.2079 -0.1184  0.2198
 5659ntf    fn428178   2.360   4.863   5.526  0.2127  0.1372  0.6935
 5659ntf    on528179   2.262   4.510   5.469 -0.1220  0.0313 -0.6269
 5659ntf    on528180   2.204   4.723   5.358  0.1077 -0.1384 -0.3026
 5659ntf    on528181   2.344   4.510   5.108 -0.4388  0.1929 -0.1413
 5659ntf    on528182   2.554   4.440   5.205 -0.2217  0.5103 -0.0978
 5659ntf    fn428183   2.598   4.584   4.976 -0.0725 -0.5176  0.2288
 5659ntf    fn428184   2.480   4.752   5.030 -0.1880 -0.0292  0.2574
 5659ntf    fn428185   2.657   4.709   5.141  0.1696 -0.1509 -0.1366
 5660ntf    cn128186   0.488   4.095   3.442  0.0467 -0.2025 -0.1389
 5660ntf    sn228187   0.518   4.256   3.364  0.1584 -0.0863  0.1434
 5660ntf    nn328188   0.674   4.269   3.378  0.2050 -0.4163 -0.0601
 5660ntf    sn228189   0.746   4.356   3.487 -0.0181 -0.3912  0.0691
 5660ntf    cn128190   0.900   4.260   3.493  0.3572  0.2041  0.0724
 5660ntf    fn428191   0.545   4.013   3.356  0.3024 -0.3325  0.1507
 5660ntf    fn428192   0.549   4.087   3.559 -0.1072  0.2597 -0.0247
 5660ntf    fn428193   0.363   4.050   3.450 -0.0754  0.1879  0.1849
 5660ntf    on528194   0.471   4.240   3.229  0.2571  0.0884  0.0890
 5660ntf    on528195   0.443   4.347   3.447 -0.1749 -0.2369  0.0073
 5660ntf    on528196   0.693   4.333   3.618  0.1458  0.1373  0.2292
 5660ntf    on528197   0.766   4.493   3.444  0.2548 -0.4928 -0.1375
 5660ntf    fn428198   0.993   4.300   3.407  0.1617  0.2586 -0.1117
 5660ntf    fn428199   0.950   4.260   3.616  0.1671 -0.6012  0.1582
 5660ntf    fn428200   0.866   4.133   3.473  0.3119  0.2099  0.1107
 5661ntf    cn128201   6.741   4.052   6.863  0.0802 -0.1309 -0.2406
 5661ntf    sn228202   6.862   3.919   6.844  0.2694  0.0510 -0.3077
 5661ntf    nn328203   6.774   3.810   6.774 -0.1452  0.0970  0.1404
 5661ntf    sn228204   6.820   3.669   6.723 -0.0468  0.1915 -0.0334
 5661ntf    cn128205   6.761   3.674   6.551 -0.0420 -0.3672 -0.0528
 5661ntf    fn428206   6.783   4.160   6.927 -0.4666  0.0744 -0.2152
 5661ntf    fn428207   6.697   4.088   6.743 -0.3999  0.3198  0.0609
 5661ntf    fn428208   6.630   4.015   6.925  0.2425  0.1270  0.2103
 5661ntf    on528209   6.968   3.980   6.767  0.7175 -0.1013  0.1819
 5661ntf    on528210   6.888   3.880   6.981 -0.6161 -0.3772 -0.2564
 5661ntf    on528211   6.737   3.566   6.781  0.2032  0.0246  0.0296
 5661ntf    on528212   6.962   3.648   6.718 -0.0038  0.4620  0.0525
 5661ntf    fn428213   6.817   3.773   6.483 -0.1283 -0.2196  0.0903
 5661ntf    fn428214   6.775   3.570   6.470 -0.0162 -0.4043 -0.0014
 5661ntf    fn428215   6.630   3.694   6.553  0.0218  0.0817 -0.4010
 5662ntf    cn128216   6.812   4.200   5.999 -0.2612 -0.0472  0.3212
 5662ntf    sn228217   6.845   4.095   6.143  0.0116 -0.3017  0.0758
 5662ntf    nn328218   6.700   4.100   6.205 -0.0729 -0.4298 -0.1109
 5662ntf    sn228219   6.607   3.985   6.257  0.0388 -0.3294  0.3120
 5662ntf    cn128220   6.637   4.014   6.434  0.0184 -0.0816  0.2769
 5662ntf    fn428221   6.902   4.197   5.902 -0.5512  0.3584  0.0349
 5662ntf    fn428222   6.695   4.179   5.941 -0.1464  0.2928 -0.0392
 5662ntf    fn428223   6.810   4.329   6.029 -0.5205  0.1102 -0.3481
 5662ntf    on528224   6.895   3.968   6.099  0.2087 -0.4181  0.6229
 5662ntf    on528225   6.928   4.177   6.228  0.4082 -0.0861 -0.5171
 5662ntf    on528226   6.651   3.849   6.239  0.4095 -0.1840  0.1201
 5662ntf    on528227   6.466   4.013   6.242  0.1611  0.2881  0.2609
 5662ntf    fn428228   6.614   4.136   6.480 -0.2976 -0.0525  0.0388
 5662ntf    fn428229   6.568   3.928   6.509 -0.1613  0.2368  0.4787
 5662ntf    fn428230   6.764   3.992   6.463 -0.0374  0.1882  0.7416
 5663ntf    cn128231   2.672   2.352   5.272 -0.2943  0.0400 -0.1659
 5663ntf    sn228232   2.657   2.217   5.393 -0.0228  0.1877  0.0323
 5663ntf    nn328233   2.557   2.126   5.315  0.1689  0.0908 -0.1026
 5663ntf    sn228234   2.516   1.982   5.363 -0.1890  0.3289  0.3101
 5663ntf    cn128235   2.374   2.018   5.472 -0.1650  0.1303  0.4074
 5663ntf    fn428236   2.776   2.431   5.291  0.0379 -0.4496  0.0701
 5663ntf    fn428237   2.677   2.307   5.148 -0.3958 -0.0636 -0.1324
 5663ntf    fn428238   2.562   2.425   5.283 -0.2616  0.0322  0.2347
 5663ntf    on528239   2.791   2.164   5.400 -0.1711 -0.1858  0.0165
 5663ntf    on528240   2.607   2.275   5.515  0.0190 -0.3406  0.3018
 5663ntf    on528241   2.607   1.913   5.451 -0.6827 -0.5590  0.1326
 5663ntf    on528242   2.457   1.905   5.256  0.3805  0.4319 -0.0771
 5663ntf    fn428243   2.413   2.085   5.579  0.4060  0.3421  0.0732
 5663ntf    fn428244   2.278   2.088   5.415 -0.0981  0.0305  0.1678
 5663ntf    fn428245   2.305   1.910   5.506 -0.4925  0.0871 -0.3614
 5664ntf    cn128246   4.630   1.323   6.686  0.0052  0.1615 -0.3859
 5664ntf    sn228247   4.710   1.160   6.705 -0.1233  0.1389 -0.0325
 5664ntf    nn328248   4.586   1.086   6.765  0.2077 -0.1050  0.3609
 5664ntf    sn228249   4.548   1.063   6.916  0.0528 -0.0785  0.3273
 5664ntf    cn128250   4.635   0.907   6.949 -0.1718 -0.2400  0.1533
 5664ntf    fn428251   4.598   1.380   6.801  0.3861 -0.3572 -0.0134
 5664ntf    fn428252   4.704   1.408   6.618  0.3786  0.4562  0.3769
 5664ntf    fn428253   4.519   1.311   6.616 -0.0016 -0.4327 -0.2829
 5664ntf    on528254   4.743   1.109   6.575  0.4203 -0.3372  0.2864
 5664ntf    on528255   4.822   1.177   6.796 -0.1342 -0.4941  0.1008
 5664ntf    on528256   4.410   1.032   6.943 -0.0609  0.2648  0.1433
 5664ntf    on528257   4.611   1.150   7.013  0.7305  0.0622 -0.2283
 5664ntf    fn428258   4.762   0.930   6.920 -0.1160  0.4004  0.8884
 5664ntf    fn428259   4.625   0.863   7.074  0.0292  0.2299  0.3375
 5664ntf    fn428260   4.586   0.812   6.871  0.6160 -0.3391 -0.2279
 5665ntf    cn128261   2.057   5.124   7.130 -0.0182  0.3197  0.1571
 5665ntf    sn228262   2.000   5.095   7.300 -0.1302 -0.1050  0.0488
 5665ntf    nn328263   1.847   5.123   7.283 -0.1008 -0.2047 -0.3887
 5665ntf    sn228264   1.758   5.222   7.365  0.4973 -0.0874  0.1224
 5665ntf    cn128265   1.789   5.376   7.274  0.4054 -0.1829 -0.0716
 5665ntf    fn428266   2.021   5.242   7.079  0.3680  0.2768 -0.2229
 5665ntf    fn428267   2.187   5.105   7.113 -0.0812 -0.1738  0.2300
 5665ntf    fn428268   2.000   5.034   7.051 -0.2686  0.3830  0.2639
 5665ntf    on528269   2.040   4.957   7.311 -0.3759 -0.1099  0.9318
 5665ntf    on528270   2.079   5.188   7.378  0.0644  0.1058 -0.3959
 5665ntf    on528271   1.794   5.251   7.502  0.4340  0.4092  0.0376
 5665ntf    on528272   1.620   5.196   7.333  0.3735  0.6995  0.0021
 5665ntf    fn428273   1.918   5.409   7.277  0.2244  0.5468 -0.0918
 5665ntf    fn428274   1.750   5.384   7.148 -0.2279 -0.1614  0.1246
 5665ntf    fn428275   1.728   5.481   7.327  0.8438  0.2697 -0.4550
 5666ntf    cn128276   0.084   3.245   6.023 -0.0571  0.2295  0.2316
 5666ntf    sn228277   0.012   3.351   6.151 -0.2519  0.1235  0.2102
 5666ntf    nn328278   0.023   3.486   6.071  0.3566 -0.4562 -0.6901
 5666ntf    sn228279  -0.065   3.542   5.954 -0.2916 -0.0952 -0.0386
 5666ntf    cn128280  -0.169   3.671   6.028 -0.4424 -0.0895 -0.2575
 5666ntf    fn428281   0.093   3.122   6.071 -0.0263  0.3213  0.4620
 5666ntf    fn428282   0.013   3.252   5.911 -0.0027  0.4284  0.2089
 5666ntf    fn428283   0.207   3.288   5.996  0.0272 -0.1371  0.0272
 5666ntf    on528284  -0.118   3.293   6.173 -0.1928 -0.1495 -0.1555
 5666ntf    on528285   0.108   3.345   6.259  0.2797  0.1867 -0.2579
 5666ntf    on528286  -0.162   3.452   5.897 -0.5526  0.0135  0.2332
 5666ntf    on528287   0.011   3.623   5.862  0.4835 -0.6220  0.1289
 5666ntf    fn428288  -0.247   3.623   6.124  0.0444 -0.5142 -0.0711
 5666ntf    fn428289  -0.098   3.770   6.082  0.2157 -0.5634 -0.2434
 5666ntf    fn428290  -0.245   3.727   5.935 -0.7495 -0.1640 -0.0523
 5667ntf    cn128291   5.733   0.264   1.607  0.5628  0.0099 -0.3701
 5667ntf    sn228292   5.690   0.156   1.468  0.0100  0.1296 -0.2974
 5667ntf    nn328293   5.579   0.068   1.535  0.2754 -0.1788 -0.2587
 5667ntf    sn228294   5.533  -0.077   1.496 -0.1388 -0.1033 -0.0573
 5667ntf    cn128295   5.355  -0.075   1.533 -0.2116  0.0609 -0.4145
 5667ntf    fn428296   5.629   0.313   1.673  0.4356 -0.5512 -0.1484
 5667ntf    fn428297   5.813   0.202   1.692  0.2524  0.1121 -0.0010
 5667ntf    fn428298   5.795   0.372   1.561  0.1337  0.3552 -0.1557
 5667ntf    on528299   5.633   0.248   1.373 -0.0832  0.3588 -0.0183
 5667ntf    on528300   5.813   0.087   1.436  0.1492  0.4500 -0.4564
 5667ntf    on528301   5.584  -0.169   1.595  0.3341 -0.1439 -0.3334
 5667ntf    on528302   5.531  -0.113   1.357  0.0576  0.7372 -0.2788
 5667ntf    fn428303   5.283  -0.168   1.472 -0.5320  0.1005 -0.0937
 5667ntf    fn428304   5.340  -0.099   1.662  0.0623  0.6487 -0.2699
 5667ntf    fn428305   5.298   0.043   1.519  0.0117  0.3045  0.6428
 5668ntf    cn128306   2.912   6.598   1.956 -0.0119  0.1862  0.2897
 5668ntf    sn228307   3.042   6.520   2.056  0.1460 -0.0052 -0.0606
 5668ntf    nn328308   2.962   6.469   2.182 -0.0418  0.4172 -0.0056
 5668ntf    sn228309   2.945   6.546   2.318  0.0375  0.2079  0.1228
 5668ntf    cn128310   3.111   6.536   2.392 -0.0896  0.0684  0.3896
 5668ntf    fn428311   2.803   6.526   1.936  0.5232 -0.4737 -0.2849
 5668ntf    fn428312   2.861   6.704   2.017 -0.2553 -0.0725  0.5386
 5668ntf    fn428313   2.952   6.643   1.838 -0.2658 -0.5713 -0.0932
 5668ntf    on528314   3.085   6.407   1.979 -0.0306 -0.1343  0.0287
 5668ntf    on528315   3.134   6.628   2.082  0.7534 -0.4602 -0.3179
 5668ntf    on528316   2.857   6.472   2.404 -0.8172  0.1458 -0.7813
 5668ntf    on528317   2.922   6.687   2.305  0.3282  0.2275 -0.2051
 5668ntf    fn428318   3.108   6.587   2.514 -0.1218 -0.1374  0.4740
 5668ntf    fn428319   3.152   6.411   2.400  0.1142  0.0652 -0.5822
 5668ntf    fn428320   3.210   6.595   2.327 -0.3630 -0.0387 -0.1314
 5669ntf    cn128321   7.226   5.977   6.605 -0.0994 -0.0206  0.0249
 5669ntf    sn228322   7.161   6.053   6.757  0.1414  0.0101  0.1130
 5669ntf    nn328323   7.165   6.207   6.726 -0.0938 -0.0955 -0.4606
 5669ntf    sn228324   7.276   6.313   6.756  0.1526 -0.4749 -0.0203
 5669ntf    cn128325   7.276   6.411   6.603 -0.5710 -0.4265  0.0085
 5669ntf    fn428326   7.243   5.847   6.617 -0.1921 -0.0137  0.2362
 5669ntf    fn428327   7.140   5.987   6.505 -0.0162  0.2638 -0.0200
 5669ntf    fn428328   7.344   6.022   6.566 -0.1219 -0.1839 -0.2318
 5669ntf    on528329   7.028   5.996   6.765  0.0263  0.2479 -0.0853
 5669ntf    on528330   7.249   6.008   6.862  0.5416  0.3933 -0.0542
 5669ntf    on528331   7.410   6.263   6.773  0.1491 -0.3284  0.4432
 5669ntf    on528332   7.219   6.402   6.854  0.6865  0.5328 -0.6057
 5669ntf    fn428333   7.317   6.337   6.500  0.1613 -0.5738  0.3985
 5669ntf    fn428334   7.159   6.465   6.574 -0.0986  0.8605  0.4366
 5669ntf    fn428335   7.363   6.509   6.616 -0.3608 -0.6165  0.0494
 5670ntf    cn128336   7.348   6.518   1.377  0.0215 -0.4498  0.4100
 5670ntf    sn228337   7.393   6.690   1.338 -0.1884 -0.5242 -0.1701
 5670ntf    nn328338   7.360   6.685   1.184  0.0845  0.2058 -0.2553
 5670ntf    sn228339   7.450   6.688   1.055  0.1437 -0.0914 -0.2229
 5670ntf    cn128340   7.527   6.524   1.057 -0.0127 -0.1602  0.5032
 5670ntf    fn428341   7.378   6.482   1.500 -0.1546  0.1319  0.6258
 5670ntf    fn428342   7.220   6.490   1.361 -0.1059  0.2438  0.1639
 5670ntf    fn428343   7.418   6.429   1.309  0.7569  0.3670  0.0793
 5670ntf    on528344   7.306   6.784   1.405  0.1034  0.0909 -0.6449
 5670ntf    on528345   7.535   6.697   1.358 -0.2120  0.9146 -0.4157
 5670ntf    on528346   7.559   6.782   1.042  0.3537 -0.3628 -0.4276
 5670ntf    on528347   7.370   6.687   0.935  0.2046 -0.1398 -0.2632
 5670ntf    fn428348   7.435   6.428   1.045  0.0167 -0.1051 -0.2137
 5670ntf    fn428349   7.603   6.504   0.951 -0.2445 -0.1479  0.3321
 5670ntf    fn428350   7.600   6.492   1.162  0.5911 -0.0009  0.1331
 5671ntf    cn128351   2.458   1.607   4.529  0.2226  0.0192 -0.2725
 5671ntf    sn228352   2.492   1.779   4.578 -0.1278 -0.0518  0.2200
 5671ntf    nn328353   2.646   1.790   4.548 -0.1114 -0.0832  0.2900
 5671ntf    sn228354   2.728   1.924   4.536 -0.2116 -0.0730 -0.3425
 5671ntf    cn128355   2.714   1.962   4.359  0.2359 -0.1169 -0.3882
 5671ntf    fn428356   2.533   1.521   4.596  0.3186  0.5093  0.2540
 5671ntf    fn428357   2.332   1.577   4.554  0.1553  0.7236  0.2577
 5671ntf    fn428358   2.484   1.593   4.400 -0.4002 -0.0378 -0.3919
 5671ntf    on528359   2.405   1.854   4.492 -0.1925 -0.5398 -0.1439
 5671ntf    on528360   2.467   1.782   4.720 -0.0707 -0.1404  0.2326
 5671ntf    on528361   2.870   1.903   4.552 -0.2082  0.1846 -0.0291
 5671ntf    on528362   2.672   2.029   4.619  0.5041 -0.0405  0.1074
 5671ntf    fn428363   2.792   2.063   4.326  0.6018 -0.2768 -0.0246
 5671ntf    fn428364   2.749   1.849   4.298 -0.0073 -0.5994  0.3460
 5671ntf    fn428365   2.591   1.990   4.320  0.1339 -0.3147 -0.2130
 5672ntf    cn128366   5.201   0.670   3.337  0.1540  0.2039 -0.2782
 5672ntf    sn228367   5.222   0.591   3.175  0.1860  0.2175 -0.2807
 5672ntf    nn328368   5.373   0.552   3.191  0.1153  0.0240 -0.0949
 5672ntf    sn228369   5.433   0.410   3.224  0.1616  0.0956  0.1290
 5672ntf    cn128370   5.509   0.449   3.385  0.5510 -0.0158 -0.0277
 5672ntf    fn428371   5.219   0.578   3.431  0.4773  0.4122 -0.1320
 5672ntf    fn428372   5.291   0.766   3.358 -0.0019  0.4041 -0.5243
 5672ntf    fn428373   5.083   0.728   3.346  0.3883  0.5374  0.9285
 5672ntf    on528374   5.126   0.484   3.172 -0.0649  0.4150  0.3835
 5672ntf    on528375   5.191   0.692   3.076  0.4394  0.0744 -0.5067
 5672ntf    on528376   5.533   0.378   3.126 -0.2006 -0.8367  0.0600
 5672ntf    on528377   5.338   0.307   3.257  0.6512 -0.5505 -0.4583
 5672ntf    fn428378   5.631   0.499   3.382  0.2483  0.7535  0.3597
 5672ntf    fn428379   5.446   0.541   3.455 -0.1162 -0.3818 -0.1428
 5672ntf    fn428380   5.511   0.344   3.465 -0.1973  0.1005  0.1464
 5673ntf    cn128381   7.078   6.825   3.008 -0.1456  0.1326  0.2894
 5673ntf    sn228382   7.004   6.867   3.169 -0.0603  0.1612  0.3206
 5673ntf    nn328383   6.868   6.925   3.117  0.0061  0.3735  0.3795
 5673ntf    sn228384   6.725   6.860   3.106  0.1941 -0.0214  0.2278
 5673ntf    cn128385   6.652   6.944   2.962  0.6513 -0.0569 -0.0254
 5673ntf    fn428386   7.009   6.738   2.936  0.5577 -0.2953  0.1260
 5673ntf    fn428387   7.077   6.936   2.935  0.6924 -0.0428  0.0090
 5673ntf    fn428388   7.203   6.786   3.023 -0.1784 -0.0347  0.1242
 5673ntf    on528389   7.007   6.740   3.238  0.0125  0.0341  0.0843
 5673ntf    on528390   7.088   6.976   3.213  0.8085 -0.1053 -0.6280
 5673ntf    on528391   6.645   6.905   3.218 -0.0204 -0.4426  0.2455
 5673ntf    on528392   6.725   6.720   3.073  0.3507  0.0045  0.1158
 5673ntf    fn428393   6.520   6.939   2.967  0.6523  0.4591  0.7120
 5673ntf    fn428394   6.671   7.075   2.960  0.5107 -0.0350  0.0432
 5673ntf    fn428395   6.691   6.897   2.844  0.0350  0.3188 -0.3842
 5674ntf    cn128396   0.248   5.737   1.089  0.1394  0.0682 -0.1594
 5674ntf    sn228397   0.146   5.590   1.052 -0.0751  0.1456  0.1286
 5674ntf    nn328398   0.218   5.546   0.920 -0.5452  0.0076 -0.0836
 5674ntf    sn228399   0.354   5.468   0.904 -0.4021  0.2122  0.1166
 5674ntf    cn128400   0.283   5.301   0.912  0.0854  0.0095  0.1864
 5674ntf    fn428401   0.178   5.821   1.163  0.4183  0.2380 -0.0891
 5674ntf    fn428402   0.366   5.722   1.146 -0.0400  0.2677  0.2624
 5674ntf    fn428403   0.277   5.788   0.970 -0.0957 -0.5149 -0.4760
 5674ntf    on528404   0.150   5.510   1.172  0.1339 -0.5309 -0.3291
 5674ntf    on528405   0.016   5.648   1.027 -0.0208  0.0369 -0.4102
 5674ntf    on528406   0.445   5.478   1.015 -0.0673 -0.5720 -0.0783
 5674ntf    on528407   0.401   5.478   0.768  1.2398  0.1015  0.6564
 5674ntf    fn428408   0.189   5.283   0.821 -0.1509 -0.2821  0.4868
 5674ntf    fn428409   0.370   5.202   0.895 -0.1773 -0.1616 -0.1630
 5674ntf    fn428410   0.234   5.275   1.032  0.6416 -0.3055  0.3528
 5675ntf    cn128411   5.133   6.791   7.363 -0.2638  0.1870  0.0675
 5675ntf    sn228412   5.076   6.803   7.536 -0.0609 -0.0793  0.1527
 5675ntf    nn328413   5.224   6.799   7.589 -0.1619  0.0509  0.4423
 5675ntf    sn228414   5.321   6.916   7.627  0.1259 -0.0182 -0.0764
 5675ntf    cn128415   5.293   6.955   7.802 -0.1411  0.3094 -0.1889
 5675ntf    fn428416   5.236   6.873   7.349 -0.3629  0.2202 -0.4875
 5675ntf    fn428417   5.182   6.672   7.334  0.0991  0.2967  0.2269
 5675ntf    fn428418   5.037   6.812   7.274  0.1760 -0.2833 -0.5268
 5675ntf    on528419   5.003   6.926   7.553  0.2271  0.2182 -0.7085
 5675ntf    on528420   5.001   6.681   7.555 -0.4267  0.1160 -0.0254
 5675ntf    on528421   5.309   7.045   7.562  0.2890 -0.1926 -0.4544
 5675ntf    on528422   5.457   6.868   7.623  0.2162  0.2818 -0.7566
 5675ntf    fn428423   5.348   7.068   7.843 -0.0798 -0.0569  0.7616
 5675ntf    fn428424   5.164   6.982   7.814 -0.2613 -0.1547 -0.4305
 5675ntf    fn428425   5.322   6.863   7.893  0.1503  0.3890 -0.1996
 5676ntf    cn128426   5.567   4.550   5.700 -0.2928 -0.2305 -0.3451
 5676ntf    sn228427   5.426   4.559   5.814 -0.1410  0.1203 -0.1817
 5676ntf    nn328428   5.503   4.606   5.942  0.0893 -0.2834 -0.1719
 5676ntf    sn228429   5.574   4.511   6.045  0.3023  0.0402 -0.0159
 5676ntf    cn128430   5.702   4.626   6.101 -0.0274  0.3959  0.0146
 5676ntf    fn428431   5.595   4.675   5.667  0.1869 -0.2283  0.0526
 5676ntf    fn428432   5.678   4.485   5.728 -0.4851 -0.2004  0.5275
 5676ntf    fn428433   5.519   4.497   5.588  0.2393 -0.3338 -0.5280
 5676ntf    on528434   5.338   4.656   5.752 -0.1446  0.5052  0.4141
 5676ntf    on528435   5.384   4.421   5.820  0.7621 -0.1189  0.7918
 5676ntf    on528436   5.646   4.399   5.990  0.6728  0.4474 -0.3586
 5676ntf    on528437   5.491   4.492   6.162  0.0774  0.0600 -0.1708
 5676ntf    fn428438   5.657   4.738   6.156  0.0365  0.5128 -0.1707
 5676ntf    fn428439   5.781   4.572   6.193 -0.5608 -0.1914  0.1326
 5676ntf    fn428440   5.779   4.665   6.001  0.4570 -0.4187  0.0617
 5677ntf    cn128441   2.162   2.624   2.865  0.0231 -0.3063  0.4429
 5677ntf    sn228442   2.236   2.623   2.699 -0.1637  0.2025  0.3539
 5677ntf    nn328443   2.226   2.468   2.673 -0.4728  0.2198  0.3596
 5677ntf    sn228444   2.347   2.373   2.704 -0.1363  0.4753 -0.1569
 5677ntf    cn128445   2.456   2.409   2.563 -0.1522  0.0924 -0.2691
 5677ntf    fn428446   2.223   2.541   2.948 -0.3187 -0.1652  0.8392
 5677ntf    fn428447   2.168   2.748   2.913  0.2909 -0.1017 -0.1037
 5677ntf    fn428448   2.035   2.589   2.858  0.0470 -0.2913 -0.1227
 5677ntf    on528449   2.148   2.696   2.612  0.3225 -0.2945 -0.5700
 5677ntf    on528450   2.370   2.676   2.709 -0.0492 -0.0767  0.3115
 5677ntf    on528451   2.310   2.236   2.677 -0.0782  0.4747 -0.2338
 5677ntf    on528452   2.422   2.391   2.826  0.2358 -0.1472 -0.2872
 5677ntf    fn428453   2.407   2.364   2.449 -0.0278 -0.2188 -0.2017
 5677ntf    fn428454   2.476   2.539   2.549 -0.1952  0.1386  0.0825
 5677ntf    fn428455   2.578   2.358   2.572 -0.0588  0.2702 -0.5180
 5678ntf    cn128456   5.338   1.011   1.581 -0.2136 -0.0244  0.2487
 5678ntf    sn228457   5.244   0.920   1.707 -0.0792  0.0388  0.3958
 5678ntf    nn328458   5.330   0.947   1.835  0.4150  0.4071 -0.0075
 5678ntf    sn228459   5.442   0.852   1.892 -0.0140 -0.2124 -0.1806
 5678ntf    cn128460   5.385   0.829   2.063 -0.2488 -0.1064 -0.2443
 5678ntf    fn428461   5.269   1.021   1.469  0.0368 -0.3011  0.0699
 5678ntf    fn428462   5.374   1.134   1.615 -0.2637  0.0217  0.1332
 5678ntf    fn428463   5.455   0.955   1.552  0.0866  0.7422 -0.0653
 5678ntf    on528464   5.113   0.979   1.721  0.0193  0.2636  0.3776
 5678ntf    on528465   5.237   0.785   1.658  0.2972  0.1748 -0.0413
 5678ntf    on528466   5.568   0.920   1.910 -0.0251 -0.2805  0.1628
 5678ntf    on528467   5.446   0.713   1.855 -0.0313 -0.3799  0.4330
 5678ntf    fn428468   5.253   0.826   2.074 -0.2537 -0.3015 -0.3503
 5678ntf    fn428469   5.436   0.721   2.119 -0.3878 -0.1793 -0.2591
 5678ntf    fn428470   5.425   0.927   2.143 -0.2311 -0.0563 -0.3151
 5679ntf    cn128471   5.179   0.487   5.251  0.0646 -0.1142  0.1803
 5679ntf    sn228472   5.044   0.367   5.230  0.0297 -0.0892  0.2674
 5679ntf    nn328473   4.954   0.411   5.351 -0.0216  0.3219  0.0817
 5679ntf    sn228474   4.978   0.371   5.501  0.0759 -0.2777 -0.0919
 5679ntf    cn128475   4.866   0.229   5.516 -0.0898 -0.1076  0.2802
 5679ntf    fn428476   5.273   0.458   5.163 -0.0333  0.1308 -0.0062
 5679ntf    fn428477   5.141   0.613   5.233  0.3303 -0.0977 -0.2960
 5679ntf    fn428478   5.234   0.476   5.371 -0.4527  0.3537  0.4668
 5679ntf    on528479   4.986   0.406   5.104 -0.1826 -0.6236  0.1974
 5679ntf    on528480   5.093   0.232   5.236 -0.6043 -0.3472 -0.2400
 5679ntf    on528481   4.929   0.474   5.589  0.1241  0.0381 -0.4314
 5679ntf    on528482   5.106   0.312   5.530 -0.1955 -0.6153  0.4296
 5679ntf    fn428483   4.870   0.177   5.638 -0.1554 -0.3332  0.1870
 5679ntf    fn428484   4.739   0.264   5.498 -0.0255  0.2320  0.4665
 5679ntf    fn428485   4.884   0.133   5.428  0.2191 -0.2254  0.4699
 5680ntf    cn128486   3.058   6.350   3.794  0.1204  0.0196 -0.2732
 5680ntf    sn228487   2.908   6.416   3.715 -0.1809 -0.4073 -0.0650
 5680ntf    nn328488   2.792   6.365   3.807 -0.0150 -0.1376  0.2945
 5680ntf    sn228489   2.666   6.281   3.768 -0.1960  0.1084  0.3513
 5680ntf    cn128490   2.728   6.111   3.783  0.1775  0.2077 -0.0719
 5680ntf    fn428491   3.089   6.419   3.903  0.2130  0.1954 -0.4105
 5680ntf    fn428492   3.039   6.223   3.826  0.0597 -0.0102 -0.4277
 5680ntf    fn428493   3.157   6.360   3.707  0.3491  0.0698 -0.0102
 5680ntf    on528494   2.933   6.558   3.728  0.5688 -0.6101  0.8142
 5680ntf    on528495   2.924   6.348   3.588  0.0960  0.0148 -0.2600
 5680ntf    on528496   2.623   6.308   3.633  0.2593  0.7127  0.3254
 5680ntf    on528497   2.563   6.286   3.870  0.0274  0.1450  0.5768
 5680ntf    fn428498   2.809   6.098   3.887  0.1084 -0.5664 -0.1115
 5680ntf    fn428499   2.635   6.020   3.805  0.4772 -0.1456 -0.2434
 5680ntf    fn428500   2.801   6.068   3.681  0.3810 -0.5649  0.3870
 5681ntf    cn128501   1.623   2.107   1.989 -0.1547  0.0883 -0.1006
 5681ntf    sn228502   1.734   1.988   2.069 -0.1767  0.1038 -0.0471
 5681ntf    nn328503   1.725   1.862   1.976 -0.2522  0.1508 -0.1036
 5681ntf    sn228504   1.795   1.847   1.836  0.4025 -0.3093  0.2697
 5681ntf    cn128505   1.956   1.796   1.904  0.5148 -0.2621  0.0388
 5681ntf    fn428506   1.655   2.140   1.865  0.1061 -0.0504 -0.0710
 5681ntf    fn428507   1.495   2.073   1.990 -0.2019  0.2682  0.0245
 5681ntf    fn428508   1.628   2.221   2.056 -0.2914  0.3600 -0.5491
 5681ntf    on528509   1.860   2.059   2.069  0.2770 -0.6882  0.4112
 5681ntf    on528510   1.671   1.970   2.198  0.2456 -0.4205  0.0881
 5681ntf    on528511   1.836   1.968   1.771 -0.0057 -0.4384 -0.2299
 5681ntf    on528512   1.759   1.726   1.766  0.3958 -0.2843  0.2299
 5681ntf    fn428513   2.045   1.747   1.819  0.7621  0.2736 -0.0152
 5681ntf    fn428514   2.022   1.896   1.961  0.0993 -0.0947  0.2268
 5681ntf    fn428515   1.942   1.700   1.994 -0.2307 -0.4974 -0.3235
 5682ntf    cn128516   4.931   5.497   4.092  0.4703 -0.0424  0.2442
 5682ntf    sn228517   4.862   5.332   4.062 -0.0277  0.1945  0.0650
 5682ntf    nn328518   4.763   5.363   3.945 -0.0967  0.2566  0.1399
 5682ntf    sn228519   4.780   5.336   3.791  0.2983  0.4091  0.1561
 5682ntf    cn128520   4.748   5.157   3.785  0.4298  0.3837  0.2038
 5682ntf    fn428521   4.837   5.572   4.146 -0.3586 -0.7340 -0.2186
 5682ntf    fn428522   5.040   5.488   4.167  0.5968 -0.0272  0.0628
 5682ntf    fn428523   4.967   5.564   3.983  0.5072  0.1861  0.3969
 5682ntf    on528524   4.979   5.254   4.028 -0.4910 -0.5527  0.1603
 5682ntf    on528525   4.790   5.302   4.183  0.4191  0.0617  0.2999
 5682ntf    on528526   4.914   5.360   3.743  0.4887  0.2764  0.6141
 5682ntf    on528527   4.672   5.390   3.713  0.2576 -0.3782 -0.3465
 5682ntf    fn428528   4.821   5.089   3.872  0.2008 -0.4359 -0.2358
 5682ntf    fn428529   4.624   5.128   3.820  0.4638 -0.1567 -0.1009
 5682ntf    fn428530   4.769   5.103   3.666  0.0021  0.2025  0.2062
 5683ntf    cn128531   0.065   7.372   5.566 -0.2508  0.4293 -0.0140
 5683ntf    sn228532  -0.109   7.349   5.520 -0.1735 -0.1749 -0.0165
 5683ntf    nn328533  -0.119   7.349   5.363  0.0101  0.1859 -0.0290
 5683ntf    sn228534  -0.087   7.469   5.267 -0.0987  0.3337  0.1176
 5683ntf    cn128535  -0.251   7.544   5.244  0.0542  0.6041 -0.0909
 5683ntf    fn428536   0.145   7.313   5.478 -0.4970  0.6070 -0.3635
 5683ntf    fn428537   0.107   7.497   5.556  0.4142  0.2322  0.2548
 5683ntf    fn428538   0.094   7.325   5.686 -0.3574 -0.3473 -0.2862
 5683ntf    on528539  -0.135   7.222   5.582 -0.4836 -0.4878 -0.7859
 5683ntf    on528540  -0.164   7.469   5.580 -0.1451 -0.3089  0.2803
 5683ntf    on528541  -0.063   7.414   5.136  0.2489 -0.3799  0.4777
 5683ntf    on528542   0.005   7.570   5.313  0.0905  0.2477 -0.0708
 5683ntf    fn428543  -0.259   7.617   5.134  0.0481  0.5368 -0.1351
 5683ntf    fn428544  -0.346   7.453   5.228 -0.0999  0.6287  0.6882
 5683ntf    fn428545  -0.289   7.615   5.348  0.1263 -0.2099  0.5035
 5684ntf    cn128546   5.797   0.779   4.585  0.0312  0.4903 -0.0350
 5684ntf    sn228547   5.962   0.774   4.509 -0.0074  0.2113 -0.1003
 5684ntf    nn328548   5.926   0.750   4.358 -0.6441 -0.2773  0.1252
 5684ntf    sn228549   5.939   0.621   4.269  0.9348 -0.1905  0.2058
 5684ntf    cn128550   5.762   0.594   4.237  0.9166  0.2211 -0.0598
 5684ntf    fn428551   5.725   0.675   4.547 -0.0067  0.5657 -0.1700
 5684ntf    fn428552   5.785   0.798   4.716  0.4839  0.4758  0.0092
 5684ntf    fn428553   5.736   0.882   4.528  0.1813  0.2073 -0.7080
 5684ntf    on528554   6.017   0.905   4.531  0.3876 -0.0549  0.5265
 5684ntf    on528555   6.025   0.664   4.577 -0.0257  0.6039  0.5599
 5684ntf    on528556   5.982   0.506   4.345  0.1617 -0.2798  0.5112
 5684ntf    on528557   5.992   0.632   4.135  0.2546  0.1736 -0.0374
 5684ntf    fn428558   5.754   0.515   4.132  0.9042 -0.0107  0.1123
 5684ntf    fn428559   5.697   0.540   4.339  0.6325  0.0599 -0.3265
 5684ntf    fn428560   5.703   0.709   4.212  0.0862 -0.3134 -0.6016
 5685ntf    cn128561   6.835   4.528   5.623  0.0768  0.3136  0.5210
 5685ntf    sn228562   6.790   4.666   5.513  0.0801  0.1170  0.2699
 5685ntf    nn328563   6.639   4.634   5.483  0.1820 -0.2169  0.1113
 5685ntf    sn228564   6.575   4.603   5.343 -0.0509 -0.0953  0.1893
 5685ntf    cn128565   6.407   4.627   5.407 -0.2127 -0.1084 -0.2286
 5685ntf    fn428566   6.965   4.508   5.623  0.0640  0.1896 -0.3130
 5685ntf    fn428567   6.794   4.547   5.747 -0.4506  0.3544  0.3439
 5685ntf    fn428568   6.786   4.410   5.587 -0.4056  0.7291 -0.2365
 5685ntf    on528569   6.816   4.787   5.588 -0.6660  0.3550  0.1520
 5685ntf    on528570   6.875   4.655   5.397 -0.2960  0.1112 -0.0082
 5685ntf    on528571   6.574   4.466   5.300 -0.2287 -0.0917  0.1851
 5685ntf    on528572   6.596   4.713   5.252 -0.7222  0.1314  0.3066
 5685ntf    fn428573   6.331   4.695   5.323 -0.0107  0.3185 -0.0710
 5685ntf    fn428574   6.341   4.512   5.418 -0.0833 -0.1648 -0.0354
 5685ntf    fn428575   6.398   4.689   5.524  0.1745 -0.3645 -0.0613
 5686ntf    cn128576   1.873   5.563   6.876 -0.1017 -0.4201 -0.4076
 5686ntf    sn228577   1.941   5.718   6.942 -0.2944 -0.3693 -0.3273
 5686ntf    nn328578   2.096   5.701   6.922 -0.2061  0.3082 -0.2356
 5686ntf    sn228579   2.216   5.745   7.013 -0.0237 -0.0137 -0.3223
 5686ntf    cn128580   2.325   5.600   6.996  0.0726  0.0696 -0.4271
 5686ntf    fn428581   1.900   5.549   6.747  0.6698 -0.2412 -0.2696
 5686ntf    fn428582   1.925   5.458   6.937 -0.1181 -0.0996  0.1683
 5686ntf    fn428583   1.742   5.551   6.890  0.0017 -0.8568  0.2283
 5686ntf    on528584   1.885   5.814   6.850 -0.2490  0.1105  0.1405
 5686ntf    on528585   1.903   5.721   7.081  0.6782 -0.1731 -0.0563
 5686ntf    on528586   2.198   5.753   7.155 -0.1046  0.5953 -0.3632
 5686ntf    on528587   2.296   5.847   6.948  0.1625  0.0918  0.0717
 5686ntf    fn428588   2.401   5.621   6.890  0.0538 -0.3579 -0.5290
 5686ntf    fn428589   2.402   5.572   7.100 -0.2144 -0.2505 -0.2986
 5686ntf    fn428590   2.259   5.487   6.975  0.0614  0.0100 -0.0706
 5687ntf    cn128591   6.246   3.139   2.276 -0.4768  0.2058 -0.1707
 5687ntf    sn228592   6.085   3.087   2.209 -0.3470 -0.1279 -0.2266
 5687ntf    nn328593   5.991   3.165   2.307  0.3021  0.2239  0.1239
 5687ntf    sn228594   5.946   3.122   2.452 -0.4436 -0.1574 -0.2178
 5687ntf    cn128595   5.794   3.029   2.414 -0.4468 -0.3871  0.3478
 5687ntf    fn428596   6.347   3.093   2.203 -0.0066  0.1298  0.5186
 5687ntf    fn428597   6.255   3.271   2.262  0.1283  0.1916  0.0253
 5687ntf    fn428598   6.265   3.109   2.403 -0.0731  0.0101 -0.2744
 5687ntf    on528599   6.081   3.147   2.078  0.0577  0.5114  0.0456
 5687ntf    on528600   6.096   2.944   2.213  0.3426 -0.0641  0.4706
 5687ntf    on528601   5.899   3.233   2.529  0.0770  0.1298 -0.3087
 5687ntf    on528602   6.028   3.025   2.521 -0.2019 -0.2340 -0.6070
 5687ntf    fn428603   5.731   2.991   2.524 -0.0753 -0.1683  0.6414
 5687ntf    fn428604   5.710   3.107   2.348 -0.3511 -0.1851  0.4627
 5687ntf    fn428605   5.818   2.922   2.341  0.3326 -0.1160  0.1954
 5688ntf    cn128606   0.468   5.057   0.492 -0.0199 -0.1216  0.1328
 5688ntf    sn228607   0.616   5.093   0.393 -0.0751 -0.0586  0.0723
 5688ntf    nn328608   0.563   5.211   0.305  0.4868 -0.0988 -0.3249
 5688ntf    sn228609   0.607   5.361   0.304 -0.5009  0.1989 -0.2415
 5688ntf    cn128610   0.761   5.352   0.209 -0.4340  0.0679 -0.1217
 5688ntf    fn428611   0.443   5.153   0.579  0.4411 -0.2128  0.3694
 5688ntf    fn428612   0.356   5.042   0.424  0.3579  0.2211 -0.5719
 5688ntf    fn428613   0.496   4.952   0.568  0.0398  0.1699  0.5144
 5688ntf    on528614   0.722   5.113   0.490 -0.2218  0.6129  0.0962
 5688ntf    on528615   0.627   4.976   0.309 -0.1393 -0.2515  0.3314
 5688ntf    on528616   0.651   5.411   0.433  0.5704  0.4257 -0.6830
 5688ntf    on528617   0.526   5.443   0.217  0.1507  0.1081 -0.9405
 5688ntf    fn428618   0.757   5.270   0.105  0.2904  0.1641 -0.2365
 5688ntf    fn428619   0.796   5.473   0.166 -0.3636 -0.0416 -0.3775
 5688ntf    fn428620   0.873   5.325   0.275 -0.5047  0.2712  0.0795
 5689ntf    cn128621   2.388   1.768   1.821 -0.4494  0.0334 -0.1837
 5689ntf    sn228622   2.397   1.817   1.996 -0.2019 -0.1615 -0.1413
 5689ntf    nn328623   2.551   1.847   2.011 -0.2792 -0.1827  0.6901
 5689ntf    sn228624   2.614   1.955   2.106  0.1541  0.2726 -0.1121
 5689ntf    cn128625   2.684   1.837   2.224  0.1480  0.1693 -0.2115
 5689ntf    fn428626   2.410   1.878   1.751  0.2073  0.0754  0.0817
 5689ntf    fn428627   2.487   1.684   1.794 -0.5243 -0.0693 -0.1371
 5689ntf    fn428628   2.273   1.715   1.782  0.0669 -0.6752 -0.7752
 5689ntf    on528629   2.299   1.922   2.003 -0.2260 -0.2032  0.1558
 5689ntf    on528630   2.358   1.699   2.068  0.1335 -0.1860  0.0008
 5689ntf    on528631   2.524   2.038   2.182 -0.0136 -0.0907  0.0885
 5689ntf    on528632   2.732   2.014   2.048  0.1749  0.1232 -0.2234
 5689ntf    fn428633   2.807   1.802   2.190  0.3427  0.4492  0.1966
 5689ntf    fn428634   2.692   1.899   2.341 -0.1106  0.0279 -0.1185
 5689ntf    fn428635   2.611   1.727   2.234 -0.2280  0.4306 -0.0498
 5690ntf    cn128636   7.324   5.521   2.139  0.6088 -0.2412 -0.4474
 5690ntf    sn228637   7.309   5.344   2.098 -0.1272 -0.3065  0.0873
 5690ntf    nn328638   7.446   5.288   2.149 -0.2262 -0.5190  0.1178
 5690ntf    sn228639   7.586   5.274   2.080 -0.2193 -0.0542  0.0375
 5690ntf    cn128640   7.690   5.310   2.225  0.3120 -0.2159 -0.2992
 5690ntf    fn428641   7.326   5.537   2.271  0.1075 -0.1410 -0.4495
 5690ntf    fn428642   7.444   5.572   2.116  0.5942  0.0697  0.1353
 5690ntf    fn428643   7.222   5.593   2.098  0.3280 -0.4380 -0.1053
 5690ntf    on528644   7.190   5.299   2.167 -0.2174  0.0138  0.1438
 5690ntf    on528645   7.297   5.353   1.955 -0.0547 -0.0974  0.0935
 5690ntf    on528646   7.623   5.380   1.989 -0.0224  0.2654  0.4810
 5690ntf    on528647   7.609   5.136   2.045  0.0121  0.0447 -0.2041
 5690ntf    fn428648   7.698   5.207   2.308  0.2162  0.1420  0.1580
 5690ntf    fn428649   7.814   5.338   2.188  0.4973 -0.8851 -0.1979
 5690ntf    fn428650   7.642   5.413   2.293  0.0244 -0.4321 -0.1709
 5691ntf    cn128651   3.566   1.940   3.491  0.0187  0.0292 -0.0160
 5691ntf    sn228652   3.496   2.096   3.429 -0.0136 -0.0730 -0.2383
 5691ntf    nn328653   3.479   2.072   3.274  0.1119 -0.7416 -0.1520
 5691ntf    sn228654   3.569   2.115   3.153 -0.0933 -0.0138 -0.0506
 5691ntf    cn128655   3.516   2.002   3.021 -0.6930 -0.0471  0.2161
 5691ntf    fn428656   3.511   1.835   3.433 -0.0118 -0.1278  0.2991
 5691ntf    fn428657   3.698   1.934   3.475  0.0854  0.8315  0.1646
 5691ntf    fn428658   3.541   1.931   3.620  0.0386  0.1569 -0.0026
 5691ntf    on528659   3.365   2.115   3.485  0.2741  0.5763  0.2246
 5691ntf    on528660   3.601   2.186   3.470  0.5579 -0.3523 -1.0456
 5691ntf    on528661   3.708   2.079   3.166 -0.1210  0.0635  0.4892
 5691ntf    on528662   3.534   2.247   3.105  0.1930  0.2424  0.4354
 5691ntf    fn428663   3.386   1.977   3.018 -0.6205 -0.4436  0.3412
 5691ntf    fn428664   3.549   2.040   2.899 -0.5193 -0.4598  0.1349
 5691ntf    fn428665   3.578   1.886   3.033  0.2775  0.4341 -0.0571
 5692ntf    cn128666   5.057   6.656   1.036 -0.1758 -0.0787 -0.0942
 5692ntf    sn228667   4.891   6.698   1.098 -0.1081  0.0128  0.0245
 5692ntf    nn328668   4.895   6.611   1.229  0.0621  0.0733  0.0589
 5692ntf    sn228669   4.855   6.462   1.255 -0.2201  0.1643  0.1456
 5692ntf    cn128670   4.713   6.492   1.364 -0.1062  0.3366  0.2459
 5692ntf    fn428671   5.160   6.699   1.107 -0.4167  0.2716  0.0447
 5692ntf    fn428672   5.073   6.524   1.036 -0.0314 -0.0618 -0.0253
 5692ntf    fn428673   5.078   6.693   0.911  0.2218  0.2995  0.0837
 5692ntf    on528674   4.906   6.837   1.131 -0.0813 -0.0770  0.3950
 5692ntf    on528675   4.797   6.654   0.998 -0.0479 -0.3029  0.1046
 5692ntf    on528676   4.948   6.386   1.335 -0.6329 -0.5308 -0.0213
 5692ntf    on528677   4.800   6.397   1.139  0.0783  0.2191 -0.0274
 5692ntf    fn428678   4.652   6.377   1.385 -0.0326  0.2742  0.1153
 5692ntf    fn428679   4.741   6.548   1.481 -0.2231 -0.3895  0.6245
 5692ntf    fn428680   4.626   6.572   1.304 -0.4639 -0.1925  0.0529
 5693ntf    cn128681   4.320   5.247   1.171  0.1213 -0.2726  0.1769
 5693ntf    sn228682   4.500   5.244   1.190  0.1445 -0.1118 -0.0241
 5693ntf    nn328683   4.525   5.398   1.207  0.6164 -0.2135  0.2262
 5693ntf    sn228684   4.646   5.490   1.168  0.0751  0.3176 -0.2201
 5693ntf    cn128685   4.577   5.554   1.012  0.3421  0.2019 -0.3880
 5693ntf    fn428686   4.280   5.147   1.093 -0.4351 -0.1100  0.2453
 5693ntf    fn428687   4.259   5.234   1.288 -0.0383 -0.0532  0.1190
 5693ntf    fn428688   4.278   5.359   1.116 -0.3036 -0.3898  0.2549
 5693ntf    on528689   4.523   5.164   1.307  0.0848  0.0144  0.0733
 5693ntf    on528690   4.555   5.193   1.066 -0.0990  0.0613 -0.2050
 5693ntf    on528691   4.770   5.424   1.133 -0.0070  0.0608 -0.0221
 5693ntf    on528692   4.663   5.609   1.247  0.7807  0.1384 -0.0962
 5693ntf    fn428693   4.653   5.652   0.968  0.7413 -0.0466 -0.2526
 5693ntf    fn428694   4.586   5.470   0.911 -0.1756 -0.2746 -0.0484
 5693ntf    fn428695   4.452   5.599   1.020  0.2854 -0.0547  0.3158
 5694ntf    cn128696   1.533   1.872   3.738 -0.2932 -0.0445 -0.2319
 5694ntf    sn228697   1.620   1.855   3.580  0.1596 -0.1319  0.0265
 5694ntf    nn328698   1.589   1.992   3.510 -0.4324 -0.3807 -0.2042
 5694ntf    sn228699   1.594   2.033   3.359 -0.1754  0.0626 -0.0771
 5694ntf    cn128700   1.416   2.031   3.324 -0.2037 -0.0378  0.0737
 5694ntf    fn428701   1.442   1.777   3.756  0.0858 -0.4023 -0.1880
 5694ntf    fn428702   1.615   1.865   3.842  0.6002 -0.4583 -0.9594
 5694ntf    fn428703   1.470   1.986   3.759  0.0741  0.0952  0.1106
 5694ntf    on528704   1.761   1.843   3.610  0.1266 -0.3518  0.0934
 5694ntf    on528705   1.558   1.741   3.517  0.0915 -0.4730  0.6995
 5694ntf    on528706   1.658   1.933   3.277  0.3988  0.1424  0.2674
 5694ntf    on528707   1.633   2.170   3.334 -0.1251 -0.0410 -0.5808
 5694ntf    fn428708   1.342   2.115   3.394  0.1143  0.1540  0.1813
 5694ntf    fn428709   1.394   2.067   3.199 -0.2424 -0.1292  0.0542
 5694ntf    fn428710   1.361   1.911   3.336  0.0221 -0.1472  0.0068
 5695ntf    cn128711   0.401   5.663   4.322  0.0659 -0.2003  0.0258
 5695ntf    sn228712   0.262   5.738   4.412  0.2349  0.2024 -0.0516
 5695ntf    nn328713   0.296   5.713   4.563  0.3937 -0.3016 -0.1701
 5695ntf    sn228714   0.234   5.615   4.670  0.1579  0.0877  0.0509
 5695ntf    cn128715   0.085   5.703   4.725  0.1429  0.0151  0.1250
 5695ntf    fn428716   0.517   5.708   4.366  0.0538 -0.7840  0.6711
 5695ntf    fn428717   0.407   5.534   4.350  0.4197 -0.2184 -0.1261
 5695ntf    fn428718   0.396   5.671   4.190  0.0961 -0.2631  0.0210
 5695ntf    on528719   0.285   5.877   4.379  0.1091  0.0745 -0.6833
 5695ntf    on528720   0.141   5.681   4.359 -0.0834  0.2521  0.6132
 5695ntf    on528721   0.312   5.612   4.791 -0.1919  0.5271  0.2908
 5695ntf    on528722   0.205   5.487   4.612 -0.2240  0.4022 -0.4645
 5695ntf    fn428723   0.108   5.807   4.804  0.4671  0.0945 -0.0761
 5695ntf    fn428724   0.014   5.750   4.623 -0.4143  0.0363  0.5154
 5695ntf    fn428725   0.011   5.618   4.796 -0.4187  0.3957 -0.0035
 5696ntf    cn128726   1.172   3.714   3.339 -0.2912  0.4693  0.6039
 5696ntf    sn228727   1.243   3.610   3.470  0.1425  0.1854  0.1442
 5696ntf    nn328728   1.393   3.656   3.467  0.2701 -0.2345 -0.0629
 5696ntf    sn228729   1.476   3.762   3.548  0.2120 -0.2309 -0.0082
 5696ntf    cn128730   1.643   3.689   3.543  0.1902 -0.2588 -0.3699
 5696ntf    fn428731   1.205   3.668   3.219 -0.2218  0.4407  0.6341
 5696ntf    fn428732   1.041   3.729   3.342 -0.3459  0.0984  0.1357
 5696ntf    fn428733   1.212   3.840   3.342 -0.0306  0.3845  0.6985
 5696ntf    on528734   1.167   3.649   3.585 -0.5841 -0.2843 -0.1686
 5696ntf    on528735   1.225   3.479   3.412  0.1389  0.4642 -0.5014
 5696ntf    on528736   1.441   3.763   3.688 -0.6837 -0.0544 -0.2286
 5696ntf    on528737   1.490   3.887   3.478 -0.2194  0.0843  0.4598
 5696ntf    fn428738   1.684   3.678   3.418  0.6260 -0.4462 -0.2129
 5696ntf    fn428739   1.735   3.759   3.608 -0.2611  0.2760 -0.3013
 5696ntf    fn428740   1.645   3.567   3.595  0.8011 -0.1575 -0.1508
 5697ntf    cn128741   3.440   1.547   5.226 -0.1363  0.2195  0.4002
 5697ntf    sn228742   3.607   1.613   5.251 -0.0127  0.1048 -0.0991
 5697ntf    nn328743   3.644   1.659   5.105  0.7745  0.4738  0.2080
 5697ntf    sn228744   3.738   1.601   4.994 -0.3030 -0.0359 -0.4536
 5697ntf    cn128745   3.625   1.570   4.855 -0.4792 -0.2545 -0.2639
 5697ntf    fn428746   3.353   1.641   5.191 -0.3045 -0.3253 -0.7136
 5697ntf    fn428747   3.431   1.458   5.128 -0.1620  0.6106  0.0435
 5697ntf    fn428748   3.388   1.491   5.333 -0.0247 -0.2678  0.2026
 5697ntf    on528749   3.595   1.725   5.342 -0.8819  0.6156 -0.8260
 5697ntf    on528750   3.682   1.505   5.309  0.6464  0.2645 -0.6470
 5697ntf    on528751   3.794   1.472   5.025 -0.4530  0.0042 -0.0073
 5697ntf    on528752   3.827   1.702   4.943 -0.0664 -0.0405 -0.0491
 5697ntf    fn428753   3.514   1.520   4.908 -0.3742 -0.0085  0.1922
 5697ntf    fn428754   3.595   1.683   4.792  0.7887  0.3496  0.1864
 5697ntf    fn428755   3.669   1.479   4.769  0.6912  0.2444 -0.2134
 5698ntf    cn128756   4.651   2.120   2.934  0.1781  0.3226  0.0842
 5698ntf    sn228757   4.683   1.967   2.842 -0.2825  0.3138 -0.0640
 5698ntf    nn328758   4.734   2.026   2.706 -0.4782  0.2094 -0.1826
 5698ntf    sn228759   4.648   2.090   2.591 -0.3427  0.0617 -0.3682
 5698ntf    cn128760   4.665   1.962   2.463 -0.0146 -0.3667  0.0974
 5698ntf    fn428761   4.624   2.097   3.062  0.1455  0.2614  0.0663
 5698ntf    fn428762   4.755   2.202   2.935  0.0125  0.5330  0.8074
 5698ntf    fn428763   4.544   2.180   2.885  0.0911 -0.1048 -0.2485
 5698ntf    on528764   4.796   1.924   2.921 -0.5748 -0.4407 -0.0477
 5698ntf    on528765   4.559   1.894   2.848 -0.0641 -0.0310  0.2875
 5698ntf    on528766   4.704   2.208   2.530  0.2180  0.2298  0.4540
 5698ntf    on528767   4.507   2.100   2.619 -0.1347  0.2293  0.6520
 5698ntf    fn428768   4.574   1.869   2.487  0.0902 -0.6114 -0.4385
 5698ntf    fn428769   4.635   2.016   2.346  0.4300 -0.3460 -0.0061
 5698ntf    fn428770   4.783   1.904   2.452  0.2910  0.2955 -0.1531
 5699ntf    cn128771   5.255   4.982   1.768 -0.1731 -0.1504 -0.0234
 5699ntf    sn228772   5.214   4.840   1.663 -0.3923 -0.0433 -0.0825
 5699ntf    nn328773   5.352   4.766   1.665 -0.3026  0.1242 -0.1242
 5699ntf    sn228774   5.390   4.631   1.595  0.2015  0.0649  0.2573
 5699ntf    cn128775   5.445   4.677   1.428 -0.4746  0.0925  0.0415
 5699ntf    fn428776   5.163   5.077   1.775 -0.0300 -0.0742  1.0424
 5699ntf    fn428777   5.261   4.933   1.891  0.2960 -0.3939 -0.1441
 5699ntf    fn428778   5.367   5.040   1.728 -0.1933 -0.2233 -0.1858
 5699ntf    on528779   5.106   4.771   1.730 -0.5641  0.7638  0.4893
 5699ntf    on528780   5.185   4.905   1.537 -0.6373  0.0800  0.0368
 5699ntf    on528781   5.277   4.545   1.576  0.3734 -0.2096  0.4763
 5699ntf    on528782   5.509   4.574   1.653  0.5688  0.1500 -0.3953
 5699ntf    fn428783   5.351   4.742   1.361 -0.2996  0.2999 -0.0035
 5699ntf    fn428784   5.552   4.755   1.430 -0.2527 -0.1964 -0.3427
 5699ntf    fn428785   5.473   4.564   1.364 -0.2681  0.0590  0.1917
 5700ntf    cn128786   5.345   7.218   4.531  0.4515 -0.0310  0.2910
 5700ntf    sn228787   5.258   7.108   4.416  0.5379  0.3478 -0.1378
 5700ntf    nn328788   5.336   6.973   4.438  0.0261  0.1458  0.4733
 5700ntf    sn228789   5.308   6.836   4.509  0.2251  0.1619  0.5819
 5700ntf    cn128790   5.460   6.829   4.610  0.4113  0.0639  0.2949
 5700ntf    fn428791   5.317   7.345   4.505  0.2686 -0.2627 -0.6830
 5700ntf    fn428792   5.315   7.187   4.656 -0.1333 -0.7087 -0.0096
 5700ntf    fn428793   5.474   7.193   4.513  0.3951 -0.0655 -0.0766
 5700ntf    on528794   5.122   7.116   4.463  0.1615  0.3411 -1.2070
 5700ntf    on528795   5.276   7.167   4.286 -0.4292 -0.1555 -0.5111
 5700ntf    on528796   5.319   6.731   4.411 -0.4518  0.2588  0.3972
 5700ntf    on528797   5.196   6.829   4.600  0.0901  0.2708  0.4247
 5700ntf    fn428798   5.461   6.922   4.704 -0.1096 -0.0330  0.4025
 5700ntf    fn428799   5.461   6.720   4.684  0.3055 -0.0802  0.0858
 5700ntf    fn428800   5.571   6.842   4.539  0.5401 -0.2979  0.4295
 5701ntf    cn128801   6.115   1.881   5.909  0.1847 -0.6320 -0.3638
 5701ntf    sn228802   6.088   1.704   5.876 -0.1605 -0.6070 -0.2237
 5701ntf    nn328803   6.170   1.687   5.743  0.2179  0.5094 -0.1419
 5701ntf    sn228804   6.133   1.648   5.596 -0.0293  0.0724  0.0367
 5701ntf    cn128805   6.234   1.497   5.595  0.2772  0.2791 -0.0961
 5701ntf    fn428806   6.239   1.925   5.900 -0.2273  0.5513 -0.4529
 5701ntf    fn428807   6.043   1.955   5.825 -0.5238 -0.6916  0.1876
 5701ntf    fn428808   6.077   1.913   6.031 -0.0589  0.3572 -0.6913
 5701ntf    on528809   6.144   1.631   5.988 -0.0063  0.0472  0.1315
 5701ntf    on528810   5.945   1.701   5.865 -0.1751 -0.2358 -0.1531
 5701ntf    on528811   6.194   1.728   5.493  0.5775  0.0246  0.3583
 5701ntf    on528812   6.001   1.594   5.573 -0.0998  0.1805  0.1890
 5701ntf    fn428813   6.224   1.424   5.485 -0.2637  0.4112 -0.1363
 5701ntf    fn428814   6.363   1.528   5.595  0.3378  0.0215 -0.3144
 5701ntf    fn428815   6.213   1.419   5.700 -0.3885  0.1236 -0.3423
 5702ntf    cn128816   2.845   2.508   6.033  0.0942 -0.1162 -0.3066
 5702ntf    sn228817   2.680   2.438   6.063  0.0822  0.0781  0.0919
 5702ntf    nn328818   2.596   2.530   5.966  0.2478  0.3995  0.2513
 5702ntf    sn228819   2.442   2.560   5.965  0.1857  0.0793 -0.1431
 5702ntf    cn128820   2.410   2.451   5.823  0.5211  0.1278 -0.2570
 5702ntf    fn428821   2.874   2.508   5.904 -0.2648  0.1005 -0.3892
 5702ntf    fn428822   2.868   2.631   6.075 -0.2858  0.0116 -0.4726
 5702ntf    fn428823   2.943   2.439   6.091 -0.0056 -0.0408 -0.0449
 5702ntf    on528824   2.699   2.299   6.029 -0.1004  0.1537 -0.3257
 5702ntf    on528825   2.652   2.466   6.202 -0.1769  0.0102  0.0545
 5702ntf    on528826   2.416   2.695   5.922 -0.6658 -0.1084 -0.2289
 5702ntf    on528827   2.361   2.512   6.074  0.2240 -0.4627 -0.3502
 5702ntf    fn428828   2.422   2.325   5.861 -0.2895  0.1661  0.1475
 5702ntf    fn428829   2.285   2.467   5.783  0.4637  0.9686  0.2515
 5702ntf    fn428830   2.496   2.473   5.725  0.5375 -0.0354 -0.2804
 5703ntf    cn128831   2.091   3.749   2.725  0.2710 -0.1528 -0.2115
 5703ntf    sn228832   2.213   3.884   2.727 -0.0949  0.1785  0.1080
 5703ntf    nn328833   2.142   3.988   2.820 -0.0109  0.1003  0.2593
 5703ntf    sn228834   2.120   4.004   2.975 -0.0244 -0.2017  0.2889
 5703ntf    cn128835   2.230   4.140   3.023  0.0425 -0.2658  0.3176
 5703ntf    fn428836   2.118   3.656   2.635 -0.2998 -0.4719 -0.0616
 5703ntf    fn428837   2.093   3.675   2.835  0.6034  0.1050 -0.0402
 5703ntf    fn428838   1.972   3.800   2.700  0.1017 -0.4343  0.0238
 5703ntf    on528839   2.333   3.822   2.779 -0.2192  0.0957  0.3000
 5703ntf    on528840   2.217   3.937   2.593 -0.3283 -0.5116 -0.1783
 5703ntf    on528841   2.171   3.894   3.053 -0.1669 -0.3220  0.2140
 5703ntf    on528842   1.987   4.054   2.997  0.3048  0.6783  0.3181
 5703ntf    fn428843   2.358   4.108   3.010  0.2183  0.7090 -0.5071
 5703ntf    fn428844   2.222   4.250   2.950  0.5871  0.0891  0.7860
 5703ntf    fn428845   2.214   4.178   3.149  0.2345 -0.0519  0.2777
 5704ntf    cn128846   0.254   2.188   4.732  0.0475 -0.3067  0.3342
 5704ntf    sn228847   0.180   2.083   4.604  0.1906  0.0519 -0.0461
 5704ntf    nn328848   0.207   2.169   4.476 -0.5982  0.4067  0.0176
 5704ntf    sn228849   0.328   2.161   4.376 -0.1415  0.4574  0.5613
 5704ntf    cn128850   0.277   2.008   4.292  0.5372  0.4660  0.1204
 5704ntf    fn428851   0.387   2.191   4.736  0.0630  0.5267 -0.4311
 5704ntf    fn428852   0.213   2.312   4.710 -0.0600 -0.3658  0.1984
 5704ntf    fn428853   0.217   2.156   4.855  0.2537  0.1404  0.5171
 5704ntf    on528854   0.247   1.956   4.615  0.0952 -0.0033 -0.1014
 5704ntf    on528855   0.041   2.084   4.641  0.2261 -0.1615  0.0983
 5704ntf    on528856   0.458   2.142   4.435 -0.3195 -0.4438  0.6780
 5704ntf    on528857   0.321   2.270   4.281 -0.4303 -0.1876 -0.1676
 5704ntf    fn428858   0.271   1.898   4.366  0.2934  0.1800 -0.3191
 5704ntf    fn428859   0.152   2.029   4.256  0.4725 -0.4466 -0.2030
 5704ntf    fn428860   0.348   1.980   4.184  0.1070  0.0648 -0.0613
 5705ntf    cn128861   0.854   4.457   4.198  0.0108 -0.1620  0.2053
 5705ntf    sn228862   0.716   4.479   4.315 -0.2190  0.0796 -0.1089
 5705ntf    nn328863   0.661   4.335   4.342 -0.4107  0.1611 -0.0700
 5705ntf    sn228864   0.658   4.244   4.471 -0.0596 -0.1352 -0.2707
 5705ntf    cn128865   0.816   4.156   4.448  0.1614  0.2971 -0.4191
 5705ntf    fn428866   0.957   4.397   4.255  0.0049 -0.7602 -0.4034
 5705ntf    fn428867   0.822   4.391   4.087 -0.3069 -0.2527  0.3492
 5705ntf    fn428868   0.897   4.571   4.147 -0.9079  0.0417 -0.1343
 5705ntf    on528869   0.781   4.545   4.425 -0.3160 -0.4501  0.2697
 5705ntf    on528870   0.621   4.558   4.241  0.0405  0.2310 -0.2840
 5705ntf    on528871   0.555   4.143   4.468 -0.2151  0.0269 -0.3859
 5705ntf    on528872   0.674   4.317   4.594 -0.3819 -0.6171  0.0580
 5705ntf    fn428873   0.820   4.041   4.514  0.1468  0.4155 -0.2115
 5705ntf    fn428874   0.831   4.116   4.323  0.2153  0.1452 -0.3643
 5705ntf    fn428875   0.925   4.222   4.482 -0.2298  0.5801  0.3121
 5706ntf    cn128876   5.391   1.372   4.126 -0.0959  0.0446 -0.3268
 5706ntf    sn228877   5.268   1.334   3.998 -0.3953 -0.0657 -0.0056
 5706ntf    nn328878   5.325   1.422   3.882  0.0535  0.3691  0.5407
 5706ntf    sn228879   5.238   1.483   3.766 -0.0580 -0.4119  0.2113
 5706ntf    cn128880   5.350   1.452   3.625 -0.2091  0.2661 -0.0611
 5706ntf    fn428881   5.375   1.500   4.158 -0.6239 -0.1560  0.2169
 5706ntf    fn428882   5.396   1.295   4.233 -0.1018  0.2978 -0.1437
 5706ntf    fn428883   5.511   1.372   4.069  0.0716 -0.0484  0.0248
 5706ntf    on528884   5.285   1.192   3.976  0.2478 -0.0070  0.1036
 5706ntf    on528885   5.146   1.386   4.055 -0.5183 -0.0035 -0.3245
 5706ntf    on528886   5.226   1.626   3.769  0.9520 -0.3148  0.1251
 5706ntf    on528887   5.125   1.407   3.719 -0.1581 -0.2945  0.2649
 5706ntf    fn428888   5.463   1.521   3.633 -0.0110 -0.1020  0.3658
 5706ntf    fn428889   5.390   1.326   3.629 -0.0138  0.3086 -0.6459
 5706ntf    fn428890   5.294   1.470   3.507  0.2712 -0.1951 -0.3616
 5707ntf    cn128891   1.713   6.341   6.339  0.2435  0.0374  0.5583
 5707ntf    sn228892   1.695   6.166   6.290  0.3592  0.2201 -0.1518
 5707ntf    nn328893   1.837   6.103   6.312  0.3187  0.2108  0.0865
 5707ntf    sn228894   1.898   5.980   6.237 -0.1500  0.0014  0.0438
 5707ntf    cn128895   1.887   5.852   6.365 -0.1144 -0.1161 -0.0710
 5707ntf    fn428896   1.602   6.403   6.374 -0.3791 -0.7086 -0.0438
 5707ntf    fn428897   1.797   6.364   6.439  0.0288  0.0383  0.7375
 5707ntf    fn428898   1.761   6.414   6.239  0.1185 -0.5698  0.0466
 5707ntf    on528899   1.599   6.120   6.388  1.0602  0.0192  0.4436
 5707ntf    on528900   1.651   6.177   6.153 -0.1420  0.6849  0.0398
 5707ntf    on528901   2.038   5.985   6.201 -0.2491  0.0250 -0.3400
 5707ntf    on528902   1.813   5.926   6.134  0.1437  0.1189 -0.2636
 5707ntf    fn428903   1.963   5.749   6.334  0.0014  0.0502 -0.3428
 5707ntf    fn428904   1.936   5.901   6.478  0.4791 -0.4092 -0.1997
 5707ntf    fn428905   1.763   5.810   6.387  0.0033 -0.2072  0.4376
 5708ntf    cn128906   1.055   4.223   1.991 -0.3736 -0.1537 -0.0017
 5708ntf    sn228907   1.108   4.328   1.852  0.1604 -0.0034  0.3137
 5708ntf    nn328908   1.082   4.241   1.724 -1.0127  0.2816  0.3458
 5708ntf    sn228909   1.049   4.273   1.573 -0.3209  0.1175  0.1538
 5708ntf    cn128910   0.887   4.191   1.560 -0.3088  0.1606 -0.2599
 5708ntf    fn428911   1.067   4.294   2.102  0.4435  0.1731 -0.2909
 5708ntf    fn428912   0.929   4.183   1.982 -0.3815 -0.0581 -0.3287
 5708ntf    fn428913   1.128   4.115   2.011  0.0479  0.0337 -0.4916
 5708ntf    on528914   1.012   4.434   1.862  0.1520  0.0030  0.1748
 5708ntf    on528915   1.243   4.370   1.881  0.1003  0.1706  0.3383
 5708ntf    on528916   1.137   4.202   1.484 -0.0623  0.7808 -0.1216
 5708ntf    on528917   1.016   4.411   1.548 -0.0602  0.0393 -0.6206
 5708ntf    fn428918   0.816   4.228   1.665  0.1547 -0.4526  0.2820
 5708ntf    fn428919   0.817   4.219   1.451 -0.4640 -0.0972 -0.2277
 5708ntf    fn428920   0.894   4.059   1.569  0.3896  0.2097 -0.0510
 5709ntf    cn128921   5.229   6.893   6.539 -0.0078  0.1645 -0.4783
 5709ntf    sn228922   5.235   6.973   6.703 -0.4165  0.0071 -0.3866
 5709ntf    nn328923   5.083   6.998   6.735 -0.3510  0.0997 -0.1528
 5709ntf    sn228924   4.963   6.901   6.705 -0.2493 -0.1084  0.1103
 5709ntf    cn128925   4.896   6.889   6.874  0.1596  0.3601  0.3075
 5709ntf    fn428926   5.156   6.970   6.460  0.2839  0.7280 -0.2093
 5709ntf    fn428927   5.352   6.901   6.491  0.1544 -0.3455 -0.1557
 5709ntf    fn428928   5.192   6.767   6.525  0.2852 -0.0207  0.3824
 5709ntf    on528929   5.293   6.882   6.798  0.1038  0.1266 -0.5891
 5709ntf    on528930   5.319   7.085   6.671  0.3503 -0.3551  0.3268
 5709ntf    on528931   4.992   6.765   6.666 -0.2354 -0.1900  0.4032
 5709ntf    on528932   4.858   6.970   6.635 -0.1319 -0.1660 -0.1220
 5709ntf    fn428933   4.765   6.879   6.880  0.1689 -0.2074 -0.3098
 5709ntf    fn428934   4.938   6.780   6.936  0.2493  0.3074  0.1561
 5709ntf    fn428935   4.921   6.999   6.944  0.2684  0.5105  0.0340
 5710ntf    cn128936   1.371   2.604   4.485 -0.2276 -0.6374  0.2466
 5710ntf    sn228937   1.209   2.684   4.506 -0.0242 -0.1525  0.0004
 5710ntf    nn328938   1.239   2.800   4.607 -0.1316 -0.1322  0.0098
 5710ntf    sn228939   1.218   2.807   4.762 -0.2005 -0.0773 -0.0018
 5710ntf    cn128940   1.070   2.912   4.778  0.0987  0.3949 -0.3012
 5710ntf    fn428941   1.365   2.484   4.431  0.2375 -0.3743 -0.3991
 5710ntf    fn428942   1.447   2.667   4.397 -0.5847  0.0852  0.4514
 5710ntf    fn428943   1.442   2.596   4.597  0.2395  0.5083  0.0448
 5710ntf    on528944   1.180   2.729   4.373  0.3462  0.0055 -0.0250
 5710ntf    on528945   1.135   2.571   4.559 -0.1460 -0.2604 -0.4003
 5710ntf    on528946   1.314   2.888   4.833 -0.7691  0.4385  0.1917
 5710ntf    on528947   1.178   2.687   4.831  0.5258 -0.4145 -0.1579
 5710ntf    fn428948   0.971   2.875   4.699 -0.1108 -0.2106  0.2343
 5710ntf    fn428949   1.011   2.903   4.896 -0.0739 -0.4157 -0.4383
 5710ntf    fn428950   1.102   3.040   4.771 -0.1120  0.4490 -0.2651
 5711ntf    cn128951   6.138   0.106   7.138 -0.2417  0.0371  0.0273
 5711ntf    sn228952   6.172   0.024   6.979 -0.0877  0.2366 -0.0431
 5711ntf    nn328953   6.301  -0.056   7.020 -0.3540 -0.2820 -0.2118
 5711ntf    sn228954   6.453  -0.027   6.995 -0.3191  0.0344  0.3474
 5711ntf    cn128955   6.505  -0.188   6.928  0.0105  0.3407 -0.1445
 5711ntf    fn428956   6.063   0.214   7.117  0.1751  0.1592 -0.8926
 5711ntf    fn428957   6.078   0.032   7.229  0.3331  0.1252  0.4812
 5711ntf    fn428958   6.254   0.145   7.188 -0.4246  0.3516  0.2133
 5711ntf    on528959   6.061  -0.065   6.962 -0.1753  0.1558  0.9015
 5711ntf    on528960   6.187   0.131   6.883  0.2399  0.5059  0.3005
 5711ntf    on528961   6.517  -0.016   7.124 -0.3106 -0.3537  0.3778
 5711ntf    on528962   6.485   0.079   6.901 -0.6518 -0.1992 -0.0317
 5711ntf    fn428963   6.473  -0.286   7.011  0.3350  0.2490 -0.1278
 5711ntf    fn428964   6.445  -0.213   6.813 -0.0742  0.0286 -0.0335
 5711ntf    fn428965   6.636  -0.198   6.914  0.0248 -0.1075  0.2827
 5712ntf    cn128966   3.894   3.111   1.077  0.1541 -0.2432 -0.0268
 5712ntf    sn228967   3.808   2.993   1.185 -0.2872 -0.2507 -0.3831
 5712ntf    nn328968   3.804   3.073   1.320 -0.3643 -0.1232 -0.4598
 5712ntf    sn228969   3.700   3.185   1.357  0.0619  0.2433 -0.3653
 5712ntf    cn128970   3.622   3.101   1.499  0.1250 -0.1996 -0.5924
 5712ntf    fn428971   3.827   3.224   1.061 -0.2298 -0.4368  0.1971
 5712ntf    fn428972   4.013   3.150   1.118  0.1969 -0.3079 -0.0905
 5712ntf    fn428973   3.903   3.067   0.953 -0.0461  0.4951 -0.3131
 5712ntf    on528974   3.688   2.959   1.113 -0.7681  0.2056  0.1849
 5712ntf    on528975   3.897   2.881   1.200 -0.2197 -0.1595 -0.0948
 5712ntf    on528976   3.590   3.215   1.269  0.1110  0.6691 -0.2800
 5712ntf    on528977   3.762   3.299   1.419  0.6265 -0.2664  0.0266
 5712ntf    fn428978   3.571   2.986   1.457 -0.1107 -0.2019 -0.2984
 5712ntf    fn428979   3.705   3.067   1.596 -0.4231  0.0483 -0.0325
 5712ntf    fn428980   3.522   3.173   1.545  0.6079  0.3885 -0.4589
 5713ntf    cn128981   2.309   4.298   2.665 -0.0867 -0.3906  0.0045
 5713ntf    sn228982   2.320   4.469   2.602 -0.1164 -0.4035 -0.0360
 5713ntf    nn328983   2.473   4.486   2.569 -0.1366 -0.0592  0.0529
 5713ntf    sn228984   2.536   4.614   2.504  0.0600  0.0250  0.4062
 5713ntf    cn128985   2.585   4.549   2.341  0.0681  0.2387  0.3228
 5713ntf    fn428986   2.397   4.276   2.761  0.1873 -0.1711 -0.1923
 5713ntf    fn428987   2.190   4.270   2.715 -0.1567  0.1278  0.1384
 5713ntf    fn428988   2.334   4.204   2.576 -0.7291 -0.4465 -0.1164
 5713ntf    on528989   2.225   4.462   2.494 -0.3202 -0.9334  0.1719
 5713ntf    on528990   2.277   4.547   2.715  0.7212  0.8180 -0.5428
 5713ntf    on528991   2.662   4.657   2.561 -0.1412  0.2341  0.6977
 5713ntf    on528992   2.442   4.715   2.462  0.0657 -0.1093  0.0707
 5713ntf    fn428993   2.605   4.644   2.252  0.1374 -0.3095 -0.2482
 5713ntf    fn428994   2.692   4.473   2.339  0.0894  0.2571  0.6327
 5713ntf    fn428995   2.486   4.477   2.292  0.4115 -0.2647  0.3673
 5714ntf    cn128996   1.607   5.494   0.996  0.1187  0.1537 -0.2950
 5714ntf    sn228997   1.760   5.440   1.077 -0.1972 -0.2055  0.0615
 5714ntf    nn328998   1.747   5.284   1.061 -0.0678 -0.1731 -0.3594
 5714ntf    sn228999   1.671   5.190   1.161 -0.1223  0.1139 -0.1297
 5714ntf    cn129000   1.817   5.135   1.255 -0.1653  0.3593  0.0826
 5714ntf    fn429001   1.594   5.428   0.882  0.1493 -0.2505 -0.0627
 5714ntf    fn429002   1.501   5.473   1.072  0.0509  0.1308 -0.3967
 5714ntf    fn429003   1.603   5.621   0.958 -0.5661  0.5138  0.9236
 5714ntf    on529004   1.866   5.492   0.995  0.1203 -0.8689  0.0426
 5714ntf    on529005   1.752   5.502   1.207  0.0863 -0.3276  0.1391
 5714ntf    on529006   1.624   5.066   1.106  0.2224 -0.2466  0.3804
 5714ntf    on529007   1.589   5.255   1.261  0.0524 -0.0961  0.1524
 5714ntf    fn429008   1.894   5.061   1.177 -0.1503  0.2473  0.2038
 5714ntf    fn429009   1.897   5.236   1.285  0.1615  0.0486  0.2641
 5714ntf    fn429010   1.793   5.057   1.359  0.2952 -0.1973 -0.2254
 5715ntf    cn129011   6.715   4.240   0.308 -0.1478  0.2727 -0.0813
 5715ntf    sn229012   6.660   4.413   0.313  0.0723  0.3465 -0.1561
 5715ntf    nn329013   6.744   4.467   0.434  0.1812 -0.6897  0.2438
 5715ntf    sn229014   6.715   4.583   0.536 -0.3064 -0.0748 -0.5854
 5715ntf    cn129015   6.651   4.485   0.675  0.3649 -0.0961 -0.2853
 5715ntf    fn429016   6.650   4.166   0.220 -0.2690  0.0548  0.1900
 5715ntf    fn429017   6.846   4.225   0.290 -0.0603  0.9319 -0.0119
 5715ntf    fn429018   6.693   4.182   0.425  0.6062 -0.3970 -0.2582
 5715ntf    on529019   6.688   4.471   0.185 -0.3557  0.0852 -0.3701
 5715ntf    on529020   6.520   4.398   0.347  0.3127 -0.4331  0.5339
 5715ntf    on529021   6.603   4.669   0.505  0.1517  0.7861  0.0933
 5715ntf    on529022   6.829   4.642   0.603 -0.2116 -0.3892 -0.4694
 5715ntf    fn429023   6.626   4.557   0.783  0.5828  0.5460 -0.6593
 5715ntf    fn429024   6.536   4.423   0.653  0.2658  0.0627 -0.2176
 5715ntf    fn429025   6.739   4.392   0.705 -0.8870 -1.2808 -0.1604
 5716ntf    cn129026   4.421   0.202   0.336 -0.0607 -0.4836 -0.1464
 5716ntf    sn229027   4.289   0.080   0.365 -0.1813 -0.3014  0.0703
 5716ntf    nn329028   4.198   0.166   0.460 -0.1824  0.4201 -0.5711
 5716ntf    sn229029   4.247   0.261   0.576 -0.3079  0.0555 -0.2175
 5716ntf    cn129030   4.139   0.214   0.715  0.0214 -0.2759 -0.0727
 5716ntf    fn429031   4.389   0.330   0.342  0.4765 -0.3749  0.3823
 5716ntf    fn429032   4.527   0.176   0.410 -0.0523  0.5345  0.2124
 5716ntf    fn429033   4.467   0.179   0.214 -0.0702  0.0433 -0.2508
 5716ntf    on529034   4.223   0.065   0.238  0.1152 -0.2883 -0.0855
 5716ntf    on529035   4.358  -0.035   0.416 -0.1665 -0.5037 -0.3983
 5716ntf    on529036   4.206   0.398   0.556  0.6687  0.3994  0.0812
 5716ntf    on529037   4.379   0.251   0.632 -0.3154  0.1204 -0.1883
 5716ntf    fn429038   4.166   0.293   0.818 -0.0368 -0.6994  0.2679
 5716ntf    fn429039   4.010   0.226   0.689  0.1077 -0.3352 -0.5477
 5716ntf    fn429040   4.161   0.089   0.750 -0.2732 -0.1599  0.5328
 5717ntf    cn129041   6.649   4.402   1.905 -0.1295  0.0787 -0.1020
 5717ntf    sn229042   6.724   4.488   2.047 -0.0073 -0.3138  0.0740
 5717ntf    nn329043   6.867   4.508   1.984 -0.2553 -0.3737 -0.5197
 5717ntf    sn229044   6.935   4.634   1.920 -0.3402 -0.0574  0.0036
 5717ntf    cn129045   7.110   4.598   1.953 -0.2948  0.1838  0.0272
 5717ntf    fn429046   6.690   4.460   1.794  0.1049 -0.5034 -0.3260
 5717ntf    fn429047   6.698   4.279   1.904 -0.6565 -0.1310 -0.1995
 5717ntf    fn429048   6.517   4.402   1.912 -0.1007  0.1506  0.5807
 5717ntf    on529049   6.640   4.605   2.052  0.2846 -0.0901 -0.2131
 5717ntf    on529050   6.719   4.390   2.152  0.0830 -0.0016  0.3683
 5717ntf    on529051   6.909   4.762   1.982 -0.1943 -0.1517  0.2616
 5717ntf    on529052   6.923   4.630   1.776 -0.2196 -0.0890 -0.0054
 5717ntf    fn429053   7.162   4.499   1.884 -1.0110 -0.0165 -0.2296
 5717ntf    fn429054   7.180   4.710   1.946  0.0563  0.0057  0.6031
 5717ntf    fn429055   7.120   4.560   2.079  0.2940 -0.0395 -0.0856
 5718ntf    cn129056   6.978   2.632   2.115  0.2827  0.1450 -0.0821
 5718ntf    sn229057   7.124   2.739   2.097  0.0553  0.4671 -0.0247
 5718ntf    nn329058   7.052   2.859   2.027 -0.4863  0.1533 -0.0031
 5718ntf    sn229059   7.093   3.010   2.038 -0.1135  0.0274  0.3507
 5718ntf    cn129060   7.002   3.080   1.897  0.1674 -0.2196  0.0481
 5718ntf    fn429061   6.890   2.670   2.206 -0.0658 -0.6429 -0.0916
 5718ntf    fn429062   6.914   2.633   1.999  0.0680  0.0385  0.0359
 5718ntf    fn429063   7.001   2.506   2.147 -0.0454  0.1031 -0.0126
 5718ntf    on529064   7.170   2.768   2.231  0.5478 -0.1042 -0.0639
 5718ntf    on529065   7.206   2.666   2.004  0.1426  0.0373  0.3832
 5718ntf    on529066   7.229   3.045   2.008 -0.0329 -0.4965  0.1001
 5718ntf    on529067   7.037   3.067   2.158 -0.4177  0.2515  0.1057
 5718ntf    fn429068   7.068   3.070   1.782  0.0792  0.1436 -0.0329
 5718ntf    fn429069   6.879   3.032   1.887  0.1805 -0.2641  0.1055
 5718ntf    fn429070   6.990   3.210   1.914 -0.0499 -0.2649  0.2421
 5719ntf    cn129071   1.162   3.888   0.786 -0.0736 -0.2507 -0.0226
 5719ntf    sn229072   0.984   3.870   0.756 -0.1472  0.0225  0.2354
 5719ntf    nn329073   0.952   3.726   0.811 -0.0603 -0.1131 -0.0645
 5719ntf    sn229074   0.918   3.699   0.962  0.0771  0.1617  0.0157
 5719ntf    cn129075   1.062   3.591   0.989 -0.3695 -0.3603  0.3095
 5719ntf    fn429076   1.179   3.901   0.917 -0.2706  0.2630 -0.0437
 5719ntf    fn429077   1.239   3.790   0.742 -0.0264 -0.2429  0.0429
 5719ntf    fn429078   1.204   3.995   0.720  0.4224 -0.3425  0.1389
 5719ntf    on529079   0.917   3.987   0.806  0.2583  0.1072  0.5792
 5719ntf    on529080   0.991   3.861   0.612 -0.0329  0.4960  0.2124
 5719ntf    on529081   0.798   3.621   0.976  0.7249 -0.9042 -0.2766
 5719ntf    on529082   0.928   3.813   1.051  0.3330  0.0061  0.1870
 5719ntf    fn429083   1.173   3.662   0.997 -0.3090 -0.4280  0.0530
 5719ntf    fn429084   1.051   3.514   1.096  0.4774 -0.4959  0.3049
 5719ntf    fn429085   1.082   3.507   0.889 -0.4263  0.1584 -0.1425
 5720ntf    cn129086   2.517   3.599   0.631  0.0309 -0.3604 -0.3866
 5720ntf    sn229087   2.370   3.610   0.525 -0.3072  0.1135  0.1246
 5720ntf    nn329088   2.426   3.649   0.383 -0.4871 -0.1513 -0.0214
 5720ntf    sn229089   2.377   3.603   0.242  0.1962 -0.1110 -0.2738
 5720ntf    cn129090   2.494   3.468   0.206  0.3799  0.0191 -0.1618
 5720ntf    fn429091   2.491   3.550   0.751  0.0010  0.2301 -0.1465
 5720ntf    fn429092   2.616   3.524   0.585  0.6190 -0.1262  0.4588
 5720ntf    fn429093   2.559   3.724   0.647 -0.3445 -0.2826  0.0018
 5720ntf    on529094   2.323   3.473   0.524  0.3022 -0.0979  0.0762
 5720ntf    on529095   2.294   3.716   0.586 -0.1146  0.0549  0.4700
 5720ntf    on529096   2.408   3.699   0.139 -0.6298  0.1363 -0.2917
 5720ntf    on529097   2.250   3.535   0.243  0.2428 -0.1901  0.2009
 5720ntf    fn429098   2.446   3.349   0.237  0.0874  0.2340  0.2164
 5720ntf    fn429099   2.523   3.463   0.077 -0.1370 -0.2455 -0.2682
 5720ntf    fn429100   2.609   3.481   0.272  0.1193  0.1433  0.2697
 5721ntf    cn129101   0.752   7.343   4.650  0.0422 -0.0093 -0.7112
 5721ntf    sn229102   0.930   7.378   4.664  0.0128 -0.1173 -0.0265
 5721ntf    nn329103   0.962   7.284   4.785  0.1349 -0.0681 -0.0200
 5721ntf    sn229104   1.016   7.137   4.793  0.1069 -0.0693  0.1542
 5721ntf    cn129105   1.175   7.165   4.877  0.2410 -0.3143 -0.0166
 5721ntf    fn429106   0.706   7.395   4.537 -0.5496 -0.1536 -0.5427
 5721ntf    fn429107   0.727   7.214   4.637 -0.0154 -0.0897  0.1297
 5721ntf    fn429108   0.683   7.387   4.754  0.1657 -0.1566 -0.5651
 5721ntf    on529109   0.977   7.352   4.531  0.3319  0.7745 -0.0976
 5721ntf    on529110   0.924   7.514   4.712 -0.3956 -0.0535 -0.2540
 5721ntf    on529111   1.047   7.084   4.663  0.1003 -0.2873  0.2402
 5721ntf    on529112   0.943   7.046   4.879  0.1398  0.0510  0.3104
 5721ntf    fn429113   1.243   7.265   4.825  0.3610 -0.0366  0.6635
 5721ntf    fn429114   1.154   7.192   5.005  0.0352 -0.4499 -0.0205
 5721ntf    fn429115   1.250   7.056   4.873 -0.1229 -0.5834  0.4158
 5722ntf    cn129116   2.470   2.602   1.356 -0.2620 -0.4737  0.2032
 5722ntf    sn229117   2.341   2.716   1.300 -0.0563 -0.2779  0.1246
 5722ntf    nn329118   2.222   2.679   1.396 -0.1703 -1.0119 -0.2936
 5722ntf    sn229119   2.072   2.692   1.352 -0.0673  0.7502 -0.2063
 5722ntf    cn129120   2.004   2.781   1.496 -0.0795  0.0459  0.2278
 5722ntf    fn429121   2.443   2.481   1.309  0.1233 -0.5716  0.2239
 5722ntf    fn429122   2.586   2.638   1.303 -0.2093 -0.1886  0.5067
 5722ntf    fn429123   2.489   2.613   1.487 -0.4363 -0.4513  0.2260
 5722ntf    on529124   2.396   2.848   1.318 -0.7845  0.0015  0.3698
 5722ntf    on529125   2.322   2.678   1.163  0.4555 -0.2500  0.0441
 5722ntf    on529126   2.000   2.567   1.358 -0.0051  0.7300  0.1704
 5722ntf    on529127   2.039   2.782   1.244 -0.2834  0.4007 -0.4365
 5722ntf    fn429128   2.031   2.719   1.610  0.7451  0.3315  0.1924
 5722ntf    fn429129   2.076   2.891   1.512  0.0920  0.0213 -0.3301
 5722ntf    fn429130   1.878   2.819   1.489  0.0689  0.4574 -0.3290
 5723ntf    cn129131   3.900   3.393   6.530 -0.0360 -0.0886  0.0643
 5723ntf    sn229132   3.984   3.242   6.474  0.1132 -0.0003  0.0494
 5723ntf    nn329133   4.133   3.279   6.510  0.1516  0.4542 -0.5482
 5723ntf    sn229134   4.211   3.225   6.636 -0.5763  0.2207 -0.1913
 5723ntf    cn129135   4.317   3.098   6.562 -0.1921  0.1642  0.4524
 5723ntf    fn429136   3.905   3.415   6.661  0.6193 -0.2009  0.0637
 5723ntf    fn429137   3.945   3.501   6.469 -0.0218 -0.2750 -0.2535
 5723ntf    fn429138   3.770   3.395   6.507 -0.0004  0.0947 -0.1224
 5723ntf    on529139   3.911   3.140   6.545  0.2821 -0.2017 -0.0656
 5723ntf    on529140   3.958   3.240   6.333 -0.5539 -0.1091  0.1735
 5723ntf    on529141   4.139   3.146   6.733 -0.5067  0.2270 -0.1346
 5723ntf    on529142   4.313   3.314   6.685 -0.5459 -0.0527  0.2407
 5723ntf    fn429143   4.373   3.142   6.450 -0.3005 -0.0273  0.3212
 5723ntf    fn429144   4.414   3.054   6.640 -0.2858 -0.0580  0.4452
 5723ntf    fn429145   4.254   2.988   6.522  0.0001  0.2425 -0.0816
 5724ntf    cn129146   3.551   4.806   4.280 -0.6568 -0.1436 -0.3619
 5724ntf    sn229147   3.523   4.882   4.442 -0.1944 -0.1039 -0.2985
 5724ntf    nn329148   3.446   4.767   4.516 -0.1163 -0.2014 -0.3691
 5724ntf    sn229149   3.314   4.778   4.601  0.0514  0.0179 -0.1369
 5724ntf    cn129150   3.377   4.697   4.752  0.3732  0.4421 -0.0413
 5724ntf    fn429151   3.647   4.715   4.273 -0.2818  0.2033  0.1723
 5724ntf    fn429152   3.440   4.757   4.228 -0.6323 -0.4807 -0.1030
 5724ntf    fn429153   3.581   4.892   4.184 -0.1734  0.2859  0.1710
 5724ntf    on529154   3.654   4.891   4.501 -0.2063 -0.2340 -0.2535
 5724ntf    on529155   3.447   5.003   4.419 -0.1020 -0.0613 -0.3784
 5724ntf    on529156   3.216   4.682   4.556  0.0130 -0.1021  0.2018
 5724ntf    on529157   3.274   4.908   4.650 -0.1721 -0.0117 -0.2427
 5724ntf    fn429158   3.280   4.684   4.841 -0.0284 -0.3537 -0.5785
 5724ntf    fn429159   3.416   4.575   4.720 -0.2615  0.3890 -0.6437
 5724ntf    fn429160   3.473   4.764   4.813  0.1352  0.2951  0.5006
 5725ntf    cn129161   3.876   1.168   2.250  0.2270  0.2825 -0.1807
 5725ntf    sn229162   4.033   1.259   2.270  0.1887  0.3615 -0.2414
 5725ntf    nn329163   4.083   1.258   2.121  0.6150  0.0368 -0.0958
 5725ntf    sn229164   4.040   1.342   1.996 -0.0009 -0.3161 -0.1258
 5725ntf    cn129165   4.141   1.491   2.022 -0.4605  0.0365 -0.3712
 5725ntf    fn429166   3.781   1.233   2.186  0.0151 -0.3984 -0.5676
 5725ntf    fn429167   3.890   1.052   2.188  0.5607  0.3264 -0.1942
 5725ntf    fn429168   3.829   1.145   2.371 -0.2148  0.0174 -0.4023
 5725ntf    on529169   3.990   1.385   2.326  0.0396 -0.1144  0.7363
 5725ntf    on529170   4.119   1.174   2.348  0.0912  0.1133 -0.3999
 5725ntf    on529171   3.905   1.392   2.005  0.1121 -0.0124 -0.1083
 5725ntf    on529172   4.100   1.288   1.876  0.4939 -0.4365  0.1705
 5725ntf    fn429173   4.270   1.465   2.011 -0.3051  0.5360  0.2259
 5725ntf    fn429174   4.123   1.580   1.925  0.0309 -0.0911 -0.5842
 5725ntf    fn429175   4.114   1.540   2.142  0.1859 -0.3649 -0.0635
 5726ntf    cn129176   3.310   0.431   4.175 -0.1610  0.2436 -0.1774
 5726ntf    sn229177   3.223   0.319   4.289  0.1462  0.0713 -0.1131
 5726ntf    nn329178   3.087   0.389   4.321  0.1601 -0.0093  0.1259
 5726ntf    sn229179   2.941   0.357   4.274  0.2045  0.1174 -0.0987
 5726ntf    cn129180   2.875   0.526   4.261  0.3659  0.2003  0.1676
 5726ntf    fn429181   3.343   0.538   4.245  0.3839 -0.3560  0.4909
 5726ntf    fn429182   3.420   0.376   4.125 -0.0286  0.7940 -0.4950
 5726ntf    fn429183   3.234   0.464   4.072 -0.7801  0.2086  0.2593
 5726ntf    on529184   3.221   0.199   4.209  0.0075 -0.0286  0.0382
 5726ntf    on529185   3.305   0.307   4.408  0.1291 -0.2045 -0.1277
 5726ntf    on529186   2.855   0.304   4.377 -0.6339  0.1117 -0.7878
 5726ntf    on529187   2.928   0.304   4.141  0.0832 -0.1707  0.0278
 5726ntf    fn429188   2.930   0.604   4.169 -0.1950  0.4424  0.0331
 5726ntf    fn429189   2.744   0.529   4.248  0.3417  0.1950  0.4017
 5726ntf    fn429190   2.885   0.598   4.372  0.0528 -0.0487  0.3550
 5727ntf    cn129191   2.133   4.788   6.957  0.2537 -0.2924  0.5470
 5727ntf    sn229192   2.251   4.701   6.849  0.1430  0.0827  0.1233
 5727ntf    nn329193   2.343   4.820   6.804 -0.1401  0.2632  0.0156
 5727ntf    sn229194   2.337   4.903   6.671  0.4024  0.1678 -0.0726
 5727ntf    cn129195   2.409   5.060   6.729  0.7312 -0.0202  0.0305
 5727ntf    fn429196   2.052   4.872   6.897  0.4001 -0.4895  0.0712
 5727ntf    fn429197   2.050   4.709   7.024 -0.0357  0.0126  0.5501
 5727ntf    fn429198   2.198   4.856   7.050  0.2381  0.5399 -0.0502
 5727ntf    on529199   2.310   4.609   6.943 -0.3340 -0.8615 -0.4992
 5727ntf    on529200   2.170   4.646   6.743  0.4496 -0.1771  0.0227
 5727ntf    on529201   2.203   4.937   6.631  0.2746  0.0268  0.2362
 5727ntf    on529202   2.419   4.861   6.560 -0.2274  0.0903 -0.5104
 5727ntf    fn429203   2.449   5.135   6.627 -0.1831 -0.2789 -0.5299
 5727ntf    fn429204   2.326   5.139   6.795  0.1994  0.1869 -0.8696
 5727ntf    fn429205   2.518   5.048   6.803  0.8586 -0.7746 -0.2768
 5728ntf    cn129206   6.474   6.584   5.152  0.0670  0.3193  0.1790
 5728ntf    sn229207   6.534   6.461   5.272 -0.1578  0.1880  0.1568
 5728ntf    nn329208   6.480   6.526   5.404  0.2180  0.1700  0.3209
 5728ntf    sn229209   6.449   6.453   5.539 -0.3827 -0.0831  0.0517
 5728ntf    cn129210   6.275   6.411   5.506 -0.4672 -0.0655  0.4574
 5728ntf    fn429211   6.342   6.582   5.136  0.0450  0.1525  0.3685
 5728ntf    fn429212   6.505   6.708   5.185 -0.2300  0.3340  0.4209
 5728ntf    fn429213   6.526   6.563   5.033  0.2167  0.0043  0.2988
 5728ntf    on529214   6.468   6.343   5.219 -0.1049  0.2518 -0.0527
 5728ntf    on529215   6.676   6.473   5.255 -0.2225  0.4104 -0.2385
 5728ntf    on529216   6.452   6.541   5.653 -0.6179 -0.5548  0.4272
 5728ntf    on529217   6.518   6.326   5.551  0.1284  0.2459  0.6608
 5728ntf    fn429218   6.272   6.300   5.434  0.8404  0.1887 -0.0242
 5728ntf    fn429219   6.211   6.389   5.619 -0.3407 -0.1611  0.5115
 5728ntf    fn429220   6.216   6.507   5.437 -0.2770 -0.4008 -0.1788
 5729ntf    cn129221   6.685   0.057   6.159 -0.0474 -0.1311 -0.1495
 5729ntf    sn229222   6.717   0.123   6.326  0.1880  0.1189 -0.2933
 5729ntf    nn329223   6.730  -0.015   6.398  0.4531  0.5835  0.5561
 5729ntf    sn229224   6.857  -0.107   6.416  0.1745  0.1607  0.3642
 5729ntf    cn129225   6.913  -0.055   6.581  0.5004  0.1884  0.2459
 5729ntf    fn429226   6.793   0.002   6.105  0.2841  0.1225  0.2495
 5729ntf    fn429227   6.590  -0.035   6.151  0.1275 -0.3258 -0.0267
 5729ntf    fn429228   6.650   0.158   6.082 -0.1270 -0.8576 -1.0793
 5729ntf    on529229   6.833   0.207   6.314  0.1289  0.2956  0.3675
 5729ntf    on529230   6.591   0.184   6.360  0.0973 -0.0492 -0.3268
 5729ntf    on529231   6.971  -0.072   6.336 -0.0253  0.1604  0.0757
 5729ntf    on529232   6.819  -0.246   6.425  0.6065  0.0306  0.1908
 5729ntf    fn429233   6.985  -0.148   6.640  0.2447  0.1225  0.4552
 5729ntf    fn429234   6.988   0.053   6.584  0.6065  0.1199  0.0640
 5729ntf    fn429235   6.809  -0.022   6.655  0.2573  0.0535 -0.0305
 5730ntf    cn129236   4.464   3.824   4.107 -0.3981 -0.0512 -0.0039
 5730ntf    sn229237   4.493   3.659   4.179  0.1152  0.0511  0.0244
 5730ntf    nn329238   4.400   3.678   4.304 -0.2441 -0.1116 -0.2152
 5730ntf    sn229239   4.428   3.654   4.456 -0.4663 -0.0931 -0.1723
 5730ntf    cn129240   4.462   3.816   4.530 -0.2245 -0.2292  0.0183
 5730ntf    fn429241   4.335   3.847   4.089 -0.4434 -0.0535  0.3080
 5730ntf    fn429242   4.502   3.921   4.188  0.0903  0.0377 -0.3411
 5730ntf    fn429243   4.524   3.838   3.991  0.1048 -0.3027  0.2232
 5730ntf    on529244   4.433   3.573   4.079  0.3040  0.3569 -0.3561
 5730ntf    on529245   4.636   3.662   4.197  0.1138  0.3403 -0.0017
 5730ntf    on529246   4.548   3.578   4.483 -0.1729  0.4670  0.1239
 5730ntf    on529247   4.316   3.608   4.534 -0.1978 -0.3102  0.0882
 5730ntf    fn429248   4.357   3.896   4.526  0.2743  0.4110 -0.5531
 5730ntf    fn429249   4.513   3.809   4.652  0.1767  0.2031 -0.1192
 5730ntf    fn429250   4.549   3.891   4.463 -0.1649 -0.1635  0.1682
 5731ntf    cn129251   3.924   2.386   4.470  0.6389  0.1417 -0.2019
 5731ntf    sn229252   4.026   2.236   4.469  0.0654 -0.2542 -0.3819
 5731ntf    nn329253   3.948   2.130   4.553 -0.1784  0.2330  0.0135
 5731ntf    sn229254   3.930   2.127   4.709  0.2786 -0.2984  0.0603
 5731ntf    cn129255   3.749   2.129   4.717  0.2837 -0.0003  0.1054
 5731ntf    fn429256   3.831   2.388   4.375 -0.2574 -0.0195  0.6537
 5731ntf    fn429257   3.875   2.416   4.589  0.2834  0.2268 -0.3670
 5731ntf    fn429258   3.988   2.498   4.440  1.1249  0.0309  0.4069
 5731ntf    on529259   4.031   2.210   4.327  0.3634 -0.3406 -0.3575
 5731ntf    on529260   4.149   2.286   4.527 -0.2056  0.3687 -0.3402
 5731ntf    on529261   3.969   2.243   4.786  0.4502  0.0362 -0.5244
 5731ntf    on529262   3.963   1.997   4.763  0.1414 -0.3211  0.0913
 5731ntf    fn429263   3.696   2.008   4.708 -0.0400  0.1560 -0.0897
 5731ntf    fn429264   3.710   2.182   4.832 -0.2891  0.9433 -0.5103
 5731ntf    fn429265   3.692   2.206   4.626 -0.0376 -0.1902  0.1405
 5732ntf    cn129266   0.202   3.669   3.924  0.0343  0.0202  0.0570
 5732ntf    sn229267   0.153   3.734   3.762  0.1162 -0.1671 -0.0432
 5732ntf    nn329268   0.143   3.601   3.680  0.0437 -0.1024 -0.1389
 5732ntf    sn229269   0.261   3.527   3.607  0.1070 -0.1036 -0.0352
 5732ntf    cn129270   0.191   3.529   3.440 -0.1058  0.2935  0.0565
 5732ntf    fn429271   0.199   3.764   4.016 -0.0001 -0.1773  0.2612
 5732ntf    fn429272   0.121   3.569   3.954 -0.2488 -0.0477 -0.9090
 5732ntf    fn429273   0.320   3.609   3.921  0.2820  0.4895  0.2488
 5732ntf    on529274   0.019   3.781   3.784  0.2032  0.0833 -0.0403
 5732ntf    on529275   0.250   3.827   3.710  0.1752 -0.1123  0.1664
 5732ntf    on529276   0.274   3.388   3.644 -0.3615 -0.2250 -0.3247
 5732ntf    on529277   0.383   3.600   3.586  0.1271 -0.2740 -0.5272
 5732ntf    fn429278   0.272   3.469   3.354 -0.5820 -0.2428 -0.0309
 5732ntf    fn429279   0.071   3.472   3.429  0.1994 -0.2796 -0.3681
 5732ntf    fn429280   0.184   3.652   3.392 -0.7463  0.2723  0.0841
 5733ntf    cn129281   3.215   1.862   0.823  0.1242 -0.2854  0.0477
 5733ntf    sn229282   3.273   1.741   0.701  0.2157 -0.0243 -0.1707
 5733ntf    nn329283   3.252   1.826   0.571 -0.2471 -0.5179 -0.4255
 5733ntf    sn229284   3.342   1.858   0.447 -0.2191  0.1826 -0.2306
 5733ntf    cn129285   3.260   1.753   0.323  0.3612 -0.4230 -0.1085
 5733ntf    fn429286   3.243   1.836   0.950 -0.0272  0.4751  0.2452
 5733ntf    fn429287   3.264   1.980   0.788  0.3548 -0.4002 -0.0222
 5733ntf    fn429288   3.086   1.889   0.830  0.2324  0.2544  0.0107
 5733ntf    on529289   3.407   1.715   0.747 -0.1682 -0.2838  0.8236
 5733ntf    on529290   3.184   1.627   0.706  0.3948 -0.1854 -0.5672
 5733ntf    on529291   3.475   1.803   0.449 -0.2362  0.1326 -0.3976
 5733ntf    on529292   3.325   1.992   0.397  0.5519  0.0554 -0.8534
 5733ntf    fn429293   3.304   1.628   0.323  0.0094 -0.5534 -0.8808
 5733ntf    fn429294   3.129   1.756   0.337  0.3352  0.1511 -0.4274
 5733ntf    fn429295   3.283   1.799   0.200 -0.4667 -0.2045 -0.1891
 5734ntf    cn129296   6.937   5.898   2.765  0.3653 -0.1511 -0.1499
 5734ntf    sn229297   6.951   5.876   2.945  0.1734  0.3755 -0.0675
 5734ntf    nn329298   7.054   5.987   2.986  0.1658  0.4474 -0.2410
 5734ntf    sn229299   7.200   5.991   2.929  0.3261  0.2287  0.1492
 5734ntf    cn129300   7.303   6.028   3.075  0.1106 -0.2432  0.4211
 5734ntf    fn429301   6.840   5.823   2.714  0.3227 -0.2278  0.0390
 5734ntf    fn429302   6.911   6.024   2.736  0.0558 -0.2490 -0.3021
 5734ntf    fn429303   7.048   5.862   2.703  0.1080 -0.2712 -0.5464
 5734ntf    on529304   6.818   5.901   2.994 -0.0019  0.5069 -0.6100
 5734ntf    on529305   6.998   5.741   2.962  0.0948  0.3352 -0.1710
 5734ntf    on529306   7.220   6.109   2.848  0.0586  0.1803  0.0123
 5734ntf    on529307   7.265   5.874   2.875 -0.0979  0.1170 -0.1215
 5734ntf    fn429308   7.310   5.925   3.158 -0.0360 -0.4656  0.1601
 5734ntf    fn429309   7.426   6.055   3.037  0.0641 -0.3716  0.1725
 5734ntf    fn429310   7.268   6.138   3.138  0.5573  0.1365  0.0104
 5735ntf    cn129311   5.094   4.581   6.575 -0.0469  0.1000 -0.1014
 5735ntf    sn229312   5.054   4.743   6.503  0.1879  0.2047  0.0005
 5735ntf    nn329313   4.957   4.703   6.385 -0.3913  0.3458  0.4216
 5735ntf    sn229314   4.802   4.722   6.375 -0.4376 -0.1001  0.2826
 5735ntf    cn129315   4.753   4.548   6.352 -0.2575 -0.0645 -0.3744
 5735ntf    fn429316   4.987   4.509   6.603  0.1680 -0.3577 -0.4508
 5735ntf    fn429317   5.154   4.507   6.483  0.2576  0.3698 -0.1219
 5735ntf    fn429318   5.166   4.578   6.685 -0.1439 -0.5220 -0.0495
 5735ntf    on529319   4.995   4.811   6.616 -0.1952  0.4020 -0.3140
 5735ntf    on529320   5.185   4.786   6.462 -0.0006  0.7851 -0.0028
 5735ntf    on529321   4.765   4.779   6.248  0.7454 -0.0536 -0.0569
 5735ntf    on529322   4.729   4.762   6.492 -0.4969 -0.3985  0.3498
 5735ntf    fn429323   4.621   4.550   6.340 -0.3108  0.1945  0.2385
 5735ntf    fn429324   4.802   4.495   6.241  0.4910  0.0586 -0.1082
 5735ntf    fn429325   4.789   4.468   6.451 -0.3266  0.7016  0.2801
 5736ntf    cn129326   6.394   3.559   4.067 -0.0492 -0.1008  0.1491
 5736ntf    sn229327   6.251   3.455   4.109 -0.2113  0.0784  0.0356
 5736ntf    nn329328   6.312   3.311   4.098 -0.2558  0.0025  0.7313
 5736ntf    sn229329   6.363   3.215   4.210  0.2368 -0.1899  0.3452
 5736ntf    cn129330   6.448   3.090   4.109  0.3222 -0.0473  0.2399
 5736ntf    fn429331   6.435   3.547   3.942 -0.0647  0.4835  0.0842
 5736ntf    fn429332   6.370   3.689   4.073  0.3097 -0.0370  0.2714
 5736ntf    fn429333   6.497   3.544   4.150  0.0421  0.4002  0.1327
 5736ntf    on529334   6.212   3.506   4.238 -0.0467 -0.0901  0.1520
 5736ntf    on529335   6.159   3.481   4.001 -0.1500 -0.4418 -0.1410
 5736ntf    on529336   6.250   3.144   4.263 -0.0292  0.0535  0.1012
 5736ntf    on529337   6.460   3.271   4.302  0.2188  0.6302 -0.1315
 5736ntf    fn429338   6.550   3.151   4.052  0.0370 -0.0350 -0.2660
 5736ntf    fn429339   6.486   2.987   4.182  0.2460 -0.1729  0.1041
 5736ntf    fn429340   6.367   3.054   4.010  0.1406 -0.3944  0.5135
 5737ntf    cn129341   5.503   2.250   1.858 -0.1292 -0.2671  0.0080
 5737ntf    sn229342   5.328   2.214   1.822 -0.0625 -0.4125 -0.1767
 5737ntf    nn329343   5.356   2.064   1.786  0.2471 -0.4158  0.0693
 5737ntf    sn229344   5.395   2.005   1.646  0.0508  0.2122 -0.2541
 5737ntf    cn129345   5.239   1.952   1.568  0.2001 -0.3588 -0.1749
 5737ntf    fn429346   5.543   2.201   1.974  0.0755 -0.8740 -0.3102
 5737ntf    fn429347   5.586   2.204   1.766 -0.5089 -0.1784 -0.3827
 5737ntf    fn429348   5.519   2.380   1.872 -0.0340 -0.2662 -0.1043
 5737ntf    on529349   5.266   2.234   1.950 -0.3795 -0.4880 -0.3179
 5737ntf    on529350   5.281   2.299   1.716  0.0745  0.7121  0.6414
 5737ntf    on529351   5.468   1.881   1.655 -0.4252 -0.0797 -0.3449
 5737ntf    on529352   5.449   2.106   1.558  0.1435  0.5678  0.2098
 5737ntf    fn429353   5.246   1.945   1.436 -0.1271  0.0052 -0.2139
 5737ntf    fn429354   5.193   1.840   1.620  0.2925 -0.0081  0.6889
 5737ntf    fn429355   5.138   2.036   1.586  0.3046 -0.0799 -0.8528
 5738ntf    cn129356   5.101   3.587   3.579  0.0283 -0.0764 -0.0875
 5738ntf    sn229357   5.208   3.729   3.617  0.3264 -0.2625 -0.2252
 5738ntf    nn329358   5.345   3.679   3.560  0.8816  0.6681  0.2680
 5738ntf    sn229359   5.402   3.689   3.414 -0.1316 -0.1908 -0.1947
 5738ntf    cn129360   5.485   3.851   3.418 -0.2414 -0.1412  0.1113
 5738ntf    fn429361   4.975   3.623   3.598  0.1317  0.2115  0.0691
 5738ntf    fn429362   5.112   3.539   3.456 -0.5333 -0.4179 -0.0057
 5738ntf    fn429363   5.127   3.482   3.655 -0.2226  0.2190  0.4128
 5738ntf    on529364   5.146   3.837   3.543 -0.4313 -0.2365  0.4342
 5738ntf    on529365   5.195   3.725   3.760 -0.0368 -0.1802 -0.2552
 5738ntf    on529366   5.310   3.705   3.304  0.3084 -0.9640 -0.6842
 5738ntf    on529367   5.510   3.596   3.395 -0.1372 -0.1871 -0.2442
 5738ntf    fn429368   5.530   3.879   3.297 -0.2943 -0.3414  0.0446
 5738ntf    fn429369   5.406   3.947   3.463 -0.0322  0.1036 -0.0473
 5738ntf    fn429370   5.587   3.850   3.502  0.1154 -0.1567 -0.3189
 5739ntf    cn129371   1.174   3.444   5.782 -0.2042  0.0839 -0.0052
 5739ntf    sn229372   1.077   3.464   5.630 -0.2165  0.0378 -0.0040
 5739ntf    nn329373   0.938   3.510   5.687 -0.0992  0.7371 -0.2675
 5739ntf    sn229374   0.812   3.418   5.706  0.2022  0.3804  0.0092
 5739ntf    cn129375   0.702   3.465   5.570 -0.0783 -0.1131  0.0611
 5739ntf    fn429376   1.282   3.369   5.763 -0.1227  0.3570 -0.6420
 5739ntf    fn429377   1.219   3.556   5.837 -0.3469  0.1751 -0.0729
 5739ntf    fn429378   1.112   3.383   5.881  0.3894 -0.6097 -0.0491
 5739ntf    on529379   1.143   3.572   5.561 -0.2049 -0.3742 -0.6525
 5739ntf    on529380   1.098   3.333   5.574 -0.0170 -0.0356  0.2412
 5739ntf    on529381   0.731   3.465   5.816  0.3511  1.0123 -0.1521
 5739ntf    on529382   0.830   3.275   5.697 -0.4672  0.2776  0.2625
 5739ntf    fn429383   0.585   3.405   5.578 -0.0926 -0.0475  0.3268
 5739ntf    fn429384   0.688   3.596   5.557  0.1257 -0.0941  0.0191
 5739ntf    fn429385   0.749   3.436   5.449  0.0389  0.6100 -0.0732
 5740ntf    cn129386   6.724   6.665   7.248 -0.1367 -0.0950 -0.5415
 5740ntf    sn229387   6.631   6.736   7.387 -0.0983 -0.0289 -0.5496
 5740ntf    nn329388   6.578   6.609   7.464  0.2131  0.5834  0.6944
 5740ntf    sn229389   6.429   6.561   7.473  0.2795  0.2442 -0.0069
 5740ntf    cn129390   6.434   6.439   7.607 -0.1567  0.2172 -0.0132
 5740ntf    fn429391   6.645   6.591   7.173 -0.2271  0.1848 -0.7203
 5740ntf    fn429392   6.778   6.758   7.171  0.4860 -0.0177 -0.0258
 5740ntf    fn429393   6.828   6.592   7.289  0.0524  0.5998  0.2478
 5740ntf    on529394   6.723   6.809   7.470 -0.8179  0.0281  0.2140
 5740ntf    on529395   6.531   6.816   7.320 -0.4383  0.1804  0.1977
 5740ntf    on529396   6.374   6.495   7.356  0.0796  0.2612  0.0765
 5740ntf    on529397   6.346   6.660   7.536  0.2524  0.2656 -0.0758
 5740ntf    fn429398   6.479   6.325   7.558  0.2511  0.3242  0.1036
 5740ntf    fn429399   6.514   6.475   7.706 -0.4272  0.2268  0.2037
 5740ntf    fn429400   6.320   6.407   7.665 -0.0955 -0.3998 -0.2311
 5741ntf    cn129401   3.092   1.974   6.382  0.5418  0.0274  0.0461
 5741ntf    sn229402   2.952   1.880   6.314  0.1859  0.2077  0.5239
 5741ntf    nn329403   3.028   1.743   6.298 -0.2199  0.0815 -0.3913
 5741ntf    sn229404   3.039   1.635   6.411 -0.1414  0.1919 -0.2933
 5741ntf    cn129405   2.913   1.516   6.355 -0.2095  0.3215 -0.4129
 5741ntf    fn429406   3.064   2.103   6.390 -0.0923 -0.1264  0.3711
 5741ntf    fn429407   3.124   1.943   6.507  0.1706  0.6967  0.3119
 5741ntf    fn429408   3.196   1.968   6.300  0.2110 -0.2372 -0.3606
 5741ntf    on529409   2.846   1.887   6.411  0.4111 -1.0025  0.8750
 5741ntf    on529410   2.918   1.938   6.187  0.8926 -0.0586  0.2091
 5741ntf    on529411   2.999   1.674   6.544 -0.1406 -0.0563 -0.2197
 5741ntf    on529412   3.164   1.563   6.408 -0.3957 -0.2365 -0.8019
 5741ntf    fn429413   2.790   1.559   6.379 -0.2848 -0.1510  0.0806
 5741ntf    fn429414   2.918   1.486   6.226  0.0386 -0.4925 -0.2206
 5741ntf    fn429415   2.915   1.401   6.420  0.3980  0.5594  0.0047
 5742ntf    cn129416   5.197   3.158   3.842 -0.3096 -0.3762 -0.1244
 5742ntf    sn229417   5.271   3.241   3.986 -0.0969 -0.0314 -0.4288
 5742ntf    nn329418   5.250   3.137   4.101  0.5559  0.5160  0.1993
 5742ntf    sn229419   5.221   3.165   4.253  0.0386 -0.1547  0.2307
 5742ntf    cn129420   5.043   3.128   4.264  0.0005 -0.0964 -0.1706
 5742ntf    fn429421   5.253   3.044   3.807  0.8833 -0.0382  0.6041
 5742ntf    fn429422   5.067   3.140   3.852 -0.3887  0.4963  0.5218
 5742ntf    fn429423   5.214   3.242   3.741 -0.4974 -0.2338 -0.0372
 5742ntf    on529424   5.408   3.269   3.952  0.0357  0.2222  0.2999
 5742ntf    on529425   5.178   3.349   4.007 -0.2005 -0.2149  0.0757
 5742ntf    on529426   5.236   3.303   4.291 -0.3321  0.0243 -0.2567
 5742ntf    on529427   5.281   3.060   4.332 -0.1360  0.1328  0.7492
 5742ntf    fn429428   5.017   2.999   4.248 -0.2035 -0.0329 -0.3665
 5742ntf    fn429429   4.983   3.161   4.377 -0.1422  0.1455 -0.3167
 5742ntf    fn429430   4.970   3.193   4.175 -0.1048  0.1482  0.0912
 5743ntf    cn129431   0.621   0.265   5.031 -0.3823 -0.0607 -0.4161
 5743ntf    sn229432   0.449   0.323   5.035 -0.3515  0.0038  0.0190
 5743ntf    nn329433   0.472   0.461   4.964 -0.5278  0.0316  0.0151
 5743ntf    sn229434   0.428   0.511   4.822 -0.0718  0.0119 -0.1354
 5743ntf    cn129435   0.263   0.575   4.866  0.1512  0.3048  0.2821
 5743ntf    fn429436   0.695   0.346   5.105 -0.0470 -0.1943 -0.6054
 5743ntf    fn429437   0.630   0.140   5.073  0.1736  0.0320 -0.2593
 5743ntf    fn429438   0.668   0.261   4.907  0.3429 -0.1272 -0.1422
 5743ntf    on529439   0.374   0.220   4.968 -0.4326  0.1455 -0.1118
 5743ntf    on529440   0.420   0.342   5.175  0.4981 -0.4348  0.2594
 5743ntf    on529441   0.407   0.404   4.728 -0.1908 -0.5346  0.5061
 5743ntf    on529442   0.502   0.628   4.780  0.2604 -0.0161  0.3693
 5743ntf    fn429443   0.195   0.499   4.950  0.1431 -0.2007 -0.1709
 5743ntf    fn429444   0.267   0.696   4.919  0.1480  0.3262  0.2346
 5743ntf    fn429445   0.182   0.598   4.764 -0.1183  0.4202  0.5203
 5744ntf    cn129446   5.433   1.552   6.854 -0.2827  0.1744  0.1201
 5744ntf    sn229447   5.297   1.616   6.957 -0.3434  0.1816  0.0352
 5744ntf    nn329448   5.361   1.633   7.100  0.3003  0.2880 -0.2616
 5744ntf    sn229449   5.374   1.761   7.188  0.1459  0.1465 -0.0324
 5744ntf    cn129450   5.207   1.764   7.260 -0.1058 -0.1728 -0.5975
 5744ntf    fn429451   5.535   1.636   6.861 -0.5926  0.5392  0.3357
 5744ntf    fn429452   5.469   1.432   6.895 -0.0357  0.0863 -0.3524
 5744ntf    fn429453   5.413   1.554   6.724  0.7322 -0.1839 -0.0470
 5744ntf    on529454   5.267   1.737   6.884 -0.2788  0.1428 -0.0552
 5744ntf    on529455   5.198   1.512   6.954  0.0280 -0.1693 -0.1353
 5744ntf    on529456   5.380   1.883   7.111 -0.1549  0.2477  0.1020
 5744ntf    on529457   5.457   1.748   7.306 -0.1550 -0.0854  0.1534
 5744ntf    fn429458   5.111   1.799   7.176 -0.5486 -0.0993 -0.0662
 5744ntf    fn429459   5.177   1.643   7.306 -0.1163  0.2011  0.4030
 5744ntf    fn429460   5.189   1.849   7.360  0.1287 -0.3207 -0.4268
 5745ntf    cn129461   5.023   2.289   6.254  0.2611 -0.0376  0.0477
 5745ntf    sn229462   5.157   2.290   6.376  0.0744 -0.1587  0.2532
 5745ntf    nn329463   5.111   2.393   6.485  0.3155  0.0429  0.1653
 5745ntf    sn229464   5.033   2.364   6.618  0.1060 -0.1361  0.0041
 5745ntf    cn129465   4.882   2.463   6.599 -0.0747 -0.3414  0.3625
 5745ntf    fn429466   5.040   2.195   6.162  0.1269 -0.4491  0.4412
 5745ntf    fn429467   4.904   2.273   6.308  0.4055 -0.1248  0.3390
 5745ntf    fn429468   5.018   2.399   6.179  0.1780  0.0282  0.1497
 5745ntf    on529469   5.168   2.150   6.411 -0.2865 -0.3962 -0.5655
 5745ntf    on529470   5.268   2.346   6.302  0.1285 -0.9004 -0.2440
 5745ntf    on529471   5.102   2.424   6.730  0.1594 -0.1162 -0.0388
 5745ntf    on529472   4.990   2.227   6.633  0.2252 -0.1268  0.4648
 5745ntf    fn429473   4.834   2.446   6.476  0.5074 -0.4417  0.1444
 5745ntf    fn429474   4.782   2.435   6.681 -0.2117 -0.4410  0.1618
 5745ntf    fn429475   4.897   2.594   6.593 -0.1444 -0.3604 -0.2918
 5746ntf    cn129476   6.079   1.821   0.846  0.2451 -0.1873 -0.1573
 5746ntf    sn229477   6.000   1.665   0.898 -0.1004 -0.0357 -0.2225
 5746ntf    nn329478   6.109   1.632   1.007 -0.0236  0.3672 -0.1738
 5746ntf    sn229479   6.109   1.684   1.155 -0.0667 -0.4375  0.1095
 5746ntf    cn129480   6.147   1.525   1.236 -0.1604 -0.4917  0.0475
 5746ntf    fn429481   6.072   1.910   0.944 -0.1015 -0.5194  0.1227
 5746ntf    fn429482   6.208   1.816   0.818  0.2999  0.4627 -0.0313
 5746ntf    fn429483   6.022   1.879   0.742 -0.4531  0.0122  0.3303
 5746ntf    on529484   5.869   1.704   0.944 -0.1513  0.0104 -0.4093
 5746ntf    on529485   6.018   1.591   0.776 -0.6021  0.1162 -0.3880
 5746ntf    on529486   5.982   1.721   1.212 -0.0341  0.0398 -0.1296
 5746ntf    on529487   6.218   1.774   1.183 -0.3771 -0.1247  0.3146
 5746ntf    fn429488   6.050   1.435   1.231 -0.6941  0.0988 -0.4710
 5746ntf    fn429489   6.253   1.464   1.188  0.4406  0.4590  0.1360
 5746ntf    fn429490   6.164   1.548   1.366  0.2386 -0.1491 -0.0647
 5747ntf    cn129491   2.028   5.278   4.932 -0.1176  0.1269 -0.3586
 5747ntf    sn229492   2.065   5.456   4.929 -0.2628  0.1625 -0.1069
 5747ntf    nn329493   2.003   5.498   5.067 -0.3068 -0.6201  0.1125
 5747ntf    sn229494   2.068   5.546   5.202 -0.4732 -0.1203  0.0171
 5747ntf    cn129495   2.070   5.725   5.174  0.0083 -0.0947  0.2059
 5747ntf    fn429496   2.091   5.212   4.837  0.0251  0.1158 -0.2554
 5747ntf    fn429497   2.061   5.216   5.044  0.0728  0.2026 -0.3729
 5747ntf    fn429498   1.900   5.254   4.907  0.0029 -0.9768  0.0627
 5747ntf    on529499   2.208   5.472   4.916 -0.1320 -0.5122  0.4673
 5747ntf    on529500   1.992   5.490   4.810  0.2045  0.1478 -0.4000
 5747ntf    on529501   2.208   5.516   5.223 -0.3810 -0.0014 -0.4186
 5747ntf    on529502   1.980   5.535   5.315 -0.2805 -0.2781  0.1541
 5747ntf    fn429503   2.144   5.763   5.070 -0.1888  0.2401  0.1855
 5747ntf    fn429504   1.955   5.782   5.144 -0.0775 -0.1787  0.3762
 5747ntf    fn429505   2.106   5.796   5.279 -0.0241  0.6161 -0.2566
 5748ntf    cn129506   0.364   2.248   1.154  0.0706  0.0706 -0.2754
 5748ntf    sn229507   0.271   2.254   0.998 -0.0341 -0.0489 -0.2182
 5748ntf    nn329508   0.153   2.354   1.024  0.0129 -0.0139 -0.1408
 5748ntf    sn229509   0.130   2.498   0.966 -0.1467  0.0309  0.0327
 5748ntf    cn129510   0.063   2.445   0.806  0.2901 -0.1233 -0.1007
 5748ntf    fn429511   0.270   2.239   1.247  0.2139  0.1683 -0.1198
 5748ntf    fn429512   0.450   2.147   1.156 -0.1383 -0.1074 -0.1662
 5748ntf    fn429513   0.421   2.362   1.188  0.6609 -0.4658  0.5726
 5748ntf    on529514   0.371   2.297   0.903 -0.1214  0.4734 -0.0789
 5748ntf    on529515   0.225   2.118   0.987 -0.0824 -0.0832  0.3579
 5748ntf    on529516   0.246   2.572   0.925  0.4128 -0.5906  0.4646
 5748ntf    on529517   0.022   2.566   1.034 -0.2832 -0.2592  0.1085
 5748ntf    fn429518  -0.048   2.377   0.826  0.4672 -0.4656 -0.2841
 5748ntf    fn429519   0.030   2.542   0.721 -0.1719 -0.0625  0.1450
 5748ntf    fn429520   0.142   2.366   0.735  0.3370 -0.2724  0.1195
 5749ntf    cn129521   3.839   0.559   2.805  0.2889  0.2732  0.1775
 5749ntf    sn229522   3.754   0.701   2.729 -0.0848 -0.1031 -0.1153
 5749ntf    nn329523   3.730   0.777   2.865  0.1252 -0.1414 -0.0551
 5749ntf    sn229524   3.603   0.863   2.900  0.1014 -0.1894 -0.0236
 5749ntf    cn129525   3.658   1.014   2.815 -0.0886 -0.0331  0.1315
 5749ntf    fn429526   3.953   0.609   2.850  0.1804  0.1856  0.5449
 5749ntf    fn429527   3.767   0.507   2.902  0.8124 -0.3471  0.2447
 5749ntf    fn429528   3.865   0.457   2.724 -0.0035  0.0220  0.3990
 5749ntf    on529529   3.859   0.757   2.648  0.1091  0.0441  0.2358
 5749ntf    on529530   3.639   0.635   2.674  0.0013 -0.1525 -0.2379
 5749ntf    on529531   3.598   0.888   3.042  0.3300  0.2349 -0.0922
 5749ntf    on529532   3.476   0.809   2.856  0.2007 -0.5911  0.1777
 5749ntf    fn429533   3.701   0.987   2.693  0.7076  0.1653  0.3623
 5749ntf    fn429534   3.559   1.100   2.797  0.3587  0.5565  0.4339
 5749ntf    fn429535   3.750   1.078   2.885  0.1512  0.2337 -0.4293
 5750ntf    cn129536   5.019   0.067   4.421  0.2235 -0.2259  0.2787
 5750ntf    sn229537   5.152   0.134   4.316 -0.0005 -0.3324 -0.0746
 5750ntf    nn329538   5.122   0.287   4.332 -0.1094 -0.3299 -0.2999
 5750ntf    sn229539   5.186   0.403   4.248 -0.1013  0.1386  0.3385
 5750ntf    cn129540   5.363   0.383   4.285 -0.0438 -0.2115 -0.1121
 5750ntf    fn429541   5.034   0.101   4.548  0.2890  0.5460  0.0670
 5750ntf    fn429542   4.901   0.120   4.391  0.1804 -0.2510  0.4060
 5750ntf    fn429543   5.003  -0.064   4.413 -0.0047 -0.1772 -0.1244
 5750ntf    on529544   5.276   0.100   4.380 -0.4221 -0.2886  0.7813
 5750ntf    on529545   5.126   0.079   4.185  0.0414 -0.0698 -0.1930
 5750ntf    on529546   5.162   0.536   4.298  0.3296  0.3138  0.0907
 5750ntf    on529547   5.177   0.376   4.106  0.3847  0.3565  0.2619
 5750ntf    fn429548   5.394   0.384   4.414  0.0351 -0.0501 -0.1317
 5750ntf    fn429549   5.416   0.270   4.240 -0.0648 -0.1039 -0.4040
 5750ntf    fn429550   5.439   0.469   4.220  0.3499 -0.7097 -0.3234
 5751ntf    cn129551   7.160   6.544   2.596 -0.0092 -0.3413 -0.0070
 5751ntf    sn229552   7.307   6.587   2.499 -0.1127  0.0986  0.0309
 5751ntf    nn329553   7.336   6.728   2.563  0.5258  0.0410 -0.1272
 5751ntf    sn229554   7.472   6.806   2.552  0.4731  0.1410 -0.0715
 5751ntf    cn129555   7.424   6.930   2.428  0.0532  0.0695  0.0200
 5751ntf    fn429556   7.159   6.577   2.724 -0.6773 -0.3004 -0.0160
 5751ntf    fn429557   7.053   6.606   2.547  0.0867  0.0285  0.2564
 5751ntf    fn429558   7.140   6.413   2.588 -0.5629 -0.2808  0.3325
 5751ntf    on529559   7.404   6.489   2.541 -0.0843  0.1511  0.0903
 5751ntf    on529560   7.258   6.589   2.363  0.6635  0.3698 -0.2528
 5751ntf    on529561   7.581   6.733   2.492 -0.1985 -0.4573 -0.5867
 5751ntf    on529562   7.487   6.888   2.669 -0.4083  0.0227  0.1278
 5751ntf    fn429563   7.311   6.993   2.456 -0.2043  0.0289 -0.9157
 5751ntf    fn429564   7.514   7.026   2.414  0.4393 -0.3967 -0.7316
 5751ntf    fn429565   7.407   6.884   2.305  0.6821  0.3680 -0.1792
 5752ntf    cn129566   3.013   1.236   0.262  0.1997 -0.0619 -0.2631
 5752ntf    sn229567   3.097   1.121   0.149  0.0960 -0.5090  0.1128
 5752ntf    nn329568   2.973   1.067   0.070 -0.1872 -0.0784  0.2569
 5752ntf    sn229569   2.908   0.924   0.062 -0.1576 -0.0768 -0.0582
 5752ntf    cn129570   2.736   0.961   0.106 -0.1853 -0.3506  0.0638
 5752ntf    fn429571   3.100   1.311   0.328 -0.5632  0.5921  0.0225
 5752ntf    fn429572   2.929   1.324   0.209  0.1128  0.0896  0.1255
 5752ntf    fn429573   2.945   1.165   0.349  0.1655  0.5611  0.2280
 5752ntf    on529574   3.184   1.211   0.076 -0.4976  0.0502  0.0833
 5752ntf    on529575   3.164   1.020   0.227  0.4336 -0.2047  0.2234
 5752ntf    on529576   2.945   0.833   0.168 -0.0269  0.2351  0.1680
 5752ntf    on529577   2.899   0.878  -0.074 -0.7261 -0.2707  0.0420
 5752ntf    fn429578   2.697   1.078   0.059  0.1706 -0.0255  0.5741
 5752ntf    fn429579   2.652   0.868   0.061 -0.4989  0.1608 -0.4131
 5752ntf    fn429580   2.717   0.968   0.237 -0.1293  0.2596  0.0381
 5753ntf    cn129581   0.842   3.311   4.764  0.3957 -0.5063  0.0317
 5753ntf    sn229582   0.984   3.414   4.813  0.0517  0.1476 -0.3415
 5753ntf    nn329583   0.983   3.394   4.969  0.7897  0.1068 -0.3392
 5753ntf    sn229584   1.044   3.492   5.075  0.0100 -0.0459  0.2633
 5753ntf    cn129585   1.001   3.421   5.237 -0.2427 -0.2649  0.0989
 5753ntf    fn429586   0.811   3.335   4.638  0.1268  0.2899  0.2455
 5753ntf    fn429587   0.860   3.180   4.768  0.1167 -0.5470 -0.0150
 5753ntf    fn429588   0.731   3.336   4.831  0.3487  0.2361 -0.3149
 5753ntf    on529589   1.099   3.358   4.746  0.1057  0.2756 -0.3550
 5753ntf    on529590   0.951   3.547   4.767 -0.2381  0.3101  0.3210
 5753ntf    on529591   0.976   3.618   5.068  0.3368  0.1220  0.0427
 5753ntf    on529592   1.188   3.501   5.075  0.0231 -0.2269 -0.2414
 5753ntf    fn429593   0.979   3.291   5.232  0.2374 -0.3338 -0.2932
 5753ntf    fn429594   1.095   3.443   5.326 -0.2011 -0.6458  0.1498
 5753ntf    fn429595   0.887   3.466   5.287 -0.0619  0.6489 -0.2832
 5754ntf    cn129596   1.842   0.107   7.458 -0.5406  0.2096 -0.0281
 5754ntf    sn229597   1.680   0.050   7.398 -0.3458 -0.4309  0.0472
 5754ntf    nn329598   1.657  -0.065   7.503 -0.5728 -0.0107  0.4594
 5754ntf    sn229599   1.552  -0.182   7.505 -0.1791 -0.3843 -0.2607
 5754ntf    cn129600   1.662  -0.325   7.489  0.0138 -0.2678  0.0206
 5754ntf    fn429601   1.832   0.182   7.566 -0.3309  0.2418 -0.0307
 5754ntf    fn429602   1.916   0.005   7.500 -0.8321  0.2410  0.5712
 5754ntf    fn429603   1.913   0.174   7.369 -0.4261 -0.0637 -0.1454
 5754ntf    on529604   1.601   0.168   7.424 -0.0620 -0.1908 -0.1797
 5754ntf    on529605   1.702   0.011   7.261 -0.3294  0.4017 -0.1895
 5754ntf    on529606   1.469  -0.207   7.390  0.2202 -0.0440 -0.6258
 5754ntf    on529607   1.495  -0.198   7.637  0.4915  0.7263  0.1826
 5754ntf    fn429608   1.718  -0.333   7.370  0.0399  0.2492 -0.0043
 5754ntf    fn429609   1.771  -0.307   7.563  0.0224 -0.7272  0.1220
 5754ntf    fn429610   1.625  -0.445   7.531 -0.3136  0.0130  0.5508
 5755ntf    cn129611   6.418   2.592   7.251  0.2805 -0.1591  0.3016
 5755ntf    sn229612   6.523   2.445   7.229  0.0646 -0.2177 -0.3483
 5755ntf    nn329613   6.420   2.327   7.226  0.1049 -0.2531 -0.3198
 5755ntf    sn229614   6.443   2.173   7.245  0.2840 -0.1731  0.1363
 5755ntf    cn129615   6.379   2.121   7.083  0.0907  0.1160  0.1213
 5755ntf    fn429616   6.418   2.636   7.376  0.5058  0.4184  0.1008
 5755ntf    fn429617   6.455   2.693   7.175 -0.0818 -0.6547 -0.5418
 5755ntf    fn429618   6.293   2.564   7.219  0.1990  0.3079  0.2060
 5755ntf    on529619   6.585   2.463   7.100  0.2761 -0.1631 -0.2397
 5755ntf    on529620   6.612   2.447   7.343 -0.2650  0.1122 -0.0919
 5755ntf    on529621   6.354   2.109   7.339 -0.2760  0.1507 -0.1672
 5755ntf    on529622   6.582   2.133   7.250  0.2768 -0.2670 -0.3112
 5755ntf    fn429623   6.410   2.000   7.040  0.1394  0.0890  0.2340
 5755ntf    fn429624   6.247   2.113   7.085  0.1054 -0.2065 -0.0558
 5755ntf    fn429625   6.407   2.210   6.989 -0.0854  0.1009  0.0539
 5756ntf    cn129626   2.177   7.407   5.490  0.4660 -0.3588  0.0034
 5756ntf    sn229627   2.055   7.479   5.603  0.1492 -0.3003 -0.3715
 5756ntf    nn329628   2.156   7.554   5.697  0.3224 -0.5081 -0.3913
 5756ntf    sn229629   2.220   7.697   5.685 -0.1411 -0.2582  0.0959
 5756ntf    cn129630   2.125   7.793   5.807 -0.6322 -0.5184 -0.0792
 5756ntf    fn429631   2.114   7.324   5.408  0.0377 -0.0496  0.0144
 5756ntf    fn429632   2.241   7.489   5.408  0.4337 -0.0733  0.2634
 5756ntf    fn429633   2.258   7.323   5.552 -0.1829 -1.2004 -0.2658
 5756ntf    on529634   1.973   7.563   5.520 -0.2818 -0.7212 -0.3779
 5756ntf    on529635   1.993   7.364   5.666 -0.3598  0.3201  0.2868
 5756ntf    on529636   2.204   7.771   5.563 -0.4103  0.2023  0.4056
 5756ntf    on529637   2.352   7.696   5.745 -0.1521  0.0999  0.1277
 5756ntf    fn429638   2.159   7.921   5.800 -0.1634 -0.6074  0.4310
 5756ntf    fn429639   1.995   7.786   5.787 -0.7529  0.2614  0.3856
 5756ntf    fn429640   2.147   7.753   5.931 -0.1344 -0.5854 -0.1870
 5757ntf    cn129641   5.732   5.575   7.250 -0.1401 -0.2070 -0.0863
 5757ntf    sn229642   5.810   5.548   7.412 -0.0964  0.0791 -0.0585
 5757ntf    nn329643   5.678   5.531   7.495 -0.0982  0.0237 -0.0724
 5757ntf    sn229644   5.585   5.408   7.527  0.1020 -0.1265 -0.0723
 5757ntf    cn129645   5.688   5.308   7.640  0.1975  0.0484 -0.0042
 5757ntf    fn429646   5.673   5.469   7.199 -0.6414 -0.1160  0.2946
 5757ntf    fn429647   5.640   5.669   7.265 -0.1817 -0.2511 -0.0598
 5757ntf    fn429648   5.814   5.616   7.155 -0.3196  0.3785  0.0058
 5757ntf    on529649   5.889   5.428   7.399 -0.5173 -0.1676 -0.3810
 5757ntf    on529650   5.884   5.670   7.430 -0.0022 -0.0118  0.1783
 5757ntf    on529651   5.561   5.324   7.413 -0.0304 -0.3118  0.0915
 5757ntf    on529652   5.471   5.448   7.606  0.3450 -0.0834  0.2594
 5757ntf    fn429653   5.614   5.247   7.731  0.2282  0.4149  0.2684
 5757ntf    fn429654   5.749   5.210   7.576 -0.2532 -0.2150 -0.0370
 5757ntf    fn429655   5.782   5.380   7.699  0.1997  0.2599 -0.2617
 5758ntf    cn129656   4.478   1.220   5.028 -0.2146  0.3066  0.5340
 5758ntf    sn229657   4.557   1.379   4.989  0.0721 -0.0475 -0.3496
 5758ntf    nn329658   4.458   1.478   5.058  0.0055 -0.2063 -0.2172
 5758ntf    sn229659   4.315   1.520   5.007  0.0121 -0.1172 -0.1640
 5758ntf    cn129660   4.367   1.674   4.926  0.0208 -0.0502 -0.0320
 5758ntf    fn429661   4.371   1.188   4.958  0.0672  0.1401  0.1715
 5758ntf    fn429662   4.568   1.123   5.019 -0.0516  0.4911  0.1454
 5758ntf    fn429663   4.436   1.208   5.153  0.1322  0.1035  0.6356
 5758ntf    on529664   4.678   1.365   5.066 -0.0417  0.3007 -0.1066
 5758ntf    on529665   4.568   1.387   4.845  0.1319 -0.7092 -0.3873
 5758ntf    on529666   4.229   1.566   5.113  0.0709  0.0530 -0.1900
 5758ntf    on529667   4.254   1.436   4.907  0.2020 -0.4503 -0.0050
 5758ntf    fn429668   4.421   1.652   4.807 -0.1854  0.1029 -0.1546
 5758ntf    fn429669   4.271   1.764   4.911 -0.1639 -0.2404  0.0019
 5758ntf    fn429670   4.466   1.729   4.994  0.0353  0.3016 -0.3360
 5759ntf    cn129671   2.702   1.162   6.581  0.5912  0.4683 -0.2694
 5759ntf    sn229672   2.679   1.194   6.759  0.1198  0.3487 -0.3062
 5759ntf    nn329673   2.541   1.268   6.748  0.2180  0.5894  0.0449
 5759ntf    sn229674   2.510   1.421   6.764 -0.1255  0.4732  0.5275
 5759ntf    cn129675   2.409   1.408   6.914 -0.3761  0.0223  0.3225
 5759ntf    fn429676   2.828   1.136   6.552  0.5842  0.1053  0.0194
 5759ntf    fn429677   2.626   1.060   6.546 -0.0990  0.7250  0.4340
 5759ntf    fn429678   2.663   1.264   6.507  0.0544  0.0577 -0.5557
 5759ntf    on529679   2.677   1.071   6.834  0.4717 -0.0098 -0.8781
 5759ntf    on529680   2.791   1.278   6.796  0.3605  0.1578 -0.6035
 5759ntf    on529681   2.417   1.469   6.665  0.9036  0.4531 -0.4708
 5759ntf    on529682   2.621   1.507   6.796  0.7819 -0.4266 -0.1307
 5759ntf    fn429683   2.304   1.487   6.913 -0.1349  0.3524  0.6842
 5759ntf    fn429684   2.373   1.287   6.954  0.0499 -0.1904  0.0752
 5759ntf    fn429685   2.481   1.447   7.019  0.3776  0.1661 -0.2366
 5760ntf    cn129686   5.564   4.716   2.920 -0.0586  0.4830  0.1258
 5760ntf    sn229687   5.732   4.647   2.907 -0.4115 -0.2792 -0.3981
 5760ntf    nn329688   5.766   4.585   3.047  0.0694 -0.1099 -0.4398
 5760ntf    sn229689   5.715   4.450   3.107  0.3110 -0.0117 -0.0092
 5760ntf    cn129690   5.698   4.494   3.283  0.0191 -0.0009 -0.0387
 5760ntf    fn429691   5.537   4.780   2.808 -0.2692  0.7783  0.3430
 5760ntf    fn429692   5.469   4.626   2.940  0.4438 -0.0614  0.0903
 5760ntf    fn429693   5.568   4.801   3.022  0.5218  0.4953  0.0957
 5760ntf    on529694   5.713   4.555   2.797 -0.0331 -0.2815 -0.4626
 5760ntf    on529695   5.813   4.761   2.874 -0.2218 -0.3694 -0.2438
 5760ntf    on529696   5.823   4.354   3.111 -0.1503 -0.5607 -0.5186
 5760ntf    on529697   5.587   4.404   3.059  0.5149 -0.4898 -0.1072
 5760ntf    fn429698   5.813   4.540   3.330 -0.2363  0.0700  0.5188
 5760ntf    fn429699   5.618   4.595   3.308  0.0393  0.1060 -0.4013
 5760ntf    fn429700   5.665   4.390   3.358 -0.2207 -0.0286 -0.1833
 5761ntf    cn129701   2.884   3.440   1.178  0.1604  0.3223  0.4622
 5761ntf    sn229702   2.873   3.614   1.228 -0.4385  0.3503  0.2409
 5761ntf    nn329703   2.768   3.676   1.129 -0.0037  0.3492 -0.2250
 5761ntf    sn229704   2.672   3.799   1.144  0.0136  0.3173  0.1437
 5761ntf    cn129705   2.730   3.902   1.006  0.0062  0.2735  0.1082
 5761ntf    fn429706   2.781   3.372   1.224 -0.1672 -0.0999 -0.8300
 5761ntf    fn429707   2.875   3.440   1.046 -0.0569 -0.0589  0.4764
 5761ntf    fn429708   2.991   3.369   1.212 -0.2255 -0.2698  0.4561
 5761ntf    on529709   2.826   3.605   1.364 -0.3311 -0.2399  0.2420
 5761ntf    on529710   3.007   3.662   1.205 -0.0712 -0.6387  0.2635
 5761ntf    on529711   2.681   3.885   1.260 -0.0471  0.6209 -0.0764
 5761ntf    on529712   2.540   3.756   1.108 -0.0418  0.4021  0.2437
 5761ntf    fn429713   2.845   3.962   1.029 -0.0142  0.3916 -0.0953
 5761ntf    fn429714   2.747   3.818   0.905 -0.3451 -0.2891  0.5119
 5761ntf    fn429715   2.641   3.996   0.980  0.1419  0.1904 -0.6966
 5762ntf    cn129716   3.320   6.909   5.817  0.0530 -0.4035  0.0459
 5762ntf    sn229717   3.341   6.732   5.854 -0.1421 -0.3852  0.2495
 5762ntf    nn329718   3.203   6.674   5.806 -0.0172 -0.3285 -0.1776
 5762ntf    sn229719   3.095   6.626   5.909  0.0169 -0.1450 -0.0550
 5762ntf    cn129720   2.956   6.622   5.792 -0.2641 -0.1605  0.2792
 5762ntf    fn429721   3.420   6.989   5.850 -0.2893 -0.1260  0.4162
 5762ntf    fn429722   3.294   6.918   5.687 -0.4070  0.6977  0.2035
 5762ntf    fn429723   3.216   6.957   5.883  0.6056  0.1242  0.5348
 5762ntf    on529724   3.456   6.690   5.778 -0.0335  0.0356  0.1769
 5762ntf    on529725   3.370   6.735   5.995  0.5069  0.6237  0.1054
 5762ntf    on529726   3.048   6.716   6.011  0.1041  0.1149 -0.2421
 5762ntf    on529727   3.093   6.486   5.941 -0.4260 -0.1680 -0.1762
 5762ntf    fn429728   2.855   6.552   5.842 -0.0499 -0.3797  0.4065
 5762ntf    fn429729   2.918   6.747   5.769 -0.1557 -0.1847 -0.0333
 5762ntf    fn429730   2.995   6.563   5.680 -0.5288  0.2599 -0.0383
 5763ntf    cn129731   7.240   5.617   5.272  0.3903  0.1775  0.3914
 5763ntf    sn229732   7.078   5.700   5.276  0.2152 -0.1403 -0.0062
 5763ntf    nn329733   7.096   5.787   5.405 -0.3036 -0.2079  0.1151
 5763ntf    sn229734   7.037   5.771   5.550  0.0238 -0.3069  0.2387
 5763ntf    cn129735   7.172   5.841   5.649  0.0039 -0.0652  0.0978
 5763ntf    fn429736   7.346   5.695   5.255  0.4904  0.0355  0.3686
 5763ntf    fn429737   7.260   5.556   5.388  0.2181  0.3747  0.5263
 5763ntf    fn429738   7.251   5.527   5.175 -0.2591  0.5114  0.0021
 5763ntf    on529739   7.088   5.782   5.159  0.4319 -0.0479  0.0763
 5763ntf    on529740   6.981   5.594   5.292 -0.3620  0.3335 -0.3109
 5763ntf    on529741   7.046   5.635   5.596  0.1569 -0.5395 -0.4594
 5763ntf    on529742   6.917   5.847   5.574  0.3559  0.3875 -0.2682
 5763ntf    fn429743   7.152   5.816   5.778 -0.6709 -0.4572 -0.0788
 5763ntf    fn429744   7.289   5.786   5.622 -0.0387 -0.2318  0.2500
 5763ntf    fn429745   7.185   5.972   5.640 -0.1591 -0.0367  0.2744
 5764ntf    cn129746   0.330   6.621   5.704  0.0988 -0.0148  0.6677
 5764ntf    sn229747   0.207   6.612   5.838 -0.3860 -0.2546  0.2145
 5764ntf    nn329748   0.097   6.519   5.776 -0.2283 -0.5337  0.3505
 5764ntf    sn229749   0.084   6.363   5.790  0.4940 -0.6114  0.1869
 5764ntf    cn129750  -0.055   6.352   5.907  0.2386 -0.1077 -0.0644
 5764ntf    fn429751   0.428   6.700   5.744  0.5388 -0.3889  0.3426
 5764ntf    fn429752   0.387   6.507   5.667  0.1266  0.0580  0.4859
 5764ntf    fn429753   0.278   6.676   5.596  0.0551 -0.4178  0.4795
 5764ntf    on529754   0.280   6.568   5.955 -0.0466 -0.2838 -0.0075
 5764ntf    on529755   0.151   6.745   5.842  0.2281 -0.0044  0.7194
 5764ntf    on529756   0.182   6.292   5.868  0.5691 -0.8117 -0.0919
 5764ntf    on529757   0.022   6.304   5.674  0.1628 -0.3506  0.2301
 5764ntf    fn429758  -0.165   6.391   5.844  0.1868 -0.1733 -0.0155
 5764ntf    fn429759  -0.069   6.229   5.955  0.5545  0.0692  0.4857
 5764ntf    fn429760  -0.037   6.432   6.010 -0.4162 -0.2254  0.1454
 5765ntf    cn129761   7.294   0.596   3.783  0.0331 -0.1943 -0.0148
 5765ntf    sn229762   7.421   0.477   3.834  0.2863  0.1821  0.2388
 5765ntf    nn329763   7.549   0.514   3.751  0.3444 -0.3281  0.0967
 5765ntf    sn229764   7.583   0.468   3.605 -0.0245 -0.1180 -0.0578
 5765ntf    cn129765   7.571   0.633   3.530  0.0117 -0.1171 -0.0615
 5765ntf    fn429766   7.273   0.581   3.653  0.1732 -0.3279 -0.0221
 5765ntf    fn429767   7.177   0.559   3.832  0.1219 -0.9696 -0.3631
 5765ntf    fn429768   7.328   0.720   3.814 -0.2952 -0.1939  0.3580
 5765ntf    on529769   7.440   0.511   3.973  0.0518  0.0740  0.2976
 5765ntf    on529770   7.364   0.346   3.817 -0.0917  0.3481  0.2308
 5765ntf    on529771   7.485   0.392   3.532 -0.1698  0.0168 -0.0019
 5765ntf    on529772   7.723   0.434   3.594 -0.0862 -0.4541  0.1730
 5765ntf    fn429773   7.607   0.633   3.403 -0.2797  0.5846 -0.1488
 5765ntf    fn429774   7.451   0.687   3.541  0.0312 -0.1280  0.2081
 5765ntf    fn429775   7.648   0.718   3.595 -0.0675  0.1421 -0.3054
 5766ntf    cn129776   4.687   0.455   7.027  0.2231  0.2184  0.2527
 5766ntf    sn229777   4.789   0.430   7.176  0.5217 -0.0941 -0.0043
 5766ntf    nn329778   4.712   0.315   7.250  0.4904  0.2031  0.4312
 5766ntf    sn229779   4.576   0.326   7.326  0.2055 -0.3131  0.0032
 5766ntf    cn129780   4.641   0.364   7.491  0.0404  0.1588 -0.0389
 5766ntf    fn429781   4.745   0.551   6.959  0.2094  0.4349  0.5431
 5766ntf    fn429782   4.676   0.343   6.958  0.0520  0.1405  0.4024
 5766ntf    fn429783   4.568   0.498   7.066  0.1229 -0.0139  0.2068
 5766ntf    on529784   4.912   0.384   7.117  0.3784  0.0911 -0.4532
 5766ntf    on529785   4.791   0.555   7.248 -0.2221 -0.1379  0.1033
 5766ntf    on529786   4.518   0.195   7.347  0.0280 -0.2251  0.0603
 5766ntf    on529787   4.482   0.429   7.289  0.0134 -0.2901  0.5438
 5766ntf    fn429788   4.713   0.474   7.492  0.2202  0.0420 -0.0890
 5766ntf    fn429789   4.540   0.394   7.572  0.4174  0.0461  0.4807
 5766ntf    fn429790   4.711   0.262   7.538 -0.1181  0.1578  0.1968
 5767ntf    cn129791   3.645   6.687   0.839  0.2063  0.4537  0.3140
 5767ntf    sn229792   3.516   6.703   0.712  0.1627 -0.0618  0.2911
 5767ntf    nn329793   3.387   6.670   0.796  0.0136 -0.1916  0.0107
 5767ntf    sn229794   3.275   6.564   0.766  0.0690 -0.2890  0.1507
 5767ntf    cn129795   3.301   6.445   0.901  0.1085 -0.0598  0.3451
 5767ntf    fn429796   3.764   6.712   0.786 -0.0495  0.1312 -0.4245
 5767ntf    fn429797   3.624   6.774   0.936 -0.4281  0.1760  0.4289
 5767ntf    fn429798   3.647   6.570   0.900  0.1264  0.1153 -0.3248
 5767ntf    on529799   3.515   6.841   0.670  0.5290 -0.1130  0.1160
 5767ntf    on529800   3.556   6.606   0.614 -0.4101 -0.2163  0.2060
 5767ntf    on529801   3.300   6.487   0.646  0.4925  0.0656  0.0079
 5767ntf    on529802   3.140   6.606   0.792  0.0347 -0.0538 -0.3851
 5767ntf    fn429803   3.260   6.501   1.013  0.2682  0.1274  0.3122
 5767ntf    fn429804   3.243   6.329   0.875 -0.0415  0.1292 -0.1865
 5767ntf    fn429805   3.429   6.418   0.922  0.1554 -0.0945  0.0200
 5768ntf    cn129806   2.749   3.974   3.773 -0.2301 -0.0262  0.2301
 5768ntf    sn229807   2.697   3.924   3.606  0.1963 -0.3241  0.1856
 5768ntf    nn329808   2.576   4.023   3.592  0.3747 -0.1670 -0.2605
 5768ntf    sn229809   2.561   4.167   3.532 -0.2449 -0.1802 -0.1406
 5768ntf    cn129810   2.468   4.244   3.668 -0.1821  0.2571 -0.3435
 5768ntf    fn429811   2.777   4.103   3.782 -0.1473 -0.0307  0.0313
 5768ntf    fn429812   2.648   3.954   3.857 -0.1058 -0.1591  0.3481
 5768ntf    fn429813   2.852   3.905   3.820 -0.3027 -0.0152  0.4062
 5768ntf    on529814   2.815   3.959   3.532  0.0017 -0.5539 -0.2386
 5768ntf    on529815   2.661   3.784   3.612 -0.2222 -0.2520 -0.5522
 5768ntf    on529816   2.471   4.178   3.420 -0.0463  0.3426 -0.2533
 5768ntf    on529817   2.684   4.242   3.524 -0.2770 -0.0947  0.1643
 5768ntf    fn429818   2.540   4.223   3.777 -0.0657  0.6174 -0.3475
 5768ntf    fn429819   2.447   4.374   3.649 -0.1578  0.2893 -0.1550
 5768ntf    fn429820   2.353   4.187   3.699 -0.0453  0.0232 -0.2623
 5769ntf    cn129821   0.472   4.756   1.195  0.2433 -0.2955 -0.1505
 5769ntf    sn229822   0.419   4.650   1.333  0.2469 -0.0498  0.0396
 5769ntf    nn329823   0.264   4.672   1.328  0.2828  0.2120  0.0431
 5769ntf    sn229824   0.161   4.608   1.228  0.2422  0.1446  0.1268
 5769ntf    cn129825   0.075   4.760   1.175 -0.1275 -0.1005  0.0223
 5769ntf    fn429826   0.419   4.714   1.081  0.2642  0.1090 -0.3125
 5769ntf    fn429827   0.434   4.882   1.211 -0.0496 -0.4334  0.2621
 5769ntf    fn429828   0.603   4.754   1.181  0.2750  0.0566  0.0835
 5769ntf    on529829   0.470   4.519   1.302  0.1559 -0.1536  0.3204
 5769ntf    on529830   0.476   4.712   1.451  0.0443  0.2344 -0.0109
 5769ntf    on529831   0.057   4.534   1.294  0.5012  0.2704  0.6744
 5769ntf    on529832   0.216   4.549   1.109  0.0208 -0.3523  0.2714
 5769ntf    fn429833   0.002   4.820   1.268  0.3105 -0.1031  0.3685
 5769ntf    fn429834   0.164   4.848   1.134 -0.0010  0.0952  0.7101
 5769ntf    fn429835  -0.005   4.736   1.072  0.0977  0.2774 -0.2396
 5770ntf    cn129836   0.312   6.178   0.165  0.2892  0.1538 -0.1377
 5770ntf    sn229837   0.232   6.276   0.034 -0.1202 -0.0655 -0.0540
 5770ntf    nn329838   0.356   6.261  -0.061  0.1676  0.0175  0.3046
 5770ntf    sn229839   0.457   6.374  -0.104  0.3528 -0.3053 -0.1152
 5770ntf    cn129840   0.428   6.359  -0.283 -0.2355 -0.0170 -0.0480
 5770ntf    fn429841   0.219   6.166   0.259  0.0586  0.2347 -0.3542
 5770ntf    fn429842   0.346   6.057   0.126  0.0007  0.1695 -0.4484
 5770ntf    fn429843   0.415   6.239   0.222  0.1623  0.1475  0.1015
 5770ntf    on529844   0.124   6.192  -0.010 -0.1701 -0.1631  0.2549
 5770ntf    on529845   0.210   6.411   0.081  0.1413 -0.0148 -0.0724
 5770ntf    on529846   0.590   6.325  -0.081  0.4264 -0.1550 -0.2233
 5770ntf    on529847   0.426   6.514  -0.091  0.1880 -0.3311 -0.2165
 5770ntf    fn429848   0.459   6.240  -0.333 -0.1317  0.1310 -0.3420
 5770ntf    fn429849   0.303   6.393  -0.311 -0.1759  0.1306 -0.1328
 5770ntf    fn429850   0.506   6.447  -0.343  0.0849  0.2473  0.7453
 5771ntf    cn129851   4.460   5.330   5.397  0.1859 -0.1194 -0.6692
 5771ntf    sn229852   4.524   5.180   5.478 -0.1088  0.2588  0.2793
 5771ntf    nn329853   4.580   5.093   5.360 -0.1434  0.4261  0.1390
 5771ntf    sn229854   4.719   5.085   5.286 -0.1890  0.2905  0.0682
 5771ntf    cn129855   4.779   4.932   5.364  0.3143  0.1231 -0.6292
 5771ntf    fn429856   4.538   5.384   5.305  0.6471  0.3069 -0.0336
 5771ntf    fn429857   4.342   5.314   5.339 -0.1115  0.3808 -0.2024
 5771ntf    fn429858   4.434   5.431   5.478 -0.1904 -0.3002 -0.5577
 5771ntf    on529859   4.622   5.218   5.576  0.0295 -0.2334  0.3327
 5771ntf    on529860   4.402   5.125   5.530  0.1908 -0.1435  0.5602
 5771ntf    on529861   4.810   5.195   5.302 -0.0508  0.0943  0.6414
 5771ntf    on529862   4.711   5.054   5.145  0.0579  0.1944  0.0751
 5771ntf    fn429863   4.695   4.832   5.343 -0.1083  0.2514  0.3569
 5771ntf    fn429864   4.895   4.893   5.316  0.5338  0.2132 -0.1794
 5771ntf    fn429865   4.794   4.954   5.494 -0.6917  0.2740 -0.5260
 5772ntf    cn129866   6.885   1.766   0.736 -0.0840  0.6648  0.1799
 5772ntf    sn229867   6.919   1.719   0.908  0.0043  0.0129 -0.0104
 5772ntf    nn329868   6.785   1.773   0.969 -0.1405 -0.0852 -0.2416
 5772ntf    sn229869   6.641   1.710   0.971 -0.1197 -0.1339 -0.2486
 5772ntf    cn129870   6.653   1.615   1.126  0.0471 -0.3640 -0.4019
 5772ntf    fn429871   6.768   1.727   0.688  0.2672 -0.2453  0.0394
 5772ntf    fn429872   6.888   1.897   0.720  0.4993  0.5499 -0.7260
 5772ntf    fn429873   6.978   1.716   0.655 -0.1650  0.6330  0.1063
 5772ntf    on529874   6.930   1.576   0.921  0.5927  0.0231 -0.3727
 5772ntf    on529875   7.034   1.799   0.944  0.1478 -0.1182 -0.1775
 5772ntf    on529876   6.610   1.613   0.869  0.2662  0.1091 -0.6004
 5772ntf    on529877   6.547   1.811   1.014  0.4597  0.0538  0.5972
 5772ntf    fn429878   6.682   1.699   1.224 -0.0233 -0.0596 -0.6403
 5772ntf    fn429879   6.538   1.557   1.156 -0.1548  0.1382 -0.1928
 5772ntf    fn429880   6.753   1.530   1.141 -0.0076 -0.3482  0.0604
 5773ntf    cn129881   2.655   5.198   3.663 -0.2527  0.4400  0.0765
 5773ntf    sn229882   2.712   5.289   3.517 -0.0981  0.4642  0.1510
 5773ntf    nn329883   2.684   5.441   3.544 -0.6182  0.3070  0.5007
 5773ntf    sn229884   2.766   5.539   3.635  0.0018  0.1215  0.1440
 5773ntf    cn129885   2.634   5.655   3.681  0.0810  0.1345  0.3409
 5773ntf    fn429886   2.736   5.221   3.766  0.3271 -0.6360 -0.1252
 5773ntf    fn429887   2.533   5.231   3.701 -0.4124 -0.1575  0.0955
 5773ntf    fn429888   2.658   5.068   3.642 -0.3598  0.4178  0.1938
 5773ntf    on529889   2.853   5.259   3.518 -0.0321  0.7771  0.1585
 5773ntf    on529890   2.632   5.227   3.414 -0.0204 -0.6490  0.7515
 5773ntf    on529891   2.871   5.611   3.567  0.2161 -0.1189  0.2170
 5773ntf    on529892   2.797   5.487   3.765 -0.0436 -0.2227  0.0172
 5773ntf    fn429893   2.672   5.764   3.745 -0.1387  0.1963  0.3681
 5773ntf    fn429894   2.575   5.698   3.570 -0.3010  0.2380  0.5839
 5773ntf    fn429895   2.539   5.596   3.751  0.0609  0.4808  0.6097
 5774ntf    cn129896   5.902   4.402   6.470 -0.2386  0.0066 -0.4260
 5774ntf    sn229897   5.842   4.275   6.585 -0.0007  0.4082  0.1409
 5774ntf    nn329898   5.696   4.333   6.598 -0.0986  0.1724  0.0946
 5774ntf    sn229899   5.567   4.268   6.659 -0.2736  0.5501  0.1300
 5774ntf    cn129900   5.469   4.220   6.514 -0.5512 -0.0440  0.5111
 5774ntf    fn429901   5.809   4.451   6.390 -0.2065  0.4175 -0.2111
 5774ntf    fn429902   5.954   4.502   6.538 -0.0376 -0.2560 -0.1915
 5774ntf    fn429903   6.002   4.358   6.394  0.4161  0.1746  0.3244
 5774ntf    on529904   5.837   4.155   6.506  0.7310  0.3117  0.2324
 5774ntf    on529905   5.928   4.282   6.701  0.9770 -0.3139 -0.5323
 5774ntf    on529906   5.485   4.362   6.730 -0.1751  0.8049 -0.0921
 5774ntf    on529907   5.585   4.138   6.719 -1.0239  0.3017 -0.1747
 5774ntf    fn429908   5.541   4.156   6.423 -0.3734  0.1927  0.4860
 5774ntf    fn429909   5.381   4.124   6.538 -0.4668 -0.1246  0.4997
 5774ntf    fn429910   5.408   4.321   6.455 -0.3077 -0.1910  0.0066
 5775ntf    cn129911   1.740   5.091   3.464  0.1052  0.0273  0.1410
 5775ntf    sn229912   1.772   5.268   3.494  0.2161  0.0521 -0.1190
 5775ntf    nn329913   1.792   5.324   3.349  0.4192 -0.0638 -0.1363
 5775ntf    sn229914   1.697   5.413   3.261  0.2419 -0.1958 -0.0778
 5775ntf    cn129915   1.818   5.539   3.214  0.0621  0.0669  0.1579
 5775ntf    fn429916   1.847   5.034   3.409  0.0809  0.6253 -0.5374
 5775ntf    fn429917   1.707   5.023   3.572 -0.2135  0.1842  0.1409
 5775ntf    fn429918   1.643   5.079   3.375  0.4079 -0.3651 -0.1443
 5775ntf    on529919   1.657   5.314   3.568  0.2688  0.3443 -0.2185
 5775ntf    on529920   1.892   5.271   3.574 -0.1119  0.8014  0.3507
 5775ntf    on529921   1.587   5.490   3.314 -0.2310 -0.5499 -0.5379
 5775ntf    on529922   1.664   5.350   3.136  0.1255  0.3973 -0.3497
 5775ntf    fn429923   1.935   5.493   3.173  0.0258  0.1461 -0.0365
 5775ntf    fn429924   1.781   5.622   3.117 -0.5162  0.1321  0.4310
 5775ntf    fn429925   1.844   5.629   3.308  0.4689  0.0161  0.0978
 5776ntf    cn129926   6.509   6.718   2.031 -0.0637 -0.4928 -0.2740
 5776ntf    sn229927   6.513   6.741   1.851  0.4465  0.2060 -0.1753
 5776ntf    nn329928   6.555   6.598   1.803  0.1360  0.1808 -0.3723
 5776ntf    sn229929   6.683   6.553   1.724  0.2967 -0.3553  0.1818
 5776ntf    cn129930   6.678   6.372   1.741 -0.3953 -0.3314  0.2465
 5776ntf    fn429931   6.476   6.830   2.094  0.2433 -0.5120 -0.0783
 5776ntf    fn429932   6.413   6.632   2.062 -0.2543 -0.2778 -0.2557
 5776ntf    fn429933   6.623   6.677   2.082  0.3726  0.4113 -0.4985
 5776ntf    on529934   6.377   6.771   1.815  0.3647  0.2992  0.2112
 5776ntf    on529935   6.605   6.853   1.846 -0.3285  0.8463 -0.2066
 5776ntf    on529936   6.812   6.586   1.780  0.3816 -0.6082  0.1354
 5776ntf    on529937   6.669   6.568   1.581 -0.2221 -0.3565  0.2315
 5776ntf    fn429938   6.710   6.326   1.861 -0.1632 -0.1183  0.2669
 5776ntf    fn429939   6.560   6.314   1.722 -0.3059 -0.4663  0.1003
 5776ntf    fn429940   6.752   6.312   1.650 -0.1513  0.5600 -0.1602
 5777ntf    cn129941   2.407   5.882   2.516 -0.0232  0.1572 -0.0053
 5777ntf    sn229942   2.327   5.787   2.384  0.4016 -0.0186 -0.1379
 5777ntf    nn329943   2.310   5.887   2.264 -0.1438  0.2450  0.1545
 5777ntf    sn229944   2.393   5.888   2.130  0.0651  0.0725  0.2814
 5777ntf    cn129945   2.342   6.049   2.061  0.1617 -0.0234 -0.0120
 5777ntf    fn429946   2.412   5.819   2.633  0.2307 -0.2962 -0.2544
 5777ntf    fn429947   2.536   5.904   2.495  0.1237 -0.5888  0.0907
 5777ntf    fn429948   2.352   6.000   2.537  0.5308  0.4267 -0.0722
 5777ntf    on529949   2.411   5.672   2.361  0.0229 -0.3822  0.2814
 5777ntf    on529950   2.193   5.765   2.432  0.5301 -0.4717  0.0267
 5777ntf    on529951   2.348   5.783   2.043  0.6125  0.0431  0.0316
 5777ntf    on529952   2.535   5.900   2.150  0.2159 -0.3667 -0.4982
 5777ntf    fn429953   2.211   6.060   2.056  0.1223 -0.2903  0.3587
 5777ntf    fn429954   2.374   6.152   2.138  0.1999 -0.2009  0.2145
 5777ntf    fn429955   2.400   6.072   1.944 -0.3448  0.0234 -0.2548
 5778ntf    cn129956   1.654   5.080   2.227  0.1624 -0.0179  0.1722
 5778ntf    sn229957   1.779   5.130   2.348  0.3016  0.0408  0.0048
 5778ntf    nn329958   1.691   5.176   2.470  0.3278  0.4519 -0.1301
 5778ntf    sn229959   1.670   5.108   2.610 -0.1221  0.3901 -0.2261
 5778ntf    cn129960   1.805   5.189   2.701 -0.0602 -0.0542  0.0786
 5778ntf    fn429961   1.705   5.060   2.107 -0.2548  0.4845 -0.0963
 5778ntf    fn429962   1.591   4.972   2.268 -0.0712  0.0208 -0.0780
 5778ntf    fn429963   1.565   5.175   2.204 -0.3553 -0.5059  0.1422
 5778ntf    on529964   1.843   5.003   2.373 -0.7871 -0.5196 -0.0152
 5778ntf    on529965   1.856   5.234   2.284 -0.2415  0.3316 -0.1867
 5778ntf    on529966   1.690   4.966   2.622 -0.3924  0.3184 -0.5827
 5778ntf    on529967   1.548   5.158   2.667 -0.3158 -0.3628  0.0300
 5778ntf    fn429968   1.793   5.320   2.697  0.3989 -0.0008  0.3647
 5778ntf    fn429969   1.800   5.157   2.829  0.0581  0.0575  0.1114
 5778ntf    fn429970   1.928   5.156   2.664 -0.0426  0.1655 -0.0561
 5779ntf    cn129971   4.119   0.096   3.297 -0.2628 -0.4845  0.0662
 5779ntf    sn229972   4.151   0.081   3.119  0.0266  0.0729  0.0654
 5779ntf    nn329973   4.012   0.119   3.056  0.2601 -0.1234 -0.5749
 5779ntf    sn229974   3.893   0.023   3.019 -0.0976  0.0613  0.0908
 5779ntf    cn129975   3.916   0.022   2.839  0.1798 -0.2439  0.1275
 5779ntf    fn429976   4.217   0.049   3.374  0.5462  0.7126 -0.1996
 5779ntf    fn429977   4.095   0.220   3.337 -0.4071 -0.3858 -0.3205
 5779ntf    fn429978   4.010   0.030   3.331 -0.4983 -0.1151  0.0406
 5779ntf    on529979   4.250   0.183   3.098  0.1058 -0.0637 -0.2340
 5779ntf    on529980   4.189  -0.057   3.097  0.4304  0.1541  0.2516
 5779ntf    on529981   3.761   0.081   3.025  0.0263  0.4398 -0.7055
 5779ntf    on529982   3.903  -0.117   3.052 -0.1047 -0.0649 -0.4382
 5779ntf    fn429983   4.033  -0.029   2.804  0.0715 -0.2902 -0.1686
 5779ntf    fn429984   3.831  -0.053   2.771 -0.0669 -0.1087  0.2872
 5779ntf    fn429985   3.910   0.143   2.786 -0.0999 -0.3822 -0.1609
 5780ntf    cn129986   6.224   1.418   3.395  0.0204 -0.1509  0.0170
 5780ntf    sn229987   6.309   1.454   3.238 -0.0355 -0.0331  0.0132
 5780ntf    nn329988   6.271   1.332   3.148  0.0515  0.1255 -0.2384
 5780ntf    sn229989   6.166   1.331   3.031  0.1056 -0.4061 -0.2879
 5780ntf    cn129990   6.275   1.383   2.896  0.4727 -0.0849  0.1295
 5780ntf    fn429991   6.258   1.299   3.441  0.0438 -0.0523  0.2566
 5780ntf    fn429992   6.253   1.498   3.497  0.2456  0.2002 -0.3172
 5780ntf    fn429993   6.092   1.421   3.390  0.0342 -0.3299 -0.4300
 5780ntf    on529994   6.267   1.588   3.203  1.1386  0.0638 -1.0893
 5780ntf    on529995   6.447   1.447   3.278  0.0080  0.1260 -0.1101
 5780ntf    on529996   6.051   1.418   3.048  0.4910  0.0617 -0.0362
 5780ntf    on529997   6.130   1.200   2.984 -0.2502 -0.3184 -0.2623
 5780ntf    fn429998   6.210   1.370   2.782  0.0117  0.1173  0.3703
 5780ntf    fn429999   6.290   1.514   2.908  0.3405 -0.0976  0.4570
 5780ntf    fn430000   6.392   1.321   2.898  0.4738 -0.0810  0.1831
 5781ntf    cn130001   6.271   0.088   1.739 -0.0837  0.3094  0.0907
 5781ntf    sn230002   6.165   0.026   1.606 -0.2077  0.3864  0.1535
 5781ntf    nn330003   6.268   0.010   1.489 -0.1561 -0.0562  0.2588
 5781ntf    sn230004   6.279  -0.115   1.394  0.1178 -0.1103  0.3592
 5781ntf    cn130005   6.243  -0.032   1.235 -0.2403 -0.2469  0.3697
 5781ntf    fn430006   6.341   0.194   1.700 -0.1464  0.2853 -0.0848
 5781ntf    fn430007   6.206   0.126   1.848  0.1054  0.8010  0.0363
 5781ntf    fn430008   6.365   0.004   1.779 -0.1052  0.0673 -0.3610
 5781ntf    on530009   6.109  -0.087   1.675  0.1966  0.3197  0.3724
 5781ntf    on530010   6.084   0.143   1.583 -0.1603  0.4091  0.1046
 5781ntf    on530011   6.178  -0.216   1.411 -0.1967  0.1919  0.3039
 5781ntf    on530012   6.417  -0.154   1.380  0.3020  0.7523 -0.3838
 5781ntf    fn430013   6.310   0.080   1.220 -0.7540 -0.0002 -0.1267
 5781ntf    fn430014   6.253  -0.099   1.122 -0.1911  0.7014 -0.1926
 5781ntf    fn430015   6.118   0.011   1.242 -0.0271  0.4013  0.2329
 5782ntf    cn130016   4.432   3.854   0.533 -0.1739  0.0311 -0.3224
 5782ntf    sn230017   4.501   3.730   0.420  0.2003 -0.2960  0.2620
 5782ntf    nn330018   4.618   3.797   0.339  0.0102 -0.1969  0.0710
 5782ntf    sn230019   4.600   3.903   0.224  0.1143  0.1523  0.3730
 5782ntf    cn130020   4.622   3.803   0.073 -0.2388  0.2374  0.2641
 5782ntf    fn430021   4.343   3.934   0.476 -0.2988  0.0970 -0.0361
 5782ntf    fn430022   4.361   3.806   0.634  0.1898  0.3924  0.1093
 5782ntf    fn430023   4.524   3.938   0.577 -0.3356  0.1158 -0.1419
 5782ntf    on530024   4.543   3.616   0.498 -0.4339 -0.5827  0.1889
 5782ntf    on530025   4.385   3.700   0.340  0.4502  0.2508 -0.3145
 5782ntf    on530026   4.709   3.998   0.216 -0.0011  0.2212 -0.4646
 5782ntf    on530027   4.469   3.963   0.218  0.1501  0.1819 -0.1676
 5782ntf    fn430028   4.575   3.680   0.087 -0.1588  0.1331 -0.3723
 5782ntf    fn430029   4.548   3.851  -0.026  0.0685  0.2422  0.0338
 5782ntf    fn430030   4.749   3.797   0.034 -0.0488  0.0121  0.9016
 5783ntf    cn130031   5.693   5.936   1.111  0.2976  0.3519  0.1203
 5783ntf    sn230032   5.697   5.955   0.930 -0.1101 -0.2285  0.0471
 5783ntf    nn330033   5.594   5.847   0.881  0.6249 -0.4673 -0.9956
 5783ntf    sn230034   5.468   5.867   0.790  0.1683  0.1219 -0.2403
 5783ntf    cn130035   5.337   5.884   0.916  0.2471 -0.1340 -0.1244
 5783ntf    fn430036   5.718   5.810   1.143 -0.2402  0.3250  0.4400
 5783ntf    fn430037   5.788   6.001   1.176  0.8047  0.1413 -0.4038
 5783ntf    fn430038   5.576   5.972   1.161  0.1803  0.4019 -0.1897
 5783ntf    on530039   5.654   6.092   0.932  0.3222 -0.0952  0.8530
 5783ntf    on530040   5.829   5.919   0.886 -0.0691  0.2960 -0.2602
 5783ntf    on530041   5.430   5.748   0.719  0.0472 -0.0106  0.0458
 5783ntf    on530042   5.474   5.989   0.713 -0.5964  0.0921 -0.3605
 5783ntf    fn430043   5.216   5.885   0.864  0.4284  0.4016 -0.5459
 5783ntf    fn430044   5.334   5.790   1.009 -0.0701  0.2074  0.2130
 5783ntf    fn430045   5.351   6.000   0.977  0.2173 -0.0014 -0.3667
 5784ntf    cn130046   2.750   2.344   3.730  0.1154 -0.5807 -0.2195
 5784ntf    sn230047   2.929   2.346   3.762  0.0912  0.1572 -0.1035
 5784ntf    nn330048   2.938   2.359   3.918 -0.3668  0.3578 -0.0932
 5784ntf    sn230049   3.049   2.438   3.996  0.1159 -0.1652 -0.2386
 5784ntf    cn130050   3.065   2.330   4.141  0.2640  0.0656 -0.0826
 5784ntf    fn430051   2.681   2.452   3.765  0.1751 -0.4810 -0.4123
 5784ntf    fn430052   2.715   2.318   3.606 -0.0208 -0.0423 -0.2976
 5784ntf    fn430053   2.694   2.245   3.798 -0.3689 -0.3397 -0.2652
 5784ntf    on530054   2.978   2.219   3.713  0.1636  0.1745 -0.0760
 5784ntf    on530055   2.965   2.462   3.685  0.0546 -0.1690 -0.6207
 5784ntf    on530056   2.999   2.562   4.050 -0.0180 -0.2575 -0.1500
 5784ntf    on530057   3.180   2.445   3.937 -0.1032  0.1342 -0.7005
 5784ntf    fn430058   3.177   2.347   4.210  0.2459  0.7913 -0.2242
 5784ntf    fn430059   2.969   2.342   4.231 -0.0763  0.0833 -0.4428
 5784ntf    fn430060   3.066   2.204   4.101  0.5859  0.0834 -0.1361
 5785ntf    cn130061   2.664   1.160   3.995  0.1556 -0.4688 -0.3277
 5785ntf    sn230062   2.541   1.235   3.884 -0.0281 -0.0432  0.1594
 5785ntf    nn330063   2.635   1.245   3.759 -0.0045 -0.4690  0.1434
 5785ntf    sn230064   2.695   1.373   3.692 -0.2752 -0.3252  0.1746
 5785ntf    cn130065   2.558   1.403   3.576 -0.1396  0.0531  0.1113
 5785ntf    fn430066   2.678   1.030   3.977  0.1352 -0.5907  0.5063
 5785ntf    fn430067   2.786   1.210   3.985 -0.0940  0.2599  0.1467
 5785ntf    fn430068   2.634   1.171   4.123 -0.0076  0.1015 -0.4104
 5785ntf    on530069   2.441   1.132   3.872  0.0206 -0.0938  0.1942
 5785ntf    on530070   2.507   1.359   3.950  0.2104  0.4042 -0.5459
 5785ntf    on530071   2.809   1.336   3.611 -0.6187  1.3214 -1.1346
 5785ntf    on530072   2.709   1.496   3.766 -0.0158  0.0683 -0.5120
 5785ntf    fn430073   2.584   1.519   3.516  0.3307  0.2140  0.6181
 5785ntf    fn430074   2.547   1.305   3.488 -0.1203  0.1778 -0.0315
 5785ntf    fn430075   2.439   1.417   3.632 -0.3772 -1.2708 -0.0320
 5786ntf    cn130076   3.025   2.903   5.247  0.2221  0.5427  0.2099
 5786ntf    sn230077   3.158   2.873   5.127 -0.0717  0.4865 -0.1059
 5786ntf    nn330078   3.086   2.886   4.988  0.0731 -0.1012 -0.2395
 5786ntf    sn230079   3.024   2.766   4.909  0.1412 -0.3677  0.1092
 5786ntf    cn130080   3.165   2.736   4.799  0.1689  0.0325  0.0356
 5786ntf    fn430081   2.915   2.833   5.223  0.4014  0.4318 -0.2924
 5786ntf    fn430082   3.062   2.874   5.370 -0.0901  0.2124  0.2277
 5786ntf    fn430083   2.982   3.028   5.245 -0.2637  0.3739 -0.3694
 5786ntf    on530084   3.249   2.978   5.164  0.2324  0.1109  0.2198
 5786ntf    on530085   3.193   2.739   5.170 -0.0321  0.5715  0.1268
 5786ntf    on530086   2.918   2.809   4.821  0.2964  0.1671  0.1853
 5786ntf    on530087   2.996   2.643   4.980  0.2908 -0.1095  0.6187
 5786ntf    fn430088   3.171   2.833   4.708  0.2538  0.2402  0.2614
 5786ntf    fn430089   3.276   2.730   4.870 -0.0565 -0.1297  0.3761
 5786ntf    fn430090   3.165   2.621   4.734 -0.0678  0.0030  0.0896
 5787ntf    cn130091   3.319   6.285   2.685  0.2698 -0.0749  0.1971
 5787ntf    sn230092   3.460   6.207   2.602  0.0303 -0.2388 -0.0578
 5787ntf    nn330093   3.534   6.139   2.722  0.1799  0.3669  0.1977
 5787ntf    sn230094   3.680   6.081   2.733 -0.1044 -0.3710  0.1454
 5787ntf    cn130095   3.753   6.202   2.848 -0.0558  0.0914 -0.3719
 5787ntf    fn430096   3.241   6.195   2.743  0.6863 -0.7396 -0.2695
 5787ntf    fn430097   3.355   6.368   2.781 -0.2743  0.6159 -0.1877
 5787ntf    fn430098   3.246   6.366   2.610  0.1441 -0.2383  0.1416
 5787ntf    on530099   3.408   6.108   2.510 -0.1153 -0.1440 -0.0780
 5787ntf    on530100   3.537   6.319   2.554 -0.1525  0.0735  0.3731
 5787ntf    on530101   3.764   6.080   2.616 -0.0866  0.2878  0.1511
 5787ntf    on530102   3.673   5.959   2.809 -0.1377 -0.1727  0.4642
 5787ntf    fn430103   3.873   6.165   2.889 -0.0849  0.2764 -0.1201
 5787ntf    fn430104   3.766   6.317   2.784 -0.8506  0.1580 -0.4236
 5787ntf    fn430105   3.685   6.225   2.959  0.0446 -0.4130 -0.2055
 5788ntf    cn130106   6.712   5.058   7.385 -0.0302  0.3408 -0.2715
 5788ntf    sn230107   6.789   5.186   7.488  0.0271  0.1433 -0.0682
 5788ntf    nn330108   6.741   5.321   7.424 -0.2976 -0.0602 -0.2517
 5788ntf    sn230109   6.635   5.425   7.476  0.0975  0.0661  0.3109
 5788ntf    cn130110   6.552   5.480   7.323  0.3441  0.1466  0.2057
 5788ntf    fn430111   6.742   4.939   7.432  0.8729  0.3244 -0.8597
 5788ntf    fn430112   6.581   5.076   7.378 -0.0949 -0.0503 -0.0549
 5788ntf    fn430113   6.752   5.067   7.259 -0.8128  0.3323 -0.5270
 5788ntf    on530114   6.744   5.158   7.622  0.1420 -0.0102 -0.0622
 5788ntf    on530115   6.926   5.153   7.457  0.1211  0.6185 -0.1728
 5788ntf    on530116   6.696   5.549   7.516  0.5834  0.1869 -0.7521
 5788ntf    on530117   6.534   5.370   7.564 -0.0573  0.2626  0.2562
 5788ntf    fn430118   6.497   5.380   7.256  0.3130 -0.0487  0.5201
 5788ntf    fn430119   6.457   5.569   7.344  0.4267  0.3313 -0.2096
 5788ntf    fn430120   6.631   5.535   7.232  0.4071 -0.6573 -0.2373
 5789ntf    cn130121   4.723   3.618   1.351  0.2238  0.0215 -0.3924
 5789ntf    sn230122   4.584   3.628   1.468  0.5123 -0.3079 -0.0168
 5789ntf    nn330123   4.461   3.639   1.370  0.0399 -0.0979  0.5952
 5789ntf    sn230124   4.364   3.759   1.343 -0.0384 -0.3379 -0.1934
 5789ntf    cn130125   4.216   3.663   1.295 -0.2200 -0.1455 -0.0197
 5789ntf    fn430126   4.736   3.725   1.273  0.0336  0.2899 -0.0586
 5789ntf    fn430127   4.843   3.603   1.404  0.1402 -0.6082 -0.3727
 5789ntf    fn430128   4.711   3.517   1.266  0.0378 -0.3322  0.0498
 5789ntf    on530129   4.589   3.505   1.542 -0.4747 -0.1142  0.3927
 5789ntf    on530130   4.610   3.749   1.542  0.1644 -0.2455  0.0084
 5789ntf    on530131   4.386   3.835   1.222  0.0696  0.1876  0.1559
 5789ntf    on530132   4.313   3.826   1.460 -0.5203 -0.3138 -0.4115
 5789ntf    fn430133   4.115   3.744   1.270 -0.4423 -0.5043 -0.2710
 5789ntf    fn430134   4.231   3.593   1.184  1.1033  0.0280  0.0329
 5789ntf    fn430135   4.180   3.577   1.389  1.1574 -0.4298  0.2726
 5790ntf    cn130136   2.832   3.139   5.541  0.0094 -0.2356  0.1574
 5790ntf    sn230137   2.766   3.299   5.489  0.4170 -0.1386 -0.0622
 5790ntf    nn330138   2.782   3.293   5.333  0.3823 -0.6325 -0.0491
 5790ntf    sn230139   2.821   3.404   5.228 -0.1138 -0.0104  0.4121
 5790ntf    cn130140   2.997   3.365   5.198 -0.2083  0.0774 -0.2640
 5790ntf    fn430141   2.857   3.143   5.671  0.2472  0.0120  0.1046
 5790ntf    fn430142   2.748   3.038   5.527 -0.0476 -0.1158 -0.3677
 5790ntf    fn430143   2.944   3.105   5.479 -0.1436 -0.3985 -0.0311
 5790ntf    on530144   2.628   3.291   5.530  0.5713 -0.7462  0.3461
 5790ntf    on530145   2.851   3.392   5.558 -0.0656 -0.0345  0.4011
 5790ntf    on530146   2.827   3.539   5.276 -0.7542  0.1464  0.0577
 5790ntf    on530147   2.753   3.376   5.104 -0.3076 -0.0598  0.5295
 5790ntf    fn430148   3.058   3.469   5.142  0.5853 -0.3645 -0.2256
 5790ntf    fn430149   3.056   3.338   5.313  0.3004  0.1865 -0.4973
 5790ntf    fn430150   3.013   3.255   5.127 -0.3364 -0.4189  0.4685
 5791ntf    cn130151   2.198   3.703   2.092  0.0058 -0.1247 -0.1475
 5791ntf    sn230152   2.349   3.606   2.064 -0.0235 -0.1993 -0.0476
 5791ntf    nn330153   2.399   3.563   2.206 -0.1716 -0.0915  0.0364
 5791ntf    sn230154   2.342   3.448   2.297 -0.1623  0.1352  0.3337
 5791ntf    cn130155   2.453   3.312   2.250 -0.2337  0.1459  0.1324
 5791ntf    fn430156   2.210   3.786   2.194 -0.5668 -0.0809 -0.1154
 5791ntf    fn430157   2.156   3.777   1.990  0.0638  0.0322 -0.0564
 5791ntf    fn430158   2.092   3.630   2.121  0.0820 -0.0892  0.2198
 5791ntf    on530159   2.314   3.503   1.968 -0.5142 -0.4478  0.3937
 5791ntf    on530160   2.440   3.704   2.010 -0.0541 -0.2165 -0.1303
 5791ntf    on530161   2.211   3.400   2.262 -0.0673  0.0423  0.0978
 5791ntf    on530162   2.370   3.467   2.437  0.0921 -0.2713  0.3410
 5791ntf    fn430163   2.436   3.204   2.324  0.0326  0.0388  0.0396
 5791ntf    fn430164   2.437   3.280   2.122  0.9356  0.3755 -0.0885
 5791ntf    fn430165   2.581   3.343   2.263 -0.0912 -0.4391  0.1674
 5792ntf    cn130166   1.563   0.958   3.434 -0.3288 -0.0426 -0.4199
 5792ntf    sn230167   1.473   1.095   3.355 -0.2635  0.1774 -0.1145
 5792ntf    nn330168   1.329   1.046   3.391 -0.2613  0.3859  0.1855
 5792ntf    sn230169   1.196   1.088   3.319 -0.1920  0.0089 -0.1639
 5792ntf    cn130170   1.152   0.945   3.215 -0.0312 -0.0758 -0.1156
 5792ntf    fn430171   1.692   0.982   3.446 -0.3449  0.1018 -0.5235
 5792ntf    fn430172   1.521   0.936   3.558  0.7953 -0.1177 -0.0459
 5792ntf    fn430173   1.551   0.846   3.365  0.1741  0.1500 -0.8211
 5792ntf    on530174   1.512   1.216   3.424  0.0749  0.0528 -0.0865
 5792ntf    on530175   1.517   1.080   3.219 -0.0755  0.3013 -0.0682
 5792ntf    on530176   1.193   1.195   3.222  0.9643  0.0569 -0.1589
 5792ntf    on530177   1.087   1.082   3.414  0.4938 -0.1813  0.6265
 5792ntf    fn430178   1.097   0.850   3.289 -0.1741  0.2311  0.1727
 5792ntf    fn430179   1.060   0.980   3.126  0.1179  0.2954 -0.1255
 5792ntf    fn430180   1.254   0.899   3.144  0.0600 -0.3270  0.1765
 5793ntf    cn130181   4.515   6.648   2.811  0.0478 -0.1945  0.1758
 5793ntf    sn230182   4.627   6.714   2.938 -0.0124  0.1333  0.0592
 5793ntf    nn330183   4.531   6.788   3.038  0.0449 -0.1257  0.3077
 5793ntf    sn230184   4.454   6.721   3.157 -0.2984 -0.1993  0.0439
 5793ntf    cn130185   4.535   6.783   3.307 -0.2800  0.1340 -0.1036
 5793ntf    fn430186   4.577   6.593   2.707  0.2774  0.2140  0.0926
 5793ntf    fn430187   4.435   6.555   2.859 -0.0514 -0.1860  0.0279
 5793ntf    fn430188   4.437   6.742   2.761 -0.0124 -0.1732  0.3107
 5793ntf    on530189   4.693   6.597   2.992  0.3325  0.3836  0.1837
 5793ntf    on530190   4.704   6.810   2.864 -0.2005  0.6289  0.5002
 5793ntf    on530191   4.458   6.577   3.171 -0.4961 -0.2383 -0.2955
 5793ntf    on530192   4.321   6.777   3.160 -0.5095 -0.6991  0.2192
 5793ntf    fn430193   4.485   6.740   3.422  0.4529  0.0877  0.2016
 5793ntf    fn430194   4.665   6.760   3.309 -0.3061  0.0103  0.3663
 5793ntf    fn430195   4.521   6.915   3.312 -0.5373  0.1074 -0.1209
 5794ntf    cn130196   7.000   2.264   3.960 -0.1538 -0.1675 -0.6467
 5794ntf    sn230197   6.902   2.124   4.021 -0.1365  0.1393  0.0936
 5794ntf    nn330198   7.015   2.020   4.050 -0.2886  0.0292  0.2907
 5794ntf    sn230199   7.000   1.866   4.076 -0.1526 -0.0142  0.1161
 5794ntf    cn130200   7.036   1.866   4.255 -0.1559 -0.1773  0.1177
 5794ntf    fn430201   6.934   2.375   3.929  0.1122  0.2489  0.2469
 5794ntf    fn430202   7.095   2.304   4.042 -0.6796  0.0566 -0.1371
 5794ntf    fn430203   7.055   2.222   3.847  0.0519 -1.0448 -0.2265
 5794ntf    on530204   6.838   2.168   4.143 -0.3475 -0.7273  0.3072
 5794ntf    on530205   6.822   2.085   3.907 -0.4034 -0.4010  0.4578
 5794ntf    on530206   7.104   1.787   4.015 -0.2379  0.1952 -0.3008
 5794ntf    on530207   6.864   1.820   4.063 -0.0593 -0.1336 -0.4382
 5794ntf    fn430208   7.160   1.906   4.277 -0.2469  0.4037 -0.3953
 5794ntf    fn430209   6.962   1.944   4.332  0.1090  0.0570  0.1348
 5794ntf    fn430210   7.038   1.746   4.310  0.3800 -0.0505  0.3732
 5795ntf    cn130211   3.753   4.417   1.114 -0.2453 -0.4558  0.1516
 5795ntf    sn230212   3.857   4.359   1.252 -0.1361  0.0257  0.2757
 5795ntf    nn330213   3.759   4.349   1.374 -0.7060 -0.4881 -0.2176
 5795ntf    sn230214   3.732   4.460   1.481  0.1838 -0.3056 -0.1758
 5795ntf    cn130215   3.855   4.420   1.609  0.1476  0.6310  0.1598
 5795ntf    fn430216   3.712   4.541   1.133 -0.0255 -0.3939  0.2328
 5795ntf    fn430217   3.806   4.411   0.993 -0.1118  0.1826  0.1734
 5795ntf    fn430218   3.638   4.353   1.105 -0.2881 -0.3309 -0.1965
 5795ntf    on530219   3.881   4.226   1.200 -0.4789 -0.3273  1.0125
 5795ntf    on530220   3.975   4.442   1.261 -0.1194  0.1009 -0.5208
 5795ntf    on530221   3.602   4.451   1.544  0.2309 -0.0334 -0.0345
 5795ntf    on530222   3.783   4.591   1.450  0.3783 -0.2268  0.4574
 5795ntf    fn430223   3.854   4.508   1.708  0.3558  0.0691  0.6629
 5795ntf    fn430224   3.834   4.299   1.658 -0.5996  0.7351  0.0994
 5795ntf    fn430225   3.978   4.421   1.559 -0.1527  0.2767 -0.5950
 5796ntf    cn130226   4.575   4.831   0.535  0.0311 -0.5008  0.0253
 5796ntf    sn230227   4.476   4.700   0.457 -0.6068 -0.1327  0.2135
 5796ntf    nn330228   4.464   4.761   0.312  0.0074 -0.2185  0.1226
 5796ntf    sn230229   4.550   4.738   0.183 -0.0894 -0.6752  0.1349
 5796ntf    cn130230   4.564   4.913   0.135 -0.1446 -0.5170  0.6867
 5796ntf    fn430231   4.702   4.831   0.497  0.1645  0.5090  0.4350
 5796ntf    fn430232   4.528   4.950   0.500  0.5940 -0.2784  0.0117
 5796ntf    fn430233   4.570   4.822   0.667 -0.1032  0.1574  0.0682
 5796ntf    on530234   4.559   4.583   0.470 -0.0517  0.2310 -0.0017
 5796ntf    on530235   4.355   4.693   0.535 -0.4691 -0.7490  0.3717
 5796ntf    on530236   4.479   4.677   0.073 -0.0047 -0.3774 -0.0879
 5796ntf    on530237   4.689   4.704   0.205  0.2079  0.3553 -0.0927
 5796ntf    fn430238   4.625   4.936   0.020 -0.1730 -0.0233  0.7679
 5796ntf    fn430239   4.452   4.983   0.128  0.2466  0.0113 -0.5916
 5796ntf    fn430240   4.635   4.979   0.225  0.1363  0.2938 -0.1208
 5797ntf    cn130241   6.435   1.183   6.268  0.2144 -0.1756 -0.2521
 5797ntf    sn230242   6.556   1.065   6.336 -0.0265 -0.1828  0.1721
 5797ntf    nn330243   6.482   1.020   6.467 -0.4355  0.1537  0.0597
 5797ntf    sn230244   6.458   0.879   6.531 -0.2911 -0.0119 -0.2486
 5797ntf    cn130245   6.290   0.846   6.471 -0.3274  0.1957 -0.2619
 5797ntf    fn430246   6.393   1.273   6.355 -0.5720 -0.3851 -0.4057
 5797ntf    fn430247   6.477   1.247   6.160  0.1425  0.0084 -0.1711
 5797ntf    fn430248   6.326   1.118   6.230 -0.2388  0.4340 -0.0111
 5797ntf    on530249   6.557   0.971   6.227 -0.8511 -0.3387  0.2947
 5797ntf    on530250   6.668   1.151   6.363  0.1672 -0.4005  0.0651
 5797ntf    on530251   6.451   0.892   6.675 -0.7219 -0.2947 -0.2451
 5797ntf    on530252   6.533   0.770   6.474 -0.1234 -0.2831  0.4773
 5797ntf    fn430253   6.243   0.723   6.480 -0.1832  0.1932  0.4805
 5797ntf    fn430254   6.197   0.924   6.524 -0.1126  0.2510  0.0345
 5797ntf    fn430255   6.286   0.874   6.342  0.3584  0.1734 -0.2923
 5798ntf    cn130256   3.362   3.892   3.126  0.0066 -0.2994 -0.1069
 5798ntf    sn230257   3.460   3.900   2.974 -0.1237  0.3098 -0.1642
 5798ntf    nn330258   3.555   4.019   3.014 -0.2650  0.2677  0.3017
 5798ntf    sn230259   3.537   4.173   2.989 -0.4124  0.2277  0.1596
 5798ntf    cn130260   3.618   4.196   2.828  0.0034 -0.1603  0.3096
 5798ntf    fn430261   3.423   3.871   3.242 -0.7617  0.1962  0.4006
 5798ntf    fn430262   3.296   4.006   3.144  0.5118 -0.0668  0.3110
 5798ntf    fn430263   3.262   3.806   3.116  0.0000 -0.3140  0.0830
 5798ntf    on530264   3.530   3.774   2.984  0.0228  0.3768 -0.3307
 5798ntf    on530265   3.371   3.929   2.864  0.0975  0.0604 -0.4129
 5798ntf    on530266   3.624   4.237   3.084  0.5145  0.1371 -0.6154
 5798ntf    on530267   3.400   4.216   2.973 -0.4120  0.3002  0.3543
 5798ntf    fn430268   3.728   4.124   2.820  0.0014 -0.1114 -0.2187
 5798ntf    fn430269   3.542   4.155   2.727  0.1449  0.1106  0.0913
 5798ntf    fn430270   3.654   4.319   2.795 -0.1494 -0.2242 -0.1105
 5799ntf    cn130271   6.575   4.802   5.895 -0.3055 -0.0090 -0.1142
 5799ntf    sn230272   6.613   4.817   6.072 -0.0367 -0.3881 -0.1385
 5799ntf    nn330273   6.651   4.969   6.081  0.0920 -0.4519  0.4668
 5799ntf    sn230274   6.791   5.040   6.074 -0.0521 -0.2176 -0.1553
 5799ntf    cn130275   6.840   5.034   6.249 -0.0832 -0.0766 -0.1419
 5799ntf    fn430276   6.672   4.843   5.816 -0.2389 -0.6513 -0.3731
 5799ntf    fn430277   6.546   4.680   5.853  0.1162 -0.0712 -0.2343
 5799ntf    fn430278   6.480   4.888   5.862  0.0369  0.3622 -0.1395
 5799ntf    on530279   6.489   4.788   6.140 -0.1551  0.2983 -0.0578
 5799ntf    on530280   6.730   4.738   6.098  0.1310 -0.0765  0.0654
 5799ntf    on530281   6.770   5.181   6.051  0.0145 -0.2239 -0.2556
 5799ntf    on530282   6.899   4.983   5.997  0.3275  0.1173  0.1219
 5799ntf    fn430283   6.764   5.115   6.322 -0.1424 -0.2387 -0.0237
 5799ntf    fn430284   6.829   4.912   6.299 -0.3196 -0.0175 -0.0466
 5799ntf    fn430285   6.964   5.076   6.267 -0.3412  0.5818  0.1337
 5800ntf    cn130286   2.713   6.225   0.919  0.1702 -0.4072 -0.4109
 5800ntf    sn230287   2.676   6.302   0.758  0.0159 -0.0759 -0.2176
 5800ntf    nn330288   2.529   6.352   0.783 -0.0343 -0.3488  0.0363
 5800ntf    sn230289   2.423   6.407   0.682  0.0975  0.0486  0.1135
 5800ntf    cn130290   2.390   6.564   0.769  0.5708  0.1967  0.0281
 5800ntf    fn430291   2.653   6.287   1.019  0.6872 -0.5333 -0.0162
 5800ntf    fn430292   2.667   6.101   0.917  0.1835 -0.4128 -0.3663
 5800ntf    fn430293   2.843   6.222   0.945  0.1252 -0.5311 -0.2045
 5800ntf    on530294   2.770   6.409   0.735 -0.2644  0.2591  0.1805
 5800ntf    on530295   2.689   6.182   0.679  0.1543  0.1744 -0.5814
 5800ntf    on530296   2.293   6.345   0.678 -0.0658  0.4118 -0.2919
 5800ntf    on530297   2.469   6.450   0.552 -0.2134 -0.0647 -0.0367
 5800ntf    fn430298   2.499   6.605   0.831  0.6278  0.2908 -0.1349
 5800ntf    fn430299   2.351   6.662   0.690 -0.0963 -0.1773 -0.1157
 5800ntf    fn430300   2.293   6.554   0.859  0.2812  0.6833 -0.2290
 5801ntf    cn130301   3.010   5.924   5.095 -0.9545  0.1044 -0.0437
 5801ntf    sn230302   2.975   6.061   4.980 -0.3251  0.1008 -0.2461
 5801ntf    nn330303   2.903   6.156   5.083  0.2174  0.1224  0.1206
 5801ntf    sn230304   2.798   6.270   5.058  0.0270 -0.1699 -0.4300
 5801ntf    cn130305   2.646   6.175   5.026 -0.4196  0.3035  0.2730
 5801ntf    fn430306   2.901   5.861   5.133 -0.6903 -0.0966  0.3877
 5801ntf    fn430307   3.077   5.828   5.034 -0.2505  0.0642  0.7605
 5801ntf    fn430308   3.080   5.962   5.201 -1.0893 -0.4475  0.2418
 5801ntf    on530309   3.109   6.100   4.945 -0.2163 -0.0243  0.0221
 5801ntf    on530310   2.884   6.017   4.878 -0.2607 -0.1995 -0.1754
 5801ntf    on530311   2.818   6.357   4.945  0.3272  0.0592 -0.2030
 5801ntf    on530312   2.769   6.339   5.181  1.0373  0.5289 -0.5737
 5801ntf    fn430313   2.619   6.145   4.900  0.1519  0.2984  0.1469
 5801ntf    fn430314   2.640   6.059   5.090 -0.5598  0.3566  0.3566
 5801ntf    fn430315   2.542   6.243   5.072 -0.0959  0.7983  0.2913
 5802ntf    cn130316   5.688   5.878   4.434  0.1184  0.2779  0.0398
 5802ntf    sn230317   5.822   5.765   4.481  0.0492  0.2549  0.1834
 5802ntf    nn330318   5.847   5.689   4.346 -0.0971  0.0506  0.2709
 5802ntf    sn230319   5.756   5.574   4.289  0.1275  0.0016  0.0129
 5802ntf    cn130320   5.759   5.605   4.109  0.2833 -0.1768 -0.0160
 5802ntf    fn430321   5.716   5.956   4.332  0.1041 -0.1504 -0.2942
 5802ntf    fn430322   5.572   5.815   4.421  0.0306  0.5112 -0.3161
 5802ntf    fn430323   5.667   5.968   4.529  0.0205  0.3718 -0.0708
 5802ntf    on530324   5.931   5.852   4.519 -0.0171  0.3181  0.2288
 5802ntf    on530325   5.760   5.692   4.589 -0.2311  0.2636  0.0272
 5802ntf    on530326   5.615   5.593   4.312 -0.0048  0.2347 -0.9147
 5802ntf    on530327   5.806   5.440   4.304 -0.2379 -0.1027  0.2814
 5802ntf    fn430328   5.871   5.563   4.053 -0.3124 -0.7699 -0.7859
 5802ntf    fn430329   5.667   5.536   4.043 -0.4663  0.4600  0.3462
 5802ntf    fn430330   5.744   5.729   4.067  0.3733  0.0519  0.6109
 5803ntf    cn130331   5.661   6.115   1.705  0.7650 -0.1009  0.1212
 5803ntf    sn230332   5.700   5.991   1.832  0.1614 -0.1581  0.2550
 5803ntf    nn330333   5.684   6.092   1.951  0.2121  0.1332  0.0144
 5803ntf    sn230334   5.797   6.148   2.045  0.1158 -0.0426  0.2348
 5803ntf    cn130335   5.851   6.297   1.956 -0.0090  0.0830  0.3674
 5803ntf    fn430336   5.678   6.069   1.582  0.0988  0.4504 -0.1834
 5803ntf    fn430337   5.536   6.157   1.707  0.5131 -0.7748 -0.7107
 5803ntf    fn430338   5.737   6.222   1.718  0.5981  0.0538 -0.1823
 5803ntf    on530339   5.585   5.905   1.826  0.2807 -0.2876 -0.1933
 5803ntf    on530340   5.831   5.941   1.795 -0.0933  0.1216 -1.0680
 5803ntf    on530341   5.913   6.065   2.062 -0.0056 -0.2855 -0.0957
 5803ntf    on530342   5.740   6.212   2.161  0.3613  0.6484 -0.0177
 5803ntf    fn430343   5.905   6.263   1.840  0.1624 -0.4045  0.5875
 5803ntf    fn430344   5.753   6.384   1.939 -0.2660 -0.2193  0.2846
 5803ntf    fn430345   5.951   6.358   2.017  0.1783  0.2440 -0.0918
 5804ntf    cn130346   5.473   6.839   2.098  0.7517 -0.0139 -0.2073
 5804ntf    sn230347   5.513   6.871   2.272 -0.1698  0.1740 -0.0275
 5804ntf    nn330348   5.659   6.815   2.279 -0.3176 -0.2338 -0.1654
 5804ntf    sn230349   5.739   6.763   2.403  0.0752  0.0562 -0.2913
 5804ntf    cn130350   5.886   6.869   2.407 -0.0246  0.1873 -0.1079
 5804ntf    fn430351   5.353   6.880   2.061  0.8968  0.4531 -0.1773
 5804ntf    fn430352   5.563   6.898   2.020  0.1530  0.8500 -0.2619
 5804ntf    fn430353   5.493   6.714   2.061 -0.1500 -0.1551 -0.2478
 5804ntf    on530354   5.503   7.014   2.290  0.0534  0.2057 -0.1665
 5804ntf    on530355   5.419   6.787   2.343  0.5925 -0.0313  0.7628
 5804ntf    on530356   5.786   6.628   2.382 -0.1449 -0.1009  0.1920
 5804ntf    on530357   5.661   6.789   2.522 -0.5797  0.3972 -0.7841
 5804ntf    fn430358   5.983   6.850   2.319  0.2903  0.7603  0.1071
 5804ntf    fn430359   5.852   6.997   2.397 -0.1147  0.1418 -0.3895
 5804ntf    fn430360   5.940   6.855   2.527 -0.3245 -0.1840 -0.0147
 5805ntf    cn130361   2.271   2.798   1.781 -0.1303 -0.1424  0.0427
 5805ntf    sn230362   2.182   2.897   1.904  0.2432 -0.1400  0.3158
 5805ntf    nn330363   2.215   2.829   2.042 -0.7068  0.1243  0.6829
 5805ntf    sn230364   2.336   2.842   2.140 -0.1516 -0.0647  0.0269
 5805ntf    cn130365   2.286   2.984   2.242  0.2090 -0.0000  0.1176
 5805ntf    fn430366   2.241   2.670   1.796 -0.8424  0.0739  0.4822
 5805ntf    fn430367   2.254   2.845   1.659  0.5525  0.3849  0.1448
 5805ntf    fn430368   2.402   2.799   1.802 -0.2099 -0.7384  0.6317
 5805ntf    on530369   2.233   3.031   1.887  0.5212 -0.2540  0.2559
 5805ntf    on530370   2.043   2.875   1.869  0.3215  0.0609 -0.1301
 5805ntf    on530371   2.456   2.892   2.077 -0.4984 -0.0381 -0.6189
 5805ntf    on530372   2.362   2.729   2.225 -0.4767 -0.8123 -0.8449
 5805ntf    fn430373   2.167   2.947   2.289  0.3217 -0.3040  0.1658
 5805ntf    fn430374   2.361   3.000   2.349  0.2068 -0.5043  0.1992
 5805ntf    fn430375   2.273   3.098   2.177  0.2169 -0.1868 -0.2155
 5806ntf    cn130376   4.033   2.850   0.712  0.0559  0.6258 -0.2203
 5806ntf    sn230377   4.212   2.818   0.701  0.0129  0.2281  0.2134
 5806ntf    nn330378   4.244   2.729   0.826 -0.0109 -0.3267 -0.1663
 5806ntf    sn230379   4.246   2.575   0.854 -0.0787 -0.3451 -0.2621
 5806ntf    cn130380   4.427   2.569   0.865 -0.0789  0.0282 -0.0073
 5806ntf    fn430381   4.001   2.890   0.834  0.1342 -0.6487  0.2352
 5806ntf    fn430382   3.980   2.922   0.615 -0.2189  0.0911 -0.4648
 5806ntf    fn430383   3.971   2.735   0.696 -0.2184  0.7851 -0.2993
 5806ntf    on530384   4.222   2.750   0.574 -1.0172  0.6716 -0.1169
 5806ntf    on530385   4.265   2.951   0.712  0.2932  0.0251  1.4115
 5806ntf    on530386   4.225   2.490   0.739  0.5722 -0.3223 -0.3997
 5806ntf    on530387   4.198   2.540   0.986 -0.5240 -0.2918 -0.4068
 5806ntf    fn430388   4.471   2.448   0.897  0.1456  0.1191  0.0263
 5806ntf    fn430389   4.487   2.595   0.750  0.0011  0.0345  0.0366
 5806ntf    fn430390   4.480   2.652   0.953 -0.8541  0.2376  0.2684
 5807ntf    cn130391   3.208   0.111   3.189  0.0308 -0.0466 -0.0675
 5807ntf    sn230392   3.383   0.063   3.198  0.0900  0.1839  0.0173
 5807ntf    nn330393   3.383   0.025   3.350 -0.0697  0.0359 -0.0192
 5807ntf    sn230394   3.375   0.117   3.477 -0.2215  0.1051 -0.0792
 5807ntf    cn130395   3.551   0.148   3.509 -0.2481 -0.1350  0.3023
 5807ntf    fn430396   3.123   0.040   3.261 -0.0150  0.3136  0.2366
 5807ntf    fn430397   3.187   0.237   3.226 -0.1798 -0.0112 -0.3071
 5807ntf    fn430398   3.164   0.104   3.064  0.0117 -0.1879 -0.0520
 5807ntf    on530399   3.394  -0.049   3.108  0.5283 -0.1860  0.5260
 5807ntf    on530400   3.446   0.189   3.167  0.0650  0.1319 -0.2489
 5807ntf    on530401   3.337   0.036   3.590 -0.0816 -0.6226 -0.5395
 5807ntf    on530402   3.314   0.246   3.457 -0.2287  0.0921 -0.1408
 5807ntf    fn430403   3.582   0.222   3.614  0.0575 -0.4702  0.4513
 5807ntf    fn430404   3.613   0.032   3.525 -0.1277 -0.1227 -0.0718
 5807ntf    fn430405   3.609   0.214   3.410 -0.3774 -0.0348  0.2926
 5808ntf    cn130406   0.897   6.079   5.239  0.0078 -0.1473 -0.0652
 5808ntf    sn230407   0.820   6.228   5.309 -0.3679 -0.2042 -0.3540
 5808ntf    nn330408   0.737   6.166   5.427 -0.0302  0.5034  0.2618
 5808ntf    sn230409   0.582   6.154   5.452  0.0120 -0.4000  0.0993
 5808ntf    cn130410   0.541   5.996   5.373  0.1353 -0.1504 -0.4648
 5808ntf    fn430411   0.817   5.976   5.217  0.2595 -0.3861  0.1301
 5808ntf    fn430412   0.955   6.104   5.123 -0.0816  0.1311 -0.0489
 5808ntf    fn430413   0.998   6.036   5.314 -0.0521 -0.4335 -0.1457
 5808ntf    on530414   0.935   6.297   5.362 -0.4729 -0.7333  0.5772
 5808ntf    on530415   0.745   6.286   5.200 -0.5992  0.4873  0.1692
 5808ntf    on530416   0.498   6.244   5.378  0.7919  0.1028 -0.1918
 5808ntf    on530417   0.555   6.132   5.592  0.0211  0.3159  0.2140
 5808ntf    fn430418   0.611   5.894   5.419 -0.1462 -0.0503  0.1868
 5808ntf    fn430419   0.411   5.972   5.382 -0.0082  0.5364 -0.6899
 5808ntf    fn430420   0.560   5.999   5.242  0.2986  0.3330 -0.4314
 5809ntf    cn130421   0.116   3.603   7.379 -0.1578  0.1248 -0.0210
 5809ntf    sn230422   0.046   3.621   7.212  0.1945  0.2050 -0.1601
 5809ntf    nn330423   0.150   3.533   7.133  0.2036 -0.2956  0.4107
 5809ntf    sn230424   0.235   3.582   7.011 -0.2497  0.0552  0.2298
 5809ntf    cn130425   0.398   3.606   7.088 -0.1586 -0.0875  0.0845
 5809ntf    fn430426   0.113   3.477   7.417  0.5450  0.0621 -0.1556
 5809ntf    fn430427   0.242   3.644   7.383 -0.0674 -0.0550 -0.8278
 5809ntf    fn430428   0.052   3.670   7.473  0.3784  0.1414  0.3383
 5809ntf    on530429  -0.078   3.548   7.219 -0.0885  0.7321  0.3840
 5809ntf    on530430   0.030   3.763   7.191 -0.6082  0.0254 -0.8109
 5809ntf    on530431   0.205   3.712   6.957  0.2319 -0.0181 -0.2258
 5809ntf    on530432   0.264   3.477   6.916  0.2275  0.3495  0.0493
 5809ntf    fn430433   0.476   3.666   7.000  0.0051 -0.1750  0.1697
 5809ntf    fn430434   0.388   3.680   7.198 -0.2009  0.3794 -0.2325
 5809ntf    fn430435   0.447   3.488   7.123  0.3747  0.1606  0.1753
 5810ntf    cn130436   0.780   5.558   4.169  0.1724  0.1006  0.0600
 5810ntf    sn230437   0.749   5.584   3.991 -0.1973  0.2758  0.1503
 5810ntf    nn330438   0.882   5.522   3.936 -0.2855  0.2944 -0.0830
 5810ntf    sn230439   0.892   5.400   3.838 -0.3137  0.2552 -0.0363
 5810ntf    cn130440   0.921   5.263   3.954  0.0143  0.3698  0.0187
 5810ntf    fn430441   0.779   5.427   4.191 -0.4327  0.1301  0.2016
 5810ntf    fn430442   0.897   5.610   4.204  0.0606  0.0626  0.4905
 5810ntf    fn430443   0.685   5.610   4.243  0.3803  0.5669  0.0004
 5810ntf    on530444   0.630   5.506   3.968 -0.1759  0.3447 -0.1950
 5810ntf    on530445   0.755   5.728   3.986 -0.0493  0.2621 -0.0990
 5810ntf    on530446   1.018   5.400   3.768 -0.3722 -0.4978 -0.1539
 5810ntf    on530447   0.776   5.364   3.760 -0.2914  0.4389 -0.1529
 5810ntf    fn430448   0.812   5.221   4.016  0.0991  0.1495  0.0210
 5810ntf    fn430449   0.979   5.155   3.903  0.0225  0.1821  0.4211
 5810ntf    fn430450   1.002   5.297   4.052  0.0013  0.0561  0.1417
 5811ntf    cn130451   1.296   3.264   1.495  0.2864  0.1406  0.1563
 5811ntf    sn230452   1.289   3.216   1.670 -0.3170 -0.0402  0.0840
 5811ntf    nn330453   1.215   3.343   1.724 -0.2060  0.3439 -0.6541
 5811ntf    sn230454   1.284   3.477   1.769 -0.0332  0.0878 -0.1497
 5811ntf    cn130455   1.176   3.603   1.695  0.0095 -0.0359 -0.4260
 5811ntf    fn430456   1.319   3.159   1.418  0.2125  0.4962 -0.3560
 5811ntf    fn430457   1.183   3.322   1.457  0.4826  0.3313 -0.1505
 5811ntf    fn430458   1.386   3.355   1.461 -0.1903  0.6190  0.1566
 5811ntf    on530459   1.196   3.107   1.653 -0.1828 -0.1834  0.2681
 5811ntf    on530460   1.420   3.185   1.723 -0.6113 -0.6480  0.4624
 5811ntf    on530461   1.405   3.514   1.700  0.0315 -0.5669 -0.3998
 5811ntf    on530462   1.286   3.507   1.910 -0.1613 -0.0623 -0.1152
 5811ntf    fn430463   1.138   3.581   1.570  0.0457 -0.3385 -0.3827
 5811ntf    fn430464   1.063   3.611   1.763  0.2128  0.4518 -0.1350
 5811ntf    fn430465   1.234   3.722   1.693  0.1167 -0.0891 -0.4670
 5812ntf    cn130466   0.349   1.323   6.054  0.1371  0.3573  0.3168
 5812ntf    sn230467   0.529   1.301   6.060  0.1109 -0.0383 -0.2537
 5812ntf    nn330468   0.533   1.155   6.004  0.8803 -0.1331  0.0321
 5812ntf    sn230469   0.559   1.102   5.858  0.0557  0.2813 -0.2749
 5812ntf    cn130470   0.468   0.945   5.861  0.2092  0.1986  0.1729
 5812ntf    fn430471   0.295   1.278   5.942 -0.4041  0.5943  0.4753
 5812ntf    fn430472   0.287   1.260   6.152 -0.2376  0.3490  0.0779
 5812ntf    fn430473   0.306   1.448   6.062 -0.1319  0.2746  0.2032
 5812ntf    on530474   0.581   1.405   5.975 -1.0123  0.3148 -0.5259
 5812ntf    on530475   0.560   1.307   6.200 -0.4849 -0.4425 -0.1026
 5812ntf    on530476   0.698   1.071   5.834 -0.0379 -0.3088 -0.0735
 5812ntf    on530477   0.489   1.180   5.759 -0.6086 -0.3807 -0.3305
 5812ntf    fn430478   0.490   0.868   5.966  0.6827 -0.0489 -0.1066
 5812ntf    fn430479   0.337   0.966   5.856  0.1852  0.0208  0.0444
 5812ntf    fn430480   0.496   0.866   5.760  0.1307 -0.0058  0.3104
 5813ntf    cn130481   2.511   2.681   7.244 -0.3546 -0.0289  0.1727
 5813ntf    sn230482   2.483   2.528   7.149 -0.4468  0.1165 -0.0359
 5813ntf    nn330483   2.326   2.525   7.142 -0.4488  0.1248  0.0062
 5813ntf    sn230484   2.222   2.526   7.024 -0.1356 -0.3657 -0.2817
 5813ntf    cn130485   2.213   2.350   6.981 -0.0957 -0.4860  0.1898
 5813ntf    fn430486   2.455   2.786   7.186  0.1866  0.0393 -0.2337
 5813ntf    fn430487   2.468   2.674   7.369 -0.2366 -0.3687  0.1978
 5813ntf    fn430488   2.640   2.708   7.253 -0.3356  0.3361 -0.9969
 5813ntf    on530489   2.548   2.550   7.022 -0.2672  0.2546  0.0798
 5813ntf    on530490   2.527   2.432   7.248 -0.4250 -0.2649 -0.4102
 5813ntf    on530491   2.258   2.604   6.909  0.7354 -0.3076  0.0203
 5813ntf    on530492   2.091   2.548   7.080  0.2140  0.6102  0.1751
 5813ntf    fn430493   2.331   2.302   6.945 -0.0341 -0.3075  0.1522
 5813ntf    fn430494   2.185   2.284   7.092  0.2082 -0.1637  0.4634
 5813ntf    fn430495   2.120   2.321   6.892 -0.0674 -0.2675  0.0882
 5814ntf    cn130496   3.529   1.256   1.977  0.2843 -0.1954  0.4071
 5814ntf    sn230497   3.420   1.372   2.065  0.0296 -0.3576  0.3050
 5814ntf    nn330498   3.425   1.500   1.975 -0.4494 -0.2087  0.4874
 5814ntf    sn230499   3.370   1.640   2.021  0.1680  0.1823  0.0413
 5814ntf    cn130500   3.201   1.635   1.955  0.1478 -0.2457  0.1287
 5814ntf    fn430501   3.655   1.293   1.969  0.2219 -0.0707  0.0155
 5814ntf    fn430502   3.525   1.133   2.027 -0.4674 -0.2004  0.3519
 5814ntf    fn430503   3.494   1.243   1.850 -0.0048  0.1685  0.4496
 5814ntf    on530504   3.290   1.308   2.070  0.0276 -0.4558 -0.7853
 5814ntf    on530505   3.498   1.374   2.186 -0.3826 -0.7018  0.5808
 5814ntf    on530506   3.437   1.752   1.958 -0.5565  0.4616 -0.2363
 5814ntf    on530507   3.360   1.652   2.164 -0.7091 -0.7249  0.0622
 5814ntf    fn430508   3.118   1.540   1.996  0.0711 -0.3317 -0.2248
 5814ntf    fn430509   3.130   1.737   2.000 -0.2666 -0.0498 -0.9592
 5814ntf    fn430510   3.191   1.644   1.824 -0.7175  0.3630  0.2286
 5815ntf    cn130511   5.242   7.015   0.716  0.1431 -0.1297 -0.5718
 5815ntf    sn230512   5.159   7.092   0.859  0.4198 -0.0269 -0.4653
 5815ntf    nn330513   5.185   7.245   0.834 -0.4993  0.3061  0.5723
 5815ntf    sn230514   5.107   7.377   0.870 -0.6806  0.2202  0.4916
 5815ntf    cn130515   5.202   7.391   1.024  0.1504 -0.1943  0.0277
 5815ntf    fn430516   5.214   6.885   0.715  0.4127 -0.1983  0.1124
 5815ntf    fn430517   5.188   7.055   0.603 -0.2652  0.4043 -0.1898
 5815ntf    fn430518   5.373   7.026   0.702  0.2642 -0.0533  0.4942
 5815ntf    on530519   5.021   7.061   0.834  0.3095  0.0208  0.0735
 5815ntf    on530520   5.226   7.037   0.974  0.1903  0.1806 -0.2335
 5815ntf    on530521   4.969   7.362   0.907 -0.6291 -0.7981  0.3272
 5815ntf    on530522   5.156   7.482   0.785 -0.1848 -0.2999  0.1257
 5815ntf    fn430523   5.329   7.424   1.010 -0.1415  0.6216 -0.7684
 5815ntf    fn430524   5.156   7.484   1.106  0.0798 -0.3472  0.1639
 5815ntf    fn430525   5.202   7.280   1.096 -0.1271 -0.0767  0.2147
 5816ntf    cn130526   7.116   0.950   2.855  0.1409 -0.1698  0.0231
 5816ntf    sn230527   7.186   1.109   2.908 -0.3946  0.0011  0.2230
 5816ntf    nn330528   7.267   1.063   3.034  0.3955  0.7065 -0.0215
 5816ntf    sn230529   7.404   0.988   3.056  0.0437  0.1774  0.3636
 5816ntf    cn130530   7.511   1.123   3.114 -0.0423  0.2181  0.4290
 5816ntf    fn430531   7.031   0.907   2.948  0.2054 -0.2879  0.0270
 5816ntf    fn430532   7.045   0.947   2.743 -0.2938  0.2139  0.2870
 5816ntf    fn430533   7.213   0.860   2.845 -0.1093 -0.4727  0.2862
 5816ntf    on530534   7.267   1.158   2.800 -0.2433  0.3450  0.4909
 5816ntf    on530535   7.068   1.184   2.944 -0.6046 -0.0323 -0.3724
 5816ntf    on530536   7.470   0.950   2.934 -0.6013 -0.5791  0.2372
 5816ntf    on530537   7.413   0.895   3.166  0.0240  0.2994  0.4693
 5816ntf    fn430538   7.634   1.085   3.143  0.0291 -0.1329 -0.2882
 5816ntf    fn430539   7.530   1.210   3.016  0.6443 -0.2604  0.1269
 5816ntf    fn430540   7.453   1.182   3.216 -0.5285 -0.0904  0.3344
 5817ntf    cn130541   5.030   0.604   1.238 -0.5368  0.1392  0.3534
 5817ntf    sn230542   4.922   0.466   1.190 -0.0711 -0.0854 -0.0555
 5817ntf    nn330543   4.798   0.489   1.283 -0.0194  0.2319 -0.0664
 5817ntf    sn230544   4.662   0.562   1.252 -0.1658  0.0753  0.1999
 5817ntf    cn130545   4.566   0.429   1.173 -0.2192  0.1517  0.1353
 5817ntf    fn430546   5.144   0.589   1.173 -0.5171  0.3779  0.3301
 5817ntf    fn430547   4.980   0.720   1.199  0.2160  0.2651 -0.2555
 5817ntf    fn430548   5.053   0.612   1.368 -0.0587 -0.1355  0.2872
 5817ntf    on530549   4.900   0.494   1.051  0.3911 -0.1286 -0.1374
 5817ntf    on530550   5.000   0.351   1.230  0.2436  0.3776  0.7016
 5817ntf    on530551   4.673   0.672   1.159  0.0916  0.0178  0.1613
 5817ntf    on530552   4.591   0.574   1.376  0.3079  0.4627  0.4375
 5817ntf    fn430553   4.452   0.468   1.120  0.0176  0.5641 -0.0798
 5817ntf    fn430554   4.637   0.368   1.079  0.2796  0.3958  0.3517
 5817ntf    fn430555   4.545   0.326   1.253  0.0854 -0.0393 -0.0263
 5818ntf    cn130556   5.476   6.522   5.372  0.3423 -0.2570 -0.2748
 5818ntf    sn230557   5.526   6.381   5.474 -0.1514 -0.2483 -0.0199
 5818ntf    nn330558   5.681   6.402   5.482 -0.2278  0.1883  0.3574
 5818ntf    sn230559   5.778   6.358   5.597  0.1138  0.1599  0.0615
 5818ntf    cn130560   5.792   6.501   5.708 -0.3212  0.1887  0.0808
 5818ntf    fn430561   5.347   6.532   5.345  0.1959 -0.2106  0.4398
 5818ntf    fn430562   5.514   6.638   5.424 -0.2730 -0.2303  0.1180
 5818ntf    fn430563   5.547   6.520   5.260  0.1436  0.4805 -0.4215
 5818ntf    on530564   5.463   6.415   5.599 -0.0278  0.2846 -0.1028
 5818ntf    on530565   5.489   6.261   5.403  0.6138 -0.3729 -0.2181
 5818ntf    on530566   5.910   6.337   5.544  0.0006 -0.0394 -0.1455
 5818ntf    on530567   5.730   6.251   5.681  0.6715  0.0801  0.2861
 5818ntf    fn430568   5.866   6.595   5.652 -0.0872  0.1699  0.3553
 5818ntf    fn430569   5.668   6.542   5.729 -0.3175 -0.1357  0.7585
 5818ntf    fn430570   5.856   6.469   5.820  0.0183 -0.5477 -0.3164
 5819ntf    cn130571   7.473   4.676   3.111 -0.0806 -0.0704  0.1814
 5819ntf    sn230572   7.474   4.849   3.057 -0.4403 -0.0845  0.1248
 5819ntf    nn330573   7.482   4.934   3.188  0.2868  0.0914 -0.0278
 5819ntf    sn230574   7.385   5.052   3.224  0.3759  0.2199 -0.2080
 5819ntf    cn130575   7.497   5.175   3.149  0.4018  0.2927 -0.0498
 5819ntf    fn430576   7.593   4.639   3.151  0.0826 -0.6093 -0.7864
 5819ntf    fn430577   7.381   4.640   3.199  0.1269 -0.3928  0.2707
 5819ntf    fn430578   7.445   4.598   3.008  0.2977 -0.2379  0.2036
 5819ntf    on530579   7.604   4.852   2.994 -0.5351 -0.3198 -0.0843
 5819ntf    on530580   7.353   4.860   2.979 -0.6189  0.1691  0.4344
 5819ntf    on530581   7.382   5.085   3.364  0.2282  0.3471 -0.2407
 5819ntf    on530582   7.255   5.066   3.163  0.2151 -0.1439  0.0533
 5819ntf    fn430583   7.484   5.298   3.194 -0.1952  0.0787  0.3775
 5819ntf    fn430584   7.622   5.133   3.160  0.2619 -0.1664 -0.1867
 5819ntf    fn430585   7.478   5.190   3.019  0.4015 -0.3833 -0.1332
 5820ntf    cn130586   2.178   5.847   1.251  0.3390  0.0618  0.1356
 5820ntf    sn230587   2.063   5.924   1.369  0.1634  0.2024 -0.1252
 5820ntf    nn330588   2.175   5.974   1.467 -0.2946  0.0282  0.4960
 5820ntf    sn230589   2.238   5.900   1.590  0.0691 -0.1316  0.2159
 5820ntf    cn130590   2.139   5.986   1.716 -0.2198 -0.1476  0.0011
 5820ntf    fn430591   2.126   5.758   1.169  0.5932  0.2096 -0.1920
 5820ntf    fn430592   2.247   5.933   1.177 -0.2347 -0.0284 -0.5096
 5820ntf    fn430593   2.271   5.786   1.323 -0.1433 -0.5574  0.2434
 5820ntf    on530594   2.002   6.035   1.302  0.0925  0.1191 -0.1983
 5820ntf    on530595   1.984   5.812   1.415 -0.3215  0.7267  0.3430
 5820ntf    on530596   2.374   5.935   1.623 -0.0232  0.2909  0.1545
 5820ntf    on530597   2.194   5.766   1.624  0.1963 -0.1100  0.4697
 5820ntf    fn430598   2.011   5.975   1.686 -0.1867  0.1911 -0.2672
 5820ntf    fn430599   2.152   5.944   1.841  0.0123 -0.2739 -0.0642
 5820ntf    fn430600   2.164   6.116   1.718 -0.1798 -0.1441 -0.6862
 5821ntf    cn130601   3.051   0.837   4.317 -0.4667 -0.0914  0.0331
 5821ntf    sn230602   3.122   0.983   4.235 -0.3279 -0.0146  0.2884
 5821ntf    nn330603   3.274   0.955   4.267 -0.2687  0.0022  0.0282
 5821ntf    sn230604   3.375   0.882   4.173 -0.1053  0.1658  0.0779
 5821ntf    cn130605   3.493   1.020   4.155 -0.0792  0.1785  0.3457
 5821ntf    fn430606   2.920   0.829   4.333 -0.4800 -0.1486 -0.1016
 5821ntf    fn430607   3.090   0.722   4.264  0.1788  0.3850 -0.5545
 5821ntf    fn430608   3.106   0.825   4.437 -0.5362 -0.1092  0.0628
 5821ntf    on530609   3.073   0.983   4.099  0.0369  0.8323  0.1499
 5821ntf    on530610   3.078   1.097   4.310  0.0775  0.2846  0.0750
 5821ntf    on530611   3.337   0.864   4.035 -0.1623  0.5162  0.0462
 5821ntf    on530612   3.451   0.777   4.235 -0.1796  0.2127  0.2484
 5821ntf    fn430613   3.542   1.053   4.273  0.4904  0.0341  0.1530
 5821ntf    fn430614   3.593   0.987   4.075 -0.0300  0.0781  0.4476
 5821ntf    fn430615   3.440   1.127   4.098  0.1106 -0.1178 -0.3938
 5822ntf    cn130616   5.577   1.678   3.374  0.3005 -0.3372 -0.4057
 5822ntf    sn230617   5.533   1.850   3.335  0.1111 -0.3215 -0.1215
 5822ntf    nn330618   5.668   1.903   3.277 -0.0330  0.2741  0.0791
 5822ntf    sn230619   5.710   1.908   3.125 -0.5086 -0.2535 -0.0702
 5822ntf    cn130620   5.629   2.056   3.058 -0.1188 -0.0146 -0.0134
 5822ntf    fn430621   5.470   1.604   3.396  0.0579  0.1024 -0.1007
 5822ntf    fn430622   5.650   1.623   3.278  0.0775  0.0400 -0.7928
 5822ntf    fn430623   5.652   1.676   3.483 -0.5742 -0.3005  0.1984
 5822ntf    on530624   5.423   1.848   3.242 -0.2053  0.2078  0.2343
 5822ntf    on530625   5.501   1.897   3.468  0.0424  0.6365 -0.4737
 5822ntf    on530626   5.658   1.801   3.043 -0.6903 -0.0199 -0.2598
 5822ntf    on530627   5.849   1.937   3.102 -0.5432 -0.0770 -0.0514
 5822ntf    fn430628   5.674   2.168   3.112 -0.0216 -0.2646  0.4285
 5822ntf    fn430629   5.655   2.064   2.929 -0.5057 -0.1242 -0.0975
 5822ntf    fn430630   5.498   2.050   3.075 -0.0490 -0.3499  0.4196
 5823ntf    cn130631   2.632   3.041   0.264 -0.1058  0.7657 -0.1036
 5823ntf    sn230632   2.541   2.928   0.155  0.1421  0.3719  0.0956
 5823ntf    nn330633   2.560   3.001   0.017  0.2703  0.7236  0.2973
 5823ntf    sn230634   2.449   3.089  -0.050 -0.0722  0.1364  0.0793
 5823ntf    cn130635   2.566   3.216  -0.109  0.0067  0.1349  0.2319
 5823ntf    fn430636   2.676   2.977   0.371  0.0097 -0.1230 -0.6710
 5823ntf    fn430637   2.736   3.096   0.203  0.0202 -0.0730 -0.6684
 5823ntf    fn430638   2.554   3.141   0.301 -0.4833  0.4120  0.0542
 5823ntf    on530639   2.624   2.810   0.163 -0.8343 -0.3020  0.4229
 5823ntf    on530640   2.407   2.913   0.206  0.2959  0.0479  0.4092
 5823ntf    on530641   2.371   3.169   0.041 -0.4095  0.0338 -0.1163
 5823ntf    on530642   2.393   3.038  -0.173 -0.2202 -0.1260  0.2560
 5823ntf    fn430643   2.502   3.297  -0.192  0.2486  0.0554 -0.0317
 5823ntf    fn430644   2.623   3.282  -0.009 -0.5046  0.6958  0.1629
 5823ntf    fn430645   2.663   3.160  -0.179 -0.7981 -0.3175 -0.5472
 5824ntf    cn130646   4.853   5.841   1.812 -0.0545  0.5891  0.1297
 5824ntf    sn230647   4.881   5.873   1.989  0.1027  0.1709  0.1796
 5824ntf    nn330648   5.028   5.927   1.982  0.0247  0.3096 -0.4018
 5824ntf    sn230649   5.120   5.951   2.107 -0.0805  0.1894 -0.3019
 5824ntf    cn130650   5.225   5.802   2.106 -0.0908  0.1793 -0.0007
 5824ntf    fn430651   4.725   5.813   1.794  0.0567  0.1575  0.0119
 5824ntf    fn430652   4.876   5.945   1.733  0.1904  0.5662  0.1697
 5824ntf    fn430653   4.915   5.737   1.759 -0.5338 -0.0887  0.8725
 5824ntf    on530654   4.782   5.971   2.025 -0.3563 -0.0278 -0.5343
 5824ntf    on530655   4.871   5.742   2.049 -0.2146  0.0244 -0.1851
 5824ntf    on530656   5.056   5.940   2.236 -0.0417 -0.2176 -0.3144
 5824ntf    on530657   5.224   6.049   2.090 -0.1505  0.3894  0.4261
 5824ntf    fn430658   5.146   5.696   2.106  0.1573 -0.0055  0.3798
 5824ntf    fn430659   5.302   5.795   1.998 -0.1018  0.7944 -0.0521
 5824ntf    fn430660   5.304   5.793   2.211 -0.1875 -0.0551  0.0508
 5825ntf    cn130661   3.640   0.419   5.774  0.1204 -0.4937 -0.0297
 5825ntf    sn230662   3.777   0.410   5.893  0.1244  0.0352  0.0042
 5825ntf    nn330663   3.851   0.545   5.858  0.0674 -0.0035 -0.2696
 5825ntf    sn230664   3.994   0.567   5.798  0.1787 -0.0095 -0.0078
 5825ntf    cn130665   3.948   0.606   5.627 -0.0236  0.1687  0.0872
 5825ntf    fn430666   3.549   0.327   5.804 -0.3497 -0.3025 -0.8554
 5825ntf    fn430667   3.584   0.537   5.791  0.1974 -0.3440 -0.8038
 5825ntf    fn430668   3.676   0.396   5.649 -0.7729  0.0051 -0.3847
 5825ntf    on530669   3.719   0.396   6.024  0.4820  0.6863  0.2366
 5825ntf    on530670   3.847   0.296   5.839 -0.3874  0.1088 -0.8395
 5825ntf    on530671   4.082   0.453   5.785  0.1195 -0.1065  0.4229
 5825ntf    on530672   4.054   0.692   5.839 -0.3188  0.4953 -0.7973
 5825ntf    fn430673   3.899   0.503   5.561 -0.4888  0.3623  0.1289
 5825ntf    fn430674   3.866   0.710   5.621  0.0236  0.2043  0.0481
 5825ntf    fn430675   4.055   0.639   5.556 -0.0204 -0.4923 -0.2165
 5826ntf    cn130676   1.242   1.848   4.192  0.3528 -0.1131  0.0748
 5826ntf    sn230677   1.094   1.751   4.234  0.0486  0.2423 -0.1712
 5826ntf    nn330678   1.134   1.686   4.371  0.1193 -0.7278 -0.6473
 5826ntf    sn230679   1.186   1.540   4.398  0.0781 -0.5592  0.3963
 5826ntf    cn130680   1.259   1.558   4.563 -0.0399  0.0770  0.3813
 5826ntf    fn430681   1.220   1.925   4.087 -0.0833  0.5051  0.6130
 5826ntf    fn430682   1.287   1.925   4.290 -0.0222  0.1450  0.0472
 5826ntf    fn430683   1.348   1.771   4.169  0.1914 -0.4227  0.3654
 5826ntf    on530684   0.989   1.849   4.249 -0.1055  0.1064 -0.3740
 5826ntf    on530685   1.084   1.663   4.120  0.5890  0.1460 -0.1478
 5826ntf    on530686   1.299   1.492   4.323 -0.0021 -0.1050 -0.0200
 5826ntf    on530687   1.078   1.450   4.429  0.1393 -0.6150  0.4467
 5826ntf    fn430688   1.322   1.449   4.603  0.0537 -0.0932 -0.2238
 5826ntf    fn430689   1.336   1.663   4.587 -0.0119 -0.0034  0.6438
 5826ntf    fn430690   1.170   1.578   4.659  0.3123 -0.4023  0.8105
 5827ntf    cn130691   4.207   6.129   2.895 -0.2265  0.3734 -0.1243
 5827ntf    sn230692   4.184   6.098   2.718 -0.0450  0.0008 -0.0837
 5827ntf    nn330693   4.326   6.054   2.667 -0.1235  0.0752 -0.3705
 5827ntf    sn230694   4.359   5.956   2.549  0.3863  0.0144 -0.1811
 5827ntf    cn130695   4.503   6.052   2.492  0.1291  0.4663 -0.0739
 5827ntf    fn430696   4.090   6.166   2.947 -0.3123  0.3906 -0.3299
 5827ntf    fn430697   4.245   6.018   2.957 -0.2738  0.4594  0.0599
 5827ntf    fn430698   4.295   6.222   2.929  0.0586  0.1849 -0.3461
 5827ntf    on530699   4.089   5.991   2.729 -0.1473  0.1485  0.5033
 5827ntf    on530700   4.134   6.219   2.657 -0.1679  0.1131  0.2416
 5827ntf    on530701   4.271   5.962   2.434 -0.1481  0.0410  0.2260
 5827ntf    on530702   4.403   5.828   2.597  0.3240  0.2938  0.6244
 5827ntf    fn430703   4.614   6.013   2.552 -0.3791  0.0914  0.6508
 5827ntf    fn430704   4.534   6.033   2.365  0.1608 -0.2829  0.0395
 5827ntf    fn430705   4.492   6.182   2.513  0.1601  0.3308  0.8002
 5828ntf    cn130706   6.627   2.267   2.016  0.3232  0.4893 -0.4799
 5828ntf    sn230707   6.595   2.328   2.185  0.1775  0.2940 -0.4369
 5828ntf    nn330708   6.575   2.191   2.258 -0.4579  0.5964 -0.0389
 5828ntf    sn230709   6.522   2.174   2.405 -0.3667  0.2988 -0.0397
 5828ntf    cn130710   6.679   2.146   2.494 -0.0653  0.2496 -0.5824
 5828ntf    fn430711   6.681   2.355   1.933  0.6604  0.1181 -0.6556
 5828ntf    fn430712   6.707   2.162   2.015 -0.0807  0.1769 -0.3158
 5828ntf    fn430713   6.510   2.229   1.969 -0.0690  0.5534  0.4231
 5828ntf    on530714   6.721   2.390   2.217  0.0943  0.3761 -0.2682
 5828ntf    on530715   6.476   2.409   2.175  0.0564  0.1296 -0.3164
 5828ntf    on530716   6.461   2.046   2.430  0.5274 -0.1909 -0.3100
 5828ntf    on530717   6.461   2.290   2.464 -0.3064  0.2921  0.0374
 5828ntf    fn430718   6.740   2.040   2.443  0.0917  0.0192  0.0826
 5828ntf    fn430719   6.770   2.240   2.476  0.4454 -0.2423 -0.5898
 5828ntf    fn430720   6.656   2.134   2.624 -0.1885 -0.4359 -0.6618
 5829ntf    cn130721   2.161   6.350   2.353  0.0157 -0.0965  0.2468
 5829ntf    sn230722   2.100   6.506   2.283 -0.0457 -0.3073 -0.1729
 5829ntf    nn330723   2.224   6.548   2.196 -0.2137  0.6046  0.0139
 5829ntf    sn230724   2.347   6.640   2.228  0.1128  0.1438  0.0910
 5829ntf    cn130725   2.483   6.521   2.209  0.1092  0.1577 -0.0242
 5829ntf    fn430726   2.278   6.374   2.409  0.0546 -0.6104  0.3948
 5829ntf    fn430727   2.091   6.304   2.456  0.2376 -0.4958  0.2222
 5829ntf    fn430728   2.181   6.250   2.269 -0.1099 -0.0621  0.1751
 5829ntf    on530729   1.989   6.462   2.201 -0.5375 -0.1877  0.4172
 5829ntf    on530730   2.071   6.584   2.401  0.3746 -0.1221 -0.1899
 5829ntf    on530731   2.362   6.685   2.364  0.2859  0.2014  0.0531
 5829ntf    on530732   2.383   6.731   2.122 -0.4492  0.0467 -0.1900
 5829ntf    fn430733   2.601   6.579   2.216  0.2590 -0.1382 -0.0759
 5829ntf    fn430734   2.480   6.427   2.302  0.4095 -0.6142 -0.7796
 5829ntf    fn430735   2.465   6.464   2.091  0.9562 -0.3680  0.0861
 5830ntf    cn130736   6.846   1.579   1.880 -0.2024  0.3820 -0.1405
 5830ntf    sn230737   6.987   1.678   1.823  0.0811  0.0367 -0.0436
 5830ntf    nn330738   6.986   1.652   1.668 -0.1396  0.6079 -0.1402
 5830ntf    sn230739   7.098   1.673   1.560  0.2208  0.0270  0.1169
 5830ntf    cn130740   7.017   1.791   1.448 -0.0422 -0.2789 -0.0180
 5830ntf    fn430741   6.732   1.621   1.827 -0.1559  0.2128 -0.3754
 5830ntf    fn430742   6.860   1.451   1.853 -0.0973  0.4836 -0.5693
 5830ntf    fn430743   6.828   1.591   2.011 -0.0038 -0.1043 -0.0667
 5830ntf    on530744   6.950   1.812   1.864  0.1115  0.1066 -0.2432
 5830ntf    on530745   7.099   1.622   1.894 -0.2384 -0.1737  0.2932
 5830ntf    on530746   7.115   1.562   1.469  0.1289  0.1792 -0.0866
 5830ntf    on530747   7.217   1.740   1.606  0.4348  0.1185 -0.5617
 5830ntf    fn430748   6.961   1.893   1.512  0.1747 -0.2805  0.1755
 5830ntf    fn430749   7.108   1.851   1.372 -0.4923 -0.0198 -0.3603
 5830ntf    fn430750   6.925   1.744   1.365  0.0270 -0.3841 -0.0353
 5831ntf    cn130751   0.987   2.750   7.386 -0.1426  0.4693 -0.2989
 5831ntf    sn230752   1.161   2.753   7.331 -0.0021  0.2677  0.1314
 5831ntf    nn330753   1.231   2.703   7.462 -0.2489  0.4071  0.3171
 5831ntf    sn230754   1.244   2.564   7.535 -0.3610  0.2425  0.0272
 5831ntf    cn130755   1.408   2.506   7.482 -0.4015 -0.1573  0.3319
 5831ntf    fn430756   0.934   2.630   7.401  0.0335  0.3799 -0.3797
 5831ntf    fn430757   0.984   2.815   7.501 -0.1858  0.1700 -0.1306
 5831ntf    fn430758   0.905   2.809   7.300 -0.1507  0.3366 -0.3824
 5831ntf    on530759   1.167   2.663   7.218  0.0026 -0.5829  0.7953
 5831ntf    on530760   1.196   2.891   7.309 -0.0318  0.2576  0.0181
 5831ntf    on530761   1.160   2.455   7.495 -0.2482 -0.1941  0.9502
 5831ntf    on530762   1.266   2.580   7.677  0.0627  0.3176 -0.0451
 5831ntf    fn430763   1.418   2.481   7.352  0.0320  0.1740  0.2968
 5831ntf    fn430764   1.502   2.598   7.499 -0.4188  0.0299 -0.5168
 5831ntf    fn430765   1.440   2.394   7.543 -0.1580 -0.3790 -0.1881
 5832ntf    cn130766   1.082   5.926   7.379 -0.1842  0.1354  0.1862
 5832ntf    sn230767   1.024   6.053   7.263  0.2102  0.1220 -0.0241
 5832ntf    nn330768   1.144   6.062   7.161  0.3202 -0.6237  0.0402
 5832ntf    sn230769   1.263   6.165   7.157 -0.1220 -0.1122 -0.0042
 5832ntf    cn130770   1.200   6.303   7.057  0.0717 -0.3846 -0.5097
 5832ntf    fn430771   1.091   5.808   7.319 -0.2524  0.2357 -0.0236
 5832ntf    fn430772   1.199   5.950   7.436  0.2954 -0.5680 -0.4841
 5832ntf    fn430773   0.994   5.923   7.478 -0.2588  0.2822  0.1257
 5832ntf    on530774   0.914   5.981   7.205  0.2882 -0.0204  0.0040
 5832ntf    on530775   0.990   6.168   7.342 -0.0575 -0.0534  0.1140
 5832ntf    on530776   1.367   6.106   7.076 -0.3181 -0.3962 -0.0510
 5832ntf    on530777   1.308   6.209   7.286  0.1362 -0.5059  0.0427
 5832ntf    fn430778   1.278   6.410   7.056  0.1195 -0.4137 -0.0441
 5832ntf    fn430779   1.187   6.268   6.930  0.1166  0.0521 -0.6348
 5832ntf    fn430780   1.080   6.345   7.097  0.3077  0.1385 -0.3381
 5833ntf    cn130781   7.065   4.679   7.221  0.5339 -0.1316  0.1184
 5833ntf    sn230782   7.195   4.803   7.191  0.2377  0.1029 -0.1999
 5833ntf    nn330783   7.327   4.721   7.212  0.0227 -0.1435  0.2108
 5833ntf    sn230784   7.456   4.751   7.297  0.0175 -0.0635  0.1918
 5833ntf    cn130785   7.565   4.803   7.162 -0.4041 -0.4363 -0.2950
 5833ntf    fn430786   7.080   4.572   7.145  0.2767 -0.0147 -0.0969
 5833ntf    fn430787   7.069   4.632   7.345 -0.1404 -0.1015  0.1544
 5833ntf    fn430788   6.944   4.727   7.200  0.3426 -0.3193  0.7531
 5833ntf    on530789   7.179   4.837   7.052  0.0037 -0.0157 -0.2029
 5833ntf    on530790   7.164   4.910   7.282 -0.1465  0.2405 -0.4856
 5833ntf    on530791   7.525   4.628   7.327  0.6356  0.2373  0.0231
 5833ntf    on530792   7.456   4.862   7.389 -0.0081 -0.2435  0.4113
 5833ntf    fn430793   7.677   4.859   7.206 -0.6131  0.1305 -0.4788
 5833ntf    fn430794   7.597   4.700   7.084 -0.5283 -0.2503 -0.5932
 5833ntf    fn430795   7.511   4.899   7.089  0.5847  0.1536 -0.2715
 5834ntf    cn130796   3.695   4.796   0.138 -0.0981 -0.1972 -0.1732
 5834ntf    sn230797   3.774   4.815  -0.025  0.0263  0.2815 -0.0594
 5834ntf    nn330798   3.711   4.690  -0.097  0.3085  0.0063  0.1759
 5834ntf    sn230799   3.764   4.542  -0.107  0.0467 -0.0858  0.1564
 5834ntf    cn130800   3.615   4.439  -0.096  0.0685 -0.1260  0.0717
 5834ntf    fn430801   3.564   4.808   0.139 -0.0849 -0.0906  0.2282
 5834ntf    fn430802   3.722   4.678   0.191  0.8084  0.0179 -0.1264
 5834ntf    fn430803   3.741   4.886   0.223  0.2611 -0.5152 -0.0292
 5834ntf    on530804   3.719   4.941  -0.071 -0.3081 -0.0709 -0.6370
 5834ntf    on530805   3.914   4.807   0.008  0.1418  0.2065 -0.5615
 5834ntf    on530806   3.839   4.485   0.002  0.4360  0.2865  0.0845
 5834ntf    on530807   3.815   4.513  -0.239  0.0329  0.2880  0.0664
 5834ntf    fn430808   3.543   4.472   0.010 -0.2208 -0.4396 -0.0226
 5834ntf    fn430809   3.531   4.447  -0.199  0.2532  0.1457 -0.0584
 5834ntf    fn430810   3.643   4.311  -0.082 -0.2283 -0.2032 -0.0162
 5835ntf    cn130811   5.196   1.262   6.619 -0.1032  0.2457 -0.1557
 5835ntf    sn230812   5.228   1.083   6.626  0.2710  0.3236  0.1190
 5835ntf    nn330813   5.384   1.086   6.607  0.2848  0.3260  0.2289
 5835ntf    sn230814   5.482   0.963   6.599  0.0507  0.1614 -0.1299
 5835ntf    cn130815   5.536   0.950   6.772 -0.1765  0.1705 -0.0574
 5835ntf    fn430816   5.223   1.313   6.500 -0.3057  0.2949 -0.1819
 5835ntf    fn430817   5.066   1.279   6.637 -0.0783  0.2494  0.0187
 5835ntf    fn430818   5.254   1.335   6.712  0.3175 -0.1090 -0.1367
 5835ntf    on530819   5.172   1.050   6.754  0.1790 -0.8703 -0.2240
 5835ntf    on530820   5.155   1.042   6.509  0.0165  0.3513  0.2694
 5835ntf    on530821   5.604   0.992   6.529  0.0462 -0.2514 -0.3122
 5835ntf    on530822   5.429   0.830   6.579  0.4326 -0.1491  0.8866
 5835ntf    fn430823   5.447   0.889   6.848  0.2293  0.1035  0.3660
 5835ntf    fn430824   5.640   0.870   6.784 -0.2054  0.1510  0.0578
 5835ntf    fn430825   5.560   1.070   6.821  0.7442 -0.1181  0.2048
 5836ntf    cn130826   0.998   6.726   5.797 -0.2549 -0.2398  0.1276
 5836ntf    sn230827   1.150   6.626   5.806 -0.1116 -0.0488 -0.1495
 5836ntf    nn330828   1.176   6.595   5.654 -0.0950 -0.5094 -0.0557
 5836ntf    sn230829   1.254   6.664   5.537  0.0953 -0.1521  0.2794
 5836ntf    cn130830   1.104   6.748   5.479  0.2366 -0.0295  0.0873
 5836ntf    fn430831   0.910   6.662   5.721 -0.4594  0.4807 -0.2502
 5836ntf    fn430832   0.936   6.750   5.912 -0.1577 -0.6081  0.2593
 5836ntf    fn430833   1.019   6.845   5.744 -0.0607 -0.5396 -0.4779
 5836ntf    on530834   1.249   6.706   5.873  0.2321 -0.6544  0.0702
 5836ntf    on530835   1.108   6.507   5.877 -0.1490 -0.0208 -0.1246
 5836ntf    on530836   1.284   6.574   5.429  0.3470 -0.0290  0.2444
 5836ntf    on530837   1.345   6.770   5.575  0.2382 -0.2128  0.1053
 5836ntf    fn430838   1.115   6.797   5.357  0.3404  0.6241  0.3577
 5836ntf    fn430839   0.995   6.672   5.481  0.2925 -0.1168 -0.1837
 5836ntf    fn430840   1.079   6.859   5.545  0.6157  0.0875  0.0350
 5837ntf    cn130841   3.944   6.459   5.013  0.0900  0.0601 -0.4070
 5837ntf    sn230842   3.854   6.334   5.108 -0.1368  0.2529 -0.3672
 5837ntf    nn330843   3.960   6.298   5.219  0.0555  0.1441 -0.5852
 5837ntf    sn230844   4.021   6.158   5.252  0.2103  0.3639  0.0671
 5837ntf    cn130845   3.892   6.101   5.367  0.0469  0.1366 -0.2300
 5837ntf    fn430846   3.891   6.473   4.892 -0.3247 -0.6938 -0.3123
 5837ntf    fn430847   3.941   6.576   5.076  0.4281 -0.1771  0.0553
 5837ntf    fn430848   4.067   6.413   4.998  0.1015  0.1775 -0.6894
 5837ntf    on530849   3.744   6.401   5.173  0.0930 -0.3145  0.6299
 5837ntf    on530850   3.813   6.238   5.009 -0.9342  0.5911 -0.3686
 5837ntf    on530851   4.139   6.165   5.335  0.3380 -0.3305 -0.0486
 5837ntf    on530852   4.012   6.059   5.148 -0.6729  0.4330  0.0742
 5837ntf    fn430853   3.773   6.105   5.307 -0.2389 -0.5007  0.2814
 5837ntf    fn430854   3.902   5.974   5.401 -0.1812  0.2261  0.1739
 5837ntf    fn430855   3.878   6.172   5.478 -0.2341 -0.2556 -0.0124
 5838ntf    cn130856   7.140   7.425   0.520 -0.2231  0.2333  0.0906
 5838ntf    sn230857   7.208   7.257   0.526 -0.3015  0.2054  0.2124
 5838ntf    nn330858   7.094   7.182   0.449  0.3151 -0.3493 -0.1770
 5838ntf    sn230859   7.072   7.159   0.295 -0.3204 -0.1873 -0.1155
 5838ntf    cn130860   7.051   6.978   0.295 -0.0464 -0.2216  0.0902
 5838ntf    fn430861   7.127   7.472   0.397  0.5666  0.2736  0.0152
 5838ntf    fn430862   7.022   7.424   0.579 -0.0795  0.3382  0.3814
 5838ntf    fn430863   7.210   7.509   0.594  0.0350  0.0161  0.0936
 5838ntf    on530864   7.337   7.264   0.462 -0.6447  0.3734 -0.4670
 5838ntf    on530865   7.201   7.212   0.663 -0.4880  0.4005  0.2673
 5838ntf    on530866   7.187   7.182   0.211 -0.1803 -0.1867  0.0763
 5838ntf    on530867   6.947   7.211   0.248 -0.2784  0.2407  0.2394
 5838ntf    fn430868   7.171   6.928   0.317  0.1670  0.2213 -0.0378
 5838ntf    fn430869   6.982   6.933   0.398 -0.2567  0.5757  0.3045
 5838ntf    fn430870   6.995   6.934   0.183 -0.2547  0.0009  0.1057
 5839ntf    cn130871   3.138   3.351   5.870  0.4343  0.4603 -0.3987
 5839ntf    sn230872   3.313   3.344   5.920  0.3667  0.0145 -0.2285
 5839ntf    nn330873   3.314   3.375   6.074  0.4411  0.2844 -0.2830
 5839ntf    sn230874   3.315   3.519   6.136  0.4411  0.1055  0.1391
 5839ntf    cn130875   3.492   3.533   6.172  0.4430  0.0979  0.1323
 5839ntf    fn430876   3.060   3.269   5.937  0.6422  0.7830  0.2496
 5839ntf    fn430877   3.081   3.470   5.884 -0.4840 -0.0526  0.2797
 5839ntf    fn430878   3.126   3.317   5.742 -0.3706 -0.0621 -0.1841
 5839ntf    on530879   3.355   3.207   5.903  0.4733  0.0615 -0.3395
 5839ntf    on530880   3.388   3.440   5.844  0.5863 -0.0599 -0.1047
 5839ntf    on530881   3.261   3.522   6.270 -0.0889 -0.4355 -0.0562
 5839ntf    on530882   3.277   3.628   6.049 -0.6510 -0.2540  0.1505
 5839ntf    fn430883   3.527   3.479   6.288 -0.3044  0.0816  0.3594
 5839ntf    fn430884   3.567   3.474   6.081 -0.0761  0.3590 -0.4653
 5839ntf    fn430885   3.528   3.661   6.181  0.0521  0.2424 -0.3373
 5840ntf    cn130886   3.524   1.965   4.301 -0.1050  0.0614  0.5917
 5840ntf    sn230887   3.566   1.789   4.318 -0.3739 -0.0659 -0.0484
 5840ntf    nn330888   3.533   1.745   4.171 -0.1923 -0.1302 -0.0709
 5840ntf    sn230889   3.524   1.594   4.129 -0.0027 -0.1169 -0.1584
 5840ntf    cn130890   3.615   1.590   3.971 -0.1567 -0.2762 -0.2439
 5840ntf    fn430891   3.541   2.021   4.420 -0.2554  0.2868  0.5065
 5840ntf    fn430892   3.597   2.031   4.213 -0.7424  0.0223  0.0326
 5840ntf    fn430893   3.397   1.984   4.269  0.0199 -0.3651 -0.1686
 5840ntf    on530894   3.708   1.788   4.346 -0.3059 -0.5348 -0.3889
 5840ntf    on530895   3.469   1.745   4.414  0.0240 -0.0283  0.3740
 5840ntf    on530896   3.392   1.557   4.085  0.0959 -0.6423 -0.0136
 5840ntf    on530897   3.596   1.501   4.212  0.1762  0.3078  0.1685
 5840ntf    fn430898   3.561   1.659   3.872  0.1810 -0.1979 -0.3751
 5840ntf    fn430899   3.738   1.637   3.985 -0.4418  0.2994  0.4247
 5840ntf    fn430900   3.608   1.463   3.936 -0.5757 -0.2520 -0.2588
 5841ntf    cn130901   5.498   4.727   1.014  0.0059  0.4174  0.0032
 5841ntf    sn230902   5.580   4.600   0.913 -0.1324  0.3386 -0.0095
 5841ntf    nn330903   5.730   4.645   0.923  0.0756 -0.2061 -0.6720
 5841ntf    sn230904   5.798   4.776   0.870  0.1357 -0.0611 -0.2335
 5841ntf    cn130905   5.955   4.771   0.962 -0.0263  0.4146  0.0718
 5841ntf    fn430906   5.487   4.842   0.949 -0.3529  0.4183  0.0627
 5841ntf    fn430907   5.373   4.694   1.043  0.2465 -0.3299  0.2078
 5841ntf    fn430908   5.568   4.745   1.125  0.2529 -0.4639 -0.0090
 5841ntf    on530909   5.559   4.478   0.986  0.3584  0.5562  0.5082
 5841ntf    on530910   5.518   4.616   0.784  0.2027 -0.2492 -0.2436
 5841ntf    on530911   5.731   4.902   0.892 -0.7072 -0.5025 -0.2555
 5841ntf    on530912   5.839   4.763   0.732 -0.1941 -0.2584 -0.3132
 5841ntf    fn430913   6.024   4.665   0.924  0.3325  0.6327  0.1164
 5841ntf    fn430914   6.021   4.882   0.934  0.1715  0.2269 -0.2129
 5841ntf    fn430915   5.939   4.765   1.094  0.1678 -0.1785  0.0704
 5842ntf    cn130916   3.932   5.825   6.202 -0.0770 -0.0352 -0.1029
 5842ntf    sn230917   4.059   5.903   6.097 -0.1254 -0.1988 -0.2842
 5842ntf    nn330918   3.974   5.916   5.966 -0.1538  0.2833 -0.2205
 5842ntf    sn230919   3.967   5.823   5.839  0.1964  0.1427 -0.1384
 5842ntf    cn130920   3.824   5.900   5.756  0.1299  0.3035  0.1243
 5842ntf    fn430921   3.973   5.794   6.324 -0.4204  0.1772  0.0681
 5842ntf    fn430922   3.825   5.902   6.212 -0.3716 -0.4129 -0.2861
 5842ntf    fn430923   3.891   5.712   6.147 -0.5929 -0.0197  0.2486
 5842ntf    on530924   4.092   6.031   6.155 -0.6975 -0.1979  0.0475
 5842ntf    on530925   4.167   5.808   6.091 -0.1144 -0.1536 -0.8411
 5842ntf    on530926   3.917   5.689   5.859  0.7580 -0.0133  0.2297
 5842ntf    on530927   4.068   5.840   5.738  0.4065 -0.0507  0.0377
 5842ntf    fn430928   3.852   6.022   5.712 -0.0887  0.5136  0.5625
 5842ntf    fn430929   3.787   5.833   5.649 -0.6986 -0.4286  0.8488
 5842ntf    fn430930   3.720   5.910   5.837  0.0160  0.1155 -0.0009
 5843ntf    cn130931   4.117   2.280   7.016 -0.4853  0.4079 -0.0498
 5843ntf    sn230932   4.254   2.374   6.943  0.0515  0.0513  0.4902
 5843ntf    nn330933   4.340   2.252   6.895 -0.3989 -0.1189  0.1148
 5843ntf    sn230934   4.476   2.240   6.818 -0.5013 -0.2801 -0.0452
 5843ntf    cn130935   4.594   2.193   6.949 -0.0061  0.3278 -0.2690
 5843ntf    fn430936   4.065   2.343   7.120 -0.4952 -0.0460  0.2257
 5843ntf    fn430937   4.019   2.266   6.928 -0.4255  0.4190 -0.1174
 5843ntf    fn430938   4.154   2.158   7.052  0.0943  0.6022  0.0171
 5843ntf    on530939   4.191   2.453   6.839  0.8076  0.8219  0.6071
 5843ntf    on530940   4.315   2.442   7.055 -0.4468  0.2381  0.6497
 5843ntf    on530941   4.533   2.364   6.772 -0.1033 -0.5424 -0.2647
 5843ntf    on530942   4.503   2.126   6.734  0.0324 -0.1653 -0.0350
 5843ntf    fn430943   4.720   2.196   6.909  0.0506  0.1444 -0.1070
 5843ntf    fn430944   4.600   2.290   7.039  0.0908 -0.1234  0.2115
 5843ntf    fn430945   4.567   2.078   7.007 -0.2552  0.2822 -0.4736
 5844ntf    cn130946   4.693   6.818   2.438  0.3315 -0.1325  0.1958
 5844ntf    sn230947   4.752   6.766   2.275 -0.0505 -0.0149  0.0201
 5844ntf    nn330948   4.828   6.896   2.231 -0.3092  0.0543 -0.2295
 5844ntf    sn230949   4.982   6.922   2.224 -0.3282  0.1300 -0.3858
 5844ntf    cn130950   4.994   7.103   2.231 -0.2475  0.1011  0.4118
 5844ntf    fn430951   4.784   6.833   2.533 -0.1735  0.3664  0.6076
 5844ntf    fn430952   4.611   6.922   2.430 -0.2793 -0.6323 -0.0738
 5844ntf    fn430953   4.618   6.722   2.490  0.2474 -0.0666  0.1975
 5844ntf    on530954   4.841   6.660   2.315 -0.0946 -0.2961 -0.6161
 5844ntf    on530955   4.640   6.731   2.190  0.3379 -0.4755 -0.3096
 5844ntf    on530956   5.043   6.895   2.096  0.4605 -0.9453  0.1966
 5844ntf    on530957   5.061   6.876   2.336 -0.3822  0.1134 -0.3546
 5844ntf    fn430958   4.899   7.155   2.307 -0.2428  0.5180  0.1355
 5844ntf    fn430959   5.111   7.146   2.275  0.1489 -0.4004 -0.1300
 5844ntf    fn430960   4.974   7.157   2.112  0.4615  0.3678  0.4119
 5845ntf    cn130961   7.177   6.358   0.720 -0.3765 -0.0345 -0.1493
 5845ntf    sn230962   7.171   6.245   0.578  0.5108 -0.1853 -0.0726
 5845ntf    nn330963   7.299   6.292   0.500  0.2256  0.1269 -0.3580
 5845ntf    sn230964   7.443   6.237   0.530  0.3241  0.5098 -0.1350
 5845ntf    cn130965   7.459   6.108   0.404  0.2557  0.2883  0.0825
 5845ntf    fn430966   7.060   6.391   0.773 -0.3844  0.1931 -0.3070
 5845ntf    fn430967   7.254   6.327   0.823 -0.2444 -0.3814 -0.3525
 5845ntf    fn430968   7.228   6.473   0.678  0.0275  0.0909  0.6790
 5845ntf    on530969   7.164   6.109   0.625  0.6195 -0.3062 -0.4037
 5845ntf    on530970   7.055   6.298   0.510  0.0588 -0.6674  0.3199
 5845ntf    on530971   7.460   6.165   0.654  0.2100  0.7867  0.0449
 5845ntf    on530972   7.542   6.334   0.490  0.1712  0.5780 -0.3460
 5845ntf    fn430973   7.343   6.052   0.373  0.2305  0.2940  0.1668
 5845ntf    fn430974   7.493   6.156   0.285 -0.1872  0.0164 -0.1589
 5845ntf    fn430975   7.549   6.013   0.422 -0.2741 -0.2355 -0.0078
 5846ntf    cn130976   2.905   6.369   1.604 -0.5496 -0.0125 -0.0256
 5846ntf    sn230977   2.913   6.212   1.514  0.3280  0.2064 -0.3423
 5846ntf    nn330978   2.998   6.255   1.389  0.0318  0.1698 -0.5587
 5846ntf    sn230979   3.149   6.224   1.357  0.1192 -0.1923  0.1701
 5846ntf    cn130980   3.132   6.139   1.197  0.0299 -0.3200  0.2476
 5846ntf    fn430981   3.027   6.414   1.630 -0.1642 -0.8072 -0.4212
 5846ntf    fn430982   2.848   6.467   1.536 -0.7112 -0.2649 -0.2517
 5846ntf    fn430983   2.835   6.353   1.716 -0.1307  0.0603  0.2500
 5846ntf    on530984   2.969   6.111   1.601  0.0099 -0.3090 -0.7262
 5846ntf    on530985   2.775   6.189   1.479  0.2989  0.2408 -0.2477
 5846ntf    on530986   3.213   6.122   1.436  0.1609  0.0982  0.5139
 5846ntf    on530987   3.232   6.338   1.326  0.4666 -0.2007  1.0433
 5846ntf    fn430988   3.107   6.231   1.105 -0.1833 -0.2614  0.3609
 5846ntf    fn430989   3.246   6.076   1.174  0.0689 -0.0818 -0.2097
 5846ntf    fn430990   3.044   6.040   1.197  0.3987 -0.6499  0.3330
 5847ntf    cn130991   7.443   1.225   5.247  0.1564 -0.4711  0.1039
 5847ntf    sn230992   7.488   1.225   5.071  0.2909  0.1355  0.1376
 5847ntf    nn330993   7.569   1.090   5.077 -0.2044 -0.1407  0.7623
 5847ntf    sn230994   7.724   1.078   5.091 -0.1213  0.0378  0.0637
 5847ntf    cn130995   7.747   0.919   5.178 -0.2178  0.2429  0.4655
 5847ntf    fn430996   7.553   1.232   5.319  0.0336  0.6568  0.2023
 5847ntf    fn430997   7.362   1.325   5.277  0.3248 -0.3284  0.0758
 5847ntf    fn430998   7.372   1.120   5.285 -0.5348  0.1628  0.5945
 5847ntf    on530999   7.368   1.198   4.996  0.1216  0.2449  0.3685
 5847ntf    on531000   7.565   1.341   5.034  0.2196  0.0564 -0.2645
 5847ntf    on531001   7.790   1.167   5.183  0.9739 -0.2815 -0.3889
 5847ntf    on531002   7.788   1.049   4.965  0.0338  0.3125  0.0779
 5847ntf    fn431003   7.874   0.895   5.205 -0.2902 -0.0447  0.5525
 5847ntf    fn431004   7.694   0.921   5.299 -0.5461  0.4914  0.3195
 5847ntf    fn431005   7.691   0.812   5.125  0.5649  0.0786 -0.0351
 5848ntf    cn131006   0.440   2.349   5.355  0.0148 -0.0242  0.3551
 5848ntf    sn231007   0.271   2.412   5.332 -0.0077 -0.1136  0.2765
 5848ntf    nn331008   0.197   2.288   5.395  0.2989 -0.2416  0.3896
 5848ntf    sn231009   0.066   2.210   5.357  0.2153  0.1950 -0.2455
 5848ntf    cn131010   0.135   2.059   5.282 -0.1554 -0.2032  0.2118
 5848ntf    fn431011   0.527   2.419   5.283  0.1300 -0.5907 -0.0622
 5848ntf    fn431012   0.490   2.359   5.477 -0.2572 -0.2155  0.4813
 5848ntf    fn431013   0.450   2.220   5.329 -0.3017  0.0850 -0.3123
 5848ntf    on531014   0.265   2.521   5.425 -0.2267 -0.5195  0.7426
 5848ntf    on531015   0.246   2.438   5.192 -0.0713  0.2048  0.3476
 5848ntf    on531016  -0.018   2.266   5.255 -0.4475 -0.3199  0.0130
 5848ntf    on531017  -0.000   2.170   5.479  0.5550  0.4875  0.0402
 5848ntf    fn431018   0.038   1.976   5.247 -0.0540 -0.0134 -0.5194
 5848ntf    fn431019   0.213   2.076   5.177  0.0812  0.4281  0.4839
 5848ntf    fn431020   0.208   1.993   5.370  0.0199 -0.5476 -0.1904
 5849ntf    cn131021   3.261   0.777   5.540  0.2178  0.0171  0.1802
 5849ntf    sn231022   3.191   0.820   5.378  0.2486 -0.3024  0.0810
 5849ntf    nn331023   3.040   0.813   5.421  0.0013  0.0683 -0.7036
 5849ntf    sn231024   2.922   0.712   5.402 -0.0052 -0.0052 -0.2881
 5849ntf    cn131025   2.877   0.683   5.575  0.2883  0.0457 -0.2031
 5849ntf    fn431026   3.258   0.875   5.629  0.8728 -0.1648  0.4058
 5849ntf    fn431027   3.206   0.666   5.588 -0.3917  0.1062 -0.2912
 5849ntf    fn431028   3.390   0.750   5.529  0.1621 -0.1892  0.0134
 5849ntf    on531029   3.236   0.951   5.337 -0.4014 -0.0853  0.0505
 5849ntf    on531030   3.226   0.715   5.286 -0.3264 -0.1294 -0.3424
 5849ntf    on531031   2.957   0.581   5.353 -0.0516 -0.1034 -0.0580
 5849ntf    on531032   2.807   0.778   5.343  0.1093  0.1705 -0.3147
 5849ntf    fn431033   2.885   0.793   5.648  0.9677 -0.0472 -0.1301
 5849ntf    fn431034   2.749   0.649   5.579  0.4669 -0.5918  0.4119
 5849ntf    fn431035   2.937   0.589   5.647  0.0985  0.5124  0.5789
 5850ntf    cn131036   0.405   2.982   6.122 -0.1766  0.2419 -0.2192
 5850ntf    sn231037   0.275   2.872   6.186  0.0196  0.0230 -0.1946
 5850ntf    nn331038   0.200   2.839   6.052 -0.3251 -0.2044  0.0544
 5850ntf    sn231039   0.202   2.715   5.956 -0.5944 -0.2065  0.0481
 5850ntf    cn131040   0.067   2.621   6.032 -0.2346 -0.6567  0.1357
 5850ntf    fn431041   0.365   3.106   6.101 -0.1190  0.1751 -0.7307
 5850ntf    fn431042   0.515   2.980   6.196  0.1489  0.1164 -0.7045
 5850ntf    fn431043   0.447   2.949   6.001  0.6182 -0.3578  0.2107
 5850ntf    on531044   0.346   2.768   6.255 -0.0477 -0.0789 -0.2781
 5850ntf    on531045   0.203   2.966   6.268  0.4646  0.2291 -0.0372
 5850ntf    on531046   0.320   2.633   5.970 -0.2654  0.2887  0.2040
 5850ntf    on531047   0.158   2.739   5.821 -0.0929  0.1296 -0.0606
 5850ntf    fn431048   0.061   2.642   6.163 -0.0879 -0.1555  0.0640
 5850ntf    fn431049  -0.048   2.663   5.982 -0.1087 -0.4849 -0.0111
 5850ntf    fn431050   0.083   2.491   6.012  0.0684 -0.5717 -0.1851
 5851ntf    cn131051   0.963   6.401   3.983 -0.2080  0.0118 -0.3126
 5851ntf    sn231052   0.892   6.407   4.150 -0.0422 -0.1758 -0.2336
 5851ntf    nn331053   0.815   6.543   4.132 -0.0048 -0.1949 -0.5397
 5851ntf    sn231054   0.661   6.573   4.122 -0.0649 -0.0754  0.6109
 5851ntf    cn131055   0.617   6.624   4.290  0.0691 -0.0630  0.6422
 5851ntf    fn431056   0.985   6.526   3.948 -0.1035  0.1142  0.1081
 5851ntf    fn431057   1.076   6.330   3.981 -0.3080 -0.1505 -0.2527
 5851ntf    fn431058   0.882   6.352   3.891 -0.4895 -0.0125 -0.0544
 5851ntf    on531059   0.807   6.291   4.142 -0.1620 -0.1142  0.1085
 5851ntf    on531060   1.004   6.412   4.241 -0.1205 -0.3188 -0.1290
 5851ntf    on531061   0.575   6.460   4.095  0.0003 -0.1605  0.7611
 5851ntf    on531062   0.636   6.689   4.040 -0.3786 -0.6031 -0.0575
 5851ntf    fn431063   0.498   6.682   4.291  0.5067  0.8660  0.0965
 5851ntf    fn431064   0.607   6.526   4.379 -0.5490 -0.3521  0.2607
 5851ntf    fn431065   0.700   6.714   4.340  0.3386  0.4238 -0.6538
 5852ntf    cn131066   3.821   5.649   0.500 -0.0724  0.2677  0.3924
 5852ntf    sn231067   3.700   5.552   0.404  0.1907  0.0847  0.2453
 5852ntf    nn331068   3.577   5.649   0.395 -0.2688 -0.5164  0.0650
 5852ntf    sn231069   3.493   5.702   0.273  0.3031  0.2384 -0.0045
 5852ntf    cn131070   3.330   5.665   0.345  0.2284  0.0257 -0.2859
 5852ntf    fn431071   3.771   5.711   0.606 -0.1314  1.0851 -0.1102
 5852ntf    fn431072   3.921   5.572   0.539 -0.1736  0.0533  0.2314
 5852ntf    fn431073   3.875   5.748   0.431 -0.5812  0.1411 -0.1972
 5852ntf    on531074   3.764   5.523   0.278  0.8959  0.1846  0.5720
 5852ntf    on531075   3.661   5.439   0.484  0.3674 -0.3050 -0.2105
 5852ntf    on531076   3.487   5.626   0.151 -0.5766  0.4760 -0.1132
 5852ntf    on531077   3.496   5.845   0.257  0.2302  0.1970 -0.3898
 5852ntf    fn431078   3.316   5.546   0.402  0.3911 -0.0553 -0.4104
 5852ntf    fn431079   3.302   5.753   0.439 -0.0044 -0.0076 -0.3233
 5852ntf    fn431080   3.232   5.680   0.257  0.3205  0.7666 -0.2636
 5853ntf    cn131081   1.225   2.390   3.632 -0.1608 -0.0129 -0.0519
 5853ntf    sn231082   1.114   2.272   3.713 -0.1531  0.1832  0.2456
 5853ntf    nn331083   1.131   2.325   3.860  0.6731 -0.2863  0.3221
 5853ntf    sn231084   1.098   2.252   3.995  0.3057 -0.3407  0.2033
 5853ntf    cn131085   1.261   2.204   4.059  0.1699 -0.0528  0.7656
 5853ntf    fn431086   1.349   2.381   3.678 -0.1187 -0.6206 -0.2825
 5853ntf    fn431087   1.239   2.392   3.500 -0.4442  0.0211 -0.0810
 5853ntf    fn431088   1.193   2.513   3.671  0.6227 -0.0620  0.7797
 5853ntf    on531089   0.985   2.298   3.653 -0.0095  0.0623 -0.1136
 5853ntf    on531090   1.177   2.145   3.689  0.3705  0.4916 -0.0168
 5853ntf    on531091   1.028   2.127   3.979  0.3113 -0.2591 -0.4888
 5853ntf    on531092   1.050   2.345   4.093 -0.5167 -0.3215 -0.2058
 5853ntf    fn431093   1.341   2.310   4.063 -0.3517  0.3681  0.1357
 5853ntf    fn431094   1.255   2.158   4.183 -0.5351 -0.1225  0.7092
 5853ntf    fn431095   1.313   2.109   3.984  0.2667  0.5176  0.0991
 5854ntf    cn131096   5.486   5.510   6.661 -0.4529  0.3904  0.2354
 5854ntf    sn231097   5.569   5.669   6.631  0.0743  0.0936  0.0993
 5854ntf    nn331098   5.677   5.647   6.742  0.0364  0.0252  0.1209
 5854ntf    sn231099   5.771   5.752   6.811  0.1312 -0.0973  0.1783
 5854ntf    cn131100   5.665   5.795   6.951 -0.1075 -0.1302  0.0073
 5854ntf    fn431101   5.364   5.508   6.610 -0.2766  0.1102 -0.1852
 5854ntf    fn431102   5.547   5.406   6.607 -0.6953  0.1974  0.3318
 5854ntf    fn431103   5.471   5.478   6.788 -0.0287  0.4659  0.3078
 5854ntf    on531104   5.617   5.657   6.495  0.2316 -0.4583  0.2037
 5854ntf    on531105   5.476   5.775   6.661  0.0023  0.0745 -0.0501
 5854ntf    on531106   5.782   5.881   6.747 -0.5236  0.0595  0.3839
 5854ntf    on531107   5.894   5.711   6.876  0.0431 -0.4799  0.1063
 5854ntf    fn431108   5.576   5.886   6.912  0.0054  0.1676  0.4377
 5854ntf    fn431109   5.596   5.689   6.991  0.2433 -0.2563  0.2781
 5854ntf    fn431110   5.732   5.843   7.054  0.0116  0.2506 -0.2426
 5855ntf    cn131111   5.692   1.168   3.302 -0.1236  0.2847  0.0419
 5855ntf    sn231112   5.719   0.995   3.350 -0.1108  0.1888 -0.3123
 5855ntf    nn331113   5.617   0.978   3.468  0.3939 -0.1092  0.0815
 5855ntf    sn231114   5.650   0.977   3.622  0.2398 -0.3110  0.1142
 5855ntf    cn131115   5.721   0.812   3.653  0.2857 -0.3259 -0.0652
 5855ntf    fn431116   5.690   1.255   3.402 -0.3185  0.1328  0.1723
 5855ntf    fn431117   5.778   1.201   3.208  0.6227  0.0326  0.6292
 5855ntf    fn431118   5.571   1.190   3.252 -0.2064 -0.1006  0.0671
 5855ntf    on531119   5.686   0.927   3.227 -0.1385 -0.7555  0.2077
 5855ntf    on531120   5.856   0.991   3.394 -0.3862 -0.5458  0.5195
 5855ntf    on531121   5.537   0.959   3.709 -0.2314  0.0487 -0.4240
 5855ntf    on531122   5.747   1.077   3.660 -0.0432 -0.0878  0.2495
 5855ntf    fn431123   5.803   0.808   3.757  0.1225  0.0221  0.0795
 5855ntf    fn431124   5.629   0.724   3.688  0.1362 -0.0377  0.2775
 5855ntf    fn431125   5.788   0.760   3.552  0.1217 -0.5506 -0.0591
 5856ntf    cn131126   6.652   7.335   4.946  0.1889  0.0202  0.3609
 5856ntf    sn231127   6.801   7.317   4.843  0.1292  0.2768  0.2278
 5856ntf    nn331128   6.773   7.436   4.744  1.3030  0.1020 -0.3376
 5856ntf    sn231129   6.791   7.428   4.589  0.2377  0.2552 -0.4752
 5856ntf    cn131130   6.620   7.403   4.532  0.0574  0.0229  0.1615
 5856ntf    fn431131   6.623   7.231   5.022  0.2980 -0.1160  0.2167
 5856ntf    fn431132   6.665   7.438   5.027  0.9568 -0.2569  0.5985
 5856ntf    fn431133   6.556   7.359   4.858  0.4097 -0.0312  0.1053
 5856ntf    on531134   6.907   7.345   4.936  0.4080  0.6035 -0.1860
 5856ntf    on531135   6.801   7.189   4.776 -0.6253  0.2569  0.2618
 5856ntf    on531136   6.858   7.316   4.527  0.1496  0.0031 -0.1155
 5856ntf    on531137   6.832   7.556   4.536 -0.2094  0.6026  0.0114
 5856ntf    fn431138   6.540   7.496   4.584 -0.4106 -0.4252  0.2517
 5856ntf    fn431139   6.611   7.409   4.400 -0.6736  0.5379  0.2217
 5856ntf    fn431140   6.575   7.284   4.566  0.1155 -0.1666 -0.4167
 5857ntf    cn131141   1.178   1.574   7.389  0.0899 -0.1197  0.1433
 5857ntf    sn231142   1.019   1.531   7.465  0.0387  0.3954  0.3278
 5857ntf    nn331143   0.990   1.388   7.406  0.4090  0.2891  0.4037
 5857ntf    sn231144   1.037   1.245   7.450  0.3647  0.0249 -0.3841
 5857ntf    cn131145   0.888   1.197   7.543  0.7500 -0.4950 -0.0292
 5857ntf    fn431146   1.270   1.479   7.399 -0.5065 -0.6467  0.7054
 5857ntf    fn431147   1.165   1.612   7.263  0.1210 -0.0316  0.1668
 5857ntf    fn431148   1.236   1.678   7.447  0.2463 -0.1420  0.0287
 5857ntf    on531149   1.042   1.534   7.607  0.3624 -0.4972  0.2993
 5857ntf    on531150   0.921   1.625   7.417  0.1879  0.4136  0.0614
 5857ntf    on531151   1.147   1.244   7.543 -0.0443  0.4665  0.1146
 5857ntf    on531152   1.040   1.154   7.339 -0.4015  0.6199 -0.9066
 5857ntf    fn431153   0.782   1.193   7.464  0.5102 -0.3560  0.2811
 5857ntf    fn431154   0.899   1.080   7.605  0.4024 -0.1504  0.6996
 5857ntf    fn431155   0.868   1.274   7.649  0.5562 -0.4051 -0.1309
 5858ntf    cn131156   4.918   3.254   1.574 -0.3274 -0.2600  0.3229
 5858ntf    sn231157   5.031   3.121   1.521  0.0721  0.2542 -0.1206
 5858ntf    nn331158   5.023   3.020   1.641  0.0990 -0.1305 -0.4402
 5858ntf    sn231159   5.136   2.979   1.740  0.0475  0.4657 -0.1291
 5858ntf    cn131160   5.031   2.951   1.886  0.0281 -0.3491 -0.2955
 5858ntf    fn431161   4.904   3.345   1.479  0.1199 -0.1738  0.3377
 5858ntf    fn431162   4.795   3.211   1.596 -0.4209 -0.1669 -0.0145
 5858ntf    fn431163   4.962   3.310   1.685 -0.8194 -0.3298  0.5516
 5858ntf    on531164   4.967   3.060   1.407  0.2870 -0.3722  0.0934
 5858ntf    on531165   5.159   3.188   1.511  0.2412  0.0362  0.5858
 5858ntf    on531166   5.219   3.090   1.780  0.1193  0.1276  0.6998
 5858ntf    on531167   5.204   2.855   1.713 -0.0434  0.3431  0.1917
 5858ntf    fn431168   5.095   2.958   2.001 -0.1466  0.1536 -0.2251
 5858ntf    fn431169   4.925   3.030   1.888  0.6392  0.4738  0.0101
 5858ntf    fn431170   4.982   2.828   1.895 -0.3729 -0.1693  0.0386
 5859ntf    cn131171   4.093   0.360   6.702  0.2241  0.1725  0.3752
 5859ntf    sn231172   4.019   0.512   6.767  0.1225  0.3218 -0.0802
 5859ntf    nn331173   3.869   0.469   6.748  0.0906  0.2564  0.3016
 5859ntf    sn231174   3.756   0.444   6.854 -0.1611  0.2031  0.0215
 5859ntf    cn131175   3.748   0.263   6.868  0.3142  0.1696 -0.1525
 5859ntf    fn431176   4.045   0.329   6.582 -0.3543 -0.2983  0.7217
 5859ntf    fn431177   4.225   0.365   6.697  0.2322  0.1360  0.5601
 5859ntf    fn431178   4.061   0.252   6.771 -0.0113  0.2095  0.3245
 5859ntf    on531179   4.078   0.531   6.897  0.1041 -0.7835  0.1013
 5859ntf    on531180   4.057   0.618   6.677  0.2848 -0.2791 -0.7280
 5859ntf    on531181   3.624   0.478   6.804 -0.2195 -0.0449  0.0086
 5859ntf    on531182   3.787   0.495   6.985  0.4013 -0.3255  0.0972
 5859ntf    fn431183   3.871   0.212   6.869 -0.1528 -0.9742  0.3130
 5859ntf    fn431184   3.699   0.222   6.984  0.1918  0.1673 -0.2053
 5859ntf    fn431185   3.680   0.205   6.771 -0.4399  0.2662  0.3176
 5860ntf    cn131186   6.684   3.181   5.415 -0.4366 -0.3526 -0.1374
 5860ntf    sn231187   6.770   3.111   5.270  0.0635  0.0180 -0.0232
 5860ntf    nn331188   6.659   3.010   5.223 -0.2521  0.0904  0.5532
 5860ntf    sn231189   6.644   2.864   5.279  0.0340 -0.2394 -0.2229
 5860ntf    cn131190   6.695   2.766   5.135 -0.3381 -0.4779 -0.1930
 5860ntf    fn431191   6.593   3.266   5.369  0.0742  0.1838 -0.1768
 5860ntf    fn431192   6.628   3.088   5.491 -0.3399 -0.0663  0.2854
 5860ntf    fn431193   6.767   3.248   5.492 -0.5670 -0.1257 -0.1919
 5860ntf    on531194   6.784   3.224   5.182  0.1951 -0.2206 -0.3090
 5860ntf    on531195   6.891   3.053   5.322 -0.0383 -0.1463  0.0332
 5860ntf    on531196   6.507   2.822   5.289  0.1600 -0.5053  0.4707
 5860ntf    on531197   6.725   2.826   5.392  0.0581 -1.0225 -0.4980
 5860ntf    fn431198   6.712   2.635   5.151 -0.0706 -0.4502 -0.2444
 5860ntf    fn431199   6.607   2.775   5.036 -0.1105 -0.1708 -0.3689
 5860ntf    fn431200   6.812   2.809   5.090 -0.3935  0.1213  0.2354
 5861ntf    cn131201   6.644   1.775   6.641  0.1070 -0.3315 -0.1607
 5861ntf    sn231202   6.782   1.733   6.531  0.2803  0.3256 -0.2009
 5861ntf    nn331203   6.881   1.642   6.612  0.2580  0.4613 -0.0230
 5861ntf    sn231204   7.036   1.622   6.601  0.1934 -0.1354  0.1370
 5861ntf    cn131205   7.079   1.713   6.752 -0.2398  0.3483 -0.0290
 5861ntf    fn431206   6.553   1.856   6.588 -0.3167 -0.7878 -0.1360
 5861ntf    fn431207   6.583   1.677   6.705  0.2225  0.1689  0.7318
 5861ntf    fn431208   6.698   1.846   6.739 -0.1389  0.1509 -0.3678
 5861ntf    on531209   6.720   1.657   6.425 -0.0253  0.3447 -0.0351
 5861ntf    on531210   6.832   1.863   6.494  0.4733  0.3308  0.0783
 5861ntf    on531211   7.105   1.700   6.501 -0.7592  0.4740 -0.0513
 5861ntf    on531212   7.071   1.484   6.629  0.5191 -0.1139 -0.1563
 5861ntf    fn431213   7.033   1.652   6.860 -0.6887 -0.0574 -0.4404
 5861ntf    fn431214   7.209   1.720   6.775 -0.2389 -0.3009  0.1949
 5861ntf    fn431215   7.026   1.834   6.745 -0.3402  0.3238  0.2984
 5862ntf    cn131216   1.258   6.509   1.323 -0.2695 -0.2963  0.2118
 5862ntf    sn231217   1.104   6.439   1.390 -0.3722 -0.0270  0.2611
 5862ntf    nn331218   1.173   6.301   1.418 -0.1065  0.0495 -0.0114
 5862ntf    sn231219   1.247   6.262   1.551 -0.0040 -0.1344 -0.1214
 5862ntf    cn131220   1.099   6.199   1.636  0.1419 -0.1458  0.1266
 5862ntf    fn431221   1.317   6.433   1.232  0.0476 -0.0906  0.2428
 5862ntf    fn431222   1.231   6.626   1.266 -0.2070 -0.2258  0.3258
 5862ntf    fn431223   1.344   6.535   1.420  0.5644  0.7776 -0.7915
 5862ntf    on531224   1.066   6.523   1.501 -0.3756  0.1815  0.1025
 5862ntf    on531225   1.011   6.433   1.280 -0.3655 -0.6658  0.2874
 5862ntf    on531226   1.304   6.368   1.631 -0.5745  0.5966 -0.6734
 5862ntf    on531227   1.330   6.144   1.541 -0.0723 -0.1870 -0.0705
 5862ntf    fn431228   1.041   6.108   1.560  0.1876 -0.3530  0.3380
 5862ntf    fn431229   1.118   6.147   1.756 -0.0648  0.5078  0.4435
 5862ntf    fn431230   1.009   6.294   1.654  0.2300 -0.0255 -0.0587
 5863ntf    cn131231   0.893   0.670   3.886  0.3200  0.2821  0.3181
 5863ntf    sn231232   0.754   0.776   3.936 -0.1184 -0.0259 -0.2390
 5863ntf    nn331233   0.634   0.705   3.864 -0.3169  0.1581 -0.0915
 5863ntf    sn231234   0.480   0.729   3.883 -0.2988  0.1254  0.0933
 5863ntf    cn131235   0.441   0.802   3.721  0.0050  0.3278  0.1097
 5863ntf    fn431236   1.015   0.701   3.927  0.4429  0.3054 -0.0628
 5863ntf    fn431237   0.876   0.553   3.946  0.0383  0.3444  0.3593
 5863ntf    fn431238   0.903   0.656   3.755  0.1841 -0.1013  0.3469
 5863ntf    on531239   0.759   0.756   4.078  0.5130  0.1725 -0.2305
 5863ntf    on531240   0.777   0.906   3.878 -0.6815  0.2403  0.1279
 5863ntf    on531241   0.430   0.825   3.978 -0.0925  0.1063  0.2238
 5863ntf    on531242   0.401   0.609   3.879  0.0463 -0.0928 -0.1426
 5863ntf    fn431243   0.506   0.915   3.701 -0.2465  0.3995 -0.3159
 5863ntf    fn431244   0.466   0.729   3.613 -0.0349 -0.3181  0.5314
 5863ntf    fn431245   0.314   0.838   3.714 -0.1738 -0.3253 -0.0377
 5864ntf    cn131246   0.522   2.564   1.545 -0.1383 -0.1960  0.5098
 5864ntf    sn231247   0.486   2.743   1.544  0.0383 -0.1638 -0.0746
 5864ntf    nn331248   0.460   2.764   1.391  0.5962  0.3562 -0.1037
 5864ntf    sn231249   0.353   2.856   1.321  0.1418  0.0590  0.1906
 5864ntf    cn131250   0.213   2.745   1.289  0.0369  0.2386  0.0264
 5864ntf    fn431251   0.521   2.521   1.670 -0.6476  0.0852  0.6074
 5864ntf    fn431252   0.438   2.486   1.479  0.1350 -0.5795  0.6179
 5864ntf    fn431253   0.642   2.534   1.499 -0.1985  0.2137  0.0808
 5864ntf    on531254   0.376   2.752   1.637  0.4538 -0.2815  0.4345
 5864ntf    on531255   0.614   2.793   1.588 -0.0626 -0.0065  0.0371
 5864ntf    on531256   0.391   2.892   1.186 -0.1387  0.7530  0.2960
 5864ntf    on531257   0.297   2.954   1.410 -0.6533 -0.0858 -0.1445
 5864ntf    fn431258   0.144   2.722   1.400 -0.5330 -0.2742 -0.4233
 5864ntf    fn431259   0.133   2.799   1.198  0.6444  0.2239 -0.5184
 5864ntf    fn431260   0.253   2.631   1.237 -0.0453  0.1849  0.0786
 5865ntf    cn131261   0.530   4.430   6.428 -0.1256  0.0354 -0.4894
 5865ntf    sn231262   0.535   4.338   6.271  0.0491  0.0522 -0.4939
 5865ntf    nn331263   0.592   4.196   6.310  0.1948  0.1148 -0.4765
 5865ntf    sn231264   0.609   4.074   6.213 -0.0959 -0.1673 -0.1725
 5865ntf    cn131265   0.782   4.022   6.237 -0.0301  0.3698  0.5620
 5865ntf    fn431266   0.646   4.440   6.491 -0.4584  0.0783  0.1153
 5865ntf    fn431267   0.491   4.556   6.419  0.1944  0.1824  0.1488
 5865ntf    fn431268   0.463   4.376   6.527  0.6026 -0.0481 -0.0357
 5865ntf    on531269   0.396   4.337   6.233 -0.0018  0.1680 -0.3104
 5865ntf    on531270   0.625   4.407   6.181  0.2097  0.5893  0.0718
 5865ntf    on531271   0.598   4.101   6.072 -0.3404 -0.7691 -0.2721
 5865ntf    on531272   0.542   3.955   6.260  0.0244 -0.1948 -0.0669
 5865ntf    fn431273   0.805   3.971   6.357  0.4858  0.0045  0.3108
 5865ntf    fn431274   0.808   3.924   6.151  0.3870  0.6227  0.3968
 5865ntf    fn431275   0.872   4.115   6.212  0.0609  0.0703 -0.2620
 5866ntf    cn131276   6.509   3.736   3.583  0.4868 -0.0863 -0.3673
 5866ntf    sn231277   6.502   3.889   3.486  0.1923  0.1482  0.0183
 5866ntf    nn331278   6.493   3.990   3.606 -0.0380 -0.2966  0.3768
 5866ntf    sn231279   6.615   4.061   3.675  0.2831 -0.3589 -0.1172
 5866ntf    cn131280   6.554   4.073   3.846 -0.1680 -0.4089 -0.2730
 5866ntf    fn431281   6.553   3.637   3.507  0.7096 -0.1177 -0.1993
 5866ntf    fn431282   6.593   3.748   3.685 -0.1066  0.3145  0.0807
 5866ntf    fn431283   6.392   3.698   3.631  0.4324  0.0599 -0.3833
 5866ntf    on531284   6.621   3.892   3.405  0.3283 -0.0949  0.2100
 5866ntf    on531285   6.377   3.874   3.416  0.1361  0.4244  0.0580
 5866ntf    on531286   6.632   4.202   3.653  0.1324 -0.3077  0.0887
 5866ntf    on531287   6.741   3.993   3.697  0.7390  0.7149  0.6756
 5866ntf    fn431288   6.442   4.142   3.859  0.2232  0.1914 -0.0568
 5866ntf    fn431289   6.524   3.950   3.884 -0.3889 -0.1340  0.4705
 5866ntf    fn431290   6.641   4.124   3.932 -0.1202 -0.4565 -0.2927
 5867ntf    cn131291   2.487   2.417   4.346  0.1566  0.2952 -0.0558
 5867ntf    sn231292   2.377   2.387   4.487  0.1409 -0.2172 -0.1754
 5867ntf    nn331293   2.273   2.503   4.469 -0.0990 -0.4222 -0.1177
 5867ntf    sn231294   2.266   2.650   4.525  0.3519 -0.3826 -0.1574
 5867ntf    cn131295   2.298   2.755   4.380  0.0255  0.1450  0.1477
 5867ntf    fn431296   2.538   2.539   4.342  0.1114  0.3137 -0.0630
 5867ntf    fn431297   2.585   2.330   4.327 -0.3224 -0.1316 -0.6020
 5867ntf    fn431298   2.422   2.405   4.231  0.4014  0.2652 -0.1944
 5867ntf    on531299   2.324   2.257   4.455 -0.0694 -0.0914 -0.3398
 5867ntf    on531300   2.464   2.395   4.602 -0.0919 -0.4815  0.0192
 5867ntf    on531301   2.373   2.687   4.614 -0.1467 -0.3096  0.4149
 5867ntf    on531302   2.136   2.694   4.570  0.3388 -0.6898  0.1117
 5867ntf    fn431303   2.207   2.744   4.284 -0.1064  0.1662  0.2705
 5867ntf    fn431304   2.296   2.885   4.405  0.4078  0.2595 -0.4016
 5867ntf    fn431305   2.417   2.731   4.327 -0.1099  0.1212 -0.1496
 5868ntf    cn131306   6.412   0.036   5.687 -0.2563  0.0050  0.0138
 5868ntf    sn231307   6.581  -0.020   5.653 -0.3207 -0.2209  0.0648
 5868ntf    nn331308   6.563  -0.074   5.506  0.0251  0.1362 -0.1098
 5868ntf    sn231309   6.554  -0.225   5.465 -0.0788  0.1975 -0.3159
 5868ntf    cn131310   6.417  -0.227   5.346 -0.1850 -0.1822 -0.1872
 5868ntf    fn431311   6.390   0.155   5.633  0.1628  0.3169  0.5076
 5868ntf    fn431312   6.318  -0.047   5.645 -0.0942 -0.0317 -0.2723
 5868ntf    fn431313   6.389   0.052   5.817 -0.0023  0.7459 -0.0282
 5868ntf    on531314   6.644   0.110   5.656 -0.1419 -0.2921 -0.4571
 5868ntf    on531315   6.605  -0.116   5.758  0.1142 -0.4339 -0.2253
 5868ntf    on531316   6.516  -0.320   5.566 -0.1145  0.2543 -0.2773
 5868ntf    on531317   6.664  -0.262   5.379 -0.1809 -0.0438 -0.3420
 5868ntf    fn431318   6.400  -0.352   5.306 -0.2072 -0.4676  0.6901
 5868ntf    fn431319   6.308  -0.180   5.404  0.1733  0.3062  0.1027
 5868ntf    fn431320   6.439  -0.149   5.241  0.3591 -0.2012 -0.0901
 5869ntf    cn131321   6.119   7.490   5.131  0.1487 -0.3353 -0.0556
 5869ntf    sn231322   5.987   7.611   5.100  0.2340 -0.1721  0.2205
 5869ntf    nn331323   6.021   7.716   5.211 -0.1794  0.6266 -0.3978
 5869ntf    sn231324   5.929   7.804   5.304  0.0961  0.1537  0.3284
 5869ntf    cn131325   5.964   7.707   5.454 -0.2975 -0.4519  0.0333
 5869ntf    fn431326   6.137   7.459   5.258 -0.1322 -0.3723 -0.0246
 5869ntf    fn431327   6.105   7.377   5.063 -0.2717 -0.0865 -0.3876
 5869ntf    fn431328   6.239   7.528   5.091  0.0648  0.7476  0.6928
 5869ntf    on531329   6.006   7.646   4.961  0.1272  0.0905  0.2714
 5869ntf    on531330   5.875   7.526   5.135  0.0319 -0.1452 -0.3518
 5869ntf    on531331   5.786   7.796   5.287  0.1947 -0.3857 -0.2733
 5869ntf    on531332   5.987   7.933   5.332  0.3038  0.2727 -0.6174
 5869ntf    fn431333   6.095   7.693   5.465 -0.2866 -0.2167  0.2205
 5869ntf    fn431334   5.932   7.770   5.566  0.6562 -0.0782  0.0981
 5869ntf    fn431335   5.895   7.594   5.466 -0.9185 -0.0721  0.1207
 5870ntf    cn131336   6.227   6.614   2.662 -0.0102  0.3124 -0.3292
 5870ntf    sn231337   6.393   6.560   2.712 -0.1850  0.1249  0.0511
 5870ntf    nn331338   6.468   6.664   2.621 -0.1559 -0.1696 -0.2611
 5870ntf    sn231339   6.608   6.649   2.552  0.0952 -0.0273  0.2126
 5870ntf    cn131340   6.547   6.604   2.386  0.1358  0.0191  0.1850
 5870ntf    fn431341   6.199   6.591   2.535  0.0568  0.2055 -0.3248
 5870ntf    fn431342   6.134   6.557   2.737  0.1957 -0.2962 -0.5360
 5870ntf    fn431343   6.210   6.743   2.686 -0.3097  0.1521  0.3390
 5870ntf    on531344   6.385   6.599   2.851 -0.5175 -0.2645  0.1449
 5870ntf    on531345   6.404   6.420   2.678  0.2307  0.0923  0.3172
 5870ntf    on531346   6.696   6.545   2.600  0.0680 -0.1041  0.0942
 5870ntf    on531347   6.667   6.777   2.522  0.4063 -0.2099  0.0367
 5870ntf    fn431348   6.480   6.490   2.394 -0.4430  0.3339 -0.1315
 5870ntf    fn431349   6.458   6.690   2.341  0.1268  0.0325  0.2281
 5870ntf    fn431350   6.645   6.593   2.298 -0.4947 -0.4223 -0.4684
 5871ntf    cn131351   6.810   3.473   2.903 -0.2537  0.3971  0.1131
 5871ntf    sn231352   6.794   3.368   2.755 -0.2734  0.1805  0.2678
 5871ntf    nn331353   6.850   3.466   2.645 -0.1127 -0.1328  0.0673
 5871ntf    sn231354   6.995   3.463   2.586 -0.1556 -0.2867 -0.0298
 5871ntf    cn131355   6.999   3.331   2.461  0.0522 -0.1519 -0.1665
 5871ntf    fn431356   6.727   3.576   2.897 -0.5043  0.2331  0.7516
 5871ntf    fn431357   6.779   3.407   3.013 -0.8340  0.5840  0.0686
 5871ntf    fn431358   6.931   3.524   2.917 -0.2698  0.3312  0.5087
 5871ntf    on531359   6.864   3.245   2.782 -0.6202  0.0434  0.5484
 5871ntf    on531360   6.653   3.344   2.743 -0.2315  0.2096 -0.3323
 5871ntf    on531361   7.098   3.431   2.682  0.0230 -0.0113 -0.1277
 5871ntf    on531362   7.011   3.585   2.511 -0.6279 -0.1986  0.0108
 5871ntf    fn431363   7.125   3.310   2.425 -0.1410 -0.5518 -0.6147
 5871ntf    fn431364   6.939   3.223   2.508  0.4216 -0.2361  0.1203
 5871ntf    fn431365   6.937   3.353   2.346 -0.5651  0.2808  0.2433
 5872ntf    cn131366   6.888   4.270   0.990 -0.2516  0.1897  0.2843
 5872ntf    sn231367   6.991   4.140   1.066 -0.0808 -0.0177 -0.2971
 5872ntf    nn331368   6.965   4.178   1.216  0.2993 -0.0005 -0.2347
 5872ntf    sn231369   6.845   4.141   1.310  0.3643  0.0748 -0.1215
 5872ntf    cn131370   6.921   4.011   1.413  0.2924 -0.0141 -0.1809
 5872ntf    fn431371   6.895   4.245   0.860 -0.5682 -0.3012  0.3572
 5872ntf    fn431372   6.764   4.275   1.036 -0.2089 -0.4278  0.4820
 5872ntf    fn431373   6.939   4.390   1.008 -0.8054  0.4584  0.0790
 5872ntf    on531374   6.935   4.013   1.028 -0.1902 -0.0145 -0.1450
 5872ntf    on531375   7.125   4.181   1.032 -0.2269  0.1976 -0.6244
 5872ntf    on531376   6.730   4.077   1.252  0.3526 -0.3851  0.4021
 5872ntf    on531377   6.812   4.247   1.401  0.1072 -0.4963  0.4577
 5872ntf    fn431378   6.864   3.999   1.531 -0.2405  0.0119 -0.4326
 5872ntf    fn431379   6.891   3.901   1.347  0.2369 -0.2395  0.2238
 5872ntf    fn431380   7.053   4.016   1.425  0.2455  0.4465  0.2009
 5873ntf    cn131381   6.767   1.088   4.055 -0.1887  0.2260 -0.0558
 5873ntf    sn231382   6.678   1.025   3.909  0.2504 -0.1437 -0.1674
 5873ntf    nn331383   6.674   1.143   3.806  0.2305  0.2251  0.2502
 5873ntf    sn231384   6.750   1.154   3.669 -0.1995  0.0613 -0.0036
 5873ntf    cn131385   6.924   1.148   3.720 -0.1826 -0.1493 -0.0848
 5873ntf    fn431386   6.703   1.065   4.168 -0.4294  0.5060 -0.1336
 5873ntf    fn431387   6.888   1.037   4.062 -0.0369  0.6371  0.3115
 5873ntf    fn431388   6.791   1.218   4.044  0.0381  0.2217  0.3785
 5873ntf    on531389   6.763   0.915   3.871  0.0443 -0.1988 -0.4744
 5873ntf    on531390   6.542   1.004   3.954  0.2722 -0.1033 -0.0826
 5873ntf    on531391   6.724   1.284   3.611  0.2723 -0.1574 -0.7182
 5873ntf    on531392   6.737   1.039   3.582 -0.1574  0.1989 -0.1942
 5873ntf    fn431393   7.007   1.185   3.624 -0.4379 -0.1110 -0.2933
 5873ntf    fn431394   6.941   1.227   3.825 -0.4817  0.0909 -0.2166
 5873ntf    fn431395   6.963   1.026   3.753  0.4924  0.0995  0.0606
 5874ntf    cn131396   5.849   4.325   4.541 -0.0786  0.0519 -0.1665
 5874ntf    sn231397   5.674   4.280   4.521 -0.0825  0.0374 -0.0958
 5874ntf    nn331398   5.633   4.276   4.673 -0.0645  0.6359 -0.0727
 5874ntf    sn231399   5.484   4.280   4.724 -0.0231  0.0099  0.1045
 5874ntf    cn131400   5.467   4.107   4.778  0.0466  0.0732  0.3283
 5874ntf    fn431401   5.895   4.357   4.421  0.5498 -0.8235 -0.1705
 5874ntf    fn431402   5.856   4.434   4.616  0.2358  0.1922 -0.3913
 5874ntf    fn431403   5.925   4.227   4.586 -0.0763  0.2934  0.3649
 5874ntf    on531404   5.618   4.386   4.441  0.4977  0.6844  0.3472
 5874ntf    on531405   5.688   4.153   4.455 -0.4564 -0.1249  0.1300
 5874ntf    on531406   5.381   4.287   4.624 -0.4724  0.3398  0.5881
 5874ntf    on531407   5.476   4.360   4.843 -0.2474  0.0353  0.0721
 5874ntf    fn431408   5.528   4.020   4.700  0.4200  0.1529  0.5310
 5874ntf    fn431409   5.524   4.095   4.897  0.0644 -0.2058  0.2898
 5874ntf    fn431410   5.342   4.064   4.788  0.0822  0.0055  0.4903
 5875ntf    cn131411   6.254   3.791   1.349  0.3448 -0.0597  0.1058
 5875ntf    sn231412   6.200   3.784   1.523  0.2655  0.2587  0.0933
 5875ntf    nn331413   6.339   3.811   1.591  0.2560 -0.1539  0.2738
 5875ntf    sn231414   6.364   3.876   1.732 -0.2843  0.2917  0.1661
 5875ntf    cn131415   6.422   4.042   1.687 -0.1613  0.2788  0.2776
 5875ntf    fn431416   6.359   3.713   1.327  0.3248 -0.0520 -0.0147
 5875ntf    fn431417   6.156   3.754   1.268  0.3308  0.1033  0.0490
 5875ntf    fn431418   6.302   3.909   1.315  0.4495 -0.2397 -0.3775
 5875ntf    on531419   6.096   3.885   1.523 -0.7279 -0.7416 -0.1797
 5875ntf    on531420   6.165   3.646   1.540  0.5413  0.2190  0.3399
 5875ntf    on531421   6.472   3.803   1.793  0.0920  0.5102 -0.2352
 5875ntf    on531422   6.247   3.906   1.811 -0.2210  0.3781  0.2268
 5875ntf    fn431423   6.342   4.109   1.605 -0.3446 -0.6648 -0.3338
 5875ntf    fn431424   6.446   4.112   1.797  0.3068 -0.0447  0.3835
 5875ntf    fn431425   6.539   4.034   1.627 -0.4959 -0.1206 -0.3326
 5876ntf    cn131426   7.079   1.618   2.860 -0.1017 -0.1849  0.3538
 5876ntf    sn231427   7.149   1.684   2.706 -0.1762 -0.0536  0.3750
 5876ntf    nn331428   7.113   1.834   2.731 -0.9152 -0.2204  0.3489
 5876ntf    sn231429   7.005   1.918   2.654 -0.1596  0.3558 -0.1071
 5876ntf    cn131430   7.094   1.935   2.496 -0.2734 -0.1242 -0.2261
 5876ntf    fn431431   6.947   1.608   2.862 -0.0841 -0.4000  0.3484
 5876ntf    fn431432   7.133   1.501   2.888  0.2189 -0.1110  0.0428
 5876ntf    fn431433   7.105   1.700   2.961 -0.5903  0.2474  0.1359
 5876ntf    on531434   7.290   1.659   2.720  0.0397  0.9097 -0.0121
 5876ntf    on531435   7.073   1.612   2.605  0.0912 -0.3064  0.3519
 5876ntf    on531436   6.990   2.051   2.707 -0.0268  0.4544 -0.3172
 5876ntf    on531437   6.880   1.851   2.625 -0.0151 -0.0233  0.1421
 5876ntf    fn431438   7.082   1.832   2.414 -0.5225 -0.4992  0.2691
 5876ntf    fn431439   7.060   2.049   2.439 -0.1199  0.0130 -0.0437
 5876ntf    fn431440   7.224   1.936   2.518 -0.2641  0.1861 -0.2994
 5877ntf    cn131441   3.365   3.967   6.097 -0.4212  0.1779  0.0653
 5877ntf    sn231442   3.247   4.079   6.016  0.0756  0.3421 -0.4381
 5877ntf    nn331443   3.172   4.133   6.143 -0.5235  0.3094 -0.7702
 5877ntf    sn231444   3.023   4.160   6.182 -0.4392 -0.0131 -0.2033
 5877ntf    cn131445   3.003   4.055   6.329 -0.1281 -0.1094 -0.2312
 5877ntf    fn431446   3.459   4.034   6.161 -0.2992  0.0052  0.0659
 5877ntf    fn431447   3.300   3.893   6.186 -0.2459  0.4747  0.4418
 5877ntf    fn431448   3.422   3.888   6.008  0.0495  0.2515  0.3009
 5877ntf    on531449   3.341   4.170   5.955 -0.2739  0.1587 -1.2655
 5877ntf    on531450   3.169   3.997   5.927 -0.3624 -0.1300  0.3653
 5877ntf    on531451   2.927   4.119   6.082 -0.4293 -0.6669  0.0538
 5877ntf    on531452   3.011   4.292   6.240 -0.4175  0.0404 -0.3185
 5877ntf    fn431453   2.875   4.046   6.362 -0.0128  0.2546  0.3218
 5877ntf    fn431454   3.052   3.933   6.312  0.1454 -0.0193 -0.0843
 5877ntf    fn431455   3.070   4.102   6.432 -0.0393 -0.4057 -0.1505
 5878ntf    cn131456   4.900   1.003   2.285  0.0808 -0.1615  0.2019
 5878ntf    sn231457   4.778   0.912   2.385  0.0196 -0.2957  0.0057
 5878ntf    nn331458   4.794   0.762   2.340  0.8825 -0.2794  0.2256
 5878ntf    sn231459   4.728   0.693   2.216  0.1445 -0.0290  0.4686
 5878ntf    cn131460   4.575   0.637   2.297 -0.2574  0.1735 -0.1447
 5878ntf    fn431461   4.897   0.972   2.157 -0.0751 -0.7906  0.3517
 5878ntf    fn431462   4.885   1.133   2.304  0.6895 -0.1014  0.2976
 5878ntf    fn431463   5.027   0.984   2.319  0.2779 -0.0703 -0.4813
 5878ntf    on531464   4.820   0.923   2.523 -0.2596  0.1126  0.0568
 5878ntf    on531465   4.656   0.976   2.346  0.0916  0.1275  0.4607
 5878ntf    on531466   4.793   0.573   2.170  0.4011  0.2682  0.0477
 5878ntf    on531467   4.689   0.788   2.114  0.4616 -0.5387 -0.1371
 5878ntf    fn431468   4.490   0.599   2.203  0.0352 -0.4573 -0.1595
 5878ntf    fn431469   4.590   0.526   2.366  0.0736  0.1629 -0.2325
 5878ntf    fn431470   4.513   0.724   2.376  0.0066 -0.0323  0.2909
 5879ntf    cn131471   5.251   3.875   5.614  0.0189  0.0315 -0.2917
 5879ntf    sn231472   5.174   3.968   5.478  0.1047 -0.0075 -0.3671
 5879ntf    nn331473   5.308   4.018   5.412  0.2853 -0.2295 -0.1712
 5879ntf    sn231474   5.376   4.160   5.409 -0.1193 -0.0208  0.3229
 5879ntf    cn131475   5.299   4.235   5.263  0.6662 -0.0491 -0.1110
 5879ntf    fn431476   5.152   3.828   5.689  0.1048  0.5000  0.1205
 5879ntf    fn431477   5.324   3.771   5.577 -0.2752 -0.4568  0.4752
 5879ntf    fn431478   5.329   3.950   5.689 -0.1618  0.1209 -0.1948
 5879ntf    on531479   5.110   3.865   5.400 -0.2155  0.3652 -0.6033
 5879ntf    on531480   5.088   4.066   5.539  0.0044 -0.3849  0.1041
 5879ntf    on531481   5.516   4.146   5.379 -0.0951 -0.2428  0.5359
 5879ntf    on531482   5.334   4.249   5.514  0.0095  0.4365 -0.0094
 5879ntf    fn431483   5.329   4.363   5.244 -0.1316  0.1914  0.1881
 5879ntf    fn431484   5.330   4.173   5.150  0.2408 -0.2766 -0.1077
 5879ntf    fn431485   5.166   4.239   5.265  0.6589  0.0404 -0.6386
 5880ntf    cn131486   1.983   6.273   0.878 -0.0092  0.2108 -0.1342
 5880ntf    sn231487   1.801   6.284   0.879 -0.0072  0.2376 -0.0870
 5880ntf    nn331488   1.773   6.401   0.980  0.2020  0.0685  0.1691
 5880ntf    sn231489   1.751   6.399   1.135  0.2113  0.0921  0.1707
 5880ntf    cn131490   1.570   6.410   1.129  0.2089 -0.1425 -0.2083
 5880ntf    fn431491   2.030   6.251   1.000 -0.2366 -0.2823 -0.1301
 5880ntf    fn431492   2.035   6.177   0.803  0.2570  0.4183 -0.2153
 5880ntf    fn431493   2.039   6.382   0.830 -0.1710  0.5445  0.4346
 5880ntf    on531494   1.771   6.334   0.747  0.3556  0.1662 -0.1991
 5880ntf    on531495   1.753   6.152   0.910 -0.2517  0.3829  0.1641
 5880ntf    on531496   1.796   6.521   1.199  0.5231 -0.0028  0.1340
 5880ntf    on531497   1.776   6.279   1.210  0.1007 -0.0619 -0.0385
 5880ntf    fn431498   1.520   6.397   1.251  0.0520  0.0016 -0.2556
 5880ntf    fn431499   1.527   6.527   1.084  0.2743  0.0519  0.2219
 5880ntf    fn431500   1.512   6.317   1.055  0.2411 -0.4445  0.1416
 5881ntf    cn131501   2.610   0.350   0.927  0.0810 -0.3469  0.1159
 5881ntf    sn231502   2.549   0.336   1.098 -0.0718 -0.1827  0.0750
 5881ntf    nn331503   2.394   0.330   1.073 -0.0673  0.1347 -0.0355
 5881ntf    sn231504   2.282   0.440   1.064 -0.3582 -0.1477  0.0703
 5881ntf    cn131505   2.251   0.485   1.237 -0.1136  0.3125 -0.0031
 5881ntf    fn431506   2.727   0.289   0.917  0.4032  0.2969 -0.0694
 5881ntf    fn431507   2.526   0.293   0.842 -0.5339 -0.1268  0.5704
 5881ntf    fn431508   2.620   0.474   0.883 -0.7726 -0.2770  0.0958
 5881ntf    on531509   2.594   0.208   1.146 -0.5211 -0.6082 -0.6156
 5881ntf    on531510   2.613   0.450   1.157 -0.3605  0.1922 -0.3267
 5881ntf    on531511   2.158   0.381   1.021 -0.3513  0.0773 -0.2599
 5881ntf    on531512   2.321   0.564   1.001  0.1061 -0.1662  0.3198
 5881ntf    fn431513   2.361   0.529   1.297  0.1887  0.0987 -0.3954
 5881ntf    fn431514   2.162   0.580   1.260 -0.0298  0.3643  0.1095
 5881ntf    fn431515   2.211   0.380   1.306  0.3521 -0.3837 -0.7753
 5882ntf    cn131516   6.537   3.041   3.284 -0.0619 -0.0419  0.2458
 5882ntf    sn231517   6.382   3.135   3.296 -0.1623 -0.1784  0.0320
 5882ntf    nn331518   6.413   3.233   3.178  0.3262  0.4867  0.7076
 5882ntf    sn231519   6.326   3.351   3.121 -0.0668 -0.1197  0.0424
 5882ntf    cn131520   6.395   3.495   3.208  0.3464 -0.4440  0.2530
 5882ntf    fn431521   6.548   2.944   3.374  0.2507 -0.3427 -0.1080
 5882ntf    fn431522   6.539   2.975   3.169  0.2868  0.0120  0.2207
 5882ntf    fn431523   6.650   3.109   3.287  0.0498 -0.1744 -0.5222
 5882ntf    on531524   6.269   3.047   3.275 -0.2740 -0.0595  0.1336
 5882ntf    on531525   6.395   3.199   3.424  0.2182  0.4553 -0.3197
 5882ntf    on531526   6.185   3.353   3.151 -0.1081 -0.4863 -0.1182
 5882ntf    on531527   6.373   3.370   2.986  0.0647 -0.3722  0.0516
 5882ntf    fn431528   6.520   3.526   3.176  0.0755  0.1279 -0.2593
 5882ntf    fn431529   6.328   3.606   3.186  0.0538 -0.6326  0.1810
 5882ntf    fn431530   6.398   3.483   3.340  0.0847  0.0226  0.3025
 5883ntf    cn131531   3.694   7.364   2.345 -0.1325  0.5517  0.4768
 5883ntf    sn231532   3.593   7.515   2.352 -0.4324  0.3773  0.0209
 5883ntf    nn331533   3.680   7.610   2.263 -0.2628  0.5020  0.3160
 5883ntf    sn231534   3.679   7.639   2.108  0.0120  0.2073  0.2585
 5883ntf    cn131535   3.559   7.776   2.105 -0.4146 -0.1684  0.1707
 5883ntf    fn431536   3.660   7.300   2.234  0.1326  0.5136  0.4170
 5883ntf    fn431537   3.824   7.382   2.330 -0.1869  0.2371 -0.4209
 5883ntf    fn431538   3.670   7.285   2.448 -0.6224  0.0240 -0.0315
 5883ntf    on531539   3.472   7.463   2.294 -0.0791 -0.3654 -0.0502
 5883ntf    on531540   3.597   7.557   2.490  0.0592  0.5623 -0.0471
 5883ntf    on531541   3.622   7.532   2.030  0.4011  0.2949 -0.1548
 5883ntf    on531542   3.802   7.693   2.054 -0.2841  0.0825 -0.5501
 5883ntf    fn431543   3.597   7.865   2.194  0.3913 -0.4202  0.0851
 5883ntf    fn431544   3.558   7.841   1.990  0.6609 -0.3578  0.0442
 5883ntf    fn431545   3.435   7.733   2.124 -0.5308 -0.0866 -0.3749
 5884ntf    cn131546   7.162   3.211   0.084  0.5556  0.4775 -0.0014
 5884ntf    sn231547   7.201   3.120   0.236  0.1029  0.0877 -0.1173
 5884ntf    nn331548   7.354   3.154   0.247  0.0753  0.1584  0.0545
 5884ntf    sn231549   7.476   3.061   0.279 -0.2821 -0.3794 -0.1217
 5884ntf    cn131550   7.534   3.028   0.110 -0.0132 -0.6646  0.0248
 5884ntf    fn431551   7.192   3.340   0.089  0.3024  0.5453 -0.1765
 5884ntf    fn431552   7.221   3.157  -0.021 -0.4018 -0.0577 -0.2731
 5884ntf    fn431553   7.034   3.223   0.054  0.5772  0.4170 -0.1199
 5884ntf    on531554   7.118   3.187   0.334  0.4273 -0.5491  0.6074
 5884ntf    on531555   7.164   2.986   0.198  0.2261  0.0669 -0.1629
 5884ntf    on531556   7.448   2.930   0.332  1.1822 -0.6656  0.0084
 5884ntf    on531557   7.583   3.133   0.344 -0.4114  0.3373 -0.6907
 5884ntf    fn431558   7.447   2.956   0.041  0.2325 -0.7482 -0.2008
 5884ntf    fn431559   7.554   3.139   0.040 -0.3799 -0.2255  0.6070
 5884ntf    fn431560   7.648   2.962   0.121  0.3130 -0.1188 -0.0143
 5885ntf    cn131561   1.052   6.032   4.709 -0.1795  0.2293 -0.1588
 5885ntf    sn231562   1.009   6.188   4.626 -0.3411  0.0873 -0.3426
 5885ntf    nn331563   0.871   6.214   4.698 -0.1538 -0.1848  0.1165
 5885ntf    sn231564   0.763   6.321   4.660  0.1211  0.0820  0.0767
 5885ntf    cn131565   0.658   6.220   4.550  0.2255  0.1238 -0.0616
 5885ntf    fn431566   1.181   6.007   4.692 -0.2523  0.0568 -0.4719
 5885ntf    fn431567   1.036   6.038   4.840 -0.5619  0.6085 -0.2181
 5885ntf    fn431568   0.991   5.921   4.672  0.2044 -0.1080  0.2118
 5885ntf    on531569   1.119   6.277   4.656 -0.1949 -0.1755 -0.0980
 5885ntf    on531570   0.991   6.147   4.489  0.2639 -0.6179 -0.2148
 5885ntf    on531571   0.806   6.432   4.579 -0.1844 -0.0423 -0.2598
 5885ntf    on531572   0.667   6.351   4.764 -0.1156  0.1912 -0.1735
 5885ntf    fn431573   0.554   6.288   4.506  0.1618  0.0699  0.0051
 5885ntf    fn431574   0.729   6.189   4.443 -0.0978 -0.2380 -0.1732
 5885ntf    fn431575   0.613   6.108   4.603 -0.0626  0.3229  0.1189
 5886ntf    cn131576   6.763   1.750   7.085  0.1211  0.2322  0.1960
 5886ntf    sn231577   6.810   1.606   7.185  0.0132  0.0943  0.0488
 5886ntf    nn331578   6.700   1.621   7.296  0.3643  0.3342  0.3658
 5886ntf    sn231579   6.619   1.518   7.382  0.0555  0.3696  0.1165
 5886ntf    cn131580   6.732   1.509   7.523  0.2671 -0.3500 -0.0949
 5886ntf    fn431581   6.847   1.770   6.985 -0.4737 -0.5712 -0.4818
 5886ntf    fn431582   6.647   1.719   7.028  0.1845  0.3272  0.0137
 5886ntf    fn431583   6.745   1.860   7.158 -0.1049  0.1719  0.2330
 5886ntf    on531584   6.799   1.504   7.084  0.1128  0.2962 -0.1658
 5886ntf    on531585   6.942   1.634   7.237 -0.0122 -0.3163  0.3431
 5886ntf    on531586   6.624   1.391   7.313  0.4896  0.4094  0.0733
 5886ntf    on531587   6.495   1.571   7.433  0.0352  0.4018  0.0343
 5886ntf    fn431588   6.752   1.625   7.583  0.0809 -0.2347 -0.2558
 5886ntf    fn431589   6.687   1.423   7.613 -0.2161 -0.3520 -0.3344
 5886ntf    fn431590   6.854   1.463   7.500  0.4048  0.1051 -0.2644
 5887ntf    cn131591   0.049   0.188   3.142  0.5479 -0.1208 -0.5841
 5887ntf    sn231592   0.077   0.028   3.059  0.2904 -0.4080 -0.1192
 5887ntf    nn331593   0.055   0.077   2.912  0.0648 -0.4022 -0.0840
 5887ntf    sn231594  -0.074   0.077   2.821 -0.0963  0.0340  0.1415
 5887ntf    cn131595  -0.079   0.258   2.802 -0.0914  0.0325  0.1261
 5887ntf    fn431596   0.058   0.162   3.271 -0.3604  0.5286 -0.3768
 5887ntf    fn431597   0.126   0.288   3.101 -0.1396  0.5038 -0.3749
 5887ntf    fn431598  -0.075   0.230   3.119  0.4705  0.0746  0.1867
 5887ntf    on531599   0.216   0.010   3.091  0.4036  0.0804 -0.3202
 5887ntf    on531600  -0.022  -0.059   3.117 -0.0268  0.3317  0.4755
 5887ntf    on531601  -0.198   0.041   2.885 -0.3109  0.5631  0.0240
 5887ntf    on531602  -0.047   0.027   2.688 -0.1699 -0.4013  0.2873
 5887ntf    fn431603  -0.189   0.303   2.745  0.0865  0.4450  0.1052
 5887ntf    fn431604  -0.076   0.325   2.916  0.1708  0.1685  0.0389
 5887ntf    fn431605   0.018   0.317   2.735 -0.0193 -0.6340 -0.3720
 5888ntf    cn131606   3.834   2.047   6.656 -0.3715 -0.1140  0.1489
 5888ntf    sn231607   3.941   2.031   6.510 -0.3346  0.0449  0.1585
 5888ntf    nn331608   3.840   2.046   6.391  0.1090 -0.0951 -0.2389
 5888ntf    sn231609   3.750   1.948   6.309  0.3482 -0.2035 -0.3735
 5888ntf    cn131610   3.581   1.982   6.369  0.6011  0.4687 -0.0325
 5888ntf    fn431611   3.908   2.024   6.764  0.0743 -0.3503 -0.2046
 5888ntf    fn431612   3.788   2.170   6.674  0.2290  0.0770  0.4152
 5888ntf    fn431613   3.730   1.965   6.659 -0.0437 -0.5290  0.3413
 5888ntf    on531614   4.018   2.153   6.516  0.2751 -0.2860 -0.8354
 5888ntf    on531615   4.007   1.904   6.529 -0.2755  0.0490 -0.0213
 5888ntf    on531616   3.761   1.809   6.346 -0.9333 -0.1184  0.3860
 5888ntf    on531617   3.740   1.979   6.168 -1.0370  0.2613 -0.1943
 5888ntf    fn431618   3.539   2.101   6.331 -0.6134 -0.0414 -0.3403
 5888ntf    fn431619   3.487   1.902   6.322  0.4351  0.4984  0.2470
 5888ntf    fn431620   3.568   1.971   6.500  0.2728 -0.2794 -0.1243
 5889ntf    cn131621   1.909   3.957   0.647 -0.0968 -0.3703 -0.0943
 5889ntf    sn231622   1.882   4.030   0.812 -0.0571 -0.2090 -0.1591
 5889ntf    nn331623   2.031   4.045   0.856 -0.1020 -0.1286 -0.0336
 5889ntf    sn231624   2.121   4.173   0.839  0.0308 -0.2082  0.0576
 5889ntf    cn131625   2.283   4.097   0.867  0.1616  0.0417 -0.0172
 5889ntf    fn431626   1.792   3.927   0.594 -0.1619 -0.3106  0.0144
 5889ntf    fn431627   1.963   4.047   0.566  0.0833 -0.4406 -0.0524
 5889ntf    fn431628   1.985   3.849   0.653  0.4020  0.0073  0.6702
 5889ntf    on531629   1.812   4.155   0.788  0.2578 -0.0878 -0.4511
 5889ntf    on531630   1.803   3.932   0.882 -0.6409 -0.0872 -0.6366
 5889ntf    on531631   2.097   4.268   0.946 -0.2317 -0.7427  0.4781
 5889ntf    on531632   2.129   4.228   0.706  0.4695 -0.2650  0.0615
 5889ntf    fn431633   2.383   4.177   0.834 -0.0832  0.6753  0.7332
 5889ntf    fn431634   2.300   4.048   0.989  0.5870  0.1437 -0.0332
 5889ntf    fn431635   2.298   3.988   0.793  0.2081  0.0149  0.0313
 5890ntf    cn131636   4.071   7.237   4.430 -0.2325  0.3499  0.0605
 5890ntf    sn231637   4.144   7.093   4.514  0.2437  0.2713 -0.4830
 5890ntf    nn331638   4.149   7.138   4.665  0.2323 -0.3446 -0.2957
 5890ntf    sn231639   4.272   7.193   4.746  0.0058 -0.4577  0.1231
 5890ntf    cn131640   4.327   7.045   4.835  0.0996 -0.3552  0.2366
 5890ntf    fn431641   4.084   7.221   4.300 -0.2108 -0.4414  0.1542
 5890ntf    fn431642   3.945   7.259   4.462 -0.2435 -0.1963  0.3944
 5890ntf    fn431643   4.140   7.348   4.455 -0.1432  0.3468 -0.1740
 5890ntf    on531644   4.046   6.989   4.499  0.1650  0.3832 -0.7510
 5890ntf    on531645   4.271   7.074   4.448  0.2331 -0.1876 -0.3728
 5890ntf    on531646   4.233   7.287   4.848 -0.2797 -0.1481 -0.2693
 5890ntf    on531647   4.387   7.227   4.667 -0.4014  0.1815 -0.2107
 5890ntf    fn431648   4.416   7.068   4.930  0.0652 -0.0500  0.1947
 5890ntf    fn431649   4.222   6.986   4.891 -0.3749 -0.0678 -0.3360
 5890ntf    fn431650   4.377   6.956   4.751  0.1926 -0.0709 -0.0082
 5891ntf    cn131651   5.745   2.812   6.265 -0.2595 -0.2189 -0.0148
 5891ntf    sn231652   5.717   2.772   6.089 -0.0346  0.0452 -0.1119
 5891ntf    nn331653   5.741   2.913   6.023  0.2289 -0.0374 -0.1895
 5891ntf    sn231654   5.867   2.970   5.949  0.0226  0.4030 -0.2042
 5891ntf    cn131655   5.781   3.048   5.810 -0.3296  0.9005  0.2903
 5891ntf    fn431656   5.741   2.700   6.335  0.3316 -0.4183 -0.2933
 5891ntf    fn431657   5.865   2.867   6.278 -0.2382 -0.1849 -0.3238
 5891ntf    fn431658   5.660   2.896   6.320 -0.0500  0.1383 -0.2296
 5891ntf    on531659   5.816   2.673   6.056  0.0969  0.0863  0.1546
 5891ntf    on531660   5.579   2.731   6.105  0.2319 -0.8048  0.0308
 5891ntf    on531661   5.947   2.868   5.885 -0.0614 -0.0664  0.4210
 5891ntf    on531662   5.931   3.080   6.017 -0.0053  0.3341 -0.0673
 5891ntf    fn431663   5.722   2.958   5.733 -0.0004  0.2027  0.8395
 5891ntf    fn431664   5.696   3.139   5.857 -1.0694  0.4221 -0.0928
 5891ntf    fn431665   5.869   3.114   5.737 -0.3068  0.2803 -0.2533
 5892ntf    cn131666   5.286   1.683   0.247  0.1631 -0.3168  0.0171
 5892ntf    sn231667   5.336   1.646   0.417  0.0244 -0.4084  0.0383
 5892ntf    nn331668   5.345   1.490   0.411 -0.1783 -0.4597  0.9454
 5892ntf    sn231669   5.466   1.390   0.401 -0.1620 -0.3156 -0.3617
 5892ntf    cn131670   5.516   1.387   0.575 -0.1850 -0.2450 -0.3540
 5892ntf    fn431671   5.333   1.596   0.159  0.1089  0.2113 -0.5437
 5892ntf    fn431672   5.156   1.700   0.230  0.2825 -0.0702 -0.6783
 5892ntf    fn431673   5.330   1.802   0.208 -0.4700 -0.2027 -0.3662
 5892ntf    on531674   5.460   1.719   0.426  0.3411 -0.9638  0.1851
 5892ntf    on531675   5.226   1.681   0.504  0.0488 -0.4801  0.0978
 5892ntf    on531676   5.580   1.427   0.321  0.4769 -0.2531  0.5742
 5892ntf    on531677   5.431   1.252   0.380  0.0055 -0.3145 -0.6546
 5892ntf    fn431678   5.565   1.500   0.624 -0.4354 -0.2742 -0.0326
 5892ntf    fn431679   5.419   1.346   0.655  0.1655  0.1733  0.2978
 5892ntf    fn431680   5.612   1.298   0.596 -0.0651 -0.0202  0.0855
 5893ntf    cn131681   5.690   2.372   4.230 -0.2554  0.2248  0.0019
 5893ntf    sn231682   5.552   2.491   4.230 -0.3069  0.1643 -0.1464
 5893ntf    nn331683   5.631   2.626   4.237 -0.5802  0.3265 -0.1897
 5893ntf    sn231684   5.687   2.718   4.122 -0.0687 -0.0196 -0.2200
 5893ntf    cn131685   5.552   2.839   4.129  0.2040  0.2612  0.2257
 5893ntf    fn431686   5.780   2.401   4.138 -0.3776  0.0238 -0.1808
 5893ntf    fn431687   5.756   2.354   4.343  0.0864  0.2588 -0.1903
 5893ntf    fn431688   5.641   2.253   4.200  0.2200 -0.0696  0.3776
 5893ntf    on531689   5.471   2.466   4.114 -0.0662 -0.5763 -0.1611
 5893ntf    on531690   5.493   2.458   4.358  0.3354 -0.1945  0.0632
 5893ntf    on531691   5.687   2.674   3.985 -0.2389 -0.5912 -0.0387
 5893ntf    on531692   5.794   2.805   4.165 -0.3102 -0.1055  0.5749
 5893ntf    fn431693   5.553   2.934   4.037  0.7069 -0.4333 -0.4985
 5893ntf    fn431694   5.430   2.787   4.139  0.4859 -0.3473  0.5631
 5893ntf    fn431695   5.555   2.916   4.237 -0.4057  0.0834  0.3734
 5894ntf    cn131696   5.076   5.671   6.269  0.1356 -0.2392 -0.0714
 5894ntf    sn231697   5.107   5.702   6.093  0.0581 -0.3702 -0.1078
 5894ntf    nn331698   5.148   5.563   6.033 -0.1050 -0.4163 -0.1133
 5894ntf    sn231699   5.142   5.512   5.884  0.5277  0.0130 -0.2868
 5894ntf    cn131700   5.306   5.440   5.854  0.3598 -0.3360 -0.3563
 5894ntf    fn431701   4.975   5.590   6.295  0.2934 -0.3736  0.1285
 5894ntf    fn431702   5.186   5.617   6.319  0.3128  0.0468 -0.1507
 5894ntf    fn431703   5.054   5.783   6.337  0.2550 -0.3006  0.0707
 5894ntf    on531704   4.980   5.751   6.045 -0.1320  0.1765  0.9318
 5894ntf    on531705   5.211   5.801   6.088 -0.3534  0.1069  0.5919
 5894ntf    on531706   5.140   5.611   5.780  0.1366  0.1090 -0.1912
 5894ntf    on531707   5.043   5.408   5.871 -0.0924  0.6101 -0.4191
 5894ntf    fn431708   5.318   5.329   5.925  0.5933  0.2982  0.6115
 5894ntf    fn431709   5.326   5.402   5.728  0.0868  0.2920 -0.5943
 5894ntf    fn431710   5.404   5.522   5.886 -0.0668  0.1460 -0.2678
 5895ntf    cn131711   5.969   0.834   7.002  0.3187  0.1738  0.0936
 5895ntf    sn231712   6.013   0.931   7.149 -0.0779  0.2049  0.1923
 5895ntf    nn331713   5.964   0.838   7.265 -0.1552 -0.0261 -0.0265
 5895ntf    sn231714   6.036   0.715   7.330 -0.0344  0.0539 -0.0100
 5895ntf    cn131715   6.118   0.806   7.464 -0.3526  0.0783  0.1695
 5895ntf    fn431716   5.841   0.832   6.969  0.3581  0.3264 -0.0690
 5895ntf    fn431717   6.045   0.867   6.898 -0.0699 -0.5456 -0.4315
 5895ntf    fn431718   5.994   0.708   7.035  0.2787  0.0654 -0.2846
 5895ntf    on531719   6.156   0.947   7.139 -0.1408  0.6822 -0.0027
 5895ntf    on531720   5.935   1.052   7.132 -0.3305 -0.0809 -0.7360
 5895ntf    on531721   6.152   0.659   7.266  0.4029  0.0557  0.7669
 5895ntf    on531722   5.941   0.629   7.397 -0.2511  0.2673 -0.0423
 5895ntf    fn431723   6.212   0.889   7.423  0.5574 -1.2445 -0.5040
 5895ntf    fn431724   6.029   0.885   7.522 -0.2680  0.0542  0.3318
 5895ntf    fn431725   6.165   0.729   7.561  0.1174 -0.2223 -0.2956
 5896ntf    cn131726   3.087   1.682   5.466 -0.5906  0.0200 -0.0017
 5896ntf    sn231727   3.169   1.690   5.628 -0.3791 -0.0670 -0.1053
 5896ntf    nn331728   3.113   1.562   5.700 -0.1834 -0.0962 -0.0031
 5896ntf    sn231729   2.968   1.548   5.759 -0.0450 -0.4165  0.2642
 5896ntf    cn131730   2.999   1.616   5.925 -0.3708 -0.1148  0.2024
 5896ntf    fn431731   3.146   1.742   5.364 -0.0704  0.1717  0.3823
 5896ntf    fn431732   3.066   1.555   5.433 -0.1644  0.1219 -0.6749
 5896ntf    fn431733   2.962   1.726   5.468 -0.5725  0.0985 -0.4984
 5896ntf    on531734   3.308   1.663   5.600 -0.2734  0.4432 -0.0730
 5896ntf    on531735   3.141   1.822   5.677  0.2291  0.0847 -0.1530
 5896ntf    on531736   2.927   1.412   5.782 -0.5643 -0.4674 -0.9057
 5896ntf    on531737   2.878   1.635   5.687  0.4355 -0.7193 -0.7161
 5896ntf    fn431738   2.886   1.649   5.987 -0.3747 -0.3977  0.3484
 5896ntf    fn431739   3.063   1.534   6.006 -0.5414 -0.3059  0.1476
 5896ntf    fn431740   3.074   1.724   5.926 -0.0649 -0.3250  0.0650
 5897ntf    cn131741   1.540   0.425   5.059 -0.1163 -0.1142  0.3148
 5897ntf    sn231742   1.640   0.274   5.065 -0.0494 -0.0841 -0.0155
 5897ntf    nn331743   1.524   0.168   5.068 -0.1638  0.0332 -0.2285
 5897ntf    sn231744   1.414   0.130   4.963 -0.2183 -0.3443 -0.0395
 5897ntf    cn131745   1.261   0.142   5.061 -0.2816 -0.1889 -0.1569
 5897ntf    fn431746   1.612   0.534   5.086 -0.0506 -0.0064 -0.2748
 5897ntf    fn431747   1.478   0.449   4.945  0.3863 -0.4188 -0.0278
 5897ntf    fn431748   1.439   0.423   5.143 -0.6304 -0.3445 -0.3013
 5897ntf    on531749   1.722   0.269   4.946 -0.2339  0.6632 -0.1802
 5897ntf    on531750   1.710   0.290   5.190 -0.5603 -0.4111  0.3129
 5897ntf    on531751   1.424  -0.006   4.918 -0.2664 -0.3740  0.0396
 5897ntf    on531752   1.384   0.234   4.868 -0.2288 -0.1917  0.1292
 5897ntf    fn431753   1.152   0.135   4.986 -0.3041  0.2762 -0.1695
 5897ntf    fn431754   1.244   0.050   5.154  0.4096  0.1975  0.3636
 5897ntf    fn431755   1.259   0.257   5.127 -0.4506 -0.1150 -0.2899
 5898ntf    cn131756   1.884   0.885   5.894 -0.1909 -0.4136  0.1531
 5898ntf    sn231757   1.991   1.033   5.901 -0.0650 -0.4927 -0.0963
 5898ntf    nn331758   2.135   0.977   5.873  0.1374  0.0817 -0.2155
 5898ntf    sn231759   2.215   0.888   5.974  0.4280  0.3374 -0.2185
 5898ntf    cn131760   2.275   1.021   6.083  0.4073  0.1590  0.0124
 5898ntf    fn431761   1.916   0.817   5.786 -0.3137 -0.0767 -0.0972
 5898ntf    fn431762   1.897   0.798   5.993  0.5873 -0.1909  0.2552
 5898ntf    fn431763   1.757   0.921   5.883 -0.1877 -0.3970  0.1710
 5898ntf    on531764   1.937   1.125   5.804  0.3888 -0.3439 -0.2066
 5898ntf    on531765   1.962   1.072   6.037  0.2852  1.2360 -0.4990
 5898ntf    on531766   2.337   0.833   5.922  0.5558  0.6207 -0.2173
 5898ntf    on531767   2.138   0.806   6.066  0.0923  0.1249 -0.6856
 5898ntf    fn431768   2.178   1.050   6.168  0.1133 -0.2789 -0.1705
 5898ntf    fn431769   2.376   0.980   6.158  0.3106 -0.6964 -0.3061
 5898ntf    fn431770   2.310   1.134   6.025  0.3383 -0.0048 -0.3527
 5899ntf    cn131771   6.707   3.794   5.715 -0.1603  0.0793  0.5168
 5899ntf    sn231772   6.808   3.662   5.640 -0.4057  0.1463  0.0662
 5899ntf    nn331773   6.854   3.734   5.508 -0.5453  0.3913  0.1489
 5899ntf    sn231774   6.794   3.728   5.362 -0.1310  0.2063 -0.0149
 5899ntf    cn131775   6.907   3.845   5.281 -0.0181  0.0904 -0.0269
 5899ntf    fn431776   6.775   3.906   5.736 -0.1172  0.2007 -0.2427
 5899ntf    fn431777   6.604   3.822   5.637  0.2606 -0.1844 -0.1451
 5899ntf    fn431778   6.668   3.773   5.840 -0.5165 -0.2063  0.3565
 5899ntf    on531779   6.906   3.648   5.745 -0.2477  0.2315 -0.0686
 5899ntf    on531780   6.724   3.548   5.613  0.3105 -0.4036  0.1475
 5899ntf    on531781   6.663   3.788   5.360 -0.1974  0.0582 -0.0756
 5899ntf    on531782   6.818   3.606   5.290 -0.6313 -0.2740  0.6186
 5899ntf    fn431783   6.885   3.854   5.151  0.3691  0.4602 -0.0688
 5899ntf    fn431784   6.897   3.965   5.337 -0.1220  0.3084 -0.5132
 5899ntf    fn431785   7.032   3.802   5.291  0.1130  0.4318 -0.1819
 5900ntf    cn131786   6.434   1.063   2.396 -0.3042 -0.0377  0.0924
 5900ntf    sn231787   6.469   1.021   2.223  0.3598 -0.0800  0.2322
 5900ntf    nn331788   6.328   1.044   2.157  0.0358  0.0253  0.9610
 5900ntf    sn231789   6.208   0.943   2.153  0.0045  0.0983  0.0620
 5900ntf    cn131790   6.090   1.026   2.263  0.2800 -0.2703  0.6339
 5900ntf    fn431791   6.326   0.998   2.436 -0.2559 -0.1289  0.0776
 5900ntf    fn431792   6.533   1.028   2.477 -0.1882  0.0540 -0.0102
 5900ntf    fn431793   6.412   1.189   2.428  0.5378 -0.0638  0.8253
 5900ntf    on531794   6.559   1.131   2.194  0.9549 -0.5396  0.3273
 5900ntf    on531795   6.527   0.889   2.219  0.3749 -0.0612 -0.3074
 5900ntf    on531796   6.232   0.815   2.214  0.0462  0.1361  0.1255
 5900ntf    on531797   6.139   0.942   2.026 -0.5205  0.1367  0.3461
 5900ntf    fn431798   5.972   0.967   2.249  0.2351  0.0019 -0.1273
 5900ntf    fn431799   6.114   1.010   2.392  0.0363 -0.1358  0.6977
 5900ntf    fn431800   6.065   1.151   2.230 -0.3198 -0.6109 -0.2529
 5901ntf    cn131801   1.185   5.074   3.458 -0.2499 -0.1911 -0.1775
 5901ntf    sn231802   1.204   4.912   3.379 -0.0759 -0.1965 -0.1245
 5901ntf    nn331803   1.255   4.839   3.508  0.7401 -0.1808 -0.4294
 5901ntf    sn231804   1.251   4.683   3.530  0.4499 -0.0755  0.2913
 5901ntf    cn131805   1.085   4.681   3.602  0.4823  0.0294  0.3682
 5901ntf    fn431806   1.080   5.073   3.539 -0.2884  0.1751 -0.2202
 5901ntf    fn431807   1.289   5.107   3.533 -0.3931  0.2152 -0.1528
 5901ntf    fn431808   1.168   5.178   3.377 -0.0744 -0.1102 -0.1110
 5901ntf    on531809   1.068   4.889   3.339 -0.5134  0.3505  1.0118
 5901ntf    on531810   1.305   4.934   3.278 -0.1979 -0.1831 -0.2443
 5901ntf    on531811   1.341   4.644   3.636  0.1352 -0.3023  0.4764
 5901ntf    on531812   1.249   4.598   3.413  0.3594  0.4694 -0.1067
 5901ntf    fn431813   1.076   4.745   3.718 -0.0351  0.0845  0.3028
 5901ntf    fn431814   0.991   4.729   3.522  0.2185  0.2855  0.8274
 5901ntf    fn431815   1.047   4.556   3.624 -0.0416  0.0711 -0.2606
 5902ntf    cn131816   6.119   0.176   3.834 -0.1589 -0.0806  0.1238
 5902ntf    sn231817   5.975   0.235   3.741 -0.0169 -0.0345 -0.0684
 5902ntf    nn331818   5.909   0.102   3.689  0.6009 -0.2038 -0.4223
 5902ntf    sn231819   5.844   0.066   3.551  0.1171  0.1012 -0.2762
 5902ntf    cn131820   5.670   0.106   3.589  0.1355 -0.0080 -0.0760
 5902ntf    fn431821   6.096   0.056   3.885 -0.1571 -0.0124  0.2861
 5902ntf    fn431822   6.231   0.169   3.764 -0.1351 -1.1716  0.2587
 5902ntf    fn431823   6.154   0.259   3.932  1.0816 -0.5751  0.1267
 5902ntf    on531824   5.893   0.298   3.843 -0.3064  0.1850 -0.4357
 5902ntf    on531825   6.035   0.320   3.642  0.5486 -0.1485  0.1719
 5902ntf    on531826   5.837  -0.074   3.517  0.3444  0.0831 -0.2455
 5902ntf    on531827   5.867   0.160   3.444  0.4544 -0.2988 -0.5571
 5902ntf    fn431828   5.644   0.225   3.640  0.6053  0.1091 -0.0996
 5902ntf    fn431829   5.600   0.103   3.477 -0.0051 -0.5839  0.0224
 5902ntf    fn431830   5.616   0.020   3.673 -0.1261  0.1437 -0.0880
 5903ntf    cn131831   0.638   5.423   7.296 -0.4289 -0.2321  0.1868
 5903ntf    sn231832   0.493   5.405   7.188 -0.0577 -0.2366 -0.3166
 5903ntf    nn331833   0.411   5.300   7.270  0.2919 -0.2715 -0.0078
 5903ntf    sn231834   0.273   5.319   7.343  0.3765 -0.2729  0.1532
 5903ntf    cn131835   0.305   5.225   7.495 -0.1489 -0.0756  0.3865
 5903ntf    fn431836   0.703   5.308   7.304  0.0722  0.0193 -0.1953
 5903ntf    fn431837   0.725   5.507   7.242 -0.2066 -0.4905  0.1379
 5903ntf    fn431838   0.608   5.469   7.416  0.4880 -0.2250  0.4211
 5903ntf    on531839   0.445   5.541   7.182 -0.0890 -0.2153  0.3737
 5903ntf    on531840   0.555   5.355   7.067  0.3020  0.2009 -0.3166
 5903ntf    on531841   0.164   5.241   7.288  0.2473  0.1021 -0.1258
 5903ntf    on531842   0.235   5.451   7.385 -0.1937 -0.2869 -0.2989
 5903ntf    fn431843   0.205   5.220   7.582 -0.3245  0.1583  0.2008
 5903ntf    fn431844   0.330   5.100   7.461  0.4335  0.3829 -0.9014
 5903ntf    fn431845   0.418   5.256   7.557 -0.1877 -0.1305  0.4846
 5904ntf    cn131846   3.295   4.637   0.509 -0.2208 -0.2491 -0.0750
 5904ntf    sn231847   3.199   4.656   0.357 -0.0419  0.2940 -0.1209
 5904ntf    nn331848   3.050   4.673   0.404 -0.0241  0.0595  0.0192
 5904ntf    sn231849   2.936   4.566   0.415  0.1823 -0.1760 -0.1491
 5904ntf    cn131850   2.848   4.611   0.567 -0.1214  0.6526 -0.5687
 5904ntf    fn431851   3.424   4.613   0.490 -0.0464 -0.0980  0.8626
 5904ntf    fn431852   3.299   4.747   0.582 -0.4825  0.1247 -0.6218
 5904ntf    fn431853   3.249   4.537   0.583 -0.4781  0.1921  0.3738
 5904ntf    on531854   3.245   4.783   0.306 -0.7146  0.5240 -0.1657
 5904ntf    on531855   3.224   4.533   0.286  0.8642  0.5601 -0.2723
 5904ntf    on531856   2.984   4.433   0.447  0.6547  0.0604  0.1378
 5904ntf    on531857   2.836   4.584   0.313 -0.1335  0.6667  0.3042
 5904ntf    fn431858   2.749   4.529   0.596  0.4379  0.0091 -0.4484
 5904ntf    fn431859   2.924   4.611   0.675  0.1294  0.2887 -0.7431
 5904ntf    fn431860   2.800   4.734   0.559  0.1894  0.8161  0.0481
 5905ntf    cn131861   1.617   0.747   5.352  0.0515  0.1915  0.5239
 5905ntf    sn231862   1.501   0.883   5.389 -0.3295 -0.0373  0.1861
 5905ntf    nn331863   1.388   0.869   5.282  0.2406  0.2501 -0.4635
 5905ntf    sn231864   1.380   0.921   5.134  0.1898  0.3196 -0.4370
 5905ntf    cn131865   1.262   1.057   5.155  0.0881  0.1626  0.0237
 5905ntf    fn431866   1.557   0.629   5.363 -0.4581  0.3589 -0.3317
 5905ntf    fn431867   1.670   0.762   5.231 -0.4332 -0.5403  0.2139
 5905ntf    fn431868   1.719   0.744   5.436  0.4202 -0.2411  0.0672
 5905ntf    on531869   1.447   0.834   5.514  0.6918  0.6769  0.9244
 5905ntf    on531870   1.594   0.993   5.396 -0.3713  0.0606 -0.7479
 5905ntf    on531871   1.312   0.823   5.052 -0.6598 -0.1299  0.7709
 5905ntf    on531872   1.497   0.986   5.080  0.1438  0.5035 -0.3144
 5905ntf    fn431873   1.303   1.130   5.258  0.7569  0.0365 -0.1494
 5905ntf    fn431874   1.248   1.139   5.051  0.3070 -0.0997 -0.2134
 5905ntf    fn431875   1.138   1.015   5.173  0.0716 -0.1658 -0.8042
 5906ntf    cn131876   3.594   4.991   0.675  0.2061 -0.2344  0.2650
 5906ntf    sn231877   3.533   4.877   0.803 -0.3956 -0.1612  0.0447
 5906ntf    nn331878   3.620   4.928   0.924 -0.4491  0.5147 -0.2008
 5906ntf    sn231879   3.774   4.921   0.949 -0.4987 -0.1880 -0.0780
 5906ntf    cn131880   3.809   5.084   1.024  0.4220 -0.2236 -0.4161
 5906ntf    fn431881   3.631   5.109   0.722  0.4189 -0.2095  0.0352
 5906ntf    fn431882   3.692   4.937   0.604  0.2005  0.4235 -0.2455
 5906ntf    fn431883   3.494   5.008   0.591  0.2273 -0.2342  0.2400
 5906ntf    on531884   3.390   4.900   0.812 -0.3730  0.1332 -0.3433
 5906ntf    on531885   3.572   4.745   0.760 -0.0712 -0.1476  0.2948
 5906ntf    on531886   3.860   4.929   0.834  0.4740 -0.3335  0.6192
 5906ntf    on531887   3.800   4.821   1.049 -0.5899 -0.2931 -0.1604
 5906ntf    fn431888   3.817   5.182   0.936  0.0107 -0.4737 -0.7369
 5906ntf    fn431889   3.712   5.126   1.103  0.3652 -0.0840 -0.5604
 5906ntf    fn431890   3.925   5.087   1.087  0.0318 -0.0082  0.2967
 5907ntf    cn131891   6.614   2.775   1.354  0.3339 -0.1774  0.2575
 5907ntf    sn231892   6.509   2.675   1.245 -0.2327  0.3129  0.3497
 5907ntf    nn331893   6.586   2.699   1.110 -0.2530  0.7418  0.4123
 5907ntf    sn231894   6.558   2.813   1.006 -0.1176  0.1255 -0.3116
 5907ntf    cn131895   6.448   2.721   0.895 -0.2485 -0.3145  0.1784
 5907ntf    fn431896   6.620   2.899   1.309  0.6234 -0.3713 -0.2406
 5907ntf    fn431897   6.572   2.791   1.478 -0.0262  0.0632  0.1057
 5907ntf    fn431898   6.733   2.719   1.365  0.2118 -0.4520  0.1909
 5907ntf    on531899   6.529   2.541   1.295 -0.6727  0.0933 -0.0523
 5907ntf    on531900   6.381   2.739   1.268 -0.2823  0.1565  0.5085
 5907ntf    on531901   6.673   2.856   0.929  0.1342 -0.3431 -0.2049
 5907ntf    on531902   6.485   2.924   1.061 -0.1511  0.0138 -0.1283
 5907ntf    fn431903   6.479   2.735   0.767 -0.0849  0.0664  0.2577
 5907ntf    fn431904   6.464   2.591   0.912  0.6276 -0.2360  0.0047
 5907ntf    fn431905   6.319   2.748   0.910 -0.4649 -1.0681 -0.3099
 5908ntf    cn131906   4.068   1.366   0.855 -0.3388 -0.0552 -0.4778
 5908ntf    sn231907   4.077   1.203   0.776  0.0327 -0.2021 -0.1320
 5908ntf    nn331908   3.959   1.130   0.850  0.3511 -0.0178  0.5646
 5908ntf    sn231909   3.927   0.977   0.834  0.3002  0.0770 -0.3021
 5908ntf    cn131910   3.796   0.992   0.709  0.2549  0.2549 -0.2332
 5908ntf    fn431911   3.947   1.417   0.836 -0.2984  0.1189 -0.2705
 5908ntf    fn431912   4.089   1.348   0.984 -0.0774 -0.0823 -0.5240
 5908ntf    fn431913   4.161   1.452   0.816 -0.0588  0.0246  0.3579
 5908ntf    on531914   4.051   1.223   0.636 -0.3560 -0.3877 -0.0872
 5908ntf    on531915   4.205   1.151   0.820  0.1189  0.4911  0.4552
 5908ntf    on531916   3.862   0.920   0.950  0.1283  0.0008 -0.4360
 5908ntf    on531917   4.037   0.907   0.774  0.4834  0.4929 -0.4528
 5908ntf    fn431918   3.756   0.872   0.672 -0.6514  0.3645  0.3531
 5908ntf    fn431919   3.693   1.059   0.759 -0.0800 -0.2858 -0.1994
 5908ntf    fn431920   3.833   1.058   0.600  0.0660  0.0090 -0.4453
 5909ntf    cn131921   3.917   0.530   5.027 -0.2657  0.0246 -0.5762
 5909ntf    sn231922   3.985   0.492   4.863 -0.0244 -0.4146 -0.3760
 5909ntf    nn331923   4.024   0.341   4.881  0.2555 -0.2852  0.1276
 5909ntf    sn231924   4.159   0.285   4.937  0.2561 -0.4635 -0.0491
 5909ntf    cn131925   4.255   0.263   4.784  0.2094  0.3736 -0.2012
 5909ntf    fn431926   3.924   0.661   5.050  0.3748 -0.0966 -0.0459
 5909ntf    fn431927   3.791   0.495   5.039 -0.1564  0.0431  0.7461
 5909ntf    fn431928   3.990   0.475   5.123 -0.6158  0.0001 -0.3241
 5909ntf    on531929   3.875   0.501   4.770  0.0308  0.1417 -0.3933
 5909ntf    on531930   4.092   0.587   4.848 -0.2324 -0.1015  0.0857
 5909ntf    on531931   4.152   0.155   4.999 -0.1455 -0.3656  0.1150
 5909ntf    on531932   4.239   0.379   5.012  0.0698 -0.7181  0.4764
 5909ntf    fn431933   4.351   0.174   4.803 -0.1125  0.1669  0.5021
 5909ntf    fn431934   4.181   0.220   4.684 -0.3751  0.1963  0.3014
 5909ntf    fn431935   4.324   0.371   4.750 -0.0554  0.4333 -0.5556
 5910ntf    cn131936   2.103   4.626   1.298 -0.6748 -0.0655  0.2758
 5910ntf    sn231937   2.011   4.764   1.224 -0.4384  0.1942  0.4648
 5910ntf    nn331938   1.994   4.708   1.078 -0.2331  0.3242  0.3890
 5910ntf    sn231939   2.003   4.770   0.934  0.0611 -0.0498  0.2461
 5910ntf    cn131940   2.174   4.725   0.890  0.1667  0.3502  0.2483
 5910ntf    fn431941   2.038   4.511   1.295  0.2892 -0.6165  0.0405
 5910ntf    fn431942   2.214   4.603   1.230 -0.2252  0.8396  0.6954
 5910ntf    fn431943   2.140   4.653   1.422  0.0964 -0.4868  0.1418
 5910ntf    on531944   1.893   4.777   1.305 -0.5884  0.0756  0.2650
 5910ntf    on531945   2.105   4.874   1.226 -0.2031  0.0018  0.1792
 5910ntf    on531946   2.006   4.913   0.918 -0.3784  0.0231  0.7849
 5910ntf    on531947   1.923   4.704   0.834 -0.1443  0.2861  0.1866
 5910ntf    fn431948   2.210   4.750   0.766  0.3539  0.3358  0.2994
 5910ntf    fn431949   2.269   4.786   0.959  0.3030  0.7126 -0.2570
 5910ntf    fn431950   2.185   4.595   0.908 -0.2897  0.3075  0.2255
 5911ntf    cn131951   0.660   0.622   1.886 -0.2136  0.0829 -0.3213
 5911ntf    sn231952   0.589   0.460   1.931 -0.2277  0.2050  0.1015
 5911ntf    nn331953   0.497   0.501   2.051  0.1278 -0.2104  0.5187
 5911ntf    sn231954   0.340   0.504   2.059  0.1041  0.1054 -0.0020
 5911ntf    cn131955   0.312   0.329   2.100  0.3053  0.1550  0.3565
 5911ntf    fn431956   0.729   0.684   1.980 -0.2216  0.2773 -0.4436
 5911ntf    fn431957   0.736   0.610   1.779 -0.2707 -0.0500 -0.3479
 5911ntf    fn431958   0.569   0.714   1.860 -0.2222  0.1830  0.0627
 5911ntf    on531959   0.524   0.416   1.810 -0.2879  0.0235  0.2011
 5911ntf    on531960   0.697   0.377   1.977 -0.1673 -0.0990 -0.5702
 5911ntf    on531961   0.264   0.525   1.939 -0.2043 -0.4483  0.0895
 5911ntf    on531962   0.295   0.579   2.174 -0.1790  0.0810 -0.0965
 5911ntf    fn431963   0.387   0.286   2.200  0.2030 -0.3208  0.2331
 5911ntf    fn431964   0.187   0.307   2.137  0.2482  0.1219  0.1464
 5911ntf    fn431965   0.317   0.250   1.994  0.1810 -0.0100  0.4728
 5912ntf    cn131966   1.845   7.361   2.396 -0.7708  0.0062 -0.0251
 5912ntf    sn231967   1.916   7.526   2.370 -0.0099 -0.2578  0.3610
 5912ntf    nn331968   1.864   7.535   2.223  0.0847  0.9740  0.3915
 5912ntf    sn231969   1.950   7.514   2.093 -0.0832  0.0872  0.4152
 5912ntf    cn131970   1.836   7.564   1.961  0.2920  0.0642  0.0800
 5912ntf    fn431971   1.900   7.311   2.506  0.3051  0.5784 -0.2976
 5912ntf    fn431972   1.715   7.367   2.422 -0.6030 -0.1897  0.8937
 5912ntf    fn431973   1.868   7.270   2.303 -0.3025 -0.6296  0.6913
 5912ntf    on531974   1.839   7.607   2.460 -0.4286 -0.6479  0.3560
 5912ntf    on531975   2.054   7.499   2.404  0.1938  0.0992 -0.1710
 5912ntf    on531976   1.971   7.377   2.053  0.4685  0.1440  0.5008
 5912ntf    on531977   2.057   7.610   2.081  0.1880 -0.2383  0.1988
 5912ntf    fn431978   1.776   7.676   1.997 -0.2245 -0.2467  0.2098
 5912ntf    fn431979   1.883   7.585   1.839  0.2923  0.3415  0.1290
 5912ntf    fn431980   1.733   7.482   1.945  0.1388  0.3640 -0.4970
 5913ntf    cn131981   6.977   5.554   6.461 -0.1730 -0.4019 -0.2478
 5913ntf    sn231982   6.873   5.482   6.591 -0.3478 -0.0847 -0.2107
 5913ntf    nn331983   6.992   5.411   6.665 -0.3642  0.2662  0.1536
 5913ntf    sn231984   7.023   5.261   6.696 -0.1634  0.2401 -0.1665
 5913ntf    cn131985   7.169   5.233   6.591 -0.2064 -0.0141 -0.1609
 5913ntf    fn431986   7.083   5.617   6.510 -0.4281 -0.2040  0.0531
 5913ntf    fn431987   7.037   5.467   6.381  0.4646 -0.6827  0.5215
 5913ntf    fn431988   6.911   5.641   6.387 -0.0836 -0.0588  0.0666
 5913ntf    on531989   6.829   5.602   6.658  0.3411 -0.0749  0.2281
 5913ntf    on531990   6.774   5.404   6.520 -0.9247  0.5234 -0.0777
 5913ntf    on531991   6.917   5.172   6.655  0.2533 -0.1028 -0.5042
 5913ntf    on531992   7.080   5.241   6.827  0.2546  0.1586 -0.3570
 5913ntf    fn431993   7.270   5.310   6.629 -0.2026 -0.0856 -0.0217
 5913ntf    fn431994   7.212   5.109   6.600  0.3104  0.1929  0.2906
 5913ntf    fn431995   7.147   5.264   6.465 -0.0263  0.6989 -0.0261
 5914ntf    cn131996   7.180   2.449   3.356 -0.4934  0.2086 -0.7587
 5914ntf    sn231997   7.102   2.547   3.488  0.3644  0.2658 -0.2875
 5914ntf    nn331998   6.975   2.602   3.414  0.5216  0.2544 -0.5699
 5914ntf    sn231999   6.938   2.743   3.355  0.1683  0.1917 -0.5021
 5914ntf    cn132000   6.775   2.714   3.280  0.0183  0.3813 -0.2507
 5914ntf    fn432001   7.097   2.365   3.296 -0.1464 -0.9035  0.2661
 5914ntf    fn432002   7.237   2.525   3.264 -0.5635  0.7393 -0.3653
 5914ntf    fn432003   7.276   2.374   3.408 -0.9202  0.1010 -0.1070
 5914ntf    on532004   7.075   2.460   3.600 -0.0424  0.5766 -0.1438
 5914ntf    on532005   7.194   2.654   3.521  0.1008  0.3880  0.0542
 5914ntf    on532006   7.028   2.773   3.246  0.4716  0.6866 -0.1173
 5914ntf    on532007   6.911   2.848   3.450 -0.2263  0.0545 -0.4609
 5914ntf    fn432008   6.674   2.692   3.363  0.2278  0.4916  0.0355
 5914ntf    fn432009   6.731   2.816   3.208 -0.5099  0.4470  0.1585
 5914ntf    fn432010   6.781   2.610   3.198  0.0876 -0.1048  0.3672
 5915ntf    cn132011   4.620   5.726   3.947 -0.4552 -0.0684  0.2360
 5915ntf    sn232012   4.564   5.856   4.061 -0.2892  0.1564  0.0613
 5915ntf    nn332013   4.545   5.972   3.957  0.4701  0.0810 -0.1685
 5915ntf    sn232014   4.420   6.029   3.881  0.2168  0.0307  0.2081
 5915ntf    cn132015   4.382   6.169   3.991 -0.5490 -0.2928  0.3663
 5915ntf    fn432016   4.531   5.688   3.858 -0.3175  0.0489  0.0484
 5915ntf    fn432017   4.732   5.767   3.889 -0.3550  0.2549  0.6505
 5915ntf    fn432018   4.652   5.617   4.015 -0.3283 -0.0155  0.2633
 5915ntf    on532019   4.448   5.797   4.124 -0.1267  0.1505  0.3583
 5915ntf    on532020   4.682   5.885   4.139 -0.3559  0.3576  0.0870
 5915ntf    on532021   4.302   5.946   3.874  0.0193  0.3538 -0.4183
 5915ntf    on532022   4.453   6.101   3.761 -0.1245  0.4127  0.3400
 5915ntf    fn432023   4.370   6.126   4.115  0.1823  0.3062  0.6565
 5915ntf    fn432024   4.477   6.262   3.993 -0.7728 -0.0389 -0.5225
 5915ntf    fn432025   4.270   6.230   3.957 -0.4277 -0.2228  0.0908
 5916ntf    cn132026   3.169   7.437   7.230  0.1301  0.2584 -0.1751
 5916ntf    sn232027   3.070   7.588   7.211 -0.3678  0.0141  0.4311
 5916ntf    nn332028   3.187   7.685   7.174  0.1489 -0.7461  0.0337
 5916ntf    sn232029   3.279   7.773   7.267  0.1766 -0.3033 -0.4053
 5916ntf    cn132030   3.439   7.736   7.189  0.3310 -0.3476 -0.0687
 5916ntf    fn432031   3.097   7.330   7.262 -0.2065  0.4380 -0.3254
 5916ntf    fn432032   3.221   7.396   7.115  0.1881  0.4470 -0.2164
 5916ntf    fn432033   3.270   7.446   7.314 -0.2908 -0.3768  0.4126
 5916ntf    on532034   2.982   7.561   7.099  0.3384  0.6747 -0.3005
 5916ntf    on532035   3.007   7.605   7.340 -0.2258  0.5953  0.4269
 5916ntf    on532036   3.290   7.732   7.405  0.1111  0.6404 -0.1182
 5916ntf    on532037   3.264   7.914   7.241 -0.3429 -0.3464 -0.3484
 5916ntf    fn432038   3.440   7.770   7.061  0.0081 -0.3709 -0.0777
 5916ntf    fn432039   3.538   7.796   7.253  0.2526 -0.3360  0.0418
 5916ntf    fn432040   3.470   7.608   7.201 -0.4334 -0.5369 -0.0478
 5917ntf    cn132041   4.644   2.612   3.183  0.4393 -0.1771  0.2069
 5917ntf    sn232042   4.730   2.717   3.063 -0.1659 -0.2101 -0.2622
 5917ntf    nn332043   4.643   2.846   3.082  0.0864  0.0281 -0.7088
 5917ntf    sn232044   4.537   2.914   2.988 -0.0229  0.1760 -0.4759
 5917ntf    cn132045   4.403   2.943   3.108  0.5119 -0.5126  0.3052
 5917ntf    fn432046   4.667   2.482   3.176 -0.3439 -0.3173  0.1581
 5917ntf    fn432047   4.672   2.655   3.305  0.6720 -0.8479  0.3979
 5917ntf    fn432048   4.512   2.625   3.182  0.4448 -0.1080  0.3157
 5917ntf    on532049   4.859   2.741   3.122 -0.2328  0.1182 -0.2506
 5917ntf    on532050   4.723   2.642   2.940 -0.1469 -0.6311 -0.0088
 5917ntf    on532051   4.477   2.819   2.898 -0.1559  0.0592 -0.2654
 5917ntf    on532052   4.574   3.045   2.940 -0.2077  0.4844  0.1977
 5917ntf    fn432053   4.308   3.017   3.050  0.6071 -0.7533 -0.1643
 5917ntf    fn432054   4.332   2.836   3.138 -0.2561 -0.1432 -0.1344
 5917ntf    fn432055   4.438   3.013   3.214 -0.2563  0.2507  0.0699
 5918ntf    cn132056   7.092   2.224   4.516  0.3069  0.1041  0.1396
 5918ntf    sn232057   6.950   2.188   4.624  0.0680  0.1232 -0.1701
 5918ntf    nn332058   6.943   2.322   4.705  0.4301 -0.0028  0.0709
 5918ntf    sn232059   6.850   2.446   4.677 -0.0405 -0.3741 -0.0395
 5918ntf    cn132060   6.753   2.440   4.831 -0.3295 -0.2342 -0.2170
 5918ntf    fn432061   7.107   2.134   4.420  0.3888  0.2821 -0.0142
 5918ntf    fn432062   7.060   2.333   4.449  0.1303  0.0320  0.1084
 5918ntf    fn432063   7.206   2.235   4.583  0.0136  0.0342  0.6622
 5918ntf    on532064   6.841   2.157   4.534 -0.5028  0.3827  0.4265
 5918ntf    on532065   6.993   2.087   4.717 -0.0427  0.0280 -0.2222
 5918ntf    on532066   6.758   2.437   4.567 -0.0061 -0.4567 -0.0619
 5918ntf    on532067   6.921   2.571   4.694 -0.6240 -0.0017 -0.3090
 5918ntf    fn432068   6.835   2.441   4.934 -0.0620  0.5643 -0.4283
 5918ntf    fn432069   6.668   2.541   4.842  0.0289  0.0835 -0.3394
 5918ntf    fn432070   6.681   2.329   4.836 -0.3540 -0.2241 -0.3298
 5919ntf    cn132071   0.740   7.023   6.030 -0.1729  0.3499 -0.0627
 5919ntf    sn232072   0.574   7.041   6.100 -0.0566 -0.1813  0.3595
 5919ntf    nn332073   0.607   7.052   6.253  0.5011 -0.0367  0.2283
 5919ntf    sn232074   0.641   7.181   6.336  0.0835  0.1737  0.0745
 5919ntf    cn132075   0.757   7.098   6.450 -0.2130 -0.0628  0.2063
 5919ntf    fn432076   0.819   7.129   6.045  0.1627  0.1614 -0.4630
 5919ntf    fn432077   0.809   6.923   6.083  0.2619  0.8648  0.3526
 5919ntf    fn432078   0.731   7.008   5.899  0.5398  0.5661 -0.1431
 5919ntf    on532079   0.530   7.162   6.035 -0.2627 -0.6563 -0.3935
 5919ntf    on532080   0.509   6.917   6.065 -0.4166 -0.0426  0.5245
 5919ntf    on532081   0.534   7.223   6.423 -0.4013 -0.2612 -0.3077
 5919ntf    on532082   0.717   7.282   6.269  0.9463 -0.6150 -0.1565
 5919ntf    fn432083   0.858   7.026   6.404 -0.1256  0.2208 -0.0515
 5919ntf    fn432084   0.827   7.180   6.526  0.1825  0.0170 -0.2375
 5919ntf    fn432085   0.693   7.014   6.529  0.0080  0.3134  0.7901
 5920ntf    cn132086   0.919   5.745   5.430 -0.1649  0.1454  0.1466
 5920ntf    sn232087   1.035   5.641   5.523  0.0790  0.2159 -0.0776
 5920ntf    nn332088   1.167   5.724   5.509  0.2379  0.0183  0.2328
 5920ntf    sn232089   1.311   5.660   5.515  0.1088 -0.2607  0.3804
 5920ntf    cn132090   1.326   5.615   5.340 -0.4454 -0.0309  0.2690
 5920ntf    fn432091   0.959   5.783   5.311  0.5935  0.3708  0.4719
 5920ntf    fn432092   0.809   5.675   5.404 -0.0853  0.0405  0.0944
 5920ntf    fn432093   0.892   5.854   5.500 -0.2511  0.1514  0.1041
 5920ntf    on532094   0.978   5.654   5.655 -0.0839  0.3973 -0.1663
 5920ntf    on532095   1.031   5.514   5.455  0.6548  0.0209  0.2381
 5920ntf    on532096   1.328   5.533   5.581  0.4788 -0.3881  0.0414
 5920ntf    on532097   1.419   5.754   5.536 -0.2845  0.4202 -0.5787
 5920ntf    fn432098   1.430   5.539   5.309 -0.5568 -0.4181  0.8275
 5920ntf    fn432099   1.227   5.546   5.287 -0.0353  0.1094 -0.7066
 5920ntf    fn432100   1.340   5.725   5.269  0.3054 -0.3955 -0.1578
 5921ntf    cn132101   4.332   4.503   2.851  0.2783 -0.2618  0.1737
 5921ntf    sn232102   4.422   4.503   2.693 -0.1494  0.0923 -0.0702
 5921ntf    nn332103   4.544   4.599   2.714 -0.1712  0.1028  0.0079
 5921ntf    sn232104   4.560   4.751   2.676  0.0798  0.0737 -0.0045
 5921ntf    cn132105   4.621   4.725   2.506  0.2002 -0.1950  0.0784
 5921ntf    fn432106   4.227   4.423   2.851  0.1906 -0.1474  0.6021
 5921ntf    fn432107   4.405   4.471   2.956  0.3414  0.1720  0.2639
 5921ntf    fn432108   4.281   4.623   2.872 -0.1126 -0.4472  0.3013
 5921ntf    on532109   4.453   4.363   2.677 -0.7616 -0.0871  0.2681
 5921ntf    on532110   4.326   4.554   2.597 -0.4311  0.1286  0.2293
 5921ntf    on532111   4.682   4.800   2.733 -0.2242  0.0403  0.6779
 5921ntf    on532112   4.443   4.834   2.660 -0.1204 -0.2491 -0.2377
 5921ntf    fn432113   4.736   4.660   2.499  0.3230 -0.0034  0.2946
 5921ntf    fn432114   4.538   4.659   2.428  0.1573  0.1994 -0.2120
 5921ntf    fn432115   4.634   4.843   2.448  0.0619  0.0192  0.4783
 5922ntf    cn132116   4.671   4.607   3.234 -0.3992 -0.1287  0.1495
 5922ntf    sn232117   4.837   4.609   3.306 -0.1955 -0.3759 -0.3088
 5922ntf    nn332118   4.905   4.733   3.238  0.0507 -0.2744  0.1118
 5922ntf    sn232119   5.022   4.744   3.134 -0.0271 -0.1190  0.0391
 5922ntf    cn132120   5.152   4.824   3.231  0.2883  0.2022 -0.6402
 5922ntf    fn432121   4.596   4.507   3.277 -0.2902 -0.1762  0.2283
 5922ntf    fn432122   4.614   4.726   3.251 -0.3288 -0.0241 -0.3447
 5922ntf    fn432123   4.678   4.596   3.103  0.1274 -0.2242  0.1865
 5922ntf    on532124   4.813   4.631   3.447 -0.3451 -0.2864 -0.3486
 5922ntf    on532125   4.891   4.480   3.271  0.0740 -0.2439 -0.3839
 5922ntf    on532126   4.996   4.842   3.032  0.2964 -0.3142 -0.2343
 5922ntf    on532127   5.088   4.624   3.088 -0.2529 -0.0257 -0.5436
 5922ntf    fn432128   5.248   4.879   3.159  0.5816  0.8909  0.2478
 5922ntf    fn432129   5.099   4.929   3.292  0.4917  0.3600 -0.7343
 5922ntf    fn432130   5.204   4.747   3.326  0.0995  0.4168 -0.3612
 5923ntf    cn132131   1.522   4.486   5.245  0.1072 -0.4046  0.3491
 5923ntf    sn232132   1.540   4.482   5.426 -0.0202 -0.1438  0.3678
 5923ntf    nn332133   1.601   4.627   5.439  0.3782 -0.3653  0.9986
 5923ntf    sn232134   1.551   4.735   5.541 -0.2706 -0.0009  0.3055
 5923ntf    cn132135   1.605   4.656   5.696 -0.0740  0.1359  0.3072
 5923ntf    fn432136   1.441   4.581   5.203  0.2226 -0.5558 -0.2358
 5923ntf    fn432137   1.637   4.500   5.181  0.0449  0.1221  0.3496
 5923ntf    fn432138   1.474   4.372   5.198 -0.4506 -0.3055  0.6747
 5923ntf    on532139   1.405   4.461   5.472 -0.3186  0.2543 -0.3063
 5923ntf    on532140   1.634   4.375   5.445  0.3990 -0.0035 -0.8144
 5923ntf    on532141   1.408   4.749   5.554 -0.2846 -0.4488  0.6511
 5923ntf    on532142   1.632   4.854   5.536 -0.2757 -0.0077  0.0575
 5923ntf    fn432143   1.735   4.662   5.717 -0.0532 -0.0913  0.2366
 5923ntf    fn432144   1.548   4.706   5.805 -0.3352 -0.1723  0.3127
 5923ntf    fn432145   1.575   4.527   5.693  0.3039  0.0562 -0.1879
 5924ntf    cn132146   4.887   3.697   4.656 -0.0527  0.0818  0.4049
 5924ntf    sn232147   5.000   3.556   4.636 -0.1150  0.0877  0.0059
 5924ntf    nn332148   5.073   3.557   4.775  0.3648 -0.1969 -0.2423
 5924ntf    sn232149   5.210   3.633   4.793  0.1257  0.1292  0.2280
 5924ntf    cn132150   5.186   3.688   4.964 -0.2273 -0.0138  0.2267
 5924ntf    fn432151   4.832   3.701   4.776 -0.4551  0.4731  0.2120
 5924ntf    fn432152   4.964   3.804   4.646 -0.2856  0.2051 -0.0923
 5924ntf    fn432153   4.792   3.702   4.565  0.1672 -0.3511  0.1479
 5924ntf    on532154   4.901   3.451   4.632  0.0843 -0.1041  0.1257
 5924ntf    on532155   5.078   3.582   4.518 -0.6997 -0.3354 -0.4806
 5924ntf    on532156   5.226   3.759   4.726 -0.6970 -0.0517 -0.3251
 5924ntf    on532157   5.324   3.544   4.798 -0.1750 -0.3289 -0.6520
 5924ntf    fn432158   5.285   3.765   5.006  0.2829 -0.7068  0.3068
 5924ntf    fn432159   5.078   3.765   4.965 -0.2068  0.0254 -0.3692
 5924ntf    fn432160   5.174   3.581   5.042  0.6854  0.2277  0.7145
 5925ntf    cn132161   6.000   5.748   3.202  0.2120  0.0092  0.6769
 5925ntf    sn232162   6.050   5.759   3.028  0.0391  0.3196  0.6457
 5925ntf    nn332163   6.202   5.796   3.043  0.1800  0.2313 -0.4871
 5925ntf    sn232164   6.323   5.698   3.061  0.0375  0.1243 -0.1055
 5925ntf    cn132165   6.450   5.827   3.071  0.3067 -0.1296 -0.2508
 5925ntf    fn432166   5.873   5.712   3.204 -0.1087  1.0608  0.2069
 5925ntf    fn432167   6.069   5.656   3.267  0.5659 -0.4017 -0.2813
 5925ntf    fn432168   6.010   5.863   3.269  0.2277  0.3121  0.1584
 5925ntf    on532169   6.023   5.630   2.968 -0.2408  0.5901  0.1793
 5925ntf    on532170   5.968   5.871   2.988 -0.0066  0.1472  0.2455
 5925ntf    on532171   6.359   5.627   2.941  0.5375  0.4932 -0.1742
 5925ntf    on532172   6.323   5.634   3.190 -0.4071 -0.1653 -0.2473
 5925ntf    fn432173   6.437   5.893   2.957 -0.0902 -0.1745 -0.2293
 5925ntf    fn432174   6.434   5.916   3.167  0.2777 -0.3549 -0.0459
 5925ntf    fn432175   6.577   5.788   3.071  0.3735  0.0862  0.3242
 5926ntf    cn132176   0.824   1.932   6.987 -0.5830  0.0236 -0.3605
 5926ntf    sn232177   0.899   1.871   6.833 -0.0907 -0.1278 -0.0628
 5926ntf    nn332178   0.950   1.734   6.890  0.1790  0.1592  0.3856
 5926ntf    sn232179   1.066   1.642   6.839 -0.2161 -0.2570  0.2371
 5926ntf    cn132180   0.981   1.490   6.784  0.0453 -0.2847 -0.0942
 5926ntf    fn432181   0.756   2.044   6.976 -0.1428  0.3112 -0.1756
 5926ntf    fn432182   0.729   1.849   7.028 -0.0501 -0.3540  0.1133
 5926ntf    fn432183   0.913   1.946   7.083 -0.9317  0.3356 -0.0807
 5926ntf    on532184   0.786   1.855   6.744 -0.1703  0.1827 -0.0175
 5926ntf    on532185   1.000   1.968   6.798 -0.0705  0.1539  0.7557
 5926ntf    on532186   1.151   1.604   6.949  0.0940  0.3841  0.2199
 5926ntf    on532187   1.127   1.685   6.715  0.5889  0.3858  0.8498
 5926ntf    fn432188   0.870   1.477   6.854  0.0775 -0.3212 -0.0505
 5926ntf    fn432189   0.944   1.494   6.657 -0.7760 -0.0959  0.1497
 5926ntf    fn432190   1.061   1.385   6.790  0.0610 -0.2371  0.5348
 5927ntf    cn132191   1.185   4.623   0.253 -0.0840 -0.1874  0.2303
 5927ntf    sn232192   1.232   4.645   0.427 -0.1942 -0.1409  0.2538
 5927ntf    nn332193   1.136   4.540   0.493 -0.2264 -0.2020  0.1090
 5927ntf    sn232194   1.074   4.541   0.638 -0.0007 -0.6111  0.2097
 5927ntf    cn132195   1.202   4.446   0.726  0.2982 -0.2828  0.1312
 5927ntf    fn432196   1.255   4.708   0.180  0.0933 -0.2901  0.2801
 5927ntf    fn432197   1.214   4.498   0.222 -0.2316 -0.1919  0.1126
 5927ntf    fn432198   1.058   4.640   0.221 -0.0639 -0.4957 -0.0180
 5927ntf    on532199   1.373   4.618   0.431 -0.1054  0.3088  0.2278
 5927ntf    on532200   1.195   4.783   0.450  0.4760 -0.0223  0.6551
 5927ntf    on532201   0.954   4.462   0.637 -0.2925 -0.1703  0.4150
 5927ntf    on532202   1.075   4.670   0.700 -0.4533 -0.0580 -0.9005
 5927ntf    fn432203   1.324   4.489   0.701  0.1236  0.1857  0.0660
 5927ntf    fn432204   1.183   4.444   0.857 -0.6669 -0.3509 -0.0029
 5927ntf    fn432205   1.193   4.321   0.684 -0.0790 -0.1234 -0.2703
 5928ntf    cn132206   6.618   1.207   4.449 -0.1687  0.1523 -0.1699
 5928ntf    sn232207   6.493   1.213   4.581  0.0349 -0.2287  0.0419
 5928ntf    nn332208   6.585   1.220   4.708  0.2443  0.0322 -0.1213
 5928ntf    sn232209   6.633   1.329   4.810  0.0661 -0.1613  0.1720
 5928ntf    cn132210   6.799   1.368   4.747  0.0423 -0.3018  0.0254
 5928ntf    fn432211   6.692   1.098   4.456 -0.0696  0.2420  0.2725
 5928ntf    fn432212   6.551   1.216   4.336 -0.5588  0.0733  0.0529
 5928ntf    fn432213   6.702   1.310   4.448  0.5580 -0.4178  0.4846
 5928ntf    on532214   6.414   1.330   4.551  0.1545 -0.2852 -0.5027
 5928ntf    on532215   6.430   1.084   4.574  0.2490 -0.3077 -0.4351
 5928ntf    on532216   6.657   1.270   4.940 -0.4115 -0.1285  0.2763
 5928ntf    on532217   6.570   1.459   4.816  0.0479 -0.1604 -0.0555
 5928ntf    fn432218   6.797   1.406   4.620  0.0065  0.1814  0.1703
 5928ntf    fn432219   6.844   1.473   4.813  0.1663 -0.0679 -0.4246
 5928ntf    fn432220   6.883   1.267   4.761  0.2992 -0.0835  0.0686
 5929ntf    cn132221   6.033   0.043   0.163 -0.0599 -0.0002  0.2076
 5929ntf    sn232222   5.962  -0.123   0.188 -0.0847  0.0182  0.2605
 5929ntf    nn332223   5.809  -0.099   0.161 -0.1173  0.1281  0.5339
 5929ntf    sn232224   5.691  -0.180   0.225 -0.1110 -0.4073 -0.1138
 5929ntf    cn132225   5.661  -0.073   0.369 -0.2792  0.0979 -0.5197
 5929ntf    fn432226   6.008   0.091   0.043  0.2090  0.3010  0.2718
 5929ntf    fn432227   5.976   0.129   0.246 -0.1858  0.1576 -0.0426
 5929ntf    fn432228   6.165   0.047   0.175 -0.0105 -0.0250 -0.3075
 5929ntf    on532229   6.020  -0.211   0.090 -0.5091 -0.2529  0.2495
 5929ntf    on532230   5.995  -0.148   0.327  0.1339 -0.5262  0.1139
 5929ntf    on532231   5.722  -0.314   0.268 -0.3902 -0.3679  0.2202
 5929ntf    on532232   5.572  -0.171   0.143  0.0937 -0.7739 -0.4536
 5929ntf    fn432233   5.616   0.047   0.335  0.0612  0.2951 -0.2807
 5929ntf    fn432234   5.569  -0.114   0.455  0.2571  0.5969  0.3035
 5929ntf    fn432235   5.766  -0.043   0.443 -0.9184 -0.1100  0.4970
 5930ntf    cn132236   5.733   1.208   4.902 -0.1473  0.1214 -0.0356
 5930ntf    sn232237   5.575   1.123   4.931 -0.1398  0.0791 -0.1205
 5930ntf    nn332238   5.554   1.117   5.086 -0.1431  0.0419 -0.1219
 5930ntf    sn232239   5.466   1.209   5.178  0.2002  0.2639 -0.0127
 5930ntf    cn132240   5.318   1.107   5.201  0.2695  0.1153 -0.2252
 5930ntf    fn432241   5.759   1.219   4.772  0.4371 -0.0455  0.0635
 5930ntf    fn432242   5.738   1.331   4.952 -0.0588 -0.1462  0.6224
 5930ntf    fn432243   5.836   1.145   4.956 -0.0388  0.2110 -0.1364
 5930ntf    on532244   5.468   1.194   4.865 -0.4845 -0.2281  0.1032
 5930ntf    on532245   5.597   0.989   4.881  0.0690  0.0524  0.0418
 5930ntf    on532246   5.402   1.325   5.122  0.2277  0.1156 -0.3528
 5930ntf    on532247   5.510   1.225   5.315  0.4307 -0.3225 -0.0141
 5930ntf    fn432248   5.336   0.991   5.262 -0.0812  0.1713 -0.0089
 5930ntf    fn432249   5.218   1.163   5.268  0.1063  0.0473 -0.4064
 5930ntf    fn432250   5.263   1.062   5.089  0.1101  0.3059 -0.2243
 5931ntf    cn132251   1.003   5.339   1.902  0.4096 -0.1006 -0.0184
 5931ntf    sn232252   1.064   5.510   1.896 -0.2487  0.1318 -0.1667
 5931ntf    nn332253   0.935   5.577   1.838 -0.2428  0.7400  0.5009
 5931ntf    sn232254   0.913   5.634   1.693 -0.3793 -0.2757  0.1147
 5931ntf    cn132255   1.008   5.789   1.693 -0.1848 -0.3906 -0.5124
 5931ntf    fn432256   0.907   5.306   1.818 -0.3156  0.1664  0.6907
 5931ntf    fn432257   1.102   5.251   1.897  0.2671 -0.2567 -0.1060
 5931ntf    fn432258   0.949   5.322   2.022  0.5318 -0.3362  0.0036
 5931ntf    on532259   1.090   5.552   2.032 -0.3181  0.2185 -0.1800
 5931ntf    on532260   1.176   5.514   1.806 -0.0912 -0.2247  0.0101
 5931ntf    on532261   0.779   5.673   1.660 -0.2598 -0.1360 -0.2132
 5931ntf    on532262   0.972   5.556   1.587  0.5767  0.3053  0.2013
 5931ntf    fn432263   0.967   5.858   1.798  0.1504 -0.4409 -0.3456
 5931ntf    fn432264   1.140   5.780   1.700 -0.1537  0.2539 -0.2146
 5931ntf    fn432265   0.973   5.857   1.586  0.0797  0.0051 -0.3481
 5932ntf    cn132266   0.075   4.244   5.460 -0.1123 -0.0196  0.1105
 5932ntf    sn232267  -0.021   4.229   5.307  0.2940  0.0118 -0.1495
 5932ntf    nn332268  -0.089   4.370   5.311 -0.3352 -0.2978  0.2061
 5932ntf    sn232269  -0.223   4.406   5.236 -0.1184 -0.0916 -0.0865
 5932ntf    cn132270  -0.344   4.382   5.370 -0.0410  0.5875  0.1055
 5932ntf    fn432271   0.154   4.350   5.471 -0.5539  0.2879  0.3492
 5932ntf    fn432272  -0.006   4.251   5.565 -0.4640  0.1058 -0.1694
 5932ntf    fn432273   0.158   4.142   5.472  0.4399  0.3957 -0.1190
 5932ntf    on532274   0.069   4.209   5.196  0.1920  0.2711 -0.2802
 5932ntf    on532275  -0.105   4.118   5.345  0.5550 -0.1161  0.0579
 5932ntf    on532276  -0.262   4.319   5.128  0.3523  0.0397 -0.3650
 5932ntf    on532277  -0.220   4.545   5.201 -0.5051 -0.1879 -0.5145
 5932ntf    fn432278  -0.355   4.255   5.405  0.2010  0.4141 -0.4324
 5932ntf    fn432279  -0.307   4.449   5.478  0.4953 -0.2385  0.4463
 5932ntf    fn432280  -0.466   4.423   5.341 -0.2597 -0.3294 -0.3114
 5933ntf    cn132281   3.868   2.161   1.094 -0.0915  0.2341 -0.3116
 5933ntf    sn232282   3.938   1.999   1.142 -0.4015  0.1221 -0.2354
 5933ntf    nn332283   4.089   2.018   1.106 -0.2850 -0.1144  0.1316
 5933ntf    sn232284   4.216   1.935   1.146 -0.1535  0.0960  0.1530
 5933ntf    cn132285   4.241   1.850   0.987 -0.1981  0.3296  0.0194
 5933ntf    fn432286   3.939   2.265   1.134 -0.3378  0.0819  0.5552
 5933ntf    fn432287   3.835   2.174   0.967 -0.2619 -0.0921 -0.3048
 5933ntf    fn432288   3.753   2.161   1.160  0.0551  0.1217 -0.0541
 5933ntf    on532289   3.897   1.996   1.280  0.0523 -0.0133 -0.1051
 5933ntf    on532290   3.880   1.910   1.044 -0.3571 -0.0662 -0.0908
 5933ntf    on532291   4.196   1.829   1.242 -0.3186 -0.1746 -0.1794
 5933ntf    on532292   4.333   2.018   1.162 -0.2678  0.2923 -0.0297
 5933ntf    fn432293   4.263   1.928   0.883 -0.4178  0.3804  0.0114
 5933ntf    fn432294   4.349   1.774   1.000 -0.0811  0.5084  0.0879
 5933ntf    fn432295   4.144   1.767   0.953  0.0958  0.0717 -0.1917
 5934ntf    cn132296   1.239   7.025   3.285  0.0742 -0.3014 -0.0727
 5934ntf    sn232297   1.409   6.991   3.342  0.1486  0.0561 -0.0822
 5934ntf    nn332298   1.427   6.838   3.312  0.5836  0.0420  0.2548
 5934ntf    sn232299   1.425   6.722   3.418 -0.1183 -0.0574  0.1319
 5934ntf    cn132300   1.374   6.612   3.282 -0.2380  0.0374  0.1001
 5934ntf    fn432301   1.225   7.015   3.154  0.1623 -0.4452 -0.0716
 5934ntf    fn432302   1.147   6.947   3.339  0.1377 -0.7200 -0.5558
 5934ntf    fn432303   1.213   7.151   3.313  0.1704 -0.2653 -0.1456
 5934ntf    on532304   1.499   7.071   3.263 -0.0786  0.5125  0.1181
 5934ntf    on532305   1.404   7.023   3.482 -0.5950 -0.2393 -0.0353
 5934ntf    on532306   1.315   6.715   3.511  0.2730 -0.3079  0.5746
 5934ntf    on532307   1.559   6.686   3.455 -0.2896 -0.3596  0.4673
 5934ntf    fn432308   1.361   6.486   3.319 -0.1893  0.0480  0.1542
 5934ntf    fn432309   1.257   6.651   3.233  0.0606  0.5942 -0.1809
 5934ntf    fn432310   1.451   6.623   3.175 -0.4513 -0.3408 -0.0937
 5935ntf    cn132311   3.357   2.912   1.722 -0.1935 -0.0331 -0.2029
 5935ntf    sn232312   3.261   2.868   1.574 -0.1838 -0.1843 -0.1644
 5935ntf    nn332313   3.315   2.722   1.550 -0.3020 -0.2519 -0.0173
 5935ntf    sn232314   3.341   2.653   1.412  0.2976 -0.0014 -0.0335
 5935ntf    cn132315   3.175   2.581   1.391  0.1088  0.3306  0.3102
 5935ntf    fn432316   3.364   2.819   1.816  0.1797  0.1709 -0.0297
 5935ntf    fn432317   3.482   2.946   1.697 -0.0422 -0.4274  0.0187
 5935ntf    fn432318   3.308   3.016   1.787  0.2800 -0.1407  0.3354
 5935ntf    on532319   3.130   2.870   1.633 -0.0711 -0.0553  0.0843
 5935ntf    on532320   3.299   2.974   1.484  0.0187  0.2196  0.3953
 5935ntf    on532321   3.440   2.551   1.434  0.2105 -0.0947 -0.0760
 5935ntf    on532322   3.363   2.741   1.299 -0.3158  0.0841 -0.0897
 5935ntf    fn432323   3.085   2.629   1.475 -0.2491 -0.1189  0.1873
 5935ntf    fn432324   3.130   2.599   1.268  0.1520 -0.0950  0.2333
 5935ntf    fn432325   3.177   2.450   1.410  0.2230  0.3252  0.2619
 5936ntf    cn132326   5.023   5.416   6.916  0.1618  0.1880  0.1540
 5936ntf    sn232327   4.890   5.301   6.964  0.2759 -0.0175 -0.0234
 5936ntf    nn332328   4.952   5.209   7.076  0.2775  0.2061  0.1585
 5936ntf    sn232329   5.028   5.076   7.044 -0.1572 -0.0753  0.2969
 5936ntf    cn132330   4.899   4.948   7.057  0.2389 -0.4691  0.3907
 5936ntf    fn432331   5.037   5.521   6.996 -0.2631  0.6945 -0.4307
 5936ntf    fn432332   5.138   5.351   6.911 -0.0304 -0.1401 -0.1049
 5936ntf    fn432333   5.005   5.473   6.798  0.0210 -0.5467 -0.1837
 5936ntf    on532334   4.787   5.379   7.027 -0.3353 -0.7045 -0.1573
 5936ntf    on532335   4.849   5.239   6.840 -0.4037  0.1225  0.1297
 5936ntf    on532336   5.122   5.050   7.150 -0.1051  0.4785  0.3841
 5936ntf    on532337   5.078   5.054   6.911 -0.5569  0.3758  0.0706
 5936ntf    fn432338   4.822   4.945   6.950 -0.3223 -0.0808  0.7798
 5936ntf    fn432339   4.949   4.825   7.056  0.1573 -0.4985 -0.2415
 5936ntf    fn432340   4.817   4.962   7.160  0.5563  0.8026  0.4809
 5937ntf    cn132341   3.898   0.896   1.905  0.2208 -0.4272 -0.0968
 5937ntf    sn232342   4.009   0.828   1.778  0.2973 -0.2769 -0.1111
 5937ntf    nn332343   3.893   0.776   1.687  0.1445  0.0620 -0.1135
 5937ntf    sn232344   3.857   0.626   1.655  0.1001  0.0846 -0.1692
 5937ntf    cn132345   3.959   0.597   1.508  0.5532  0.0598  0.1508
 5937ntf    fn432346   3.965   0.951   2.004 -0.2247  0.4751 -0.2829
 5937ntf    fn432347   3.815   0.995   1.874  0.1871 -0.6273 -0.6515
 5937ntf    fn432348   3.816   0.807   1.957 -0.0922 -0.4703 -0.6547
 5937ntf    on532349   4.073   0.950   1.737  0.1437 -0.1612 -0.0080
 5937ntf    on532350   4.093   0.733   1.847  0.2763 -0.0321  0.2600
 5937ntf    on532351   3.721   0.628   1.605 -0.0560 -0.2551  0.2337
 5937ntf    on532352   3.886   0.527   1.756 -0.5235  0.3399  0.2680
 5937ntf    fn432353   4.089   0.606   1.534  0.6051  0.1702 -0.1402
 5937ntf    fn432354   3.941   0.475   1.459 -0.3664  0.1139  0.3463
 5937ntf    fn432355   3.919   0.686   1.419  0.6198  0.0112  0.0711
 5938ntf    cn132356   4.303   6.434   1.540 -0.2258 -0.1077 -0.0279
 5938ntf    sn232357   4.228   6.321   1.661 -0.2819  0.0653  0.1002
 5938ntf    nn332358   4.169   6.224   1.552 -0.2272 -0.7547  0.7876
 5938ntf    sn232359   4.023   6.203   1.498 -0.0147  0.2167 -0.2002
 5938ntf    cn132360   4.035   6.240   1.320  0.1142 -0.0097 -0.2381
 5938ntf    fn432361   4.396   6.519   1.583 -0.2861 -0.0693  0.0259
 5938ntf    fn432362   4.358   6.365   1.441 -0.0266 -0.4522  0.3193
 5938ntf    fn432363   4.220   6.517   1.480 -0.2540  0.0503  0.2257
 5938ntf    on532364   4.344   6.273   1.731 -0.2115 -0.6141 -0.4673
 5938ntf    on532365   4.139   6.408   1.733 -0.0367  0.1014  0.3587
 5938ntf    on532366   3.929   6.300   1.548 -0.5423 -0.0826 -0.6097
 5938ntf    on532367   3.985   6.065   1.493 -0.7239  0.3574  0.9884
 5938ntf    fn432368   4.143   6.181   1.272  0.1385 -0.6332  0.5474
 5938ntf    fn432369   3.939   6.197   1.240 -0.2909  0.3163  0.0704
 5938ntf    fn432370   4.052   6.370   1.305  0.1666  0.0440  0.2711
 5939ntf    cn132371   1.653   6.857   5.033  0.2454  0.1026 -0.1789
 5939ntf    sn232372   1.746   6.906   5.181  0.1630 -0.1312 -0.0487
 5939ntf    nn332373   1.721   7.061   5.181 -0.3513 -0.2154 -0.1032
 5939ntf    sn232374   1.589   7.134   5.228 -0.1372  0.1917 -0.1322
 5939ntf    cn132375   1.648   7.306   5.240 -0.1033  0.1736 -0.0300
 5939ntf    fn432376   1.678   6.946   4.938 -0.0863 -0.0124 -0.3770
 5939ntf    fn432377   1.695   6.743   4.982 -0.2358 -0.0259 -0.2903
 5939ntf    fn432378   1.522   6.847   5.051  0.3069  0.4907  0.4937
 5939ntf    on532379   1.680   6.838   5.289 -0.3845  0.3229 -0.0919
 5939ntf    on532380   1.889   6.887   5.164  0.2269  0.2778  0.0248
 5939ntf    on532381   1.536   7.109   5.360  0.0817  0.4751  0.0114
 5939ntf    on532382   1.497   7.138   5.117 -0.0726 -0.3274 -0.2081
 5939ntf    fn432383   1.685   7.357   5.124 -0.2818  0.0718 -0.1335
 5939ntf    fn432384   1.562   7.388   5.297  0.1005 -0.1451  0.7474
 5939ntf    fn432385   1.745   7.303   5.329 -0.3087 -0.1244  0.1894
 5940ntf    cn132386   4.724   2.587   6.073  0.2088 -0.4431 -0.0204
 5940ntf    sn232387   4.587   2.697   6.025  0.2301 -0.3461  0.1459
 5940ntf    nn332388   4.644   2.833   6.080 -0.0849 -0.0872 -0.1658
 5940ntf    sn232389   4.731   2.938   6.002  0.1005  0.0611  0.2364
 5940ntf    cn132390   4.600   3.008   5.896  0.1812  0.2844  0.2830
 5940ntf    fn432391   4.752   2.597   6.201  0.1711  0.2738 -0.0655
 5940ntf    fn432392   4.692   2.459   6.058 -0.0116 -0.3943  0.0330
 5940ntf    fn432393   4.833   2.611   6.002 -0.0075 -0.0260 -0.2128
 5940ntf    on532394   4.571   2.690   5.882  0.8873 -0.3646  0.0666
 5940ntf    on532395   4.469   2.662   6.101 -0.2147 -0.2673 -0.5046
 5940ntf    on532396   4.835   2.888   5.916  0.3980  0.3934  0.4025
 5940ntf    on532397   4.765   3.051   6.084  0.0999  0.0282  0.2815
 5940ntf    fn432398   4.640   3.124   5.846 -0.4762  0.4269  0.0735
 5940ntf    fn432399   4.565   2.941   5.788  0.0599  0.0769  0.4501
 5940ntf    fn432400   4.487   3.030   5.962  0.1330  0.0654  0.2749
   7.50360   7.50360   7.50360
