Converted from moscito
 1728
    1SOL     ow    1   2.166   1.328   1.929  0.9010  0.4077  0.5909
    1SOL     hw    2   2.087   1.373   1.959 -2.3764 -2.2493 -2.9929
    1SOL     hw    3   2.188   1.372   1.847 -1.0885 -2.6729 -1.8538
    1SOL     vw    4   2.158   1.340   1.922  0.2062 -0.3493 -0.2044
    2SOL     ow    5   1.720   1.821   4.737  0.1237 -0.3959  0.6491
    2SOL     hw    6   1.639   1.857   4.702 -0.3622 -0.4238  1.7001
    2SOL     hw    7   1.726   1.857   4.825  3.3875  3.0394 -0.6854
    2SOL     vw    8   1.710   1.831   4.744  0.4902  0.0536  0.6118
    3SOL     ow    9   0.990   0.377   4.465  0.4516 -0.5328 -0.1140
    3SOL     hw   10   0.953   0.444   4.522 -0.7794 -1.2473 -0.0354
    3SOL     hw   11   0.985   0.415   4.377  1.1254  0.0439  0.0875
    3SOL     vw   12   0.984   0.390   4.461  0.3781 -0.5510 -0.0770
    4SOL     ow   13   0.618   0.435   0.484  0.2731 -0.0717  0.4698
    4SOL     hw   14   0.691   0.496   0.476 -0.7642  1.5851  2.4697
    4SOL     hw   15   0.548   0.474   0.432 -0.6560  0.9915  2.3978
    4SOL     vw   16   0.618   0.448   0.476  0.0136  0.2872  0.9880
    5SOL     ow   17   1.020   1.051   2.383 -0.2125 -0.0314 -0.1690
    5SOL     hw   18   0.941   1.101   2.363 -1.0893 -1.2446  0.1517
    5SOL     hw   19   1.057   1.030   2.298 -0.4427  0.2022 -0.3299
    5SOL     vw   20   1.014   1.055   2.369 -0.3586 -0.1607 -0.1479
    6SOL     ow   21   1.197   1.055   3.461  0.0341 -0.6169 -0.3687
    6SOL     hw   22   1.265   1.090   3.403  0.7730  2.0869  1.8725
    6SOL     hw   23   1.245   0.999   3.522 -0.3369 -1.4482 -0.8272
    6SOL     vw   24   1.212   1.052   3.462  0.0826 -0.3698 -0.1333
    7SOL     ow   25   2.133   0.470   5.325  0.0433 -0.3155 -0.2440
    7SOL     hw   26   2.137   0.472   5.229  0.0863 -2.7613 -0.3390
    7SOL     hw   27   2.165   0.384   5.349  0.1913  0.3104  2.0160
    7SOL     vw   28   2.138   0.459   5.315  0.0684 -0.5556  0.0417
    8SOL     ow   29   1.774   0.306   5.092 -0.0054 -0.0980 -0.0599
    8SOL     hw   30   1.783   0.400   5.077 -1.5068 -0.2194 -2.0369
    8SOL     hw   31   1.818   0.266   5.017 -3.1095 -0.8460 -1.6430
    8SOL     vw   32   1.781   0.313   5.080 -0.6130 -0.2127 -0.5298
    9SOL     ow   33   1.542   0.428   6.325 -0.7786  0.0424  0.3517
    9SOL     hw   34   1.545   0.503   6.384  0.4455  1.4507 -1.4349
    9SOL     hw   35   1.466   0.377   6.355 -0.2466  0.7055  3.0740
    9SOL     vw   36   1.533   0.431   6.337 -0.5469  0.3157  0.4754
   10SOL     ow   37   0.517   0.003   4.845  0.1739 -0.3652 -0.0363
   10SOL     hw   38   0.513   0.057   4.766 -1.3329 -0.1544  0.1524
   10SOL     hw   39   0.563  -0.076   4.817 -0.1069 -0.1792 -1.0644
   10SOL     vw   40   0.523  -0.001   4.830 -0.0620 -0.3128 -0.1471
   11SOL     ow   41   0.548   1.934   1.086 -0.1905 -0.5621 -0.4978
   11SOL     hw   42   0.518   1.919   0.997  0.7174 -0.4526 -0.8299
   11SOL     hw   43   0.479   1.897   1.141 -0.6985 -0.7388 -1.2437
   11SOL     vw   44   0.535   1.927   1.082 -0.1377 -0.5710 -0.6400
   12SOL     ow   45   0.495   1.251   1.754  1.3583 -0.8381 -0.1212
   12SOL     hw   46   0.481   1.234   1.661 -2.0175 -0.9346  0.2678
   12SOL     hw   47   0.529   1.169   1.789 -0.1446 -1.8252 -0.8457
   12SOL     vw   48   0.498   1.238   1.746  0.7146 -0.9810 -0.1655
   13SOL     ow   49   0.581   1.979   3.331  0.0658  0.4370  0.1810
   13SOL     hw   50   0.556   1.887   3.342 -0.7549 -0.1181 -4.2816
   13SOL     hw   51   0.668   1.985   3.369  0.0436 -2.1470  0.8302
   13SOL     vw   52   0.589   1.967   3.337 -0.0454  0.0228 -0.3220
   14SOL     ow   53   1.545   2.141   3.590  0.2016 -0.2251 -1.0905
   14SOL     hw   54   1.636   2.167   3.577  0.0969  2.2684  1.9983
   14SOL     hw   55   1.494   2.210   3.547 -0.2584 -1.1639 -2.0873
   14SOL     vw   56   1.551   2.153   3.583  0.1271 -0.0200 -0.8144
   15SOL     ow   57   0.960   0.440   5.389  0.2980  0.5813 -0.0585
   15SOL     hw   58   0.883   0.490   5.361 -0.2625 -0.6896 -0.8675
   15SOL     hw   59   1.022   0.450   5.317 -0.6668 -1.6578 -1.2898
   15SOL     vw   60   0.958   0.448   5.376  0.0968  0.1182 -0.3278
   16SOL     ow   61   2.172   0.443   6.168 -0.5113  0.9665 -0.3558
   16SOL     hw   62   2.219   0.365   6.140  2.0180  1.9810  0.7811
   16SOL     hw   63   2.194   0.509   6.102 -2.8036  0.7580 -1.4304
   16SOL     vw   64   2.181   0.442   6.156 -0.4801  1.0728 -0.3476
   17SOL     ow   65   0.099   1.762   0.501 -0.0194  0.1087  0.2137
   17SOL     hw   66   0.092   1.675   0.539 -1.5009  0.1245  0.0511
   17SOL     hw   67   0.165   1.754   0.432 -1.4185 -1.3554 -1.0326
   17SOL     vw   68   0.107   1.750   0.497 -0.3995 -0.0824  0.0278
   18SOL     ow   69   0.160   0.900   4.822  0.7113 -0.1088 -0.6948
   18SOL     hw   70   0.255   0.891   4.810  1.0239  0.8793  0.8487
   18SOL     hw   71   0.133   0.817   4.861  1.3025  0.3568  0.7630
   18SOL     vw   72   0.169   0.888   4.825  0.8306  0.0831 -0.2987
   19SOL     ow   73   1.824   0.473   4.587 -0.2470 -0.3289 -0.8165
   19SOL     hw   74   1.891   0.495   4.522  2.0928 -0.2615  1.5090
   19SOL     hw   75   1.870   0.424   4.655 -2.9272 -1.8136  0.0980
   19SOL     vw   76   1.839   0.469   4.587 -0.2919 -0.5159 -0.3891
   20SOL     ow   77   1.553   0.116   5.150 -0.9073 -0.0432  0.3443
   20SOL     hw   78   1.579   0.054   5.082 -1.6060  0.4206 -0.3684
   20SOL     hw   79   1.507   0.062   5.215  2.6788 -1.1122  2.2680
   20SOL     vw   80   1.550   0.100   5.149 -0.5263 -0.1230  0.5040
   21SOL     ow   81   0.560   0.392   2.359 -0.5510  0.3013  0.8888
   21SOL     hw   82   0.618   0.319   2.336 -1.0723 -0.4374  1.8630
   21SOL     hw   83   0.472   0.355   2.356 -1.0805  1.5511 -1.1264
   21SOL     vw   84   0.556   0.378   2.356 -0.6897  0.3687  0.7514
   22SOL     ow   85   1.727   0.606   6.124  0.4408  0.3464 -0.3425
   22SOL     hw   86   1.726   0.695   6.159  1.1979 -0.4895  1.9608
   22SOL     hw   87   1.796   0.607   6.058  0.7684  1.3568  0.0047
   22SOL     vw   88   1.736   0.618   6.120  0.5839  0.3694  0.0074
   23SOL     ow   89   0.178   0.883   3.001 -0.2663 -0.2993  0.1761
   23SOL     hw   90   0.156   0.876   2.908  0.7786 -1.4234 -0.0099
   23SOL     hw   91   0.120   0.820   3.044 -4.1680  3.3860  1.0212
   23SOL     vw   92   0.167   0.874   2.994 -0.6432  0.0386  0.2630
   24SOL     ow   93   1.234   2.120   3.636  0.3147 -0.2459 -0.8104
   24SOL     hw   94   1.177   2.168   3.575 -0.6106  1.6124  1.3714
   24SOL     hw   95   1.203   2.146   3.723  1.4423 -2.9248  0.5164
   24SOL     vw   96   1.222   2.130   3.639  0.3414 -0.3542 -0.3476
   25SOL     ow   97   0.137   1.215   4.809 -0.4611  0.2491  1.4402
   25SOL     hw   98   0.119   1.300   4.770 -0.4433  0.2865  1.5136
   25SOL     hw   99   0.174   1.235   4.896  0.5489  0.1864  1.0367
   25SOL     vw  100   0.140   1.229   4.816 -0.3255  0.2457  1.3969
   26SOL     ow  101   1.698   0.839   0.915 -0.3641 -1.4045  0.5663
   26SOL     hw  102   1.628   0.779   0.889 -1.4841 -0.4744  1.3239
   26SOL     hw  103   1.669   0.874   0.999  2.1377 -2.7380  2.0968
   26SOL     vw  104   1.685   0.836   0.923 -0.1817 -1.4577  0.8682
   27SOL     ow  105   1.805   1.611   4.480  0.4722 -0.2975  0.0721
   27SOL     hw  106   1.797   1.530   4.429  1.9926  0.4915 -1.5101
   27SOL     hw  107   1.826   1.678   4.416 -0.9677  1.4323  1.3328
   27SOL     vw  108   1.807   1.609   4.465  0.4828  0.0349  0.0293
   28SOL     ow  109   1.352   1.380   5.109  0.1028 -0.2737 -0.2742
   28SOL     hw  110   1.315   1.318   5.046  0.9533 -0.0396 -1.0270
   28SOL     hw  111   1.286   1.449   5.115 -0.5971 -0.9716  0.1425
   28SOL     vw  112   1.338   1.381   5.101  0.1226 -0.3349 -0.3185
   29SOL     ow  113   1.162   0.255   2.070 -0.1017 -0.1225 -0.4612
   29SOL     hw  114   1.128   0.306   1.996  0.3208 -0.5832 -0.9851
   29SOL     hw  115   1.085   0.232   2.121 -0.3039  1.0490 -0.2070
   29SOL     vw  116   1.148   0.259   2.067 -0.0726 -0.0287 -0.4967
   30SOL     ow  117   2.236   2.086   0.473  0.4134  0.1597 -0.1399
   30SOL     hw  118   2.249   2.172   0.514 -0.5222  0.1089  0.2834
   30SOL     hw  119   2.225   2.106   0.380 -3.5740  0.9907  0.3209
   30SOL     vw  120   2.236   2.100   0.466 -0.2361  0.2626 -0.0232
   31SOL     ow  121   2.216   0.892   0.931 -0.2741  0.1468  0.1755
   31SOL     hw  122   2.245   0.954   0.864  0.6451  0.3668  0.7643
   31SOL     hw  123   2.200   0.811   0.884  0.4850  0.2638 -0.2928
   31SOL     vw  124   2.218   0.890   0.916 -0.0527  0.1913  0.1914
   32SOL     ow  125   1.732   1.336   3.799  0.0705 -0.5061 -0.4132
   32SOL     hw  126   1.769   1.422   3.782  0.8622 -0.5286  1.0391
   32SOL     hw  127   1.782   1.276   3.744 -0.8931 -0.0061 -1.9044
   32SOL     vw  128   1.743   1.340   3.790  0.0477 -0.4431 -0.4183
   33SOL     ow  129   1.505   0.565   2.984 -0.5204  0.3065 -0.2911
   33SOL     hw  130   1.496   0.610   3.068 -0.5831 -0.1257 -0.0666
   33SOL     hw  131   1.446   0.613   2.926 -1.0216  0.1636  0.0924
   33SOL     vw  132   1.496   0.577   2.987 -0.5949  0.2307 -0.2109
   34SOL     ow  133   2.204   1.594   4.050 -0.4627 -0.3237 -0.7346
   34SOL     hw  134   2.169   1.665   4.105 -2.3711  1.4328 -3.9154
   34SOL     hw  135   2.172   1.514   4.090 -0.9840  0.7870  1.1788
   34SOL     vw  136   2.195   1.593   4.062 -0.7832  0.0546 -0.9019
   35SOL     ow  137   0.089   0.144   2.798  0.1228 -0.2862 -0.0439
   35SOL     hw  138   0.010   0.090   2.801 -0.9729  1.1838 -0.8619
   35SOL     hw  139   0.143   0.104   2.729 -0.0596 -1.1025  0.2814
   35SOL     vw  140   0.086   0.131   2.789 -0.0458 -0.2000 -0.1088
   36SOL     ow  141   0.201   1.083   3.244  0.2863 -0.5422  0.1783
   36SOL     hw  142   0.161   1.020   3.304 -0.0926 -0.9065 -0.4532
   36SOL     hw  143   0.272   1.122   3.295  1.2995 -2.3122  0.2225
   36SOL     vw  144   0.205   1.080   3.259  0.3700 -0.8239  0.1007
   37SOL     ow  145   1.106   1.315   6.300 -0.7286 -0.3572  0.0836
   37SOL     hw  146   1.131   1.230   6.336  0.9304  0.6596  1.4801
   37SOL     hw  147   1.012   1.308   6.283 -0.3806 -2.9130 -1.1934
   37SOL     vw  148   1.097   1.303   6.302 -0.4638 -0.5602  0.0994
   38SOL     ow  149   1.839   0.488   2.344  0.1894  0.1562 -0.3296
   38SOL     hw  150   1.827   0.398   2.375  1.2998  0.4807  1.1645
   38SOL     hw  151   1.811   0.543   2.417  0.0980  1.0228 -0.9946
   38SOL     vw  152   1.834   0.484   2.358  0.3239  0.3134 -0.2202
   39SOL     ow  153   0.258   1.513   2.583  0.5499  0.6558 -0.4024
   39SOL     hw  154   0.168   1.482   2.594  0.4612  1.6773  3.6165
   39SOL     hw  155   0.297   1.455   2.518 -2.6185 -0.6155 -1.3241
   39SOL     vw  156   0.251   1.501   2.576  0.1202  0.6228  0.0062
   40SOL     ow  157   0.421   1.741   2.770  0.2985 -0.2212 -0.7218
   40SOL     hw  158   0.506   1.704   2.745  0.4729 -1.1634  1.0972
   40SOL     hw  159   0.411   1.718   2.862  0.3727  4.1645  0.6314
   40SOL     vw  160   0.431   1.733   2.779  0.3313  0.2331 -0.3033
   41SOL     ow  161   0.619   0.216   0.726 -0.4776 -0.1229 -0.2015
   41SOL     hw  162   0.566   0.284   0.768 -0.3417 -0.2973  0.2569
   41SOL     hw  163   0.655   0.165   0.798  0.2442 -0.0699 -0.5153
   41SOL     vw  164   0.616   0.218   0.741 -0.3644 -0.1389 -0.1824
   42SOL     ow  165   2.074   1.511   5.387 -0.6173  0.3622 -0.3949
   42SOL     hw  166   2.060   1.565   5.309 -0.5539 -1.8509 -2.0368
   42SOL     hw  167   2.163   1.476   5.376 -0.9801 -0.7625  0.1721
   42SOL     vw  168   2.084   1.514   5.375 -0.6568 -0.0781 -0.5367
   43SOL     ow  169   0.712   1.743   4.654  0.0656 -0.6954  0.5998
   43SOL     hw  170   0.743   1.829   4.681  2.4066 -1.5410  0.8517
   43SOL     hw  171   0.787   1.685   4.670 -0.7102 -2.4005 -1.4920
   43SOL     vw  172   0.726   1.747   4.660  0.2721 -1.0319  0.3569
   44SOL     ow  173   1.835   0.519   3.610 -0.6412  0.1706 -0.1653
   44SOL     hw  174   1.870   0.608   3.609  0.0652  0.0223  3.0842
   44SOL     hw  175   1.892   0.471   3.550 -0.2755  1.6156 -1.0349
   44SOL     vw  176   1.847   0.525   3.602 -0.4998  0.3417  0.1489
   45SOL     ow  177   1.488   0.128   2.016  0.0803  0.1113 -0.2036
   45SOL     hw  178   1.461   0.054   1.961  1.7076 -0.8842  0.2715
   45SOL     hw  179   1.536   0.088   2.088  2.5322  1.7201 -0.8353
   45SOL     vw  180   1.490   0.113   2.019  0.6185  0.1922 -0.2244
   46SOL     ow  181   0.711   1.148   1.009 -0.5341 -0.3395  0.1249
   46SOL     hw  182   0.652   1.142   1.084 -0.5787 -2.3854 -0.0381
   46SOL     hw  183   0.715   1.242   0.989 -2.8656 -0.0494  0.8144
   46SOL     vw  184   0.704   1.160   1.016 -0.8476 -0.5712  0.1944
   47SOL     ow  185   0.535   0.144   5.149 -0.3440  0.4982 -0.3769
   47SOL     hw  186   0.622   0.106   5.163 -1.0196 -1.0390 -0.1431
   47SOL     hw  187   0.492   0.136   5.234 -0.5847  1.6535 -0.3735
   47SOL     vw  188   0.541   0.138   5.162 -0.4649  0.4478 -0.3457
   48SOL     ow  189   0.286   1.629   4.033 -0.4179 -0.3294 -1.0930
   48SOL     hw  190   0.331   1.617   4.116  0.1873  0.8574 -1.2296
   48SOL     hw  191   0.272   1.723   4.026 -2.1398 -0.5797 -1.4805
   48SOL     vw  192   0.290   1.640   4.043 -0.5652 -0.2058 -1.1623
   49SOL     ow  193   2.035   2.274   4.045  0.2343 -0.5324 -0.9189
   49SOL     hw  194   1.996   2.219   3.978 -1.7451 -0.9668  0.5120
   49SOL     hw  195   1.974   2.347   4.055 -1.5589 -2.2962  2.8551
   49SOL     vw  196   2.022   2.276   4.037 -0.2635 -0.8223 -0.2325
   50SOL     ow  197   1.883   1.521   5.665  0.1112  0.4968  0.3421
   50SOL     hw  198   1.912   1.431   5.681 -1.1179 -0.5637 -2.6727
   50SOL     hw  199   1.787   1.516   5.665  0.0194  1.8685  0.3958
   50SOL     vw  200   1.874   1.508   5.667 -0.0631  0.5378 -0.0486
   51SOL     ow  201   1.765   1.373   3.081  0.2572  0.0332 -0.4698
   51SOL     hw  202   1.853   1.398   3.109  0.9472 -2.5356 -0.0627
   51SOL     hw  203   1.715   1.365   3.162 -1.0994  3.5080 -0.7773
   51SOL     vw  204   1.770   1.375   3.095  0.1692  0.1526 -0.4567
   52SOL     ow  205   1.299   2.170   0.204 -0.4198 -0.1598  0.3540
   52SOL     hw  206   1.254   2.231   0.145  0.2389  0.5631  0.5778
   52SOL     hw  207   1.231   2.140   0.264 -1.8066 -3.1199 -2.4034
   52SOL     vw  208   1.284   2.174   0.204 -0.5159 -0.4548  0.0197
   53SOL     ow  209   0.661   1.418   5.455 -0.2978  0.2151  1.2677
   53SOL     hw  210   0.587   1.476   5.438  1.1641  2.7754  2.8055
   53SOL     hw  211   0.730   1.450   5.397  0.6076  0.1866  2.2888
   53SOL     vw  212   0.660   1.430   5.446  0.0145  0.5491  1.6053
   54SOL     ow  213   0.610   1.897   2.112 -0.0867 -0.5540 -0.4660
   54SOL     hw  214   0.515   1.908   2.113 -0.0515 -0.1921  1.3437
   54SOL     hw  215   0.624   1.802   2.117 -0.3322 -0.6278 -1.0528
   54SOL     vw  216   0.600   1.886   2.113 -0.1145 -0.5160 -0.3046
   55poe    c31  217   1.365   1.916   3.316  0.0728 -0.0801  0.2861
   55poe     o2  218   1.332   1.896   3.451 -0.1151 -0.0014  0.2527
   55poe    c23  219   1.403   1.776   3.477 -0.4448 -0.2801 -0.1132
   55poe    c23  220   1.403   1.750   3.629 -0.2496  0.3630  0.0024
   55poe     o2  221   1.432   1.872   3.693 -0.8255  0.4855  0.0425
   55poe    c23  222   1.487   1.847   3.821 -0.4201  0.3234 -0.1590
   55poe    c23  223   1.522   1.980   3.891 -0.4771  0.3486 -0.1778
   55poe     o2  224   1.423   2.075   3.858 -0.5177  0.3994  0.0906
   55poe    c23  225   1.401   2.156   3.972  0.3602  0.0621  0.5118
   55poe    c23  226   1.249   2.166   3.998  0.2135 -0.2882 -0.1707
   55poe     o2  227   1.173   2.207   3.886  0.4552  1.0471  0.1291
   55poe    c31  228   1.044   2.257   3.912  0.1922  0.1810  0.5407
   56poe    c31  229   1.930   1.033   0.797  0.1841 -0.3325 -0.1007
   56poe     o2  230   1.796   1.047   0.755  0.1727 -0.1229  0.0071
   56poe    c23  231   1.774   1.185   0.732 -0.8500 -0.2605  0.1258
   56poe    c23  232   1.630   1.189   0.678 -0.5932  0.1297 -0.5441
   56poe     o2  233   1.543   1.095   0.737 -0.1739  0.2949  0.3533
   56poe    c23  234   1.414   1.114   0.684  0.0075 -0.2511 -0.2951
   56poe    c23  235   1.323   1.003   0.740 -0.1867  0.1008  0.0976
   56poe     o2  236   1.379   0.877   0.706 -0.2586 -0.0260  0.4437
   56poe    c23  237   1.345   0.781   0.803  0.1585 -0.2821  0.3399
   56poe    c23  238   1.398   0.639   0.783  0.4207 -0.1852  0.3501
   56poe     o2  239   1.531   0.624   0.828  0.3071 -0.0350  0.7369
   56poe    c31  240   1.613   0.556   0.735 -0.5952  0.2311 -0.2700
   57poe    c31  241   1.095   1.049   2.043 -0.3020 -0.0883  0.3358
   57poe     o2  242   1.114   0.970   2.158 -0.1894 -0.3208  0.1594
   57poe    c23  243   1.248   0.927   2.160 -0.3575 -0.8607 -0.0021
   57poe    c23  244   1.300   0.919   2.304  0.1610  0.1074 -0.1282
   57poe     o2  245   1.293   1.045   2.368 -0.5099 -0.0251  0.0746
   57poe    c23  246   1.422   1.102   2.357 -0.3351 -0.5106 -0.4881
   57poe    c23  247   1.388   1.251   2.380 -0.0960 -0.5415  0.0981
   57poe     o2  248   1.287   1.274   2.475  0.0994 -0.3879  0.2684
   57poe    c23  249   1.218   1.394   2.452  0.2098 -0.3928 -0.0943
   57poe    c23  250   1.099   1.402   2.550  0.2133  0.7576 -0.1722
   57poe     o2  251   1.024   1.283   2.557  0.5618  0.5601  0.2530
   57poe    c31  252   0.904   1.298   2.629  0.1940 -0.2751 -0.1703
   58poe    c31  253   2.216   2.012   2.107 -0.1387 -0.7724 -1.0638
   58poe     o2  254   2.101   1.930   2.118 -0.6515  0.0103 -0.4878
   58poe    c23  255   2.126   1.799   2.162  0.1315  0.4661  0.4663
   58poe    c23  256   1.992   1.744   2.214  0.3473 -0.4260  0.1063
   58poe     o2  257   1.894   1.772   2.117 -0.2201 -1.0542  0.4867
   58poe    c23  258   1.764   1.737   2.157 -0.8485  0.3031 -0.2992
   58poe    c23  259   1.679   1.816   2.056 -0.5103 -0.3109 -1.0759
   58poe     o2  260   1.739   1.943   2.038 -0.3708 -0.1104  0.5977
   58poe    c23  261   1.704   1.985   1.908 -0.2927 -0.6379  0.4006
   58poe    c23  262   1.798   2.107   1.893 -0.4439 -0.5689 -0.0226
   58poe     o2  263   1.924   2.050   1.923 -0.2410 -0.0052  0.2002
   58poe    c31  264   2.029   2.118   1.858  0.0748 -0.2466  0.4563
   59poe    c31  265   1.572   1.246   2.792 -0.6967 -0.8199  0.0932
   59poe     o2  266   1.652   1.183   2.889  0.1290 -0.1915 -0.1663
   59poe    c23  267   1.579   1.072   2.936  0.1210 -0.2602 -0.3422
   59poe    c23  268   1.674   0.965   2.993  0.2142 -0.1411 -0.2724
   59poe     o2  269   1.771   1.030   3.072  0.0372  0.0341 -0.1993
   59poe    c23  270   1.856   0.947   3.148  0.2410 -0.2371 -0.7221
   59poe    c23  271   1.960   1.026   3.229 -0.2158 -0.0430 -0.3179
   59poe     o2  272   2.004   1.137   3.154 -0.8532  0.6172  0.2785
   59poe    c23  273   2.066   1.226   3.244  0.6147 -0.4036  0.2954
   59poe    c23  274   2.100   1.365   3.187 -0.2289 -0.4056 -0.2277
   59poe     o2  275   1.989   1.438   3.143 -0.2068 -0.3737 -0.2293
   59poe    c31  276   2.054   1.555   3.098 -0.2583  0.0599  0.8013
   60poe    c31  277   0.964   0.802   3.277  0.8331 -0.2520  0.3548
   60poe     o2  278   0.985   0.940   3.293  0.3752 -0.1675  0.2557
   60poe    c23  279   0.918   1.025   3.203  0.8574 -0.2641 -0.1978
   60poe    c23  280   0.976   1.165   3.228 -0.4221  0.2341  0.0815
   60poe     o2  281   0.949   1.220   3.355  0.0385  0.5727  0.0372
   60poe    c23  282   1.004   1.349   3.372  0.4518  0.4361 -0.2356
   60poe    c23  283   0.994   1.376   3.523 -0.3563 -0.1837 -0.1688
   60poe     o2  284   1.016   1.259   3.598 -0.7496 -0.0101  0.2264
   60poe    c23  285   1.019   1.305   3.731 -0.2113  0.1841  0.1476
   60poe    c23  286   1.041   1.198   3.839  0.1056  0.1661  0.0659
   60poe     o2  287   1.154   1.118   3.813 -0.1576 -0.0420 -0.4582
   60poe    c31  288   1.137   0.993   3.876 -0.7233  0.3765  0.2378
   61poe    c31  289   1.805   1.205   5.788  0.2070  0.2496  0.2886
   61poe     o2  290   1.914   1.270   5.727  0.0886  0.2168  0.0404
   61poe    c23  291   2.033   1.210   5.773  0.0638 -0.1491 -0.3637
   61poe    c23  292   2.157   1.272   5.704  0.2381  0.3082  0.3509
   61poe     o2  293   2.157   1.409   5.737  0.3543  0.3934 -0.0007
   61poe    c23  294   2.257   1.471   5.660  0.7109  0.1464  0.2619
   61poe    c23  295   2.245   1.624   5.673 -0.6022  0.0911 -0.1582
   61poe     o2  296   2.127   1.678   5.619 -0.4063 -0.0141 -0.6962
   61poe    c23  297   2.139   1.814   5.586 -0.1178  0.0524 -0.3250
   61poe    c23  298   1.999   1.875   5.564  0.0264  0.2654 -0.6604
   61poe     o2  299   1.920   1.775   5.505  0.2611 -0.0953 -0.3630
   61poe    c31  300   1.792   1.830   5.488 -0.0251 -0.6707 -0.1171
   62poe    c31  301   2.203   0.712   0.621  0.5704  0.3063  0.1111
   62poe     o2  302   2.222   0.700   0.760  0.0788  0.5395  0.1980
   62poe    c23  303   2.169   0.570   0.776  0.1845  0.4666 -0.0436
   62poe    c23  304   2.150   0.559   0.929 -0.7185  0.0345 -0.1813
   62poe     o2  305   2.094   0.658   1.012 -0.0210  0.2479  0.0386
   62poe    c23  306   1.956   0.639   1.034  0.1692 -0.4878  0.6140
   62poe    c23  307   1.928   0.721   1.161 -0.0700 -0.3246  0.4565
   62poe     o2  308   1.996   0.843   1.139 -0.5193 -0.2003 -0.2751
   62poe    c23  309   1.971   0.918   1.256 -0.0041 -0.2259 -0.1460
   62poe    c23  310   2.037   1.053   1.226  0.0420 -0.0476  0.7308
   62poe     o2  311   2.171   1.037   1.185 -0.2174  0.2946 -0.2836
   62poe    c31  312   2.240   1.159   1.200 -0.3217  0.2972  0.1801
   63poe    c31  313   1.043   2.260   4.335 -0.1747 -0.3110 -0.3929
   63poe     o2  314   1.023   2.318   4.462 -0.2838 -0.2328 -0.4448
   63poe    c23  315   1.050   2.221   4.561  0.5159  0.5706  0.1489
   63poe    c23  316   1.037   2.276   4.704  0.5196  0.4571  0.1942
   63poe     o2  317   1.025   2.416   4.689 -1.0212  0.3187 -0.0192
   63poe    c23  318   1.026   2.481   4.814 -0.1273  0.4377 -0.0835
   63poe    c23  319   0.910   2.576   4.847 -0.0788  0.4541  0.0391
   63poe     o2  320   0.931   2.687   4.763 -0.7997 -0.0506 -0.8211
   63poe    c23  321   0.868   2.800   4.818  0.1305  0.1615 -0.1703
   63poe    c23  322   0.880   2.923   4.725  0.3383  0.2888  0.0227
   63poe     o2  323   0.838   2.915   4.591  0.6065  0.3638 -0.0648
   63poe    c31  324   0.869   3.031   4.516  0.2493  0.2034 -0.4624
   64poe    c31  325   1.492   1.981   4.543  0.2083  0.1047 -0.4164
   64poe     o2  326   1.497   1.862   4.619 -0.3483  0.0079 -0.5240
   64poe    c23  327   1.403   1.761   4.591  0.1189 -0.6772  0.3530
   64poe    c23  328   1.426   1.647   4.692  0.2405 -0.0740  1.0166
   64poe     o2  329   1.549   1.577   4.701  0.1025 -0.5350 -0.3871
   64poe    c23  330   1.556   1.481   4.805  0.0592 -0.5234 -0.3728
   64poe    c23  331   1.682   1.403   4.763  0.4863 -0.0337 -0.0073
   64poe     o2  332   1.793   1.490   4.758 -0.2686  0.9420 -0.0105
   64poe    c23  333   1.915   1.421   4.754 -0.6851  0.1240  1.0618
   64poe    c23  334   2.022   1.528   4.783  0.1942 -0.2890 -0.5513
   64poe     o2  335   1.984   1.642   4.709 -0.6934  0.0453  0.3987
   64poe    c31  336   2.071   1.749   4.738 -0.3977 -0.1595  0.2769
   65poe    c31  337   0.274   0.435   2.911 -0.5489  0.5545 -0.2547
   65poe     o2  338   0.167   0.420   2.820 -0.8765 -0.3253  0.2714
   65poe    c23  339   0.196   0.487   2.700 -0.5509 -0.0117  0.5199
   65poe    c23  340   0.063   0.543   2.645  0.1138  0.8908 -0.2021
   65poe     o2  341  -0.021   0.431   2.659  0.4411  0.7304  0.5289
   65poe    c23  342  -0.157   0.445   2.623  0.2472 -0.9645  0.4857
   65poe    c23  343  -0.221   0.309   2.593 -0.2889 -0.5021 -0.5032
   65poe     o2  344  -0.219   0.237   2.714  0.9352 -0.3763 -0.4446
   65poe    c23  345  -0.254   0.102   2.690  0.6526 -0.3531 -0.1585
   65poe    c23  346  -0.253   0.007   2.811  0.4308  0.2713  0.3392
   65poe     o2  347  -0.124  -0.013   2.863  0.3804  0.4805  0.5469
   65poe    c31  348  -0.127  -0.103   2.972 -0.2552  0.0419  0.1687
   66poe    c31  349   1.803   0.419   5.388  0.2443 -0.0945 -0.2863
   66poe     o2  350   1.761   0.285   5.378  0.7406 -0.2971  0.2861
   66poe    c23  351   1.712   0.251   5.506 -0.0320 -0.1877  0.0227
   66poe    c23  352   1.727   0.099   5.523  0.0358 -0.1493  0.3073
   66poe     o2  353   1.632   0.038   5.438 -0.4356  0.3891  0.4425
   66poe    c23  354   1.587  -0.089   5.477 -0.2420  0.2700  0.2808
   66poe    c23  355   1.464  -0.141   5.400 -0.2935  0.0002  0.5421
   66poe     o2  356   1.448  -0.147   5.260  0.8677 -0.0139  0.3932
   66poe    c23  357   1.331  -0.222   5.232  0.8509  0.2021 -0.1213
   66poe    c23  358   1.313  -0.215   5.079  0.3821  0.0704 -0.0732
   66poe     o2  359   1.413  -0.269   4.995  0.3969  0.0765 -0.0599
   66poe    c31  360   1.433  -0.408   5.008 -0.5355 -0.1086 -0.4584
   67poe    c31  361   1.155   1.365   1.410 -0.1532  0.2749  0.2601
   67poe     o2  362   1.282   1.385   1.352 -0.2227  0.3459  0.1305
   67poe    c23  363   1.290   1.509   1.286  0.2580  0.0005 -0.4759
   67poe    c23  364   1.438   1.542   1.265  0.4507 -0.5373  0.0186
   67poe     o2  365   1.491   1.500   1.389 -0.4539  0.4165  0.7429
   67poe    c23  366   1.616   1.555   1.424 -0.1777 -0.0026  0.4084
   67poe    c23  367   1.661   1.492   1.557  0.4335 -0.0815  0.1687
   67poe     o2  368   1.600   1.365   1.555 -0.1110  0.1779  0.1780
   67poe    c23  369   1.572   1.318   1.685  0.6088 -0.0056  0.2693
   67poe    c23  370   1.501   1.183   1.666  0.8520 -0.0407 -0.4299
   67poe     o2  371   1.406   1.212   1.565  0.6893 -0.5499 -0.4268
   67poe    c31  372   1.321   1.101   1.578  0.0609 -0.1168 -0.7581
   68poe    c31  373   1.719   0.640   2.645  0.1382 -0.3380  0.5336
   68poe     o2  374   1.803   0.677   2.538 -0.5766 -0.3875 -0.0487
   68poe    c23  375   1.789   0.813   2.506  0.5991 -0.2663 -0.0772
   68poe    c23  376   1.926   0.860   2.452  0.6516 -0.1183  0.1823
   68poe     o2  377   1.986   0.770   2.361  0.3636  0.2505 -0.3749
   68poe    c23  378   2.125   0.787   2.341  0.4608 -0.4729 -0.3282
   68poe    c23  379   2.153   0.769   2.190  0.3997  0.2829 -0.4330
   68poe     o2  380   2.081   0.653   2.156  0.5851 -0.0754  0.3668
   68poe    c23  381   2.109   0.608   2.025  0.0628 -0.2946  0.3296
   68poe    c23  382   2.016   0.489   1.991  0.2209 -0.1091 -0.8079
   68poe     o2  383   1.886   0.521   2.036  0.3412 -0.0579 -0.4931
   68poe    c31  384   1.793   0.421   2.003 -0.3183  0.4324 -0.1611
   69poe    c31  385   1.963   2.099   0.995  0.2014  0.5405 -0.0948
   69poe     o2  386   2.027   2.033   1.102 -0.6492  0.1916  0.2038
   69poe    c23  387   2.141   2.101   1.150 -0.1650 -0.1605 -0.4333
   69poe    c23  388   2.174   2.051   1.292 -0.3291 -0.4801 -0.5071
   69poe     o2  389   2.156   1.911   1.291 -0.1116 -0.5084 -0.4122
   69poe    c23  390   2.273   1.835   1.267  0.0601 -0.4076  0.0900
   69poe    c23  391   2.221   1.698   1.218 -0.3819 -0.2023 -0.0242
   69poe     o2  392   2.101   1.734   1.154 -0.6223  0.2882  0.6902
   69poe    c23  393   2.061   1.629   1.069  0.6393 -0.2172  0.6968
   69poe    c23  394   1.911   1.638   1.036  0.8021  0.2469  0.0795
   69poe     o2  395   1.900   1.768   0.982  0.1525  0.2112  0.1135
   69poe    c31  396   1.761   1.781   0.961  0.1705  0.2388  0.0113
   70poe    c31  397   1.403   0.276   2.353  0.1258 -0.0824  0.1040
   70poe     o2  398   1.379   0.341   2.231  0.3388 -0.2897 -0.0499
   70poe    c23  399   1.461   0.456   2.230  0.4636 -0.3811 -0.4993
   70poe    c23  400   1.426   0.514   2.091 -0.2259  0.0697 -0.1431
   70poe     o2  401   1.425   0.413   1.993  0.8184 -0.1298  0.0335
   70poe    c23  402   1.421   0.474   1.866 -0.1996  0.0389  0.1378
   70poe    c23  403   1.435   0.363   1.761 -0.0572  0.0459  0.1499
   70poe     o2  404   1.352   0.257   1.804 -0.0811 -0.0779 -0.1947
   70poe    c23  405   1.355   0.158   1.704  0.6756 -0.0608 -0.2007
   70poe    c23  406   1.300   0.024   1.757  0.4731  0.0653 -0.0879
   70poe     o2  407   1.386  -0.028   1.856 -0.2704  0.4464  0.7728
   70poe    c31  408   1.351  -0.164   1.875 -0.4330  0.4081  0.2158
   71poe    c31  409   0.932   1.876   3.367  0.0551  0.0747 -0.1497
   71poe     o2  410   0.855   1.993   3.385  0.3199  0.1881  0.2650
   71poe    c23  411   0.896   2.115   3.327  0.3802 -0.0991 -0.2958
   71poe    c23  412   0.887   2.101   3.174 -0.0998  0.1905 -0.2960
   71poe     o2  413   0.751   2.092   3.137 -0.1890  0.1998  0.0336
   71poe    c23  414   0.739   2.108   2.998 -0.3450  0.0048  0.0239
   71poe    c23  415   0.600   2.062   2.949 -0.2632 -0.0947 -0.1144
   71poe     o2  416   0.517   2.129   3.041  0.2337  0.3550  0.0159
   71poe    c23  417   0.386   2.153   2.995  0.3512  0.4089 -0.2936
   71poe    c23  418   0.314   2.236   3.103 -0.0782 -0.2633 -0.0532
   71poe     o2  419   0.361   2.180   3.223 -0.7458  0.0873  0.3783
   71poe    c31  420   0.260   2.164   3.321 -0.4021 -0.1644  0.6931
   72poe    c31  421   0.330   1.527   1.657  0.2412  0.3770 -0.0034
   72poe     o2  422   0.469   1.518   1.680  0.3842  0.2714 -0.8832
   72poe    c23  423   0.529   1.642   1.711  0.1850  0.2932 -0.5808
   72poe    c23  424   0.682   1.637   1.700  0.2036  0.3516 -0.3528
   72poe     o2  425   0.714   1.505   1.738  0.2952  0.5054  0.1083
   72poe    c23  426   0.843   1.478   1.688  0.4043 -0.5009  0.8913
   72poe    c23  427   0.897   1.348   1.749  0.5323 -0.7069  0.3425
   72poe     o2  428   0.795   1.295   1.831  0.2998 -0.1416  0.4171
   72poe    c23  429   0.832   1.165   1.869  0.6407 -0.1695 -0.0001
   72poe    c23  430   0.761   1.058   1.785 -0.5768  0.4700  0.1920
   72poe     o2  431   0.622   1.052   1.808 -0.6224  0.3181 -0.1142
   72poe    c31  432   0.592   0.919   1.770  0.0772  0.0418  0.2617
   73poe    c31  433   0.432   1.997   4.618  0.9472 -0.5559 -0.7832
   73poe     o2  434   0.440   1.878   4.694 -0.2092  0.0491  0.3267
   73poe    c23  435   0.330   1.849   4.776 -0.2151 -0.1858  0.2363
   73poe    c23  436   0.363   1.733   4.872  0.1157 -0.4209 -0.1617
   73poe     o2  437   0.428   1.625   4.809  0.5774  0.0665 -0.5350
   73poe    c23  438   0.461   1.531   4.909 -0.9526  0.1742  0.0918
   73poe    c23  439   0.530   1.410   4.843 -0.5053  0.5579 -0.1516
   73poe     o2  440   0.637   1.463   4.768 -0.2976 -0.1189 -0.3347
   73poe    c23  441   0.757   1.414   4.823 -0.1276  0.7621  0.0924
   73poe    c23  442   0.876   1.441   4.729  0.0475 -0.1254  0.0526
   73poe     o2  443   0.903   1.578   4.713 -0.0389 -0.1267 -0.1071
   73poe    c31  444   1.040   1.585   4.680 -0.0455  0.2127 -0.0719
   74poe    c31  445   0.492   1.090   5.241 -0.6114  0.2822 -0.2106
   74poe     o2  446   0.595   1.164   5.302 -0.1728 -0.2682 -0.2822
   74poe    c23  447   0.699   1.199   5.213 -0.0197  0.2098  0.0777
   74poe    c23  448   0.842   1.165   5.261 -0.2752  0.0391  0.7381
   74poe     o2  449   0.859   1.235   5.382  0.3354  0.3217  0.4917
   74poe    c23  450   0.926   1.154   5.477  0.5052 -0.3400 -0.1799
   74poe    c23  451   0.890   1.211   5.615  0.1703  0.5169 -0.6130
   74poe     o2  452   0.750   1.226   5.624  0.1617  0.1022  0.0414
   74poe    c23  453   0.699   1.186   5.749  0.0359 -0.0314 -0.0524
   74poe    c23  454   0.552   1.230   5.745 -0.0824 -0.3996  0.1644
   74poe     o2  455   0.485   1.197   5.625  0.2219 -0.2062 -0.0610
   74poe    c31  456   0.352   1.243   5.628  0.4694  0.5793 -0.6347
   75poe    c31  457   0.156   1.346   4.065 -0.6272  0.2758  0.3930
   75poe     o2  458   0.123   1.426   3.954 -0.1129 -0.0761 -0.0208
   75poe    c23  459   0.125   1.339   3.844 -0.8648 -0.5105  0.2973
   75poe    c23  460   0.047   1.410   3.732 -0.2571 -0.1348  0.1030
   75poe     o2  461   0.096   1.542   3.740  0.2918 -0.3282 -0.0860
   75poe    c23  462   0.016   1.641   3.681  0.2153 -0.7933 -0.7733
   75poe    c23  463   0.090   1.774   3.706 -0.5160 -0.4912 -0.1552
   75poe     o2  464   0.112   1.801   3.843 -0.0262  0.0967 -0.3447
   75poe    c23  465   0.166   1.931   3.841  0.5837 -0.1557 -0.2432
   75poe    c23  466   0.183   1.981   3.986  0.4097  0.1504 -0.3296
   75poe     o2  467   0.246   1.881   4.062  0.1368  0.1966 -0.0382
   75poe    c31  468   0.295   1.931   4.184 -0.1004  0.0444  0.1196
   76poe    c31  469   0.852   2.218   5.940 -0.6432 -0.0801 -0.7592
   76poe     o2  470   0.813   2.083   5.956 -0.3158 -0.0452  0.4285
   76poe    c23  471   0.820   2.070   6.096  0.6544  0.3795  0.4290
   76poe    c23  472   0.802   1.917   6.107  0.1475  0.4213  0.1991
   76poe     o2  473   0.690   1.876   6.032  0.1867  0.0870  0.3232
   76poe    c23  474   0.678   1.737   6.052  0.2060  0.0605  0.1554
   76poe    c23  475   0.598   1.681   5.933  0.4819  0.2400 -0.1179
   76poe     o2  476   0.630   1.770   5.829  0.2511 -0.2747 -0.6318
   76poe    c23  477   0.564   1.747   5.706  0.1776 -0.7569 -0.5058
   76poe    c23  478   0.638   1.835   5.603 -0.2172  0.4002  0.1841
   76poe     o2  479   0.669   1.955   5.671 -0.5396  0.4873  0.1754
   76poe    c31  480   0.765   2.025   5.597  0.0887 -0.1217  0.4033
   77poe    c31  481   0.762   2.053   1.382  0.0770 -0.0465 -0.1237
   77poe     o2  482   0.770   1.967   1.270  0.3096 -0.1588 -0.0204
   77poe    c23  483   0.887   1.893   1.299  0.0528 -0.4873  0.1889
   77poe    c23  484   0.913   1.796   1.182 -0.4955 -0.7872  0.3130
   77poe     o2  485   0.866   1.869   1.070  0.0647 -0.0147  0.5755
   77poe    c23  486   0.919   1.831   0.945  0.2802  0.8089  0.4097
   77poe    c23  487   0.914   1.950   0.848 -0.2751  0.3110 -0.1869
   77poe     o2  488   0.792   2.019   0.841 -0.6198 -0.3127 -0.3312
   77poe    c23  489   0.719   1.990   0.723 -0.4599  0.2158 -0.5659
   77poe    c23  490   0.639   1.858   0.726  0.1164 -0.1296 -0.1599
   77poe     o2  491   0.531   1.865   0.816  0.4107 -0.1079  0.1959
   77poe    c31  492   0.451   1.750   0.800  0.0454  0.2383 -0.5803
   78poe    c31  493   0.883   0.512   5.793  0.8184  0.0309  0.5481
   78poe     o2  494   0.934   0.412   5.707  0.3151  0.1556  0.1005
   78poe    c23  495   0.950   0.288   5.773  0.0007 -0.0995 -0.2992
   78poe    c23  496   0.980   0.179   5.669  0.2947 -0.6548  0.3616
   78poe     o2  497   1.069   0.245   5.582  0.2508 -0.2059  0.6561
   78poe    c23  498   1.162   0.162   5.518  0.0465  0.3063 -0.3324
   78poe    c23  499   1.298   0.209   5.463  0.3161  0.0695  0.1241
   78poe     o2  500   1.278   0.301   5.358  0.0720 -0.3675 -0.2125
   78poe    c23  501   1.245   0.266   5.225 -0.4324 -0.3884 -0.0864
   78poe    c23  502   1.240   0.401   5.151  0.3537 -0.4759 -0.3096
   78poe     o2  503   1.119   0.472   5.153  0.6123 -0.0404  0.3845
   78poe    c31  504   1.118   0.597   5.086  0.0289 -0.0312  0.4003
   79poe    c31  505   0.680   0.490   2.076 -0.1438 -0.0277  0.1968
   79poe     o2  506   0.677   0.589   2.176 -0.1496 -0.1013  0.2694
   79poe    c23  507   0.790   0.672   2.166 -0.0746 -0.1811  0.4505
   79poe    c23  508   0.787   0.775   2.279 -0.0253  0.3252 -0.0058
   79poe     o2  509   0.740   0.710   2.395 -0.3344  0.0609 -0.2784
   79poe    c23  510   0.704   0.803   2.495 -0.3486 -0.8152  0.5468
   79poe    c23  511   0.696   0.719   2.624 -0.2121  0.1150  1.1656
   79poe     o2  512   0.607   0.611   2.607 -0.1168  0.1744  0.2105
   79poe    c23  513   0.614   0.531   2.723 -0.1275 -0.0300  0.0691
   79poe    c23  514   0.562   0.391   2.686  0.5587 -0.1623 -0.4249
   79poe     o2  515   0.586   0.284   2.775  0.2784  0.5322  0.4971
   79poe    c31  516   0.607   0.153   2.728  0.2267  0.7626 -0.1746
   80poe    c31  517   1.028   1.630   6.294  0.1427 -0.3083 -0.1992
   80poe     o2  518   1.100   1.576   6.402  0.5174 -0.2074 -0.3995
   80poe    c23  519   1.139   1.685   6.484 -0.2777 -0.3401  0.1692
   80poe    c23  520   1.184   1.619   6.616  0.1921  0.0613  0.2138
   80poe     o2  521   1.240   1.494   6.582  0.4166  0.0969  0.4532
   80poe    c23  522   1.275   1.415   6.693  0.3629 -0.2209  0.2436
   80poe    c23  523   1.363   1.298   6.644  0.5080  0.2321 -0.6045
   80poe     o2  524   1.275   1.205   6.586  0.7353 -0.3487 -0.0336
   80poe    c23  525   1.350   1.087   6.562  0.7990 -0.2979 -0.0843
   80poe    c23  526   1.255   0.989   6.492  0.5337  0.1569 -0.3710
   80poe     o2  527   1.238   1.027   6.357  0.0723  0.5943 -0.1918
   80poe    c31  528   1.141   0.948   6.294  0.4088  0.4997 -0.5995
   81poe    c31  529   1.779   0.970   6.196  0.0322 -0.0330  0.1946
   81poe     o2  530   1.721   0.841   6.187  0.1493 -0.1258  0.7491
   81poe    c23  531   1.589   0.851   6.236 -0.1411 -0.8113  0.1165
   81poe    c23  532   1.470   0.803   6.151 -0.2455 -0.6496  0.1713
   81poe     o2  533   1.465   0.663   6.139  1.1241 -0.6333 -0.8600
   81poe    c23  534   1.369   0.628   6.042 -0.0262  0.0829 -0.0102
   81poe    c23  535   1.362   0.480   6.000  0.5785  0.1457 -0.3429
   81poe     o2  536   1.489   0.418   5.998  0.5488  0.0384  0.5893
   81poe    c23  537   1.495   0.291   5.936 -0.1453  0.3351 -0.1093
   81poe    c23  538   1.645   0.264   5.917 -0.1024  0.8847 -0.5529
   81poe     o2  539   1.708   0.303   6.037 -0.2926 -0.6173  0.0558
   81poe    c31  540   1.845   0.271   6.027 -0.0152  0.2469  0.8595
   82poe    c31  541   1.569   0.018   0.957 -0.0371 -0.2353  0.7213
   82poe     o2  542   1.459  -0.028   1.033 -0.1822 -0.2599  0.4944
   82poe    c23  543   1.412  -0.149   0.979 -0.0577  0.2539 -0.8201
   82poe    c23  544   1.339  -0.211   1.100  0.5593  0.2921 -0.4277
   82poe     o2  545   1.252  -0.108   1.141 -0.5582 -0.5795 -0.5618
   82poe    c23  546   1.220  -0.122   1.278  0.1256  0.4022 -0.2831
   82poe    c23  547   1.175   0.017   1.326  0.2924  0.3022  0.1662
   82poe     o2  548   1.276   0.108   1.289  0.4699 -0.0748 -0.3018
   82poe    c23  549   1.248   0.240   1.332  0.2019 -0.0458 -0.5712
   82poe    c23  550   1.362   0.326   1.275  0.5492 -0.0359  0.1380
   82poe     o2  551   1.401   0.279   1.148  0.3559  0.1640  0.0067
   82poe    c31  552   1.521   0.344   1.116  0.2221  0.2708 -0.2893
   83poe    c31  553   0.989   2.044   0.212 -0.4305  0.0170  0.2652
   83poe     o2  554   1.097   2.059   0.301  0.2568 -0.4100 -0.4794
   83poe    c23  555   1.044   2.072   0.431  0.6184  0.0314 -0.3720
   83poe    c23  556   1.161   2.092   0.528  0.8359 -1.0470 -0.4029
   83poe     o2  557   1.222   2.217   0.507 -0.2113 -0.3947  0.3669
   83poe    c23  558   1.347   2.234   0.569  0.0641 -0.0125 -0.2830
   83poe    c23  559   1.441   2.340   0.508 -0.3653  0.5020 -0.0581
   83poe     o2  560   1.458   2.327   0.368  0.5306  0.4076  0.0560
   83poe    c23  561   1.535   2.442   0.338  0.7183  0.2747  0.0287
   83poe    c23  562   1.553   2.452   0.185  0.0777 -0.3024 -0.0896
   83poe     o2  563   1.568   2.324   0.127 -0.6503 -0.4717  0.0839
   83poe    c31  564   1.593   2.331  -0.011  0.0742  0.2538  0.2415
   84poe    c31  565   1.007   1.903   2.133  0.4482 -0.0000 -0.3412
   84poe     o2  566   0.914   1.998   2.086 -0.3499 -0.1296  0.9259
   84poe    c23  567   0.989   2.070   1.991 -0.2891 -0.6400  0.5831
   84poe    c23  568   0.892   2.178   1.939  0.0391 -0.1593  0.9577
   84poe     o2  569   0.806   2.217   2.043 -0.7591  0.1080  0.2088
   84poe    c23  570   0.718   2.319   2.001 -0.1523  0.3569 -0.4641
   84poe    c23  571   0.592   2.292   2.085 -0.2853 -0.1635 -0.8225
   84poe     o2  572   0.552   2.158   2.067 -0.3739 -0.2446 -0.0663
   84poe    c23  573   0.412   2.170   2.081 -0.3387  0.0321  0.0504
   84poe    c23  574   0.344   2.073   1.984  0.2092 -0.2726 -0.0368
   84poe     o2  575   0.369   1.941   2.026 -0.2534 -0.2761  0.2361
   84poe    c31  576   0.252   1.867   2.000 -0.2111 -0.2373 -0.0569
   85poe    c31  577   1.362   1.822   2.519 -0.3108 -0.4771 -0.0489
   85poe     o2  578   1.445   1.793   2.629 -0.0896  0.5346  0.0521
   85poe    c23  579   1.520   1.681   2.588 -0.0303  0.2494  0.9297
   85poe    c23  580   1.582   1.618   2.714  0.3077 -0.2944  0.4951
   85poe     o2  581   1.631   1.733   2.779 -0.3146 -0.0507  0.5452
   85poe    c23  582   1.721   1.705   2.884  0.0581  0.3236  0.3292
   85poe    c23  583   1.740   1.835   2.964 -0.1227  0.4017  0.2456
   85poe     o2  584   1.614   1.896   2.950 -0.4456 -0.3076  0.0130
   85poe    c23  585   1.596   2.029   2.993  0.3931  0.0165 -0.6133
   85poe    c23  586   1.453   2.075   2.956  0.4560  0.5605 -0.1920
   85poe     o2  587   1.427   2.012   2.832 -0.1079 -0.3527  0.3798
   85poe    c31  588   1.330   2.093   2.770  0.6374 -0.1872 -0.5917
   86poe    c31  589   0.170   1.515   0.209  0.3228  0.4707 -0.9183
   86poe     o2  590   0.075   1.514   0.106 -0.6079  0.6823 -0.0750
   86poe    c23  591  -0.013   1.404   0.107 -0.4005  0.5174  0.4053
   86poe    c23  592  -0.078   1.369  -0.029  0.1515 -0.5053  0.3951
   86poe     o2  593   0.021   1.319  -0.116 -0.0473  0.0149 -0.1375
   86poe    c23  594  -0.021   1.298  -0.249 -0.5312 -0.2922  0.0617
   86poe    c23  595  -0.022   1.429  -0.331  0.1261 -0.2761  0.0730
   86poe     o2  596   0.096   1.498  -0.298 -0.1619  0.0227  0.4878
   86poe    c23  597   0.117   1.631  -0.338  0.4511 -0.1982  0.0583
   86poe    c23  598   0.235   1.688  -0.258  0.4256 -0.2214  0.1124
   86poe     o2  599   0.218   1.649  -0.124  0.4820  0.1247  0.2220
   86poe    c31  600   0.330   1.698  -0.053  0.6150 -0.1354  0.1945
   87poe    c31  601   0.643   0.850   1.402  0.0854 -0.2369 -0.0039
   87poe     o2  602   0.750   0.840   1.310 -0.2377  0.3431 -0.4505
   87poe    c23  603   0.708   0.806   1.180 -0.5975  0.0461 -0.2602
   87poe    c23  604   0.828   0.797   1.083 -0.5945  0.0558 -0.2573
   87poe     o2  605   0.885   0.920   1.045  0.0688 -0.2362 -0.2229
   87poe    c23  606   1.021   0.907   1.079 -0.2294 -0.6138  0.8532
   87poe    c23  607   1.043   1.053   1.122  0.4714 -0.4290 -0.0860
   87poe     o2  608   1.001   1.144   1.023  0.7486 -0.6768 -0.4341
   87poe    c23  609   1.063   1.271   1.030  0.2487 -0.4235 -0.5529
   87poe    c23  610   1.016   1.362   0.915  0.5005 -0.4050 -0.6418
   87poe     o2  611   0.876   1.375   0.924  0.5450 -0.2748 -0.1362
   87poe    c31  612   0.814   1.451   0.822  0.8845  1.1619  0.6914
   88poe    c31  613   0.272   0.603   1.898 -0.4786  0.0763 -0.0684
   88poe     o2  614   0.366   0.559   1.803 -0.4517 -0.4323  0.1944
   88poe    c23  615   0.395   0.421   1.799  0.3538 -0.2632 -0.0927
   88poe    c23  616   0.489   0.399   1.679  0.2286  0.3243 -0.3012
   88poe     o2  617   0.443   0.387   1.546 -0.3838  0.3484 -0.0970
   88poe    c23  618   0.553   0.373   1.458 -0.3114  0.4626 -0.0256
   88poe    c23  619   0.490   0.418   1.325 -0.2273  0.3438 -0.1047
   88poe     o2  620   0.369   0.348   1.308 -0.3476  0.3727  0.6247
   88poe    c23  621   0.316   0.375   1.180 -0.1472 -0.5465  0.3366
   88poe    c23  622   0.201   0.279   1.146 -0.0077 -0.6668  0.2054
   88poe     o2  623   0.113   0.265   1.256 -0.2166 -0.1112  0.1130
   88poe    c31  624   0.007   0.178   1.220 -0.4572  0.1720  0.1399
   89poe    c31  625   1.906   1.452   3.536  0.8930 -0.6216 -0.2471
   89poe     o2  626   1.908   1.486   3.673  0.1437  0.1798 -0.4307
   89poe    c23  627   1.929   1.626   3.682 -0.4961  0.2509  0.0116
   89poe    c23  628   1.885   1.664   3.825 -0.1000  0.7665 -0.0003
   89poe     o2  629   1.754   1.619   3.854  0.4213 -0.3236  0.7340
   89poe    c23  630   1.735   1.624   3.994 -0.1759  0.1994  0.6360
   89poe    c23  631   1.597   1.581   4.048 -0.2476 -0.6831 -0.2188
   89poe     o2  632   1.565   1.453   3.999  0.6405 -0.8927 -0.2763
   89poe    c23  633   1.430   1.421   4.024  0.8179 -0.6658  1.0866
   89poe    c23  634   1.412   1.283   4.090  0.1794 -0.7763  0.6940
   89poe     o2  635   1.502   1.188   4.037  0.4006 -0.1055 -0.1641
   89poe    c31  636   1.458   1.055   4.059  0.6622 -0.2753 -0.6449
   90poe    c31  637   2.092   0.166   5.521 -0.1267  0.1012  0.1809
   90poe     o2  638   2.187   0.224   5.435 -0.0480 -0.0221  0.1848
   90poe    c23  639   2.315   0.173   5.468  0.0661 -0.0262 -0.2507
   90poe    c23  640   2.429   0.234   5.384 -0.1531  0.7862  0.0301
   90poe     o2  641   2.441   0.373   5.404  0.1723  0.7803 -0.1250
   90poe    c23  642   2.493   0.438   5.290  0.4290  0.2770 -0.2985
   90poe    c23  643   2.504   0.591   5.307  0.2334  0.2955 -0.3318
   90poe     o2  644   2.374   0.642   5.329 -0.0203 -0.4310 -0.1184
   90poe    c23  645   2.364   0.749   5.238 -0.0281 -0.2895  0.0487
   90poe    c23  646   2.248   0.833   5.295  0.2942  0.1728  0.0257
   90poe     o2  647   2.148   0.758   5.360 -0.0086  0.4353 -0.1370
   90poe    c31  648   2.046   0.843   5.407 -0.2563  0.0935 -0.0534
   91poe    c31  649   1.503   0.284   2.753  0.0682  0.6861 -0.4470
   91poe     o2  650   1.580   0.312   2.868  0.4012 -0.2054 -0.4465
   91poe    c23  651   1.670   0.207   2.895  0.5380 -0.0180 -0.1757
   91poe    c23  652   1.760   0.244   3.015  0.0399  0.3993  0.0778
   91poe     o2  653   1.674   0.310   3.104 -0.0936  0.5574 -0.1667
   91poe    c23  654   1.748   0.355   3.215  0.1294  0.0935 -0.1245
   91poe    c23  655   1.660   0.418   3.325  0.5710  0.7330 -0.1302
   91poe     o2  656   1.623   0.539   3.264  0.2393  0.7739  0.1490
   91poe    c23  657   1.535   0.606   3.351 -0.0609  0.3975  0.1347
   91poe    c23  658   1.484   0.742   3.299 -0.1319  0.3814  0.1613
   91poe     o2  659   1.391   0.728   3.194  0.4430 -0.2102 -0.2823
   91poe    c31  660   1.327   0.853   3.178 -0.4712 -0.6595 -0.2281
   92poe    c31  661   0.675   2.027   4.024 -0.4986 -0.0592 -0.9289
   92poe     o2  662   0.678   1.887   4.042 -0.2972  0.0529 -0.0214
   92poe    c23  663   0.689   1.862   4.180 -0.5630  0.2840  0.0434
   92poe    c23  664   0.705   1.710   4.201  0.1790  0.3225 -0.2084
   92poe     o2  665   0.602   1.648   4.127  0.0495 -0.0921  0.3127
   92poe    c23  666   0.646   1.516   4.101  0.4950  0.0785  0.1798
   92poe    c23  667   0.560   1.483   3.977  0.7935  0.4908 -0.1418
   92poe     o2  668   0.587   1.586   3.885  0.6006  0.3312 -0.3775
   92poe    c23  669   0.510   1.575   3.767 -0.4646 -0.0527  0.3419
   92poe    c23  670   0.501   1.715   3.704  0.0617  0.0199  0.4273
   92poe     o2  671   0.626   1.774   3.735 -0.0716  0.3483  0.3383
   92poe    c31  672   0.644   1.896   3.666 -0.3244 -0.0577 -0.4582
   93poe    c31  673   1.556   1.057   5.093 -0.2141 -0.1284  0.3884
   93poe     o2  674   1.487   1.095   5.209 -0.1869 -0.0723  0.3869
   93poe    c23  675   1.542   1.032   5.323 -0.3520 -0.0630  0.4725
   93poe    c23  676   1.446   1.049   5.443  0.0252 -0.3063  0.8127
   93poe     o2  677   1.401   1.182   5.431  0.1183 -0.3262  0.2096
   93poe    c23  678   1.301   1.220   5.522  0.3159 -0.0002  0.2964
   93poe    c23  679   1.268   1.370   5.519  0.3950  0.0097 -0.1847
   93poe     o2  680   1.219   1.405   5.392 -0.4709 -0.0804  0.1158
   93poe    c23  681   1.212   1.545   5.386 -1.1124 -0.0925  0.5337
   93poe    c23  682   1.126   1.598   5.270 -0.3299 -0.2202 -0.1112
   93poe     o2  683   1.193   1.583   5.147 -0.6485 -0.1952 -0.2894
   93poe    c31  684   1.107   1.654   5.061 -0.3848  0.2626 -0.1794
   94poe    c31  685   0.913   0.462   3.749  0.8761  0.3110  0.2424
   94poe     o2  686   0.855   0.527   3.860  0.1137  0.1649 -0.0661
   94poe    c23  687   0.824   0.429   3.957 -0.3929  0.2587 -0.1310
   94poe    c23  688   0.702   0.476   4.039 -0.0518  0.4457  0.2743
   94poe     o2  689   0.713   0.617   4.041  0.4456  0.4090  0.3554
   94poe    c23  690   0.628   0.668   4.142  0.4397  0.2975  0.4076
   94poe    c23  691   0.614   0.820   4.118  0.7843  0.3261  0.3824
   94poe     o2  692   0.739   0.885   4.104  0.8204  0.1130 -0.2907
   94poe    c23  693   0.720   1.024   4.091 -0.1376 -0.0364 -0.6212
   94poe    c23  694   0.842   1.091   4.157 -0.0650 -0.2499 -0.5383
   94poe     o2  695   0.820   1.089   4.296  0.1881  0.5732 -0.4831
   94poe    c31  696   0.862   1.213   4.349 -0.0936  0.2709  0.4623
   95poe    c31  697   1.735   2.066   0.293 -0.5430  1.1022  0.3147
   95poe     o2  698   1.606   2.050   0.239 -0.6730 -0.5039  1.0186
   95poe    c23  699   1.607   1.913   0.208  0.0853 -0.2163 -0.3167
   95poe    c23  700   1.473   1.892   0.135 -0.5553  0.9693  0.4811
   95poe     o2  701   1.486   1.957   0.010  0.1017 -0.5364 -0.2580
   95poe    c23  702   1.367   1.963  -0.065  0.1639  0.1437 -0.3088
   95poe    c23  703   1.406   2.010  -0.206  0.2452  0.3000 -0.2353
   95poe     o2  704   1.487   1.906  -0.258  0.4728  0.3081  0.0945
   95poe    c23  705   1.482   1.918  -0.399 -0.4321  0.6073  0.1438
   95poe    c23  706   1.537   1.784  -0.451 -0.1747  0.7189  0.1286
   95poe     o2  707   1.647   1.744  -0.372  0.1494  0.5848 -0.3842
   95poe    c31  708   1.711   1.656  -0.462 -0.2573 -0.7705  0.6111
   96poe    c31  709   0.610   0.328   6.054  0.7500  0.6775 -0.0339
   96poe     o2  710   0.505   0.417   6.085 -0.2295 -0.4619 -0.0063
   96poe    c23  711   0.456   0.477   5.967  0.1907  0.0771  0.0866
   96poe    c23  712   0.323   0.546   6.003  0.2982  0.2057  0.2395
   96poe     o2  713   0.350   0.646   6.099  0.3594  0.0669  0.3680
   96poe    c23  714   0.433   0.751   6.056  0.3138 -0.0099  0.0864
   96poe    c23  715   0.502   0.786   6.189 -0.0843 -0.0816  0.3144
   96poe     o2  716   0.568   0.680   6.254 -0.3773  0.0415  0.8179
   96poe    c23  717   0.612   0.714   6.384 -0.7498 -0.0290  0.9658
   96poe    c23  718   0.676   0.586   6.441  0.0877 -0.2137 -0.3330
   96poe     o2  719   0.596   0.474   6.410 -0.1106 -0.0679 -0.3476
   96poe    c31  720   0.654   0.387   6.504 -0.0636 -0.0144 -0.3268
   97poe    c31  721   2.251   2.052   0.100  0.5455 -0.9300  0.2912
   97poe     o2  722   2.146   2.045   0.194 -0.1404  0.6182 -0.3136
   97poe    c23  723   2.093   1.914   0.183  0.7017  0.1588  0.8545
   97poe    c23  724   2.143   1.800   0.273  0.4274 -0.6843 -0.0462
   97poe     o2  725   2.125   1.818   0.411  0.4056  0.4984 -0.1944
   97poe    c23  726   1.994   1.820   0.464  0.1722 -0.3737 -0.7192
   97poe    c23  727   1.990   1.817   0.618  0.2186  0.7402 -0.6885
   97poe     o2  728   2.100   1.894   0.662  0.1254  0.0102  0.8791
   97poe    c23  729   2.153   1.853   0.786 -0.1781 -0.3241  0.9015
   97poe    c23  730   2.271   1.950   0.803 -0.2593  0.0379 -0.4857
   97poe     o2  731   2.341   1.950   0.680  0.0671  0.3286 -0.3040
   97poe    c31  732   2.473   1.993   0.701  0.1608 -0.0851 -0.0328
   98poe    c31  733   2.160   1.182   5.096  0.6083 -0.2984 -0.4079
   98poe     o2  734   2.153   1.194   4.956  0.0902  0.8007 -0.3018
   98poe    c23  735   2.091   1.071   4.926 -0.0130  0.7884 -0.0394
   98poe    c23  736   2.069   1.051   4.775  0.4294  0.3644 -0.0500
   98poe     o2  737   2.189   1.043   4.702  0.4864  0.5008  0.0302
   98poe    c23  738   2.162   1.084   4.570  0.5784  0.2617 -0.0618
   98poe    c23  739   2.267   1.007   4.486  0.3177 -0.7721  0.5450
   98poe     o2  740   2.386   1.008   4.561  0.9410  0.3564 -0.4348
   98poe    c23  741   2.472   0.924   4.486  0.6843 -0.1097 -0.2048
   98poe    c23  742   2.617   0.949   4.529  0.6492 -0.7735  0.3157
   98poe     o2  743   2.646   0.894   4.656  0.3516 -0.6851  0.4205
   98poe    c31  744   2.783   0.870   4.674  0.4431 -0.1843  0.4066
   99poe    c31  745   0.100   0.229   6.009 -0.1795 -0.2571 -0.3838
   99poe     o2  746   0.004   0.236   6.112 -0.3223  0.3915 -0.5571
   99poe    c23  747  -0.003   0.107   6.167 -0.1818  0.6654  0.1135
   99poe    c23  748  -0.112   0.112   6.276 -0.4419  0.2096 -0.1215
   99poe     o2  749  -0.087   0.191   6.390 -0.1399  0.0154 -0.0522
   99poe    c23  750  -0.188   0.169   6.486  0.0343  0.1000  0.1502
   99poe    c23  751  -0.194   0.301   6.565 -0.4505  0.3955 -0.3711
   99poe     o2  752  -0.203   0.417   6.484 -0.2101  0.4001 -0.3932
   99poe    c23  753  -0.254   0.518   6.567 -0.8754 -0.1138 -0.1585
   99poe    c23  754  -0.246   0.650   6.488 -0.1957 -0.3580 -0.5036
   99poe     o2  755  -0.123   0.643   6.419 -0.1203  0.1210 -0.4256
   99poe    c31  756  -0.138   0.759   6.342  0.7330  0.1053 -0.6254
  100poe    c31  757   0.446   1.122   0.350 -0.2564 -0.2427 -0.2009
  100poe     o2  758   0.414   1.058   0.471 -0.5834  0.2558 -0.0202
  100poe    c23  759   0.456   0.923   0.464  0.6964  0.6238  0.4000
  100poe    c23  760   0.405   0.865   0.597  0.0079 -0.0626 -0.1556
  100poe     o2  761   0.442   0.957   0.697  0.1559 -0.3392  0.0459
  100poe    c23  762   0.385   0.938   0.825  0.2103  0.1051  0.1397
  100poe    c23  763   0.390   1.069   0.906  0.1925  0.1779  0.0230
  100poe     o2  764   0.350   1.173   0.820  0.0499 -0.0072 -0.1370
  100poe    c23  765   0.387   1.299   0.871 -0.6613 -0.0606  0.5206
  100poe    c23  766   0.370   1.403   0.759 -0.0569 -0.0539  0.4336
  100poe     o2  767   0.446   1.379   0.642  0.6807  0.9312  0.6983
  100poe    c31  768   0.435   1.481   0.545  0.8342  0.3198  0.0305
  101poe    c31  769   0.050   0.909   3.454 -0.4045  0.0212 -0.4569
  101poe     o2  770   0.187   0.905   3.421 -0.2395 -0.1779  0.2326
  101poe    c23  771   0.227   0.776   3.381  0.3472  0.1126 -0.1276
  101poe    c23  772   0.368   0.753   3.324  0.3849  0.0740 -0.0181
  101poe     o2  773   0.381   0.811   3.196  0.0342 -0.7442 -0.4328
  101poe    c23  774   0.520   0.829   3.177 -0.0227  0.9333  0.4896
  101poe    c23  775   0.532   0.929   3.060  0.2475  0.3607  0.0197
  101poe     o2  776   0.448   1.042   3.064 -0.0850  0.1325 -0.4608
  101poe    c23  777   0.481   1.151   2.981 -0.2246  0.0317 -0.6484
  101poe    c23  778   0.365   1.249   3.007  0.0788  0.2748 -0.2063
  101poe     o2  779   0.248   1.180   2.970  0.4476 -0.2100 -0.4696
  101poe    c31  780   0.147   1.273   2.938  0.4687 -0.1152 -0.2618
  102poe    c31  781   1.781   1.409   1.970 -0.1648 -0.2134  0.8887
  102poe     o2  782   1.901   1.402   2.044  0.4113  0.3916  0.0230
  102poe    c23  783   1.878   1.302   2.140 -0.2692 -0.1451 -0.6880
  102poe    c23  784   1.997   1.276   2.234 -0.7136  0.1170 -0.0495
  102poe     o2  785   2.113   1.222   2.173 -0.3325  0.2837  0.5143
  102poe    c23  786   2.195   1.146   2.258 -0.1643  0.2185  0.2927
  102poe    c23  787   2.341   1.171   2.214 -0.1783 -0.2489 -0.0241
  102poe     o2  788   2.334   1.144   2.075 -0.3965 -0.1292 -0.0376
  102poe    c23  789   2.466   1.156   2.027 -0.2978 -0.4432  0.1534
  102poe    c23  790   2.472   1.165   1.873 -0.6935 -0.2035  0.1519
  102poe     o2  791   2.354   1.110   1.818 -0.8597  0.3478 -0.0488
  102poe    c31  792   2.382   1.082   1.682  0.3802  0.6229  0.1349
  103poe    c31  793   0.093   1.736   2.881 -0.0779 -0.4913 -0.5303
  103poe     o2  794   0.148   1.759   2.754 -0.0204 -0.8314 -0.5674
  103poe    c23  795   0.062   1.836   2.672  0.2298  0.3459  0.2529
  103poe    c23  796   0.149   1.911   2.570 -0.0237  0.1620 -0.0993
  103poe     o2  797   0.233   1.812   2.513  0.1519  0.5819 -0.5867
  103poe    c23  798   0.297   1.839   2.391  0.3187 -0.2649 -0.6866
  103poe    c23  799   0.446   1.808   2.418  0.1427 -0.3687  0.1935
  103poe     o2  800   0.464   1.687   2.488  0.7338 -0.2179  0.3065
  103poe    c23  801   0.605   1.677   2.496  0.7717 -0.2492 -0.3250
  103poe    c23  802   0.648   1.544   2.558 -0.3395 -0.3298  0.3051
  103poe     o2  803   0.571   1.527   2.675 -0.3548 -0.0800  0.3315
  103poe    c31  804   0.578   1.393   2.718 -0.5098 -0.2084 -0.0374
  104poe    c31  805   0.614   0.471   0.912  0.5370 -0.7725 -0.0959
  104poe     o2  806   0.505   0.396   0.865 -0.4929  0.4019  0.3439
  104poe    c23  807   0.410   0.478   0.800 -0.1935  0.3509 -0.1628
  104poe    c23  808   0.297   0.410   0.719  0.1132 -0.1166 -0.2054
  104poe     o2  809   0.339   0.351   0.598 -0.2016 -0.3007 -0.2235
  104poe    c23  810   0.265   0.236   0.566 -0.0448 -0.3865 -0.2769
  104poe    c23  811   0.336   0.167   0.448  0.0152 -0.2412 -0.3257
  104poe     o2  812   0.475   0.146   0.463 -0.0094 -0.2064 -0.0468
  104poe    c23  813   0.530   0.070   0.357  0.1019  0.0334 -0.1611
  104poe    c23  814   0.668   0.024   0.407  0.0301  0.1586  0.1548
  104poe     o2  815   0.718   0.147   0.456 -0.5446  0.1154  0.8622
  104poe    c31  816   0.858   0.159   0.464 -0.5434  0.9137 -0.1657
  105poe    c31  817   2.073   0.040   4.390  0.4773 -0.1721 -0.0968
  105poe     o2  818   2.174   0.065   4.295  0.3462 -0.5443 -0.3329
  105poe    c23  819   2.298   0.096   4.354  0.1148 -0.4117  0.0841
  105poe    c23  820   2.422   0.060   4.270 -0.1929 -0.6494 -0.2721
  105poe     o2  821   2.360   0.055   4.144 -0.6347 -0.5466 -0.0611
  105poe    c23  822   2.447   0.046   4.033 -0.1256 -0.1365  0.3061
  105poe    c23  823   2.355   0.072   3.913  0.1031  0.3018  0.2236
  105poe     o2  824   2.268  -0.036   3.888  0.4859  0.1155 -0.3300
  105poe    c23  825   2.205   0.001   3.767  0.1937  0.1085 -0.1824
  105poe    c23  826   2.093  -0.099   3.732  0.2002  0.2541 -0.6347
  105poe     o2  827   1.978  -0.086   3.812  0.0506  0.2373 -0.8465
  105poe    c31  828   1.888  -0.194   3.816 -0.0022  0.2988 -0.0455
  106poe    c31  829   0.471   0.427   4.928  0.1713 -0.8326 -0.0330
  106poe     o2  830   0.402   0.305   4.941 -0.4413 -0.4635  0.2449
  106poe    c23  831   0.272   0.323   4.890 -0.2821  0.6886  0.2278
  106poe    c23  832   0.194   0.195   4.925  0.2932  0.3288  0.2045
  106poe     o2  833   0.279   0.087   4.956 -0.1257 -0.0420  0.0622
  106poe    c23  834   0.200  -0.011   5.021 -0.3509 -0.3396 -0.6504
  106poe    c23  835   0.295  -0.107   5.094 -0.6544 -0.0697  0.1110
  106poe     o2  836   0.351  -0.041   5.205  0.4031  0.2502 -0.5910
  106poe    c23  837   0.428  -0.126   5.288  0.0551  0.3579 -0.1529
  106poe    c23  838   0.438  -0.043   5.417 -0.4002  0.1392  0.0246
  106poe     o2  839   0.476   0.088   5.381 -0.4090  0.1254 -0.0337
  106poe    c31  840   0.496   0.165   5.497 -0.1432  0.2670 -0.1731
  107poe    c31  841   1.541   0.275   4.719 -0.1753  0.1326  0.1658
  107poe     o2  842   1.491   0.399   4.675 -0.0379  0.0795 -0.1434
  107poe    c23  843   1.448   0.480   4.783 -0.0589  0.0488 -0.1291
  107poe    c23  844   1.447   0.629   4.745  0.0137  0.1390  0.2263
  107poe     o2  845   1.569   0.638   4.676 -0.4173 -0.6807 -0.6697
  107poe    c23  846   1.599   0.768   4.630 -0.2183 -0.4870 -0.0137
  107poe    c23  847   1.561   0.767   4.481 -0.2771 -0.2149  0.0001
  107poe     o2  848   1.621   0.651   4.429 -0.2613 -0.3042  0.2216
  107poe    c23  849   1.572   0.607   4.305 -0.3163 -0.1682  0.1958
  107poe    c23  850   1.631   0.468   4.277 -0.3502 -0.1807  0.1845
  107poe     o2  851   1.614   0.396   4.398 -0.2910 -0.3809  0.0748
  107poe    c31  852   1.631   0.257   4.386  0.5599 -0.2577 -0.2347
  108poe    c31  853   2.095   0.734   3.670  1.2209 -0.5642  0.8548
  108poe     o2  854   2.023   0.679   3.778 -0.0240  0.1397  0.4200
  108poe    c23  855   1.929   0.773   3.823 -0.7592 -0.0676 -0.6698
  108poe    c23  856   1.818   0.725   3.918 -0.2932  0.5096  0.1755
  108poe     o2  857   1.723   0.657   3.839 -0.2811  0.4301  0.2286
  108poe    c23  858   1.596   0.675   3.897 -0.6073 -0.1018 -0.3121
  108poe    c23  859   1.502   0.568   3.839 -0.7331 -0.4026  0.4293
  108poe     o2  860   1.570   0.445   3.847 -0.0837 -0.0720  0.0717
  108poe    c23  861   1.491   0.344   3.788 -0.1862 -0.0695  0.2042
  108poe    c23  862   1.579   0.217   3.786  0.1806  0.1805  0.3416
  108poe     o2  863   1.702   0.267   3.739  0.3662 -0.3616  0.2480
  108poe    c31  864   1.808   0.175   3.725 -0.0182 -0.7362 -0.1994
  109lim     li  865   1.427   1.257   5.247  0.7302 -0.3878 -1.1366
  110lim     li  866   1.807   1.200   2.986  0.3797  0.5508  0.4772
  111lim     li  867   0.269   1.029   3.072 -0.0289  0.5954 -0.2359
  112lim     li  868   1.658   0.939   0.755  0.6495 -0.6069  0.8209
  113lim     li  869   1.810   1.646   4.672 -0.4429 -1.0797 -0.7735
  114lim     li  870   0.020   0.325   2.801 -0.2301  0.4690  0.5885
  115lim     li  871   1.622   0.497   4.560  0.4127  0.3415  0.9981
  116lim     li  872   1.451   1.329   1.442 -1.0022 -1.1190  1.1358
  117lim     li  873   0.565   1.631   4.693 -0.2465 -0.2259  0.0800
  118lim     li  874   0.571   2.119   3.208 -0.8144 -0.6551  0.7107
  119lim     li  875   1.005   1.102   3.484  0.4552 -0.7654  0.2256
  120lim     li  876   0.267   0.318   1.454 -0.2573 -0.8751  1.5181
  121lim     li  877   1.350   0.259   2.058  1.0853  0.1593  0.4748
  122lim     li  878   0.600   0.249   0.532 -0.1381  0.7621 -0.7195
  123lim     li  879   1.210   1.430   0.057  0.1214 -0.0566 -0.9435
  124lim     li  880   1.632   1.297   3.951 -0.2787 -0.4348 -0.4206
  125lim     li  881   1.487   2.192   0.231  0.2792  0.4448  0.3133
  126lim     li  882   0.631   1.376   1.798  0.6614  0.6568 -0.2417
  127lim     li  883   1.998   1.608   5.534  1.0758 -0.0666  0.0593
  128lim     li  884   2.218   1.142   1.942  1.1014 -0.2669 -0.6083
  129lim     li  885   0.099   1.597   3.952  0.4951 -1.6808  0.9615
  130lim     li  886   0.735   1.992   1.104  0.0446 -1.1361 -0.0093
  131lim     li  887   0.647   1.232   5.467 -0.8450  1.2226  0.0091
  132lim     li  888   2.224   0.597   5.425  1.4590 -1.0852 -0.3382
  133lim     li  889   1.526   0.373   3.016 -0.3965 -0.9315 -0.6178
  134lim     li  890   2.193   2.261   4.143  1.2268 -0.9068  1.2117
  135lim     li  891   2.185   0.478   6.361 -0.5038  0.0533  0.4022
  136lim     li  892   1.580   0.479   6.143 -1.6510 -0.1749 -1.0532
  137lim     li  893   1.711   0.194   5.234  0.3171  0.1047  0.8318
  138lim     li  894   0.491   0.513   6.231 -0.6402 -0.8272  0.0632
  139lim     li  895   0.699   1.952   5.879  0.5208 -0.6359  0.3375
  140lim     li  896   1.923   0.628   2.218  0.1913  0.1755 -0.0067
  141lim     li  897   2.232   1.892   0.535 -0.3461 -0.2068 -0.8535
  142lim     li  898   1.633   1.819   6.150  0.9614 -0.0372  0.4784
  143lim     li  899   1.352   0.079   1.121  0.0788 -0.7996 -0.0201
  144lim     li  900   0.968   0.190   4.523 -0.6843 -0.1074 -0.3791
  145lim     li  901   0.300   1.692   2.630 -0.1494  0.3424 -0.1891
  146lim     li  902   1.499   1.850   2.806 -0.0703  0.2892 -0.5855
  147lim     li  903   1.939   1.933   2.049 -0.7164  0.3412  0.6365
  148lim     li  904   2.023   1.883   1.200 -0.8470 -0.2455 -0.6529
  149lim     li  905   1.398   2.047   3.656 -0.7924 -0.0837 -1.2484
  150lim     li  906   0.671   1.750   3.902 -0.4676 -0.6252  0.5544
  151lim     li  907   0.743   2.047   2.134 -0.0722  1.0532 -0.6226
  152lim     li  908   0.160   1.494   6.271 -0.2190 -0.7390 -1.2099
  153lim     li  909   0.829   0.687   3.937 -0.3573  0.1190 -0.4577
  154lim     li  910   2.160   0.836   1.102 -1.3101  1.0204  0.0011
  155lim     li  911   0.081   1.045   4.732 -1.2424 -0.2339 -1.9803
  156lim     li  912   1.144   1.127   2.493 -1.4027  0.4341 -0.7152
  157lim     li  913   0.444   0.099   4.995  0.4941 -0.7613  0.2474
  158lim     li  914   0.413   1.130   0.652  1.1886  0.0795  0.1134
  159lim     li  915   1.743   0.452   3.787  0.2408  0.0078 -0.3187
  160lim     li  916   1.032   0.424   5.560  0.8809  1.0525  0.8147
  161lim     li  917   0.613   0.586   2.341  0.1715 -0.1923 -0.3615
  162lim     li  918   0.860   1.069   0.938 -0.5914  1.3823 -0.2091
  163ntf    cn1  919   1.198   2.073   5.639  0.2533 -0.1231  0.2026
  163ntf    sn2  920   1.216   1.892   5.638 -0.1265 -0.1644  0.7248
  163ntf    nn3  921   1.194   1.862   5.791  0.1468  0.1200  0.8211
  163ntf    sn2  922   1.064   1.809   5.861 -0.1862 -0.4066 -0.1772
  163ntf    cn1  923   1.057   1.637   5.804  0.5475 -0.3542 -0.4358
  163ntf    fn4  924   1.090   2.118   5.700 -0.3335 -0.6547 -0.4181
  163ntf    fn4  925   1.303   2.125   5.700  0.3462 -0.2441  0.1464
  163ntf    fn4  926   1.196   2.137   5.523 -0.2539 -0.0471  0.2517
  163ntf    on5  927   1.113   1.862   5.542 -0.1867 -0.1881  0.7968
  163ntf    on5  928   1.356   1.877   5.608 -0.1515  0.6231  0.1802
  163ntf    on5  929   0.940   1.878   5.834 -0.1768 -0.2383  0.2022
  163ntf    on5  930   1.095   1.791   6.001  0.8723  0.0301 -0.3451
  163ntf    fn4  931   0.961   1.575   5.870  0.0289  0.4407 -0.4318
  163ntf    fn4  932   1.040   1.628   5.673  0.0097  0.5125 -0.4319
  163ntf    fn4  933   1.164   1.574   5.850  0.3549 -0.3582  0.0018
  164ntf    cn1  934   1.465   1.393   6.097 -0.0429 -0.8345  0.1542
  164ntf    sn2  935   1.503   1.488   6.247  0.2621 -0.1488 -0.3517
  164ntf    nn3  936   1.653   1.450   6.273  0.2188 -0.2941 -0.3182
  164ntf    sn2  937   1.789   1.527   6.269  0.0762 -0.0369 -0.1895
  164ntf    cn1  938   1.829   1.539   6.446 -0.1378  0.1903 -0.1568
  164ntf    fn4  939   1.504   1.443   5.981  0.5732 -0.1123  0.6593
  164ntf    fn4  940   1.515   1.271   6.096  0.3059 -0.6931  0.4185
  164ntf    fn4  941   1.333   1.381   6.090 -0.0866 -0.2399 -0.1553
  164ntf    on5  942   1.490   1.626   6.206  0.3764 -0.0790 -0.1523
  164ntf    on5  943   1.401   1.445   6.340  0.4685  0.1558  0.0212
  164ntf    on5  944   1.783   1.667   6.234 -0.8794 -0.0034  0.0644
  164ntf    on5  945   1.888   1.438   6.215  0.2162  0.2522 -0.4138
  164ntf    fn4  946   1.722   1.585   6.510 -0.3122  0.6659 -0.7834
  164ntf    fn4  947   1.865   1.423   6.499 -0.3628  0.0452 -0.3203
  164ntf    fn4  948   1.925   1.623   6.481 -0.1274  0.0453  0.1686
  165ntf    cn1  949   2.245   0.126   0.874 -0.2463  0.2906 -0.3050
  165ntf    sn2  950   2.163   0.109   0.713 -0.1185  0.2367 -0.3644
  165ntf    nn3  951   2.033   0.037   0.762 -0.2145  0.7486  0.1391
  165ntf    sn2  952   1.894   0.040   0.689 -0.0964 -0.1522 -0.1317
  165ntf    cn1  953   1.935  -0.010   0.519  0.4836 -0.2240  0.0283
  165ntf    fn4  954   2.170   0.188   0.963 -0.2245  0.1045 -0.1573
  165ntf    fn4  955   2.287   0.012   0.927  0.3331  0.3277 -0.6711
  165ntf    fn4  956   2.355   0.198   0.858  0.2456 -0.2921  0.3488
  165ntf    on5  957   2.153   0.242   0.657  0.3629  0.5356  0.2521
  165ntf    on5  958   2.259   0.019   0.653 -0.0869  0.2751 -0.3716
  165ntf    on5  959   1.828   0.167   0.676  0.1152 -0.0598 -0.3112
  165ntf    on5  960   1.808  -0.070   0.728  0.1816 -0.3109  0.0341
  165ntf    fn4  961   1.822  -0.001   0.451  0.1717  0.1098  0.5898
  165ntf    fn4  962   2.028   0.065   0.460  0.4636 -0.0013  0.2778
  165ntf    fn4  963   1.975  -0.136   0.514  0.3120 -0.2733 -0.1220
  166ntf    cn1  964   2.053   1.559   2.571  0.1772  0.2480 -0.1937
  166ntf    sn2  965   2.150   1.419   2.634  0.2358  0.4198  0.0985
  166ntf    nn3  966   2.062   1.295   2.595  0.0289  0.5965  0.0090
  166ntf    sn2  967   1.967   1.205   2.682  0.5855 -0.2233 -0.2293
  166ntf    cn1  968   2.078   1.063   2.711 -0.0152 -0.5578  0.4599
  166ntf    fn4  969   2.014   1.542   2.446 -0.5650 -0.6804  0.1505
  166ntf    fn4  970   1.943   1.590   2.637  0.4494  0.6301  0.0852
  166ntf    fn4  971   2.145   1.655   2.571  0.2073  0.2237  0.4606
  166ntf    on5  972   2.279   1.422   2.569  0.2706 -0.1950  0.1295
  166ntf    on5  973   2.142   1.458   2.773  0.2773  0.5230  0.0726
  166ntf    on5  974   1.852   1.154   2.612  0.1508 -0.4219  0.6208
  166ntf    on5  975   1.934   1.252   2.815  0.0041  0.0480 -0.4660
  166ntf    fn4  976   2.148   1.040   2.602  0.3496 -0.1457  0.6054
  166ntf    fn4  977   2.167   1.089   2.805  0.6529  0.1443 -0.3443
  166ntf    fn4  978   2.020   0.951   2.749 -0.1497 -0.6203  0.0749
  167ntf    cn1  979   1.181   0.229   3.557 -0.3334  0.3025 -0.0616
  167ntf    sn2  980   1.252   0.116   3.434 -0.1513  0.3310  0.0161
  167ntf    nn3  981   1.275   0.217   3.316  0.1177  0.0361 -0.1866
  167ntf    sn2  982   1.274   0.189   3.162 -0.0674 -0.5600 -0.0803
  167ntf    cn1  983   1.104   0.242   3.123 -0.1772 -0.8393  0.0215
  167ntf    fn4  984   1.051   0.248   3.542 -0.2343  0.4772 -0.7391
  167ntf    fn4  985   1.190   0.176   3.678 -0.1337  0.6649  0.0855
  167ntf    fn4  986   1.256   0.339   3.562 -0.3526  0.3305 -0.3918
  167ntf    on5  987   1.377   0.068   3.487 -0.1953  0.3738  0.1574
  167ntf    on5  988   1.144   0.025   3.403  0.2356 -0.0457 -0.2467
  167ntf    on5  989   1.272   0.049   3.129  0.5079 -0.4828 -0.4690
  167ntf    on5  990   1.358   0.282   3.090 -0.5684 -0.2651 -0.2942
  167ntf    fn4  991   1.012   0.189   3.202 -0.7631  0.4581  0.2341
  167ntf    fn4  992   1.094   0.373   3.139  0.0214 -0.8143 -0.0556
  167ntf    fn4  993   1.063   0.218   3.000 -0.0031  0.1460 -0.2351
  168ntf    cn1  994   0.778   1.292   1.363  0.2970 -0.3160 -0.4641
  168ntf    sn2  995   0.596   1.290   1.361  0.2917 -0.4684  0.0996
  168ntf    nn3  996   0.575   1.443   1.333 -0.0001 -0.5875 -0.3605
  168ntf    sn2  997   0.551   1.533   1.207  0.2102 -0.0800 -0.0452
  168ntf    cn1  998   0.468   1.666   1.298 -0.3401 -0.1579 -0.4240
  168ntf    fn4  999   0.818   1.179   1.419  0.1832 -0.3260 -0.4021
  168ntf    fn4 1000   0.815   1.314   1.238 -0.5467 -0.0682 -0.6790
  168ntf    fn4 1001   0.830   1.395   1.427 -0.0265 -0.0309 -0.6573
  168ntf    on5 1002   0.567   1.204   1.248  0.1755 -0.1652 -0.1016
  168ntf    on5 1003   0.560   1.248   1.494  0.2870 -0.5477  0.0736
  168ntf    on5 1004   0.437   1.510   1.121 -0.3293 -0.5045  0.7704
  168ntf    on5 1005   0.674   1.592   1.160  0.1424  0.5978  0.6116
  168ntf    fn4 1006   0.352   1.626   1.347 -0.2497 -0.0085 -0.0847
  168ntf    fn4 1007   0.542   1.722   1.393 -0.8527  0.2588 -0.2649
  168ntf    fn4 1008   0.440   1.766   1.216 -0.3087 -0.1330 -0.4042
  169ntf    cn1 1009   0.245   0.919   1.317  0.0334  0.1389 -0.3502
  169ntf    sn2 1010   0.198   0.766   1.231  0.0457 -0.1252  0.1090
  169ntf    nn3 1011   0.194   0.672   1.356 -0.2081  0.4363  0.5258
  169ntf    sn2 1012   0.074   0.580   1.398 -0.2471  0.2161 -0.0615
  169ntf    cn1 1013  -0.005   0.679   1.530 -0.0185  0.2923  0.0177
  169ntf    fn4 1014   0.146   0.955   1.397 -0.1730  0.6314 -0.8167
  169ntf    fn4 1015   0.349   0.906   1.397 -0.3961  0.1886  0.2194
  169ntf    fn4 1016   0.281   1.027   1.249  0.3989  0.2971  0.0873
  169ntf    on5 1017   0.073   0.803   1.168  0.0915  0.1299  0.1665
  169ntf    on5 1018   0.308   0.742   1.142 -0.0877  0.3253 -0.1832
  169ntf    on5 1019   0.124   0.464   1.466  0.6816  0.0076 -1.0800
  169ntf    on5 1020  -0.022   0.552   1.294  0.0548  0.6599 -0.4642
  169ntf    fn4 1021  -0.113   0.612   1.564  0.0639  0.0737 -0.1419
  169ntf    fn4 1022   0.066   0.698   1.640 -0.3374 -0.5302  0.3742
  169ntf    fn4 1023  -0.045   0.795   1.481 -0.0338  0.1267 -0.3703
  170ntf    cn1 1024   1.226   1.388   2.027 -0.2177  0.2556 -0.1496
  170ntf    sn2 1025   1.319   1.544   2.038  0.4829 -0.1628 -0.0798
  170ntf    nn3 1026   1.249   1.658   1.956  0.3440 -0.0786  0.1532
  170ntf    sn2 1027   1.226   1.649   1.801  0.1070  0.3031  0.1643
  170ntf    cn1 1028   1.372   1.737   1.738  0.1287  0.4095  0.3628
  170ntf    fn4 1029   1.098   1.401   1.997 -0.3949 -0.2237  0.3924
  170ntf    fn4 1030   1.279   1.315   1.931  0.1240  0.5847 -0.2129
  170ntf    fn4 1031   1.232   1.315   2.137 -0.0771 -0.0588 -0.3671
  170ntf    on5 1032   1.310   1.576   2.179  0.0598  0.8756 -0.3294
  170ntf    on5 1033   1.459   1.520   2.012  0.4457 -0.2923 -0.1610
  170ntf    on5 1034   1.120   1.728   1.743  0.3461  0.6444  0.1882
  170ntf    on5 1035   1.246   1.520   1.740  0.0389  0.0104  0.7565
  170ntf    fn4 1036   1.485   1.684   1.780  0.1094  0.0596 -0.0178
  170ntf    fn4 1037   1.372   1.745   1.606  0.2004  0.0504  0.3406
  170ntf    fn4 1038   1.366   1.861   1.785 -0.2732  0.4359  0.2476
  171ntf    cn1 1039   0.514   0.824   5.584 -0.1585  0.0064  0.8301
  171ntf    sn2 1040   0.668   0.766   5.506 -0.4093  0.2868  0.1151
  171ntf    nn3 1041   0.629   0.789   5.356  0.6719  0.1270 -0.2030
  171ntf    sn2 1042   0.631   0.683   5.240 -0.4623 -0.2253  0.0845
  171ntf    cn1 1043   0.674   0.796   5.104  0.0421 -0.2193  0.2473
  171ntf    fn4 1044   0.500   0.955   5.590  0.4546  0.1141  0.1326
  171ntf    fn4 1045   0.419   0.755   5.524  0.5806 -0.2422 -0.0914
  171ntf    fn4 1046   0.527   0.782   5.709  0.0473 -0.1620  0.7534
  171ntf    on5 1047   0.763   0.865   5.550 -0.4655  0.6508 -0.5754
  171ntf    on5 1048   0.675   0.628   5.548  0.0641  0.0150 -0.8413
  171ntf    on5 1049   0.501   0.632   5.202 -0.1766 -0.8748 -0.0314
  171ntf    on5 1050   0.747   0.599   5.249 -0.6269 -0.4368  0.2291
  171ntf    fn4 1051   0.705   0.720   5.001 -0.4741  0.3381 -0.3330
  171ntf    fn4 1052   0.568   0.866   5.067  0.5013  0.6062  0.4704
  171ntf    fn4 1053   0.770   0.883   5.132 -0.1190 -0.1265  0.5269
  172ntf    cn1 1054   0.646   1.578   3.204  0.2125 -0.2131 -0.0045
  172ntf    sn2 1055   0.475   1.628   3.167  0.1386 -0.2525  0.2830
  172ntf    nn3 1056   0.398   1.499   3.211  0.8115 -0.6264  0.3770
  172ntf    sn2 1057   0.351   1.456   3.354  0.0030  0.0283  0.3147
  172ntf    cn1 1058   0.181   1.520   3.341  0.0428 -0.0116 -0.4422
  172ntf    fn4 1059   0.691   1.484   3.123 -0.0526  0.0268 -0.4355
  172ntf    fn4 1060   0.728   1.678   3.177 -0.1135 -0.1164 -0.6767
  172ntf    fn4 1061   0.666   1.540   3.329 -0.1546  0.1874  0.1788
  172ntf    on5 1062   0.468   1.746   3.251 -0.1935 -0.2176  0.2093
  172ntf    on5 1063   0.476   1.656   3.026 -0.5627  0.5110  0.4210
  172ntf    on5 1064   0.420   1.515   3.466  0.0731  0.7778 -0.1147
  172ntf    on5 1065   0.327   1.314   3.351 -0.0974  0.0583 -0.3277
  172ntf    fn4 1066   0.117   1.470   3.237 -0.3303 -0.0403 -0.2011
  172ntf    fn4 1067   0.104   1.484   3.442  0.1435  0.5180 -0.1706
  172ntf    fn4 1068   0.172   1.652   3.341 -0.1070 -0.0189  0.1001
  173ntf    cn1 1069   1.633   0.777   5.614  0.4939 -0.3702  0.1624
  173ntf    sn2 1070   1.534   0.656   5.521 -0.0240 -0.0087  0.2398
  173ntf    nn3 1071   1.394   0.726   5.515 -0.0152  0.0247  0.4143
  173ntf    sn2 1072   1.257   0.685   5.581 -0.1022 -0.0777  0.1739
  173ntf    cn1 1073   1.160   0.836   5.553 -0.1919 -0.1044  0.3359
  173ntf    fn4 1074   1.743   0.722   5.664  0.7105 -0.0142  0.0846
  173ntf    fn4 1075   1.665   0.881   5.539 -0.2005  0.0433  0.4311
  173ntf    fn4 1076   1.568   0.826   5.717 -0.3375  0.3298 -0.6775
  173ntf    on5 1077   1.614   0.656   5.401 -0.2101  0.5889  0.1141
  173ntf    on5 1078   1.534   0.536   5.602  0.3220  0.0089  0.2707
  173ntf    on5 1079   1.259   0.693   5.725  0.1135  0.5313  0.1413
  173ntf    on5 1080   1.175   0.586   5.517  0.0372 -0.1425  0.0939
  173ntf    fn4 1081   1.158   0.874   5.426  0.3717  0.0908  0.3799
  173ntf    fn4 1082   1.032   0.815   5.576 -0.3389  0.8026  0.3721
  173ntf    fn4 1083   1.207   0.943   5.614  0.1331 -0.3484  0.5134
  174ntf    cn1 1084   2.273   2.266   2.381 -0.1190 -0.0275 -0.2298
  174ntf    sn2 1085   2.454   2.289   2.375 -0.1073 -0.0387  0.0642
  174ntf    nn3 1086   2.481   2.380   2.249  0.0032 -0.1753 -0.0112
  174ntf    sn2 1087   2.513   2.533   2.233 -0.3088 -0.0971  0.0942
  174ntf    cn1 1088   2.345   2.589   2.193 -0.3368 -0.2805 -0.0466
  174ntf    fn4 1089   2.246   2.186   2.482 -0.2550  0.2397 -0.0529
  174ntf    fn4 1090   2.204   2.378   2.392 -0.0124 -0.0611  0.8272
  174ntf    fn4 1091   2.229   2.203   2.273  0.0238  0.1039 -0.3665
  174ntf    on5 1092   2.487   2.335   2.507 -0.0038 -0.8006  0.3041
  174ntf    on5 1093   2.496   2.154   2.347  0.0003 -0.0477  0.2698
  174ntf    on5 1094   2.587   2.549   2.110 -0.4402 -0.8526 -0.0897
  174ntf    on5 1095   2.550   2.609   2.350  0.4071 -0.4439  0.0992
  174ntf    fn4 1096   2.292   2.638   2.304 -0.5308  0.6376 -0.5280
  174ntf    fn4 1097   2.337   2.696   2.115  0.0753 -0.1175  0.1309
  174ntf    fn4 1098   2.273   2.487   2.150 -0.1669 -0.2373 -0.4467
  175ntf    cn1 1099   1.637   1.518   0.570 -0.2047 -0.0360  0.3100
  175ntf    sn2 1100   1.529   1.664   0.564 -0.1022  0.0476  0.4860
  175ntf    nn3 1101   1.410   1.603   0.646 -0.5930  0.1478 -0.1397
  175ntf    sn2 1102   1.400   1.610   0.803  0.2269 -0.0183 -0.0724
  175ntf    cn1 1103   1.335   1.777   0.832  0.4696  0.0007  0.3609
  175ntf    fn4 1104   1.577   1.416   0.510 -0.2793 -0.0697  0.4418
  175ntf    fn4 1105   1.750   1.540   0.506 -0.3433  0.1045  0.1139
  175ntf    fn4 1106   1.671   1.472   0.690 -0.9854 -0.7010  0.2859
  175ntf    on5 1107   1.598   1.774   0.627  0.0199  0.2133  0.0698
  175ntf    on5 1108   1.480   1.672   0.429 -0.2854 -0.2872  0.5316
  175ntf    on5 1109   1.519   1.590   0.881 -0.1347 -0.2575  0.4239
  175ntf    on5 1110   1.285   1.527   0.828  0.3263 -0.3170 -0.5909
  175ntf    fn4 1111   1.434   1.865   0.835  0.2085  0.3202 -0.2833
  175ntf    fn4 1112   1.257   1.817   0.734  0.3549 -0.0765  0.4215
  175ntf    fn4 1113   1.265   1.790   0.943  0.0220  0.1433  0.0636
  176ntf    cn1 1114   0.209   2.231   1.671  0.0056  0.4227 -0.0263
  176ntf    sn2 1115   0.317   2.296   1.540  0.0192  0.0590 -0.1953
  176ntf    nn3 1116   0.253   2.240   1.408 -0.3467 -0.4119  0.1793
  176ntf    sn2 1117   0.313   2.125   1.319 -0.2428 -0.1561 -0.0802
  176ntf    cn1 1118   0.394   2.230   1.195 -0.1389 -0.1062  0.0299
  176ntf    fn4 1119   0.249   2.279   1.788  0.0337  0.7102 -0.1511
  176ntf    fn4 1120   0.084   2.270   1.651 -0.1886 -0.1047  0.1448
  176ntf    fn4 1121   0.205   2.100   1.684 -0.2007  0.4517  0.2237
  176ntf    on5 1122   0.292   2.436   1.562 -0.2223  0.0144 -0.1845
  176ntf    on5 1123   0.446   2.248   1.583 -0.3769 -0.8568  0.0039
  176ntf    on5 1124   0.210   2.066   1.237  0.1405 -0.1854 -0.5422
  176ntf    on5 1125   0.415   2.040   1.374 -0.1402  0.0257  0.0121
  176ntf    fn4 1126   0.400   2.354   1.242 -0.0578  0.1940 -0.7469
  176ntf    fn4 1127   0.517   2.187   1.176 -0.0500  0.1515  0.0079
  176ntf    fn4 1128   0.330   2.232   1.079 -0.3101 -1.2278  0.1008
  177ntf    cn1 1129   0.590   1.209   2.362  0.1679  0.2223  0.1396
  177ntf    sn2 1130   0.679   1.241   2.207 -0.2313 -0.2188 -0.1823
  177ntf    nn3 1131   0.666   1.397   2.217 -0.0059 -0.2350  0.3623
  177ntf    sn2 1132   0.589   1.494   2.121 -0.0629 -0.2113  0.4315
  177ntf    cn1 1133   0.421   1.475   2.188 -0.2054  0.1023  0.1652
  177ntf    fn4 1134   0.490   1.293   2.387 -0.0555  0.0055 -0.0236
  177ntf    fn4 1135   0.548   1.084   2.371 -0.6924  0.4874 -0.0696
  177ntf    fn4 1136   0.679   1.229   2.458  0.2043 -0.4325  0.2454
  177ntf    on5 1137   0.819   1.208   2.218 -0.1832  0.3155  0.9016
  177ntf    on5 1138   0.601   1.169   2.110 -0.9760 -0.4231  0.5590
  177ntf    on5 1139   0.587   1.448   1.984  0.1943  0.5338  0.1734
  177ntf    on5 1140   0.624   1.631   2.150  0.7645 -0.1908 -0.5985
  177ntf    fn4 1141   0.334   1.557   2.131 -0.0898  0.0274 -0.1204
  177ntf    fn4 1142   0.380   1.351   2.167  0.3392 -0.0660  0.0827
  177ntf    fn4 1143   0.421   1.502   2.317 -0.7822  0.1754  0.1514
  178ntf    cn1 1144   1.956   2.231   5.809 -0.1263  0.0996 -0.0674
  178ntf    sn2 1145   1.823   2.145   5.899  0.0197 -0.1381 -0.0769
  178ntf    nn3 1146   1.859   2.179   6.048  0.4878 -0.0673 -0.2049
  178ntf    sn2 1147   1.852   2.079   6.169 -0.3488  0.1389 -0.0757
  178ntf    cn1 1148   2.020   2.009   6.164 -0.1996  0.5186 -0.4439
  178ntf    fn4 1149   1.940   2.361   5.821  0.3012  0.1344  0.1360
  178ntf    fn4 1150   2.076   2.196   5.852 -0.1893 -0.2051 -0.1377
  178ntf    fn4 1151   1.955   2.214   5.678  0.0605  0.1020 -0.0683
  178ntf    on5 1152   1.697   2.202   5.858 -0.0242 -0.1276  0.0735
  178ntf    on5 1153   1.844   2.008   5.857  0.5827 -0.1810  0.3481
  178ntf    on5 1154   1.766   1.966   6.145 -0.4185  0.2080 -0.1506
  178ntf    on5 1155   1.850   2.141   6.299 -0.1038  0.0891 -0.0461
  178ntf    fn4 1156   2.118   2.094   6.188  0.3299 -0.2257  0.0813
  178ntf    fn4 1157   2.031   1.918   6.259  0.4064  0.4040 -0.6225
  178ntf    fn4 1158   2.051   1.947   6.051 -0.5095  0.0306 -0.2647
  179ntf    cn1 1159   1.152   0.724   4.295  0.0055 -0.0220 -0.0563
  179ntf    sn2 1160   1.171   0.661   4.126  0.1006 -0.0655 -0.0291
  179ntf    nn3 1161   1.215   0.516   4.167 -0.5141 -0.1069  0.4963
  179ntf    sn2 1162   1.170   0.384   4.094 -0.2084 -0.0666  0.2279
  179ntf    cn1 1163   1.313   0.278   4.129  0.0020  0.0820 -0.1788
  179ntf    fn4 1164   1.269   0.743   4.355 -0.2011  0.9921  0.0461
  179ntf    fn4 1165   1.101   0.846   4.302  0.0049  0.0381 -1.0279
  179ntf    fn4 1166   1.080   0.638   4.365 -0.0304 -0.2115 -0.3283
  179ntf    on5 1167   1.039   0.673   4.070  0.0374  0.0254  0.1407
  179ntf    on5 1168   1.268   0.742   4.056  0.1199  0.4220  0.5497
  179ntf    on5 1169   1.171   0.389   3.950  0.2262 -0.1669  0.2274
  179ntf    on5 1170   1.066   0.319   4.171 -0.0534  0.2084  0.6745
  179ntf    fn4 1171   1.300   0.153   4.088 -0.0447  0.0213  0.0170
  179ntf    fn4 1172   1.426   0.320   4.074 -0.1157  0.4013 -0.1753
  179ntf    fn4 1173   1.333   0.279   4.260 -0.0941  0.3142 -0.1654
  180ntf    cn1 1174   1.945   0.877   1.699  0.2640  0.2899  0.3684
  180ntf    sn2 1175   1.941   0.966   1.857  0.1163  0.0412  0.5046
  180ntf    nn3 1176   1.874   0.854   1.945  0.4769 -0.6556 -0.0979
  180ntf    sn2 1177   1.766   0.873   2.057  0.4336 -0.0468 -0.2366
  180ntf    cn1 1178   1.613   0.861   1.960  0.1995  0.1877  0.0992
  180ntf    fn4 1179   1.831   0.824   1.659  0.3369  0.5305 -0.1713
  180ntf    fn4 1180   1.985   0.936   1.587 -0.2145 -0.1549 -0.0426
  180ntf    fn4 1181   2.028   0.775   1.710 -0.0086 -0.0041 -0.2308
  180ntf    on5 1182   2.072   1.011   1.898  0.1363  0.5267 -0.0885
  180ntf    on5 1183   1.847   1.071   1.826  0.0359 -0.3511 -0.6295
  180ntf    on5 1184   1.745   1.003   2.117 -0.3421 -0.0950 -0.3932
  180ntf    on5 1185   1.774   0.756   2.141 -0.3158  0.8997  1.1995
  180ntf    fn4 1186   1.579   0.739   1.922  0.6447  0.1941 -0.3417
  180ntf    fn4 1187   1.511   0.895   2.036  0.4101 -0.1963  0.5599
  180ntf    fn4 1188   1.609   0.949   1.862  0.7432  0.0981 -0.0061
  181ntf    cn1 1189   2.058   1.423   0.549  0.0692  0.5633  0.5063
  181ntf    sn2 1190   2.219   1.401   0.631  0.2178  0.0452  0.0839
  181ntf    nn3 1191   2.265   1.285   0.536  0.8899  0.3532  0.0239
  181ntf    sn2 1192   2.320   1.142   0.573 -0.1973 -0.1924 -0.4103
  181ntf    cn1 1193   2.277   1.059   0.417 -0.1659 -0.7259 -0.1346
  181ntf    fn4 1194   1.984   1.516   0.608  0.1198  1.0059 -0.1074
  181ntf    fn4 1195   2.068   1.463   0.423  0.5659  0.0054  0.3666
  181ntf    fn4 1196   1.984   1.314   0.547  0.6391  0.1764 -0.6245
  181ntf    on5 1197   2.290   1.523   0.599 -0.5250  0.4505 -0.0482
  181ntf    on5 1198   2.189   1.374   0.769 -0.0972  0.2765  0.0629
  181ntf    on5 1199   2.248   1.065   0.671  0.3433 -0.1784  0.0002
  181ntf    on5 1200   2.464   1.141   0.567 -0.2107 -0.4710 -0.7239
  181ntf    fn4 1201   2.153   1.083   0.376 -0.0277 -0.2869 -0.2906
  181ntf    fn4 1202   2.350   1.109   0.320  0.0465 -0.1815  0.3025
  181ntf    fn4 1203   2.290   0.927   0.422  0.1115 -0.6680  0.8762
  182ntf    cn1 1204   2.063   1.126   3.981  0.2634  0.0983 -0.1004
  182ntf    sn2 1205   2.101   1.200   4.143 -0.0645 -0.0054  0.0223
  182ntf    nn3 1206   1.972   1.153   4.220 -0.1296  0.2510  0.0701
  182ntf    sn2 1207   1.831   1.222   4.221 -0.1166  0.2820 -0.1389
  182ntf    cn1 1208   1.734   1.101   4.316 -0.1235  0.2906 -0.1352
  182ntf    fn4 1209   2.169   1.146   3.904  0.6464 -0.1346  0.3594
  182ntf    fn4 1210   2.037   0.997   3.978  0.3599  0.0720  0.1523
  182ntf    fn4 1211   1.963   1.182   3.915  0.1338 -0.1766 -0.1352
  182ntf    on5 1212   2.217   1.128   4.188 -0.3803 -0.3514  0.2986
  182ntf    on5 1213   2.104   1.340   4.110  0.7458  0.0334  0.2609
  182ntf    on5 1214   1.760   1.233   4.096 -0.0483 -0.1182 -0.2148
  182ntf    on5 1215   1.827   1.336   4.309 -0.4525 -0.2585  0.5590
  182ntf    fn4 1216   1.607   1.137   4.325  0.0964  1.1081 -0.2197
  182ntf    fn4 1217   1.739   0.977   4.269 -1.1431  0.1255  0.1705
  182ntf    fn4 1218   1.770   1.088   4.443 -1.0561 -0.1379  0.0971
  183ntf    cn1 1219   1.766   1.299   5.433  0.0289  0.1993 -0.4395
  183ntf    sn2 1220   1.688   1.460   5.399 -0.2293  0.1554 -0.0624
  183ntf    nn3 1221   1.805   1.534   5.325 -0.9508  0.8603 -0.5095
  183ntf    sn2 1222   1.838   1.534   5.172  0.2893 -0.1543 -0.2622
  183ntf    cn1 1223   1.717   1.658   5.116 -0.2292 -0.4401  0.2165
  183ntf    fn4 1224   1.695   1.220   5.512  0.3949  0.0763 -0.2300
  183ntf    fn4 1225   1.774   1.233   5.319  0.5349 -0.2756 -0.1342
  183ntf    fn4 1226   1.883   1.312   5.495 -0.1069  0.6353 -0.2650
  183ntf    on5 1227   1.569   1.422   5.328 -0.2172  0.0245 -0.0117
  183ntf    on5 1228   1.658   1.511   5.531  0.4447  0.7553 -0.1338
  183ntf    on5 1229   1.811   1.416   5.094  0.2302 -0.0396 -0.4175
  183ntf    on5 1230   1.962   1.600   5.138  0.6078 -0.6838 -0.1248
  183ntf    fn4 1231   1.741   1.700   4.993 -0.5787 -0.4635  0.1383
  183ntf    fn4 1232   1.596   1.606   5.106 -0.3919  0.0034 -0.1663
  183ntf    fn4 1233   1.700   1.767   5.189 -0.1772 -0.4086  0.1818
  184ntf    cn1 1234   0.670   1.640   0.220  0.0988 -0.3705  0.0612
  184ntf    sn2 1235   0.665   1.822   0.221 -0.0904 -0.3748 -0.0829
  184ntf    nn3 1236   0.510   1.833   0.203 -0.0673 -0.1753 -0.1627
  184ntf    sn2 1237   0.409   1.886   0.311  0.3060  0.1246  0.0411
  184ntf    cn1 1238   0.361   2.051   0.250  0.2421  0.1045  0.0365
  184ntf    fn4 1239   0.794   1.598   0.237  0.2079 -0.2611 -0.4453
  184ntf    fn4 1240   0.598   1.589   0.319 -0.3226 -0.2273 -0.1687
  184ntf    fn4 1241   0.634   1.574   0.111  0.5797 -0.5156 -0.0113
  184ntf    on5 1242   0.730   1.855   0.345  0.0083  0.8325 -0.4422
  184ntf    on5 1243   0.740   1.853   0.101 -0.2945 -0.2093 -0.1670
  184ntf    on5 1244   0.454   1.920   0.444 -0.2196 -0.0115  0.2580
  184ntf    on5 1245   0.281   1.821   0.300  0.2465  0.2505 -0.0163
  184ntf    fn4 1246   0.267   2.050   0.157  0.3479 -0.2798 -0.0698
  184ntf    fn4 1247   0.311   2.114   0.354 -0.2159 -0.5098  0.1967
  184ntf    fn4 1248   0.464   2.122   0.206  0.1812  0.3604  0.3142
  185ntf    cn1 1249   1.045   0.397   0.156 -0.2037 -0.4765 -0.0460
  185ntf    sn2 1250   1.072   0.394  -0.023  0.2276  0.0308  0.0069
  185ntf    nn3 1251   1.040   0.243  -0.053 -0.0826  0.1035 -0.0302
  185ntf    sn2 1252   1.138   0.121  -0.048 -0.0366  0.1469  0.1278
  185ntf    cn1 1253   1.170   0.088  -0.224  0.0375  0.1443  0.1423
  185ntf    fn4 1254   1.150   0.372   0.234  0.1245  0.1131 -0.2925
  185ntf    fn4 1255   0.995   0.515   0.188  0.3657 -0.0726 -0.6331
  185ntf    fn4 1256   0.952   0.310   0.193 -0.6663 -0.3209 -0.8229
  185ntf    on5 1257   0.981   0.488  -0.083  0.0249 -0.0072  0.2532
  185ntf    on5 1258   1.208   0.437  -0.041  0.0432  0.6555  0.0676
  185ntf    on5 1259   1.072  -0.001  -0.006  0.5195  0.0535  0.7443
  185ntf    on5 1260   1.265   0.136   0.017  0.0053 -0.0789  0.1005
  185ntf    fn4 1261   1.221  -0.032  -0.245 -0.0175  0.1428  0.0188
  185ntf    fn4 1262   1.063   0.105  -0.299  0.1847  0.2053 -0.0562
  185ntf    fn4 1263   1.255   0.178  -0.272 -0.0418  0.0789 -0.1212
  186ntf    cn1 1264   2.046   1.866   3.300  0.2995  0.2888  0.5425
  186ntf    sn2 1265   1.906   1.947   3.382 -0.2040 -0.0289  0.0023
  186ntf    nn3 1266   1.869   2.062   3.282 -0.1693 -0.2891 -0.3104
  186ntf    sn2 1267   1.821   2.208   3.318  0.0110 -0.3661  0.2439
  186ntf    cn1 1268   1.988   2.278   3.337  0.0874 -0.4629 -0.0570
  186ntf    fn4 1269   2.145   1.953   3.284  0.2072  0.1799 -0.6757
  186ntf    fn4 1270   2.096   1.754   3.351  0.4519  0.1797  0.1562
  186ntf    fn4 1271   2.000   1.832   3.181  0.6023 -0.1537  0.5495
  186ntf    on5 1272   1.812   1.839   3.400 -0.2680 -0.0233 -0.2970
  186ntf    on5 1273   1.975   1.975   3.506 -0.3286  0.1719  0.0268
  186ntf    on5 1274   1.760   2.218   3.448 -1.0037  0.4482 -0.2886
  186ntf    on5 1275   1.769   2.285   3.209 -0.0682 -0.4326  0.2350
  186ntf    fn4 1276   2.069   2.232   3.243 -0.0613  0.0261 -0.4253
  186ntf    fn4 1277   1.992   2.409   3.319 -0.0494 -0.5495 -0.7200
  186ntf    fn4 1278   2.045   2.247   3.453  0.5893 -0.1233 -0.2134
  187ntf    cn1 1279   0.034   1.471   4.418  0.2812  0.3546 -0.1728
  187ntf    sn2 1280   0.155   1.525   4.543 -0.1822  0.1352  0.3768
  187ntf    nn3 1281   0.283   1.440   4.510 -0.3364 -0.1030  0.3898
  187ntf    sn2 1282   0.403   1.503   4.433 -0.4729  0.0123  0.2707
  187ntf    cn1 1283   0.493   1.360   4.364 -0.5153  0.0603  0.1160
  187ntf    fn4 1284   0.053   1.342   4.397 -0.2944  0.3550 -0.7213
  187ntf    fn4 1285  -0.090   1.510   4.446  0.3277  0.3115  0.1009
  187ntf    fn4 1286   0.050   1.532   4.302  0.1500  0.6043 -0.0612
  187ntf    on5 1287   0.157   1.667   4.521 -0.1156  0.0285 -0.3250
  187ntf    on5 1288   0.102   1.478   4.669 -0.2175  0.1096  0.3522
  187ntf    on5 1289   0.500   1.555   4.526 -0.0322  0.5440 -0.4737
  187ntf    on5 1290   0.371   1.582   4.316  0.0116  0.3642  0.3721
  187ntf    fn4 1291   0.494   1.255   4.443  0.1942  0.1795  0.2714
  187ntf    fn4 1292   0.446   1.327   4.245 -0.5097  0.3174  0.0401
  187ntf    fn4 1293   0.615   1.409   4.346 -0.2238 -0.6462  0.1558
  188ntf    cn1 1294   0.021   1.570   5.141 -0.1959 -0.4809 -0.3106
  188ntf    sn2 1295   0.141   1.449   5.204  0.1607  0.2451  0.4137
  188ntf    nn3 1296   0.275   1.530   5.220  0.5876 -0.3547 -0.1143
  188ntf    sn2 1297   0.328   1.615   5.340  0.1875 -0.2454 -0.0170
  188ntf    cn1 1298   0.342   1.778   5.259  0.3997 -0.2915 -0.0729
  188ntf    fn4 1299  -0.030   1.636   5.244 -0.1266 -0.6955 -0.1358
  188ntf    fn4 1300   0.086   1.654   5.064 -0.0120 -0.2374  0.1082
  188ntf    fn4 1301  -0.075   1.514   5.069 -0.3038 -0.2676 -0.3341
  188ntf    on5 1302   0.084   1.414   5.332 -0.2254  0.0552  0.1898
  188ntf    on5 1303   0.161   1.346   5.105 -0.1456  0.4812  0.1052
  188ntf    on5 1304   0.465   1.587   5.374  0.2633  0.0502 -0.0749
  188ntf    on5 1305   0.239   1.643   5.451 -0.1036  0.3581 -0.3937
  188ntf    fn4 1306   0.413   1.767   5.148  0.1561 -0.6831 -0.1918
  188ntf    fn4 1307   0.220   1.824   5.240  0.7358  0.5221 -0.2854
  188ntf    fn4 1308   0.398   1.867   5.339  0.0297 -0.3259  0.2300
  189ntf    cn1 1309   1.064   0.313   0.916  0.4009 -0.2173 -0.0426
  189ntf    sn2 1310   1.100   0.136   0.938  0.0866 -0.2695  0.0600
  189ntf    nn3 1311   1.008   0.107   1.063 -0.2633  0.2329 -0.0767
  189ntf    sn2 1312   0.859   0.057   1.067 -0.1196 -0.1952  0.0231
  189ntf    cn1 1313   0.800   0.150   1.212  0.0570 -0.4750  0.2766
  189ntf    fn4 1314   1.112   0.348   0.798  0.1407 -0.8418 -0.3397
  189ntf    fn4 1315   0.941   0.361   0.920  0.2869 -0.4906 -0.2346
  189ntf    fn4 1316   1.129   0.386   1.005 -0.0021  0.3388 -0.1998
  189ntf    on5 1317   1.049   0.090   0.811 -0.3644 -0.2039  0.2145
  189ntf    on5 1318   1.242   0.132   0.966  0.0399 -0.5482  0.2685
  189ntf    on5 1319   0.837  -0.077   1.114 -0.1226 -0.3575 -0.4347
  189ntf    on5 1320   0.777   0.109   0.961 -0.2549  0.1552  0.2971
  189ntf    fn4 1321   0.888   0.173   1.307  0.4711 -0.6002 -0.0742
  189ntf    fn4 1322   0.753   0.271   1.185  0.4184 -0.4800 -0.4007
  189ntf    fn4 1323   0.698   0.090   1.271  0.0973 -0.3449  0.4783
  190ntf    cn1 1324   1.754   1.949   1.547 -0.0541 -0.2577 -0.0844
  190ntf    sn2 1325   1.731   1.966   1.367  0.3240  0.2346 -0.0874
  190ntf    nn3 1326   1.736   2.123   1.368  0.6664  0.2261  0.2712
  190ntf    sn2 1327   1.628   2.231   1.405  0.8111  0.3939  0.2066
  190ntf    cn1 1328   1.738   2.341   1.500  0.5688  0.4587  0.4129
  190ntf    fn4 1329   1.858   2.015   1.596  0.2759 -0.5865 -0.3408
  190ntf    fn4 1330   1.648   1.991   1.615 -0.1633 -0.2349 -0.2688
  190ntf    fn4 1331   1.774   1.824   1.583 -0.3445 -0.2895 -0.0369
  190ntf    on5 1332   1.853   1.913   1.312 -0.0323 -0.1702 -0.4895
  190ntf    on5 1333   1.608   1.910   1.320  0.3924  0.1766 -0.1960
  190ntf    on5 1334   1.524   2.193   1.497  0.3154  0.0508 -0.4909
  190ntf    on5 1335   1.579   2.305   1.292 -0.4152  0.0632  0.5076
  190ntf    fn4 1336   1.663   2.439   1.548 -0.2937 -0.1273  0.2797
  190ntf    fn4 1337   1.787   2.271   1.601  0.0984 -0.2103  0.1836
  190ntf    fn4 1338   1.835   2.392   1.427  0.3946 -0.1324 -0.2432
  191ntf    cn1 1339   1.125   0.661   1.581  0.1293 -0.2181  0.1188
  191ntf    sn2 1340   1.016   0.690   1.725 -0.0146  0.5197 -0.1362
  191ntf    nn3 1341   0.920   0.572   1.689  0.5518  0.1565 -0.4859
  191ntf    sn2 1342   0.921   0.423   1.739  0.1467  0.1321 -0.5412
  191ntf    cn1 1343   0.965   0.333   1.587 -0.0743 -0.2863 -0.3602
  191ntf    fn4 1344   1.205   0.764   1.558 -0.0821 -0.0390  0.1796
  191ntf    fn4 1345   1.208   0.560   1.600  0.5648  0.1448  0.1700
  191ntf    fn4 1346   1.062   0.634   1.468 -0.0243  0.5043  0.0301
  191ntf    on5 1347   1.103   0.701   1.840  0.0250  0.9252 -0.2027
  191ntf    on5 1348   0.946   0.811   1.689 -0.1559  0.4837  0.0207
  191ntf    on5 1349   0.795   0.369   1.784  0.2073  0.3362 -0.1232
  191ntf    on5 1350   1.031   0.391   1.827 -0.5060 -0.4140  0.0896
  191ntf    fn4 1351   1.076   0.373   1.528 -0.1036  0.1518 -0.1213
  191ntf    fn4 1352   0.978   0.202   1.593 -0.1002 -0.2502  0.5520
  191ntf    fn4 1353   0.866   0.351   1.500 -0.4175  0.4213  0.1693
  192ntf    cn1 1354   0.001   0.421   3.386  0.3472  0.6448  0.1698
  192ntf    sn2 1355  -0.150   0.504   3.328 -0.0946 -0.0686  0.2972
  192ntf    nn3 1356  -0.167   0.455   3.180  0.4031  0.7299 -0.0265
  192ntf    sn2 1357  -0.118   0.520   3.046  0.0449 -0.0173 -0.5229
  192ntf    cn1 1358  -0.264   0.619   2.999 -0.1428  0.1257  0.3539
  192ntf    fn4 1359  -0.031   0.297   3.419  0.6446  0.5708  0.1835
  192ntf    fn4 1360   0.105   0.411   3.305 -0.2585 -0.0646 -0.5316
  192ntf    fn4 1361   0.049   0.469   3.500  0.2950  0.2933  0.3384
  192ntf    on5 1362  -0.245   0.444   3.420  0.2262 -1.1764 -0.0748
  192ntf    on5 1363  -0.132   0.645   3.350 -0.6403 -0.0051  0.3698
  192ntf    on5 1364  -0.095   0.423   2.942 -0.3641 -0.3146 -0.3373
  192ntf    on5 1365  -0.022   0.626   3.062  0.0595 -0.1950  0.6431
  192ntf    fn4 1366  -0.251   0.659   2.874 -0.1980 -0.4581  0.1555
  192ntf    fn4 1367  -0.377   0.551   2.995 -0.0999  0.0913 -0.2765
  192ntf    fn4 1368  -0.274   0.732   3.067 -0.0143 -0.0353  0.6458
  193ntf    cn1 1369   1.481   1.392   3.473  0.2111 -0.2121 -0.0400
  193ntf    sn2 1370   1.560   1.238   3.419  0.2404 -0.2605  0.1420
  193ntf    nn3 1371   1.624   1.184   3.552 -0.3630 -0.4686  0.3503
  193ntf    sn2 1372   1.685   1.040   3.565  0.3253 -0.2241 -0.1159
  193ntf    cn1 1373   1.564   0.966   3.679  0.1186 -0.2918 -0.3776
  193ntf    fn4 1374   1.387   1.363   3.562  0.2927  0.1983  0.1836
  193ntf    fn4 1375   1.555   1.487   3.528 -0.1253  0.0247  0.0076
  193ntf    fn4 1376   1.409   1.444   3.374  0.2938  0.1538  0.0906
  193ntf    on5 1377   1.442   1.165   3.382 -0.1753  0.4747  0.0041
  193ntf    on5 1378   1.656   1.275   3.318 -0.2071 -0.0712 -0.2113
  193ntf    on5 1379   1.804   1.039   3.647 -0.4132  0.8832  1.0129
  193ntf    on5 1380   1.676   0.955   3.449  0.8583 -0.5253  0.0571
  193ntf    fn4 1381   1.559   0.834   3.676  0.1894 -0.2792 -1.1098
  193ntf    fn4 1382   1.591   1.000   3.804  0.0527 -0.1259 -0.4076
  193ntf    fn4 1383   1.443   1.013   3.652  0.0978  0.2985  0.6871
  194ntf    cn1 1384   0.589   0.387   4.475 -0.0226 -0.0273 -0.0178
  194ntf    sn2 1385   0.612   0.210   4.508 -0.2746 -0.0883 -0.1644
  194ntf    nn3 1386   0.553   0.154   4.373 -0.8191  0.0988 -0.0086
  194ntf    sn2 1387   0.594   0.027   4.292 -0.2430  0.2353  0.0632
  194ntf    cn1 1388   0.708   0.118   4.183 -0.0090  0.5779  0.5893
  194ntf    fn4 1389   0.602   0.469   4.578  0.3150 -0.4540  0.2826
  194ntf    fn4 1390   0.669   0.424   4.376  0.0668  0.0206  0.0727
  194ntf    fn4 1391   0.469   0.416   4.427 -0.0467 -0.5270 -0.2696
  194ntf    on5 1392   0.755   0.193   4.514 -0.3265 -0.4468  0.0783
  194ntf    on5 1393   0.534   0.182   4.626 -0.4082  0.2172 -0.1786
  194ntf    on5 1394   0.494  -0.037   4.211 -0.2006  0.4880 -0.1941
  194ntf    on5 1395   0.692  -0.060   4.354  0.3272  0.7483 -0.1034
  194ntf    fn4 1396   0.786   0.040   4.110 -0.4932  0.5867  0.0567
  194ntf    fn4 1397   0.649   0.207   4.104  0.5399  0.2141 -0.2425
  194ntf    fn4 1398   0.795   0.196   4.245  0.2734  0.3960  0.4187
  195ntf    cn1 1399   1.107   1.738   2.811  0.2237 -0.0752 -0.0299
  195ntf    sn2 1400   1.219   1.734   2.954 -0.0769  0.1006  0.2089
  195ntf    nn3 1401   1.168   1.600   3.019  0.6528 -0.1945  0.1766
  195ntf    sn2 1402   1.185   1.460   2.952 -0.1745 -0.1887 -0.0474
  195ntf    cn1 1403   1.299   1.406   3.083  0.3214  0.1454 -0.3390
  195ntf    fn4 1404   0.987   1.687   2.829 -0.0854  0.7253  0.2019
  195ntf    fn4 1405   1.089   1.861   2.765  0.1870  0.1156  0.4876
  195ntf    fn4 1406   1.170   1.675   2.712 -0.0070  0.0096 -0.2327
  195ntf    on5 1407   1.351   1.745   2.897  0.1524 -0.0885  0.6942
  195ntf    on5 1408   1.174   1.845   3.035 -0.4028  0.0993  0.0344
  195ntf    on5 1409   1.262   1.463   2.830 -0.4963  0.2907 -0.2413
  195ntf    on5 1410   1.073   1.368   2.958 -0.0196 -0.4045 -0.4391
  195ntf    fn4 1411   1.249   1.440   3.200  0.0935  0.1485 -0.4356
  195ntf    fn4 1412   1.325   1.276   3.089 -0.6097 -0.0312  0.1040
  195ntf    fn4 1413   1.417   1.464   3.072  0.0244  0.7810 -0.2073
  196ntf    cn1 1414   0.235   0.209   0.080  0.3400  0.2062 -0.2151
  196ntf    sn2 1415   0.238   0.390   0.062 -0.1634  0.2248 -0.1344
  196ntf    nn3 1416   0.291   0.431   0.205 -0.0823  0.1181 -0.1338
  196ntf    sn2 1417   0.293   0.570   0.278  0.2417  0.0971 -0.1028
  196ntf    cn1 1418   0.122   0.579   0.339  0.3114 -0.2129  0.1400
  196ntf    fn4 1419   0.347   0.150   0.119 -0.0196  0.1947  0.8419
  196ntf    fn4 1420   0.137   0.168   0.158 -0.0397  0.2592 -0.6602
  196ntf    fn4 1421   0.215   0.144  -0.033  0.7087  0.3150 -0.3427
  196ntf    on5 1422   0.331   0.421  -0.043  0.0758  0.3661  0.1170
  196ntf    on5 1423   0.100   0.428   0.043 -0.2907 -0.3229 -0.3003
  196ntf    on5 1424   0.293   0.686   0.192 -0.2877  0.1559 -0.0285
  196ntf    on5 1425   0.375   0.575   0.396 -0.3248 -0.2410  0.3099
  196ntf    fn4 1426   0.100   0.701   0.386  0.3900 -0.2113  0.1733
  196ntf    fn4 1427   0.032   0.554   0.246  0.7317 -0.3193 -0.2388
  196ntf    fn4 1428   0.095   0.500   0.442 -0.3974  0.1324  0.2287
  197ntf    cn1 1429   0.743   0.752   3.543 -0.0058 -0.1044 -0.3573
  197ntf    sn2 1430   0.779   0.883   3.664 -0.3118  0.0010 -0.3807
  197ntf    nn3 1431   0.645   0.965   3.650 -0.8274 -0.7125  0.2345
  197ntf    sn2 1432   0.599   1.093   3.727 -0.5879 -0.3668 -0.1897
  197ntf    cn1 1433   0.537   1.184   3.583 -0.2900  0.3452  0.1266
  197ntf    fn4 1434   0.642   0.677   3.582  0.0810  0.2199  0.5265
  197ntf    fn4 1435   0.719   0.804   3.424  0.3606  0.1396 -0.3267
  197ntf    fn4 1436   0.844   0.668   3.524  0.0420 -0.1661  0.1591
  197ntf    on5 1437   0.796   0.808   3.786  0.0530  0.1244 -0.3549
  197ntf    on5 1438   0.888   0.953   3.601  0.4135 -0.5002  0.2925
  197ntf    on5 1439   0.713   1.166   3.778 -0.3571 -0.7628 -0.1304
  197ntf    on5 1440   0.482   1.089   3.812  0.0460 -0.8488  0.6709
  197ntf    fn4 1441   0.430   1.128   3.530 -0.1083 -0.0144  0.1341
  197ntf    fn4 1442   0.505   1.307   3.620  0.1213  0.5697 -0.2443
  197ntf    fn4 1443   0.628   1.195   3.487 -0.1961  0.3291  0.2135
  198ntf    cn1 1444   1.167   0.519   2.650  0.2714  0.0065  0.1950
  198ntf    sn2 1445   1.280   0.662   2.656  0.4401 -0.1152 -0.0603
  198ntf    nn3 1446   1.183   0.785   2.663  0.5451 -0.0448  0.1853
  198ntf    sn2 1447   1.220   0.917   2.739  0.0001  0.4746 -0.4394
  198ntf    cn1 1448   1.099   0.903   2.873  0.0911 -0.0557 -0.4122
  198ntf    fn4 1449   1.095   0.520   2.540  0.5492 -0.1571  0.0112
  198ntf    fn4 1450   1.237   0.407   2.663 -0.7453 -0.5825  0.7314
  198ntf    fn4 1451   1.082   0.506   2.751 -0.1669  1.1878 -0.0062
  198ntf    on5 1452   1.344   0.630   2.781 -0.6497 -0.0070  0.5462
  198ntf    on5 1453   1.363   0.659   2.539  0.6520 -0.1209  0.0888
  198ntf    on5 1454   1.167   1.028   2.662  0.0530  0.7938 -0.0179
  198ntf    on5 1455   1.354   0.928   2.790 -0.0178 -0.0394 -0.2826
  198ntf    fn4 1456   0.970   0.906   2.842 -0.0809  0.2355  0.2960
  198ntf    fn4 1457   1.111   0.793   2.946 -0.3353 -0.2194 -0.5862
  198ntf    fn4 1458   1.126   1.001   2.958  0.1374 -0.1223 -0.3499
  199ntf    cn1 1459   0.923   2.037   2.507  0.1888  0.2858  0.2405
  199ntf    sn2 1460   0.794   2.150   2.447 -0.1098 -0.0450  0.2587
  199ntf    nn3 1461   0.885   2.274   2.417 -0.2457 -0.1000 -0.4005
  199ntf    sn2 1462   0.860   2.409   2.340 -0.0914  0.1457 -0.0203
  199ntf    cn1 1463   0.939   2.538   2.440 -0.3289 -0.1993  0.6196
  199ntf    fn4 1464   0.870   1.937   2.576 -0.2096  0.0694 -0.3671
  199ntf    fn4 1465   0.995   1.988   2.408 -0.3437  0.1424 -0.0767
  199ntf    fn4 1466   1.011   2.100   2.584  0.2775  0.2253  0.1888
  199ntf    on5 1467   0.749   2.076   2.331  0.3208 -0.0966  0.1241
  199ntf    on5 1468   0.709   2.163   2.562  0.3664 -0.6675  0.6882
  199ntf    on5 1469   0.729   2.465   2.319  0.0332  0.3212 -0.3296
  199ntf    on5 1470   0.952   2.421   2.230  0.4308 -0.5142  0.3329
  199ntf    fn4 1471   1.070   2.518   2.448 -0.3022 -0.6271 -0.6657
  199ntf    fn4 1472   0.925   2.661   2.393 -0.3546 -0.6859 -0.6571
  199ntf    fn4 1473   0.889   2.545   2.563 -0.2378  0.8562  0.6066
  200ntf    cn1 1474   0.145   2.151   5.654  0.0127  0.4092 -0.6694
  200ntf    sn2 1475   0.258   2.084   5.780 -0.4926  0.5337 -0.1391
  200ntf    nn3 1476   0.340   2.215   5.807 -0.5682  0.3305  1.1276
  200ntf    sn2 1477   0.486   2.223   5.864 -0.1692 -0.0454  0.1775
  200ntf    cn1 1478   0.444   2.253   6.038 -0.3731  0.6508  0.0110
  200ntf    fn4 1479   0.069   2.052   5.611  0.5639 -0.5557  0.5110
  200ntf    fn4 1480   0.062   2.241   5.704 -0.0456  0.0660 -0.1303
  200ntf    fn4 1481   0.212   2.206   5.555  0.0244  0.5463 -0.5858
  200ntf    on5 1482   0.187   2.037   5.896 -0.2794  0.4248 -0.0520
  200ntf    on5 1483   0.327   1.980   5.707 -0.6459  0.7962 -0.6605
  200ntf    on5 1484   0.557   2.341   5.822  0.0346 -0.2955 -0.1863
  200ntf    on5 1485   0.561   2.100   5.874  0.2189  0.1913  0.2147
  200ntf    fn4 1486   0.342   2.332   6.065 -1.1134 -0.1661 -0.3603
  200ntf    fn4 1487   0.409   2.139   6.095 -0.7101  0.4944 -0.4988
  200ntf    fn4 1488   0.545   2.303   6.108 -0.4758  0.4135  0.3300
  201ntf    cn1 1489   1.097   0.911   4.882  0.6518  0.3072 -0.3590
  201ntf    sn2 1490   1.147   1.086   4.873 -0.0769  0.5342 -0.0589
  201ntf    nn3 1491   1.210   1.078   4.729  0.5187  0.1900  0.2136
  201ntf    sn2 1492   1.305   1.171   4.645  0.1733  0.0932 -0.2923
  201ntf    cn1 1493   1.218   1.198   4.488 -0.3082  0.5465  0.0482
  201ntf    fn4 1494   1.064   0.870   5.003 -0.0747  0.5176 -0.4833
  201ntf    fn4 1495   0.993   0.876   4.809  0.3778 -0.3197  0.3260
  201ntf    fn4 1496   1.188   0.819   4.855  0.0867 -0.5176  0.4851
  201ntf    on5 1497   1.020   1.154   4.880 -0.4220 -0.1467  0.3865
  201ntf    on5 1498   1.239   1.108   4.981 -0.0538 -0.1749  0.0692
  201ntf    on5 1499   1.426   1.103   4.607 -0.0401 -0.3309 -0.2215
  201ntf    on5 1500   1.309   1.310   4.684  1.4484 -0.0316  0.0733
  201ntf    fn4 1501   1.186   1.086   4.425  0.8330 -0.0007  0.4139
  201ntf    fn4 1502   1.107   1.265   4.512 -0.1054  0.7679  0.3741
  201ntf    fn4 1503   1.276   1.277   4.399  0.3665 -1.0326 -0.9689
  202ntf    cn1 1504   0.906   1.147   0.504  0.1083  0.1067 -0.1110
  202ntf    sn2 1505   0.811   1.047   0.623  0.1251  0.0210 -0.1692
  202ntf    nn3 1506   0.799   0.906   0.555 -0.4539 -0.0796  0.1360
  202ntf    sn2 1507   0.844   0.766   0.612  0.0690  0.0316  0.0064
  202ntf    cn1 1508   1.009   0.745   0.539  0.0961  0.1695  0.0268
  202ntf    fn4 1509   0.850   1.146   0.383 -0.0937  0.2129 -0.0195
  202ntf    fn4 1510   0.895   1.271   0.549  0.2078  0.1315 -0.1551
  202ntf    fn4 1511   1.031   1.109   0.486  0.0353 -0.2042  0.0260
  202ntf    on5 1512   0.897   1.058   0.737  0.3766  0.0591 -0.3615
  202ntf    on5 1513   0.686   1.119   0.625 -0.6640 -1.3085 -0.2580
  202ntf    on5 1514   0.771   0.658   0.550  0.4925 -0.8217  0.9660
  202ntf    on5 1515   0.863   0.759   0.755 -0.1023  0.5203  0.0583
  202ntf    fn4 1516   1.019   0.633   0.468  0.4580  0.0643  0.2394
  202ntf    fn4 1517   1.044   0.846   0.462 -0.4822  0.3435 -0.0089
  202ntf    fn4 1518   1.099   0.747   0.636 -0.1324  0.0320  0.2447
  203ntf    cn1 1519   0.412   0.172   3.800  0.0884 -0.1635  0.5110
  203ntf    sn2 1520   0.444   0.025   3.698 -0.3105 -0.0505  0.2207
  203ntf    nn3 1521   0.443   0.079   3.550  0.6759  0.0595  0.2491
  203ntf    sn2 1522   0.557   0.115   3.448  0.1727  0.1497 -0.2864
  203ntf    cn1 1523   0.458   0.223   3.341  0.1368  0.3135 -0.0865
  203ntf    fn4 1524   0.506   0.265   3.800 -0.0368 -0.0366  0.6720
  203ntf    fn4 1525   0.297   0.224   3.759  0.5678  0.1145 -0.5258
  203ntf    fn4 1526   0.394   0.140   3.927 -0.9118 -0.1379  0.3864
  203ntf    on5 1527   0.576  -0.018   3.735 -0.1184  0.5211  0.2200
  203ntf    on5 1528   0.330  -0.060   3.721  0.1942 -0.6590  0.4868
  203ntf    on5 1529   0.597   0.007   3.361  0.4270 -0.0996  0.1352
  203ntf    on5 1530   0.649   0.208   3.507 -0.0596  0.3246 -0.1999
  203ntf    fn4 1531   0.406   0.333   3.394 -0.0005  0.4339 -0.4661
  203ntf    fn4 1532   0.526   0.259   3.233  0.3277  0.0169 -0.0646
  203ntf    fn4 1533   0.350   0.159   3.301  0.6201 -0.1866 -0.5985
  204ntf    cn1 1534   1.745   2.108   4.316 -0.1650 -0.0137  0.2848
  204ntf    sn2 1535   1.838   1.960   4.265 -0.0032  0.2613 -0.2272
  204ntf    nn3 1536   1.985   1.986   4.314 -0.0332 -0.6688  0.3918
  204ntf    sn2 1537   2.129   1.960   4.257 -0.0280  0.0471  0.0669
  204ntf    cn1 1538   2.218   1.942   4.415 -0.1532 -0.0358  0.1277
  204ntf    fn4 1539   1.765   2.135   4.445  0.1026  0.3921  0.1617
  204ntf    fn4 1540   1.784   2.211   4.243  0.0803 -0.4563 -0.2116
  204ntf    fn4 1541   1.614   2.097   4.305 -0.1668  0.0109  0.2807
  204ntf    on5 1542   1.770   1.852   4.333 -0.5041  0.4565 -0.4114
  204ntf    on5 1543   1.823   1.958   4.122 -0.3651  0.1072 -0.1882
  204ntf    on5 1544   2.197   2.073   4.199 -0.5416  0.2695 -0.1043
  204ntf    on5 1545   2.143   1.829   4.198 -0.3183 -0.0811  0.2777
  204ntf    fn4 1546   2.208   2.051   4.490 -0.1530  0.1468 -0.1376
  204ntf    fn4 1547   2.182   1.836   4.487  0.6313 -0.6565 -0.3865
  204ntf    fn4 1548   2.345   1.922   4.386 -0.1338 -0.1232  0.2701
  205ntf    cn1 1549   1.989   2.108   5.271  0.1975  0.3309 -0.0942
  205ntf    sn2 1550   1.899   2.186   5.133 -0.0289  0.0278 -0.1199
  205ntf    nn3 1551   2.012   2.219   5.029  0.1793  0.0096  0.0995
  205ntf    sn2 1552   2.008   2.296   4.893 -0.3023  0.0915  0.1595
  205ntf    cn1 1553   2.022   2.154   4.780 -0.1045 -0.0255  0.3316
  205ntf    fn4 1554   2.083   2.185   5.323  0.1115 -0.1401  0.7782
  205ntf    fn4 1555   1.907   2.075   5.370  0.1333  0.1899 -0.1927
  205ntf    fn4 1556   2.060   2.004   5.233 -0.4567 -0.2553  0.2526
  205ntf    on5 1557   1.817   2.076   5.088 -0.1336  0.1328 -0.1871
  205ntf    on5 1558   1.829   2.298   5.191  0.2948  0.0540  0.2273
  205ntf    on5 1559   2.130   2.373   4.885 -0.2971  0.0258 -0.4803
  205ntf    on5 1560   1.876   2.350   4.869 -0.4138 -0.0488  0.4586
  205ntf    fn4 1561   2.125   2.076   4.809 -0.2422 -0.1647  0.4417
  205ntf    fn4 1562   1.908   2.088   4.772  0.1405 -0.4933  0.6744
  205ntf    fn4 1563   2.034   2.186   4.652  0.6533  0.3928  0.5006
  206ntf    cn1 1564   0.333   0.890   2.233  0.0288  0.2534 -0.0654
  206ntf    sn2 1565   0.327   0.763   2.363 -0.0418  0.3200 -0.0043
  206ntf    nn3 1566   0.389   0.858   2.472 -0.5269  0.5147  0.1062
  206ntf    sn2 1567   0.355   0.915   2.614  0.1530 -0.0617  0.5052
  206ntf    cn1 1568   0.314   1.088   2.578 -0.1345 -0.2045  0.1509
  206ntf    fn4 1569   0.276   0.845   2.123 -0.3241 -0.0634  0.2426
  206ntf    fn4 1570   0.256   0.994   2.262 -0.0943  0.3030 -0.5672
  206ntf    fn4 1571   0.449   0.943   2.198  0.0367  0.3498  0.1054
  206ntf    on5 1572   0.186   0.735   2.372  0.0229 -0.1576 -0.4719
  206ntf    on5 1573   0.414   0.653   2.330  0.1250  0.3555  0.3139
  206ntf    on5 1574   0.467   0.944   2.700  0.0544  0.3031  0.5101
  206ntf    on5 1575   0.246   0.858   2.689  0.0726 -0.3605  0.1643
  206ntf    fn4 1576   0.415   1.157   2.528 -0.1129 -0.4598 -0.1591
  206ntf    fn4 1577   0.218   1.112   2.489  0.0950  0.2084  0.0144
  206ntf    fn4 1578   0.272   1.156   2.683 -0.5743 -0.2641  0.0197
  207ntf    cn1 1579   2.175   0.659   4.282  0.0900  0.1565  0.1608
  207ntf    sn2 1580   2.046   0.531   4.279  0.2416 -0.0017  0.3294
  207ntf    nn3 1581   2.009   0.522   4.127  0.2728 -0.2446  0.3363
  207ntf    sn2 1582   1.983   0.395   4.038  0.1066  0.0130  0.0119
  207ntf    cn1 1583   2.137   0.397   3.942 -0.2483 -0.0060 -0.5599
  207ntf    fn4 1584   2.174   0.733   4.392 -0.0006 -0.2861  0.4606
  207ntf    fn4 1585   2.291   0.597   4.262 -0.1620 -0.3421  0.2261
  207ntf    fn4 1586   2.155   0.745   4.184 -0.0520  0.2543  0.2763
  207ntf    on5 1587   2.118   0.424   4.344  0.4739  0.0686  0.1899
  207ntf    on5 1588   1.943   0.595   4.357  0.1334 -0.0955  0.2645
  207ntf    on5 1589   1.879   0.410   3.939 -0.1079  0.3735  0.2923
  207ntf    on5 1590   1.975   0.266   4.103  0.1176  0.0511  0.0894
  207ntf    fn4 1591   2.238   0.360   4.019 -0.4496 -0.1345 -0.3595
  207ntf    fn4 1592   2.144   0.319   3.835  0.2751  0.1046 -0.6084
  207ntf    fn4 1593   2.174   0.518   3.904 -0.1971  0.1547  0.0026
  208ntf    cn1 1594   1.720   0.975   0.332 -0.2308 -0.0470  0.1167
  208ntf    sn2 1595   1.711   0.815   0.419  0.0189 -0.1116  0.0254
  208ntf    nn3 1596   1.580   0.756   0.356  0.0334 -0.4679  0.3260
  208ntf    sn2 1597   1.542   0.618   0.293 -0.0981 -0.0634 -0.4913
  208ntf    cn1 1598   1.363   0.602   0.321 -0.0498  0.1497 -0.0620
  208ntf    fn4 1599   1.697   0.960   0.203 -0.0788 -0.3374  0.1211
  208ntf    fn4 1600   1.611   1.037   0.373 -0.2607  0.0838 -0.1631
  208ntf    fn4 1601   1.829   1.047   0.352  0.0938 -0.4098 -0.3195
  208ntf    on5 1602   1.834   0.750   0.382 -0.0212 -0.5555  0.6652
  208ntf    on5 1603   1.691   0.855   0.557 -0.0115 -0.1615  0.0354
  208ntf    on5 1604   1.612   0.510   0.358 -0.1934 -0.0262 -0.3267
  208ntf    on5 1605   1.546   0.629   0.149  0.0494  0.1471 -0.4709
  208ntf    fn4 1606   1.306   0.497   0.263  0.2047 -0.1779  0.2740
  208ntf    fn4 1607   1.343   0.584   0.451  0.0446 -0.3448 -0.1145
  208ntf    fn4 1608   1.283   0.704   0.292 -0.0390  0.1560 -0.0693
  209ntf    cn1 1609   1.905   0.116   2.204 -0.2150 -0.2705 -0.4805
  209ntf    sn2 1610   1.760   0.088   2.311 -0.1003 -0.1008 -0.2806
  209ntf    nn3 1611   1.813  -0.016   2.417  0.5004  0.6186  0.1336
  209ntf    sn2 1612   1.817  -0.172   2.408  0.1925  0.6312 -0.2674
  209ntf    cn1 1613   1.655  -0.231   2.463  0.3263  0.6133  0.1076
  209ntf    fn4 1614   1.963   0.000   2.177 -0.1167 -0.3022 -0.1482
  209ntf    fn4 1615   1.871   0.181   2.095 -0.3360  0.2809 -0.1193
  209ntf    fn4 1616   1.986   0.199   2.267 -0.3145 -0.1696 -0.4859
  209ntf    on5 1617   1.759   0.218   2.373 -0.2176 -0.3607  0.2662
  209ntf    on5 1618   1.655   0.038   2.226 -0.1783 -0.3547 -0.0380
  209ntf    on5 1619   1.907  -0.228   2.506 -0.9904 -0.4796  0.2115
  209ntf    on5 1620   1.821  -0.217   2.271 -0.6662  0.3783 -0.2147
  209ntf    fn4 1621   1.556  -0.202   2.380  0.5384  0.1833 -0.3035
  209ntf    fn4 1622   1.646  -0.363   2.473  0.3528  0.5956 -0.0982
  209ntf    fn4 1623   1.624  -0.191   2.585 -0.5241 -0.6590  0.3314
  210ntf    cn1 1624   2.175   1.858   1.678  0.1793  0.0512 -0.1671
  210ntf    sn2 1625   2.101   1.712   1.758  0.0045  0.0757 -0.2849
  210ntf    nn3 1626   2.071   1.623   1.632 -0.2279 -0.2817  0.0200
  210ntf    sn2 1627   2.154   1.502   1.576 -0.0137 -0.1418  0.0325
  210ntf    cn1 1628   2.039   1.428   1.456 -0.1388 -0.6403  0.4543
  210ntf    fn4 1629   2.213   1.952   1.763 -0.6414  0.5070 -0.2954
  210ntf    fn4 1630   2.284   1.835   1.607  0.1754 -0.1633 -0.1072
  210ntf    fn4 1631   2.092   1.921   1.597 -0.0248 -0.5884 -0.4623
  210ntf    on5 1632   2.203   1.672   1.852 -0.2507  0.3972  0.1253
  210ntf    on5 1633   1.986   1.769   1.823 -0.1117  0.1518 -0.5571
  210ntf    on5 1634   2.165   1.391   1.668 -0.4181 -0.0284  0.2221
  210ntf    on5 1635   2.273   1.541   1.507 -0.1921 -0.0068 -0.1991
  210ntf    fn4 1636   2.104   1.357   1.365 -0.5889 -0.2845 -0.1521
  210ntf    fn4 1637   1.940   1.352   1.499 -0.1280 -0.5856  0.5784
  210ntf    fn4 1638   1.978   1.527   1.393  0.6100 -0.3230  0.2120
  211ntf    cn1 1639   0.155   0.640   5.735 -0.1721 -0.1261  0.0173
  211ntf    sn2 1640  -0.022   0.597   5.745 -0.1876 -0.0933 -0.1076
  211ntf    nn3 1641  -0.078   0.741   5.773 -0.0668 -0.0763  0.0482
  211ntf    sn2 1642  -0.184   0.791   5.877 -0.2116 -0.5578  0.1382
  211ntf    cn1 1643  -0.077   0.909   5.964 -0.5993  0.1905 -0.3804
  211ntf    fn4 1644   0.184   0.697   5.851 -0.5514  0.0251  0.0391
  211ntf    fn4 1645   0.223   0.527   5.720  0.2172  0.1385 -0.2364
  211ntf    fn4 1646   0.191   0.735   5.650 -0.4628 -0.2632 -0.2654
  211ntf    on5 1647  -0.058   0.538   5.619  0.0213  0.0304 -0.2253
  211ntf    on5 1648  -0.023   0.511   5.861  0.2259 -0.8213 -0.6347
  211ntf    on5 1649  -0.231   0.703   5.981 -0.0923  0.0740  0.7340
  211ntf    on5 1650  -0.283   0.877   5.817 -0.0262 -0.2114  0.3216
  211ntf    fn4 1651  -0.023   1.006   5.892 -0.0170  0.1481 -0.0118
  211ntf    fn4 1652  -0.139   0.974   6.062  0.0555  0.4226 -0.1112
  211ntf    fn4 1653   0.029   0.854   6.021 -0.9204 -0.1527 -0.1059
  212ntf    cn1 1654   1.614   1.196   1.034 -0.3066  0.1936 -0.3444
  212ntf    sn2 1655   1.492   1.148   1.161  0.0402 -0.0394 -0.0993
  212ntf    nn3 1656   1.536   0.999   1.185 -0.3696 -0.0883  0.3557
  212ntf    sn2 1657   1.451   0.872   1.221 -0.2486 -0.2230  0.1684
  212ntf    cn1 1658   1.529   0.828   1.379  0.0272 -0.1846  0.0426
  212ntf    fn4 1659   1.736   1.231   1.071 -0.4157 -0.0043  0.2190
  212ntf    fn4 1660   1.638   1.094   0.954 -0.0744  0.1130 -0.1731
  212ntf    fn4 1661   1.561   1.292   0.960 -0.6549  0.0220 -0.3227
  212ntf    on5 1662   1.517   1.235   1.273 -0.7170 -0.1695  0.1706
  212ntf    on5 1663   1.377   1.165   1.076  0.0603 -0.6218 -0.2498
  212ntf    on5 1664   1.471   0.753   1.143  0.2867 -0.2772  0.3883
  212ntf    on5 1665   1.315   0.909   1.253 -0.0490 -0.0857  0.8720
  212ntf    fn4 1666   1.651   0.778   1.362  0.0845 -0.1783  0.4272
  212ntf    fn4 1667   1.545   0.927   1.465 -0.2903 -0.0106 -0.0972
  212ntf    fn4 1668   1.456   0.740   1.445 -0.3154  0.1557  0.1196
  213ntf    cn1 1669   0.329   1.165   6.122 -0.4886  0.3036  0.2762
  213ntf    sn2 1670   0.422   1.313   6.172 -0.0319  0.1221 -0.0182
  213ntf    nn3 1671   0.518   1.249   6.278 -0.2554 -0.9265 -0.4322
  213ntf    sn2 1672   0.671   1.216   6.264  0.0180  0.1431 -0.0590
  213ntf    cn1 1673   0.712   1.196   6.440  0.0785  0.4422 -0.0385
  213ntf    fn4 1674   0.398   1.052   6.125  0.0724  0.6333  0.0708
  213ntf    fn4 1675   0.234   1.134   6.209 -0.0573  0.6149  0.8661
  213ntf    fn4 1676   0.276   1.176   6.001  0.3197  0.2928 -0.0877
  213ntf    on5 1677   0.470   1.370   6.049  0.5659  0.0794  0.1962
  213ntf    on5 1678   0.312   1.380   6.239 -0.1898 -0.0342 -0.1205
  213ntf    on5 1679   0.750   1.325   6.211 -0.0491  0.1994 -0.0440
  213ntf    on5 1680   0.704   1.085   6.214 -0.2945 -0.1343  0.4490
  213ntf    fn4 1681   0.841   1.186   6.464  0.0366 -0.5343 -0.1960
  213ntf    fn4 1682   0.667   1.299   6.511 -0.0361 -0.1938  0.8236
  213ntf    fn4 1683   0.651   1.087   6.484  0.1433  0.2462 -0.4339
  214ntf    cn1 1684   1.126   1.715   3.826 -0.0390  0.2008 -0.1428
  214ntf    sn2 1685   0.998   1.668   3.947 -0.4033  0.3255 -0.4744
  214ntf    nn3 1686   1.040   1.762   4.065 -0.6005 -0.5413  0.2971
  214ntf    sn2 1687   1.105   1.722   4.203 -0.1378  0.1594  0.2888
  214ntf    cn1 1688   1.107   1.876   4.299  0.2459  0.2731  0.0994
  214ntf    fn4 1689   1.106   1.656   3.709  0.2775  0.0640 -0.1286
  214ntf    fn4 1690   1.133   1.847   3.816  0.3740  0.1806 -0.1269
  214ntf    fn4 1691   1.248   1.690   3.868 -0.2812 -0.1321  0.3709
  214ntf    on5 1692   0.871   1.702   3.890 -0.5360  0.4129 -0.1242
  214ntf    on5 1693   1.021   1.530   3.982  0.3957  0.5979  0.1178
  214ntf    on5 1694   1.243   1.681   4.198  0.0331  0.7575 -0.0668
  214ntf    on5 1695   1.024   1.635   4.284 -0.4449  0.3139  0.1491
  214ntf    fn4 1696   0.987   1.929   4.313  0.2224  0.2691 -0.0985
  214ntf    fn4 1697   1.156   1.864   4.422 -0.1747  0.3303  0.2742
  214ntf    fn4 1698   1.189   1.958   4.236 -0.2293  0.3784 -0.3883
  215ntf    cn1 1699   0.770   1.835   4.988  0.1201  0.4603  0.1136
  215ntf    sn2 1700   0.760   2.006   4.928 -0.2218  0.4006 -0.0027
  215ntf    nn3 1701   0.870   2.064   5.024  0.7494 -0.3001 -0.6798
  215ntf    sn2 1702   0.867   2.178   5.131 -0.0843 -0.3992 -0.5926
  215ntf    cn1 1703   0.884   2.073   5.278 -0.0602  0.0254 -0.2894
  215ntf    fn4 1704   0.703   1.738   4.926  0.3029  0.4875 -0.1300
  215ntf    fn4 1705   0.895   1.794   4.986 -0.1556 -0.3865 -0.4050
  215ntf    fn4 1706   0.727   1.827   5.113  0.8166  0.1740  0.3359
  215ntf    on5 1707   0.810   1.996   4.793  0.3345 -0.5716  0.2644
  215ntf    on5 1708   0.621   2.040   4.946 -0.2753  0.0533  0.2457
  215ntf    on5 1709   0.743   2.250   5.148 -0.2463 -0.8667  0.2702
  215ntf    on5 1710   0.994   2.247   5.132 -0.4800  0.3403  0.2485
  215ntf    fn4 1711   1.005   2.018   5.287 -0.2327 -0.2764  0.2347
  215ntf    fn4 1712   0.863   2.143   5.388  0.0677 -0.2314 -0.1010
  215ntf    fn4 1713   0.802   1.969   5.282  0.0966 -0.0844  0.1310
  216ntf    cn1 1714   2.157   0.452   4.787  0.0326 -0.4424  0.3642
  216ntf    sn2 1715   2.176   0.581   4.914  0.2410 -0.3641  0.2538
  216ntf    nn3 1716   2.068   0.690   4.882  0.1428 -0.5306  0.0156
  216ntf    sn2 1717   1.914   0.687   4.914  0.1962  0.3675  0.3692
  216ntf    cn1 1718   1.908   0.768   5.077 -0.4268 -0.4001  0.7341
  216ntf    fn4 1719   2.194   0.486   4.665 -0.2241 -0.4498  0.2835
  216ntf    fn4 1720   2.230   0.345   4.817  0.3497 -0.2885  0.1479
  216ntf    fn4 1721   2.031   0.412   4.787 -0.2515  0.4487 -0.0647
  216ntf    on5 1722   2.170   0.513   5.041 -0.1477  0.6697  0.8017
  216ntf    on5 1723   2.308   0.630   4.885  0.1833 -0.1445  0.3658
  216ntf    on5 1724   1.860   0.555   4.937  0.2941 -0.0012 -1.4151
  216ntf    on5 1725   1.840   0.775   4.827  0.3324  0.0965 -0.0221
  216ntf    fn4 1726   1.782   0.794   5.110 -0.4643  0.3357  0.0668
  216ntf    fn4 1727   1.959   0.681   5.162  0.5861 -0.4870  0.0489
  216ntf    fn4 1728   1.970   0.885   5.085 -0.3149 -0.4325  0.3545
   2.27770   2.27770   6.36244
