Converted from moscito
 3240
    1SOL     ow    1   0.441   1.915   6.097  0.4103 -0.0213 -0.2383
    1SOL     hw    2   0.380   1.937   6.027 -1.1709 -2.1479  0.3687
    1SOL     hw    3   0.519   1.883   6.052  1.1412  2.5684 -1.0165
    1SOL     vw    4   0.443   1.914   6.082  0.2981  0.0398 -0.2608
    2SOL     ow    5   0.398   1.249   0.324 -0.3968 -0.5754 -0.0896
    2SOL     hw    6   0.410   1.327   0.269  1.6449 -0.9197 -0.2148
    2SOL     hw    7   0.344   1.191   0.271  1.2001 -0.7463 -1.6465
    2SOL     vw    8   0.393   1.252   0.309  0.0833 -0.6434 -0.3116
    3SOL     ow    9   1.872   0.967   0.875  0.0459 -0.5678  0.1787
    3SOL     hw   10   1.853   0.893   0.817 -0.5003  1.2032 -2.0222
    3SOL     hw   11   1.966   0.981   0.866 -0.2636  0.7046 -1.6723
    3SOL     vw   12   1.882   0.959   0.866 -0.0669 -0.1663 -0.3560
    4SOL     ow   13   0.932   0.404   6.291 -0.1047  0.4596 -0.0529
    4SOL     hw   14   0.850   0.386   6.335 -0.0304  1.3761  0.4831
    4SOL     hw   15   0.950   0.325   6.239 -2.0831  0.8150 -1.3880
    4SOL     vw   16   0.924   0.392   6.290 -0.3559  0.6274 -0.1581
    5SOL     ow   17   0.492   0.616   5.751  0.6612 -0.4930  0.7586
    5SOL     hw   18   0.435   0.614   5.828  0.3158 -0.6315  0.5033
    5SOL     hw   19   0.561   0.678   5.774 -0.5836  1.0913  0.3848
    5SOL     vw   20   0.493   0.624   5.765  0.4514 -0.3022  0.6757
    6SOL     ow   21   2.312   1.063   6.900  1.0942  0.2221  0.2408
    6SOL     hw   22   2.292   1.000   6.830 -0.6213 -0.5175  1.3174
    6SOL     hw   23   2.239   1.125   6.898  1.3478  0.5585  0.9714
    6SOL     vw   24   2.300   1.063   6.891  0.9011  0.1689  0.4795
    7SOL     ow   25   2.490   1.420   5.457 -0.0107  1.0043 -0.4436
    7SOL     hw   26   2.566   1.422   5.399  1.5353 -0.6332  1.3481
    7SOL     hw   27   2.457   1.330   5.450 -1.0480  1.3663 -0.3001
    7SOL     vw   28   2.496   1.408   5.449  0.0564  0.8361 -0.1884
    8SOL     ow   29   0.913   1.809   4.700  0.5805  0.3671  0.1356
    8SOL     hw   30   0.944   1.762   4.778 -0.2692  1.0850  0.9331
    8SOL     hw   31   0.959   1.892   4.702  0.3000  0.5265  0.0633
    8SOL     vw   32   0.923   1.814   4.711  0.4313  0.4829  0.2310
    9SOL     ow   33   0.753   2.305   6.694  0.5516 -0.9910  0.4115
    9SOL     hw   34   0.803   2.224   6.685  0.2128 -1.0466 -1.3727
    9SOL     hw   35   0.819   2.374   6.689  0.5338 -1.0744 -1.5550
    9SOL     vw   36   0.768   2.303   6.692  0.5046 -1.0093 -0.0837
   10SOL     ow   37   2.215   1.080   2.970  0.7386  0.6721 -0.8352
   10SOL     hw   38   2.260   1.001   3.001 -1.3502  0.0799  0.8940
   10SOL     hw   39   2.183   1.056   2.883 -0.0631 -0.5010 -0.2482
   10SOL     vw   40   2.217   1.066   2.962  0.3572  0.4392 -0.5296
   11SOL     ow   41   1.149   1.148   2.296 -0.0247  0.0917  0.2803
   11SOL     hw   42   1.190   1.071   2.256  1.2384  0.5698  0.6203
   11SOL     hw   43   1.076   1.169   2.238 -0.7797 -1.7206  0.5114
   11SOL     vw   44   1.145   1.140   2.283  0.0424 -0.0843  0.3557
   12SOL     ow   45   0.183   0.568   3.336 -0.6317  0.4320  0.1635
   12SOL     hw   46   0.123   0.519   3.279 -2.0744  3.0301 -0.6927
   12SOL     hw   47   0.269   0.552   3.298 -0.6586 -3.1073  1.2132
   12SOL     vw   48   0.186   0.559   3.323 -0.8256  0.3079  0.1891
   13SOL     ow   49   0.203   1.994   5.895  0.6015 -0.3270 -0.3592
   13SOL     hw   50   0.232   1.973   5.806  0.9297 -0.4027 -0.2358
   13SOL     hw   51   0.207   2.090   5.899 -0.3622 -0.2573 -0.7405
   13SOL     vw   52   0.207   2.004   5.884  0.5177 -0.3278 -0.3934
   14SOL     ow   53   2.490   1.678   6.591 -0.2410  0.0323 -0.4025
   14SOL     hw   54   2.527   1.739   6.527  1.5284  1.8140  2.1038
   14SOL     hw   55   2.564   1.622   6.615 -0.2391  0.8059  1.5629
   14SOL     vw   56   2.505   1.679   6.586 -0.0072  0.3695  0.1874
   15SOL     ow   57   0.932   2.360   4.956  0.4459  0.8382 -0.0116
   15SOL     hw   58   0.984   2.309   4.893  0.7439 -1.1478  1.7345
   15SOL     hw   59   0.898   2.295   5.018 -2.6264  2.2950  0.0140
   15SOL     vw   60   0.934   2.345   4.956  0.0798  0.7683  0.2224
   16SOL     ow   61   0.590   1.945   0.165  0.3110  0.7924  0.8770
   16SOL     hw   62   0.663   1.988   0.209  1.9486 -1.1530  0.1625
   16SOL     hw   63   0.532   1.918   0.237  1.6490 -0.0208  1.7023
   16SOL     vw   64   0.592   1.947   0.181  0.7036  0.4284  0.8916
   17SOL     ow   65   0.036   1.090   1.916  0.1703 -0.4241  0.3383
   17SOL     hw   66   0.065   1.012   1.870 -1.2897 -0.4954 -0.5309
   17SOL     hw   67  -0.030   1.129   1.858  0.7562  1.3785  0.8171
   17SOL     vw   68   0.031   1.085   1.902  0.0550 -0.1957  0.2868
   18SOL     ow   69   1.084   0.570   0.548  0.2311  0.3586  0.1645
   18SOL     hw   70   0.989   0.576   0.551  0.1762  1.3557 -1.6295
   18SOL     hw   71   1.106   0.589   0.456  2.1600  0.2817  0.5631
   18SOL     vw   72   1.074   0.574   0.536  0.4783  0.4801 -0.0196
   19SOL     ow   73   0.397   2.251   2.151 -0.1248  0.0795  0.5926
   19SOL     hw   74   0.360   2.199   2.080 -0.8999 -0.1230  1.1340
   19SOL     hw   75   0.492   2.242   2.140 -0.2433 -0.9016  0.2789
   19SOL     vw   76   0.405   2.243   2.140 -0.2427 -0.0767  0.6226
   20SOL     ow   77   0.026   0.245   5.640 -0.1817 -1.0494  0.3796
   20SOL     hw   78  -0.026   0.294   5.704  0.1612 -2.5841  1.8957
   20SOL     hw   79   0.025   0.155   5.671  1.7794 -1.4765 -0.6080
   20SOL     vw   80   0.019   0.240   5.652  0.1224 -1.3082  0.4492
   21SOL     ow   81   0.399   0.262   1.281 -0.2322 -0.2751  0.3122
   21SOL     hw   82   0.431   0.350   1.262 -1.8155  0.0542 -1.0869
   21SOL     hw   83   0.305   0.273   1.291 -0.2356 -1.5481  1.9903
   21SOL     vw   84   0.391   0.275   1.280 -0.4415 -0.3996  0.3490
   22SOL     ow   85   0.309   2.442   6.675 -0.0819  0.0830  0.0101
   22SOL     hw   86   0.382   2.387   6.707 -1.0910 -0.9542  0.6070
   22SOL     hw   87   0.237   2.381   6.662 -1.1740  1.2415  0.4444
   22SOL     vw   88   0.309   2.426   6.678 -0.3591  0.0989  0.1462
   23SOL     ow   89   1.897   0.750   1.301  0.1694 -1.0079  0.0496
   23SOL     hw   90   1.805   0.777   1.299  0.6583  1.0336  1.4216
   23SOL     hw   91   1.944   0.826   1.266  1.6288  0.0721  3.9109
   23SOL     vw   92   1.891   0.763   1.296  0.4265 -0.5960  0.7401
   24SOL     ow   93   2.061   1.862   0.863  0.2843  0.4329 -0.3890
   24SOL     hw   94   2.044   1.795   0.929 -0.4437  0.7166 -0.2809
   24SOL     hw   95   2.146   1.899   0.888 -0.1966  0.8626  0.6757
   24SOL     vw   96   2.070   1.858   0.875  0.1248  0.5270 -0.2342
   25SOL     ow   97   2.179   1.260   3.404 -0.3394  0.5118  0.1125
   25SOL     hw   98   2.232   1.325   3.450 -0.7152 -0.1051  1.4568
   25SOL     hw   99   2.094   1.301   3.394 -0.3658  0.5064  0.3079
   25SOL     vw  100   2.175   1.274   3.409 -0.3926  0.4297  0.3157
   26SOL     ow  101   1.683   2.104   0.578 -0.4205  0.3361  0.5179
   26SOL     hw  102   1.664   2.135   0.667 -0.6751  1.3651  0.1157
   26SOL     hw  103   1.607   2.050   0.555 -1.4789  1.9578  0.0695
   26SOL     vw  104   1.670   2.101   0.587 -0.5937  0.6858  0.4057
   27SOL     ow  105   0.839   0.388   5.356 -0.5490  0.2056  0.5349
   27SOL     hw  106   0.855   0.434   5.274 -0.7663 -0.2194  0.2517
   27SOL     hw  107   0.924   0.389   5.402 -0.6075  1.0732  0.6318
   27SOL     vw  108   0.852   0.394   5.352 -0.5854  0.2640  0.5105
   28SOL     ow  109   0.841   0.639   6.124  0.1175  0.1102  0.8787
   28SOL     hw  110   0.844   0.725   6.081  3.6319 -0.3396 -0.1431
   28SOL     hw  111   0.796   0.583   6.061  0.3578  0.6097  0.2481
   28SOL     vw  112   0.836   0.643   6.110  0.6129  0.1167  0.6609
   29SOL     ow  113   1.224   1.959   4.226 -0.3216 -0.5146  0.0850
   29SOL     hw  114   1.129   1.944   4.225 -0.4769 -0.4556  3.2296
   29SOL     hw  115   1.238   2.028   4.161 -2.7748  0.9508  0.9677
   29SOL     vw  116   1.213   1.966   4.217 -0.6658 -0.3135  0.6168
   30SOL     ow  117   0.279   0.671   3.588  0.1820 -0.3284  0.6722
   30SOL     hw  118   0.316   0.758   3.602 -0.2047 -0.3219  1.7819
   30SOL     hw  119   0.294   0.625   3.670 -2.1535 -0.3512  1.1565
   30SOL     vw  120   0.286   0.676   3.601 -0.1772 -0.3305  0.8824
   31SOL     ow  121   1.004   2.016   3.926  0.7046  0.1044  0.1054
   31SOL     hw  122   0.937   2.065   3.878 -0.9443  0.3955  2.5426
   31SOL     hw  123   1.011   1.933   3.879 -2.1577 -0.3488  0.3379
   31SOL     vw  124   0.996   2.012   3.913  0.1094  0.0830  0.4578
   32SOL     ow  125   0.255   0.137   6.817  0.2331  0.3786 -0.3969
   32SOL     hw  126   0.207   0.114   6.896  0.2175 -2.0485 -1.0199
   32SOL     hw  127   0.336   0.087   6.822  1.0046  1.4921 -1.1502
   32SOL     vw  128   0.259   0.127   6.828  0.3329  0.2053 -0.5782
   33SOL     ow  129   1.099   1.196   2.596  0.3040 -0.1207  0.4645
   33SOL     hw  130   1.031   1.206   2.662 -0.7082  2.8322 -0.8173
   33SOL     hw  131   1.181   1.195   2.645 -0.4566  1.1694  1.8362
   33SOL     vw  132   1.101   1.197   2.611  0.0701  0.4390  0.4765
   34SOL     ow  133   2.173   2.010   5.035 -0.1906  0.6960  0.1441
   34SOL     hw  134   2.169   1.939   5.099 -0.4685  1.4009  0.9139
   34SOL     hw  135   2.244   2.066   5.065  0.5999  0.3098 -0.9367
   34SOL     vw  136   2.182   2.008   5.047 -0.1230  0.7380  0.1030
   35SOL     ow  137   0.971   0.044   0.319 -0.7514 -0.2888 -0.4670
   35SOL     hw  138   0.879   0.054   0.345 -1.0133 -0.8563 -1.1358
   35SOL     hw  139   1.018   0.106   0.373 -1.3721 -0.8840  0.7907
   35SOL     vw  140   0.965   0.053   0.329 -0.8679 -0.4422 -0.3893
   36SOL     ow  141   1.429   2.125   3.158  0.6594  0.1646 -0.6668
   36SOL     hw  142   1.458   2.035   3.146  2.2507  0.6556 -0.7839
   36SOL     hw  143   1.441   2.143   3.251 -2.6957 -0.6893  0.0351
   36SOL     vw  144   1.435   2.116   3.168  0.4267  0.1168 -0.5896
   37SOL     ow  145   0.169   1.670   0.718  0.9862 -0.4269 -0.0829
   37SOL     hw  146   0.091   1.614   0.722  0.8133 -0.1364  0.9390
   37SOL     hw  147   0.242   1.608   0.711  0.7388 -0.7479  0.1349
   37SOL     vw  148   0.168   1.654   0.718  0.9307 -0.4310  0.0806
   38SOL     ow  149   0.570   1.590   0.795  0.6411 -0.3991  0.5566
   38SOL     hw  150   0.499   1.570   0.733  0.9922 -0.4972  0.1813
   38SOL     hw  151   0.649   1.596   0.741  1.0340 -0.9498  1.0476
   38SOL     vw  152   0.571   1.588   0.780  0.7392 -0.4847  0.5719
   39SOL     ow  153   1.757   1.581   0.317  0.5875  0.3025  0.2347
   39SOL     hw  154   1.768   1.488   0.339  3.6497  0.8025  1.2641
   39SOL     hw  155   1.682   1.609   0.368  1.2642 -1.0258  2.0896
   39SOL     vw  156   1.749   1.572   0.326  1.0808  0.1931  0.6153
   40SOL     ow  157   1.000   0.110   4.533 -0.7110 -0.1835 -0.0306
   40SOL     hw  158   0.944   0.179   4.498 -0.3205  0.4393  0.5536
   40SOL     hw  159   1.089   0.144   4.523 -0.5833  0.0063  1.5133
   40SOL     vw  160   1.004   0.124   4.527 -0.6427 -0.0763  0.2501
   41SOL     ow  161   1.345   2.344   1.689  0.2006  0.4159  0.0208
   41SOL     hw  162   1.341   2.431   1.649 -1.3551 -0.6497 -2.4159
   41SOL     hw  163   1.264   2.337   1.739 -0.4349 -0.1105 -1.0329
   41SOL     vw  164   1.333   2.355   1.690 -0.0886  0.2058 -0.4396
   42SOL     ow  165   0.264   1.968   0.722  0.1401  0.2119  0.3519
   42SOL     hw  166   0.285   2.017   0.642 -1.6828  0.1446 -0.2326
   42SOL     hw  167   0.347   1.959   0.768  0.7320  3.0731  0.0356
   42SOL     vw  168   0.278   1.973   0.717 -0.0223  0.5805  0.2330
   43SOL     ow  169   0.199   1.156   0.192 -0.0287 -0.5948 -0.5360
   43SOL     hw  170   0.211   1.171   0.098  0.1101  2.8973 -0.0858
   43SOL     hw  171   0.136   1.222   0.220  2.0389  0.4259  2.2588
   43SOL     vw  172   0.192   1.167   0.184  0.2625  0.0006 -0.1078
   44SOL     ow  173   0.895   2.043   3.203  0.7857  0.1013 -0.1949
   44SOL     hw  174   0.823   2.029   3.265  0.8210 -1.3543 -0.4440
   44SOL     hw  175   0.861   2.013   3.119  0.2879  3.2302 -1.2435
   44SOL     vw  176   0.881   2.037   3.200  0.7247  0.3220 -0.3661
   45SOL     ow  177   0.410   0.136   3.607 -0.4517  0.4497  0.3539
   45SOL     hw  178   0.422   0.121   3.513 -0.1073 -1.7465  0.7004
   45SOL     hw  179   0.356   0.215   3.612  1.5526  2.0883 -1.6079
   45SOL     vw  180   0.405   0.144   3.596 -0.1418  0.3761  0.1408
   46SOL     ow  181   0.981   0.274   6.586 -0.7339  0.2686  0.1692
   46SOL     hw  182   1.063   0.296   6.542 -1.6476 -2.1070 -3.1223
   46SOL     hw  183   1.004   0.266   6.679  2.7766 -0.4984 -0.6486
   46SOL     vw  184   0.995   0.276   6.593 -0.3913 -0.1460 -0.3734
   47SOL     ow  185   1.288   1.963   2.090 -0.1167 -0.4713 -0.1758
   47SOL     hw  186   1.263   2.047   2.051 -0.5798 -0.0101  1.0527
   47SOL     hw  187   1.306   1.984   2.182 -0.5071 -1.7513  0.2156
   47SOL     vw  188   1.287   1.977   2.097 -0.2293 -0.5794  0.0380
   48SOL     ow  189   0.168   0.780   0.536 -0.3823 -0.3427  0.3907
   48SOL     hw  190   0.110   0.855   0.527 -0.9526 -0.4031  2.7698
   48SOL     hw  191   0.117   0.715   0.585  0.8233 -1.4123  0.3025
   48SOL     vw  192   0.154   0.781   0.541 -0.2985 -0.4918  0.6930
   49SOL     ow  193   0.241   1.803   5.120 -0.3023 -0.1594  0.2986
   49SOL     hw  194   0.231   1.857   5.041  0.2175 -1.0213 -0.3605
   49SOL     hw  195   0.155   1.764   5.133 -0.3818 -0.0343  0.1539
   49SOL     vw  196   0.228   1.805   5.112 -0.2442 -0.2566  0.1924
   50SOL     ow  197   0.861   1.075   2.449 -0.3394  0.5394 -0.1830
   50SOL     hw  198   0.817   0.991   2.458  1.8953 -0.9580 -1.9146
   50SOL     hw  199   0.791   1.139   2.439 -2.1200 -1.4673 -1.2754
   50SOL     vw  200   0.846   1.072   2.449 -0.2794  0.0770 -0.5555
   51SOL     ow  201   1.607   1.470   2.265 -0.3516  0.4173 -0.4009
   51SOL     hw  202   1.637   1.421   2.189  0.0995  0.6320 -0.3661
   51SOL     hw  203   1.635   1.560   2.248 -0.5479  0.5297 -0.1371
   51SOL     vw  204   1.614   1.475   2.253 -0.3180  0.4604 -0.3614
   52SOL     ow  205   2.525   1.241   2.635 -0.6088  0.5499  0.0993
   52SOL     hw  206   2.614   1.252   2.667 -0.8792  0.9623  0.7324
   52SOL     hw  207   2.506   1.148   2.647 -0.0712  0.3527 -0.5616
   52SOL     vw  208   2.534   1.230   2.641 -0.5735  0.5783  0.0956
   53SOL     ow  209   1.611   0.454   2.061  0.0262  0.2587  0.1769
   53SOL     hw  210   1.560   0.480   1.985 -0.4894  1.0340  0.7667
   53SOL     hw  211   1.592   0.521   2.127  1.9742  0.6890  0.3578
   53SOL     vw  212   1.602   0.466   2.060  0.2152  0.4177  0.2786
   54SOL     ow  213   1.239   0.310   0.257 -0.4488 -0.8253  0.1071
   54SOL     hw  214   1.200   0.298   0.344 -1.2641 -1.1885 -0.3011
   54SOL     hw  215   1.267   0.401   0.255  1.0240 -1.2053  1.3293
   54SOL     vw  216   1.238   0.320   0.268 -0.3620 -0.9234  0.2145
   55SOL     ow  217   1.461   1.063   0.427  0.0249  0.5676  0.1359
   55SOL     hw  218   1.400   1.124   0.386 -1.6636 -1.0710  0.0926
   55SOL     hw  219   1.488   1.004   0.357 -0.1476 -0.1149  0.6279
   55SOL     vw  220   1.457   1.063   0.413 -0.2207  0.2614  0.1951
   56SOL     ow  221   0.248   0.919   0.800 -0.5678 -0.1657  0.8431
   56SOL     hw  222   0.278   0.977   0.869  0.0982  1.8212 -1.0147
   56SOL     hw  223   0.182   0.970   0.753  1.0148 -0.3095 -1.6820
   56SOL     vw  224   0.243   0.933   0.803 -0.2711  0.0775  0.2649
   57SOL     ow  225   2.085   2.412   2.673  0.0699 -0.4061 -0.6727
   57SOL     hw  226   2.103   2.493   2.719  0.9697 -1.9396  1.9117
   57SOL     hw  227   2.031   2.361   2.733 -2.3008 -0.9556 -3.0854
   57SOL     vw  228   2.081   2.416   2.687 -0.1242 -0.6809 -0.6499
   58SOL     ow  229   0.266   2.318   5.301  0.0111 -0.2937  0.4648
   58SOL     hw  230   0.254   2.227   5.272  3.1051 -0.0562 -2.1564
   58SOL     hw  231   0.228   2.320   5.389 -0.5281 -3.9954  0.4940
   58SOL     vw  232   0.259   2.306   5.308  0.3482 -0.7508  0.1230
   59SOL     ow  233   1.749   2.234   5.830 -0.1640  1.1327  0.5008
   59SOL     hw  234   1.671   2.199   5.873 -0.1685  2.6432  1.8279
   59SOL     hw  235   1.791   2.288   5.897  2.2767  0.0481 -0.0644
   59SOL     vw  236   1.744   2.237   5.844  0.1575  1.1890  0.6015
   60SOL     ow  237   0.903   2.524   6.671 -0.3490 -0.0755 -0.5989
   60SOL     hw  238   0.980   2.547   6.722 -1.2284  0.1918  0.6442
   60SOL     hw  239   0.911   2.577   6.591 -0.6144  2.0621  0.7145
   60SOL     vw  240   0.914   2.534   6.667 -0.5000  0.2418 -0.2618
   61SOL     ow  241   0.591   0.976   4.501 -0.6406 -0.1644 -0.2339
   61SOL     hw  242   0.505   0.960   4.539 -0.1732 -0.7553  0.6219
   61SOL     hw  243   0.574   1.030   4.424 -1.4050  4.3312  2.7136
   61SOL     vw  244   0.577   0.981   4.496 -0.6797  0.3508  0.2677
   62SOL     ow  245   2.338   1.559   0.530 -0.4204 -1.1373 -0.7031
   62SOL     hw  246   2.416   1.597   0.490  1.3560 -2.0803  1.6611
   62SOL     hw  247   2.299   1.507   0.460  0.2356  0.4341 -2.3450
   62SOL     vw  248   2.343   1.557   0.516 -0.0995 -1.0543 -0.6078
   63SOL     ow  249   1.134   1.850   3.254  0.7668  0.4931 -0.5216
   63SOL     hw  250   1.195   1.924   3.254  0.0447  1.4736  4.5256
   63SOL     hw  251   1.049   1.889   3.234  0.6917  0.6855  0.1404
   63SOL     vw  252   1.131   1.865   3.251  0.6617  0.6478  0.2316
   64SOL     ow  253   0.286   1.216   1.827  0.0375 -0.1148 -0.3159
   64SOL     hw  254   0.345   1.250   1.894  0.0680 -0.4487 -0.1717
   64SOL     hw  255   0.198   1.227   1.864  0.1219 -1.5096  0.3450
   64SOL     vw  256   0.282   1.222   1.841  0.0527 -0.3428 -0.2097
   65SOL     ow  257   2.183   2.443   3.251  0.9190  0.9118 -0.1894
   65SOL     hw  258   2.130   2.396   3.186 -0.6454  1.9832  0.2398
   65SOL     hw  259   2.180   2.386   3.329  0.3979  0.9422 -0.1793
   65SOL     vw  260   2.175   2.429   3.253  0.6437  1.0573 -0.1315
   66SOL     ow  261   1.241   0.927   2.175  0.0496  0.7153  0.3309
   66SOL     hw  262   1.191   0.861   2.222 -0.5114  1.3638  0.6678
   66SOL     hw  263   1.328   0.888   2.163 -0.9874 -1.1314 -1.7650
   66SOL     vw  264   1.246   0.913   2.180 -0.1613  0.5572  0.0987
   67SOL     ow  265   1.794   2.079   2.948  0.0645 -0.5462  0.4781
   67SOL     hw  266   1.705   2.081   2.914  0.0900 -1.5423  0.3276
   67SOL     hw  267   1.783   2.070   3.043  0.0056  0.6422  0.5948
   67SOL     vw  268   1.781   2.078   2.956  0.0601 -0.5209  0.4737
   68SOL     ow  269   1.483   1.734   5.713  0.4744  0.2089  0.0238
   68SOL     hw  270   1.561   1.678   5.710 -0.4938 -1.1884  0.1515
   68SOL     hw  271   1.468   1.759   5.622  0.4809 -0.3584 -0.1347
   68SOL     vw  272   1.491   1.730   5.701  0.3476 -0.0502  0.0198
   69SOL     ow  273   0.659   1.141   1.148  0.9605  0.1192 -0.5791
   69SOL     hw  274   0.678   1.055   1.113 -1.0188 -0.3982 -0.5264
   69SOL     hw  275   0.697   1.140   1.236  0.2655 -1.0181 -0.2684
   69SOL     vw  276   0.666   1.130   1.155  0.6077 -0.0991 -0.5311
   70SOL     ow  277   1.626   1.346   3.805 -0.1623  0.1834  0.4315
   70SOL     hw  278   1.593   1.409   3.741  0.5170  0.6877  0.5636
   70SOL     hw  279   1.695   1.299   3.758 -1.1645 -1.0186  0.0836
   70SOL     vw  280   1.631   1.348   3.790 -0.2049  0.0915  0.4029
   71SOL     ow  281   0.275   1.737   6.254  0.1376 -0.2575  0.5302
   71SOL     hw  282   0.363   1.756   6.223  0.4298  2.2383  2.5715
   71SOL     hw  283   0.280   1.646   6.285  1.5543 -0.6237 -0.6581
   71SOL     vw  284   0.287   1.727   6.254  0.3631  0.0234  0.6428
   72SOL     ow  285   0.281   2.356   4.036 -0.2430  0.2129 -0.1987
   72SOL     hw  286   0.198   2.400   4.056  0.7302  2.1060 -0.1505
   72SOL     hw  287   0.307   2.315   4.118 -1.5119 -1.1349 -0.4205
   72SOL     vw  288   0.273   2.357   4.049 -0.2820  0.2848 -0.2215
   73SOL     ow  289   1.850   0.024   3.512  0.3281 -0.1130 -0.4845
   73SOL     hw  290   1.857  -0.007   3.603  0.5687  0.4714 -0.3009
   73SOL     hw  291   1.791   0.099   3.517 -1.4385 -1.3917 -1.1460
   73SOL     vw  292   1.844   0.030   3.525  0.1268 -0.2046 -0.5475
   74SOL     ow  293   1.371   2.363   3.928 -0.4905  0.5418  0.4765
   74SOL     hw  294   1.425   2.337   4.002 -0.6999 -1.8776 -0.1435
   74SOL     hw  295   1.403   2.310   3.855 -2.3772  0.4895 -0.3802
   74SOL     vw  296   1.382   2.352   3.928 -0.7670  0.2158  0.2817
   75SOL     ow  297   1.749   2.330   5.567  0.4110  0.1666  0.1522
   75SOL     hw  298   1.801   2.263   5.525  2.7402  0.0159  2.9679
   75SOL     hw  299   1.742   2.302   5.658 -1.7222  1.9545  0.6487
   75SOL     vw  300   1.755   2.318   5.574  0.4368  0.3827  0.5889
   76SOL     ow  301   1.669   1.101   4.268 -0.2818  0.4663  0.0390
   76SOL     hw  302   1.593   1.108   4.325  1.0764 -2.1375  2.4336
   76SOL     hw  303   1.733   1.162   4.305 -0.5320  1.3253 -0.8835
   76SOL     vw  304   1.667   1.110   4.280 -0.1356  0.2362  0.2329
   77SOL     ow  305   0.080   1.062   6.851  0.1764 -0.2185  0.2487
   77SOL     hw  306   0.110   0.974   6.826 -0.0564 -0.1942 -0.1228
   77SOL     hw  307   0.148   1.095   6.910  1.2256  0.1048 -1.0900
   77SOL     vw  308   0.093   1.054   6.856  0.2841 -0.1727  0.0229
   78SOL     ow  309   1.983   0.599   5.810 -1.4034 -0.1896  0.0508
   78SOL     hw  310   1.998   0.595   5.905  1.6073  2.2204 -0.1538
   78SOL     hw  311   2.005   0.511   5.779 -4.3249 -1.6405  1.6492
   78SOL     vw  312   1.988   0.587   5.818 -1.3916 -0.0630  0.2348
   79SOL     ow  313   1.520   2.110   1.623  0.3763  0.0913 -0.1297
   79SOL     hw  314   1.489   2.094   1.712  0.7538  1.0439  0.1892
   79SOL     hw  315   1.582   2.183   1.632  2.3939 -1.4396 -0.8017
   79SOL     vw  316   1.524   2.117   1.636  0.6924  0.0149 -0.1763
   80SOL     ow  317   0.435   1.345   6.099 -0.0679  0.0181  0.7077
   80SOL     hw  318   0.525   1.342   6.068 -0.2251 -1.4211  0.3164
   80SOL     hw  319   0.443   1.358   6.194  0.5123  0.7889  0.5596
   80SOL     vw  320   0.448   1.347   6.108 -0.0121 -0.0701  0.6366
   81SOL     ow  321   0.667   1.388   0.936  0.9297 -0.4490  0.2616
   81SOL     hw  322   0.621   1.469   0.911  1.8304  0.5601  1.6805
   81SOL     hw  323   0.677   1.340   0.854 -1.9657 -0.3961 -0.2212
   81SOL     vw  324   0.663   1.393   0.922  0.6665 -0.3089  0.3852
   82SOL     ow  325   0.913   1.867   6.565  0.3407  0.1541  0.0350
   82SOL     hw  326   0.998   1.898   6.532  0.8466 -2.8031 -1.9182
   82SOL     hw  327   0.933   1.828   6.650  0.4814  1.4891  0.6216
   82SOL     vw  328   0.927   1.866   6.572  0.4260 -0.0600 -0.1452
   83SOL     ow  329   1.623   1.264   0.537 -0.1577 -0.1728 -0.2258
   83SOL     hw  330   1.642   1.239   0.627 -1.7816  0.0106  0.1888
   83SOL     hw  331   1.581   1.187   0.498  0.3240 -0.1717 -0.7727
   83SOL     vw  332   1.620   1.251   0.544 -0.3084 -0.1484 -0.2433
   84SOL     ow  333   0.396   0.897   3.649 -0.5723 -0.0796  0.3364
   84SOL     hw  334   0.447   0.903   3.730 -1.7229 -0.4668  1.1046
   84SOL     hw  335   0.330   0.965   3.656 -0.5169  0.0702 -0.4209
   84SOL     vw  336   0.394   0.907   3.660 -0.7168 -0.1109  0.3380
   85SOL     ow  337   0.944   0.862   4.717 -0.0214 -0.1440  0.6367
   85SOL     hw  338   1.006   0.901   4.779  0.5257 -0.1052  0.0747
   85SOL     hw  339   0.924   0.776   4.754 -0.0416  0.0509  1.0864
   85SOL     vw  340   0.949   0.856   4.730  0.0481 -0.1132  0.6220
   86SOL     ow  341   0.013   1.989   0.332  0.1220  0.1533  0.3048
   86SOL     hw  342  -0.062   2.049   0.335  0.0034 -0.0024  0.4927
   86SOL     hw  343   0.019   1.963   0.239 -1.6306 -1.7762  0.6561
   86SOL     vw  344   0.004   1.993   0.320 -0.1248 -0.1217  0.3759
   87SOL     ow  345   2.358   0.306   5.839  0.4201 -0.1876  0.3303
   87SOL     hw  346   2.370   0.215   5.868  0.0498  0.1222  1.4964
   87SOL     hw  347   2.330   0.353   5.918 -2.4516  0.3346 -0.8655
   87SOL     vw  348   2.356   0.300   5.853 -0.0076 -0.0778  0.3262
   88SOL     ow  349   0.671   0.497   5.545  0.4645  0.0390  0.5698
   88SOL     hw  350   0.672   0.587   5.512 -0.2889 -0.9582 -2.4008
   88SOL     hw  351   0.756   0.462   5.521  1.0436  0.1051  2.3768
   88SOL     vw  352   0.682   0.504   5.538  0.4415 -0.0838  0.4160
   89SOL     ow  353   2.206   0.089   4.740 -0.3109  0.3224  0.0122
   89SOL     hw  354   2.292   0.057   4.765 -0.5777 -0.2408  0.2249
   89SOL     hw  355   2.189   0.162   4.800 -0.6769 -0.6184  1.0817
   89SOL     vw  356   2.215   0.095   4.751 -0.3943  0.1240  0.1812
   90SOL     ow  357   1.897   2.181   6.820 -0.4736 -0.5471  0.0562
   90SOL     hw  358   1.821   2.199   6.765 -0.3315 -0.8935 -0.2617
   90SOL     hw  359   1.896   2.251   6.886 -0.3305  0.2217 -0.7280
   90SOL     vw  360   1.887   2.193   6.821 -0.4360 -0.4914 -0.0889
   91SOL     ow  361   1.817   1.884   0.728  0.1888  0.1299  0.2477
   91SOL     hw  362   1.754   1.859   0.796  0.0290 -1.5219 -0.4531
   91SOL     hw  363   1.763   1.909   0.653  0.3714  0.8455  0.3487
   91SOL     vw  364   1.802   1.884   0.727  0.1919  0.0064  0.1686
   92SOL     ow  365   1.960   1.410   3.365  0.1838 -0.1420  0.0927
   92SOL     hw  366   1.925   1.483   3.415  1.3662  1.3151 -1.1160
   92SOL     hw  367   1.889   1.387   3.305 -0.0337  0.3094  0.1712
   92SOL     vw  368   1.946   1.416   3.364  0.3111  0.1098 -0.0565
   93SOL     ow  369   2.440   0.983   2.726 -0.1785 -0.3497  0.2197
   93SOL     hw  370   2.353   0.943   2.723 -0.1909 -0.3211  0.2069
   93SOL     hw  371   2.466   0.977   2.818  0.1047 -1.0016  0.1042
   93SOL     vw  372   2.432   0.977   2.738 -0.1427 -0.4320  0.2028
   94SOL     ow  373   1.117   0.750   5.897 -0.7206 -0.0443  0.1450
   94SOL     hw  374   1.055   0.786   5.834  0.3262 -1.2775 -1.7073
   94SOL     hw  375   1.191   0.811   5.895 -0.0643 -0.8347 -0.9987
   94SOL     vw  376   1.119   0.763   5.888 -0.4959 -0.3113 -0.2503
   95SOL     ow  377   0.579   0.293   5.293  0.0574 -0.1515 -0.4283
   95SOL     hw  378   0.650   0.256   5.241  2.2512  0.2959  2.0320
   95SOL     hw  379   0.623   0.353   5.353 -2.6723  1.6880 -0.1025
   95SOL     vw  380   0.594   0.296   5.294 -0.0134  0.1503 -0.0608
   96SOL     ow  381   2.158   1.726   4.017 -0.0321  0.6604 -0.2364
   96SOL     hw  382   2.088   1.791   4.015  0.2189  1.0833  1.9308
   96SOL     hw  383   2.114   1.643   4.000 -1.5599  0.6166  3.0828
   96SOL     vw  384   2.143   1.724   4.015 -0.2006  0.7103  0.4873
   97SOL     ow  385   0.407   2.512   1.623  0.2682 -0.9423  0.8131
   97SOL     hw  386   0.483   2.554   1.664  0.1517 -0.3246  0.4152
   97SOL     hw  387   0.335   2.574   1.636 -0.3973 -1.8957  1.9444
   97SOL     vw  388   0.408   2.526   1.630  0.1651 -0.9865  0.9100
   98SOL     ow  389   0.834   1.156   4.750 -0.3345  0.6194 -0.5222
   98SOL     hw  390   0.823   1.251   4.740  2.8719  1.2214  0.3673
   98SOL     hw  391   0.836   1.142   4.845  0.2471 -0.1888 -0.6452
   98SOL     vw  392   0.833   1.167   4.761  0.1653  0.5922 -0.4210
   99SOL     ow  393   0.623   0.095   1.756  0.3106  0.0283  0.2875
   99SOL     hw  394   0.698   0.041   1.780  1.1918 -0.0766 -2.3335
   99SOL     hw  395   0.594   0.135   1.838  3.3049  0.1700  1.3914
   99SOL     vw  396   0.629   0.094   1.770  0.8219  0.0331  0.0874
  100SOL     ow  397   1.788   0.142   3.006 -0.6153 -0.2563 -0.6626
  100SOL     hw  398   1.880   0.117   2.998 -1.0484 -2.2343 -0.1350
  100SOL     hw  399   1.740   0.059   3.004 -2.3275  0.6488 -0.0031
  100SOL     vw  400   1.794   0.128   3.004 -0.8984 -0.3979 -0.5060
  101SOL     ow  401   1.076   1.638   4.396  0.0047  0.5812 -0.2178
  101SOL     hw  402   1.080   1.568   4.461  0.5604  0.2800 -0.5656
  101SOL     hw  403   1.120   1.712   4.438 -1.0678  0.9126  0.3611
  101SOL     vw  404   1.083   1.638   4.411 -0.0634  0.5851 -0.1872
  102SOL     ow  405   0.413   0.973   5.677  0.4130  0.1050 -0.1791
  102SOL     hw  406   0.324   0.989   5.709  0.5011  0.8322 -0.2681
  102SOL     hw  407   0.457   0.927   5.748  1.5286  4.2821  2.1718
  102SOL     vw  408   0.407   0.969   5.690  0.5718  0.7521  0.1194
  103SOL     ow  409   1.090   0.812   1.979 -0.0287 -1.0276 -0.6746
  103SOL     hw  410   1.155   0.849   2.039  0.2439 -0.4864 -1.2926
  103SOL     hw  411   1.142   0.770   1.911 -0.3034 -0.1205 -1.4680
  103SOL     vw  412   1.105   0.811   1.978 -0.0290 -0.8366 -0.8608
  104SOL     ow  413   0.602   2.129   7.018 -0.2682  0.1277 -0.4355
  104SOL     hw  414   0.549   2.105   7.094 -0.0590 -0.7614 -0.5587
  104SOL     hw  415   0.666   2.191   7.053 -0.4168  0.0225  0.0353
  104SOL     vw  416   0.603   2.134   7.033 -0.2601 -0.0035 -0.3898
  105SOL     ow  417   0.495   0.154   2.734  0.1382 -0.2257  0.4422
  105SOL     hw  418   0.577   0.203   2.736  0.8010 -1.2856  0.1780
  105SOL     hw  419   0.429   0.218   2.706  1.1997  0.1924 -1.1973
  105SOL     vw  420   0.497   0.169   2.731  0.3657 -0.3103  0.1911
  106SOL     ow  421   0.569   0.587   6.735  0.5682 -0.1399 -0.0747
  106SOL     hw  422   0.610   0.541   6.661  0.7817  1.1972 -0.8168
  106SOL     hw  423   0.509   0.523   6.772  0.6116 -0.9167 -1.2815
  106SOL     vw  424   0.567   0.572   6.730  0.6021 -0.0660 -0.3316
  107SOL     ow  425   2.351   1.230   3.202  1.1771  0.2242 -0.4944
  107SOL     hw  426   2.436   1.214   3.242  0.6994  0.0367  0.4615
  107SOL     hw  427   2.291   1.242   3.276  0.1943 -0.5484 -1.1454
  107SOL     vw  428   2.354   1.230   3.217  0.9844  0.0976 -0.4542
  108SOL     ow  429   1.618   1.075   3.979 -0.5722  0.3460 -0.0239
  108SOL     hw  430   1.637   1.087   4.072 -0.3075  0.5208 -0.0976
  108SOL     hw  431   1.632   0.982   3.963  4.4371  0.9666 -0.9406
  108SOL     vw  432   1.622   1.064   3.989  0.1237  0.4509 -0.1546
  109SOL     ow  433   0.237   1.857   3.425 -0.4003  0.6887 -0.4409
  109SOL     hw  434   0.285   1.937   3.447 -1.7372  1.8976 -1.7472
  109SOL     hw  435   0.237   1.807   3.507  3.6595  0.2077 -0.4929
  109SOL     vw  436   0.244   1.861   3.439 -0.0410  0.7848 -0.6202
  110SOL     ow  437   0.061   2.523   4.049 -0.5001 -1.0831 -0.1756
  110SOL     hw  438  -0.035   2.511   4.049 -0.5000 -1.0944  0.0647
  110SOL     hw  439   0.074   2.616   4.032 -0.5245 -1.2605 -1.2418
  110SOL     vw  440   0.050   2.533   4.047 -0.5033 -1.1080 -0.2847
  111SOL     ow  441   2.194   1.521   2.843 -0.4067  0.1947  0.8523
  111SOL     hw  442   2.127   1.583   2.817 -0.8782 -0.9212 -0.7461
  111SOL     hw  443   2.277   1.562   2.818 -0.6730  0.4249  0.3344
  111SOL     vw  444   2.196   1.534   2.836 -0.5040  0.0778  0.5730
  112SOL     ow  445   0.857   2.493   0.060  0.1811  0.2507  0.3372
  112SOL     hw  446   0.770   2.522   0.035 -1.0798 -2.4402  1.2510
  112SOL     hw  447   0.864   2.404   0.026  1.8403 -0.2699  1.8628
  112SOL     vw  448   0.847   2.485   0.052  0.2336 -0.1730  0.6590
  113SOL     ow  449   1.282   2.455   4.375 -0.2935 -0.3346  0.3833
  113SOL     hw  450   1.295   2.550   4.375 -0.0835 -0.3624  0.1935
  113SOL     hw  451   1.278   2.432   4.467 -0.8566 -0.0736  0.4292
  113SOL     vw  452   1.283   2.465   4.387 -0.3401 -0.3038  0.3643
  114SOL     ow  453   0.279   2.050   5.236  0.5013 -0.1964 -0.0121
  114SOL     hw  454   0.252   1.962   5.210 -0.6922  0.1727 -0.0773
  114SOL     hw  455   0.372   2.041   5.257  0.3742 -1.4980  0.0952
  114SOL     vw  456   0.288   2.037   5.236  0.3270 -0.3195 -0.0067
  115SOL     ow  457   1.400   1.998   5.871  0.2842  0.6216  0.4247
  115SOL     hw  458   1.400   2.039   5.784 -3.7187  0.6883  0.2765
  115SOL     hw  459   1.437   2.065   5.929  1.6113  1.1548 -0.9543
  115SOL     vw  460   1.405   2.012   5.867 -0.0688  0.7008  0.2232
  116SOL     ow  461   1.541   0.283   3.110  0.7837 -0.4846 -0.1524
  116SOL     hw  462   1.520   0.194   3.080  0.2602 -0.2930 -0.3646
  116SOL     hw  463   1.468   0.307   3.167  0.3451  0.2359 -0.9923
  116SOL     vw  464   1.528   0.274   3.114  0.6567 -0.3642 -0.2912
  117SOL     ow  465   0.493   0.243   1.991 -0.2903 -0.1088 -0.3712
  117SOL     hw  466   0.433   0.286   1.931 -0.4099  0.4498  0.1482
  117SOL     hw  467   0.525   0.312   2.049 -0.2342 -0.6448  0.2623
  117SOL     vw  468   0.489   0.258   1.991 -0.2987 -0.1058 -0.2192
  118SOL     ow  469   0.588   2.448   3.952 -0.5878  0.0629  0.7257
  118SOL     hw  470   0.635   2.519   3.908 -0.0465 -0.6273  0.1433
  118SOL     hw  471   0.658   2.387   3.979 -1.0542 -0.3747  0.9625
  118SOL     vw  472   0.604   2.449   3.950 -0.5780 -0.0858  0.6801
  119SOL     ow  473   2.249   2.401   0.458 -1.4181  0.0097  0.2649
  119SOL     hw  474   2.325   2.366   0.411 -1.7849  0.0439 -0.3656
  119SOL     hw  475   2.285   2.474   0.510 -0.7457 -0.9474  1.1813
  119SOL     vw  476   2.264   2.406   0.459 -1.3777 -0.1121  0.3026
  120SOL     ow  477   1.481   2.007   1.890  0.1021 -0.2471  0.0850
  120SOL     hw  478   1.430   1.981   1.967  0.2767  2.2143  1.1066
  120SOL     hw  479   1.572   1.986   1.914  0.3769  2.0795  1.3564
  120SOL     vw  480   1.487   2.001   1.904  0.1613  0.3845  0.3874
  121SOL     ow  481   0.368   1.535   0.613  0.4811 -0.8628 -0.6603
  121SOL     hw  482   0.327   1.451   0.590 -0.0708 -0.8810  0.3509
  121SOL     hw  483   0.399   1.570   0.529  0.6737 -2.0461 -1.1039
  121SOL     vw  484   0.367   1.529   0.599  0.4337 -1.0214 -0.5854
  122SOL     ow  485   2.400   0.466   5.548 -0.4539 -0.3222 -0.0703
  122SOL     hw  486   2.304   0.458   5.551 -0.5671  1.0295  2.5638
  122SOL     hw  487   2.417   0.555   5.579  1.7005 -0.7583  0.1079
  122SOL     vw  488   2.389   0.477   5.552 -0.1847 -0.2014  0.3011
  123SOL     ow  489   1.206   2.223   3.449  0.5998  0.4232 -0.9473
  123SOL     hw  490   1.301   2.216   3.448  0.5173 -1.1223 -0.1200
  123SOL     hw  491   1.176   2.151   3.505 -1.0185  1.3569 -0.5260
  123SOL     vw  492   1.214   2.213   3.456  0.3754  0.3426 -0.7826
  124SOL     ow  493   0.011   0.449   3.571  0.0935  0.6048  0.8316
  124SOL     hw  494  -0.075   0.439   3.531  1.5680 -1.6045 -2.2668
  124SOL     hw  495   0.003   0.408   3.657 -1.1682 -2.9966 -0.8069
  124SOL     vw  496  -0.001   0.442   3.577  0.1216 -0.1618  0.2066
  125SOL     ow  497   2.412   0.575   6.864  0.1645  0.6575 -0.0510
  125SOL     hw  498   2.430   0.647   6.804  2.1899 -1.7460 -2.5861
  125SOL     hw  499   2.498   0.546   6.894 -0.3052 -2.2031 -1.1234
  125SOL     vw  500   2.425   0.580   6.860  0.3698 -0.0370 -0.5269
  126SOL     ow  501   2.052   2.302   3.062 -0.0352 -0.4695 -0.0892
  126SOL     hw  502   1.957   2.313   3.064  0.1766  1.6599  1.0693
  126SOL     hw  503   2.074   2.299   2.969 -1.1856 -0.3149 -0.3760
  126SOL     vw  504   2.043   2.303   3.050 -0.1589 -0.1681  0.0259
  127SOL     ow  505   2.389   0.280   5.337 -0.2240 -0.8143  0.0644
  127SOL     hw  506   2.414   0.209   5.278  2.6764  0.3411 -0.2828
  127SOL     hw  507   2.306   0.252   5.374 -0.2221 -3.4055 -1.6027
  127SOL     vw  508   2.382   0.267   5.334  0.1590 -1.0037 -0.2012
  128SOL     ow  509   0.411   2.056   6.332  0.0012 -0.3799 -0.1234
  128SOL     hw  510   0.416   2.011   6.248 -3.0230 -2.6077  0.7169
  128SOL     hw  511   0.358   2.135   6.315  1.3117  0.4122 -0.6766
  128SOL     vw  512   0.404   2.061   6.319 -0.2249 -0.5695 -0.0854
  129SOL     ow  513   1.688   1.901   6.313  0.3374 -0.6022 -0.3803
  129SOL     hw  514   1.646   1.987   6.304  0.9744 -0.0582  1.4627
  129SOL     hw  515   1.765   1.907   6.256 -0.1265 -0.3208 -1.0047
  129SOL     vw  516   1.693   1.913   6.304  0.3603 -0.4933 -0.2193
  130SOL     ow  517   0.619   1.188   0.492  0.3954  0.4109 -0.3205
  130SOL     hw  518   0.561   1.225   0.426  1.1646  2.2109 -0.0475
  130SOL     hw  519   0.656   1.109   0.451 -2.3020 -0.9246 -0.4371
  130SOL     vw  520   0.616   1.182   0.478  0.1410  0.4721 -0.2999
  131SOL     ow  521   0.089   1.356   2.411  0.7280  0.3814 -0.2481
  131SOL     hw  522   0.059   1.280   2.462  0.7383 -0.3325 -1.2830
  131SOL     hw  523   0.058   1.431   2.461  2.1829 -0.2454  1.7105
  131SOL     vw  524   0.081   1.356   2.424  0.9213  0.2044 -0.1262
  132SOL     ow  525   1.252   0.893   3.183  0.7510  0.0687  0.0051
  132SOL     hw  526   1.179   0.933   3.136  1.0724  0.2871 -0.3171
  132SOL     hw  527   1.226   0.802   3.197  0.0815  0.3477  0.5954
  132SOL     vw  528   1.239   0.886   3.178  0.7051  0.1343  0.0404
  133SOL     ow  529   1.073   0.239   6.824  0.0412  0.1266 -0.1147
  133SOL     hw  530   1.168   0.241   6.807  0.1625  0.2555  0.5740
  133SOL     hw  531   1.065   0.261   6.916 -0.6635  0.0378 -0.1552
  133SOL     vw  532   1.085   0.242   6.834 -0.0358  0.1319 -0.0291
  134SOL     ow  533   0.719   1.261   0.723 -0.3676  0.1544 -0.8827
  134SOL     hw  534   0.800   1.213   0.740 -1.9092 -2.5676 -0.6586
  134SOL     hw  535   0.696   1.237   0.633  0.5053  3.2942 -2.0812
  134SOL     vw  536   0.727   1.252   0.713 -0.4558  0.2095 -1.0113
  135SOL     ow  537   0.107   2.066   2.915 -0.0008  0.0253  0.9773
  135SOL     hw  538   0.081   2.148   2.872 -0.0899 -0.0240  0.9359
  135SOL     hw  539   0.091   1.998   2.849  1.8074  0.1631  0.3449
  135SOL     vw  540   0.101   2.068   2.901  0.2260  0.0370  0.8883
  136SOL     ow  541   2.144   0.626   0.375  0.2292 -0.0228 -0.7297
  136SOL     hw  542   2.177   0.706   0.417 -0.8234  0.9771 -1.7522
  136SOL     hw  543   2.146   0.560   0.445 -1.0415  1.4809  0.8123
  136SOL     vw  544   2.148   0.628   0.390 -0.0774  0.3075 -0.6611
  137SOL     ow  545   1.960   1.937   4.023  0.0352  0.0682 -0.2802
  137SOL     hw  546   1.933   1.845   4.013 -0.5821  0.3357 -1.2083
  137SOL     hw  547   1.927   1.980   3.944 -2.2983  1.7313  1.4727
  137SOL     vw  548   1.952   1.930   4.011 -0.3541  0.3229 -0.1714
  138SOL     ow  549   1.094   2.369   1.788 -0.0986  0.0428  0.7549
  138SOL     hw  550   1.020   2.430   1.793 -0.2747  0.0952 -1.4701
  138SOL     hw  551   1.057   2.285   1.816 -1.2643 -0.1028 -1.0818
  138SOL     vw  552   1.079   2.366   1.793 -0.2757  0.0304  0.2190
  139SOL     ow  553   2.260   2.222   6.961  0.5522 -0.1580  0.1987
  139SOL     hw  554   2.344   2.182   6.940 -0.6319 -2.4729 -0.5618
  139SOL     hw  555   2.202   2.194   6.890 -0.8794  1.3258  0.7240
  139SOL     vw  556   2.263   2.213   6.949  0.2072 -0.2677  0.1678
  140SOL     ow  557   2.395   1.556   5.762 -0.0980  0.0499  0.0094
  140SOL     hw  558   2.425   1.572   5.852 -0.5886  0.5264  0.0980
  140SOL     hw  559   2.374   1.643   5.729 -0.9322 -0.2213 -0.1993
  140SOL     vw  560   2.396   1.570   5.770 -0.2729  0.0770 -0.0064
  141SOL     ow  561   0.718   1.586   6.818  0.4215 -0.0991 -0.0407
  141SOL     hw  562   0.749   1.504   6.857 -0.9110 -1.2176 -1.2171
  141SOL     hw  563   0.650   1.559   6.756  1.1044  1.7645 -1.7099
  141SOL     vw  564   0.713   1.571   6.815  0.3358 -0.0008 -0.4163
  142SOL     ow  565   1.760   0.517   3.560  0.1990 -0.4576 -0.0946
  142SOL     hw  566   1.774   0.574   3.635  0.8908  1.7867 -1.8217
  142SOL     hw  567   1.780   0.429   3.593  0.4500  0.4194  2.3185
  142SOL     vw  568   1.765   0.513   3.574  0.3234 -0.0458 -0.0042
  143SOL     ow  569   0.077   0.012   6.564 -0.0306  0.0855 -0.1722
  143SOL     hw  570   0.026  -0.059   6.604 -0.3073  0.8986  0.9795
  143SOL     hw  571   0.012   0.080   6.546  0.2238  0.0436 -1.3131
  143SOL     vw  572   0.061   0.011   6.567 -0.0336  0.1872 -0.1709
  144SOL     ow  573   1.056   2.517   5.260  0.5187  0.7856 -0.4388
  144SOL     hw  574   1.073   2.513   5.354 -0.6909  1.2061 -0.1856
  144SOL     hw  575   1.029   2.607   5.244  1.4711  0.9197 -1.3357
  144SOL     vw  576   1.055   2.528   5.270  0.4849  0.8589 -0.5238
  145SOL     ow  577   1.520   1.453   1.367 -0.1714 -0.0900  0.0872
  145SOL     hw  578   1.508   1.367   1.326 -1.2614  0.2930 -0.4231
  145SOL     hw  579   1.545   1.511   1.294 -0.8641  0.3264  0.1722
  145SOL     vw  580   1.522   1.449   1.352 -0.4067  0.0155  0.0310
  146SOL     ow  581   0.141   0.167   5.375 -0.0977  0.2714 -0.2747
  146SOL     hw  582   0.222   0.212   5.349 -0.3232 -0.9796 -3.5321
  146SOL     hw  583   0.170   0.081   5.404 -0.0993  0.7330  1.1907
  146SOL     vw  584   0.156   0.162   5.376 -0.1277  0.1672 -0.5112
  147SOL     ow  585   0.399   0.448   1.567 -0.5027  0.2335  0.2480
  147SOL     hw  586   0.325   0.508   1.554 -0.5018  0.0373 -0.7351
  147SOL     hw  587   0.386   0.413   1.655 -1.2646  0.6322  0.3040
  147SOL     vw  588   0.388   0.451   1.577 -0.6032  0.2602  0.1257
  148SOL     ow  589   0.150   2.424   2.115 -0.7037  0.1685 -0.2611
  148SOL     hw  590   0.101   2.490   2.065 -0.6884 -1.3396 -2.3652
  148SOL     hw  591   0.101   2.343   2.103  1.1756 -0.9580 -0.7192
  148SOL     vw  592   0.137   2.422   2.107 -0.4538 -0.1792 -0.5993
  149SOL     ow  593   0.564   0.962   5.016 -0.1941  0.0679 -0.4520
  149SOL     hw  594   0.653   0.980   5.048 -0.4648  2.2724 -0.8028
  149SOL     hw  595   0.550   0.869   5.036  0.9354  0.4398  2.6309
  149SOL     vw  596   0.574   0.952   5.023 -0.0808  0.4078 -0.0913
  150SOL     ow  597   2.525   1.586   6.020  0.7940 -0.1428 -0.2210
  150SOL     hw  598   2.582   1.661   6.033 -1.3665  1.3011  1.6482
  150SOL     hw  599   2.550   1.524   6.088  1.1626 -0.2166 -0.4206
  150SOL     vw  600   2.536   1.588   6.030  0.5577  0.0379 -0.0010
  151SOL     ow  601   0.707   0.458   6.545  0.9692 -0.0025  0.4665
  151SOL     hw  602   0.754   0.375   6.555  2.8277  0.9464 -0.0145
  151SOL     hw  603   0.768   0.525   6.575 -0.2014  1.2780  0.1083
  151SOL     vw  604   0.721   0.456   6.550  1.0599  0.2917  0.3560
  152SOL     ow  605   0.695   1.708   3.212  0.2174  0.1397 -0.4205
  152SOL     hw  606   0.681   1.673   3.124  2.4642  0.0636 -0.7943
  152SOL     hw  607   0.717   1.800   3.198  0.3604  0.1856  0.0922
  152SOL     vw  608   0.696   1.716   3.199  0.5327  0.1357 -0.4022
  153SOL     ow  609   2.103   0.260   3.037  0.1776 -0.7146 -0.2744
  153SOL     hw  610   2.084   0.231   3.127 -0.3369  0.0739 -0.1164
  153SOL     hw  611   2.181   0.313   3.046  0.4400 -1.0764 -0.3841
  153SOL     vw  612   2.110   0.263   3.050  0.1445 -0.6583 -0.2681
  154SOL     ow  613   2.334   1.266   0.222 -0.1515  0.1703  0.0640
  154SOL     hw  614   2.343   1.317   0.141 -0.8751  0.7593  0.3543
  154SOL     hw  615   2.281   1.320   0.280 -1.2292 -1.0404  0.2535
  154SOL     vw  616   2.329   1.280   0.219 -0.3891  0.0883  0.1273
  155SOL     ow  617   0.846   0.380   6.994  0.5249  0.0740 -0.6927
  155SOL     hw  618   0.787   0.453   6.973  0.9265  0.3584 -0.8431
  155SOL     hw  619   0.805   0.304   6.953 -0.7870 -0.1189  0.8695
  155SOL     vw  620   0.833   0.380   6.986  0.4048  0.0861 -0.5066
  156SOL     ow  621   0.347   1.659   5.309 -0.1892  0.4935  0.1712
  156SOL     hw  622   0.391   1.711   5.376  0.0588  0.4857  0.0177
  156SOL     hw  623   0.315   1.723   5.246 -1.6156  0.6118  0.9701
  156SOL     vw  624   0.349   1.674   5.310 -0.3446  0.5081  0.2565
  157SOL     ow  625   0.754   1.926   6.873  0.4619  0.1795  0.4822
  157SOL     hw  626   0.691   1.911   6.803 -0.2006  2.0112  0.6361
  157SOL     hw  627   0.723   2.006   6.916  2.3705  0.6022  1.1458
  157SOL     vw  628   0.741   1.935   6.869  0.6264  0.4769  0.5901
  158SOL     ow  629   1.509   1.511   0.465 -0.5789 -1.1113  0.5452
  158SOL     hw  630   1.420   1.486   0.440 -0.2408 -0.2564 -1.7879
  158SOL     hw  631   1.547   1.432   0.504 -1.5138 -2.3261 -0.9026
  158SOL     vw  632   1.503   1.498   0.467 -0.6577 -1.1588  0.0464
  159SOL     ow  633   0.053   1.363   0.323 -0.3039  0.0127  0.4534
  159SOL     hw  634  -0.024   1.318   0.289 -0.8796  1.4925 -0.2524
  159SOL     hw  635   0.027   1.455   0.329  1.0152  0.3556  1.3622
  159SOL     vw  636   0.039   1.369   0.319 -0.2058  0.2531  0.4802
  160SOL     ow  637   0.817   1.635   4.458  0.4895  0.6855  0.0760
  160SOL     hw  638   0.772   1.610   4.378  0.5010  0.2263  0.2079
  160SOL     hw  639   0.909   1.642   4.432  0.7124 -0.9046  0.3521
  160SOL     vw  640   0.823   1.633   4.444  0.5204  0.4150  0.1299
  161SOL     ow  641   1.101   0.892   2.509 -0.3449 -0.6581  0.1070
  161SOL     hw  642   1.053   0.848   2.579  2.6683 -0.9370  2.1639
  161SOL     hw  643   1.160   0.825   2.474  1.7714  0.7357  0.8437
  161SOL     vw  644   1.102   0.877   2.513  0.3318 -0.5110  0.4754
  162SOL     ow  645   0.239   2.456   5.561 -0.4632 -0.7193 -0.5365
  162SOL     hw  646   0.149   2.480   5.585 -0.2557 -2.2180  2.1281
  162SOL     hw  647   0.283   2.443   5.644  3.2354  2.9956 -1.5706
  162SOL     vw  648   0.233   2.458   5.575  0.0521 -0.4270 -0.3211
  163SOL     ow  649   1.773   2.355   0.389  0.9986 -1.0898 -0.2252
  163SOL     hw  650   1.767   2.450   0.376  0.2959 -0.6111  2.7921
  163SOL     hw  651   1.854   2.342   0.439  0.6935 -1.9818  0.0632
  163SOL     vw  652   1.783   2.366   0.393  0.8656 -1.1443  0.2109
  164SOL     ow  653   0.074   1.643   3.534  0.0222  0.0603  0.1291
  164SOL     hw  654   0.085   1.551   3.561 -1.6161 -0.5251 -1.0161
  164SOL     hw  655   0.062   1.691   3.616  1.3305 -0.6594  0.7706
  164SOL     vw  656   0.074   1.637   3.549 -0.0213 -0.1119  0.0627
  165SOL     ow  657   1.566   2.389   0.605  0.7353  0.2801 -0.0863
  165SOL     hw  658   1.530   2.360   0.688  2.3134 -2.1195 -0.1453
  165SOL     hw  659   1.621   2.465   0.627  0.9332 -0.1701  1.0125
  165SOL     vw  660   1.569   2.396   0.619  0.9696 -0.0960  0.0509
  166SOL     ow  661   1.831   2.433   5.990 -0.0148  0.0462 -0.3635
  166SOL     hw  662   1.823   2.432   6.085  0.1441 -0.7948 -0.3479
  166SOL     hw  663   1.892   2.505   5.972  1.2715 -0.8392  0.3028
  166SOL     vw  664   1.838   2.442   6.000  0.1759 -0.1817 -0.2737
  167SOL     ow  665   0.213   1.936   5.474 -0.1756  0.7341  0.4384
  167SOL     hw  666   0.266   1.956   5.550  0.3476  1.2765 -0.0584
  167SOL     hw  667   0.255   1.984   5.402 -0.3535 -0.1829 -0.2921
  167SOL     vw  668   0.225   1.945   5.474 -0.1301  0.6847  0.2766
  168SOL     ow  669   0.384   0.800   5.440  0.4133  0.6470  0.1807
  168SOL     hw  670   0.393   0.858   5.515  1.0230  1.9317 -0.8347
  168SOL     hw  671   0.289   0.794   5.426  0.2860  0.2707  1.1205
  168SOL     vw  672   0.373   0.807   5.448  0.4769  0.7669  0.1707
  169SOL     ow  673   0.651   1.745   4.715 -0.3566  0.4785 -0.1586
  169SOL     hw  674   0.601   1.664   4.709 -0.0494  0.2324  0.6082
  169SOL     hw  675   0.716   1.730   4.784 -1.0948  1.7953  0.8795
  169SOL     vw  676   0.653   1.733   4.723 -0.4135  0.6198  0.0796
  170SOL     ow  677   0.808   0.712   3.756 -0.3541 -0.5576  0.1037
  170SOL     hw  678   0.755   0.633   3.765  1.3400 -1.5748  2.0933
  170SOL     hw  679   0.865   0.694   3.681 -0.6981 -0.7612 -0.1142
  170SOL     vw  680   0.809   0.699   3.747 -0.1760 -0.7187  0.3376
  171SOL     ow  681   1.276   0.899   6.279 -0.4254 -0.4961  0.4897
  171SOL     hw  682   1.215   0.959   6.236 -0.9210 -2.3910 -1.6272
  171SOL     hw  683   1.356   0.904   6.228  0.6913  0.6947  2.2413
  171SOL     vw  684   1.278   0.908   6.267 -0.3434 -0.5890  0.4416
  172SOL     ow  685   1.432   1.945   2.371 -0.3007  0.3935 -0.0532
  172SOL     hw  686   1.522   1.916   2.387 -0.6895 -1.0034 -0.1944
  172SOL     hw  687   1.405   1.987   2.452  0.4146  0.6721  0.0505
  172SOL     vw  688   1.440   1.946   2.384 -0.2577  0.2459 -0.0581
  173SOL     ow  689   0.991   0.133   5.040  0.0127 -0.3687  0.1258
  173SOL     hw  690   0.900   0.144   5.067 -0.9040 -1.8628 -2.0922
  173SOL     hw  691   0.992   0.159   4.948  1.8270 -0.4909  0.0775
  173SOL     vw  692   0.979   0.138   5.032  0.1311 -0.5820 -0.1729
  174SOL     ow  693   0.069   2.284   6.678 -0.0205 -0.1229 -0.4948
  174SOL     hw  694   0.053   2.283   6.772  0.7475  1.8186 -0.2998
  174SOL     hw  695   0.028   2.203   6.646 -1.2051 -0.3074  1.3364
  174SOL     vw  696   0.061   2.273   6.686 -0.0753  0.1091 -0.2275
  175SOL     ow  697   0.444   2.354   5.044  0.1864  1.2821  0.5162
  175SOL     hw  698   0.418   2.288   4.980 -1.6582  1.9023  0.5688
  175SOL     hw  699   0.520   2.398   5.005  1.4862 -0.8446  0.5022
  175SOL     vw  700   0.451   2.351   5.030  0.1145  1.0834  0.5214
  176SOL     ow  701   2.297   0.625   0.068 -0.2135  1.1579  0.9151
  176SOL     hw  702   2.315   0.606  -0.024 -2.4016  1.7040  0.3239
  176SOL     hw  703   2.362   0.691   0.091  0.2573  1.1444 -0.2730
  176SOL     vw  704   2.308   0.631   0.059 -0.4400  1.2282  0.6804
  177SOL     ow  705   2.004   0.899   5.794  0.5012  0.0068 -0.2667
  177SOL     hw  706   1.948   0.976   5.786 -1.6523 -1.0920  2.5040
  177SOL     hw  707   2.085   0.933   5.834 -0.0191  0.9845 -0.0052
  177SOL     vw  708   2.008   0.914   5.798  0.1483 -0.0091  0.1335
  178SOL     ow  709   0.826   1.462   0.535  0.2817  0.3561 -0.3086
  178SOL     hw  710   0.794   1.397   0.598  1.5524 -1.2580 -1.2457
  178SOL     hw  711   0.886   1.517   0.586  0.9413 -0.6438  0.0427
  178SOL     vw  712   0.830   1.460   0.550  0.5364  0.0111 -0.3859
  179SOL     ow  713   1.083   0.179   4.772 -0.3889  0.1165 -0.0539
  179SOL     hw  714   1.047   0.159   4.686  1.2500 -1.0569 -0.5194
  179SOL     hw  715   1.138   0.257   4.759 -0.6600  0.3306  0.0760
  179SOL     vw  716   1.086   0.187   4.759 -0.2084 -0.0101 -0.0985
  180SOL     ow  717   1.966   1.732   3.671  0.0366  0.3797 -0.1495
  180SOL     hw  718   1.903   1.728   3.599  0.4476  0.7419 -0.5421
  180SOL     hw  719   1.985   1.825   3.681 -1.2009  0.4858  1.5104
  180SOL     vw  720   1.960   1.744   3.663 -0.0724  0.4415  0.0178
  181SOL     ow  721   1.825   1.906   6.912  0.2673  0.3282 -0.1667
  181SOL     hw  722   1.830   1.818   6.950 -1.1418  0.2646 -0.0624
  181SOL     hw  723   1.733   1.931   6.923 -0.5357 -0.0610 -4.3600
  181SOL     vw  724   1.814   1.898   6.919 -0.0246  0.2685 -0.7060
  182SOL     ow  725   1.529   1.368   4.094 -0.4403 -0.4219  0.0392
  182SOL     hw  726   1.482   1.355   4.176 -0.8111  0.1384 -0.0790
  182SOL     hw  727   1.594   1.436   4.114 -0.9728  0.1926 -0.2988
  182SOL     vw  728   1.532   1.375   4.107 -0.5595 -0.2668 -0.0212
  183SOL     ow  729   0.078   1.343   5.749 -0.1625  0.0323 -0.1775
  183SOL     hw  730   0.034   1.323   5.832 -0.3105 -0.1055 -0.2883
  183SOL     hw  731   0.166   1.370   5.774  0.0957 -0.9095 -0.0322
  183SOL     vw  732   0.083   1.344   5.763 -0.1480 -0.1101 -0.1729
  184SOL     ow  733   0.800   1.897   6.250 -0.0281 -0.1136  0.0540
  184SOL     hw  734   0.824   1.866   6.163 -1.2584 -0.4805 -0.1721
  184SOL     hw  735   0.777   1.989   6.238 -1.0600 -0.3925 -0.1915
  184SOL     vw  736   0.800   1.905   6.237 -0.3266 -0.1988 -0.0083
  185SOL     ow  737   1.578   0.177   2.095 -0.1768 -0.7459  0.4118
  185SOL     hw  738   1.592   0.269   2.075  1.2417 -1.2524 -1.3293
  185SOL     hw  739   1.614   0.165   2.183 -0.4046  0.3527  0.6648
  185SOL     vw  740   1.585   0.187   2.104 -0.0197 -0.6678  0.2154
  186SOL     ow  741   1.170   1.883   4.505  0.0270  0.6857  0.3440
  186SOL     hw  742   1.160   1.953   4.441  1.7912  0.0857 -0.6450
  186SOL     hw  743   1.262   1.887   4.531  0.3982 -1.7890 -0.3700
  186SOL     vw  744   1.181   1.893   4.500  0.3087  0.2800  0.1192
  187SOL     ow  745   0.746   1.657   0.350  0.1701 -0.7711 -0.2490
  187SOL     hw  746   0.784   1.635   0.266  2.6060 -0.1435  0.6075
  187SOL     hw  747   0.782   1.592   0.411  0.0808 -0.0123  0.6383
  187SOL     vw  748   0.756   1.646   0.347  0.4797 -0.5882 -0.0189
  188SOL     ow  749   1.413   1.754   4.616 -0.5415  0.3161 -0.1356
  188SOL     hw  750   1.476   1.689   4.649  0.2953  1.2890  0.2614
  188SOL     hw  751   1.327   1.719   4.639 -0.0574 -0.0796  1.1642
  188SOL     vw  752   1.410   1.741   4.623 -0.3672  0.3923  0.0882
  189SOL     ow  753   0.006   1.327   1.571 -0.1574 -0.9981  0.1467
  189SOL     hw  754  -0.077   1.294   1.606 -0.9424  0.6388 -0.0570
  189SOL     hw  755   0.042   1.380   1.641  0.4855 -1.3076  0.0539
  189SOL     vw  756  -0.000   1.330   1.585 -0.1761 -0.8229  0.1076
  190SOL     ow  757   2.504   1.688   5.168 -0.3960 -0.4554 -0.2081
  190SOL     hw  758   2.424   1.728   5.135 -1.0902 -1.1629  0.5754
  190SOL     hw  759   2.522   1.733   5.250  0.1892 -0.1024 -0.5162
  190SOL     vw  760   2.496   1.699   5.174 -0.4106 -0.5022 -0.1454
  191SOL     ow  761   0.229   1.296   0.540  0.1348  0.1603 -0.5675
  191SOL     hw  762   0.167   1.298   0.467 -0.0248 -3.4817 -0.7049
  191SOL     hw  763   0.313   1.274   0.500 -0.0266 -2.2629  0.2947
  191SOL     vw  764   0.232   1.293   0.525  0.0925 -0.6400 -0.4719
  192SOL     ow  765   0.722   0.997   3.648  0.2571  0.5268 -0.1644
  192SOL     hw  766   0.783   1.057   3.605 -0.1784  1.7804  0.9169
  192SOL     hw  767   0.684   0.946   3.576  1.4978  0.7282 -0.9887
  192SOL     vw  768   0.725   0.998   3.633  0.3633  0.7187 -0.1305
  193SOL     ow  769   2.134   2.018   4.736 -0.0025  0.1085 -0.2458
  193SOL     hw  770   2.156   2.006   4.828  0.5630  0.6944 -0.2918
  193SOL     hw  771   2.214   1.994   4.689 -0.0274  0.5641 -0.5288
  193SOL     vw  772   2.148   2.014   4.742  0.0689  0.2458 -0.2890
  194SOL     ow  773   2.431   0.980   5.713  0.4088  0.0315  0.7599
  194SOL     hw  774   2.525   0.995   5.703  0.8289 -1.9848  1.1977
  194SOL     hw  775   2.415   0.990   5.807  0.4215 -0.7522  0.8491
  194SOL     vw  776   2.442   0.983   5.724  0.4658 -0.3379  0.8295
  195SOL     ow  777   2.302   0.326   0.189 -0.0187 -0.0282 -0.0272
  195SOL     hw  778   2.379   0.337   0.245 -0.0737  0.5295 -0.0599
  195SOL     hw  779   2.339   0.301   0.104  0.0886 -0.4192  0.1310
  195SOL     vw  780   2.317   0.324   0.185 -0.0118 -0.0062 -0.0106
  196SOL     ow  781   2.072   1.570   3.187 -0.1913 -0.7357  0.0787
  196SOL     hw  782   1.988   1.598   3.150  0.0687  1.8699  1.1939
  196SOL     hw  783   2.050   1.497   3.245 -1.7945  0.1853  0.7016
  196SOL     vw  784   2.058   1.564   3.190 -0.3686 -0.2703  0.3082
  197SOL     ow  785   0.483   2.488   1.377  0.1913  0.0611 -0.1431
  197SOL     hw  786   0.451   2.508   1.465  0.1149  0.9272 -0.3630
  197SOL     hw  787   0.529   2.405   1.387 -2.6776 -1.6437  0.0855
  197SOL     vw  788   0.485   2.480   1.390 -0.1973 -0.0495 -0.1419
  198SOL     ow  789   2.487   1.472   0.747 -0.0439 -0.2747 -0.2008
  198SOL     hw  790   2.421   1.481   0.679  0.5443 -0.6881 -0.8366
  198SOL     hw  791   2.512   1.379   0.745 -1.5434 -0.8251  2.0324
  198SOL     vw  792   2.482   1.461   0.738 -0.1642 -0.4019  0.0099
  199SOL     ow  793   0.343   1.865   6.566 -0.2643  0.0959 -0.0494
  199SOL     hw  794   0.367   1.850   6.475  2.3173 -0.2844  0.6104
  199SOL     hw  795   0.326   1.778   6.601 -1.2613  0.2418 -0.1547
  199SOL     vw  796   0.344   1.852   6.559 -0.0552  0.0649  0.0238
  200SOL     ow  797   2.420   1.312   2.896  0.3368  0.2089  0.4491
  200SOL     hw  798   2.438   1.325   2.803  0.6116  2.7935  0.7756
  200SOL     hw  799   2.489   1.362   2.941 -0.5067  0.0482  1.9946
  200SOL     vw  800   2.431   1.320   2.890  0.2618  0.5287  0.6961
  201SOL     ow  801   0.893   1.681   7.056 -0.1239  0.4680 -0.0549
  201SOL     hw  802   0.948   1.603   7.046  1.7043  1.7218 -0.4162
  201SOL     hw  803   0.933   1.729   7.129  1.2674  2.9185 -2.2449
  201SOL     vw  804   0.906   1.677   7.065  0.3009  0.9568 -0.3915
  202SOL     ow  805   0.086   1.374   3.076 -0.0507  0.1593 -0.4006
  202SOL     hw  806   0.098   1.380   3.170 -0.2299 -0.5890 -0.3255
  202SOL     hw  807   0.172   1.350   3.042  0.0881  0.7246 -0.4665
  202SOL     vw  808   0.099   1.372   3.084 -0.0561  0.1352 -0.3995
  203SOL     ow  809   0.979   1.855   4.210 -0.4197 -0.4065  0.3536
  203SOL     hw  810   1.009   1.765   4.222  4.1031  0.6361 -1.2472
  203SOL     hw  811   0.996   1.873   4.117  0.3478  2.5144  0.9686
  203SOL     vw  812   0.985   1.845   4.199  0.2783  0.1165  0.2236
  204SOL     ow  813   2.118   1.990   6.785 -0.0825 -0.1163 -0.2993
  204SOL     hw  814   2.165   1.940   6.718 -0.2183 -0.2899 -0.2659
  204SOL     hw  815   2.126   1.936   6.864  0.8874  0.5200  0.0692
  204SOL     vw  816   2.126   1.976   6.787  0.0274 -0.0552 -0.2460
  205SOL     ow  817   1.384   1.179   3.877  0.2500  0.3033  0.4510
  205SOL     hw  818   1.402   1.086   3.865  1.0121  0.4038  0.7218
  205SOL     hw  819   1.308   1.196   3.822 -0.6843 -0.7482  1.3826
  205SOL     vw  820   1.377   1.169   3.868  0.2273  0.1779  0.6095
  206SOL     ow  821   1.875   1.082   6.056 -0.0087 -0.0294  0.0876
  206SOL     hw  822   1.798   1.053   6.104  0.1761  0.1909  0.5181
  206SOL     hw  823   1.840   1.135   5.985 -0.3232 -0.8655 -0.4045
  206SOL     vw  824   1.860   1.085   6.053 -0.0258 -0.1106  0.0794
  207SOL     ow  825   0.908   0.017   1.831 -0.1903 -0.0904 -0.1032
  207SOL     hw  826   0.899  -0.014   1.921  0.4922 -0.9207 -0.3082
  207SOL     hw  827   0.960   0.097   1.838 -2.5409  1.5052  0.5004
  207SOL     vw  828   0.913   0.023   1.844 -0.4104  0.0106 -0.0506
  208SOL     ow  829   1.726   0.041   5.718 -0.2153  0.1096 -0.0806
  208SOL     hw  830   1.660   0.027   5.785 -1.8976  3.6677 -0.7416
  208SOL     hw  831   1.789   0.101   5.758  1.1596 -1.1324 -0.3326
  208SOL     vw  832   1.725   0.047   5.732 -0.2558  0.4152 -0.2010
  209SOL     ow  833   0.267   1.073   1.048  0.1330 -0.3278  0.1488
  209SOL     hw  834   0.310   1.048   1.130  0.2136 -0.1330  0.1662
  209SOL     hw  835   0.258   1.168   1.053 -1.7980 -0.5093  0.8796
  209SOL     vw  836   0.272   1.083   1.059 -0.1111 -0.3260  0.2475
  210SOL     ow  837   0.207   2.525   5.117  0.2131 -0.3700  0.0525
  210SOL     hw  838   0.172   2.471   5.047 -0.7545 -0.0714  0.2843
  210SOL     hw  839   0.141   2.594   5.129  0.7694  0.0622  0.6793
  210SOL     vw  840   0.194   2.527   5.110  0.1588 -0.2738  0.1659
  211SOL     ow  841   2.268   0.201   7.001  0.2390  0.1266 -0.3377
  211SOL     hw  842   2.195   0.140   7.006 -0.2046  0.6824 -0.0184
  211SOL     hw  843   2.242   0.266   6.936  0.2261  0.6095  0.1391
  211SOL     vw  844   2.255   0.202   6.993  0.1787  0.2636 -0.2325
  212SOL     ow  845   0.844   2.235   0.065  0.3335 -0.5133  0.0057
  212SOL     hw  846   0.877   2.264   0.149  2.4238 -0.2435 -0.8584
  212SOL     hw  847   0.887   2.151   0.049  0.8717 -0.0304 -1.2727
  212SOL     vw  848   0.854   2.228   0.074  0.6803 -0.4141 -0.2770
  213SOL     ow  849   1.883   0.661   3.094 -0.2695  0.5087 -1.0963
  213SOL     hw  850   1.841   0.746   3.087  0.8643  1.1306 -0.6189
  213SOL     hw  851   1.856   0.627   3.180 -0.4119  0.5593 -1.1222
  213SOL     vw  852   1.874   0.667   3.104 -0.1387  0.5974 -1.0368
  214SOL     ow  853   0.623   1.739   0.000 -0.0346  0.3871 -0.0100
  214SOL     hw  854   0.600   1.826   0.033  0.3861  0.8714 -0.9736
  214SOL     hw  855   0.567   1.727  -0.077  2.1273  1.1741 -1.8015
  214SOL     vw  856   0.613   1.749  -0.006  0.3062  0.5548 -0.3735
  215SOL     ow  857   0.774   1.246   4.376 -0.0919 -0.4529  0.2316
  215SOL     hw  858   0.788   1.299   4.454  1.7531 -1.9730  1.0179
  215SOL     hw  859   0.689   1.274   4.343 -0.2616  1.2634  1.9439
  215SOL     vw  860   0.765   1.257   4.382  0.1291 -0.4271  0.5610
  216SOL     ow  861   0.963   2.117   2.731 -0.8617 -0.0336 -0.3864
  216SOL     hw  862   1.055   2.141   2.726 -0.6031 -0.2714  1.8814
  216SOL     hw  863   0.960   2.026   2.701  0.1698 -0.9428  2.0020
  216SOL     vw  864   0.974   2.108   2.727 -0.6914 -0.1850  0.2279
  217SOL     ow  865   2.330   1.632   3.762 -0.0045  0.6372 -0.2282
  217SOL     hw  866   2.392   1.560   3.751  0.5757  0.9724  0.7941
  217SOL     hw  867   2.286   1.638   3.677  0.0894 -0.7694 -0.4021
  217SOL     vw  868   2.332   1.623   3.749  0.0844  0.4959 -0.1163
  218SOL     ow  869   2.254   1.804   6.619 -0.0577 -0.5741  0.6875
  218SOL     hw  870   2.335   1.756   6.600  0.0142 -1.1815  2.3604
  218SOL     hw  871   2.190   1.736   6.641 -0.7448 -0.0390  0.3903
  218SOL     vw  872   2.256   1.789   6.620 -0.1390 -0.5836  0.8688
  219SOL     ow  873   0.333   0.325   1.795 -0.6273  0.5235 -0.2403
  219SOL     hw  874   0.278   0.395   1.830  0.9313  1.0933  1.2120
  219SOL     hw  875   0.271   0.266   1.751 -2.2630  1.6169  0.4723
  219SOL     vw  876   0.317   0.327   1.794 -0.6375  0.7430  0.0453
  220SOL     ow  877   0.460   0.338   6.815 -0.0544 -0.3715  1.0672
  220SOL     hw  878   0.517   0.314   6.889 -0.6741  1.0364  2.0548
  220SOL     hw  879   0.395   0.268   6.811  2.3562 -2.6758 -0.8704
  220SOL     vw  880   0.459   0.326   6.824  0.1819 -0.4898  0.9418
  221SOL     ow  881   0.650   2.463   4.433  0.2486  0.1149  1.2037
  221SOL     hw  882   0.726   2.416   4.397 -1.0751 -1.1236 -0.1004
  221SOL     hw  883   0.626   2.525   4.365 -0.4171 -0.1094  1.2233
  221SOL     vw  884   0.657   2.465   4.419 -0.0139 -0.0781  1.0340
  222SOL     ow  885   0.987   1.051   1.860  0.1313 -0.3779 -0.1169
  222SOL     hw  886   1.035   0.977   1.897 -0.9626 -0.9955  0.1265
  222SOL     hw  887   0.996   1.120   1.925  2.2345  0.1736 -0.9211
  222SOL     vw  888   0.994   1.050   1.874  0.2645 -0.3866 -0.1909
  223SOL     ow  889   0.476   2.525   2.136 -0.5096  0.3667  0.0244
  223SOL     hw  890   0.506   2.612   2.108 -0.7342  0.7033  0.8013
  223SOL     hw  891   0.520   2.511   2.220 -0.5582 -0.2309 -0.0460
  223SOL     vw  892   0.486   2.534   2.143 -0.5456  0.3322  0.1175
  224SOL     ow  893   1.675   1.352   1.578 -0.3160  0.0504 -0.4664
  224SOL     hw  894   1.665   1.316   1.666 -1.0962 -0.2072 -0.6531
  224SOL     hw  895   1.710   1.279   1.526 -0.5307 -0.0136 -0.5236
  224SOL     vw  896   1.679   1.337   1.582 -0.4473  0.0079 -0.4986
  225SOL     ow  897   0.690   0.590   0.738  0.2287 -0.2745  0.3032
  225SOL     hw  898   0.630   0.520   0.764 -0.0651  0.1605  0.8100
  225SOL     hw  899   0.743   0.607   0.816 -2.7125  3.1712  1.8238
  225SOL     vw  900   0.689   0.583   0.752 -0.1981  0.2376  0.5707
  226SOL     ow  901   0.020   2.527   5.720  0.5270 -0.7311  0.1086
  226SOL     hw  902  -0.059   2.474   5.703 -0.1860  0.3171  0.0137
  226SOL     hw  903   0.016   2.546   5.813  1.4792 -1.8988  0.4036
  226SOL     vw  904   0.009   2.522   5.730  0.5586 -0.7469  0.1352
  227SOL     ow  905   2.015   0.112   2.480 -0.1171 -0.4445  0.2676
  227SOL     hw  906   2.009   0.168   2.403 -0.1092 -0.8406 -0.0233
  227SOL     hw  907   1.973   0.163   2.550  2.1792  1.0359  0.6699
  227SOL     vw  908   2.008   0.126   2.479  0.1869 -0.3015  0.2823
  228SOL     ow  909   1.562   2.202   2.924 -0.0956  0.5094  0.0598
  228SOL     hw  910   1.495   2.169   2.985 -1.2176 -2.1673 -2.3714
  228SOL     hw  911   1.511   2.245   2.855  0.4943 -1.6313 -1.8717
  228SOL     vw  912   1.546   2.203   2.923 -0.1658 -0.1262 -0.5158
  229SOL     ow  913   2.183   0.080   0.188 -0.0991  0.2972 -0.3234
  229SOL     hw  914   2.196   0.040   0.274 -0.2969 -0.6324 -0.7175
  229SOL     hw  915   2.249   0.149   0.183  0.0140  0.2567  0.5126
  229SOL     vw  916   2.193   0.084   0.199 -0.1103  0.1692 -0.2651
  230SOL     ow  917   2.502   1.803   5.408  0.2647 -0.0382  0.0914
  230SOL     hw  918   2.585   1.848   5.423  0.2506  0.3393 -0.8693
  230SOL     hw  919   2.435   1.870   5.422 -0.1831 -1.0859  4.1794
  230SOL     vw  920   2.504   1.818   5.412  0.2038 -0.1266  0.5040
  231SOL     ow  921   2.473   0.719   5.711  0.6473  0.1927 -0.3325
  231SOL     hw  922   2.439   0.808   5.716 -2.6025 -0.9457 -0.1492
  231SOL     hw  923   2.473   0.688   5.801 -0.2635 -0.6588 -0.6131
  231SOL     vw  924   2.469   0.727   5.724  0.0983 -0.0699 -0.3455
  232SOL     ow  925   1.436   0.491   1.838  0.4296 -0.8670  0.3301
  232SOL     hw  926   1.372   0.470   1.906  0.2064  0.2337  0.4830
  232SOL     hw  927   1.437   0.414   1.781 -1.4533 -0.7187  0.0257
  232SOL     vw  928   1.427   0.478   1.839  0.1518 -0.7022  0.3101
  233SOL     ow  929   0.069   1.455   1.822  0.5339  0.4139  0.3989
  233SOL     hw  930  -0.005   1.508   1.855 -0.8315 -0.8287 -0.5491
  233SOL     hw  931   0.143   1.515   1.824 -0.5742  1.8468  1.0064
  233SOL     vw  932   0.069   1.470   1.827  0.2076  0.4391  0.3541
  234SOL     ow  933   0.272   2.074   0.466 -0.4142 -0.4176  0.4335
  234SOL     hw  934   0.305   2.156   0.428  1.2075  0.0167  2.5526
  234SOL     hw  935   0.196   2.052   0.413  0.0010  1.6443 -1.1637
  234SOL     vw  936   0.266   2.082   0.454 -0.1455 -0.0882  0.5024
  235SOL     ow  937   1.051   0.230   0.057 -0.2459 -0.0145 -0.0502
  235SOL     hw  938   1.120   0.274   0.107  1.2330  0.5531 -2.4397
  235SOL     hw  939   0.987   0.298   0.040  0.0221  0.1890 -0.2532
  235SOL     vw  940   1.052   0.245   0.061 -0.0154  0.0873 -0.3923
  236SOL     ow  941   0.546   2.419   4.705  0.2323 -0.2759  0.6113
  236SOL     hw  942   0.452   2.403   4.707  0.5248 -2.1339  1.6052
  236SOL     hw  943   0.571   2.409   4.613 -0.3928 -0.8540  0.4979
  236SOL     vw  944   0.537   2.416   4.693  0.1885 -0.5972  0.7274
  237SOL     ow  945   0.008   1.652   0.396 -0.6989  0.5667  0.1732
  237SOL     hw  946  -0.009   1.708   0.321 -0.1180  2.9453  1.7099
  237SOL     hw  947   0.080   1.695   0.443  0.2297 -1.8292  1.1284
  237SOL     vw  948   0.015   1.665   0.392 -0.4997  0.5644  0.5020
  238SOL     ow  949   0.972   1.737   6.804  0.0043 -0.6741 -0.0856
  238SOL     hw  950   1.016   1.653   6.790  1.8372  0.5804 -2.6958
  238SOL     hw  951   1.039   1.794   6.841 -0.2854  0.3940 -1.1169
  238SOL     vw  952   0.986   1.733   6.807  0.2079 -0.3676 -0.5658
  239SOL     ow  953   1.701   2.387   3.310  0.4624 -0.6009  0.9973
  239SOL     hw  954   1.728   2.446   3.380  3.4735  0.7453 -1.0798
  239SOL     hw  955   1.779   2.335   3.292 -0.2034 -0.8977 -1.3097
  239SOL     vw  956   1.715   2.388   3.317  0.7719 -0.4625  0.4190
  240SOL     ow  957   2.373   2.023   6.239 -0.7698  0.1065  0.0364
  240SOL     hw  958   2.286   2.038   6.276 -0.1152  1.1747  1.2388
  240SOL     hw  959   2.393   2.103   6.191 -1.1707 -0.8561 -1.8435
  240SOL     vw  960   2.364   2.035   6.238 -0.7361  0.1204 -0.0532
  241SOL     ow  961   0.153   1.060   5.685 -0.3190 -0.4501  0.6335
  241SOL     hw  962   0.111   1.143   5.710 -2.0862 -1.3627  0.8470
  241SOL     hw  963   0.167   1.067   5.591  0.5593  0.4954  0.8114
  241SOL     vw  964   0.150   1.072   5.676 -0.4363 -0.4457  0.6850
  242SOL     ow  965   1.868   1.214   3.672 -0.7019 -0.1920 -0.4369
  242SOL     hw  966   1.944   1.204   3.615  0.1612 -1.8192  0.9102
  242SOL     hw  967   1.885   1.155   3.746 -1.9012  1.5903  1.3785
  242SOL     vw  968   1.880   1.205   3.674 -0.7463 -0.1715 -0.0197
  243SOL     ow  969   0.563   0.873   3.869 -0.0758  0.3420 -0.3309
  243SOL     hw  970   0.508   0.944   3.903  0.6315  0.8883 -0.3080
  243SOL     hw  971   0.527   0.793   3.908 -0.0343  0.8355  0.7357
  243SOL     vw  972   0.551   0.872   3.879  0.0230  0.4792 -0.1873
  244SOL     ow  973   2.417   1.464   1.005 -0.5489  0.1337 -0.6663
  244SOL     hw  974   2.443   1.456   0.913 -0.1882 -0.6850 -0.5006
  244SOL     hw  975   2.463   1.541   1.037  1.1308 -0.8707 -0.5706
  244SOL     vw  976   2.426   1.473   0.997 -0.2798 -0.1068 -0.6318
  245SOL     ow  977   2.194   1.600   3.540  0.1923  0.0564  0.1261
  245SOL     hw  978   2.108   1.602   3.582 -0.4943 -1.3121 -1.1309
  245SOL     hw  979   2.177   1.633   3.452  1.1013  0.3761  0.0656
  245SOL     vw  980   2.180   1.605   3.534  0.2216 -0.0819 -0.0477
  246SOL     ow  981   1.335   1.653   4.287 -0.0029 -0.2221 -0.1156
  246SOL     hw  982   1.241   1.635   4.292 -0.1948  1.0611  1.2330
  246SOL     hw  983   1.375   1.584   4.340 -0.2906  0.0260  0.4268
  246SOL     vw  984   1.328   1.641   4.295 -0.0662 -0.0201  0.1340
  247SOL     ow  985   2.465   2.162   0.603  0.6492 -0.3558  0.2304
  247SOL     hw  986   2.410   2.155   0.525 -0.1361 -0.6728  0.8071
  247SOL     hw  987   2.470   2.256   0.620 -2.5206 -0.3718  2.0880
  247SOL     vw  988   2.459   2.174   0.595  0.1272 -0.3997  0.5516
  248SOL     ow  989   1.255   1.630   3.445 -0.1356  0.3353  0.4207
  248SOL     hw  990   1.224   1.639   3.535  0.7911 -1.4513  0.9585
  248SOL     hw  991   1.314   1.555   3.447 -0.4067 -0.0060 -1.7677
  248SOL     vw  992   1.259   1.621   3.457 -0.0491  0.0545  0.2029
  249SOL     ow  993   2.299   2.021   0.881 -0.4099 -0.0187  0.1089
  249SOL     hw  994   2.272   2.041   0.791 -1.6886 -0.3673  0.3828
  249SOL     hw  995   2.285   2.102   0.928  1.1972  0.4513 -0.1828
  249SOL     vw  996   2.293   2.034   0.875 -0.3664 -0.0027  0.1066
  250SOL     ow  997   1.974   0.255   0.284 -0.0161  0.1933  0.3474
  250SOL     hw  998   2.005   0.290   0.368  0.4530  0.7215 -0.0414
  250SOL     hw  999   2.048   0.203   0.252  0.7369  1.9014 -0.8474
  250SOL     vw 1000   1.988   0.252   0.291  0.1451  0.4883  0.1384
  251SOL     ow 1001   0.313   1.189   6.993  0.0038  0.0246  0.1804
  251SOL     hw 1002   0.356   1.128   6.933  0.1996 -1.7462  1.9986
  251SOL     hw 1003   0.383   1.248   7.020 -0.2201  1.2578 -1.7200
  251SOL     vw 1004   0.328   1.188   6.989  0.0001 -0.0463  0.1698
  252SOL     ow 1005   2.258   1.775   5.178  0.3249  1.1467  0.1289
  252SOL     hw 1006   2.201   1.698   5.170 -0.1138  1.4322  0.4624
  252SOL     hw 1007   2.268   1.787   5.272  1.0481  1.0248  0.0765
  252SOL     vw 1008   2.252   1.766   5.189  0.3624  1.1683  0.1662
  253SOL     ow 1009   0.503   1.225   5.822 -0.0820 -0.8332 -0.1882
  253SOL     hw 1010   0.591   1.248   5.850  0.2858 -0.1171 -1.8467
  253SOL     hw 1011   0.515   1.166   5.748 -0.9825  0.0410 -1.0525
  253SOL     vw 1012   0.516   1.220   5.816 -0.1523 -0.6233 -0.5212
  254SOL     ow 1013   0.950   1.650   3.357  0.6840 -0.9474 -0.0525
  254SOL     hw 1014   0.911   1.678   3.440  1.6154 -0.8507  0.3628
  254SOL     hw 1015   0.883   1.669   3.292  0.3625  0.0220  0.5351
  254SOL     vw 1016   0.936   1.656   3.360  0.7645 -0.8067  0.0798
  255SOL     ow 1017   0.777   0.721   5.760  0.1121  0.1965  0.2636
  255SOL     hw 1018   0.782   0.743   5.668  1.0386  0.9839  0.4851
  255SOL     hw 1019   0.844   0.775   5.802  1.1657 -1.6376  1.1106
  255SOL     vw 1020   0.787   0.731   5.754  0.3734  0.0584  0.4046
  256SOL     ow 1021   1.882   0.733   5.549 -0.2281  0.5457  0.0489
  256SOL     hw 1022   1.797   0.764   5.517 -0.7651 -2.1956 -1.4645
  256SOL     hw 1023   1.906   0.662   5.489 -0.1964 -3.5117  4.3294
  256SOL     vw 1024   1.874   0.728   5.537 -0.2947 -0.3513  0.4137
  257SOL     ow 1025   0.785   0.216   2.386 -0.0662  0.3111  0.8834
  257SOL     hw 1026   0.863   0.160   2.389  0.6675  1.3494  2.0117
  257SOL     hw 1027   0.811   0.296   2.431 -1.0216  1.6655 -0.8225
  257SOL     vw 1028   0.799   0.219   2.392 -0.0955  0.6268  0.8072
  258SOL     ow 1029   1.000   1.614   6.321 -0.0763 -0.1390  0.7177
  258SOL     hw 1030   0.989   1.560   6.243  0.3170 -1.1990  1.3738
  258SOL     hw 1031   1.094   1.611   6.340 -0.2065 -0.1509  1.4024
  258SOL     vw 1032   1.011   1.606   6.313 -0.0415 -0.2804  0.8948
  259SOL     ow 1033   0.911   0.868   6.013  0.8186 -0.7612 -0.3613
  259SOL     hw 1034   0.982   0.803   6.007  1.3053 -0.7226  3.2521
  259SOL     hw 1035   0.955   0.950   6.035 -0.1670 -0.1179 -0.7252
  259SOL     vw 1036   0.926   0.870   6.015  0.7528 -0.6712  0.0677
  260SOL     ow 1037   1.193   1.629   6.963  0.0683  0.8568  0.0414
  260SOL     hw 1038   1.285   1.642   6.987  0.5135  0.3119 -1.2530
  260SOL     hw 1039   1.197   1.574   6.884 -1.3752  0.7723  0.0037
  260SOL     vw 1040   1.206   1.623   6.956 -0.0634  0.7737 -0.1347
  261SOL     ow 1041   0.110   0.763   5.456  0.1756  0.3979 -0.0287
  261SOL     hw 1042   0.085   0.853   5.433 -1.8513 -0.0720  0.1072
  261SOL     hw 1043   0.067   0.747   5.540  2.2464 -0.0393  1.0007
  261SOL     vw 1044   0.101   0.773   5.464  0.1814  0.2781  0.1252
  262SOL     ow 1045   0.096   0.474   6.980 -0.2449  0.2107 -0.5169
  262SOL     hw 1046   0.188   0.487   6.956 -0.5264 -0.3783 -1.9800
  262SOL     hw 1047   0.081   0.537   7.051  0.3797  2.7551 -2.4826
  262SOL     vw 1048   0.107   0.484   6.986 -0.1996  0.4687 -0.9694
  263SOL     ow 1049   2.148   0.228   5.459  0.0775  0.8048 -0.2030
  263SOL     hw 1050   2.092   0.163   5.501  0.5402 -1.5719 -2.9552
  263SOL     hw 1051   2.089   0.277   5.401 -0.0959  2.3102  1.1712
  263SOL     vw 1052   2.133   0.226   5.457  0.1155  0.6898 -0.3846
  264SOL     ow 1053   0.389   0.531   5.476  0.2628 -0.2274 -0.0525
  264SOL     hw 1054   0.305   0.497   5.444  0.6373 -0.7645 -0.4856
  264SOL     hw 1055   0.385   0.625   5.457  0.3247 -0.4699 -1.3881
  264SOL     vw 1056   0.377   0.539   5.469  0.3204 -0.3303 -0.2859
  265SOL     ow 1057   2.392   1.160   5.466 -0.0657 -0.5658 -0.6660
  265SOL     hw 1058   2.386   1.141   5.559 -2.3276  0.9293 -0.4326
  265SOL     hw 1059   2.343   1.091   5.423  0.5826 -0.9940 -0.7345
  265SOL     vw 1060   2.385   1.149   5.473 -0.2786 -0.4250 -0.6442
  266SOL     ow 1061   0.666   0.310   6.289  0.4254 -0.0420  0.5919
  266SOL     hw 1062   0.680   0.372   6.217 -0.5596 -0.8401 -0.3111
  266SOL     hw 1063   0.662   0.365   6.367 -0.7836  1.0910 -0.2293
  266SOL     vw 1064   0.668   0.325   6.290  0.1360  0.0022  0.3641
  267SOL     ow 1065   1.599   2.195   6.298  0.3518  0.7694  0.4200
  267SOL     hw 1066   1.656   2.241   6.360  1.4568  0.2390 -0.1682
  267SOL     hw 1067   1.528   2.159   6.352  2.5309 -1.7216  1.8615
  267SOL     vw 1068   1.597   2.196   6.313  0.7851  0.3707  0.5322
  268SOL     ow 1069   1.848   0.676   4.546 -0.0147 -0.8029  0.3215
  268SOL     hw 1070   1.927   0.693   4.596 -0.7453  1.7117  0.7690
  268SOL     hw 1071   1.789   0.632   4.607  0.5893 -1.6071  0.3402
  268SOL     vw 1072   1.850   0.673   4.560 -0.0314 -0.5772  0.3831
  269SOL     ow 1073   2.480   0.713   3.475 -0.0583  0.5081 -0.1464
  269SOL     hw 1074   2.439   0.765   3.543 -1.9370 -1.8675  0.6626
  269SOL     hw 1075   2.408   0.665   3.434  1.2628  0.3942 -2.5269
  269SOL     vw 1076   2.465   0.714   3.478 -0.1317  0.1796 -0.3538
  270SOL     ow 1077   1.636   1.669   1.516  0.3001  0.6571 -0.3917
  270SOL     hw 1078   1.577   1.692   1.445  0.9665 -1.9607 -1.8976
  270SOL     hw 1079   1.711   1.729   1.505 -0.4481  1.5620 -0.6714
  270SOL     vw 1080   1.638   1.680   1.505  0.2893  0.4311 -0.6272
  271SOL     ow 1081   2.156   1.246   6.541 -0.4034  0.2033  0.7154
  271SOL     hw 1082   2.115   1.299   6.610 -0.4205  1.7886 -0.4449
  271SOL     hw 1083   2.236   1.213   6.580 -0.2546  1.3355  1.4074
  271SOL     vw 1084   2.161   1.249   6.555 -0.3861  0.5618  0.6537
  272SOL     ow 1085   0.431   1.027   1.276  0.2574 -0.1271 -0.1238
  272SOL     hw 1086   0.451   0.933   1.281  0.0681 -0.1863 -0.4452
  272SOL     hw 1087   0.515   1.068   1.252  0.2064 -0.2789 -0.5768
  272SOL     vw 1088   0.445   1.020   1.273  0.2257 -0.1549 -0.2260
  273SOL     ow 1089   2.073   1.564   5.148  0.1907  1.0309 -0.0093
  273SOL     hw 1090   2.091   1.487   5.093  2.2634  0.9703  0.6607
  273SOL     hw 1091   2.011   1.533   5.214  0.2092  0.2139 -0.3655
  273SOL     vw 1092   2.067   1.549   5.149  0.4667  0.9151  0.0319
  274SOL     ow 1093   1.977   2.211   2.805 -0.4458  0.5035  0.3487
  274SOL     hw 1094   2.035   2.136   2.791 -1.7853 -0.7201  1.0934
  274SOL     hw 1095   1.895   2.173   2.836 -1.8159  2.1178 -1.0248
  274SOL     vw 1096   1.974   2.196   2.807 -0.8032  0.5552  0.2658
  275SOL     ow 1097   1.364   1.358   2.383  0.0560 -0.2126  0.7079
  275SOL     hw 1098   1.420   1.299   2.432  0.4145 -1.8519 -1.5031
  275SOL     hw 1099   1.305   1.300   2.334  0.6561  1.1725 -1.8398
  275SOL     vw 1100   1.363   1.342   2.383  0.1824 -0.2462  0.0801
  276SOL     ow 1101   1.564   1.585   1.926  0.5664 -0.1421 -0.4248
  276SOL     hw 1102   1.599   1.674   1.937  0.6249 -0.2911  0.7892
  276SOL     hw 1103   1.636   1.528   1.953 -0.4862 -0.4613  1.9952
  276SOL     vw 1104   1.578   1.589   1.931  0.4352 -0.2039  0.0547
  277SOL     ow 1105   2.379   1.318   1.235  0.2138  0.0627 -0.4030
  277SOL     hw 1106   2.382   1.324   1.139 -2.6115 -2.5627 -0.8181
  277SOL     hw 1107   2.345   1.402   1.264  3.3469  1.8345 -1.3501
  277SOL     vw 1108   2.375   1.330   1.226  0.2546 -0.0499 -0.5826
  278SOL     ow 1109   2.091   2.018   0.603  0.2074 -0.1134 -0.1878
  278SOL     hw 1110   2.030   2.088   0.580 -0.9257 -0.3518  1.8448
  278SOL     hw 1111   2.153   2.015   0.530 -0.8315  1.7108 -1.2176
  278SOL     vw 1112   2.091   2.027   0.590 -0.0792  0.0958 -0.0555
  279SOL     ow 1113   1.942   1.767   0.368 -0.1904 -0.6645 -0.3773
  279SOL     hw 1114   1.907   1.842   0.321  0.4679 -0.4925 -0.6034
  279SOL     hw 1115   1.880   1.696   0.350 -1.0052 -0.0999  0.1256
  279SOL     vw 1116   1.929   1.768   0.360 -0.2111 -0.5673 -0.3408
  280SOL     ow 1117   0.821   0.306   4.496  0.2085 -0.0258  0.2668
  280SOL     hw 1118   0.793   0.393   4.468  1.2609 -0.2190 -1.5318
  280SOL     hw 1119   0.741   0.264   4.527 -0.9340  0.5084 -1.8191
  280SOL     vw 1120   0.807   0.312   4.496  0.1966  0.0192 -0.2456
  281SOL     ow 1121   0.810   0.769   1.999  0.6383  0.3631  0.3863
  281SOL     hw 1122   0.788   0.690   2.048  0.2354  0.5859  0.5714
  281SOL     hw 1123   0.906   0.775   2.004  0.6500  0.0258  0.5795
  281SOL     vw 1124   0.820   0.759   2.006  0.5867  0.3480  0.4362
  282SOL     ow 1125   0.595   0.898   5.907 -0.3541  0.2997 -0.4257
  282SOL     hw 1126   0.663   0.834   5.926 -1.9279 -0.5776  3.0521
  282SOL     hw 1127   0.612   0.971   5.967 -0.0354  2.1144 -2.5821
  282SOL     vw 1128   0.606   0.900   5.917 -0.5197  0.4234 -0.2515
  283SOL     ow 1129   1.854   1.626   0.056 -0.4483  0.1406 -0.6104
  283SOL     hw 1130   1.831   1.584   0.138 -3.0100  0.3675 -1.1161
  283SOL     hw 1131   1.889   1.556   0.001 -1.7694 -0.7098 -0.4028
  283SOL     vw 1132   1.856   1.611   0.060 -0.9606  0.0583 -0.6497
  284SOL     ow 1133   0.900   2.240   2.964  0.4565 -0.2876  0.0221
  284SOL     hw 1134   0.808   2.214   2.963  0.3505  0.0957 -0.0254
  284SOL     hw 1135   0.932   2.218   2.876 -0.2584  2.0033 -0.8643
  284SOL     vw 1136   0.892   2.233   2.952  0.3482  0.0651 -0.1011
  285SOL     ow 1137   1.426   1.831   4.033  0.0579  0.1807  0.2468
  285SOL     hw 1138   1.432   1.757   3.973 -0.6870 -0.5633  1.0432
  285SOL     hw 1139   1.436   1.908   3.978  0.7303 -0.5064 -0.6252
  285SOL     vw 1140   1.428   1.831   4.018  0.0483 -0.0082  0.2370
  286SOL     ow 1141   1.651   0.503   4.659  0.8676  0.1699  0.9452
  286SOL     hw 1142   1.560   0.523   4.636  0.8602  2.3797  2.5614
  286SOL     hw 1143   1.653   0.509   4.754  2.2697 -2.1469  1.1409
  286SOL     vw 1144   1.639   0.506   4.668  1.0517  0.1557  1.1845
  287SOL     ow 1145   1.042   2.346   3.243  0.7283  0.3581 -0.3532
  287SOL     hw 1146   1.035   2.441   3.254  2.7979  0.3842  1.1435
  287SOL     hw 1147   1.100   2.317   3.313  0.7075 -1.9421 -1.1966
  287SOL     vw 1148   1.048   2.355   3.253  0.9986  0.0581 -0.2673
  288SOL     ow 1149   1.483   1.444   3.577  0.3149  0.1768 -0.3826
  288SOL     hw 1150   1.550   1.397   3.529  1.0030 -3.0620  3.2741
  288SOL     hw 1151   1.402   1.397   3.558  0.8696 -2.3534  2.6016
  288SOL     vw 1152   1.481   1.432   3.568  0.4788 -0.5844  0.4935
  289SOL     ow 1153   1.309   0.846   0.872  0.3717 -0.0681 -0.4973
  289SOL     hw 1154   1.355   0.876   0.794  3.7225  0.9982  1.6841
  289SOL     hw 1155   1.220   0.880   0.861  1.1528  1.4664 -3.0332
  289SOL     vw 1156   1.303   0.855   0.860  0.9168  0.2750 -0.5440
  290SOL     ow 1157   1.530   1.786   6.020 -0.7242  0.5994  0.3339
  290SOL     hw 1158   1.468   1.757   6.087 -1.7753 -1.2275 -1.3270
  290SOL     hw 1159   1.616   1.766   6.057 -1.3243 -2.4533  0.3631
  290SOL     vw 1160   1.533   1.780   6.034 -0.9421 -0.0444  0.1185
  291SOL     ow 1161   1.741   1.023   5.056  0.5471  0.0866  0.3731
  291SOL     hw 1162   1.790   1.086   5.109  0.2652 -0.5351  1.3995
  291SOL     hw 1163   1.770   0.938   5.087 -0.6207 -0.2947  0.4885
  291SOL     vw 1164   1.751   1.020   5.067  0.3558 -0.0458  0.5236
  292SOL     ow 1165   0.699   0.110   1.247 -0.6992 -0.1588  0.3605
  292SOL     hw 1166   0.739   0.028   1.219  2.3068  0.9530  0.9466
  292SOL     hw 1167   0.734   0.176   1.186 -2.0371  0.8593  0.6540
  292SOL     vw 1168   0.709   0.108   1.235 -0.4791  0.1222  0.4766
  293SOL     ow 1169   0.369   0.898   0.242 -0.4891  0.4143  0.1359
  293SOL     hw 1170   0.388   0.830   0.176  0.5225 -0.4535  1.2732
  293SOL     hw 1171   0.302   0.953   0.201 -0.8417 -0.8714 -1.1006
  293SOL     vw 1172   0.362   0.896   0.228 -0.4021  0.1302  0.1228
  294SOL     ow 1173   1.947   1.204   6.293  0.0365 -0.5517 -0.4184
  294SOL     hw 1174   1.854   1.199   6.317 -0.4804  2.2778 -1.4777
  294SOL     hw 1175   1.948   1.189   6.199  0.2077  2.2825 -0.9431
  294SOL     vw 1176   1.935   1.201   6.284 -0.0091  0.1956 -0.6275
  295SOL     ow 1177   1.384   1.471   2.094  0.2244  0.0911  0.1637
  295SOL     hw 1178   1.374   1.386   2.050 -1.5302  1.1328 -1.6165
  295SOL     hw 1179   1.430   1.526   2.030 -0.2690  0.9819  0.5531
  295SOL     vw 1180   1.389   1.467   2.080 -0.0722  0.3460 -0.0197
  296SOL     ow 1181   0.537   0.017   5.265 -0.1618  0.5045 -0.0006
  296SOL     hw 1182   0.616  -0.019   5.304 -0.3969  1.2131  1.1755
  296SOL     hw 1183   0.535   0.108   5.294 -2.0155  0.1952  0.9987
  296SOL     vw 1184   0.547   0.024   5.274 -0.4374  0.5572  0.2863
  297SOL     ow 1185   1.835   0.910   4.317 -0.3888  0.2704  0.1809
  297SOL     hw 1186   1.893   0.928   4.243 -1.6895  0.7794 -0.7600
  297SOL     hw 1187   1.768   0.979   4.311 -0.1872  0.6787  2.2014
  297SOL     vw 1188   1.834   0.922   4.306 -0.5339  0.3914  0.3233
  298SOL     ow 1189   1.492   2.322   4.173 -0.5954 -0.2313 -0.3931
  298SOL     hw 1190   1.562   2.386   4.182 -0.4234 -0.1547 -1.9491
  298SOL     hw 1191   1.423   2.353   4.232 -0.4490  1.3041 -0.9828
  298SOL     vw 1192   1.492   2.334   4.182 -0.5534 -0.0185 -0.6762
  299SOL     ow 1193   2.400   1.953   4.716 -0.5546 -0.7594 -0.1767
  299SOL     hw 1194   2.465   1.890   4.747 -0.2437 -0.1036  0.5201
  299SOL     hw 1195   2.448   2.036   4.711 -0.8436 -0.6397 -1.4870
  299SOL     vw 1196   2.415   1.955   4.719 -0.5518 -0.6571 -0.2580
  300SOL     ow 1197   1.863   1.316   0.369  0.5202 -0.4664  0.4802
  300SOL     hw 1198   1.919   1.239   0.358 -0.3546 -1.2083  1.0726
  300SOL     hw 1199   1.794   1.287   0.429 -1.1299  0.0716 -1.0628
  300SOL     vw 1200   1.862   1.302   0.376  0.1870 -0.4933  0.3547
  301SOL     ow 1201   0.118   1.179   2.167 -0.0163  1.1537  0.2209
  301SOL     hw 1202   0.086   1.142   2.085  1.4482 -0.9553  0.5075
  301SOL     hw 1203   0.101   1.110   2.232  1.1158  1.7373  1.1756
  301SOL     vw 1204   0.112   1.165   2.165  0.3263  0.9525  0.3846
  302SOL     ow 1205   0.726   0.119   6.888  0.0604  0.2834  0.3223
  302SOL     hw 1206   0.789   0.088   6.823 -0.4739 -0.4703  0.1462
  302SOL     hw 1207   0.648   0.065   6.872  0.1725 -0.4568  2.0924
  302SOL     vw 1208   0.724   0.107   6.877  0.0046  0.0863  0.5326
  303SOL     ow 1209   0.286   1.122   1.484  0.1390 -0.3384  0.2410
  303SOL     hw 1210   0.349   1.100   1.416  2.7201  0.7214  2.0837
  303SOL     hw 1211   0.308   1.063   1.557 -0.7186  0.3382  1.0763
  303SOL     vw 1212   0.297   1.112   1.485  0.3664 -0.1093  0.5943
  304SOL     ow 1213   0.405   2.350   3.740  0.2915  0.3513 -0.2408
  304SOL     hw 1214   0.417   2.357   3.645 -1.7645  0.0741 -0.5572
  304SOL     hw 1215   0.430   2.260   3.761  1.9050  0.7605 -0.2998
  304SOL     vw 1216   0.410   2.339   3.730  0.2331  0.3687 -0.2904
  305SOL     ow 1217   0.322   1.426   5.806 -0.1318 -0.7585 -0.0625
  305SOL     hw 1218   0.369   1.345   5.791  1.1779  0.1658 -1.2471
  305SOL     hw 1219   0.336   1.446   5.898  5.0750  1.2696 -0.9030
  305SOL     vw 1220   0.330   1.418   5.816  0.7280 -0.3690 -0.3302
  306SOL     ow 1221   0.787   0.439   5.914 -0.2999 -0.0573  0.0553
  306SOL     hw 1222   0.737   0.499   5.859  0.0924 -1.0678 -1.4376
  306SOL     hw 1223   0.822   0.374   5.854 -0.8174 -1.8806  1.6400
  306SOL     vw 1224   0.785   0.439   5.899 -0.3164 -0.4311  0.0677
  307SOL     ow 1225   0.700   1.919   4.469 -0.4009  0.5562  0.0206
  307SOL     hw 1226   0.702   2.008   4.504  1.3561  0.1476  1.1030
  307SOL     hw 1227   0.724   1.929   4.377  0.1059  1.1812  0.2104
  307SOL     vw 1228   0.704   1.932   4.461 -0.1022  0.5847  0.1886
  308SOL     ow 1229   0.495   2.255   6.781  0.2000 -0.4339 -0.2375
  308SOL     hw 1230   0.517   2.220   6.868  1.1041  0.0351 -0.2614
  308SOL     hw 1231   0.580   2.264   6.738 -0.3354 -2.3281 -1.8415
  308SOL     vw 1232   0.509   2.251   6.787  0.2487 -0.6219 -0.4525
  309SOL     ow 1233   1.747   0.086   0.382 -0.3999  0.1151  0.2994
  309SOL     hw 1234   1.791   0.166   0.353 -1.7611  0.2991 -1.3823
  309SOL     hw 1235   1.658   0.094   0.349 -1.1124 -1.2397  1.7621
  309SOL     vw 1236   1.741   0.098   0.374 -0.6735 -0.0394  0.2705
  310SOL     ow 1237   2.098   1.727   0.608 -0.8822 -0.0393 -0.8957
  310SOL     hw 1238   2.184   1.697   0.638 -1.1733  0.7777  0.9061
  310SOL     hw 1239   2.110   1.747   0.515  1.3378  1.5983 -0.3388
  310SOL     vw 1240   2.111   1.726   0.600 -0.6276  0.2845 -0.5845
  311SOL     ow 1241   0.001   1.017   1.477 -0.2402  0.0734  0.4911
  311SOL     hw 1242  -0.001   0.947   1.412  1.7685  2.5882 -2.5441
  311SOL     hw 1243  -0.046   0.980   1.552 -1.5010 -3.5557 -1.7829
  311SOL     vw 1244  -0.006   1.003   1.478 -0.1415 -0.0737 -0.2094
  312SOL     ow 1245   0.375   0.917   4.656  0.5969 -0.3830  0.0761
  312SOL     hw 1246   0.323   0.932   4.577  0.2792 -1.5588  0.0365
  312SOL     hw 1247   0.310   0.902   4.725  0.8692 -0.7975  0.2496
  312SOL     vw 1248   0.360   0.917   4.654  0.5909 -0.5928  0.0937
  313SOL     ow 1249   0.086   1.006   5.385 -0.1501  0.0421  0.1859
  313SOL     hw 1250   0.116   1.025   5.296  1.2166  0.4525  0.7116
  313SOL     hw 1251   0.003   1.052   5.393  1.0866  2.4242  0.0357
  313SOL     vw 1252   0.079   1.014   5.375  0.1934  0.4106  0.2356
  314SOL     ow 1253   0.350   0.094   3.855 -0.1219  0.6253 -0.4382
  314SOL     hw 1254   0.257   0.109   3.869 -0.3408  1.3865 -2.3753
  314SOL     hw 1255   0.360   0.095   3.759  1.7511 -0.2351 -0.2907
  314SOL     vw 1256   0.339   0.096   3.844  0.0963  0.6122 -0.6744
  315SOL     ow 1257   0.523   1.211   4.261 -0.0037 -0.1598 -0.1936
  315SOL     hw 1258   0.507   1.162   4.180  0.6138 -1.5498  0.4786
  315SOL     hw 1259   0.436   1.232   4.294 -0.3407 -1.6154 -0.0695
  315SOL     vw 1260   0.510   1.207   4.255  0.0333 -0.5352 -0.0887
  316SOL     ow 1261   1.481   0.178   0.273 -0.1700 -0.1337  0.1959
  316SOL     hw 1262   1.406   0.237   0.281  0.2051  0.6032 -1.3492
  316SOL     hw 1263   1.529   0.210   0.197 -0.9065 -3.4209 -1.9138
  316SOL     vw 1264   1.477   0.190   0.264 -0.2176 -0.4702 -0.2863
  317SOL     ow 1265   0.129   1.604   5.601  0.1731 -0.2339 -0.1215
  317SOL     hw 1266   0.148   1.609   5.507 -1.2273 -1.6746 -0.5279
  317SOL     hw 1267   0.207   1.639   5.643  0.9058  0.2766 -1.8170
  317SOL     vw 1268   0.142   1.610   5.594  0.0850 -0.3566 -0.3989
  318SOL     ow 1269   2.329   2.509   3.677 -0.6814 -0.5470 -0.0074
  318SOL     hw 1270   2.253   2.463   3.642 -0.6573 -1.9283  1.6050
  318SOL     hw 1271   2.308   2.521   3.770  1.9125 -3.0076  1.0535
  318SOL     vw 1272   2.316   2.504   3.685 -0.3361 -1.0539  0.3453
  319SOL     ow 1273   1.255   2.132   4.026  0.1632 -0.0757 -0.2663
  319SOL     hw 1274   1.277   2.216   3.987 -0.6413  0.4894  0.4577
  319SOL     hw 1275   1.185   2.097   3.971  1.6023 -1.0706 -1.5469
  319SOL     vw 1276   1.249   2.138   4.014  0.2469 -0.1323 -0.3397
  320SOL     ow 1277   0.494   2.501   6.902 -0.0924  0.3496 -0.0047
  320SOL     hw 1278   0.502   2.408   6.881 -5.5079 -0.2766 -0.7377
  320SOL     hw 1279   0.455   2.503   6.989  0.0064  1.9975  0.0384
  320SOL     vw 1280   0.490   2.489   6.910 -0.7939  0.4842 -0.0956
  321SOL     ow 1281   0.000   1.867   0.889 -0.6192  0.5322 -0.1011
  321SOL     hw 1282  -0.094   1.879   0.899 -0.4980  0.5087  1.4113
  321SOL     hw 1283   0.038   1.910   0.966  0.4912 -0.8690  0.1826
  321SOL     vw 1284  -0.007   1.874   0.901 -0.4566  0.3442  0.1359
  322SOL     ow 1285   1.830   1.692   3.447  0.0397 -0.1449  0.5595
  322SOL     hw 1286   1.745   1.714   3.485  0.2350 -0.8688  1.4311
  322SOL     hw 1287   1.826   1.729   3.359 -1.0934  0.0309  0.6624
  322SOL     vw 1288   1.818   1.700   3.440 -0.0839 -0.2173  0.6880
  323SOL     ow 1289   1.499   0.957   0.689  0.0992 -0.0308  0.5364
  323SOL     hw 1290   1.566   1.019   0.720 -0.6398  0.7003  0.7161
  323SOL     hw 1291   1.474   0.991   0.603  0.9553 -1.1073 -0.1536
  323SOL     vw 1292   1.504   0.970   0.682  0.1147 -0.0764  0.4691
  324SOL     ow 1293   0.106   1.868   6.101 -0.7251 -0.3839  0.7365
  324SOL     hw 1294   0.181   1.823   6.139 -0.5878 -0.6307  0.1796
  324SOL     hw 1295   0.143   1.924   6.032 -1.0769 -0.7336  0.2544
  324SOL     vw 1296   0.121   1.870   6.097 -0.7534 -0.4625  0.5999
  325SOL     ow 1297   2.126   1.456   0.306 -0.0855 -0.3568 -0.4443
  325SOL     hw 1298   2.127   1.538   0.355  0.4601 -1.7094  1.9178
  325SOL     hw 1299   2.038   1.421   0.319  0.1872 -0.9176 -0.0609
  325SOL     vw 1300   2.115   1.462   0.314  0.0225 -0.6093 -0.0821
  326SOL     ow 1301   0.367   1.916   5.679  0.6062  0.2788  0.0884
  326SOL     hw 1302   0.398   1.826   5.675  0.6034  0.1543  2.0788
  326SOL     hw 1303   0.439   1.968   5.643  0.2339 -0.5505 -1.9602
  326SOL     vw 1304   0.380   1.911   5.674  0.5567  0.1529  0.0808
  327SOL     ow 1305   1.481   0.654   0.754  0.1998 -0.1434  0.2273
  327SOL     hw 1306   1.535   0.697   0.688 -0.0151  1.1969  0.8804
  327SOL     hw 1307   1.520   0.567   0.765 -0.3087 -0.7553 -2.2892
  327SOL     vw 1308   1.493   0.648   0.747  0.1043 -0.0472 -0.0185
  328SOL     ow 1309   1.740   0.094   2.281  0.1125  0.1466  0.4071
  328SOL     hw 1310   1.806   0.073   2.215 -2.6475 -0.7503 -2.3048
  328SOL     hw 1311   1.770   0.049   2.360  1.0106 -3.3014 -1.6685
  328SOL     vw 1312   1.753   0.085   2.282 -0.1330 -0.4267 -0.2246
  329SOL     ow 1313   2.313   2.149   0.369 -0.6030 -0.2130 -0.1259
  329SOL     hw 1314   2.280   2.208   0.302  0.1084 -1.4918 -1.6688
  329SOL     hw 1315   2.268   2.066   0.352 -0.0227 -0.7068  0.6624
  329SOL     vw 1316   2.303   2.146   0.358 -0.4325 -0.4469 -0.2254
  330SOL     ow 1317   0.753   2.419   5.336 -0.0175  0.1559 -0.4067
  330SOL     hw 1318   0.774   2.326   5.347  1.9766  0.3867 -1.6454
  330SOL     hw 1319   0.768   2.458   5.422  1.3587 -0.3233 -0.4041
  330SOL     vw 1320   0.758   2.412   5.349  0.4272  0.1230 -0.5701
  331SOL     ow 1321   1.397   1.682   2.370 -0.7806 -0.0262  0.2210
  331SOL     hw 1322   1.412   1.775   2.355 -1.0125 -0.2470 -1.6369
  331SOL     hw 1323   1.387   1.674   2.465  2.4694  1.3309  0.8047
  331SOL     vw 1324   1.398   1.693   2.380 -0.3823  0.1237  0.0529
  332SOL     ow 1325   2.526   1.874   0.602  0.6844 -0.1217 -0.1594
  332SOL     hw 1326   2.498   1.844   0.516 -0.9729 -1.2653  0.7099
  332SOL     hw 1327   2.533   1.969   0.594 -0.0010 -0.1610 -1.4079
  332SOL     vw 1328   2.523   1.883   0.590  0.3754 -0.2778 -0.2095
  333SOL     ow 1329   2.123   2.428   3.531 -0.0323 -0.8830 -0.0043
  333SOL     hw 1330   2.062   2.378   3.585 -2.6565  0.6759 -1.2981
  333SOL     hw 1331   2.074   2.507   3.507  1.8176 -0.4128 -2.7239
  333SOL     vw 1332   2.109   2.432   3.535 -0.1346 -0.6151 -0.5337
  334SOL     ow 1333   0.844   0.599   4.809 -0.6181 -0.9138 -1.0522
  334SOL     hw 1334   0.762   0.623   4.767 -1.6220 -2.0752  0.1178
  334SOL     hw 1335   0.875   0.523   4.760 -1.0816 -1.4322 -0.5642
  334SOL     vw 1336   0.837   0.592   4.797 -0.8117 -1.1355 -0.8335
  335SOL     ow 1337   0.130   1.472   2.120  0.1591 -0.5837 -0.2193
  335SOL     hw 1338   0.089   1.474   2.033 -0.1153 -2.4126 -0.1707
  335SOL     hw 1339   0.151   1.563   2.138  0.3787 -0.1632 -2.2873
  335SOL     vw 1340   0.128   1.484   2.111  0.1519 -0.7695 -0.4858
  336SOL     ow 1341   1.091   0.495   6.065 -0.7085 -0.0287 -0.4421
  336SOL     hw 1342   1.130   0.415   6.098 -1.7171 -0.8776 -1.2460
  336SOL     hw 1343   1.130   0.508   5.979 -1.6184 -0.4903 -0.9425
  336SOL     vw 1344   1.101   0.486   6.058 -0.9617 -0.2016 -0.6144
  337SOL     ow 1345   2.035   0.127   3.278 -0.6185 -0.0092 -0.3167
  337SOL     hw 1346   1.963   0.078   3.317  0.9529 -0.9958  1.4939
  337SOL     hw 1347   2.107   0.064   3.273  0.8604  1.5697  0.2348
  337SOL     vw 1348   2.035   0.112   3.282 -0.2161  0.0689 -0.0050
  338SOL     ow 1349   2.495   1.681   3.991  0.2597  0.3100 -0.4815
  338SOL     hw 1350   2.521   1.601   4.037  0.4248 -0.3403 -1.6806
  338SOL     hw 1351   2.574   1.735   3.992  1.1614 -0.8867 -2.4632
  338SOL     vw 1352   2.509   1.678   3.997  0.4004  0.0663 -0.9011
  339SOL     ow 1353   0.629   1.857   3.507  0.4177  0.3040 -0.1748
  339SOL     hw 1354   0.716   1.824   3.531  0.3177  0.3470  0.2589
  339SOL     hw 1355   0.612   1.820   3.421  1.3279  1.1827 -0.7429
  339SOL     vw 1356   0.638   1.847   3.499  0.5246  0.4256 -0.1925
  340SOL     ow 1357   1.165   0.604   0.801  0.0609  0.5466  0.5602
  340SOL     hw 1358   1.116   0.632   0.723  1.4742 -2.2067 -1.5363
  340SOL     hw 1359   1.129   0.517   0.821 -0.7164  1.4481  3.5094
  340SOL     vw 1360   1.154   0.596   0.793  0.1449  0.3023  0.6726
  341SOL     ow 1361   2.099   0.349   5.695  0.5531  0.3976  0.3661
  341SOL     hw 1362   2.159   0.324   5.766  0.4111  1.2462  0.8070
  341SOL     hw 1363   2.135   0.308   5.617  2.7502  2.3115  0.2716
  341SOL     vw 1364   2.112   0.341   5.694  0.8242  0.7621  0.4117
  342SOL     ow 1365   1.026   1.087   1.576 -0.2089 -0.1203 -0.0349
  342SOL     hw 1366   0.999   1.178   1.562  0.8262  0.5520  2.0155
  342SOL     hw 1367   1.096   1.073   1.511  1.8686  1.6662  1.6415
  342SOL     vw 1368   1.032   1.097   1.565  0.2017  0.2042  0.4568
  343SOL     ow 1369   1.932   1.025   6.520  0.0320  0.3320 -0.4080
  343SOL     hw 1370   1.992   0.991   6.587  1.0045  1.1496 -0.8560
  343SOL     hw 1371   1.916   0.950   6.463 -1.0060 -0.4554  0.8386
  343SOL     vw 1372   1.938   1.010   6.521  0.0233  0.3360 -0.3028
  344SOL     ow 1373   2.338   0.366   3.018 -0.7613  0.3998 -0.4849
  344SOL     hw 1374   2.395   0.333   3.088 -0.4783  2.5770  0.4123
  344SOL     hw 1375   2.384   0.345   2.937  0.6278  0.8153  0.1656
  344SOL     vw 1376   2.352   0.359   3.017 -0.5406  0.7418 -0.2807
  345SOL     ow 1377   2.060   0.146   2.796  0.3237 -0.1583 -0.4052
  345SOL     hw 1378   2.076   0.198   2.875  1.5888  4.0839 -3.0937
  345SOL     hw 1379   1.966   0.153   2.782  0.2942  0.3365 -0.0011
  345SOL     vw 1380   2.050   0.154   2.804  0.4867  0.4667 -0.7067
  346SOL     ow 1381   1.094   0.673   6.326  0.0787 -0.3457  0.2558
  346SOL     hw 1382   1.117   0.647   6.415 -1.8473 -0.5709  0.7233
  346SOL     hw 1383   1.164   0.733   6.300  0.4166  0.1164  2.0878
  346SOL     vw 1384   1.107   0.677   6.334 -0.1308 -0.3144  0.5589
  347SOL     ow 1385   2.412   2.097   6.545  0.3975 -0.0415  0.8112
  347SOL     hw 1386   2.352   2.166   6.517  1.6885  0.7662 -0.1188
  347SOL     hw 1387   2.363   2.045   6.608 -2.2463 -1.1471 -1.9458
  347SOL     vw 1388   2.398   2.099   6.550  0.2189 -0.0807  0.3245
  348SOL     ow 1389   0.314   0.326   5.223 -0.4598 -0.6679  0.5706
  348SOL     hw 1390   0.409   0.330   5.234 -0.1808 -2.0480 -0.8458
  348SOL     hw 1391   0.301   0.347   5.130 -1.4031 -1.7601  0.4423
  348SOL     vw 1392   0.325   0.329   5.212 -0.5475 -0.9941  0.3669
  349SOL     ow 1393   0.544   1.992   6.724  0.1009  0.4272 -0.0204
  349SOL     hw 1394   0.517   2.079   6.756  2.4461  1.2498 -0.1119
  349SOL     hw 1395   0.465   1.956   6.684 -0.8139  2.7673 -0.4768
  349SOL     vw 1396   0.530   1.999   6.723  0.2896  0.8444 -0.0925
  350SOL     ow 1397   0.731   1.423   1.277  0.0473 -0.3104  0.3360
  350SOL     hw 1398   0.752   1.394   1.366 -0.8266 -0.9593  0.3360
  350SOL     hw 1399   0.682   1.504   1.290 -0.1221 -0.4298  0.4488
  350SOL     vw 1400   0.728   1.430   1.290 -0.0904 -0.4118  0.3508
  351SOL     ow 1401   0.004   0.155   7.031  0.7236 -0.5665  0.0456
  351SOL     hw 1402  -0.087   0.172   7.007  0.3925  0.9910  2.1235
  351SOL     hw 1403   0.000   0.121   7.120  2.1666  0.0978  0.3970
  351SOL     vw 1404  -0.009   0.153   7.039  0.8703 -0.2734  0.3662
  352SOL     ow 1405   1.163   2.150   3.043  0.2351  0.7320  0.5452
  352SOL     hw 1406   1.246   2.148   3.090  1.2744 -1.5425 -1.2204
  352SOL     hw 1407   1.178   2.209   2.969  1.5277 -2.1548 -1.6779
  352SOL     vw 1408   1.176   2.158   3.040  0.5427  0.0510  0.0188
  353SOL     ow 1409   2.193   1.763   6.363 -0.0228 -0.4314  0.9052
  353SOL     hw 1410   2.170   1.670   6.369 -1.5415 -0.0581  1.2695
  353SOL     hw 1411   2.197   1.793   6.454 -3.7464  0.7652  0.8626
  353SOL     vw 1412   2.190   1.755   6.375 -0.7143 -0.2243  0.9477
  354SOL     ow 1413   0.081   0.026   3.668 -0.1801 -0.3032  0.5954
  354SOL     hw 1414   0.148  -0.037   3.693  1.8466  2.2826  2.2904
  354SOL     hw 1415   0.001  -0.007   3.708  0.7644 -1.8461  1.3058
  354SOL     vw 1416   0.079   0.014   3.677  0.2119 -0.1656  0.9128
  355SOL     ow 1417   0.306   0.963   1.720 -0.1026 -0.3273  0.2965
  355SOL     hw 1418   0.360   0.904   1.773 -0.1571 -0.7402 -0.1067
  355SOL     hw 1419   0.288   1.037   1.779  3.8478  1.6279 -0.5856
  355SOL     vw 1420   0.311   0.965   1.735  0.4114 -0.1238  0.1268
  356SOL     ow 1421   0.655   2.004   6.466  0.2838  0.5096 -0.7452
  356SOL     hw 1422   0.584   2.031   6.408 -1.1623 -1.0824  0.2012
  356SOL     hw 1423   0.625   2.032   6.553  1.5422  1.1606 -0.5005
  356SOL     vw 1424   0.641   2.011   6.470  0.2591  0.3855 -0.5882
  357SOL     ow 1425   1.547   0.779   3.199 -0.4187  0.2019  0.0659
  357SOL     hw 1426   1.533   0.855   3.256  0.3225 -1.0289  1.9782
  357SOL     hw 1427   1.464   0.768   3.152 -1.8101  0.0652  2.4107
  357SOL     vw 1428   1.534   0.788   3.200 -0.5045  0.0215  0.6275
  358SOL     ow 1429   0.390   1.649   5.644 -0.2808  0.6589 -0.1999
  358SOL     hw 1430   0.384   1.577   5.707  1.3968  0.2921 -0.4125
  358SOL     hw 1431   0.395   1.606   5.559 -3.4507  1.1608 -0.7687
  358SOL     vw 1432   0.390   1.634   5.641 -0.4777  0.6767 -0.3033
  359SOL     ow 1433   0.185   1.413   5.315  0.2115 -0.4293 -0.4232
  359SOL     hw 1434   0.250   1.483   5.307 -0.6836  0.3299 -1.5830
  359SOL     hw 1435   0.236   1.332   5.317  1.2000  0.0672 -2.4420
  359SOL     vw 1436   0.200   1.412   5.314  0.2238 -0.2637 -0.8426
  360SOL     ow 1437   2.129   0.613   1.487 -0.6734 -0.7281 -0.1769
  360SOL     hw 1438   2.144   0.692   1.540 -1.2208 -0.0493 -1.0056
  360SOL     hw 1439   2.174   0.544   1.535 -1.0200 -0.1095  1.0929
  360SOL     vw 1440   2.137   0.615   1.501 -0.7914 -0.5569 -0.1187
  361SOL     ow 1441   0.422   0.712   0.662 -0.0879 -0.9660  0.1023
  361SOL     hw 1442   0.511   0.697   0.695 -0.1846 -0.5136  0.5773
  361SOL     hw 1443   0.372   0.637   0.694 -0.3696 -0.1456  1.7173
  361SOL     vw 1444   0.427   0.700   0.671 -0.1379 -0.7981  0.3781
  362SOL     ow 1445   1.846   0.433   2.980 -0.0249  0.3734  0.0527
  362SOL     hw 1446   1.933   0.411   2.947 -0.9233 -3.2020 -0.3440
  362SOL     hw 1447   1.857   0.518   3.023  3.2077  0.8861 -1.5242
  362SOL     vw 1448   1.859   0.441   2.981  0.2831 -0.0307 -0.2077
  363SOL     ow 1449   0.451   1.610   0.382  0.4884 -0.5392  0.1359
  363SOL     hw 1450   0.543   1.593   0.365  0.3074  0.3605 -2.1371
  363SOL     hw 1451   0.446   1.704   0.397 -0.2511 -0.2243 -1.7837
  363SOL     vw 1452   0.462   1.620   0.382  0.3669 -0.3790 -0.4172
  364SOL     ow 1453   0.952   1.180   2.107  0.1803 -0.1704 -0.2336
  364SOL     hw 1454   0.888   1.108   2.105  1.2771 -1.1477 -1.7596
  364SOL     hw 1455   0.902   1.257   2.083 -0.3108 -1.0437 -2.1569
  364SOL     vw 1456   0.937   1.180   2.104  0.2602 -0.4145 -0.6886
  365SOL     ow 1457   1.843   1.956   6.619  0.2499 -0.6378 -0.1604
  365SOL     hw 1458   1.854   2.020   6.548 -0.4379 -0.8160 -0.4326
  365SOL     hw 1459   1.775   1.897   6.588  0.2466 -0.9728  0.4718
  365SOL     vw 1460   1.836   1.957   6.605  0.1588 -0.7055 -0.1130
  366SOL     ow 1461   0.197   0.283   3.649 -0.4829 -0.4560  0.2733
  366SOL     hw 1462   0.152   0.326   3.576  1.6187 -0.3340 -1.0279
  366SOL     hw 1463   0.144   0.206   3.668 -0.9448 -0.6371 -1.5926
  366SOL     vw 1464   0.184   0.279   3.642 -0.2666 -0.4638 -0.1445
  367SOL     ow 1465   1.934   2.068   4.498 -0.5998 -0.0553 -0.1522
  367SOL     hw 1466   1.868   2.125   4.538 -0.2859  0.3214 -0.1647
  367SOL     hw 1467   1.905   2.057   4.407 -1.8891 -1.7695  0.4108
  367SOL     vw 1468   1.922   2.074   4.491 -0.7284 -0.2319 -0.0796
  368SOL     ow 1469   2.259   1.949   5.418  0.2587 -0.7723 -0.0365
  368SOL     hw 1470   2.277   2.021   5.358  2.0609 -0.0934  1.2200
  368SOL     hw 1471   2.255   1.990   5.505 -2.0690 -1.7425  0.3969
  368SOL     vw 1472   2.261   1.964   5.422  0.1895 -0.8107  0.1864
  369SOL     ow 1473   0.928   1.027   4.490  0.0518  0.6958  0.1352
  369SOL     hw 1474   0.880   1.090   4.435 -2.5350 -0.5964  0.7779
  369SOL     hw 1475   0.933   0.948   4.436 -1.7562 -0.3138  1.3910
  369SOL     vw 1476   0.923   1.025   4.475 -0.5281  0.3921  0.3858
  370SOL     ow 1477   1.176   1.591   3.132  1.0277 -0.3918  0.4464
  370SOL     hw 1478   1.249   1.608   3.073  1.3718  0.8888  1.2049
  370SOL     hw 1479   1.138   1.509   3.100  1.6870 -0.1489 -1.0465
  370SOL     vw 1480   1.180   1.583   3.120  1.1601 -0.1907  0.3495
  371SOL     ow 1481   0.323   2.350   1.892 -0.1087  0.2654  0.2766
  371SOL     hw 1482   0.339   2.407   1.817 -0.4482  1.6823  1.2410
  371SOL     hw 1483   0.333   2.261   1.857 -3.1377  0.7172 -2.1775
  371SOL     vw 1484   0.327   2.345   1.878 -0.5531  0.5119  0.0801
  372SOL     ow 1485   0.538   0.097   2.402 -0.6600 -0.1384 -0.3654
  372SOL     hw 1486   0.624   0.137   2.389  0.3907 -2.1894  0.0057
  372SOL     hw 1487   0.477   0.160   2.363  0.7510  2.3936  1.1964
  372SOL     vw 1488   0.541   0.111   2.395 -0.3352 -0.0749 -0.1103
  373SOL     ow 1489   0.389   0.990   0.533  0.1249 -0.1704 -0.4274
  373SOL     hw 1490   0.480   1.020   0.540  0.3264 -0.4890 -1.5015
  373SOL     hw 1491   0.382   0.955   0.444 -1.3585  0.8241 -0.7425
  373SOL     vw 1492   0.400   0.989   0.522 -0.0443 -0.0812 -0.6107
  374SOL     ow 1493   0.066   1.906   6.464  0.2476 -0.2615  0.5705
  374SOL     hw 1494   0.037   1.992   6.496 -0.7441 -0.3000 -0.1617
  374SOL     hw 1495   0.154   1.895   6.500 -0.7928 -0.3381  3.3008
  374SOL     vw 1496   0.074   1.916   6.473 -0.0205 -0.2766  0.8342
  375SOL     ow 1497   2.184   2.303   0.183 -0.1160 -0.4331  0.0160
  375SOL     hw 1498   2.171   2.397   0.173 -5.7642 -0.7950  0.6012
  375SOL     hw 1499   2.192   2.270   0.094  1.8989  0.5288 -0.1957
  375SOL     vw 1500   2.183   2.311   0.170 -0.5953 -0.3538  0.0653
  376SOL     ow 1501   1.510   1.873   4.369 -0.2996 -0.2006 -0.0584
  376SOL     hw 1502   1.595   1.847   4.333 -0.6048 -2.5550  0.7782
  376SOL     hw 1503   1.512   1.844   4.460 -1.4170  1.1923  0.4559
  376SOL     vw 1504   1.522   1.866   4.376 -0.4872 -0.3275  0.1197
  377SOL     ow 1505   0.736   0.171   5.086  0.1144 -0.3709  0.0367
  377SOL     hw 1506   0.693   0.086   5.070 -1.7736  0.1299  1.9169
  377SOL     hw 1507   0.676   0.235   5.047 -0.4544  0.2823  1.8478
  377SOL     vw 1508   0.722   0.168   5.079 -0.2097 -0.2187  0.5236
  378SOL     ow 1509   1.320   0.754   1.863 -0.3780  0.1433  0.6056
  378SOL     hw 1510   1.358   0.777   1.948 -1.4029 -1.0737  1.4344
  378SOL     hw 1511   1.360   0.670   1.841 -0.2680  0.3570 -0.0354
  378SOL     vw 1512   1.330   0.746   1.872 -0.4986  0.0109  0.6303
  379SOL     ow 1513   0.786   1.129   1.389 -0.6090 -0.6236 -0.4179
  379SOL     hw 1514   0.790   1.180   1.470  1.5821  0.0946 -0.9118
  379SOL     hw 1515   0.855   1.064   1.397  0.8945  0.5984 -2.3721
  379SOL     vw 1516   0.795   1.127   1.401 -0.1216 -0.3676 -0.7408
  380SOL     ow 1517   1.673   2.261   6.714 -0.4398  0.4991 -0.2871
  380SOL     hw 1518   1.658   2.323   6.785 -3.6813 -0.7176  0.2506
  380SOL     hw 1519   1.686   2.316   6.637  3.0553  1.8433  1.0436
  380SOL     vw 1520   1.673   2.277   6.713 -0.4063  0.5158 -0.0405
  381SOL     ow 1521   1.333   0.083   4.622 -0.0424 -1.0550 -0.0838
  381SOL     hw 1522   1.331   0.072   4.717 -1.4040 -1.1793 -0.1116
  381SOL     hw 1523   1.366   0.172   4.608  0.2230 -1.0617  0.4949
  381SOL     vw 1524   1.337   0.093   4.632 -0.1870 -1.0723 -0.0110
  382SOL     ow 1525   1.673   1.159   0.773 -1.3305  0.1789  0.7609
  382SOL     hw 1526   1.756   1.116   0.791 -0.3240  1.1759 -1.1216
  382SOL     hw 1527   1.623   1.152   0.854  0.7786 -0.0476  2.1032
  382SOL     vw 1528   1.677   1.152   0.786 -0.9195  0.2806  0.6896
  383SOL     ow 1529   1.487   2.215   3.428 -0.3426  0.7062 -0.4306
  383SOL     hw 1530   1.484   2.219   3.524  1.6081 -2.4613 -0.1312
  383SOL     hw 1531   1.549   2.284   3.403  0.6232  0.3130  0.7855
  383SOL     vw 1532   1.495   2.225   3.437  0.0421  0.2364 -0.2307
  384SOL     ow 1533   2.142   1.358   3.056 -0.3930  0.8788  0.6676
  384SOL     hw 1534   2.159   1.434   3.111 -2.3522  0.7800  1.5013
  384SOL     hw 1535   2.122   1.394   2.970 -1.4376  1.3647  1.0902
  384SOL     vw 1536   2.141   1.373   3.052 -0.7893  0.9298  0.8333
  385SOL     ow 1537   0.778   1.398   4.605  0.5034  0.1709 -0.1493
  385SOL     hw 1538   0.816   1.463   4.545  1.2255  0.9198  1.0503
  385SOL     hw 1539   0.691   1.432   4.626  0.7750  0.6446  0.2604
  385SOL     vw 1540   0.772   1.411   4.600  0.6345  0.3322  0.0629
  386SOL     ow 1541   1.164   2.477   0.122 -0.1509 -0.5308 -0.3102
  386SOL     hw 1542   1.232   2.496   0.187 -1.6680  0.3593  1.1146
  386SOL     hw 1543   1.187   2.392   0.086  2.2087  0.1590 -0.5774
  386SOL     vw 1544   1.176   2.469   0.126 -0.0398 -0.3225 -0.1574
  387SOL     ow 1545   0.480   1.893   0.388 -0.6962 -0.2588 -0.4309
  387SOL     hw 1546   0.570   1.909   0.417 -0.6360  2.0176 -1.6522
  387SOL     hw 1547   0.432   1.971   0.415 -2.0245 -0.8520 -0.9822
  387SOL     vw 1548   0.486   1.905   0.396 -0.8635 -0.0367 -0.6647
  388SOL     ow 1549   2.325   2.492   1.924 -0.6676 -0.0555 -0.1558
  388SOL     hw 1550   2.301   2.553   1.855  2.0635  2.7859  1.1269
  388SOL     hw 1551   2.378   2.544   1.985 -1.1387 -2.8837  2.9929
  388SOL     vw 1552   2.329   2.507   1.923 -0.3695 -0.0538  0.4289
  389SOL     ow 1553   2.388   1.277   6.705  0.0603 -1.3308  0.9269
  389SOL     hw 1554   2.419   1.359   6.743  1.3177 -2.0556  1.5206
  389SOL     hw 1555   2.420   1.279   6.615 -3.1431  0.5078 -0.3289
  389SOL     vw 1556   2.396   1.288   6.698 -0.1965 -1.1839  0.8392
  390SOL     ow 1557   0.571   0.264   1.485  0.1858  0.0764 -0.3185
  390SOL     hw 1558   0.602   0.241   1.572 -0.4579 -0.1301 -0.1396
  390SOL     hw 1559   0.496   0.322   1.500 -0.8009 -1.0527 -0.6838
  390SOL     vw 1560   0.565   0.268   1.498 -0.0293 -0.0998 -0.3431
  391SOL     ow 1561   1.557   2.107   6.042  0.1309  0.4324  0.0395
  391SOL     hw 1562   1.574   2.019   6.074  0.1423  0.2556 -0.4546
  391SOL     hw 1563   1.570   2.163   6.119  0.5432  0.0504  0.2540
  391SOL     vw 1564   1.561   2.103   6.056  0.1868  0.3587  0.0029
  392SOL     ow 1565   1.805   0.297   3.250 -0.9169  0.5749  0.7212
  392SOL     hw 1566   1.886   0.249   3.266 -1.8228 -1.3115 -0.0567
  392SOL     hw 1567   1.812   0.376   3.303  0.7663 -0.2799  1.8237
  392SOL     vw 1568   1.816   0.301   3.259 -0.8143  0.2132  0.7640
  393SOL     ow 1569   1.864   1.701   3.936  0.4592  0.2478 -0.1397
  393SOL     hw 1570   1.880   1.614   3.973 -0.8738  0.0988  0.1386
  393SOL     hw 1571   1.879   1.690   3.842  0.6547 -0.1946 -0.0597
  393SOL     vw 1572   1.868   1.688   3.929  0.3092  0.1698 -0.0924
  394SOL     ow 1573   0.647   2.076   3.338 -0.1741 -0.1340 -1.2294
  394SOL     hw 1574   0.581   2.038   3.395 -0.8382  0.6122 -1.4740
  394SOL     hw 1575   0.609   2.160   3.312  1.5515  1.0454 -0.1141
  394SOL     vw 1576   0.633   2.082   3.342 -0.0340  0.1202 -1.1147
  395SOL     ow 1577   0.669   0.751   5.481 -0.4401 -0.4106  0.0460
  395SOL     hw 1578   0.716   0.770   5.400 -0.0723  0.4003  0.4367
  395SOL     hw 1579   0.582   0.788   5.467  0.5606  2.7710  1.1837
  395SOL     vw 1580   0.664   0.759   5.469 -0.2595  0.1162  0.2480
  396SOL     ow 1581   0.688   1.603   2.964 -0.8959 -0.5979 -0.0673
  396SOL     hw 1582   0.708   1.515   2.931 -1.0048 -0.9819  0.8553
  396SOL     hw 1583   0.730   1.662   2.902 -0.3018 -1.3133 -0.3614
  396SOL     vw 1584   0.696   1.599   2.951 -0.8319 -0.7429  0.0156
  397SOL     ow 1585   0.097   0.486   5.384  0.2356  0.3236 -0.1829
  397SOL     hw 1586   0.111   0.474   5.290  3.7413 -0.4123  0.2975
  397SOL     hw 1587   0.089   0.581   5.395  0.7048  0.4907 -1.1588
  397SOL     vw 1588   0.098   0.497   5.373  0.7601  0.2485 -0.2482
  398SOL     ow 1589   0.383   2.068   3.535 -0.8190  0.3324  0.4981
  398SOL     hw 1590   0.338   2.079   3.619  1.3511  0.5815  1.6913
  398SOL     hw 1591   0.389   2.157   3.500  1.6442  0.8237  1.9741
  398SOL     vw 1592   0.378   2.081   3.542 -0.2077  0.4301  0.8502
  399SOL     ow 1593   1.424   1.531   1.695 -0.4189  0.6064  0.3863
  399SOL     hw 1594   1.380   1.456   1.735  0.3840  0.4282  0.9571
  399SOL     hw 1595   1.459   1.580   1.769  0.7833  0.4630 -0.0708
  399SOL     vw 1596   1.422   1.527   1.710 -0.1543  0.5640  0.4013
  400SOL     ow 1597   2.020   0.167   4.494  0.5536 -0.3036  0.1779
  400SOL     hw 1598   1.995   0.247   4.539 -0.1089 -0.7483  0.6168
  400SOL     hw 1599   1.972   0.170   4.411 -0.0072 -0.5582  0.4842
  400SOL     vw 1600   2.010   0.178   4.489  0.3922 -0.3959  0.2761
  401SOL     ow 1601   1.955   0.031   5.506 -0.3112  0.1200 -1.1125
  401SOL     hw 1602   1.983   0.021   5.415  2.6892 -0.5762 -0.2381
  401SOL     hw 1603   2.007  -0.033   5.554 -1.9318  0.3491  1.0907
  401SOL     vw 1604   1.966   0.022   5.500 -0.1292  0.0582 -0.7064
  402SOL     ow 1605   0.376   1.060   3.961  0.1146 -0.3419  0.2109
  402SOL     hw 1606   0.336   1.146   3.949 -1.2745 -1.1303 -1.2378
  402SOL     hw 1607   0.322   1.017   4.027  0.5837 -0.2269  0.6683
  402SOL     vw 1608   0.364   1.066   3.968 -0.0068 -0.4307  0.0802
  403SOL     ow 1609   2.474   0.167   2.029 -0.4693  0.2543 -0.7786
  403SOL     hw 1610   2.452   0.222   1.954 -2.9648 -0.9028 -0.9682
  403SOL     hw 1611   2.491   0.230   2.100  0.4380  1.3176 -1.8962
  403SOL     vw 1612   2.473   0.183   2.029 -0.6788  0.2420 -0.9511
  404SOL     ow 1613   1.730   2.371   3.040 -0.5573  0.0421 -0.6579
  404SOL     hw 1614   1.684   2.401   3.118  0.6811 -2.0831  0.9906
  404SOL     hw 1615   1.669   2.312   2.997  0.2235 -2.2887  1.1964
  404SOL     vw 1616   1.716   2.367   3.045 -0.2910 -0.5457 -0.1957
  405SOL     ow 1617   2.513   1.330   6.960 -0.1902 -0.3800  0.6449
  405SOL     hw 1618   2.489   1.400   7.020 -0.3114 -1.2561  1.6458
  405SOL     hw 1619   2.587   1.365   6.910  1.4222 -0.4143  2.8745
  405SOL     vw 1620   2.519   1.344   6.961  0.0064 -0.5001  1.0707
  406SOL     ow 1621   0.096   1.052   0.606 -0.3789 -0.7518 -0.3630
  406SOL     hw 1622   0.152   1.125   0.582 -0.9754  0.6534  2.1681
  406SOL     hw 1623   0.008   1.089   0.607 -0.5038 -0.8947  2.7487
  406SOL     vw 1624   0.092   1.066   0.603 -0.4741 -0.5852  0.3815
  407SOL     ow 1625   0.118   2.028   3.229 -0.2890  0.3244  0.2130
  407SOL     hw 1626   0.032   2.062   3.254 -0.7859  0.6366 -1.7934
  407SOL     hw 1627   0.133   2.063   3.141  0.9904 -1.3756 -0.2832
  407SOL     vw 1628   0.109   2.037   3.221 -0.1858  0.1413 -0.1172
  408SOL     ow 1629   1.722   1.541   4.158  0.6815  0.0459 -0.0193
  408SOL     hw 1630   1.740   1.620   4.108  0.8853 -0.3067 -0.5096
  408SOL     hw 1631   1.795   1.533   4.219  0.2328  0.6917  0.6179
  408SOL     vw 1632   1.734   1.550   4.159  0.6492  0.0846  0.0000
  409SOL     ow 1633   1.841   2.012   4.241 -0.2132 -0.7798 -0.4722
  409SOL     hw 1634   1.749   2.007   4.216 -0.4943  0.9049  0.0559
  409SOL     hw 1635   1.889   2.006   4.159 -0.8486 -0.7691 -0.8488
  409SOL     vw 1636   1.835   2.011   4.227 -0.3341 -0.5562 -0.4525
  410SOL     ow 1637   1.587   1.243   4.935 -0.1562  0.0012  0.8607
  410SOL     hw 1638   1.622   1.295   5.007  1.6595 -0.1185  0.1128
  410SOL     hw 1639   1.630   1.278   4.857 -2.0689  0.1243 -0.2006
  410SOL     vw 1640   1.597   1.255   4.934 -0.1691  0.0017  0.6223
  411SOL     ow 1641   1.476   2.228   0.387 -0.5546  0.3276 -0.0544
  411SOL     hw 1642   1.457   2.150   0.335 -2.3147  0.1480  0.7633
  411SOL     hw 1643   1.401   2.285   0.371  0.5999  1.7755 -0.4515
  411SOL     vw 1644   1.464   2.225   0.378 -0.6346  0.4950  0.0011
  412SOL     ow 1645   2.152   1.681   1.041  0.3227  0.3739 -0.4333
  412SOL     hw 1646   2.079   1.645   1.091  0.8302  0.2457  0.2255
  412SOL     hw 1647   2.219   1.612   1.042  1.0826  1.0962  0.3537
  412SOL     vw 1648   2.151   1.667   1.048  0.4900  0.4523 -0.2426
  413SOL     ow 1649   0.656   0.911   4.795 -0.2913 -0.1601  0.2633
  413SOL     hw 1650   0.642   0.952   4.880 -0.6399  0.1351  0.0674
  413SOL     hw 1651   0.568   0.887   4.765 -0.0118 -2.5573  1.0947
  413SOL     vw 1652   0.642   0.913   4.802 -0.3004 -0.4374  0.3469
  414SOL     ow 1653   1.604   2.053   4.152 -0.1604  0.0200 -0.4766
  414SOL     hw 1654   1.570   2.142   4.152  2.7481  1.2632 -0.5336
  414SOL     hw 1655   1.625   2.035   4.060  0.7899 -0.0511 -0.2545
  414SOL     vw 1656   1.603   2.062   4.140  0.3488  0.1746 -0.4551
  415SOL     ow 1657   2.445   1.717   6.297  0.9606 -0.2573 -0.1838
  415SOL     hw 1658   2.454   1.636   6.248  1.0847  0.3845 -1.2452
  415SOL     hw 1659   2.352   1.739   6.290  1.2593  0.6988 -1.5805
  415SOL     vw 1660   2.434   1.709   6.290  1.0165 -0.0465 -0.5081
  416SOL     ow 1661   0.753   1.960   2.973  0.3039 -0.2758  0.6051
  416SOL     hw 1662   0.720   1.931   2.887  0.0877 -1.6360  1.1224
  416SOL     hw 1663   0.705   2.042   2.989  2.3337  1.5467 -1.7549
  416SOL     vw 1664   0.742   1.967   2.964  0.5432 -0.2149  0.3619
  417SOL     ow 1665   0.690   0.612   6.964 -0.2867  0.2944  0.6883
  417SOL     hw 1666   0.749   0.687   6.974 -0.6939  0.7295 -0.0792
  417SOL     hw 1667   0.648   0.626   6.879 -0.8699 -0.4535  0.8463
  417SOL     vw 1668   0.693   0.624   6.954 -0.4174  0.2531  0.6080
  418SOL     ow 1669   1.989   2.283   0.536 -0.1858  0.1601  0.2270
  418SOL     hw 1670   1.970   2.340   0.611  1.1502  0.3779  0.4224
  418SOL     hw 1671   2.057   2.329   0.488 -0.3190 -0.4653 -0.5829
  418SOL     vw 1672   1.995   2.297   0.539 -0.0271  0.1062  0.1459
  419SOL     ow 1673   0.098   1.248   1.281  0.5628  0.1002 -0.0127
  419SOL     hw 1674   0.006   1.267   1.262  0.9912 -0.2700 -2.9069
  419SOL     hw 1675   0.144   1.328   1.256  1.2121 -0.4548 -0.6312
  419SOL     vw 1676   0.092   1.261   1.275  0.7050 -0.0218 -0.4762
  420SOL     ow 1677   1.731   0.589   3.298 -0.0182  0.0531 -0.2078
  420SOL     hw 1678   1.737   0.585   3.394  3.6486 -0.1008 -0.2977
  420SOL     hw 1679   1.664   0.655   3.281 -0.7734  0.0943  2.4551
  420SOL     vw 1680   1.723   0.598   3.308  0.3659  0.0382  0.1317
  421SOL     ow 1681   0.395   1.838   0.930 -0.8369  0.3901 -0.3105
  421SOL     hw 1682   0.411   1.744   0.919  0.1420  0.3420  1.1840
  421SOL     hw 1683   0.440   1.860   1.012  0.9667  2.6430 -1.7919
  421SOL     vw 1684   0.403   1.829   0.940 -0.4698  0.6810 -0.3088
  422SOL     ow 1685   0.396   1.449   0.136 -0.2943  0.8165 -0.6109
  422SOL     hw 1686   0.374   1.507   0.209  1.6906  0.1827  0.5786
  422SOL     hw 1687   0.468   1.494   0.091  0.8375 -0.3975 -0.0540
  422SOL     vw 1688   0.403   1.463   0.139  0.1169  0.5727 -0.3805
  423SOL     ow 1689   2.178   1.013   6.367  0.3703  0.2591  0.3176
  423SOL     hw 1690   2.259   1.055   6.337 -0.8207  1.1112 -1.9675
  423SOL     hw 1691   2.175   0.931   6.318  0.2583 -0.1997  1.0747
  423SOL     vw 1692   2.189   1.008   6.356  0.1985  0.3110  0.1161
  424SOL     ow 1693   0.445   0.678   0.107  0.0772 -0.4289  0.3958
  424SOL     hw 1694   0.505   0.663   0.034  0.7471  1.7071  0.4434
  424SOL     hw 1695   0.429   0.590   0.142  3.0063 -1.1576  0.2357
  424SOL     vw 1696   0.451   0.664   0.102  0.5521 -0.2432  0.3809
  425SOL     ow 1697   0.673   2.475   4.933  0.2940  0.4497  0.1309
  425SOL     hw 1698   0.764   2.450   4.914  0.9178  1.7464  1.3229
  425SOL     hw 1699   0.628   2.464   4.849  2.3283  3.1920 -1.4584
  425SOL     vw 1700   0.679   2.470   4.919  0.6447  0.9826  0.0787
  426SOL     ow 1701   2.183   1.897   0.364 -0.1059 -0.1035  0.6008
  426SOL     hw 1702   2.224   1.844   0.295 -2.0607 -0.7688 -0.1110
  426SOL     hw 1703   2.090   1.875   0.358 -1.2769  4.2931 -0.5549
  426SOL     vw 1704   2.177   1.887   0.354 -0.5183  0.3888  0.3544
  427SOL     ow 1705   0.720   0.122   3.836 -0.0891  0.1593 -0.2927
  427SOL     hw 1706   0.715   0.203   3.786 -1.6082 -0.1295 -0.6725
  427SOL     hw 1707   0.813   0.110   3.853  0.1360  2.2760  0.2914
  427SOL     vw 1708   0.731   0.131   3.831 -0.2598  0.4005 -0.2658
  428SOL     ow 1709   1.340   2.486   0.355  0.9373  0.2068 -0.3876
  428SOL     hw 1710   1.397   2.557   0.326 -0.2499  0.6236 -1.8167
  428SOL     hw 1711   1.311   2.514   0.443  1.2777  0.9992 -0.5162
  428SOL     vw 1712   1.344   2.499   0.363  0.8256  0.3664 -0.5931
  429SOL     ow 1713   2.428   1.845   5.659  0.1474 -0.1960 -0.7326
  429SOL     hw 1714   2.478   1.811   5.584 -0.5678  1.0646 -1.8120
  429SOL     hw 1715   2.481   1.918   5.691 -0.0416 -0.1137 -0.6121
  429SOL     vw 1716   2.442   1.850   5.653  0.0283 -0.0188 -0.8593
  430SOL     ow 1717   1.729   0.718   5.822  0.5925  0.4281  0.2527
  430SOL     hw 1718   1.667   0.788   5.843  0.9244  0.6587  0.4619
  430SOL     hw 1719   1.674   0.648   5.788  0.2436  0.7477  0.1443
  430SOL     vw 1720   1.713   0.718   5.820  0.5903  0.5007  0.2658
  431SOL     ow 1721   0.760   1.673   6.438  0.2208  0.3984 -0.4389
  431SOL     hw 1722   0.707   1.605   6.481  1.2835 -0.1076  0.1182
  431SOL     hw 1723   0.840   1.627   6.411 -0.6770  0.5091 -3.6443
  431SOL     vw 1724   0.764   1.658   6.440  0.2426  0.3462 -0.7882
  432SOL     ow 1725   2.004   0.483   0.111 -0.1069 -0.6790 -0.8255
  432SOL     hw 1726   1.925   0.504   0.062  0.8830  0.7940 -1.9077
  432SOL     hw 1727   1.975   0.424   0.180 -1.8949 -1.2752 -2.0179
  432SOL     vw 1728   1.990   0.478   0.114 -0.2122 -0.5634 -1.1256
  433poe    c31 1729   1.956   0.797   0.113 -0.4332 -0.2219 -0.1233
  433poe     o2 1730   2.090   0.773   0.146 -0.4776 -0.1559  0.1071
  433poe    c23 1731   2.162   0.893   0.131 -0.2012 -0.4482 -0.9933
  433poe    c23 1732   2.296   0.917   0.203 -0.4616  0.2333 -0.7250
  433poe     o2 1733   2.390   0.819   0.164 -0.3485  0.0902 -0.1059
  433poe    c23 1734   2.508   0.817   0.240 -0.0030  0.3642 -0.6254
  433poe    c23 1735   2.627   0.770   0.154  0.1764 -0.0235 -0.1705
  433poe     o2 1736   2.636   0.630   0.138  0.1583 -0.0630  0.1591
  433poe    c23 1737   2.674   0.557   0.253 -0.9412 -0.3027  0.3792
  433poe    c23 1738   2.751   0.429   0.219  0.1127  0.3260  0.3743
  433poe     o2 1739   2.891   0.443   0.200  0.0654  0.3240  0.0032
  433poe    c31 1740   2.941   0.315   0.173 -0.3084  0.1819 -0.0294
  434poe    c31 1741   1.003   1.422   6.682  0.4664  0.0966 -0.4391
  434poe     o2 1742   1.112   1.501   6.723  0.1758  0.4151 -0.2770
  434poe    c23 1743   1.233   1.458   6.664 -0.1868 -0.1764 -0.5924
  434poe    c23 1744   1.239   1.454   6.510  1.1555 -0.1547 -0.5454
  434poe     o2 1745   1.255   1.579   6.447  0.0618  0.1520 -0.2291
  434poe    c23 1746   1.370   1.660   6.460  0.3144 -0.2404  0.0005
  434poe    c23 1747   1.377   1.769   6.352 -0.4345  0.3680  0.5517
  434poe     o2 1748   1.359   1.741   6.215  0.4210  0.3824  0.4304
  434poe    c23 1749   1.246   1.815   6.176  0.0250 -0.4907 -0.1122
  434poe    c23 1750   1.178   1.741   6.059 -0.2907  0.3317 -0.4569
  434poe     o2 1751   1.260   1.724   5.945  0.1622  0.1115 -0.1029
  434poe    c31 1752   1.199   1.650   5.842 -0.9066  0.4941  0.2384
  435poe    c31 1753   1.033   2.476   3.888 -0.7813 -0.2156  0.9186
  435poe     o2 1754   0.978   2.578   3.808  0.0850 -0.3886  0.0800
  435poe    c23 1755   1.075   2.642   3.729 -0.0914 -0.1439  0.0599
  435poe    c23 1756   1.004   2.743   3.637 -0.2628 -0.0237  0.3225
  435poe     o2 1757   0.908   2.820   3.705 -0.2979  0.3410 -0.1337
  435poe    c23 1758   0.855   2.925   3.628 -0.1660  0.3510 -0.2100
  435poe    c23 1759   0.702   2.942   3.629 -0.1667  0.3490 -0.2628
  435poe     o2 1760   0.659   3.023   3.736 -0.6701 -0.0968 -0.1228
  435poe    c23 1761   0.570   2.950   3.816 -0.5397 -0.1843 -0.0561
  435poe    c23 1762   0.522   3.040   3.932 -0.4853  0.0413 -0.2077
  435poe     o2 1763   0.437   3.143   3.889 -0.4712  0.2695  0.3013
  435poe    c31 1764   0.326   3.161   3.974 -0.0261  0.8002  0.7799
  436poe    c31 1765   0.842   1.028   5.684 -0.5947  0.2279 -0.0347
  436poe     o2 1766   0.964   0.963   5.712 -0.8594 -0.2096  0.0949
  436poe    c23 1767   1.078   1.006   5.641 -0.5445 -0.3330  0.5243
  436poe    c23 1768   1.189   1.050   5.738 -0.4022 -0.2098  0.3046
  436poe     o2 1769   1.241   0.952   5.825  0.1067 -0.0114  0.2325
  436poe    c23 1770   1.369   0.987   5.871  0.2302 -0.1274 -0.0254
  436poe    c23 1771   1.424   0.899   5.985  0.2274  0.0937  0.1474
  436poe     o2 1772   1.459   0.774   5.929 -0.4860 -0.1641  0.2643
  436poe    c23 1773   1.409   0.653   5.981 -0.1276 -0.4057  0.0531
  436poe    c23 1774   1.506   0.600   6.088 -0.1512 -0.3032  0.1262
  436poe     o2 1775   1.477   0.626   6.223 -0.1769  0.1585  0.0304
  436poe    c31 1776   1.566   0.561   6.311  0.1957  0.1897 -0.3216
  437poe    c31 1777   0.426   1.337   3.106  0.0067  0.0074 -0.2310
  437poe     o2 1778   0.324   1.366   3.013 -0.0449 -0.1584 -0.2249
  437poe    c23 1779   0.384   1.411   2.893  0.1021 -0.0461 -0.1092
  437poe    c23 1780   0.284   1.407   2.776 -0.2436  0.0166  0.1832
  437poe     o2 1781   0.250   1.275   2.737  0.3511  0.0911 -0.5958
  437poe    c23 1782   0.355   1.183   2.714  0.4721 -0.0266  0.3545
  437poe    c23 1783   0.304   1.053   2.649 -0.2419  0.5568 -0.2794
  437poe     o2 1784   0.242   1.081   2.525 -0.2279  0.0868 -0.3966
  437poe    c23 1785   0.248   0.957   2.460  0.4445 -0.3533  0.4738
  437poe    c23 1786   0.104   0.911   2.426  0.5700  0.2665 -0.9748
  437poe     o2 1787   0.035   1.009   2.353  0.4761  0.2089 -0.9636
  437poe    c31 1788  -0.103   0.987   2.339  0.3874  0.0073  0.1687
  438poe    c31 1789   0.506   0.177   4.201 -0.1543 -0.3626 -0.3844
  438poe     o2 1790   0.631   0.122   4.238 -0.1892  0.1076  0.4376
  438poe    c23 1791   0.741   0.167   4.162 -0.0627 -0.6157  0.1916
  438poe    c23 1792   0.869   0.091   4.203  0.4521  0.1981  0.1054
  438poe     o2 1793   0.851  -0.048   4.194  0.8176  0.2133 -1.1090
  438poe    c23 1794   0.960  -0.120   4.248  0.4747  0.5805  0.0993
  438poe    c23 1795   0.925  -0.267   4.278  0.7350  0.6283  0.6585
  438poe     o2 1796   0.843  -0.276   4.393 -0.1577  0.7145  0.0399
  438poe    c23 1797   0.920  -0.312   4.505 -0.2024  0.8284  0.1076
  438poe    c23 1798   0.832  -0.316   4.632 -0.1668 -0.0831  0.1099
  438poe     o2 1799   0.753  -0.432   4.650 -0.1719 -0.1525 -0.3547
  438poe    c31 1800   0.697  -0.424   4.779 -0.3369  0.4144 -0.4572
  439poe    c31 1801   0.144   1.047   2.948  0.5290 -0.9559  0.2614
  439poe     o2 1802   0.024   0.975   2.960 -0.3141  0.3482 -0.1072
  439poe    c23 1803   0.030   0.859   3.040  0.2109  0.4375 -0.0163
  439poe    c23 1804  -0.105   0.839   3.112  0.1265  0.0658 -0.2775
  439poe     o2 1805  -0.209   0.819   3.019  0.2690 -0.2743 -0.3649
  439poe    c23 1806  -0.224   0.690   2.965 -0.0701 -0.3485 -0.1021
  439poe    c23 1807  -0.343   0.677   2.868  0.3885 -0.6798 -0.6277
  439poe     o2 1808  -0.332   0.773   2.764  0.2615 -0.0197 -0.0414
  439poe    c23 1809  -0.448   0.815   2.695  0.2956 -0.1594 -0.1838
  439poe    c23 1810  -0.423   0.955   2.636 -0.1944  0.1873  0.4223
  439poe     o2 1811  -0.401   1.057   2.730  0.2969  0.1155  0.3866
  439poe    c31 1812  -0.412   1.188   2.678  0.1655  0.0476  0.2414
  440poe    c31 1813   0.416   1.157   5.327  0.0747  0.0238 -0.6420
  440poe     o2 1814   0.308   1.214   5.257 -0.3551  0.0384  0.0306
  440poe    c23 1815   0.299   1.175   5.122 -0.0640  0.0144  0.0180
  440poe    c23 1816   0.152   1.169   5.078 -0.1861  0.3243  0.3791
  440poe     o2 1817   0.089   1.063   5.146 -0.0557  0.2008  0.3095
  440poe    c23 1818   0.008   1.007   5.045 -0.0833  0.2219  0.3198
  440poe    c23 1819  -0.057   0.879   5.102  0.0198 -0.1840 -0.4599
  440poe     o2 1820  -0.154   0.911   5.199 -0.0581 -0.4505 -0.4482
  440poe    c23 1821  -0.203   0.807   5.280 -0.0954  0.0272  0.1540
  440poe    c23 1822  -0.336   0.864   5.332 -0.1898 -0.0501 -0.0002
  440poe     o2 1823  -0.313   0.962   5.431  0.1261 -0.1097 -0.0153
  440poe    c31 1824  -0.422   0.953   5.521 -0.0112 -0.0095 -0.1730
  441poe    c31 1825   0.500   0.785   6.258  0.1436  0.3754 -0.4948
  441poe     o2 1826   0.385   0.866   6.257 -0.0917  0.0485 -0.0205
  441poe    c23 1827   0.357   0.904   6.124 -0.0788 -0.1690 -0.0851
  441poe    c23 1828   0.266   0.805   6.050 -0.0734  0.2026 -0.5923
  441poe     o2 1829   0.298   0.668   6.052  0.1751  0.2703  0.1336
  441poe    c23 1830   0.198   0.587   5.995  0.0739  0.2704  0.3107
  441poe    c23 1831   0.233   0.437   5.987  0.3323  0.3017  0.8229
  441poe     o2 1832   0.350   0.418   5.911 -0.0503 -0.6173  0.4551
  441poe    c23 1833   0.384   0.282   5.899  0.2918 -0.5105  0.2023
  441poe    c23 1834   0.512   0.263   5.814  0.3997 -0.4218  0.3456
  441poe     o2 1835   0.494   0.298   5.679  0.1043  0.1179  0.5202
  441poe    c31 1836   0.425   0.194   5.613  0.0013  0.3294  0.2891
  442poe    c31 1837   0.816   0.781   6.544  0.1791  0.0960  0.3118
  442poe     o2 1838   0.887   0.672   6.599  0.0923 -0.0998  0.0393
  442poe    c23 1839   0.992   0.727   6.676  0.2837 -0.0675 -0.2434
  442poe    c23 1840   1.100   0.625   6.715 -0.0465 -0.3043  0.0581
  442poe     o2 1841   1.179   0.591   6.604  0.0106  0.0660 -0.0171
  442poe    c23 1842   1.268   0.486   6.638 -0.2327 -0.1099  0.0767
  442poe    c23 1843   1.312   0.409   6.512  0.1061 -0.0732  0.1720
  442poe     o2 1844   1.204   0.345   6.449 -0.0591  0.3059  0.0673
  442poe    c23 1845   1.249   0.229   6.383  0.0710  0.3500  0.0784
  442poe    c23 1846   1.153   0.165   6.281  0.2292  0.1018  0.0845
  442poe     o2 1847   1.136   0.232   6.158  0.1301 -0.1042 -0.0156
  442poe    c31 1848   1.061   0.153   6.069 -0.3312  0.1247  0.1654
  443poe    c31 1849   1.772   0.349   2.664 -0.1098 -0.4093  0.5218
  443poe     o2 1850   1.807   0.213   2.671 -0.1869 -0.4198  0.6933
  443poe    c23 1851   1.696   0.128   2.652 -0.2142 -0.3355  0.4705
  443poe    c23 1852   1.722  -0.021   2.622 -0.4043 -0.2687 -0.0261
  443poe     o2 1853   1.783  -0.067   2.504  0.0004 -0.6378  0.3255
  443poe    c23 1854   1.782  -0.208   2.505 -0.1362 -0.6415 -0.1828
  443poe    c23 1855   1.869  -0.254   2.386  0.5355 -0.6801  0.3173
  443poe     o2 1856   1.999  -0.205   2.410  0.3410 -0.1585  0.3160
  443poe    c23 1857   2.088  -0.246   2.308  0.4862  0.6006  0.1320
  443poe    c23 1858   2.231  -0.213   2.353  0.6106 -0.1008  0.2580
  443poe     o2 1859   2.239  -0.083   2.406 -1.0272  0.0877  0.0857
  443poe    c31 1860   2.375  -0.075   2.444 -0.9401  0.4055 -0.2829
  444poe    c31 1861   1.123   2.057   1.622 -0.5281  0.0469 -0.5749
  444poe     o2 1862   1.206   2.139   1.542  0.4328 -0.2768  0.0614
  444poe    c23 1863   1.186   2.126   1.403 -0.4310 -0.1679  0.1695
  444poe    c23 1864   1.262   2.235   1.327 -0.3975 -0.3349 -0.0394
  444poe     o2 1865   1.394   2.244   1.377 -0.1829 -0.2227 -0.6145
  444poe    c23 1866   1.465   2.335   1.296 -0.0394  0.2505  0.0272
  444poe    c23 1867   1.618   2.314   1.301 -0.1174 -0.5232 -0.4682
  444poe     o2 1868   1.649   2.181   1.266 -0.4457 -0.8757  0.5319
  444poe    c23 1869   1.788   2.161   1.278 -0.2548  0.3251  0.5188
  444poe    c23 1870   1.809   2.008   1.287 -0.0070  0.3432  0.2781
  444poe     o2 1871   1.933   1.943   1.289 -0.0452  0.2634 -0.0280
  444poe    c31 1872   1.912   1.810   1.247 -0.4269  0.0785  0.7347
  445poe    c31 1873   0.808   0.790   2.352  0.3550  0.1432  0.3032
  445poe     o2 1874   0.804   0.821   2.490 -0.4721 -0.2216  0.3704
  445poe    c23 1875   0.792   0.709   2.574 -0.9209 -0.2983  0.2063
  445poe    c23 1876   0.850   0.744   2.712 -0.2756 -1.1029  0.1451
  445poe     o2 1877   0.989   0.762   2.706 -0.4201  0.0651  0.1523
  445poe    c23 1878   1.054   0.744   2.830  0.2964 -0.0770 -0.2411
  445poe    c23 1879   1.206   0.771   2.827  0.3252 -0.1534  0.4259
  445poe     o2 1880   1.223   0.907   2.793 -0.4807 -0.2160 -0.2526
  445poe    c23 1881   1.356   0.935   2.755 -0.2896 -0.3028  0.3472
  445poe    c23 1882   1.383   1.078   2.808 -0.2979  0.0086 -0.4728
  445poe     o2 1883   1.321   1.184   2.740 -0.1370  0.2419 -0.2544
  445poe    c31 1884   1.358   1.306   2.802  0.2465 -0.2192  0.4374
  446poe    c31 1885   2.466   2.411   2.880  0.7731 -0.2093 -0.0875
  446poe     o2 1886   2.465   2.274   2.846 -0.0324 -0.1682 -0.2498
  446poe    c23 1887   2.332   2.228   2.850 -0.1156  0.1180  0.4438
  446poe    c23 1888   2.299   2.081   2.882 -0.5585  0.1514  0.1479
  446poe     o2 1889   2.161   2.048   2.883 -0.4845 -0.1556  0.4509
  446poe    c23 1890   2.139   1.910   2.901  0.0661 -0.2027  0.8067
  446poe    c23 1891   2.006   1.850   2.849  0.3430 -0.0999 -0.0373
  446poe     o2 1892   1.991   1.712   2.870 -0.1932 -0.0784 -0.2833
  446poe    c23 1893   1.884   1.661   2.793 -0.5760  0.0148  0.1859
  446poe    c23 1894   1.874   1.508   2.798 -0.0496 -0.0210  0.1056
  446poe     o2 1895   1.875   1.446   2.925 -0.0521 -0.2028  0.0185
  446poe    c31 1896   1.771   1.351   2.929 -0.0181 -0.2578 -0.3700
  447poe    c31 1897   1.119   1.417   1.504  0.4964 -0.2737 -0.3855
  447poe     o2 1898   1.019   1.333   1.557 -0.1691  0.4452 -0.5002
  447poe    c23 1899   0.903   1.408   1.589 -0.6133 -0.2442 -0.4870
  447poe    c23 1900   0.813   1.336   1.691  0.5370 -0.5355  0.3425
  447poe     o2 1901   0.764   1.217   1.633 -0.1474  0.1188 -0.4425
  447poe    c23 1902   0.674   1.164   1.728 -0.1518  0.4756 -0.2457
  447poe    c23 1903   0.640   1.019   1.689 -0.2117  0.4483 -0.0933
  447poe     o2 1904   0.756   0.938   1.681 -0.1609  0.5802 -0.7873
  447poe    c23 1905   0.731   0.809   1.631  0.1753  0.2224 -0.0397
  447poe    c23 1906   0.853   0.729   1.681 -0.2076 -0.1357  0.3414
  447poe     o2 1907   0.956   0.815   1.636 -0.3719 -0.1261 -0.0166
  447poe    c31 1908   1.076   0.741   1.634 -0.1420  0.2563 -0.3650
  448poe    c31 1909   2.437   0.081   3.188  0.8518  0.2237 -0.0806
  448poe     o2 1910   2.470   0.200   3.257  0.3798  0.0376  0.4701
  448poe    c23 1911   2.584   0.205   3.338  0.5097  0.6880  0.2493
  448poe    c23 1912   2.714   0.194   3.256 -0.2318 -0.0587 -0.8458
  448poe     o2 1913   2.750   0.310   3.183  0.2191 -0.1941 -0.8371
  448poe    c23 1914   2.885   0.308   3.141  0.3198 -0.0972 -0.5229
  448poe    c23 1915   2.975   0.401   3.223 -0.7918  0.4200  0.1232
  448poe     o2 1916   2.944   0.538   3.206  0.3170  0.6890  0.2202
  448poe    c23 1917   3.009   0.604   3.099 -0.0820 -0.1502 -0.5484
  448poe    c23 1918   2.965   0.742   3.048  0.3172  0.0765 -0.2792
  448poe     o2 1919   2.864   0.730   2.950  0.1532 -0.9651  0.0025
  448poe    c31 1920   2.909   0.762   2.820 -0.2495 -0.1751  0.0508
  449poe    c31 1921   2.137   0.796   4.799  0.6877 -0.3399  0.1234
  449poe     o2 1922   2.092   0.817   4.667  0.1024  0.5295  0.4530
  449poe    c23 1923   2.210   0.850   4.597  0.0153 -0.1156 -0.0127
  449poe    c23 1924   2.202   0.828   4.445 -0.1466 -0.1608  0.0031
  449poe     o2 1925   2.150   0.700   4.415 -0.0793 -0.2946  0.4527
  449poe    c23 1926   2.134   0.688   4.275  1.3526 -0.7172  0.3028
  449poe    c23 1927   2.044   0.567   4.245  0.3996 -0.2042  1.0034
  449poe     o2 1928   1.911   0.608   4.266  0.0148 -0.8542 -0.0760
  449poe    c23 1929   1.826   0.501   4.230 -0.3898 -0.6406  0.2451
  449poe    c23 1930   1.679   0.549   4.238 -0.1469  0.2328 -0.3306
  449poe     o2 1931   1.669   0.658   4.327 -0.1200 -0.5740  0.6895
  449poe    c31 1932   1.537   0.705   4.340  0.2084  0.6416 -0.2168
  450poe    c31 1933   2.080   2.269   0.957 -0.2667  0.4898 -0.6600
  450poe     o2 1934   2.218   2.252   0.933 -0.2197  0.1430 -0.1502
  450poe    c23 1935   2.296   2.367   0.959  0.3559 -0.3361  0.2647
  450poe    c23 1936   2.444   2.333   0.931  0.3144 -0.1212 -0.2175
  450poe     o2 1937   2.514   2.260   1.028 -0.4254 -0.5216  0.0281
  450poe    c23 1938   2.613   2.188   0.958 -0.2088 -0.4176  0.2240
  450poe    c23 1939   2.687   2.088   1.049  0.8375 -0.0885 -0.2409
  450poe     o2 1940   2.598   1.995   1.108  0.7061  0.3895  0.3246
  450poe    c23 1941   2.545   2.030   1.234  0.1965  0.7586  0.0118
  450poe    c23 1942   2.395   2.060   1.244 -0.0264 -0.1574 -0.4334
  450poe     o2 1943   2.344   2.085   1.373 -0.2658 -0.2479 -0.5099
  450poe    c31 1944   2.204   2.105   1.374 -0.2410 -0.0569  0.4706
  451poe    c31 1945   1.910   1.435   1.116 -0.5124  0.1259  0.2014
  451poe     o2 1946   1.977   1.518   1.209  0.0640  0.7205 -0.7296
  451poe    c23 1947   2.062   1.447   1.295 -0.7620  1.0419  0.3718
  451poe    c23 1948   2.157   1.538   1.375  0.4901  0.3223 -0.2722
  451poe     o2 1949   2.280   1.542   1.306  0.4569 -0.0837 -0.3556
  451poe    c23 1950   2.349   1.663   1.329 -0.0332  0.1391 -0.0446
  451poe    c23 1951   2.502   1.652   1.327 -0.0101  0.4717 -0.2267
  451poe     o2 1952   2.551   1.624   1.198 -0.4667 -0.1667 -0.2663
  451poe    c23 1953   2.685   1.653   1.168 -0.4052  0.0424  0.2023
  451poe    c23 1954   2.803   1.582   1.238 -0.5102 -0.1021  0.2331
  451poe     o2 1955   2.799   1.441   1.239  0.0317 -0.1316 -0.5086
  451poe    c31 1956   2.918   1.396   1.301 -0.3841 -0.2296  0.2275
  452poe    c31 1957   1.693   0.164   4.403  0.5730  0.4025  0.5258
  452poe     o2 1958   1.759   0.104   4.294 -0.3442  0.8307 -0.2740
  452poe    c23 1959   1.808  -0.026   4.317  0.1720  1.0089 -0.3550
  452poe    c23 1960   1.873  -0.085   4.190 -0.6312  0.3895 -0.4863
  452poe     o2 1961   1.780  -0.099   4.084 -1.3295 -0.5223  0.2346
  452poe    c23 1962   1.848  -0.168   3.982  0.1903  0.4177  0.5771
  452poe    c23 1963   1.900  -0.081   3.866 -0.0095  0.2654  0.3706
  452poe     o2 1964   1.809  -0.019   3.778 -0.0387 -0.3587 -0.0405
  452poe    c23 1965   1.736   0.095   3.817 -0.1494 -0.4143 -0.0853
  452poe    c23 1966   1.626   0.130   3.715 -0.1176  0.7254  0.2631
  452poe     o2 1967   1.669   0.177   3.589  0.0228  0.2730  0.1435
  452poe    c31 1968   1.558   0.245   3.535  0.3907  0.0841 -0.8837
  453poe    c31 1969   1.783   0.601   1.573  0.5796 -0.4945  0.7769
  453poe     o2 1970   1.848   0.552   1.458 -0.0357  0.1469  0.1429
  453poe    c23 1971   1.796   0.426   1.424  0.3362  0.1446 -0.4305
  453poe    c23 1972   1.904   0.342   1.352  0.1856 -0.2702 -0.1758
  453poe     o2 1973   1.966   0.429   1.260  0.1839  0.0242  0.0996
  453poe    c23 1974   2.076   0.363   1.200  0.2786  0.3606 -0.0980
  453poe    c23 1975   2.150   0.466   1.113  0.4517  0.1663 -0.1796
  453poe     o2 1976   2.175   0.578   1.195 -0.0390  0.1706 -0.0366
  453poe    c23 1977   2.214   0.693   1.125 -0.3907  0.0783 -0.3874
  453poe    c23 1978   2.218   0.820   1.213  0.3165  0.0041 -0.3048
  453poe     o2 1979   2.098   0.881   1.256  0.2082 -0.1107 -0.4434
  453poe    c31 1980   2.116   1.016   1.290 -0.3446 -0.1126 -0.1460
  454poe    c31 1981   1.377   1.579   5.448 -0.8263  0.1308  0.7901
  454poe     o2 1982   1.411   1.709   5.493  0.3171  0.2465 -0.3467
  454poe    c23 1983   1.382   1.801   5.390  0.4819  0.3971 -0.2591
  454poe    c23 1984   1.440   1.938   5.428 -0.1096  0.4777  0.3774
  454poe     o2 1985   1.387   2.025   5.526 -0.8717  0.6965 -0.2166
  454poe    c23 1986   1.445   2.152   5.539  0.3639  0.0767  0.5527
  454poe    c23 1987   1.361   2.250   5.623  0.2352  0.4232  0.0260
  454poe     o2 1988   1.399   2.254   5.759  0.2376  0.1361  0.0329
  454poe    c23 1989   1.339   2.353   5.838  0.0166 -0.1398  0.2134
  454poe    c23 1990   1.384   2.499   5.815 -0.0975 -0.0879  0.3132
  454poe     o2 1991   1.514   2.531   5.860 -0.1698  0.4522  0.1445
  454poe    c31 1992   1.520   2.539   6.000  0.0122  0.1884  0.1536
  455poe    c31 1993   0.663   2.276   1.568 -0.0461  0.4752 -0.5450
  455poe     o2 1994   0.663   2.288   1.427  0.1337  0.0386 -0.5824
  455poe    c23 1995   0.788   2.283   1.362  0.3417  0.1662 -0.1981
  455poe    c23 1996   0.781   2.276   1.208 -0.1342  0.2890 -0.1861
  455poe     o2 1997   0.729   2.391   1.145 -0.2252  0.2185 -0.2398
  455poe    c23 1998   0.639   2.349   1.046 -0.2455 -0.1190 -0.0800
  455poe    c23 1999   0.582   2.456   0.952  0.5208  0.3841  0.0217
  455poe     o2 2000   0.486   2.552   0.992  0.0425  0.0198 -0.2411
  455poe    c23 2001   0.356   2.498   0.999  0.0904 -0.0565  0.0917
  455poe    c23 2002   0.241   2.575   1.066 -0.2654 -0.5809  0.0935
  455poe     o2 2003   0.188   2.681   0.989 -0.0013 -0.7708 -0.3500
  455poe    c31 2004   0.050   2.666   0.967 -0.1469 -0.3836  0.2961
  456poe    c31 2005   2.245   0.268   3.539  0.5426 -0.0784  0.5548
  456poe     o2 2006   2.317   0.362   3.463 -0.1926 -0.1816 -0.2950
  456poe    c23 2007   2.243   0.411   3.353 -0.7979 -0.9241 -0.2275
  456poe    c23 2008   2.147   0.529   3.378  0.0305 -0.4761  0.9432
  456poe     o2 2009   2.210   0.655   3.391 -0.3762 -0.2253  0.5110
  456poe    c23 2010   2.123   0.753   3.442 -0.5594  0.1358 -0.4606
  456poe    c23 2011   2.199   0.886   3.448  0.6820 -0.5638 -0.3354
  456poe     o2 2012   2.299   0.897   3.547  0.2913 -0.0883  0.0119
  456poe    c23 2013   2.277   0.892   3.686  0.4775  1.2295  0.1034
  456poe    c23 2014   2.412   0.915   3.756  0.9844  0.5476 -0.6430
  456poe     o2 2015   2.495   0.802   3.739  0.5308  0.0680  0.2465
  456poe    c31 2016   2.619   0.836   3.798  0.5324  0.6847 -0.1073
  457poe    c31 2017   2.457   0.563   0.629 -0.2134 -0.4360  0.4323
  457poe     o2 2018   2.576   0.615   0.685 -0.0612 -0.0273 -0.2657
  457poe    c23 2019   2.604   0.525   0.790 -0.4897 -0.2882 -0.3716
  457poe    c23 2020   2.735   0.539   0.871 -0.5021  0.0029 -0.4009
  457poe     o2 2021   2.844   0.501   0.791 -0.5884 -0.3467 -0.3522
  457poe    c23 2022   2.861   0.361   0.787 -0.3666 -0.3139 -0.6956
  457poe    c23 2023   2.994   0.313   0.727  0.4639  0.8914  0.1295
  457poe     o2 2024   3.103   0.365   0.799  0.9835  0.1608 -0.1241
  457poe    c23 2025   3.128   0.309   0.926  0.2470 -0.0478 -0.0695
  457poe    c23 2026   3.280   0.321   0.948  0.2352 -0.1288  0.0591
  457poe     o2 2027   3.331   0.247   1.056  0.3767 -0.2047 -0.0599
  457poe    c31 2028   3.454   0.310   1.087  0.2604  0.1864 -0.3840
  458poe    c31 2029   1.052   0.800   4.264  0.2422  0.1455 -0.0242
  458poe     o2 2030   0.924   0.810   4.323  0.3120 -0.4648  0.2372
  458poe    c23 2031   0.860   0.685   4.328 -0.2096 -0.2264 -0.3202
  458poe    c23 2032   0.717   0.674   4.385 -0.1245  0.4241  0.0256
  458poe     o2 2033   0.681   0.538   4.399  0.1856  0.3216 -0.1632
  458poe    c23 2034   0.556   0.523   4.461  0.1432 -0.4902 -0.4324
  458poe    c23 2035   0.509   0.382   4.499  0.4396 -0.4887 -0.0618
  458poe     o2 2036   0.549   0.367   4.633 -0.2302 -0.4759  0.1439
  458poe    c23 2037   0.522   0.240   4.690  0.6295 -0.8771 -0.3197
  458poe    c23 2038   0.489   0.238   4.840  0.1122 -0.9388 -0.4348
  458poe     o2 2039   0.577   0.294   4.935 -0.1325 -0.5216 -0.4505
  458poe    c31 2040   0.568   0.435   4.936  0.0042 -0.5144 -0.2479
  459poe    c31 2041   0.793   0.034   6.193  0.0851  0.1146 -1.0324
  459poe     o2 2042   0.883  -0.062   6.246  0.0871  0.7181  0.0746
  459poe    c23 2043   0.810  -0.157   6.320 -0.0361  0.4868 -0.3466
  459poe    c23 2044   0.762  -0.273   6.230  0.3165  0.0413  0.0340
  459poe     o2 2045   0.856  -0.378   6.231  0.3295  0.0537  0.3335
  459poe    c23 2046   0.930  -0.366   6.111  0.2041  0.1713  0.2680
  459poe    c23 2047   0.868  -0.418   5.980  0.3796 -0.2342  0.3465
  459poe     o2 2048   0.838  -0.556   5.994  0.3708 -0.2638  0.0409
  459poe    c23 2049   0.795  -0.613   5.873  0.6735  0.0197 -0.2033
  459poe    c23 2050   0.737  -0.754   5.893  0.6576  0.1226  0.4932
  459poe     o2 2051   0.610  -0.763   5.954  0.5015  0.0809  0.1638
  459poe    c31 2052   0.545  -0.884   5.921  0.1367  0.1487  0.6301
  460poe    c31 2053   0.185   2.517   2.581  0.1317  0.4850 -0.2589
  460poe     o2 2054   0.321   2.482   2.571  0.0322 -0.2501  0.7537
  460poe    c23 2055   0.339   2.342   2.570 -0.8348 -0.3636  0.6466
  460poe    c23 2056   0.487   2.306   2.550 -0.7404  0.1454  0.4063
  460poe     o2 2057   0.562   2.390   2.633  0.1534  0.3242 -0.5624
  460poe    c23 2058   0.697   2.349   2.629  0.3287  0.8714 -0.4368
  460poe    c23 2059   0.789   2.440   2.712  0.1629  0.4644  0.1989
  460poe     o2 2060   0.782   2.569   2.655  0.2064  0.2917 -0.1999
  460poe    c23 2061   0.869   2.649   2.733  0.7106 -0.2232 -0.2237
  460poe    c23 2062   0.835   2.798   2.714 -0.0619 -0.2984  0.4891
  460poe     o2 2063   0.703   2.840   2.737 -0.1094 -0.0272 -0.2394
  460poe    c31 2064   0.696   2.956   2.818 -0.8166 -0.4216  0.2838
  461poe    c31 2065   2.139   0.104   5.994 -0.2412  0.5281  0.0356
  461poe     o2 2066   2.001   0.129   5.978 -0.3406  0.1182  0.2455
  461poe    c23 2067   1.962   0.242   6.052  0.1906  0.5385 -0.1074
  461poe    c23 2068   1.811   0.263   6.026  0.0787  0.2700  0.3084
  461poe     o2 2069   1.796   0.291   5.888  0.1998  0.5415  0.3503
  461poe    c23 2070   1.683   0.372   5.865  0.2035  0.6315  0.6455
  461poe    c23 2071   1.678   0.414   5.717 -0.0166 -0.2015  0.4089
  461poe     o2 2072   1.598   0.529   5.700 -0.4005 -0.5221  0.0123
  461poe    c23 2073   1.576   0.550   5.562  0.2884  0.2228  0.0074
  461poe    c23 2074   1.537   0.695   5.528 -0.1426 -0.0213 -0.5554
  461poe     o2 2075   1.639   0.787   5.562 -0.1921 -0.4115  0.7139
  461poe    c31 2076   1.582   0.916   5.553  0.0697 -0.3312  0.0968
  462poe    c31 2077   1.991   0.917   6.818 -0.2336 -0.0741 -0.3898
  462poe     o2 2078   2.095   0.939   6.726  0.4773  0.5671  0.5518
  462poe    c23 2079   2.155   0.812   6.713  0.4694  0.6537 -0.3540
  462poe    c23 2080   2.280   0.798   6.624  0.5102 -0.2368 -0.1625
  462poe     o2 2081   2.397   0.856   6.676  0.5247 -0.8100  0.4676
  462poe    c23 2082   2.478   0.894   6.567 -0.0555 -0.3835  0.1764
  462poe    c23 2083   2.620   0.836   6.580  0.2430  0.3317  0.1588
  462poe     o2 2084   2.671   0.855   6.710  0.6764  0.4301 -0.0241
  462poe    c23 2085   2.799   0.795   6.721  0.2435 -0.5049  0.0029
  462poe    c23 2086   2.868   0.846   6.849  0.3758  0.5874 -0.4887
  462poe     o2 2087   2.920   0.977   6.849 -0.1183  0.7824 -0.2324
  462poe    c31 2088   3.021   1.007   6.756  0.3365  0.1057  0.0341
  463poe    c31 2089   0.349   2.233   4.346 -0.8342  0.3695  0.0069
  463poe     o2 2090   0.430   2.259   4.233 -0.1245 -0.4369  0.3165
  463poe    c23 2091   0.566   2.234   4.255 -0.2020 -0.3601  0.9111
  463poe    c23 2092   0.608   2.099   4.193 -0.2971  0.0875 -0.1448
  463poe     o2 2093   0.645   2.134   4.062 -0.4674  0.3960 -0.1105
  463poe    c23 2094   0.664   2.020   3.980 -0.1217  0.3334  0.0557
  463poe    c23 2095   0.689   2.054   3.832 -0.1012  0.1306  0.0133
  463poe     o2 2096   0.812   2.115   3.803  0.0868 -0.2267  0.0499
  463poe    c23 2097   0.849   2.171   3.679  0.2536  0.1227  0.2536
  463poe    c23 2098   0.896   2.071   3.572 -0.0080  0.2465  0.0183
  463poe     o2 2099   1.028   2.039   3.612  0.0710  0.4454 -0.0825
  463poe    c31 2100   1.078   1.919   3.558  1.3436  1.1673 -0.5514
  464poe    c31 2101   1.426   1.196   5.236 -0.0515 -0.3323  0.2333
  464poe     o2 2102   1.463   1.089   5.151  0.4059  0.0047  0.0027
  464poe    c23 2103   1.352   1.002   5.142  0.0434  0.4171  0.4158
  464poe    c23 2104   1.379   0.890   5.040 -0.4782  0.2797  0.4292
  464poe     o2 2105   1.433   0.944   4.922 -0.7338 -0.1759  0.0987
  464poe    c23 2106   1.423   0.862   4.807 -0.2269  0.0413 -0.1051
  464poe    c23 2107   1.489   0.956   4.704 -0.3048  0.3632  0.1374
  464poe     o2 2108   1.605   1.012   4.761  0.1290 -0.4997  0.1107
  464poe    c23 2109   1.696   1.060   4.664 -0.0975 -0.3679 -0.0388
  464poe    c23 2110   1.810   1.153   4.710 -0.0604 -0.1587 -0.5497
  464poe     o2 2111   1.755   1.269   4.768  0.0283  0.1026 -0.9885
  464poe    c31 2112   1.859   1.347   4.823 -0.1162  0.3643 -1.0860
  465poe    c31 2113   0.990   1.430   1.127  0.3665 -0.3647  0.4501
  465poe     o2 2114   0.904   1.321   1.099 -0.2774  0.2781 -0.1260
  465poe    c23 2115   0.982   1.220   1.037  0.0126  0.3523  0.1128
  465poe    c23 2116   1.032   1.223   0.891  0.3529 -0.2470  0.2150
  465poe     o2 2117   0.948   1.183   0.785  0.6435  0.3538 -0.2467
  465poe    c23 2118   1.037   1.163   0.677  0.5814 -0.3897 -0.1665
  465poe    c23 2119   0.985   1.070   0.565  0.6477  0.3034 -0.7785
  465poe     o2 2120   0.978   0.932   0.592  0.5531  0.5351  0.4571
  465poe    c23 2121   0.853   0.880   0.632  0.4352  0.4143 -0.0650
  465poe    c23 2122   0.759   0.840   0.517 -0.0400 -0.0695  0.4929
  465poe     o2 2123   0.717   0.950   0.439  0.0675 -0.4841 -0.1558
  465poe    c31 2124   0.697   0.935   0.300 -0.8215 -0.4391 -0.0411
  466poe    c31 2125   1.675   0.921   6.312 -0.9908 -0.8345  0.1734
  466poe     o2 2126   1.668   1.044   6.244 -0.3262 -0.6510  0.4267
  466poe    c23 2127   1.601   1.132   6.331  0.0419  0.4787 -0.3963
  466poe    c23 2128   1.571   1.268   6.267 -0.4280  0.5038 -0.1248
  466poe     o2 2129   1.684   1.345   6.231 -0.0632 -0.1107 -0.2994
  466poe    c23 2130   1.674   1.464   6.155 -0.0236  0.1887  0.1639
  466poe    c23 2131   1.789   1.565   6.150  0.0951  0.0214 -0.5468
  466poe     o2 2132   1.765   1.682   6.075  0.0358  0.2981 -0.1017
  466poe    c23 2133   1.891   1.738   6.045  0.1507 -0.0710 -0.3113
  466poe    c23 2134   1.887   1.886   6.003 -0.1864 -0.1499 -0.5542
  466poe     o2 2135   1.861   1.962   6.118 -0.1903 -0.3396 -0.4291
  466poe    c31 2136   1.967   2.051   6.145 -0.6804  0.2371 -0.3854
  467poe    c31 2137   1.360   1.556   5.060 -0.2670 -0.0159 -0.2131
  467poe     o2 2138   1.477   1.545   5.138 -0.0542 -0.1200 -0.5444
  467poe    c23 2139   1.592   1.602   5.079 -0.2217  0.1740 -0.5897
  467poe    c23 2140   1.707   1.535   5.156 -0.5275  0.2685 -0.0408
  467poe     o2 2141   1.704   1.395   5.139  0.4425  0.1889  0.3375
  467poe    c23 2142   1.734   1.323   5.256 -0.1499 -0.1317  0.2931
  467poe    c23 2143   1.883   1.293   5.278  0.0120  0.2719 -0.2381
  467poe     o2 2144   1.922   1.214   5.168 -0.4913  0.0762 -0.2757
  467poe    c23 2145   2.057   1.177   5.179 -0.2305  0.9856 -0.3821
  467poe    c23 2146   2.137   1.204   5.050  0.3396 -0.1065 -0.2671
  467poe     o2 2147   2.147   1.338   5.009  0.3173 -0.1014 -0.2561
  467poe    c31 2148   2.275   1.361   4.955  0.4454  0.8534  0.4194
  468poe    c31 2149   0.795   1.612   4.140 -0.1686  0.8946  0.1600
  468poe     o2 2150   0.697   1.615   4.242 -0.4993 -0.9430 -0.0694
  468poe    c23 2151   0.582   1.541   4.208 -0.6616 -0.5568 -0.3626
  468poe    c23 2152   0.477   1.540   4.321  0.0051  0.4644  0.2831
  468poe     o2 2153   0.518   1.512   4.453 -0.0854 -0.6459  0.0844
  468poe    c23 2154   0.406   1.524   4.537  0.0177  0.4963  0.0682
  468poe    c23 2155   0.428   1.467   4.679 -1.0649  0.3223  0.1773
  468poe     o2 2156   0.543   1.503   4.752 -0.5266 -0.4539 -0.2640
  468poe    c23 2157   0.545   1.491   4.893 -0.3685  1.0536 -0.1111
  468poe    c23 2158   0.683   1.488   4.962 -0.8248  0.6619  0.8086
  468poe     o2 2159   0.745   1.610   4.929 -0.6232  0.4383  0.3436
  468poe    c31 2160   0.831   1.632   5.039 -0.5143 -0.1806  0.3820
  469poe    c31 2161   1.544   1.643   7.007  0.4103  0.2289  0.0931
  469poe     o2 2162   1.487   1.646   6.878  0.9028 -0.1914 -0.1354
  469poe    c23 2163   1.545   1.744   6.794  0.4082 -0.2401 -0.5390
  469poe    c23 2164   1.499   1.890   6.802  0.2699 -0.3288  0.4107
  469poe     o2 2165   1.547   1.960   6.915 -0.2890  0.3237  0.2515
  469poe    c23 2166   1.496   2.091   6.910  0.5299  0.6279 -0.2790
  469poe    c23 2167   1.532   2.176   7.033 -0.4135  0.2473  0.2715
  469poe     o2 2168   1.660   2.232   7.017 -0.3954  0.1750  0.1616
  469poe    c23 2169   1.676   2.349   7.095  0.1605  0.3616 -0.2253
  469poe    c23 2170   1.820   2.400   7.116  0.1785  0.3424 -0.2984
  469poe     o2 2171   1.890   2.379   6.996 -0.5247 -0.1367 -0.6337
  469poe    c31 2172   1.963   2.494   6.960 -0.0496  0.0482  0.8291
  470poe    c31 2173   0.542   0.074   6.532 -0.5231  0.0495  0.3730
  470poe     o2 2174   0.408   0.119   6.536 -0.4717  0.2514 -0.1336
  470poe    c23 2175   0.400   0.252   6.490  0.1178  0.1185 -0.6493
  470poe    c23 2176   0.254   0.295   6.467  0.2171  0.5428 -0.5050
  470poe     o2 2177   0.179   0.283   6.586  0.1784 -0.1401 -0.5909
  470poe    c23 2178   0.091   0.389   6.619 -0.3927 -0.5894 -0.6702
  470poe    c23 2179  -0.054   0.396   6.566 -0.5205 -0.3657 -0.2899
  470poe     o2 2180  -0.113   0.281   6.622 -0.3638 -0.2570  0.1003
  470poe    c23 2181  -0.244   0.237   6.599 -0.3209 -0.4836  0.2854
  470poe    c23 2182  -0.353   0.330   6.656 -0.0064 -0.0247  0.1393
  470poe     o2 2183  -0.348   0.347   6.796  0.2297 -0.1168  0.1429
  470poe    c31 2184  -0.480   0.377   6.835  0.2099  0.0643 -0.0606
  471poe    c31 2185   1.876   1.461   1.980  0.2120  0.5669 -0.3872
  471poe     o2 2186   1.764   1.378   1.998  0.7417 -0.0379  0.2025
  471poe    c23 2187   1.796   1.254   1.940  0.2662 -0.2693  0.4278
  471poe    c23 2188   1.677   1.167   1.895 -0.0447  0.7088 -0.7014
  471poe     o2 2189   1.600   1.232   1.797 -0.4503  0.8336 -0.3063
  471poe    c23 2190   1.478   1.173   1.757 -0.4829  0.4664  0.3308
  471poe    c23 2191   1.353   1.198   1.844 -0.5489  0.6687  0.1763
  471poe     o2 2192   1.318   1.335   1.839 -0.1905  0.7405 -0.6739
  471poe    c23 2193   1.180   1.350   1.867 -0.0938  0.1950  0.1221
  471poe    c23 2194   1.134   1.495   1.885 -0.1862  0.1109  0.5820
  471poe     o2 2195   0.997   1.520   1.863 -0.2005 -0.1774  0.3500
  471poe    c31 2196   0.964   1.656   1.873 -0.2324 -0.1573  0.0036
  472poe    c31 2197   2.133   1.832   4.398  0.6451 -0.3948 -0.1144
  472poe     o2 2198   2.082   1.843   4.529  0.0937  0.3220 -0.3763
  472poe    c23 2199   2.095   1.710   4.575  0.0936  0.5624  0.3412
  472poe    c23 2200   1.955   1.677   4.630  0.0043  0.2817 -0.0481
  472poe     o2 2201   1.927   1.781   4.721  0.1833  0.0200  0.3062
  472poe    c23 2202   1.795   1.782   4.771 -0.0440 -0.1737 -0.2827
  472poe    c23 2203   1.758   1.929   4.799  0.3831 -0.1072 -0.0519
  472poe     o2 2204   1.762   2.002   4.678 -0.4868  0.3935  0.2163
  472poe    c23 2205   1.647   2.084   4.672 -0.2331  0.8093  0.9108
  472poe    c23 2206   1.629   2.167   4.544 -0.3811  0.3315  0.6169
  472poe     o2 2207   1.682   2.297   4.561 -0.0314  0.3674 -0.6334
  472poe    c31 2208   1.615   2.392   4.641  0.7059  0.5799 -0.2574
  473poe    c31 2209   1.842   0.992   2.898 -0.3566  0.2801  0.2480
  473poe     o2 2210   1.810   0.947   3.028  0.0330  0.3507  0.3688
  473poe    c23 2211   1.878   1.021   3.127  0.5897 -0.0005  0.2542
  473poe    c23 2212   1.831   0.985   3.269 -0.1313 -0.4447 -0.0907
  473poe     o2 2213   1.701   1.033   3.294  0.1499  0.4007 -0.2308
  473poe    c23 2214   1.665   1.023   3.430 -0.8935 -0.2640 -0.5412
  473poe    c23 2215   1.524   1.072   3.465 -0.6843 -0.3361  0.4316
  473poe     o2 2216   1.506   1.205   3.420 -0.0485 -0.4601 -0.2009
  473poe    c23 2217   1.411   1.233   3.320 -0.3132 -0.6439 -0.0013
  473poe    c23 2218   1.271   1.247   3.384 -0.1289 -0.4426  0.3598
  473poe     o2 2219   1.267   1.345   3.486 -0.0198 -0.1388  0.0719
  473poe    c31 2220   1.136   1.348   3.537 -0.0694 -0.6815 -0.0136
  474poe    c31 2221   1.087   1.645   0.770 -0.2999 -0.3769  0.0543
  474poe     o2 2222   1.048   1.565   0.661 -0.2957  0.3424 -0.4805
  474poe    c23 2223   1.166   1.519   0.598 -0.4729  0.2040 -0.7118
  474poe    c23 2224   1.140   1.480   0.451 -0.2799  0.1054 -0.7197
  474poe     o2 2225   1.265   1.444   0.398  0.1791  0.2595  0.2370
  474poe    c23 2226   1.236   1.411   0.264 -0.3903 -0.0214  0.4250
  474poe    c23 2227   1.363   1.382   0.181 -0.5998 -0.1950  0.1625
  474poe     o2 2228   1.391   1.244   0.190  0.6440  0.0319  0.0223
  474poe    c23 2229   1.477   1.212   0.083  0.4281  0.0177 -0.1473
  474poe    c23 2230   1.470   1.059   0.062  0.1212  0.0071  0.0088
  474poe     o2 2231   1.529   0.986   0.167  0.1818 -0.5556 -0.4145
  474poe    c31 2232   1.529   0.850   0.128  0.1796 -0.4510 -0.7820
  475poe    c31 2233   0.281   2.103   1.465  0.6644  0.0245  0.0064
  475poe     o2 2234   0.235   2.165   1.584 -0.0039  0.6867 -0.5852
  475poe    c23 2235   0.095   2.144   1.579  0.1431 -0.5016 -0.0290
  475poe    c23 2236   0.015   2.193   1.701  0.3517 -0.1492 -0.0326
  475poe     o2 2237   0.005   2.120   1.822 -0.4246  0.2359  0.1382
  475poe    c23 2238  -0.085   2.186   1.908 -0.2176  0.4603  0.1827
  475poe    c23 2239  -0.073   2.126   2.049  0.2491 -0.4016 -0.2178
  475poe     o2 2240   0.039   2.169   2.123 -0.1173  0.1190  0.0387
  475poe    c23 2241   0.118   2.058   2.160 -0.3479 -0.2217 -0.4815
  475poe    c23 2242   0.202   1.978   2.059  0.2989  0.4585 -0.4871
  475poe     o2 2243   0.304   2.057   2.002  0.2986  0.7434 -0.0938
  475poe    c31 2244   0.388   1.994   1.908 -0.1863  0.0979 -0.0976
  476poe    c31 2245   0.739   1.027   4.073  0.0665 -0.1817 -0.3200
  476poe     o2 2246   0.800   0.983   3.953  0.4082  0.1619 -0.2753
  476poe    c23 2247   0.935   0.985   3.992  0.2947  0.3666  0.1093
  476poe    c23 2248   0.998   1.067   3.878  0.4727  0.5737  0.3518
  476poe     o2 2249   1.017   0.984   3.765  0.6397  0.4373  0.4788
  476poe    c23 2250   1.055   1.048   3.645  0.7404  0.1097  0.3356
  476poe    c23 2251   1.053   0.950   3.526 -0.5296  0.1972  0.2816
  476poe     o2 2252   0.922   0.903   3.503 -0.4343  0.0605  0.0138
  476poe    c23 2253   0.901   0.829   3.385  0.5841 -0.8340  0.3817
  476poe    c23 2254   0.777   0.876   3.307  0.5747 -0.5769  0.5511
  476poe     o2 2255   0.655   0.879   3.377  0.2866  0.8447  0.0358
  476poe    c31 2256   0.568   0.962   3.303  0.7765  0.7686 -0.6362
  477poe    c31 2257   1.531   0.064   5.419  0.5280 -0.3036 -0.7122
  477poe     o2 2258   1.672   0.067   5.429  0.4636 -0.3367  0.2876
  477poe    c23 2259   1.717   0.137   5.316  0.5433 -0.2170  0.3946
  477poe    c23 2260   1.790   0.054   5.209  0.2751  0.0325  0.0150
  477poe     o2 2261   1.916   0.003   5.247  0.0716 -0.1984  0.3815
  477poe    c23 2262   1.978  -0.049   5.131 -0.2130 -0.1739  0.2180
  477poe    c23 2263   1.990  -0.199   5.166  0.6302 -0.0077  0.6571
  477poe     o2 2264   1.873  -0.267   5.206  0.3298  0.2382  0.1992
  477poe    c23 2265   1.880  -0.406   5.229  0.0494  0.2700  0.4833
  477poe    c23 2266   1.925  -0.475   5.359 -0.2319 -0.6773  0.0880
  477poe     o2 2267   1.877  -0.408   5.473 -0.0861  0.0085 -0.2475
  477poe    c31 2268   1.897  -0.481   5.591 -0.2337  0.4059  0.0281
  478poe    c31 2269   1.399   0.587   0.315 -0.8169  0.1207 -0.2595
  478poe     o2 2270   1.291   0.549   0.232 -0.6436 -0.3822 -0.2586
  478poe    c23 2271   1.208   0.661   0.209  0.0819  0.3109  0.4448
  478poe    c23 2272   1.067   0.621   0.162 -0.0407  0.9117  0.2925
  478poe     o2 2273   1.001   0.551   0.266 -0.1541  0.7305  0.0992
  478poe    c23 2274   0.865   0.539   0.231  0.0195 -0.2523 -0.2610
  478poe    c23 2275   0.771   0.476   0.336 -0.3340 -0.4573 -0.6984
  478poe     o2 2276   0.762   0.337   0.313  0.4183 -0.5749 -0.3065
  478poe    c23 2277   0.689   0.287   0.423 -0.5318 -0.1961 -0.7489
  478poe    c23 2278   0.640   0.141   0.414 -0.0217 -0.3907 -0.4239
  478poe     o2 2279   0.744   0.050   0.386  0.1682 -0.1382 -0.5503
  478poe    c31 2280   0.702  -0.083   0.407  0.1577 -0.1053 -0.3557
  479poe    c31 2281   0.489   0.806   2.050  0.0740  0.1575 -0.1568
  479poe     o2 2282   0.397   0.791   1.944 -0.0303  0.3576 -0.0961
  479poe    c23 2283   0.269   0.753   1.989 -0.0470  0.0525 -0.3956
  479poe    c23 2284   0.225   0.605   1.989 -0.2908  0.1229  0.0727
  479poe     o2 2285   0.216   0.547   1.861 -0.0253  0.3299 -0.0405
  479poe    c23 2286   0.099   0.590   1.796 -0.1308 -0.0153 -0.0793
  479poe    c23 2287   0.086   0.551   1.648  1.2641 -0.1835 -0.1650
  479poe     o2 2288   0.192   0.603   1.570  0.4177  0.4494 -0.9209
  479poe    c23 2289   0.138   0.634   1.444 -0.7224 -0.7043 -0.7458
  479poe    c23 2290   0.195   0.758   1.372 -0.3465 -0.0670  0.6090
  479poe     o2 2291   0.094   0.830   1.305 -0.0817 -0.2793 -0.0273
  479poe    c31 2292   0.077   0.799   1.168  0.0743  0.0657 -0.1272
  480poe    c31 2293   1.720   0.796   0.480  0.3648  0.2594  1.0104
  480poe     o2 2294   1.674   0.665   0.502 -0.0697  0.2065 -0.1174
  480poe    c23 2295   1.778   0.570   0.498 -0.2141  0.0428 -0.0256
  480poe    c23 2296   1.764   0.469   0.612 -0.1318  0.2253  0.1467
  480poe     o2 2297   1.802   0.510   0.742  0.4355  0.0069  0.0531
  480poe    c23 2298   1.774   0.421   0.847  0.2452  0.2149  0.1804
  480poe    c23 2299   1.728   0.510   0.964 -0.0515 -0.2947  0.4529
  480poe     o2 2300   1.589   0.520   0.980 -0.1467 -0.1151 -0.4912
  480poe    c23 2301   1.565   0.613   1.084  0.2716 -0.5793  0.0218
  480poe    c23 2302   1.423   0.593   1.140  0.2386 -0.2821  0.0423
  480poe     o2 2303   1.318   0.582   1.046 -0.1093  0.4828  0.3297
  480poe    c31 2304   1.241   0.470   1.084  0.3939 -0.1120 -0.3716
  481poe    c31 2305   0.426   1.942   3.145 -0.0947 -0.4147  0.4710
  481poe     o2 2306   0.317   1.852   3.149 -0.5035  0.0480 -0.0205
  481poe    c23 2307   0.338   1.735   3.072 -0.0338 -0.1441  0.3924
  481poe    c23 2308   0.199   1.680   3.036  0.2237 -0.4095 -0.2149
  481poe     o2 2309   0.126   1.688   3.157  0.0013 -0.2165 -0.3611
  481poe    c23 2310  -0.011   1.676   3.124 -0.0761 -0.6503  0.1078
  481poe    c23 2311  -0.101   1.701   3.246 -0.0452  0.3326 -0.0670
  481poe     o2 2312  -0.071   1.820   3.316  0.1151  0.0566  0.3393
  481poe    c23 2313  -0.163   1.866   3.411  0.0164 -0.1163  0.3269
  481poe    c23 2314  -0.117   1.992   3.486 -0.1896  0.0227  0.2207
  481poe     o2 2315  -0.073   2.096   3.401 -0.4543 -0.3042 -0.3207
  481poe    c31 2316  -0.061   2.215   3.476  0.3071  0.0704 -1.0187
  482poe    c31 2317   1.092   1.685   2.195  0.2687 -0.2441  0.0381
  482poe     o2 2318   1.130   1.587   2.289  0.3314 -0.2549  0.0018
  482poe    c23 2319   1.011   1.535   2.342  0.6491 -0.6005  0.3814
  482poe    c23 2320   1.007   1.497   2.492 -0.2615  0.2657  0.5891
  482poe     o2 2321   1.039   1.604   2.578  0.0302  1.0021 -0.4163
  482poe    c23 2322   1.012   1.583   2.715 -0.3836  0.6093 -0.5520
  482poe    c23 2323   0.967   1.709   2.791 -0.1973  0.2220  0.2077
  482poe     o2 2324   0.828   1.729   2.784 -0.2659 -0.2808  0.0901
  482poe    c23 2325   0.771   1.764   2.660  0.5793 -0.6868 -0.4197
  482poe    c23 2326   0.620   1.796   2.660  0.7064 -0.0686 -0.0333
  482poe     o2 2327   0.599   1.913   2.736 -0.4242 -0.1838 -0.1473
  482poe    c31 2328   0.469   1.959   2.708 -0.2939  0.0643 -0.3505
  483poe    c31 2329   0.385   1.590   1.842  0.4930 -0.0737 -0.0044
  483poe     o2 2330   0.249   1.605   1.808  0.5264  0.1668 -0.0360
  483poe    c23 2331   0.224   1.722   1.735 -0.0353 -0.1501 -0.3585
  483poe    c23 2332   0.073   1.749   1.718 -0.1897 -0.8428 -0.1113
  483poe     o2 2333   0.028   1.777   1.849 -0.6519 -0.3023 -0.3827
  483poe    c23 2334  -0.110   1.805   1.853 -0.5576  0.1272 -0.1522
  483poe    c23 2335  -0.163   1.763   1.992 -0.0953  0.1300  0.0275
  483poe     o2 2336  -0.117   1.636   2.029 -0.5209 -0.0850 -0.1698
  483poe    c23 2337  -0.162   1.599   2.158  0.1606  0.2015  0.1587
  483poe    c23 2338  -0.229   1.461   2.178 -0.5096  0.4576 -0.2674
  483poe     o2 2339  -0.368   1.451   2.195 -0.4716 -0.4708 -0.4361
  483poe    c31 2340  -0.418   1.325   2.234  0.9997 -0.9483 -0.0396
  484poe    c31 2341   1.313   0.004   2.010  0.3325 -0.1723 -0.3978
  484poe     o2 2342   1.439  -0.059   2.005  0.1963 -0.4551 -0.3077
  484poe    c23 2343   1.457  -0.163   2.098 -0.5604  0.7059  1.1771
  484poe    c23 2344   1.595  -0.218   2.060 -0.8174  0.4620  0.5899
  484poe     o2 2345   1.694  -0.118   2.048 -0.0277 -0.3807 -0.1941
  484poe    c23 2346   1.821  -0.170   2.017  0.1034 -0.1523 -0.0425
  484poe    c23 2347   1.933  -0.065   2.031 -0.0857  0.0500 -0.0325
  484poe     o2 2348   1.963  -0.003   2.154 -0.0976 -0.1324  0.0633
  484poe    c23 2349   2.066   0.089   2.129  0.0463 -0.1703  0.5162
  484poe    c23 2350   2.015   0.232   2.154  0.7118  0.1074  0.3071
  484poe     o2 2351   1.971   0.261   2.285  0.2377  0.0497  0.1624
  484poe    c31 2352   1.891   0.377   2.295  0.0089 -0.0631 -0.3363
  485poe    c31 2353   1.937   2.057   0.225  0.5131 -0.3034 -0.0203
  485poe     o2 2354   1.838   1.977   0.285  0.0548 -0.3174 -0.7832
  485poe    c23 2355   1.725   1.981   0.200 -0.4474 -0.0706 -0.1153
  485poe    c23 2356   1.605   1.892   0.237  0.1189 -0.8189 -0.0529
  485poe     o2 2357   1.542   1.945   0.352  0.1501 -0.4800 -0.1914
  485poe    c23 2358   1.449   1.860   0.415  0.0068 -0.2983 -0.1579
  485poe    c23 2359   1.389   1.938   0.534  0.3091 -0.4034  0.0672
  485poe     o2 2360   1.468   1.936   0.651  0.5821 -0.1846 -0.1129
  485poe    c23 2361   1.408   2.021   0.746  0.1710  0.0080 -0.5352
  485poe    c23 2362   1.496   2.091   0.851 -0.8139  0.3227  0.0970
  485poe     o2 2363   1.597   2.173   0.796 -0.1382 -0.3024  0.3907
  485poe    c31 2364   1.664   2.251   0.893  0.5419 -0.6589  0.2172
  486poe    c31 2365   2.106   2.338   4.555  0.3392 -0.0982  0.7727
  486poe     o2 2366   2.181   2.452   4.520  0.2637 -0.1990  0.2793
  486poe    c23 2367   2.275   2.413   4.422  0.1569  0.0987  0.0568
  486poe    c23 2368   2.399   2.503   4.434  0.0502  0.2462  0.0625
  486poe     o2 2369   2.353   2.636   4.438  0.2093  0.2914  0.3925
  486poe    c23 2370   2.454   2.719   4.492  0.6056 -0.2739  0.5379
  486poe    c23 2371   2.388   2.858   4.502 -0.2213 -0.6373  0.2166
  486poe     o2 2372   2.263   2.843   4.566 -0.4396 -0.2209 -0.1086
  486poe    c23 2373   2.229   2.972   4.612 -0.4456 -0.0153 -0.6815
  486poe    c23 2374   2.141   2.958   4.738  0.4487 -0.4535 -0.0947
  486poe     o2 2375   2.040   2.862   4.722 -0.2237  0.2249  0.0067
  486poe    c31 2376   1.945   2.852   4.826 -0.4550 -0.1021 -0.2339
  487lim     li 2377   0.990   2.192   3.128  0.3963 -0.8914  0.5995
  488lim     li 2378   0.240   0.087   6.625 -0.5637  0.0263 -0.3429
  489lim     li 2379   1.581   1.056   4.925 -1.0450 -0.3166  0.2261
  490lim     li 2380   1.641   2.269   0.488 -0.0202 -0.5588 -0.4484
  491lim     li 2381   1.922   0.745   5.724 -0.6201 -0.9130  0.0472
  492lim     li 2382   1.414   1.518   2.289 -0.5009 -1.0278 -0.6783
  493lim     li 2383   1.719   0.306   3.061 -0.4517 -0.1394 -0.3859
  494lim     li 2384   0.123   0.612   3.514  0.4067  1.1520  0.5642
  495lim     li 2385   1.128   1.659   3.296 -1.1819 -0.5110 -0.6775
  496lim     li 2386   1.551   1.255   3.953 -0.0815 -0.2336  0.4167
  497lim     li 2387   1.002   0.060   0.133 -1.0455  0.0977 -0.3509
  498lim     li 2388   0.110   1.846   0.745  0.1220  0.1719 -1.1247
  499lim     li 2389   0.499   0.467   5.612 -0.5332  0.4444  0.2808
  500lim     li 2390   1.996   1.870   0.684  0.0731 -0.8193 -0.7685
  501lim     li 2391   0.750   0.906   3.796 -0.4238  0.3008 -0.2358
  502lim     li 2392   1.416   1.807   5.877 -0.5584  0.7538 -0.0238
  503lim     li 2393   0.984   0.569   6.212  0.1244  0.0735  0.0404
  504lim     li 2394   1.327   0.654   0.884 -0.3242  0.1865  0.3884
  505lim     li 2395   0.765   1.783   4.580 -0.0208 -0.2088 -0.2027
  506lim     li 2396   0.098   1.193   1.462 -0.3099  0.9218  0.3642
  507lim     li 2397   0.735   1.316   1.125 -0.7854  0.1960  0.2936
  508lim     li 2398   0.810   1.743   6.905 -0.2803  0.4914  0.0162
  509lim     li 2399   0.013   1.876   6.285 -0.9073 -0.6064 -0.6716
  510lim     li 2400   0.937   0.974   1.695 -0.6943  1.1391  0.1654
  511lim     li 2401   1.927   1.997   6.778 -0.0991 -1.3323  0.4158
  512lim     li 2402   0.313   0.851   0.637  0.1709 -0.9105 -1.2066
  513lim     li 2403   1.060   1.070   2.454 -0.5695  0.1266  0.5732
  514lim     li 2404   2.188   0.110   4.550  0.1615  0.3292  0.4019
  515lim     li 2405   2.078   2.462   2.489 -0.6961 -0.2848  0.4822
  516lim     li 2406   0.544   0.138   1.334 -0.7484  0.1618 -0.2851
  517lim     li 2407   1.587   0.036   1.983  0.0706 -0.3131  0.5164
  518lim     li 2408   1.981   1.955   4.641 -0.7746 -0.2680  0.7914
  519lim     li 2409   2.141   0.604   0.177  0.6909  0.3342  0.4450
  520lim     li 2410   2.058   1.140   6.427 -0.4649  0.9887 -0.4510
  521lim     li 2411   2.515   1.480   5.637 -0.9324 -0.0550  0.1093
  522lim     li 2412   0.795   0.986   4.662  0.0523  0.4517  0.4904
  523lim     li 2413   1.993   0.597   1.360 -0.2915 -0.3026 -0.5147
  524lim     li 2414   0.160   1.839   3.255  0.9906  0.3715 -0.1081
  525lim     li 2415   1.032   2.472   5.059  0.1818 -0.3086 -0.3180
  526lim     li 2416   0.179   1.331   2.242 -0.5531  0.7752 -0.1362
  527lim     li 2417   0.777   1.858   6.432  0.2740  0.5770 -0.1113
  528lim     li 2418   1.563   1.509   1.544  0.0242 -1.1042 -0.8737
  529lim     li 2419   0.332   2.409   2.084  0.1011 -0.1346  0.8253
  530lim     li 2420   0.397   2.430   3.911 -0.4915 -1.0150 -0.3903
  531lim     li 2421   1.367   1.838   4.247 -0.3940 -0.5625  0.1340
  532lim     li 2422   1.377   2.205   1.556 -0.2026 -0.4576  0.3368
  533lim     li 2423   2.325   1.747   3.924 -0.2370 -0.1450  2.0407
  534lim     li 2424   2.286   1.240   3.033  0.9966 -0.5940 -1.8014
  535lim     li 2425   0.493   0.033   2.586 -0.8669 -0.9569 -0.2343
  536lim     li 2426   0.384   2.433   5.205 -0.7704 -0.3162  0.7729
  537lim     li 2427   0.005   0.341   5.453  1.0859 -0.6537  0.4516
  538lim     li 2428   2.459   1.177   6.865 -1.3507  0.0470 -0.2203
  539lim     li 2429   1.825   0.734   4.369 -0.4789  0.3994  0.0724
  540lim     li 2430   1.787   2.513   5.553 -0.0290 -0.1354  0.2136
  541ntf    cn1 2431   1.222   0.328   5.705  0.0875 -0.0287  0.1340
  541ntf    sn2 2432   1.130   0.223   5.588  0.1620  0.0059  0.0447
  541ntf    nn3 2433   1.057   0.132   5.693 -0.6261  0.5162 -0.0549
  541ntf    sn2 2434   0.909   0.080   5.701 -0.2948 -0.4631 -0.1095
  541ntf    cn1 2435   0.934  -0.091   5.759  0.2528 -0.4741 -0.3735
  541ntf    fn4 2436   1.294   0.426   5.653 -0.1892 -0.1893 -0.5611
  541ntf    fn4 2437   1.139   0.384   5.792 -0.0997  0.1805 -0.1782
  541ntf    fn4 2438   1.303   0.257   5.782 -0.6531  0.1739  1.1213
  541ntf    on5 2439   1.048   0.327   5.532  0.6709  0.3398 -0.0905
  541ntf    on5 2440   1.221   0.157   5.498  0.0516  0.1761 -0.1909
  541ntf    on5 2441   0.850   0.054   5.572 -0.9396  0.6461 -0.0476
  541ntf    on5 2442   0.831   0.152   5.799 -0.3489 -0.0418 -0.4621
  541ntf    fn4 2443   0.827  -0.165   5.737  0.3938 -0.7685 -0.0591
  541ntf    fn4 2444   1.036  -0.142   5.692  0.9372  0.1034  0.2259
  541ntf    fn4 2445   0.954  -0.103   5.889 -0.3947  0.0161 -0.2216
  542ntf    cn1 2446   0.362   0.548   2.415  0.1269 -0.4476 -0.4855
  542ntf    sn2 2447   0.284   0.387   2.446  0.0436 -0.3279 -0.0655
  542ntf    nn3 2448   0.133   0.418   2.414 -0.0454 -0.3028  0.3671
  542ntf    sn2 2449   0.029   0.324   2.344 -0.1104 -0.1748  0.2892
  542ntf    cn1 2450  -0.112   0.341   2.457 -0.1123 -0.1028  0.2759
  542ntf    fn4 2451   0.340   0.643   2.504  0.7670 -0.3852 -0.3878
  542ntf    fn4 2452   0.493   0.543   2.431  0.1227 -0.2474 -0.3893
  542ntf    fn4 2453   0.337   0.600   2.296 -0.2288  0.7671  0.1038
  542ntf    on5 2454   0.348   0.297   2.353 -0.5400  0.1976 -0.9994
  542ntf    on5 2455   0.312   0.362   2.585 -0.0384 -0.3747 -0.0576
  542ntf    on5 2456   0.061   0.183   2.332 -0.5754 -0.2315 -0.3373
  542ntf    on5 2457  -0.020   0.375   2.218  0.0369 -0.1831  0.2283
  542ntf    fn4 2458  -0.165   0.220   2.466 -0.2530 -0.0792 -0.2181
  542ntf    fn4 2459  -0.078   0.365   2.582  0.2218  0.7842  0.0205
  542ntf    fn4 2460  -0.207   0.424   2.417  0.0956 -0.1241 -0.2719
  543ntf    cn1 2461   0.946   1.380   5.856  0.3444  0.1732 -0.2081
  543ntf    sn2 2462   0.863   1.345   6.014 -0.0810  0.2697 -0.4093
  543ntf    nn3 2463   0.944   1.216   6.052 -0.4671  0.3624  0.7651
  543ntf    sn2 2464   1.066   1.207   6.150 -0.2015 -0.1998  0.3852
  543ntf    cn1 2465   0.970   1.186   6.302 -0.4252 -0.0719  0.2614
  543ntf    fn4 2466   1.075   1.354   5.862  0.3181  0.1874  0.4360
  543ntf    fn4 2467   0.894   1.314   5.754  0.3242 -0.4616  0.2120
  543ntf    fn4 2468   0.933   1.512   5.848 -0.0933  0.1293 -0.2478
  543ntf    on5 2469   0.891   1.458   6.099  0.4782 -0.2681  0.1293
  543ntf    on5 2470   0.723   1.322   5.985 -0.0925 -0.7642  0.4231
  543ntf    on5 2471   1.154   1.321   6.164 -0.1383 -0.2531  0.4218
  543ntf    on5 2472   1.124   1.075   6.145  0.0299 -0.0977  0.3550
  543ntf    fn4 2473   0.886   1.283   6.334 -0.1527  0.3206 -0.2040
  543ntf    fn4 2474   0.906   1.071   6.288 -0.2859 -0.1360  0.1551
  543ntf    fn4 2475   1.048   1.183   6.410  0.1908 -0.0818 -0.1795
  544ntf    cn1 2476   0.013   1.246   3.874  0.3092 -0.2118  0.2123
  544ntf    sn2 2477   0.133   1.352   3.789  0.1385 -0.0334  0.1921
  544ntf    nn3 2478   0.093   1.331   3.638 -0.1297 -0.5150  0.3274
  544ntf    sn2 2479   0.156   1.229   3.536  0.2920  0.1836 -0.1232
  544ntf    cn1 2480   0.302   1.325   3.488  0.5803 -0.0061  0.3680
  544ntf    fn4 2481  -0.014   1.271   4.001  0.1228 -0.1301  0.1566
  544ntf    fn4 2482  -0.107   1.247   3.817  0.3918  0.1185  0.0421
  544ntf    fn4 2483   0.039   1.117   3.860 -1.0190 -0.4770 -0.0005
  544ntf    on5 2484   0.097   1.485   3.829 -0.5698  0.0697 -0.7422
  544ntf    on5 2485   0.257   1.291   3.831  0.1331  0.4243  0.8734
  544ntf    on5 2486   0.074   1.229   3.417 -0.2488  0.6359  0.2420
  544ntf    on5 2487   0.195   1.100   3.588 -0.0098 -0.0413 -0.4488
  544ntf    fn4 2488   0.280   1.412   3.391 -0.3436 -0.1034  0.4790
  544ntf    fn4 2489   0.369   1.387   3.584  0.7300 -0.0608  0.3000
  544ntf    fn4 2490   0.394   1.245   3.436  0.0686 -0.2284 -0.1981
  545ntf    cn1 2491   2.178   1.224   3.981  0.0695  0.3265  0.1569
  545ntf    sn2 2492   2.032   1.284   4.069 -0.0238  0.2222  0.0730
  545ntf    nn3 2493   2.074   1.268   4.220  0.0071 -0.1030  0.0302
  545ntf    sn2 2494   2.002   1.339   4.339 -0.0700  0.1302 -0.1545
  545ntf    cn1 2495   2.132   1.326   4.466  0.0008  0.0257 -0.2377
  545ntf    fn4 2496   2.271   1.318   3.968 -0.3239  0.6625 -0.2758
  545ntf    fn4 2497   2.227   1.116   4.040  0.0346  0.0328 -0.3392
  545ntf    fn4 2498   2.142   1.182   3.860  0.0848 -0.3184  0.3735
  545ntf    on5 2499   2.012   1.420   4.026 -0.9663  0.2364  0.5130
  545ntf    on5 2500   1.927   1.195   4.026 -0.0349  0.0688  0.4119
  545ntf    on5 2501   1.893   1.263   4.395 -0.3999  0.0466 -0.9048
  545ntf    on5 2502   1.967   1.477   4.316  0.3768  0.2204 -0.2976
  545ntf    fn4 2503   2.190   1.208   4.473  0.0553  0.0431 -0.3879
  545ntf    fn4 2504   2.221   1.420   4.439  0.1343 -0.0199  0.0403
  545ntf    fn4 2505   2.090   1.350   4.589  0.0282 -0.3774 -0.1476
  546ntf    cn1 2506   1.214   1.332   4.836  0.2640 -0.1830  0.0464
  546ntf    sn2 2507   1.310   1.406   4.701 -0.1131 -0.0209 -0.1353
  546ntf    nn3 2508   1.356   1.281   4.618 -0.1649 -0.0159 -0.1711
  546ntf    sn2 2509   1.394   1.269   4.466  0.3506 -0.2199 -0.0250
  546ntf    cn1 2510   1.235   1.205   4.407  0.1162  0.2282  0.1167
  546ntf    fn4 2511   1.141   1.418   4.906 -0.3086 -0.2795 -0.4148
  546ntf    fn4 2512   1.138   1.236   4.784  0.1993  0.1982 -0.5793
  546ntf    fn4 2513   1.289   1.280   4.931 -0.3224  0.1457  0.6991
  546ntf    on5 2514   1.217   1.488   4.628  0.5512  0.3167 -0.6131
  546ntf    on5 2515   1.423   1.478   4.754  0.4893 -0.5674 -0.6664
  546ntf    on5 2516   1.484   1.161   4.432  0.3198 -0.3032  0.1537
  546ntf    on5 2517   1.411   1.391   4.391  0.6689  0.0355  0.4501
  546ntf    fn4 2518   1.252   1.118   4.309  0.3454  0.2926  0.0995
  546ntf    fn4 2519   1.179   1.121   4.494  0.5202 -0.5027 -0.3177
  546ntf    fn4 2520   1.137   1.284   4.368 -0.0812  0.0766  0.3001
  547ntf    cn1 2521   0.760   1.314   0.156  0.3134  0.1293 -0.0443
  547ntf    sn2 2522   0.836   1.274  -0.005  0.3047 -0.0025 -0.0157
  547ntf    nn3 2523   0.873   1.122   0.009 -0.1907 -0.0695  0.6114
  547ntf    sn2 2524   0.882   1.015  -0.105  0.1191  0.1341  0.4441
  547ntf    cn1 2525   1.062   0.995  -0.121  0.0293 -0.2974 -0.0252
  547ntf    fn4 2526   0.716   1.439   0.157  0.1549  0.0789 -0.5554
  547ntf    fn4 2527   0.662   1.234   0.192  0.0825  0.2696 -0.3543
  547ntf    fn4 2528   0.854   1.308   0.249  0.3812 -0.5980 -0.1518
  547ntf    on5 2529   0.738   1.307  -0.105  0.5148  0.1823 -0.1611
  547ntf    on5 2530   0.953   1.357   0.006  0.3089 -0.0943  0.6890
  547ntf    on5 2531   0.826   1.059  -0.230 -0.4629 -0.3399  0.5348
  547ntf    on5 2532   0.843   0.887  -0.051  0.4293 -0.2029 -0.1169
  547ntf    fn4 2533   1.120   0.968  -0.005 -0.5239  0.0997  0.3469
  547ntf    fn4 2534   1.093   0.892  -0.199  0.2320  0.0563 -0.4205
  547ntf    fn4 2535   1.116   1.103  -0.175  0.0059 -0.3611 -0.1783
  548ntf    cn1 2536   1.647   0.596   6.797 -0.0227 -0.0061  0.0994
  548ntf    sn2 2537   1.636   0.515   6.959  0.0095  0.0667  0.1370
  548ntf    nn3 2538   1.634   0.366   6.910 -0.0639  0.0413  0.2173
  548ntf    sn2 2539   1.522   0.255   6.912  0.1425 -0.1691  0.1020
  548ntf    cn1 2540   1.570   0.141   6.779 -0.0477 -0.0977 -0.0279
  548ntf    fn4 2541   1.533   0.599   6.729  0.1696 -0.5653 -0.2506
  548ntf    fn4 2542   1.690   0.720   6.812  0.0316  0.0247 -0.2893
  548ntf    fn4 2543   1.739   0.533   6.726  0.5063  0.7675  0.0917
  548ntf    on5 2544   1.766   0.552   7.010 -0.0604  0.4802  0.0220
  548ntf    on5 2545   1.515   0.569   7.016 -0.2583  0.2288 -0.5773
  548ntf    on5 2546   1.389   0.289   6.868  0.1322 -0.4058 -0.0514
  548ntf    on5 2547   1.545   0.186   7.036  0.1327 -0.0370  0.1785
  548ntf    fn4 2548   1.466   0.078   6.727  0.0605 -0.0238 -0.3360
  548ntf    fn4 2549   1.614   0.210   6.675 -0.1533 -0.2525 -0.1757
  548ntf    fn4 2550   1.665   0.055   6.812  0.1055  0.0673 -0.0378
  549ntf    cn1 2551   0.138   0.615   4.637 -0.0623 -0.2421  0.0841
  549ntf    sn2 2552   0.214   0.619   4.803  0.0138 -0.1050  0.0464
  549ntf    nn3 2553   0.173   0.482   4.869  0.3603  0.0167  0.5122
  549ntf    sn2 2554   0.047   0.446   4.955  0.0401  0.3644  0.1942
  549ntf    cn1 2555   0.035   0.271   4.906 -0.0300  0.3060  0.4192
  549ntf    fn4 2556   0.182   0.531   4.545  0.2147 -0.1503  0.1309
  549ntf    fn4 2557   0.009   0.585   4.640 -0.2152  0.3683 -0.2625
  549ntf    fn4 2558   0.148   0.732   4.575 -0.3708 -0.1960  0.1218
  549ntf    on5 2559   0.355   0.619   4.774 -0.0360 -0.0574 -0.1991
  549ntf    on5 2560   0.151   0.734   4.864  0.1660  0.1780 -0.3268
  549ntf    on5 2561  -0.079   0.489   4.900 -0.1394 -0.1682  0.1801
  549ntf    on5 2562   0.071   0.431   5.096  0.1297 -0.5416  0.0947
  549ntf    fn4 2563   0.137   0.196   4.946 -0.0056 -0.0409 -0.2827
  549ntf    fn4 2564  -0.077   0.222   4.957  0.3563 -0.0278  0.9636
  549ntf    fn4 2565   0.038   0.263   4.774 -0.0886 -0.0791  0.4401
  550ntf    cn1 2566   0.229   2.347   0.049 -0.2802  0.0781  0.0260
  550ntf    sn2 2567   0.326   2.400   0.193  0.0458  0.2769 -0.2647
  550ntf    nn3 2568   0.234   2.520   0.234 -0.1409  0.0353  0.0273
  550ntf    sn2 2569   0.122   2.539   0.342  0.1650 -0.1992  0.3853
  550ntf    cn1 2570   0.225   2.609   0.474  0.0095  0.1284  0.3323
  550ntf    fn4 2571   0.121   2.280   0.083 -0.1987  0.3862  0.9286
  550ntf    fn4 2572   0.199   2.444  -0.037  0.4501  0.0633 -0.2565
  550ntf    fn4 2573   0.303   2.259  -0.017 -0.3343  0.1079 -0.0747
  550ntf    on5 2574   0.318   2.290   0.286  0.1376  0.2182 -0.3259
  550ntf    on5 2575   0.449   2.445   0.132  0.2108  0.5178  0.2418
  550ntf    on5 2576   0.070   2.416   0.398 -0.1370 -0.2465  0.0058
  550ntf    on5 2577   0.029   2.645   0.313 -0.3190 -0.4736  0.8945
  550ntf    fn4 2578   0.356   2.611   0.453 -0.0474 -0.0548 -0.0451
  550ntf    fn4 2579   0.184   2.734   0.489 -0.3940  0.1499 -0.8711
  550ntf    fn4 2580   0.207   2.552   0.592 -0.0276  0.1309  0.3279
  551ntf    cn1 2581   0.812   1.834   1.167  0.0876  0.1113  0.2067
  551ntf    sn2 2582   0.642   1.814   1.226  0.0552 -0.3665 -0.0412
  551ntf    nn3 2583   0.678   1.879   1.364  0.1606 -0.0297 -0.2242
  551ntf    sn2 2584   0.715   1.806   1.499  0.2418  0.3614 -0.0341
  551ntf    cn1 2585   0.584   1.849   1.617  0.1137 -0.1887  0.0243
  551ntf    fn4 2586   0.842   1.763   1.059 -0.3754  0.1746  0.0348
  551ntf    fn4 2587   0.840   1.959   1.132  0.1447 -0.1831 -0.8516
  551ntf    fn4 2588   0.905   1.803   1.256  0.2950 -0.0908 -0.0787
  551ntf    on5 2589   0.546   1.886   1.146 -0.1034 -0.1224  0.3657
  551ntf    on5 2590   0.620   1.672   1.232  0.4685 -0.3912  0.9308
  551ntf    on5 2591   0.834   1.862   1.556  0.1607  0.7455 -0.2355
  551ntf    on5 2592   0.700   1.663   1.511 -0.7609  0.4474 -0.1134
  551ntf    fn4 2593   0.599   1.974   1.659  0.1781 -0.2177  0.0878
  551ntf    fn4 2594   0.462   1.838   1.566  0.1823 -0.4695 -0.0817
  551ntf    fn4 2595   0.575   1.775   1.727  0.1254 -0.4544 -0.1544
  552ntf    cn1 2596   0.695   1.039   2.883  0.0545  0.1316 -0.2354
  552ntf    sn2 2597   0.798   1.189   2.894  0.3129 -0.0750  0.2014
  552ntf    nn3 2598   0.852   1.165   3.039 -0.2307 -0.7806  0.2948
  552ntf    sn2 2599   0.965   1.229   3.128 -0.2456 -0.0233 -0.2241
  552ntf    cn1 2600   0.864   1.337   3.234 -0.0167  0.1516 -0.1820
  552ntf    fn4 2601   0.646   1.018   2.762  0.2571  0.0546 -0.3049
  552ntf    fn4 2602   0.763   0.930   2.915 -0.2691  0.0148  0.0565
  552ntf    fn4 2603   0.590   1.047   2.963  0.1601 -0.2378 -0.0589
  552ntf    on5 2604   0.884   1.177   2.780  0.1073  0.3979 -0.0051
  552ntf    on5 2605   0.699   1.293   2.884  0.0656 -0.3588 -0.3181
  552ntf    on5 2606   1.056   1.314   3.055  0.0873  0.1021  0.3286
  552ntf    on5 2607   1.020   1.136   3.224  0.4815  1.0260  0.4100
  552ntf    fn4 2608   0.945   1.405   3.313  0.5657 -0.5579 -0.1553
  552ntf    fn4 2609   0.787   1.418   3.164  0.0771  0.3738 -0.0287
  552ntf    fn4 2610   0.781   1.261   3.304  0.1720  0.3915  0.3089
  553ntf    cn1 2611   0.122   1.890   6.877  0.4412  0.0174 -0.0789
  553ntf    sn2 2612  -0.021   1.906   6.988  0.5763 -0.5614  0.1814
  553ntf    nn3 2613  -0.082   1.761   6.987  0.1273 -0.3784 -0.7867
  553ntf    sn2 2614  -0.176   1.687   7.089  0.1607  0.2438 -0.3017
  553ntf    cn1 2615  -0.316   1.673   6.975 -0.0831 -0.2580  0.0579
  553ntf    fn4 2616   0.222   1.974   6.896  0.2670  0.2610 -0.2308
  553ntf    fn4 2617   0.172   1.768   6.894  0.0783 -0.1004  0.1575
  553ntf    fn4 2618   0.090   1.896   6.748  0.1242  0.1306  0.0043
  553ntf    on5 2619   0.039   1.945   7.113 -0.0586 -0.7745  0.5564
  553ntf    on5 2620  -0.104   2.003   6.921  0.2335 -0.7151  0.3784
  553ntf    on5 2621  -0.219   1.754   7.210  0.3685  0.0482 -0.1181
  553ntf    on5 2622  -0.134   1.551   7.108 -0.1028  0.2142  0.0715
  553ntf    fn4 2623  -0.434   1.666   7.034  0.0156  0.1766  0.3106
  553ntf    fn4 2624  -0.318   1.784   6.903 -0.1458 -0.3544 -0.0911
  553ntf    fn4 2625  -0.305   1.577   6.884  0.1494 -0.0095 -0.1781
  554ntf    cn1 2626   2.489   0.507   4.095 -0.3626 -0.0201  0.2134
  554ntf    sn2 2627   2.473   0.382   3.964 -0.0508  0.0784  0.0792
  554ntf    nn3 2628   2.323   0.341   3.983  0.0197 -0.2708 -0.1211
  554ntf    sn2 2629   2.261   0.200   4.017 -0.2131 -0.2139 -0.3043
  554ntf    cn1 2630   2.113   0.234   4.117  0.1382 -0.1467  0.1969
  554ntf    fn4 2631   2.427   0.621   4.071  0.1393  0.2005 -0.0610
  554ntf    fn4 2632   2.431   0.464   4.206 -0.1343 -0.4412  0.1739
  554ntf    fn4 2633   2.614   0.537   4.127 -0.3406  0.2232 -0.0987
  554ntf    on5 2634   2.509   0.447   3.840  0.0772 -0.2450 -0.0540
  554ntf    on5 2635   2.568   0.286   4.013  0.4797  0.4001 -0.2982
  554ntf    on5 2636   2.341   0.129   4.114 -0.1997 -0.6099 -0.6036
  554ntf    on5 2637   2.219   0.120   3.905 -0.1915 -0.5231 -0.0920
  554ntf    fn4 2638   2.049   0.119   4.126 -0.0644 -0.0455  0.0458
  554ntf    fn4 2639   2.143   0.265   4.242  0.1077  0.0447  0.1570
  554ntf    fn4 2640   2.026   0.320   4.067 -0.2476 -0.3283  0.5468
  555ntf    cn1 2641   2.085   0.549   5.148  0.7695 -0.3328 -0.1050
  555ntf    sn2 2642   1.935   0.484   5.226  0.5126  0.3386 -0.0313
  555ntf    nn3 2643   1.822   0.493   5.118  0.1749  0.1320  0.2991
  555ntf    sn2 2644   1.734   0.612   5.068 -0.1352 -0.1552  0.1551
  555ntf    cn1 2645   1.590   0.579   5.174 -0.3138  0.4179  0.0987
  555ntf    fn4 2646   2.058   0.666   5.093  0.7571 -0.3529 -0.1423
  555ntf    fn4 2647   2.193   0.561   5.224  0.5062  0.0187  0.2136
  555ntf    fn4 2648   2.121   0.473   5.046  1.0117 -0.1158 -0.1840
  555ntf    on5 2649   1.972   0.346   5.246 -0.0700  0.1201 -0.4273
  555ntf    on5 2650   1.911   0.562   5.345  0.0471  0.1603 -0.0051
  555ntf    on5 2651   1.683   0.586   4.935 -0.1001 -0.3662  0.1831
  555ntf    on5 2652   1.775   0.745   5.108  0.1525 -0.1538 -0.1332
  555ntf    fn4 2653   1.528   0.463   5.158 -0.2137  0.3508  0.1926
  555ntf    fn4 2654   1.626   0.577   5.301  0.2865  0.2140 -0.0708
  555ntf    fn4 2655   1.497   0.671   5.158 -0.3562  0.4346  0.4363
  556ntf    cn1 2656   2.255   2.175   5.750 -0.4246  0.1323  0.2474
  556ntf    sn2 2657   2.252   2.316   5.635  0.0546 -0.0514  0.0075
  556ntf    nn3 2658   2.351   2.271   5.522  0.0977 -0.0574  0.0488
  556ntf    sn2 2659   2.330   2.301   5.370  0.1192 -0.0905  0.0385
  556ntf    cn1 2660   2.507   2.292   5.330  0.1531  0.0808  0.1471
  556ntf    fn4 2661   2.379   2.144   5.785 -0.7105 -0.3301  0.8707
  556ntf    fn4 2662   2.189   2.191   5.864  0.1821  0.2577  0.5853
  556ntf    fn4 2663   2.207   2.066   5.691 -0.2210  0.2937 -0.2177
  556ntf    on5 2664   2.115   2.326   5.591 -0.0744 -0.3796  0.3270
  556ntf    on5 2665   2.299   2.426   5.716  0.0892 -0.0623  0.0033
  556ntf    on5 2666   2.303   2.435   5.322 -1.2388 -0.2988  0.1888
  556ntf    on5 2667   2.278   2.189   5.296 -0.0734 -0.1223  0.2238
  556ntf    fn4 2668   2.567   2.180   5.368  0.5563  0.1769 -0.1945
  556ntf    fn4 2669   2.536   2.293   5.201 -0.1332  0.0000  0.0804
  556ntf    fn4 2670   2.570   2.391   5.391  0.4450 -0.0455  0.0526
  557ntf    cn1 2671   2.188   1.303   6.027  0.0876 -0.2511 -0.2889
  557ntf    sn2 2672   2.332   1.192   6.042 -0.2573 -0.6799 -0.1068
  557ntf    nn3 2673   2.354   1.188   6.197 -0.1645 -0.0933 -0.1016
  557ntf    sn2 2674   2.460   1.269   6.279 -0.1352 -0.2560  0.0224
  557ntf    cn1 2675   2.596   1.148   6.282  0.1676  0.0716 -0.4092
  557ntf    fn4 2676   2.213   1.425   6.070  0.6980 -0.5060  0.1002
  557ntf    fn4 2677   2.142   1.324   5.905  0.6226  1.1334 -0.2651
  557ntf    fn4 2678   2.084   1.264   6.099 -0.0938  0.6053 -0.0839
  557ntf    on5 2679   2.291   1.067   5.984  0.2270 -0.6493 -0.5243
  557ntf    on5 2680   2.432   1.258   5.962 -0.7525 -0.0896 -0.2492
  557ntf    on5 2681   2.422   1.259   6.418 -0.7195  0.3339 -0.0881
  557ntf    on5 2682   2.510   1.394   6.227 -0.4417 -0.4298 -0.6927
  557ntf    fn4 2683   2.569   1.044   6.359 -0.1236  0.5473  0.1401
  557ntf    fn4 2684   2.619   1.099   6.161 -0.0047 -0.1414 -0.3554
  557ntf    fn4 2685   2.701   1.201   6.343 -0.2779  0.0625  0.3811
  558ntf    cn1 2686   0.805   1.982   1.964  0.4730 -0.2015 -0.2510
  558ntf    sn2 2687   0.800   2.163   1.978 -0.0789 -0.2186 -0.2017
  558ntf    nn3 2688   0.890   2.183   2.104 -0.2393  0.3499 -0.1769
  558ntf    sn2 2689   0.994   2.299   2.130 -0.1554  0.2320  0.0173
  558ntf    cn1 2690   0.963   2.320   2.308 -0.1716  0.0923  0.0314
  558ntf    fn4 2691   0.775   1.926   2.080  0.2997 -0.0373 -0.2173
  558ntf    fn4 2692   0.696   1.954   1.894  0.2669 -0.2127  0.0708
  558ntf    fn4 2693   0.909   1.930   1.901  0.0754 -0.4379 -0.7209
  558ntf    on5 2694   0.867   2.205   1.857  0.2977 -0.1762  0.0185
  558ntf    on5 2695   0.662   2.202   1.994 -0.2552 -0.7859 -0.3017
  558ntf    on5 2696   0.955   2.428   2.080  0.6199  0.4189 -0.1145
  558ntf    on5 2697   1.133   2.259   2.130 -0.2297 -0.0492  0.9683
  558ntf    fn4 2698   0.843   2.372   2.323 -0.2296 -0.0522  0.0661
  558ntf    fn4 2699   0.967   2.212   2.385  0.1678 -0.0342 -0.1572
  558ntf    fn4 2700   1.047   2.412   2.351 -0.2488  0.5496 -0.7786
  559ntf    cn1 2701   0.413   2.419   6.113 -0.0548  0.1818  0.1106
  559ntf    sn2 2702   0.291   2.409   5.978  0.0584  0.2047  0.0069
  559ntf    nn3 2703   0.186   2.514   6.030 -0.3242 -0.0190 -0.3139
  559ntf    sn2 2704   0.037   2.497   6.075 -0.2925  0.2370 -0.1175
  559ntf    cn1 2705   0.039   2.617   6.212 -0.0805  0.1750 -0.0654
  559ntf    fn4 2706   0.424   2.542   6.160 -0.3132  0.2215  0.0719
  559ntf    fn4 2707   0.371   2.341   6.212  0.9311  0.0290  0.4231
  559ntf    fn4 2708   0.533   2.374   6.082 -0.1669 -0.2434  0.2863
  559ntf    on5 2709   0.363   2.451   5.860  0.2475  0.1185  0.0902
  559ntf    on5 2710   0.243   2.273   5.982 -0.1963  0.2933 -0.0907
  559ntf    on5 2711  -0.007   2.372   6.131 -0.4114 -0.0935 -0.9366
  559ntf    on5 2712  -0.050   2.553   5.975 -0.4298 -0.0032 -0.1318
  559ntf    fn4 2713   0.131   2.589   6.303 -0.1745  0.4675  0.1202
  559ntf    fn4 2714   0.069   2.740   6.172  0.6046  0.1459  0.3436
  559ntf    fn4 2715  -0.076   2.624   6.277 -0.0833 -0.2873 -0.0179
  560ntf    cn1 2716   2.226   0.829   0.784  0.2491 -0.3141 -0.2592
  560ntf    sn2 2717   2.198   0.897   0.617  0.4016  0.0863 -0.1234
  560ntf    nn3 2718   2.265   1.038   0.633 -0.3210  0.3927  0.2514
  560ntf    sn2 2719   2.205   1.177   0.591  0.3547  0.6410  0.0984
  560ntf    cn1 2720   2.126   1.243   0.740 -0.1339 -0.1133  0.1801
  560ntf    fn4 2721   2.131   0.746   0.823 -0.3446  0.3060 -0.3683
  560ntf    fn4 2722   2.341   0.765   0.794  0.0715 -0.6770 -0.5035
  560ntf    fn4 2723   2.220   0.922   0.878  0.4511 -0.5401 -0.0215
  560ntf    on5 2724   2.270   0.805   0.533 -0.0670  0.0470 -0.4862
  560ntf    on5 2725   2.055   0.900   0.600  0.3235 -0.0550  0.4751
  560ntf    on5 2726   2.103   1.184   0.489  0.3842 -0.0921  0.0091
  560ntf    on5 2727   2.318   1.265   0.578  0.5632  0.3683  0.0485
  560ntf    fn4 2728   2.011   1.183   0.766 -0.1698 -0.1047  0.0383
  560ntf    fn4 2729   2.202   1.216   0.845 -0.0151 -0.1850  0.0754
  560ntf    fn4 2730   2.107   1.374   0.749  0.3024  0.0046 -0.5369
  561ntf    cn1 2731   2.365   2.132   4.064  0.1657  0.4550  0.2108
  561ntf    sn2 2732   2.440   2.066   3.912  0.3217  0.4747  0.2789
  561ntf    nn3 2733   2.594   2.062   3.945  0.3665  0.6608  0.0906
  561ntf    sn2 2734   2.706   1.991   3.860 -0.0961 -0.2641  0.2367
  561ntf    cn1 2735   2.808   1.917   3.991  0.0729 -0.0837  0.2068
  561ntf    fn4 2736   2.392   2.049   4.164 -0.0796  0.1609  0.0349
  561ntf    fn4 2737   2.405   2.252   4.103 -0.6221  0.4438  1.0872
  561ntf    fn4 2738   2.233   2.141   4.065  0.1124 -0.2345  0.0611
  561ntf    on5 2739   2.366   1.943   3.901  0.4034  0.4625 -0.1345
  561ntf    on5 2740   2.402   2.168   3.818  0.3640 -0.1726 -0.4517
  561ntf    on5 2741   2.789   2.089   3.795 -0.7610 -0.0702 -0.3385
  561ntf    on5 2742   2.667   1.878   3.781  0.0308 -0.0546 -0.1281
  561ntf    fn4 2743   2.896   1.831   3.943  0.0097  0.0204 -0.1008
  561ntf    fn4 2744   2.862   2.015   4.061  0.1264  0.1694 -0.1805
  561ntf    fn4 2745   2.737   1.842   4.073 -0.2135 -0.2923 -0.2234
  562ntf    cn1 2746   1.895   0.092   0.901 -0.6666  0.3957 -0.5415
  562ntf    sn2 2747   1.919   0.058   0.724  0.1593 -0.0504 -0.3490
  562ntf    nn3 2748   1.968   0.202   0.685 -0.3624  0.1949 -0.1174
  562ntf    sn2 2749   2.109   0.248   0.633 -0.1355 -0.3273  0.0265
  562ntf    cn1 2750   2.186   0.329   0.777 -0.0095 -0.3541 -0.0260
  562ntf    fn4 2751   1.796   0.175   0.928 -0.9030 -0.2736  0.7755
  562ntf    fn4 2752   1.869  -0.022   0.965 -0.2070  0.7039  0.2016
  562ntf    fn4 2753   2.004   0.152   0.944 -0.5131 -0.1304 -0.1781
  562ntf    on5 2754   2.016  -0.048   0.723 -0.5004 -0.6637  0.0042
  562ntf    on5 2755   1.783   0.030   0.686 -0.0003 -0.2198  0.3248
  562ntf    on5 2756   2.092   0.351   0.534 -0.4252 -0.7219 -0.3377
  562ntf    on5 2757   2.203   0.143   0.601 -0.2463 -0.4765  0.1903
  562ntf    fn4 2758   2.210   0.238   0.870  0.0183 -0.8283 -0.4860
  562ntf    fn4 2759   2.296   0.393   0.740 -0.6019  0.1096 -1.0378
  562ntf    fn4 2760   2.097   0.407   0.835 -0.0417 -0.3076 -0.1367
  563ntf    cn1 2761   1.442   0.735   3.958 -0.2728  0.0960  0.0647
  563ntf    sn2 2762   1.534   0.800   3.815 -0.4480  0.1107 -0.0415
  563ntf    nn3 2763   1.670   0.830   3.887 -0.5920 -0.4148  0.4628
  563ntf    sn2 2764   1.808   0.756   3.890 -0.1866  0.3157  0.2505
  563ntf    cn1 2765   1.889   0.851   3.759  0.0169 -0.2179 -0.0161
  563ntf    fn4 2766   1.323   0.686   3.929 -0.1404 -0.0450 -0.2481
  563ntf    fn4 2767   1.509   0.643   4.026 -0.4024  0.0494  0.1292
  563ntf    fn4 2768   1.417   0.831   4.045  1.0159 -0.0670  0.6383
  563ntf    on5 2769   1.533   0.696   3.715  0.2253  0.4462 -0.4059
  563ntf    on5 2770   1.459   0.919   3.781 -0.9185 -0.2063 -0.1219
  563ntf    on5 2771   1.803   0.620   3.841 -0.6824  0.3360  0.2402
  563ntf    on5 2772   1.884   0.780   4.010  0.3081  0.0753 -0.0089
  563ntf    fn4 2773   1.910   0.973   3.806 -0.1770 -0.1485 -0.1106
  563ntf    fn4 2774   2.009   0.801   3.734 -0.1770 -0.9058  0.4147
  563ntf    fn4 2775   1.837   0.862   3.638  0.0500  0.1049 -0.0035
  564ntf    cn1 2776   2.266   0.120   1.645  0.0982 -0.5113 -0.5467
  564ntf    sn2 2777   2.378   0.262   1.633 -0.3776 -0.0878 -0.0595
  564ntf    nn3 2778   2.464   0.216   1.509  0.0772  0.2774  0.1149
  564ntf    sn2 2779   2.610   0.159   1.504  0.0127  0.1314 -0.0848
  564ntf    cn1 2780   2.573  -0.009   1.446 -0.0082  0.1654 -0.1708
  564ntf    fn4 2781   2.215   0.094   1.765  0.6104 -0.0060 -0.2127
  564ntf    fn4 2782   2.165   0.133   1.561 -0.2635  0.1198 -0.0272
  564ntf    fn4 2783   2.331   0.007   1.624  0.3383 -0.5167  0.1705
  564ntf    on5 2784   2.286   0.362   1.585 -0.4636 -0.2347 -0.2018
  564ntf    on5 2785   2.444   0.283   1.759  0.2011  0.6135 -0.4701
  564ntf    on5 2786   2.677   0.148   1.630 -0.0535 -0.3408 -0.0886
  564ntf    on5 2787   2.687   0.209   1.393 -0.4486  0.0974 -0.4238
  564ntf    fn4 2788   2.680  -0.087   1.437 -0.0112  0.1522 -0.0949
  564ntf    fn4 2789   2.497  -0.070   1.537 -0.3204  0.6193 -0.1250
  564ntf    fn4 2790   2.517  -0.028   1.328 -0.1985  0.0802 -0.0683
  565ntf    cn1 2791   1.286   0.411   2.366 -0.1975 -0.5488  0.0972
  565ntf    sn2 2792   1.141   0.518   2.342  0.0730 -0.1758  0.1273
  565ntf    nn3 2793   1.051   0.422   2.258 -0.0351 -0.0298  0.0755
  565ntf    sn2 2794   1.046   0.422   2.101  0.0258 -0.1103  0.0733
  565ntf    cn1 2795   1.010   0.249   2.060  0.0487 -0.0714 -0.1136
  565ntf    fn4 2796   1.362   0.391   2.259  0.2262 -0.3915  0.3669
  565ntf    fn4 2797   1.376   0.470   2.443 -0.3520 -0.0022 -0.1375
  565ntf    fn4 2798   1.259   0.292   2.416 -0.4851 -0.3765  0.3538
  565ntf    on5 2799   1.104   0.545   2.479 -0.1152  0.3083 -0.0172
  565ntf    on5 2800   1.187   0.645   2.291 -0.4158  0.0135  0.1477
  565ntf    on5 2801   1.171   0.444   2.033 -0.3441  0.2533 -0.5057
  565ntf    on5 2802   0.928   0.492   2.054  0.1320 -0.1119 -0.1951
  565ntf    fn4 2803   1.022   0.224   1.931  0.1204 -0.4341 -0.0377
  565ntf    fn4 2804   1.087   0.159   2.118 -0.0157  0.0398  0.1463
  565ntf    fn4 2805   0.890   0.223   2.111 -0.0635  0.5258 -0.0662
  566ntf    cn1 2806   1.991   1.837   1.864 -0.0612  0.1417 -0.3390
  566ntf    sn2 2807   1.871   1.942   1.953  0.0094  0.3289 -0.4652
  566ntf    nn3 2808   1.910   1.912   2.102 -0.3990  0.3863 -0.3452
  566ntf    sn2 2809   1.811   1.876   2.218  0.0622  0.3776  0.0464
  566ntf    cn1 2810   1.933   1.873   2.353  0.1680 -0.0892 -0.0553
  566ntf    fn4 2811   1.939   1.812   1.745 -0.1924  0.4724 -0.3530
  566ntf    fn4 2812   2.105   1.898   1.836 -0.1517  0.3691 -0.2211
  566ntf    fn4 2813   2.034   1.726   1.922 -0.0992  0.3251  0.0502
  566ntf    on5 2814   1.918   2.071   1.908  0.2258  0.1921 -0.6330
  566ntf    on5 2815   1.738   1.897   1.921  0.0137 -0.1442  0.1720
  566ntf    on5 2816   1.738   1.752   2.212  0.3354  0.2307 -0.2482
  566ntf    on5 2817   1.727   1.982   2.266  0.0446  0.3211  0.1420
  566ntf    fn4 2818   1.871   1.844   2.466 -0.8827  0.0631 -0.5877
  566ntf    fn4 2819   2.027   1.785   2.323  0.3696 -0.0462  0.4433
  566ntf    fn4 2820   2.007   1.983   2.360 -0.1490  0.1276 -0.0802
  567ntf    cn1 2821   2.132   2.341   6.595  0.3913 -0.6635  0.1983
  567ntf    sn2 2822   2.067   2.272   6.440  0.1463 -0.1568  0.0732
  567ntf    nn3 2823   1.996   2.397   6.377 -0.4566 -0.6600 -0.2529
  567ntf    sn2 2824   1.850   2.454   6.386 -0.2378 -0.1531  0.1619
  567ntf    cn1 2825   1.869   2.621   6.454 -0.0209 -0.2616  0.3656
  567ntf    fn4 2826   2.032   2.380   6.673  0.0768  0.2618 -0.6484
  567ntf    fn4 2827   2.202   2.254   6.666  0.5980 -0.5713  0.1079
  567ntf    fn4 2828   2.219   2.439   6.576  0.1397 -0.3874  0.4497
  567ntf    on5 2829   2.185   2.230   6.368  0.0554 -0.2974  0.0058
  567ntf    on5 2830   1.977   2.171   6.488 -0.0944  0.1708  0.3109
  567ntf    on5 2831   1.758   2.396   6.480 -1.1842 -0.0153 -0.6562
  567ntf    on5 2832   1.799   2.462   6.251  0.3662  0.5201 -0.0301
  567ntf    fn4 2833   1.756   2.665   6.506  0.1644 -0.1313  0.6612
  567ntf    fn4 2834   1.969   2.638   6.539 -0.1203 -0.6684  0.5655
  567ntf    fn4 2835   1.902   2.705   6.357  0.5144 -0.6788  0.1826
  568ntf    cn1 2836   1.750   1.020   2.509  0.2426 -0.5279 -0.1260
  568ntf    sn2 2837   1.613   1.028   2.390  0.2132 -0.2263 -0.0735
  568ntf    nn3 2838   1.605   0.874   2.362  0.5373 -0.1425 -0.6318
  568ntf    sn2 2839   1.587   0.794   2.228  0.1591 -0.1772 -0.5622
  568ntf    cn1 2840   1.751   0.803   2.149  0.3845 -0.0698 -0.0816
  568ntf    fn4 2841   1.763   1.132   2.579 -0.0193 -0.4910 -0.1367
  568ntf    fn4 2842   1.724   0.933   2.605  0.0503  0.1356  0.4308
  568ntf    fn4 2843   1.869   0.987   2.462  0.1698 -0.2561 -0.5073
  568ntf    on5 2844   1.510   1.087   2.473  0.3024  0.1193 -0.2081
  568ntf    on5 2845   1.656   1.107   2.278  0.4351 -0.2446 -0.0016
  568ntf    on5 2846   1.492   0.853   2.137  0.0281  0.2681 -0.1391
  568ntf    on5 2847   1.569   0.652   2.247 -0.2342 -0.0336  0.1513
  568ntf    fn4 2848   1.810   0.920   2.127  0.4736 -0.0360  0.3313
  568ntf    fn4 2849   1.838   0.727   2.214  0.2926 -0.3582 -0.2973
  568ntf    fn4 2850   1.748   0.750   2.028  0.0905  0.0312 -0.1198
  569ntf    cn1 2851   0.910   2.104   0.580 -0.0307  0.5522 -0.4341
  569ntf    sn2 2852   0.883   2.078   0.402  0.0077 -0.1106 -0.3456
  569ntf    nn3 2853   1.007   1.989   0.365  0.4086  0.2185  0.1890
  569ntf    sn2 2854   1.041   1.930   0.224  0.3617  0.1152  0.2202
  569ntf    cn1 2855   1.190   2.029   0.191  0.2690 -0.0013 -0.5620
  569ntf    fn4 2856   1.030   2.156   0.598  0.1893 -0.0101 -0.2561
  569ntf    fn4 2857   0.819   2.177   0.643 -0.4868 -0.0442 -0.3889
  569ntf    fn4 2858   0.909   1.991   0.649  0.7105  0.6369 -0.2796
  569ntf    on5 2859   0.754   2.013   0.405 -0.5349  0.9401 -0.2461
  569ntf    on5 2860   0.895   2.206   0.338 -0.6587  0.3855  0.4935
  569ntf    on5 2861   0.960   1.975   0.113  0.6621  0.5164  0.1619
  569ntf    on5 2862   1.080   1.791   0.224 -0.0407 -0.0016 -0.2537
  569ntf    fn4 2863   1.264   2.048   0.299 -0.3183 -0.1347 -0.1305
  569ntf    fn4 2864   1.260   1.967   0.097  0.6912 -0.2852 -0.0653
  569ntf    fn4 2865   1.153   2.146   0.141  0.2106  0.2238  0.0070
  570ntf    cn1 2866   1.173   0.678   4.607 -0.3483  0.2104  0.6047
  570ntf    sn2 2867   1.260   0.520   4.586 -0.1948  0.3322  0.3170
  570ntf    nn3 2868   1.230   0.484   4.436  0.3441  0.1859  0.2389
  570ntf    sn2 2869   1.278   0.365   4.345 -0.3624 -0.1782  0.3343
  570ntf    cn1 2870   1.155   0.382   4.212 -0.2819 -0.4263  0.2279
  570ntf    fn4 2871   1.229   0.776   4.538  0.0253  0.0079  0.6137
  570ntf    fn4 2872   1.048   0.675   4.564 -0.0132 -0.2906 -0.3713
  570ntf    fn4 2873   1.176   0.724   4.730 -0.3300  0.7809  0.3916
  570ntf    on5 2874   1.398   0.561   4.599 -0.0863  0.0126  0.2046
  570ntf    on5 2875   1.201   0.425   4.677 -0.0945  0.0902  0.1319
  570ntf    on5 2876   1.254   0.230   4.390 -0.5183 -0.4766 -0.6235
  570ntf    on5 2877   1.396   0.393   4.268 -0.5226  0.4140  0.2982
  570ntf    fn4 2878   1.032   0.365   4.258 -0.4144  0.3071  0.1627
  570ntf    fn4 2879   1.156   0.501   4.156  0.0055 -0.3448  0.4038
  570ntf    fn4 2880   1.167   0.300   4.109 -0.1855 -0.3997  0.2185
  571ntf    cn1 2881   1.653   1.263   5.687  0.0906  0.0514  0.1288
  571ntf    sn2 2882   1.832   1.274   5.718  0.0847  0.2763  0.0813
  571ntf    nn3 2883   1.868   1.369   5.598  0.1918 -0.0555 -0.1498
  571ntf    sn2 2884   1.854   1.524   5.584 -0.1544 -0.0453  0.3028
  571ntf    cn1 2885   2.011   1.565   5.664 -0.0426 -0.0425  0.0825
  571ntf    fn4 2886   1.629   1.205   5.571  0.1390  0.3021 -0.0064
  571ntf    fn4 2887   1.587   1.198   5.782 -0.2498  0.3369  0.0880
  571ntf    fn4 2888   1.597   1.382   5.678  0.1458  0.0632 -0.0712
  571ntf    on5 2889   1.839   1.328   5.851  0.0698 -0.6592  0.4647
  571ntf    on5 2890   1.868   1.135   5.703  0.2245  0.2221  0.8895
  571ntf    on5 2891   1.746   1.583   5.660 -0.1420 -0.5338  0.6949
  571ntf    on5 2892   1.870   1.557   5.444  0.2617  0.1200  0.3895
  571ntf    fn4 2893   2.012   1.513   5.785 -0.1079  0.2764  0.2218
  571ntf    fn4 2894   2.119   1.535   5.594  0.2158  0.1840  0.3745
  571ntf    fn4 2895   2.027   1.695   5.685 -0.1436  0.0547 -0.4184
  572ntf    cn1 2896   2.217   1.256   1.907  0.2534 -0.3246 -0.0735
  572ntf    sn2 2897   2.205   1.171   1.747  0.1174 -0.0437 -0.2144
  572ntf    nn3 2898   2.186   1.019   1.781 -0.7985  0.0617 -0.2296
  572ntf    sn2 2899   2.283   0.901   1.741 -0.2279  0.3692  0.2221
  572ntf    cn1 2900   2.318   0.825   1.902 -0.2218 -0.2623 -0.0726
  572ntf    fn4 2901   2.297   1.180   1.979  0.3995 -0.0217  0.0839
  572ntf    fn4 2902   2.279   1.372   1.891 -0.1260 -0.0560  0.3996
  572ntf    fn4 2903   2.101   1.274   1.968  0.2501 -0.6683  0.0230
  572ntf    on5 2904   2.084   1.228   1.694  0.5643  0.7383 -0.4033
  572ntf    on5 2905   2.335   1.215   1.702 -0.0112  0.5659  0.0020
  572ntf    on5 2906   2.417   0.931   1.696 -0.2724  0.0351 -0.1401
  572ntf    on5 2907   2.220   0.799   1.661 -0.1156  0.8532 -0.5004
  572ntf    fn4 2908   2.393   0.910   1.971 -0.2601  0.0398 -0.3984
  572ntf    fn4 2909   2.219   0.800   1.986 -0.2023 -0.0258  0.0215
  572ntf    fn4 2910   2.400   0.722   1.892  0.4125  0.2450 -0.1710
  573ntf    cn1 2911   0.789   1.456   3.715  0.1198  0.1236 -0.4515
  573ntf    sn2 2912   0.848   1.622   3.759  0.1465 -0.0093  0.0212
  573ntf    nn3 2913   0.972   1.580   3.845  0.2442  0.4185  0.0903
  573ntf    sn2 2914   1.121   1.630   3.856  0.3054  0.2670 -0.0503
  573ntf    cn1 2915   1.212   1.476   3.892 -0.2457 -0.0067  0.1899
  573ntf    fn4 2916   0.753   1.380   3.817  0.3515 -0.2737 -0.6606
  573ntf    fn4 2917   0.677   1.466   3.645 -0.3015 -0.3421  0.1435
  573ntf    fn4 2918   0.880   1.388   3.647 -0.2403  0.1378 -0.9603
  573ntf    on5 2919   0.865   1.691   3.633  0.0456  0.6163  0.3439
  573ntf    on5 2920   0.737   1.678   3.831  0.1602  0.9152 -0.6479
  573ntf    on5 2921   1.132   1.719   3.969  0.3228  0.4650 -0.2083
  573ntf    on5 2922   1.177   1.670   3.729 -0.0905  1.6676  0.2013
  573ntf    fn4 2923   1.338   1.506   3.918 -0.0045 -0.8952  0.0599
  573ntf    fn4 2924   1.174   1.414   4.002  0.4508  0.0348  0.4612
  573ntf    fn4 2925   1.217   1.394   3.789  0.2614  0.0080  0.1981
  574ntf    cn1 2926   2.474   2.273   4.852  0.0708 -0.0334 -0.5129
  574ntf    sn2 2927   2.644   2.285   4.789  0.2237 -0.1911 -0.1281
  574ntf    nn3 2928   2.679   2.133   4.774  0.1182 -0.1870 -0.4161
  574ntf    sn2 2929   2.797   2.037   4.815  0.1536 -0.1990 -0.5462
  574ntf    cn1 2930   2.874   2.014   4.651  0.4168 -0.1534 -0.4288
  574ntf    fn4 2931   2.466   2.233   4.978  0.1360 -0.3633 -0.6118
  574ntf    fn4 2932   2.400   2.381   4.833  0.0290  0.0681  0.2020
  574ntf    fn4 2933   2.400   2.182   4.791  0.4560 -0.5207 -0.2615
  574ntf    on5 2934   2.641   2.350   4.661 -0.6965  0.8191  0.3860
  574ntf    on5 2935   2.696   2.368   4.895  0.4887 -0.2240 -0.2313
  574ntf    on5 2936   2.753   1.904   4.849  0.2938  0.0781  0.7527
  574ntf    on5 2937   2.889   2.096   4.909 -0.3781 -0.3774  0.0912
  574ntf    fn4 2938   2.904   2.127   4.590 -0.4779  0.2783 -0.0833
  574ntf    fn4 2939   2.983   1.939   4.648  0.5806  0.0448  0.2437
  574ntf    fn4 2940   2.785   1.947   4.581  0.5898 -0.5245 -0.3006
  575ntf    cn1 2941   1.543   1.931   3.643  0.3141  0.1989 -0.2763
  575ntf    sn2 2942   1.608   2.074   3.735 -0.1574  0.2879 -0.0813
  575ntf    nn3 2943   1.713   2.123   3.630 -0.4547 -0.4969 -0.7505
  575ntf    sn2 2944   1.869   2.109   3.638 -0.4302  0.2076  0.2194
  575ntf    cn1 2945   1.885   2.038   3.471 -0.3429 -0.3065  0.4459
  575ntf    fn4 2946   1.451   1.853   3.696  0.6507 -0.3839 -0.5429
  575ntf    fn4 2947   1.485   1.968   3.531 -0.4465  0.3775  0.1721
  575ntf    fn4 2948   1.634   1.843   3.606 -0.2616 -0.5448  0.0494
  575ntf    on5 2949   1.498   2.168   3.732 -0.2327  0.2011 -0.0672
  575ntf    on5 2950   1.642   2.017   3.863 -0.5094  0.7697  0.2345
  575ntf    on5 2951   1.928   2.000   3.711 -0.0517  0.1928 -0.1060
  575ntf    on5 2952   1.941   2.233   3.627 -0.3284  0.1561  0.3063
  575ntf    fn4 2953   1.884   2.134   3.380 -0.1291 -0.5343  0.1999
  575ntf    fn4 2954   1.996   1.971   3.448 -0.0187  0.1772  0.5918
  575ntf    fn4 2955   1.783   1.960   3.436 -0.2142 -0.1970 -0.1730
  576ntf    cn1 2956   1.825   1.261   6.880 -0.3095  0.1562  0.0816
  576ntf    sn2 2957   1.993   1.330   6.866 -0.2304 -0.0766 -0.1215
  576ntf    nn3 2958   1.986   1.393   6.723  0.4752  0.3131  0.0116
  576ntf    sn2 2959   1.953   1.539   6.675 -0.2192  0.1941  0.1124
  576ntf    cn1 2960   1.817   1.518   6.557  0.1021  0.1802 -0.2574
  576ntf    fn4 2961   1.725   1.349   6.881  0.0067  0.5274 -0.3367
  576ntf    fn4 2962   1.801   1.176   6.782  0.4254  0.1475 -0.0996
  576ntf    fn4 2963   1.817   1.203   6.998  0.1299  0.0529  0.0595
  576ntf    on5 2964   2.005   1.422   6.977 -1.1339  0.0110 -0.0867
  576ntf    on5 2965   2.085   1.219   6.872 -0.0652  0.0762  0.1988
  576ntf    on5 2966   2.072   1.579   6.603 -0.1640 -0.5031 -0.1944
  576ntf    on5 2967   1.896   1.629   6.772 -0.2231  0.3374 -0.0219
  576ntf    fn4 2968   1.791   1.626   6.484  0.0848  0.3374 -0.0215
  576ntf    fn4 2969   1.845   1.421   6.472  0.8600  0.0119  0.1747
  576ntf    fn4 2970   1.705   1.482   6.618  0.4037  0.1261  0.2695
  577ntf    cn1 2971   1.341   2.414   2.529 -0.1787 -0.6927  0.0462
  577ntf    sn2 2972   1.356   2.326   2.688  0.0069 -0.1155  0.3516
  577ntf    nn3 2973   1.422   2.438   2.776  0.1148  0.1904 -0.1167
  577ntf    sn2 2974   1.379   2.498   2.914  0.3491  0.0676  0.0101
  577ntf    cn1 2975   1.250   2.609   2.849  0.1354 -0.2996 -0.1952
  577ntf    fn4 2976   1.462   2.430   2.477 -0.2978 -0.1422 -0.0671
  577ntf    fn4 2977   1.267   2.352   2.439 -0.4748  0.1148 -0.2716
  577ntf    fn4 2978   1.298   2.536   2.559  0.2523 -0.5547  0.1115
  577ntf    on5 2979   1.220   2.282   2.708 -0.1157  0.0546 -0.0890
  577ntf    on5 2980   1.453   2.222   2.661 -0.1772 -0.4402  0.9273
  577ntf    on5 2981   1.478   2.577   2.983  0.6546 -0.1145 -0.2180
  577ntf    on5 2982   1.305   2.402   2.993 -0.1567  0.0159 -0.5138
  577ntf    fn4 2983   1.158   2.534   2.790 -0.2062 -0.1526  0.1492
  577ntf    fn4 2984   1.185   2.675   2.944  0.4560  0.5448 -0.5566
  577ntf    fn4 2985   1.296   2.700   2.765 -0.0712 -0.1108 -0.1028
  578ntf    cn1 2986   0.828   1.199   5.302  0.1400 -0.1423  0.4197
  578ntf    sn2 2987   0.886   1.105   5.157 -0.0894 -0.0858  0.2896
  578ntf    nn3 2988   0.828   0.964   5.196 -0.0144 -0.1177  0.2857
  578ntf    sn2 2989   0.905   0.837   5.245  0.0146 -0.1252  0.2203
  578ntf    cn1 2990   1.014   0.789   5.107  0.1956  0.3316  0.2014
  578ntf    fn4 2991   0.727   1.278   5.267  0.0500 -0.5507 -0.2638
  578ntf    fn4 2992   0.787   1.120   5.399  0.0216 -0.6406 -0.0337
  578ntf    fn4 2993   0.924   1.270   5.357 -0.3784  0.6792  0.2865
  578ntf    on5 2994   0.809   1.155   5.046 -0.4518  0.0074  0.5801
  578ntf    on5 2995   1.030   1.113   5.156 -0.0828 -0.1794  0.4806
  578ntf    on5 2996   0.814   0.726   5.257 -0.0551 -0.0336  0.5407
  578ntf    on5 2997   0.990   0.861   5.359 -0.1454 -0.0066  0.3128
  578ntf    fn4 2998   1.102   0.882   5.075  0.4162  0.0683  0.0327
  578ntf    fn4 2999   1.079   0.676   5.129 -0.1040  0.0010 -0.5465
  578ntf    fn4 3000   0.950   0.769   4.992  0.3190  0.4904  0.1049
  579ntf    cn1 3001   0.643   1.514   2.091  0.4902  0.2926 -0.2492
  579ntf    sn2 3002   0.617   1.335   2.076  0.3646  0.3140 -0.2903
  579ntf    nn3 3003   0.626   1.308   2.230  0.0346  0.9122 -0.1643
  579ntf    sn2 3004   0.516   1.271   2.335  0.2390  0.0080 -0.2578
  579ntf    cn1 3005   0.563   1.396   2.459 -0.0753 -0.0151 -0.1124
  579ntf    fn4 3006   0.574   1.569   2.189  0.4834 -0.2620  0.0596
  579ntf    fn4 3007   0.769   1.554   2.106  0.5343  0.4268 -0.9526
  579ntf    fn4 3008   0.600   1.578   1.983 -0.5816 -0.2840 -0.1752
  579ntf    on5 3009   0.490   1.313   2.012  0.1453  0.1767  0.1955
  579ntf    on5 3010   0.740   1.298   2.008  0.5568  0.3933  0.0127
  579ntf    on5 3011   0.549   1.149   2.404  0.5885  0.2399 -0.0126
  579ntf    on5 3012   0.383   1.312   2.294 -0.0183 -0.3021  0.2580
  579ntf    fn4 3013   0.487   1.399   2.567  0.0203  0.5165 -0.0564
  579ntf    fn4 3014   0.688   1.365   2.490 -0.0524  0.4346  0.2606
  579ntf    fn4 3015   0.565   1.516   2.403  0.5575  0.2605  0.4882
  580ntf    cn1 3016   1.414   0.272   1.458 -0.1321  0.0390  0.0060
  580ntf    sn2 3017   1.433   0.151   1.593  0.1592 -0.1940 -0.2392
  580ntf    nn3 3018   1.576   0.095   1.565  0.4675  0.1379  0.6105
  580ntf    sn2 3019   1.662   0.009   1.664  0.2664 -0.3083  0.3995
  580ntf    cn1 3020   1.824   0.066   1.606  0.2404 -0.4260  0.2116
  580ntf    fn4 3021   1.521   0.349   1.448  0.0277 -0.2702 -0.7126
  580ntf    fn4 3022   1.389   0.223   1.338 -0.0436  0.0521 -0.0180
  580ntf    fn4 3023   1.313   0.350   1.491  0.2287  0.3433  0.4121
  580ntf    on5 3024   1.425   0.229   1.715  0.1014  0.0360 -0.3890
  580ntf    on5 3025   1.327   0.059   1.561  0.0106  0.2575 -1.0764
  580ntf    on5 3026   1.661  -0.133   1.639 -0.0148 -0.3441  0.6033
  580ntf    on5 3027   1.663   0.057   1.800  0.1529  0.7006  0.0512
  580ntf    fn4 3028   1.841   0.037   1.477  0.8145  0.2642  0.1272
  580ntf    fn4 3029   1.836   0.197   1.611 -0.2689 -0.3958  0.5859
  580ntf    fn4 3030   1.929   0.017   1.670  0.3848 -0.1473  0.1886
  581ntf    cn1 3031   1.131   2.482   0.882 -0.0088 -0.0223  0.0266
  581ntf    sn2 3032   1.287   2.574   0.870 -0.0229  0.0067  0.0688
  581ntf    nn3 3033   1.281   2.631   0.724  0.0828  0.4703  0.2443
  581ntf    sn2 3034   1.217   2.764   0.672 -0.3731  0.0739 -0.2139
  581ntf    cn1 3035   1.353   2.885   0.674  0.0307 -0.3846 -0.0284
  581ntf    fn4 3036   1.103   2.432   0.763  0.8483 -0.0991 -0.1440
  581ntf    fn4 3037   1.150   2.374   0.957  0.0586  0.0862  0.1654
  581ntf    fn4 3038   1.027   2.544   0.937 -0.2168 -0.2841 -0.0692
  581ntf    on5 3039   1.276   2.677   0.971  0.0935  0.0741  0.0135
  581ntf    on5 3040   1.395   2.482   0.897  0.3559  0.3934 -0.1335
  581ntf    on5 3041   1.112   2.824   0.751 -0.2198 -0.1922  0.1918
  581ntf    on5 3042   1.202   2.749   0.529 -0.0133  0.1952 -0.2649
  581ntf    fn4 3043   1.327   2.992   0.601 -0.7587 -0.3913  0.2388
  581ntf    fn4 3044   1.374   2.947   0.789 -0.4464 -0.0601 -0.1155
  581ntf    fn4 3045   1.464   2.841   0.616 -0.0195 -0.4525 -0.0729
  582ntf    cn1 3046   0.545   1.250   6.464 -0.3456 -0.0515 -0.0681
  582ntf    sn2 3047   0.461   1.407   6.501 -0.2096  0.0277 -0.0937
  582ntf    nn3 3048   0.352   1.370   6.609 -0.1003  0.4028  0.1455
  582ntf    sn2 3049   0.257   1.465   6.690 -0.4355 -0.1279  0.3766
  582ntf    cn1 3050   0.360   1.495   6.837  0.2723 -0.5284 -0.0318
  582ntf    fn4 3051   0.644   1.270   6.378 -0.1609  0.0555  0.1705
  582ntf    fn4 3052   0.606   1.204   6.571 -0.0300  0.2534 -0.1162
  582ntf    fn4 3053   0.464   1.155   6.420 -0.1588  0.1095 -0.7860
  582ntf    on5 3054   0.556   1.497   6.562 -0.5641  0.1657  0.2595
  582ntf    on5 3055   0.406   1.449   6.375 -0.1853 -0.3324 -0.2273
  582ntf    on5 3056   0.135   1.400   6.732 -0.1943 -0.1365  1.0716
  582ntf    on5 3057   0.239   1.602   6.647  1.0820  0.0784  0.3460
  582ntf    fn4 3058   0.420   1.385   6.879  0.1104 -0.5929  0.0325
  582ntf    fn4 3059   0.456   1.581   6.804 -0.2875 -0.2558 -0.9974
  582ntf    fn4 3060   0.295   1.550   6.938 -0.0091  0.6826 -0.8449
  583ntf    cn1 3061   0.697   2.454   3.360 -0.0951 -0.2901 -0.0573
  583ntf    sn2 3062   0.521   2.410   3.342 -0.1620  0.0504 -0.2498
  583ntf    nn3 3063   0.538   2.300   3.231 -0.1245 -0.3589  0.1564
  583ntf    sn2 3064   0.559   2.324   3.077 -0.0274  0.0861  0.2365
  583ntf    cn1 3065   0.389   2.364   3.025  0.1183 -0.1364 -0.4246
  583ntf    fn4 3066   0.771   2.351   3.397  0.3820  0.1732  0.2796
  583ntf    fn4 3067   0.756   2.503   3.252 -0.0228 -0.0625  0.0867
  583ntf    fn4 3068   0.719   2.551   3.446 -0.2322 -0.2261 -0.0944
  583ntf    on5 3069   0.467   2.341   3.456  0.6130 -0.1459  0.0063
  583ntf    on5 3070   0.466   2.538   3.304  0.0200  0.3778  0.5674
  583ntf    on5 3071   0.601   2.205   3.008 -0.2779 -0.1267  0.4497
  583ntf    on5 3072   0.625   2.447   3.041  0.0553 -0.1306 -0.3656
  583ntf    fn4 3073   0.350   2.484   3.065 -0.0398 -0.2848 -0.1248
  583ntf    fn4 3074   0.380   2.367   2.893  0.3363 -0.2380 -0.4427
  583ntf    fn4 3075   0.294   2.281   3.067 -0.0796  0.3993  0.2099
  584ntf    cn1 3076   1.313   2.028   4.884 -0.3008  0.0586 -0.2498
  584ntf    sn2 3077   1.249   2.170   4.792 -0.0553  0.2844 -0.0747
  584ntf    nn3 3078   1.350   2.275   4.851 -0.3853  0.6506 -0.1514
  584ntf    sn2 3079   1.352   2.341   4.993  0.0617  0.1178  0.0977
  584ntf    cn1 3080   1.449   2.490   4.953 -0.0378  0.1660  0.0325
  584ntf    fn4 3081   1.434   2.000   4.838 -0.2465  0.4581 -0.3500
  584ntf    fn4 3082   1.323   2.037   5.016 -0.3461  0.2229 -0.2588
  584ntf    fn4 3083   1.230   1.929   4.856 -0.2695 -0.1771  0.4720
  584ntf    on5 3084   1.277   2.133   4.655  0.2162 -0.3813  0.1585
  584ntf    on5 3085   1.108   2.178   4.821  0.0513 -0.0309  0.5355
  584ntf    on5 3086   1.437   2.278   5.090 -0.1018 -0.3234 -0.0451
  584ntf    on5 3087   1.224   2.397   5.027 -0.1619 -0.4487  0.1908
  584ntf    fn4 3088   1.570   2.464   4.905 -0.1042  0.5459 -0.3483
  584ntf    fn4 3089   1.393   2.572   4.866 -0.2550  0.1853  0.1926
  584ntf    fn4 3090   1.473   2.563   5.061 -0.1822  0.2220  0.0262
  585ntf    cn1 3091   1.571   1.594   3.224 -0.2914  0.3570 -0.1347
  585ntf    sn2 3092   1.593   1.754   3.140  0.1672  0.3194 -0.0897
  585ntf    nn3 3093   1.608   1.709   2.990 -0.3871 -0.6225  0.1242
  585ntf    sn2 3094   1.492   1.695   2.885  0.2933 -0.5303 -0.6491
  585ntf    cn1 3095   1.470   1.865   2.824  0.3546 -0.2395  0.1206
  585ntf    fn4 3096   1.466   1.529   3.176 -0.3855  0.5648 -0.2128
  585ntf    fn4 3097   1.674   1.514   3.200  0.2233  0.9631  0.0276
  585ntf    fn4 3098   1.567   1.613   3.355 -0.4236  0.7109 -0.1891
  585ntf    on5 3099   1.481   1.838   3.174 -0.4161 -0.7964  0.8659
  585ntf    on5 3100   1.719   1.795   3.196  0.1564  0.2237  0.0061
  585ntf    on5 3101   1.362   1.667   2.941  0.1571  0.0912 -0.6493
  585ntf    on5 3102   1.541   1.624   2.770  0.7243 -0.4661 -0.5107
  585ntf    fn4 3103   1.577   1.916   2.766  0.0530 -0.5069 -0.6864
  585ntf    fn4 3104   1.378   1.888   2.732  0.1918  0.5373  0.4718
  585ntf    fn4 3105   1.438   1.949   2.920 -0.5778 -0.1018 -0.3042
  586ntf    cn1 3106   2.340   1.766   2.567  0.0295  0.0267 -0.1582
  586ntf    sn2 3107   2.495   1.711   2.644 -0.0811  0.2778  0.2444
  586ntf    nn3 3108   2.579   1.663   2.521  0.6561  0.3697  0.7079
  586ntf    sn2 3109   2.670   1.747   2.424  0.1746 -0.0945 -0.1511
  586ntf    cn1 3110   2.825   1.711   2.511 -0.0497 -0.2549  0.1827
  586ntf    fn4 3111   2.356   1.848   2.465 -0.1377 -0.0887 -0.2783
  586ntf    fn4 3112   2.269   1.663   2.524  0.4492 -0.5550  0.5087
  586ntf    fn4 3113   2.260   1.830   2.651 -0.2307  0.3388 -0.6364
  586ntf    on5 3114   2.535   1.828   2.719  1.0625 -0.2196  0.4382
  586ntf    on5 3115   2.458   1.597   2.724  0.2262  0.4568  0.6480
  586ntf    on5 3116   2.657   1.890   2.433 -0.1193 -0.1477  0.2821
  586ntf    on5 3117   2.695   1.688   2.295 -0.0578 -0.0636 -0.2122
  586ntf    fn4 3118   2.933   1.776   2.470 -0.2563  0.2277  0.3854
  586ntf    fn4 3119   2.815   1.728   2.642 -0.1581 -0.2158  0.1693
  586ntf    fn4 3120   2.859   1.585   2.492 -0.1093 -0.2354 -0.0579
  587ntf    cn1 3121   1.261   1.677   1.181  0.1068  0.1553  0.0880
  587ntf    sn2 3122   1.393   1.801   1.191  0.1746  0.1114 -0.2729
  587ntf    nn3 3123   1.451   1.770   1.048  0.0952  0.0642 -0.2946
  587ntf    sn2 3124   1.550   1.663   0.991  0.4148  0.0519  0.2815
  587ntf    cn1 3125   1.428   1.566   0.897  0.2834  0.1265  0.3746
  587ntf    fn4 3126   1.296   1.550   1.177 -0.4802 -0.0298  0.5044
  587ntf    fn4 3127   1.177   1.692   1.283 -0.0247 -0.8086  0.1340
  587ntf    fn4 3128   1.180   1.691   1.078  0.7288 -0.6492 -0.5197
  587ntf    on5 3129   1.327   1.929   1.197 -0.2915 -0.1423  0.0563
  587ntf    on5 3130   1.474   1.748   1.298 -0.7038  0.1278  0.4153
  587ntf    on5 3131   1.604   1.576   1.093  0.2061 -0.0329  0.3193
  587ntf    on5 3132   1.629   1.728   0.890 -0.1835 -0.4154 -0.4916
  587ntf    fn4 3133   1.383   1.631   0.791 -0.3056 -0.7459  0.0810
  587ntf    fn4 3134   1.490   1.456   0.857 -0.5143 -0.2839  0.2476
  587ntf    fn4 3135   1.322   1.537   0.970  0.2200  0.2480  0.3314
  588ntf    cn1 3136   1.153   2.247   6.458 -0.0161  0.1110  0.1580
  588ntf    sn2 3137   1.231   2.091   6.510  0.0644  0.0705 -0.0813
  588ntf    nn3 3138   1.237   2.143   6.658  0.2585  0.0267 -0.0732
  588ntf    sn2 3139   1.124   2.143   6.767  0.2086 -0.4969 -0.1205
  588ntf    cn1 3140   1.133   2.313   6.833  0.2227 -0.5022 -0.1081
  588ntf    fn4 3141   1.033   2.269   6.509 -0.1699 -0.0599 -0.1263
  588ntf    fn4 3142   1.234   2.348   6.482 -0.4304  0.5021 -0.0638
  588ntf    fn4 3143   1.139   2.256   6.327  0.1857 -0.1050  0.1200
  588ntf    on5 3144   1.132   1.992   6.476  0.0875  0.0258 -0.0202
  588ntf    on5 3145   1.360   2.073   6.448  0.1972 -1.0538  0.4852
  588ntf    on5 3146   1.154   2.061   6.881 -0.6092  0.0142  0.4801
  588ntf    on5 3147   0.987   2.136   6.721  0.0655  0.5804  0.1046
  588ntf    fn4 3148   1.227   2.327   6.924  0.1230 -0.1491 -0.0607
  588ntf    fn4 3149   1.140   2.410   6.743 -0.3711 -0.5756 -0.2399
  588ntf    fn4 3150   1.016   2.342   6.886  0.1705 -0.6667 -0.1313
  589ntf    cn1 3151   2.041   0.545   6.387  0.0804 -0.1031 -0.2351
  589ntf    sn2 3152   2.017   0.687   6.276  0.1475  0.3615  0.3459
  589ntf    nn3 3153   2.172   0.707   6.258  0.1057  0.1353 -0.2532
  589ntf    sn2 3154   2.271   0.623   6.169 -0.1453 -0.1766 -0.2409
  589ntf    cn1 3155   2.342   0.747   6.056 -0.2205  0.1761  0.0952
  589ntf    fn4 3156   2.113   0.453   6.324  0.5691 -0.2121  0.4768
  589ntf    fn4 3157   2.106   0.577   6.497  0.0005 -0.4537 -0.0826
  589ntf    fn4 3158   1.932   0.485   6.433  0.2332  0.2533  0.5961
  589ntf    on5 3159   1.946   0.640   6.160 -0.2653  1.1889  0.2521
  589ntf    on5 3160   1.958   0.797   6.349 -0.8063  0.0099  0.1124
  589ntf    on5 3161   2.214   0.530   6.074 -0.3700  0.2216 -0.5019
  589ntf    on5 3162   2.393   0.584   6.234 -0.2002  0.0442 -0.0036
  589ntf    fn4 3163   2.429   0.824   6.119 -0.0932 -0.0298  0.1722
  589ntf    fn4 3164   2.405   0.694   5.952  0.1932  0.5998  0.1281
  589ntf    fn4 3165   2.249   0.825   6.006 -0.0878  0.0961 -0.2832
  590ntf    cn1 3166   1.243   0.524   3.458  0.1352  0.0929 -0.3590
  590ntf    sn2 3167   1.213   0.488   3.282  0.0570  0.0543 -0.3381
  590ntf    nn3 3168   1.069   0.427   3.280  0.1122 -0.0756 -0.3003
  590ntf    sn2 3169   0.958   0.444   3.170 -0.3322  0.0315  0.1583
  590ntf    cn1 3170   0.932   0.264   3.170  0.0090 -0.0197  0.3394
  590ntf    fn4 3171   1.161   0.618   3.503 -0.2755 -0.2540 -0.3807
  590ntf    fn4 3172   1.233   0.415   3.532  0.3666 -0.1323 -0.6552
  590ntf    fn4 3173   1.366   0.572   3.469  0.1004  0.1157 -0.0719
  590ntf    on5 3174   1.233   0.613   3.212  0.6899  0.0442 -0.1772
  590ntf    on5 3175   1.308   0.383   3.259  0.1416  0.1503 -0.4337
  590ntf    on5 3176   0.998   0.478   3.035 -0.5016 -0.2624  0.0327
  590ntf    on5 3177   0.833   0.499   3.215 -0.3262 -0.0792  0.3128
  590ntf    fn4 3178   0.923   0.219   3.294 -0.0576  0.1319  0.3895
  590ntf    fn4 3179   0.823   0.229   3.104  0.2601 -0.1208 -0.0249
  590ntf    fn4 3180   1.036   0.198   3.123  0.2138  0.5930 -0.0831
  591ntf    cn1 3181   0.675   1.842   5.468  0.1260 -0.0399  0.0098
  591ntf    sn2 3182   0.618   2.005   5.411 -0.3299 -0.2506 -0.1452
  591ntf    nn3 3183   0.745   2.076   5.354 -0.5378 -0.2987 -0.6670
  591ntf    sn2 3184   0.814   2.062   5.213 -0.1953 -0.1693 -0.5131
  591ntf    cn1 3185   0.981   2.005   5.258 -0.0925 -0.0328 -0.7169
  591ntf    fn4 3186   0.757   1.851   5.571 -0.2270  0.2818  0.2648
  591ntf    fn4 3187   0.574   1.765   5.506  0.1947 -0.3178 -0.3566
  591ntf    fn4 3188   0.739   1.767   5.380  0.4024 -0.1739  0.3237
  591ntf    on5 3189   0.529   1.965   5.305  0.0244  0.5110 -0.7370
  591ntf    on5 3190   0.565   2.060   5.534  0.0714 -0.0570 -0.0556
  591ntf    on5 3191   0.834   2.190   5.150  0.1263 -0.2323 -0.5420
  591ntf    on5 3192   0.773   1.954   5.127 -0.3246 -0.2069 -0.4039
  591ntf    fn4 3193   1.042   2.097   5.331 -0.4506 -0.3070 -0.0581
  591ntf    fn4 3194   0.981   1.893   5.329 -0.0615  0.4387  0.0414
  591ntf    fn4 3195   1.049   1.981   5.148  0.2949 -0.4286 -0.3949
  592ntf    cn1 3196   1.343   1.135   1.172 -0.2566 -0.0861  0.1706
  592ntf    sn2 3197   1.286   0.990   1.266 -0.2172 -0.0314  0.2802
  592ntf    nn3 3198   1.415   0.903   1.286 -0.2872 -0.0890  0.4816
  592ntf    sn2 3199   1.538   0.917   1.382 -0.0224  0.0651  0.1206
  592ntf    cn1 3200   1.471   0.830   1.527  0.1458 -0.2432  0.0166
  592ntf    fn4 3201   1.247   1.208   1.116  0.5183  0.6095 -0.2644
  592ntf    fn4 3202   1.398   1.232   1.245  0.1959 -0.1890 -0.0342
  592ntf    fn4 3203   1.439   1.118   1.083  0.5346  0.6976  0.8499
  592ntf    on5 3204   1.219   1.041   1.383 -0.7115 -0.5753  0.2413
  592ntf    on5 3205   1.196   0.940   1.164  0.3146 -0.0720 -0.1745
  592ntf    on5 3206   1.569   1.053   1.416 -0.4579  0.2328 -0.1474
  592ntf    on5 3207   1.645   0.833   1.333  0.1600 -0.0083  0.6360
  592ntf    fn4 3208   1.436   0.704   1.514 -0.2073 -0.2087  0.6109
  592ntf    fn4 3209   1.566   0.824   1.620 -0.5765  0.5952  0.8307
  592ntf    fn4 3210   1.362   0.889   1.574  0.0635 -0.4358  0.0654
  593ntf    cn1 3211   0.907   0.724   1.029 -0.0264  0.5382 -0.1314
  593ntf    sn2 3212   0.746   0.792   1.078 -0.0308  0.4041  0.0408
  593ntf    nn3 3213   0.682   0.652   1.109  0.1929  0.3988  0.4893
  593ntf    sn2 3214   0.588   0.612   1.228  0.1173 -0.5337  0.1205
  593ntf    cn1 3215   0.717   0.531   1.326  0.3748 -0.3787 -0.0901
  593ntf    fn4 3216   0.969   0.644   1.115 -1.1928 -0.5492 -0.2628
  593ntf    fn4 3217   0.895   0.642   0.926  1.0665 -0.3851  0.4483
  593ntf    fn4 3218   0.994   0.810   0.980  0.1694  0.0323 -0.6833
  593ntf    on5 3219   0.780   0.869   1.195  0.5486 -0.1996  0.2741
  593ntf    on5 3220   0.703   0.858   0.957  0.0825  0.2006 -0.1108
  593ntf    on5 3221   0.489   0.510   1.199 -0.7838  0.2990  0.2064
  593ntf    on5 3222   0.538   0.724   1.304  1.3633 -0.1240  0.3504
  593ntf    fn4 3223   0.680   0.498   1.449 -0.4600  0.0131 -0.2320
  593ntf    fn4 3224   0.743   0.417   1.264  0.6136 -0.3936  0.0335
  593ntf    fn4 3225   0.837   0.587   1.332  0.3038 -0.1318 -0.9091
  594ntf    cn1 3226   0.022   0.857   4.314 -0.0963  0.0103  0.4555
  594ntf    sn2 3227   0.153   0.983   4.320 -0.0427 -0.0210  0.0064
  594ntf    nn3 3228   0.059   1.107   4.338 -0.0576 -0.0458  0.1005
  594ntf    sn2 3229   0.105   1.249   4.387  0.0149 -0.0517  0.0497
  594ntf    cn1 3230   0.082   1.248   4.568 -0.0682  0.1487  0.0413
  594ntf    fn4 3231  -0.087   0.898   4.251  0.1029  0.0852  0.1603
  594ntf    fn4 3232   0.053   0.749   4.245  0.3697  0.3840  0.0753
  594ntf    fn4 3233  -0.010   0.812   4.434 -0.2929  0.0190  0.4067
  594ntf    on5 3234   0.237   0.967   4.437 -0.3369 -0.1603  0.1997
  594ntf    on5 3235   0.219   0.968   4.193  0.1559  0.6371  0.0276
  594ntf    on5 3236   0.020   1.354   4.336 -0.0425 -0.1392 -0.0365
  594ntf    on5 3237   0.246   1.264   4.361  0.1418 -0.7292  0.3384
  594ntf    fn4 3238   0.102   1.364   4.628  0.2578  0.0025  0.2185
  594ntf    fn4 3239  -0.039   1.210   4.604 -0.1979  0.5851  0.0662
  594ntf    fn4 3240   0.166   1.163   4.624 -0.5798 -0.0115  0.5770
   2.52819   2.52819   7.06220
